1000 SPC/Fw water molecules t= 201.00000 step= 201000
 3000
    1SOL     OW    1   2.827   3.012   1.008 -0.2830 -0.1556 -0.4491
    1SOL    HW1    2   2.749   3.079   1.001 -0.8488  2.2779  0.0371
    1SOL    HW2    3   2.882   3.025   0.922 -1.4376 -1.6179 -0.7429
    2SOL     OW    4   2.010   1.636   2.029 -0.2036  0.2040 -0.8348
    2SOL    HW1    5   2.083   1.621   2.098 -1.3268 -0.9732  0.8181
    2SOL    HW2    6   1.919   1.660   2.067  1.0195  0.3056  1.7589
    3SOL     OW    7   2.051   2.507   2.163  0.8985 -0.1866  0.1410
    3SOL    HW1    8   1.978   2.555   2.102 -1.5940 -0.7837 -1.1232
    3SOL    HW2    9   2.006   2.430   2.221  0.8221 -0.7576  0.6880
    4SOL     OW   10   1.930   1.939   2.195 -0.0755 -0.2655 -0.2293
    4SOL    HW1   11   2.031   1.953   2.191 -2.7931 -2.4633  1.9440
    4SOL    HW2   12   1.905   1.859   2.254 -0.0762  2.3051 -1.9712
    5SOL     OW   13   1.368   0.592   1.681 -0.1674 -0.9270  0.1431
    5SOL    HW1   14   1.299   0.642   1.626 -0.5920 -0.5123 -0.7733
    5SOL    HW2   15   1.398   0.505   1.635  1.5686  3.6236 -2.0530
    6SOL     OW   16   2.838   0.715   2.861  0.2102  0.1858 -0.1340
    6SOL    HW1   17   2.867   0.710   2.960 -0.1039 -0.0039 -2.7963
    6SOL    HW2   18   2.789   0.634   2.836  3.5360  2.9442 -1.2656
    7SOL     OW   19   0.762   0.967   1.274 -0.3760 -0.1426 -0.1907
    7SOL    HW1   20   0.860   0.949   1.275 -2.9466  2.7003 -1.8196
    7SOL    HW2   21   0.753   1.072   1.277 -0.5651  3.9581 -3.7905
    8SOL     OW   22   1.311   0.689   0.882 -0.1902 -0.0331  0.0281
    8SOL    HW1   23   1.255   0.744   0.944 -1.9533  2.4237  1.7315
    8SOL    HW2   24   1.411   0.703   0.900 -0.0648 -1.1446  0.7000
    9SOL     OW   25   0.971   0.929   2.710 -0.5657 -0.4855  0.4272
    9SOL    HW1   26   1.058   0.982   2.703 -1.6481  0.8513 -0.9786
    9SOL    HW2   27   0.985   0.826   2.696 -0.3641  0.0601  0.9609
   10SOL     OW   28   0.199   2.593   0.294 -0.2079 -0.6330 -0.1196
   10SOL    HW1   29   0.263   2.514   0.315 -0.4505 -4.4550  0.3186
   10SOL    HW2   30   0.246   2.656   0.230  0.1693 -0.1997 -1.9490
   11SOL     OW   31   0.514   1.412   0.005  0.2122 -0.4447 -0.2171
   11SOL    HW1   32   0.584   1.371   3.030  0.8877 -2.3124  1.8575
   11SOL    HW2   33   0.425   1.431   3.048 -0.5184  1.7775 -3.0488
   12SOL     OW   34   0.455   0.261   1.405  0.6077 -0.3163  0.4863
   12SOL    HW1   35   0.415   0.167   1.383  0.0481 -0.9503 -1.9742
   12SOL    HW2   36   0.485   0.266   1.503  0.8047 -1.7991 -0.5573
   13SOL     OW   37   1.053   0.143   0.240  0.4281  0.4061 -0.5929
   13SOL    HW1   38   1.082   0.178   0.331 -2.4127 -0.8928  1.5895
   13SOL    HW2   39   1.133   0.133   0.173  2.2864  1.1770 -0.9033
   14SOL     OW   40   1.229   2.273   1.221 -0.1071 -0.5960  0.0408
   14SOL    HW1   41   1.178   2.280   1.131 -1.7898  2.7220  0.7807
   14SOL    HW2   42   1.175   2.308   1.301  0.4581  2.8328 -0.0106
   15SOL     OW   43   2.590   0.706   1.995  0.7908  0.2675 -0.3207
   15SOL    HW1   44   2.689   0.697   1.997 -0.7412  0.7175 -1.8911
   15SOL    HW2   45   2.552   0.725   1.904 -1.1593  2.0349  0.3976
   16SOL     OW   46   1.239   2.760   3.066  0.3381 -0.2258  0.3162
   16SOL    HW1   47   1.211   2.811   0.059  0.1605 -1.4021  0.9907
   16SOL    HW2   48   1.200   2.666   3.075  1.8725 -2.0313  3.5516
   17SOL     OW   49   1.006   0.099   1.515 -0.1325 -0.3425  0.7361
   17SOL    HW1   50   0.937   0.033   1.546  0.1397 -1.8169  0.1796
   17SOL    HW2   51   0.963   0.181   1.471 -1.8454  0.5041  0.4223
   18SOL     OW   52   1.099   0.957   0.246 -0.2214 -0.3883  0.1767
   18SOL    HW1   53   1.046   1.047   0.261  0.7372 -0.3750 -0.9815
   18SOL    HW2   54   1.200   0.973   0.234  4.3171  2.1834  1.3992
   19SOL     OW   55   1.974   1.490   0.057 -0.4961 -0.2139  0.5277
   19SOL    HW1   56   2.004   1.553   3.070 -2.4315  1.9916 -0.8312
   19SOL    HW2   57   2.020   1.398   0.043  1.6682 -0.7703  2.1499
   20SOL     OW   58   1.927   1.707   1.657  0.2975  0.3574  0.0268
   20SOL    HW1   59   1.927   1.763   1.744 -0.2943 -0.2853 -2.2691
   20SOL    HW2   60   1.843   1.651   1.649 -0.9675  1.3748  1.0270
   21SOL     OW   61   0.684   1.162   0.115 -0.2944 -0.1061  0.3237
   21SOL    HW1   62   0.729   1.233   0.169 -1.0599 -1.2894 -2.3165
   21SOL    HW2   63   0.669   1.192   0.018 -0.8310 -0.5994  0.8439
   22SOL     OW   64   2.319   0.148   1.337 -0.3082 -0.3490 -0.4823
   22SOL    HW1   65   2.306   0.225   1.401  0.2354 -4.0712  0.2991
   22SOL    HW2   66   2.228   0.108   1.318 -0.1256 -0.9957 -1.0316
   23SOL     OW   67   0.081   0.930   1.666 -0.4128 -0.7833  0.5139
   23SOL    HW1   68   0.137   0.850   1.651 -0.1848 -1.0453 -3.9199
   23SOL    HW2   69   0.137   1.009   1.637 -0.8708  0.6443  0.8788
   24SOL     OW   70   2.386   2.367   1.248  0.5561 -0.6391  0.0616
   24SOL    HW1   71   2.377   2.403   1.151  3.6051 -1.9783 -0.8287
   24SOL    HW2   72   2.461   2.416   1.287 -1.0310 -3.9070 -1.4559
   25SOL     OW   73   2.101   2.636   2.642 -0.0191  0.7842  0.1553
   25SOL    HW1   74   2.163   2.558   2.626  2.9490 -0.6431 -1.1824
   25SOL    HW2   75   2.051   2.659   2.555 -1.0030 -1.0077 -0.9835
   26SOL     OW   76   1.162   2.527   0.050  0.1957 -0.3126  0.9018
   26SOL    HW1   77   1.103   2.444   0.045 -0.7875  0.0145  0.1704
   26SOL    HW2   78   1.166   2.558   0.147 -1.5004 -1.8052 -0.2622
   27SOL     OW   79   0.389   1.846   2.514 -0.1106  0.5040 -0.2888
   27SOL    HW1   80   0.328   1.762   2.506 -1.9435 -1.2188  0.4156
   27SOL    HW2   81   0.448   1.847   2.598  1.0258  0.3559 -1.1978
   28SOL     OW   82   2.997   1.564   1.762  0.3931 -0.4775  0.0148
   28SOL    HW1   83   2.969   1.640   1.698  0.6323  0.1071 -4.1894
   28SOL    HW2   84   3.049   1.602   1.837 -2.6652 -0.0971 -0.0150
   29SOL     OW   85   2.666   2.217   1.991 -0.1570 -0.4085  0.8956
   29SOL    HW1   86   2.656   2.176   2.082 -2.2480  0.0555  0.6396
   29SOL    HW2   87   2.757   2.260   1.991 -3.9724  0.7703 -1.5410
   30SOL     OW   88   1.305   2.951   0.489  0.2457  0.0964  0.7641
   30SOL    HW1   89   1.326   2.879   0.563  0.9658  0.2481  2.3643
   30SOL    HW2   90   1.226   3.005   0.521 -1.2235 -0.2305  3.0034
   31SOL     OW   91   2.748   2.565   1.871  0.1050  0.5226 -0.5501
   31SOL    HW1   92   2.795   2.482   1.838 -1.0123 -0.1963 -0.3193
   31SOL    HW2   93   2.805   2.647   1.865 -1.5322 -1.8649  0.1578
   32SOL     OW   94   1.030   1.122   1.734 -0.2764 -0.0109  0.7074
   32SOL    HW1   95   1.112   1.164   1.688  0.3659 -0.5991  1.2151
   32SOL    HW2   96   1.002   1.029   1.695 -3.9608 -1.3484 -1.2022
   33SOL     OW   97   0.334   2.731   2.398  0.6748  0.3965 -0.7110
   33SOL    HW1   98   0.273   2.659   2.434 -3.1991 -0.2032 -0.7638
   33SOL    HW2   99   0.406   2.685   2.341  0.6204 -0.1663 -0.4306
   34SOL     OW  100   1.847   0.139   0.928 -0.2729 -0.2606 -0.4140
   34SOL    HW1  101   1.912   0.215   0.934 -3.5669 -0.0726 -1.2077
   34SOL    HW2  102   1.855   0.089   1.013  0.9964  0.0514 -0.4672
   35SOL     OW  103   2.305   0.132   0.833 -0.0841  0.1562 -0.0041
   35SOL    HW1  104   2.336   0.034   0.837  2.1327 -0.1503  3.1468
   35SOL    HW2  105   2.342   0.174   0.752 -1.3120 -1.4357 -1.3549
   36SOL     OW  106   2.030   2.691   2.401 -0.3399  0.0469  0.2995
   36SOL    HW1  107   2.081   2.634   2.329 -0.6972 -0.3169 -2.6499
   36SOL    HW2  108   1.929   2.669   2.381 -2.0404 -1.5350  1.6658
   37SOL     OW  109   1.061   2.439   2.486 -0.0550 -0.2993  0.1504
   37SOL    HW1  110   1.061   2.462   2.583  1.2464 -1.8065 -2.2683
   37SOL    HW2  111   1.153   2.398   2.452 -0.7717  0.1191 -0.6329
   38SOL     OW  112   2.744   0.443   2.820  0.3988  0.0245 -0.0945
   38SOL    HW1  113   2.699   0.395   2.895  1.7593  0.1988  1.7877
   38SOL    HW2  114   2.843   0.431   2.827 -2.0059  0.0284 -0.1962
   39SOL     OW  115   2.214   1.552   1.580  0.1755 -0.3820 -0.0120
   39SOL    HW1  116   2.237   1.649   1.610 -0.6632 -1.6441  0.4341
   39SOL    HW2  117   2.258   1.539   1.494 -0.0951  1.8666  0.2108
   40SOL     OW  118   0.202   2.985   2.804  0.2891  0.3094 -0.2490
   40SOL    HW1  119   0.143   3.069   2.814  0.0246  0.8449 -0.5639
   40SOL    HW2  120   0.264   2.989   2.721  0.2307  0.1636 -1.1940
   41SOL     OW  121   1.879   0.575   1.051  0.0915  0.1914 -0.0286
   41SOL    HW1  122   1.883   0.611   0.955 -1.1940  1.0127  0.1755
   41SOL    HW2  123   1.960   0.516   1.063  1.6423 -0.1516 -0.0067
   42SOL     OW  124   0.662   0.384   1.259 -0.1056  0.0516  0.4277
   42SOL    HW1  125   0.610   0.327   1.321 -1.9144 -1.2883  2.3622
   42SOL    HW2  126   0.765   0.370   1.260  0.3066 -0.0522 -3.6026
   43SOL     OW  127   2.485   1.184   2.263  0.2755  0.6983  0.2311
   43SOL    HW1  128   2.392   1.153   2.222 -1.6722 -1.5103  1.4647
   43SOL    HW2  129   2.565   1.179   2.202  0.3856 -1.6865 -0.3044
   44SOL     OW  130   2.951   2.903   0.331  0.8949  0.3321 -0.5951
   44SOL    HW1  131   2.964   2.978   0.264 -1.1286 -1.4169 -0.9777
   44SOL    HW2  132   3.011   2.912   0.413 -0.2675  1.6509 -0.0932
   45SOL     OW  133   3.051   2.612   1.752 -0.0682 -0.2325  0.5368
   45SOL    HW1  134   2.978   2.687   1.753 -1.1373 -0.6747 -3.6637
   45SOL    HW2  135   3.043   2.562   1.666  1.1154  0.8097  0.4134
   46SOL     OW  136   2.249   2.399   2.039 -0.0707 -0.2312 -0.1531
   46SOL    HW1  137   2.165   2.439   2.086 -0.2211 -2.7336  0.5062
   46SOL    HW2  138   2.334   2.387   2.095  1.3883 -0.9552 -0.1306
   47SOL     OW  139   1.599   2.262   1.564 -0.1029  0.0890 -0.2940
   47SOL    HW1  140   1.658   2.181   1.594 -0.0834  1.4170  3.9196
   47SOL    HW2  141   1.619   2.293   1.468 -0.5482  3.1997 -1.6253
   48SOL     OW  142   0.534   1.708   0.305  0.7590  0.0565  0.3252
   48SOL    HW1  143   0.602   1.682   0.234  0.4310  1.9228  2.0260
   48SOL    HW2  144   0.561   1.665   0.390 -1.4363  1.2573  0.0301
   49SOL     OW  145   2.690   0.359   2.586 -0.5549  0.1568 -0.1532
   49SOL    HW1  146   2.709   0.413   2.674 -0.3203  0.3191  0.9887
   49SOL    HW2  147   2.599   0.391   2.550  2.1355 -0.2940 -1.2572
   50SOL     OW  148   2.210   0.758   0.368  0.1668 -0.3128 -0.1216
   50SOL    HW1  149   2.273   0.735   0.442  1.0611 -2.0032  0.8030
   50SOL    HW2  150   2.260   0.802   0.287  2.0706  1.9121 -0.7900
   51SOL     OW  151   1.726   0.652   1.245  0.3961  0.3737  0.4677
   51SOL    HW1  152   1.702   0.587   1.322  1.3588  0.2278  3.3500
   51SOL    HW2  153   1.773   0.602   1.169 -1.2951 -0.8448  2.9992
   52SOL     OW  154   0.947   1.395   2.914 -0.7662 -0.6009  0.4618
   52SOL    HW1  155   0.967   1.326   2.986 -3.6797  0.9405 -1.3617
   52SOL    HW2  156   1.017   1.472   2.916 -2.1831  0.4833  3.2045
   53SOL     OW  157   0.954   1.492   2.197 -0.0529 -0.2560 -0.1464
   53SOL    HW1  158   0.954   1.583   2.147 -1.5889 -0.1531 -4.2909
   53SOL    HW2  159   0.865   1.444   2.183  0.2317  0.7441 -0.6332
   54SOL     OW  160   2.152   0.361   1.240  0.2100 -0.7639  0.4944
   54SOL    HW1  161   2.080   0.312   1.195  0.5259  1.8284  1.3823
   54SOL    HW2  162   2.231   0.381   1.179  1.2167 -0.5396  0.3766
   55SOL     OW  163   2.617   2.905   0.663  0.3485  0.0170  0.4356
   55SOL    HW1  164   2.638   2.858   0.576 -0.8952  0.6158 -1.7918
   55SOL    HW2  165   2.680   2.985   0.663  1.9453 -0.3567 -1.6759
   56SOL     OW  166   0.907   2.714   1.528 -0.0090  0.2565 -0.0999
   56SOL    HW1  167   0.931   2.626   1.485 -1.8703 -0.8027 -0.4058
   56SOL    HW2  168   0.995   2.755   1.569  0.8101 -0.3828  1.3056
   57SOL     OW  169   1.492   1.338   0.323 -0.6237  0.2256  0.2749
   57SOL    HW1  170   1.487   1.262   0.391 -1.1200  1.6395 -1.4789
   57SOL    HW2  171   1.528   1.423   0.367  0.5659  2.2369 -3.0581
   58SOL     OW  172   0.007   0.719   2.408 -0.5904  0.5179  0.4445
   58SOL    HW1  173   3.055   0.789   2.350  2.8854  0.4616 -1.8940
   58SOL    HW2  174   3.038   0.634   2.417  0.8503 -2.4784  0.9762
   59SOL     OW  175   1.104   2.753   2.609 -0.1062  0.6756 -0.0910
   59SOL    HW1  176   1.107   2.815   2.691 -1.4838 -1.9826 -0.2958
   59SOL    HW2  177   1.033   2.681   2.624  1.4257  1.5648 -3.3520
   60SOL     OW  178   2.354   2.734   0.675 -0.4718 -0.4718 -0.5242
   60SOL    HW1  179   2.450   2.743   0.704  0.5540 -0.0260 -1.2796
   60SOL    HW2  180   2.335   2.641   0.640 -0.8421  1.7308  0.1914
   61SOL     OW  181   1.075   2.313   0.579 -0.0107  0.1067  0.1329
   61SOL    HW1  182   1.153   2.312   0.510  0.3189  1.7704  0.2219
   61SOL    HW2  183   1.051   2.414   0.610 -1.3457  3.4532  2.7852
   62SOL     OW  184   2.347   2.213   2.583 -0.7620 -0.0472 -0.1321
   62SOL    HW1  185   2.285   2.139   2.543 -4.4837 -2.9631 -0.1550
   62SOL    HW2  186   2.395   2.175   2.665 -1.5177  1.7996 -0.3023
   63SOL     OW  187   2.270   0.801   2.788  0.4228  0.3956 -0.0392
   63SOL    HW1  188   2.337   0.774   2.714  0.9348 -1.9800  2.4579
   63SOL    HW2  189   2.171   0.804   2.756  0.1901  2.0575  0.7930
   64SOL     OW  190   1.272   0.855   3.012 -0.6654 -1.1796  0.5219
   64SOL    HW1  191   1.183   0.832   3.045  1.3740 -1.2701 -0.6830
   64SOL    HW2  192   1.333   0.770   3.021  1.2153 -1.6727 -0.0906
   65SOL     OW  193   0.961   1.910   0.419  0.4423  0.2816 -0.3499
   65SOL    HW1  194   0.930   1.813   0.400 -1.9838 -0.4379  1.9068
   65SOL    HW2  195   1.064   1.922   0.416 -0.6481 -0.0819  1.6529
   66SOL     OW  196   0.372   1.086   1.931  0.0299 -0.5035 -0.1119
   66SOL    HW1  197   0.375   1.183   1.962  1.7300 -1.9998  0.4752
   66SOL    HW2  198   0.435   1.070   1.854  1.4575 -0.6259 -1.6649
   67SOL     OW  199   2.318   2.805   2.668  0.4112  0.1870 -0.6630
   67SOL    HW1  200   2.275   2.894   2.687 -1.6769 -2.1330 -1.4555
   67SOL    HW2  201   2.246   2.732   2.654 -2.3016 -2.8774 -0.7379
   68SOL     OW  202   0.749   1.897   1.382 -0.5872  0.2682 -0.6039
   68SOL    HW1  203   0.799   1.987   1.380  2.0890  1.5654 -1.2864
   68SOL    HW2  204   0.652   1.914   1.387 -0.7938  0.6413  0.7241
   69SOL     OW  205   1.129   2.629   0.316 -0.0851  0.1772  0.0604
   69SOL    HW1  206   1.042   2.607   0.366 -1.7560  1.1041  3.1905
   69SOL    HW2  207   1.216   2.603   0.368 -3.2743  0.6219  0.1939
   70SOL     OW  208   3.009   1.174   2.847  0.3122  0.0854 -0.5805
   70SOL    HW1  209   3.087   1.205   2.907  2.5620  2.1722  0.1205
   70SOL    HW2  210   3.038   1.118   2.764  0.0734 -0.3682  0.3787
   71SOL     OW  211   2.842   1.376   2.860  0.4103 -0.4206 -0.0344
   71SOL    HW1  212   2.896   1.294   2.852  0.0400  0.9970 -0.3692
   71SOL    HW2  213   2.754   1.378   2.816  0.9050 -1.0746 -0.9076
   72SOL     OW  214   2.721   2.245   0.286  0.4847  0.3322  0.2867
   72SOL    HW1  215   2.697   2.185   0.365  0.8776 -1.4535  0.0632
   72SOL    HW2  216   2.823   2.254   0.279  1.0649 -1.3276 -0.7986
   73SOL     OW  217   0.800   1.377   0.270 -0.0767 -0.1574  0.3071
   73SOL    HW1  218   0.782   1.461   0.213 -0.0090  3.2400  1.1755
   73SOL    HW2  219   0.739   1.372   0.353  0.8781  3.2177  1.5165
   74SOL     OW  220   0.101   0.845   3.057  0.1870  0.3584 -0.8610
   74SOL    HW1  221   0.126   0.790   0.046 -2.8881  0.1076  2.2378
   74SOL    HW2  222   0.079   0.793   2.975 -0.3245  4.3524  1.6350
   75SOL     OW  223   2.063   1.454   1.785  0.2184  0.1601  0.0069
   75SOL    HW1  224   2.117   1.496   1.711 -0.6982  2.1909 -3.8937
   75SOL    HW2  225   2.012   1.532   1.829  1.4966  2.2659 -1.6033
   76SOL     OW  226   2.013   2.671   1.491 -0.6028  0.1777  0.0832
   76SOL    HW1  227   2.111   2.690   1.518  0.3637  1.5428 -1.4365
   76SOL    HW2  228   1.946   2.670   1.570 -0.9620  0.9907  4.0161
   77SOL     OW  229   2.587   0.468   1.084 -0.1349  0.3397  0.5126
   77SOL    HW1  230   2.672   0.422   1.121  1.8943  0.5320  0.3655
   77SOL    HW2  231   2.509   0.406   1.087  0.3373  2.1776  1.2474
   78SOL     OW  232   1.537   1.013   0.132  0.1686 -0.6153 -0.7748
   78SOL    HW1  233   1.551   0.947   0.052  1.0135 -1.1264 -2.9211
   78SOL    HW2  234   1.504   1.106   0.099 -2.2658  0.9411  2.7744
   79SOL     OW  235   0.521   1.932   1.819  0.7117 -0.1092  0.5819
   79SOL    HW1  236   0.539   2.009   1.752 -0.4673  2.9220  0.5543
   79SOL    HW2  237   0.600   1.872   1.835 -1.5563 -0.4085  1.2233
   80SOL     OW  238   1.496   1.142   1.264  0.3104  0.2312  0.0088
   80SOL    HW1  239   1.455   1.123   1.357  0.8146  2.5333  3.9291
   80SOL    HW2  240   1.490   1.062   1.203 -2.3184  1.8429  2.3958
   81SOL     OW  241   0.602   2.893   0.978  0.1740  0.5232  0.1906
   81SOL    HW1  242   0.514   2.946   0.984  0.1392  0.2297  1.1999
   81SOL    HW2  243   0.668   2.950   0.924 -0.1016 -1.6169 -0.2970
   82SOL     OW  244   1.874   2.690   1.714  0.2198 -0.1928  0.1979
   82SOL    HW1  245   1.887   2.794   1.724  0.6385  1.1344  1.6600
   82SOL    HW2  246   1.876   2.651   1.811 -1.9139 -2.1151  0.1584
   83SOL     OW  247   0.869   2.619   1.176  0.2458 -0.1596 -0.1135
   83SOL    HW1  248   0.786   2.593   1.234  0.3626  0.0034  3.7774
   83SOL    HW2  249   0.950   2.564   1.205  1.7531  1.3001 -0.5245
   84SOL     OW  250   0.530   1.350   2.732 -0.1252 -0.0281 -0.6631
   84SOL    HW1  251   0.447   1.392   2.697  0.2690 -1.3000  0.6792
   84SOL    HW2  252   0.543   1.267   2.670  0.0446 -1.9741 -1.0062
   85SOL     OW  253   0.044   2.420   1.259  0.5878  0.1173 -0.0602
   85SOL    HW1  254   0.094   2.433   1.347 -0.9731 -2.1676  0.7546
   85SOL    HW2  255   0.106   2.409   1.177 -2.2077 -2.0989  1.2209
   86SOL     OW  256   2.762   2.397   1.622 -0.0735 -0.1870  0.3262
   86SOL    HW1  257   2.746   2.477   1.559 -0.9563  1.5645  1.7370
   86SOL    HW2  258   2.692   2.324   1.601 -0.7375  0.6077 -1.1805
   87SOL     OW  259   2.733   2.146   2.957 -0.4669 -0.0279  0.0666
   87SOL    HW1  260   2.670   2.213   3.003 -2.0587  0.2699  1.2803
   87SOL    HW2  261   2.716   2.061   3.010 -2.4823  1.1555  0.5769
   88SOL     OW  262   0.404   1.826   1.204  0.2223 -0.0945  0.0613
   88SOL    HW1  263   0.313   1.846   1.252 -0.8016  0.4980  3.4777
   88SOL    HW2  264   0.472   1.767   1.259 -0.6201  0.6227  0.1007
   89SOL     OW  265   1.032   3.023   1.787 -0.1673 -0.1182  0.2641
   89SOL    HW1  266   1.086   0.017   1.754 -0.5921  1.0804  2.8778
   89SOL    HW2  267   1.095   2.947   1.821  1.2595 -0.8553  0.6940
   90SOL     OW  268   0.024   1.842   1.568 -0.1234 -0.0251 -0.0396
   90SOL    HW1  269   3.027   1.791   1.548 -2.1295 -0.6383 -1.5290
   90SOL    HW2  270   0.010   1.929   1.623  0.4108  0.1281  3.4959
   91SOL     OW  271   1.124   1.650   0.695  0.2572  0.4098 -0.4698
   91SOL    HW1  272   1.124   1.597   0.607 -4.4198 -0.9664 -0.7499
   91SOL    HW2  273   1.062   1.729   0.687  0.2080  1.7070 -1.0051
   92SOL     OW  274   2.568   3.086   1.253 -0.1274 -0.3513 -0.2364
   92SOL    HW1  275   2.473   0.004   1.283 -0.9538 -1.1167 -0.4857
   92SOL    HW2  276   2.580   3.081   1.151  1.1011  2.3902 -0.9057
   93SOL     OW  277   2.588   1.536   3.053  0.0067  0.1420 -0.0571
   93SOL    HW1  278   2.656   1.460   3.068  1.6138 -3.3743  2.6073
   93SOL    HW2  279   2.517   1.501   2.989  0.1150  2.6772  1.8624
   94SOL     OW  280   2.721   2.522   2.450 -0.1954 -0.0622 -0.2590
   94SOL    HW1  281   2.675   2.427   2.461  1.8089  0.1367 -2.6797
   94SOL    HW2  282   2.658   2.602   2.441  0.7948 -1.1438  0.1038
   95SOL     OW  283   1.696   0.443   1.442  0.0796 -0.2391 -0.5494
   95SOL    HW1  284   1.789   0.467   1.478  0.1726  1.6090  2.8181
   95SOL    HW2  285   1.711   0.360   1.387 -1.8966  2.3691  3.6688
   96SOL     OW  286   2.797   2.940   1.556 -0.5223 -0.4865 -0.4534
   96SOL    HW1  287   2.702   2.936   1.524 -0.0485  0.3137 -0.6410
   96SOL    HW2  288   2.847   3.021   1.518 -0.1159 -0.7548 -1.6850
   97SOL     OW  289   2.473   0.084   1.669  0.2714 -0.5892  0.7086
   97SOL    HW1  290   2.441   3.082   1.692  0.0144  4.5701  1.1017
   97SOL    HW2  291   2.394   0.153   1.663 -1.0616  3.1648 -0.3234
   98SOL     OW  292   1.335   2.223   1.558 -0.5080  0.4407  0.2453
   98SOL    HW1  293   1.428   2.259   1.563 -3.2709 -1.6327  1.4883
   98SOL    HW2  294   1.332   2.132   1.510  2.2031  0.5652 -0.8865
   99SOL     OW  295   0.121   2.803   1.564  0.0080  0.0543 -0.3737
   99SOL    HW1  296   0.183   2.746   1.627  2.2379 -0.4824 -0.2973
   99SOL    HW2  297   0.026   2.765   1.551 -2.1174  0.1353 -0.1289
  100SOL     OW  298   0.062   1.114   2.423  0.3661 -0.1553  0.2637
  100SOL    HW1  299   0.069   1.090   2.322  1.6922 -1.6856 -0.3453
  100SOL    HW2  300   0.153   1.135   2.457 -0.8346 -0.9644  0.0457
  101SOL     OW  301   1.978   0.602   0.375  0.7860  0.4610  0.1068
  101SOL    HW1  302   1.895   0.636   0.328 -2.0981 -1.1406  2.1391
  101SOL    HW2  303   2.057   0.665   0.362 -1.0388 -0.4098 -0.2431
  102SOL     OW  304   0.246   0.541   1.186  0.1666  0.5655  0.6026
  102SOL    HW1  305   0.273   0.459   1.132  0.0731  1.0869  1.5697
  102SOL    HW2  306   0.232   0.624   1.126 -2.4660  0.6522 -0.2080
  103SOL     OW  307   2.396   0.737   2.545  0.0618  0.2917 -0.5191
  103SOL    HW1  308   2.295   0.734   2.526  0.2802  0.2148  2.3783
  103SOL    HW2  309   2.435   0.818   2.504 -1.1408 -0.6721  2.7630
  104SOL     OW  310   0.443   0.306   2.475  0.5306 -0.2152  0.1980
  104SOL    HW1  311   0.532   0.261   2.474 -2.0930 -0.5131 -0.0874
  104SOL    HW2  312   0.412   0.343   2.566  0.8756  0.8331 -1.9618
  105SOL     OW  313   2.108   0.968   1.682 -0.2530  0.3293  0.0171
  105SOL    HW1  314   2.087   0.910   1.597 -2.0100 -1.2524 -3.7352
  105SOL    HW2  315   2.049   1.050   1.688  0.0954 -1.4177 -0.3844
  106SOL     OW  316   1.186   2.887   0.224  0.3626 -0.2201 -0.1309
  106SOL    HW1  317   1.232   2.937   0.302  3.3312  0.4566 -0.0762
  106SOL    HW2  318   1.157   2.794   0.259 -0.7141 -1.9074 -1.3911
  107SOL     OW  319   0.475   1.788   1.532 -0.9168 -0.5225 -0.1481
  107SOL    HW1  320   0.399   1.740   1.584  0.4626  0.0489  0.0003
  107SOL    HW2  321   0.525   1.729   1.461 -0.8602 -1.9305 -5.2184
  108SOL     OW  322   0.245   0.107   2.461 -0.2694  0.5058  0.0385
  108SOL    HW1  323   0.290   0.018   2.475  2.3815 -4.0122  0.4736
  108SOL    HW2  324   0.316   0.182   2.464  2.4036 -0.0127  1.3436
  109SOL     OW  325   2.086   0.234   0.230  0.0504  0.7655  0.0321
  109SOL    HW1  326   1.986   0.238   0.197 -0.4789 -0.2756 -1.0016
  109SOL    HW2  327   2.146   0.289   0.180 -2.4501 -2.4380  3.1860
  110SOL     OW  328   0.274   2.086   2.450 -0.0298 -0.0749 -0.3407
  110SOL    HW1  329   0.308   2.006   2.502  2.3402 -0.7147 -0.7753
  110SOL    HW2  330   0.222   2.147   2.512  3.6729 -0.6879 -0.3184
  111SOL     OW  331   1.661   2.781   2.191  0.1728  0.7662  0.5620
  111SOL    HW1  332   1.565   2.809   2.213  3.3378 -5.1927  1.2827
  111SOL    HW2  333   1.733   2.852   2.199 -1.6014 -0.9853 -0.5181
  112SOL     OW  334   1.983   2.105   2.488  0.2787  0.6845 -0.5656
  112SOL    HW1  335   2.044   2.080   2.570 -2.9192  1.2084  0.2640
  112SOL    HW2  336   2.025   2.088   2.398 -0.7449 -1.5690  0.8724
  113SOL     OW  337   2.398   2.623   1.964  0.2551  0.1270  0.0758
  113SOL    HW1  338   2.487   2.609   2.012  0.3805 -1.4246 -2.0090
  113SOL    HW2  339   2.346   2.538   1.954 -1.1763  1.6464 -4.5458
  114SOL     OW  340   2.573   0.837   0.781  0.5176 -0.4151  0.4839
  114SOL    HW1  341   2.646   0.776   0.751  1.3813  1.5634  0.8088
  114SOL    HW2  342   2.591   0.937   0.756  0.5485  3.3982 -0.7637
  115SOL     OW  343   0.302   1.677   2.769 -0.3025  0.4073 -1.2927
  115SOL    HW1  344   0.339   1.762   2.810  0.4652  1.5545 -0.0858
  115SOL    HW2  345   0.202   1.680   2.768 -0.2998 -0.6684  2.0928
  116SOL     OW  346   0.398   1.360   2.043 -0.1920  0.1214 -0.3226
  116SOL    HW1  347   0.433   1.416   1.964 -1.2850  0.4992 -0.8151
  116SOL    HW2  348   0.309   1.400   2.079 -0.2392  0.4948  1.5281
  117SOL     OW  349   2.767   0.045   0.565 -0.1825  0.4955 -0.1091
  117SOL    HW1  350   2.773   0.138   0.601 -1.2379  0.9129 -4.1424
  117SOL    HW2  351   2.752   0.052   0.463  1.0666  2.6616  0.4609
  118SOL     OW  352   1.222   1.878   1.758  0.1365 -0.8333  0.2444
  118SOL    HW1  353   1.155   1.800   1.755 -3.7834  0.8469  0.4942
  118SOL    HW2  354   1.221   1.924   1.847 -3.2697  1.7959 -0.2439
  119SOL     OW  355   1.127   2.208   0.034 -0.6186 -0.1285 -0.2032
  119SOL    HW1  356   1.160   2.115   0.011  0.0539  0.1953 -0.3846
  119SOL    HW2  357   1.036   2.203   0.079 -0.2234  0.5896 -0.7736
  120SOL     OW  358   0.307   1.195   2.525 -0.0368 -0.4973  0.2042
  120SOL    HW1  359   0.295   1.298   2.537  0.4658  1.4886 -1.7600
  120SOL    HW2  360   0.348   1.177   2.433 -2.9375 -1.9084  0.4958
  121SOL     OW  361   2.157   2.831   1.080 -0.1388  0.3370 -0.1050
  121SOL    HW1  362   2.133   2.780   0.991 -0.2096 -2.0794 -0.6669
  121SOL    HW2  363   2.252   2.815   1.110 -0.0396  0.4824 -0.3895
  122SOL     OW  364   2.190   2.049   1.814  0.3918 -0.1411 -0.4234
  122SOL    HW1  365   2.275   2.054   1.874 -1.2431  2.7603  2.7946
  122SOL    HW2  366   2.181   2.133   1.761  1.1255 -0.9468 -1.4619
  123SOL     OW  367   2.920   2.973   0.737 -0.3676 -0.1249 -0.2875
  123SOL    HW1  368   2.870   3.045   0.688  1.9560  2.6510 -0.0820
  123SOL    HW2  369   2.993   2.923   0.680 -0.4684 -0.6729  1.5906
  124SOL     OW  370   1.837   0.680   2.377 -0.1951 -0.3329  0.1149
  124SOL    HW1  371   1.745   0.641   2.407  0.3584 -0.3000 -2.3269
  124SOL    HW2  372   1.850   0.663   2.273  1.4406  1.1535 -0.5311
  125SOL     OW  373   0.430   1.273   0.515 -0.1905  0.1388  0.3594
  125SOL    HW1  374   0.431   1.308   0.419 -1.4291 -0.1433 -2.6142
  125SOL    HW2  375   0.410   1.341   0.590  2.3529  0.9062  1.2514
  126SOL     OW  376   2.434   1.719   0.403 -0.0545  0.3767 -0.4959
  126SOL    HW1  377   2.535   1.730   0.384  0.7272 -3.5442 -0.1050
  126SOL    HW2  378   2.397   1.781   0.477 -0.9590  1.3445  3.2211
  127SOL     OW  379   0.171   1.888   1.326 -0.0973  0.3921 -0.2384
  127SOL    HW1  380   0.118   1.846   1.404  1.9647  0.1337  0.8688
  127SOL    HW2  381   0.101   1.934   1.270 -0.7346  1.7343  0.2259
  128SOL     OW  382   0.854   0.654   2.914 -0.4001 -0.2747  0.1434
  128SOL    HW1  383   0.861   0.694   3.006 -0.7289  1.1464 -1.5831
  128SOL    HW2  384   0.939   0.663   2.861  1.0097  1.6754  0.3854
  129SOL     OW  385   2.216   1.573   1.090 -0.2034 -0.0618 -0.5973
  129SOL    HW1  386   2.266   1.567   1.177  0.5078 -1.8475 -0.0868
  129SOL    HW2  387   2.121   1.592   1.114  0.8295 -2.6049  0.7778
  130SOL     OW  388   2.374   1.527   1.305  0.0443  0.0327 -0.2677
  130SOL    HW1  389   2.346   1.425   1.302  0.8021 -4.4175  2.3569
  130SOL    HW2  390   2.452   1.531   1.368 -0.9091 -0.5773 -0.1145
  131SOL     OW  391   2.805   0.983   2.937 -0.3720 -0.0643  0.3237
  131SOL    HW1  392   2.898   1.029   2.913  1.5053  1.7798 -2.5705
  131SOL    HW2  393   2.804   0.888   2.896 -0.1825 -0.9199 -0.3870
  132SOL     OW  394   2.539   2.377   1.807 -0.1176 -0.2169 -0.5626
  132SOL    HW1  395   2.594   2.457   1.830 -0.8305 -1.9467  0.2370
  132SOL    HW2  396   2.561   2.301   1.873 -2.4230  0.4115  1.0139
  133SOL     OW  397   0.596   1.062   0.956  0.4823  0.2350  0.1453
  133SOL    HW1  398   0.688   1.105   0.940  1.9683 -1.1171  0.3692
  133SOL    HW2  399   0.617   0.970   0.995  1.3044 -0.8582 -0.1510
  134SOL     OW  400   0.087   1.079   0.431 -0.3489  0.1786  0.4503
  134SOL    HW1  401   0.066   1.083   0.528  0.3099 -2.6524 -1.6500
  134SOL    HW2  402   0.001   1.067   0.379  0.1851 -0.4705 -2.2667
  135SOL     OW  403   1.967   1.531   1.217  0.0854 -1.3640  0.0308
  135SOL    HW1  404   1.973   1.449   1.273 -0.9106 -0.9770 -0.6614
  135SOL    HW2  405   1.874   1.531   1.175 -0.5615  0.8750  2.0976
  136SOL     OW  406   2.192   1.007   0.837  0.2070 -0.5348 -0.4220
  136SOL    HW1  407   2.236   0.917   0.847  0.5430  2.8642 -0.1584
  136SOL    HW2  408   2.188   1.033   0.737 -3.0685  0.2870  1.7723
  137SOL     OW  409   2.530   1.720   0.820  0.2503  0.1863 -0.4792
  137SOL    HW1  410   2.450   1.750   0.765  0.6344 -4.1794  1.7855
  137SOL    HW2  411   2.565   1.799   0.874 -0.8589 -0.7736 -0.0664
  138SOL     OW  412   1.810   0.732   1.733 -0.5429 -0.5528 -0.3703
  138SOL    HW1  413   1.713   0.720   1.759 -3.8063  1.7911  2.0790
  138SOL    HW2  414   1.847   0.651   1.684 -0.2175 -0.4403 -1.0552
  139SOL     OW  415   2.332   2.874   3.018 -0.2677  0.3296 -0.5249
  139SOL    HW1  416   2.406   2.809   3.008 -1.0106 -0.6531 -1.6499
  139SOL    HW2  417   2.325   2.937   2.936  0.2992 -1.0312 -0.1057
  140SOL     OW  418   1.528   1.906   2.144  0.3650  0.2477  0.4144
  140SOL    HW1  419   1.594   1.964   2.198 -0.6115 -0.5233  0.2937
  140SOL    HW2  420   1.495   1.826   2.195  1.7775  2.7665  1.0997
  141SOL     OW  421   1.810   1.873   1.281 -0.2264 -0.0689 -0.4466
  141SOL    HW1  422   1.890   1.836   1.334 -1.0426 -0.3824 -0.0547
  141SOL    HW2  423   1.728   1.827   1.312 -2.0421  1.6098  1.5260
  142SOL     OW  424   0.273   0.222   0.026 -0.1013 -0.0206 -0.5161
  142SOL    HW1  425   0.240   0.125   0.033  2.5760 -1.5358  2.5349
  142SOL    HW2  426   0.225   0.284   0.092  0.2721 -1.9905 -0.7376
  143SOL     OW  427   0.190   2.057   2.719  0.2353  0.0723 -0.0317
  143SOL    HW1  428   0.248   2.006   2.788 -0.1625 -0.2548  1.1485
  143SOL    HW2  429   0.225   2.154   2.704  0.0343 -3.1686 -2.5074
  144SOL     OW  430   1.207   2.827   1.899  0.3691  0.5685 -0.1946
  144SOL    HW1  431   1.292   2.852   1.943 -0.8038  2.1732 -2.7520
  144SOL    HW2  432   1.165   2.742   1.947 -1.2649 -5.5849  0.8314
  145SOL     OW  433   2.097   1.246   0.423 -0.0207  0.4704 -0.2061
  145SOL    HW1  434   2.087   1.322   0.500  0.4681  1.7239  2.5655
  145SOL    HW2  435   2.177   1.258   0.362 -0.1715 -0.8979 -0.6787
  146SOL     OW  436   2.739   2.782   2.832 -0.3687 -0.5455  0.7197
  146SOL    HW1  437   2.685   2.866   2.838  0.2424 -3.2506  3.7566
  146SOL    HW2  438   2.819   2.796   2.892  1.3773  0.1949  2.6404
  147SOL     OW  439   2.969   2.355   0.947  0.0814  0.3335 -0.4945
  147SOL    HW1  440   3.060   2.379   0.983 -0.3887  1.9950  1.0224
  147SOL    HW2  441   2.910   2.336   1.029 -2.6384 -0.7070 -0.9690
  148SOL     OW  442   1.990   3.051   2.908  0.8056 -0.3479 -0.1722
  148SOL    HW1  443   1.974   3.052   3.008  0.7006  2.4877  0.6300
  148SOL    HW2  444   1.934   2.979   2.861  1.5514 -2.9934 -1.0022
  149SOL     OW  445   1.206   0.290   2.635 -0.2139  0.3039  0.4195
  149SOL    HW1  446   1.238   0.337   2.717 -1.5749 -1.1351 -0.7016
  149SOL    HW2  447   1.130   0.343   2.595  0.9619  2.9437 -1.9458
  150SOL     OW  448   0.885   2.571   0.431 -0.1270 -0.0654 -0.1028
  150SOL    HW1  449   0.839   2.491   0.393 -0.7751 -0.5992  0.8704
  150SOL    HW2  450   0.837   2.613   0.508  3.1508 -1.1680 -2.2236
  151SOL     OW  451   2.750   1.971   0.082 -0.0649 -0.3664 -0.5676
  151SOL    HW1  452   2.767   1.889   0.029 -1.0667  1.1297  1.3295
  151SOL    HW2  453   2.835   2.022   0.112  1.5510  1.9319  0.6239
  152SOL     OW  454   0.137   1.063   0.982  0.0596 -0.5982  0.0386
  152SOL    HW1  455   0.224   1.050   0.932 -3.3159  0.3332  0.1213
  152SOL    HW2  456   0.136   1.012   1.069  1.2988 -1.2548 -0.6539
  153SOL     OW  457   2.256   2.899   0.287  0.1162 -0.0072 -0.5861
  153SOL    HW1  458   2.252   2.931   0.383 -2.7002 -2.6876 -2.9394
  153SOL    HW2  459   2.170   2.920   0.237 -1.7985 -1.1680  0.7533
  154SOL     OW  460   0.822   0.398   1.681  0.3510  0.4990  0.1174
  154SOL    HW1  461   0.821   0.431   1.779 -0.0550 -0.1811 -0.7872
  154SOL    HW2  462   0.748   0.442   1.625 -0.0591  3.2730  3.1966
  155SOL     OW  463   3.055   1.983   1.138 -0.3348 -0.1853 -0.0975
  155SOL    HW1  464   2.980   1.917   1.114 -1.5957 -0.0753  1.5176
  155SOL    HW2  465   3.012   2.069   1.180 -0.7983  0.6465 -0.7701
  156SOL     OW  466   1.866   2.025   0.019 -0.3987  0.0995 -0.2388
  156SOL    HW1  467   1.895   1.934   0.057  1.8390 -0.2071 -1.4925
  156SOL    HW2  468   1.895   2.097   0.080 -1.3492 -0.7595 -1.5062
  157SOL     OW  469   0.895   2.735   0.921 -0.0843 -0.1215 -0.4385
  157SOL    HW1  470   0.869   2.681   1.006 -3.6661 -0.9489  0.0261
  157SOL    HW2  471   0.977   2.793   0.940  1.7878  0.4499 -1.5910
  158SOL     OW  472   2.461   0.457   2.514 -0.5759 -0.0002 -0.1450
  158SOL    HW1  473   2.376   0.426   2.560 -0.7256  1.9123  0.5524
  158SOL    HW2  474   2.454   0.557   2.520 -0.8721 -1.6203 -0.2501
  159SOL     OW  475   0.633   0.271   2.864  0.9524 -0.2474  0.3291
  159SOL    HW1  476   0.639   0.360   2.915  0.3849  3.0124 -0.3849
  159SOL    HW2  477   0.538   0.231   2.861  1.9488 -0.5635  0.4681
  160SOL     OW  478   0.681   2.011   0.065  0.2639 -0.2071 -0.3619
  160SOL    HW1  479   0.649   2.068   3.070  2.2546  1.9600 -0.9541
  160SOL    HW2  480   0.692   1.918   0.034 -0.3684  0.7537  1.9182
  161SOL     OW  481   3.074   2.133   2.912  0.3361  0.1072 -0.0038
  161SOL    HW1  482   0.030   2.063   2.854  1.0218  0.4487  0.0902
  161SOL    HW2  483   3.025   2.205   2.854  0.1683 -0.6369 -3.0659
  162SOL     OW  484   0.569   2.629   1.023  0.0353 -0.0134 -0.2254
  162SOL    HW1  485   0.517   2.627   1.110 -1.6126 -1.0652  1.2945
  162SOL    HW2  486   0.600   2.722   1.007 -0.8285 -0.8831  1.5816
  163SOL     OW  487   2.400   0.673   2.984 -0.4797 -0.5108 -0.2764
  163SOL    HW1  488   2.370   0.721   2.897  1.0302 -0.0837  0.1554
  163SOL    HW2  489   2.328   0.607   3.004 -1.5946  3.1196  0.5303
  164SOL     OW  490   2.886   2.170   0.741  0.6044 -0.1182  0.3933
  164SOL    HW1  491   2.921   2.074   0.744  1.9417 -1.3153 -1.2506
  164SOL    HW2  492   2.879   2.225   0.831 -0.8777 -2.0161 -0.6328
  165SOL     OW  493   2.968   0.040   1.427  0.4403 -0.2560 -0.6955
  165SOL    HW1  494   3.048   0.018   1.485  1.3024  3.3387 -0.1346
  165SOL    HW2  495   2.973   3.086   1.333 -0.2844  1.1505 -0.1517
  166SOL     OW  496   2.093   0.294   0.904 -0.2747 -0.4305  0.0816
  166SOL    HW1  497   2.121   0.390   0.930  2.2130  0.9483  1.2139
  166SOL    HW2  498   2.178   0.235   0.892  0.1380 -1.1683 -0.8135
  167SOL     OW  499   0.554   0.246   1.016 -0.2169 -0.0842  0.1243
  167SOL    HW1  500   0.596   0.287   1.098 -2.2827  0.5721  2.1983
  167SOL    HW2  501   0.592   0.157   0.984 -0.0145  2.2221  1.3570
  168SOL     OW  502   2.477   0.056   2.370 -0.1114  0.7699 -0.0143
  168SOL    HW1  503   2.573   0.085   2.392  0.5868 -1.3608  3.3229
  168SOL    HW2  504   2.482   3.047   2.350  2.1390 -2.6368 -0.3533
  169SOL     OW  505   0.011   1.459   0.683 -0.0771  0.0581 -0.3635
  169SOL    HW1  506   0.024   1.487   0.583 -1.7939  0.5640 -2.6102
  169SOL    HW2  507   0.058   1.532   0.738  1.0186  0.2775 -0.6314
  170SOL     OW  508   2.744   0.915   1.255  0.4630  0.3783 -0.1425
  170SOL    HW1  509   2.731   0.822   1.211  2.5754  3.4930  0.4805
  170SOL    HW2  510   2.674   0.930   1.329 -1.3284 -2.0727  2.8186
  171SOL     OW  511   1.298   2.485   1.654 -0.4728  0.4830 -0.3706
  171SOL    HW1  512   1.319   2.384   1.643 -1.5247 -0.8521 -1.7844
  171SOL    HW2  513   1.251   2.518   1.572  0.6535 -1.3127  3.2313
  172SOL     OW  514   0.403   2.430   1.333 -0.2960 -0.4210 -0.0346
  172SOL    HW1  515   0.376   2.337   1.303  1.1459 -2.2451 -0.5374
  172SOL    HW2  516   0.365   2.505   1.274 -1.7796 -1.6799 -2.4879
  173SOL     OW  517   1.502   0.015   0.012 -0.2323  0.0320 -0.1381
  173SOL    HW1  518   1.531   3.058   3.016  0.6608  0.7498  1.6269
  173SOL    HW2  519   1.528   3.047   0.090  2.1148 -0.3288 -0.7808
  174SOL     OW  520   1.114   2.511   2.741  0.2864  0.2802 -0.6043
  174SOL    HW1  521   1.136   2.425   2.796  2.1630  0.8171  1.6945
  174SOL    HW2  522   1.130   2.598   2.797  0.1506  1.8797 -1.9374
  175SOL     OW  523   1.786   3.059   0.062 -0.1154 -0.5873  0.3873
  175SOL    HW1  524   1.774   3.061   0.160 -1.3555  0.0141 -1.6612
  175SOL    HW2  525   1.702   3.073   0.011  3.6594 -0.2937  1.9590
  176SOL     OW  526   1.581   0.264   0.066 -0.1627 -0.3462  0.0693
  176SOL    HW1  527   1.527   0.180   0.049 -2.1686 -0.2269 -0.0327
  176SOL    HW2  528   1.579   0.291   0.163 -1.6219  0.7101 -2.4506
  177SOL     OW  529   0.703   1.576   0.487 -0.0569  0.4507 -0.1605
  177SOL    HW1  530   0.705   1.611   0.584  0.6149  0.4714  1.6756
  177SOL    HW2  531   0.791   1.609   0.434 -0.2270  1.3182  0.9165
  178SOL     OW  532   2.647   1.782   2.244 -0.0383  0.4412  0.0711
  178SOL    HW1  533   2.716   1.716   2.211  2.2756 -0.7646  2.9638
  178SOL    HW2  534   2.573   1.744   2.306  0.4336 -2.5595 -1.1138
  179SOL     OW  535   0.477   2.537   2.774  0.5546 -0.5066 -0.3355
  179SOL    HW1  536   0.472   2.635   2.799  0.1741  1.8240  2.4887
  179SOL    HW2  537   0.497   2.522   2.676  2.6093 -1.5037 -1.0222
  180SOL     OW  538   1.706   1.929   1.854  0.0385  0.2659  0.0021
  180SOL    HW1  539   1.808   1.917   1.870  2.2192  1.3336  0.6569
  180SOL    HW2  540   1.675   2.006   1.910 -0.4790 -0.0725  0.3133
  181SOL     OW  541   1.188   1.107   2.369  0.0309  0.1291  0.6531
  181SOL    HW1  542   1.208   1.145   2.463 -1.5608  2.2233  1.1914
  181SOL    HW2  543   1.200   1.183   2.302  1.6904  1.2173 -1.2138
  182SOL     OW  544   0.117   0.470   2.626  0.0261 -0.3219 -0.4124
  182SOL    HW1  545   0.083   0.400   2.561  0.9094  1.7035 -0.1434
  182SOL    HW2  546   0.209   0.438   2.664  0.9754  2.4522  1.8250
  183SOL     OW  547   1.113   0.330   3.071 -0.0822  0.4649 -0.0465
  183SOL    HW1  548   1.103   0.230   3.049  1.2387 -0.3711  2.0542
  183SOL    HW2  549   1.131   0.379   2.985  1.0594 -0.5028  0.4333
  184SOL     OW  550   1.037   1.018   1.324  0.2031  0.1020 -0.0691
  184SOL    HW1  551   1.087   1.095   1.284 -0.0683 -2.5266  1.2746
  184SOL    HW2  552   1.078   0.990   1.409 -0.5372  3.0437 -3.0112
  185SOL     OW  553   3.020   1.228   1.334 -0.4716 -0.1614 -0.6378
  185SOL    HW1  554   3.063   1.258   1.418  0.6722  1.1790  1.7692
  185SOL    HW2  555   2.924   1.205   1.357 -2.6124 -1.1486 -0.6483
  186SOL     OW  556   0.590   1.585   2.463  0.0423 -0.2571 -0.1613
  186SOL    HW1  557   0.596   1.634   2.374 -0.7236 -1.1489 -1.0599
  186SOL    HW2  558   0.490   1.574   2.480 -4.5808  1.2141 -0.9748
  187SOL     OW  559   2.650   1.393   0.309 -0.2604  0.0073 -0.4408
  187SOL    HW1  560   2.712   1.365   0.232  1.7310 -2.7358  0.3595
  187SOL    HW2  561   2.706   1.426   0.383 -0.0535 -0.0710 -3.2104
  188SOL     OW  562   0.057   2.339   0.630  0.4678  0.2407 -0.0377
  188SOL    HW1  563   0.083   2.259   0.574  0.8080 -0.6256 -1.4036
  188SOL    HW2  564   3.089   2.401   0.572  1.7235 -1.4362  2.2978
  189SOL     OW  565   2.713   1.059   0.076  0.4672 -0.1955  0.4123
  189SOL    HW1  566   2.753   1.041   3.072 -1.3471 -0.6397 -0.2058
  189SOL    HW2  567   2.749   0.994   0.141  0.2206  3.0543 -3.1833
  190SOL     OW  568   1.158   1.309   2.200  0.0067  0.7581  0.3703
  190SOL    HW1  569   1.132   1.246   2.122  0.6275 -2.8339  1.0248
  190SOL    HW2  570   1.091   1.382   2.210  1.8534  0.7174 -2.0563
  191SOL     OW  571   2.350   0.300   1.879  0.1979  0.1561  0.3653
  191SOL    HW1  572   2.445   0.332   1.893  1.3959 -2.9014  0.2766
  191SOL    HW2  573   2.318   0.240   1.958  2.0963 -0.5015  3.3625
  192SOL     OW  574   2.148   0.185   1.711 -0.8914  0.0009 -0.1160
  192SOL    HW1  575   2.131   0.090   1.746 -2.2747 -0.9673  1.9230
  192SOL    HW2  576   2.186   0.251   1.783  0.9560  2.6435 -0.3292
  193SOL     OW  577   0.979   0.433   0.557 -0.7477 -0.6055  0.4123
  193SOL    HW1  578   0.980   0.490   0.643 -2.2533  3.5259  1.4993
  193SOL    HW2  579   0.934   0.497   0.491 -0.8000  1.4704 -2.0627
  194SOL     OW  580   1.299   2.971   1.172  0.1381 -0.4151  0.1234
  194SOL    HW1  581   1.354   3.055   1.162 -1.6594  0.8782  2.0653
  194SOL    HW2  582   1.217   2.987   1.115  2.3214  0.0054  0.2384
  195SOL     OW  583   2.367   0.672   0.586  0.3926 -1.1628  0.5159
  195SOL    HW1  584   2.452   0.715   0.560 -0.1706 -0.5232 -1.7094
  195SOL    HW2  585   2.327   0.725   0.665 -2.8087  2.0463 -2.1864
  196SOL     OW  586   1.493   1.758   1.811  0.3041 -0.1327  0.0712
  196SOL    HW1  587   1.578   1.801   1.850  0.4838  1.2177 -1.0944
  196SOL    HW2  588   1.409   1.811   1.835 -0.2750  2.8953  0.3133
  197SOL     OW  589   0.031   2.925   0.558 -0.1363 -0.5457  0.3480
  197SOL    HW1  590   0.072   3.014   0.575 -0.2096 -2.0197 -1.8548
  197SOL    HW2  591   0.088   2.845   0.578 -1.1699  1.7382  0.9336
  198SOL     OW  592   0.840   1.359   0.620  0.0910  0.3344  0.3726
  198SOL    HW1  593   0.791   1.444   0.588 -1.7008 -0.0943  1.0837
  198SOL    HW2  594   0.787   1.271   0.598  0.6274 -1.6573 -0.1137
  199SOL     OW  595   2.808   0.770   1.764 -0.1363  0.5248 -0.5426
  199SOL    HW1  596   2.854   0.704   1.825  0.5940  0.2695  3.2594
  199SOL    HW2  597   2.847   0.861   1.773 -2.0884 -1.2475  0.6028
  200SOL     OW  598   2.145   2.031   2.710 -0.3084 -0.3627  0.2806
  200SOL    HW1  599   2.140   1.932   2.687 -1.1165 -1.5623 -1.2808
  200SOL    HW2  600   2.222   2.051   2.772 -1.7167  0.2621 -2.0233
  201SOL     OW  601   2.408   2.958   0.866 -0.2446  0.1267  0.2898
  201SOL    HW1  602   2.444   2.910   0.786 -0.8581 -0.9307  0.6551
  201SOL    HW2  603   2.406   2.891   0.944 -0.6598  1.2407 -0.0292
  202SOL     OW  604   2.806   0.834   0.217 -0.2257 -0.4428 -0.2269
  202SOL    HW1  605   2.754   0.783   0.141  0.0301 -0.0982 -0.0261
  202SOL    HW2  606   2.872   0.767   0.259 -3.0791  0.1472 -2.1252
  203SOL     OW  607   1.406   1.668   2.268  0.1110 -0.1866 -0.1345
  203SOL    HW1  608   1.403   1.677   2.373  1.2772 -1.8825  1.7925
  203SOL    HW2  609   1.409   1.569   2.243  1.4527 -2.7415  0.4277
  204SOL     OW  610   0.854   1.767   2.157  0.1671 -0.0861 -0.4327
  204SOL    HW1  611   0.886   1.855   2.118 -3.1868 -2.3158  0.6877
  204SOL    HW2  612   0.905   1.736   2.240  2.0681  1.6573  2.3870
  205SOL     OW  613   1.349   1.961   1.525  0.6464  0.2023 -0.2792
  205SOL    HW1  614   1.292   1.930   1.609 -1.7472 -0.4944  0.2955
  205SOL    HW2  615   1.447   1.970   1.547 -0.6737  0.5180  0.1368
  206SOL     OW  616   0.116   0.722   2.791  0.3171 -0.4901  0.6817
  206SOL    HW1  617   0.097   0.643   2.720  0.6732 -1.2540 -3.7443
  206SOL    HW2  618   0.092   0.815   2.756  1.3064 -0.4212 -1.0827
  207SOL     OW  619   1.772   2.657   2.394 -0.2324 -0.2874  0.1703
  207SOL    HW1  620   1.706   2.624   2.465 -2.0387  1.3387 -1.7045
  207SOL    HW2  621   1.728   2.686   2.306  2.7909 -1.8591  3.1966
  208SOL     OW  622   0.315   2.221   1.670  0.3117 -0.0908  0.6919
  208SOL    HW1  623   0.368   2.148   1.619  1.4174 -2.9571 -0.0968
  208SOL    HW2  624   0.326   2.317   1.638  3.0542  1.2527 -0.5918
  209SOL     OW  625   1.561   0.754   2.772 -0.0011 -0.1173  0.5967
  209SOL    HW1  626   1.527   0.826   2.707 -1.2829 -0.6946 -2.4970
  209SOL    HW2  627   1.553   0.660   2.731  1.4923  0.6352  1.5666
  210SOL     OW  628   2.327   0.773   0.869 -0.0967 -0.3815  0.1442
  210SOL    HW1  629   2.321   0.759   0.970  1.5062 -1.3846 -0.4242
  210SOL    HW2  630   2.422   0.800   0.836  3.6113  0.4013  0.0185
  211SOL     OW  631   0.959   0.638   0.757 -0.0769 -0.1503 -0.3978
  211SOL    HW1  632   0.864   0.649   0.797  1.6208 -1.6919  1.0511
  211SOL    HW2  633   1.026   0.595   0.822 -0.4537 -0.9525  3.3228
  212SOL     OW  634   1.123   1.455   0.469  0.2141  0.2830  0.0965
  212SOL    HW1  635   1.118   1.385   0.545  0.7550  0.8381  0.9381
  212SOL    HW2  636   1.178   1.423   0.392 -0.3635  2.1559  0.8203
  213SOL     OW  637   1.604   0.047   2.227  0.4361  0.1150 -0.2561
  213SOL    HW1  638   1.682   0.066   2.173 -2.7962  0.3536  3.3674
  213SOL    HW2  639   1.606   0.103   2.313  2.0999  1.4287  0.9454
  214SOL     OW  640   1.593   1.225   2.515 -0.0937  0.0928  0.0037
  214SOL    HW1  641   1.691   1.251   2.531  1.9350 -2.2000  0.2584
  214SOL    HW2  642   1.534   1.307   2.503  0.6863  0.6665  1.3027
  215SOL     OW  643   0.677   1.604   0.982  0.0362 -0.3930 -0.3841
  215SOL    HW1  644   0.715   1.637   1.070  0.3790  0.5411  0.8157
  215SOL    HW2  645   0.574   1.583   0.998 -2.7345 -1.8662 -2.0977
  216SOL     OW  646   0.768   2.727   2.190  0.2175 -0.2599  0.1480
  216SOL    HW1  647   0.734   2.753   2.097  2.6161  0.0564  1.9428
  216SOL    HW2  648   0.762   2.804   2.260  0.6528  1.9663 -0.2418
  217SOL     OW  649   2.391   0.855   0.179  0.3225 -0.0164  0.4554
  217SOL    HW1  650   2.471   0.800   0.139  2.8949  2.3256  1.8317
  217SOL    HW2  651   2.396   0.953   0.140 -2.0169  1.2612  1.6561
  218SOL     OW  652   2.201   1.930   2.157  0.2063 -0.0277  0.1293
  218SOL    HW1  653   2.232   1.833   2.155 -0.4789  1.6130 -0.2043
  218SOL    HW2  654   2.266   1.992   2.109  1.1589  1.4854 -0.6365
  219SOL     OW  655   1.646   1.328   0.073  0.3833  0.6733 -0.6174
  219SOL    HW1  656   1.605   1.323   0.167  2.5298 -3.0011 -1.4427
  219SOL    HW2  657   1.729   1.384   0.072  0.8370  0.0502  1.2078
  220SOL     OW  658   1.391   1.779   1.096 -0.3835 -0.3838 -0.2439
  220SOL    HW1  659   1.382   1.860   1.159 -0.6295 -0.7137 -1.1864
  220SOL    HW2  660   1.447   1.810   1.023 -3.1768 -1.1485  3.5232
  221SOL     OW  661   0.372   0.624   2.852 -0.7597 -0.4227 -0.0388
  221SOL    HW1  662   0.282   0.674   2.842  1.4653 -0.5595  2.4832
  221SOL    HW2  663   0.411   0.644   2.939  1.2351 -3.2655  1.4507
  222SOL     OW  664   1.081   2.264   1.514  0.2983  0.3159  0.0868
  222SOL    HW1  665   1.017   2.273   1.590  2.0938 -1.7074 -0.2780
  222SOL    HW2  666   1.173   2.248   1.541  0.2446 -2.8727 -1.6339
  223SOL     OW  667   1.395   2.556   2.651  0.0987 -0.1008 -0.3483
  223SOL    HW1  668   1.425   2.589   2.743  1.8744  2.6735  0.3297
  223SOL    HW2  669   1.298   2.576   2.646 -2.1575  0.6353  1.1304
  224SOL     OW  670   2.793   1.113   0.773  0.5402  0.9905 -0.2863
  224SOL    HW1  671   2.828   1.210   0.780 -1.7470 -0.3295  3.7093
  224SOL    HW2  672   2.698   1.111   0.734  0.8063 -0.4154  0.6999
  225SOL     OW  673   1.307   1.165   1.687  0.1551  0.1418 -0.2293
  225SOL    HW1  674   1.360   1.237   1.731 -0.8057  2.2925 -1.8875
  225SOL    HW2  675   1.363   1.138   1.608 -0.7868  1.8410 -0.7660
  226SOL     OW  676   1.123   2.162   2.679 -0.2760  0.0086 -0.1192
  226SOL    HW1  677   1.167   2.217   2.750  0.2421  1.1223 -0.2700
  226SOL    HW2  678   1.190   2.102   2.634 -2.5565  1.8670 -1.7762
  227SOL     OW  679   1.121   1.900   1.211 -0.3125  0.0558  0.6421
  227SOL    HW1  680   1.193   1.970   1.193 -1.3145  0.9338  0.8585
  227SOL    HW2  681   1.056   1.937   1.274  4.2225 -0.4726 -0.0295
  228SOL     OW  682   0.502   1.993   1.034  0.4254  0.1114 -0.2130
  228SOL    HW1  683   0.435   1.937   1.087 -1.2450 -1.0517 -0.1174
  228SOL    HW2  684   0.583   1.935   1.026 -1.8728  0.6559  0.7178
  229SOL     OW  685   2.154   0.702   0.071  0.4660 -0.4500 -0.5409
  229SOL    HW1  686   2.173   0.620   0.011  0.1888 -3.9876 -1.7448
  229SOL    HW2  687   2.235   0.745   0.113 -2.2143  1.6290  0.7992
  230SOL     OW  688   1.054   0.888   2.035 -0.0918  0.3936 -0.3666
  230SOL    HW1  689   1.132   0.945   2.014 -1.6392  4.1307  2.0833
  230SOL    HW2  690   1.018   0.923   2.121  0.3660 -0.4884 -1.4683
  231SOL     OW  691   1.197   1.761   2.110 -0.3764  0.2312  0.2786
  231SOL    HW1  692   1.132   1.709   2.051  2.4666  0.0609 -1.7849
  231SOL    HW2  693   1.262   1.699   2.160  0.8246  0.8136  0.0353
  232SOL     OW  694   1.991   2.122   1.136 -0.6734 -0.4457  0.2578
  232SOL    HW1  695   1.902   2.086   1.099  0.1124  1.1012 -0.4603
  232SOL    HW2  696   1.985   2.225   1.149 -2.1969  0.4168 -2.1719
  233SOL     OW  697   1.874   2.287   2.680 -0.5060 -0.3063  0.2699
  233SOL    HW1  698   1.886   2.218   2.606 -0.5892  0.7138  0.8184
  233SOL    HW2  699   1.963   2.315   2.715  1.4736  1.4500 -0.9987
  234SOL     OW  700   1.106   2.845   2.857  0.2542 -0.3267  0.2307
  234SOL    HW1  701   1.158   2.808   2.937 -1.9484 -0.5271 -1.1126
  234SOL    HW2  702   1.044   2.919   2.889 -0.0967 -0.4526 -0.0756
  235SOL     OW  703   2.570   3.018   0.098 -0.0922  0.2361 -0.3946
  235SOL    HW1  704   2.564   2.922   0.125  0.2543  1.2069 -2.2385
  235SOL    HW2  705   2.481   3.065   0.108 -2.5739 -0.1323 -0.0952
  236SOL     OW  706   2.468   2.369   2.239 -0.4454 -0.3758 -0.3274
  236SOL    HW1  707   2.512   2.451   2.201 -3.1356 -1.1208  1.7396
  236SOL    HW2  708   2.524   2.332   2.318 -0.4945 -2.5969 -0.5840
  237SOL     OW  709   1.486   1.353   1.781 -0.1069 -0.1634 -0.1629
  237SOL    HW1  710   1.577   1.381   1.818 -0.6176  0.7202 -0.7584
  237SOL    HW2  711   1.424   1.425   1.742 -0.7774 -1.7719 -2.0774
  238SOL     OW  712   2.137   0.295   2.430 -0.2491  0.1237 -0.0529
  238SOL    HW1  713   2.135   0.330   2.338 -1.1290 -0.1295 -0.4554
  238SOL    HW2  714   2.158   0.366   2.499 -0.4216 -0.6210  1.8542
  239SOL     OW  715   0.357   1.762   2.177 -0.8843 -0.0935 -0.4217
  239SOL    HW1  716   0.459   1.747   2.183 -0.5612 -0.0026 -0.5039
  239SOL    HW2  717   0.314   1.710   2.099 -0.8573  3.6186 -0.6991
  240SOL     OW  718   2.684   2.696   0.829 -0.4269  0.3660  0.3698
  240SOL    HW1  719   2.772   2.645   0.815  1.4171 -2.0027  2.4209
  240SOL    HW2  720   2.686   2.783   0.769  0.2825  1.3705 -1.9499
  241SOL     OW  721   1.628   2.144   0.890  0.2722  0.1659 -0.2166
  241SOL    HW1  722   1.642   2.083   0.972  0.7631 -0.2527  1.9160
  241SOL    HW2  723   1.657   2.100   0.803 -2.1357 -2.7377  1.2903
  242SOL     OW  724   1.086   1.632   2.816  0.6836  0.1264 -0.0082
  242SOL    HW1  725   1.134   1.718   2.842 -1.8156 -2.6664 -3.2168
  242SOL    HW2  726   0.996   1.648   2.774  1.6621  0.9973 -1.6216
  243SOL     OW  727   0.996   2.603   2.290  0.1089  0.0947 -0.2352
  243SOL    HW1  728   0.903   2.647   2.282 -2.9416  0.9231  1.6538
  243SOL    HW2  729   1.002   2.536   2.367 -1.2355  0.0842  1.1974
  244SOL     OW  730   2.215   3.043   2.734  0.8271 -0.1419  0.0591
  244SOL    HW1  731   2.194   3.058   2.636  0.2081 -1.3376  1.1520
  244SOL    HW2  732   2.141   3.073   2.797 -0.9753  2.2431 -0.1006
  245SOL     OW  733   1.335   2.544   0.446  0.0386  0.2149 -0.1535
  245SOL    HW1  734   1.380   2.476   0.507 -1.5698  1.9542 -0.5667
  245SOL    HW2  735   1.392   2.535   0.363  0.2012  0.7395 -0.6002
  246SOL     OW  736   1.000   0.022   2.968  0.2952  0.2974  0.2495
  246SOL    HW1  737   0.904   0.037   3.001 -2.5956 -2.3828  2.2255
  246SOL    HW2  738   1.058   0.012   3.049 -4.3141  0.7841  0.6612
  247SOL     OW  739   0.356   0.822   2.043 -0.5753  0.4955 -0.4180
  247SOL    HW1  740   0.343   0.911   1.999  0.5216  1.6376  2.4947
  247SOL    HW2  741   0.375   0.752   1.972  1.5962 -0.6356 -1.2461
  248SOL     OW  742   0.883   1.166   1.992  0.1502  0.7334  0.0198
  248SOL    HW1  743   0.805   1.103   2.003  1.0514  4.1400 -0.2580
  248SOL    HW2  744   0.964   1.134   1.931  3.5515 -1.7387 -1.3914
  249SOL     OW  745   2.117   0.377   0.458  0.0849 -0.0763 -0.7552
  249SOL    HW1  746   2.056   0.458   0.459  1.9472 -0.3773  0.7513
  249SOL    HW2  747   2.104   0.327   0.368  0.8472  3.3334 -1.8416
  250SOL     OW  748   0.798   0.003   0.546 -0.1601 -0.4813 -0.0478
  250SOL    HW1  749   0.713   3.053   0.581  3.1158 -0.8208  0.3181
  250SOL    HW2  750   0.820   3.067   0.451 -2.0713 -0.3300  1.0044
  251SOL     OW  751   1.821   2.876   2.773 -0.0977  0.4129 -0.5690
  251SOL    HW1  752   1.766   2.861   2.686 -0.4822  0.0252 -0.5354
  251SOL    HW2  753   1.876   2.793   2.800 -1.9692  1.5991 -2.8947
  252SOL     OW  754   1.792   1.444   2.272  0.0550 -0.2250 -0.0132
  252SOL    HW1  755   1.816   1.422   2.372 -1.0019 -3.1646 -0.0981
  252SOL    HW2  756   1.818   1.374   2.203 -0.0805  1.2342  4.0266
  253SOL     OW  757   2.492   2.846   2.280 -0.0622  0.0703 -0.3850
  253SOL    HW1  758   2.538   2.802   2.361  1.0574  1.0982 -0.5728
  253SOL    HW2  759   2.421   2.786   2.241 -2.3928  2.1927  3.0717
  254SOL     OW  760   0.810   1.705   1.192 -1.2717  0.2232 -0.2978
  254SOL    HW1  761   0.883   1.636   1.210 -1.9557 -2.9046 -0.4051
  254SOL    HW2  762   0.811   1.782   1.265 -3.5087  0.9083  5.1358
  255SOL     OW  763   1.127   0.812   1.044  0.3234  0.3511  0.1391
  255SOL    HW1  764   1.090   0.901   1.014  1.3548 -1.2660 -2.1066
  255SOL    HW2  765   1.066   0.764   1.109 -1.5382 -0.6213 -2.0125
  256SOL     OW  766   1.866   2.156   2.047 -0.0633 -0.2883  0.2735
  256SOL    HW1  767   1.921   2.199   2.120  0.5945 -0.2702 -0.8035
  256SOL    HW2  768   1.873   2.053   2.064  0.3738 -2.5609  1.6670
  257SOL     OW  769   0.136   2.798   2.967  0.1876 -0.1103 -0.2606
  257SOL    HW1  770   0.184   2.853   2.896 -1.0515 -1.8202  0.8754
  257SOL    HW2  771   0.134   2.697   2.944  0.4701 -0.3932  1.6290
  258SOL     OW  772   0.855   2.979   1.991  0.2294 -0.2217 -0.1261
  258SOL    HW1  773   0.903   2.996   2.084  1.8698 -0.7800  0.5413
  258SOL    HW2  774   0.919   2.991   1.915  2.4941  2.1262 -1.9617
  259SOL     OW  775   1.010   3.014   2.226  0.3690 -0.5250 -0.3251
  259SOL    HW1  776   1.101   3.054   2.215  1.0767 -2.3883  1.1926
  259SOL    HW2  777   0.994   2.978   2.320 -0.4962  0.5576 -1.2800
  260SOL     OW  778   1.586   0.691   0.851 -0.2155  0.4710 -0.2476
  260SOL    HW1  779   1.560   0.599   0.879  1.0498  3.2416 -1.4287
  260SOL    HW2  780   1.689   0.710   0.861  0.5201  2.7664 -1.5010
  261SOL     OW  781   0.342   0.390   2.719 -0.3050 -0.5611  0.0337
  261SOL    HW1  782   0.354   0.317   2.785  0.4626 -0.3192 -0.6989
  261SOL    HW2  783   0.364   0.483   2.757 -0.9371 -0.6954 -0.4066
  262SOL     OW  784   2.626   2.567   2.115 -0.2956 -0.1745 -0.7811
  262SOL    HW1  785   2.691   2.598   2.183  0.4694 -2.0212  0.2195
  262SOL    HW2  786   2.674   2.573   2.028 -0.8935  0.7546  1.1730
  263SOL     OW  787   2.912   1.808   1.935  0.0389  0.4241  0.1199
  263SOL    HW1  788   2.950   1.834   2.027 -1.3201  1.4170  1.8651
  263SOL    HW2  789   2.843   1.733   1.947 -0.6329 -1.6943 -1.3722
  264SOL     OW  790   0.855   1.139   0.995  0.4484 -1.1596  1.0044
  264SOL    HW1  791   0.866   1.238   0.958  0.5629  1.2520 -1.3612
  264SOL    HW2  792   0.826   1.141   1.090  1.7931  1.0471 -1.4660
  265SOL     OW  793   0.298   1.983   0.044  0.0485  0.4580  0.1213
  265SOL    HW1  794   0.375   1.980   0.106 -0.9317 -0.7754 -0.8800
  265SOL    HW2  795   0.286   2.079   0.013 -1.2315 -0.0229 -3.2606
  266SOL     OW  796   1.228   1.022   0.482  0.5809 -0.3098  0.3849
  266SOL    HW1  797   1.297   0.960   0.439  4.2233 -1.3208 -0.0033
  266SOL    HW2  798   1.135   0.978   0.479 -1.3608 -0.1869 -0.1142
  267SOL     OW  799   3.022   1.284   0.188  0.1447  0.2529 -0.0554
  267SOL    HW1  800   2.993   1.380   0.208  0.0212  2.9086  0.5085
  267SOL    HW2  801   0.031   1.274   0.224  0.6595  3.1995 -2.7352
  268SOL     OW  802   2.366   0.243   2.998 -0.0843 -0.0466 -0.0051
  268SOL    HW1  803   2.397   0.197   2.909 -1.4141  1.5387 -1.1693
  268SOL    HW2  804   2.346   0.172   3.068 -0.6720 -0.4517  1.5429
  269SOL     OW  805   1.536   0.533   2.637  0.5879 -0.1912 -0.4781
  269SOL    HW1  806   1.577   0.446   2.659 -0.0902  2.3141  0.1133
  269SOL    HW2  807   1.557   0.555   2.539  0.0040  0.2710  0.3823
  270SOL     OW  808   0.854   1.014   2.928  0.1668 -0.1789  0.0146
  270SOL    HW1  809   0.887   0.987   2.833  1.2480 -0.2004 -1.6335
  270SOL    HW2  810   0.808   0.937   2.967  0.3217  1.0393 -1.1503
  271SOL     OW  811   2.934   1.063   0.322  0.0851 -0.4069  0.2008
  271SOL    HW1  812   2.889   0.988   0.270 -1.6778  0.5323 -0.5665
  271SOL    HW2  813   2.947   1.145   0.259  1.5432  0.6403 -2.0719
  272SOL     OW  814   2.946   1.616   2.918  0.3648 -0.4056  0.3619
  272SOL    HW1  815   2.901   1.522   2.900 -0.3282 -0.3137  2.5045
  272SOL    HW2  816   3.003   1.646   2.837  1.2551 -2.4495  1.6953
  273SOL     OW  817   2.303   3.004   0.550 -0.0853  0.0824  0.0318
  273SOL    HW1  818   2.368   3.085   0.552  1.2167  0.4585  0.0928
  273SOL    HW2  819   2.349   2.918   0.582  0.9363 -1.8942  1.2701
  274SOL     OW  820   0.426   2.427   0.901 -0.2060  0.3876  0.0062
  274SOL    HW1  821   0.481   2.356   0.949 -0.3139 -0.5149  0.2622
  274SOL    HW2  822   0.469   2.516   0.927  1.4495 -1.3659  2.6625
  275SOL     OW  823   2.394   1.301   0.370 -0.1852 -0.1277  0.2448
  275SOL    HW1  824   2.474   1.354   0.338 -2.5290  2.9521  0.1742
  275SOL    HW2  825   2.421   1.204   0.377  1.4720 -1.2237 -0.6789
  276SOL     OW  826   2.897   1.240   2.377 -0.4794 -0.5196  0.2405
  276SOL    HW1  827   2.977   1.210   2.426 -3.9729 -1.8909  0.4581
  276SOL    HW2  828   2.852   1.158   2.333 -0.7991 -1.0032 -0.4783
  277SOL     OW  829   2.015   2.885   1.314 -0.8055  0.2593 -0.4727
  277SOL    HW1  830   2.063   2.870   1.228 -1.8452 -1.8837  0.4201
  277SOL    HW2  831   2.031   2.804   1.380  1.2479  0.5041  2.0286
  278SOL     OW  832   1.281   0.062   2.228 -0.1295 -0.0452  0.0315
  278SOL    HW1  833   1.313   0.132   2.159  0.2715 -0.4342 -1.6058
  278SOL    HW2  834   1.312   0.087   2.321  0.3300 -0.1843  1.6346
  279SOL     OW  835   1.597   1.791   0.462 -0.1913  1.1888  0.3508
  279SOL    HW1  836   1.588   1.833   0.555 -0.7514 -0.1644 -1.6121
  279SOL    HW2  837   1.666   1.848   0.413  1.6234  1.0479  0.7581
  280SOL     OW  838   0.211   1.669   0.817 -0.4111 -0.8597  0.9139
  280SOL    HW1  839   0.284   1.722   0.768 -1.2558  0.2914 -0.8331
  280SOL    HW2  840   0.152   1.725   0.874 -0.9804  0.0586 -0.5431
  281SOL     OW  841   2.884   0.496   2.417  0.1820  0.0799  0.3300
  281SOL    HW1  842   2.957   0.427   2.419  1.5552 -0.9824 -1.3395
  281SOL    HW2  843   2.826   0.482   2.499  1.0632  0.8430  1.8333
  282SOL     OW  844   0.548   0.771   0.653 -0.3557  0.3884 -0.1681
  282SOL    HW1  845   0.494   0.682   0.661 -3.1221 -0.0729 -0.6370
  282SOL    HW2  846   0.490   0.857   0.644 -2.1890  1.1445  1.4917
  283SOL     OW  847   1.557   1.784   2.869  0.1952 -0.1854  0.0565
  283SOL    HW1  848   1.591   1.860   2.928  0.7563  1.8321  1.3715
  283SOL    HW2  849   1.637   1.733   2.832  1.8873  2.2125 -1.3628
  284SOL     OW  850   1.369   0.873   0.272  0.1215  0.2964  0.3603
  284SOL    HW1  851   1.441   0.931   0.227  0.4574 -0.5383 -2.5527
  284SOL    HW2  852   1.408   0.781   0.278 -1.5502  1.1001 -1.9977
  285SOL     OW  853   1.992   0.799   2.752  0.0828 -0.3800 -0.1781
  285SOL    HW1  854   1.952   0.829   2.664 -1.1665  0.1169  2.1927
  285SOL    HW2  855   1.918   0.757   2.810 -0.6541 -0.7559  1.5536
  286SOL     OW  856   1.631   2.732   1.387  0.3998  0.2313  0.7759
  286SOL    HW1  857   1.613   2.649   1.443  2.4998  1.0327 -1.4499
  286SOL    HW2  858   1.696   2.714   1.313 -2.2260  1.8252  0.0821
  287SOL     OW  859   1.053   1.000   0.873  0.8985  0.0106  0.1927
  287SOL    HW1  860   0.977   1.064   0.902  0.0102  0.4914 -1.0602
  287SOL    HW2  861   1.033   0.959   0.777 -1.4358 -1.7607 -0.9755
  288SOL     OW  862   0.900   2.758   0.171  0.2918 -0.2792  0.1021
  288SOL    HW1  863   0.889   2.721   0.076  1.8598  1.2361  0.2393
  288SOL    HW2  864   0.936   2.687   0.233  0.3637 -0.5559  0.5591
  289SOL     OW  865   0.435   1.485   1.784 -0.1963  0.0028  0.4065
  289SOL    HW1  866   0.525   1.534   1.773 -0.1975 -1.1918 -1.2741
  289SOL    HW2  867   0.355   1.537   1.739  1.2297  1.1164  0.7630
  290SOL     OW  868   1.662   2.373   1.056 -0.4155 -0.0206 -0.2986
  290SOL    HW1  869   1.663   2.292   0.999  1.7657  3.7817  0.4625
  290SOL    HW2  870   1.563   2.401   1.069 -2.1564  0.8754 -1.8854
  291SOL     OW  871   1.730   2.621   2.999 -0.2844  0.2148 -0.3989
  291SOL    HW1  872   1.814   2.620   2.940  1.2729 -0.1337  0.4524
  291SOL    HW2  873   1.702   2.524   3.009  0.5808  1.7059 -1.3756
  292SOL     OW  874   1.217   0.428   1.864 -0.0214  0.0207 -0.0986
  292SOL    HW1  875   1.260   0.493   1.797  0.4693  0.6433  1.5472
  292SOL    HW2  876   1.171   0.485   1.935 -1.7171 -1.7967 -1.4086
  293SOL     OW  877   1.821   2.521   0.909  0.1284 -0.1951 -0.2664
  293SOL    HW1  878   1.751   2.465   0.958 -2.0985  1.8060  2.9579
  293SOL    HW2  879   1.796   2.614   0.920  0.0060 -2.3556  1.8705
  294SOL     OW  880   0.513   0.853   2.535  0.5004  0.4703  0.4508
  294SOL    HW1  881   0.424   0.801   2.525 -0.7619 -1.4920 -2.0271
  294SOL    HW2  882   0.565   0.820   2.617  0.1755  0.2233 -1.5019
  295SOL     OW  883   1.395   1.661   0.762  0.0849 -0.2949  0.0066
  295SOL    HW1  884   1.439   1.569   0.744  0.4808 -2.8443 -0.1742
  295SOL    HW2  885   1.297   1.665   0.730 -0.7930  0.5345 -0.0976
  296SOL     OW  886   2.023   1.868   0.168  0.4616  0.2733 -0.1899
  296SOL    HW1  887   2.104   1.923   0.147 -3.8077 -1.1432  0.1629
  296SOL    HW2  888   2.047   1.776   0.208  2.6113 -0.7974 -0.3921
  297SOL     OW  889   2.301   0.031   0.086  0.1354  0.1674  0.1963
  297SOL    HW1  890   2.236   0.049   0.161 -0.2243  1.5468  0.9642
  297SOL    HW2  891   2.283   3.031   0.045 -0.2434  0.0110 -1.5886
  298SOL     OW  892   1.284   2.304   2.372  0.3852  0.3224 -0.1056
  298SOL    HW1  893   1.350   2.245   2.420  0.7774  0.8823  1.1761
  298SOL    HW2  894   1.332   2.375   2.312 -0.7512 -0.7624 -2.5088
  299SOL     OW  895   1.460   2.670   2.410  0.2538  0.0777 -0.0991
  299SOL    HW1  896   1.367   2.703   2.387 -1.5986 -0.8981  0.5531
  299SOL    HW2  897   1.457   2.600   2.485 -1.9228 -2.9695 -0.8421
  300SOL     OW  898   2.471   0.156   2.774 -0.5076 -0.8343 -0.5177
  300SOL    HW1  899   2.403   0.097   2.731 -0.3464 -0.2108  1.1666
  300SOL    HW2  900   2.505   0.225   2.708 -2.9204 -2.2753 -0.9728
  301SOL     OW  901   1.592   0.834   2.209 -0.0459  0.5917 -0.7090
  301SOL    HW1  902   1.598   0.932   2.228 -0.7114 -2.0217  1.2021
  301SOL    HW2  903   1.631   0.820   2.117 -4.0198  4.5868 -0.6386
  302SOL     OW  904   2.401   2.290   0.309  0.4828  0.4410  0.5736
  302SOL    HW1  905   2.370   2.289   0.405 -1.8341 -1.4280 -1.7270
  302SOL    HW2  906   2.445   2.199   0.285  1.7070 -0.5699 -0.1464
  303SOL     OW  907   2.870   2.629   2.256 -0.8492  1.3138  0.1861
  303SOL    HW1  908   2.954   2.578   2.227 -1.7547  1.0332 -1.2694
  303SOL    HW2  909   2.830   2.581   2.335  0.7811 -0.7481 -0.9542
  304SOL     OW  910   2.856   0.653   1.501 -0.0493 -0.1951  0.3183
  304SOL    HW1  911   2.839   0.689   1.593 -0.9508  2.1287  1.8877
  304SOL    HW2  912   2.864   0.551   1.511 -0.6975  0.1647  5.4538
  305SOL     OW  913   0.693   2.160   1.577  0.0540 -0.2198  0.2251
  305SOL    HW1  914   0.686   2.251   1.528  0.6722  0.6791  2.4630
  305SOL    HW2  915   0.606   2.112   1.563 -0.2672  0.9754  0.2776
  306SOL     OW  916   2.864   0.988   1.573 -0.6727  0.0744  0.0579
  306SOL    HW1  917   2.844   0.911   1.511  1.2553  0.8114 -1.6124
  306SOL    HW2  918   2.957   0.986   1.610  1.0368 -0.1091  1.8586
  307SOL     OW  919   1.563   0.720   1.836 -0.1579 -0.3379  0.1487
  307SOL    HW1  920   1.595   0.654   1.909 -0.4643  0.8377 -1.4403
  307SOL    HW2  921   1.503   0.673   1.771  2.4699  0.4270 -0.3674
  308SOL     OW  922   2.774   1.463   1.070  0.2566 -0.4840 -0.4376
  308SOL    HW1  923   2.812   1.423   0.986  1.3272  2.2996 -1.1015
  308SOL    HW2  924   2.675   1.447   1.077 -3.1169 -2.9428  0.1604
  309SOL     OW  925   2.446   1.317   0.819 -0.5269  0.6393  0.4262
  309SOL    HW1  926   2.347   1.307   0.830  2.2696  0.7449  1.5624
  309SOL    HW2  927   2.495   1.384   0.882  1.6131  0.6250  2.3622
  310SOL     OW  928   2.689   1.599   2.704  0.0364  0.3264  0.0530
  310SOL    HW1  929   2.678   1.699   2.714  0.8538 -3.0582 -0.9763
  310SOL    HW2  930   2.661   1.548   2.789 -0.1868 -1.2830 -3.9092
  311SOL     OW  931   0.033   2.594   2.668  0.7809 -0.3254 -0.3358
  311SOL    HW1  932   3.025   2.569   2.692 -2.1362 -1.9061  0.3612
  311SOL    HW2  933   0.102   2.577   2.743  2.0004  1.2646  2.9475
  312SOL     OW  934   1.941   1.772   0.773  0.4492  0.0635  0.3791
  312SOL    HW1  935   1.931   1.765   0.673 -1.7384 -0.9948  2.2468
  312SOL    HW2  936   1.919   1.683   0.816  0.5761 -0.4820 -0.2975
  313SOL     OW  937   2.572   0.051   0.973 -0.9366  1.0051  0.1498
  313SOL    HW1  938   2.503   3.075   0.936  1.8998  1.3849  0.6119
  313SOL    HW2  939   2.602   0.117   0.903  0.0756  0.4896  2.7189
  314SOL     OW  940   1.253   1.363   0.201 -0.1310  0.9196 -0.0860
  314SOL    HW1  941   1.348   1.369   0.238  1.1983 -0.3543  0.4787
  314SOL    HW2  942   1.239   1.312   0.115 -2.1179 -2.9453 -0.6643
  315SOL     OW  943   1.475   2.456   2.211  0.0179  0.0144 -0.0816
  315SOL    HW1  944   1.479   2.554   2.249 -0.1250 -2.6098  0.5079
  315SOL    HW2  945   1.489   2.448   2.105  1.8213 -1.5070 -3.8363
  316SOL     OW  946   2.975   0.725   0.622 -0.6072 -0.2095 -0.1759
  316SOL    HW1  947   2.926   0.791   0.559  1.2139  2.1370 -1.5710
  316SOL    HW2  948   3.014   0.776   0.705  2.1327 -0.1500  0.8869
  317SOL     OW  949   0.562   0.022   0.385  0.1516  0.0659  0.1127
  317SOL    HW1  950   0.553   3.072   0.477  1.9980 -3.1534  2.7827
  317SOL    HW2  951   0.655   0.007   0.342  0.0660 -1.5893  0.1750
  318SOL     OW  952   2.137   2.431   0.534 -0.2542 -0.4579  0.0823
  318SOL    HW1  953   2.133   2.330   0.520  0.1607  1.7470 -0.6329
  318SOL    HW2  954   2.123   2.474   0.444 -1.9869 -4.1319 -0.3221
  319SOL     OW  955   0.831   1.429   2.457  0.4149  0.2668 -0.3400
  319SOL    HW1  956   0.752   1.487   2.453  1.2623 -1.9842  0.3180
  319SOL    HW2  957   0.898   1.437   2.381 -1.8124  0.9644 -0.7358
  320SOL     OW  958   0.137   2.619   1.946 -0.0702 -0.3665 -0.5342
  320SOL    HW1  959   0.137   2.723   1.962  0.8504  3.3733 -0.8787
  320SOL    HW2  960   0.071   2.605   1.866  0.8881 -1.9139 -1.6965
  321SOL     OW  961   1.527   2.366   2.892  0.3683  0.0127 -0.5480
  321SOL    HW1  962   1.540   2.378   2.993  1.3743  1.1352  0.2809
  321SOL    HW2  963   1.577   2.289   2.855  0.9344 -0.1896  0.4023
  322SOL     OW  964   2.967   1.367   2.151  0.4656  0.3787 -0.0838
  322SOL    HW1  965   2.951   1.310   2.235  0.9191 -0.4375  0.5001
  322SOL    HW2  966   2.943   1.319   2.063 -2.5523 -0.0642 -1.2196
  323SOL     OW  967   2.461   1.046   0.422 -0.1907 -0.2838 -0.2895
  323SOL    HW1  968   2.377   0.999   0.461 -3.6136 -1.1990 -1.8436
  323SOL    HW2  969   2.541   0.983   0.400  1.4275 -2.1443 -2.1668
  324SOL     OW  970   2.870   0.019   2.967 -0.0988 -0.1293  0.8723
  324SOL    HW1  971   2.770   0.002   2.963  0.6811  0.6983  1.0310
  324SOL    HW2  972   2.914   3.015   2.964  1.4861 -2.0378  1.1108
  325SOL     OW  973   1.434   0.245   2.468  0.3504 -0.0922 -0.2273
  325SOL    HW1  974   1.501   0.193   2.521 -1.5749  2.8715 -4.3991
  325SOL    HW2  975   1.354   0.269   2.525 -3.4360  3.2526 -1.7580
  326SOL     OW  976   2.255   2.779   1.549  0.1040 -0.6532  0.2213
  326SOL    HW1  977   2.253   2.856   1.620 -1.7155  2.2729  0.6186
  326SOL    HW2  978   2.321   2.708   1.572 -0.4286 -1.4435  0.5259
  327SOL     OW  979   1.854   0.223   2.930 -0.1907 -0.1378 -0.1189
  327SOL    HW1  980   1.888   0.131   2.922 -1.5179  1.0504 -1.2267
  327SOL    HW2  981   1.848   0.263   3.027  2.8335 -0.7541  1.2497
  328SOL     OW  982   3.043   0.893   2.209  0.0066 -0.4146  0.1314
  328SOL    HW1  983   0.022   0.973   2.180  0.7149  4.3954 -0.5022
  328SOL    HW2  984   2.954   0.942   2.241 -2.1980  1.5802  1.3536
  329SOL     OW  985   1.788   0.131   1.870  0.1529 -0.1231 -0.3919
  329SOL    HW1  986   1.764   0.224   1.830 -0.0973  3.0169  0.6424
  329SOL    HW2  987   1.814   0.141   1.969 -1.3051 -1.5958 -0.2096
  330SOL     OW  988   2.813   1.792   1.271 -0.3811 -0.8003 -0.2780
  330SOL    HW1  989   2.836   1.695   1.287  0.7322 -1.2262  2.5983
  330SOL    HW2  990   2.819   1.846   1.359  0.0965  0.3323 -0.5896
  331SOL     OW  991   0.608   1.624   2.193 -0.1685  0.6654 -0.3513
  331SOL    HW1  992   0.685   1.683   2.162  0.0262  3.6299 -1.6847
  331SOL    HW2  993   0.622   1.526   2.159 -2.7366 -1.1612  1.8321
  332SOL     OW  994   0.339   2.879   1.350  0.8682 -0.1694  0.1841
  332SOL    HW1  995   0.346   2.835   1.439 -0.2208  1.7602 -2.0158
  332SOL    HW2  996   0.269   2.954   1.350 -0.6028  1.0342  0.3954
  333SOL     OW  997   2.272   2.636   1.331  0.2999 -0.6033  0.4383
  333SOL    HW1  998   2.244   2.685   1.412 -2.1506 -0.6910 -1.7038
  333SOL    HW2  999   2.240   2.541   1.319 -0.1554 -0.4069 -1.4196
  334SOL     OW 1000   0.757   1.888   0.969  0.1067 -0.9446  0.2657
  334SOL    HW1 1001   0.763   1.811   1.034  1.2745 -0.8468  1.0224
  334SOL    HW2 1002   0.847   1.936   0.953  1.1309 -3.5342 -0.4482
  335SOL     OW 1003   0.074   2.334   0.025  0.7264 -0.1130  0.3363
  335SOL    HW1 1004   0.032   2.265   3.057  1.6934 -1.7888  0.9908
  335SOL    HW2 1005   0.011   2.412   0.041  3.3218  0.2975 -1.6647
  336SOL     OW 1006   0.429   0.118   1.967  0.6879 -0.0097 -0.2668
  336SOL    HW1 1007   0.389   0.199   2.013 -0.4619  1.6247 -0.6230
  336SOL    HW2 1008   0.525   0.132   1.965 -4.0886  0.0335 -0.6971
  337SOL     OW 1009   2.510   1.844   2.847  0.0273 -0.4240  0.2734
  337SOL    HW1 1010   2.442   1.798   2.900  1.7636  0.4446  1.3078
  337SOL    HW2 1011   2.601   1.828   2.892 -1.0497 -1.5378 -1.4509
  338SOL     OW 1012   1.090   1.626   1.193 -0.2086  0.3052  0.0167
  338SOL    HW1 1013   1.091   1.728   1.181 -0.6782  0.5410 -0.8988
  338SOL    HW2 1014   1.107   1.590   1.100  3.8648  0.3139  0.7932
  339SOL     OW 1015   0.071   0.560   1.862 -0.0093  0.4271  0.0227
  339SOL    HW1 1016   3.070   0.517   1.880 -0.8560  0.6254 -2.1428
  339SOL    HW2 1017   0.112   0.597   1.952  1.1576  0.2698 -0.5905
  340SOL     OW 1018   1.531   2.455   0.258  0.1821  0.4325  0.3800
  340SOL    HW1 1019   1.468   2.397   0.205  0.2613 -0.0439  0.0576
  340SOL    HW2 1020   1.617   2.408   0.280  1.7313  0.4087  0.9739
  341SOL     OW 1021   1.687   1.515   1.179  0.4115 -0.4695  0.4847
  341SOL    HW1 1022   1.686   1.459   1.262  0.9987 -0.0498 -4.3227
  341SOL    HW2 1023   1.597   1.520   1.131  0.4831 -0.1544  0.4043
  342SOL     OW 1024   2.929   2.523   0.477 -0.4961 -0.1733 -0.0222
  342SOL    HW1 1025   2.839   2.480   0.472 -0.1751  0.5226  1.9965
  342SOL    HW2 1026   2.964   2.556   0.389  0.8028  1.8847  0.3546
  343SOL     OW 1027   1.420   2.472   1.111  0.3007  1.2906  0.1589
  343SOL    HW1 1028   1.413   2.571   1.132 -3.6458 -1.2593  2.5763
  343SOL    HW2 1029   1.348   2.420   1.164 -0.5797 -1.9507  2.6199
  344SOL     OW 1030   2.148   2.705   0.858 -0.1559 -0.3283  0.4828
  344SOL    HW1 1031   2.057   2.703   0.812  0.8960  2.9705  1.7033
  344SOL    HW2 1032   2.218   2.734   0.791  0.5974  0.1193 -2.0297
  345SOL     OW 1033   2.800   1.944   2.765  0.1298  0.1642  0.1993
  345SOL    HW1 1034   2.793   2.026   2.821  2.4844 -0.7216 -1.3588
  345SOL    HW2 1035   2.895   1.923   2.734  0.8070  1.6874  2.3503
  346SOL     OW 1036   2.942   1.695   0.961 -0.2193  0.2821  0.5136
  346SOL    HW1 1037   2.863   1.653   1.004  0.6930 -2.0387 -0.0873
  346SOL    HW2 1038   3.026   1.665   1.007 -0.0447  0.2347  0.3147
  347SOL     OW 1039   1.906   2.564   1.275  0.1726 -0.3064  0.2271
  347SOL    HW1 1040   1.947   2.585   1.363 -1.2006  1.1754  1.4291
  347SOL    HW2 1041   1.871   2.649   1.226 -3.4222  0.4125 -1.8976
  348SOL     OW 1042   0.839   1.690   2.697  0.8946  0.3309 -0.0881
  348SOL    HW1 1043   0.776   1.733   2.631 -1.1024  1.1312 -0.9451
  348SOL    HW2 1044   0.789   1.619   2.749 -1.3650 -1.2304 -1.8527
  349SOL     OW 1045   2.315   1.408   1.917  0.4762 -0.1009 -0.3195
  349SOL    HW1 1046   2.226   1.396   1.866 -1.3635  0.0261 -2.1639
  349SOL    HW2 1047   2.340   1.510   1.931  0.3000  1.7857  0.8060
  350SOL     OW 1048   0.186   2.359   1.036 -0.1011  0.2692  0.3886
  350SOL    HW1 1049   0.256   2.408   0.983 -0.2515  1.3494  2.3056
  350SOL    HW2 1050   0.171   2.267   1.002 -0.2900  2.0211 -0.7003
  351SOL     OW 1051   0.472   0.567   2.366 -0.1204 -0.3370  0.0309
  351SOL    HW1 1052   0.399   0.624   2.415  0.1255  0.0781 -0.9035
  351SOL    HW2 1053   0.465   0.467   2.398 -1.2653 -0.5377  2.0660
  352SOL     OW 1054   0.655   2.407   1.467 -0.7998  0.4486 -0.0886
  352SOL    HW1 1055   0.675   2.480   1.529  2.3083 -1.4191 -3.9708
  352SOL    HW2 1056   0.559   2.413   1.428  0.0217  0.1942  0.8305
  353SOL     OW 1057   1.130   1.540   2.556 -0.1482  0.3828  0.7632
  353SOL    HW1 1058   1.115   1.579   2.650  0.2606 -0.5161  0.7785
  353SOL    HW2 1059   1.128   1.439   2.551  0.4469 -2.1075 -0.7799
  354SOL     OW 1060   1.505   0.883   0.631  0.3377 -0.0015 -0.5408
  354SOL    HW1 1061   1.520   0.859   0.727  1.5439  1.5425 -1.2028
  354SOL    HW2 1062   1.418   0.846   0.603  0.0955 -0.0382  1.0585
  355SOL     OW 1063   2.602   0.733   0.455  0.5062  0.3109  0.0091
  355SOL    HW1 1064   2.613   0.650   0.395  1.3872  0.3636 -0.6250
  355SOL    HW2 1065   2.690   0.769   0.488  2.0269  1.9104 -0.9275
  356SOL     OW 1066   2.575   1.063   2.784 -0.3865 -0.5173 -0.5274
  356SOL    HW1 1067   2.642   1.030   2.849 -1.3127  1.5684 -1.1470
  356SOL    HW2 1068   2.482   1.075   2.826 -0.3038  0.6092  0.5971
  357SOL     OW 1069   0.646   2.663   1.576 -0.0466  0.1327 -0.1142
  357SOL    HW1 1070   0.722   2.690   1.519 -0.8749  0.4162  1.2198
  357SOL    HW2 1071   0.675   2.629   1.672  2.3428 -0.4139 -1.1490
  358SOL     OW 1072   2.256   1.172   2.130  0.2550 -0.1530 -0.1609
  358SOL    HW1 1073   2.255   1.245   2.057 -0.0343 -0.1853 -1.9623
  358SOL    HW2 1074   2.238   1.080   2.085  1.7755 -2.1692 -1.4982
  359SOL     OW 1075   2.031   2.311   3.076 -0.3290 -0.0731  0.0106
  359SOL    HW1 1076   2.068   2.267   2.991  0.1521 -0.3983 -3.5177
  359SOL    HW2 1077   2.053   2.409   3.074  1.5793 -2.5080  1.1388
  360SOL     OW 1078   2.154   0.546   0.942 -0.6556  0.4809  0.3017
  360SOL    HW1 1079   2.212   0.598   1.009 -3.0889  1.3600  0.7254
  360SOL    HW2 1080   2.139   0.602   0.854  1.6014  1.9954 -2.6912
  361SOL     OW 1081   2.144   0.025   1.057 -0.5097  0.3555  0.1879
  361SOL    HW1 1082   2.132   3.017   1.080 -1.1592 -2.6797 -1.4662
  361SOL    HW2 1083   2.189   0.047   0.971  0.6172  0.8868  3.0029
  362SOL     OW 1084   1.422   1.183   0.545  0.4014  0.3336 -0.1680
  362SOL    HW1 1085   1.336   1.142   0.516  0.1003  0.6963 -1.1798
  362SOL    HW2 1086   1.468   1.116   0.603  0.6444  0.5610 -1.7946
  363SOL     OW 1087   2.441   1.653   2.405 -0.1756 -0.2615  0.8299
  363SOL    HW1 1088   2.483   1.559   2.427 -0.1490 -0.4062  3.0076
  363SOL    HW2 1089   2.432   1.711   2.489  1.1583  0.2273  2.4985
  364SOL     OW 1090   1.284   0.875   1.303 -0.5200  0.2963 -0.2529
  364SOL    HW1 1091   1.345   0.814   1.243 -0.0172 -3.8150 -1.2366
  364SOL    HW2 1092   1.204   0.913   1.252  1.8776 -0.8742  3.2414
  365SOL     OW 1093   0.317   2.976   0.999 -0.3531 -0.4200  0.5690
  365SOL    HW1 1094   0.255   3.013   1.070  0.0400  2.5596 -1.9297
  365SOL    HW2 1095   0.294   2.880   0.978  2.6214 -0.0378  0.1495
  366SOL     OW 1096   2.774   1.552   0.495  0.3504  0.2610 -0.2218
  366SOL    HW1 1097   2.709   1.533   0.565  1.6508  0.4569 -0.7105
  366SOL    HW2 1098   2.848   1.616   0.526  2.5440 -3.5292  2.7686
  367SOL     OW 1099   2.896   2.302   2.775 -0.1227 -0.6964 -0.8309
  367SOL    HW1 1100   2.884   2.401   2.747  0.3487  3.2215 -2.1537
  367SOL    HW2 1101   2.813   2.264   2.827 -1.2785  0.5676 -2.1533
  368SOL     OW 1102   0.071   2.075   0.765 -0.7945  0.3544  0.7888
  368SOL    HW1 1103   0.106   2.040   0.675  0.4286 -2.0055 -0.6659
  368SOL    HW2 1104   0.013   2.156   0.753  0.1378  1.1299 -0.8200
  369SOL     OW 1105   0.591   0.294   0.374  0.1433  0.1898  0.2632
  369SOL    HW1 1106   0.574   0.197   0.385 -1.2470  3.2010 -0.6338
  369SOL    HW2 1107   0.679   0.317   0.330 -2.0652 -0.2718  0.7513
  370SOL     OW 1108   0.293   0.819   1.432 -0.6353 -0.4626 -0.1008
  370SOL    HW1 1109   0.277   0.753   1.509 -0.0983  1.7221  0.0358
  370SOL    HW2 1110   0.369   0.883   1.464  0.5715 -0.9971  0.7212
  371SOL     OW 1111   1.878   2.396   0.653  0.5384 -0.1155  0.4472
  371SOL    HW1 1112   1.959   2.420   0.597 -2.9769 -2.4756 -0.2170
  371SOL    HW2 1113   1.890   2.434   0.750  2.9964  0.1452 -0.8257
  372SOL     OW 1114   0.281   1.062   2.776  0.3599 -0.4814  0.3459
  372SOL    HW1 1115   0.280   1.100   2.678 -1.6682  0.6699 -0.0936
  372SOL    HW2 1116   0.252   1.135   2.846  0.5984 -3.3425  0.6768
  373SOL     OW 1117   2.635   1.506   0.728 -0.2833  0.2006  0.2118
  373SOL    HW1 1118   2.593   1.589   0.767 -0.6701 -3.6696 -0.3804
  373SOL    HW2 1119   2.564   1.433   0.736 -2.6208 -3.1298  2.7752
  374SOL     OW 1120   0.343   2.372   0.342  0.4791 -0.0671 -0.5796
  374SOL    HW1 1121   0.331   2.285   0.393 -0.0162  2.3909 -1.8099
  374SOL    HW2 1122   0.355   2.348   0.244 -1.0672 -3.1146  1.5263
  375SOL     OW 1123   0.800   0.327   0.192  0.0519  0.0048 -0.3440
  375SOL    HW1 1124   0.889   0.279   0.197 -0.4956  1.2885 -0.9566
  375SOL    HW2 1125   0.808   0.427   0.166 -1.0713  0.1342 -0.0614
  376SOL     OW 1126   0.386   2.939   1.948 -0.0216 -0.2342 -0.3401
  376SOL    HW1 1127   0.400   3.040   1.953  1.4617  1.4793  0.1544
  376SOL    HW2 1128   0.294   2.912   1.980 -2.9553 -0.0796 -1.4270
  377SOL     OW 1129   0.883   2.272   2.366  0.0213  0.3099 -0.3990
  377SOL    HW1 1130   0.939   2.222   2.296  0.5663  0.4708  2.8126
  377SOL    HW2 1131   0.951   2.324   2.424 -1.6526 -1.9240  0.5588
  378SOL     OW 1132   0.986   0.884   0.643  0.2602 -0.5883 -0.0529
  378SOL    HW1 1133   0.916   0.904   0.570  0.1048 -0.1774  0.0763
  378SOL    HW2 1134   0.965   0.795   0.687 -0.7658  1.3751  0.0990
  379SOL     OW 1135   0.728   1.817   2.961 -0.5323  1.0148  0.3130
  379SOL    HW1 1136   0.703   1.721   2.935 -1.0197  1.3006 -1.7187
  379SOL    HW2 1137   0.807   1.852   2.908 -0.4686 -1.9644 -0.9790
  380SOL     OW 1138   2.759   1.983   1.499 -0.2563  0.3125  0.2595
  380SOL    HW1 1139   2.780   2.011   1.596  0.8191 -2.5243  1.9307
  380SOL    HW2 1140   2.763   2.062   1.435  0.7328  1.0204  1.1792
  381SOL     OW 1141   0.095   1.158   1.865 -0.4253 -0.0822  0.2075
  381SOL    HW1 1142   0.188   1.182   1.830  1.0155 -1.7266 -1.3024
  381SOL    HW2 1143   0.068   1.067   1.826  1.4148  0.8993 -2.1985
  382SOL     OW 1144   2.377   2.300   2.985  0.0847  0.6998 -0.2645
  382SOL    HW1 1145   2.355   2.388   2.943  1.9531 -2.1455 -0.4963
  382SOL    HW2 1146   2.465   2.314   3.039  0.5520 -1.3670 -1.6604
  383SOL     OW 1147   2.350   2.118   2.018 -0.2992  0.1687  0.6160
  383SOL    HW1 1148   2.451   2.147   2.025  1.4276  1.1977  0.6586
  383SOL    HW2 1149   2.288   2.196   2.025  0.9229 -0.3878  1.6457
  384SOL     OW 1150   0.757   2.181   2.117 -0.1400  0.1175  0.3998
  384SOL    HW1 1151   0.765   2.216   2.209 -0.2831 -0.3281 -1.4021
  384SOL    HW2 1152   0.741   2.256   2.047 -1.0326  1.8659 -3.0412
  385SOL     OW 1153   2.569   2.078   1.112  0.2661 -0.6041 -0.1268
  385SOL    HW1 1154   2.472   2.075   1.095 -0.7428  1.0800 -2.3564
  385SOL    HW2 1155   2.603   1.980   1.093 -0.4282 -1.8738 -2.1422
  386SOL     OW 1156   1.887   0.598   0.050 -0.9878 -0.1050 -0.4996
  386SOL    HW1 1157   1.979   0.646   0.053  0.6947  0.3620 -2.2677
  386SOL    HW2 1158   1.815   0.636   0.109  1.9872 -0.7495  0.7880
  387SOL     OW 1159   0.671   0.680   1.929  0.6792 -0.0042 -0.3616
  387SOL    HW1 1160   0.576   0.680   1.883 -4.1409  0.4098 -2.4474
  387SOL    HW2 1161   0.657   0.693   2.029  2.3670  2.7436  2.0679
  388SOL     OW 1162   2.837   1.068   1.826 -0.0123 -0.0373 -0.1586
  388SOL    HW1 1163   2.829   1.031   1.727  1.3634 -0.7860 -0.1258
  388SOL    HW2 1164   2.860   1.167   1.823 -3.1648  1.7783 -0.8478
  389SOL     OW 1165   1.580   0.608   2.366  0.5705 -0.4915  0.0800
  389SOL    HW1 1166   1.594   0.692   2.308 -0.1905  1.8001  1.8684
  389SOL    HW2 1167   1.540   0.533   2.310  0.9671 -1.2020  1.8796
  390SOL     OW 1168   1.808   2.381   0.308  0.3342  0.2676 -0.5214
  390SOL    HW1 1169   1.833   2.285   0.338  0.5809 -0.0398  1.9185
  390SOL    HW2 1170   1.885   2.446   0.327  1.4869  0.6619  0.0020
  391SOL     OW 1171   1.830   2.787   1.146  0.3585 -0.0998  0.0263
  391SOL    HW1 1172   1.821   2.804   1.046 -1.9834 -0.8991  0.7513
  391SOL    HW2 1173   1.906   2.847   1.185  3.4753  2.3699 -1.7140
  392SOL     OW 1174   2.688   2.537   1.238  0.0585  0.0051 -0.2858
  392SOL    HW1 1175   2.713   2.613   1.173  1.2969  0.1529 -0.6507
  392SOL    HW2 1176   2.688   2.446   1.193  0.6158  2.2165  1.4962
  393SOL     OW 1177   1.792   1.683   2.779 -0.9192  0.6882 -0.2187
  393SOL    HW1 1178   1.839   1.770   2.808  0.3095 -1.7137  0.2947
  393SOL    HW2 1179   1.855   1.600   2.787  1.0187  0.7295  0.5719
  394SOL     OW 1180   0.287   2.735   0.092 -0.0180  0.1550 -1.4812
  394SOL    HW1 1181   0.240   2.747   0.001  0.5555 -0.8709 -2.6141
  394SOL    HW2 1182   0.334   2.825   0.110 -0.9588  2.7781 -3.0914
  395SOL     OW 1183   1.244   1.194   1.219 -0.2016  0.0026 -0.2235
  395SOL    HW1 1184   1.344   1.172   1.231  1.2392 -1.2397 -0.5830
  395SOL    HW2 1185   1.235   1.231   1.123  1.6076  2.1217 -4.4096
  396SOL     OW 1186   1.795   0.622   2.857  0.6875 -0.3355  0.3673
  396SOL    HW1 1187   1.703   0.658   2.822 -0.3555  3.0646 -1.4004
  396SOL    HW2 1188   1.804   0.618   2.960 -0.0442  0.1256  5.6050
  397SOL     OW 1189   0.044   0.955   2.687 -0.0852  0.5469 -0.0266
  397SOL    HW1 1190   0.040   0.983   2.587 -0.2016  1.2541 -0.5095
  397SOL    HW2 1191   0.130   0.990   2.726 -1.4088  2.0464  1.3272
  398SOL     OW 1192   1.215   0.505   0.158 -0.0820  0.4584 -0.1393
  398SOL    HW1 1193   1.294   0.531   0.098  4.4400 -1.5893  0.2008
  398SOL    HW2 1194   1.158   0.437   0.108  2.0317 -0.1588  1.8298
  399SOL     OW 1195   2.171   3.022   1.815  0.9041  0.6470  0.4137
  399SOL    HW1 1196   2.273   3.009   1.825 -2.1648 -1.7971  1.5348
  399SOL    HW2 1197   2.120   2.935   1.830 -1.5092 -0.6728  0.5820
  400SOL     OW 1198   3.028   1.593   2.317  0.5494  0.5575 -0.7517
  400SOL    HW1 1199   3.015   1.512   2.250 -2.3459  0.1386  0.1008
  400SOL    HW2 1200   2.976   1.564   2.402 -1.2973 -0.6986  0.9511
  401SOL     OW 1201   0.727   0.146   3.072  0.1088 -0.0055 -0.4214
  401SOL    HW1 1202   0.746   0.200   0.069  2.6906  1.5168  0.0629
  401SOL    HW2 1203   0.682   0.200   2.999  1.8873  1.4111  0.0675
  402SOL     OW 1204   0.308   2.506   1.599  0.0372  0.3597 -0.4706
  402SOL    HW1 1205   0.337   2.491   1.505 -1.1355  1.4066  3.3323
  402SOL    HW2 1206   0.354   2.588   1.642  1.8057  2.3514 -0.0389
  403SOL     OW 1207   0.569   1.628   1.340 -0.0758 -0.0092  0.1319
  403SOL    HW1 1208   0.537   1.533   1.344  0.8747 -2.2093  1.9545
  403SOL    HW2 1209   0.668   1.639   1.322 -0.0005  0.8781  3.8523
  404SOL     OW 1210   2.867   2.790   1.791  0.6071  0.0079  0.1251
  404SOL    HW1 1211   2.867   2.855   1.716 -0.4227 -1.2715 -0.4453
  404SOL    HW2 1212   2.871   2.848   1.876 -0.5316  2.4236 -0.1811
  405SOL     OW 1213   2.797   0.494   2.164 -0.4198 -0.2988  0.2789
  405SOL    HW1 1214   2.704   0.444   2.171 -2.7169  1.9452  1.3771
  405SOL    HW2 1215   2.833   0.498   2.260 -0.6261  0.8309  1.9249
  406SOL     OW 1216   1.719   2.356   0.018  0.0724  0.5156  0.4932
  406SOL    HW1 1217   1.741   2.377   0.115  0.5057  1.6102 -0.9301
  406SOL    HW2 1218   1.777   2.277   3.082 -0.6962  4.5365 -1.8525
  407SOL     OW 1219   1.759   1.876   0.964 -0.5662  0.0308 -0.1238
  407SOL    HW1 1220   1.823   1.820   0.907  1.1077  1.2608  1.0737
  407SOL    HW2 1221   1.758   1.870   1.067  1.1234 -0.7394  1.2841
  408SOL     OW 1222   0.685   0.342   2.189 -0.0775  0.1920 -0.1163
  408SOL    HW1 1223   0.733   0.430   2.190 -0.0364 -1.5079  1.7428
  408SOL    HW2 1224   0.700   0.279   2.107  0.2265 -0.1239 -3.6634
  409SOL     OW 1225   2.424   2.094   0.540 -0.8395 -0.3000  0.1969
  409SOL    HW1 1226   2.398   2.105   0.636 -0.0497 -2.5474 -1.6252
  409SOL    HW2 1227   2.527   2.094   0.535  0.4529 -1.7681  0.4122
  410SOL     OW 1228   2.260   1.518   0.473  0.2346 -0.0688 -0.2096
  410SOL    HW1 1229   2.297   1.429   0.445  0.6420  1.3112  0.8379
  410SOL    HW2 1230   2.326   1.595   0.449  1.5473 -2.1132 -1.6339
  411SOL     OW 1231   2.995   0.468   0.627 -0.2440  0.4449  0.0372
  411SOL    HW1 1232   3.084   0.428   0.661  3.1787 -0.8846  3.2885
  411SOL    HW2 1233   3.003   0.570   0.612  2.0296 -0.3551 -0.2795
  412SOL     OW 1234   1.728   0.682   0.252  0.2105  0.1655 -0.0598
  412SOL    HW1 1235   1.665   0.658   0.328 -0.0516 -0.7593 -2.4307
  412SOL    HW2 1236   1.737   0.778   0.246 -3.0446 -0.2747 -0.3839
  413SOL     OW 1237   0.804   0.727   1.475 -0.8407  0.2922 -0.4642
  413SOL    HW1 1238   0.766   0.655   1.529  0.4082 -0.3441 -0.7317
  413SOL    HW2 1239   0.740   0.762   1.408  2.0030 -2.5403  2.4226
  414SOL     OW 1240   0.270   1.495   2.978 -0.0561  0.3435 -0.1144
  414SOL    HW1 1241   0.190   1.533   3.028  0.9305 -0.5189 -0.4882
  414SOL    HW2 1242   0.299   1.564   2.907  0.2819 -0.0114  0.5966
  415SOL     OW 1243   0.072   1.862   0.124 -0.6419  0.4882 -0.5789
  415SOL    HW1 1244   0.165   1.886   0.083 -0.4260 -0.1085 -0.2596
  415SOL    HW2 1245   0.048   1.770   0.091  0.1513 -0.0126  2.1046
  416SOL     OW 1246   1.780   0.952   0.244  0.0265 -0.1264 -0.4333
  416SOL    HW1 1247   1.807   0.995   0.330  0.2944 -2.1567 -0.4992
  416SOL    HW2 1248   1.692   0.986   0.214 -0.1412  1.6601 -2.0437
  417SOL     OW 1249   0.256   0.779   1.009  0.4726  0.0237 -0.4895
  417SOL    HW1 1250   0.214   0.827   1.088  3.7537 -1.8816  0.1987
  417SOL    HW2 1251   0.305   0.842   0.944  0.6923 -0.7954  1.5743
  418SOL     OW 1252   2.239   1.208   2.633 -0.1609  0.2460  0.3181
  418SOL    HW1 1253   2.141   1.179   2.644 -0.1209 -1.6947 -0.4341
  418SOL    HW2 1254   2.293   1.177   2.718  2.2301 -1.4912  1.4696
  419SOL     OW 1255   0.328   0.431   0.437 -0.3760 -0.6504 -0.2405
  419SOL    HW1 1256   0.360   0.505   0.504  0.6610  0.5365  3.1528
  419SOL    HW2 1257   0.400   0.362   0.406 -1.6823 -1.9036 -0.7059
  420SOL     OW 1258   0.418   1.481   0.709  0.1862 -0.3726 -0.1530
  420SOL    HW1 1259   0.490   1.497   0.781 -0.2969  1.0675  1.0404
  420SOL    HW2 1260   0.329   1.498   0.756 -2.0113  0.3635  3.0919
  421SOL     OW 1261   0.375   2.126   0.454  0.5024  0.5906 -0.0628
  421SOL    HW1 1262   0.401   2.103   0.549 -0.5958  0.7727  0.4482
  421SOL    HW2 1263   0.416   2.064   0.383  1.6943  0.5031 -1.7872
  422SOL     OW 1264   2.639   0.435   1.406  0.1542  0.0330 -0.0043
  422SOL    HW1 1265   2.691   0.515   1.371 -0.3389 -0.2010 -2.5276
  422SOL    HW2 1266   2.682   0.346   1.370  0.9216 -1.2455  1.5702
  423SOL     OW 1267   1.815   1.574   0.926 -0.3845 -0.6169  0.3358
  423SOL    HW1 1268   1.737   1.579   0.986  0.8693 -1.2787 -1.9218
  423SOL    HW2 1269   1.834   1.476   0.901 -0.6149  1.6260 -0.2907
  424SOL     OW 1270   1.867   1.106   0.454 -0.4213  0.0798  0.4916
  424SOL    HW1 1271   1.948   1.156   0.422 -1.3872  0.7563 -1.9593
  424SOL    HW2 1272   1.822   1.166   0.522 -0.1333 -2.1829 -1.4609
  425SOL     OW 1273   0.102   2.885   2.019  0.3750 -0.3748 -0.3819
  425SOL    HW1 1274   0.127   2.897   2.117 -3.1327  0.3897 -0.2855
  425SOL    HW2 1275   0.016   2.933   1.996  0.9732 -0.5331 -2.4483
  426SOL     OW 1276   2.514   2.682   2.962 -0.2259 -0.2901  0.3934
  426SOL    HW1 1277   2.567   2.639   3.037  2.6355  0.1573  1.9825
  426SOL    HW2 1278   2.581   2.706   2.889 -0.8172 -1.4205 -0.0547
  427SOL     OW 1279   0.859   0.736   2.320 -0.1687 -0.0148  0.2536
  427SOL    HW1 1280   0.846   0.715   2.416  1.2019 -2.0389 -2.0849
  427SOL    HW2 1281   0.913   0.818   2.302  1.8090 -2.7290 -0.6904
  428SOL     OW 1282   2.113   0.680   2.431 -0.1086 -0.0177 -0.8097
  428SOL    HW1 1283   2.146   0.715   2.339  2.5083 -0.6824 -0.9659
  428SOL    HW2 1284   2.010   0.676   2.444  1.5526  2.1212  1.8936
  429SOL     OW 1285   2.455   0.159   0.596  0.1612 -0.0415 -0.2325
  429SOL    HW1 1286   2.554   0.130   0.597  1.8431 -1.3555  0.3942
  429SOL    HW2 1287   2.438   0.233   0.533  2.4055 -0.7250  2.2599
  430SOL     OW 1288   1.861   1.240   2.112  0.3115  0.5624 -0.3383
  430SOL    HW1 1289   1.927   1.186   2.165  1.2603 -2.3051  0.5913
  430SOL    HW2 1290   1.836   1.191   2.026  1.0576 -0.1956 -0.2976
  431SOL     OW 1291   2.954   2.219   1.220  0.1317 -0.6453 -0.1615
  431SOL    HW1 1292   3.012   2.291   1.261 -0.0645 -0.9452 -0.4673
  431SOL    HW2 1293   2.856   2.237   1.241 -0.8759  1.6683  2.2209
  432SOL     OW 1294   1.652   2.886   2.519  0.0488  0.0580 -0.0020
  432SOL    HW1 1295   1.730   2.890   2.457  0.4926 -0.6715  0.4848
  432SOL    HW2 1296   1.570   2.843   2.476 -0.5323  0.9421 -0.5350
  433SOL     OW 1297   1.616   3.073   1.393  0.2183 -0.2358  0.1370
  433SOL    HW1 1298   1.613   3.032   1.298 -2.4640 -2.6941 -0.0095
  433SOL    HW2 1299   1.640   3.004   1.468  2.2704  1.4001  2.0768
  434SOL     OW 1300   3.073   2.470   2.135  0.2196 -0.6299  0.1680
  434SOL    HW1 1301   0.043   2.537   2.078  0.8244  2.6483 -0.6053
  434SOL    HW2 1302   3.019   2.405   2.072 -1.3951  0.9294 -3.8139
  435SOL     OW 1303   0.034   1.864   0.397  0.4560  0.2428 -0.2355
  435SOL    HW1 1304   0.119   1.820   0.431 -2.1901  0.3068 -1.5127
  435SOL    HW2 1305   0.054   1.860   0.297 -0.5274 -2.2759 -0.8784
  436SOL     OW 1306   0.741   1.209   1.638  0.2669  0.5121  0.1728
  436SOL    HW1 1307   0.826   1.164   1.602  3.8404 -1.0692  0.7820
  436SOL    HW2 1308   0.767   1.303   1.671  2.6154 -1.2454 -0.9319
  437SOL     OW 1309   0.619   0.484   3.005 -0.7178  0.1545 -0.4031
  437SOL    HW1 1310   0.700   0.535   3.046 -0.0964  1.7263  1.7403
  437SOL    HW2 1311   0.566   0.434   3.076  1.2382 -2.5721  0.8186
  438SOL     OW 1312   0.877   1.831   1.630 -0.4720  0.0839  0.3196
  438SOL    HW1 1313   0.832   1.833   1.539  0.6723 -0.8534 -1.0329
  438SOL    HW2 1314   0.962   1.779   1.614  1.0443 -2.3668  1.1471
  439SOL     OW 1315   1.909   1.270   2.944  0.2949  0.1836  0.3322
  439SOL    HW1 1316   1.979   1.245   3.016  1.9356 -0.8213  1.3123
  439SOL    HW2 1317   1.818   1.225   2.969 -0.8217  1.7472  1.7274
  440SOL     OW 1318   1.129   0.686   0.339  0.0400 -0.3064  0.0116
  440SOL    HW1 1319   1.156   0.782   0.322 -1.1518 -1.2272 -1.4987
  440SOL    HW2 1320   1.161   0.632   0.261 -1.3256 -2.4606  0.2020
  441SOL     OW 1321   0.415   2.776   1.616 -0.7344 -0.3454 -0.5530
  441SOL    HW1 1322   0.512   2.743   1.598 -1.1480 -2.5742 -0.2170
  441SOL    HW2 1323   0.406   2.866   1.663  2.5468 -0.6659  0.5482
  442SOL     OW 1324   2.252   2.502   1.012 -0.3744  0.9434  0.3972
  442SOL    HW1 1325   2.165   2.451   1.034  1.2373  1.8506 -3.3599
  442SOL    HW2 1326   2.231   2.589   0.961  1.1053  0.3331  0.3940
  443SOL     OW 1327   2.572   1.338   2.731  0.3741 -0.4173 -0.6235
  443SOL    HW1 1328   2.560   1.239   2.722  1.1486  1.1418 -2.6695
  443SOL    HW2 1329   2.555   1.386   2.642 -2.3937 -2.1420 -0.6664
  444SOL     OW 1330   1.302   0.649   2.540  0.1247 -0.2533  0.6360
  444SOL    HW1 1331   1.387   0.597   2.575  2.3981 -2.6857 -0.8800
  444SOL    HW2 1332   1.322   0.732   2.479  1.9372  0.8133 -0.9684
  445SOL     OW 1333   2.476   2.675   1.660 -0.0997 -0.1521 -0.5796
  445SOL    HW1 1334   2.552   2.665   1.587  0.3494  1.9857 -0.6710
  445SOL    HW2 1335   2.473   2.606   1.737  2.0400 -0.9256  3.5237
  446SOL     OW 1336   2.667   1.819   0.319  0.3008  0.3909  0.4230
  446SOL    HW1 1337   2.707   1.856   0.232 -0.0372 -1.3309  0.8548
  446SOL    HW2 1338   2.741   1.829   0.391  2.4753 -0.1829  0.5406
  447SOL     OW 1339   1.210   2.627   1.403 -1.1966  1.0193 -0.6403
  447SOL    HW1 1340   1.279   2.672   1.337  2.9649  0.4862 -1.3184
  447SOL    HW2 1341   1.208   2.685   1.487  1.8153  2.3865  0.5753
  448SOL     OW 1342   1.635   1.551   2.099  0.2305  0.0012 -0.0363
  448SOL    HW1 1343   1.607   1.648   2.125  1.2412  0.9701  0.1731
  448SOL    HW2 1344   1.680   1.503   2.179 -1.8775 -1.4455  0.3779
  449SOL     OW 1345   0.146   1.949   2.236 -0.4504 -0.2541 -0.3203
  449SOL    HW1 1346   0.182   2.021   2.303 -1.8601  1.2876  2.3097
  449SOL    HW2 1347   0.226   1.897   2.198  2.0027 -1.4869  1.7126
  450SOL     OW 1348   2.869   1.493   2.505  0.2698  0.7776 -0.2276
  450SOL    HW1 1349   2.857   1.396   2.483 -1.8857 -1.0178 -0.7717
  450SOL    HW2 1350   2.800   1.524   2.572 -0.0363  0.7451 -2.2165
  451SOL     OW 1351   2.417   0.738   1.335  0.4952 -0.0261 -0.7412
  451SOL    HW1 1352   2.414   0.678   1.416  1.3280 -0.0748  2.9241
  451SOL    HW2 1353   2.495   0.808   1.338 -0.1546  3.0713 -0.8155
  452SOL     OW 1354   0.942   2.073   1.342 -0.1601 -0.2964  0.3701
  452SOL    HW1 1355   1.005   2.106   1.413 -2.7774  2.8114 -0.8656
  452SOL    HW2 1356   0.898   2.151   1.294 -1.4381  0.6924 -1.2004
  453SOL     OW 1357   1.211   2.139   0.792 -0.3218  0.2843  0.0141
  453SOL    HW1 1358   1.270   2.212   0.835 -1.7273  1.6844  1.5492
  453SOL    HW2 1359   1.166   2.172   0.711  1.4802 -1.6733 -0.8378
  454SOL     OW 1360   0.046   1.185   0.730  0.4064  0.3049 -0.4508
  454SOL    HW1 1361   0.071   1.150   0.825  0.2818  0.8452  1.4935
  454SOL    HW2 1362   0.021   1.286   0.732 -0.7359  1.0367 -0.3886
  455SOL     OW 1363   0.752   0.864   0.495  0.5069  0.2044 -0.0810
  455SOL    HW1 1364   0.699   0.882   0.410 -0.2694 -0.9132 -0.4577
  455SOL    HW2 1365   0.689   0.823   0.561  0.2401  0.0861 -2.1603
  456SOL     OW 1366   2.013   2.401   1.095  0.0357 -0.3684  0.1549
  456SOL    HW1 1367   1.966   2.446   1.175  1.0548  0.7550 -0.4180
  456SOL    HW2 1368   1.962   2.426   1.013 -0.4178 -1.4182 -1.6750
  457SOL     OW 1369   1.448   2.703   2.892  0.6854  0.1452  0.2598
  457SOL    HW1 1370   1.536   2.680   2.933  0.7975  1.2246  0.3023
  457SOL    HW2 1371   1.388   2.723   2.971 -1.0103  0.3783 -0.2278
  458SOL     OW 1372   2.610   3.011   2.925  0.0243 -0.3368  0.1268
  458SOL    HW1 1373   2.586   3.006   3.022 -0.4087 -1.5981 -4.1998
  458SOL    HW2 1374   2.565   3.086   2.874  0.4505  1.4522  0.2877
  459SOL     OW 1375   2.384   0.139   2.124 -0.5735 -0.3210  0.0890
  459SOL    HW1 1376   2.398   0.125   2.225  1.4340 -1.6394 -0.7548
  459SOL    HW2 1377   2.438   0.074   2.070  0.7169  2.0293 -1.0446
  460SOL     OW 1378   2.878   0.834   2.619  0.0755 -0.1385 -0.3259
  460SOL    HW1 1379   2.980   0.855   2.629  0.4825 -3.6607  0.4574
  460SOL    HW2 1380   2.849   0.789   2.711 -0.0104  0.2642  1.1414
  461SOL     OW 1381   2.953   1.883   0.755  0.3681 -0.1565 -0.2934
  461SOL    HW1 1382   3.034   1.942   0.779  1.9374  3.9710  0.1177
  461SOL    HW2 1383   2.923   1.821   0.828 -2.0029  4.3850 -1.1491
  462SOL     OW 1384   0.068   0.178   0.945 -0.3155  0.0202 -0.5041
  462SOL    HW1 1385   0.081   0.114   0.867  1.8880  1.1966  2.6327
  462SOL    HW2 1386   3.074   0.232   0.932  0.7136 -0.1998 -0.2479
  463SOL     OW 1387   2.335   1.362   0.071 -0.0966 -0.2026 -0.4167
  463SOL    HW1 1388   2.351   1.436   0.135  0.9894 -0.6926 -1.8259
  463SOL    HW2 1389   2.364   1.395   3.071  0.2088 -0.3329 -1.0477
  464SOL     OW 1390   0.888   0.030   1.182  0.1906 -0.0821  0.6113
  464SOL    HW1 1391   0.843   3.062   1.255  0.6913 -2.3805  0.2183
  464SOL    HW2 1392   0.900   0.124   1.206  1.3079 -3.4216 -2.2860
  465SOL     OW 1393   1.264   0.348   1.378 -0.3129  0.4226  0.3653
  465SOL    HW1 1394   1.347   0.359   1.436 -2.2296  0.2432 -0.8580
  465SOL    HW2 1395   1.180   0.351   1.431  0.9073 -0.5240 -0.9936
  466SOL     OW 1396   1.697   2.532   1.998 -0.8607  0.5848  0.4830
  466SOL    HW1 1397   1.702   2.601   2.068 -0.6767 -0.1762 -2.5959
  466SOL    HW2 1398   1.609   2.549   1.951  1.0210 -0.6548  5.0549
  467SOL     OW 1399   0.748   2.575   1.802 -0.6562 -0.2677  0.7112
  467SOL    HW1 1400   0.716   2.644   1.874  1.2407  5.9121  2.0767
  467SOL    HW2 1401   0.852   2.573   1.800  1.8710 -1.4001 -1.3667
  468SOL     OW 1402   0.170   1.483   2.112 -0.1590 -1.0512  0.2080
  468SOL    HW1 1403   0.079   1.449   2.149 -2.0188 -0.6678 -1.6020
  468SOL    HW2 1404   0.156   1.572   2.061 -1.7105  0.1728  1.6819
  469SOL     OW 1405   0.922   1.817   0.700  0.1815 -0.4921  0.4190
  469SOL    HW1 1406   0.935   1.876   0.616 -1.3165  0.8316 -3.1537
  469SOL    HW2 1407   0.947   1.870   0.783 -2.9918  1.4623  0.0907
  470SOL     OW 1408   2.040   1.122   2.317  0.2853  0.3743 -0.0591
  470SOL    HW1 1409   2.113   1.141   2.252 -0.2574  0.1581  1.0829
  470SOL    HW2 1410   2.040   1.172   2.402 -2.3820 -2.9429 -0.8052
  471SOL     OW 1411   0.337   2.280   0.070 -0.1857  0.3692 -0.8809
  471SOL    HW1 1412   0.240   2.311   0.076 -0.3495  0.8783  2.9924
  471SOL    HW2 1413   0.400   2.348   0.027 -2.8889  1.4385  1.3815
  472SOL     OW 1414   0.242   2.966   2.258 -0.0377  0.4878  0.2609
  472SOL    HW1 1415   0.268   2.890   2.327 -1.1828  0.1865 -1.3131
  472SOL    HW2 1416   0.320   2.982   2.196 -1.5195 -1.6055  1.1567
  473SOL     OW 1417   0.649   2.654   3.066 -0.2083 -0.0086  0.3616
  473SOL    HW1 1418   0.586   2.704   3.006 -0.2114 -4.4868  4.1377
  473SOL    HW2 1419   0.742   2.666   3.037 -1.5558  0.0067 -1.6963
  474SOL     OW 1420   1.660   0.148   0.728  0.4421  0.1123  0.0423
  474SOL    HW1 1421   1.709   0.183   0.647 -0.0116  0.4040 -1.5988
  474SOL    HW2 1422   1.735   0.130   0.795 -0.0378  0.0244 -1.0096
  475SOL     OW 1423   1.448   0.098   1.573 -0.5678  0.2204  0.0829
  475SOL    HW1 1424   1.360   0.050   1.561  1.8165  0.3075  0.4877
  475SOL    HW2 1425   1.511   0.066   1.497 -0.1613  0.6425 -0.4745
  476SOL     OW 1426   0.420   1.151   1.196 -0.1732 -0.1258  0.4530
  476SOL    HW1 1427   0.343   1.086   1.190  1.7355  0.4658  0.9438
  476SOL    HW2 1428   0.489   1.128   1.124 -0.3838 -2.7612 -0.0765
  477SOL     OW 1429   0.428   1.807   0.676  0.1850  0.4298 -0.0809
  477SOL    HW1 1430   0.516   1.747   0.689  2.3622  0.1976 -3.3693
  477SOL    HW2 1431   0.441   1.901   0.706 -2.1241 -1.8302  0.1825
  478SOL     OW 1432   0.169   2.529   2.459 -0.9872 -0.0778 -0.0382
  478SOL    HW1 1433   0.104   2.545   2.541 -0.2837  0.6530  0.5214
  478SOL    HW2 1434   0.145   2.441   2.407 -1.6290 -0.2805 -2.8164
  479SOL     OW 1435   3.088   0.457   1.275  0.1153 -0.6107  0.2403
  479SOL    HW1 1436   3.048   0.552   1.278 -0.6939  2.3021  0.2289
  479SOL    HW2 1437   0.095   0.457   1.245 -0.2065 -0.6820  0.1007
  480SOL     OW 1438   2.599   2.311   0.032 -0.2044  0.1984 -0.4304
  480SOL    HW1 1439   2.616   2.263   0.120  0.5902 -1.6931  0.0230
  480SOL    HW2 1440   2.621   2.410   0.049  1.4619  0.2243  0.6824
  481SOL     OW 1441   2.300   1.803   1.708  0.0473  0.1178 -0.0847
  481SOL    HW1 1442   2.347   1.849   1.630 -2.5854  1.1415 -1.5833
  481SOL    HW2 1443   2.244   1.873   1.755 -1.7667 -2.8881 -1.7998
  482SOL     OW 1444   1.857   1.712   2.337  0.3995 -0.0614  0.2266
  482SOL    HW1 1445   1.848   1.614   2.316 -1.0759  1.1497 -0.3031
  482SOL    HW2 1446   1.768   1.743   2.377 -0.8225  0.3757  1.7047
  483SOL     OW 1447   0.889   1.402   1.787  0.0968  0.2871  0.5193
  483SOL    HW1 1448   0.975   1.395   1.734  0.5587  0.1608  1.1255
  483SOL    HW2 1449   0.875   1.319   1.843 -1.3418 -0.3227  2.1309
  484SOL     OW 1450   0.315   0.497   1.429  0.1652  0.5823 -0.6536
  484SOL    HW1 1451   0.314   0.396   1.453 -1.0872 -0.6199  1.6276
  484SOL    HW2 1452   0.285   0.514   1.331  1.8636 -0.3784  4.3139
  485SOL     OW 1453   2.447   1.093   0.055 -0.2725  0.1802  0.2668
  485SOL    HW1 1454   2.549   1.079   0.062  2.8641 -0.0979 -1.5808
  485SOL    HW2 1455   2.408   1.187   0.062 -1.6323 -1.2829 -0.0929
  486SOL     OW 1456   1.554   0.016   1.820 -0.1881  0.1395 -0.0399
  486SOL    HW1 1457   1.521   0.033   1.728 -0.1634 -1.7848  3.1050
  486SOL    HW2 1458   1.642   0.064   1.841 -0.7903  1.1748  1.4357
  487SOL     OW 1459   0.898   2.264   1.691  0.4032 -1.2538 -0.4474
  487SOL    HW1 1460   0.815   2.209   1.659 -1.7789  0.3456 -0.9740
  487SOL    HW2 1461   0.923   2.231   1.786  0.5654  1.7814 -0.5236
  488SOL     OW 1462   2.374   1.440   2.906  0.2853  0.0354  0.0936
  488SOL    HW1 1463   2.429   1.394   2.833 -1.3194 -1.4544  3.8616
  488SOL    HW2 1464   2.298   1.499   2.872  1.1504 -0.1250  1.8483
  489SOL     OW 1465   1.929   2.786   0.654 -0.3037  0.0920  0.0141
  489SOL    HW1 1466   1.888   2.789   0.560 -1.6371 -1.0048 -0.5474
  489SOL    HW2 1467   1.990   2.868   0.671 -0.6544 -0.5887  1.9490
  490SOL     OW 1468   0.582   2.149   2.919  0.9044  0.3720 -0.4324
  490SOL    HW1 1469   0.536   2.146   2.827 -2.5936 -2.2400  2.2290
  490SOL    HW2 1470   0.584   2.238   2.973 -0.9110  3.6399 -0.1001
  491SOL     OW 1471   0.897   1.402   1.281 -0.2316 -0.3841  0.0424
  491SOL    HW1 1472   0.877   1.446   1.370 -0.1628 -0.6394  1.9038
  491SOL    HW2 1473   0.998   1.397   1.262 -0.9132  0.1469 -0.1243
  492SOL     OW 1474   1.094   0.616   2.016  0.0031  0.0651 -0.1722
  492SOL    HW1 1475   1.111   0.600   2.115  3.2662  0.2692 -1.8416
  492SOL    HW2 1476   1.092   0.716   1.995  0.5822 -0.3504  0.1621
  493SOL     OW 1477   2.038   2.072   0.719  0.0086  0.2767 -0.3418
  493SOL    HW1 1478   2.058   1.996   0.789  0.7682 -1.3612  2.7070
  493SOL    HW2 1479   1.942   2.053   0.681 -0.9914 -1.3448 -0.4488
  494SOL     OW 1480   0.844   1.385   0.875 -1.0405  0.4206  0.0673
  494SOL    HW1 1481   0.826   1.370   0.774 -4.2373  1.4872 -0.9413
  494SOL    HW2 1482   0.777   1.452   0.913  1.2870  0.3239  1.5572
  495SOL     OW 1483   2.394   2.451   0.577  0.4741 -0.0325  0.0944
  495SOL    HW1 1484   2.295   2.437   0.549 -2.0214 -1.2565  0.2754
  495SOL    HW2 1485   2.412   2.403   0.665 -1.4119 -0.4406  1.0088
  496SOL     OW 1486   2.765   0.195   1.314 -0.0665  0.5361  0.6273
  496SOL    HW1 1487   2.688   0.135   1.288  0.0429 -0.0961  0.4133
  496SOL    HW2 1488   2.832   0.144   1.372  0.9287  0.5045 -2.1509
  497SOL     OW 1489   2.360   1.014   2.418  0.7441 -0.5098 -0.4022
  497SOL    HW1 1490   2.417   1.069   2.355 -1.7628 -0.6652 -0.3778
  497SOL    HW2 1491   2.308   1.068   2.485 -1.2172  0.4021  0.8648
  498SOL     OW 1492   0.358   2.164   1.241  0.2447 -0.3144  0.5185
  498SOL    HW1 1493   0.261   2.164   1.228 -0.3560 -1.0991 -0.2351
  498SOL    HW2 1494   0.411   2.124   1.164  1.3534 -2.1557  1.2194
  499SOL     OW 1495   1.469   2.571   1.875  0.2457  0.7972  0.4867
  499SOL    HW1 1496   1.470   2.674   1.880 -3.0633  1.1980 -0.6594
  499SOL    HW2 1497   1.426   2.533   1.792 -0.7004  1.8411  1.9535
  500SOL     OW 1498   0.501   1.977   0.276  0.3309 -0.8875  0.3737
  500SOL    HW1 1499   0.577   1.994   0.213  0.6118 -1.6785  1.5837
  500SOL    HW2 1500   0.523   1.899   0.335 -0.9690  1.1497  0.3705
  501SOL     OW 1501   1.960   0.170   1.194 -0.1500  0.7040  0.8763
  501SOL    HW1 1502   2.033   0.116   1.148 -0.1227 -1.1005 -0.5103
  501SOL    HW2 1503   1.970   0.143   1.288  0.2288  3.0401  0.3191
  502SOL     OW 1504   2.845   0.426   1.651 -0.6652  0.9136  0.3937
  502SOL    HW1 1505   2.931   0.387   1.616  0.8697  1.3422 -1.4516
  502SOL    HW2 1506   2.856   0.427   1.752  0.6220 -1.5164  2.7121
  503SOL     OW 1507   2.503   1.152   1.845 -0.1593  0.1305  0.0173
  503SOL    HW1 1508   2.441   1.220   1.887 -0.0674  3.0496  0.0797
  503SOL    HW2 1509   2.554   1.096   1.913  0.1197  1.0925  0.6028
  504SOL     OW 1510   1.582   1.000   1.814  0.5206  0.3660  0.0928
  504SOL    HW1 1511   1.571   0.901   1.842 -1.9272 -0.8154  0.5784
  504SOL    HW2 1512   1.514   1.018   1.742  0.5155 -1.4866 -1.6929
  505SOL     OW 1513   0.789   3.037   1.659  0.2179 -0.3741  0.5251
  505SOL    HW1 1514   0.773   2.984   1.573  1.5730  1.6799 -0.6073
  505SOL    HW2 1515   0.875   3.017   1.709  0.0682 -1.2271  0.5440
  506SOL     OW 1516   0.144   0.347   0.621 -0.2077 -1.0919  0.0767
  506SOL    HW1 1517   0.213   0.375   0.545  2.7998  0.8911 -0.6881
  506SOL    HW2 1518   0.177   0.389   0.706 -1.7363 -1.0754  3.6017
  507SOL     OW 1519   2.609   0.702   0.066 -0.7385  0.4420 -0.0634
  507SOL    HW1 1520   2.663   0.617   0.082  3.1898  0.9844  1.6326
  507SOL    HW2 1521   2.531   0.697   0.000 -1.1322  3.2064  2.0897
  508SOL     OW 1522   1.704   0.407   1.835  0.2211 -0.0400 -0.4174
  508SOL    HW1 1523   1.644   0.391   1.752 -0.1543 -1.7374 -1.0643
  508SOL    HW2 1524   1.660   0.463   1.905  0.7703 -1.5862  0.3897
  509SOL     OW 1525   1.621   1.721   1.456  0.0135 -0.6776 -0.4981
  509SOL    HW1 1526   1.652   1.642   1.512 -0.1020  0.1202 -1.9458
  509SOL    HW2 1527   1.518   1.731   1.464 -0.9296  1.1492 -1.1655
  510SOL     OW 1528   2.613   1.238   1.251  0.2182 -0.0881 -0.1672
  510SOL    HW1 1529   2.513   1.256   1.239 -0.4201 -2.1811  0.0608
  510SOL    HW2 1530   2.639   1.187   1.171  1.3437  3.9794  1.6569
  511SOL     OW 1531   1.668   2.073   1.204  0.4092 -0.3911  0.3422
  511SOL    HW1 1532   1.729   1.997   1.232  0.3689  0.8195 -0.6839
  511SOL    HW2 1533   1.703   2.161   1.247  0.4426  0.0429 -1.1764
  512SOL     OW 1534   0.079   1.540   0.420 -0.2866  0.0369  0.4189
  512SOL    HW1 1535   0.131   1.458   0.387  1.9242  1.4683  1.3403
  512SOL    HW2 1536   0.155   1.603   0.448 -0.5275 -2.1276 -0.5357
  513SOL     OW 1537   3.000   2.074   0.086  0.1076 -0.1748  0.6388
  513SOL    HW1 1538   2.989   2.111   3.075 -1.1010  0.9328 -1.5949
  513SOL    HW2 1539   3.052   1.987   0.092  0.4978 -1.2001  0.0873
  514SOL     OW 1540   2.641   2.056   2.220  0.0585  0.0292 -0.2347
  514SOL    HW1 1541   2.657   2.091   2.310 -0.9627 -1.5832 -1.6237
  514SOL    HW2 1542   2.641   1.959   2.226 -0.0111  2.0905 -1.9431
  515SOL     OW 1543   2.049   1.176   1.024  0.1303 -0.1007  0.4309
  515SOL    HW1 1544   1.951   1.203   0.995 -3.4770 -3.0493 -0.1623
  515SOL    HW2 1545   2.082   1.105   0.958 -0.7309 -3.5887  2.7064
  516SOL     OW 1546   1.887   2.686   0.158  0.3954  0.0290  0.1362
  516SOL    HW1 1547   1.862   2.653   0.065 -2.1911  0.8789  0.6787
  516SOL    HW2 1548   1.799   2.705   0.209 -0.1581 -2.5779 -1.3370
  517SOL     OW 1549   0.748   1.886   2.486 -0.2921 -0.0699 -0.2659
  517SOL    HW1 1550   0.825   1.844   2.435 -2.9052  0.6124 -0.1864
  517SOL    HW2 1551   0.691   1.938   2.418 -0.3472  0.1249 -0.8511
  518SOL     OW 1552   0.422   0.399   2.095  0.4919 -0.4579  0.5527
  518SOL    HW1 1553   0.517   0.386   2.131  0.1310  0.0605 -1.1553
  518SOL    HW2 1554   0.414   0.495   2.066  1.1352 -1.8821 -0.2380
  519SOL     OW 1555   0.170   1.311   0.336  0.2323 -0.6868  0.5449
  519SOL    HW1 1556   0.144   1.221   0.380  1.7044  1.3167 -1.7329
  519SOL    HW2 1557   0.271   1.313   0.324  0.0906 -2.1864  0.2727
  520SOL     OW 1558   2.623   1.684   1.686  0.2855 -0.4662 -0.0963
  520SOL    HW1 1559   2.617   1.712   1.786 -0.6093 -1.4043  0.5561
  520SOL    HW2 1560   2.571   1.759   1.641 -0.8474  0.3242  1.4977
  521SOL     OW 1561   0.560   2.492   2.511 -0.7092  0.0520  0.2121
  521SOL    HW1 1562   0.579   2.396   2.483 -0.2454 -1.5541 -1.1664
  521SOL    HW2 1563   0.523   2.542   2.429  0.3047  1.4860 -2.9183
  522SOL     OW 1564   1.855   0.148   2.162  0.0836 -0.2357  0.2063
  522SOL    HW1 1565   1.948   0.141   2.124 -1.4077 -2.7739 -0.4824
  522SOL    HW2 1566   1.860   0.146   2.267 -2.2042  1.5673  1.5334
  523SOL     OW 1567   1.963   1.882   1.894 -0.4617 -0.0148  0.1990
  523SOL    HW1 1568   2.035   1.949   1.862  1.3682 -1.9145  0.9272
  523SOL    HW2 1569   2.003   1.800   1.949  1.5785 -1.0003  0.7599
  524SOL     OW 1570   0.827   3.080   0.263  0.5145  0.4919  0.2951
  524SOL    HW1 1571   0.836   2.983   0.231 -0.7739  0.4241  2.9099
  524SOL    HW2 1572   0.910   0.046   0.244  0.5101  0.4371  0.5039
  525SOL     OW 1573   0.156   0.365   0.221  0.5671 -0.2453  0.4345
  525SOL    HW1 1574   0.073   0.336   0.271 -1.0184 -0.4063 -1.0706
  525SOL    HW2 1575   0.225   0.399   0.292 -0.4469 -2.6979 -2.7034
  526SOL     OW 1576   0.798   2.744   0.676 -0.2497 -0.0416  0.4243
  526SOL    HW1 1577   0.839   2.746   0.772 -2.4529 -0.7932 -0.0155
  526SOL    HW2 1578   0.711   2.797   0.672 -2.8104  2.6574 -2.1301
  527SOL     OW 1579   2.193   1.787   0.874 -0.0997 -0.0941  0.3530
  527SOL    HW1 1580   2.094   1.805   0.844 -1.0903  3.5655  2.1265
  527SOL    HW2 1581   2.199   1.719   0.947  0.6837  0.9829 -3.1437
  528SOL     OW 1582   0.001   2.873   2.500  0.3544 -0.2822  0.2254
  528SOL    HW1 1583   0.049   2.862   2.409  0.1618 -0.3293  0.0936
  528SOL    HW2 1584   0.031   2.796   2.562  2.4196  1.1624 -0.3370
  529SOL     OW 1585   0.976   1.767   2.400 -0.1097 -0.5111  0.0369
  529SOL    HW1 1586   1.044   1.835   2.367 -1.9020  0.7199  0.7697
  529SOL    HW2 1587   1.009   1.711   2.480  1.3943 -1.3988  1.1636
  530SOL     OW 1588   1.432   1.240   2.890 -0.2133  0.3567 -0.2447
  530SOL    HW1 1589   1.398   1.326   2.850 -0.8071  2.8174  0.1079
  530SOL    HW2 1590   1.375   1.204   2.968 -0.0083  0.7176  3.5284
  531SOL     OW 1591   0.662   1.230   2.946  0.1223  0.0575  0.7016
  531SOL    HW1 1592   0.607   1.238   2.859 -1.4548 -1.7455 -0.4857
  531SOL    HW2 1593   0.726   1.152   2.929  0.4765 -0.2320  1.6051
  532SOL     OW 1594   1.657   1.518   0.501  0.3429  0.2239  0.3504
  532SOL    HW1 1595   1.582   1.482   0.561 -0.6670  1.6237  0.8439
  532SOL    HW2 1596   1.675   1.619   0.485  1.9170 -1.7799  0.5567
  533SOL     OW 1597   0.678   0.150   2.406 -0.2881 -0.0848  0.2145
  533SOL    HW1 1598   0.677   0.213   2.323 -0.9894 -0.2994 -1.0323
  533SOL    HW2 1599   0.716   0.197   2.489 -0.7432 -0.3736 -0.2782
  534SOL     OW 1600   0.531   2.420   3.011 -0.2284  0.1007  0.4848
  534SOL    HW1 1601   0.498   2.457   2.920 -0.3799  2.4054 -2.0793
  534SOL    HW2 1602   0.592   2.486   3.063 -0.6932 -3.6588  0.5024
  535SOL     OW 1603   0.173   0.068   0.650  0.3584  0.2130  0.1365
  535SOL    HW1 1604   0.270   0.054   0.671 -0.6370  0.6114  0.2539
  535SOL    HW2 1605   0.158   0.172   0.642  0.3748  2.3007  0.1858
  536SOL     OW 1606   0.133   1.073   2.136 -0.2875 -0.1189  0.2582
  536SOL    HW1 1607   0.128   1.095   2.035 -0.5661 -2.1522 -0.3397
  536SOL    HW2 1608   0.214   1.114   2.173 -0.1523  0.9725  0.5206
  537SOL     OW 1609   1.218   3.036   1.453 -0.1236 -0.0383  0.1064
  537SOL    HW1 1610   1.146   0.013   1.475 -0.3897 -1.3545 -2.0798
  537SOL    HW2 1611   1.230   3.026   1.351  1.1085 -0.8952  1.6444
  538SOL     OW 1612   2.879   1.847   0.496 -0.0419 -0.2576 -0.0618
  538SOL    HW1 1613   2.971   1.833   0.453  1.3811 -0.1446  0.5996
  538SOL    HW2 1614   2.891   1.853   0.594  1.1490  2.0705 -2.2836
  539SOL     OW 1615   2.648   0.995   2.023  0.4387  0.2243  0.0735
  539SOL    HW1 1616   2.725   1.008   1.959 -1.1065  2.1360 -1.8952
  539SOL    HW2 1617   2.632   0.895   2.025 -0.5861 -4.1757 -0.3585
  540SOL     OW 1618   1.667   1.083   2.288  0.1357 -0.2853  0.2397
  540SOL    HW1 1619   1.616   1.113   2.368 -0.0563 -2.0077 -0.5430
  540SOL    HW2 1620   1.710   1.154   2.230 -0.8141 -0.0466  1.0520
  541SOL     OW 1621   0.865   0.865   1.833 -0.0562 -0.3656  0.1946
  541SOL    HW1 1622   0.915   0.880   1.923 -1.8680 -1.0425 -1.3507
  541SOL    HW2 1623   0.782   0.807   1.845  0.3713 -0.4351 -0.9120
  542SOL     OW 1624   1.900   0.141   2.451  0.1980  0.1705 -0.3256
  542SOL    HW1 1625   1.979   0.205   2.453 -0.2750  2.7986  1.5354
  542SOL    HW2 1626   1.927   0.045   2.466 -1.4876  0.5871 -3.1729
  543SOL     OW 1627   1.167   0.343   0.393 -0.4286 -0.0265  0.0471
  543SOL    HW1 1628   1.103   0.375   0.467 -0.6625  0.7084  1.8652
  543SOL    HW2 1629   1.169   0.405   0.311 -0.6603  1.2313 -4.7246
  544SOL     OW 1630   2.623   1.817   1.931 -0.1425  0.2023 -0.2549
  544SOL    HW1 1631   2.634   1.846   2.032 -0.7576  1.1494  2.0431
  544SOL    HW2 1632   2.680   1.873   1.868 -2.1455 -0.1052 -0.4825
  545SOL     OW 1633   2.103   2.486   1.818  0.6253 -0.1505 -0.2211
  545SOL    HW1 1634   2.153   2.436   1.897  0.3575  1.4948  2.2411
  545SOL    HW2 1635   2.006   2.453   1.807 -1.3710  0.6480  1.9400
  546SOL     OW 1636   0.389   0.161   2.884  0.3169  0.2584 -0.4702
  546SOL    HW1 1637   0.445   0.080   2.923  4.5919 -2.3539  2.0003
  546SOL    HW2 1638   0.341   0.212   2.957 -1.5137  0.5600 -0.7642
  547SOL     OW 1639   1.756   0.833   0.559 -0.1478  0.1200  0.1114
  547SOL    HW1 1640   1.657   0.856   0.591 -1.2717 -1.8049  2.6219
  547SOL    HW2 1641   1.802   0.918   0.524 -0.1354 -2.2046 -2.1493
  548SOL     OW 1642   2.278   1.644   2.192 -0.3331 -0.0691  0.3661
  548SOL    HW1 1643   2.331   1.657   2.103  2.3673  5.0086 -2.5587
  548SOL    HW2 1644   2.338   1.635   2.278  2.2560 -0.9033 -0.9297
  549SOL     OW 1645   2.029   0.206   0.648  0.2772 -0.4018 -0.2074
  549SOL    HW1 1646   2.080   0.259   0.575  0.6205 -0.3992 -1.2491
  549SOL    HW2 1647   2.061   0.226   0.741  1.4833  2.0496 -1.0874
  550SOL     OW 1648   2.307   2.104   0.774 -0.1597 -0.0220  0.1115
  550SOL    HW1 1649   2.330   2.083   0.866 -0.7364  1.4623 -1.5603
  550SOL    HW2 1650   2.208   2.131   0.768 -0.5342 -0.0605 -1.4868
  551SOL     OW 1651   1.200   2.806   1.615 -0.3496 -0.0099  0.1271
  551SOL    HW1 1652   1.204   2.900   1.579 -0.4837  3.3915  2.0955
  551SOL    HW2 1653   1.216   2.811   1.714 -0.6052  0.2236 -0.0603
  552SOL     OW 1654   2.725   2.052   2.500 -0.1577 -0.0814  0.3671
  552SOL    HW1 1655   2.745   2.022   2.597  0.9358 -0.5742 -2.7703
  552SOL    HW2 1656   2.820   2.068   2.460  1.7506  0.9061 -1.0040
  553SOL     OW 1657   0.430   0.053   0.828 -0.2416  0.2828  0.1468
  553SOL    HW1 1658   0.455   0.147   0.851  0.1659  2.4168  1.4483
  553SOL    HW2 1659   0.385   0.005   0.901  3.6392  1.2697 -1.7027
  554SOL     OW 1660   2.198   2.287   1.670  0.1257  0.3581  0.3088
  554SOL    HW1 1661   2.164   2.381   1.683 -1.0242 -0.8910  0.7385
  554SOL    HW2 1662   2.284   2.287   1.617 -0.1444  0.5029  0.7905
  555SOL     OW 1663   1.202   2.353   2.019  0.2739  0.2310 -0.0081
  555SOL    HW1 1664   1.260   2.310   1.946  1.7042 -0.8762 -0.0105
  555SOL    HW2 1665   1.190   2.456   2.007 -1.6028  0.6337  1.5018
  556SOL     OW 1666   1.372   1.562   1.676  0.1366 -0.0570 -0.4558
  556SOL    HW1 1667   1.341   1.597   1.583 -2.3216  2.2412 -0.2651
  556SOL    HW2 1668   1.446   1.615   1.719 -0.3124  0.2166  0.3251
  557SOL     OW 1669   1.932   2.301   2.303 -0.1450 -0.9030  0.1426
  557SOL    HW1 1670   1.951   2.239   2.381 -1.9542 -0.6644 -0.3828
  557SOL    HW2 1671   1.828   2.303   2.292 -1.8403 -0.0103 -0.5400
  558SOL     OW 1672   0.658   2.804   1.955 -0.2684  0.4752  0.2334
  558SOL    HW1 1673   0.568   2.856   1.940 -0.4059 -2.1910  2.4990
  558SOL    HW2 1674   0.735   2.871   1.949 -4.7689  1.6584 -0.9669
  559SOL     OW 1675   2.411   2.743   1.111 -0.0671  0.1757  0.0881
  559SOL    HW1 1676   2.369   2.686   1.185  0.2226 -0.5850  1.7339
  559SOL    HW2 1677   2.507   2.770   1.127 -1.5565 -0.1778  0.4228
  560SOL     OW 1678   1.256   2.216   0.400  0.0028  0.2827 -0.0308
  560SOL    HW1 1679   1.237   2.118   0.372 -1.9711 -1.3182 -0.1065
  560SOL    HW2 1680   1.318   2.259   0.330  1.9201 -1.5232  0.2672
  561SOL     OW 1681   1.032   0.787   0.059 -0.6605 -0.8259 -0.6338
  561SOL    HW1 1682   0.992   0.701   0.084  2.8401  3.2098 -2.0662
  561SOL    HW2 1683   1.043   0.858   0.133  0.5360  4.5301  1.1807
  562SOL     OW 1684   0.786   0.254   2.647  0.0154 -0.1309  0.2011
  562SOL    HW1 1685   0.722   0.251   2.728 -1.5923  0.9754  1.9198
  562SOL    HW2 1686   0.865   0.193   2.671 -1.6724 -0.0187 -1.4088
  563SOL     OW 1687   1.311   1.838   2.763  0.4035 -0.4422  0.6587
  563SOL    HW1 1688   1.390   1.835   2.828 -1.0634 -0.1668  0.7798
  563SOL    HW2 1689   1.319   1.908   2.693 -1.4169  1.0127 -0.3543
  564SOL     OW 1690   2.380   1.077   1.026 -0.1303  0.3896  0.0498
  564SOL    HW1 1691   2.477   1.078   0.993  1.8623 -1.2270  0.6219
  564SOL    HW2 1692   2.314   1.054   0.953  2.1635 -1.9130  2.7847
  565SOL     OW 1693   1.008   0.099   2.694 -0.7847  0.2732 -0.4160
  565SOL    HW1 1694   1.001   0.067   2.792 -1.2473  0.7764 -0.4963
  565SOL    HW2 1695   1.087   0.164   2.687 -1.3461 -0.1643  2.0978
  566SOL     OW 1696   1.648   0.090   2.537 -0.0567  0.4683  0.0388
  566SOL    HW1 1697   1.652   3.077   2.549  0.3686  0.8452 -0.9556
  566SOL    HW2 1698   1.743   0.117   2.509  1.9514  0.0686 -0.6328
  567SOL     OW 1699   2.076   1.401   0.642  0.5108 -0.2423 -0.0568
  567SOL    HW1 1700   2.113   1.384   0.733  0.2007  3.5442 -2.0001
  567SOL    HW2 1701   2.110   1.479   0.592  3.2794  3.5381 -3.0741
  568SOL     OW 1702   1.821   1.980   0.417  0.6842  0.8110 -0.2663
  568SOL    HW1 1703   1.884   2.033   0.363 -1.1115  1.6830  0.5958
  568SOL    HW2 1704   1.782   2.040   0.491 -0.1385  3.5591  0.9811
  569SOL     OW 1705   2.090   1.220   0.068  0.0200 -0.1540 -0.3012
  569SOL    HW1 1706   2.082   1.128   0.114  0.0198  1.2340  1.3961
  569SOL    HW2 1707   2.180   1.268   0.089 -1.5859  0.9627 -0.0119
  570SOL     OW 1708   0.062   2.425   1.535  0.0872  0.6425  0.2182
  570SOL    HW1 1709   0.008   2.505   1.500  0.1624  0.0072 -0.1839
  570SOL    HW2 1710   0.154   2.454   1.571  0.2459  0.4553 -0.0114
  571SOL     OW 1711   0.135   0.663   2.123  0.0647  0.0255 -0.0463
  571SOL    HW1 1712   0.228   0.694   2.104 -0.4103 -0.1220  1.4229
  571SOL    HW2 1713   0.088   0.727   2.192 -0.8484  0.6051 -1.4332
  572SOL     OW 1714   1.078   1.527   0.930  0.0698  0.3052  0.0681
  572SOL    HW1 1715   0.982   1.491   0.929  1.9469 -1.1259 -1.7894
  572SOL    HW2 1716   1.102   1.576   0.842 -1.6476  2.6978  0.0462
  573SOL     OW 1717   1.102   1.923   3.071 -0.4997 -0.7045  0.2170
  573SOL    HW1 1718   1.065   1.895   2.984  0.3601  0.9666  2.3269
  573SOL    HW2 1719   1.173   1.861   0.025  2.3646  2.3671  0.1765
  574SOL     OW 1720   1.093   3.078   0.589  0.2342  0.1493 -0.0384
  574SOL    HW1 1721   1.010   0.005   0.536  0.1688 -0.9299 -1.2571
  574SOL    HW2 1722   1.083   3.075   0.691 -1.6443  1.3623  2.7592
  575SOL     OW 1723   0.215   1.158   1.587 -0.3331  0.1599 -0.1478
  575SOL    HW1 1724   0.317   1.177   1.588  3.7857  1.0164  2.3387
  575SOL    HW2 1725   0.162   1.240   1.566  1.0137 -4.7261  0.7498
  576SOL     OW 1726   1.987   0.051   1.437 -0.1577 -0.1345 -0.3863
  576SOL    HW1 1727   1.990   3.042   1.410 -1.5744 -2.2731  2.0518
  576SOL    HW2 1728   1.975   0.074   1.535 -0.0266 -0.1858  1.4441
  577SOL     OW 1729   0.618   1.014   1.783  0.0953 -0.3190 -0.0496
  577SOL    HW1 1730   0.651   0.969   1.866 -0.2508 -1.7428 -2.7610
  577SOL    HW2 1731   0.687   1.075   1.742  0.7754  1.2124  0.0322
  578SOL     OW 1732   2.179   0.460   2.621 -0.4510 -0.1096 -0.0924
  578SOL    HW1 1733   2.112   0.446   2.696 -2.9010  0.8758  1.5460
  578SOL    HW2 1734   2.179   0.561   2.589  0.1154  2.6236 -1.1864
  579SOL     OW 1735   2.551   2.247   1.561 -0.8138  0.0709  0.5849
  579SOL    HW1 1736   2.539   2.268   1.660  1.3792  0.4098  1.7050
  579SOL    HW2 1737   2.473   2.195   1.522  1.4140 -0.1645 -1.0398
  580SOL     OW 1738   1.979   1.163   2.630 -0.4216 -0.0164  0.6608
  580SOL    HW1 1739   1.951   1.175   2.727 -2.2974 -0.9059  0.0061
  580SOL    HW2 1740   1.959   1.067   2.595  0.7952 -1.0128  0.0168
  581SOL     OW 1741   1.277   1.139   0.013 -0.0901 -0.2180 -0.5660
  581SOL    HW1 1742   1.183   1.161   0.002  2.4475  1.7212 -1.6554
  581SOL    HW2 1743   1.295   1.043   0.021 -0.6082  4.8478 -1.9270
  582SOL     OW 1744   1.132   1.397   1.631 -0.0676 -0.1272  0.3179
  582SOL    HW1 1745   1.138   1.394   1.531 -1.7422  1.6381 -1.6172
  582SOL    HW2 1746   1.219   1.424   1.675 -0.5156 -0.8288 -2.6743
  583SOL     OW 1747   1.743   1.272   1.371 -0.9434  0.3927 -0.1371
  583SOL    HW1 1748   1.679   1.234   1.305  1.3117  1.4501  1.1335
  583SOL    HW2 1749   1.840   1.259   1.346 -2.6860 -0.3340  0.9046
  584SOL     OW 1750   1.663   2.583   0.627  0.2109  0.5429  0.1381
  584SOL    HW1 1751   1.578   2.531   0.652  0.7085  1.8282 -2.5214
  584SOL    HW2 1752   1.750   2.547   0.666 -2.5237  1.6719  2.1266
  585SOL     OW 1753   1.972   2.660   2.868 -0.3737  0.9193 -0.2061
  585SOL    HW1 1754   2.014   2.646   2.777 -2.6261 -0.3828  0.8054
  585SOL    HW2 1755   2.039   2.665   2.949  0.7754 -1.5727  1.6925
  586SOL     OW 1756   2.696   2.325   1.057 -0.0769  0.0777 -0.7121
  586SOL    HW1 1757   2.645   2.376   0.996  1.7366 -2.0957  5.8740
  586SOL    HW2 1758   2.645   2.239   1.082  0.0959 -3.0895  0.6658
  587SOL     OW 1759   0.944   1.676   0.095  0.1448  0.1435  0.4215
  587SOL    HW1 1760   0.929   1.766   0.047 -1.3853  1.5355  0.6424
  587SOL    HW2 1761   1.046   1.657   0.087 -4.5371 -2.6282 -0.7934
  588SOL     OW 1762   0.746   0.030   0.947  0.5668 -0.4571  0.2166
  588SOL    HW1 1763   0.790   0.052   1.041 -1.4868  2.6746 -0.2183
  588SOL    HW2 1764   0.798   0.066   0.873 -0.3042 -1.7983  1.0726
  589SOL     OW 1765   1.262   0.749   0.581  0.8787 -0.2070  0.2782
  589SOL    HW1 1766   1.212   0.708   0.498 -3.8298 -1.6807 -2.2989
  589SOL    HW2 1767   1.192   0.765   0.650  0.1813  0.8583 -4.2047
  590SOL     OW 1768   1.600   2.923   2.934 -0.4965 -0.5133 -1.0101
  590SOL    HW1 1769   1.697   2.915   2.893  2.7054 -0.3097  0.2941
  590SOL    HW2 1770   1.534   2.874   2.877  0.3628 -0.5435  1.3044
  591SOL     OW 1771   0.103   2.296   2.329 -0.0034  0.2909  0.4918
  591SOL    HW1 1772   0.189   2.273   2.281 -0.7798  3.0297 -1.4807
  591SOL    HW2 1773   0.049   2.347   2.262 -0.6749  1.4851  0.9288
  592SOL     OW 1774   2.797   1.588   2.106  0.4041  0.2007 -0.0043
  592SOL    HW1 1775   2.752   1.539   2.025 -0.0876 -0.6411  1.1640
  592SOL    HW2 1776   2.867   1.527   2.141 -0.7533 -0.2543  0.8726
  593SOL     OW 1777   1.698   1.493   1.610 -0.0689 -0.3472  0.3466
  593SOL    HW1 1778   1.730   1.421   1.545 -1.5359  3.1584 -1.2212
  593SOL    HW2 1779   1.709   1.463   1.705 -1.3707 -0.3255  1.8753
  594SOL     OW 1780   2.778   1.335   0.042  0.0596 -0.0591  0.3270
  594SOL    HW1 1781   2.880   1.315   0.045  1.2210  0.1520  2.6106
  594SOL    HW2 1782   2.726   1.245   0.054 -0.4054  1.2658 -1.0021
  595SOL     OW 1783   0.875   0.635   0.404  0.1942 -0.4735  0.2872
  595SOL    HW1 1784   0.830   0.727   0.431 -2.0099  3.6662  1.3535
  595SOL    HW2 1785   0.974   0.647   0.375 -4.1972  0.8585  1.6615
  596SOL     OW 1786   0.043   1.402   1.545  0.2020 -0.6398 -0.0989
  596SOL    HW1 1787   0.001   1.447   1.627 -0.4754  0.7112  2.6680
  596SOL    HW2 1788   0.121   1.447   1.498  1.0001  0.1239 -0.7208
  597SOL     OW 1789   1.021   1.978   0.937  0.4887 -0.7181  0.1743
  597SOL    HW1 1790   1.053   1.937   1.027  1.2343 -1.6084  1.1898
  597SOL    HW2 1791   1.091   2.039   0.890 -0.0248 -1.2904 -1.0041
  598SOL     OW 1792   0.100   3.057   1.591 -0.2421  0.2554 -0.2282
  598SOL    HW1 1793   0.127   2.957   1.587 -2.4219  0.5940  2.1305
  598SOL    HW2 1794   0.092   3.089   1.689 -0.0432  0.9505  3.5828
  599SOL     OW 1795   0.309   1.463   2.586  0.0853 -0.1976  0.1360
  599SOL    HW1 1796   0.295   1.544   2.644  1.7512  1.3310 -0.3354
  599SOL    HW2 1797   0.266   1.484   2.499  0.9320 -1.0237 -0.0704
  600SOL     OW 1798   0.620   0.681   2.749  0.6956 -0.1364 -0.8102
  600SOL    HW1 1799   0.555   0.610   2.785  0.3237 -2.9627 -0.8633
  600SOL    HW2 1800   0.708   0.676   2.801 -1.9064 -1.2458 -1.0816
  601SOL     OW 1801   0.490   0.978   1.534  0.3727 -0.6385  0.7601
  601SOL    HW1 1802   0.566   0.981   1.468  0.0055  1.4162  2.3370
  601SOL    HW2 1803   0.520   1.002   1.628 -2.8922  1.0758 -0.5551
  602SOL     OW 1804   0.538   3.029   3.044 -0.3114 -0.5364 -0.2845
  602SOL    HW1 1805   0.613   0.005   3.060  0.3850  0.6129  0.4869
  602SOL    HW2 1806   0.506   2.989   0.045 -1.5361  1.2513  1.9737
  603SOL     OW 1807   1.666   2.470   2.605 -0.3606 -0.9843  0.1104
  603SOL    HW1 1808   1.745   2.431   2.658 -1.0506 -1.2734 -1.2435
  603SOL    HW2 1809   1.583   2.470   2.666 -3.6820  1.6513  1.5595
  604SOL     OW 1810   0.188   2.549   2.879  0.0704  0.0260  0.0212
  604SOL    HW1 1811   0.161   2.467   2.932  0.6637 -2.3675  1.1037
  604SOL    HW2 1812   0.276   2.526   2.837  1.1065  1.2512  0.7129
  605SOL     OW 1813   2.448   1.160   1.577 -0.6467 -0.1643  0.1207
  605SOL    HW1 1814   2.492   1.250   1.549  1.2785 -0.0933  2.7787
  605SOL    HW2 1815   2.479   1.143   1.673  2.8879  0.8189  1.2204
  606SOL     OW 1816   0.854   1.086   2.512  0.0856  0.3062  0.3980
  606SOL    HW1 1817   0.910   1.171   2.519  0.6382 -1.8758  2.2425
  606SOL    HW2 1818   0.902   1.013   2.567  1.9856  1.2951  2.1685
  607SOL     OW 1819   0.877   0.524   1.042  0.2698 -0.4309 -0.2673
  607SOL    HW1 1820   0.810   0.582   0.991 -1.4474  0.9363 -1.1869
  607SOL    HW2 1821   0.928   0.461   0.980 -0.7147  1.5168  2.1879
  608SOL     OW 1822   2.873   1.689   1.555 -0.2401  0.2723  0.0010
  608SOL    HW1 1823   2.774   1.695   1.595 -1.5382  2.1870  2.8252
  608SOL    HW2 1824   2.878   1.609   1.492  1.2546 -2.6078  1.3070
  609SOL     OW 1825   2.398   0.399   0.484  0.9315  0.2918  0.7905
  609SOL    HW1 1826   2.294   0.396   0.470  0.2401  1.3532  1.6597
  609SOL    HW2 1827   2.417   0.492   0.517  0.0143 -2.1590  0.3032
  610SOL     OW 1828   0.336   2.654   1.198  0.3735  0.1766 -0.2354
  610SOL    HW1 1829   0.334   2.745   1.245  0.8025  1.2822  0.7153
  610SOL    HW2 1830   0.306   2.663   1.102 -0.4916  2.3461 -0.4495
  611SOL     OW 1831   1.459   2.034   0.178  0.0588 -0.1532  0.5158
  611SOL    HW1 1832   1.522   2.044   0.100 -0.8152 -0.2419 -0.9072
  611SOL    HW2 1833   1.427   1.934   0.186 -1.1726 -0.8362 -1.4726
  612SOL     OW 1834   0.692   0.149   2.011  0.4307  0.3365  0.0011
  612SOL    HW1 1835   0.756   0.070   2.024  2.8939  1.1652  1.9462
  612SOL    HW2 1836   0.696   0.181   1.913 -1.1885 -1.7312 -0.0331
  613SOL     OW 1837   0.447   2.065   0.734 -0.1131 -0.2435  0.4848
  613SOL    HW1 1838   0.433   2.058   0.835 -0.7313  0.1243 -0.6154
  613SOL    HW2 1839   0.513   2.141   0.715  0.6827 -1.7151 -0.7168
  614SOL     OW 1840   2.096   0.103   2.036  0.6057  0.4663  0.2250
  614SOL    HW1 1841   2.169   0.132   2.095 -3.0849 -2.6592 -0.9880
  614SOL    HW2 1842   2.125   0.027   1.968 -0.7531 -1.0507  0.5624
  615SOL     OW 1843   1.457   1.416   0.692 -0.3649  0.1333  0.2618
  615SOL    HW1 1844   1.511   1.369   0.768  2.2124 -0.8114  0.7411
  615SOL    HW2 1845   1.410   1.345   0.641  1.4484  0.4522  1.7677
  616SOL     OW 1846   1.818   1.306   0.630  0.2113 -0.5086 -0.2472
  616SOL    HW1 1847   1.917   1.333   0.628  3.8635  1.9690  0.1462
  616SOL    HW2 1848   1.761   1.379   0.592  1.4449 -0.5147 -0.2897
  617SOL     OW 1849   1.608   0.798   3.030  0.2132 -0.0116  0.2442
  617SOL    HW1 1850   1.693   0.850   3.007  0.7172  1.4379  1.2124
  617SOL    HW2 1851   1.567   0.779   2.936 -0.1201  1.7426 -0.0224
  618SOL     OW 1852   0.841   0.469   1.946 -0.1723 -0.1042  0.1135
  618SOL    HW1 1853   0.927   0.509   1.984  0.7410  2.1663  1.8111
  618SOL    HW2 1854   0.775   0.545   1.931  3.1669  0.3347 -0.8456
  619SOL     OW 1855   0.183   1.490   1.335 -0.5493 -0.1332 -0.3112
  619SOL    HW1 1856   0.171   1.416   1.269 -2.1853  1.1464 -2.9800
  619SOL    HW2 1857   0.277   1.522   1.342 -0.1778  1.1185  1.9903
  620SOL     OW 1858   2.795   2.938   2.537  0.2084 -0.4589 -0.0733
  620SOL    HW1 1859   2.877   2.917   2.596  2.7289 -1.4123 -0.1519
  620SOL    HW2 1860   2.769   3.033   2.559 -0.9996 -0.7347  1.7690
  621SOL     OW 1861   2.307   1.783   3.049  0.0147 -0.4509 -0.1210
  621SOL    HW1 1862   2.328   1.718   0.037  1.1139 -2.8592  0.4206
  621SOL    HW2 1863   2.303   1.881   3.079 -1.0697 -0.6634 -0.4582
  622SOL     OW 1864   1.250   0.466   2.851  0.5103 -0.2653 -0.2694
  622SOL    HW1 1865   1.343   0.462   2.895 -1.6267  1.9625 -2.6889
  622SOL    HW2 1866   1.230   0.546   2.789 -2.5100  1.7636 -0.8766
  623SOL     OW 1867   0.850   1.541   1.500 -0.4015 -0.3415  0.0394
  623SOL    HW1 1868   0.942   1.588   1.516  0.7554  0.3169 -0.6060
  623SOL    HW2 1869   0.779   1.557   1.571 -2.5004  0.2310  2.1112
  624SOL     OW 1870   2.983   0.044   0.147  0.0387  0.0793  0.0591
  624SOL    HW1 1871   2.965   0.049   0.048  2.4064 -0.5601  0.3340
  624SOL    HW2 1872   3.066   0.097   0.163  1.2747 -0.7918 -3.8759
  625SOL     OW 1873   0.852   2.131   0.529  0.0048 -0.3682  0.1098
  625SOL    HW1 1874   0.930   2.192   0.524  0.1995 -3.1322 -0.9224
  625SOL    HW2 1875   0.877   2.040   0.497 -1.9213 -1.4240 -0.5679
  626SOL     OW 1876   2.672   0.978   2.499 -0.2133  0.2123 -0.1743
  626SOL    HW1 1877   2.735   0.911   2.540 -1.8385 -0.5625 -3.1973
  626SOL    HW2 1878   2.615   1.029   2.570 -0.6658 -1.9601  0.8966
  627SOL     OW 1879   0.953   1.914   2.814  0.5322 -0.2351  0.0356
  627SOL    HW1 1880   0.960   2.007   2.783 -0.8899 -1.4061 -0.0255
  627SOL    HW2 1881   0.906   1.851   2.748 -1.1806  1.0223 -1.0319
  628SOL     OW 1882   2.861   2.549   2.684 -0.2679  0.6298 -0.3076
  628SOL    HW1 1883   2.796   2.531   2.605  0.5770 -0.3213  0.8123
  628SOL    HW2 1884   2.819   2.611   2.755 -1.8769  3.9612 -0.6579
  629SOL     OW 1885   0.686   2.834   2.653  0.4991  1.0536 -0.1392
  629SOL    HW1 1886   0.738   2.747   2.656  2.1789  0.0816  0.0399
  629SOL    HW2 1887   0.718   2.899   2.581 -1.2596 -0.3741  1.1522
  630SOL     OW 1888   0.995   0.256   2.063 -0.2939  0.3307  0.4160
  630SOL    HW1 1889   0.943   0.323   2.002  0.5281 -1.4975 -1.3277
  630SOL    HW2 1890   1.014   0.172   2.014 -1.6544 -3.6093  0.9926
  631SOL     OW 1891   2.186   1.016   0.539  0.1849 -0.5371  0.7052
  631SOL    HW1 1892   2.146   0.929   0.517 -0.1875  0.8288  1.3535
  631SOL    HW2 1893   2.139   1.088   0.485 -1.0180 -0.6359  1.0833
  632SOL     OW 1894   2.720   0.173   1.708 -0.4612  0.1277 -0.0942
  632SOL    HW1 1895   2.632   0.122   1.703  1.9258  1.8633  2.6389
  632SOL    HW2 1896   2.741   0.233   1.633  2.6414 -4.8527 -0.5910
  633SOL     OW 1897   1.134   1.239   0.636 -0.1577  0.4070  0.1124
  633SOL    HW1 1898   1.041   1.258   0.673  0.2064 -0.9560  0.7547
  633SOL    HW2 1899   1.149   1.140   0.617 -0.4308 -2.0703  1.5530
  634SOL     OW 1900   2.873   2.918   2.271  0.0985  0.8398  0.3463
  634SOL    HW1 1901   2.873   2.924   2.374  1.9364 -2.6959  1.3837
  634SOL    HW2 1902   2.862   2.821   2.243  0.2773  1.1227  1.2631
  635SOL     OW 1903   1.578   0.441   0.703  0.3532 -0.3048  0.3651
  635SOL    HW1 1904   1.620   0.347   0.712  1.1578 -1.3047  1.6881
  635SOL    HW2 1905   1.647   0.513   0.693 -0.0498 -0.4561  0.2718
  636SOL     OW 1906   0.700   1.151   0.540 -0.7350  0.4484 -0.5297
  636SOL    HW1 1907   0.613   1.188   0.507  1.0583 -0.5767  1.5122
  636SOL    HW2 1908   0.705   1.054   0.519 -0.6947  0.8019  0.2792
  637SOL     OW 1909   2.303   2.034   0.065  0.7236  0.4766 -0.0767
  637SOL    HW1 1910   2.373   2.037   0.137 -0.7957 -0.5516 -1.0244
  637SOL    HW2 1911   2.279   2.125   0.029 -4.1358  0.5850  0.0449
  638SOL     OW 1912   1.653   2.314   2.361 -0.0304  0.0451  0.1552
  638SOL    HW1 1913   1.596   2.358   2.283 -3.3318 -0.0656 -1.6585
  638SOL    HW2 1914   1.666   2.370   2.446 -1.2811  0.5492 -2.8112
  639SOL     OW 1915   1.413   2.012   0.639 -0.0693 -0.6125  0.6151
  639SOL    HW1 1916   1.346   2.042   0.709 -0.5580 -0.9677 -0.5240
  639SOL    HW2 1917   1.491   1.967   0.689  1.6725  1.6251 -0.4265
  640SOL     OW 1918   2.021   3.038   0.708 -0.1510 -0.2134 -0.4566
  640SOL    HW1 1919   2.104   3.049   0.647  0.6310 -1.0702 -0.0811
  640SOL    HW2 1920   1.979   0.040   0.722  0.7253  0.6627 -1.9938
  641SOL     OW 1921   2.976   0.591   3.056 -0.0429 -0.0908  0.5414
  641SOL    HW1 1922   2.901   0.551   0.023  0.4071  0.2912  0.3471
  641SOL    HW2 1923   2.997   0.545   2.968 -1.5795  3.8808 -0.2961
  642SOL     OW 1924   0.559   0.629   1.314 -0.0459 -0.4695  0.4275
  642SOL    HW1 1925   0.464   0.598   1.312  0.7619 -1.3719 -0.1776
  642SOL    HW2 1926   0.617   0.558   1.268  0.1377  0.5471  1.3756
  643SOL     OW 1927   0.718   0.971   2.095 -0.7840  0.1141  0.4011
  643SOL    HW1 1928   0.786   0.929   2.158  1.0656 -0.3878  2.3939
  643SOL    HW2 1929   0.624   0.979   2.134  0.1851 -0.9829 -2.8904
  644SOL     OW 1930   1.550   2.136   0.452 -0.0754  0.1738 -0.2015
  644SOL    HW1 1931   1.533   2.102   0.360 -1.3282  2.1795  1.2775
  644SOL    HW2 1932   1.500   2.085   0.522  0.8136  0.6054 -0.1684
  645SOL     OW 1933   1.220   1.931   0.408  0.1463 -0.0493 -0.6302
  645SOL    HW1 1934   1.278   1.871   0.350 -0.1967  1.2342 -2.6038
  645SOL    HW2 1935   1.270   1.958   0.490 -1.5598 -1.5809 -0.7825
  646SOL     OW 1936   0.030   1.656   2.707  0.0148 -0.9097 -0.4662
  646SOL    HW1 1937   3.084   1.584   2.648  0.7209  4.6741 -0.2883
  646SOL    HW2 1938   0.025   1.748   2.662 -0.4137  2.2715  1.2792
  647SOL     OW 1939   1.059   0.382   0.910  0.1558  0.3467  0.2274
  647SOL    HW1 1940   1.081   0.352   1.006 -2.6438  0.2972  1.6384
  647SOL    HW2 1941   1.137   0.358   0.848  0.4656  1.8888 -0.2789
  648SOL     OW 1942   1.467   0.498   1.023 -0.6794 -0.1808  0.0410
  648SOL    HW1 1943   1.381   0.489   0.976  0.9499 -2.3697  0.6403
  648SOL    HW2 1944   1.511   0.409   1.042 -1.2346 -0.8745 -3.3816
  649SOL     OW 1945   0.938   1.630   0.364  0.2749 -0.4536  0.3571
  649SOL    HW1 1946   0.937   1.639   0.261  0.2924 -3.1676 -0.5779
  649SOL    HW2 1947   1.018   1.571   0.380  2.1434  0.7401 -1.0250
  650SOL     OW 1948   2.385   1.667   1.935 -0.0977 -0.5694  0.1108
  650SOL    HW1 1949   2.486   1.679   1.955 -1.1585 -1.4214  1.9090
  650SOL    HW2 1950   2.352   1.705   1.847  2.6491 -0.4051  0.5789
  651SOL     OW 1951   1.670   2.148   2.795  0.3063 -0.2469 -0.1870
  651SOL    HW1 1952   1.744   2.212   2.776 -0.6857 -1.0362  0.8600
  651SOL    HW2 1953   1.642   2.097   2.712  2.4497 -1.1742  1.9785
  652SOL     OW 1954   2.378   1.635   0.162 -0.4401  0.1124  0.3909
  652SOL    HW1 1955   2.471   1.609   0.127  0.9376 -0.1758 -1.9043
  652SOL    HW2 1956   2.378   1.681   0.251  1.2837  0.2795  1.6182
  653SOL     OW 1957   0.302   0.318   0.994  0.3750  0.0835 -0.0811
  653SOL    HW1 1958   0.399   0.281   0.993  2.6237 -0.7804  1.1125
  653SOL    HW2 1959   0.231   0.246   0.986  2.7405  2.8367 -1.2361
  654SOL     OW 1960   2.924   0.095   2.247  0.1611  0.3227  0.5965
  654SOL    HW1 1961   3.020   0.100   2.214  1.7143 -0.8566 -0.0102
  654SOL    HW2 1962   2.905   3.085   2.268  2.1105  1.0989  1.1641
  655SOL     OW 1963   0.703   2.482   0.784  0.5407 -0.0055  0.0591
  655SOL    HW1 1964   0.719   2.542   0.705 -0.4975 -2.9078  0.2590
  655SOL    HW2 1965   0.703   2.530   0.869 -0.8219 -2.3664 -3.1053
  656SOL     OW 1966   3.056   0.158   2.816 -0.1025  0.1048  0.0079
  656SOL    HW1 1967   3.060   0.124   2.721  1.0081 -0.9204  1.3322
  656SOL    HW2 1968   2.989   0.098   2.866 -2.6572 -1.6533 -0.1406
  657SOL     OW 1969   0.166   1.246   2.948 -0.1207  0.8455  0.1288
  657SOL    HW1 1970   0.220   1.331   2.956 -0.9175 -0.9878 -2.0922
  657SOL    HW2 1971   0.192   1.187   3.028  1.1113 -0.4821 -0.8843
  658SOL     OW 1972   2.392   1.812   1.264 -0.0042  0.3544 -0.2717
  658SOL    HW1 1973   2.313   1.880   1.268 -3.4277  2.2849  0.0781
  658SOL    HW2 1974   2.358   1.719   1.296  3.0036  0.3747  1.8998
  659SOL     OW 1975   1.612   2.728   0.202 -0.2376 -0.5536 -0.0977
  659SOL    HW1 1976   1.571   2.639   0.221  0.5357  4.2255  0.4872
  659SOL    HW2 1977   1.627   2.736   0.098 -0.1070 -0.4560 -3.4751
  660SOL     OW 1978   1.468   0.974   2.589 -0.0349 -0.3860  0.1288
  660SOL    HW1 1979   1.519   1.057   2.569 -2.4825 -0.6510 -0.4364
  660SOL    HW2 1980   1.428   0.924   2.510 -1.9255 -1.2066 -0.4566
  661SOL     OW 1981   0.170   2.068   1.003  0.1719  0.1669 -0.2929
  661SOL    HW1 1982   0.131   2.066   0.906 -2.3290 -0.0066 -0.3271
  661SOL    HW2 1983   0.099   2.023   1.061 -0.3059 -0.2875  0.3350
  662SOL     OW 1984   0.379   0.653   0.063 -0.1308 -0.3691  0.5223
  662SOL    HW1 1985   0.278   0.654   0.060  0.8712  0.7722 -0.9562
  662SOL    HW2 1986   0.412   0.554   0.063  1.0509 -2.4312 -1.1244
  663SOL     OW 1987   2.162   1.977   1.309  0.1155 -0.1727 -0.2429
  663SOL    HW1 1988   2.095   2.035   1.254  1.9113 -0.9552 -0.3646
  663SOL    HW2 1989   2.115   1.892   1.341 -0.7008 -0.7180 -0.3358
  664SOL     OW 1990   0.718   1.213   1.293 -0.0336  0.1312  0.6308
  664SOL    HW1 1991   0.617   1.237   1.298  0.9388 -0.1527  1.6630
  664SOL    HW2 1992   0.777   1.294   1.297 -1.0069 -2.9815  0.7315
  665SOL     OW 1993   1.938   2.707   2.005 -0.4088 -0.4503  0.3303
  665SOL    HW1 1994   1.893   2.796   2.027 -0.9421  0.2416 -0.1395
  665SOL    HW2 1995   2.025   2.717   1.956  0.5031 -0.4966  0.0342
  666SOL     OW 1996   2.867   2.716   0.161 -0.2658 -0.1143  0.1611
  666SOL    HW1 1997   2.930   2.633   0.166 -1.7893 -1.4280 -1.4790
  666SOL    HW2 1998   2.899   2.786   0.224 -0.7549 -3.9129 -1.0352
  667SOL     OW 1999   2.760   1.226   1.479 -0.0628  0.4977  0.0536
  667SOL    HW1 2000   2.723   1.213   1.381  0.7623 -1.5242 -0.5029
  667SOL    HW2 2001   2.796   1.139   1.515  1.8686 -1.4681 -1.0903
  668SOL     OW 2002   0.259   0.694   2.521  0.2754  0.2578 -0.2817
  668SOL    HW1 2003   0.230   0.604   2.566  0.0224 -4.2648  2.3369
  668SOL    HW2 2004   0.179   0.732   2.472  2.8654  2.0810  0.1927
  669SOL     OW 2005   2.303   1.985   2.431  0.1628  0.2222  0.0056
  669SOL    HW1 2006   2.384   1.937   2.472 -2.3434 -0.6027 -0.5874
  669SOL    HW2 2007   2.252   1.925   2.366  0.5250 -0.8558  0.9424
  670SOL     OW 2008   2.675   1.408   1.933  0.1110 -0.4705 -0.9279
  670SOL    HW1 2009   2.612   1.417   1.848 -0.7167  1.2628 -0.8868
  670SOL    HW2 2010   2.751   1.338   1.918  2.9288 -2.7793  2.1672
  671SOL     OW 2011   2.866   1.380   0.812 -0.7230 -0.2202 -0.1222
  671SOL    HW1 2012   2.942   1.411   0.754  1.5999 -2.5690  1.0035
  671SOL    HW2 2013   2.781   1.427   0.788 -2.7361  0.5192  0.4902
  672SOL     OW 2014   2.363   0.627   2.110 -0.4199  0.1865 -0.5196
  672SOL    HW1 2015   2.326   0.695   2.177  3.4988 -3.3232 -1.0336
  672SOL    HW2 2016   2.462   0.654   2.090  0.2557  0.9734 -1.8503
  673SOL     OW 2017   2.540   3.019   2.070  0.0193  0.2397 -0.6184
  673SOL    HW1 2018   2.609   0.001   2.094 -0.2802  1.2400 -1.2923
  673SOL    HW2 2019   2.542   2.939   2.136 -0.0866 -1.4648  1.0868
  674SOL     OW 2020   1.663   2.524   1.575 -0.2600 -0.4145 -0.0808
  674SOL    HW1 2021   1.723   2.552   1.654 -0.8037  0.0978  2.7499
  674SOL    HW2 2022   1.627   2.431   1.590  0.4853  1.5666  2.2717
  675SOL     OW 2023   0.737   0.720   0.870 -0.5038 -0.0094 -0.1200
  675SOL    HW1 2024   0.692   0.772   0.946  1.2205  1.5974 -1.4872
  675SOL    HW2 2025   0.677   0.730   0.787 -0.2150  0.3564  0.4551
  676SOL     OW 2026   1.711   0.990   0.903 -0.3235 -0.3053 -0.9598
  676SOL    HW1 2027   1.745   1.087   0.890  0.6535  2.3474  1.0959
  676SOL    HW2 2028   1.781   0.927   0.860  1.4958 -1.4287 -0.5636
  677SOL     OW 2029   2.556   1.397   2.458  0.1155 -0.0713  0.6439
  677SOL    HW1 2030   2.518   1.310   2.428  1.1857  3.4801 -3.3313
  677SOL    HW2 2031   2.647   1.404   2.404 -0.7157  2.5994  0.3677
  678SOL     OW 2032   2.599   1.817   1.102  0.2342 -0.0211 -0.4447
  678SOL    HW1 2033   2.688   1.802   1.150  0.3192  0.2445  2.0098
  678SOL    HW2 2034   2.522   1.812   1.167 -1.1289 -0.3265 -0.3270
  679SOL     OW 2035   2.094   2.508   0.263 -0.4063  0.0767 -0.4815
  679SOL    HW1 2036   2.192   2.521   0.230  2.8695  2.4265 -1.1917
  679SOL    HW2 2037   2.036   2.570   0.208  0.9027  0.1629 -0.3970
  680SOL     OW 2038   2.927   2.299   1.967  0.0873 -0.3023 -0.6606
  680SOL    HW1 2039   2.974   2.231   2.026 -1.2577  1.8315 -0.6444
  680SOL    HW2 2040   2.945   2.292   1.868 -0.9553 -0.3280 -0.2625
  681SOL     OW 2041   0.472   1.276   1.624 -0.6146 -0.3406 -0.2233
  681SOL    HW1 2042   0.575   1.255   1.626  1.0996  0.2050  0.0775
  681SOL    HW2 2043   0.466   1.357   1.686 -0.8308 -1.7832  0.3170
  682SOL     OW 2044   1.285   2.717   0.653 -0.3149 -0.2308 -0.0324
  682SOL    HW1 2045   1.311   2.663   0.568  0.1445  0.8565  0.9430
  682SOL    HW2 2046   1.243   2.653   0.718  0.0364 -0.3487  0.9161
  683SOL     OW 2047   2.183   1.359   0.902 -0.2996  0.3727  0.0119
  683SOL    HW1 2048   2.205   1.439   0.961  1.7901 -1.9632 -1.2102
  683SOL    HW2 2049   2.151   1.275   0.948  0.3869 -0.4277 -2.1822
  684SOL     OW 2050   0.270   2.260   2.048  0.0920  0.7537  0.4581
  684SOL    HW1 2051   0.349   2.196   2.071 -1.1440  0.7123  1.1318
  684SOL    HW2 2052   0.213   2.210   1.978 -0.7592  0.1169  1.5962
  685SOL     OW 2053   1.381   1.638   3.036 -0.3087  0.2856 -0.6565
  685SOL    HW1 2054   1.448   1.701   2.998 -2.8164  0.6570  2.7114
  685SOL    HW2 2055   1.409   1.538   3.028 -1.9995 -3.1348  0.1494
  686SOL     OW 2056   2.957   0.691   1.252  0.4382 -0.0914 -0.2694
  686SOL    HW1 2057   2.908   0.659   1.337 -1.7222 -1.0812  1.0855
  686SOL    HW2 2058   2.966   0.791   1.266 -0.7212 -0.6107  0.5781
  687SOL     OW 2059   0.778   2.385   2.806 -0.3839 -0.0935  0.4677
  687SOL    HW1 2060   0.677   2.392   2.805  0.0010 -4.4625 -3.1073
  687SOL    HW2 2061   0.810   2.310   2.742  2.3444  1.3342 -2.7051
  688SOL     OW 2062   2.771   2.023   1.776  0.5720 -0.4405 -0.4640
  688SOL    HW1 2063   2.715   2.071   1.843  1.0618 -0.7743 -0.4197
  688SOL    HW2 2064   2.842   1.979   1.829 -2.7735  1.9832 -0.3755
  689SOL     OW 2065   1.900   0.882   1.952 -0.0753  0.5566  0.4273
  689SOL    HW1 2066   1.881   0.832   1.865 -0.2272 -1.8172  0.7881
  689SOL    HW2 2067   1.859   0.975   1.946  1.0525  0.5072  0.4310
  690SOL     OW 2068   2.249   0.879   1.153 -0.3641 -0.1799 -0.5095
  690SOL    HW1 2069   2.295   0.817   1.222 -1.3546  2.2155 -3.4389
  690SOL    HW2 2070   2.303   0.959   1.111  1.8000  4.6962 -1.0519
  691SOL     OW 2071   0.792   1.812   1.865 -0.2593 -0.1908  0.0785
  691SOL    HW1 2072   0.840   1.875   1.926  0.7984 -1.0503  0.8622
  691SOL    HW2 2073   0.816   1.823   1.766 -1.6208  0.8589 -0.2313
  692SOL     OW 2074   2.221   0.352   1.501  0.0859 -0.3641 -0.5893
  692SOL    HW1 2075   2.163   0.308   1.571  1.2171 -0.0357 -1.6706
  692SOL    HW2 2076   2.179   0.365   1.409 -1.1145  1.2833  0.0759
  693SOL     OW 2077   0.349   1.177   2.262 -0.7853 -0.2507  0.4881
  693SOL    HW1 2078   0.406   1.097   2.281 -2.0255 -2.3032 -2.1587
  693SOL    HW2 2079   0.396   1.248   2.203 -0.7369  2.1318 -2.6087
  694SOL     OW 2080   1.671   2.991   1.133 -0.3286  0.5456 -0.2952
  694SOL    HW1 2081   1.624   2.982   1.047  0.0014  2.3931  3.0412
  694SOL    HW2 2082   1.744   2.914   1.140 -1.0536 -1.9405 -1.6409
  695SOL     OW 2083   1.444   1.185   1.990  0.3500  0.1712 -0.3028
  695SOL    HW1 2084   1.468   1.264   1.927 -0.4314 -0.1389  0.1746
  695SOL    HW2 2085   1.495   1.112   1.952 -1.5034  3.8720  0.8408
  696SOL     OW 2086   1.394   0.222   0.466  0.6115  0.2049 -0.1339
  696SOL    HW1 2087   1.302   0.260   0.440 -1.5894 -0.4562  0.2932
  696SOL    HW2 2088   1.402   0.194   0.564 -1.4152  2.2190 -0.6727
  697SOL     OW 2089   1.266   0.477   0.738 -0.3121  0.4985  0.2873
  697SOL    HW1 2090   1.294   0.569   0.779  0.8172 -0.2113 -1.3371
  697SOL    HW2 2091   1.287   0.481   0.640  1.9567  2.3494 -0.5642
  698SOL     OW 2092   1.190   1.227   2.610 -0.5992 -0.4090  0.5698
  698SOL    HW1 2093   1.095   1.255   2.634 -1.8784  0.6458  0.7505
  698SOL    HW2 2094   1.220   1.151   2.672 -1.8015  1.3270 -2.8942
  699SOL     OW 2095   1.428   1.493   1.086 -0.0971 -0.2470 -0.0841
  699SOL    HW1 2096   1.405   1.590   1.092 -1.3979 -1.7852 -1.4767
  699SOL    HW2 2097   1.340   1.449   1.056 -0.3793 -0.2943 -0.3414
  700SOL     OW 2098   1.602   0.329   0.324  0.0956 -0.2030  0.4482
  700SOL    HW1 2099   1.521   0.301   0.386 -2.1012  1.9372 -0.1252
  700SOL    HW2 2100   1.688   0.282   0.359  0.0661  0.9342 -0.5378
  701SOL     OW 2101   0.103   0.105   2.186 -0.1757 -0.5186  0.1239
  701SOL    HW1 2102   0.164   0.189   2.188  0.4036 -0.1138 -1.0925
  701SOL    HW2 2103   0.155   0.025   2.215 -0.9489 -1.9465 -3.0929
  702SOL     OW 2104   1.211   0.004   0.058  0.9308 -0.1848 -0.1353
  702SOL    HW1 2105   1.307   0.027   0.047 -1.5855  2.5995 -0.6417
  702SOL    HW2 2106   1.191   3.016   0.122 -1.2844  1.5855 -1.4652
  703SOL     OW 2107   2.561   2.739   2.521  0.1536  0.2205  0.5359
  703SOL    HW1 2108   2.471   2.736   2.570  2.4222 -0.4202 -0.4651
  703SOL    HW2 2109   2.625   2.813   2.548  0.6789 -1.2384 -0.9292
  704SOL     OW 2110   0.621   2.238   1.009 -0.0765 -0.0524  0.2124
  704SOL    HW1 2111   0.670   2.238   0.919 -0.2461 -1.7801 -0.7163
  704SOL    HW2 2112   0.590   2.142   1.029  2.2645  0.3665 -2.2372
  705SOL     OW 2113   2.907   0.403   1.914  0.1219  0.1932  0.6599
  705SOL    HW1 2114   2.945   0.312   1.923 -0.7316  0.0856 -1.7219
  705SOL    HW2 2115   2.853   0.432   1.994 -2.7420  1.0864  0.4008
  706SOL     OW 2116   1.807   0.150   0.481  0.2554  0.2720 -0.0935
  706SOL    HW1 2117   1.806   0.071   0.412 -0.0713 -0.7202  0.4177
  706SOL    HW2 2118   1.895   0.165   0.537  0.1688  0.8331  1.1093
  707SOL     OW 2119   1.288   2.020   1.984 -0.5236  0.2314  0.7248
  707SOL    HW1 2120   1.364   1.991   2.044 -2.8626 -0.5671 -0.5950
  707SOL    HW2 2121   1.304   2.116   1.955  1.2289 -2.5637  0.3833
  708SOL     OW 2122   2.986   2.278   1.699 -0.1319 -0.6487  0.1644
  708SOL    HW1 2123   2.901   2.316   1.669  0.4554  0.0645  3.5965
  708SOL    HW2 2124   3.057   2.328   1.647 -3.6035  0.4100  0.7326
  709SOL     OW 2125   1.957   0.483   1.980 -0.3849  0.2017  0.0092
  709SOL    HW1 2126   2.043   0.476   1.916  1.7644  2.1156  0.4080
  709SOL    HW2 2127   1.868   0.466   1.931  3.0330 -0.8610 -1.1534
  710SOL     OW 2128   2.424   0.533   1.553 -0.2403  0.1185  0.1999
  710SOL    HW1 2129   2.348   0.464   1.565  1.4756 -0.1869  3.0353
  710SOL    HW2 2130   2.507   0.484   1.509 -0.0805  1.0360  0.9568
  711SOL     OW 2131   0.108   2.107   0.474  0.0930  0.1762  0.6072
  711SOL    HW1 2132   0.206   2.121   0.460 -2.4834  2.8408 -0.1093
  711SOL    HW2 2133   0.085   2.016   0.439  2.0185  3.7736 -0.4821
  712SOL     OW 2134   0.530   2.602   2.246  0.8375 -0.1473  0.1030
  712SOL    HW1 2135   0.477   2.566   2.164  1.5733  0.6399 -4.5363
  712SOL    HW2 2136   0.624   2.629   2.230  0.4061 -0.6258  1.3911
  713SOL     OW 2137   2.043   0.960   0.154 -0.5115 -0.0412 -0.3633
  713SOL    HW1 2138   1.956   0.943   0.203 -3.1702 -1.7725 -0.8404
  713SOL    HW2 2139   2.075   0.872   0.113 -1.5791 -4.7774  1.2204
  714SOL     OW 2140   0.679   1.696   0.728  0.1830  0.3438  0.3147
  714SOL    HW1 2141   0.757   1.747   0.691 -0.9801  0.8420  0.8374
  714SOL    HW2 2142   0.686   1.685   0.829 -3.2145 -0.4446 -0.8126
  715SOL     OW 2143   2.032   2.925   0.141  0.4115 -0.2018  0.4864
  715SOL    HW1 2144   2.023   2.823   0.148 -2.2053 -1.2375 -2.5693
  715SOL    HW2 2145   1.949   2.969   0.098  2.3806  2.4620 -0.6695
  716SOL     OW 2146   0.208   0.257   1.773  0.0456  0.6418 -0.4089
  716SOL    HW1 2147   0.141   0.326   1.804  1.0309 -0.5368  3.2043
  716SOL    HW2 2148   0.168   0.163   1.792  1.0476 -2.5376 -0.0596
  717SOL     OW 2149   0.105   0.618   0.114  0.7089  0.4229 -0.3400
  717SOL    HW1 2150   0.024   0.621   0.051 -2.8433 -1.8773  0.8173
  717SOL    HW2 2151   0.122   0.519   0.133  0.2698  0.3582 -0.4099
  718SOL     OW 2152   1.253   1.003   2.749  0.4672 -0.1252 -0.1444
  718SOL    HW1 2153   1.228   0.929   2.817 -0.9587  0.4991 -1.0976
  718SOL    HW2 2154   1.346   0.982   2.713  1.9821  1.0853 -0.6002
  719SOL     OW 2155   2.719   1.755   3.010 -0.1820  0.8800 -0.2344
  719SOL    HW1 2156   2.662   1.674   3.041  0.1817 -2.8664  0.6194
  719SOL    HW2 2157   2.803   1.713   2.961  0.6633 -0.0363 -3.8651
  720SOL     OW 2158   1.496   0.940   1.087  0.1041 -0.3278  0.0981
  720SOL    HW1 2159   1.560   0.945   1.010 -0.0073  0.6684  0.7598
  720SOL    HW2 2160   1.482   0.847   1.126 -0.7093  0.3155 -0.5458
  721SOL     OW 2161   3.032   0.699   0.311 -0.0781  0.0263  0.4132
  721SOL    HW1 2162   0.008   0.663   0.242 -0.1763  0.1066 -2.9158
  721SOL    HW2 2163   3.070   0.697   0.406 -0.4995  1.4812 -0.8850
  722SOL     OW 2164   0.992   1.204   3.087 -0.2781  0.5081  0.1584
  722SOL    HW1 2165   0.985   1.167   0.093 -0.8794 -1.3763  1.5455
  722SOL    HW2 2166   0.941   1.142   3.026  1.0633  4.5894  0.9443
  723SOL     OW 2167   0.385   1.017   0.596 -0.4538  0.2207 -0.0608
  723SOL    HW1 2168   0.408   1.110   0.565  0.2997 -1.6555  1.1951
  723SOL    HW2 2169   0.328   0.972   0.523 -0.0294 -0.5659 -0.1120
  724SOL     OW 2170   1.028   2.499   1.800  0.7111 -0.1652  0.2737
  724SOL    HW1 2171   0.991   2.408   1.767 -0.8819 -1.0893  0.0462
  724SOL    HW2 2172   1.111   2.522   1.747  1.2117 -0.4022 -0.5743
  725SOL     OW 2173   2.561   0.921   1.492 -0.6744 -0.1765  0.1916
  725SOL    HW1 2174   2.523   1.011   1.519  0.0896  0.2176 -1.3406
  725SOL    HW2 2175   2.547   0.859   1.571 -1.8171 -0.0785 -0.5486
  726SOL     OW 2176   1.764   2.737   0.434  0.2856  0.1306 -0.4857
  726SOL    HW1 2177   1.733   2.664   0.501  0.4991 -1.0538  0.9667
  726SOL    HW2 2178   1.693   2.758   0.367 -0.3528  1.5732  1.3008
  727SOL     OW 2179   1.320   0.861   2.372 -0.5707  0.4657 -1.0888
  727SOL    HW1 2180   1.274   0.950   2.359  1.2126  1.3731 -1.6331
  727SOL    HW2 2181   1.357   0.825   2.286 -0.7093  2.2800 -1.1685
  728SOL     OW 2182   1.400   2.718   1.230 -0.0330  0.0733 -0.4911
  728SOL    HW1 2183   1.474   2.722   1.299  0.9287  0.1906 -2.2404
  728SOL    HW2 2184   1.384   2.811   1.195  2.0306 -0.4028  0.0567
  729SOL     OW 2185   1.785   0.909   1.258  0.0517 -0.2902 -0.2662
  729SOL    HW1 2186   1.716   0.967   1.305 -0.6971 -0.0917 -0.4889
  729SOL    HW2 2187   1.746   0.815   1.249 -1.3171 -1.8744  0.1443
  730SOL     OW 2188   0.477   2.066   2.063 -0.0131 -0.6860 -0.4605
  730SOL    HW1 2189   0.566   2.117   2.070  0.9489  2.0830  0.7283
  730SOL    HW2 2190   0.479   2.008   1.975  2.0587 -0.2583 -1.7829
  731SOL     OW 2191   0.579   0.325   0.639  0.3535  0.4322  0.0021
  731SOL    HW1 2192   0.610   0.325   0.540 -2.9798 -2.3476 -2.8656
  731SOL    HW2 2193   0.644   0.274   0.701  0.3531  0.9110  0.6826
  732SOL     OW 2194   0.627   0.759   0.059  0.2840 -0.5322  0.4139
  732SOL    HW1 2195   0.541   0.709   0.038  2.4558 -0.7126  2.3321
  732SOL    HW2 2196   0.609   0.828   0.132 -2.0756  3.2165  0.1062
  733SOL     OW 2197   1.049   2.316   1.023  0.2969 -0.2036 -0.5701
  733SOL    HW1 2198   1.055   2.237   0.961 -0.9733 -0.3035  0.8267
  733SOL    HW2 2199   0.956   2.337   1.057 -1.3584 -0.0856 -1.2344
  734SOL     OW 2200   3.088   1.915   2.613 -0.4672 -0.2582  0.0634
  734SOL    HW1 2201   3.058   1.949   2.520 -2.1599 -0.1037 -1.6988
  734SOL    HW2 2202   0.076   1.968   2.655  0.2719 -4.1781  1.6848
  735SOL     OW 2203   1.090   2.981   1.015  0.2070  0.6408 -0.3306
  735SOL    HW1 2204   1.033   3.030   1.086 -2.6829  1.3764  1.4613
  735SOL    HW2 2205   1.100   3.042   0.935  0.8280 -0.2293  0.7349
  736SOL     OW 2206   1.863   0.323   0.099  0.3628  0.4437  0.4144
  736SOL    HW1 2207   1.765   0.289   0.096  0.3870 -0.1535 -0.4966
  736SOL    HW2 2208   1.861   0.428   0.096  1.0763  1.3441  2.2666
  737SOL     OW 2209   3.011   0.277   0.372  0.4094  0.0112 -0.3655
  737SOL    HW1 2210   3.058   0.245   0.458  1.9188  1.8740  1.4641
  737SOL    HW2 2211   2.909   0.280   0.389  0.3617  0.6039 -1.2517
  738SOL     OW 2212   2.689   2.774   1.076  0.5618 -0.4769 -0.6591
  738SOL    HW1 2213   2.753   2.852   1.075  0.3343 -2.4715  0.2919
  738SOL    HW2 2214   2.651   2.757   0.979  0.3362 -0.4345 -1.8572
  739SOL     OW 2215   1.355   2.279   0.166 -0.2809 -0.1632  0.2181
  739SOL    HW1 2216   1.403   2.191   0.137  2.1460  0.0240  0.9916
  739SOL    HW2 2217   1.254   2.275   0.142 -0.4360  0.4162  1.0746
  740SOL     OW 2218   1.579   2.980   0.859 -0.3657  0.6226 -0.6250
  740SOL    HW1 2219   1.502   2.932   0.817 -0.7133 -0.2882 -2.0568
  740SOL    HW2 2220   1.612   3.060   0.809  0.2110  1.4909  2.0025
  741SOL     OW 2221   2.066   0.625   0.666 -0.0083  0.6746 -0.1017
  741SOL    HW1 2222   2.135   0.639   0.591  0.1205  1.4644  1.3612
  741SOL    HW2 2223   1.975   0.604   0.624 -0.6617  1.1701  0.8949
  742SOL     OW 2224   1.101   2.207   2.213 -0.5121  0.1087 -0.0990
  742SOL    HW1 2225   1.174   2.240   2.281  2.4622  1.8530  0.0653
  742SOL    HW2 2226   1.129   2.268   2.131  0.4314  2.6165 -0.6314
  743SOL     OW 2227   2.179   0.510   1.825  0.0676 -0.0898 -0.0538
  743SOL    HW1 2228   2.213   0.606   1.815 -0.7264  1.3114 -0.5769
  743SOL    HW2 2229   2.249   0.438   1.843 -2.9069  0.3666  1.6359
  744SOL     OW 2230   2.382   0.307   1.106 -0.1075 -0.0989  0.1693
  744SOL    HW1 2231   2.398   0.237   1.034  2.0049 -0.6580  1.2600
  744SOL    HW2 2232   2.359   0.261   1.195  2.6686 -0.3656 -4.0231
  745SOL     OW 2233   2.008   1.225   1.664  0.0357 -0.6117 -0.1989
  745SOL    HW1 2234   2.027   1.311   1.717 -3.5202 -0.2820 -0.7274
  745SOL    HW2 2235   2.072   1.218   1.586  0.4216  3.1725  2.0206
  746SOL     OW 2236   1.241   1.325   0.978  0.3835 -0.0240  0.2860
  746SOL    HW1 2237   1.171   1.393   0.950  0.8448 -0.0144  0.5930
  746SOL    HW2 2238   1.263   1.269   0.899 -2.9936  0.5988  1.2350
  747SOL     OW 2239   2.005   1.237   1.281 -0.0124  0.4628  0.0002
  747SOL    HW1 2240   2.061   1.189   1.352 -1.5188  0.0186 -0.0764
  747SOL    HW2 2241   2.035   1.216   1.189 -0.8266 -0.4614  2.1065
  748SOL     OW 2242   0.242   2.499   0.719  0.6247 -0.2976 -0.0314
  748SOL    HW1 2243   0.311   2.442   0.768  1.2258  0.6362  5.4847
  748SOL    HW2 2244   0.164   2.437   0.681 -2.7998 -2.2393 -1.0443
  749SOL     OW 2245   0.014   0.049   2.558 -0.1502 -0.0599  0.2132
  749SOL    HW1 2246   3.085   3.038   2.543  0.2095  1.9192 -0.4793
  749SOL    HW2 2247   0.105   0.082   2.521 -1.9055 -1.5718  3.0706
  750SOL     OW 2248   2.355   0.604   1.109  0.4482  0.0310 -0.0110
  750SOL    HW1 2249   2.385   0.660   1.192  0.4681  1.7732  0.2157
  750SOL    HW2 2250   2.425   0.529   1.090  1.4591 -3.2755  1.6340
  751SOL     OW 2251   2.763   0.344   0.547  0.1017 -0.2438 -0.0255
  751SOL    HW1 2252   2.852   0.390   0.577  2.7499 -0.2867  0.3618
  751SOL    HW2 2253   2.689   0.362   0.614  1.0618  0.7779  1.2686
  752SOL     OW 2254   0.238   2.712   0.957  0.2822  0.5463 -0.3115
  752SOL    HW1 2255   0.139   2.735   0.943 -0.7023  2.5283  0.1923
  752SOL    HW2 2256   0.269   2.638   0.892 -3.4090  0.5095 -1.3552
  753SOL     OW 2257   1.378   0.258   2.037  0.3566  0.9760  0.5718
  753SOL    HW1 2258   1.321   0.317   1.975  0.6401  1.3417  1.3084
  753SOL    HW2 2259   1.408   0.176   1.979 -3.6426 -0.5991 -3.0541
  754SOL     OW 2260   1.856   2.378   1.850  0.7330 -0.3252 -0.0777
  754SOL    HW1 2261   1.844   2.293   1.910  0.6884  1.1959 -2.4711
  754SOL    HW2 2262   1.791   2.453   1.881  1.5183  0.7846 -3.3845
  755SOL     OW 2263   2.814   0.918   0.560  0.5816 -0.2803  0.4508
  755SOL    HW1 2264   2.791   0.983   0.634  0.7898  0.1125 -1.3378
  755SOL    HW2 2265   2.832   0.964   0.470 -0.0931 -1.8775  0.1316
  756SOL     OW 2266   1.369   1.678   2.562 -0.7324  0.4257 -0.6396
  756SOL    HW1 2267   1.303   1.605   2.548 -0.5779  0.0551 -0.4295
  756SOL    HW2 2268   1.345   1.730   2.649  0.7031  0.2337  3.3004
  757SOL     OW 2269   1.490   2.982   0.285  0.2798 -0.0495 -0.5512
  757SOL    HW1 2270   1.433   2.990   0.368 -1.0648 -0.0532  3.2584
  757SOL    HW2 2271   1.496   2.890   0.249  0.2881  1.8446 -0.9312
  758SOL     OW 2272   0.579   2.913   1.246  0.1338 -0.3340  0.3401
  758SOL    HW1 2273   0.479   2.899   1.277 -2.8769 -0.6717  0.5669
  758SOL    HW2 2274   0.588   2.944   1.151  2.8964 -4.0249  2.5569
  759SOL     OW 2275   0.192   0.950   1.226 -0.1214  0.3877 -0.3779
  759SOL    HW1 2276   0.235   0.897   1.303 -0.1394  1.1563 -0.6164
  759SOL    HW2 2277   0.091   0.942   1.242 -1.8731  1.2542 -0.3812
  760SOL     OW 2278   2.337   1.248   1.258 -0.3191 -0.3851 -0.0153
  760SOL    HW1 2279   2.269   1.201   1.316 -0.8284  1.5036  0.8801
  760SOL    HW2 2280   2.338   1.203   1.165 -0.5862 -4.3744 -1.9132
  761SOL     OW 2281   1.324   1.072   0.861  0.1713 -0.0182 -0.4510
  761SOL    HW1 2282   1.364   1.008   0.932 -0.6926 -0.2422  0.9603
  761SOL    HW2 2283   1.229   1.047   0.851  3.0788 -0.9669 -1.9459
  762SOL     OW 2284   2.317   2.156   1.440 -0.6394  0.5030 -0.3475
  762SOL    HW1 2285   2.244   2.098   1.411  2.6263  0.8782  0.7046
  762SOL    HW2 2286   2.323   2.234   1.375 -0.7193  1.0697 -0.2765
  763SOL     OW 2287   1.423   1.391   2.216  0.5799 -0.1849 -0.0978
  763SOL    HW1 2288   1.329   1.362   2.194  3.2990  0.6760 -0.5286
  763SOL    HW2 2289   1.486   1.351   2.146  1.5264  0.7893 -1.4880
  764SOL     OW 2290   3.005   1.838   2.192  0.2096  0.0049  0.0293
  764SOL    HW1 2291   0.001   1.889   2.226 -0.1601  0.1840  0.5794
  764SOL    HW2 2292   2.981   1.758   2.255  0.0969 -0.4504  2.3617
  765SOL     OW 2293   0.998   2.490   1.402 -0.3882  0.0231  0.1897
  765SOL    HW1 2294   1.079   2.544   1.385  0.2367  4.8039  1.0198
  765SOL    HW2 2295   1.016   2.400   1.449 -1.0493 -1.4757 -0.9203
  766SOL     OW 2296   0.632   2.248   2.444  0.0387 -0.9968  0.0833
  766SOL    HW1 2297   0.720   2.275   2.397 -1.7924 -2.0176  4.3188
  766SOL    HW2 2298   0.596   2.157   2.416 -1.1831 -0.4829 -1.5351
  767SOL     OW 2299   1.691   0.289   2.724  0.0628 -0.3798  0.5042
  767SOL    HW1 2300   1.680   0.211   2.654  0.7585 -0.1935 -2.8829
  767SOL    HW2 2301   1.771   0.263   2.784 -0.3368 -1.9878  1.4887
  768SOL     OW 2302   1.237   2.306   2.878  0.2829  0.0159 -0.4083
  768SOL    HW1 2303   1.192   2.286   2.972 -0.7002  1.2697  0.9653
  768SOL    HW2 2304   1.334   2.328   2.888  0.0484  2.1941  0.0631
  769SOL     OW 2305   3.042   2.690   1.215 -0.0658  0.2233 -0.2758
  769SOL    HW1 2306   3.073   2.594   1.223 -3.2806 -1.1652 -1.1447
  769SOL    HW2 2307   3.023   2.709   1.114 -0.9344 -0.7430 -1.4418
  770SOL     OW 2308   0.513   2.804   2.873 -0.0656 -0.0696 -0.2832
  770SOL    HW1 2309   0.497   2.887   2.936 -0.1014 -0.0856  0.6609
  770SOL    HW2 2310   0.553   2.836   2.780  1.6025 -0.6990 -0.4254
  771SOL     OW 2311   0.791   2.596   2.635  0.5337  0.1121  0.4782
  771SOL    HW1 2312   0.793   2.523   2.706 -2.1960  2.6138 -1.0956
  771SOL    HW2 2313   0.711   2.586   2.575  0.1535  1.9850 -3.5318
  772SOL     OW 2314   2.855   0.113   1.931 -0.0590 -0.0012  0.3520
  772SOL    HW1 2315   2.807   0.132   2.016  0.5771  0.5300  1.8591
  772SOL    HW2 2316   2.802   0.149   1.855  0.8080 -2.6722 -1.5346
  773SOL     OW 2317   1.087   2.622   2.040  0.0637  0.0504  0.5731
  773SOL    HW1 2318   1.048   2.551   1.974 -2.2567 -1.4923 -2.8795
  773SOL    HW2 2319   1.050   2.608   2.137  0.8268 -1.0839 -2.4679
  774SOL     OW 2320   1.467   0.391   2.255  0.1818  0.3378  0.1347
  774SOL    HW1 2321   1.464   0.345   2.349 -0.7477 -1.5790  1.8968
  774SOL    HW2 2322   1.455   0.325   2.176 -1.8151 -0.6325  1.8368
  775SOL     OW 2323   2.141   2.665   3.084 -0.3596 -0.1308 -0.6293
  775SOL    HW1 2324   2.210   2.606   0.039  1.6999 -0.6074 -0.3453
  775SOL    HW2 2325   2.162   2.765   3.078 -1.2306  2.5023  3.5385
  776SOL     OW 2326   2.174   0.946   1.993 -0.2504 -0.1987 -0.2746
  776SOL    HW1 2327   2.083   0.901   1.996  2.9037 -0.0805 -1.3098
  776SOL    HW2 2328   2.234   0.907   1.920 -1.7605  2.9833  0.2621
  777SOL     OW 2329   2.801   1.011   2.266  0.2234  0.0102 -0.5787
  777SOL    HW1 2330   2.747   0.997   2.352 -0.6947  1.1326  0.7786
  777SOL    HW2 2331   2.745   0.987   2.183  0.0480 -0.0359  0.5958
  778SOL     OW 2332   2.149   0.424   2.177  0.4159  0.5975 -0.3121
  778SOL    HW1 2333   2.222   0.492   2.171 -0.5995  2.4446  0.4769
  778SOL    HW2 2334   2.081   0.425   2.098 -2.5329 -0.2277 -0.0833
  779SOL     OW 2335   0.171   3.054   0.060 -0.1982  0.2405 -0.0785
  779SOL    HW1 2336   0.181   2.992   3.068  0.5418 -1.5081 -1.1737
  779SOL    HW2 2337   0.198   3.013   0.143 -0.6198  0.5577 -0.2366
  780SOL     OW 2338   2.229   0.040   2.486 -0.5028  0.7242  0.1691
  780SOL    HW1 2339   2.175   0.129   2.493 -1.5489  0.2340  2.2906
  780SOL    HW2 2340   2.323   0.057   2.458  0.2160 -1.0985 -1.9597
  781SOL     OW 2341   0.467   0.349   1.718  0.4832  0.5759  0.4172
  781SOL    HW1 2342   0.533   0.273   1.742  0.3616  0.7615 -1.1330
  781SOL    HW2 2343   0.369   0.319   1.744  3.0510 -1.5489  0.5001
  782SOL     OW 2344   1.618   2.038   3.025  0.2405 -0.6821  0.4917
  782SOL    HW1 2345   1.701   2.014   3.073 -1.7562 -1.4064  0.3292
  782SOL    HW2 2346   1.639   2.084   2.940 -0.3194 -1.6729  0.9750
  783SOL     OW 2347   1.083   1.662   1.584 -0.2917 -0.0192  0.0658
  783SOL    HW1 2348   1.104   1.572   1.618  0.1776  0.4437 -0.9080
  783SOL    HW2 2349   1.158   1.706   1.532 -2.1561 -0.9657  1.8261
  784SOL     OW 2350   1.839   0.684   2.116  0.7919 -0.4151  0.6036
  784SOL    HW1 2351   1.889   0.600   2.080  0.5057 -2.9717 -2.4253
  784SOL    HW2 2352   1.862   0.771   2.061 -0.6091 -0.2020 -1.9295
  785SOL     OW 2353   2.935   0.342   0.897  0.9231 -0.4805 -0.4346
  785SOL    HW1 2354   2.890   0.359   0.990 -1.5002  1.1871  2.7668
  785SOL    HW2 2355   2.961   0.423   0.845  0.5158 -5.5246 -0.0085
  786SOL     OW 2356   1.750   3.028   0.337  0.0017 -0.2934 -0.1270
  786SOL    HW1 2357   1.786   2.949   0.394  0.1276 -2.9327 -2.5936
  786SOL    HW2 2358   1.650   3.014   0.331 -1.0536 -0.3880 -0.1289
  787SOL     OW 2359   1.118   0.109   0.818  1.0340 -0.0668  0.0951
  787SOL    HW1 2360   1.199   0.112   0.755  0.0963  1.1552  0.3209
  787SOL    HW2 2361   1.055   0.192   0.812 -1.0534  0.0900  0.2689
  788SOL     OW 2362   0.084   1.642   1.086 -0.3853  0.3787 -0.3756
  788SOL    HW1 2363   0.094   1.546   1.053  1.0940  0.1455  3.0011
  788SOL    HW2 2364   0.128   1.657   1.176  0.3420  2.8208 -2.7675
  789SOL     OW 2365   2.869   0.741   2.065  0.2115  0.0028  0.5423
  789SOL    HW1 2366   2.838   0.657   2.123 -2.8688  0.9319  0.2292
  789SOL    HW2 2367   2.960   0.774   2.095 -0.2950  1.3581  1.1479
  790SOL     OW 2368   0.735   0.601   2.506 -0.1353  0.4005 -0.2873
  790SOL    HW1 2369   0.698   0.612   2.599  0.2352  0.5489  2.0407
  790SOL    HW2 2370   0.669   0.608   2.434  3.1127  1.9706  2.1008
  791SOL     OW 2371   2.649   0.297   3.013  0.2078  0.2554 -0.3668
  791SOL    HW1 2372   2.549   0.307   3.033 -0.1020 -0.4922  1.8344
  791SOL    HW2 2373   2.680   0.204   3.017 -0.5275  0.0474 -1.7323
  792SOL     OW 2374   1.475   0.699   1.196 -0.6722 -0.2147 -0.7329
  792SOL    HW1 2375   1.452   0.629   1.129 -1.0437 -3.9022 -1.9881
  792SOL    HW2 2376   1.573   0.682   1.234  2.6292  0.0080  2.3145
  793SOL     OW 2377   0.248   0.101   1.394  0.2186  0.1067 -0.0983
  793SOL    HW1 2378   0.186   0.088   1.474 -0.6900  2.6876  1.0312
  793SOL    HW2 2379   0.202   0.084   1.306  0.9353 -3.5293  1.8057
  794SOL     OW 2380   0.165   0.400   2.212  0.3147  0.7476 -0.0104
  794SOL    HW1 2381   0.139   0.500   2.202  0.1418 -1.3400  1.0812
  794SOL    HW2 2382   0.250   0.383   2.160  1.4308  0.8179 -0.1673
  795SOL     OW 2383   0.291   2.292   2.660 -0.4539 -0.1564  0.6753
  795SOL    HW1 2384   0.384   2.249   2.660  0.3925 -0.0695  0.2416
  795SOL    HW2 2385   0.287   2.378   2.603  0.5483  0.3668  0.8010
  796SOL     OW 2386   2.012   0.439   2.830 -0.0803 -0.1032 -0.0031
  796SOL    HW1 2387   1.940   0.513   2.821  2.3248  1.1340  0.9916
  796SOL    HW2 2388   1.966   0.361   2.883 -2.0614 -2.2036  2.9331
  797SOL     OW 2389   2.415   2.098   2.798  0.6690 -0.0136  0.1114
  797SOL    HW1 2390   2.449   2.006   2.823 -0.5480  0.0932  0.2251
  797SOL    HW2 2391   2.413   2.162   2.878  2.4952 -0.9398  1.0419
  798SOL     OW 2392   0.212   0.663   1.628 -0.2355  0.0013  0.1592
  798SOL    HW1 2393   0.250   0.594   1.557  1.2301 -1.9800 -1.9176
  798SOL    HW2 2394   0.134   0.623   1.678  3.2256  2.6924 -0.4874
  799SOL     OW 2395   0.673   0.180   1.742  0.1646 -0.0679  0.1500
  799SOL    HW1 2396   0.731   0.249   1.703 -1.5977  0.1964 -0.6645
  799SOL    HW2 2397   0.695   0.089   1.700 -0.2904  3.5934  0.0691
  800SOL     OW 2398   3.036   2.519   0.202  0.3127  0.1778 -0.1501
  800SOL    HW1 2399   3.037   2.423   0.230  1.6051  1.7212 -0.0924
  800SOL    HW2 2400   0.045   2.561   0.210  2.6617 -1.0308  1.7551
  801SOL     OW 2401   1.583   1.853   0.767  0.2610 -0.4526 -0.2038
  801SOL    HW1 2402   1.653   1.847   0.841  0.4573  1.3788  1.8202
  801SOL    HW2 2403   1.508   1.784   0.781 -2.3043  1.9901 -0.1436
  802SOL     OW 2404   0.829   0.600   0.138  0.5278  0.1044  0.1271
  802SOL    HW1 2405   0.830   0.625   0.235 -0.0934 -0.8906  0.3683
  802SOL    HW2 2406   0.756   0.654   0.094 -2.0433  1.8153 -0.5249
  803SOL     OW 2407   1.195   1.116   1.966 -0.2589 -0.1587 -0.1332
  803SOL    HW1 2408   1.185   1.099   1.865 -0.7635  1.6472  1.5545
  803SOL    HW2 2409   1.288   1.149   1.988 -2.1012 -1.9389  0.2527
  804SOL     OW 2410   1.817   2.270   1.360 -0.0874  0.4412 -0.4478
  804SOL    HW1 2411   1.845   2.227   1.448 -0.9755  3.5047 -0.0706
  804SOL    HW2 2412   1.803   2.366   1.383 -0.4553  0.3207  4.1807
  805SOL     OW 2413   2.963   2.054   2.380  0.3329  0.5063  0.3756
  805SOL    HW1 2414   2.956   1.993   2.297 -1.2484 -2.8014 -2.7285
  805SOL    HW2 2415   3.030   2.125   2.355 -0.6763  0.0199  1.2650
  806SOL     OW 2416   0.553   2.543   0.426  0.0651 -0.4279  0.3325
  806SOL    HW1 2417   0.590   2.602   0.353 -0.6690 -0.2959  3.4549
  806SOL    HW2 2418   0.474   2.487   0.399  2.2202  3.3683 -3.9769
  807SOL     OW 2419   2.321   1.063   2.868  0.4864 -0.8943  0.4620
  807SOL    HW1 2420   2.345   1.057   2.967 -1.9245 -1.2778  1.6193
  807SOL    HW2 2421   2.280   0.975   2.840 -1.7885 -0.3440  1.8316
  808SOL     OW 2422   1.391   2.313   0.892 -0.0417  0.6324  0.0496
  808SOL    HW1 2423   1.476   2.263   0.894  2.5649 -0.5238  2.3636
  808SOL    HW2 2424   1.389   2.381   0.970  2.4668  0.5081 -1.2381
  809SOL     OW 2425   0.193   0.524   0.850 -0.5847 -0.1008 -0.6790
  809SOL    HW1 2426   0.162   0.603   0.908  0.6977  0.7170  1.2254
  809SOL    HW2 2427   0.219   0.442   0.913 -0.2842 -0.7146  2.7339
  810SOL     OW 2428   1.201   1.628   0.144 -0.2880  0.2300  0.3408
  810SOL    HW1 2429   1.214   1.533   0.181  1.3147  0.4349 -1.2638
  810SOL    HW2 2430   1.265   1.643   0.067 -0.4496 -1.4633 -1.8540
  811SOL     OW 2431   1.623   2.903   1.587 -0.1712  0.4567  0.3681
  811SOL    HW1 2432   1.611   2.839   1.508 -1.2940 -0.2558 -1.0298
  811SOL    HW2 2433   1.577   2.866   1.668  1.1882  1.4697 -2.2847
  812SOL     OW 2434   1.379   0.206   0.761  0.7436 -0.2503 -0.0601
  812SOL    HW1 2435   1.360   0.309   0.755 -0.6692  1.3251  1.4742
  812SOL    HW2 2436   1.477   0.185   0.780 -2.5359  1.2260 -0.5087
  813SOL     OW 2437   1.394   2.878   2.182 -0.4390 -0.3802  0.0361
  813SOL    HW1 2438   1.324   2.842   2.249 -5.7069  0.9265  2.6457
  813SOL    HW2 2439   1.388   2.981   2.182 -1.8352  1.1448  1.3745
  814SOL     OW 2440   1.476   2.863   1.912  0.3400 -0.1967  0.2816
  814SOL    HW1 2441   1.478   2.867   2.016  2.3207 -1.3903  1.8027
  814SOL    HW2 2442   1.505   2.952   1.878 -0.3564 -1.0347  0.6374
  815SOL     OW 2443   0.453   2.939   0.199  0.2311  0.2601 -0.1062
  815SOL    HW1 2444   0.486   3.029   0.229 -0.4136 -2.3406  2.5353
  815SOL    HW2 2445   0.503   2.867   0.250  2.4502  1.5700 -3.4364
  816SOL     OW 2446   2.214   1.500   2.660  0.0318 -0.2145  0.1214
  816SOL    HW1 2447   2.235   1.400   2.643  3.5562  2.2984  0.7708
  816SOL    HW2 2448   2.200   1.550   2.572  0.7054 -0.4900  3.4584
  817SOL     OW 2449   2.582   2.297   2.494 -0.8086  0.2673 -0.2733
  817SOL    HW1 2450   2.486   2.275   2.519  1.9135 -0.7345  1.5668
  817SOL    HW2 2451   2.639   2.210   2.496  1.2629  3.0987 -0.2771
  818SOL     OW 2452   1.028   1.211   0.268 -0.5027  0.5909 -0.0406
  818SOL    HW1 2453   0.950   1.270   0.276  2.9103 -0.0189 -0.4449
  818SOL    HW2 2454   1.114   1.266   0.243  3.1818  1.0409  2.8188
  819SOL     OW 2455   1.678   1.165   2.967  0.0733  0.2548 -0.8787
  819SOL    HW1 2456   1.600   1.192   2.903 -0.0048  1.5989  0.4760
  819SOL    HW2 2457   1.671   1.214   3.059  1.9778 -1.0608 -1.7147
  820SOL     OW 2458   0.365   1.000   0.860  0.1193  0.2043 -0.1266
  820SOL    HW1 2459   0.448   1.038   0.903  0.2933 -0.9285 -3.9174
  820SOL    HW2 2460   0.375   1.014   0.760 -0.0180 -1.0208  4.3976
  821SOL     OW 2461   0.807   2.934   1.406  0.0369  0.5070  0.5946
  821SOL    HW1 2462   0.723   2.933   1.342 -1.7541 -0.3055 -2.1032
  821SOL    HW2 2463   0.846   2.840   1.431  1.6750 -3.9088  2.3325
  822SOL     OW 2464   1.931   1.918   2.864 -0.3611 -0.2133 -0.4878
  822SOL    HW1 2465   1.908   1.979   2.944  2.3842 -1.6914 -1.1796
  822SOL    HW2 2466   2.003   1.959   2.812 -1.8293  1.5196  3.0917
  823SOL     OW 2467   0.969   0.392   2.300 -0.0670 -0.1128  0.0095
  823SOL    HW1 2468   0.978   0.317   2.230 -2.0404  0.4334 -2.0694
  823SOL    HW2 2469   1.044   0.461   2.290 -0.3438  1.0148  0.5725
  824SOL     OW 2470   2.543   2.861   1.402  0.1755  0.2926 -0.1088
  824SOL    HW1 2471   2.469   2.866   1.477 -0.0388  0.3686  2.6506
  824SOL    HW2 2472   2.549   2.947   1.349  0.0275 -1.7259  2.3356
  825SOL     OW 2473   0.212   1.646   2.393  0.0898  0.2941  0.2217
  825SOL    HW1 2474   0.274   1.703   2.333  1.1683  0.9497 -1.7797
  825SOL    HW2 2475   0.117   1.640   2.351  0.0042 -1.2202  0.7605
  826SOL     OW 2476   1.517   0.402   2.940 -0.3123  0.1374  0.7034
  826SOL    HW1 2477   1.569   0.355   2.865  1.8817  1.4661 -2.2933
  826SOL    HW2 2478   1.522   0.345   3.024  0.6651  0.5408 -1.7295
  827SOL     OW 2479   0.008   2.087   2.014  0.3169 -0.1625 -0.0084
  827SOL    HW1 2480   3.081   2.032   1.934 -0.6765  0.7381 -0.2667
  827SOL    HW2 2481   0.056   2.038   2.089  1.7751 -0.1271  1.0367
  828SOL     OW 2482   0.144   0.018   1.148 -0.3732  0.3199 -0.3426
  828SOL    HW1 2483   0.132   0.092   1.082 -1.5387  1.0085  0.4238
  828SOL    HW2 2484   0.054   3.075   1.178  1.2722  0.0467 -0.9007
  829SOL     OW 2485   1.000   1.637   1.947  0.4586  0.3233 -0.9601
  829SOL    HW1 2486   0.972   1.560   1.890  3.5808  1.5472  3.2294
  829SOL    HW2 2487   0.923   1.703   1.966 -1.0123  2.4929  0.2579
  830SOL     OW 2488   0.979   0.871   1.599 -0.0734 -0.1340 -0.4190
  830SOL    HW1 2489   0.916   0.818   1.539  1.3581 -0.2524 -1.0834
  830SOL    HW2 2490   0.933   0.874   1.695 -2.4774 -2.1890 -1.1588
  831SOL     OW 2491   2.504   2.015   0.226  0.1693 -0.5362 -0.1203
  831SOL    HW1 2492   2.587   2.035   0.169  0.8490  1.4621  2.0479
  831SOL    HW2 2493   2.522   1.929   0.280 -1.9626 -1.0021 -0.7734
  832SOL     OW 2494   0.925   2.408   3.033 -0.2077  0.3892  0.0686
  832SOL    HW1 2495   0.891   2.349   0.019  1.7632  2.3287  1.3576
  832SOL    HW2 2496   0.874   2.396   2.943  1.1197  0.0144 -2.0187
  833SOL     OW 2497   3.078   0.365   1.530  0.1436 -0.0965 -0.4680
  833SOL    HW1 2498   0.065   0.313   1.569 -0.1017 -2.1947  0.0355
  833SOL    HW2 2499   0.003   0.390   1.435  0.4696  0.2664  1.5670
  834SOL     OW 2500   2.956   0.674   0.977 -0.0561 -0.6649 -0.4486
  834SOL    HW1 2501   2.943   0.660   1.078  1.4899  0.2594 -1.9122
  834SOL    HW2 2502   2.960   0.774   0.949 -0.7051  1.7042 -0.7447
  835SOL     OW 2503   2.625   0.457   0.355  0.5911 -0.0479  0.2024
  835SOL    HW1 2504   2.681   0.404   0.424  0.9791 -1.7385  0.7108
  835SOL    HW2 2505   2.526   0.435   0.380 -1.1881  0.9233  2.9324
  836SOL     OW 2506   0.517   2.147   2.659  0.1615 -0.7592  0.4051
  836SOL    HW1 2507   0.555   2.052   2.664  0.2338 -1.1386 -0.8202
  836SOL    HW2 2508   0.553   2.193   2.577  0.5743  0.6141  1.3285
  837SOL     OW 2509   1.405   1.794   0.261  0.3203 -0.3165  0.3854
  837SOL    HW1 2510   1.479   1.783   0.329 -1.1444 -0.5355 -1.4934
  837SOL    HW2 2511   1.372   1.702   0.226 -3.0237 -4.1641 -0.9301
  838SOL     OW 2512   2.257   0.831   2.244  0.1777  0.2701  0.2593
  838SOL    HW1 2513   2.300   0.883   2.318 -1.8032  1.4952 -2.1017
  838SOL    HW2 2514   2.229   0.884   2.159 -1.7350 -0.2247  0.4982
  839SOL     OW 2515   0.962   0.963   2.279 -0.5740  0.4121  0.1137
  839SOL    HW1 2516   1.048   1.025   2.278 -0.0935  0.2273  2.7768
  839SOL    HW2 2517   0.892   1.015   2.334  2.2127  0.7608 -1.7150
  840SOL     OW 2518   0.589   0.976   0.296 -0.2171 -0.1229 -0.3205
  840SOL    HW1 2519   0.490   0.986   0.312  3.4329 -0.9202  2.0237
  840SOL    HW2 2520   0.625   1.049   0.240  0.3480 -0.8386 -2.0504
  841SOL     OW 2521   0.853   2.238   0.148 -0.3554  0.0002 -0.3006
  841SOL    HW1 2522   0.829   2.288   0.233  2.3436 -2.1237 -0.9139
  841SOL    HW2 2523   0.809   2.144   0.135  0.2841 -1.1524  0.1036
  842SOL     OW 2524   0.420   0.538   0.694 -0.0584 -0.1252  0.4736
  842SOL    HW1 2525   0.377   0.528   0.786  1.7181 -3.2213  0.3864
  842SOL    HW2 2526   0.491   0.459   0.684  0.1560 -3.0192 -0.1137
  843SOL     OW 2527   0.615   0.509   1.556  0.3847  0.0343 -0.5459
  843SOL    HW1 2528   0.540   0.453   1.603  1.1437  1.3065  1.9636
  843SOL    HW2 2529   0.580   0.555   1.476  0.4238  3.7126  0.7658
  844SOL     OW 2530   2.120   2.369   2.777  0.4319 -0.1283  0.0130
  844SOL    HW1 2531   2.184   2.439   2.801 -2.2523  2.2062 -2.5095
  844SOL    HW2 2532   2.170   2.289   2.742 -1.1340 -0.7510 -0.5619
  845SOL     OW 2533   2.449   2.946   1.817 -0.1946 -0.1737  0.2713
  845SOL    HW1 2534   2.491   2.980   1.905 -1.9193 -1.8192  1.1858
  845SOL    HW2 2535   2.454   2.844   1.826 -1.7507 -0.8640  0.1591
  846SOL     OW 2536   1.907   0.925   2.483  0.7904 -0.0598 -0.2275
  846SOL    HW1 2537   1.866   0.846   2.432 -0.6062 -0.9041  1.9926
  846SOL    HW2 2538   1.944   0.997   2.423 -1.3756 -0.6478  2.9847
  847SOL     OW 2539   0.048   0.047   1.849 -0.3849  0.1540 -0.1828
  847SOL    HW1 2540   3.036   0.066   1.845 -1.0709 -1.6130 -1.2051
  847SOL    HW2 2541   0.081   0.016   1.941 -2.8101  2.1634 -0.0172
  848SOL     OW 2542   2.640   2.591   0.109 -0.0976 -0.2176 -0.1292
  848SOL    HW1 2543   2.736   2.614   0.117  0.8988 -3.8597  1.2148
  848SOL    HW2 2544   2.576   2.648   0.168 -1.3863 -1.3599  2.8164
  849SOL     OW 2545   0.569   2.989   0.632 -0.3769  0.1342  0.2877
  849SOL    HW1 2546   0.517   2.902   0.617 -2.5567 -0.1405  0.1296
  849SOL    HW2 2547   0.542   3.040   0.715 -1.6035 -0.3968 -0.8514
  850SOL     OW 2548   0.675   2.234   0.719 -0.4604  0.1526  0.5085
  850SOL    HW1 2549   0.684   2.334   0.747 -1.1292  0.2231  1.6057
  850SOL    HW2 2550   0.747   2.203   0.652  2.1608  1.3964  2.9255
  851SOL     OW 2551   2.197   0.483   3.014 -0.2323 -0.1056 -0.0839
  851SOL    HW1 2552   2.132   0.486   2.938  0.9929 -0.8511 -0.4675
  851SOL    HW2 2553   2.270   0.406   3.012  2.4836 -2.9943  0.8867
  852SOL     OW 2554   1.592   2.005   2.569  0.8856 -0.5135 -0.6692
  852SOL    HW1 2555   1.613   1.905   2.573 -2.5592 -0.3806 -0.9998
  852SOL    HW2 2556   1.617   2.033   2.477  0.7763 -0.9650  1.8665
  853SOL     OW 2557   3.014   2.250   0.281 -0.5621 -0.3841  0.6869
  853SOL    HW1 2558   3.012   2.180   0.207 -0.2908  1.3955  1.7852
  853SOL    HW2 2559   3.065   2.208   0.356  0.0267  0.4227 -1.3777
  854SOL     OW 2560   1.620   0.539   2.042  0.6615 -0.1992 -0.2015
  854SOL    HW1 2561   1.572   0.486   2.119  0.0528 -1.0129  3.9678
  854SOL    HW2 2562   1.703   0.590   2.068 -3.6370  0.1868 -1.3389
  855SOL     OW 2563   0.208   2.706   0.562 -0.5054 -0.4610  0.4166
  855SOL    HW1 2564   0.228   2.628   0.627  0.2628  2.5722  1.3815
  855SOL    HW2 2565   0.184   2.680   0.470 -1.2838  2.9629 -1.0746
  856SOL     OW 2566   0.366   2.959   2.544 -0.0648 -0.4798  0.1631
  856SOL    HW1 2567   0.363   2.865   2.498 -1.2024 -0.4373 -0.6480
  856SOL    HW2 2568   0.459   2.992   2.569  3.2553  1.7605 -0.7520
  857SOL     OW 2569   1.133   0.196   1.762  0.5226 -0.2524 -0.0582
  857SOL    HW1 2570   1.148   0.292   1.793 -0.7325 -2.2518 -0.9384
  857SOL    HW2 2571   1.110   0.201   1.661 -1.4850 -1.3034  0.0448
  858SOL     OW 2572   0.092   2.085   1.723  0.7026  0.2249 -0.1891
  858SOL    HW1 2573   0.009   2.141   1.735 -0.6974 -0.3876  0.7646
  858SOL    HW2 2574   0.171   2.140   1.692  0.3652  0.1429 -2.7986
  859SOL     OW 2575   2.171   2.748   1.866 -0.0076  0.0984  0.2875
  859SOL    HW1 2576   2.256   2.716   1.915 -2.6701  0.2999 -0.9561
  859SOL    HW2 2577   2.140   2.665   1.823 -0.1445  2.9717  1.4843
  860SOL     OW 2578   1.803   0.586   0.624  0.0162 -0.3430  0.2842
  860SOL    HW1 2579   1.803   0.687   0.642 -1.3786 -1.0071  0.7598
  860SOL    HW2 2580   1.793   0.570   0.520 -0.2380  0.3283 -1.9073
  861SOL     OW 2581   2.778   0.640   0.789 -0.3576 -0.2210 -0.3734
  861SOL    HW1 2582   2.826   0.636   0.880 -0.7208 -1.1333 -1.3368
  861SOL    HW2 2583   2.846   0.647   0.714 -1.9934 -1.0177  0.3422
  862SOL     OW 2584   1.950   0.512   1.565  0.4488  0.3663 -0.2525
  862SOL    HW1 2585   1.974   0.582   1.496  0.7823 -0.8561  0.3423
  862SOL    HW2 2586   2.032   0.486   1.612 -1.7204 -1.1387 -1.4211
  863SOL     OW 2587   0.622   0.816   1.108 -0.3294  0.2086 -0.2110
  863SOL    HW1 2588   0.552   0.758   1.155 -4.2337 -0.8922 -1.5744
  863SOL    HW2 2589   0.674   0.876   1.178  3.1340  0.3998  2.2066
  864SOL     OW 2590   2.933   2.967   2.011 -0.5460 -0.3656 -0.2172
  864SOL    HW1 2591   2.914   2.955   2.109 -1.5229  2.2219 -1.1464
  864SOL    HW2 2592   2.905   3.063   1.986  0.0427  0.2082  4.7294
  865SOL     OW 2593   1.211   0.519   2.263  0.9434  0.6791  0.2841
  865SOL    HW1 2594   1.251   0.563   2.343  1.2724  1.6138 -0.8322
  865SOL    HW2 2595   1.272   0.442   2.236  0.1977  0.1627  0.4409
  866SOL     OW 2596   2.472   2.751   0.209 -0.2132  0.2173 -0.0314
  866SOL    HW1 2597   2.375   2.766   0.228  2.0596 -1.2323  1.5449
  866SOL    HW2 2598   2.530   2.806   0.273 -0.4198  0.3987 -1.5843
  867SOL     OW 2599   2.676   2.781   0.429 -0.6796 -0.0707 -0.0511
  867SOL    HW1 2600   2.656   2.684   0.405 -0.0320 -2.5260  1.1267
  867SOL    HW2 2601   2.769   2.805   0.402 -1.3728 -0.8371 -2.2283
  868SOL     OW 2602   1.848   0.931   3.007  0.0734  0.4999  0.3168
  868SOL    HW1 2603   1.932   0.958   3.057 -0.2199  2.3663  1.1362
  868SOL    HW2 2604   1.800   1.017   2.969 -0.2945 -0.0123 -3.3678
  869SOL     OW 2605   2.656   2.495   0.445 -0.3578  0.1661  0.6044
  869SOL    HW1 2606   2.565   2.490   0.493  2.2454  1.2688 -3.7397
  869SOL    HW2 2607   2.658   2.425   0.371  0.5512 -1.8533 -1.1553
  870SOL     OW 2608   2.165   2.183   0.492  0.4695 -0.3422 -0.2458
  870SOL    HW1 2609   2.108   2.155   0.567 -0.1056  2.4153  2.8087
  870SOL    HW2 2610   2.249   2.129   0.484  0.7149 -0.6662 -0.4015
  871SOL     OW 2611   0.476   1.377   1.347 -0.5349  0.1084 -0.5786
  871SOL    HW1 2612   0.441   1.320   1.276  3.6774  2.9281  4.1283
  871SOL    HW2 2613   0.462   1.334   1.439  0.9685 -1.4902  0.4376
  872SOL     OW 2614   1.140   1.951   2.295  0.2141  0.0033 -0.0614
  872SOL    HW1 2615   1.127   2.051   2.266  0.3837  1.0346 -2.0424
  872SOL    HW2 2616   1.172   1.897   2.211  0.6811  0.4747 -4.1808
  873SOL     OW 2617   0.644   2.378   1.959  0.4367  0.2493 -0.5350
  873SOL    HW1 2618   0.691   2.414   1.878  0.3842 -1.8154  2.6900
  873SOL    HW2 2619   0.559   2.429   1.976  3.4980  0.2877  2.2435
  874SOL     OW 2620   0.932   0.321   1.308  0.3947 -0.2839  0.1423
  874SOL    HW1 2621   1.012   0.304   1.244  0.1078 -3.6307  0.1190
  874SOL    HW2 2622   0.956   0.412   1.355  0.3193  2.2662 -0.4465
  875SOL     OW 2623   2.846   0.367   1.141  0.2517  0.1926  0.3157
  875SOL    HW1 2624   2.926   0.415   1.183 -1.0757  0.6946  0.2865
  875SOL    HW2 2625   2.816   0.290   1.203 -0.0766  0.8055  4.5462
  876SOL     OW 2626   0.314   0.996   0.311 -0.2152 -0.6022 -0.0030
  876SOL    HW1 2627   0.308   1.013   0.209  0.5349  1.3480 -0.5772
  876SOL    HW2 2628   0.222   1.024   0.353  0.1308 -0.8411  1.0095
  877SOL     OW 2629   1.186   0.707   1.520  0.2994  0.7297  0.7489
  877SOL    HW1 2630   1.214   0.755   1.432  2.8698 -0.5450 -2.4994
  877SOL    HW2 2631   1.110   0.758   1.568 -2.6616  0.4856  1.4094
  878SOL     OW 2632   2.002   2.181   0.238  0.1848  0.1583  0.7451
  878SOL    HW1 2633   2.026   2.245   0.162 -2.5222  1.7680 -0.0365
  878SOL    HW2 2634   2.079   2.173   0.304 -2.2319  1.2910 -1.0816
  879SOL     OW 2635   2.840   1.502   1.343  0.0670 -0.1784  0.3879
  879SOL    HW1 2636   2.818   1.479   1.246  0.2981  0.3333  0.0345
  879SOL    HW2 2637   2.863   1.422   1.401  1.1881 -1.1927 -0.4125
  880SOL     OW 2638   1.458   2.402   0.628 -0.1104  0.1227 -0.1977
  880SOL    HW1 2639   1.426   2.400   0.724  0.2900 -2.3332 -1.0987
  880SOL    HW2 2640   1.476   2.306   0.597  0.6947 -0.6779 -0.2957
  881SOL     OW 2641   0.752   2.349   0.376 -0.4673 -0.0301 -0.3282
  881SOL    HW1 2642   0.773   2.257   0.420  0.6640 -0.5139  0.5220
  881SOL    HW2 2643   0.667   2.390   0.419 -0.5295  1.4955  0.2302
  882SOL     OW 2644   1.985   0.837   1.063 -0.2984  0.1065  0.2818
  882SOL    HW1 2645   2.081   0.846   1.091  2.2031 -0.2714 -1.0105
  882SOL    HW2 2646   1.920   0.878   1.129  1.5559  0.3260  0.2053
  883SOL     OW 2647   1.731   0.960   1.537  0.2378 -0.7634  0.0604
  883SOL    HW1 2648   1.771   0.882   1.587  0.2241  0.6722  2.0449
  883SOL    HW2 2649   1.768   1.052   1.561 -2.3622  0.1045 -3.5173
  884SOL     OW 2650   2.763   0.483   0.111  0.0977 -0.6332  0.5042
  884SOL    HW1 2651   2.728   0.484   0.207  1.1163  2.0230  2.2346
  884SOL    HW2 2652   2.723   0.405   0.062 -1.4756  2.7084  2.0812
  885SOL     OW 2653   0.945   1.300   2.663 -0.3211 -0.1140 -0.2397
  885SOL    HW1 2654   0.946   1.336   2.762 -0.2725  1.0704  2.0518
  885SOL    HW2 2655   0.886   1.359   2.605 -3.7940 -0.2641  1.1889
  886SOL     OW 2656   1.310   2.011   2.534  0.1416 -0.1804 -0.5574
  886SOL    HW1 2657   1.254   1.970   2.457  0.1230  0.4810 -0.8364
  886SOL    HW2 2658   1.408   1.983   2.536 -0.9972 -1.8374 -1.0022
  887SOL     OW 2659   1.153   0.260   1.149  0.1204  0.5390 -0.5292
  887SOL    HW1 2660   1.207   0.195   1.093 -0.5300  1.0475 -0.6136
  887SOL    HW2 2661   1.201   0.290   1.236 -0.6658  1.3415  1.2850
  888SOL     OW 2662   2.545   0.737   1.694  0.0621 -0.4056 -0.1982
  888SOL    HW1 2663   2.643   0.737   1.719 -0.2147 -0.9191  2.1289
  888SOL    HW2 2664   2.517   0.647   1.653 -0.5790 -0.2498  0.9073
  889SOL     OW 2665   2.946   2.571   0.764  0.5716 -0.4531  0.7552
  889SOL    HW1 2666   2.944   2.561   0.663 -0.1317 -0.4269 -1.2642
  889SOL    HW2 2667   2.933   2.483   0.816  0.6404  1.0345  0.5355
  890SOL     OW 2668   1.763   2.160   0.631  0.2592 -0.4937 -0.5043
  890SOL    HW1 2669   1.824   2.242   0.632  4.0138  0.3378 -0.1815
  890SOL    HW2 2670   1.685   2.178   0.569  1.1736  1.7661 -0.8486
  891SOL     OW 2671   0.447   0.935   2.918 -0.1194 -0.5784  0.4008
  891SOL    HW1 2672   0.377   0.970   2.852 -0.7182 -0.7811 -0.0276
  891SOL    HW2 2673   0.513   0.879   2.872  2.0363  0.3263  2.3520
  892SOL     OW 2674   2.963   2.663   1.465  0.0614 -0.3349 -0.1220
  892SOL    HW1 2675   2.974   2.679   1.361  0.1418  0.8523 -1.5643
  892SOL    HW2 2676   2.866   2.659   1.487  1.1013 -1.6191 -1.0884
  893SOL     OW 2677   1.352   0.119   1.032  0.5210  0.4009 -0.4650
  893SOL    HW1 2678   1.446   0.157   1.041  0.3856 -0.6824  1.1930
  893SOL    HW2 2679   1.326   0.121   0.933  1.2739 -0.6050 -0.7064
  894SOL     OW 2680   2.593   0.463   0.738 -0.4073 -0.1607 -0.2988
  894SOL    HW1 2681   2.673   0.525   0.771  3.0696  1.2583 -0.3357
  894SOL    HW2 2682   2.505   0.514   0.736 -0.6771 -0.7241 -1.6165
  895SOL     OW 2683   1.875   1.377   2.512  0.1445 -0.0687  0.0056
  895SOL    HW1 2684   1.889   1.433   2.593 -1.2720 -0.6172 -1.0613
  895SOL    HW2 2685   1.919   1.289   2.535 -1.5785  0.4716 -1.3965
  896SOL     OW 2686   1.513   0.351   1.644  0.3818 -0.2620 -0.1673
  896SOL    HW1 2687   1.468   0.260   1.638  0.5309 -0.0999  2.5822
  896SOL    HW2 2688   1.567   0.376   1.564 -1.4541 -1.1891  0.8977
  897SOL     OW 2689   0.686   1.580   1.784 -0.0780 -0.3071  0.4937
  897SOL    HW1 2690   0.767   1.518   1.793  3.3020 -1.1743  0.6668
  897SOL    HW2 2691   0.708   1.671   1.823 -1.0317 -1.8538 -1.5915
  898SOL     OW 2692   2.299   2.595   2.281  0.0090  0.3124  0.0767
  898SOL    HW1 2693   2.207   2.586   2.237 -1.2070  0.4979 -1.4326
  898SOL    HW2 2694   2.358   2.507   2.265 -2.5604 -3.8709 -2.8851
  899SOL     OW 2695   1.171   1.419   1.370  0.5210  0.3272  0.4280
  899SOL    HW1 2696   1.200   1.342   1.308  1.0804 -0.0136  1.1724
  899SOL    HW2 2697   1.158   1.507   1.315 -2.6878 -0.6852 -0.6036
  900SOL     OW 2698   0.853   2.169   2.642 -0.3463 -0.2286 -0.3645
  900SOL    HW1 2699   0.955   2.169   2.646 -0.1480 -0.0076  0.6088
  900SOL    HW2 2700   0.822   2.212   2.553 -0.8981 -0.6387 -1.0648
  901SOL     OW 2701   0.555   2.022   2.336  0.3900  0.0952 -0.5288
  901SOL    HW1 2702   0.557   2.011   2.235 -0.3202  0.9558  2.1164
  901SOL    HW2 2703   0.465   1.992   2.375  0.1009 -0.3119  2.3025
  902SOL     OW 2704   2.056   1.619   0.304  0.4327  0.5875  0.4917
  902SOL    HW1 2705   2.015   1.557   0.231 -1.1075 -2.4566 -1.3086
  902SOL    HW2 2706   2.143   1.575   0.333  1.7870 -0.5570 -0.9627
  903SOL     OW 2707   1.916   1.743   0.499 -0.3038 -0.0038 -0.1997
  903SOL    HW1 2708   1.879   1.825   0.445  0.5516  2.8539 -3.8393
  903SOL    HW2 2709   1.962   1.685   0.430  0.3138  0.0924  2.0695
  904SOL     OW 2710   1.069   0.685   2.683 -0.0062 -0.6376  0.0561
  904SOL    HW1 2711   1.157   0.703   2.630  4.6574 -0.6294 -1.3676
  904SOL    HW2 2712   1.017   0.609   2.635 -0.5013  1.8755 -1.4595
  905SOL     OW 2713   2.701   0.213   0.823 -0.7227 -0.0833 -0.3500
  905SOL    HW1 2714   2.634   0.291   0.814  1.6022  0.6079 -0.7633
  905SOL    HW2 2715   2.794   0.252   0.838  1.5251 -1.0951  1.1082
  906SOL     OW 2716   2.702   2.093   0.512 -0.3125  0.2448  0.5637
  906SOL    HW1 2717   2.755   2.009   0.506 -0.6408 -0.8285  2.1686
  906SOL    HW2 2718   2.755   2.152   0.575  0.5769 -2.7682  0.0275
  907SOL     OW 2719   1.510   0.617   0.412 -0.7269  0.3658  0.5926
  907SOL    HW1 2720   1.513   0.519   0.391  2.2754  0.5350  1.3467
  907SOL    HW2 2721   1.481   0.640   0.504  0.6275 -0.8308 -1.1319
  908SOL     OW 2722   1.727   0.211   1.286  0.4737  0.3283  0.3029
  908SOL    HW1 2723   1.820   0.208   1.246 -0.1922  1.4194 -0.5708
  908SOL    HW2 2724   1.705   0.127   1.341 -1.1359 -1.6469  1.2910
  909SOL     OW 2725   2.683   0.708   1.097  0.0365 -0.9938 -0.4855
  909SOL    HW1 2726   2.676   0.608   1.108 -1.4983  2.2551  2.8572
  909SOL    HW2 2727   2.654   0.735   1.003  0.5083 -0.7967 -0.4014
  910SOL     OW 2728   1.197   2.770   2.357 -0.4777  0.1912 -0.2393
  910SOL    HW1 2729   1.186   2.760   2.456  0.6690 -1.3654 -2.6699
  910SOL    HW2 2730   1.114   2.729   2.308 -0.4085 -1.0848 -0.9401
  911SOL     OW 2731   2.276   0.783   1.798  0.4994 -0.4080  0.2604
  911SOL    HW1 2732   2.373   0.776   1.762  0.1638 -2.3284  1.0416
  911SOL    HW2 2733   2.218   0.846   1.746  2.0270  1.0294  1.7100
  912SOL     OW 2734   2.480   1.878   1.516 -0.3178  0.1726  0.4233
  912SOL    HW1 2735   2.432   1.885   1.428 -0.7721 -0.7666  0.1124
  912SOL    HW2 2736   2.576   1.908   1.499  0.1158 -1.9308 -0.9446
  913SOL     OW 2737   2.699   2.186   1.330  0.6368 -0.4210 -1.1011
  913SOL    HW1 2738   2.639   2.220   1.407 -2.1234  0.9757  1.5979
  913SOL    HW2 2739   2.644   2.139   1.255 -0.9920  0.6957 -1.1675
  914SOL     OW 2740   2.029   1.761   1.414  0.0445  0.2135  0.2354
  914SOL    HW1 2741   2.012   1.672   1.363  0.6373 -0.1648  0.9122
  914SOL    HW2 2742   2.014   1.752   1.511  0.0503  1.5045 -0.7736
  915SOL     OW 2743   1.298   1.708   1.440 -0.0133 -0.2096  0.2731
  915SOL    HW1 2744   1.304   1.808   1.463  0.3870  1.8120  0.1033
  915SOL    HW2 2745   1.296   1.702   1.337 -0.1319 -1.9940 -1.4567
  916SOL     OW 2746   2.688   2.634   1.478 -0.0292  0.1625  0.0029
  916SOL    HW1 2747   2.699   2.577   1.396 -0.6599 -1.7607  0.0172
  916SOL    HW2 2748   2.655   2.726   1.455  1.4947 -0.0583  1.8225
  917SOL     OW 2749   2.512   1.888   2.566  0.1893 -0.3812 -0.2963
  917SOL    HW1 2750   2.568   1.954   2.519  1.1433 -2.1046 -0.3717
  917SOL    HW2 2751   2.524   1.898   2.668 -2.6780 -1.5965  1.5779
  918SOL     OW 2752   1.696   2.060   2.307 -0.2922  0.2018  0.2213
  918SOL    HW1 2753   1.671   2.159   2.314 -2.1835 -2.4946  1.8469
  918SOL    HW2 2754   1.787   2.038   2.266  0.2781  1.3587 -0.7716
  919SOL     OW 2755   1.372   2.248   1.847 -0.4287 -0.4951 -0.2955
  919SOL    HW1 2756   1.471   2.233   1.878  2.1096 -1.7536  3.3725
  919SOL    HW2 2757   1.368   2.220   1.753 -0.0498  1.1847  3.5038
  920SOL     OW 2758   3.022   0.434   2.848 -0.4291 -0.4456  0.6307
  920SOL    HW1 2759   0.005   0.480   2.793  1.2626  0.7513  0.2009
  920SOL    HW2 2760   3.033   0.332   2.847  1.5540 -1.9299  1.4494
  921SOL     OW 2761   2.769   0.110   2.515  0.7463  0.1117 -0.2782
  921SOL    HW1 2762   2.854   0.108   2.461  0.4417 -0.8695  1.2097
  921SOL    HW2 2763   2.752   0.203   2.555 -0.7486 -0.0989 -2.1566
  922SOL     OW 2764   2.353   1.836   0.657 -0.0928  0.2428 -0.6164
  922SOL    HW1 2765   2.339   1.930   0.622 -0.6354 -0.7389  0.4977
  922SOL    HW2 2766   2.292   1.814   0.735  1.0985 -1.4112 -3.1200
  923SOL     OW 2767   0.277   1.762   0.455  0.1192  0.5365 -0.0905
  923SOL    HW1 2768   0.344   1.768   0.381 -0.1156 -0.4829  1.0108
  923SOL    HW2 2769   0.332   1.766   0.544 -2.2334  0.1134 -3.6530
  924SOL     OW 2770   1.434   0.610   3.075 -0.0743  0.0299 -0.3687
  924SOL    HW1 2771   1.502   0.682   3.088  0.3108 -3.9676 -2.3286
  924SOL    HW2 2772   1.472   0.539   3.015  2.8484  1.7358  0.1618
  925SOL     OW 2773   2.542   1.091   0.693  0.5213  0.1593  0.1184
  925SOL    HW1 2774   2.498   1.168   0.740  0.5984  0.2283 -0.3984
  925SOL    HW2 2775   2.509   1.095   0.596 -0.5263 -0.6301  1.8854
  926SOL     OW 2776   2.678   1.091   1.038 -0.0290  0.1825 -0.0547
  926SOL    HW1 2777   2.709   1.005   1.085 -0.9039  0.2326  0.0166
  926SOL    HW2 2778   2.727   1.100   0.951 -0.1179  1.1416  2.3265
  927SOL     OW 2779   0.431   1.391   0.273  0.2842  0.2632  0.5146
  927SOL    HW1 2780   0.464   1.350   0.185  0.7566  0.6404 -0.4556
  927SOL    HW2 2781   0.470   1.483   0.281  0.6378 -2.8287 -0.8642
  928SOL     OW 2782   0.003   0.319   2.433 -0.0916  0.0440 -0.1784
  928SOL    HW1 2783   3.080   0.224   2.465 -1.3152  0.3036  0.3917
  928SOL    HW2 2784   0.082   0.320   2.367  4.3116  1.2025  1.1919
  929SOL     OW 2785   3.003   2.983   1.197  0.2265 -0.2615 -0.0003
  929SOL    HW1 2786   2.922   3.001   1.132 -0.8830  0.0761 -2.2287
  929SOL    HW2 2787   3.045   2.895   1.180 -0.3721  0.0526  0.7289
  930SOL     OW 2788   1.905   2.263   1.614 -0.0884 -0.0306  0.0035
  930SOL    HW1 2789   1.880   2.298   1.708  1.2125  2.4300  0.7725
  930SOL    HW2 2790   2.005   2.272   1.607 -1.1155  1.7212  2.0443
  931SOL     OW 2791   1.536   1.277   0.915  0.0187  0.3029  0.2983
  931SOL    HW1 2792   1.519   1.326   0.999  1.1305  0.5592 -1.3564
  931SOL    HW2 2793   1.492   1.182   0.906 -2.0151 -0.3571 -1.4256
  932SOL     OW 2794   3.001   0.983   1.219 -0.2568  0.3738  0.4505
  932SOL    HW1 2795   2.901   0.987   1.200  2.6508  2.8260 -2.2373
  932SOL    HW2 2796   3.034   1.075   1.252 -1.3549  0.8470  0.7817
  933SOL     OW 2797   2.560   1.438   1.537 -0.1597  0.3050  0.1166
  933SOL    HW1 2798   2.603   1.510   1.596 -0.2871  2.2447  0.0981
  933SOL    HW2 2799   2.630   1.368   1.509 -0.5279  1.1962  1.8235
  934SOL     OW 2800   1.590   0.239   1.043  0.3317 -0.6124  0.3006
  934SOL    HW1 2801   1.611   0.208   1.132  0.2111  1.2257 -2.4531
  934SOL    HW2 2802   1.672   0.214   0.990  3.8279  3.4488 -1.1581
  935SOL     OW 2803   0.426   1.524   1.041  0.2977 -0.2087 -0.1364
  935SOL    HW1 2804   0.380   1.447   1.088  0.7433 -0.0933 -2.9632
  935SOL    HW2 2805   0.372   1.612   1.054  1.1261  1.6011 -1.7132
  936SOL     OW 2806   3.004   0.921   0.859 -0.2938 -0.1056 -0.0329
  936SOL    HW1 2807   2.944   0.995   0.834 -0.5229 -2.5574  2.1317
  936SOL    HW2 2808   0.002   0.946   0.903 -0.4550  0.2698  0.2990
  937SOL     OW 2809   1.783   2.787   0.873  0.1522 -0.3463 -0.0823
  937SOL    HW1 2810   1.713   2.863   0.868  1.8743  0.6018 -1.0434
  937SOL    HW2 2811   1.843   2.787   0.789 -0.6820  3.7250  1.0488
  938SOL     OW 2812   2.528   2.482   0.934  0.2258 -0.0090 -0.1282
  938SOL    HW1 2813   2.579   2.554   0.892 -1.5030 -1.8236 -4.0529
  938SOL    HW2 2814   2.434   2.515   0.958  1.5408 -1.6032 -1.2938
  939SOL     OW 2815   0.365   1.916   2.877 -0.7838  0.1438 -0.6085
  939SOL    HW1 2816   0.450   1.938   2.826  2.3684  0.8866  0.2207
  939SOL    HW2 2817   0.372   1.944   2.975 -0.0557  0.0864  0.3733
  940SOL     OW 2818   2.949   2.839   3.015 -0.0680 -0.1972 -0.3913
  940SOL    HW1 2819   2.927   2.799   0.017 -2.5247  2.2468  0.1875
  940SOL    HW2 2820   3.044   2.816   2.986 -0.3578  0.3713 -0.9781
  941SOL     OW 2821   0.912   2.685   2.981  0.1044  0.3017  0.2819
  941SOL    HW1 2822   0.929   2.584   2.978 -3.9740  0.2616  2.5621
  941SOL    HW2 2823   0.972   2.737   2.917  0.5798 -1.6096  1.5128
  942SOL     OW 2824   1.614   1.978   1.602 -0.1096 -0.2495 -0.3374
  942SOL    HW1 2825   1.659   1.967   1.694  0.2994  1.2525  1.8213
  942SOL    HW2 2826   1.654   1.914   1.532  0.8364 -0.9359  1.1504
  943SOL     OW 2827   2.164   1.146   1.469  0.1430  0.1546  0.0503
  943SOL    HW1 2828   2.249   1.149   1.527 -0.1521  2.1227 -0.6325
  943SOL    HW2 2829   2.129   1.053   1.460  2.2241 -1.0647  0.4087
  944SOL     OW 2830   2.015   0.864   1.445  0.2043  0.3090  0.4045
  944SOL    HW1 2831   1.923   0.886   1.419  2.2325 -0.8013  0.3269
  944SOL    HW2 2832   2.051   0.787   1.392  1.8314  2.5390  1.6785
  945SOL     OW 2833   3.007   2.755   0.950 -0.0087  0.3766  0.0704
  945SOL    HW1 2834   2.976   2.684   0.884  1.7519 -1.3844  2.0041
  945SOL    HW2 2835   2.960   2.841   0.918  0.1304 -2.8849 -1.8666
  946SOL     OW 2836   0.434   0.622   1.835  0.6942 -0.0811 -0.0810
  946SOL    HW1 2837   0.376   0.647   1.758  1.9104 -2.4982  1.2220
  946SOL    HW2 2838   0.473   0.533   1.816 -0.9754  2.9688 -1.1483
  947SOL     OW 2839   0.469   2.750   0.603 -0.2695 -0.8685  0.0824
  947SOL    HW1 2840   0.515   2.677   0.552  0.4597  2.7228  2.5922
  947SOL    HW2 2841   0.366   2.737   0.600  0.7271  0.1121  0.4395
  948SOL     OW 2842   2.954   1.298   1.878  0.2017 -0.3797 -0.6019
  948SOL    HW1 2843   2.973   1.395   1.855  0.6870  1.7093 -1.6007
  948SOL    HW2 2844   3.044   1.253   1.888 -0.0026  1.6198 -1.9359
  949SOL     OW 2845   0.495   0.952   2.275  0.1766 -0.2536  0.1629
  949SOL    HW1 2846   0.516   0.898   2.361 -0.1517 -1.3621  1.1712
  949SOL    HW2 2847   0.429   0.899   2.215  3.8117 -0.2511 -1.4515
  950SOL     OW 2848   1.007   0.670   1.244  0.2271 -0.2709  0.6541
  950SOL    HW1 2849   0.941   0.681   1.319 -1.6085 -1.7793  0.7363
  950SOL    HW2 2850   0.968   0.611   1.167 -0.9012 -1.7278  0.9848
  951SOL     OW 2851   0.922   1.986   2.036 -0.0039 -0.4103 -0.6419
  951SOL    HW1 2852   1.024   2.000   2.052  1.1929 -2.5158 -1.3904
  951SOL    HW2 2853   0.862   2.066   2.067 -1.0039  4.8834  0.6069
  952SOL     OW 2854   0.587   1.879   2.706  0.6407  0.6524  0.0267
  952SOL    HW1 2855   0.636   1.855   2.793 -3.2765  0.9454  0.0351
  952SOL    HW2 2856   0.648   1.866   2.626  1.3236  0.4148  3.2441
  953SOL     OW 2857   1.857   2.967   2.188  0.4830  0.5544  1.2022
  953SOL    HW1 2858   1.908   2.953   2.273 -0.6378 -0.2729  0.6978
  953SOL    HW2 2859   1.842   3.065   2.173 -1.0286 -0.4388  0.5717
  954SOL     OW 2860   1.799   1.259   0.895 -0.4313  0.4442  0.4331
  954SOL    HW1 2861   1.697   1.264   0.917 -2.1936 -0.3210  1.5649
  954SOL    HW2 2862   1.814   1.275   0.792  0.8292  2.1632 -5.9885
  955SOL     OW 2863   0.394   2.507   2.019  0.0632  0.7053 -0.3018
  955SOL    HW1 2864   0.335   2.424   2.026  1.4918 -0.4490 -0.2216
  955SOL    HW2 2865   0.339   2.582   1.974  0.3032  0.3475 -2.8057
  956SOL     OW 2866   1.443   1.000   1.501  0.4244  0.1074 -0.2684
  956SOL    HW1 2867   1.389   0.941   1.440  0.4787  0.4707 -0.1511
  956SOL    HW2 2868   1.541   0.963   1.503  3.4101 -2.1685  0.9930
  957SOL     OW 2869   2.102   1.672   2.405  0.2788  0.1038  0.4163
  957SOL    HW1 2870   2.162   1.662   2.321  2.8467 -0.2254  0.1015
  957SOL    HW2 2871   2.002   1.690   2.382 -2.6161  0.3723  0.6727
  958SOL     OW 2872   1.066   2.567   0.795  0.3604 -0.2959 -0.1603
  958SOL    HW1 2873   0.988   2.631   0.805  2.4070  2.0979 -1.7173
  958SOL    HW2 2874   1.046   2.484   0.848 -0.6202 -0.9911  0.2358
  959SOL     OW 2875   1.633   1.742   2.525  0.3770 -0.3157 -0.0916
  959SOL    HW1 2876   1.539   1.701   2.537 -0.2491 -1.9003 -0.9053
  959SOL    HW2 2877   1.687   1.718   2.605 -0.7477  0.6590 -2.4708
  960SOL     OW 2878   0.479   0.379   0.114 -0.8878  0.0522  0.5669
  960SOL    HW1 2879   0.408   0.309   0.083 -2.0779 -0.8927 -0.1884
  960SOL    HW2 2880   0.516   0.349   0.203 -1.2971 -1.6574  1.8390
  961SOL     OW 2881   0.643   0.684   2.194  0.7480 -0.2807 -0.0900
  961SOL    HW1 2882   0.729   0.701   2.249  0.0895  1.7046 -0.2277
  961SOL    HW2 2883   0.570   0.635   2.254  0.4630 -1.1946 -0.2239
  962SOL     OW 2884   0.706   1.548   2.877 -0.7167  0.0127 -0.2992
  962SOL    HW1 2885   0.782   1.489   2.904 -0.0707  2.8111  2.6149
  962SOL    HW2 2886   0.638   1.493   2.827  3.3192 -0.8982  0.7875
  963SOL     OW 2887   2.059   1.687   2.977 -1.0414  0.3831  0.2299
  963SOL    HW1 2888   1.993   1.754   2.930  3.0706 -1.8427 -0.8977
  963SOL    HW2 2889   2.150   1.729   3.000  2.1139  0.6696 -0.3857
  964SOL     OW 2890   1.323   2.908   0.826  0.6631 -0.2780 -0.7019
  964SOL    HW1 2891   1.292   2.830   0.766 -3.3564 -3.8348 -1.9410
  964SOL    HW2 2892   1.264   2.932   0.905  1.2922  4.5764 -2.1543
  965SOL     OW 2893   0.774   2.283   1.239 -0.6425 -0.1803  0.1410
  965SOL    HW1 2894   0.749   2.336   1.323 -1.6717  0.6378  0.3618
  965SOL    HW2 2895   0.689   2.272   1.181 -2.1704  1.7773 -0.0054
  966SOL     OW 2896   0.032   1.613   0.024 -0.2373 -0.0897 -0.0083
  966SOL    HW1 2897   3.068   1.608   3.030  2.2460  1.5707 -0.0550
  966SOL    HW2 2898   3.058   1.587   0.101 -1.0400 -1.2698 -0.4582
  967SOL     OW 2899   1.865   2.987   1.732 -0.2954  0.5090 -0.5487
  967SOL    HW1 2900   1.820   3.004   1.643  0.6244 -1.1408  1.6938
  967SOL    HW2 2901   1.840   3.060   1.797 -1.0131 -2.0440 -1.3219
  968SOL     OW 2902   1.888   0.763   0.827 -0.1172  0.3810 -0.6086
  968SOL    HW1 2903   1.961   0.724   0.773  0.6995  2.7794 -0.5186
  968SOL    HW2 2904   1.924   0.780   0.921  1.9058  0.3685  1.6530
  969SOL     OW 2905   0.239   1.867   1.821 -0.1836 -0.6991 -0.1016
  969SOL    HW1 2906   0.338   1.887   1.817 -0.3566  0.6802 -0.1011
  969SOL    HW2 2907   0.176   1.936   1.779 -1.0406 -0.4453  0.3498
  970SOL     OW 2908   2.504   1.504   1.009  0.1690 -0.4351 -0.1301
  970SOL    HW1 2909   2.473   1.531   1.101  1.2731  3.0473  0.8361
  970SOL    HW2 2910   2.504   1.585   0.944 -0.3577 -1.0384 -1.1774
  971SOL     OW 2911   1.071   0.449   1.552  0.1854  0.4349 -0.1305
  971SOL    HW1 2912   0.997   0.433   1.623  1.4651  2.5796  1.3621
  971SOL    HW2 2913   1.103   0.547   1.545 -0.2410 -1.0966 -2.0713
  972SOL     OW 2914   0.993   0.443   2.577 -0.3402  1.0437 -0.1600
  972SOL    HW1 2915   0.917   0.386   2.608 -0.5565 -1.1117 -0.2725
  972SOL    HW2 2916   0.967   0.468   2.481 -2.2108  0.0641 -1.1842
  973SOL     OW 2917   0.100   1.321   1.105 -0.4258  0.4533  0.5496
  973SOL    HW1 2918   0.025   1.327   1.175 -0.1171  0.6939 -1.3910
  973SOL    HW2 2919   0.109   1.230   1.065  3.2126  2.3150 -1.8989
  974SOL     OW 2920   1.808   1.122   1.894 -0.1939 -0.4831 -0.1078
  974SOL    HW1 2921   1.864   1.115   1.809 -1.4796 -1.5160 -1.7952
  974SOL    HW2 2922   1.719   1.089   1.865  1.2231  0.0144  1.4069
  975SOL     OW 2923   2.728   0.062   0.304 -0.1566 -0.0197 -0.5021
  975SOL    HW1 2924   2.669   0.035   0.225  1.7909  0.4374 -0.0712
  975SOL    HW2 2925   2.826   0.070   0.276 -0.4404  0.1319 -1.4049
  976SOL     OW 2926   0.263   1.639   1.653 -0.1086 -0.0954 -0.0528
  976SOL    HW1 2927   0.246   1.699   1.734 -0.8613  1.7349 -1.3360
  976SOL    HW2 2928   0.179   1.631   1.598 -0.4828 -1.3375 -0.6243
  977SOL     OW 2929   0.619   2.733   0.250 -0.3186 -0.4702  0.1644
  977SOL    HW1 2930   0.615   2.710   0.152  1.4985  1.2787 -1.9870
  977SOL    HW2 2931   0.715   2.768   0.271  0.8168  3.8951  0.2090
  978SOL     OW 2932   0.679   1.579   0.124 -0.1428 -0.0818  0.4905
  978SOL    HW1 2933   0.614   1.519   0.070 -0.2177 -0.4276 -1.7114
  978SOL    HW2 2934   0.758   1.609   0.070  0.7413  1.5917  0.8793
  979SOL     OW 2935   1.386   2.048   1.186 -0.5127  1.0715 -0.5719
  979SOL    HW1 2936   1.361   2.146   1.185  1.0917  0.0095 -1.2335
  979SOL    HW2 2937   1.488   2.040   1.185  1.7954  1.0986 -1.1016
  980SOL     OW 2938   0.644   1.337   2.224  0.5383  0.7488  0.2576
  980SOL    HW1 2939   0.654   1.257   2.161 -0.3213  0.0122 -1.4291
  980SOL    HW2 2940   0.666   1.315   2.323 -2.3740  0.1761  2.0040
  981SOL     OW 2941   2.968   1.548   0.242 -0.2304  0.2479  0.2252
  981SOL    HW1 2942   3.029   1.559   0.325  0.6795 -1.5048 -0.7685
  981SOL    HW2 2943   2.871   1.558   0.267 -2.6234 -0.5507 -0.9202
  982SOL     OW 2944   2.361   2.519   2.818  0.0873  0.4697  0.2318
  982SOL    HW1 2945   2.367   2.518   2.715  0.8585  1.3441 -0.7202
  982SOL    HW2 2946   2.417   2.596   2.857  0.0373  0.1059 -0.8516
  983SOL     OW 2947   2.063   0.644   1.291  0.1150  0.4088  0.3575
  983SOL    HW1 2948   2.026   0.695   1.212  1.3274  0.3329  0.0892
  983SOL    HW2 2949   2.111   0.557   1.265 -0.3870 -0.8681 -0.7791
  984SOL     OW 2950   0.965   2.985   2.510 -0.4855  0.0027  0.1099
  984SOL    HW1 2951   0.985   3.054   2.581  0.8806 -1.9305  0.5480
  984SOL    HW2 2952   1.015   2.898   2.530 -0.2113 -0.1167  2.1493
  985SOL     OW 2953   1.607   2.157   1.990 -0.2174 -0.2288 -0.3928
  985SOL    HW1 2954   1.557   2.102   2.061 -1.8784  1.1693 -0.5491
  985SOL    HW2 2955   1.706   2.154   2.007  1.1511 -0.6250 -1.0816
  986SOL     OW 2956   1.995   2.959   2.424  0.1641 -0.0334 -0.5635
  986SOL    HW1 2957   2.085   3.008   2.438  1.2082  0.7237  1.2216
  986SOL    HW2 2958   2.002   2.855   2.425 -1.2238 -0.0710  1.0816
  987SOL     OW 2959   2.692   0.179   2.125 -0.2580  0.2001 -0.3259
  987SOL    HW1 2960   2.766   0.163   2.193 -1.1973 -0.1351  0.4688
  987SOL    HW2 2961   2.634   0.258   2.140  1.5609 -2.7864  0.0056
  988SOL     OW 2962   2.538   0.406   2.227 -0.1179  0.4012 -0.0900
  988SOL    HW1 2963   2.515   0.393   2.321  2.0054 -0.5089 -0.2432
  988SOL    HW2 2964   2.464   0.449   2.178 -1.7188 -0.7731  3.2132
  989SOL     OW 2965   2.294   2.470   2.542 -0.3562  0.7872 -0.6182
  989SOL    HW1 2966   2.298   2.506   2.450 -0.8091 -1.1704  1.4442
  989SOL    HW2 2967   2.305   2.369   2.548 -0.9835  2.3195 -1.9865
  990SOL     OW 2968   0.280   1.034   0.034 -0.3887  0.6224 -0.0217
  990SOL    HW1 2969   0.205   0.965   0.008 -0.1128  0.2588 -3.0182
  990SOL    HW2 2970   0.357   1.024   3.056  0.8069  1.1914 -1.7596
  991SOL     OW 2971   0.587   1.121   2.597 -0.7303 -0.4871 -0.5933
  991SOL    HW1 2972   0.547   1.027   2.580  0.5963  1.9010  1.1291
  991SOL    HW2 2973   0.686   1.123   2.567  3.1761 -1.5538 -0.0500
  992SOL     OW 2974   0.125   1.709   1.981  0.3366 -0.4143  0.0030
  992SOL    HW1 2975   0.176   1.776   1.920  1.3407  1.9346 -0.1824
  992SOL    HW2 2976   0.056   1.753   2.039 -0.6407  5.8557  0.1420
  993SOL     OW 2977   0.858   0.218   0.712  0.1678 -0.5055  0.1181
  993SOL    HW1 2978   0.899   0.296   0.660 -0.8203  0.2677  0.3749
  993SOL    HW2 2979   0.834   0.135   0.655 -1.4964  0.5076  1.0427
  994SOL     OW 2980   0.462   2.052   1.470 -0.0414 -0.1330  0.2182
  994SOL    HW1 2981   0.430   1.956   1.473  0.4706  1.9131  1.5290
  994SOL    HW2 2982   0.423   2.103   1.388  0.2205 -0.3795  0.1186
  995SOL     OW 2983   2.128   1.772   2.649  0.2607  0.0787 -0.4949
  995SOL    HW1 2984   2.127   1.743   2.550 -0.5824 -2.7688  1.2229
  995SOL    HW2 2985   2.136   1.697   2.714  1.9294 -0.1857  0.7026
  996SOL     OW 2986   1.946   1.471   2.775  0.0644 -0.5259  0.0305
  996SOL    HW1 2987   1.916   1.400   2.840  1.2807  1.4050 -0.6097
  996SOL    HW2 2988   2.050   1.480   2.789 -0.0807  0.6151  1.1407
  997SOL     OW 2989   1.719   1.446   1.874 -0.3858 -0.6953  0.2647
  997SOL    HW1 2990   1.791   1.395   1.919 -3.6267 -1.2809 -0.7238
  997SOL    HW2 2991   1.678   1.507   1.945 -1.1605  0.6409 -1.9182
  998SOL     OW 2992   2.290   2.022   1.037  0.4334  0.2776  0.5647
  998SOL    HW1 2993   2.210   2.042   1.098 -3.0488  1.2105 -0.1425
  998SOL    HW2 2994   2.290   1.930   0.994  0.3647 -0.4686  2.7390
  999SOL     OW 2995   2.326   2.497   0.134 -0.2187  0.2329 -0.2965
  999SOL    HW1 2996   2.380   2.581   0.149 -3.2555 -0.0226 -0.9625
  999SOL    HW2 2997   2.367   2.411   0.170 -1.5279  1.1637 -2.6163
 1000SOL     OW 2998   0.707   2.976   2.390 -0.0912 -0.1545  0.4236
 1000SOL    HW1 2999   0.673   3.071   2.381 -0.9636 -0.1784 -2.3153
 1000SOL    HW2 3000   0.809   2.983   2.407  0.6584 -0.6929  2.7056
   3.08949   3.08949   3.08949
