1000 SPC/Fw water molecules t= 334.00000 step= 334000
 3000
    1SOL     OW    1   2.429   0.182   1.386  0.2295 -0.1342  0.6916
    1SOL    HW1    2   2.477   0.093   1.375 -0.5105  0.1724 -0.2021
    1SOL    HW2    3   2.463   0.233   1.465 -1.9386 -0.4552  0.3865
    2SOL     OW    4   2.596   2.447   0.920 -0.3017 -0.2263 -0.0645
    2SOL    HW1    5   2.670   2.476   0.990 -0.1013  0.5392  1.0755
    2SOL    HW2    6   2.507   2.425   0.965  0.5894  0.4680 -0.2041
    3SOL     OW    7   1.133   3.007   2.870 -0.2142 -0.2071  0.1904
    3SOL    HW1    8   1.135   2.974   2.964  0.6054 -2.2477 -0.6384
    3SOL    HW2    9   1.040   2.983   2.829 -2.2203  0.2184  1.3635
    4SOL     OW   10   1.874   2.518   2.148  0.1972  0.6848 -0.4700
    4SOL    HW1   11   1.881   2.616   2.129  0.1874 -0.3819 -1.9729
    4SOL    HW2   12   1.930   2.465   2.085  0.7601 -1.0959  3.0020
    5SOL     OW   13   1.440   1.183   1.852 -0.1384 -0.1896 -0.3492
    5SOL    HW1   14   1.427   1.173   1.751 -2.1586 -0.7068 -1.1322
    5SOL    HW2   15   1.378   1.127   1.908 -2.2485 -0.4210  1.5190
    6SOL     OW   16   2.018   2.744   0.831  0.2626  0.3450 -0.6933
    6SOL    HW1   17   1.956   2.677   0.780  0.2608 -2.1302 -2.9882
    6SOL    HW2   18   2.034   2.707   0.928 -0.4129 -0.0457  0.9687
    7SOL     OW   19   2.093   1.154   1.084  0.2379 -0.0728 -0.3665
    7SOL    HW1   20   2.074   1.222   1.151 -0.9877 -2.9397 -3.4761
    7SOL    HW2   21   2.054   1.195   1.000  1.5166 -2.5543 -0.2996
    8SOL     OW   22   0.705   1.681   1.213 -0.7835 -0.2197  0.3493
    8SOL    HW1   23   0.632   1.610   1.228  3.2213  1.4504  2.3079
    8SOL    HW2   24   0.698   1.764   1.268  0.6355 -0.3833  0.1042
    9SOL     OW   25   1.216   2.490   2.359  0.4567 -0.0811  0.2857
    9SOL    HW1   26   1.142   2.441   2.415 -0.1572  0.1974  1.0836
    9SOL    HW2   27   1.192   2.583   2.327 -1.7330  0.3912 -1.6454
   10SOL     OW   28   0.259   1.960   0.853  0.4740 -0.2017  0.1030
   10SOL    HW1   29   0.351   1.916   0.848  0.7278 -2.0986  1.4839
   10SOL    HW2   30   0.246   2.007   0.943  0.7497  0.0760 -2.5002
   11SOL     OW   31   1.572   1.999   1.117 -0.3570 -0.2328 -0.1735
   11SOL    HW1   32   1.576   2.044   1.207 -0.0015  0.3999  1.4670
   11SOL    HW2   33   1.479   1.979   1.082 -0.3127 -0.0648  0.4861
   12SOL     OW   34   2.416   0.261   2.137 -0.8711 -0.2207  0.2645
   12SOL    HW1   35   2.468   0.330   2.084  0.2072  1.7841  2.3994
   12SOL    HW2   36   2.367   0.197   2.077  1.2190  0.2067  1.8877
   13SOL     OW   37   2.821   3.040   0.539 -0.4134 -0.1868 -0.2133
   13SOL    HW1   38   2.731   3.046   0.587 -0.8541 -1.4254  1.4415
   13SOL    HW2   39   2.872   2.963   0.581  0.6228  0.7678  3.7595
   14SOL     OW   40   1.546   1.746   2.914 -0.3309 -0.2985  0.6658
   14SOL    HW1   41   1.609   1.705   2.982  0.0925 -0.5573 -1.4445
   14SOL    HW2   42   1.596   1.804   2.850  2.1042  1.0624 -1.0203
   15SOL     OW   43   2.758   2.748   1.598  0.0673 -0.1042 -0.0860
   15SOL    HW1   44   2.754   2.790   1.695 -0.7405  2.8158 -0.7456
   15SOL    HW2   45   2.673   2.767   1.542 -0.7696 -0.0444  2.3294
   16SOL     OW   46   2.828   2.924   0.276  0.7644 -0.0545 -0.3041
   16SOL    HW1   47   2.807   2.968   0.366 -2.3219 -0.0201 -0.6179
   16SOL    HW2   48   2.923   2.897   0.262 -0.9812  0.1819 -0.7581
   17SOL     OW   49   0.314   0.213   1.381 -0.2909 -0.5018 -0.5313
   17SOL    HW1   50   0.248   0.217   1.302 -1.4404 -1.3010  1.2799
   17SOL    HW2   51   0.374   0.134   1.374  0.6847  1.6687  1.0185
   18SOL     OW   52   2.323   0.942   0.693 -0.3007  0.2055  0.3928
   18SOL    HW1   53   2.411   0.962   0.646 -2.9905  0.0119  0.0359
   18SOL    HW2   54   2.334   0.894   0.783 -1.9634  0.8227 -0.5157
   19SOL     OW   55   1.608   1.711   0.200 -0.3064  0.5393 -0.1186
   19SOL    HW1   56   1.638   1.711   0.297  1.7609  1.1860 -0.1542
   19SOL    HW2   57   1.685   1.739   0.137  3.2313 -1.2411 -0.1976
   20SOL     OW   58   2.402   2.056   2.233  0.6775  0.1647 -0.6290
   20SOL    HW1   59   2.350   1.993   2.173 -2.1791 -1.8398  1.2424
   20SOL    HW2   60   2.329   2.126   2.258 -3.7715 -1.4461 -2.7174
   21SOL     OW   61   1.749   3.089   0.653  0.0349  0.8257 -0.2545
   21SOL    HW1   62   1.690   3.037   0.719 -0.4384  0.2106  1.2232
   21SOL    HW2   63   1.850   3.081   0.679  3.7722 -0.2401 -1.0405
   22SOL     OW   64   2.523   0.422   1.571  0.3260  0.4308 -0.1220
   22SOL    HW1   65   2.559   0.357   1.641  0.0548  0.1955 -2.9257
   22SOL    HW2   66   2.422   0.434   1.589 -0.6609  1.6169  1.4293
   23SOL     OW   67   0.499   0.567   1.614 -0.1287  0.2395  0.0857
   23SOL    HW1   68   0.539   0.648   1.660  2.2744  0.4049 -4.0685
   23SOL    HW2   69   0.489   0.588   1.513  1.3655 -0.1831 -1.6023
   24SOL     OW   70   2.683   2.780   0.519  0.4099  0.2964  0.1013
   24SOL    HW1   71   2.753   2.703   0.523  0.0153 -0.3231  0.0021
   24SOL    HW2   72   2.679   2.829   0.610 -3.5387 -0.1362 -0.9051
   25SOL     OW   73   1.193   2.783   2.588  0.4265 -0.4864 -0.4871
   25SOL    HW1   74   1.148   2.855   2.529  1.3183 -0.1633  1.6863
   25SOL    HW2   75   1.295   2.784   2.565  1.4299  0.0103 -2.8291
   26SOL     OW   76   1.361   2.375   0.040 -0.3371 -0.4551  0.8247
   26SOL    HW1   77   1.306   2.455   0.007 -0.3764 -1.5917  0.8676
   26SOL    HW2   78   1.332   2.359   0.137 -0.3544 -0.5459 -1.4482
   27SOL     OW   79   2.421   0.984   2.917 -0.4376  0.1342  0.2463
   27SOL    HW1   80   2.381   1.078   2.919  3.4958 -0.8464 -0.6517
   27SOL    HW2   81   2.511   0.987   2.871 -1.2077 -0.7024 -0.2094
   28SOL     OW   82   1.172   1.531   1.095 -0.1430  0.3311  0.3637
   28SOL    HW1   83   1.177   1.442   1.145 -0.6438 -0.1572 -0.6615
   28SOL    HW2   84   1.078   1.559   1.075  2.5017 -1.2134  0.0441
   29SOL     OW   85   2.974   2.592   1.868 -0.0206 -0.3357  0.4518
   29SOL    HW1   86   3.046   2.643   1.817 -1.6576 -0.7684 -0.0624
   29SOL    HW2   87   2.960   2.501   1.825 -0.8366 -2.8845  0.2483
   30SOL     OW   88   1.322   0.075   1.135 -0.0588  0.4442  0.1278
   30SOL    HW1   89   1.390   0.005   1.170  2.7177  0.7203  2.5502
   30SOL    HW2   90   1.373   0.158   1.098 -0.5875  0.9026  0.2653
   31SOL     OW   91   2.083   3.014   2.452 -0.6709 -0.4730 -0.8751
   31SOL    HW1   92   2.046   3.034   2.546  2.8862 -2.6086  0.9031
   31SOL    HW2   93   2.034   3.065   2.380 -2.6538  3.1077 -0.0833
   32SOL     OW   94   0.866   1.469   0.258 -0.0209 -0.0356  0.6479
   32SOL    HW1   95   0.912   1.378   0.253 -2.6245  0.6327  1.7451
   32SOL    HW2   96   0.904   1.540   0.193 -0.3684 -2.0915 -1.0330
   33SOL     OW   97   0.219   0.948   2.525  0.1811  0.1734  0.7078
   33SOL    HW1   98   0.267   0.859   2.505  0.8042  1.9711 -0.4413
   33SOL    HW2   99   0.187   0.995   2.439 -1.1638  0.7599  0.7289
   34SOL     OW  100   2.568   3.036   0.679  0.6814  0.7388  0.0637
   34SOL    HW1  101   2.473   2.995   0.668 -1.9809 -0.7408  0.5291
   34SOL    HW2  102   2.619   2.990   0.750 -2.7116 -0.7053 -4.1155
   35SOL     OW  103   2.405   3.014   2.036 -0.0760 -0.2252  0.1608
   35SOL    HW1  104   2.343   3.097   2.033  0.6788 -0.3175 -2.7347
   35SOL    HW2  105   2.372   2.943   2.098 -0.7490  0.0809 -0.2183
   36SOL     OW  106   2.182   2.278   2.931 -0.0942  0.0091 -0.5396
   36SOL    HW1  107   2.195   2.372   2.897 -1.3021  0.5600  0.3806
   36SOL    HW2  108   2.224   2.267   3.027  1.0760  0.1309  2.5961
   37SOL     OW  109   1.557   0.437   2.230  0.2261 -0.4064  0.2240
   37SOL    HW1  110   1.566   0.524   2.284  0.4622  1.4657 -0.3116
   37SOL    HW2  111   1.482   0.380   2.271  0.4583 -2.8756 -0.9320
   38SOL     OW  112   0.208   0.346   2.812 -0.8766  0.6005 -0.0217
   38SOL    HW1  113   0.265   0.270   2.859  4.4864 -2.1155  0.9155
   38SOL    HW2  114   0.271   0.399   2.745  1.3216 -1.6543 -0.2853
   39SOL     OW  115   2.070   1.391   1.651 -0.3930  0.0643  0.4777
   39SOL    HW1  116   2.173   1.363   1.647  2.2658 -2.1726  1.1776
   39SOL    HW2  117   2.041   1.389   1.749  0.5737  5.1571 -0.8824
   40SOL     OW  118   1.405   2.643   0.259  0.2604 -0.5959  0.0696
   40SOL    HW1  119   1.371   2.602   0.346  1.0017  2.0781  0.8562
   40SOL    HW2  120   1.354   2.602   0.180 -0.7846 -0.1825  1.4859
   41SOL     OW  121   2.408   1.395   0.787 -0.8433  0.0105  0.0794
   41SOL    HW1  122   2.417   1.371   0.887 -1.6398 -0.6020 -1.2964
   41SOL    HW2  123   2.496   1.435   0.749 -2.2310  0.3136 -1.7548
   42SOL     OW  124   0.723   0.357   1.347  0.8630 -0.1513 -0.4048
   42SOL    HW1  125   0.770   0.447   1.355 -1.3567 -0.7467 -0.1474
   42SOL    HW2  126   0.735   0.303   1.435 -1.4087  1.6851  0.1708
   43SOL     OW  127   0.120   1.374   2.416  0.3004 -0.0103 -0.4234
   43SOL    HW1  128   0.133   1.457   2.480 -1.4371  4.5226  0.5507
   43SOL    HW2  129   0.210   1.341   2.386  0.5258 -0.4082 -0.5681
   44SOL     OW  130   2.624   0.114   1.751  0.2591 -0.4266  0.2215
   44SOL    HW1  131   2.665   0.170   1.822 -2.7729  0.7737 -1.4662
   44SOL    HW2  132   2.611   0.018   1.781  0.8846 -1.9133  1.8629
   45SOL     OW  133   1.257   3.076   2.357 -0.4287 -0.0440  0.0673
   45SOL    HW1  134   1.175   3.011   2.353 -2.2142  0.0400 -1.4881
   45SOL    HW2  135   1.286   3.099   2.452  3.7780  1.0008 -0.7756
   46SOL     OW  136   1.054   2.546   2.616  0.1162  0.7630 -0.1302
   46SOL    HW1  137   1.112   2.628   2.618  1.6579  0.6776 -2.5968
   46SOL    HW2  138   0.969   2.573   2.564  0.9659  2.1631 -1.2418
   47SOL     OW  139   1.579   1.604   0.846  0.3409 -0.4288  0.5736
   47SOL    HW1  140   1.515   1.619   0.768  0.0432  0.2932  2.8796
   47SOL    HW2  141   1.675   1.573   0.820  0.4952 -0.3287  0.9885
   48SOL     OW  142   1.196   2.150   0.581 -0.0464 -0.3200  0.3966
   48SOL    HW1  143   1.217   2.121   0.484 -1.4123 -0.3444 -0.7274
   48SOL    HW2  144   1.191   2.067   0.638  1.4707 -2.0461 -2.0409
   49SOL     OW  145   2.161   0.123   2.759  0.0642 -0.2595 -0.1754
   49SOL    HW1  146   2.109   0.042   2.734  0.7895  1.1925 -0.6826
   49SOL    HW2  147   2.239   0.143   2.694 -0.0803  3.0490  1.0781
   50SOL     OW  148   1.972   3.012   0.231  0.4283 -0.5534  0.4058
   50SOL    HW1  149   2.047   3.004   0.159  1.6141  0.8319  1.4494
   50SOL    HW2  150   1.984   2.943   0.302 -1.2229  0.0368 -1.4125
   51SOL     OW  151   2.249   0.821   1.354  0.7016  0.4359  0.0272
   51SOL    HW1  152   2.273   0.737   1.309 -1.2446  4.3793  1.9045
   51SOL    HW2  153   2.295   0.831   1.443 -0.1433 -0.7770  0.6268
   52SOL     OW  154   1.030   1.551   0.574  0.2504 -0.2878 -0.5020
   52SOL    HW1  155   1.045   1.644   0.537  1.6449  1.6487 -0.6109
   52SOL    HW2  156   1.096   1.535   0.652  0.7795 -0.9482  0.2280
   53SOL     OW  157   0.304   1.668   2.465 -0.6365  0.0948  0.3810
   53SOL    HW1  158   0.350   1.754   2.460 -0.5273 -2.3944 -1.6962
   53SOL    HW2  159   0.373   1.601   2.504  3.8179 -0.1653 -1.2434
   54SOL     OW  160   2.732   1.203   1.733  0.0526 -0.1494  0.4892
   54SOL    HW1  161   2.800   1.127   1.713  1.9392 -0.2749  1.6557
   54SOL    HW2  162   2.770   1.264   1.804 -1.1804 -1.7962  0.3037
   55SOL     OW  163   2.427   1.922   0.701  0.1166  0.3401  0.1104
   55SOL    HW1  164   2.344   1.866   0.678 -1.4191 -2.7924  2.3010
   55SOL    HW2  165   2.404   2.019   0.701 -1.6020 -0.9808 -1.3700
   56SOL     OW  166   1.460   0.172   1.575  0.3412  0.0100 -0.5644
   56SOL    HW1  167   1.460   0.255   1.523 -3.7708 -0.2724  2.8011
   56SOL    HW2  168   1.400   0.190   1.652  0.7747  1.7010 -2.0795
   57SOL     OW  169   1.582   1.234   2.676  0.1572  0.1834 -0.4767
   57SOL    HW1  170   1.618   1.147   2.715  0.8710  0.1647  1.0020
   57SOL    HW2  171   1.488   1.254   2.702  1.0640  0.0013 -3.0119
   58SOL     OW  172   0.148   0.542   1.412  0.6488 -0.1901 -0.5562
   58SOL    HW1  173   0.237   0.529   1.368 -1.1484  0.1968  0.4756
   58SOL    HW2  174   0.143   0.642   1.430  0.3007  0.3393 -0.7006
   59SOL     OW  175   1.660   2.728   0.288  0.2289 -0.3805  0.6394
   59SOL    HW1  176   1.691   2.805   0.344 -0.5297 -1.3136 -1.0045
   59SOL    HW2  177   1.561   2.703   0.305 -4.0411  1.1622 -1.1217
   60SOL     OW  178   2.935   1.925   3.044  0.4413 -0.4962  0.4210
   60SOL    HW1  179   2.999   1.853   3.085  2.6956 -1.4280 -1.4042
   60SOL    HW2  180   2.870   1.880   2.976  0.7142 -1.8891 -2.5999
   61SOL     OW  181   0.758   2.644   0.923 -0.2049 -0.4692 -0.2151
   61SOL    HW1  182   0.849   2.689   0.926 -2.2314 -0.6410 -2.0469
   61SOL    HW2  183   0.749   2.582   1.004  0.1156 -1.7246  2.5281
   62SOL     OW  184   2.033   1.424   2.713 -0.0929 -0.1685 -0.6374
   62SOL    HW1  185   2.068   1.377   2.630 -1.0752  0.1865 -1.8169
   62SOL    HW2  186   2.063   1.524   2.718  0.6565  0.3056 -0.2067
   63SOL     OW  187   2.308   2.153   0.468  0.0778  0.3082  0.4575
   63SOL    HW1  188   2.307   2.184   0.565 -2.5804 -0.9641  1.6016
   63SOL    HW2  189   2.383   2.202   0.424 -2.4904 -2.1661  2.4337
   64SOL     OW  190   1.723   1.196   3.071  0.3748  0.5477  0.6316
   64SOL    HW1  191   1.699   1.102   3.100  0.7742  2.2945  0.2107
   64SOL    HW2  192   1.733   1.202   2.969 -1.1222  1.3024 -1.0360
   65SOL     OW  193   1.954   1.782   2.324 -0.1442 -0.4591 -0.1040
   65SOL    HW1  194   2.042   1.734   2.327 -0.1395  0.5880 -0.4849
   65SOL    HW2  195   1.957   1.878   2.290  3.0452 -2.8758 -1.6190
   66SOL     OW  196   0.230   0.898   1.145  0.1958 -0.5928  0.0094
   66SOL    HW1  197   0.330   0.916   1.162  1.0232  0.7405 -1.4070
   66SOL    HW2  198   0.177   0.984   1.128 -0.9193 -0.8737  1.3000
   67SOL     OW  199   2.117   2.806   2.723 -0.1174  0.1166 -0.0279
   67SOL    HW1  200   2.082   2.899   2.724  0.0675  0.0083 -0.5948
   67SOL    HW2  201   2.149   2.792   2.627  2.5179  2.5053 -2.1311
   68SOL     OW  202   1.091   2.489   1.313 -0.2713  0.3310 -0.2519
   68SOL    HW1  203   1.158   2.474   1.239 -0.5047  0.1874 -0.1001
   68SOL    HW2  204   1.105   2.424   1.386  1.3575 -0.2155 -2.2019
   69SOL     OW  205   0.720   2.454   3.107  0.3852  0.8082 -0.4334
   69SOL    HW1  206   0.642   2.424   0.036 -0.0053 -0.7299  2.6600
   69SOL    HW2  207   0.807   2.398   3.110 -3.3882  0.2370  0.6466
   70SOL     OW  208   3.064   0.561   2.557 -0.1532 -0.0891 -0.3121
   70SOL    HW1  209   3.047   0.541   2.459 -0.3322 -0.5052  0.2084
   70SOL    HW2  210   3.096   0.659   2.568 -0.1554  2.0935 -1.6815
   71SOL     OW  211   0.670   1.784   2.840  0.4506 -0.5554 -0.0975
   71SOL    HW1  212   0.770   1.804   2.835  0.3473  1.8415 -2.3611
   71SOL    HW2  213   0.637   1.755   2.934  1.4630 -0.2059 -1.2609
   72SOL     OW  214   0.074   1.709   2.318 -0.3778  0.1495 -0.3888
   72SOL    HW1  215   0.149   1.675   2.375 -3.3987  0.2833  0.8957
   72SOL    HW2  216   0.085   1.810   2.299  2.6307  0.8864 -0.6848
   73SOL     OW  217   1.642   1.412   0.431 -0.2206  0.3485  0.6522
   73SOL    HW1  218   1.697   1.340   0.477 -0.8868  2.5686  0.0480
   73SOL    HW2  219   1.684   1.507   0.440 -1.2103  1.5431 -0.7741
   74SOL     OW  220   2.307   2.718   2.993 -0.0718  0.0238  0.2059
   74SOL    HW1  221   2.287   2.737   2.896  3.6486 -2.7822  0.9841
   74SOL    HW2  222   2.346   2.626   3.000 -1.6601  0.6771 -1.0148
   75SOL     OW  223   2.194   2.156   0.938 -0.4223 -0.6775 -0.1442
   75SOL    HW1  224   2.103   2.155   0.894  1.4950  0.9883 -1.5987
   75SOL    HW2  225   2.204   2.083   1.005  0.4132  1.4749 -1.0362
   76SOL     OW  226   2.638   2.098   2.079  0.3011  0.4745 -0.0451
   76SOL    HW1  227   2.555   2.089   2.137 -0.6644  3.3020  2.5957
   76SOL    HW2  228   2.661   2.195   2.055  0.5205  1.6012  1.3465
   77SOL     OW  229   2.715   0.203   2.370  0.8800 -0.1961  0.3557
   77SOL    HW1  230   2.674   0.151   2.290 -1.2706 -3.5655 -1.3519
   77SOL    HW2  231   2.792   0.146   2.391 -3.6871 -2.6180  1.4412
   78SOL     OW  232   2.109   1.036   2.978  0.0180  0.1198 -0.0414
   78SOL    HW1  233   2.070   0.990   3.061  1.0385 -0.7152 -1.5129
   78SOL    HW2  234   2.107   1.137   2.983 -0.6794 -1.0194 -1.4185
   79SOL     OW  235   2.785   1.464   2.518 -0.4155 -0.0637 -0.2161
   79SOL    HW1  236   2.683   1.455   2.503  1.6520  0.2523  2.0262
   79SOL    HW2  237   2.812   1.562   2.522  0.5758  0.5706  1.1774
   80SOL     OW  238   1.504   1.558   1.560 -0.0984  0.0090  0.2747
   80SOL    HW1  239   1.465   1.652   1.578 -0.2265  1.2238  0.8757
   80SOL    HW2  240   1.547   1.529   1.644  0.7287  0.6679 -4.4033
   81SOL     OW  241   1.660   0.841   2.024 -0.2922 -0.5210  0.0464
   81SOL    HW1  242   1.740   0.785   2.051  0.4289 -0.2780 -2.1313
   81SOL    HW2  243   1.692   0.911   1.961  2.1689 -1.4487  1.3491
   82SOL     OW  244   1.837   2.053   1.649 -0.0709 -0.0373  0.2665
   82SOL    HW1  245   1.827   2.090   1.557 -0.7987 -3.2572  4.0526
   82SOL    HW2  246   1.936   2.045   1.680  0.4059 -0.3783  2.0479
   83SOL     OW  247   0.001   0.005   0.265 -0.6755 -0.3175 -0.8688
   83SOL    HW1  248   0.034   0.068   0.336 -0.0283 -1.7197  1.8410
   83SOL    HW2  249   3.040   0.042   0.224 -1.1113 -3.2250 -0.4242
   84SOL     OW  250   0.750   1.017   0.043 -0.2450  0.3020  0.3560
   84SOL    HW1  251   0.718   0.962   0.125  1.6150 -1.1467  0.3886
   84SOL    HW2  252   0.666   1.058   3.117 -4.3171  1.3290 -0.1283
   85SOL     OW  253   2.742   2.062   1.495 -0.1056  0.2832  0.1357
   85SOL    HW1  254   2.696   1.994   1.440  1.6168  1.8158 -0.9229
   85SOL    HW2  255   2.787   2.133   1.437  1.4305  0.1493 -3.1275
   86SOL     OW  256   0.589   2.699   1.332  0.1443 -0.2598  0.3150
   86SOL    HW1  257   0.659   2.739   1.270  0.8155  1.8121  0.0565
   86SOL    HW2  258   0.504   2.694   1.280 -0.3925  3.0061 -0.5517
   87SOL     OW  259   0.373   2.538   2.441 -0.0543 -0.3122  0.5474
   87SOL    HW1  260   0.428   2.519   2.357  1.1947  0.8825  1.8919
   87SOL    HW2  261   0.284   2.486   2.446  2.7946  0.4637 -0.7384
   88SOL     OW  262   0.184   2.258   0.388  0.3022 -0.1288  0.3678
   88SOL    HW1  263   0.105   2.195   0.379  0.0605  0.7515 -1.2523
   88SOL    HW2  264   0.238   2.249   0.477  0.8586  0.0358  4.2394
   89SOL     OW  265   0.845   0.926   0.882  0.0596 -0.6242 -0.2596
   89SOL    HW1  266   0.932   0.876   0.903 -0.0348  0.4380  1.6616
   89SOL    HW2  267   0.802   0.936   0.974 -0.6933  2.1591  1.2276
   90SOL     OW  268   0.243   1.070   1.708 -0.3661 -0.6165 -0.3176
   90SOL    HW1  269   0.212   1.144   1.647  1.9353  0.3352  2.2202
   90SOL    HW2  270   0.341   1.043   1.688  1.2255 -0.6035 -2.1137
   91SOL     OW  271   1.058   0.777   0.947 -0.5382  0.1878 -0.2468
   91SOL    HW1  272   1.143   0.825   0.978  0.1166 -3.7309 -1.7813
   91SOL    HW2  273   1.081   0.752   0.849 -0.0945  0.6754 -0.7079
   92SOL     OW  274   1.962   1.296   0.866 -0.3177  0.1333  0.0902
   92SOL    HW1  275   1.861   1.287   0.895 -0.8808  1.6535  1.3523
   92SOL    HW2  276   1.989   1.228   0.794 -0.2832  2.5607 -0.1139
   93SOL     OW  277   2.635   0.950   2.428  0.5818  0.3006  0.5619
   93SOL    HW1  278   2.709   0.880   2.427  1.8834  0.9317  2.0544
   93SOL    HW2  279   2.548   0.903   2.442 -0.1060 -0.6933  0.3788
   94SOL     OW  280   2.116   1.666   2.754 -0.5501 -0.1580  0.7832
   94SOL    HW1  281   2.062   1.741   2.792 -2.8277 -0.6365  0.0466
   94SOL    HW2  282   2.202   1.701   2.703  1.4318  2.2378 -1.4857
   95SOL     OW  283   2.612   0.789   1.427 -0.1346  0.3768 -0.0301
   95SOL    HW1  284   2.647   0.862   1.362  1.1341  2.0345  0.6686
   95SOL    HW2  285   2.589   0.705   1.376  1.1249  1.1412  1.0851
   96SOL     OW  286   2.610   2.983   1.834  0.3426  0.0870 -0.3251
   96SOL    HW1  287   2.686   2.925   1.871  1.5435 -2.8025  1.8606
   96SOL    HW2  288   2.532   2.980   1.898  1.9757  0.0644  0.2883
   97SOL     OW  289   2.593   1.092   1.387 -0.0685  0.0762 -0.0406
   97SOL    HW1  290   2.637   1.178   1.426  2.1042  0.8324  3.0472
   97SOL    HW2  291   2.493   1.088   1.409  0.8435  0.1309 -0.4691
   98SOL     OW  292   1.588   2.309   1.740 -0.5043  0.2261 -0.2134
   98SOL    HW1  293   1.602   2.212   1.776  1.8739 -1.5798  1.5561
   98SOL    HW2  294   1.533   2.356   1.810 -0.8535 -0.0963  1.5982
   99SOL     OW  295   0.503   2.431   1.583 -0.1394  0.4825  0.4095
   99SOL    HW1  296   0.542   2.425   1.484  2.7640 -1.0534 -1.3456
   99SOL    HW2  297   0.493   2.529   1.609  1.9133 -0.8059 -0.7852
  100SOL     OW  298   1.177   0.528   3.092  0.1777 -0.5613 -0.4380
  100SOL    HW1  299   1.131   0.516   0.062 -2.6565 -0.2927  0.8121
  100SOL    HW2  300   1.264   0.491   3.092 -1.7952  2.9336 -0.7012
  101SOL     OW  301   2.370   0.215   2.610 -0.4124 -0.0720 -0.1157
  101SOL    HW1  302   2.438   0.138   2.619  1.4175 -1.7891  1.8778
  101SOL    HW2  303   2.368   0.276   2.693 -1.8461 -1.0472  2.5115
  102SOL     OW  304   0.383   0.512   1.300  0.5499  0.6323 -0.2902
  102SOL    HW1  305   0.391   0.413   1.325 -0.7017  1.6811 -2.0554
  102SOL    HW2  306   0.433   0.539   1.218  1.0296 -2.0693  2.0146
  103SOL     OW  307   0.661   0.452   2.606  0.1116 -0.3801  0.2598
  103SOL    HW1  308   0.701   0.539   2.648  1.2404  2.0590 -0.4747
  103SOL    HW2  309   0.691   0.371   2.659 -1.5538  0.4824  2.7689
  104SOL     OW  310   0.921   0.853   2.605 -0.4221 -0.2005  0.0935
  104SOL    HW1  311   0.916   0.930   2.672 -2.1094 -1.3847  0.0779
  104SOL    HW2  312   1.003   0.795   2.624 -2.8695 -1.8523 -1.7161
  105SOL     OW  313   2.116   2.011   1.740  0.2986  0.5712 -0.3682
  105SOL    HW1  314   2.128   2.010   1.843 -0.9428 -0.6263  3.2248
  105SOL    HW2  315   2.169   2.086   1.696  1.1146  1.5577 -0.4661
  106SOL     OW  316   1.999   3.028   0.730  0.3696 -0.0024 -0.3047
  106SOL    HW1  317   2.024   2.933   0.764  1.4658 -0.1682 -1.7948
  106SOL    HW2  318   2.071   3.073   0.671  1.6109 -0.3305  1.3700
  107SOL     OW  319   2.573   2.031   1.110  0.0611 -0.6388 -0.0924
  107SOL    HW1  320   2.540   1.942   1.072 -3.0523  1.5184 -2.4269
  107SOL    HW2  321   2.619   2.080   1.031 -0.2440 -0.4212 -0.1824
  108SOL     OW  322   2.578   3.059   1.413 -0.6489 -0.4034  0.3748
  108SOL    HW1  323   2.584   2.980   1.469 -2.1188  1.1284 -3.6726
  108SOL    HW2  324   2.651   0.000   1.440 -0.3943 -1.8900 -0.0114
  109SOL     OW  325   2.028   2.405   1.075  0.5702  0.0224 -0.2775
  109SOL    HW1  326   2.037   2.350   1.159 -0.3910  2.7394 -0.6197
  109SOL    HW2  327   2.057   2.507   1.095  0.6667  1.8298 -0.9266
  110SOL     OW  328   0.595   1.827   1.989 -0.4094 -0.0244 -0.2462
  110SOL    HW1  329   0.565   1.751   1.927  0.1261  1.6682  1.8622
  110SOL    HW2  330   0.537   1.834   2.073 -1.5228 -0.7881  1.4034
  111SOL     OW  331   1.609   2.431   2.197  0.5234 -0.6212 -0.1012
  111SOL    HW1  332   1.705   2.463   2.192 -0.8134 -1.5546  0.2058
  111SOL    HW2  333   1.556   2.470   2.122  0.8014  1.1273  1.2812
  112SOL     OW  334   1.633   1.750   2.533 -0.3559  0.4065 -0.1499
  112SOL    HW1  335   1.614   1.845   2.491  2.9615  0.5297 -1.0083
  112SOL    HW2  336   1.696   1.704   2.467  1.5246  1.9426 -1.1916
  113SOL     OW  337   1.655   2.067   1.841  0.7321 -0.6857  0.1802
  113SOL    HW1  338   1.621   1.975   1.867  0.2567 -2.2248  0.3522
  113SOL    HW2  339   1.711   2.057   1.755 -0.0628 -1.3117 -0.6662
  114SOL     OW  340   2.911   0.753   0.817  0.1884 -0.6433  0.1496
  114SOL    HW1  341   2.809   0.751   0.820  2.6620  1.4380  1.1875
  114SOL    HW2  342   2.954   0.841   0.862  0.5771 -1.0177  5.7696
  115SOL     OW  343   0.705   0.833   0.270 -0.5058 -0.0615 -0.2144
  115SOL    HW1  344   0.659   0.880   0.350 -1.2069  1.7274  2.6968
  115SOL    HW2  345   0.660   0.744   0.241  0.4724 -0.0177  0.9210
  116SOL     OW  346   2.794   1.739   2.483 -0.0270  0.5483 -0.2485
  116SOL    HW1  347   2.729   1.814   2.468  2.1103  3.7283 -0.2353
  116SOL    HW2  348   2.878   1.759   2.538  0.2501 -0.2948 -2.1763
  117SOL     OW  349   3.051   2.840   0.683 -0.5796 -0.2909 -0.0094
  117SOL    HW1  350   3.096   2.789   0.610  1.4802 -0.6364 -0.0106
  117SOL    HW2  351   2.957   2.808   0.706 -0.0312 -0.4546  1.5284
  118SOL     OW  352   0.955   1.514   2.645 -0.3704  0.8549 -0.0139
  118SOL    HW1  353   0.870   1.508   2.595 -1.1519 -1.2184 -0.8266
  118SOL    HW2  354   1.027   1.525   2.572  0.6251 -0.3457 -1.6258
  119SOL     OW  355   0.354   2.088   0.093  0.0542  0.1127 -0.2455
  119SOL    HW1  356   0.258   2.122   0.086 -0.2903 -0.4722 -0.2860
  119SOL    HW2  357   0.359   2.038   0.185 -0.5191 -0.4972  3.9979
  120SOL     OW  358   1.405   0.740   0.387 -0.4789 -0.6000  0.0837
  120SOL    HW1  359   1.501   0.717   0.422  2.7422  1.9207 -0.1806
  120SOL    HW2  360   1.369   0.827   0.419  0.4258 -1.5470  0.8951
  121SOL     OW  361   1.263   2.334   0.272 -0.2083 -0.0536 -0.3674
  121SOL    HW1  362   1.308   2.363   0.357 -3.0290  0.1188 -1.0111
  121SOL    HW2  363   1.273   2.233   0.263  1.4605 -1.2568  0.7073
  122SOL     OW  364   2.571   2.443   1.758 -0.4706 -0.1233  0.2424
  122SOL    HW1  365   2.575   2.484   1.666  1.5921 -2.6813 -1.3001
  122SOL    HW2  366   2.583   2.340   1.753  0.8338  0.0834 -3.1890
  123SOL     OW  367   0.784   1.916   0.527  0.5236  0.2873  1.1178
  123SOL    HW1  368   0.710   1.908   0.453  1.1631 -0.5748 -1.5269
  123SOL    HW2  369   0.801   2.008   0.562  1.1682 -0.8208  2.8327
  124SOL     OW  370   3.074   0.811   0.186  0.3062  0.6258  0.2800
  124SOL    HW1  371   0.051   0.797   0.203  0.4595  2.1587  1.7094
  124SOL    HW2  372   3.031   0.806   0.280  0.7622  0.1888  1.3969
  125SOL     OW  373   0.533   0.918   0.447 -0.3627  0.0171  0.1386
  125SOL    HW1  374   0.436   0.895   0.449 -0.4957  1.7207  0.4277
  125SOL    HW2  375   0.574   0.943   0.542  5.0448  2.1698  0.2480
  126SOL     OW  376   3.000   1.894   0.819 -0.2386  0.6851  0.1251
  126SOL    HW1  377   3.000   1.889   0.918 -0.6839  0.1626 -1.0308
  126SOL    HW2  378   3.087   1.866   0.776  0.4882  0.1324  0.4016
  127SOL     OW  379   1.444   1.805   1.707 -0.0870 -0.4779  0.8884
  127SOL    HW1  380   1.501   1.786   1.790 -0.4490  0.0043  1.3155
  127SOL    HW2  381   1.356   1.853   1.739  0.2253  1.5647  1.4830
  128SOL     OW  382   0.929   1.165   0.168  0.2179  0.8886  1.1110
  128SOL    HW1  383   0.863   1.093   0.125 -0.0628 -0.1610 -2.8927
  128SOL    HW2  384   0.953   1.227   0.097 -1.0994  0.0265  0.0472
  129SOL     OW  385   1.762   1.464   1.130  0.3227 -0.1065  0.7304
  129SOL    HW1  386   1.730   1.526   1.059  2.1985 -0.1457  0.0401
  129SOL    HW2  387   1.737   1.502   1.225  0.1589  0.2868  1.5819
  130SOL     OW  388   2.349   1.663   1.557 -0.5769 -0.3093  0.1798
  130SOL    HW1  389   2.268   1.725   1.556 -1.6442  0.3615  0.8387
  130SOL    HW2  390   2.398   1.681   1.647  1.9529  0.8684  3.4910
  131SOL     OW  391   3.100   2.673   2.866 -0.0135  0.5418  0.5215
  131SOL    HW1  392   3.024   2.742   2.888 -0.1514  2.0003  0.3945
  131SOL    HW2  393   0.008   2.689   2.770  2.4468  0.8073 -2.7238
  132SOL     OW  394   2.924   1.657   0.721  0.0440  0.0946  0.2318
  132SOL    HW1  395   2.938   1.757   0.747 -2.5318 -1.0079 -0.3396
  132SOL    HW2  396   2.836   1.622   0.759 -0.4104  0.4311  4.0123
  133SOL     OW  397   0.512   2.946   1.852 -0.3747  0.1119  0.0365
  133SOL    HW1  398   0.573   3.012   1.895 -1.1057  2.0500 -0.2995
  133SOL    HW2  399   0.520   2.860   1.904 -0.6379  0.0502 -0.7612
  134SOL     OW  400   0.117   1.792   2.982  0.9606 -0.0543 -0.6513
  134SOL    HW1  401   0.061   1.786   3.068 -2.7582  2.1536  1.0719
  134SOL    HW2  402   0.093   1.881   2.937  1.0011  1.7419  2.0699
  135SOL     OW  403   1.416   0.774   1.940  0.5904  0.3776  0.2225
  135SOL    HW1  404   1.337   0.836   1.961  1.1913  0.7132  0.6381
  135SOL    HW2  405   1.499   0.811   1.990 -1.2949 -1.2311  1.1584
  136SOL     OW  406   2.842   1.433   0.301  0.3858 -0.1874 -0.1021
  136SOL    HW1  407   2.908   1.488   0.359  0.1530 -0.1925 -3.5145
  136SOL    HW2  408   2.829   1.486   0.222  1.9322 -0.2647  3.4548
  137SOL     OW  409   3.108   1.846   1.082 -0.0604  0.4869  0.3362
  137SOL    HW1  410   3.118   1.768   1.143  1.1967  0.7680 -3.1534
  137SOL    HW2  411   0.077   1.895   1.080  0.1435 -1.1233  0.9871
  138SOL     OW  412   2.307   0.583   1.240 -0.2102 -0.1350 -0.0407
  138SOL    HW1  413   2.392   0.558   1.287 -0.4855  2.1459  0.6259
  138SOL    HW2  414   2.262   0.499   1.218  2.1057  0.4937 -0.6176
  139SOL     OW  415   1.267   2.642   0.007  0.6083 -0.4492  0.0056
  139SOL    HW1  416   1.341   2.694   3.080  2.5655  0.9933  1.8411
  139SOL    HW2  417   1.173   2.662   3.088 -0.2583 -2.5790 -1.4955
  140SOL     OW  418   1.361   1.715   1.065 -0.6477  0.0068  0.0002
  140SOL    HW1  419   1.291   1.637   1.051 -5.3118 -1.1736 -0.6681
  140SOL    HW2  420   1.377   1.772   0.979  0.5768 -2.3429 -0.3851
  141SOL     OW  421   1.226   2.064   0.318 -0.0072 -0.2548  0.0542
  141SOL    HW1  422   1.134   2.018   0.312  0.3499 -2.1396 -0.0227
  141SOL    HW2  423   1.300   2.013   0.276 -2.1299  0.9451  2.1113
  142SOL     OW  424   1.157   0.339   0.834 -0.1678 -0.0137  0.3369
  142SOL    HW1  425   1.240   0.350   0.785 -1.9264  1.2424 -0.2722
  142SOL    HW2  426   1.087   0.323   0.764  0.4629  0.5778  0.7016
  143SOL     OW  427   0.929   1.717   2.902 -0.0541 -0.4979  0.2118
  143SOL    HW1  428   1.019   1.729   2.849 -0.6232  0.6474  0.2457
  143SOL    HW2  429   0.884   1.637   2.862 -1.1200  1.1883 -0.3387
  144SOL     OW  430   1.858   2.592   0.678 -0.1559  0.0563 -0.1905
  144SOL    HW1  431   1.820   2.620   0.586 -1.3575  0.6243  1.3862
  144SOL    HW2  432   1.910   2.506   0.665 -1.6712  2.0792 -0.2791
  145SOL     OW  433   2.061   0.451   2.617  0.0435  0.4019 -0.7231
  145SOL    HW1  434   2.033   0.396   2.539 -0.1102 -0.9575  1.2329
  145SOL    HW2  435   2.161   0.470   2.614 -1.2901  0.7135  1.1341
  146SOL     OW  436   0.381   3.012   0.576  0.2403 -0.1505 -0.0418
  146SOL    HW1  437   0.286   2.977   0.591 -0.3023 -1.5191 -0.6411
  146SOL    HW2  438   0.390   3.018   0.473  2.8448 -2.5318 -1.6711
  147SOL     OW  439   2.054   0.294   2.047  0.5826  0.2004  0.2582
  147SOL    HW1  440   1.984   0.349   2.096  0.1554 -1.3045 -2.6982
  147SOL    HW2  441   2.109   0.359   1.990  0.5961  0.3336  2.5975
  148SOL     OW  442   0.965   0.151   2.128  0.1205 -0.6516  0.5707
  148SOL    HW1  443   0.950   0.220   2.053  1.0127  0.8653 -0.0657
  148SOL    HW2  444   1.051   0.155   2.181 -0.6897 -1.1414 -0.3773
  149SOL     OW  445   1.599   0.571   1.914  0.1277 -0.0623 -0.0724
  149SOL    HW1  446   1.537   0.650   1.914 -1.6179  0.8853 -0.6262
  149SOL    HW2  447   1.566   0.494   1.970 -0.2817  1.9015  2.6854
  150SOL     OW  448   0.032   0.327   0.136 -0.2456 -0.5978  0.6694
  150SOL    HW1  449   3.085   0.253   0.133  2.4801 -1.1790  3.3445
  150SOL    HW2  450   0.027   0.396   0.059  0.2598  0.4382 -2.4091
  151SOL     OW  451   0.600   1.501   0.169  0.1818 -0.7661  0.9070
  151SOL    HW1  452   0.599   1.484   0.068 -1.1725 -0.6241 -1.7738
  151SOL    HW2  453   0.699   1.497   0.200 -1.0840  0.1188 -1.7749
  152SOL     OW  454   3.097   0.395   0.408 -0.3332 -0.2677 -0.2104
  152SOL    HW1  455   3.084   0.387   0.310  0.8858  0.7602  0.6808
  152SOL    HW2  456   3.101   0.495   0.435 -0.6919  1.1456  0.2343
  153SOL     OW  457   2.555   0.528   1.330 -0.3993 -0.2882 -0.8608
  153SOL    HW1  458   2.521   0.480   1.416  0.3053  0.2866  0.4244
  153SOL    HW2  459   2.657   0.523   1.331  0.5293  0.2729  0.1154
  154SOL     OW  460   1.629   0.006   2.365 -0.0205  0.4152 -0.5672
  154SOL    HW1  461   1.624   3.106   2.269  1.2027  0.6488 -1.9586
  154SOL    HW2  462   1.538   0.008   2.401  1.0846  1.3229 -0.9450
  155SOL     OW  463   0.118   1.810   0.701 -0.4678 -0.1253 -0.0508
  155SOL    HW1  464   0.178   1.875   0.755  0.6336  0.9737 -0.2148
  155SOL    HW2  465   0.171   1.721   0.686  2.1611 -0.6464 -2.2756
  156SOL     OW  466   2.145   2.045   2.797 -0.3956 -0.6187  0.4096
  156SOL    HW1  467   2.076   1.991   2.842  3.3237 -1.1866  1.4629
  156SOL    HW2  468   2.160   2.133   2.851 -0.3118 -1.2448 -3.2033
  157SOL     OW  469   0.979   0.316   0.604  0.5160  0.0037 -0.5742
  157SOL    HW1  470   0.954   0.411   0.570  1.4131  2.5828  0.0413
  157SOL    HW2  471   1.014   0.252   0.532 -0.2595 -0.3365  0.8926
  158SOL     OW  472   2.321   0.582   2.290 -0.1089  0.1242  0.5520
  158SOL    HW1  473   2.256   0.519   2.331  1.0018  0.6007 -1.8648
  158SOL    HW2  474   2.338   0.554   2.191  1.1569 -1.0977 -0.9594
  159SOL     OW  475   0.118   0.180   0.421 -0.1861 -0.0472 -0.4471
  159SOL    HW1  476   0.081   0.272   0.397  0.5701 -1.1561 -0.5567
  159SOL    HW2  477   0.210   0.187   0.469  2.3238  0.5542 -1.3083
  160SOL     OW  478   1.512   2.010   2.153  0.0656 -0.3056  0.3221
  160SOL    HW1  479   1.428   2.056   2.121 -2.3624  0.1350  0.4914
  160SOL    HW2  480   1.555   1.960   2.074 -3.0543 -1.2696  0.7243
  161SOL     OW  481   2.806   0.778   2.817 -0.3822  0.8168 -0.2282
  161SOL    HW1  482   2.896   0.825   2.806 -0.7489  0.2905 -2.5572
  161SOL    HW2  483   2.817   0.686   2.769  0.9951 -0.9671 -1.4857
  162SOL     OW  484   0.832   2.584   1.470 -0.4487  0.0654  0.3965
  162SOL    HW1  485   0.906   2.575   1.397  4.2239 -2.7085 -1.9873
  162SOL    HW2  486   0.751   2.635   1.440  1.2613  0.0960  0.7987
  163SOL     OW  487   2.660   0.354   2.581 -0.1316 -0.4530  0.4760
  163SOL    HW1  488   2.676   0.302   2.494  2.1593 -0.6711 -0.3175
  163SOL    HW2  489   2.577   0.411   2.572 -0.7283 -0.6700  4.2420
  164SOL     OW  490   2.094   1.755   0.098 -0.6505 -0.2220  0.0641
  164SOL    HW1  491   2.046   1.734   0.010 -0.8716 -0.7562 -0.6870
  164SOL    HW2  492   2.196   1.763   0.094 -0.8252 -3.1578 -0.5354
  165SOL     OW  493   2.866   0.372   1.598 -0.2346  0.1447  0.4127
  165SOL    HW1  494   2.811   0.425   1.529 -0.3440  1.6665  1.6587
  165SOL    HW2  495   2.965   0.371   1.586 -1.7426 -0.5551 -0.5877
  166SOL     OW  496   2.358   0.792   3.093  0.0404 -0.2312  0.2950
  166SOL    HW1  497   2.449   0.761   3.108  1.2468  1.1933 -2.4528
  166SOL    HW2  498   2.360   0.852   3.011  2.9849  1.1536 -1.5088
  167SOL     OW  499   2.894   0.598   0.138  0.2388 -0.4161  0.4209
  167SOL    HW1  500   2.964   0.671   0.151 -1.5570 -1.3015  1.9501
  167SOL    HW2  501   2.890   0.558   0.043  0.3989  1.8006 -0.8234
  168SOL     OW  502   1.822   2.981   2.948  0.2397 -0.3778 -0.1814
  168SOL    HW1  503   1.861   2.904   3.006 -0.7462 -2.0330  1.2978
  168SOL    HW2  504   1.767   3.045   3.008 -0.7055 -0.4617 -0.9866
  169SOL     OW  505   0.199   1.412   0.821 -0.4386  0.4784 -0.3177
  169SOL    HW1  506   0.111   1.429   0.872  0.2884 -0.0254  0.7721
  169SOL    HW2  507   0.215   1.310   0.817  0.1976 -0.1179  2.0470
  170SOL     OW  508   2.817   0.542   1.374 -0.4326  0.1822 -0.0230
  170SOL    HW1  509   2.888   0.535   1.300 -1.5528 -0.9575 -0.8504
  170SOL    HW2  510   2.846   0.607   1.448  0.6100  2.8716  5.2374
  171SOL     OW  511   1.977   2.302   1.943  0.0978 -0.0518 -0.6587
  171SOL    HW1  512   1.890   2.252   1.982 -0.4654 -0.9450 -3.6748
  171SOL    HW2  513   2.047   2.226   1.929 -0.5011 -4.7911  0.1412
  172SOL     OW  514   0.229   2.348   1.611 -0.5763  0.6327 -0.3170
  172SOL    HW1  515   0.205   2.247   1.597  0.5548 -2.1460  0.8586
  172SOL    HW2  516   0.327   2.373   1.612  0.4718  1.1060 -2.8373
  173SOL     OW  517   1.302   1.098   0.097 -0.0305 -0.5293 -0.2779
  173SOL    HW1  518   1.353   1.090   0.185 -0.5653 -1.2854  1.7700
  173SOL    HW2  519   1.256   1.006   0.071 -0.6828 -0.9857 -1.3334
  174SOL     OW  520   1.407   0.085   2.620 -0.0926  0.2556  0.0805
  174SOL    HW1  521   1.450   0.049   2.703 -2.8178  0.3525  1.7828
  174SOL    HW2  522   1.430   0.186   2.614  0.2148  1.8747  0.9272
  175SOL     OW  523   1.931   1.941   0.970  0.0758  0.1049 -0.0844
  175SOL    HW1  524   2.006   1.911   1.039  1.4420  0.6264  1.4762
  175SOL    HW2  525   1.845   1.891   0.974 -2.0360  2.3309  1.2337
  176SOL     OW  526   1.729   0.261   0.317 -0.1366 -0.0593 -0.3270
  176SOL    HW1  527   1.787   0.298   0.390 -0.8737 -0.6398 -0.4546
  176SOL    HW2  528   1.643   0.215   0.353 -1.4307 -0.9506  0.7863
  177SOL     OW  529   0.588   1.354   3.038 -0.0431 -0.5684 -0.9396
  177SOL    HW1  530   0.542   1.379   2.949  1.6509 -1.1451  0.1538
  177SOL    HW2  531   0.563   1.256   3.068  0.7946 -2.9221  1.6479
  178SOL     OW  532   2.660   2.281   2.673 -0.4839 -0.0643  0.4012
  178SOL    HW1  533   2.730   2.231   2.611  0.4120 -1.9702 -0.8374
  178SOL    HW2  534   2.582   2.324   2.625 -0.2530  0.8639  0.8315
  179SOL     OW  535   2.778   0.103   3.030 -0.8068 -0.0466 -0.0322
  179SOL    HW1  536   2.766   0.106   2.928 -1.4774  2.1697  1.9312
  179SOL    HW2  537   2.688   0.078   3.072 -2.4241  1.9001 -1.3965
  180SOL     OW  538   1.721   1.157   0.559  0.3535 -0.0359  0.2908
  180SOL    HW1  539   1.668   1.145   0.649 -0.8350 -0.2023  4.6841
  180SOL    HW2  540   1.823   1.150   0.573  0.5581  1.6259 -0.1548
  181SOL     OW  541   1.872   1.350   2.392 -0.6360 -0.5360 -0.5045
  181SOL    HW1  542   1.855   1.271   2.324  1.1062 -1.2352 -1.0580
  181SOL    HW2  543   1.876   1.315   2.481  3.0612 -0.7261  0.6592
  182SOL     OW  544   2.545   2.810   2.627  0.0169  0.4368 -0.3809
  182SOL    HW1  545   2.611   2.782   2.703 -1.5765 -0.4815  0.7768
  182SOL    HW2  546   2.532   2.910   2.628 -0.8353 -0.9350  1.0684
  183SOL     OW  547   1.868   0.679   2.115  0.4408 -0.4091 -0.2496
  183SOL    HW1  548   1.961   0.691   2.076 -0.4261  0.3730  3.0470
  183SOL    HW2  549   1.846   0.586   2.147  2.6349 -0.7720 -0.7293
  184SOL     OW  550   0.183   1.280   1.553 -0.2704 -0.3327  0.4950
  184SOL    HW1  551   0.202   1.354   1.482  2.0150  0.7192 -0.2694
  184SOL    HW2  552   0.096   1.297   1.605  2.2912  1.8146 -4.6065
  185SOL     OW  553   1.758   0.438   0.917 -0.2408 -0.0313  0.2170
  185SOL    HW1  554   1.756   0.389   1.007  0.5046 -2.5100  0.5547
  185SOL    HW2  555   1.742   0.367   0.842 -0.5956 -1.3436  1.2499
  186SOL     OW  556   0.347   2.280   2.947 -0.1411 -0.5520 -0.1457
  186SOL    HW1  557   0.277   2.299   3.019 -0.8121 -1.2412 -1.2372
  186SOL    HW2  558   0.316   2.220   2.872  2.1226  1.2651  0.0423
  187SOL     OW  559   2.906   1.170   0.340  0.5753  0.3249 -0.0734
  187SOL    HW1  560   2.876   1.265   0.341 -0.9934 -3.6988  0.4533
  187SOL    HW2  561   2.877   1.125   0.257  1.7464 -0.6436  1.2725
  188SOL     OW  562   2.591   1.389   1.235 -0.0694 -0.2815 -0.5312
  188SOL    HW1  563   2.618   1.346   1.322  0.4699  1.4656  0.3738
  188SOL    HW2  564   2.656   1.456   1.201 -0.5200 -0.8700  2.2560
  189SOL     OW  565   2.849   0.526   2.728  0.3424  0.2313  0.1430
  189SOL    HW1  566   2.792   0.460   2.679  2.2364  2.5345 -0.6065
  189SOL    HW2  567   2.935   0.541   2.676  0.4991 -0.5198  0.6537
  190SOL     OW  568   1.304   1.148   1.602 -0.1364 -0.1373 -0.6329
  190SOL    HW1  569   1.368   1.198   1.542  3.3305 -2.0018 -1.8633
  190SOL    HW2  570   1.213   1.200   1.625 -1.4589  0.9835  2.5063
  191SOL     OW  571   0.504   0.355   2.167 -0.1816  0.7102  0.0384
  191SOL    HW1  572   0.416   0.382   2.132  2.6215 -2.9549  2.5657
  191SOL    HW2  573   0.562   0.303   2.104  0.4850  3.0196  0.4842
  192SOL     OW  574   1.884   1.823   1.260  0.6827  0.3081 -0.2035
  192SOL    HW1  575   1.822   1.791   1.184  0.2640 -0.7125  0.8541
  192SOL    HW2  576   1.862   1.784   1.349  2.3372 -0.4532 -1.8464
  193SOL     OW  577   1.512   0.837   1.203  0.6098 -0.1230 -0.2513
  193SOL    HW1  578   1.575   0.871   1.273 -1.2756 -0.2995  0.8806
  193SOL    HW2  579   1.537   0.745   1.166 -2.8066  0.5278  0.5417
  194SOL     OW  580   0.523   2.158   1.304  0.0820  0.4833  0.4458
  194SOL    HW1  581   0.515   2.258   1.320  0.8971 -3.5253 -1.2987
  194SOL    HW2  582   0.519   2.138   1.206  0.3024  1.8824 -2.0528
  195SOL     OW  583   1.939   0.399   0.487  0.4080 -0.5564 -0.2687
  195SOL    HW1  584   1.992   0.480   0.511 -2.3623 -0.3103 -2.1281
  195SOL    HW2  585   1.950   0.380   0.386  0.5211 -2.1138  0.2843
  196SOL     OW  586   0.194   1.302   1.225  0.3761  0.1231  0.0850
  196SOL    HW1  587   0.200   1.393   1.268 -0.6439 -2.3389 -0.1064
  196SOL    HW2  588   0.258   1.238   1.276  1.5993 -0.3994 -0.4599
  197SOL     OW  589   1.140   0.118   1.755  0.0730  0.1537  0.1200
  197SOL    HW1  590   1.135   0.024   1.710  2.6502  2.5614  0.3599
  197SOL    HW2  591   1.191   0.115   1.846 -0.3571  0.5710 -3.6142
  198SOL     OW  592   0.607   1.259   1.071  0.2509  0.0892 -0.4122
  198SOL    HW1  593   0.524   1.278   1.128 -1.2320 -0.0465 -1.1822
  198SOL    HW2  594   0.579   1.214   0.982  1.1884  1.3403  0.4246
  199SOL     OW  595   0.112   2.433   1.835 -0.3222 -0.7380  0.0637
  199SOL    HW1  596   0.095   2.535   1.831 -1.8841  2.5053 -2.0394
  199SOL    HW2  597   0.161   2.395   1.753  0.7583  0.7261 -1.4850
  200SOL     OW  598   1.869   1.846   1.920  0.4328  0.5421 -0.5349
  200SOL    HW1  599   1.947   1.782   1.907  0.9744  1.2233  1.1186
  200SOL    HW2  600   1.873   1.920   1.849  0.2395  0.8875  1.2655
  201SOL     OW  601   0.433   1.786   2.199  0.0303 -0.0262  0.4226
  201SOL    HW1  602   0.421   1.824   2.293  0.5475  1.4252  2.6516
  201SOL    HW2  603   0.366   1.822   2.130  3.1012 -0.3281  1.2068
  202SOL     OW  604   1.783   0.644   0.039  0.2673 -0.3835 -0.2758
  202SOL    HW1  605   1.735   0.668   3.076 -2.5791 -1.6400  0.8495
  202SOL    HW2  606   1.844   0.720   0.064 -0.1756  1.0395  0.6990
  203SOL     OW  607   1.357   2.769   1.789 -0.0941 -0.2241  0.5689
  203SOL    HW1  608   1.394   2.841   1.848  1.0453 -0.5767 -0.3013
  203SOL    HW2  609   1.280   2.724   1.839  1.4526  2.2946 -0.6028
  204SOL     OW  610   0.421   1.842   1.572 -0.3960  0.5285 -0.5938
  204SOL    HW1  611   0.403   1.911   1.500 -1.3183 -0.6667  0.1652
  204SOL    HW2  612   0.356   1.766   1.562 -0.1655 -0.1978 -2.2642
  205SOL     OW  613   1.591   1.831   1.963 -0.2086 -0.2676  0.3680
  205SOL    HW1  614   1.688   1.806   1.974 -1.9593  4.8402 -0.6746
  205SOL    HW2  615   1.535   1.761   2.007 -0.8668  0.9723 -1.1203
  206SOL     OW  616   0.089   1.289   2.128 -0.2228 -0.5134 -0.0788
  206SOL    HW1  617   0.164   1.232   2.083  1.7063  1.8595  0.7563
  206SOL    HW2  618   0.122   1.353   2.198  0.0316  1.0040  0.1968
  207SOL     OW  619   0.822   2.841   2.081  0.1860  0.3591 -0.0774
  207SOL    HW1  620   0.788   2.844   2.178 -2.5164 -0.0526  3.0926
  207SOL    HW2  621   0.849   2.935   2.051 -2.2937  1.4433 -0.3001
  208SOL     OW  622   0.608   2.700   1.947  0.2692 -0.2542  0.1778
  208SOL    HW1  623   0.668   2.767   1.997 -1.1347 -1.7082 -3.4259
  208SOL    HW2  624   0.650   2.608   1.950 -2.0174  0.5815  2.0747
  209SOL     OW  625   1.423   3.048   0.444 -0.1664  0.0100 -0.0101
  209SOL    HW1  626   1.523   3.019   0.425  1.4374 -0.0006  1.4002
  209SOL    HW2  627   1.420   0.025   0.464 -0.5173  0.3013 -0.8705
  210SOL     OW  628   2.610   0.630   0.758  0.0824  0.1223  0.2800
  210SOL    HW1  629   2.610   0.541   0.714  1.1211  1.5123  0.5349
  210SOL    HW2  630   2.669   0.692   0.706  0.3501 -2.1388  1.2151
  211SOL     OW  631   0.710   0.335   1.626 -0.4225  0.4485 -0.5706
  211SOL    HW1  632   0.609   0.317   1.637 -2.4522 -1.2449  1.0607
  211SOL    HW2  633   0.742   0.433   1.648  3.9289  1.2003  1.0890
  212SOL     OW  634   1.566   2.137   1.341  0.3232 -0.2801  0.4138
  212SOL    HW1  635   1.489   2.075   1.368 -1.8181  0.1523  0.5557
  212SOL    HW2  636   1.541   2.230   1.371  0.0799  1.4619  2.1787
  213SOL     OW  637   2.798   0.394   1.849  0.4489 -0.5056 -0.7808
  213SOL    HW1  638   2.821   0.400   1.750  0.9452  0.1108 -0.4950
  213SOL    HW2  639   2.882   0.391   1.906  0.9827 -0.8272  0.5308
  214SOL     OW  640   0.550   2.434   2.171  0.6313 -0.4505  0.4453
  214SOL    HW1  641   0.572   2.436   2.072  1.3798  2.6329 -0.4111
  214SOL    HW2  642   0.629   2.461   2.222 -5.1580 -0.3297 -1.6935
  215SOL     OW  643   2.743   1.598   1.603  0.3473  0.1005  0.0957
  215SOL    HW1  644   2.827   1.629   1.648 -3.0950 -2.1420  0.8261
  215SOL    HW2  645   2.757   1.523   1.533  2.1801  2.1685  2.6251
  216SOL     OW  646   0.673   0.817   1.988  0.5590  0.4324  0.7119
  216SOL    HW1  647   0.609   0.774   2.057 -1.0681 -1.4538 -1.3558
  216SOL    HW2  648   0.695   0.912   2.022  0.7377  0.0321  0.4388
  217SOL     OW  649   2.738   0.274   1.055 -0.3383  0.0952 -0.6085
  217SOL    HW1  650   2.815   0.316   1.006 -3.1477 -2.3237  0.3546
  217SOL    HW2  651   2.743   0.311   1.150  0.4201 -1.1920  2.8021
  218SOL     OW  652   1.391   1.918   0.888  0.3139 -0.7305  0.2683
  218SOL    HW1  653   1.439   1.914   0.795  1.3193  0.9600 -0.5175
  218SOL    HW2  654   1.364   2.015   0.897  1.4568  3.0572 -1.5388
  219SOL     OW  655   2.202   2.726   0.622 -0.4793  0.1684 -0.7518
  219SOL    HW1  656   2.136   2.725   0.699  1.5103  0.3094 -1.5749
  219SOL    HW2  657   2.162   2.776   0.543 -0.1321  0.2608  2.3767
  220SOL     OW  658   1.940   2.352   0.169  0.2759 -1.3902 -0.0180
  220SOL    HW1  659   1.884   2.318   0.094  2.1631  2.3903 -1.3143
  220SOL    HW2  660   2.012   2.286   0.189 -3.5615 -0.5426  1.7706
  221SOL     OW  661   2.939   1.787   0.317  0.1731 -0.5091  0.7485
  221SOL    HW1  662   2.849   1.834   0.307 -0.3020 -0.7152  0.4000
  221SOL    HW2  663   2.924   1.696   0.356  2.3534  0.7828 -2.5303
  222SOL     OW  664   0.513   2.300   0.854  0.5042  1.1555 -0.6455
  222SOL    HW1  665   0.497   2.313   0.759  1.1608 -4.2714  2.0788
  222SOL    HW2  666   0.615   2.284   0.857 -2.3734  2.4424 -1.3464
  223SOL     OW  667   1.189   0.139   0.367  0.1402 -0.0854  0.8079
  223SOL    HW1  668   1.210   0.138   0.462 -0.9320  0.8104 -0.9927
  223SOL    HW2  669   1.133   0.055   0.335 -0.1836 -1.0136  0.2845
  224SOL     OW  670   2.948   1.128   0.808  0.2746 -0.0636  0.6413
  224SOL    HW1  671   2.851   1.112   0.781  0.7695 -0.3313 -0.7321
  224SOL    HW2  672   2.970   1.067   0.887  0.7559  1.7977  0.2790
  225SOL     OW  673   0.337   1.762   1.186 -0.5843  0.3789 -0.0184
  225SOL    HW1  674   0.294   1.844   1.230  0.7324 -0.2172  3.9210
  225SOL    HW2  675   0.440   1.753   1.186 -0.2172 -0.5116 -1.9111
  226SOL     OW  676   0.676   3.011   0.968 -0.1704  0.4531  0.3191
  226SOL    HW1  677   0.640   3.053   0.882 -0.2653 -1.2445 -0.0608
  226SOL    HW2  678   0.739   3.076   1.012 -0.3873  0.9098  0.1323
  227SOL     OW  679   1.168   1.542   1.695 -0.0333  0.4484  0.0328
  227SOL    HW1  680   1.105   1.623   1.717 -2.7343  1.2067 -1.3850
  227SOL    HW2  681   1.189   1.548   1.595  0.0986 -1.2975 -0.8186
  228SOL     OW  682   0.663   0.268   1.945  0.0194  0.6610 -0.0488
  228SOL    HW1  683   0.654   0.232   1.853  2.1081 -0.2053  0.7751
  228SOL    HW2  684   0.752   0.314   1.959  0.0198  0.2112 -1.5546
  229SOL     OW  685   3.101   0.837   2.574 -0.4412  0.3118 -0.2564
  229SOL    HW1  686   3.078   0.876   2.667 -2.0364  0.2363  1.8481
  229SOL    HW2  687   0.058   0.890   2.539 -2.5587  0.8158 -1.6860
  230SOL     OW  688   0.244   0.685   0.956  0.5029  0.1455  0.4208
  230SOL    HW1  689   0.279   0.706   0.863 -0.4091 -0.1517  2.3404
  230SOL    HW2  690   0.215   0.766   1.008 -2.6312 -3.0024  1.2520
  231SOL     OW  691   1.294   0.090   1.984  0.1557  0.1451 -0.0213
  231SOL    HW1  692   1.268   0.131   2.074  2.3565  0.6439  2.6370
  231SOL    HW2  693   1.319   3.113   1.993 -0.5350  0.4893 -1.8079
  232SOL     OW  694   3.102   2.073   0.258 -0.5959  0.2669  0.4330
  232SOL    HW1  695   0.025   1.992   0.306  2.1627 -1.7568  1.4674
  232SOL    HW2  696   3.001   2.059   0.238 -2.8389  0.1643 -0.6357
  233SOL     OW  697   1.421   2.511   2.704  0.3013  0.2185 -0.5247
  233SOL    HW1  698   1.451   2.521   2.605  2.7114 -2.0025 -0.1851
  233SOL    HW2  699   1.405   2.603   2.750 -0.5208 -0.8384 -1.2910
  234SOL     OW  700   0.524   1.071   1.669  0.1551 -0.4237  0.0765
  234SOL    HW1  701   0.595   1.048   1.606 -0.4818  0.1249  1.2291
  234SOL    HW2  702   0.556   1.148   1.726 -1.6594  0.8472 -0.0722
  235SOL     OW  703   3.027   2.411   2.546  0.4887 -0.4554  0.8277
  235SOL    HW1  704   0.002   2.432   2.519  0.9363  1.2614 -1.0348
  235SOL    HW2  705   3.014   2.416   2.648  2.4838  0.0452 -0.4650
  236SOL     OW  706   1.697   1.896   2.740  0.2722 -0.2242 -0.3558
  236SOL    HW1  707   1.679   1.827   2.670  2.4321  0.6382  4.1583
  236SOL    HW2  708   1.691   1.992   2.706  0.1738  3.1995  0.6718
  237SOL     OW  709   1.499   0.813   0.773  0.5032 -0.5669  0.5069
  237SOL    HW1  710   1.486   0.724   0.729 -2.1702 -0.0694 -1.4494
  237SOL    HW2  711   1.447   0.809   0.863 -3.6471 -1.7719 -0.4276
  238SOL     OW  712   1.048   2.696   2.154  0.2582  0.8140  0.2472
  238SOL    HW1  713   0.965   2.749   2.115 -2.6561  1.4654  0.3283
  238SOL    HW2  714   1.115   2.684   2.081 -0.4088  0.2268  0.4356
  239SOL     OW  715   1.150   2.664   1.920  0.5036  0.5821 -0.1102
  239SOL    HW1  716   1.086   2.737   1.886 -1.1670  2.9872 -1.2811
  239SOL    HW2  717   1.128   2.573   1.880 -0.3750  1.5461  1.7319
  240SOL     OW  718   2.048   3.072   1.015  0.0480 -0.1245 -0.0131
  240SOL    HW1  719   2.013   3.073   0.917  3.4993  1.6949  2.2619
  240SOL    HW2  720   2.150   3.058   1.015  3.0621  0.9068  0.0797
  241SOL     OW  721   1.122   1.334   2.439  0.2017  0.7296  0.3163
  241SOL    HW1  722   1.025   1.300   2.419 -0.8001 -1.8171  1.1596
  241SOL    HW2  723   1.133   1.435   2.433  2.3207 -2.0681 -1.6751
  242SOL     OW  724   2.616   0.711   3.028  0.1227 -0.4997 -0.5106
  242SOL    HW1  725   2.600   0.613   3.036 -1.7040 -3.5542 -1.7308
  242SOL    HW2  726   2.669   0.736   2.945  0.0223 -0.4501 -2.8648
  243SOL     OW  727   0.843   0.586   1.359 -0.0855  0.1778 -0.5538
  243SOL    HW1  728   0.861   0.590   1.459  2.6867  1.2933 -0.3084
  243SOL    HW2  729   0.932   0.562   1.310  0.0622 -0.3053 -2.2907
  244SOL     OW  730   1.441   2.959   2.998  0.3511 -0.0126  0.6209
  244SOL    HW1  731   1.398   3.033   3.053  0.6458 -1.3727 -2.5118
  244SOL    HW2  732   1.481   2.881   3.050 -1.9108  0.5422 -2.8452
  245SOL     OW  733   1.877   2.787   3.099  0.3209  0.1173 -0.2396
  245SOL    HW1  734   1.898   2.691   3.072 -0.4524  1.1252  3.0444
  245SOL    HW2  735   1.959   2.836   0.006  1.4815 -2.0426 -0.7412
  246SOL     OW  736   0.607   0.800   1.440  0.2360 -0.1483  0.0828
  246SOL    HW1  737   0.622   0.769   1.533  0.1895 -2.8648 -2.9926
  246SOL    HW2  738   0.697   0.794   1.391  0.3956  2.1814  0.0790
  247SOL     OW  739   0.215   0.382   2.070  0.1276  0.2239  0.0447
  247SOL    HW1  740   0.155   0.305   2.099 -1.0447  0.4632  0.6546
  247SOL    HW2  741   0.218   0.397   1.971 -0.4385 -0.3353 -0.4918
  248SOL     OW  742   3.023   1.330   1.958  0.4686 -0.1196 -0.3576
  248SOL    HW1  743   2.970   1.418   1.972  0.7921 -0.8675 -2.6619
  248SOL    HW2  744   3.097   1.312   2.025 -0.4862 -0.3651 -2.0018
  249SOL     OW  745   0.229   0.507   0.247  0.1679  0.0094  0.6251
  249SOL    HW1  746   0.318   0.463   0.273  0.3624 -0.2031  2.3741
  249SOL    HW2  747   0.162   0.437   0.217 -2.1216  0.4297 -2.0196
  250SOL     OW  748   2.942   0.153   0.120 -0.2051 -0.3644 -0.1991
  250SOL    HW1  749   2.892   0.223   0.176 -1.7502 -1.6403  0.3300
  250SOL    HW2  750   2.900   0.140   0.027 -1.8166 -0.3067 -0.6236
  251SOL     OW  751   0.916   1.948   1.556  1.0121  0.1277  0.1625
  251SOL    HW1  752   0.979   2.021   1.594 -0.7395 -0.7791 -0.8617
  251SOL    HW2  753   0.941   1.854   1.592  1.0429 -0.5186  2.3857
  252SOL     OW  754   1.936   2.281   0.845  0.3147  0.1392 -0.3808
  252SOL    HW1  755   1.855   2.229   0.878  1.2874  1.3802 -1.9190
  252SOL    HW2  756   1.976   2.346   0.915  2.9881  1.5128 -0.8703
  253SOL     OW  757   1.678   2.008   2.379  0.1212 -0.2060 -0.2673
  253SOL    HW1  758   1.753   2.001   2.312 -0.8740 -1.0716  0.8778
  253SOL    HW2  759   1.591   1.997   2.330 -0.9373  2.6563 -0.2818
  254SOL     OW  760   0.720   2.449   1.948 -0.8218 -0.4871  0.3166
  254SOL    HW1  761   0.719   2.358   1.898  1.2030 -4.8388 -0.5086
  254SOL    HW2  762   0.816   2.467   1.977  1.7619 -0.8535 -2.3839
  255SOL     OW  763   1.218   0.173   1.372  0.0802 -0.0020  0.5340
  255SOL    HW1  764   1.243   0.126   1.282  2.8511  1.2124 -2.1775
  255SOL    HW2  765   1.231   0.117   1.453 -1.4900  3.7762  2.4652
  256SOL     OW  766   2.305   2.201   1.645  0.2452 -0.7953 -0.3041
  256SOL    HW1  767   2.305   2.205   1.545 -1.6204  1.2227  1.7656
  256SOL    HW2  768   2.395   2.201   1.695  0.5896  1.3490  0.0134
  257SOL     OW  769   0.753   2.176   2.764 -0.1869 -0.0072  0.0992
  257SOL    HW1  770   0.708   2.259   2.795 -1.0335 -0.2514  0.8117
  257SOL    HW2  771   0.845   2.159   2.807 -1.9266 -1.5880  0.3736
  258SOL     OW  772   0.518   1.040   2.284  0.1844 -0.4452  0.2134
  258SOL    HW1  773   0.550   1.043   2.383 -0.7559 -1.7027  2.4599
  258SOL    HW2  774   0.447   0.966   2.267 -1.5345 -1.5352 -1.7961
  259SOL     OW  775   0.653   1.422   2.057 -0.2463 -0.6105 -0.5745
  259SOL    HW1  776   0.650   1.441   1.960  1.1140 -0.0695  4.0930
  259SOL    HW2  777   0.750   1.419   2.089  0.6559 -1.6592  1.0041
  260SOL     OW  778   1.842   1.000   1.575  0.2684  0.0908 -0.0953
  260SOL    HW1  779   1.870   1.093   1.542  1.6871  0.1997 -0.9007
  260SOL    HW2  780   1.792   1.017   1.664 -1.2867 -0.3701 -3.4830
  261SOL     OW  781   1.077   3.090   0.749 -0.6223 -0.6197 -0.2924
  261SOL    HW1  782   0.984   3.116   0.719 -0.4537 -1.6076  0.0400
  261SOL    HW2  783   1.110   3.016   0.691 -1.8147 -0.9052  3.0898
  262SOL     OW  784   2.081   2.317   2.486 -0.1619  0.0789 -0.1217
  262SOL    HW1  785   2.083   2.219   2.514  1.4576  1.2492 -0.9306
  262SOL    HW2  786   2.137   2.369   2.559  0.9135  2.8387  2.0805
  263SOL     OW  787   0.220   1.537   2.943 -0.2531 -0.2124  0.0767
  263SOL    HW1  788   0.178   1.630   2.959  0.6048  0.4186  1.2398
  263SOL    HW2  789   0.267   1.505   3.025  0.4543  1.3339 -1.4126
  264SOL     OW  790   0.294   2.006   1.343 -0.4308  0.1599 -0.4666
  264SOL    HW1  791   0.382   2.056   1.339 -0.9615  0.7783 -0.4283
  264SOL    HW2  792   0.241   2.029   1.429  0.0597  0.3578  0.5350
  265SOL     OW  793   0.709   0.975   0.648 -0.6345  0.0477 -0.4460
  265SOL    HW1  794   0.783   0.961   0.721  1.8791  3.5513 -1.0941
  265SOL    HW2  795   0.740   1.044   0.579  1.6064 -2.8500 -0.7485
  266SOL     OW  796   1.340   1.600   3.041  0.1572 -0.1786 -0.1100
  266SOL    HW1  797   1.404   1.646   2.977 -0.5301  0.2070 -0.0013
  266SOL    HW2  798   1.377   1.522   3.089 -1.4711 -0.1073  0.8105
  267SOL     OW  799   0.556   0.777   2.553  0.2205 -0.2961 -0.4486
  267SOL    HW1  800   0.626   0.724   2.607 -1.9230  0.3026  0.9161
  267SOL    HW2  801   0.459   0.745   2.567 -0.0729  0.5194  0.7525
  268SOL     OW  802   0.976   0.649   2.963  0.2874 -0.2398 -0.3970
  268SOL    HW1  803   0.977   0.752   2.975  0.3515 -0.5636  0.5653
  268SOL    HW2  804   1.053   0.595   2.995 -1.4866  0.0659 -2.2212
  269SOL     OW  805   1.944   3.039   2.693 -0.5791 -0.3233 -0.0936
  269SOL    HW1  806   1.859   3.073   2.645 -1.9045  0.3214  0.8306
  269SOL    HW2  807   1.919   3.000   2.783  1.2602  0.5556  0.1598
  270SOL     OW  808   0.941   1.049   2.783 -0.0941 -0.0732 -0.2037
  270SOL    HW1  809   1.022   1.104   2.760 -3.6577  0.5558  0.7483
  270SOL    HW2  810   0.940   1.019   2.882 -0.9462  2.5216  1.9755
  271SOL     OW  811   0.240   0.767   0.172  0.6471  0.1738 -0.2998
  271SOL    HW1  812   0.293   0.785   0.088 -0.8442 -1.7212 -0.3395
  271SOL    HW2  813   0.251   0.669   0.194  0.3903  1.4740 -0.4598
  272SOL     OW  814   2.460   1.284   2.665  0.6006 -0.5016  0.1617
  272SOL    HW1  815   2.444   1.295   2.767 -1.1362  0.6943 -1.8375
  272SOL    HW2  816   2.548   1.234   2.651 -0.9847  1.6398  1.2335
  273SOL     OW  817   0.087   0.209   2.373  0.0315  0.6812 -0.6110
  273SOL    HW1  818   0.040   0.257   2.449  0.1415  3.0221 -1.3529
  273SOL    HW2  819   0.186   0.226   2.376 -1.6893  0.3874  1.3349
  274SOL     OW  820   0.030   0.173   2.034 -0.4848  0.4610  0.3345
  274SOL    HW1  821   0.088   0.101   1.988  0.3760  1.5206  1.9815
  274SOL    HW2  822   0.002   0.145   2.130 -1.3773  1.0577 -1.1195
  275SOL     OW  823   2.019   1.430   0.583 -0.8925 -0.7134 -0.8135
  275SOL    HW1  824   2.029   1.334   0.557 -0.5798  1.3940  1.2287
  275SOL    HW2  825   2.107   1.469   0.611 -0.3686 -0.8613  2.4588
  276SOL     OW  826   0.286   0.932   2.805  0.5962  0.1487  0.1563
  276SOL    HW1  827   0.264   1.016   2.859  1.6187  1.0243  0.3470
  276SOL    HW2  828   0.247   0.939   2.712  1.4201  0.4729 -2.9987
  277SOL     OW  829   1.751   2.773   2.515  0.4441  0.8601  0.2816
  277SOL    HW1  830   1.830   2.711   2.506 -0.4781  3.6116  1.3547
  277SOL    HW2  831   1.733   2.821   2.602 -0.4674  1.3603 -0.7797
  278SOL     OW  832   1.807   0.086   1.617 -0.2134 -0.3115 -0.3528
  278SOL    HW1  833   1.776   0.164   1.681 -2.1227 -2.0890 -2.2761
  278SOL    HW2  834   1.877   0.126   1.552  1.5079  2.5692  1.3157
  279SOL     OW  835   1.469   1.285   3.090 -0.0920  0.4363  0.2244
  279SOL    HW1  836   1.569   1.265   3.076  1.3427 -1.1923  0.4506
  279SOL    HW2  837   1.431   1.215   0.034 -1.2255  0.6039  2.0009
  280SOL     OW  838   0.811   1.410   2.906  0.7218  0.2615  0.1940
  280SOL    HW1  839   0.879   1.402   2.978 -1.6582 -1.8031 -2.3108
  280SOL    HW2  840   0.717   1.411   2.949  0.0093 -0.1634  0.3529
  281SOL     OW  841   3.028   2.962   1.570  0.7808  0.5439  0.2003
  281SOL    HW1  842   3.118   2.908   1.578 -0.0863 -0.5499 -0.4067
  281SOL    HW2  843   3.001   3.009   1.653 -0.4655 -2.6570 -1.7340
  282SOL     OW  844   0.073   2.385   0.766 -0.4849 -0.2882  0.0371
  282SOL    HW1  845   0.122   2.316   0.706  3.2042 -0.6389  0.9681
  282SOL    HW2  846   0.130   2.469   0.780 -3.8901  1.2071  1.4708
  283SOL     OW  847   1.023   2.221   1.937 -0.0147 -0.0533  0.2912
  283SOL    HW1  848   0.999   2.292   2.009  0.9873 -0.3919 -2.3044
  283SOL    HW2  849   1.064   2.136   1.979 -0.7674 -1.9119  0.4186
  284SOL     OW  850   2.200   0.737   0.545 -1.1987 -0.4098  0.0590
  284SOL    HW1  851   2.196   0.655   0.604 -0.9265 -0.5083 -0.9670
  284SOL    HW2  852   2.235   0.818   0.600 -0.4374  1.9181 -1.4192
  285SOL     OW  853   0.039   2.768   2.586  0.4119 -0.1165  0.1908
  285SOL    HW1  854   3.095   2.745   2.517 -0.7625 -0.8773  0.2281
  285SOL    HW2  855   0.135   2.765   2.551 -2.2978 -3.5896  0.9756
  286SOL     OW  856   1.928   2.511   1.481 -0.1276  0.1781 -0.2671
  286SOL    HW1  857   1.936   2.542   1.579 -0.8577 -1.4972  1.2739
  286SOL    HW2  858   1.833   2.532   1.453 -0.7744 -0.3671  0.7144
  287SOL     OW  859   0.912   1.591   1.047  0.0272 -0.5752 -0.1327
  287SOL    HW1  860   0.875   1.512   1.002 -0.4280  2.7417  0.7973
  287SOL    HW2  861   0.840   1.635   1.105 -1.8440 -2.1737 -0.7274
  288SOL     OW  862   1.919   2.512   3.047  0.2544 -0.1090 -0.0807
  288SOL    HW1  863   2.012   2.491   3.084 -0.9864  1.1143  1.0530
  288SOL    HW2  864   1.860   2.433   3.076 -0.0726 -1.0266  0.4178
  289SOL     OW  865   0.417   1.925   2.419 -0.4386 -0.3060  0.0100
  289SOL    HW1  866   0.441   1.996   2.349  2.8370  0.8804  0.2874
  289SOL    HW2  867   0.461   1.950   2.512  4.2181  2.4504  0.5030
  290SOL     OW  868   1.304   2.186   0.939 -0.4122  0.1395 -0.0224
  290SOL    HW1  869   1.385   2.250   0.933  0.3579 -3.3666  0.5871
  290SOL    HW2  870   1.247   2.217   1.020 -2.3318 -0.7309  1.5540
  291SOL     OW  871   1.719   1.539   3.022  0.3290 -0.0907 -0.4776
  291SOL    HW1  872   1.725   1.481   2.938  1.5149 -0.4162 -1.7776
  291SOL    HW2  873   1.730   1.489   3.114  0.8258 -2.7271  1.9917
  292SOL     OW  874   1.435   1.353   0.940  0.0920  0.1308 -0.7923
  292SOL    HW1  875   1.499   1.414   0.891  0.0705 -0.5831  1.1983
  292SOL    HW2  876   1.454   1.376   1.042  1.0833  0.5368  1.3051
  293SOL     OW  877   1.498   2.801   1.005  0.2046  0.0639 -0.4230
  293SOL    HW1  878   1.540   2.743   0.930  0.6468 -0.7477  0.5087
  293SOL    HW2  879   1.399   2.776   1.016 -1.3052  1.0774 -0.3848
  294SOL     OW  880   3.051   1.128   2.599 -0.5846 -0.3602  0.0598
  294SOL    HW1  881   3.038   1.230   2.588  1.7934  2.2499 -1.1917
  294SOL    HW2  882   3.088   1.080   2.520 -0.5969 -2.3334  3.7692
  295SOL     OW  883   1.447   2.262   2.774  0.2919 -0.5974  0.0302
  295SOL    HW1  884   1.448   2.365   2.770  1.8027  0.6585 -1.5916
  295SOL    HW2  885   1.515   2.223   2.709 -1.5372 -0.0039 -0.9623
  296SOL     OW  886   2.050   1.071   2.264  0.1004 -0.1296 -0.0979
  296SOL    HW1  887   1.945   1.065   2.268 -1.2453 -0.5588  2.5650
  296SOL    HW2  888   2.088   1.049   2.355 -1.5132 -0.7753  0.4565
  297SOL     OW  889   0.229   0.638   2.225 -0.7125  0.1172 -0.1488
  297SOL    HW1  890   0.241   0.548   2.182 -1.7418  0.7745  0.2116
  297SOL    HW2  891   0.159   0.689   2.180 -1.3171 -2.2601 -1.1157
  298SOL     OW  892   0.962   2.414   2.098  0.6716 -0.3089  0.0543
  298SOL    HW1  893   1.041   2.475   2.120 -0.6492 -1.4744 -0.9860
  298SOL    HW2  894   0.904   2.411   2.181 -1.0446  0.3710 -1.5273
  299SOL     OW  895   0.569   3.066   2.678  0.4307  0.0372 -0.6316
  299SOL    HW1  896   0.656   3.108   2.707  1.7348 -1.4581 -1.0777
  299SOL    HW2  897   0.568   2.964   2.692 -0.3839 -0.2622 -0.6125
  300SOL     OW  898   0.110   0.756   2.903 -0.0014 -0.1362  0.4857
  300SOL    HW1  899   0.197   0.802   2.878 -2.6731 -2.9045  0.5323
  300SOL    HW2  900   0.032   0.818   2.889 -0.3647 -1.0707 -2.2288
  301SOL     OW  901   1.672   1.265   1.649  0.1986  0.0003 -0.5371
  301SOL    HW1  902   1.587   1.254   1.594 -1.1204 -2.0512 -3.7513
  301SOL    HW2  903   1.666   1.359   1.687 -2.7019 -1.1469  0.7733
  302SOL     OW  904   2.611   1.933   2.380 -0.1551  0.1110  0.2272
  302SOL    HW1  905   2.654   2.016   2.418 -0.1258  0.9358 -0.7334
  302SOL    HW2  906   2.521   1.971   2.345  0.7136  2.9519 -0.6338
  303SOL     OW  907   3.000   0.066   2.672  0.4315 -0.3085 -0.2947
  303SOL    HW1  908   3.080   0.004   2.672  3.0556  1.6750  1.3653
  303SOL    HW2  909   3.025   0.163   2.642 -0.2421  1.6753 -0.3873
  304SOL     OW  910   2.930   0.685   1.576  0.0636  0.2441 -0.3576
  304SOL    HW1  911   3.007   0.733   1.624  0.5040 -1.2015 -0.6711
  304SOL    HW2  912   2.851   0.687   1.637  1.1664 -0.0594 -1.4989
  305SOL     OW  913   2.954   0.000   1.780  0.5260  0.5627 -0.1484
  305SOL    HW1  914   2.909   3.095   1.866 -0.1383 -0.7937 -2.0924
  305SOL    HW2  915   2.886   0.049   1.721 -0.1903 -1.0165 -0.7920
  306SOL     OW  916   2.717   1.317   1.489 -0.2043 -0.1062  0.2728
  306SOL    HW1  917   2.702   1.292   1.588 -2.6445 -1.4385  1.0492
  306SOL    HW2  918   2.814   1.295   1.465 -0.3337 -3.6504  0.8540
  307SOL     OW  919   2.029   0.429   1.123 -0.6893  0.3451  0.1860
  307SOL    HW1  920   2.027   0.367   1.043 -2.3418 -3.3046  3.5681
  307SOL    HW2  921   2.023   0.528   1.102 -0.9972  1.8392  0.8368
  308SOL     OW  922   2.938   1.980   1.249 -0.3736 -0.6826  0.1613
  308SOL    HW1  923   3.005   1.936   1.188  1.2209  3.7206  3.1662
  308SOL    HW2  924   2.898   2.059   1.203  0.4700 -1.8663  1.3521
  309SOL     OW  925   2.120   1.829   1.549  0.4842 -0.2430 -0.0820
  309SOL    HW1  926   2.125   1.899   1.474  0.6075  2.0053  1.6237
  309SOL    HW2  927   2.100   1.880   1.633 -2.4953 -2.5107 -2.0706
  310SOL     OW  928   2.475   1.676   3.016 -0.6491 -0.0741 -0.2752
  310SOL    HW1  929   2.430   1.769   3.016  0.4092  0.2257  0.4066
  310SOL    HW2  930   2.540   1.662   2.936  3.0462 -1.2951 -0.5960
  311SOL     OW  931   2.387   1.253   2.934  0.5003 -0.0620 -0.1754
  311SOL    HW1  932   2.433   1.287   3.021 -2.1150 -1.0017  1.4171
  311SOL    HW2  933   2.289   1.281   2.935 -1.3100  0.5852  1.5960
  312SOL     OW  934   1.180   2.307   1.503 -0.4248  0.0509 -0.3508
  312SOL    HW1  935   1.282   2.297   1.523 -1.0660  0.0436  1.8547
  312SOL    HW2  936   1.125   2.256   1.577  0.9303 -0.8134  1.7367
  313SOL     OW  937   0.369   2.715   1.173  0.1815  0.2669 -0.6098
  313SOL    HW1  938   0.277   2.740   1.204  0.4678 -2.3756  2.0097
  313SOL    HW2  939   0.368   2.643   1.102 -1.9352  3.2344  1.0202
  314SOL     OW  940   1.024   1.981   1.258  0.2063 -0.2340  0.6680
  314SOL    HW1  941   0.941   1.935   1.213 -1.9177 -0.3312 -0.6683
  314SOL    HW2  942   0.997   2.003   1.353  0.7784 -2.6560 -1.5930
  315SOL     OW  943   0.452   2.916   2.301  0.0467  1.0103  0.0652
  315SOL    HW1  944   0.480   3.012   2.317  1.3484  0.9185  0.5490
  315SOL    HW2  945   0.373   2.904   2.242  0.6368 -0.5401 -1.3412
  316SOL     OW  946   3.086   2.358   1.027 -0.0238 -0.5069  0.4390
  316SOL    HW1  947   3.123   2.356   0.932 -0.4497 -2.5703  1.9150
  316SOL    HW2  948   0.037   2.385   1.090 -2.2644  0.7664 -2.0498
  317SOL     OW  949   1.978   0.696   0.360 -0.0157 -0.4648 -0.2533
  317SOL    HW1  950   1.969   0.614   0.303 -1.4191  1.5186  1.6009
  317SOL    HW2  951   2.075   0.729   0.369  1.9147  2.6295 -0.7959
  318SOL     OW  952   2.885   2.536   0.164 -0.2287 -0.5627 -0.3664
  318SOL    HW1  953   2.827   2.613   0.114  1.3142  0.6293 -0.9371
  318SOL    HW2  954   2.913   2.564   0.258  1.6574 -2.0426  3.8172
  319SOL     OW  955   1.440   1.440   0.230  0.3147 -0.3186 -0.2335
  319SOL    HW1  956   1.514   1.406   0.295 -2.1796 -1.5001  0.7638
  319SOL    HW2  957   1.461   1.534   0.203 -1.9843 -1.2524  0.0060
  320SOL     OW  958   0.585   2.553   2.624  0.1023  0.1780 -0.2140
  320SOL    HW1  959   0.505   2.519   2.572 -0.0058 -1.4306  0.6714
  320SOL    HW2  960   0.617   2.494   2.696 -0.4004  1.0102 -2.4342
  321SOL     OW  961   1.044   3.028   0.302 -0.8469 -0.1340 -0.0884
  321SOL    HW1  962   0.992   2.947   0.345  0.4785 -0.4762  4.2782
  321SOL    HW2  963   1.139   3.001   0.297 -0.9395  0.6450  2.8225
  322SOL     OW  964   2.245   0.933   2.109  0.5994  0.2664  0.3111
  322SOL    HW1  965   2.167   0.980   2.160  0.0062  1.7878  1.6158
  322SOL    HW2  966   2.325   0.922   2.171  2.4914  0.5449 -0.1433
  323SOL     OW  967   3.014   0.824   0.437  0.1653  0.2176 -0.0181
  323SOL    HW1  968   3.072   0.755   0.479 -0.0422 -2.2045  0.4317
  323SOL    HW2  969   3.024   0.912   0.483 -2.9754 -2.8798 -1.2084
  324SOL     OW  970   3.110   0.302   2.644 -0.0901  0.1583  0.1455
  324SOL    HW1  971   3.058   0.386   2.615 -1.8123 -0.6481  0.7205
  324SOL    HW2  972   0.063   0.328   2.704 -1.9598 -0.6763  0.0482
  325SOL     OW  973   0.827   3.067   2.421 -0.0907 -0.0300  0.4154
  325SOL    HW1  974   0.800   0.025   2.376 -0.6454 -0.1288  3.1297
  325SOL    HW2  975   0.833   3.083   2.523 -0.4150  0.8195  3.3636
  326SOL     OW  976   2.605   2.725   1.181  0.3191  0.3459 -0.3103
  326SOL    HW1  977   2.523   2.739   1.117  0.2820  2.4462 -0.7690
  326SOL    HW2  978   2.661   2.812   1.186 -1.3869 -0.0426 -2.3472
  327SOL     OW  979   1.748   0.931   0.248  0.0764  0.0868  0.2423
  327SOL    HW1  980   1.719   0.883   0.329 -1.5667 -0.0028  0.3205
  327SOL    HW2  981   1.728   1.026   0.253 -0.4440 -1.4122  1.9566
  328SOL     OW  982   2.866   1.649   1.965  0.2665 -0.1928  0.0873
  328SOL    HW1  983   2.912   1.630   2.055 -0.0771 -1.3358 -1.3962
  328SOL    HW2  984   2.825   1.743   1.972 -0.5636  0.4683  0.7688
  329SOL     OW  985   2.091   2.835   1.945  0.4427 -0.4374 -0.0784
  329SOL    HW1  986   2.113   2.929   1.924  2.2608 -1.8516  1.4853
  329SOL    HW2  987   2.035   2.790   1.871  4.4630 -0.3047  0.9379
  330SOL     OW  988   2.355   1.667   1.948  0.1459  0.3044  0.1899
  330SOL    HW1  989   2.397   1.580   1.964  0.1357  1.4210 -1.9712
  330SOL    HW2  990   2.413   1.715   1.882 -2.8692  1.1719  0.0174
  331SOL     OW  991   2.867   2.217   1.127 -0.3084 -0.4484 -0.3747
  331SOL    HW1  992   2.950   2.260   1.082  2.9397  1.0069  2.5868
  331SOL    HW2  993   2.797   2.217   1.051 -1.2059  0.7256  0.3633
  332SOL     OW  994   0.897   2.623   0.266  0.4438  0.2143 -0.0586
  332SOL    HW1  995   0.802   2.653   0.259 -2.0308  0.9703 -1.4499
  332SOL    HW2  996   0.953   2.688   0.325  0.4260 -0.9912  4.2487
  333SOL     OW  997   1.766   0.326   2.582 -0.7073  0.5774  0.0243
  333SOL    HW1  998   1.745   0.225   2.586  0.6719 -0.9893 -2.2491
  333SOL    HW2  999   1.862   0.332   2.541  3.4018 -0.8068 -1.0490
  334SOL     OW 1000   0.583   1.363   0.619 -0.1942  0.1360  0.7953
  334SOL    HW1 1001   0.685   1.357   0.627  0.1649  1.8396  0.8996
  334SOL    HW2 1002   0.562   1.356   0.518 -2.2964 -1.5918 -1.7663
  335SOL     OW 1003   0.002   2.926   2.144 -0.2451  0.2001  0.1090
  335SOL    HW1 1004   0.000   3.002   2.210  1.9783 -0.7742  1.2353
  335SOL    HW2 1005   0.020   2.961   2.048  0.5434 -1.2024 -0.3493
  336SOL     OW 1006   2.843   3.038   2.047  0.1768 -0.2527 -0.0422
  336SOL    HW1 1007   2.765   3.086   2.083  2.0878  0.3517  1.0825
  336SOL    HW2 1008   2.923   3.079   2.092  0.8950 -0.2135  0.1985
  337SOL     OW 1009   1.818   1.541   0.761  0.4487 -0.3100 -0.7699
  337SOL    HW1 1010   1.883   1.540   0.840  1.7420 -0.0307  1.3774
  337SOL    HW2 1011   1.883   1.537   0.680  1.9861  0.0465 -0.9742
  338SOL     OW 1012   0.962   1.837   0.929  0.0581 -0.1860  0.7211
  338SOL    HW1 1013   0.940   1.740   0.949  0.3213 -0.5370  3.4236
  338SOL    HW2 1014   0.889   1.899   0.963 -0.6803  1.0918 -0.7815
  339SOL     OW 1015   3.010   0.951   0.981  0.0721 -0.1491  0.5660
  339SOL    HW1 1016   3.091   1.010   0.995 -3.2294  0.3096 -2.2704
  339SOL    HW2 1017   2.992   0.895   1.063 -2.9872  0.0354 -3.6582
  340SOL     OW 1018   1.498   2.752   2.208  0.2187  0.1129  0.2531
  340SOL    HW1 1019   1.446   2.770   2.294  2.5604 -1.0041  1.7552
  340SOL    HW2 1020   1.598   2.769   2.223  0.3256 -0.8409 -0.4926
  341SOL     OW 1021   2.192   1.582   0.753  0.2749  0.1368  0.2157
  341SOL    HW1 1022   2.277   1.528   0.770  1.5649  0.1989  0.2187
  341SOL    HW2 1023   2.133   1.596   0.834  1.3815 -0.2389  0.3619
  342SOL     OW 1024   3.002   1.393   0.896 -0.1566 -0.6123  0.3255
  342SOL    HW1 1025   2.981   1.303   0.850 -0.9231  0.9489 -3.9766
  342SOL    HW2 1026   2.986   1.471   0.832 -1.7555  0.6857 -0.2966
  343SOL     OW 1027   2.466   1.240   1.794 -0.2922 -0.4527 -0.7819
  343SOL    HW1 1028   2.407   1.158   1.812 -0.1453  2.0568  0.6221
  343SOL    HW2 1029   2.566   1.220   1.785  1.7507 -1.2833  1.6133
  344SOL     OW 1030   1.937   0.744   1.074  0.4338 -0.1621 -0.5449
  344SOL    HW1 1031   1.842   0.781   1.083  0.0773 -0.9979 -0.8491
  344SOL    HW2 1032   2.005   0.816   1.096  1.0198 -1.3775  1.1008
  345SOL     OW 1033   0.061   3.015   2.729 -0.4351  0.5810  0.0814
  345SOL    HW1 1034   0.071   2.917   2.723 -0.9150  0.2406 -0.1360
  345SOL    HW2 1035   0.145   3.060   2.694 -1.1648 -1.0445  0.4043
  346SOL     OW 1036   2.675   1.610   0.094  0.2420 -0.0184 -0.0643
  346SOL    HW1 1037   2.642   1.624   0.190  0.0927  0.9678 -0.8144
  346SOL    HW2 1038   2.601   1.646   0.033  1.1883  0.8265  1.9274
  347SOL     OW 1039   1.900   2.740   1.781 -0.2678 -0.0465 -0.2198
  347SOL    HW1 1040   1.877   2.644   1.809  0.5102  2.0369 -0.4653
  347SOL    HW2 1041   1.816   2.791   1.754 -0.2681  0.9545  3.7705
  348SOL     OW 1042   1.068   1.276   1.652 -0.1303  0.0499 -0.2492
  348SOL    HW1 1043   1.105   1.350   1.704 -1.2209 -1.3410  0.8582
  348SOL    HW2 1044   1.006   1.313   1.583 -0.2215 -0.9742  2.0294
  349SOL     OW 1045   2.131   1.237   2.075 -0.0450  0.6949 -0.2281
  349SOL    HW1 1046   2.085   1.185   2.150 -1.4563 -0.8026 -0.1918
  349SOL    HW2 1047   2.226   1.254   2.105 -2.3260  0.1014 -0.6652
  350SOL     OW 1048   2.572   2.265   0.509 -0.4613 -0.0169  0.2877
  350SOL    HW1 1049   2.586   2.284   0.411  0.4930 -1.3357  1.7868
  350SOL    HW2 1050   2.567   2.355   0.565  0.3657 -0.4427  3.7514
  351SOL     OW 1051   0.404   0.221   1.668 -0.1184  0.0084 -0.0125
  351SOL    HW1 1052   0.380   0.299   1.731 -1.4971  1.0575 -2.2728
  351SOL    HW2 1053   0.353   0.237   1.579 -2.8107  1.3418 -0.9328
  352SOL     OW 1054   1.355   2.473   1.776 -0.4163  0.2248  0.2952
  352SOL    HW1 1055   1.369   2.482   1.676 -0.7418  0.5312 -3.6551
  352SOL    HW2 1056   1.257   2.467   1.810  1.2356 -0.7063  2.0411
  353SOL     OW 1057   0.853   1.258   2.400  0.2761  0.0374  0.2807
  353SOL    HW1 1058   0.824   1.248   2.500 -0.4924 -1.7530  1.7660
  353SOL    HW2 1059   0.887   1.171   2.365 -2.8740  2.2092 -1.5030
  354SOL     OW 1060   1.454   1.553   0.565  0.5472  0.3422  0.2089
  354SOL    HW1 1061   1.408   1.624   0.508  0.9135  1.6001 -1.0497
  354SOL    HW2 1062   1.517   1.496   0.507 -1.5485 -1.5255  0.7679
  355SOL     OW 1063   2.063   0.217   0.944 -0.1991  0.5159 -0.1012
  355SOL    HW1 1064   2.016   0.128   0.970 -0.6122 -1.5788  2.6040
  355SOL    HW2 1065   2.109   0.214   0.853 -0.6772  0.4465 -1.1939
  356SOL     OW 1066   2.947   1.293   2.971 -0.7224 -0.1060 -0.2293
  356SOL    HW1 1067   3.044   1.295   2.998 -1.4939  0.6247 -0.4649
  356SOL    HW2 1068   2.904   1.204   2.991  2.0316  3.0667  1.3407
  357SOL     OW 1069   0.071   3.046   1.892 -0.5083 -0.3891 -0.2485
  357SOL    HW1 1070   0.157   3.035   1.837  1.3029  0.7851 -0.0964
  357SOL    HW2 1071   3.121   3.089   1.838  2.4804 -0.1652  1.1740
  358SOL     OW 1072   0.517   1.414   2.748 -0.2750  0.3019 -0.0083
  358SOL    HW1 1073   0.461   1.354   2.685  1.1204  1.5842 -1.4559
  358SOL    HW2 1074   0.582   1.478   2.693  0.1458  0.1365  0.5093
  359SOL     OW 1075   2.755   2.847   2.477 -0.3729  0.0479 -0.2095
  359SOL    HW1 1076   2.680   2.807   2.526  3.7775  0.6927  1.7643
  359SOL    HW2 1077   2.838   2.787   2.475  2.2507  0.5480  0.5612
  360SOL     OW 1078   1.619   1.216   1.194  0.2615  0.6828 -0.0727
  360SOL    HW1 1079   1.664   1.185   1.108 -0.3796 -0.9586  0.7466
  360SOL    HW2 1080   1.625   1.316   1.202  0.5689 -1.9054 -2.0060
  361SOL     OW 1081   2.027   2.283   1.329  0.3310  0.3754  0.0962
  361SOL    HW1 1082   1.957   2.209   1.345 -1.0140  1.3432  2.4142
  361SOL    HW2 1083   1.987   2.369   1.365 -0.6966 -0.4915  0.2441
  362SOL     OW 1084   1.709   1.186   0.924 -0.4793  1.0680  0.0182
  362SOL    HW1 1085   1.756   1.111   0.872 -0.9660  1.6680  0.8080
  362SOL    HW2 1086   1.610   1.166   0.912 -1.6065 -1.6424 -1.7482
  363SOL     OW 1087   2.280   2.471   0.676  0.3748  0.1920  0.4602
  363SOL    HW1 1088   2.249   2.558   0.634  0.0060 -4.9447 -0.0134
  363SOL    HW2 1089   2.381   2.470   0.672 -2.5897 -0.6496  0.4707
  364SOL     OW 1090   0.190   0.183   1.142  0.4604  0.0585 -0.7484
  364SOL    HW1 1091   0.117   0.108   1.138 -3.9883 -1.4610 -2.7740
  364SOL    HW2 1092   0.284   0.150   1.115 -1.8033 -2.7316  0.4329
  365SOL     OW 1093   0.469   2.810   0.748 -0.2870  0.1401  0.4026
  365SOL    HW1 1094   0.433   2.886   0.696  1.2399  0.1541 -0.7329
  365SOL    HW2 1095   0.556   2.836   0.798 -2.1442  0.7607 -0.2485
  366SOL     OW 1096   0.167   1.574   0.378 -0.0831  0.6878  0.1680
  366SOL    HW1 1097   0.225   1.595   0.295  1.1032  0.9180 -1.9947
  366SOL    HW2 1098   0.200   1.599   0.473 -0.1215  1.3082  1.7240
  367SOL     OW 1099   2.696   2.440   2.885  0.3778  0.3652 -0.0175
  367SOL    HW1 1100   2.730   2.380   2.963 -0.0844 -1.8529  0.6561
  367SOL    HW2 1101   2.672   2.382   2.806  0.7252  0.1844  0.1495
  368SOL     OW 1102   2.494   1.816   0.945  0.6426  0.7563 -0.3096
  368SOL    HW1 1103   2.504   1.891   0.873 -1.2156  1.4266  0.8193
  368SOL    HW2 1104   2.535   1.726   0.920  2.1443 -1.9892 -1.9530
  369SOL     OW 1105   1.079   0.985   0.370  0.3603  0.4220  0.1092
  369SOL    HW1 1106   1.041   1.061   0.314 -0.4615  0.2794  2.1214
  369SOL    HW2 1107   1.091   1.012   0.466 -0.8535 -0.9740 -0.1083
  370SOL     OW 1108   0.460   2.967   1.111  0.0756  0.2723 -0.5081
  370SOL    HW1 1109   0.445   2.870   1.148  0.1578 -1.9097  1.1629
  370SOL    HW2 1110   0.553   2.982   1.062 -0.1290  1.3948  1.0459
  371SOL     OW 1111   3.008   1.389   2.702  0.5061  0.2174 -0.0174
  371SOL    HW1 1112   2.921   1.431   2.664 -1.4203 -1.0431  1.9552
  371SOL    HW2 1113   2.998   1.366   2.802  2.5592 -1.5591  2.2341
  372SOL     OW 1114   0.663   0.483   2.340 -0.3794  0.1835 -0.2165
  372SOL    HW1 1115   0.592   0.443   2.279 -0.7434 -2.0226  0.8050
  372SOL    HW2 1116   0.639   0.489   2.441  2.0819 -0.0683 -0.2669
  373SOL     OW 1117   0.786   0.520   3.106 -0.0529 -0.5544 -0.0182
  373SOL    HW1 1118   0.866   0.552   3.055 -0.9861 -0.9303 -1.8543
  373SOL    HW2 1119   0.810   0.444   0.045  1.7726  0.8034  3.3632
  374SOL     OW 1120   1.152   2.042   3.048  0.0672 -0.1417  0.5857
  374SOL    HW1 1121   1.249   2.071   3.039 -0.2129 -0.2166  0.5432
  374SOL    HW2 1122   1.157   1.945   3.075 -1.4008  0.3958 -1.7458
  375SOL     OW 1123   0.910   2.887   1.548 -0.1376  0.0461 -0.1371
  375SOL    HW1 1124   0.898   2.802   1.496 -2.1001  4.0077  2.0019
  375SOL    HW2 1125   0.824   2.948   1.554 -1.6173 -2.1707 -0.6091
  376SOL     OW 1126   0.321   2.641   1.977  0.7361 -0.0782  0.6947
  376SOL    HW1 1127   0.417   2.675   1.985  0.0337 -0.5788  0.3563
  376SOL    HW2 1128   0.307   2.558   2.036 -1.0223  2.1711  1.7366
  377SOL     OW 1129   2.376   2.004   2.944 -0.1782  0.8707  0.3028
  377SOL    HW1 1130   2.290   1.982   2.890 -0.1238 -4.1517  0.1042
  377SOL    HW2 1131   2.453   2.019   2.883 -1.5873  2.8514  0.1366
  378SOL     OW 1132   2.266   0.257   0.715 -0.5787 -0.0503 -0.3514
  378SOL    HW1 1133   2.231   0.355   0.726 -2.7193  2.8853  0.2061
  378SOL    HW2 1134   2.367   0.251   0.721 -2.5989  1.8721  0.2072
  379SOL     OW 1135   1.059   0.714   0.663 -0.1309 -0.5578 -0.4810
  379SOL    HW1 1136   1.102   0.667   0.584  0.6206  2.2796 -0.3552
  379SOL    HW2 1137   0.970   0.665   0.670 -1.0222  0.3217 -2.4802
  380SOL     OW 1138   2.658   2.382   2.023  0.0404 -0.1418  0.0717
  380SOL    HW1 1139   2.709   2.456   2.075 -1.6542 -4.0053 -1.9647
  380SOL    HW2 1140   2.623   2.421   1.936  0.6585  0.7238 -1.3887
  381SOL     OW 1141   2.747   1.427   1.921 -0.0014 -0.0148 -0.0656
  381SOL    HW1 1142   2.803   1.516   1.919  2.6942 -2.2059 -2.0595
  381SOL    HW2 1143   2.653   1.439   1.963 -1.5559  1.1889  1.0076
  382SOL     OW 1144   2.990   2.157   2.855  0.1274  0.1692  0.1450
  382SOL    HW1 1145   2.989   2.260   2.848 -1.1492 -0.5289  1.2882
  382SOL    HW2 1146   2.934   2.125   2.931  0.3805 -0.8922  0.9081
  383SOL     OW 1147   1.290   0.759   2.592 -0.5825  0.3434  0.4848
  383SOL    HW1 1148   1.295   0.837   2.658 -0.0460  2.3750 -2.4790
  383SOL    HW2 1149   1.303   0.790   2.496  1.0815  0.5673 -3.1142
  384SOL     OW 1150   1.282   2.111   2.030 -0.0143 -0.0018 -0.3138
  384SOL    HW1 1151   1.289   2.212   2.055  2.6169 -0.3052  2.0152
  384SOL    HW2 1152   1.215   2.068   2.095  0.2467 -0.4418 -0.2796
  385SOL     OW 1153   2.768   2.777   0.053  0.5124 -0.1197  0.2564
  385SOL    HW1 1154   2.681   2.794   3.122 -0.6984  0.9605 -2.3655
  385SOL    HW2 1155   2.773   2.840   0.135  2.0834  1.3372  1.6648
  386SOL     OW 1156   1.730   0.953   0.786  0.1930 -0.0872 -0.2065
  386SOL    HW1 1157   1.636   0.911   0.787  1.5761  0.1683  0.1669
  386SOL    HW2 1158   1.794   0.911   0.720 -1.6500 -0.3306 -0.2096
  387SOL     OW 1159   0.006   1.839   1.675 -0.3030 -0.3050 -0.2077
  387SOL    HW1 1160   0.050   1.895   1.748 -2.4062 -1.1992 -0.1976
  387SOL    HW2 1161   3.065   1.886   1.607 -2.6185 -0.1327 -1.4007
  388SOL     OW 1162   0.411   1.155   1.317 -0.3243  0.4026 -0.1154
  388SOL    HW1 1163   0.402   1.140   1.419 -3.7053  1.9647 -1.1541
  388SOL    HW2 1164   0.465   1.081   1.269 -0.1898  2.6365  0.9054
  389SOL     OW 1165   2.120   0.973   2.516 -0.0788 -0.0183  0.2929
  389SOL    HW1 1166   2.170   0.937   2.596 -0.9237  3.2671  1.5488
  389SOL    HW2 1167   2.047   1.038   2.549 -1.4041  1.4739  2.5167
  390SOL     OW 1168   0.918   1.648   0.045 -0.2385  0.2373 -0.0027
  390SOL    HW1 1169   0.870   1.721   0.107  0.8705  0.2238  0.9820
  390SOL    HW2 1170   0.908   1.669   3.068 -0.7663 -1.4723  0.7266
  391SOL     OW 1171   1.318   1.785   0.469 -0.3243  0.6052  0.2107
  391SOL    HW1 1172   1.218   1.787   0.478  1.3532 -2.6335  2.0992
  391SOL    HW2 1173   1.340   1.823   0.380  1.8347  1.4055  1.4197
  392SOL     OW 1174   2.590   2.927   2.240  0.1949  0.0640 -0.4370
  392SOL    HW1 1175   2.600   2.856   2.166  0.0526 -0.0927 -1.3201
  392SOL    HW2 1176   2.642   2.895   2.320  0.6479  0.2356  1.5772
  393SOL     OW 1177   1.599   2.026   0.030  0.6778 -0.2480 -0.5406
  393SOL    HW1 1178   1.548   1.990   0.109 -1.8046  1.8709  2.1963
  393SOL    HW2 1179   1.540   2.056   3.077  0.7004  2.1254 -1.0657
  394SOL     OW 1180   0.475   0.057   2.271 -0.2258 -0.3269  0.1898
  394SOL    HW1 1181   0.569   0.101   2.252  1.1829 -1.0062 -0.2781
  394SOL    HW2 1182   0.429   0.049   2.180 -0.1989 -4.2022 -0.4816
  395SOL     OW 1183   0.234   1.535   1.373  0.3290  0.0859 -0.3066
  395SOL    HW1 1184   0.214   1.587   1.459  0.9749  0.4437  1.6585
  395SOL    HW2 1185   0.194   1.586   1.293 -0.2138  0.9878 -0.0597
  396SOL     OW 1186   2.125   1.315   2.951  0.2833  0.1981 -0.1669
  396SOL    HW1 1187   2.104   1.337   2.856  0.8477 -0.6347  1.9916
  396SOL    HW2 1188   2.106   1.401   3.005 -0.6270  0.6697  1.0227
  397SOL     OW 1189   0.448   0.722   2.853 -0.2959 -0.0940 -1.0293
  397SOL    HW1 1190   0.547   0.736   2.838 -0.6334  2.1050  0.9534
  397SOL    HW2 1191   0.385   0.794   2.812 -2.9301 -0.7993 -0.1473
  398SOL     OW 1192   1.022   2.408   0.184  0.3507 -0.9574  0.7723
  398SOL    HW1 1193   1.112   2.388   0.229 -0.4156  3.2823  0.8730
  398SOL    HW2 1194   0.978   2.500   0.205  3.8369 -1.6341 -1.8319
  399SOL     OW 1195   1.936   2.539   2.433  0.1569  0.3768  0.2508
  399SOL    HW1 1196   2.001   2.455   2.442  0.9556 -0.2098  0.3650
  399SOL    HW2 1197   1.895   2.542   2.334  0.1994  1.1793 -2.1547
  400SOL     OW 1198   3.113   1.029   1.981  0.7517  0.0662 -0.2277
  400SOL    HW1 1199   3.048   1.101   2.014 -0.4307  1.3643  3.5919
  400SOL    HW2 1200   0.088   1.055   1.979  1.2702 -1.0475 -1.4890
  401SOL     OW 1201   0.788   0.640   0.715 -0.0045  0.2712  0.1008
  401SOL    HW1 1202   0.706   0.584   0.688 -0.3863 -1.6353 -1.9925
  401SOL    HW2 1203   0.767   0.739   0.721 -1.0495 -0.6310 -1.7882
  402SOL     OW 1204   0.834   0.011   2.721  0.0423  0.4897 -0.2383
  402SOL    HW1 1205   0.803   0.105   2.741 -1.4910 -2.4288 -0.3047
  402SOL    HW2 1206   0.814   3.071   2.803  0.5609 -2.3476 -0.1343
  403SOL     OW 1207   2.548   1.737   1.762  0.6419  0.4422 -0.4960
  403SOL    HW1 1208   2.606   1.804   1.814 -0.0746  0.9972  0.4140
  403SOL    HW2 1209   2.599   1.672   1.704  0.5656  2.4522  3.4980
  404SOL     OW 1210   2.605   2.486   1.496 -0.5505 -0.1802 -0.1307
  404SOL    HW1 1211   2.591   2.583   1.472 -0.2091 -0.2097  1.0927
  404SOL    HW2 1212   2.650   2.435   1.421 -0.0158  0.9514  2.3283
  405SOL     OW 1213   1.969   0.297   2.868 -0.1294  0.2108 -0.2281
  405SOL    HW1 1214   2.040   0.234   2.826 -1.4835  0.7537 -2.4660
  405SOL    HW2 1215   1.966   0.382   2.811 -1.5253 -1.3593 -2.1183
  406SOL     OW 1216   1.175   1.781   0.030 -0.4073  0.3706  0.4255
  406SOL    HW1 1217   1.238   1.713   3.101  2.3628  1.9874 -5.3342
  406SOL    HW2 1218   1.080   1.742   0.033 -1.6106 -0.7069 -1.6442
  407SOL     OW 1219   1.734   1.798   0.669  0.0190  0.1575 -0.0530
  407SOL    HW1 1220   1.741   1.711   0.717  1.0606  1.2876 -1.9225
  407SOL    HW2 1221   1.636   1.827   0.662  3.2214 -1.2223 -1.2129
  408SOL     OW 1222   0.011   0.362   1.594  0.3586  0.2469 -0.1047
  408SOL    HW1 1223   0.062   0.414   1.522  0.2770 -0.3646 -0.0258
  408SOL    HW2 1224   0.037   0.261   1.608 -1.2414 -3.2112  4.1122
  409SOL     OW 1225   2.531   1.321   0.026  0.2341  0.4659  1.2432
  409SOL    HW1 1226   2.500   1.257   0.095  0.7479  2.5196 -1.1699
  409SOL    HW2 1227   2.518   1.412   0.070 -0.0676 -2.9882 -1.1973
  410SOL     OW 1228   2.362   2.399   1.018  0.1349  0.3815  0.0672
  410SOL    HW1 1229   2.384   2.350   1.102 -2.1398  0.5637  0.0124
  410SOL    HW2 1230   2.259   2.394   1.010  1.7588  2.2079  1.6529
  411SOL     OW 1231   0.360   3.078   0.319  0.1575  0.1412  0.3115
  411SOL    HW1 1232   0.296   0.031   0.308 -1.4223 -1.4694 -0.7481
  411SOL    HW2 1233   0.390   3.039   0.228  2.3028 -0.3335  1.1371
  412SOL     OW 1234   1.714   3.003   0.403 -0.2598 -0.7395 -0.3740
  412SOL    HW1 1235   1.778   3.042   0.333  1.9316  0.9863 -1.0090
  412SOL    HW2 1236   1.744   3.033   0.494 -2.1547 -1.6388  1.2653
  413SOL     OW 1237   1.839   0.395   2.192 -0.5462 -0.3778  0.0634
  413SOL    HW1 1238   1.877   0.379   2.282  1.9051  0.3898  0.5082
  413SOL    HW2 1239   1.734   0.407   2.194 -3.2351  0.1309 -0.5188
  414SOL     OW 1240   0.053   0.620   0.537 -0.0574  0.1311 -0.2937
  414SOL    HW1 1241   0.141   0.644   0.499  1.7899 -1.0818  0.8096
  414SOL    HW2 1242   0.062   0.606   0.639  1.9707 -0.7256 -0.5477
  415SOL     OW 1243   3.056   1.082   0.561  0.6100 -0.2344  0.1143
  415SOL    HW1 1244   3.006   1.121   0.477  1.2537 -0.5621  1.0822
  415SOL    HW2 1245   2.999   1.080   0.643 -1.0764 -0.1780 -0.4006
  416SOL     OW 1246   0.076   0.496   3.002 -0.2028  0.2810  0.5823
  416SOL    HW1 1247   0.148   0.448   2.945  0.4597 -0.2110 -1.3366
  416SOL    HW2 1248   0.077   0.594   2.982 -0.0178 -3.2051  1.8835
  417SOL     OW 1249   2.505   0.140   1.016 -0.0889  0.3777 -0.0151
  417SOL    HW1 1250   2.418   0.180   1.043  2.0366 -0.3516 -2.1559
  417SOL    HW2 1251   2.583   0.202   1.030 -2.3782 -2.8663 -0.2697
  418SOL     OW 1252   0.871   2.907   2.877 -0.3531  0.1615 -0.1462
  418SOL    HW1 1253   0.837   2.936   2.965 -0.4788 -0.4661 -0.3928
  418SOL    HW2 1254   0.853   2.808   2.862  0.9897  1.3350  1.8597
  419SOL     OW 1255   0.359   0.776   0.718 -0.2706  0.7681  0.1829
  419SOL    HW1 1256   0.287   0.846   0.712 -0.1199 -1.5914 -1.2417
  419SOL    HW2 1257   0.365   0.708   0.638  1.0985 -0.5187 -1.3498
  420SOL     OW 1258   2.969   1.201   1.463  0.4352  0.1897  0.0189
  420SOL    HW1 1259   3.017   1.237   1.547 -0.9841 -0.1260  1.3496
  420SOL    HW2 1260   2.993   1.103   1.443 -3.0200 -0.6875  1.6102
  421SOL     OW 1261   1.207   1.749   2.785  0.3040  0.1172 -0.9430
  421SOL    HW1 1262   1.257   1.658   2.787  0.2056 -2.3398  1.5244
  421SOL    HW2 1263   1.268   1.829   2.779 -1.9964 -2.2914 -0.7840
  422SOL     OW 1264   2.368   0.858   2.358  0.2483 -0.2350  0.2439
  422SOL    HW1 1265   2.322   0.914   2.429  2.2571  0.4412 -0.3575
  422SOL    HW2 1266   2.360   0.756   2.366 -1.3301  0.9502 -0.6836
  423SOL     OW 1267   1.931   1.575   0.261 -0.0613 -0.1664  0.3714
  423SOL    HW1 1268   1.988   1.639   0.202  0.0852  0.4945  0.8899
  423SOL    HW2 1269   1.897   1.500   0.201  2.1883 -1.1936 -0.6416
  424SOL     OW 1270   0.923   0.786   1.803 -0.1378  0.1878 -0.0358
  424SOL    HW1 1271   0.843   0.771   1.862  0.1730 -0.7301 -0.1948
  424SOL    HW2 1272   0.962   0.884   1.815 -2.5524  0.9331  1.7239
  425SOL     OW 1273   2.965   2.706   2.148  0.3338  0.5472 -0.0124
  425SOL    HW1 1274   2.981   2.655   2.060 -0.0373 -0.5112  0.9033
  425SOL    HW2 1275   3.021   2.793   2.146 -1.3412 -0.2718 -3.1004
  426SOL     OW 1276   2.472   2.723   0.368 -0.0232  0.3304 -0.1562
  426SOL    HW1 1277   2.564   2.758   0.390  1.7286  1.2574  2.2259
  426SOL    HW2 1278   2.418   2.706   0.450  1.3800 -1.6622 -1.2460
  427SOL     OW 1279   0.752   0.672   2.747  0.2451 -0.3479  0.7295
  427SOL    HW1 1280   0.813   0.733   2.697 -2.3093 -0.4118  1.0763
  427SOL    HW2 1281   0.792   0.638   2.830 -0.0004  1.3984 -3.7095
  428SOL     OW 1282   2.694   1.414   2.950 -0.7600 -0.2505 -0.2026
  428SOL    HW1 1283   2.618   1.384   3.005  0.8728  0.6407 -3.1858
  428SOL    HW2 1284   2.775   1.360   2.963 -1.5743  2.9034 -2.0478
  429SOL     OW 1285   2.556   0.447   0.330  0.3223 -1.0457  0.0392
  429SOL    HW1 1286   2.599   0.435   0.425  1.0811 -0.3722  4.1602
  429SOL    HW2 1287   2.521   0.543   0.321  0.6676  1.1688  0.7728
  430SOL     OW 1288   1.294   2.367   2.092 -0.3708  0.1450 -0.1756
  430SOL    HW1 1289   1.380   2.410   2.048  0.3861  0.5467 -0.2609
  430SOL    HW2 1290   1.295   2.373   2.193  1.9328 -0.2156 -0.2555
  431SOL     OW 1291   0.190   2.084   1.584 -0.8401  0.5189 -0.6130
  431SOL    HW1 1292   0.097   2.091   1.546  2.1756 -2.5331  1.3531
  431SOL    HW2 1293   0.192   2.047   1.680  0.8529  0.0073 -1.2466
  432SOL     OW 1294   1.761   2.804   2.241  0.2012  0.1791 -0.7588
  432SOL    HW1 1295   1.861   2.794   2.215  0.3391 -0.3515 -2.2021
  432SOL    HW2 1296   1.750   2.808   2.345  0.3836 -1.6055  3.7933
  433SOL     OW 1297   0.998   1.947   0.264  0.0478  0.0134 -0.1522
  433SOL    HW1 1298   0.926   1.903   0.204 -0.4455 -3.6330  1.4597
  433SOL    HW2 1299   1.011   1.889   0.344 -1.1829 -1.8482 -1.5471
  434SOL     OW 1300   0.300   2.114   2.710 -0.0140  0.3898 -0.3767
  434SOL    HW1 1301   0.383   2.062   2.672  2.2131  0.1717 -0.2956
  434SOL    HW2 1302   0.234   2.048   2.755 -1.7414  1.0634  0.4944
  435SOL     OW 1303   0.237   0.907   0.424  0.4816 -0.5868 -0.4318
  435SOL    HW1 1304   0.208   0.990   0.373  1.1208 -1.3856  3.1678
  435SOL    HW2 1305   0.244   0.829   0.356  0.4677  1.2144  0.5033
  436SOL     OW 1306   0.502   2.684   1.682  1.0850 -0.2555  0.0126
  436SOL    HW1 1307   0.486   2.775   1.643  1.5699  0.4828 -1.0872
  436SOL    HW2 1308   0.551   2.690   1.768 -0.6309 -0.9096 -5.1637
  437SOL     OW 1309   0.822   0.076   0.630  0.4208  0.2128 -0.4239
  437SOL    HW1 1310   0.867   0.166   0.658 -1.1506 -0.9775 -0.5849
  437SOL    HW2 1311   0.723   0.073   0.659 -1.7142  1.2890 -1.3135
  438SOL     OW 1312   0.252   2.179   0.663 -0.1230 -0.0265  0.0727
  438SOL    HW1 1313   0.338   2.238   0.658  0.7280  1.6674  0.7135
  438SOL    HW2 1314   0.279   2.095   0.716  0.4330  2.8352  2.6071
  439SOL     OW 1315   0.843   2.343   1.601 -0.0625  0.2882  0.2425
  439SOL    HW1 1316   0.758   2.305   1.644 -1.9313 -0.0169  2.8422
  439SOL    HW2 1317   0.828   2.437   1.568  1.9739  0.9451  1.9091
  440SOL     OW 1318   1.906   0.054   2.285 -0.1196  0.1917  0.1519
  440SOL    HW1 1319   1.902   0.078   2.187 -1.2495 -1.7908 -1.4199
  440SOL    HW2 1320   1.824   3.118   2.309 -2.2006 -0.9275 -1.7380
  441SOL     OW 1321   3.033   0.403   2.004 -0.0489 -0.0460 -0.2235
  441SOL    HW1 1322   3.075   0.310   1.992 -1.1866 -1.6954 -1.4395
  441SOL    HW2 1323   3.081   0.462   1.935 -1.5772  1.6322 -2.9000
  442SOL     OW 1324   2.018   2.377   0.614  0.1203 -0.3996  0.3582
  442SOL    HW1 1325   2.118   2.405   0.623  0.8290  0.1115 -0.9593
  442SOL    HW2 1326   1.993   2.325   0.697 -0.7004  0.6100 -1.3025
  443SOL     OW 1327   2.881   0.837   2.398 -0.3216 -0.3664  0.2895
  443SOL    HW1 1328   2.952   0.844   2.469  0.2600  1.1953 -2.8494
  443SOL    HW2 1329   2.900   0.909   2.330 -3.3180  0.7302  0.9796
  444SOL     OW 1330   1.777   1.112   2.282  0.4920  0.2176  0.8848
  444SOL    HW1 1331   1.731   1.150   2.198 -0.4133  2.2391  1.0182
  444SOL    HW2 1332   1.708   1.105   2.355  1.9328  0.0638 -0.6427
  445SOL     OW 1333   2.991   2.625   1.237 -0.2035  0.0816 -0.1161
  445SOL    HW1 1334   2.987   2.731   1.248 -0.0958  5.7070  1.4708
  445SOL    HW2 1335   3.044   2.609   1.153  0.7281  0.6775  1.6059
  446SOL     OW 1336   2.792   1.560   1.173 -0.5354 -0.1034  0.1647
  446SOL    HW1 1337   2.801   1.634   1.240  0.8462  0.1561  2.1273
  446SOL    HW2 1338   2.856   1.482   1.192  0.3486  0.7767  0.3810
  447SOL     OW 1339   0.535   1.165   0.810  0.1324 -0.2387 -0.4814
  447SOL    HW1 1340   0.604   1.100   0.773  4.1427  1.1770  3.2714
  447SOL    HW2 1341   0.528   1.239   0.744 -0.0468 -1.3492  1.6427
  448SOL     OW 1342   1.423   1.665   2.080 -0.3927 -0.2175  0.1061
  448SOL    HW1 1343   1.383   1.595   2.013  2.1599 -2.1720  1.1663
  448SOL    HW2 1344   1.417   1.641   2.180  0.0480  1.9159 -0.1488
  449SOL     OW 1345   1.199   1.328   0.139  0.7055 -0.0275 -0.2480
  449SOL    HW1 1346   1.278   1.373   0.188  1.9150  0.2225 -3.5967
  449SOL    HW2 1347   1.226   1.232   0.104 -0.3294 -2.8093 -1.3104
  450SOL     OW 1348   2.775   2.534   2.221 -0.3843 -0.0248 -0.1558
  450SOL    HW1 1349   2.835   2.612   2.196 -2.9274 -1.6887  2.6371
  450SOL    HW2 1350   2.687   2.570   2.258 -2.1572 -1.8346 -1.2917
  451SOL     OW 1351   2.254   0.321   2.373 -0.1059 -0.5231 -0.0911
  451SOL    HW1 1352   2.297   0.305   2.281  0.0283  0.5899 -0.8720
  451SOL    HW2 1353   2.310   0.278   2.448 -1.7291  1.6961  2.1752
  452SOL     OW 1354   1.693   0.313   1.139  0.1083  0.0455  0.2065
  452SOL    HW1 1355   1.595   0.312   1.114  0.4990  1.0021  0.2887
  452SOL    HW2 1356   1.699   0.349   1.233 -1.8476 -1.1725 -1.3202
  453SOL     OW 1357   1.693   0.806   1.478  0.5850 -0.3573 -0.0896
  453SOL    HW1 1358   1.749   0.726   1.473 -0.8327  0.1691  1.1556
  453SOL    HW2 1359   1.744   0.878   1.525 -0.6082 -4.7213  1.4236
  454SOL     OW 1360   3.002   1.569   0.464 -0.0124  0.1872  0.6793
  454SOL    HW1 1361   3.103   1.570   0.449  1.8574  1.6118  1.0766
  454SOL    HW2 1362   2.984   1.601   0.556  2.8388 -2.2297  1.4569
  455SOL     OW 1363   3.069   0.083   0.611 -0.1775  0.8183 -0.3551
  455SOL    HW1 1364   3.120   0.132   0.538 -0.4527 -2.1323  0.3332
  455SOL    HW2 1365   2.987   0.042   0.569 -0.3247  0.6862  0.7828
  456SOL     OW 1366   0.130   2.748   1.290 -0.5962 -0.1133 -0.2293
  456SOL    HW1 1367   0.045   2.806   1.289  0.0238  0.6314  1.7816
  456SOL    HW2 1368   0.115   2.656   1.326 -2.4335  1.0843 -0.6186
  457SOL     OW 1369   1.269   0.125   0.621  0.4299  0.3111 -0.8199
  457SOL    HW1 1370   1.204   0.054   0.653  1.3675  2.4855 -0.2839
  457SOL    HW2 1371   1.347   0.134   0.682  1.5723  0.4454 -0.0366
  458SOL     OW 1372   2.530   0.201   0.746  0.5559  0.5842 -0.1949
  458SOL    HW1 1373   2.542   0.168   0.840  0.7014 -2.6054  1.3884
  458SOL    HW2 1374   2.535   0.124   0.678  0.5254 -0.8002  1.4280
  459SOL     OW 1375   2.303   0.582   2.668 -0.1067 -0.5796  0.5538
  459SOL    HW1 1376   2.389   0.604   2.616 -1.8221  1.6107  0.0350
  459SOL    HW2 1377   2.312   0.516   2.745 -1.8547 -0.3989 -3.7766
  460SOL     OW 1378   3.048   3.083   2.935 -0.4065 -0.0671  0.3903
  460SOL    HW1 1379   3.105   3.080   2.847  2.5898  0.8191 -0.8516
  460SOL    HW2 1380   2.976   0.027   2.932  0.4037  0.2203  0.8168
  461SOL     OW 1381   1.040   1.832   0.521  0.4557 -0.4679 -0.9779
  461SOL    HW1 1382   1.084   1.846   0.612 -2.1129  0.1791  1.1238
  461SOL    HW2 1383   0.945   1.865   0.532  1.0445  0.0508 -0.2574
  462SOL     OW 1384   2.493   2.251   1.245  0.0020  0.2793 -0.5712
  462SOL    HW1 1385   2.411   2.233   1.304 -0.9054 -0.8377  1.6194
  462SOL    HW2 1386   2.518   2.173   1.183  3.6977 -2.7792 -2.8869
  463SOL     OW 1387   2.538   0.990   0.548 -0.1477  0.0766  0.2444
  463SOL    HW1 1388   2.527   1.040   0.460  0.5101  1.4803 -1.2094
  463SOL    HW2 1389   2.574   0.897   0.538  1.0510 -1.9194  1.0025
  464SOL     OW 1390   0.410   3.104   1.355  0.3974 -0.1475 -0.3609
  464SOL    HW1 1391   0.425   3.056   1.265 -1.6211  0.3337 -2.8483
  464SOL    HW2 1392   0.476   3.061   1.424  0.9890 -2.0649  1.8489
  465SOL     OW 1393   2.935   1.522   0.053  0.0248  0.4700 -0.0484
  465SOL    HW1 1394   2.838   1.546   0.037 -0.8080 -1.7981  1.9440
  465SOL    HW2 1395   2.966   1.477   3.087  2.0418  1.1716 -2.6915
  466SOL     OW 1396   1.774   0.149   2.979 -0.1089 -0.2551  0.6640
  466SOL    HW1 1397   1.841   0.204   2.924  1.7300  0.5692 -0.2631
  466SOL    HW2 1398   1.798   0.146   3.077 -1.9152  1.1214 -1.7004
  467SOL     OW 1399   0.928   0.569   1.629 -0.6328  0.4846  0.1984
  467SOL    HW1 1400   0.994   0.495   1.645 -0.1826 -0.9304 -1.1143
  467SOL    HW2 1401   0.936   0.645   1.697 -1.2418 -0.4429  0.6075
  468SOL     OW 1402   0.592   1.057   2.548  0.2848  0.1444 -0.5143
  468SOL    HW1 1403   0.647   1.112   2.610 -1.9553  0.4905 -0.9376
  468SOL    HW2 1404   0.607   0.955   2.552  1.6737 -0.4843 -0.3711
  469SOL     OW 1405   0.110   2.199   0.040  0.3624  0.3662 -0.4113
  469SOL    HW1 1406   0.085   2.295   0.042  0.5030 -0.3549  1.0986
  469SOL    HW2 1407   0.055   2.150   0.111 -0.1751 -2.1557 -0.9512
  470SOL     OW 1408   2.337   1.765   2.616  0.1433 -0.2165  0.3212
  470SOL    HW1 1409   2.419   1.720   2.652 -0.0863 -1.0370 -1.9596
  470SOL    HW2 1410   2.351   1.862   2.578 -0.4719 -0.9249 -1.0950
  471SOL     OW 1411   2.541   1.035   2.164  0.2572  0.4891 -0.1157
  471SOL    HW1 1412   2.561   1.011   2.266  2.5336 -1.5331 -0.9288
  471SOL    HW2 1413   2.630   1.055   2.113  2.2736 -1.2782 -0.0397
  472SOL     OW 1414   0.505   2.618   0.542 -0.1827  0.7204 -0.3689
  472SOL    HW1 1415   0.450   2.664   0.470 -0.3967  0.8601 -0.9702
  472SOL    HW2 1416   0.512   2.679   0.624  0.6725  3.2170 -2.0337
  473SOL     OW 1417   0.657   0.020   3.036  0.1555  0.1603  0.0469
  473SOL    HW1 1418   0.738   0.001   3.097  1.2486 -3.7520 -0.3399
  473SOL    HW2 1419   0.641   0.120   3.015  2.1998  2.7006  0.7364
  474SOL     OW 1420   1.735   0.054   2.605  0.4810  0.1275  0.1816
  474SOL    HW1 1421   1.664   0.047   2.678  2.2092  1.0670 -2.2262
  474SOL    HW2 1422   1.702   0.052   2.510 -1.1315 -0.1904  1.0180
  475SOL     OW 1423   1.681   2.507   0.461 -0.9714  0.1418 -0.1918
  475SOL    HW1 1424   1.721   2.412   0.460  2.4516 -0.1212 -1.3109
  475SOL    HW2 1425   1.698   2.556   0.377  0.8906  0.1585  3.7320
  476SOL     OW 1426   0.080   0.392   1.029  0.3633  0.9118 -0.5612
  476SOL    HW1 1427   0.152   0.460   1.038  0.0128  2.2652  2.2205
  476SOL    HW2 1428   0.117   0.305   1.074  1.6604 -1.7164  1.7675
  477SOL     OW 1429   1.393   2.341   0.690  0.0053  0.1620  0.1991
  477SOL    HW1 1430   1.467   2.276   0.669  1.1765  1.8823  0.2202
  477SOL    HW2 1431   1.308   2.293   0.725  1.7567 -1.3556 -1.0695
  478SOL     OW 1432   0.161   2.391   2.411  0.1116  0.0611 -0.5676
  478SOL    HW1 1433   0.140   2.294   2.443 -2.5868 -2.0123 -0.0400
  478SOL    HW2 1434   0.166   2.396   2.312 -2.4839  1.2183 -0.9369
  479SOL     OW 1435   2.390   0.568   0.915 -0.7879 -0.8829 -0.2786
  479SOL    HW1 1436   2.489   0.578   0.884 -0.0434 -1.8554  0.1190
  479SOL    HW2 1437   2.380   0.543   1.016  1.0327  2.3696 -0.3485
  480SOL     OW 1438   3.090   2.856   0.218 -0.2098  1.0477  0.4623
  480SOL    HW1 1439   3.119   2.946   0.252  1.7199  2.6162 -2.1470
  480SOL    HW2 1440   0.000   2.848   0.120 -0.9797  1.4165 -1.6527
  481SOL     OW 1441   2.781   2.538   1.109 -0.5856  0.0803  0.6894
  481SOL    HW1 1442   2.850   2.526   1.183 -0.3333 -2.3035  1.4325
  481SOL    HW2 1443   2.703   2.598   1.135  0.9959 -0.1987 -0.2969
  482SOL     OW 1444   1.159   2.319   2.692  0.4772 -0.1977 -0.1757
  482SOL    HW1 1445   1.261   2.318   2.714  0.0072  1.6388 -1.0964
  482SOL    HW2 1446   1.127   2.413   2.659 -2.5574  0.8947 -1.6297
  483SOL     OW 1447   0.538   1.987   2.665 -0.1433 -0.2282  0.1476
  483SOL    HW1 1448   0.578   1.917   2.724 -0.6365  0.7265 -0.0232
  483SOL    HW2 1449   0.596   2.071   2.676  1.0234  2.4166  0.1031
  484SOL     OW 1450   0.973   1.015   1.203  0.0586 -0.3699 -0.1941
  484SOL    HW1 1451   1.042   0.979   1.136 -2.5627  0.6250 -1.5042
  484SOL    HW2 1452   0.977   0.964   1.291  1.4512 -1.5294  0.2907
  485SOL     OW 1453   2.351   0.719   0.304  0.3754  0.5836  0.0919
  485SOL    HW1 1454   2.328   0.734   0.400  0.4023 -1.4310  0.3582
  485SOL    HW2 1455   2.271   0.708   0.240 -0.6667 -2.0457 -2.0253
  486SOL     OW 1456   2.012   2.961   1.486  0.7232 -0.0599  0.6255
  486SOL    HW1 1457   1.947   2.939   1.557  2.7273 -0.6581 -0.3757
  486SOL    HW2 1458   2.023   3.063   1.485 -1.3215 -0.6127 -0.0236
  487SOL     OW 1459   0.154   2.411   1.196 -0.3723  0.2493 -1.0532
  487SOL    HW1 1460   0.230   2.449   1.148 -2.2649 -2.5543 -2.1810
  487SOL    HW2 1461   0.145   2.441   1.290  1.9046 -1.5204  0.1237
  488SOL     OW 1462   2.679   0.921   0.066 -0.2081 -0.2460 -0.3713
  488SOL    HW1 1463   2.597   0.953   0.118  0.4110 -0.7945 -0.7644
  488SOL    HW2 1464   2.666   0.844   0.006 -0.0914 -0.9949  0.1422
  489SOL     OW 1465   1.771   0.064   1.057  0.4115 -0.5609 -0.1302
  489SOL    HW1 1466   1.862   0.028   1.087 -0.9876  1.5198 -2.4936
  489SOL    HW2 1467   1.749   0.159   1.087  0.1751 -2.4203 -0.4203
  490SOL     OW 1468   0.838   0.494   0.450 -0.2441 -0.3558  0.2249
  490SOL    HW1 1469   0.751   0.482   0.503  1.6546  2.2985  0.1186
  490SOL    HW2 1470   0.849   0.584   0.414 -0.7618 -2.3904  1.2908
  491SOL     OW 1471   0.507   2.346   0.592 -0.3657 -0.2865  0.0810
  491SOL    HW1 1472   0.532   2.291   0.510 -1.7521  0.2231 -2.2093
  491SOL    HW2 1473   0.503   2.444   0.572 -0.5815 -2.1393 -1.0323
  492SOL     OW 1474   1.186   1.597   2.444 -0.3292  0.3116  0.0246
  492SOL    HW1 1475   1.271   1.597   2.498 -0.9280 -0.2763  1.1968
  492SOL    HW2 1476   1.190   1.650   2.352 -1.3510 -0.0199 -1.2786
  493SOL     OW 1477   0.023   2.730   0.934  0.4537 -0.0724 -0.3874
  493SOL    HW1 1478   3.071   2.675   0.899 -0.3632  0.8048  1.6371
  493SOL    HW2 1479   3.111   2.823   0.912 -2.3941  0.8850 -0.0925
  494SOL     OW 1480   2.827   2.080   0.142 -0.0529 -0.0866 -0.5266
  494SOL    HW1 1481   2.782   2.021   0.212  0.1966 -0.3634 -1.2428
  494SOL    HW2 1482   2.872   2.031   0.065 -2.5593 -0.3780  0.6385
  495SOL     OW 1483   2.762   1.820   2.871 -0.4252  0.1288  0.1344
  495SOL    HW1 1484   2.700   1.891   2.839  1.2932 -2.6822  2.0696
  495SOL    HW2 1485   2.732   1.724   2.856  1.9211 -0.6613  1.0258
  496SOL     OW 1486   2.785   0.099   1.462  0.1447 -0.7575  0.4015
  496SOL    HW1 1487   2.871   0.091   1.411 -0.1638  2.2353 -0.1960
  496SOL    HW2 1488   2.776   0.194   1.498 -1.2808  3.8613  0.0926
  497SOL     OW 1489   2.812   1.084   3.012 -0.4021 -0.3853 -0.6006
  497SOL    HW1 1490   2.764   1.044   2.932 -0.0257  1.6345 -1.0588
  497SOL    HW2 1491   2.767   1.048   3.096  1.4381  1.2237 -0.8058
  498SOL     OW 1492   0.075   1.977   2.236 -0.6773  0.5217  0.1513
  498SOL    HW1 1493   3.122   2.027   2.190 -0.8186 -0.0368 -0.2956
  498SOL    HW2 1494   0.099   2.018   2.324  1.6181 -2.7985 -0.5764
  499SOL     OW 1495   1.030   2.111   2.802 -0.3759 -0.1386 -0.0139
  499SOL    HW1 1496   1.070   2.058   2.878  1.0184 -1.1635 -2.5148
  499SOL    HW2 1497   1.096   2.186   2.779  2.0639  3.6010 -0.9151
  500SOL     OW 1498   1.830   0.119   0.108  0.3260  0.6329 -0.2182
  500SOL    HW1 1499   1.881   0.051   0.158 -0.8281  2.7494 -0.9757
  500SOL    HW2 1500   1.786   0.188   0.175 -0.5204  3.5799 -2.7652
  501SOL     OW 1501   1.580   3.049   1.534  0.1010 -0.1746 -0.2440
  501SOL    HW1 1502   1.673   3.082   1.526  0.2073  1.8510 -0.7917
  501SOL    HW2 1503   1.519   0.011   1.558 -3.4444  3.0657  1.8629
  502SOL     OW 1504   2.801   0.709   2.164  0.2964  0.3002  0.0980
  502SOL    HW1 1505   2.851   0.748   2.241  1.8476  0.2058 -1.8305
  502SOL    HW2 1506   2.718   0.667   2.198  0.1381  2.8004 -0.3407
  503SOL     OW 1507   2.197   2.250   2.235  0.6589 -0.4585  0.0695
  503SOL    HW1 1508   2.141   2.256   2.318  2.6322  1.4222 -1.0784
  503SOL    HW2 1509   2.223   2.342   2.204 -2.0113 -0.9354 -1.0946
  504SOL     OW 1510   1.427   0.732   1.622 -0.9500 -0.1519 -0.0652
  504SOL    HW1 1511   1.501   0.782   1.571  2.7620 -0.8979  1.4686
  504SOL    HW2 1512   1.439   0.742   1.724  0.4614 -0.2604 -1.5022
  505SOL     OW 1513   0.748   1.119   1.511  0.2078 -0.1152  0.5089
  505SOL    HW1 1514   0.832   1.065   1.513  1.8890  1.1115  0.8041
  505SOL    HW2 1515   0.732   1.154   1.417 -1.3124 -4.6173 -0.4369
  506SOL     OW 1516   0.291   0.688   2.483 -0.5947  0.0732  0.2654
  506SOL    HW1 1517   0.270   0.686   2.384  1.1390  3.0270  1.3581
  506SOL    HW2 1518   0.304   0.594   2.521  1.3402 -1.7483 -1.6394
  507SOL     OW 1519   0.339   2.972   0.074  0.0014 -0.2271 -0.0859
  507SOL    HW1 1520   0.392   2.942   3.115 -0.4167 -1.1003  2.1783
  507SOL    HW2 1521   0.258   3.033   0.054 -2.1322  0.2209 -2.0459
  508SOL     OW 1522   1.228   0.900   1.573 -0.1758  0.0578  0.1951
  508SOL    HW1 1523   1.283   0.817   1.602 -1.4388  0.0967  0.7222
  508SOL    HW2 1524   1.276   0.982   1.600  2.9665 -1.1113 -0.8049
  509SOL     OW 1525   1.189   2.201   1.223 -0.3943 -0.6633 -0.9215
  509SOL    HW1 1526   1.151   2.108   1.216  0.3412 -2.0139 -0.0685
  509SOL    HW2 1527   1.208   2.214   1.324 -1.2548 -2.0976  3.1118
  510SOL     OW 1528   2.386   1.255   2.204 -0.6025 -0.5760  0.7628
  510SOL    HW1 1529   2.346   1.246   2.295  0.4274 -0.4959 -2.1587
  510SOL    HW2 1530   2.443   1.172   2.177  1.6636  1.2136  0.3517
  511SOL     OW 1531   0.801   1.997   1.086 -0.1688  0.3040 -0.2068
  511SOL    HW1 1532   0.734   2.063   1.046 -1.9668  2.4181  0.4488
  511SOL    HW2 1533   0.757   1.963   1.167 -0.5523  1.8060 -1.3936
  512SOL     OW 1534   2.657   2.031   0.582 -0.4640 -0.0684 -0.2975
  512SOL    HW1 1535   2.623   2.124   0.548  1.0047 -0.0946 -0.8686
  512SOL    HW2 1536   2.595   1.980   0.643  1.1335 -1.8959 -2.7960
  513SOL     OW 1537   3.068   1.769   2.551 -0.0040 -0.2742 -0.3047
  513SOL    HW1 1538   3.095   1.745   2.455 -1.5327 -0.5045 -1.2168
  513SOL    HW2 1539   0.007   1.720   2.615 -0.4936  0.1474  4.0335
  514SOL     OW 1540   2.956   2.650   2.442  0.2950  0.1852  0.2207
  514SOL    HW1 1541   2.983   2.559   2.478 -0.4919  0.4576 -1.1471
  514SOL    HW2 1542   2.976   2.652   2.341  1.1231 -2.1729 -1.2536
  515SOL     OW 1543   2.342   1.138   1.464 -0.4869  0.5238  0.3193
  515SOL    HW1 1544   2.262   1.121   1.400 -1.7981  0.9796  0.4243
  515SOL    HW2 1545   2.325   1.223   1.514 -0.2646 -0.5356 -0.6376
  516SOL     OW 1546   2.418   2.231   3.095 -0.1154 -0.1455 -0.1814
  516SOL    HW1 1547   2.408   2.325   3.053 -1.9853  2.8009  1.3784
  516SOL    HW2 1548   2.389   2.157   3.033 -0.3792 -0.8872  2.1570
  517SOL     OW 1549   1.374   0.823   3.056  0.5385  0.4906 -0.0624
  517SOL    HW1 1550   1.450   0.890   3.062 -1.5503 -3.3634 -2.2190
  517SOL    HW2 1551   1.386   0.752   0.012 -1.0584 -3.0022 -0.0244
  518SOL     OW 1552   3.041   0.039   2.246  0.0860 -0.0692  0.5803
  518SOL    HW1 1553   3.112   0.094   2.297  0.5335 -1.2438  0.1044
  518SOL    HW2 1554   2.950   0.055   2.287  1.3408  0.1428  1.1401
  519SOL     OW 1555   1.184   1.769   2.203  0.4081  0.0869 -0.1392
  519SOL    HW1 1556   1.261   1.737   2.152  0.1977  1.7301  0.4803
  519SOL    HW2 1557   1.191   1.867   2.210 -1.8091 -1.0377  0.4171
  520SOL     OW 1558   2.855   3.113   2.459  0.3943 -0.2631 -0.3898
  520SOL    HW1 1559   2.812   3.017   2.467  1.5263 -0.7551  3.5481
  520SOL    HW2 1560   2.922   0.007   2.538  1.6602  0.4189  1.5726
  521SOL     OW 1561   0.197   1.556   2.093  0.4644  0.4247 -0.3230
  521SOL    HW1 1562   0.291   1.523   2.115 -1.1849  1.1307 -0.5484
  521SOL    HW2 1563   0.151   1.597   2.173 -0.3304  0.9945  0.6261
  522SOL     OW 1564   0.970   2.817   1.792 -0.1168 -0.3167 -0.6329
  522SOL    HW1 1565   0.951   2.834   1.698  2.0978  1.1733  1.0697
  522SOL    HW2 1566   0.921   2.878   1.856 -0.4861 -0.6752 -0.2429
  523SOL     OW 1567   0.110   2.517   1.445  0.3396  0.2508  0.5765
  523SOL    HW1 1568   0.151   2.458   1.515 -2.3047  3.4135 -3.5965
  523SOL    HW2 1569   0.015   2.547   1.467 -0.4019  0.3626 -0.0631
  524SOL     OW 1570   1.405   2.488   0.465  0.5218  0.1502  0.1472
  524SOL    HW1 1571   1.508   2.493   0.450  1.8207 -0.0781 -0.0964
  524SOL    HW2 1572   1.395   2.442   0.553  2.2080  2.2568 -0.9424
  525SOL     OW 1573   2.525   1.085   0.920  0.3628  0.2724 -0.1905
  525SOL    HW1 1574   2.456   1.146   0.958  2.3720 -1.5567  2.0294
  525SOL    HW2 1575   2.493   0.987   0.925 -0.3289 -0.1655  1.4378
  526SOL     OW 1576   0.899   2.189   0.609 -0.4831 -0.6347 -0.6559
  526SOL    HW1 1577   0.902   2.207   0.510 -3.2504  1.6505 -1.9223
  526SOL    HW2 1578   0.988   2.167   0.652 -3.6062 -2.4991 -1.4645
  527SOL     OW 1579   2.690   2.180   0.916  0.0710 -0.3512 -0.3822
  527SOL    HW1 1580   2.748   2.165   0.834 -0.9157  0.7385  0.8062
  527SOL    HW2 1581   2.629   2.258   0.905 -2.6622 -0.7491 -1.3565
  528SOL     OW 1582   2.143   0.701   0.113  0.1621 -0.3135  0.2751
  528SOL    HW1 1583   2.211   0.747   0.053 -1.2332  0.7269  2.1115
  528SOL    HW2 1584   2.122   0.605   0.084 -0.4250  0.5116  0.8224
  529SOL     OW 1585   1.003   1.050   1.815  0.0891  0.4001  0.5960
  529SOL    HW1 1586   0.949   1.114   1.872 -0.3714 -0.0649  0.6358
  529SOL    HW2 1587   1.037   1.095   1.729 -0.8412 -0.2659 -0.9311
  530SOL     OW 1588   2.704   1.189   2.563 -0.2576  0.9346 -0.1220
  530SOL    HW1 1589   2.778   1.253   2.533 -0.4190  0.9098  0.2527
  530SOL    HW2 1590   2.687   1.111   2.499 -0.7383 -1.8693 -1.1959
  531SOL     OW 1591   1.132   0.868   0.102  0.7806  0.1274  0.6286
  531SOL    HW1 1592   1.191   0.787   0.082 -0.2066  0.7163 -0.7905
  531SOL    HW2 1593   1.131   0.882   0.203 -0.5873 -0.3588 -0.1412
  532SOL     OW 1594   1.918   0.800   0.661 -0.4293  0.1779  0.0476
  532SOL    HW1 1595   1.944   0.729   0.729  2.5204  0.7998  0.5303
  532SOL    HW2 1596   1.966   0.780   0.571  0.3327 -2.7454 -1.5549
  533SOL     OW 1597   0.496   0.740   2.198 -0.3823 -0.1772 -0.1441
  533SOL    HW1 1598   0.411   0.686   2.176  0.1169  1.7878 -0.5580
  533SOL    HW2 1599   0.547   0.707   2.278  0.4918  0.8746  0.2702
  534SOL     OW 1600   1.564   0.005   2.826  0.2481 -0.0467  0.4293
  534SOL    HW1 1601   1.643   0.065   2.860  0.2768  0.6291 -0.0371
  534SOL    HW2 1602   1.537   3.063   2.902 -1.1653 -0.2384  0.8606
  535SOL     OW 1603   0.832   0.087   0.346  0.0510  0.0313 -0.3639
  535SOL    HW1 1604   0.830   0.057   0.441  1.3405  1.7498 -3.2146
  535SOL    HW2 1605   0.910   0.041   0.304 -0.6561  0.2116  1.7679
  536SOL     OW 1606   1.094   0.006   1.008  0.2055 -0.4156 -0.4622
  536SOL    HW1 1607   1.179   0.055   1.030  0.3929  0.0513  1.9788
  536SOL    HW2 1608   1.097   3.111   0.908  0.3023  1.8113  2.6299
  537SOL     OW 1609   1.424   2.959   2.031  0.3696  0.0710  1.2380
  537SOL    HW1 1610   1.391   2.878   2.081 -2.2613  0.0250 -3.9550
  537SOL    HW2 1611   1.517   2.991   2.052 -0.5827 -0.1268 -1.6412
  538SOL     OW 1612   0.519   2.806   2.768  0.5102 -1.0657  0.3105
  538SOL    HW1 1613   0.594   2.743   2.782 -0.3773 -1.8642  0.0599
  538SOL    HW2 1614   0.446   2.781   2.696 -0.7213 -1.1627 -1.6743
  539SOL     OW 1615   2.990   1.629   1.742 -0.8396 -0.4442 -0.0688
  539SOL    HW1 1616   3.032   1.719   1.710  0.6512  0.0520  2.1254
  539SOL    HW2 1617   2.939   1.632   1.826  2.0698  0.3456 -0.9264
  540SOL     OW 1618   2.514   2.369   2.258 -0.4717  0.6779 -0.1767
  540SOL    HW1 1619   2.436   2.431   2.224 -1.2225 -1.7099 -1.2491
  540SOL    HW2 1620   2.568   2.336   2.176  3.3881 -2.2181 -0.7754
  541SOL     OW 1621   0.169   2.869   1.588  0.1761 -0.0437 -0.2187
  541SOL    HW1 1622   0.242   2.918   1.639 -0.6456 -2.0635  0.7171
  541SOL    HW2 1623   0.204   2.806   1.510  2.4291  0.0778 -0.1738
  542SOL     OW 1624   3.033   0.526   2.258  0.3501 -0.0377  0.2007
  542SOL    HW1 1625   3.060   0.623   2.230 -0.6865  4.4044 -1.0655
  542SOL    HW2 1626   3.032   0.473   2.172  1.8677 -1.0976 -0.6589
  543SOL     OW 1627   0.789   0.353   0.900  0.2555  0.1559 -0.0873
  543SOL    HW1 1628   0.853   0.339   0.979 -0.9701 -1.3808 -2.8798
  543SOL    HW2 1629   0.846   0.388   0.826  1.2936  0.1148 -0.7290
  544SOL     OW 1630   2.275   2.190   1.381  0.2334  0.3079  0.6654
  544SOL    HW1 1631   2.255   2.098   1.341 -1.3986 -0.0536 -1.3407
  544SOL    HW2 1632   2.187   2.239   1.381 -2.3605  2.7668  1.4271
  545SOL     OW 1633   1.196   1.533   0.780 -0.6294  0.2896  0.0239
  545SOL    HW1 1634   1.291   1.503   0.753  0.3042 -1.1897  0.7544
  545SOL    HW2 1635   1.185   1.504   0.876 -0.2490 -2.6162 -0.6983
  546SOL     OW 1636   2.741   0.451   2.275 -0.1612  0.2966  0.4309
  546SOL    HW1 1637   2.731   0.355   2.307  2.1289 -0.2272  1.6561
  546SOL    HW2 1638   2.840   0.479   2.266  0.2680 -1.2563  0.1999
  547SOL     OW 1639   2.898   0.454   3.003 -0.3854 -0.1889 -0.2803
  547SOL    HW1 1640   2.870   0.501   2.915  0.0050 -0.1037  0.0174
  547SOL    HW2 1641   2.998   0.436   3.005  0.0196 -1.2645 -0.8880
  548SOL     OW 1642   2.563   2.022   2.742 -0.0215 -0.7053  0.1859
  548SOL    HW1 1643   2.605   2.117   2.739  3.5555  1.1873  2.7735
  548SOL    HW2 1644   2.487   2.014   2.675 -0.6743 -1.2688  0.2068
  549SOL     OW 1645   2.196   0.525   0.713  0.9542  0.4160 -0.4552
  549SOL    HW1 1646   2.100   0.543   0.749 -1.9368 -1.1160 -2.6857
  549SOL    HW2 1647   2.267   0.540   0.785 -0.1915  2.4830  0.9792
  550SOL     OW 1648   2.599   1.435   0.450  0.1545  0.2083 -0.0036
  550SOL    HW1 1649   2.521   1.373   0.449 -0.1370 -0.4445 -3.0691
  550SOL    HW2 1650   2.675   1.402   0.391 -1.9533  2.4932 -0.0772
  551SOL     OW 1651   1.387   2.579   1.367  0.1880 -0.4070 -0.2838
  551SOL    HW1 1652   1.358   2.553   1.275 -0.6705 -0.2183  0.9261
  551SOL    HW2 1653   1.341   2.667   1.399  1.1522 -1.2504  0.1836
  552SOL     OW 1654   2.430   2.278   2.500  0.5808  0.2589  0.5466
  552SOL    HW1 1655   2.424   2.307   2.406  0.1354  0.8769  1.5806
  552SOL    HW2 1656   2.363   2.338   2.554  0.0500  0.9439  1.2907
  553SOL     OW 1657   0.748   2.619   0.641  0.5820  0.5329  0.3252
  553SOL    HW1 1658   0.738   2.609   0.744  1.3503  0.3850  2.0610
  553SOL    HW2 1659   0.660   2.607   0.591  0.1720  0.4575  1.6276
  554SOL     OW 1660   1.835   2.486   1.783  0.0783 -0.3286  0.1999
  554SOL    HW1 1661   1.748   2.454   1.750  4.1331  0.7587  1.3593
  554SOL    HW2 1662   1.878   2.413   1.842 -1.1655 -0.0333  0.0022
  555SOL     OW 1663   1.474   2.545   2.004  0.3696  0.6848  0.0715
  555SOL    HW1 1664   1.451   2.545   1.905 -1.1995 -0.6579  0.9535
  555SOL    HW2 1665   1.481   2.637   2.047  1.0087 -1.3154  0.6993
  556SOL     OW 1666   1.342   0.571   0.744  0.2710  0.6692  0.2200
  556SOL    HW1 1667   1.332   0.538   0.841 -3.1661  3.5700  1.9600
  556SOL    HW2 1668   1.253   0.603   0.705 -0.4867 -2.9828  0.3346
  557SOL     OW 1669   1.032   2.163   1.679  0.3923 -0.0885 -0.1722
  557SOL    HW1 1670   0.957   2.225   1.637 -4.6413 -1.7031 -0.1426
  557SOL    HW2 1671   1.016   2.161   1.782 -1.8815  0.3140  1.3887
  558SOL     OW 1672   2.984   1.286   2.353 -0.4146  0.6300 -0.7250
  558SOL    HW1 1673   2.925   1.363   2.367  3.0308 -2.1739  0.5299
  558SOL    HW2 1674   3.080   1.320   2.360  2.0132 -0.4749 -2.3630
  559SOL     OW 1675   2.270   2.512   2.194  0.1556 -0.1043  0.5150
  559SOL    HW1 1676   2.306   2.550   2.108  1.2360  2.4068  0.6943
  559SOL    HW2 1677   2.263   2.583   2.267 -1.1296 -0.5963  1.9457
  560SOL     OW 1678   0.359   0.195   2.476  0.5462  0.2724 -0.0934
  560SOL    HW1 1679   0.385   0.138   2.400 -2.1809  0.7998  2.4119
  560SOL    HW2 1680   0.356   0.143   2.560  0.4719 -0.6131 -0.1923
  561SOL     OW 1681   1.177   0.568   0.481 -0.0627  0.1645  0.3061
  561SOL    HW1 1682   1.265   0.620   0.465  1.3758  1.6975  0.1605
  561SOL    HW2 1683   1.145   0.540   0.384  1.1845 -0.0730 -3.7168
  562SOL     OW 1684   0.659   1.370   1.797  0.2394  0.0370  0.4878
  562SOL    HW1 1685   0.623   1.401   1.708  1.8997 -0.1074  2.3258
  562SOL    HW2 1686   0.757   1.353   1.794 -1.0194  1.1001 -1.1343
  563SOL     OW 1687   1.913   1.901   0.277 -0.0224  0.1602  0.2818
  563SOL    HW1 1688   1.993   1.856   0.236  0.4945  0.9033 -0.8832
  563SOL    HW2 1689   1.942   1.981   0.331  0.9112 -0.3708 -0.7538
  564SOL     OW 1690   2.931   2.395   0.716  0.7870  0.2111 -0.7513
  564SOL    HW1 1691   2.913   2.296   0.717 -1.2003  2.5720  0.6641
  564SOL    HW2 1692   3.029   2.410   0.723 -1.7922  4.2007 -2.1427
  565SOL     OW 1693   0.310   0.038   2.715 -0.7642  0.2246  0.5783
  565SOL    HW1 1694   0.308   0.095   2.798 -3.6917 -2.9140  0.5598
  565SOL    HW2 1695   0.405   0.011   2.690  0.3228  1.6175 -3.7249
  566SOL     OW 1696   1.365   2.768   2.820 -0.0700 -0.1174 -0.2774
  566SOL    HW1 1697   1.274   2.780   2.777  2.7147  2.6748 -2.2736
  566SOL    HW2 1698   1.392   2.845   2.883  0.2308  1.7361  1.1292
  567SOL     OW 1699   2.131   1.945   1.296 -0.5380  0.4441 -0.3010
  567SOL    HW1 1700   2.191   1.890   1.237 -2.8852  2.1193 -0.8799
  567SOL    HW2 1701   2.036   1.915   1.277  0.1485 -3.2610  1.2536
  568SOL     OW 1702   1.940   0.941   2.795 -0.1734  0.0297  0.1656
  568SOL    HW1 1703   1.956   0.848   2.750  1.6495 -0.3020 -0.8998
  568SOL    HW2 1704   2.025   0.963   2.854  1.7655 -1.2949  2.2765
  569SOL     OW 1705   2.147   2.074   2.011  0.1727 -0.1498 -0.2969
  569SOL    HW1 1706   2.157   1.980   2.055 -0.4940  0.3667 -2.2197
  569SOL    HW2 1707   2.166   2.149   2.076 -2.7386  0.6810 -3.8154
  570SOL     OW 1708   2.782   2.796   1.911  0.0075  0.7527  0.1716
  570SOL    HW1 1709   2.832   2.853   1.978  0.0848 -1.8646 -0.3797
  570SOL    HW2 1710   2.839   2.715   1.878 -0.3374  3.7111  0.7467
  571SOL     OW 1711   0.183   0.819   1.408  0.0607  0.3540 -0.4084
  571SOL    HW1 1712   0.230   0.806   1.320  1.5128 -0.0938  1.8932
  571SOL    HW2 1713   0.122   0.908   1.405 -0.7640  2.9112  0.4893
  572SOL     OW 1714   3.107   1.642   1.270 -0.1561 -0.9194 -0.4391
  572SOL    HW1 1715   3.061   1.567   1.220 -0.7561  1.3835 -0.6668
  572SOL    HW2 1716   3.050   1.680   1.348 -2.4639 -3.1722  1.3437
  573SOL     OW 1717   0.963   0.741   0.336  0.1146  0.4397 -0.0243
  573SOL    HW1 1718   0.867   0.761   0.302 -2.7001 -0.9644 -0.4965
  573SOL    HW2 1719   0.997   0.827   0.375 -1.4772 -2.9273  3.1834
  574SOL     OW 1720   0.567   0.166   0.381 -0.1023  0.1530  0.3151
  574SOL    HW1 1721   0.660   0.129   0.361  0.9918  0.0783  1.1951
  574SOL    HW2 1722   0.495   0.092   0.373 -0.6455 -3.3514 -0.8162
  575SOL     OW 1723   0.756   2.203   0.851 -0.3723  0.9795  0.3714
  575SOL    HW1 1724   0.799   2.218   0.760 -1.1821 -0.4496  3.0093
  575SOL    HW2 1725   0.833   2.219   0.914  0.6838 -1.8846 -1.6042
  576SOL     OW 1726   3.008   2.911   1.284  0.3522  0.4931  0.3180
  576SOL    HW1 1727   2.921   2.953   1.245  0.5639 -2.8369  0.7047
  576SOL    HW2 1728   3.005   2.919   1.385 -0.8677  0.5132 -0.4838
  577SOL     OW 1729   2.726   1.889   1.949  0.2127 -0.7299 -0.7039
  577SOL    HW1 1730   2.699   1.946   2.030  0.4843 -0.3433  1.4632
  577SOL    HW2 1731   2.785   1.941   1.884 -0.3515 -0.8877  0.2224
  578SOL     OW 1732   1.227   0.149   2.860 -0.0618 -0.2949 -0.2982
  578SOL    HW1 1733   1.316   0.143   2.806  0.0636 -2.1487 -0.7834
  578SOL    HW2 1734   1.183   0.059   2.846  1.5073  0.6377  0.9939
  579SOL     OW 1735   1.877   1.998   2.167 -0.7013  0.0855 -0.3397
  579SOL    HW1 1736   1.947   2.073   2.143 -0.2331  3.2841  0.3383
  579SOL    HW2 1737   1.834   1.965   2.079 -0.7140 -0.2423  0.3857
  580SOL     OW 1738   1.581   0.705   2.284  0.5808  0.9310 -0.1585
  580SOL    HW1 1739   1.623   0.741   2.203  0.0264  1.3188  2.8326
  580SOL    HW2 1740   1.650   0.667   2.349 -0.7723 -0.0722 -0.1485
  581SOL     OW 1741   0.896   1.399   2.164 -0.6052 -0.6534 -0.3018
  581SOL    HW1 1742   0.923   1.496   2.156  1.2960  1.9849  0.2831
  581SOL    HW2 1743   0.878   1.369   2.259  0.6876 -1.0081  0.0900
  582SOL     OW 1744   0.119   2.710   1.805 -0.1663  0.0590  0.0021
  582SOL    HW1 1745   0.211   2.701   1.848 -0.9653 -0.6879  0.4181
  582SOL    HW2 1746   0.109   2.778   1.727 -0.4913  2.0649 -2.4949
  583SOL     OW 1747   1.485   1.298   1.461  0.0659 -0.0508 -0.0634
  583SOL    HW1 1748   1.524   1.268   1.375 -5.3006  1.6534  4.5827
  583SOL    HW2 1749   1.492   1.402   1.466 -1.7608  1.8232 -0.3324
  584SOL     OW 1750   1.364   1.959   2.780 -0.1718 -0.1444  0.1682
  584SOL    HW1 1751   1.361   2.040   2.717 -0.7712 -1.0970 -2.5120
  584SOL    HW2 1752   1.405   1.989   2.869  1.1448 -1.5722  0.4137
  585SOL     OW 1753   0.258   2.474   0.197 -0.6555 -0.7054 -0.6862
  585SOL    HW1 1754   0.161   2.492   0.155 -1.6563 -0.0401 -2.0556
  585SOL    HW2 1755   0.258   2.402   0.273 -2.1550  1.6156 -0.0199
  586SOL     OW 1756   1.967   1.954   0.685  0.1536  0.0579  0.0165
  586SOL    HW1 1757   1.896   1.893   0.652  2.9754  0.1481 -0.8829
  586SOL    HW2 1758   1.965   1.948   0.786  1.4596  0.6196 -1.9677
  587SOL     OW 1759   2.874   2.120   0.727  0.1003 -0.6672 -0.3686
  587SOL    HW1 1760   2.941   2.045   0.760 -1.7965 -0.6006 -0.1642
  587SOL    HW2 1761   2.817   2.080   0.654 -0.7715  3.0818  1.6948
  588SOL     OW 1762   2.316   0.282   1.155  0.4132 -0.0198 -0.1836
  588SOL    HW1 1763   2.346   0.246   1.246 -1.7114 -2.5182 -0.4147
  588SOL    HW2 1764   2.217   0.278   1.142  0.7397 -1.7033  0.0615
  589SOL     OW 1765   0.743   0.674   1.098 -0.3303 -0.4009 -0.4048
  589SOL    HW1 1766   0.835   0.672   1.054  0.3441  1.3244  1.0751
  589SOL    HW2 1767   0.737   0.616   1.186  3.3475 -1.6922  1.3434
  590SOL     OW 1768   2.551   2.253   0.221 -0.0839 -0.1990  0.1239
  590SOL    HW1 1769   2.499   2.229   0.132 -0.1454  2.1483 -0.5067
  590SOL    HW2 1770   2.646   2.211   0.218 -0.2403  3.0652 -0.6428
  591SOL     OW 1771   0.640   2.245   1.769 -0.1155 -0.3533 -0.0134
  591SOL    HW1 1772   0.585   2.162   1.802  0.4114 -0.6084 -0.6421
  591SOL    HW2 1773   0.578   2.321   1.721 -1.2678  2.0122 -2.6236
  592SOL     OW 1774   0.645   1.414   1.525  0.3205  0.2932 -0.0628
  592SOL    HW1 1775   0.744   1.435   1.506  3.0589 -0.9469  2.0873
  592SOL    HW2 1776   0.629   1.317   1.542 -0.9687  0.7038 -1.2272
  593SOL     OW 1777   0.952   2.242   1.059  0.4538 -0.7836  0.3306
  593SOL    HW1 1778   1.038   2.267   1.111  0.6611  1.0036 -0.2955
  593SOL    HW2 1779   0.924   2.149   1.087  1.4973 -0.1572  2.0122
  594SOL     OW 1780   0.790   1.233   2.682  0.0424 -0.3381 -0.1384
  594SOL    HW1 1781   0.837   1.143   2.709 -0.0721 -1.5154 -1.8223
  594SOL    HW2 1782   0.795   1.301   2.756 -0.7001 -0.8026 -1.0772
  595SOL     OW 1783   1.340   0.518   1.016  0.2670 -0.2891  0.4229
  595SOL    HW1 1784   1.426   0.573   1.036 -0.6405 -1.5405 -0.8214
  595SOL    HW2 1785   1.255   0.561   1.059 -3.5322  1.8361  1.3198
  596SOL     OW 1786   0.260   1.140   0.852 -0.6982  0.3415  0.0995
  596SOL    HW1 1787   0.359   1.146   0.856 -3.8617 -0.0776 -3.6915
  596SOL    HW2 1788   0.221   1.064   0.794 -1.4501  3.2119  0.8623
  597SOL     OW 1789   0.110   2.061   2.919 -0.0051 -0.7717 -0.1336
  597SOL    HW1 1790   0.025   2.099   2.879 -1.2852 -1.0903  2.6400
  597SOL    HW2 1791   0.120   2.091   3.016 -0.4589 -3.3144 -0.4180
  598SOL     OW 1792   2.069   2.051   2.533 -0.0893 -0.0118  0.3240
  598SOL    HW1 1793   1.989   1.994   2.501  1.0491 -0.2042  1.8049
  598SOL    HW2 1794   2.087   2.048   2.630 -0.5597  0.9570 -0.6903
  599SOL     OW 1795   1.505   0.408   0.596  0.0717  0.0528  1.0351
  599SOL    HW1 1796   1.483   0.361   0.506  3.8810 -0.3531 -0.5793
  599SOL    HW2 1797   1.430   0.470   0.620  3.5338  1.6795 -0.8245
  600SOL     OW 1798   0.929   2.803   0.472  1.0454  0.4217 -0.0130
  600SOL    HW1 1799   0.852   2.766   0.530 -0.0565 -1.0711  0.9031
  600SOL    HW2 1800   1.012   2.822   0.524 -3.4742 -0.5735 -0.5398
  601SOL     OW 1801   0.591   0.288   1.117  0.3700  0.0294 -0.2202
  601SOL    HW1 1802   0.568   0.380   1.080 -0.1130  0.0246  0.7157
  601SOL    HW2 1803   0.644   0.293   1.200  0.5089  0.2054 -2.5077
  602SOL     OW 1804   0.131   3.003   0.671 -0.1253 -0.0693 -0.0514
  602SOL    HW1 1805   0.061   2.931   0.691  1.2821  2.5749 -0.3219
  602SOL    HW2 1806   0.083   3.073   0.621 -0.6383 -2.1610 -0.9830
  603SOL     OW 1807   0.823   2.630   2.495 -0.1850  0.0277  0.3645
  603SOL    HW1 1808   0.804   2.715   2.440 -0.5939 -0.0619  0.3783
  603SOL    HW2 1809   0.739   2.607   2.544  1.7229 -0.4986  0.4097
  604SOL     OW 1810   1.003   2.491   2.918  0.0592 -0.5208 -0.0559
  604SOL    HW1 1811   1.025   2.402   2.956 -0.2784  0.7640  0.8738
  604SOL    HW2 1812   1.041   2.501   2.825 -0.2462 -0.1444  0.5831
  605SOL     OW 1813   0.966   0.947   1.547  0.3913  0.0359 -0.0551
  605SOL    HW1 1814   1.066   0.924   1.552  1.5884  0.3554  0.1634
  605SOL    HW2 1815   0.917   0.897   1.616 -0.7420  0.2338 -6.2873
  606SOL     OW 1816   1.333   0.467   2.830  0.0300  0.4710  0.1285
  606SOL    HW1 1817   1.351   0.562   2.857 -2.1986 -3.2179 -0.3653
  606SOL    HW2 1818   1.325   0.407   2.913  2.7775  0.3613  0.8471
  607SOL     OW 1819   0.079   1.129   1.051  0.3223 -0.5820  0.2554
  607SOL    HW1 1820   0.123   1.181   1.130  0.7144  1.4470  1.6061
  607SOL    HW2 1821   0.136   1.135   0.963  1.5765 -0.6541 -1.7884
  608SOL     OW 1822   2.905   2.319   2.320  0.2095  0.4755 -0.1665
  608SOL    HW1 1823   2.848   2.395   2.292  3.0114 -1.5302  0.3826
  608SOL    HW2 1824   2.942   2.342   2.411 -3.2319  0.0194 -2.4210
  609SOL     OW 1825   1.959   0.474   0.191  0.1989  0.0812 -0.5908
  609SOL    HW1 1826   2.019   0.412   0.137 -1.9991  0.3048  1.0220
  609SOL    HW2 1827   1.890   0.522   0.134 -0.3830  1.8964  0.7810
  610SOL     OW 1828   0.979   2.815   0.936  0.3064 -0.0099  0.0649
  610SOL    HW1 1829   0.974   2.875   0.859  0.7177 -2.1379 -2.0250
  610SOL    HW2 1830   0.997   2.871   1.021 -2.4939  1.0994  1.8894
  611SOL     OW 1831   0.558   1.309   0.364  0.3362 -0.4526 -0.2042
  611SOL    HW1 1832   0.607   1.368   0.297 -3.9955 -0.4506 -0.4029
  611SOL    HW2 1833   0.491   1.248   0.323  1.5015  0.4608  0.9720
  612SOL     OW 1834   0.962   0.501   2.373 -0.0532 -0.0192  0.0817
  612SOL    HW1 1835   0.859   0.489   2.375  0.3694 -1.2355  0.8752
  612SOL    HW2 1836   1.003   0.515   2.464 -0.1270 -0.2270  2.0720
  613SOL     OW 1837   2.419   1.231   0.415  0.0809  0.1706 -0.4545
  613SOL    HW1 1838   2.336   1.248   0.473 -0.7427 -2.0692  1.3835
  613SOL    HW2 1839   2.393   1.192   0.324  2.2485  0.4608  0.3009
  614SOL     OW 1840   1.821   0.547   1.776 -0.4154 -0.2006  0.2134
  614SOL    HW1 1841   1.743   0.569   1.841  1.3521 -1.3422  0.5467
  614SOL    HW2 1842   1.896   0.612   1.792  0.1988  1.0175  0.6791
  615SOL     OW 1843   0.518   2.089   1.036 -0.0617  0.3781  0.6472
  615SOL    HW1 1844   0.516   1.995   0.991  2.0685 -2.6467  3.4837
  615SOL    HW2 1845   0.504   2.163   0.968 -1.5038 -0.1349  0.3863
  616SOL     OW 1846   1.546   1.127   2.433  0.0713 -0.1200 -0.4175
  616SOL    HW1 1847   1.481   1.189   2.382 -1.2634 -0.6905 -2.9045
  616SOL    HW2 1848   1.547   1.157   2.533  1.9132  0.9724 -0.4806
  617SOL     OW 1849   1.910   2.574   0.312  0.5779 -0.8486 -0.1472
  617SOL    HW1 1850   1.832   2.625   0.270 -1.8057  3.2005 -3.3414
  617SOL    HW2 1851   1.935   2.492   0.255 -3.1252 -0.1715  0.2123
  618SOL     OW 1852   0.950   0.928   3.022  0.4694 -0.4024 -0.7035
  618SOL    HW1 1853   0.859   0.953   3.060 -1.8189 -0.7920 -0.5899
  618SOL    HW2 1854   1.017   0.910   3.100  1.2238  1.2527  0.2329
  619SOL     OW 1855   2.685   1.397   0.700 -0.2702  0.0279  0.2049
  619SOL    HW1 1856   2.703   1.299   0.692 -0.5935  2.7580  1.0573
  619SOL    HW2 1857   2.634   1.423   0.618  0.2558  2.8912  1.5783
  620SOL     OW 1858   2.567   2.840   3.026 -0.0805  0.0576 -0.1475
  620SOL    HW1 1859   2.471   2.801   3.026  0.5008 -1.3664 -0.7535
  620SOL    HW2 1860   2.606   2.822   2.935 -0.8810 -0.8995  0.3045
  621SOL     OW 1861   2.191   1.134   0.184 -0.7233  0.2191 -0.0068
  621SOL    HW1 1862   2.119   1.066   0.160  0.9378 -2.1227 -0.4331
  621SOL    HW2 1863   2.156   1.227   0.215 -0.0609  1.1979  1.2948
  622SOL     OW 1864   1.100   2.200   2.447  0.2374  0.0464  0.2639
  622SOL    HW1 1865   1.170   2.127   2.436 -0.3764 -1.0955  0.8589
  622SOL    HW2 1866   1.113   2.243   2.536  0.1868  1.7663 -2.4625
  623SOL     OW 1867   0.372   1.774   3.093 -0.2169 -0.3862 -0.0000
  623SOL    HW1 1868   0.294   1.803   3.031 -1.0784  1.8062 -0.3366
  623SOL    HW2 1869   0.443   1.848   3.094  0.4130  0.4934 -0.5099
  624SOL     OW 1870   0.338   0.165   2.970 -0.1120  0.4280  0.5034
  624SOL    HW1 1871   0.425   0.199   3.012  1.0115  0.4690  1.2061
  624SOL    HW2 1872   0.281   0.120   3.041  0.3532 -0.9557  0.9491
  625SOL     OW 1873   0.779   1.840   0.170  0.4455  0.4569  0.2650
  625SOL    HW1 1874   0.768   1.887   0.080  1.7667  2.1659  0.9027
  625SOL    HW2 1875   0.701   1.862   0.238 -0.8206  1.3983  3.5365
  626SOL     OW 1876   2.560   0.283   0.108 -0.2456 -0.0412 -0.0437
  626SOL    HW1 1877   2.602   0.197   0.140 -0.9479 -1.9872 -0.3807
  626SOL    HW2 1878   2.561   0.354   0.183 -0.6479 -1.1181 -0.6191
  627SOL     OW 1879   1.352   0.917   2.812 -0.1576  0.0083 -0.0641
  627SOL    HW1 1880   1.330   0.868   2.896  0.1211  3.9353 -5.0581
  627SOL    HW2 1881   1.368   1.016   2.826  0.0557  3.0275 -0.7533
  628SOL     OW 1882   1.170   0.526   2.589  0.0781  0.2666  0.1221
  628SOL    HW1 1883   1.196   0.461   2.662 -2.5336  0.4122 -0.6742
  628SOL    HW2 1884   1.202   0.623   2.598  0.1393 -2.8791 -4.0819
  629SOL     OW 1885   0.306   3.073   1.737 -1.0550  0.3276  0.3498
  629SOL    HW1 1886   0.384   3.036   1.795 -1.6407  1.5372 -2.6284
  629SOL    HW2 1887   0.320   0.043   1.704 -0.1509 -0.0393  1.1438
  630SOL     OW 1888   2.324   1.004   1.864  0.0553 -0.1634  0.8633
  630SOL    HW1 1889   2.300   0.966   1.959 -1.9160 -0.3495  2.0179
  630SOL    HW2 1890   2.356   0.930   1.799  0.2689 -0.2391  0.1737
  631SOL     OW 1891   2.243   1.198   0.650  0.1639  0.4231  0.0040
  631SOL    HW1 1892   2.291   1.262   0.714  3.0231 -3.5139  0.7494
  631SOL    HW2 1893   2.274   1.105   0.663 -1.0889  1.7076  1.8212
  632SOL     OW 1894   2.671   0.637   1.684  0.6390  0.1291 -0.6653
  632SOL    HW1 1895   2.651   0.548   1.643 -2.1435 -1.0795 -1.0020
  632SOL    HW2 1896   2.659   0.707   1.610 -0.1978  0.9589 -1.3034
  633SOL     OW 1897   0.999   2.715   3.060  0.4062 -0.0078  0.2365
  633SOL    HW1 1898   0.991   2.615   3.031 -3.2536 -1.4685 -0.9255
  633SOL    HW2 1899   0.910   2.742   3.099 -1.4874 -0.4936 -1.1537
  634SOL     OW 1900   1.596   2.788   0.025  0.0380  0.1895  0.4292
  634SOL    HW1 1901   1.607   2.747   0.120  0.8489 -0.1477  3.0328
  634SOL    HW2 1902   1.685   2.791   3.104 -4.1989 -2.3814 -0.1331
  635SOL     OW 1903   2.808   0.370   0.237 -0.0546 -0.0985 -0.0803
  635SOL    HW1 1904   2.831   0.463   0.195 -1.2685  0.6808 -1.7731
  635SOL    HW2 1905   2.720   0.377   0.278  0.3961  0.2618  2.1986
  636SOL     OW 1906   0.536   1.646   0.643  0.1503 -0.4351  0.3076
  636SOL    HW1 1907   0.590   1.700   0.709 -3.0257  0.8023  1.5910
  636SOL    HW2 1908   0.566   1.553   0.629 -2.1988  0.3069 -2.5752
  637SOL     OW 1909   0.328   2.719   0.346  0.6815 -0.0941  0.5127
  637SOL    HW1 1910   0.311   2.637   0.284  1.8874 -0.7843  0.8937
  637SOL    HW2 1911   0.313   2.806   0.295  0.8978  2.1902 -2.3463
  638SOL     OW 1912   3.044   2.633   0.369 -0.5528  0.3591  0.1829
  638SOL    HW1 1913   3.069   2.702   0.294  0.2769 -1.4885 -1.3758
  638SOL    HW2 1914   3.113   2.635   0.444 -0.4096  0.0796 -0.8301
  639SOL     OW 1915   1.100   1.293   0.416 -0.0750  0.0227 -0.8322
  639SOL    HW1 1916   1.138   1.322   0.328 -1.6108 -0.3949 -0.4546
  639SOL    HW2 1917   1.076   1.376   0.463  1.1316 -2.2352 -0.8567
  640SOL     OW 1918   1.488   2.374   0.976 -0.5257  0.1887 -0.5065
  640SOL    HW1 1919   1.560   2.401   1.040 -1.9072  0.0349 -0.2602
  640SOL    HW2 1920   1.511   2.403   0.878  1.8073 -0.4367  1.8763
  641SOL     OW 1921   2.904   2.608   0.902  0.0482 -0.9644  0.3517
  641SOL    HW1 1922   2.920   2.529   0.838  1.2698 -2.1920 -0.6095
  641SOL    HW2 1923   2.864   2.574   0.992  0.8640 -0.4254  1.0055
  642SOL     OW 1924   0.885   3.076   1.962  0.1760  0.5431  0.3122
  642SOL    HW1 1925   0.918   0.026   2.027 -0.2464 -0.4015  1.0422
  642SOL    HW2 1926   0.852   3.117   1.875  3.7339 -0.2123 -1.4726
  643SOL     OW 1927   0.828   2.205   2.430 -1.3127 -0.4075 -0.3737
  643SOL    HW1 1928   0.928   2.177   2.436  1.9839  0.7437 -0.1667
  643SOL    HW2 1929   0.781   2.194   2.516  1.2782 -0.5495 -1.1371
  644SOL     OW 1930   0.995   2.534   0.596  0.5929 -0.2407 -0.0900
  644SOL    HW1 1931   0.977   2.439   0.560 -2.1367 -0.2985 -0.1164
  644SOL    HW2 1932   0.908   2.585   0.613  1.1460 -1.5881  2.6283
  645SOL     OW 1933   1.338   1.469   1.900 -0.3375 -0.3508 -0.1608
  645SOL    HW1 1934   1.303   1.502   1.805 -0.1898 -1.4925  0.8199
  645SOL    HW2 1935   1.308   1.376   1.915  0.1622  2.4419  0.7599
  646SOL     OW 1936   0.494   1.104   0.010 -0.5066  0.3436  0.4654
  646SOL    HW1 1937   0.399   1.102   3.106  1.3885  1.5005  1.7023
  646SOL    HW2 1938   0.505   1.096   0.113  0.4255 -1.5528  1.7471
  647SOL     OW 1939   1.483   0.142   0.787 -0.2245  0.2756 -0.0675
  647SOL    HW1 1940   1.494   0.042   0.803  1.0085  1.1398 -0.1532
  647SOL    HW2 1941   1.576   0.177   0.755  2.4038  2.6727 -1.7240
  648SOL     OW 1942   2.518   2.782   1.448  0.6587 -0.3667  0.2297
  648SOL    HW1 1943   2.416   2.769   1.473 -2.2755  2.2015  1.9731
  648SOL    HW2 1944   2.538   2.751   1.355  0.3166  1.3915  2.5376
  649SOL     OW 1945   0.742   1.978   3.067 -0.2957  0.1708 -0.0967
  649SOL    HW1 1946   0.809   2.021   3.003  4.0072 -1.2953  0.3929
  649SOL    HW2 1947   0.647   1.989   3.045  2.9354 -0.5443 -0.4855
  650SOL     OW 1948   2.943   2.338   1.514 -1.1818 -0.0079  0.1463
  650SOL    HW1 1949   2.956   2.440   1.523 -0.4951  0.4746  0.7602
  650SOL    HW2 1950   2.853   2.313   1.477  1.4964 -0.8020  1.7562
  651SOL     OW 1951   0.126   3.122   0.004  0.2059  0.0233  0.7367
  651SOL    HW1 1952   0.055   0.001   3.051  0.2027  0.8285 -1.1748
  651SOL    HW2 1953   0.085   0.012   0.092 -1.3762  0.0980 -2.7297
  652SOL     OW 1954   2.353   1.866   0.076 -0.4226  0.1194 -0.1166
  652SOL    HW1 1955   2.390   1.934   0.009  1.3532  1.1805 -1.7708
  652SOL    HW2 1956   2.374   1.885   0.174  2.1890  0.1041  1.4894
  653SOL     OW 1957   0.260   0.094   0.794 -0.4291  0.2790 -0.3985
  653SOL    HW1 1958   0.277   0.101   0.894 -0.2465  1.4391 -2.2623
  653SOL    HW2 1959   0.222   0.010   0.759  2.4398  1.4342 -2.3078
  654SOL     OW 1960   1.305   2.906   0.239  0.3201 -0.1110  0.0970
  654SOL    HW1 1961   1.366   2.824   0.220 -0.1150  0.8533  0.8564
  654SOL    HW2 1962   1.346   2.967   0.308 -0.2824 -2.2509 -0.9716
  655SOL     OW 1963   0.741   2.818   1.161  0.8870  0.2988 -0.4869
  655SOL    HW1 1964   0.725   2.850   1.068  1.1947  0.9041  1.6601
  655SOL    HW2 1965   0.841   2.788   1.172 -0.5338  1.4498  1.2527
  656SOL     OW 1966   0.356   0.029   2.031  0.0722 -0.2252  0.0547
  656SOL    HW1 1967   0.350   3.049   2.026 -0.4449  0.2103 -2.6728
  656SOL    HW2 1968   0.309   0.071   1.949  1.1756  1.9714  0.3657
  657SOL     OW 1969   1.734   0.604   2.513 -0.4791  0.3353  0.0413
  657SOL    HW1 1970   1.786   0.532   2.561  0.1043 -0.9029  0.6854
  657SOL    HW2 1971   1.799   0.680   2.495  1.1922 -1.5174  3.6936
  658SOL     OW 1972   2.152   1.556   1.201 -0.2230  0.5649 -0.0564
  658SOL    HW1 1973   2.101   1.485   1.252 -1.0403  1.6108  1.2842
  658SOL    HW2 1974   2.242   1.566   1.250  1.5297 -1.2209  0.6715
  659SOL     OW 1975   2.914   2.831   2.961  0.5097 -0.5883 -0.5130
  659SOL    HW1 1976   2.932   2.931   2.957 -2.3305  1.0855  2.4532
  659SOL    HW2 1977   2.870   2.813   3.050 -0.8834  0.6620  0.8242
  660SOL     OW 1978   1.436   0.654   0.140 -0.3569 -0.6644 -0.2165
  660SOL    HW1 1979   1.463   0.558   0.141 -2.7476  1.6472  0.4316
  660SOL    HW2 1980   1.436   0.696   0.234  1.2221 -3.0566 -2.8227
  661SOL     OW 1981   2.402   2.707   0.998  0.0841 -0.0264  0.0105
  661SOL    HW1 1982   2.402   2.778   0.924 -0.4158 -1.5867  1.4102
  661SOL    HW2 1983   2.405   2.616   0.954 -1.4457 -0.5175  1.8486
  662SOL     OW 1984   0.599   0.475   0.606  0.0948  1.1910 -0.1304
  662SOL    HW1 1985   0.575   0.405   0.679 -2.8643 -5.3597 -0.2515
  662SOL    HW2 1986   0.510   0.497   0.557  0.3660 -2.0290 -0.6543
  663SOL     OW 1987   1.495   2.495   2.432 -0.1272 -0.1144  0.5352
  663SOL    HW1 1988   1.552   2.441   2.367 -3.7240  3.1701  2.0680
  663SOL    HW2 1989   1.397   2.486   2.413  1.8747 -0.4859  1.8301
  664SOL     OW 1990   0.590   2.421   1.316  0.5499 -0.2790 -0.2520
  664SOL    HW1 1991   0.669   2.399   1.253  0.0958 -1.8861 -1.4594
  664SOL    HW2 1992   0.579   2.521   1.321  1.5479  0.0735  1.4029
  665SOL     OW 1993   1.401   1.959   1.455 -0.2689 -0.1566 -0.3638
  665SOL    HW1 1994   1.425   1.942   1.548 -0.3169 -0.7593 -0.8130
  665SOL    HW2 1995   1.339   1.892   1.415 -0.5204 -1.3130  2.4598
  666SOL     OW 1996   0.498   2.937   2.983  0.1489 -0.1871  0.2922
  666SOL    HW1 1997   0.561   3.018   2.974 -1.1427  0.8959 -1.2087
  666SOL    HW2 1998   0.491   2.881   2.896  0.2089  0.0432 -1.5152
  667SOL     OW 1999   1.731   1.606   1.380  0.2788 -0.0222 -0.7784
  667SOL    HW1 2000   1.807   1.600   1.448  0.2156 -1.1041 -0.4330
  667SOL    HW2 2001   1.639   1.592   1.427  0.7355  1.8407 -1.2397
  668SOL     OW 2002   0.761   0.187   2.297 -0.1167  0.3449  0.3948
  668SOL    HW1 2003   0.844   0.186   2.237 -0.0394  1.1514 -0.8830
  668SOL    HW2 2004   0.739   0.283   2.313  0.7104  2.4452 -0.5328
  669SOL     OW 2005   2.383   2.601   1.938 -0.2142 -0.0637 -0.2261
  669SOL    HW1 2006   2.295   2.571   1.915  0.3150 -0.3020  0.7456
  669SOL    HW2 2007   2.444   2.585   1.862 -0.6088  1.4496  4.7612
  670SOL     OW 2008   2.371   1.902   0.357  0.3132  0.1914  0.7057
  670SOL    HW1 2009   2.342   1.995   0.375  0.8109  0.3958 -5.6650
  670SOL    HW2 2010   2.313   1.842   0.413 -1.4131 -0.8845  1.3498
  671SOL     OW 2011   1.343   1.113   1.187  0.3182  0.0906 -0.1011
  671SOL    HW1 2012   1.303   1.106   1.096  3.6677  2.2101 -0.9535
  671SOL    HW2 2013   1.447   1.119   1.187  0.3399  2.0008 -2.4292
  672SOL     OW 2014   2.440   1.546   2.291 -0.7899 -0.1794  0.0423
  672SOL    HW1 2015   2.510   1.619   2.268  2.9344 -0.1471  0.7514
  672SOL    HW2 2016   2.418   1.485   2.214  0.1250 -0.6008  1.2004
  673SOL     OW 2017   2.583   1.743   2.196 -0.3273 -0.0698 -0.1912
  673SOL    HW1 2018   2.626   1.801   2.271  2.1494  2.3895  0.1646
  673SOL    HW2 2019   2.637   1.745   2.109 -1.1701 -2.0109 -3.1526
  674SOL     OW 2020   1.049   2.918   2.372 -0.5430 -0.3936 -0.5073
  674SOL    HW1 2021   0.973   2.983   2.348 -2.9049 -2.6391 -0.2955
  674SOL    HW2 2022   1.044   2.839   2.309 -0.7732  0.4054  0.4062
  675SOL     OW 2023   0.489   0.929   1.207 -0.2983 -0.0290 -0.1716
  675SOL    HW1 2024   0.536   0.902   1.118 -0.4483 -0.1736  0.3681
  675SOL    HW2 2025   0.539   0.893   1.287  1.7612 -2.2950  1.9952
  676SOL     OW 2026   1.977   0.608   0.861 -0.2160  0.3840 -0.3174
  676SOL    HW1 2027   1.897   0.550   0.882  2.0894  2.4687  0.9528
  676SOL    HW2 2028   1.979   0.675   0.942  1.7944 -1.0141  1.0097
  677SOL     OW 2029   2.639   1.606   2.792 -0.1520 -0.3008  0.2160
  677SOL    HW1 2030   2.682   1.527   2.846  0.7664 -1.7044 -1.7233
  677SOL    HW2 2031   2.630   1.579   2.696  0.5213  3.6577 -0.4980
  678SOL     OW 2032   0.015   3.105   1.097 -0.0636  0.4427  0.4948
  678SOL    HW1 2033   3.096   3.111   1.003 -1.7571  2.2224 -1.8434
  678SOL    HW2 2034   3.101   3.034   1.161 -1.5093 -1.9979  0.8977
  679SOL     OW 2035   2.356   0.042   0.346 -0.2622 -0.3225  0.1035
  679SOL    HW1 2036   2.329   0.113   0.275 -0.6879  1.3965  2.2278
  679SOL    HW2 2037   2.456   0.027   0.344  0.5890  0.7998  3.7583
  680SOL     OW 2038   0.285   2.416   2.128  0.6579 -0.2709  0.2823
  680SOL    HW1 2039   0.384   2.409   2.156  1.1657 -1.0196  1.9403
  680SOL    HW2 2040   0.256   2.326   2.096  0.7326  1.8880  2.1540
  681SOL     OW 2041   2.903   1.758   1.409 -0.2022  0.0567  0.4433
  681SOL    HW1 2042   2.898   1.836   1.341 -1.6304  3.7268 -1.4649
  681SOL    HW2 2043   2.808   1.750   1.448 -3.0461  1.0782  2.4361
  682SOL     OW 2044   0.130   2.235   2.005  0.0443 -0.8741  0.1993
  682SOL    HW1 2045   0.127   2.332   1.963 -2.2506 -0.5258 -1.1393
  682SOL    HW2 2046   0.039   2.216   2.041 -0.7838 -0.1550  0.6695
  683SOL     OW 2047   2.865   2.100   1.795  0.7283 -0.1501 -0.0282
  683SOL    HW1 2048   2.870   2.064   1.698 -1.3498  1.8347 -0.5114
  683SOL    HW2 2049   2.891   2.199   1.802  0.2113  0.9863 -1.4143
  684SOL     OW 2050   2.515   1.529   2.555  0.0283 -0.0767 -0.2583
  684SOL    HW1 2051   2.470   1.541   2.467  1.8989  2.3139  3.3955
  684SOL    HW2 2052   2.493   1.433   2.599 -1.5136 -0.3810  2.5620
  685SOL     OW 2053   1.467   1.100   0.338 -0.1105 -0.7671  0.3962
  685SOL    HW1 2054   1.456   1.035   0.416 -1.1384  0.3294 -0.9810
  685SOL    HW2 2055   1.519   1.177   0.375 -0.3660  0.7636  0.1417
  686SOL     OW 2056   0.567   0.026   0.743  0.3833  0.6075 -0.4828
  686SOL    HW1 2057   0.559   0.127   0.768 -1.4999  1.6127  0.2680
  686SOL    HW2 2058   0.492   3.115   0.683  0.4442  0.2993 -0.1220
  687SOL     OW 2059   1.376   1.282   2.293  0.4646 -0.4022  0.0279
  687SOL    HW1 2060   1.388   1.362   2.235 -0.4918  1.0702  1.4200
  687SOL    HW2 2061   1.287   1.289   2.341  2.1417 -1.3134  1.0484
  688SOL     OW 2062   1.236   1.819   1.289 -0.0116 -0.4700  0.0425
  688SOL    HW1 2063   1.287   1.768   1.218 -1.9598  1.6985  0.3619
  688SOL    HW2 2064   1.157   1.863   1.247 -1.2924 -0.8046  0.5970
  689SOL     OW 2065   2.048   0.347   1.395  0.1252 -0.0154 -0.3452
  689SOL    HW1 2066   2.047   0.350   1.289  1.1081 -0.0455 -1.2331
  689SOL    HW2 2067   1.971   0.404   1.433  0.7344  1.7744 -1.0190
  690SOL     OW 2068   2.989   1.379   1.169 -0.2489  0.3147  0.4870
  690SOL    HW1 2069   3.049   1.307   1.210 -3.8050  0.0477 -0.5662
  690SOL    HW2 2070   3.000   1.388   1.069  1.4649 -0.0915  0.3566
  691SOL     OW 2071   0.377   2.487   1.016  0.1117 -0.5439 -0.6084
  691SOL    HW1 2072   0.423   2.397   1.012 -0.2595  1.1265  0.9257
  691SOL    HW2 2073   0.379   2.524   0.923 -0.0852 -0.2527 -0.0942
  692SOL     OW 2074   2.248   0.400   1.623  0.5639 -0.1705  0.7706
  692SOL    HW1 2075   2.171   0.354   1.577 -0.5686  0.5012  0.0190
  692SOL    HW2 2076   2.215   0.450   1.710  0.8726  0.5379  3.7054
  693SOL     OW 2077   0.163   1.824   2.037 -0.3427 -0.1262 -0.0569
  693SOL    HW1 2078   0.146   1.724   2.046  0.7920 -0.6240 -0.3895
  693SOL    HW2 2079   0.117   1.872   2.115 -0.0593 -3.1369 -1.5021
  694SOL     OW 2080   1.617   1.468   1.824  0.2282  0.2959  0.5773
  694SOL    HW1 2081   1.680   1.501   1.896 -1.7375  2.5147 -1.4414
  694SOL    HW2 2082   1.522   1.457   1.861 -1.3361 -0.3749  0.4663
  695SOL     OW 2083   0.576   0.834   0.963  0.4601  0.5587  0.0208
  695SOL    HW1 2084   0.536   0.817   0.869 -0.9949 -1.8176  2.6242
  695SOL    HW2 2085   0.647   0.768   0.998  0.2200 -1.9884 -1.3212
  696SOL     OW 2086   1.600   3.023   0.881 -0.5173 -0.3965  0.4586
  696SOL    HW1 2087   1.645   3.080   0.949 -0.3125  2.2283 -5.1795
  696SOL    HW2 2088   1.549   2.944   0.924 -1.6133  1.2145  2.6093
  697SOL     OW 2089   1.145   0.402   1.474  0.2416  0.1254  0.1798
  697SOL    HW1 2090   1.098   0.386   1.563  0.4351 -2.2215  0.4794
  697SOL    HW2 2091   1.163   0.311   1.436 -0.9046  1.7575  1.2053
  698SOL     OW 2092   1.719   1.479   2.076 -0.1041 -0.4149  0.0025
  698SOL    HW1 2093   1.686   1.382   2.091 -0.8526  0.0690  0.0887
  698SOL    HW2 2094   1.743   1.517   2.167 -1.2602 -1.1959  1.1518
  699SOL     OW 2095   2.024   0.818   1.501  0.2020 -0.4484 -0.9776
  699SOL    HW1 2096   2.099   0.827   1.433 -0.2065 -2.5649  2.8660
  699SOL    HW2 2097   1.958   0.896   1.504 -0.2886 -1.7600 -0.3171
  700SOL     OW 2098   0.985   2.276   3.078  0.0449 -0.3908  0.2046
  700SOL    HW1 2099   0.985   2.320   0.044  0.5725 -0.2092 -0.9136
  700SOL    HW2 2100   1.048   2.197   3.069  0.2760  1.0958 -2.0719
  701SOL     OW 2101   2.249   2.469   2.629 -0.0482  0.0791 -0.1784
  701SOL    HW1 2102   2.244   2.554   2.572 -0.6040  3.0205 -3.5386
  701SOL    HW2 2103   2.208   2.482   2.722  0.2905  2.8775 -4.3932
  702SOL     OW 2104   0.853   0.079   1.087  0.1307 -0.0242  0.2552
  702SOL    HW1 2105   0.847   0.178   1.112  2.8038  0.1602  0.6810
  702SOL    HW2 2106   0.949   0.059   1.054  1.1447 -0.8799  1.5852
  703SOL     OW 2107   1.982   0.299   2.398  0.5393  0.4752  0.0042
  703SOL    HW1 2108   2.082   0.307   2.384  0.7559  0.3733  2.5277
  703SOL    HW2 2109   1.950   0.217   2.352 -1.1583  2.7133  1.0378
  704SOL     OW 2110   2.824   2.538   0.524  0.3123  0.2527  0.3000
  704SOL    HW1 2111   2.895   2.585   0.469 -0.2046 -1.7552  0.1420
  704SOL    HW2 2112   2.868   2.473   0.589 -1.3513  0.9374 -0.9454
  705SOL     OW 2113   2.635   0.068   2.145  0.8223  0.6108  0.5012
  705SOL    HW1 2114   2.556   0.135   2.135 -0.5272  2.5332 -0.6107
  705SOL    HW2 2115   2.587   3.098   2.148 -2.8395 -1.6803  1.4953
  706SOL     OW 2116   2.251   2.812   1.499  0.3989 -0.3486 -0.4157
  706SOL    HW1 2117   2.250   2.721   1.547  2.3302  1.7210  0.0083
  706SOL    HW2 2118   2.157   2.858   1.505 -0.0800 -0.2180  5.1872
  707SOL     OW 2119   0.718   2.841   2.334  0.2496  0.2798 -0.3924
  707SOL    HW1 2120   0.620   2.855   2.325  2.2943 -2.4426 -0.3502
  707SOL    HW2 2121   0.771   2.924   2.367 -1.2343 -0.3997  0.3214
  708SOL     OW 2122   2.982   2.343   1.778 -0.4142  0.2082  0.1966
  708SOL    HW1 2123   2.946   2.336   1.679 -2.5296  1.1100 -1.1298
  708SOL    HW2 2124   3.078   2.378   1.788 -0.9847  1.4196  1.1366
  709SOL     OW 2125   1.718   0.300   1.820 -0.2341  0.2114  0.2058
  709SOL    HW1 2126   1.760   0.394   1.830  1.5696  3.4551 -3.0534
  709SOL    HW2 2127   1.621   0.297   1.848  1.2551 -2.4378 -0.1848
  710SOL     OW 2128   1.308   0.065   0.009  0.5080 -0.2644  0.6195
  710SOL    HW1 2129   1.276   0.078   3.034  2.0369  0.1653  0.9331
  710SOL    HW2 2130   1.232   0.011   0.049 -1.6138  0.2731 -1.1305
  711SOL     OW 2131   0.814   1.792   2.455 -0.0519 -0.1296 -0.8622
  711SOL    HW1 2132   0.899   1.812   2.513  1.3573 -0.8597  1.4936
  711SOL    HW2 2133   0.801   1.858   2.377 -3.4039  2.6882 -0.3381
  712SOL     OW 2134   1.032   1.884   2.601 -0.1839  0.3067  0.0805
  712SOL    HW1 2135   1.001   1.958   2.668  2.9406  1.5344  4.1644
  712SOL    HW2 2136   1.083   1.817   2.657 -0.0639  0.9437 -0.5640
  713SOL     OW 2137   1.887   1.154   2.611  0.0910 -0.4582 -0.3242
  713SOL    HW1 2138   1.785   1.139   2.589 -2.5881 -0.9252 -0.4378
  713SOL    HW2 2139   1.914   1.085   2.682  4.7503 -1.7376 -1.6163
  714SOL     OW 2140   1.037   1.764   1.770  0.2826 -0.2005 -0.0761
  714SOL    HW1 2141   0.965   1.764   1.842 -0.2985  1.8181 -3.7339
  714SOL    HW2 2142   1.117   1.813   1.804 -1.3448  1.5510  0.6946
  715SOL     OW 2143   2.106   0.424   3.066  0.6534  0.0875  0.4244
  715SOL    HW1 2144   2.181   0.358   3.089 -0.3906 -0.7867  1.9801
  715SOL    HW2 2145   2.038   0.384   2.999 -0.6333  0.0245  0.8636
  716SOL     OW 2146   2.967   2.612   1.499  0.3816  0.3522  0.0890
  716SOL    HW1 2147   2.890   2.679   1.528 -1.0691 -2.1430 -1.2284
  716SOL    HW2 2148   2.966   2.610   1.398  2.0428 -0.3294  1.2665
  717SOL     OW 2149   2.697   1.115   0.721  0.5934 -0.0414 -0.2822
  717SOL    HW1 2150   2.632   1.107   0.803 -1.8252 -0.1432  0.1687
  717SOL    HW2 2151   2.661   1.068   0.638  0.1901  0.4191 -0.1334
  718SOL     OW 2152   1.221   1.971   1.811 -0.4292 -0.0572 -0.7505
  718SOL    HW1 2153   1.184   2.043   1.745 -0.1117  2.7034  3.3364
  718SOL    HW2 2154   1.266   2.024   1.884  1.4918  3.1961  1.1533
  719SOL     OW 2155   2.374   0.383   2.845  0.3747 -0.7184 -0.2058
  719SOL    HW1 2156   2.292   0.355   2.897 -0.2636 -1.3094  1.4649
  719SOL    HW2 2157   2.442   0.426   2.911 -0.5794  3.0446 -2.9026
  720SOL     OW 2158   0.998   0.349   1.073 -0.3608  0.0926  0.0575
  720SOL    HW1 2159   1.035   0.406   1.148 -2.5057 -0.6294  1.4582
  720SOL    HW2 2160   1.056   0.358   0.989 -3.5243  0.9500  0.6659
  721SOL     OW 2161   2.726   0.781   0.562 -0.2443  0.4015  0.1512
  721SOL    HW1 2162   2.693   0.770   0.463 -0.7763  0.3783  0.2356
  721SOL    HW2 2163   2.825   0.791   0.566  0.2804  1.8765 -2.0048
  722SOL     OW 2164   0.314   2.764   2.544  0.2130 -0.1348  0.0032
  722SOL    HW1 2165   0.345   2.670   2.517 -2.4201 -0.3115 -0.5773
  722SOL    HW2 2166   0.347   2.831   2.475 -1.2561 -1.7055  0.1017
  723SOL     OW 2167   1.730   0.270   0.679  0.8118 -0.1444 -0.2918
  723SOL    HW1 2168   1.803   0.294   0.617 -0.9830  0.0286  0.3537
  723SOL    HW2 2169   1.648   0.326   0.654 -1.0238  0.4563  1.9065
  724SOL     OW 2170   0.859   1.755   1.994  0.1978  0.1008 -0.3406
  724SOL    HW1 2171   0.880   1.719   2.089  2.7480  0.0548 -1.7059
  724SOL    HW2 2172   0.764   1.794   1.997 -0.8924  2.1228  1.1357
  725SOL     OW 2173   1.413   2.921   1.224  0.4948  0.2126 -0.7169
  725SOL    HW1 2174   1.431   2.900   1.323 -0.1160 -0.4701  1.7325
  725SOL    HW2 2175   1.477   2.876   1.158 -1.7695  2.0831 -2.7211
  726SOL     OW 2176   2.312   2.920   0.233 -0.0368 -0.0798  0.1802
  726SOL    HW1 2177   2.313   3.006   0.287 -0.0461 -0.5144 -0.3698
  726SOL    HW2 2178   2.364   2.851   0.282 -0.5258  3.1640 -2.7851
  727SOL     OW 2179   1.491   1.919   0.649  0.3934 -0.2096  0.1189
  727SOL    HW1 2180   1.528   2.012   0.638 -1.1461 -1.1012  1.5006
  727SOL    HW2 2181   1.422   1.886   0.578 -1.3082 -1.2395 -1.9097
  728SOL     OW 2182   2.011   2.788   2.199  0.2258  0.5068  0.3193
  728SOL    HW1 2183   2.043   2.806   2.101  0.6172  1.2160  0.6850
  728SOL    HW2 2184   2.096   2.792   2.256 -1.4059  0.8123 -0.5976
  729SOL     OW 2185   1.822   2.086   1.389  0.0351 -0.3619 -0.0962
  729SOL    HW1 2186   1.730   2.109   1.354 -2.4180  0.9219  1.3237
  729SOL    HW2 2187   1.858   2.007   1.336  1.5444 -0.8611 -0.0504
  730SOL     OW 2188   1.617   0.950   3.106 -0.5133  0.0271  0.3136
  730SOL    HW1 2189   1.640   0.910   0.073 -2.9033  0.6394  2.0059
  730SOL    HW2 2190   1.645   0.894   3.028 -0.0368  1.1281  0.7879
  731SOL     OW 2191   0.761   3.058   1.300  0.0607 -0.3256 -0.5090
  731SOL    HW1 2192   0.788   3.106   1.215  0.4983 -1.6852  1.1068
  731SOL    HW2 2193   0.729   2.964   1.286  0.3390  0.9361  1.1528
  732SOL     OW 2194   1.448   0.273   1.036  0.0735  0.5248  0.0586
  732SOL    HW1 2195   1.394   0.354   1.027 -0.8397 -0.7560 -1.5902
  732SOL    HW2 2196   1.450   0.220   0.948  0.9492  1.3421 -1.4551
  733SOL     OW 2197   0.844   1.247   1.260 -0.3552 -0.7481 -0.1542
  733SOL    HW1 2198   0.883   1.160   1.225 -1.1673  0.5733 -0.5491
  733SOL    HW2 2199   0.781   1.275   1.190  2.3163 -1.2451 -0.6410
  734SOL     OW 2200   2.713   2.720   2.830  0.2267 -0.3167 -0.1398
  734SOL    HW1 2201   2.795   2.766   2.866 -2.7664  2.2962 -2.5718
  734SOL    HW2 2202   2.713   2.620   2.850 -4.3425 -2.8811  2.9598
  735SOL     OW 2203   1.152   2.927   1.182  0.4372 -0.5095 -0.5167
  735SOL    HW1 2204   1.144   3.016   1.132 -2.2479  1.3923 -0.9807
  735SOL    HW2 2205   1.250   2.918   1.208 -1.1151  0.3524 -0.9656
  736SOL     OW 2206   1.794   1.829   0.022 -0.6181  0.6175  1.1953
  736SOL    HW1 2207   1.729   1.906   0.017  0.9127 -2.3570 -2.1802
  736SOL    HW2 2208   1.839   1.829   0.113 -3.4044  0.1201 -1.2314
  737SOL     OW 2209   3.065   2.076   1.487 -0.1991 -0.4544  0.1188
  737SOL    HW1 2210   3.034   2.034   1.401  1.9668 -0.3359  1.7669
  737SOL    HW2 2211   3.033   2.173   1.499 -0.3761 -1.4676  1.0837
  738SOL     OW 2212   1.781   2.389   2.646 -0.3939  0.5747  0.6017
  738SOL    HW1 2213   1.701   2.446   2.674  2.9863 -3.3016 -0.3657
  738SOL    HW2 2214   1.831   2.436   2.571  0.6759  0.1191 -0.6017
  739SOL     OW 2215   1.277   1.999   2.464 -0.4611 -0.4156 -0.0554
  739SOL    HW1 2216   1.362   1.998   2.518 -0.3741 -1.4083 -2.1247
  739SOL    HW2 2217   1.219   1.916   2.477 -2.3703  1.5259 -0.2221
  740SOL     OW 2218   1.216   2.672   0.952  0.1303 -0.2377  0.2746
  740SOL    HW1 2219   1.119   2.711   0.964 -3.9045  3.8240  0.6621
  740SOL    HW2 2220   1.233   2.659   0.854  0.7904  1.5346 -0.9139
  741SOL     OW 2221   0.137   1.187   0.352 -0.7129 -0.2307  0.2831
  741SOL    HW1 2222   0.078   1.178   0.430  0.3652  0.5185 -3.8458
  741SOL    HW2 2223   0.118   1.268   0.293 -0.6445  0.9566  2.5684
  742SOL     OW 2224   0.927   1.671   2.238  0.0007  0.6125 -0.4311
  742SOL    HW1 2225   1.016   1.712   2.209 -2.8378 -1.2375 -0.9291
  742SOL    HW2 2226   0.895   1.706   2.331  2.7972  0.3480  1.9603
  743SOL     OW 2227   0.991   1.011   2.363  0.9334 -0.1688  0.1625
  743SOL    HW1 2228   0.964   0.958   2.443  1.9989 -0.6962 -1.0041
  743SOL    HW2 2229   1.068   0.968   2.317  1.1268  0.6940  0.8415
  744SOL     OW 2230   2.328   3.063   1.593  0.4127 -0.4357 -0.1481
  744SOL    HW1 2231   2.415   3.112   1.581  1.4729 -1.5313  0.2828
  744SOL    HW2 2232   2.324   2.966   1.557 -0.5062 -2.0870  0.0965
  745SOL     OW 2233   1.988   1.342   1.254 -1.0145 -0.3024  0.3355
  745SOL    HW1 2234   1.910   1.387   1.201 -2.0409  1.7283  2.1620
  745SOL    HW2 2235   1.949   1.302   1.340 -2.8159  1.7622 -3.3446
  746SOL     OW 2236   1.990   1.134   0.645 -0.1409 -0.5058  0.2133
  746SOL    HW1 2237   2.075   1.170   0.610 -1.6973  1.2206 -0.9238
  746SOL    HW2 2238   1.994   1.035   0.671 -2.1675 -0.2652 -2.6668
  747SOL     OW 2239   2.205   1.830   0.598  0.3266 -0.1940  0.3497
  747SOL    HW1 2240   2.194   1.740   0.646 -1.9370 -0.5718 -0.3489
  747SOL    HW2 2241   2.118   1.886   0.606 -1.2206  0.1733 -2.5809
  748SOL     OW 2242   0.334   1.886   0.335  0.2759 -0.3913 -0.0994
  748SOL    HW1 2243   0.254   1.906   0.394 -1.7473  0.9381 -1.0859
  748SOL    HW2 2244   0.327   1.789   0.302 -3.8337 -0.4190  0.7522
  749SOL     OW 2245   2.990   2.416   2.844  0.5361  0.0056 -0.1244
  749SOL    HW1 2246   2.903   2.435   2.897  1.4189 -2.7349  0.2907
  749SOL    HW2 2247   3.057   2.488   2.874 -1.8752  0.1005  0.2108
  750SOL     OW 2248   2.378   0.838   0.926  0.2710 -0.2741  0.1365
  750SOL    HW1 2249   2.391   0.741   0.902 -0.4086 -0.8418 -2.1508
  750SOL    HW2 2250   2.300   0.857   0.991 -1.0298 -0.1973  0.5706
  751SOL     OW 2251   2.607   0.030   0.215  0.4850  0.1481 -0.0089
  751SOL    HW1 2252   2.557   3.121   0.130  0.3315 -0.2005 -2.3532
  751SOL    HW2 2253   2.688   3.094   0.232 -0.4024 -0.2258  3.6465
  752SOL     OW 2254   2.373   2.889   0.788 -0.7188  0.1088 -0.1533
  752SOL    HW1 2255   2.337   2.964   0.848  0.9076 -2.0371 -1.2741
  752SOL    HW2 2256   2.313   2.822   0.743  2.1224 -0.2359 -0.1216
  753SOL     OW 2257   1.769   1.581   2.325  0.1700  0.0724 -0.2936
  753SOL    HW1 2258   1.819   1.493   2.353  1.2153 -0.1939  1.6612
  753SOL    HW2 2259   1.835   1.652   2.306 -0.2085 -4.7876  1.4047
  754SOL     OW 2260   2.212   2.414   1.784 -0.1455  0.0881  0.2204
  754SOL    HW1 2261   2.226   2.342   1.716 -2.3846  1.4479  2.1398
  754SOL    HW2 2262   2.134   2.389   1.841 -0.1917 -0.2409 -0.5474
  755SOL     OW 2263   2.709   0.955   1.188 -0.3568  0.0992 -0.0540
  755SOL    HW1 2264   2.704   0.992   1.090 -0.1621  1.3951 -1.1764
  755SOL    HW2 2265   2.677   1.023   1.257  0.1057  1.2182  0.7916
  756SOL     OW 2266   1.119   1.403   2.835  1.3042 -0.8005 -0.6274
  756SOL    HW1 2267   1.081   1.401   2.932  1.8464  1.5587  2.2107
  756SOL    HW2 2268   1.051   1.451   2.778  2.8011  1.2105  0.5828
  757SOL     OW 2269   1.642   2.602   0.854 -0.1588 -0.3718  0.1035
  757SOL    HW1 2270   1.715   2.604   0.782 -4.4042 -3.9905  3.6080
  757SOL    HW2 2271   1.665   2.533   0.929  2.0371 -0.4915  1.7796
  758SOL     OW 2272   0.814   2.446   1.146 -0.1172  0.3058 -0.1861
  758SOL    HW1 2273   0.877   2.507   1.190 -0.5297  0.8246  2.4706
  758SOL    HW2 2274   0.855   2.370   1.090  1.1778 -0.4740  1.7657
  759SOL     OW 2275   2.396   1.341   1.054  0.0586 -0.0577  0.2215
  759SOL    HW1 2276   2.483   1.359   1.103 -1.7799  0.0844  2.3271
  759SOL    HW2 2277   2.328   1.405   1.090  0.1178  0.4290 -4.2606
  760SOL     OW 2278   1.755   1.066   1.850  0.4593 -0.0251 -0.3864
  760SOL    HW1 2279   1.859   1.066   1.854  0.3485 -1.1333 -1.3687
  760SOL    HW2 2280   1.716   1.144   1.797 -1.7715 -2.0429  0.7207
  761SOL     OW 2281   2.077   2.773   0.365  0.3533  0.9018  0.2071
  761SOL    HW1 2282   2.003   2.695   0.363 -0.6697 -0.2539 -1.9446
  761SOL    HW2 2283   2.151   2.757   0.296 -1.3027  0.9972 -0.7184
  762SOL     OW 2284   2.009   1.591   3.027 -0.1081  0.3512 -0.0178
  762SOL    HW1 2285   1.908   1.584   3.053 -2.1968  3.5893  0.6218
  762SOL    HW2 2286   2.026   1.599   2.931 -0.1991  0.9534 -0.6480
  763SOL     OW 2287   0.516   1.516   1.291 -0.0323  0.3452  0.6323
  763SOL    HW1 2288   0.414   1.525   1.319 -3.2150 -3.7286  1.6527
  763SOL    HW2 2289   0.558   1.459   1.359 -3.1383  1.4722 -1.7011
  764SOL     OW 2290   0.023   2.481   0.064 -0.6651 -0.4233 -0.1173
  764SOL    HW1 2291   3.047   2.473   0.083  1.3915 -0.7900  2.5545
  764SOL    HW2 2292   0.042   2.574   0.034 -0.8638 -0.4534  1.6554
  765SOL     OW 2293   0.707   3.062   1.560  0.1041 -0.0738 -0.1164
  765SOL    HW1 2294   0.734   3.113   1.474  0.2796 -0.2373  0.6860
  765SOL    HW2 2295   0.740   3.108   1.643 -1.5499 -3.1098 -1.0642
  766SOL     OW 2296   3.028   2.176   2.114 -0.5651  0.2196 -0.1698
  766SOL    HW1 2297   2.967   2.195   2.194  1.3496 -4.8083  0.3248
  766SOL    HW2 2298   2.980   2.190   2.029 -2.1708 -0.1014  2.4126
  767SOL     OW 2299   2.765   1.101   2.021  0.0566 -0.2414 -0.2547
  767SOL    HW1 2300   2.767   1.056   1.933  0.8405  1.0984  1.1345
  767SOL    HW2 2301   2.817   1.185   2.016  0.4270 -2.4432 -1.5420
  768SOL     OW 2302   0.748   0.273   2.787 -0.2511 -0.2436  0.9663
  768SOL    HW1 2303   0.694   0.276   2.870  3.8332 -1.6584 -0.3993
  768SOL    HW2 2304   0.846   0.289   2.809  0.9903  0.6869  3.3243
  769SOL     OW 2305   2.149   2.652   1.114  0.0062  0.3011  0.3427
  769SOL    HW1 2306   2.243   2.675   1.085 -2.7136  2.2041  4.0177
  769SOL    HW2 2307   2.111   2.726   1.162 -0.7209 -1.1544 -0.0317
  770SOL     OW 2308   2.751   0.154   2.766 -0.6310 -0.4600 -0.2188
  770SOL    HW1 2309   2.709   0.234   2.718 -1.1471  1.1993 -1.5968
  770SOL    HW2 2310   2.840   0.117   2.728  0.4760  1.7955 -1.0033
  771SOL     OW 2311   1.730   2.239   2.036  0.4568 -0.2684  0.3905
  771SOL    HW1 2312   1.707   2.179   1.957 -0.6139 -0.3966 -3.2760
  771SOL    HW2 2313   1.647   2.276   2.083  1.4959 -0.1730  2.3427
  772SOL     OW 2314   1.442   0.293   0.381  0.1905  0.1213 -0.1799
  772SOL    HW1 2315   1.360   0.246   0.426 -2.1504 -1.4799 -0.0319
  772SOL    HW2 2316   1.415   0.316   0.287 -0.2932 -1.5851  1.7028
  773SOL     OW 2317   2.863   0.731   1.880 -0.1129  0.2342  0.4223
  773SOL    HW1 2318   2.861   0.725   1.984  2.5294  0.7438  0.2873
  773SOL    HW2 2319   2.793   0.672   1.835 -2.5074  2.5525  1.1651
  774SOL     OW 2320   0.998   1.157   0.930  0.1320  0.3114  0.3780
  774SOL    HW1 2321   0.938   1.239   0.930  0.8388 -0.5193  1.1526
  774SOL    HW2 2322   0.938   1.078   0.932 -1.3445 -0.0913  1.5753
  775SOL     OW 2323   2.526   3.107   3.087 -0.1048  0.2376  0.5201
  775SOL    HW1 2324   2.428   3.119   3.071  1.3119  0.2762  2.1982
  775SOL    HW2 2325   2.551   3.009   3.076  1.8718 -0.7463  0.4484
  776SOL     OW 2326   2.468   1.408   1.992 -0.3247  0.3000 -0.5247
  776SOL    HW1 2327   2.457   1.353   2.079 -0.1222  0.2253  0.6342
  776SOL    HW2 2328   2.464   1.346   1.910 -0.2549  1.1589  1.6584
  777SOL     OW 2329   0.394   1.232   2.581 -0.0627  0.0826 -0.0084
  777SOL    HW1 2330   0.367   1.262   2.491  0.0596 -3.6687 -0.8726
  777SOL    HW2 2331   0.460   1.156   2.579 -0.6432  4.0104 -0.4793
  778SOL     OW 2332   0.578   0.616   0.144 -0.4013 -0.2568  0.6098
  778SOL    HW1 2333   0.639   0.580   0.072  0.2365  0.2068  0.0623
  778SOL    HW2 2334   0.539   0.701   0.116  1.7610  0.0414  1.0322
  779SOL     OW 2335   0.397   0.442   2.567 -0.0435  0.2021  0.4745
  779SOL    HW1 2336   0.491   0.448   2.600 -0.0095 -3.1951 -0.8426
  779SOL    HW2 2337   0.397   0.365   2.505  1.0578  1.0594 -0.7822
  780SOL     OW 2338   2.292   0.871   2.679 -0.4360 -0.0397  0.9304
  780SOL    HW1 2339   2.330   0.901   2.767 -2.2833 -1.4840  0.2982
  780SOL    HW2 2340   2.305   0.770   2.672  0.8073 -1.9357 -1.0450
  781SOL     OW 2341   2.934   0.988   1.780 -0.0835  0.3419 -0.5844
  781SOL    HW1 2342   2.907   0.893   1.809  1.3174  1.3807 -1.1590
  781SOL    HW2 2343   3.019   1.012   1.834 -0.4141 -0.2701 -0.9407
  782SOL     OW 2344   0.648   1.649   2.602 -0.3983  0.0012 -0.5674
  782SOL    HW1 2345   0.647   1.687   2.697  0.6988 -0.4089 -1.2386
  782SOL    HW2 2346   0.711   1.701   2.542 -0.3650  1.3275  1.2048
  783SOL     OW 2347   0.978   2.732   1.275  0.0051 -0.0481 -0.6963
  783SOL    HW1 2348   1.048   2.806   1.263  0.2197  2.4589 -1.4202
  783SOL    HW2 2349   1.032   2.643   1.287  0.5312  0.3156  1.5407
  784SOL     OW 2350   1.601   0.420   0.103 -0.0063  0.2720  0.4318
  784SOL    HW1 2351   1.658   0.353   0.161  1.6362 -3.1246 -0.5111
  784SOL    HW2 2352   1.658   0.499   0.070 -2.0249  0.6218  1.0602
  785SOL     OW 2353   0.913   0.372   1.964  0.5656 -0.2322  0.1909
  785SOL    HW1 2354   0.974   0.400   1.891 -2.6424 -1.6209  1.0941
  785SOL    HW2 2355   0.894   0.452   2.025  3.2238  0.4572 -0.9429
  786SOL     OW 2356   0.594   1.963   0.320 -0.1175  0.0794 -0.2284
  786SOL    HW1 2357   0.497   1.938   0.340  2.1109  0.8159 -1.6822
  786SOL    HW2 2358   0.601   2.064   0.325 -0.6183 -1.1412  1.9834
  787SOL     OW 2359   1.405   0.964   0.567 -0.5997  0.3988 -0.3920
  787SOL    HW1 2360   1.318   1.002   0.600  0.5516  1.3669  0.3464
  787SOL    HW2 2361   1.454   0.922   0.646  1.0490 -0.2750 -0.0768
  788SOL     OW 2362   2.392   1.563   1.298  0.0888 -0.0491 -0.1641
  788SOL    HW1 2363   2.461   1.486   1.293  1.7219  1.2712  0.4815
  788SOL    HW2 2364   2.385   1.606   1.393  1.1864 -0.1781  0.0597
  789SOL     OW 2365   2.922   1.038   2.241 -0.5552  0.3753 -0.3032
  789SOL    HW1 2366   2.880   1.059   2.151  0.4718 -0.9862  0.9733
  789SOL    HW2 2367   2.952   1.127   2.282  0.6669 -0.0317 -2.4956
  790SOL     OW 2368   0.887   3.056   0.022 -0.7253 -0.3221  0.0858
  790SOL    HW1 2369   0.830   2.973   0.033 -0.3756  0.4700 -0.2067
  790SOL    HW2 2370   0.991   3.038   0.030 -1.4592  3.4534  0.8064
  791SOL     OW 2371   0.392   0.825   3.092 -0.0523 -0.0169  0.3586
  791SOL    HW1 2372   0.331   0.908   3.085 -1.2131 -1.0858  0.7036
  791SOL    HW2 2373   0.411   0.787   2.997  0.9480 -1.3318 -0.7257
  792SOL     OW 2374   1.529   0.670   2.730 -0.0826  0.0485  0.1578
  792SOL    HW1 2375   1.437   0.704   2.708 -1.6054 -2.7664  1.5905
  792SOL    HW2 2376   1.579   0.646   2.644  2.1497 -1.5300  2.9563
  793SOL     OW 2377   2.938   0.404   0.638 -0.1349  0.3984  0.3786
  793SOL    HW1 2378   2.974   0.354   0.553  2.0674 -0.7804  0.9233
  793SOL    HW2 2379   3.003   0.477   0.664  2.0815  1.6669  2.3333
  794SOL     OW 2380   0.299   0.454   1.774 -0.1700  0.1036 -0.5207
  794SOL    HW1 2381   0.366   0.512   1.719  0.9467  0.8845  2.1828
  794SOL    HW2 2382   0.217   0.511   1.798 -0.5794  0.8439  0.0460
  795SOL     OW 2383   0.286   1.421   0.049 -0.1319 -0.3378  0.3739
  795SOL    HW1 2384   0.322   1.509   0.082  0.4422 -0.7838 -1.1134
  795SOL    HW2 2385   0.197   1.403   0.098 -2.9228 -2.9316 -0.6243
  796SOL     OW 2386   0.218   1.056   3.079  0.0651  0.9350  0.2691
  796SOL    HW1 2387   0.137   0.992   3.073 -1.9252 -0.9033  0.5613
  796SOL    HW2 2388   0.185   1.154   3.080 -5.3591  2.5169 -0.1651
  797SOL     OW 2389   1.570   2.451   3.006  0.0637  0.3773  0.3242
  797SOL    HW1 2390   1.490   2.397   3.043 -1.1484  0.2524 -0.1109
  797SOL    HW2 2391   1.550   2.545   2.972 -1.0091  2.4588 -2.9930
  798SOL     OW 2392   3.065   0.543   1.233 -0.3178  0.4577 -0.5640
  798SOL    HW1 2393   3.104   0.498   1.152 -1.5848 -0.4710  0.7677
  798SOL    HW2 2394   0.006   0.548   1.314 -1.0654 -0.0190  1.0986
  799SOL     OW 2395   2.102   0.715   2.009 -0.1742 -0.6043 -0.3984
  799SOL    HW1 2396   2.162   0.778   2.059  1.1747 -1.3039  1.5613
  799SOL    HW2 2397   2.073   0.757   1.922 -0.0879 -0.7558 -1.8653
  800SOL     OW 2398   0.066   1.865   0.431  0.1048 -0.1831 -0.0878
  800SOL    HW1 2399   0.081   1.833   0.525  1.2527  1.0231 -0.3664
  800SOL    HW2 2400   3.096   1.835   0.398  0.9177 -0.4937 -0.5017
  801SOL     OW 2401   1.619   2.159   0.650 -0.3513 -0.0235  0.3825
  801SOL    HW1 2402   1.669   2.195   0.570 -0.7624 -0.5831  0.7598
  801SOL    HW2 2403   1.683   2.123   0.719  1.7540  0.3360 -0.4655
  802SOL     OW 2404   1.380   1.347   2.832 -0.3224 -0.0217 -0.0014
  802SOL    HW1 2405   1.407   1.322   2.934  2.3615 -0.8775  3.8301
  802SOL    HW2 2406   1.285   1.387   2.828 -0.6604 -0.1644 -0.3201
  803SOL     OW 2407   0.136   2.010   1.836  0.4256  0.4718 -0.1341
  803SOL    HW1 2408   0.107   2.091   1.887  2.5475  0.1070  3.1494
  803SOL    HW2 2409   0.138   1.932   1.908  0.2009 -1.5291 -0.1421
  804SOL     OW 2410   1.267   2.488   1.127  0.2454  1.0656 -0.2210
  804SOL    HW1 2411   1.340   2.425   1.093 -0.5724 -0.3374 -1.0755
  804SOL    HW2 2412   1.249   2.553   1.049  1.3875 -1.9590  3.2995
  805SOL     OW 2413   2.353   2.026   2.549 -0.0518 -0.1932 -0.1755
  805SOL    HW1 2414   2.393   2.125   2.530  0.5168  2.8958 -0.2590
  805SOL    HW2 2415   2.253   2.027   2.540  0.5878 -0.9318  0.6620
  806SOL     OW 2416   2.319   3.059   0.984  0.0999  0.0664 -0.1998
  806SOL    HW1 2417   2.330   3.015   1.079  1.5235 -1.8687  0.7993
  806SOL    HW2 2418   2.376   0.015   0.975 -2.0955 -1.6826 -0.9461
  807SOL     OW 2419   0.183   1.213   2.741  0.8258 -0.2779  0.3545
  807SOL    HW1 2420   0.264   1.223   2.682 -1.5495  0.7832  0.2525
  807SOL    HW2 2421   0.094   1.197   2.692  3.5251 -0.4626  0.9788
  808SOL     OW 2422   0.729   1.786   0.767  0.4007 -0.5640 -0.5275
  808SOL    HW1 2423   0.811   1.802   0.828  0.2104 -2.1480  0.7320
  808SOL    HW2 2424   0.752   1.819   0.674  0.0009  1.0373  0.9971
  809SOL     OW 2425   2.600   0.408   2.027 -0.3180 -0.0097 -0.7387
  809SOL    HW1 2426   2.666   0.394   1.949  1.1434  1.0574 -0.1689
  809SOL    HW2 2427   2.644   0.417   2.116  1.1826  1.0939 -2.5021
  810SOL     OW 2428   1.412   0.497   1.458 -0.4252  0.1566  0.1877
  810SOL    HW1 2429   1.322   0.455   1.461  0.9653 -0.6222  0.8514
  810SOL    HW2 2430   1.416   0.572   1.529  2.3504  2.6015  2.5324
  811SOL     OW 2431   1.864   0.104   2.001 -0.6452 -0.3123 -0.3815
  811SOL    HW1 2432   1.937   0.176   2.018  1.5007  2.2545 -0.0473
  811SOL    HW2 2433   1.788   0.137   1.943  1.0780  2.1331  3.4487
  812SOL     OW 2434   1.743   1.663   0.434  0.0324  0.2586 -0.0896
  812SOL    HW1 2435   1.812   1.643   0.360 -0.5776 -0.3934 -0.0366
  812SOL    HW2 2436   1.788   1.719   0.505  0.3052 -1.3616  0.8982
  813SOL     OW 2437   1.270   0.490   1.903 -0.0576 -0.2660  0.5362
  813SOL    HW1 2438   1.199   0.493   1.978 -1.6590  0.6732  1.0599
  813SOL    HW2 2439   1.322   0.575   1.910 -1.1573 -0.8869 -3.4233
  814SOL     OW 2440   0.407   0.094   1.028 -0.5941 -0.5858  0.7292
  814SOL    HW1 2441   0.420   3.120   1.059 -3.2336  1.8440 -0.6797
  814SOL    HW2 2442   0.481   0.154   1.058  2.4172  1.7179  0.0379
  815SOL     OW 2443   0.345   0.194   0.555  0.0417  0.1877  0.0805
  815SOL    HW1 2444   0.327   0.147   0.643 -0.2465  2.5342 -1.4760
  815SOL    HW2 2445   0.439   0.174   0.524 -1.9885 -2.8129  1.7919
  816SOL     OW 2446   2.227   1.692   2.367 -0.0797 -0.1179  0.1222
  816SOL    HW1 2447   2.314   1.640   2.338  1.7813  0.1860 -1.5359
  816SOL    HW2 2448   2.239   1.724   2.464  2.0637 -0.7724  3.4994
  817SOL     OW 2449   1.180   2.903   0.568  0.2184 -0.0322 -0.2257
  817SOL    HW1 2450   1.270   2.930   0.530  0.4359 -0.0587  1.4571
  817SOL    HW2 2451   1.193   2.809   0.615 -1.0246  0.6837  2.5983
  818SOL     OW 2452   1.729   0.765   2.937 -0.2553 -0.2061  0.1362
  818SOL    HW1 2453   1.656   0.721   2.875 -6.3248  0.0027 -2.7642
  818SOL    HW2 2454   1.825   0.753   2.910 -1.3468  0.6754  0.0699
  819SOL     OW 2455   2.309   0.256   3.117  0.0515 -0.8341 -0.7330
  819SOL    HW1 2456   2.407   0.260   0.018  1.7083  2.9785  0.5650
  819SOL    HW2 2457   2.283   0.161   3.087  0.9492  1.1149 -0.4136
  820SOL     OW 2458   1.991   0.681   2.749  0.2971 -0.1007 -0.2563
  820SOL    HW1 2459   2.050   0.680   2.831  0.5366  0.0821 -1.7075
  820SOL    HW2 2460   1.996   0.600   2.691 -1.7498  1.5782  0.7533
  821SOL     OW 2461   2.963   0.337   0.900  0.3708  0.6598 -0.1148
  821SOL    HW1 2462   3.042   0.372   0.948  1.4843  0.8627 -3.2267
  821SOL    HW2 2463   2.960   0.378   0.804 -0.8949 -1.6077 -1.9059
  822SOL     OW 2464   0.790   2.427   2.323 -0.5214  0.2642  0.2877
  822SOL    HW1 2465   0.803   2.336   2.366  0.1258  0.7843 -1.6885
  822SOL    HW2 2466   0.792   2.499   2.391  1.5037 -0.0576  0.2365
  823SOL     OW 2467   0.254   1.479   1.838 -0.4777  0.2954 -0.2058
  823SOL    HW1 2468   0.208   1.509   1.924  0.0924 -0.3423 -2.0233
  823SOL    HW2 2469   0.243   1.377   1.831  0.5125 -2.5296 -1.5951
  824SOL     OW 2470   1.466   2.747   2.488  0.5036  0.4658  0.0907
  824SOL    HW1 2471   1.469   2.650   2.459  1.4616  2.4063 -1.3904
  824SOL    HW2 2472   1.561   2.778   2.510  0.6381 -0.3470  0.1710
  825SOL     OW 2473   1.673   0.734   0.443 -0.4732  0.1358 -0.2843
  825SOL    HW1 2474   1.700   0.786   0.526 -1.7849 -1.5509 -0.2522
  825SOL    HW2 2475   1.746   0.671   0.426 -2.1184  2.8912  3.6652
  826SOL     OW 2476   2.013   0.941   0.128  0.2448 -0.1977 -0.1025
  826SOL    HW1 2477   1.928   0.937   0.183 -1.4058  0.5492  1.4957
  826SOL    HW2 2478   2.060   0.854   0.128 -0.6444  1.0305 -2.5128
  827SOL     OW 2479   0.448   1.524   2.184 -0.6113  0.2294  0.1063
  827SOL    HW1 2480   0.457   1.621   2.208  0.6983 -1.5447 -0.3982
  827SOL    HW2 2481   0.528   1.497   2.126  1.2144  1.6643  1.3782
  828SOL     OW 2482   2.321   1.368   1.602  0.1867 -0.1980  0.7524
  828SOL    HW1 2483   2.346   1.458   1.555 -0.8267  1.7288 -1.4353
  828SOL    HW2 2484   2.387   1.349   1.679  1.6482  1.6014 -1.9286
  829SOL     OW 2485   0.259   1.592   0.625 -0.3291  0.0055 -1.1409
  829SOL    HW1 2486   0.247   1.523   0.697  0.5235 -1.1469 -0.3439
  829SOL    HW2 2487   0.358   1.626   0.626  0.0576  1.9100 -0.3948
  830SOL     OW 2488   1.322   0.856   1.001  0.0289 -0.3401  0.3569
  830SOL    HW1 2489   1.312   0.952   0.970  0.1794 -1.5578 -1.9783
  830SOL    HW2 2490   1.383   0.854   1.082 -0.5383  0.0008 -2.2436
  831SOL     OW 2491   3.070   1.763   0.070  0.1014 -0.1247  0.4462
  831SOL    HW1 2492   3.045   1.785   0.166 -2.0024  0.6237  1.8908
  831SOL    HW2 2493   3.068   1.661   0.054  2.3062 -3.8778 -3.1116
  832SOL     OW 2494   0.837   0.348   0.235  0.0459 -0.2738  0.0081
  832SOL    HW1 2495   0.831   0.395   0.327 -0.3508 -2.0816 -1.2658
  832SOL    HW2 2496   0.819   0.246   0.247  1.3524  1.2418  0.9336
  833SOL     OW 2497   0.802   0.601   2.104  0.0645  0.0639  0.0445
  833SOL    HW1 2498   0.769   0.695   2.084 -1.6697 -0.6801 -3.9566
  833SOL    HW2 2499   0.762   0.575   2.196  0.1395  0.1282  1.6318
  834SOL     OW 2500   0.223   0.409   0.696 -0.2100  0.1223 -0.2566
  834SOL    HW1 2501   0.166   0.395   0.779  0.7564 -0.5811 -1.6207
  834SOL    HW2 2502   0.248   0.320   0.656  1.5912  0.4256  0.2134
  835SOL     OW 2503   2.761   2.979   1.208 -0.2392  0.1052 -0.1475
  835SOL    HW1 2504   2.690   3.023   1.264 -0.8696 -0.3332  0.4328
  835SOL    HW2 2505   2.764   3.022   1.118 -0.8738 -4.1374  0.5380
  836SOL     OW 2506   0.487   2.017   3.003  0.0856  0.3751 -1.5744
  836SOL    HW1 2507   0.492   2.082   2.930  0.1299 -3.3355  2.5955
  836SOL    HW2 2508   0.429   2.048   3.080 -0.0562  1.8218  0.1608
  837SOL     OW 2509   1.481   1.581   2.333 -1.0463 -0.3329  0.3957
  837SOL    HW1 2510   1.465   1.549   2.429 -0.5603  1.3854  1.9126
  837SOL    HW2 2511   1.581   1.605   2.328  1.0693 -0.1657 -1.9407
  838SOL     OW 2512   0.096   0.783   1.680 -0.2383  0.1539  0.0862
  838SOL    HW1 2513   0.152   0.788   1.596 -0.0429 -1.1536  0.5763
  838SOL    HW2 2514   0.080   0.880   1.715 -1.9552 -1.0880 -0.4095
  839SOL     OW 2515   0.843   1.365   0.893 -0.3470 -0.2142  0.0528
  839SOL    HW1 2516   0.754   1.339   0.932  3.7318 -0.3353 -1.2761
  839SOL    HW2 2517   0.849   1.347   0.796  0.3077  0.9633 -0.5220
  840SOL     OW 2518   1.681   3.047   2.112 -0.7335  0.0699  0.6262
  840SOL    HW1 2519   1.729   2.959   2.132 -1.2393 -1.4684  0.9908
  840SOL    HW2 2520   1.737   3.119   2.073  0.6091 -0.2217 -0.0671
  841SOL     OW 2521   0.590   2.227   0.357 -0.4934  0.0533 -0.2509
  841SOL    HW1 2522   0.689   2.256   0.371  0.7528  1.7862  2.7564
  841SOL    HW2 2523   0.546   2.266   0.272  0.1855  0.4030  0.6644
  842SOL     OW 2524   0.562   0.298   0.797 -0.2801 -0.2639 -0.2488
  842SOL    HW1 2525   0.494   0.304   0.870  1.7315  0.9621 -1.2719
  842SOL    HW2 2526   0.649   0.321   0.843 -1.4911  2.8344  1.7708
  843SOL     OW 2527   0.757   1.029   2.175 -0.2082  0.1678  0.1643
  843SOL    HW1 2528   0.668   1.017   2.228 -1.4046 -0.0727  3.7249
  843SOL    HW2 2529   0.838   1.034   2.238  3.8936  1.1941  1.4071
  844SOL     OW 2530   1.403   2.146   3.006 -0.5824 -0.7073  0.1903
  844SOL    HW1 2531   1.434   2.186   2.916  0.9016 -0.3255 -0.6620
  844SOL    HW2 2532   1.377   2.221   3.070 -0.6039  1.4583 -0.7464
  845SOL     OW 2533   2.296   2.736   2.520  0.2986  0.7629 -0.3478
  845SOL    HW1 2534   2.292   2.795   2.438 -1.2037 -0.2635 -0.7958
  845SOL    HW2 2535   2.389   2.731   2.561 -2.8063 -0.4496  2.1854
  846SOL     OW 2536   1.934   1.867   2.897  0.3642  0.7481 -0.4186
  846SOL    HW1 2537   1.853   1.875   2.836  0.2991  2.1329 -1.6957
  846SOL    HW2 2538   1.906   1.854   2.992 -0.1333  2.3430 -0.5300
  847SOL     OW 2539   2.268   3.115   3.010  0.2165 -0.0914  0.0697
  847SOL    HW1 2540   2.184   3.054   3.015  0.0454 -1.0600  0.3497
  847SOL    HW2 2541   2.286   0.028   2.918 -3.2555  1.3334 -0.3527
  848SOL     OW 2542   0.337   0.582   0.531  0.0162  0.3046 -0.6379
  848SOL    HW1 2543   0.343   0.531   0.444  0.8177  0.4441  0.7966
  848SOL    HW2 2544   0.289   0.524   0.603  2.0214  3.8120 -2.2938
  849SOL     OW 2545   1.430   2.833   1.520 -0.0453  0.9014 -0.1041
  849SOL    HW1 2546   1.482   2.920   1.535  3.7050 -0.5601  1.0198
  849SOL    HW2 2547   1.400   2.789   1.607  3.0939  0.3884 -2.1859
  850SOL     OW 2548   0.353   1.632   0.191 -0.4395  0.6340  0.2608
  850SOL    HW1 2549   0.346   1.691   0.108  0.5126  0.4257  0.6360
  850SOL    HW2 2550   0.440   1.576   0.182  0.0793  0.1006 -0.3347
  851SOL     OW 2551   0.142   0.947   0.669  0.3671  0.0300 -0.7920
  851SOL    HW1 2552   0.181   0.929   0.581 -1.5148  0.7460  2.8811
  851SOL    HW2 2553   0.074   1.019   0.665  0.5165 -1.6184  1.1387
  852SOL     OW 2554   1.465   2.343   1.494 -0.3393  0.3052 -0.2854
  852SOL    HW1 2555   1.513   2.348   1.586 -0.2926 -1.5716 -0.4513
  852SOL    HW2 2556   1.456   2.436   1.455 -0.4945 -2.7588  0.9448
  853SOL     OW 2557   0.048   1.408   0.187  0.0495 -0.4406 -0.1543
  853SOL    HW1 2558   3.075   1.383   0.175  0.9040 -1.7546 -1.0424
  853SOL    HW2 2559   0.059   1.487   0.245  0.2619 -2.5244 -1.5479
  854SOL     OW 2560   1.583   1.226   2.101  0.4506 -0.0665  0.6821
  854SOL    HW1 2561   1.500   1.223   2.165 -2.9228  1.4771  1.9431
  854SOL    HW2 2562   1.561   1.215   2.000 -0.3996  1.9016  0.2538
  855SOL     OW 2563   0.587   2.391   2.864 -0.0983 -0.7098  0.3747
  855SOL    HW1 2564   0.490   2.360   2.875  1.1946 -1.2849  0.9667
  855SOL    HW2 2565   0.634   2.424   2.950  0.7925  1.5034  0.6303
  856SOL     OW 2566   0.029   0.541   1.808  0.1386 -0.6946 -0.5273
  856SOL    HW1 2567   0.030   0.472   1.736 -0.1809  2.8849  1.1786
  856SOL    HW2 2568   0.060   0.630   1.769  1.0540 -0.5326  1.5993
  857SOL     OW 2569   0.851   1.203   1.982  0.1156  0.2645  0.0372
  857SOL    HW1 2570   0.806   1.133   2.039 -0.0023  0.5508  0.3656
  857SOL    HW2 2571   0.868   1.281   2.044  0.9323 -2.9100  1.2602
  858SOL     OW 2572   0.361   1.302   2.326  0.5907  0.1888  0.1700
  858SOL    HW1 2573   0.384   1.382   2.273 -2.7032  0.7740 -1.2719
  858SOL    HW2 2574   0.403   1.220   2.284 -0.2698  1.6068  0.2653
  859SOL     OW 2575   2.719   3.063   0.950  0.5912  0.5652  0.2082
  859SOL    HW1 2576   2.641   0.002   0.972 -1.1441 -0.7788  0.3860
  859SOL    HW2 2577   2.801   3.112   0.909 -1.0108  1.0407 -0.1108
  860SOL     OW 2578   2.142   2.878   0.021  0.2790  0.4352 -0.1689
  860SOL    HW1 2579   2.204   2.896   0.098 -1.9295 -0.8036 -3.3937
  860SOL    HW2 2580   2.182   2.806   3.083 -0.3443  0.5287  1.0600
  861SOL     OW 2581   0.479   0.430   0.322 -0.5181 -0.2575 -0.0861
  861SOL    HW1 2582   0.532   0.493   0.263  0.0472 -1.8105  1.7978
  861SOL    HW2 2583   0.532   0.344   0.347  0.7095 -1.2358  2.7752
  862SOL     OW 2584   1.438   0.278   1.854 -0.4631 -0.2283  0.0285
  862SOL    HW1 2585   1.389   0.197   1.901 -3.5711 -0.4222 -0.6253
  862SOL    HW2 2586   1.387   0.365   1.878  0.0954  0.9144 -3.4476
  863SOL     OW 2587   2.732   2.314   1.332 -0.0793  0.0384 -0.0875
  863SOL    HW1 2588   2.632   2.320   1.310  0.7332  3.3899  0.6566
  863SOL    HW2 2589   2.790   2.284   1.258  0.3766 -2.3900 -1.4254
  864SOL     OW 2590   2.314   2.901   2.281  0.2214  0.0095 -0.2038
  864SOL    HW1 2591   2.267   2.988   2.314 -3.2383 -1.4643 -0.7588
  864SOL    HW2 2592   2.412   2.930   2.266  0.0906  0.5789 -0.5737
  865SOL     OW 2593   1.083   0.369   1.728 -0.4971  0.2145  0.0364
  865SOL    HW1 2594   1.095   0.266   1.743 -2.0547 -1.9682  2.0272
  865SOL    HW2 2595   1.170   0.418   1.755  1.3596  0.1465 -2.2150
  866SOL     OW 2596   1.994   2.867   1.188  0.8907 -0.0197 -0.4059
  866SOL    HW1 2597   2.025   2.942   1.124 -0.3362 -0.6914  1.9046
  866SOL    HW2 2598   2.000   2.893   1.289 -2.2003  0.8842  1.0364
  867SOL     OW 2599   2.577   2.484   0.637  0.0241  0.2328 -0.0589
  867SOL    HW1 2600   2.593   2.482   0.735 -0.3587 -2.8020 -2.2800
  867SOL    HW2 2601   2.668   2.505   0.598 -1.1688  0.2343 -0.3637
  868SOL     OW 2602   0.714   1.934   1.340 -0.3294 -0.2503 -0.3012
  868SOL    HW1 2603   0.779   1.939   1.418  1.1674 -2.2113 -2.3356
  868SOL    HW2 2604   0.652   2.012   1.349  0.9941 -0.2158  0.1861
  869SOL     OW 2605   2.445   2.479   3.021 -0.3991  0.2892  0.5696
  869SOL    HW1 2606   2.536   2.467   2.968  2.3434 -0.5050  0.0418
  869SOL    HW2 2607   2.470   2.508   3.113 -2.1222 -0.6528 -2.4433
  870SOL     OW 2608   2.241   1.817   1.085 -0.1603  0.0091  0.2374
  870SOL    HW1 2609   2.324   1.812   1.026 -0.5034  0.8459 -1.2131
  870SOL    HW2 2610   2.201   1.728   1.102 -0.7182  0.7786 -0.0530
  871SOL     OW 2611   0.224   1.649   1.625 -0.3654 -0.7088 -0.0036
  871SOL    HW1 2612   0.146   1.708   1.651 -0.2115 -2.4868  2.3029
  871SOL    HW2 2613   0.242   1.583   1.701 -2.0482 -1.3004  0.6186
  872SOL     OW 2614   0.526   1.184   2.022 -0.1520  0.2788  0.2639
  872SOL    HW1 2615   0.560   1.279   2.008  0.0478  3.0937 -0.4180
  872SOL    HW2 2616   0.551   1.138   2.110 -0.0327 -0.1002  0.9814
  873SOL     OW 2617   1.090   2.435   1.775  0.6250  0.1590 -0.5363
  873SOL    HW1 2618   1.047   2.360   1.827 -1.7364 -0.9169  1.1079
  873SOL    HW2 2619   1.035   2.455   1.692  1.0345  0.4649 -1.0049
  874SOL     OW 2620   1.268   1.022   1.973  0.4600  0.5957  0.3967
  874SOL    HW1 2621   1.194   1.033   1.907 -1.2515 -1.4070 -0.7540
  874SOL    HW2 2622   1.227   1.009   2.063 -2.3560 -0.6680  3.9716
  875SOL     OW 2623   2.719   2.840   0.802 -0.0799 -0.1240 -0.2428
  875SOL    HW1 2624   2.739   2.753   0.848  4.1836 -0.4692 -0.9924
  875SOL    HW2 2625   2.733   2.916   0.871 -1.9657 -1.6059  3.3362
  876SOL     OW 2626   0.792   1.157   0.412  0.2499  0.1104  0.2754
  876SOL    HW1 2627   0.841   1.133   0.327  0.4860  0.1543 -1.5957
  876SOL    HW2 2628   0.711   1.212   0.386  1.3418  0.8529 -1.4235
  877SOL     OW 2629   3.013   0.108   1.313  0.1155 -0.6469 -0.4944
  877SOL    HW1 2630   3.062   0.090   1.228  0.3387  0.6329 -0.6954
  877SOL    HW2 2631   3.072   0.132   1.393  0.0597 -1.3314  1.1235
  878SOL     OW 2632   2.514   1.640   0.303  0.5868  0.2521  0.0832
  878SOL    HW1 2633   2.547   1.566   0.362  1.5229 -1.1715  1.1943
  878SOL    HW2 2634   2.466   1.716   0.353 -0.9592  1.0752  0.2460
  879SOL     OW 2635   2.625   1.858   1.335 -0.3957  0.0241  0.5092
  879SOL    HW1 2636   2.542   1.799   1.342  2.2720 -0.8328 -0.2124
  879SOL    HW2 2637   2.611   1.925   1.262 -1.0093 -1.8096  0.4956
  880SOL     OW 2638   0.261   2.627   0.799  0.0632 -0.0388 -0.1739
  880SOL    HW1 2639   0.185   2.673   0.852  0.5749  0.1088 -0.6150
  880SOL    HW2 2640   0.337   2.696   0.800  0.0624 -0.2038 -0.6696
  881SOL     OW 2641   1.269   1.137   0.936 -0.4078  0.4440  0.0864
  881SOL    HW1 2642   1.308   1.229   0.918 -1.9793  2.8500  1.1943
  881SOL    HW2 2643   1.165   1.138   0.937 -0.2188 -1.7145 -0.1694
  882SOL     OW 2644   2.665   1.011   2.770  0.3073 -0.1438 -0.1180
  882SOL    HW1 2645   2.676   1.085   2.700  2.1360  1.3162  1.1447
  882SOL    HW2 2646   2.708   0.923   2.750 -0.2497  0.6524  1.9194
  883SOL     OW 2647   1.131   3.027   1.610  1.0427  0.1487 -0.7256
  883SOL    HW1 2648   1.054   2.965   1.581 -1.8246 -0.6648 -0.1607
  883SOL    HW2 2649   1.223   2.977   1.599  5.0168 -1.0167 -0.3419
  884SOL     OW 2650   2.957   0.076   0.889 -0.3833  0.6561 -0.2877
  884SOL    HW1 2651   2.990   0.053   0.795  2.8990  0.4022 -0.5946
  884SOL    HW2 2652   2.942   0.180   0.899  0.7190  3.1148  3.0799
  885SOL     OW 2653   1.176   0.820   1.317  0.5248 -0.2853 -0.1666
  885SOL    HW1 2654   1.193   0.809   1.418 -0.6511  0.6987  2.3703
  885SOL    HW2 2655   1.255   0.875   1.283 -0.0737  2.4571  3.2028
  886SOL     OW 2656   1.657   0.995   2.745 -0.2560 -0.8865  0.4343
  886SOL    HW1 2657   1.592   0.919   2.759  1.8228  1.0583 -0.2058
  886SOL    HW2 2658   1.751   0.964   2.776  0.4684  0.5509 -0.9035
  887SOL     OW 2659   1.601   0.608   1.070  0.3914  0.3316  0.0573
  887SOL    HW1 2660   1.624   0.586   1.169 -1.4621  0.2257  0.9396
  887SOL    HW2 2661   1.669   0.568   1.006 -1.5649 -1.3732 -2.5519
  888SOL     OW 2662   2.083   1.680   1.869  0.5621  0.0917 -0.4919
  888SOL    HW1 2663   2.032   1.593   1.886 -1.6434  1.2462 -0.7159
  888SOL    HW2 2664   2.185   1.685   1.893  2.3774  1.0583  1.9005
  889SOL     OW 2665   2.376   2.198   0.757  0.6218  0.1998  0.5853
  889SOL    HW1 2666   2.397   2.299   0.752  1.6104 -0.7189 -2.7570
  889SOL    HW2 2667   2.308   2.173   0.833  0.5517  3.2764  1.0258
  890SOL     OW 2668   1.132   1.941   0.752 -0.0740  0.6205 -0.0064
  890SOL    HW1 2669   1.224   1.915   0.782  0.1166  0.8050  1.8333
  890SOL    HW2 2670   1.064   1.892   0.804 -2.1145 -1.1989 -1.5760
  891SOL     OW 2671   2.539   0.580   2.462  0.0605 -0.1021 -0.0808
  891SOL    HW1 2672   2.633   0.574   2.421  1.6577 -0.2861  0.7240
  891SOL    HW2 2673   2.470   0.569   2.386 -0.8144 -1.2406  0.7989
  892SOL     OW 2674   1.309   0.407   2.402  0.2465  0.3055  0.1924
  892SOL    HW1 2675   1.384   0.380   2.464 -2.7890 -1.1280 -3.5167
  892SOL    HW2 2676   1.244   0.462   2.453  0.6113 -4.5739 -1.2654
  893SOL     OW 2677   1.659   0.514   1.332 -0.5066  0.2714  0.1206
  893SOL    HW1 2678   1.724   0.536   1.410 -0.1090  0.9730 -0.5153
  893SOL    HW2 2679   1.568   0.492   1.372 -1.3723 -1.9650  2.1624
  894SOL     OW 2680   2.663   0.393   0.597  0.4229  0.0227 -0.3132
  894SOL    HW1 2681   2.631   0.311   0.651  2.7783 -3.2276  1.0158
  894SOL    HW2 2682   2.763   0.407   0.610 -0.8987  2.1177  0.3027
  895SOL     OW 2683   2.094   2.547   2.832 -0.0860 -0.2772 -0.1546
  895SOL    HW1 2684   2.092   2.636   2.784  0.5763  1.9350  3.2632
  895SOL    HW2 2685   2.025   2.550   2.904  2.0052  1.6919 -0.2602
  896SOL     OW 2686   1.713   2.830   1.619  0.1310  0.0358 -0.2880
  896SOL    HW1 2687   1.673   2.915   1.590 -1.0877 -3.0743  2.2881
  896SOL    HW2 2688   1.684   2.757   1.555 -0.3621 -1.9944 -0.0973
  897SOL     OW 2689   0.366   2.094   2.009 -0.0471  0.3113 -0.5695
  897SOL    HW1 2690   0.387   2.042   1.924 -0.3237 -1.0943 -0.8911
  897SOL    HW2 2691   0.275   2.142   2.003 -0.2856 -0.2876  0.0797
  898SOL     OW 2692   2.235   1.849   2.145 -0.3232  0.9014 -0.0977
  898SOL    HW1 2693   2.258   1.771   2.077  0.4244  0.6736  0.7856
  898SOL    HW2 2694   2.230   1.811   2.244  2.0783  0.6548  3.2885
  899SOL     OW 2695   1.796   2.263   0.467 -0.2038 -0.2645  0.1831
  899SOL    HW1 2696   1.884   2.306   0.497 -0.5639 -3.0844  0.8706
  899SOL    HW2 2697   1.812   2.226   0.375 -0.3243 -1.3051  0.8616
  900SOL     OW 2698   1.074   0.512   0.230  0.3860 -0.1197 -0.0642
  900SOL    HW1 2699   1.043   0.600   0.264  2.7718 -0.0071 -3.3165
  900SOL    HW2 2700   1.000   0.442   0.218  0.8588 -1.3230  1.1363
  901SOL     OW 2701   1.079   2.031   2.184 -0.4922 -0.2778  0.0028
  901SOL    HW1 2702   1.004   1.962   2.173  0.2596 -0.6639 -0.0500
  901SOL    HW2 2703   1.047   2.112   2.241 -1.0570 -0.6893  1.9716
  902SOL     OW 2704   2.612   0.438   3.004  0.3076 -0.3476  0.6371
  902SOL    HW1 2705   2.709   0.434   2.981 -1.6763  1.8639  0.7641
  902SOL    HW2 2706   2.591   0.393   3.094  1.4512  0.7385 -1.5058
  903SOL     OW 2707   1.900   0.815   2.429  0.5927 -0.1894 -0.2474
  903SOL    HW1 2708   1.890   0.828   2.323 -2.4711 -0.0009 -0.9701
  903SOL    HW2 2709   1.984   0.835   2.476 -1.3899 -1.6202  0.8277
  904SOL     OW 2710   1.409   0.910   2.364  0.1102 -0.4305 -0.4076
  904SOL    HW1 2711   1.457   0.988   2.405 -1.6451 -3.3082  0.6517
  904SOL    HW2 2712   1.478   0.844   2.324  2.5123  3.6961  1.2378
  905SOL     OW 2713   2.151   3.075   1.785  0.2345 -0.1993  0.1477
  905SOL    HW1 2714   2.215   3.039   1.715 -2.5514  1.0146  0.7258
  905SOL    HW2 2715   2.067   3.110   1.742  0.9715 -0.1416  2.3518
  906SOL     OW 2716   2.042   2.110   0.418 -0.1827 -0.2848 -0.1324
  906SOL    HW1 2717   2.144   2.108   0.427 -2.9807 -1.1186 -3.4754
  906SOL    HW2 2718   1.999   2.115   0.507 -0.3745 -1.1539  1.8629
  907SOL     OW 2719   1.230   2.668   0.666 -0.3174  0.5596  0.2374
  907SOL    HW1 2720   1.313   2.627   0.613  0.4470 -0.8031  1.9630
  907SOL    HW2 2721   1.149   2.605   0.654  2.3507 -0.1631 -0.7064
  908SOL     OW 2722   1.632   2.158   2.614 -0.0356 -0.3423 -0.0238
  908SOL    HW1 2723   1.690   2.245   2.627  1.2024  3.0827 -0.2505
  908SOL    HW2 2724   1.637   2.129   2.515 -0.3174  0.2386 -2.3782
  909SOL     OW 2725   2.245   0.506   1.934 -0.8609  0.0750  0.2577
  909SOL    HW1 2726   2.184   0.578   1.978  0.6741 -0.2288 -1.0059
  909SOL    HW2 2727   2.321   0.556   1.884  0.4885 -1.4204  3.7703
  910SOL     OW 2728   1.385   0.353   3.096 -0.0933 -0.2276 -0.1946
  910SOL    HW1 2729   1.484   0.375   3.116 -0.0208  0.3951 -1.4860
  910SOL    HW2 2730   1.355   0.269   0.023 -2.7906  1.3462  2.0041
  911SOL     OW 2731   3.049   0.948   3.085 -0.1165 -0.4919 -0.1374
  911SOL    HW1 2732   2.962   1.002   3.087 -0.5878  3.4732  1.0601
  911SOL    HW2 2733   3.061   0.895   0.050 -2.5249 -0.1611 -0.2140
  912SOL     OW 2734   0.133   2.703   0.530  0.4807 -0.1921 -0.7247
  912SOL    HW1 2735   0.205   2.733   0.464  1.3184  0.2282  0.9373
  912SOL    HW2 2736   0.178   2.665   0.616 -4.5503  1.5608 -0.1668
  913SOL     OW 2737   2.812   2.123   2.509 -0.7716 -0.0725  0.1579
  913SOL    HW1 2738   2.816   2.150   2.410  2.2499 -1.3436 -2.1462
  913SOL    HW2 2739   2.903   2.111   2.551 -0.3819  0.7195 -2.9128
  914SOL     OW 2740   1.711   1.775   1.028  0.2245  0.0218 -0.0874
  914SOL    HW1 2741   1.649   1.706   0.986 -0.8864  1.2586 -0.4073
  914SOL    HW2 2742   1.656   1.851   1.071 -0.1116  2.2460 -1.3817
  915SOL     OW 2743   0.258   2.859   2.097  0.1535  0.6264 -0.0227
  915SOL    HW1 2744   0.273   2.782   2.034 -0.5661  2.5280  0.9088
  915SOL    HW2 2745   0.162   2.865   2.125  1.8657  0.2983  4.1904
  916SOL     OW 2746   0.843   0.099   1.735 -0.1122 -0.0009 -0.2836
  916SOL    HW1 2747   0.941   0.105   1.706 -1.1898 -2.7860 -0.2591
  916SOL    HW2 2748   0.800   0.188   1.703  0.9662  0.1898 -1.7196
  917SOL     OW 2749   2.626   0.780   0.313  0.1443 -0.5361 -0.0326
  917SOL    HW1 2750   2.665   0.805   0.219 -0.1751  1.1980 -0.5216
  917SOL    HW2 2751   2.525   0.756   0.311 -2.4710 -0.6464 -0.6175
  918SOL     OW 2752   1.755   2.268   3.114  0.3932  0.5023  0.2953
  918SOL    HW1 2753   1.680   2.326   3.075 -1.5478  3.4292 -0.3991
  918SOL    HW2 2754   1.732   2.174   0.016  1.5454  2.5194 -0.4251
  919SOL     OW 2755   1.772   2.689   1.159  0.1596  0.1169 -0.5782
  919SOL    HW1 2756   1.846   2.752   1.192 -0.0884  0.9466 -1.0340
  919SOL    HW2 2757   1.741   2.718   1.071 -1.2288 -1.1705 -2.1692
  920SOL     OW 2758   1.476   0.361   2.618 -0.6554  0.0631  0.4389
  920SOL    HW1 2759   1.439   0.407   2.703  1.9741 -0.5036  1.3943
  920SOL    HW2 2760   1.575   0.356   2.628 -0.1029 -0.6679  1.4062
  921SOL     OW 2761   3.028   0.934   2.814  0.5392 -0.5818 -0.6196
  921SOL    HW1 2762   3.011   1.018   2.762  1.4278 -1.8386  1.6877
  921SOL    HW2 2763   3.044   0.951   2.919  0.7184 -0.5190  0.8325
  922SOL     OW 2764   0.192   2.089   1.094  0.1399 -0.1411 -0.5964
  922SOL    HW1 2765   0.221   2.055   1.185  1.1007 -0.2352  1.5768
  922SOL    HW2 2766   0.144   2.179   1.106 -0.9780  0.9094  0.6945
  923SOL     OW 2767   0.489   1.662   1.820 -0.7269 -0.1445 -0.7840
  923SOL    HW1 2768   0.455   1.703   1.732 -0.6027  0.0972  0.5742
  923SOL    HW2 2769   0.430   1.579   1.852 -1.9640 -2.3517 -0.8319
  924SOL     OW 2770   1.653   2.827   2.782  0.4059 -0.1782  0.3332
  924SOL    HW1 2771   1.553   2.825   2.794 -0.6150 -1.7291 -1.5454
  924SOL    HW2 2772   1.701   2.883   2.854  3.1301 -0.1581 -0.2131
  925SOL     OW 2773   2.704   1.586   0.897  0.2214  0.6618  0.1599
  925SOL    HW1 2774   2.697   1.493   0.855  3.1878 -3.4995 -1.5622
  925SOL    HW2 2775   2.750   1.577   0.988  1.6609 -3.4116  0.1823
  926SOL     OW 2776   2.165   0.889   1.091  0.0201 -0.2986  0.2927
  926SOL    HW1 2777   2.207   0.888   1.181  0.7458  0.6173 -2.0151
  926SOL    HW2 2778   2.120   0.983   1.083  2.8802  3.1522  0.1416
  927SOL     OW 2779   2.102   0.087   1.485  0.0687 -0.9502  0.2372
  927SOL    HW1 2780   2.100   0.180   1.450 -0.6388 -1.8446  0.2120
  927SOL    HW2 2781   2.195   0.056   1.515 -1.0293  3.9061  2.9373
  928SOL     OW 2782   0.122   1.028   2.289  1.0408  0.0746  0.2663
  928SOL    HW1 2783   0.079   0.953   2.232 -0.5770  1.0263  0.0369
  928SOL    HW2 2784   0.105   1.122   2.247  1.4707  1.2177 -1.0425
  929SOL     OW 2785   2.409   0.894   1.587  0.0905 -0.3769  0.1711
  929SOL    HW1 2786   2.385   0.992   1.572  0.4105  0.7306 -1.5697
  929SOL    HW2 2787   2.502   0.863   1.547 -0.6769 -1.8966 -2.0454
  930SOL     OW 2788   2.590   2.721   2.094 -0.1197  0.3934  0.1418
  930SOL    HW1 2789   2.653   2.761   2.024 -1.9305  3.1765  0.4510
  930SOL    HW2 2790   2.514   2.670   2.050 -1.4741 -1.4526  0.4021
  931SOL     OW 2791   1.887   1.257   1.497 -0.2122 -0.2937 -0.4025
  931SOL    HW1 2792   1.798   1.254   1.549 -1.0617  1.3992  1.6900
  931SOL    HW2 2793   1.950   1.324   1.543 -1.1340 -1.0357 -1.8848
  932SOL     OW 2794   0.587   0.791   1.731  0.0315  0.1422  0.0060
  932SOL    HW1 2795   0.553   0.888   1.720  2.5486  1.1493  0.6055
  932SOL    HW2 2796   0.632   0.785   1.825 -0.0924 -0.5660 -0.3286
  933SOL     OW 2797   2.588   2.168   1.725  0.0858 -0.0810 -0.1828
  933SOL    HW1 2798   2.615   2.119   1.643 -1.4070  1.1580  0.8197
  933SOL    HW2 2799   2.654   2.151   1.802  3.2208  0.9729  1.8991
  934SOL     OW 2800   0.513   1.996   1.796  0.5646 -0.7658 -0.3502
  934SOL    HW1 2801   0.569   1.946   1.862  3.7203  1.4768 -1.8827
  934SOL    HW2 2802   0.493   1.941   1.716  0.9092  1.1568  0.5753
  935SOL     OW 2803   3.091   1.339   1.700 -0.2615  0.0758 -0.0302
  935SOL    HW1 2804   3.107   1.435   1.692 -0.5482 -3.1077  2.4368
  935SOL    HW2 2805   3.063   1.308   1.794 -1.1328 -0.9557  0.2420
  936SOL     OW 2806   3.061   0.963   1.415 -0.2595 -0.3187  0.3001
  936SOL    HW1 2807   3.034   0.906   1.332 -0.9660 -1.2261 -2.4384
  936SOL    HW2 2808   3.025   0.922   1.498  1.2865  3.2073 -1.0842
  937SOL     OW 2809   1.860   0.580   1.516  0.5877  0.2785 -0.0327
  937SOL    HW1 2810   1.938   0.649   1.507 -1.0715  1.4395 -1.3067
  937SOL    HW2 2811   1.843   0.561   1.611 -1.3297 -0.0335 -1.4430
  938SOL     OW 2812   0.721   2.851   3.122 -0.3227  0.3502 -0.1431
  938SOL    HW1 2813   0.656   2.887   3.051  0.6869 -1.0046  0.2735
  938SOL    HW2 2814   0.665   2.794   0.059 -0.5106 -2.1511  0.2249
  939SOL     OW 2815   3.041   2.031   2.623 -0.2741 -0.0577  1.0023
  939SOL    HW1 2816   3.053   1.930   2.628 -1.6982  1.0458  1.5072
  939SOL    HW2 2817   2.991   2.060   2.707 -1.4673 -0.8431 -2.5665
  940SOL     OW 2818   1.379   1.856   0.212  0.1168  0.1755 -0.0255
  940SOL    HW1 2819   1.466   1.806   0.197 -2.2554 -0.1717  0.0825
  940SOL    HW2 2820   1.303   1.830   0.144 -0.6827  0.7154  0.8809
  941SOL     OW 2821   2.504   2.528   0.150  0.7363 -0.2388  0.1751
  941SOL    HW1 2822   2.494   2.617   0.199 -1.5493  3.0011  0.7486
  941SOL    HW2 2823   2.547   2.455   0.203  0.0456 -1.2164 -0.0152
  942SOL     OW 2824   1.738   2.122   0.946 -0.5173  0.0264 -0.3651
  942SOL    HW1 2825   1.807   2.054   0.976  3.2060 -0.8284  0.5264
  942SOL    HW2 2826   1.657   2.109   1.010  0.7808 -1.9444 -0.2249
  943SOL     OW 2827   2.002   0.789   1.777  0.4960 -0.6189  0.2123
  943SOL    HW1 2828   2.007   0.795   1.674  0.0096  0.4039 -2.4934
  943SOL    HW2 2829   2.004   0.881   1.825  0.7795  0.6000  0.6658
  944SOL     OW 2830   1.187   0.885   2.208  0.0712  0.1787 -0.9151
  944SOL    HW1 2831   1.273   0.902   2.261  0.9574  0.6207  1.5164
  944SOL    HW2 2832   1.169   0.784   2.190  0.1645 -0.3082 -0.8088
  945SOL     OW 2833   2.343   2.579   1.589  0.3530 -0.4555  0.3517
  945SOL    HW1 2834   2.349   2.522   1.508  0.2308  1.1617  0.3684
  945SOL    HW2 2835   2.306   2.537   1.672  0.7670 -1.5584 -0.9404
  946SOL     OW 2836   0.407   1.126   0.279 -0.6375 -0.0613 -0.2055
  946SOL    HW1 2837   0.309   1.160   0.298 -1.8131 -0.3091  0.3988
  946SOL    HW2 2838   0.448   1.070   0.355  1.5359  0.2208  1.9038
  947SOL     OW 2839   1.746   2.451   1.055  0.2996  0.2465 -0.3646
  947SOL    HW1 2840   1.759   2.538   1.106  1.2944 -0.1389 -1.1331
  947SOL    HW2 2841   1.837   2.400   1.065 -0.2974 -1.6035 -0.9708
  948SOL     OW 2842   0.364   1.605   0.947  0.3191  0.5667  0.8624
  948SOL    HW1 2843   0.337   1.615   1.045 -0.2322 -2.2499  0.6470
  948SOL    HW2 2844   0.323   1.518   0.911 -1.7159  1.0856 -1.6463
  949SOL     OW 2845   1.162   1.301   1.257 -0.2980 -0.0798 -0.6322
  949SOL    HW1 2846   1.081   1.257   1.307 -1.5736  0.8931 -1.4528
  949SOL    HW2 2847   1.240   1.237   1.229 -0.0026 -2.3482 -1.1593
  950SOL     OW 2848   0.498   0.559   1.073 -0.3053 -0.4278  0.0776
  950SOL    HW1 2849   0.584   0.613   1.077  2.0292  0.1628 -0.4743
  950SOL    HW2 2850   0.423   0.610   1.016 -3.1424  1.2894 -0.4940
  951SOL     OW 2851   0.500   2.138   2.251 -0.0133  0.2048 -0.0894
  951SOL    HW1 2852   0.459   2.123   2.155  1.1652  2.4326 -1.7508
  951SOL    HW2 2853   0.528   2.236   2.268 -0.1925  3.9064  1.1651
  952SOL     OW 2854   1.001   1.383   3.108  0.5590 -0.2149  0.2051
  952SOL    HW1 2855   0.968   1.480   3.121 -1.4249  1.3193 -2.4993
  952SOL    HW2 2856   1.083   1.369   0.043 -0.3104  1.4864 -0.7360
  953SOL     OW 2857   1.128   2.945   0.015 -0.0203 -0.6948  0.4413
  953SOL    HW1 2858   1.185   2.911   0.091 -1.5404  0.0586 -3.8598
  953SOL    HW2 2859   1.082   2.865   3.086  0.0568 -1.7326 -0.7131
  954SOL     OW 2860   1.766   1.391   0.119  0.0056 -0.2408  0.3154
  954SOL    HW1 2861   1.761   1.307   0.058  0.0885 -0.0077  2.4905
  954SOL    HW2 2862   1.739   1.379   0.216  0.5405 -1.1270  2.7071
  955SOL     OW 2863   0.088   2.763   3.117  0.2625 -0.0563  0.2251
  955SOL    HW1 2864   0.154   2.830   3.082 -1.4520 -2.0986  1.4850
  955SOL    HW2 2865   0.035   2.723   3.042 -0.3948 -1.2899  0.0751
  956SOL     OW 2866   1.104   0.571   1.226  0.6054 -0.1654  0.1614
  956SOL    HW1 2867   1.127   0.670   1.237  2.1163 -2.8980 -1.4225
  956SOL    HW2 2868   1.170   0.511   1.278  2.2030 -2.6031  4.3499
  957SOL     OW 2869   1.154   1.554   1.410 -0.6203 -0.5870 -0.3925
  957SOL    HW1 2870   1.166   1.641   1.354 -0.8106 -0.4066 -1.0217
  957SOL    HW2 2871   1.178   1.471   1.360 -1.5446 -0.4029  2.1726
  958SOL     OW 2872   0.513   1.856   0.915  0.9427  0.4976  0.1483
  958SOL    HW1 2873   0.465   1.767   0.935  1.4921 -2.4163 -0.8699
  958SOL    HW2 2874   0.587   1.835   0.847  0.1059  0.0716 -1.9339
  959SOL     OW 2875   1.449   1.468   1.197 -0.2388 -0.4561 -0.0714
  959SOL    HW1 2876   1.426   1.561   1.160 -1.4013  0.5514 -2.8350
  959SOL    HW2 2877   1.377   1.435   1.262  0.4319  2.7751 -2.1870
  960SOL     OW 2878   0.110   1.292   2.977  0.6284 -0.0018  0.0061
  960SOL    HW1 2879   0.158   1.381   2.991 -0.6420 -0.5028 -0.4966
  960SOL    HW2 2880   0.136   1.256   2.884 -0.6715  0.0981 -2.1504
  961SOL     OW 2881   0.911   1.414   1.459 -0.6190  0.2629 -0.0346
  961SOL    HW1 2882   0.890   1.355   1.379  0.1308 -0.9726  0.8076
  961SOL    HW2 2883   0.995   1.470   1.439 -1.4456 -1.3512  0.2413
  962SOL     OW 2884   0.850   1.341   0.619 -0.4371 -0.3221  0.1213
  962SOL    HW1 2885   0.892   1.427   0.585 -2.1245 -3.0064 -1.0360
  962SOL    HW2 2886   0.852   1.270   0.545 -2.7627 -0.8333 -0.0920
  963SOL     OW 2887   1.453   1.552   2.609  0.2650  0.1085  0.4164
  963SOL    HW1 2888   1.534   1.612   2.603  1.0142 -2.0369  0.3910
  963SOL    HW2 2889   1.454   1.494   2.688  0.2081  1.1687 -1.9090
  964SOL     OW 2890   0.773   2.638   2.845  0.1051  0.2947  0.9602
  964SOL    HW1 2891   0.795   2.642   2.746  0.9853 -1.6373  0.1444
  964SOL    HW2 2892   0.816   2.560   2.893  0.9041  1.0025  1.5164
  965SOL     OW 2893   0.499   2.367   0.116  0.2955  0.1775  0.2592
  965SOL    HW1 2894   0.458   2.276   0.091  1.4923  1.5131  0.8791
  965SOL    HW2 2895   0.417   2.430   0.128  1.0791 -0.1864 -2.3310
  966SOL     OW 2896   0.105   1.572   2.687  0.3605 -0.1574  0.1773
  966SOL    HW1 2897   0.043   1.491   2.687  0.6111  1.5116  0.7815
  966SOL    HW2 2898   0.158   1.560   2.770  3.8580  1.3060 -1.6008
  967SOL     OW 2899   2.586   0.035   2.600 -0.2734 -1.1488  0.2165
  967SOL    HW1 2900   2.650   0.020   2.519  0.6104 -2.2753 -1.0961
  967SOL    HW2 2901   2.646   0.086   2.670  1.5872 -0.0007  0.9503
  968SOL     OW 2902   2.219   0.008   0.598 -0.3102 -0.0664 -0.0876
  968SOL    HW1 2903   2.268   0.009   0.509  0.0823  1.5853 -0.7877
  968SOL    HW2 2904   2.232   0.093   0.655 -2.8730  0.3152 -2.2420
  969SOL     OW 2905   0.251   1.138   1.980  0.2062 -0.1546  0.2903
  969SOL    HW1 2906   0.256   1.123   1.878 -0.6639 -1.8645 -2.4483
  969SOL    HW2 2907   0.347   1.166   2.000  2.0233  0.5303 -0.7888
  970SOL     OW 2908   2.007   1.548   0.945 -0.6559  0.2114 -0.0362
  970SOL    HW1 2909   2.020   1.556   1.044  0.2631  1.1865 -1.2098
  970SOL    HW2 2910   2.011   1.448   0.915  1.3370 -1.6473  2.1747
  971SOL     OW 2911   2.363   2.936   1.226  0.2164  0.2588 -0.4860
  971SOL    HW1 2912   2.318   2.873   1.289  1.3094  1.1822 -0.1860
  971SOL    HW2 2913   2.435   2.985   1.278  0.1537  2.2929  0.4272
  972SOL     OW 2914   0.518   2.897   1.518  0.6626  0.2073 -0.7308
  972SOL    HW1 2915   0.549   2.817   1.463  0.6987 -0.7542 -1.2540
  972SOL    HW2 2916   0.585   2.966   1.539 -0.7164 -1.7855  0.9289
  973SOL     OW 2917   0.599   0.319   3.032  0.0649  0.1158 -0.0933
  973SOL    HW1 2918   0.674   0.377   3.072  1.8104 -0.2252  0.0874
  973SOL    HW2 2919   0.510   0.374   3.023 -1.7410  0.2839  0.9492
  974SOL     OW 2920   2.015   1.422   1.937 -0.9810 -0.0564  0.4111
  974SOL    HW1 2921   1.920   1.424   1.963  1.6795 -0.3443 -1.5016
  974SOL    HW2 2922   2.068   1.355   1.991 -1.5185  1.7903 -0.8522
  975SOL     OW 2923   0.106   0.115   1.534 -0.0147  0.0314  0.0249
  975SOL    HW1 2924   0.175   0.158   1.468  1.2928 -0.2681  0.0317
  975SOL    HW2 2925   0.113   0.012   1.528 -0.6341 -1.1230 -1.4169
  976SOL     OW 2926   0.788   2.011   2.230 -0.7800 -0.5273 -0.0230
  976SOL    HW1 2927   0.766   2.107   2.259 -1.1930  2.1791 -0.0632
  976SOL    HW2 2928   0.735   1.983   2.146 -2.5781  2.8297  1.6550
  977SOL     OW 2929   0.877   2.203   0.329 -0.4374  0.4525  0.2172
  977SOL    HW1 2930   0.902   2.264   0.250  0.9141  0.0614 -2.1742
  977SOL    HW2 2931   0.886   2.105   0.304 -1.3392  0.2300  1.4833
  978SOL     OW 2932   2.929   1.635   2.228 -0.0007 -0.0536 -0.0832
  978SOL    HW1 2933   3.021   1.630   2.266 -1.3145  2.3198 -0.1677
  978SOL    HW2 2934   2.855   1.658   2.293  2.1718 -0.6489  1.3854
  979SOL     OW 2935   1.688   2.602   1.400 -0.5194 -0.2888 -0.0393
  979SOL    HW1 2936   1.730   2.637   1.315 -2.0101  0.2120 -2.8761
  979SOL    HW2 2937   1.590   2.604   1.379 -1.8517 -1.0442 -1.0798
  980SOL     OW 2938   1.180   1.181   2.684  0.3280  0.0014  0.3664
  980SOL    HW1 2939   1.165   1.215   2.590  0.3549 -2.5833  1.4610
  980SOL    HW2 2940   1.160   1.256   2.744 -0.2419 -2.4367 -3.9325
  981SOL     OW 2941   2.240   0.093   2.028 -0.0190 -0.3790 -0.3125
  981SOL    HW1 2942   2.159   0.142   2.070 -1.0601  2.9080  0.6310
  981SOL    HW2 2943   2.213   0.053   1.941 -2.2731  1.4770  1.8057
  982SOL     OW 2944   0.371   0.473   3.011 -0.7753 -0.3093 -0.4321
  982SOL    HW1 2945   0.288   0.493   3.067 -3.4753  1.7968 -0.8397
  982SOL    HW2 2946   0.396   0.554   2.954  1.5465 -0.8582 -1.3877
  983SOL     OW 2947   2.308   1.217   2.452  0.2932  1.4055  0.3844
  983SOL    HW1 2948   2.378   1.249   2.516  1.0198 -2.0710 -1.1528
  983SOL    HW2 2949   2.246   1.142   2.481  4.3208  0.5789  0.0482
  984SOL     OW 2950   1.226   0.204   2.231 -0.1715  0.3887  0.6770
  984SOL    HW1 2951   1.231   0.124   2.294  0.3896 -1.0033  2.2976
  984SOL    HW2 2952   1.267   0.285   2.271 -1.7242 -1.4692  1.4895
  985SOL     OW 2953   1.958   1.593   1.535 -0.2748 -0.1421 -0.3627
  985SOL    HW1 2954   2.025   1.549   1.600 -1.8909  0.7330 -2.2778
  985SOL    HW2 2955   2.000   1.676   1.502  0.4608 -1.1710 -0.0170
  986SOL     OW 2956   2.405   0.701   1.826  0.1805  0.3194  0.1488
  986SOL    HW1 2957   2.496   0.671   1.864  0.1447 -0.7817  1.7520
  986SOL    HW2 2958   2.409   0.759   1.745 -0.0954  0.1334  0.1099
  987SOL     OW 2959   2.965   0.807   1.203  0.3346 -0.4634  0.4023
  987SOL    HW1 2960   3.006   0.719   1.227  2.0491  4.1123 -0.5916
  987SOL    HW2 2961   2.862   0.817   1.210 -1.5338  0.9652 -2.6409
  988SOL     OW 2962   0.012   0.775   2.139 -0.3617  0.1382 -0.0690
  988SOL    HW1 2963   3.065   0.839   2.178  0.1042  2.2662 -2.8209
  988SOL    HW2 2964   3.119   0.772   2.035 -0.6776 -0.4997  0.3760
  989SOL     OW 2965   2.345   1.516   0.121 -0.8298 -0.2024 -0.8197
  989SOL    HW1 2966   2.407   1.565   0.185  1.6352 -3.3468 -2.1930
  989SOL    HW2 2967   2.323   1.572   0.041 -0.7697 -0.8870  1.5663
  990SOL     OW 2968   1.005   0.315   2.804 -0.4803  0.2919 -0.3142
  990SOL    HW1 2969   1.083   0.246   2.805  0.9245 -1.2440 -0.7337
  990SOL    HW2 2970   1.045   0.398   2.846 -3.7823  3.3183  0.0669
  991SOL     OW 2971   1.148   1.110   0.625  0.3413 -0.0235  0.4377
  991SOL    HW1 2972   1.148   1.186   0.558 -2.4629  0.4267  0.6958
  991SOL    HW2 2973   1.099   1.130   0.711 -1.2161  2.1816  0.0593
  992SOL     OW 2974   2.147   1.390   0.245  0.5782 -0.3528  0.5133
  992SOL    HW1 2975   2.091   1.463   0.280  0.3930 -4.5845 -1.2048
  992SOL    HW2 2976   2.229   1.435   0.206  1.3282  0.5387  1.1333
  993SOL     OW 2977   3.117   0.578   0.798 -0.4244 -0.0028  0.3302
  993SOL    HW1 2978   0.062   0.625   0.853 -2.0371  0.7321 -1.5042
  993SOL    HW2 2979   3.024   0.602   0.830 -1.5905  3.4056 -0.1331
  994SOL     OW 2980   0.115   2.109   2.461  0.3670  0.0220  0.9882
  994SOL    HW1 2981   0.028   2.075   2.504 -2.9457 -1.5479 -0.7823
  994SOL    HW2 2982   0.192   2.112   2.531  1.2285 -0.9026 -0.2328
  995SOL     OW 2983   1.768   1.393   2.798  0.7248 -0.4030 -0.1686
  995SOL    HW1 2984   1.705   1.336   2.738 -1.8973 -2.5479 -2.1703
  995SOL    HW2 2985   1.858   1.402   2.753 -1.0789 -1.7398 -1.5782
  996SOL     OW 2986   2.420   1.014   0.140 -0.3171  0.7025 -0.1858
  996SOL    HW1 2987   2.338   1.075   0.153 -0.6084  1.6238  0.9865
  996SOL    HW2 2988   2.413   0.944   0.063  0.2937  0.3278 -3.8303
  997SOL     OW 2989   2.051   1.066   1.884 -0.4082  0.5072 -0.4817
  997SOL    HW1 2990   2.142   1.034   1.852 -1.2655 -0.2285  1.7978
  997SOL    HW2 2991   2.070   1.120   1.968  0.8100 -1.1834 -0.9345
  998SOL     OW 2992   2.707   1.931   0.332  0.3372  0.7808  0.2287
  998SOL    HW1 2993   2.615   1.900   0.311  0.2671  0.7782 -1.7516
  998SOL    HW2 2994   2.712   1.984   0.417  0.3061 -1.2908 -0.0971
  999SOL     OW 2995   2.809   2.328   3.104  0.4460 -0.1741  0.1533
  999SOL    HW1 2996   2.779   2.249   0.038  0.4296 -0.0881 -0.9392
  999SOL    HW2 2997   2.834   2.403   0.043  0.4960  0.3316 -1.1902
 1000SOL     OW 2998   1.143   0.631   2.184 -0.7737  0.0088  0.0385
 1000SOL    HW1 2999   1.219   0.584   2.233 -0.7899  2.1407 -1.1471
 1000SOL    HW2 3000   1.057   0.585   2.206  1.4446  1.1886 -1.2590
   3.12311   3.12311   3.12311
