1000 SPC/Fw water molecules t= 109.00000 step= 109000
 3000
    1SOL     OW    1   1.887   2.443   0.671  0.1943 -0.7521 -0.0525
    1SOL    HW1    2   1.842   2.370   0.726  1.1177 -1.0697 -0.2469
    1SOL    HW2    3   1.965   2.481   0.724 -0.1971 -1.3722 -0.8886
    2SOL     OW    4   1.320   1.351   2.176 -0.0781 -0.0665 -0.2685
    2SOL    HW1    5   1.230   1.363   2.229 -0.3658  1.2456 -0.6175
    2SOL    HW2    6   1.315   1.377   2.076  0.6843 -1.6552 -0.7926
    3SOL     OW    7   1.612   2.486   2.431 -0.3171  0.2453  0.9116
    3SOL    HW1    8   1.708   2.494   2.471 -0.8148  2.2706 -0.7021
    3SOL    HW2    9   1.610   2.437   2.337  0.7230 -1.8264 -0.6655
    4SOL     OW   10   1.050   2.060   1.957 -0.2991 -0.5287  0.1391
    4SOL    HW1   11   1.130   2.076   2.014 -2.4929 -0.3721  1.6290
    4SOL    HW2   12   1.053   2.118   1.874 -0.6358 -0.5970  0.6562
    5SOL     OW   13   0.518   0.877   1.674  0.1625  0.5668  0.1455
    5SOL    HW1   14   0.608   0.926   1.683  1.1572 -1.1740 -0.2855
    5SOL    HW2   15   0.531   0.782   1.712  2.1385  0.4065  0.1945
    6SOL     OW   16   2.310   0.570   2.978  0.0415 -0.3260  0.1077
    6SOL    HW1   17   2.218   0.587   2.943  0.4203  0.2655  1.2095
    6SOL    HW2   18   2.378   0.605   2.915 -2.8283  0.1100  1.3441
    7SOL     OW   19   0.649   0.197   1.531  0.0403 -0.7190 -0.5831
    7SOL    HW1   20   0.684   0.153   1.614 -1.5371  0.5752  1.2269
    7SOL    HW2   21   0.667   0.299   1.527  0.2360  1.5996  2.0802
    8SOL     OW   22   1.599   0.247   1.812 -0.3286 -0.5705 -0.2643
    8SOL    HW1   23   1.589   0.268   1.714 -0.1065  2.2570  0.9025
    8SOL    HW2   24   1.531   0.181   1.847 -1.4879 -0.6612  2.3148
    9SOL     OW   25   0.168   0.603   0.465 -0.2755  0.1771 -0.1356
    9SOL    HW1   26   0.155   0.522   0.523 -2.6145 -0.4644 -4.0050
    9SOL    HW2   27   0.187   0.685   0.525  1.1727 -2.5327 -2.0770
   10SOL     OW   28   0.790   2.339   2.611  0.3350 -0.5565 -0.0087
   10SOL    HW1   29   0.841   2.378   2.694  0.1718  0.0450  0.6410
   10SOL    HW2   30   0.718   2.405   2.573 -0.9778 -0.3303 -0.0430
   11SOL     OW   31   0.852   1.664   0.021 -0.1918  0.8899  0.4445
   11SOL    HW1   32   0.752   1.648   0.018  2.6902  0.1558  1.7580
   11SOL    HW2   33   0.889   1.614   0.100  1.1075 -2.2315 -1.2939
   12SOL     OW   34   0.116   3.009   1.410 -0.7149 -0.2095 -0.1396
   12SOL    HW1   35   0.044   3.060   1.453  1.3490  1.3768 -3.2311
   12SOL    HW2   36   0.075   2.928   1.363  0.0846 -0.0620 -0.9049
   13SOL     OW   37   0.792   2.774   0.075  0.2724  0.0987 -0.1215
   13SOL    HW1   38   0.894   2.791   0.082  1.8858  0.2841  0.1793
   13SOL    HW2   39   0.745   2.860   0.114 -2.0547  2.5402  1.8385
   14SOL     OW   40   1.698   1.941   0.756  0.2774  0.7034 -0.2651
   14SOL    HW1   41   1.659   1.903   0.838  1.3647 -0.2452 -1.4431
   14SOL    HW2   42   1.776   1.884   0.725  0.5204  1.7467 -1.9348
   15SOL     OW   43   2.894   1.510   2.322 -0.3101 -0.7974  0.2729
   15SOL    HW1   44   2.977   1.471   2.362  0.2507 -0.8426 -1.8813
   15SOL    HW2   45   2.822   1.441   2.315  2.8892  3.7907 -3.4403
   16SOL     OW   46   1.549   3.085   2.878  0.4965 -0.3890  0.2804
   16SOL    HW1   47   1.586   0.063   2.876  1.2281 -2.5277 -0.2831
   16SOL    HW2   48   1.470   3.069   2.822  0.0061 -0.5814  0.9934
   17SOL     OW   49   0.507   2.354   2.178 -0.4213 -0.1216  0.6109
   17SOL    HW1   50   0.605   2.337   2.205  1.0380 -0.6846 -1.5955
   17SOL    HW2   51   0.452   2.335   2.261  1.2238 -1.7088 -1.9742
   18SOL     OW   52   1.678   1.063   0.460 -0.4433 -0.3584 -0.1186
   18SOL    HW1   53   1.726   1.137   0.409  1.6261 -0.5899 -1.0103
   18SOL    HW2   54   1.639   0.999   0.386  0.5822  0.1042  1.9389
   19SOL     OW   55   2.551   1.738   2.380 -0.2627 -0.4267 -0.0487
   19SOL    HW1   56   2.540   1.639   2.394 -2.1381 -0.0005  1.7155
   19SOL    HW2   57   2.535   1.792   2.469  1.0350  1.8816  2.7861
   20SOL     OW   58   2.453   2.092   2.199 -0.3946 -0.1561 -0.6155
   20SOL    HW1   59   2.420   2.007   2.161 -2.1425  2.1084  1.2114
   20SOL    HW2   60   2.494   2.157   2.139  2.3453 -0.3917  2.3627
   21SOL     OW   61   0.621   2.184   0.290  0.3431  0.0269 -1.0019
   21SOL    HW1   62   0.695   2.233   0.238 -0.4491 -1.2078  2.3240
   21SOL    HW2   63   0.534   2.183   0.232  2.2048 -0.8678  1.9919
   22SOL     OW   64   2.087   2.419   1.497 -0.0335 -0.7775  0.1370
   22SOL    HW1   65   2.141   2.489   1.440 -0.5725  2.3548 -0.4373
   22SOL    HW2   66   2.114   2.434   1.597  1.7240 -0.2545 -0.1001
   23SOL     OW   67   0.277   0.984   1.643 -0.2343  0.2046  0.1959
   23SOL    HW1   68   0.277   1.074   1.695 -1.1591  0.3402 -3.4812
   23SOL    HW2   69   0.366   0.931   1.656  1.2474 -2.5546 -0.8152
   24SOL     OW   70   2.244   1.920   1.859  0.1448  0.5430 -0.4790
   24SOL    HW1   71   2.215   1.887   1.951 -0.9446 -0.6876  1.6916
   24SOL    HW2   72   2.342   1.934   1.849 -2.6592 -0.1089  0.4639
   25SOL     OW   73   1.731   0.090   2.443 -0.3138  0.4872 -0.3379
   25SOL    HW1   74   1.805   0.123   2.384 -0.1506  0.3634  0.3003
   25SOL    HW2   75   1.641   0.129   2.422  3.1068  0.3226 -1.8838
   26SOL     OW   76   1.226   0.021   0.657 -0.0802  0.3652 -0.6079
   26SOL    HW1   77   1.242   3.084   0.571 -0.1216 -1.4648 -2.0819
   26SOL    HW2   78   1.244   0.123   0.653 -3.1544  0.9889 -0.4030
   27SOL     OW   79   0.946   1.527   0.260 -0.2138  0.1970 -0.2317
   27SOL    HW1   80   0.996   1.595   0.311  1.3524 -0.6804 -0.6147
   27SOL    HW2   81   0.863   1.506   0.317  1.6665  0.0370 -1.7800
   28SOL     OW   82   2.580   1.872   1.183 -0.4931 -0.6420 -0.2443
   28SOL    HW1   83   2.537   1.880   1.277  1.2933  1.6199 -0.2042
   28SOL    HW2   84   2.533   1.936   1.120 -0.8310 -1.5932 -0.8181
   29SOL     OW   85   2.206   2.716   1.866 -0.1944  0.5636 -0.0805
   29SOL    HW1   86   2.177   2.813   1.870  1.7314  1.2412 -2.2353
   29SOL    HW2   87   2.255   2.698   1.950  0.2270  2.3224  1.6928
   30SOL     OW   88   0.918   2.766   1.076 -0.3858 -0.0930 -0.4975
   30SOL    HW1   89   0.880   2.851   1.042  1.7187 -3.6434 -0.3911
   30SOL    HW2   90   1.007   2.775   1.120 -1.0453 -1.1211 -1.2832
   31SOL     OW   91   3.028   2.396   1.853  0.3252  0.1781 -0.1841
   31SOL    HW1   92   0.007   2.419   1.885 -0.9994  1.7282  1.7851
   31SOL    HW2   93   2.987   2.323   1.916 -2.3818 -0.0330 -0.3477
   32SOL     OW   94   1.563   1.325   2.040 -0.2042  0.2871  0.3580
   32SOL    HW1   95   1.466   1.332   2.074  1.6449 -1.1828 -0.5883
   32SOL    HW2   96   1.578   1.235   1.989  0.6539 -1.0873 -0.5852
   33SOL     OW   97   0.364   0.169   2.688 -0.1331 -0.2657 -0.1140
   33SOL    HW1   98   0.341   0.266   2.681 -0.0212 -1.3358 -0.0115
   33SOL    HW2   99   0.281   0.111   2.671  0.4626 -0.0993  1.0669
   34SOL     OW  100   2.175   0.160   1.184 -0.7634 -0.2200 -0.3969
   34SOL    HW1  101   2.166   0.256   1.208 -0.6052  0.5703  1.0290
   34SOL    HW2  102   2.136   0.111   1.260  1.8303 -1.3476  0.3078
   35SOL     OW  103   2.296   0.353   1.596 -0.6812  0.3028  0.1970
   35SOL    HW1  104   2.348   0.276   1.555  2.1294 -1.4066 -2.2553
   35SOL    HW2  105   2.197   0.325   1.596 -1.3850  0.7710 -0.2062
   36SOL     OW  106   2.482   2.848   2.445  0.4593  0.7501  0.3707
   36SOL    HW1  107   2.389   2.814   2.440  2.7214 -0.9035  2.8720
   36SOL    HW2  108   2.543   2.768   2.440 -1.1714 -3.1760 -0.1382
   37SOL     OW  109   1.114   2.509   3.002 -0.1012 -0.6995 -0.6819
   37SOL    HW1  110   1.094   2.608   3.025  0.5081  1.3545 -3.0878
   37SOL    HW2  111   1.210   2.506   2.963  1.2710  0.6496  0.4910
   38SOL     OW  112   2.836   1.177   2.840 -0.2138 -0.1557 -0.0420
   38SOL    HW1  113   2.889   1.092   2.860 -3.6228  0.1909  2.3557
   38SOL    HW2  114   2.737   1.160   2.864 -0.5485  1.4054  1.4333
   39SOL     OW  115   2.100   2.047   2.170  0.2659  0.2324  0.1265
   39SOL    HW1  116   2.104   1.952   2.134  0.0242 -2.0531 -3.5457
   39SOL    HW2  117   2.111   2.058   2.271  0.6217  1.2642  0.2286
   40SOL     OW  118   0.789   0.353   3.021 -0.0130 -0.3842 -0.3456
   40SOL    HW1  119   0.788   0.250   2.997  1.9704 -2.5882 -0.4024
   40SOL    HW2  120   0.878   0.388   2.989 -1.0928  0.0512  1.1754
   41SOL     OW  121   1.451   1.094   1.441 -0.0006  0.9347  0.2268
   41SOL    HW1  122   1.546   1.063   1.450 -1.0246  1.1838 -1.2779
   41SOL    HW2  123   1.393   1.043   1.510  0.1891 -0.9577 -0.2689
   42SOL     OW  124   0.203   0.340   2.097  0.2841  1.2802  0.0879
   42SOL    HW1  125   0.126   0.403   2.081  1.4529 -3.2735  1.3201
   42SOL    HW2  126   0.282   0.399   2.117 -1.5899  1.9735 -0.1578
   43SOL     OW  127   1.839   1.240   2.163 -0.4343 -0.1183 -0.3790
   43SOL    HW1  128   1.796   1.220   2.251 -1.0329  0.0020  0.6253
   43SOL    HW2  129   1.774   1.288   2.098  0.0927  0.1913 -0.0397
   44SOL     OW  130   0.032   2.929   2.985 -0.0795  0.4585 -0.1173
   44SOL    HW1  131   0.047   3.019   3.034  3.8208  2.1870  0.0323
   44SOL    HW2  132   0.021   2.851   3.052  1.5082 -0.7682  1.6117
   45SOL     OW  133   0.714   2.031   1.289  0.2314 -0.3871  0.0779
   45SOL    HW1  134   0.726   2.120   1.256 -0.2549 -2.2201 -0.4654
   45SOL    HW2  135   0.619   2.025   1.327  0.0456  0.9453  1.2727
   46SOL     OW  136   2.656   2.521   1.887 -0.2067 -0.1556  0.1237
   46SOL    HW1  137   2.732   2.541   1.819 -1.7823 -1.8038  1.2576
   46SOL    HW2  138   2.562   2.519   1.848 -1.3647 -1.7545 -3.0071
   47SOL     OW  139   1.029   1.680   1.342  0.1672  0.0797 -0.3801
   47SOL    HW1  140   1.010   1.778   1.356 -2.1450 -0.0730 -0.5204
   47SOL    HW2  141   0.950   1.621   1.375 -1.2405 -2.9044  0.4105
   48SOL     OW  142   0.147   2.617   0.214  0.0418  0.5414 -0.0979
   48SOL    HW1  143   0.049   2.590   0.241 -2.3792  0.9552  1.7541
   48SOL    HW2  144   0.189   2.672   0.293  0.0516  1.7278  0.4924
   49SOL     OW  145   2.951   1.297   1.980  0.3424  0.0935  0.3688
   49SOL    HW1  146   2.996   1.385   1.954  2.0754 -1.6257 -1.7113
   49SOL    HW2  147   2.855   1.326   2.002 -0.7419  1.0932  0.8104
   50SOL     OW  148   2.103   0.822   0.715 -0.1954 -0.4354 -0.0490
   50SOL    HW1  149   2.184   0.886   0.705  1.2789 -2.0101  0.3706
   50SOL    HW2  150   2.023   0.846   0.655  0.9650 -2.5230 -0.9503
   51SOL     OW  151   1.044   0.903   0.796  0.1371 -0.7454  0.0243
   51SOL    HW1  152   1.035   0.928   0.695  0.7760  4.0061 -2.1753
   51SOL    HW2  153   0.952   0.874   0.831  0.9010 -0.3905 -0.9325
   52SOL     OW  154   1.507   1.294   0.153 -0.6514 -0.4786 -0.0194
   52SOL    HW1  155   1.519   1.200   0.183 -2.1457  1.6561 -1.8996
   52SOL    HW2  156   1.458   1.338   0.227  0.2024 -0.3575 -1.6349
   53SOL     OW  157   1.131   2.322   2.679  0.0138  0.1094 -0.0395
   53SOL    HW1  158   1.113   2.222   2.685 -0.1032  0.8827 -1.1943
   53SOL    HW2  159   1.055   2.372   2.731  0.4292  0.6769  1.4323
   54SOL     OW  160   1.577   0.837   1.665 -0.4392  0.1676 -0.0041
   54SOL    HW1  161   1.500   0.868   1.724  2.6306  1.3536 -1.0424
   54SOL    HW2  162   1.555   0.822   1.564  1.5530  0.6871 -0.6346
   55SOL     OW  163   2.587   2.886   0.483 -0.1281  0.7373  0.0123
   55SOL    HW1  164   2.643   2.916   0.562  0.3212  4.0002  1.8896
   55SOL    HW2  165   2.494   2.856   0.505  2.4999 -1.2440  0.9751
   56SOL     OW  166   0.823   2.631   1.916  0.4987  0.1605 -0.4310
   56SOL    HW1  167   0.764   2.676   1.982  1.2340 -2.8131  1.2329
   56SOL    HW2  168   0.772   2.609   1.832  0.8993 -0.8873  2.6981
   57SOL     OW  169   2.147   0.684   2.735 -0.0034  0.1281 -0.2489
   57SOL    HW1  170   2.117   0.602   2.684  0.2975  0.2290  0.6199
   57SOL    HW2  171   2.081   0.707   2.808  0.9778 -2.2282 -0.3262
   58SOL     OW  172   2.935   1.221   1.701  0.1385 -0.3326 -0.1617
   58SOL    HW1  173   2.946   1.227   1.799  1.1399 -0.7884 -1.7573
   58SOL    HW2  174   2.844   1.263   1.673 -0.5940 -0.6083  0.3999
   59SOL     OW  175   0.494   2.941   2.376  1.1012 -0.1265 -0.3403
   59SOL    HW1  176   0.578   2.893   2.349 -3.7690  1.8253  2.4903
   59SOL    HW2  177   0.411   2.897   2.337 -1.5158  2.5567  1.5178
   60SOL     OW  178   2.647   2.284   0.741  0.2036  0.0581 -0.1322
   60SOL    HW1  179   2.694   2.213   0.687 -0.5809  2.1841  1.5308
   60SOL    HW2  180   2.697   2.290   0.833  0.2357 -1.0623  3.7953
   61SOL     OW  181   0.744   2.017   0.484  0.3307  0.2056 -1.3034
   61SOL    HW1  182   0.683   2.071   0.417  0.5634  0.4238 -1.4319
   61SOL    HW2  183   0.759   2.075   0.569 -0.8585  0.9542  0.1145
   62SOL     OW  184   2.162   2.728   2.841 -0.2896 -0.0590  0.1833
   62SOL    HW1  185   2.251   2.692   2.809  0.8947  1.7081  1.8051
   62SOL    HW2  186   2.092   2.751   2.771  2.4679  1.5790  2.6927
   63SOL     OW  187   1.954   0.375   0.077 -0.1540 -0.1326 -0.6450
   63SOL    HW1  188   1.902   0.382   3.107 -0.1563  0.4289  0.9340
   63SOL    HW2  189   1.982   0.471   0.096  0.4573 -0.9092 -2.8970
   64SOL     OW  190   0.742   0.946   2.473 -0.7642 -0.0054 -0.0280
   64SOL    HW1  191   0.839   0.949   2.500  0.9162 -0.0932  2.5314
   64SOL    HW2  192   0.683   0.897   2.542 -1.2704 -0.1621 -0.7274
   65SOL     OW  193   1.318   2.945   0.440 -0.5611  0.2793 -0.3492
   65SOL    HW1  194   1.312   2.852   0.395 -1.5692 -5.1153  0.3699
   65SOL    HW2  195   1.270   3.013   0.383 -0.2038 -1.9837  3.0105
   66SOL     OW  196   0.291   1.193   1.795  0.4748  0.2904  0.0374
   66SOL    HW1  197   0.242   1.243   1.868 -0.7789  2.5052 -1.6064
   66SOL    HW2  198   0.386   1.226   1.800 -1.5339  0.6072  2.8242
   67SOL     OW  199   2.025   2.888   2.290  0.2693 -0.0649  0.1898
   67SOL    HW1  200   1.988   2.871   2.200  1.7982  1.6414  2.7002
   67SOL    HW2  201   2.094   2.819   2.319 -1.9207  1.0697  2.3930
   68SOL     OW  202   0.829   0.734   1.757 -0.2482  0.0869 -0.3044
   68SOL    HW1  203   0.837   0.707   1.658  1.2376 -1.5191 -0.8791
   68SOL    HW2  204   0.791   0.827   1.779  1.9442  1.6192  2.0516
   69SOL     OW  205   2.113   2.648   0.329 -0.0058  0.5736  0.1852
   69SOL    HW1  206   2.062   2.663   0.413  2.1841 -0.0106 -3.5923
   69SOL    HW2  207   2.154   2.737   0.305 -1.7504  0.3307 -1.3511
   70SOL     OW  208   2.521   0.654   2.840  0.3155 -0.1270  0.2403
   70SOL    HW1  209   2.592   0.631   2.775 -0.9397 -0.6334  1.0455
   70SOL    HW2  210   2.540   0.599   2.928 -1.8405 -0.9584  3.7707
   71SOL     OW  211   2.865   2.002   0.108  0.4389  0.1440 -0.2203
   71SOL    HW1  212   2.866   1.906   0.062 -0.2250 -2.5047 -0.1811
   71SOL    HW2  213   2.953   2.048   0.093 -0.2217 -0.5009  0.8626
   72SOL     OW  214   3.024   1.907   0.439  0.0140 -0.2830 -0.4400
   72SOL    HW1  215   2.928   1.940   0.429 -0.7105  0.0101 -0.2021
   72SOL    HW2  216   3.036   1.873   0.539  2.2386  2.3665  1.1047
   73SOL     OW  217   0.898   1.017   0.589  0.1252 -0.3349  0.0376
   73SOL    HW1  218   0.855   1.085   0.654  0.3466  1.8933  1.7374
   73SOL    HW2  219   0.827   0.973   0.536  0.8108 -1.1272  1.3839
   74SOL     OW  220   0.154   2.056   2.041 -0.1684 -0.6272  0.6350
   74SOL    HW1  221   0.149   1.963   2.082 -3.5634  2.4599  2.0659
   74SOL    HW2  222   0.244   2.091   2.013  0.2204  1.5641 -0.4066
   75SOL     OW  223   1.771   1.439   1.237 -0.3861  0.2875 -0.0060
   75SOL    HW1  224   1.756   1.461   1.138 -1.8893  0.0742  0.4985
   75SOL    HW2  225   1.693   1.392   1.280  1.1295  2.0945  0.4024
   76SOL     OW  226   1.946   2.342   1.094 -0.3002  0.5985 -0.6402
   76SOL    HW1  227   1.853   2.297   1.100 -2.2101  1.5896 -0.2613
   76SOL    HW2  228   1.944   2.394   1.005  1.8629 -1.7962  3.5435
   77SOL     OW  229   2.573   1.744   1.729 -0.1801  0.1746  0.0758
   77SOL    HW1  230   2.555   1.828   1.781 -0.6620  0.9518  1.8960
   77SOL    HW2  231   2.669   1.717   1.729  0.9481 -0.0632 -0.9349
   78SOL     OW  232   1.462   1.003   0.243 -0.1097 -0.4273  0.2735
   78SOL    HW1  233   1.362   1.024   0.261 -3.0125  0.2655  0.7790
   78SOL    HW2  234   1.480   0.928   0.174 -1.1766  1.6700  0.9124
   79SOL     OW  235   2.136   1.670   1.519 -0.7946 -0.1353  0.2312
   79SOL    HW1  236   2.093   1.731   1.583 -0.5103 -0.8849 -2.2218
   79SOL    HW2  237   2.209   1.612   1.564 -2.7406 -1.5440  2.1304
   80SOL     OW  238   0.863   0.637   1.489 -0.3733  0.2721 -0.0822
   80SOL    HW1  239   0.879   0.546   1.543 -2.2616  0.2664  0.2417
   80SOL    HW2  240   0.887   0.628   1.396  1.2406  1.0385  0.7659
   81SOL     OW  241   0.489   2.283   0.532 -0.3744 -0.1034  0.0299
   81SOL    HW1  242   0.437   2.219   0.593  1.4446 -0.4757 -0.1053
   81SOL    HW2  243   0.536   2.227   0.459  0.9742 -2.8554  0.4335
   82SOL     OW  244   1.133   0.235   1.612  0.3035 -0.2743  0.3715
   82SOL    HW1  245   1.116   0.176   1.695 -0.6520  1.7397 -0.7973
   82SOL    HW2  246   1.161   0.334   1.633 -1.2659  3.2698  2.8126
   83SOL     OW  247   0.802   1.737   0.703 -0.3814 -0.1124 -0.2224
   83SOL    HW1  248   0.733   1.777   0.771 -0.6233 -1.3821  2.8746
   83SOL    HW2  249   0.756   1.750   0.614 -0.4318 -0.4523 -1.0368
   84SOL     OW  250   2.777   1.394   0.053  0.0267  0.1339  0.3515
   84SOL    HW1  251   2.761   1.292   0.050  0.2661  0.2459  0.7527
   84SOL    HW2  252   2.837   1.410   3.085 -0.1921  0.5814  0.8726
   85SOL     OW  253   0.044   2.385   0.989 -0.4049  0.4404 -0.1166
   85SOL    HW1  254   0.004   2.372   0.891 -1.0728  1.2294 -1.1288
   85SOL    HW2  255   0.142   2.347   0.994  2.3136 -3.1201  1.3324
   86SOL     OW  256   2.060   2.911   1.143  0.2672 -0.5084  1.0526
   86SOL    HW1  257   2.013   2.989   1.194  0.2196  0.1584 -1.0777
   86SOL    HW2  258   1.996   2.830   1.156 -1.4025  0.0767 -1.2697
   87SOL     OW  259   3.051   1.807   0.692  0.0724  0.9881 -0.0547
   87SOL    HW1  260   3.039   1.864   0.777 -0.6207  0.9020  0.3251
   87SOL    HW2  261   0.024   1.754   0.698 -0.7121  2.2756  0.1062
   88SOL     OW  262   0.599   0.483   1.475  0.1605 -0.0561 -0.0947
   88SOL    HW1  263   0.572   0.435   1.388 -0.3877  1.2567 -1.4379
   88SOL    HW2  264   0.683   0.536   1.463 -1.5283 -2.3485  2.4196
   89SOL     OW  265   0.982   2.801   1.780  0.2071 -0.2821 -0.1785
   89SOL    HW1  266   0.915   2.822   1.705 -2.6649  0.1581 -0.0130
   89SOL    HW2  267   0.942   2.748   1.858  1.7555  0.9960  0.4930
   90SOL     OW  268   0.060   2.001   1.156  0.2165  0.0328 -0.4775
   90SOL    HW1  269   0.073   1.941   1.239  1.5172  0.9569  1.1541
   90SOL    HW2  270   0.045   2.095   1.187 -1.5477 -1.9241  0.4527
   91SOL     OW  271   1.147   2.115   1.337 -0.2774  0.0695 -0.2751
   91SOL    HW1  272   1.122   2.178   1.262  2.3059  1.8691  1.1166
   91SOL    HW2  273   1.213   2.159   1.393 -1.7814 -0.6767 -4.2537
   92SOL     OW  274   2.786   2.969   1.521 -0.6961 -0.7707  0.2956
   92SOL    HW1  275   2.735   3.031   1.459  0.4896 -0.0357  0.8185
   92SOL    HW2  276   2.882   3.007   1.545  1.5335  1.4430 -0.7207
   93SOL     OW  277   2.960   1.393   2.949  0.2112  0.3839  0.2848
   93SOL    HW1  278   2.933   1.302   2.907 -1.6646 -2.5868  1.2397
   93SOL    HW2  279   3.054   1.392   2.983 -2.7889  2.6790 -2.5554
   94SOL     OW  280   2.967   2.703   2.180  0.1954  0.0696 -0.5085
   94SOL    HW1  281   2.985   2.791   2.135  0.3938  2.4169 -1.1963
   94SOL    HW2  282   2.915   2.721   2.268  0.2227 -0.5063  1.8767
   95SOL     OW  283   1.500   0.597   2.132  0.0299  0.0457 -0.4706
   95SOL    HW1  284   1.582   0.617   2.185 -3.2957 -2.1165 -3.3288
   95SOL    HW2  285   1.439   0.679   2.134  0.0391  1.6619  2.0598
   96SOL     OW  286   2.708   0.471   1.963  0.3342  0.2717  0.2227
   96SOL    HW1  287   2.667   0.461   1.869  0.7226  0.4287 -0.1490
   96SOL    HW2  288   2.777   0.546   1.969 -1.7811  0.2792 -3.0266
   97SOL     OW  289   2.190   2.920   1.575 -0.5684  0.0237  0.1987
   97SOL    HW1  290   2.100   2.950   1.613 -0.6633 -0.2731  1.2179
   97SOL    HW2  291   2.267   2.966   1.624  1.6853  0.7719  1.5361
   98SOL     OW  292   2.291   2.929   1.289 -0.1661  0.0204 -0.1359
   98SOL    HW1  293   2.278   2.942   1.390  2.2287 -0.7983 -2.1966
   98SOL    HW2  294   2.202   2.931   1.235  0.8576  0.8610 -0.6599
   99SOL     OW  295   2.738   0.243   2.075  0.0348 -0.0296 -0.2008
   99SOL    HW1  296   2.809   0.199   2.019 -0.6432 -1.9932 -3.1345
   99SOL    HW2  297   2.723   0.338   2.039 -1.2432  0.8490 -2.2329
  100SOL     OW  298   2.060   1.464   1.832  0.2652  0.5655 -0.2488
  100SOL    HW1  299   1.983   1.514   1.792  3.0165 -1.4831  0.5111
  100SOL    HW2  300   2.047   1.427   1.924  1.8949 -2.7352  0.1272
  101SOL     OW  301   1.758   0.067   0.805 -1.0115  0.0449 -0.4855
  101SOL    HW1  302   1.740   0.154   0.858  0.4492  1.4613 -0.6218
  101SOL    HW2  303   1.684   0.067   0.732 -1.7127 -0.5589 -0.4986
  102SOL     OW  304   0.558   0.865   1.375 -0.4147  0.4292  0.0592
  102SOL    HW1  305   0.566   0.770   1.342 -1.5682  2.6290  0.1858
  102SOL    HW2  306   0.585   0.868   1.469 -4.6292  1.1046 -3.1874
  103SOL     OW  307   2.685   0.416   2.980 -0.1523 -0.4398 -0.3241
  103SOL    HW1  308   2.663   0.347   2.911  0.5560  1.6865  3.3441
  103SOL    HW2  309   2.687   0.369   3.069 -0.4777  1.5489 -0.2205
  104SOL     OW  310   2.712   3.022   1.944  0.5792  0.3301  0.1047
  104SOL    HW1  311   2.769   3.097   1.899  1.3892 -0.9335  2.2935
  104SOL    HW2  312   2.636   3.065   1.998 -1.3490  4.2432  1.3098
  105SOL     OW  313   1.748   0.899   2.201  0.2526 -0.0026 -0.0833
  105SOL    HW1  314   1.764   0.800   2.203 -1.6689  0.9607  1.9364
  105SOL    HW2  315   1.832   0.953   2.196 -1.9117 -0.9482  0.4273
  106SOL     OW  316   1.644   0.280   0.907  0.8117  0.5271  0.0742
  106SOL    HW1  317   1.720   0.333   0.928 -1.1134  0.5641  2.9673
  106SOL    HW2  318   1.578   0.272   0.990 -3.0114 -0.2911  2.4319
  107SOL     OW  319   0.797   1.162   0.820  0.4840  0.0158  0.2033
  107SOL    HW1  320   0.736   1.241   0.797  0.4424 -1.1309  0.0988
  107SOL    HW2  321   0.879   1.199   0.866 -1.9143  1.5541  0.8681
  108SOL     OW  322   3.093   0.565   2.484  0.3214 -0.3150 -0.9278
  108SOL    HW1  323   3.068   0.472   2.449 -0.6759 -1.4821  1.5365
  108SOL    HW2  324   3.055   0.639   2.421 -0.1797  0.7891 -0.6151
  109SOL     OW  325   2.159   0.200   0.132  0.4319  0.4698  0.4434
  109SOL    HW1  326   2.121   0.109   0.105  0.4408  0.1815 -0.8698
  109SOL    HW2  327   2.082   0.271   0.116  0.1867  0.3946 -2.3618
  110SOL     OW  328   3.061   1.886   2.811  0.8562  0.1110  0.1470
  110SOL    HW1  329   0.005   1.933   2.880  0.2501  0.7860 -0.2731
  110SOL    HW2  330   3.014   1.800   2.844 -1.5130  0.3586 -0.8034
  111SOL     OW  331   2.048   0.019   2.385 -0.1800 -0.1717  0.0156
  111SOL    HW1  332   2.051   3.040   2.344 -1.3222 -0.8082  0.5107
  111SOL    HW2  333   2.129   0.026   2.450  0.5963  1.1332 -0.8753
  112SOL     OW  334   2.500   3.044   1.172  0.3740  0.3879  0.3490
  112SOL    HW1  335   2.542   2.985   1.104  0.8638 -0.1462  1.0968
  112SOL    HW2  336   2.423   2.992   1.209  2.4024  1.8034 -1.7731
  113SOL     OW  337   2.416   2.468   1.730 -0.1691 -0.1276 -0.1296
  113SOL    HW1  338   2.454   2.535   1.662  2.4660  0.2215 -1.0573
  113SOL    HW2  339   2.314   2.479   1.748 -1.8425 -0.5233  0.8176
  114SOL     OW  340   2.911   0.172   0.765  0.0312 -0.7519  0.0419
  114SOL    HW1  341   2.915   0.235   0.685 -0.2595  2.3531  0.6377
  114SOL    HW2  342   2.882   0.083   0.731 -2.3531  2.3173 -0.8166
  115SOL     OW  343   2.831   1.737   0.007  0.4816 -0.9629  0.6526
  115SOL    HW1  344   2.916   1.702   0.051 -1.5503 -1.3374 -1.6017
  115SOL    HW2  345   2.745   1.703   0.056 -2.2996 -0.6672 -1.5696
  116SOL     OW  346   3.054   1.539   1.932  0.2106 -0.5496  0.0398
  116SOL    HW1  347   3.040   1.607   2.006 -0.0422 -1.0657  1.6997
  116SOL    HW2  348   3.102   1.580   1.851 -1.4036 -1.1159 -1.1503
  117SOL     OW  349   2.580   2.884   0.885  0.3092  0.2207  0.2023
  117SOL    HW1  350   2.647   2.881   0.961  1.2408  1.1017 -0.5662
  117SOL    HW2  351   2.517   2.800   0.887  0.5746 -0.9802 -0.2368
  118SOL     OW  352   0.400   2.369   1.772 -0.0892  0.2464  0.3591
  118SOL    HW1  353   0.319   2.356   1.713  1.6296 -0.5516  1.0002
  118SOL    HW2  354   0.484   2.322   1.730  1.8619  2.3635 -0.4626
  119SOL     OW  355   1.583   2.375   0.985 -0.3711 -0.0098 -0.3170
  119SOL    HW1  356   1.500   2.376   0.927 -1.2466  0.9415  1.7120
  119SOL    HW2  357   1.579   2.300   1.055  0.0934 -0.0648 -0.0060
  120SOL     OW  358   0.528   1.942   2.020  0.4860 -0.0567  0.2850
  120SOL    HW1  359   0.514   1.902   2.113  3.3092  1.4483  0.1170
  120SOL    HW2  360   0.494   2.040   2.009 -3.6158  1.3752 -2.0059
  121SOL     OW  361   2.359   1.435   1.095 -0.0019 -1.0192  0.2592
  121SOL    HW1  362   2.414   1.490   1.158 -0.9723 -1.4247  0.8470
  121SOL    HW2  363   2.260   1.463   1.099  0.3919 -1.9182 -0.8945
  122SOL     OW  364   1.898   1.797   2.301  0.1833 -0.4287  0.2195
  122SOL    HW1  365   1.898   1.766   2.204  0.2233  0.6593 -1.0861
  122SOL    HW2  366   1.977   1.762   2.357 -0.9631  0.8642  3.4957
  123SOL     OW  367   2.762   2.978   0.666 -0.1246  0.3043 -0.9089
  123SOL    HW1  368   2.845   2.918   0.664  2.9418 -1.2022  0.3581
  123SOL    HW2  369   2.699   2.958   0.743  1.0718 -0.2486  2.1917
  124SOL     OW  370   1.457   1.223   2.824 -0.4469 -0.0169 -0.5587
  124SOL    HW1  371   1.393   1.232   2.903 -1.5890  1.6882  0.2890
  124SOL    HW2  372   1.539   1.283   2.837  2.1782  0.0200 -0.0340
  125SOL     OW  373   0.250   1.613   2.728  0.1959  0.2751 -0.1835
  125SOL    HW1  374   0.216   1.624   2.630 -2.6800  0.9327  0.5864
  125SOL    HW2  375   0.256   1.516   2.753 -3.5967 -3.0173 -0.0119
  126SOL     OW  376   2.809   2.114   0.358  0.2235  0.0497 -0.2385
  126SOL    HW1  377   2.820   2.211   0.327 -1.8498 -3.3395 -0.1310
  126SOL    HW2  378   2.818   2.056   0.277  0.0995  2.3026  4.3147
  127SOL     OW  379   0.291   1.714   0.950 -0.2235 -0.5839 -0.0805
  127SOL    HW1  380   0.201   1.663   0.958 -0.8306  0.0706  0.7742
  127SOL    HW2  381   0.261   1.806   0.904 -2.0089  2.3240 -3.8774
  128SOL     OW  382   1.626   0.908   3.104 -0.3937  0.5002  0.1747
  128SOL    HW1  383   1.700   0.974   0.017 -4.1378  0.5029  0.5528
  128SOL    HW2  384   1.666   0.817   3.113 -1.1138  0.2493  3.3379
  129SOL     OW  385   2.230   1.743   1.270  0.0573  0.4331 -0.3509
  129SOL    HW1  386   2.242   1.841   1.284 -2.1681 -0.7611  0.8868
  129SOL    HW2  387   2.180   1.706   1.353 -1.8059 -1.0855  1.4784
  130SOL     OW  388   2.060   1.251   0.328 -0.2604 -0.0139 -0.6282
  130SOL    HW1  389   2.159   1.231   0.296  0.8616 -0.5070 -1.2660
  130SOL    HW2  390   2.059   1.266   0.431 -1.2507  1.4948 -0.7445
  131SOL     OW  391   2.796   1.389   2.635 -0.7122 -0.0958  0.2055
  131SOL    HW1  392   2.793   1.339   2.725  0.0497  1.0731 -0.6349
  131SOL    HW2  393   2.780   1.489   2.658  0.5992 -1.0127  0.1335
  132SOL     OW  394   1.843   1.622   1.772 -0.3820  0.2330  0.3480
  132SOL    HW1  395   1.906   1.699   1.745  1.5105  0.1910 -0.9937
  132SOL    HW2  396   1.748   1.662   1.792 -1.3630 -0.5767  1.0983
  133SOL     OW  397   0.300   1.036   3.049  0.5753 -0.6816 -0.7254
  133SOL    HW1  398   0.291   0.951   3.101  1.9089  2.7963 -3.2481
  133SOL    HW2  399   0.395   1.077   3.074  0.1316 -1.2618  0.8261
  134SOL     OW  400   2.816   1.213   0.372  0.2139 -0.1877  0.2642
  134SOL    HW1  401   2.716   1.212   0.339 -5.2383  0.8890 -2.8189
  134SOL    HW2  402   2.869   1.298   0.351  0.0100  0.1197  0.7684
  135SOL     OW  403   2.781   0.947   0.399 -0.0240  0.5596 -0.3226
  135SOL    HW1  404   2.834   1.035   0.403  0.9247 -1.3072  2.0431
  135SOL    HW2  405   2.689   0.954   0.437  1.6060  0.9758  0.7532
  136SOL     OW  406   1.837   1.696   1.333  0.2661 -0.2091 -0.1586
  136SOL    HW1  407   1.915   1.671   1.390 -0.7838  0.5494 -3.9024
  136SOL    HW2  408   1.795   1.610   1.290 -0.3908 -2.6529  0.7859
  137SOL     OW  409   2.387   2.357   0.784  0.0109  0.0061  0.6742
  137SOL    HW1  410   2.470   2.307   0.745 -0.8667 -2.1437 -0.2494
  137SOL    HW2  411   2.382   2.447   0.733 -0.1878 -1.6494  0.3408
  138SOL     OW  412   1.868   0.222   1.826 -0.8911  0.6798  0.1678
  138SOL    HW1  413   1.770   0.235   1.834  0.1591  1.4919 -0.2250
  138SOL    HW2  414   1.915   0.273   1.899  0.5223 -0.9489  0.4755
  139SOL     OW  415   2.665   0.108   0.017 -0.3128 -0.3238  0.0234
  139SOL    HW1  416   2.607   0.048   0.078  0.4260  1.7480 -0.4923
  139SOL    HW2  417   2.756   0.061   0.000  2.4271 -0.7353  0.7317
  140SOL     OW  418   1.329   1.776   2.453  0.1812 -0.7703  0.2799
  140SOL    HW1  419   1.388   1.696   2.453 -1.5737 -0.6712 -0.8621
  140SOL    HW2  420   1.238   1.747   2.496 -2.3500 -1.2973 -1.4340
  141SOL     OW  421   0.872   0.995   1.993 -0.1915 -0.1947  0.1467
  141SOL    HW1  422   0.870   0.912   2.056  0.4468 -1.1782 -0.5377
  141SOL    HW2  423   0.942   1.061   2.021 -2.0643  2.3915 -2.7307
  142SOL     OW  424   2.050   2.527   3.016 -0.2588  0.0249 -0.2174
  142SOL    HW1  425   2.112   2.561   2.942 -0.4151 -1.5156 -2.2151
  142SOL    HW2  426   2.104   2.493   3.096  2.1629  0.4211  4.8041
  143SOL     OW  427   1.049   2.149   0.166 -0.2668  0.1097  0.3580
  143SOL    HW1  428   1.121   2.163   0.095  1.8495  1.1800 -2.4874
  143SOL    HW2  429   1.000   2.059   0.142  0.9096 -0.3583  1.8982
  144SOL     OW  430   1.316   2.574   0.089 -0.3955  0.3595 -0.4356
  144SOL    HW1  431   1.289   2.499   0.030 -0.0115  0.8570  2.3643
  144SOL    HW2  432   1.394   2.550   0.148 -0.3911  2.7234 -0.8267
  145SOL     OW  433   2.126   1.731   2.436 -0.1184  0.5283 -0.0639
  145SOL    HW1  434   2.188   1.792   2.377 -1.0418  1.0359 -1.1732
  145SOL    HW2  435   2.109   1.779   2.526  0.0110  1.1943  2.4642
  146SOL     OW  436   2.406   2.617   2.771  0.5395 -0.1801 -0.1253
  146SOL    HW1  437   2.472   2.671   2.714  0.5611  1.8922 -0.6205
  146SOL    HW2  438   2.468   2.588   2.850 -2.0285 -0.2843  1.0796
  147SOL     OW  439   2.867   1.623   1.295  0.1939  0.3592 -0.1292
  147SOL    HW1  440   2.898   1.587   1.204  0.8594  1.8295  3.1428
  147SOL    HW2  441   2.774   1.576   1.322  1.2741  0.0199 -1.2529
  148SOL     OW  442   1.987   3.106   0.019 -0.3796  0.0820  0.1413
  148SOL    HW1  443   2.068   3.048   3.111  0.8815  0.1670 -1.3408
  148SOL    HW2  444   1.937   0.003   3.047 -0.2164 -1.6658  0.1819
  149SOL     OW  445   0.711   1.641   2.667 -1.0433  0.4707 -0.3363
  149SOL    HW1  446   0.768   1.674   2.742 -0.6917 -1.5557 -1.3439
  149SOL    HW2  447   0.646   1.716   2.648  2.2995  0.9815  0.0915
  150SOL     OW  448   0.315   2.462   0.427 -0.4415  0.7857  0.4583
  150SOL    HW1  449   0.323   2.501   0.333  2.2912 -0.1961  0.6282
  150SOL    HW2  450   0.401   2.408   0.452  2.1098 -2.7854 -1.9776
  151SOL     OW  451   0.465   1.471   0.297 -0.6030 -0.6348  0.3580
  151SOL    HW1  452   0.394   1.400   0.284  0.5279 -0.2526 -2.3528
  151SOL    HW2  453   0.491   1.530   0.219 -0.9122 -1.5768  1.2450
  152SOL     OW  454   2.806   1.653   0.680  0.0992 -0.6076 -0.1523
  152SOL    HW1  455   2.759   1.686   0.764  0.9171 -1.9933  1.7278
  152SOL    HW2  456   2.900   1.699   0.665  1.4779 -0.5812 -1.4903
  153SOL     OW  457   2.184   2.369   0.337  0.0792 -0.3279 -0.1653
  153SOL    HW1  458   2.164   2.463   0.311  1.9615 -0.8587  3.4251
  153SOL    HW2  459   2.135   2.347   0.425 -0.9259 -1.7012 -2.3276
  154SOL     OW  460   0.943   2.886   0.639 -0.2367 -0.1559 -1.1429
  154SOL    HW1  461   0.973   2.940   0.722  0.0202  0.0581  1.2395
  154SOL    HW2  462   0.843   2.906   0.622 -1.4624 -1.0662  1.7148
  155SOL     OW  463   0.202   1.997   0.917 -0.1073 -0.0666  0.3255
  155SOL    HW1  464   0.167   1.994   1.014 -0.3757  1.5174 -0.8543
  155SOL    HW2  465   0.130   2.031   0.854  1.3555  1.3439  2.5579
  156SOL     OW  466   2.543   2.653   0.083  0.0754  0.2200  0.3769
  156SOL    HW1  467   2.546   2.594   0.004  0.8395 -2.0667 -2.0946
  156SOL    HW2  468   2.613   2.623   0.145 -3.4501  0.0749  0.1030
  157SOL     OW  469   0.810   1.581   1.482  0.2981 -0.0187  0.5351
  157SOL    HW1  470   0.779   1.636   1.566 -1.5219  0.4450  0.0807
  157SOL    HW2  471   0.731   1.577   1.416  0.4785  1.3501  1.0732
  158SOL     OW  472   1.739   0.678   0.097  0.1892  0.3573  0.0719
  158SOL    HW1  473   1.688   0.602   0.050 -0.9481  0.2750  0.2229
  158SOL    HW2  474   1.684   0.728   0.168 -1.8722 -2.0584 -0.5276
  159SOL     OW  475   1.264   0.999   2.924  0.7919  0.3115  0.4747
  159SOL    HW1  476   1.317   0.988   2.840 -1.2477 -0.0944 -1.0235
  159SOL    HW2  477   1.308   1.052   2.994 -0.4052  0.9159 -1.0475
  160SOL     OW  478   1.142   1.366   0.662 -0.4578 -0.0736 -0.2336
  160SOL    HW1  479   1.192   1.453   0.677 -1.1557  1.9386  1.0542
  160SOL    HW2  480   1.105   1.332   0.749 -1.5088  0.5218  0.1636
  161SOL     OW  481   0.046   2.301   2.895 -0.3102  0.2548  0.5363
  161SOL    HW1  482   3.090   2.269   2.829  0.1692 -3.2790  0.5940
  161SOL    HW2  483   0.127   2.241   2.894  1.9709  1.1902 -2.3821
  162SOL     OW  484   0.289   2.263   1.009  0.5462  0.4629  0.6236
  162SOL    HW1  485   0.310   2.168   0.986 -1.4123  2.4686 -0.6510
  162SOL    HW2  486   0.347   2.295   1.087 -0.2506  1.8558  1.5371
  163SOL     OW  487   3.091   0.641   2.993 -0.0873  0.2083 -0.1816
  163SOL    HW1  488   0.072   0.663   2.970  0.9798  0.1301  3.7874
  163SOL    HW2  489   3.056   0.714   3.052  1.0849 -0.7205  2.0144
  164SOL     OW  490   0.630   3.068   2.808 -0.2297  0.1892 -0.3487
  164SOL    HW1  491   0.641   0.001   2.896 -0.0297  1.4149  1.4506
  164SOL    HW2  492   0.655   0.011   2.729 -1.1180 -1.8135 -0.3361
  165SOL     OW  493   2.263   0.327   1.914  0.1901  0.1956 -0.1786
  165SOL    HW1  494   2.330   0.356   1.986 -0.0388 -0.8831  1.7821
  165SOL    HW2  495   2.260   0.398   1.840  2.4540  0.7792 -0.8307
  166SOL     OW  496   2.054   2.685   1.613  0.1441  0.3845 -0.5811
  166SOL    HW1  497   2.104   2.636   1.692  0.6956 -2.3819  2.4611
  166SOL    HW2  498   2.122   2.741   1.561  0.8201 -4.8030 -0.3090
  167SOL     OW  499   1.085   0.507   2.207  0.3987 -0.2298 -0.0618
  167SOL    HW1  500   1.019   0.452   2.258  1.5677  2.2943 -0.8356
  167SOL    HW2  501   1.181   0.498   2.246 -0.0583  0.4731  0.6969
  168SOL     OW  502   2.524   0.045   2.082 -0.0184  0.2145 -0.4389
  168SOL    HW1  503   2.577   0.125   2.104  0.9710 -2.8949  0.2980
  168SOL    HW2  504   2.539   3.083   2.145 -1.5281  0.1180 -4.2891
  169SOL     OW  505   0.003   1.208   0.318  0.2367 -0.0548 -0.1273
  169SOL    HW1  506   3.094   1.281   0.384 -0.0817  0.7437  0.5813
  169SOL    HW2  507   3.058   1.204   0.239  1.9582 -1.3992  2.1897
  170SOL     OW  508   0.048   1.717   1.767  0.5453  0.3744 -0.2378
  170SOL    HW1  509   0.026   1.677   1.679 -0.9060  0.0619  2.1052
  170SOL    HW2  510   0.149   1.721   1.783 -2.9866  1.9876  0.7869
  171SOL     OW  511   0.977   2.291   2.379  0.6360 -0.6177 -0.2025
  171SOL    HW1  512   0.934   2.278   2.468  0.2550 -1.2397 -1.1985
  171SOL    HW2  513   1.071   2.323   2.386 -0.0414 -2.0804 -2.0600
  172SOL     OW  514   0.598   2.746   2.053 -0.1546 -0.1028 -0.7005
  172SOL    HW1  515   0.545   2.801   2.122 -2.2483 -1.3724 -1.3847
  172SOL    HW2  516   0.541   2.663   2.027 -1.7372  0.7605 -0.0874
  173SOL     OW  517   1.367   2.645   0.871  0.2910  0.6189  0.1143
  173SOL    HW1  518   1.395   2.712   0.804 -0.1097 -1.6411  3.5013
  173SOL    HW2  519   1.407   2.674   0.959  2.4264 -0.4203 -1.1760
  174SOL     OW  520   1.503   0.288   0.506 -0.1537  0.3607  0.3128
  174SOL    HW1  521   1.538   0.339   0.592  0.0078  0.8394  2.2875
  174SOL    HW2  522   1.524   0.183   0.517  1.6125 -4.3666  1.8097
  175SOL     OW  523   1.398   1.435   0.472  0.1699 -0.1257 -0.2526
  175SOL    HW1  524   1.438   1.530   0.479 -1.1590  0.0795  2.2526
  175SOL    HW2  525   1.305   1.424   0.505  1.6712 -0.8160  1.5489
  176SOL     OW  526   1.534   1.254   0.608  0.0554 -0.4036  0.1895
  176SOL    HW1  527   1.499   1.334   0.555  1.0424 -0.3323 -0.2879
  176SOL    HW2  528   1.572   1.189   0.543  1.1594  0.3008  1.0614
  177SOL     OW  529   1.252   0.699   1.338  0.0327  0.1497  0.9872
  177SOL    HW1  530   1.186   0.719   1.412  0.2226  0.5904  0.0267
  177SOL    HW2  531   1.277   0.796   1.307  1.5826  2.1909  2.2594
  178SOL     OW  532   2.646   1.642   0.173  0.1574  0.6794  0.4927
  178SOL    HW1  533   2.692   1.616   0.260 -0.3475  3.9940 -1.3559
  178SOL    HW2  534   2.626   1.554   0.119 -1.7337  0.1729 -1.0715
  179SOL     OW  535   0.493   2.586   0.228 -0.0960 -0.2297  0.8601
  179SOL    HW1  536   0.485   2.685   0.217 -3.0953 -3.5622  0.6400
  179SOL    HW2  537   0.589   2.564   0.254 -3.0852  0.4371  0.1172
  180SOL     OW  538   1.679   1.445   1.644  0.0504  0.2735 -0.1299
  180SOL    HW1  539   1.728   1.525   1.681 -3.0186 -2.1646 -0.5110
  180SOL    HW2  540   1.582   1.459   1.660  2.2355 -0.6437  0.8260
  181SOL     OW  541   1.055   1.139   2.280 -0.3520 -0.0533 -0.0041
  181SOL    HW1  542   1.085   1.156   2.185  0.1874  1.5514 -1.1351
  181SOL    HW2  543   1.130   1.091   2.332  1.9912  1.3276  0.0850
  182SOL     OW  544   3.063   1.281   2.569  0.4006  0.0974  0.1936
  182SOL    HW1  545   3.110   1.358   2.520 -0.9339  2.4544 -2.9042
  182SOL    HW2  546   2.967   1.312   2.598 -2.3903 -0.0254 -0.9345
  183SOL     OW  547   1.752   0.635   2.234  0.1397 -0.1537  0.4069
  183SOL    HW1  548   1.822   0.640   2.157  0.9808  0.6268 -2.2076
  183SOL    HW2  549   1.770   0.565   2.310  0.3817 -0.5764  3.1262
  184SOL     OW  550   0.295   0.545   1.632 -0.1556 -0.1338 -0.2089
  184SOL    HW1  551   0.383   0.587   1.672  1.7791 -0.2625  0.8592
  184SOL    HW2  552   0.286   0.565   1.535 -2.0144  1.4279  2.6716
  185SOL     OW  553   2.446   1.771   0.575  0.3930 -0.6444  0.0124
  185SOL    HW1  554   2.453   1.877   0.585  0.3242  2.1597  1.4982
  185SOL    HW2  555   2.389   1.750   0.498  2.4071  1.9087  0.0916
  186SOL     OW  556   0.532   1.807   3.018  0.5051  0.3778 -0.3060
  186SOL    HW1  557   0.491   1.799   2.929  0.5094  0.3908 -2.9487
  186SOL    HW2  558   0.605   1.880   3.024  2.7838 -3.4055  3.0771
  187SOL     OW  559   2.390   1.817   2.863 -0.5252  0.3268  0.4105
  187SOL    HW1  560   2.399   1.720   2.824  2.6162 -2.7216  1.5956
  187SOL    HW2  561   2.477   1.834   2.916 -1.6532  0.4060 -1.0423
  188SOL     OW  562   0.912   2.515   0.673 -0.4353  0.0746  0.0273
  188SOL    HW1  563   0.869   2.500   0.767 -3.3057  1.0532 -0.5433
  188SOL    HW2  564   0.845   2.569   0.613 -1.6309 -1.2677 -0.4484
  189SOL     OW  565   2.317   0.865   2.597  0.1987  0.0752 -0.0765
  189SOL    HW1  566   2.273   0.798   2.661  2.6454  0.4103 -1.3101
  189SOL    HW2  567   2.260   0.951   2.595  1.1292  1.3630 -1.4410
  190SOL     OW  568   0.889   1.783   2.490  0.1033  0.8539 -0.7140
  190SOL    HW1  569   0.988   1.783   2.518 -0.3261  1.8512  2.3846
  190SOL    HW2  570   0.838   1.824   2.566  1.5455 -0.9671 -2.5032
  191SOL     OW  571   2.504   0.811   1.503  0.2971 -0.3443  0.0588
  191SOL    HW1  572   2.584   0.870   1.478  1.1346  2.5964  0.6336
  191SOL    HW2  573   2.426   0.808   1.437 -4.0324 -1.1949  0.3625
  192SOL     OW  574   2.236   0.349   2.314  0.7342 -0.3663 -0.5968
  192SOL    HW1  575   2.318   0.355   2.261  0.6475  0.8181  1.3561
  192SOL    HW2  576   2.217   0.251   2.318  1.1963 -0.8010 -0.2259
  193SOL     OW  577   0.450   0.204   0.779  0.0851 -0.5537  0.5212
  193SOL    HW1  578   0.366   0.145   0.776  2.3612  1.8299  1.0928
  193SOL    HW2  579   0.419   0.290   0.831 -3.1040  4.3955  0.5005
  194SOL     OW  580   1.175   2.423   1.592 -0.2501 -0.0291  0.8211
  194SOL    HW1  581   1.181   2.507   1.529 -1.0345 -1.0210 -2.8237
  194SOL    HW2  582   1.215   2.340   1.542  0.2239 -2.8467 -0.2814
  195SOL     OW  583   2.675   0.618   0.748  0.4021 -0.3223  0.0318
  195SOL    HW1  584   2.609   0.540   0.758  1.4010  1.1996  0.8166
  195SOL    HW2  585   2.619   0.704   0.760 -1.4753 -0.2964  1.3121
  196SOL     OW  586   1.144   1.820   1.738  0.5455 -0.1414 -0.3228
  196SOL    HW1  587   1.080   1.895   1.709  0.8319  1.6060 -1.4045
  196SOL    HW2  588   1.121   1.735   1.692  0.6461  3.1338  0.1722
  197SOL     OW  589   0.545   0.680   2.444 -0.5829  0.0483 -0.1923
  197SOL    HW1  590   0.457   0.723   2.467  7.0422 -1.9471 -1.0451
  197SOL    HW2  591   0.560   0.678   2.346  0.8192 -1.0628  2.8053
  198SOL     OW  592   1.391   1.197   0.836  0.4266 -0.4424 -0.8913
  198SOL    HW1  593   1.421   1.230   0.741 -1.3163  1.2711 -1.6293
  198SOL    HW2  594   1.430   1.259   0.900  1.9317  0.0854 -3.0964
  199SOL     OW  595   2.421   0.406   2.137 -0.1028  0.0229  0.0529
  199SOL    HW1  596   2.410   0.500   2.180 -0.2573 -1.5296  0.6445
  199SOL    HW2  597   2.521   0.391   2.110  1.0566  0.7021 -1.4263
  200SOL     OW  598   2.263   2.528   2.115 -0.1727  0.5803 -0.2772
  200SOL    HW1  599   2.351   2.554   2.162 -0.1011  1.5124 -0.1009
  200SOL    HW2  600   2.280   2.441   2.067 -0.5485 -0.1006  0.0470
  201SOL     OW  601   2.033   0.345   1.652  0.2131  0.8442 -0.5589
  201SOL    HW1  602   2.056   0.435   1.697  0.2145  2.0422  1.6720
  201SOL    HW2  603   1.975   0.291   1.718  0.2866 -2.2711  0.7326
  202SOL     OW  604   2.225   2.909   0.262  0.9681  0.2878 -0.1971
  202SOL    HW1  605   2.262   2.997   0.295  1.4527 -1.4870 -0.4075
  202SOL    HW2  606   2.209   2.914   0.164 -0.3171 -1.7907  0.4221
  203SOL     OW  607   0.787   2.041   2.292  0.0414 -0.3491 -0.5930
  203SOL    HW1  608   0.859   1.985   2.247 -1.2200  0.6560  1.0105
  203SOL    HW2  609   0.771   2.126   2.241  0.2470  2.6867  1.8357
  204SOL     OW  610   1.099   1.346   2.625 -0.0786 -0.1444 -0.2877
  204SOL    HW1  611   1.030   1.414   2.598 -0.0277 -0.7373  0.5387
  204SOL    HW2  612   1.071   1.285   2.703  0.4007  1.8320  3.2101
  205SOL     OW  613   0.871   0.941   1.373 -0.1873  0.1324  0.3181
  205SOL    HW1  614   0.912   0.896   1.458  3.6864 -0.0655  0.9474
  205SOL    HW2  615   0.944   0.997   1.324  0.8711  0.1428 -1.2362
  206SOL     OW  616   0.613   0.481   2.871 -0.0986  0.0622  0.2767
  206SOL    HW1  617   0.645   0.508   2.784 -4.7845  2.4154  1.8382
  206SOL    HW2  618   0.685   0.439   2.929 -2.0732  1.1142  0.6156
  207SOL     OW  619   1.761   2.496   1.879  0.3242  0.1030 -0.3060
  207SOL    HW1  620   1.824   2.512   1.957 -2.0316 -0.7610  0.5947
  207SOL    HW2  621   1.746   2.580   1.826 -0.6285 -0.6826  1.3479
  208SOL     OW  622   0.877   2.462   1.094  0.3147 -0.3209  0.2041
  208SOL    HW1  623   0.915   2.555   1.078  0.2028 -0.9948  3.0051
  208SOL    HW2  624   0.845   2.419   1.005 -0.3771 -0.2488 -1.9222
  209SOL     OW  625   1.467   1.595   2.762 -0.3234  0.1427 -0.3131
  209SOL    HW1  626   1.507   1.677   2.810  0.0525 -1.1226  2.4653
  209SOL    HW2  627   1.490   1.519   2.821 -0.3427  1.9597 -0.8545
  210SOL     OW  628   2.131   0.737   0.967  0.0881  0.3970  0.5537
  210SOL    HW1  629   2.230   0.713   0.974  2.6494  0.5407  0.7526
  210SOL    HW2  630   2.105   0.763   0.873  0.9665 -0.0797 -2.0299
  211SOL     OW  631   1.100   2.589   0.275 -0.2539 -0.4085 -0.5316
  211SOL    HW1  632   1.162   2.579   0.194  2.3943 -1.1300  0.4508
  211SOL    HW2  633   1.077   2.498   0.315 -0.6966  2.0089  1.0669
  212SOL     OW  634   2.216   1.985   0.057  0.3894  0.3634  0.1532
  212SOL    HW1  635   2.151   1.968   3.093 -4.1846 -0.2128 -1.0079
  212SOL    HW2  636   2.284   1.910   0.075 -0.0125 -1.2778 -0.1212
  213SOL     OW  637   1.885   0.393   2.932  0.6361 -0.9828 -0.1461
  213SOL    HW1  638   1.954   0.337   2.879 -0.7807 -1.1870 -3.3725
  213SOL    HW2  639   1.802   0.409   2.879 -0.2203 -0.3625 -2.5697
  214SOL     OW  640   1.230   1.742   2.032 -0.2964 -0.0836 -0.2157
  214SOL    HW1  641   1.158   1.716   2.096  0.5980 -2.5244 -3.7328
  214SOL    HW2  642   1.187   1.780   1.946  0.3836  4.7530 -0.4021
  215SOL     OW  643   0.563   1.670   0.508 -0.0369  0.4747  0.1619
  215SOL    HW1  644   0.533   1.595   0.445 -1.3147 -0.9072 -1.0712
  215SOL    HW2  645   0.479   1.714   0.547  3.5587  0.5196 -2.0069
  216SOL     OW  646   0.188   3.079   2.599 -0.0476 -0.0418  0.2672
  216SOL    HW1  647   0.262   3.016   2.635 -0.0941 -0.5316 -0.5524
  216SOL    HW2  648   0.192   3.088   2.498 -3.3048 -0.1076  2.2163
  217SOL     OW  649   2.384   0.660   1.086  0.4092  0.2085 -0.0928
  217SOL    HW1  650   2.354   0.559   1.081  0.2372 -1.7867 -0.4296
  217SOL    HW2  651   2.483   0.665   1.113  3.4192 -0.5105 -2.0377
  218SOL     OW  652   1.554   1.957   2.056 -0.1168  0.4176  0.2875
  218SOL    HW1  653   1.628   2.011   2.103  1.2249 -0.3193 -0.0188
  218SOL    HW2  654   1.509   1.891   2.123 -1.3982 -1.8971  1.0820
  219SOL     OW  655   2.192   1.598   0.067  0.7737 -0.4425 -0.0846
  219SOL    HW1  656   2.234   1.544   3.103 -0.2200  2.3185  0.2022
  219SOL    HW2  657   2.088   1.602   0.059 -2.6963 -0.2072  0.9755
  220SOL     OW  658   2.190   1.007   0.520  0.3044  0.3137  0.0054
  220SOL    HW1  659   2.215   0.941   0.441  2.3897  2.2023 -2.3767
  220SOL    HW2  660   2.224   1.101   0.499  0.3755  1.4443 -0.0366
  221SOL     OW  661   0.236   0.697   2.968 -0.5590 -0.2276 -0.2001
  221SOL    HW1  662   0.249   0.754   3.052 -0.8305 -0.6624 -1.9516
  221SOL    HW2  663   0.292   0.612   2.973  0.9983 -0.5797  0.9556
  222SOL     OW  664   1.532   1.649   0.565 -0.8512  0.0434  0.4354
  222SOL    HW1  665   1.617   1.597   0.592 -0.4383  0.4432 -0.1742
  222SOL    HW2  666   1.551   1.750   0.555 -0.4657 -1.0739 -2.0851
  223SOL     OW  667   1.393   0.245   0.078  0.3454 -0.0181 -0.2615
  223SOL    HW1  668   1.374   0.305   3.113 -1.5192 -0.5263  1.6301
  223SOL    HW2  669   1.427   0.295   0.158 -1.8411 -1.4513 -3.2461
  224SOL     OW  670   1.937   3.089   1.280  0.0774 -0.3139  1.1013
  224SOL    HW1  671   1.907   3.083   1.378 -3.0630  1.6928 -0.3959
  224SOL    HW2  672   1.880   0.049   1.237 -0.7690 -2.2837  0.5609
  225SOL     OW  673   0.735   2.309   1.295 -0.9438 -0.1909  0.0813
  225SOL    HW1  674   0.786   2.350   1.378  4.5711  2.9552  0.1967
  225SOL    HW2  675   0.770   2.357   1.213  0.4802 -1.7169  1.6976
  226SOL     OW  676   1.130   1.419   0.070  0.3547 -0.0162 -0.2416
  226SOL    HW1  677   1.193   1.497   0.046 -1.3431 -1.4832  0.7477
  226SOL    HW2  678   1.065   1.447   0.140 -2.6998  1.1548 -0.0777
  227SOL     OW  679   1.121   1.622   1.092 -0.0546 -0.2348 -0.7361
  227SOL    HW1  680   1.051   1.641   1.021  0.7014  0.8226 -0.3897
  227SOL    HW2  681   1.082   1.646   1.186  1.0263 -0.0603 -0.1045
  228SOL     OW  682   0.303   1.780   0.526 -0.1062  0.1226 -0.1936
  228SOL    HW1  683   0.239   1.732   0.590 -2.5811  0.6596  1.2409
  228SOL    HW2  684   0.259   1.841   0.454  0.3779  2.2847 -2.8219
  229SOL     OW  685   1.796   0.126   2.711 -0.0702  0.6427 -0.4234
  229SOL    HW1  686   1.764   0.095   2.618  1.1029  2.6921  1.8368
  229SOL    HW2  687   1.724   0.178   2.763  2.7115  0.2562 -0.2572
  230SOL     OW  688   1.444   0.970   2.691 -0.0424 -0.2726  0.2295
  230SOL    HW1  689   1.494   0.943   2.608  0.5016  2.3431 -2.5291
  230SOL    HW2  690   1.437   1.070   2.685 -1.0733 -3.7700 -1.3295
  231SOL     OW  691   1.094   1.694   2.611 -0.8259  0.4336 -0.0982
  231SOL    HW1  692   1.144   1.690   2.696 -2.2002 -1.0877 -3.9669
  231SOL    HW2  693   1.001   1.655   2.627  2.6109 -0.8893  2.1687
  232SOL     OW  694   2.480   2.316   0.350  0.0723  0.1993  0.1563
  232SOL    HW1  695   2.386   2.355   0.351 -1.5669  1.4942 -1.0661
  232SOL    HW2  696   2.481   2.212   0.348  0.4496 -3.0520  0.1396
  233SOL     OW  697   2.607   2.532   0.489  0.0916 -0.3521  0.3936
  233SOL    HW1  698   2.660   2.593   0.427 -1.4407 -0.7228 -1.9398
  233SOL    HW2  699   2.577   2.450   0.435 -0.1320 -0.1183 -0.1560
  234SOL     OW  700   0.704   0.714   2.965 -0.4403 -0.5768  0.0515
  234SOL    HW1  701   0.643   0.628   2.958 -1.1580 -0.3851  1.4164
  234SOL    HW2  702   0.803   0.691   2.959  1.3570 -2.7289  0.1386
  235SOL     OW  703   2.731   0.221   2.781 -0.3340 -0.1424 -0.1307
  235SOL    HW1  704   2.802   0.147   2.786 -0.0766 -2.4812  0.4583
  235SOL    HW2  705   2.691   0.222   2.686 -0.2506 -0.2753 -1.6575
  236SOL     OW  706   1.836   2.438   1.397 -0.0257 -0.1638  0.4553
  236SOL    HW1  707   1.796   2.346   1.406 -1.7848  4.2307  0.0411
  236SOL    HW2  708   1.933   2.434   1.430 -2.0044 -0.5744 -1.3053
  237SOL     OW  709   0.979   1.674   2.162  0.1515 -0.0270 -0.5438
  237SOL    HW1  710   0.938   1.766   2.160  0.2347 -1.8448 -1.3953
  237SOL    HW2  711   0.967   1.621   2.248 -1.1993  0.4193  1.2079
  238SOL     OW  712   1.684   0.508   2.713  0.5626  0.3777  0.1485
  238SOL    HW1  713   1.651   0.601   2.718  3.3624 -0.5526  0.2796
  238SOL    HW2  714   1.706   0.478   2.620 -1.3080  0.6753  1.1492
  239SOL     OW  715   0.389   2.195   2.004 -0.1258  0.2643  0.9428
  239SOL    HW1  716   0.445   2.235   2.079 -0.2086 -1.7433 -2.7907
  239SOL    HW2  717   0.356   2.263   1.934  1.5306  1.5298 -1.8055
  240SOL     OW  718   2.391   2.572   0.637  0.5559 -0.2673  0.3745
  240SOL    HW1  719   2.343   2.657   0.607 -1.5272  1.0144 -1.7636
  240SOL    HW2  720   2.476   2.562   0.577 -0.2674  0.2042  1.1924
  241SOL     OW  721   2.461   0.766   0.851  0.3577  0.1293  0.7274
  241SOL    HW1  722   2.434   0.720   0.939 -0.2419 -0.7560  0.9746
  241SOL    HW2  723   2.440   0.860   0.855  0.4954 -0.7196 -1.9942
  242SOL     OW  724   2.025   2.509   2.034  0.5136  0.4425 -0.2871
  242SOL    HW1  725   2.008   2.408   2.038  1.1920  1.4365  1.2388
  242SOL    HW2  726   2.113   2.526   2.081  2.3000 -0.6258 -0.0455
  243SOL     OW  727   0.861   2.363   1.521 -0.0693  0.1554 -0.1548
  243SOL    HW1  728   0.945   2.331   1.569 -1.1287  0.6472  1.9403
  243SOL    HW2  729   0.877   2.453   1.477 -1.2789 -1.0326 -1.2954
  244SOL     OW  730   2.027   0.243   2.753 -0.0303 -0.1731  0.3636
  244SOL    HW1  731   1.937   0.207   2.715 -2.3498  0.8879 -0.3249
  244SOL    HW2  732   2.089   0.166   2.778  2.4392  0.7531  1.8339
  245SOL     OW  733   1.361   0.220   1.433 -0.2891 -0.0861 -0.3761
  245SOL    HW1  734   1.326   0.183   1.346 -1.9569 -0.6474  0.6768
  245SOL    HW2  735   1.281   0.221   1.498 -3.9883 -0.8207  1.6641
  246SOL     OW  736   1.904   2.757   0.030 -0.3658 -0.1835  0.2036
  246SOL    HW1  737   1.973   2.681   0.053  0.9015 -1.0657  0.8781
  246SOL    HW2  738   1.806   2.741   0.064 -1.5330  0.0183 -0.0039
  247SOL     OW  739   1.381   0.492   2.415  0.5210  0.0188  0.4407
  247SOL    HW1  740   1.351   0.473   2.512 -0.3477 -2.1076  3.2327
  247SOL    HW2  741   1.442   0.418   2.380 -0.7118  1.4742 -0.0965
  248SOL     OW  742   0.768   1.776   1.679 -0.6784 -0.1865 -0.3747
  248SOL    HW1  743   0.843   1.845   1.675  0.4591 -0.8478 -2.4707
  248SOL    HW2  744   0.678   1.824   1.704 -0.6015 -0.5726  0.4014
  249SOL     OW  745   2.179   0.259   0.562 -0.1117  0.7138 -0.2414
  249SOL    HW1  746   2.153   0.316   0.484  2.7803 -2.4325  0.3196
  249SOL    HW2  747   2.101   0.201   0.593  2.3319  1.0554  1.5174
  250SOL     OW  748   3.097   0.399   3.092  0.2150  0.7209 -0.0982
  250SOL    HW1  749   3.032   0.393   0.058 -1.3142 -0.5239  2.3904
  250SOL    HW2  750   3.092   0.490   3.050  1.0360 -1.0933  0.7340
  251SOL     OW  751   1.523   0.615   3.003 -0.3226  0.2808  0.1882
  251SOL    HW1  752   1.476   0.659   3.084 -1.9989  1.7098 -0.4792
  251SOL    HW2  753   1.504   0.662   2.915 -0.5836  0.4419 -0.0230
  252SOL     OW  754   1.617   1.755   1.878  0.0896  0.8441  0.0098
  252SOL    HW1  755   1.610   1.841   1.929  3.3314 -0.9605  0.1526
  252SOL    HW2  756   1.531   1.703   1.871 -1.2317  2.7208 -1.7534
  253SOL     OW  757   2.533   2.174   1.079  0.0914 -0.5198  0.1518
  253SOL    HW1  758   2.619   2.223   1.061 -0.0361 -0.4533  0.4777
  253SOL    HW2  759   2.455   2.238   1.051 -0.6512  0.2118  1.4773
  254SOL     OW  760   2.713   1.226   1.030 -0.1633  0.6218 -0.2032
  254SOL    HW1  761   2.791   1.251   1.092  0.6826  0.9190  0.4290
  254SOL    HW2  762   2.710   1.291   0.953  0.6856 -2.9991  5.1357
  255SOL     OW  763   1.159   0.332   1.000 -0.1000 -0.4027 -0.4185
  255SOL    HW1  764   1.073   0.288   0.969 -0.1415  2.8143  2.3351
  255SOL    HW2  765   1.142   0.425   1.036  1.2607  1.6617 -0.6202
  256SOL     OW  766   1.680   2.532   1.203 -0.3479 -0.2372  0.1270
  256SOL    HW1  767   1.743   2.489   1.272  0.8545  0.3789 -0.3105
  256SOL    HW2  768   1.622   2.462   1.162  1.4115  3.0041  0.6301
  257SOL     OW  769   0.748   0.101   2.592 -0.5718 -0.3219 -0.2523
  257SOL    HW1  770   0.841   0.088   2.554 -1.1082 -2.3629 -2.4836
  257SOL    HW2  771   0.681   0.081   2.522  3.6401  1.7006  2.2373
  258SOL     OW  772   1.017   2.255   0.612 -0.1501 -0.0484 -0.0847
  258SOL    HW1  773   0.994   2.337   0.662  0.0360 -1.9691 -0.5376
  258SOL    HW2  774   0.958   2.178   0.641 -0.9428  1.4020 -0.5582
  259SOL     OW  775   1.333   2.999   2.705  0.0310 -0.2137 -0.2328
  259SOL    HW1  776   1.236   2.995   2.737 -0.8071 -2.0729 -2.1156
  259SOL    HW2  777   1.364   2.902   2.678  0.3473 -2.0297  1.5587
  260SOL     OW  778   2.204   0.584   1.435  0.6381 -0.3669  0.8201
  260SOL    HW1  779   2.114   0.630   1.461 -1.6655 -0.6100 -1.8782
  260SOL    HW2  780   2.225   0.521   1.512 -0.7255 -0.1822 -1.2101
  261SOL     OW  781   0.722   0.580   2.651 -0.4226 -0.8475  0.0417
  261SOL    HW1  782   0.647   0.611   2.591  0.2604 -2.7336  2.9067
  261SOL    HW2  783   0.809   0.638   2.639 -0.6792 -0.2381 -0.4341
  262SOL     OW  784   0.360   2.420   2.442  0.0522 -0.0806  0.3126
  262SOL    HW1  785   0.301   2.350   2.482 -3.2577  2.7065  0.0910
  262SOL    HW2  786   0.295   2.495   2.422  1.3338 -0.5946 -0.0343
  263SOL     OW  787   0.167   1.670   2.479  0.7150  0.1380  0.1004
  263SOL    HW1  788   0.113   1.752   2.501  3.9644  0.6761  1.1596
  263SOL    HW2  789   0.248   1.681   2.418 -0.7100  1.1390 -0.7700
  264SOL     OW  790   1.165   1.103   0.942 -0.2510  0.0503 -0.6745
  264SOL    HW1  791   1.125   1.035   0.878 -0.5692 -1.3250  1.3147
  264SOL    HW2  792   1.249   1.145   0.906 -2.2906 -1.1498  0.1464
  265SOL     OW  793   1.358   2.671   0.464  0.3403 -0.1173 -0.5330
  265SOL    HW1  794   1.269   2.647   0.507 -2.6168 -0.2339 -0.9811
  265SOL    HW2  795   1.420   2.697   0.541 -2.4129  0.1492 -3.1178
  266SOL     OW  796   1.699   1.020   1.427  0.0384 -0.3489 -0.1531
  266SOL    HW1  797   1.758   0.940   1.434 -0.5057  0.5543 -0.0808
  266SOL    HW2  798   1.750   1.099   1.472 -2.5243  0.9144 -1.7646
  267SOL     OW  799   2.430   1.144   2.637  0.2445  0.0080 -0.3365
  267SOL    HW1  800   2.478   1.143   2.550 -0.9079  0.7045  0.4844
  267SOL    HW2  801   2.331   1.135   2.627  1.0524  1.9295  2.3945
  268SOL     OW  802   1.526   0.406   0.265 -0.9118  0.8246 -0.0619
  268SOL    HW1  803   1.525   0.377   0.363  2.0738  1.1714  1.3254
  268SOL    HW2  804   1.609   0.366   0.212  1.3274  2.5155 -1.8150
  269SOL     OW  805   2.988   0.729   2.714 -0.1284 -0.1437 -0.1807
  269SOL    HW1  806   3.022   0.655   2.652  4.1175  0.4644 -2.3590
  269SOL    HW2  807   2.980   0.702   2.813 -1.4668 -0.3840 -1.9459
  270SOL     OW  808   0.110   1.386   3.023  0.1739  0.5768  0.4423
  270SOL    HW1  809   0.152   1.337   3.105  0.4408  1.0185  0.4072
  270SOL    HW2  810   0.134   1.329   2.939  0.3754 -0.5951 -2.7586
  271SOL     OW  811   2.662   0.960   3.012 -0.1892  0.8206 -0.1356
  271SOL    HW1  812   2.585   0.966   2.941  0.8691  4.4946 -2.1654
  271SOL    HW2  813   2.679   0.859   3.033 -0.1586  0.4053  0.7260
  272SOL     OW  814   2.948   2.390   2.360  0.3110  0.1199  0.1420
  272SOL    HW1  815   3.012   2.359   2.287  0.3933 -0.0658  2.3618
  272SOL    HW2  816   2.995   2.458   2.418 -0.3015 -0.3045 -3.7673
  273SOL     OW  817   0.079   0.032   0.057 -0.3943 -0.7168 -0.4432
  273SOL    HW1  818   0.104   0.129   0.071 -1.7490  1.7332 -1.4848
  273SOL    HW2  819   0.106   3.097   0.138  0.1137  2.1654  2.6172
  274SOL     OW  820   0.820   2.107   0.786 -0.2618 -0.3417 -0.0426
  274SOL    HW1  821   0.746   2.046   0.779  3.3753  3.2373  0.9214
  274SOL    HW2  822   0.900   2.064   0.831  0.0739  0.7146  0.0574
  275SOL     OW  823   2.275   0.606   0.568 -0.2226  0.6809  0.0567
  275SOL    HW1  824   2.356   0.582   0.626 -0.3742 -0.4848  0.6891
  275SOL    HW2  825   2.201   0.659   0.616 -1.7062  1.9502  2.6650
  276SOL     OW  826   2.470   1.599   1.302 -0.6244 -0.2297  0.1688
  276SOL    HW1  827   2.380   1.637   1.297  2.5262  1.1427  0.9068
  276SOL    HW2  828   2.535   1.669   1.340  1.3260 -0.2131  1.7074
  277SOL     OW  829   2.355   3.059   0.799  0.1698  0.0418  0.2517
  277SOL    HW1  830   2.430   2.999   0.827 -0.1570 -2.3497 -1.3816
  277SOL    HW2  831   2.277   3.051   0.866 -2.1748  0.3903  1.5877
  278SOL     OW  832   1.479   2.736   2.279 -0.4167  0.3764  0.1824
  278SOL    HW1  833   1.417   2.666   2.244  1.1752  0.2050 -0.4820
  278SOL    HW2  834   1.485   2.724   2.379 -0.6914  0.4347  0.3376
  279SOL     OW  835   1.230   2.183   0.986 -0.3836 -0.4966 -0.1123
  279SOL    HW1  836   1.162   2.235   1.044 -2.2608  0.6022  4.0492
  279SOL    HW2  837   1.263   2.237   0.907 -2.8630 -0.3107 -1.5394
  280SOL     OW  838   0.337   0.889   0.999 -0.5482 -0.5401 -0.4059
  280SOL    HW1  839   0.321   0.970   0.936  1.0167  0.1738 -0.8462
  280SOL    HW2  840   0.389   0.918   1.079  0.7940 -0.7133 -1.6448
  281SOL     OW  841   2.562   1.286   2.829 -0.4803 -0.3543 -0.1355
  281SOL    HW1  842   2.513   1.220   2.766 -0.4574 -1.0620  1.9355
  281SOL    HW2  843   2.531   1.382   2.817  0.9093 -1.3866  0.2196
  282SOL     OW  844   0.215   1.225   0.100 -0.1444  0.0399  0.1507
  282SOL    HW1  845   0.161   1.202   0.182  0.9187 -2.6710  0.4330
  282SOL    HW2  846   0.237   1.141   0.044  0.0761 -0.4033 -1.3204
  283SOL     OW  847   1.790   2.521   2.925  0.3195  0.4540 -0.5028
  283SOL    HW1  848   1.887   2.529   2.953 -0.6754  0.0681 -0.7073
  283SOL    HW2  849   1.777   2.430   2.885 -0.5269  4.1874  1.4046
  284SOL     OW  850   0.845   0.090   0.652  0.2401 -0.0122 -0.0121
  284SOL    HW1  851   0.869   0.055   0.561 -1.3312 -1.0113  1.6548
  284SOL    HW2  852   0.802   0.184   0.643 -4.2611  1.9614  0.5144
  285SOL     OW  853   2.173   1.116   2.571 -0.3391  0.2397 -0.6008
  285SOL    HW1  854   2.153   1.196   2.503  1.1045 -0.0031  0.7274
  285SOL    HW2  855   2.124   1.127   2.659 -0.5530 -0.7252 -2.0762
  286SOL     OW  856   1.788   2.812   1.010  0.2367 -0.3403  0.1109
  286SOL    HW1  857   1.825   2.776   1.102 -1.3409 -0.4454 -1.3011
  286SOL    HW2  858   1.750   2.738   0.951  0.4755  0.8493  0.9378
  287SOL     OW  859   1.276   0.486   0.829 -0.3658  0.7174  0.1849
  287SOL    HW1  860   1.243   0.412   0.892  0.6196  0.1317  0.4574
  287SOL    HW2  861   1.248   0.579   0.856  0.8214 -1.7196  0.5906
  288SOL     OW  862   0.784   2.653   2.680 -0.0790 -0.4621  0.0441
  288SOL    HW1  863   0.766   2.732   2.738  1.0848 -0.6295 -0.8937
  288SOL    HW2  864   0.709   2.632   2.616 -2.0924 -2.6227  0.4528
  289SOL     OW  865   0.047   1.544   0.935 -0.1028 -0.2044 -0.0654
  289SOL    HW1  866   0.075   1.457   0.972  2.9987  0.4418  1.6884
  289SOL    HW2  867   3.064   1.550   0.951  1.4365 -0.2843 -1.9172
  290SOL     OW  868   1.279   2.068   0.531  0.3046  0.2726  1.3648
  290SOL    HW1  869   1.263   2.165   0.553 -0.9512  0.7053  0.0882
  290SOL    HW2  870   1.223   2.040   0.453  0.6027  3.0906  1.9609
  291SOL     OW  871   1.644   2.975   0.291 -0.4024  0.0498 -0.1042
  291SOL    HW1  872   1.590   3.039   0.235 -0.4261 -3.4432 -0.8416
  291SOL    HW2  873   1.748   2.987   0.282 -0.0447  0.6898 -0.1806
  292SOL     OW  874   0.429   0.468   2.183  0.1371  0.1290 -0.2249
  292SOL    HW1  875   0.425   0.420   2.275  1.3499 -1.9344 -0.7317
  292SOL    HW2  876   0.419   0.568   2.195  1.4566 -0.8629 -1.7177
  293SOL     OW  877   2.686   1.717   1.005  0.1595  0.0807 -0.1062
  293SOL    HW1  878   2.618   1.708   0.922 -0.7576 -0.4900 -2.7870
  293SOL    HW2  879   2.635   1.758   1.085 -1.9747 -1.3852 -1.6869
  294SOL     OW  880   0.804   0.089   2.257 -1.0854 -0.0746  0.0400
  294SOL    HW1  881   0.716   0.102   2.305 -0.8821 -0.7807 -0.8524
  294SOL    HW2  882   0.858   0.004   2.284  0.0701 -1.9602  0.6906
  295SOL     OW  883   1.265   1.861   1.291  0.5014  0.2700 -0.1606
  295SOL    HW1  884   1.189   1.794   1.280  3.5904 -0.2694  1.6017
  295SOL    HW2  885   1.232   1.955   1.326 -1.3876 -0.4753  3.2256
  296SOL     OW  886   2.465   2.050   0.318 -0.1357 -0.5320  0.1400
  296SOL    HW1  887   2.384   1.987   0.314 -0.8223 -0.0753 -0.6109
  296SOL    HW2  888   2.508   2.040   0.227 -1.4161 -2.8305  1.1297
  297SOL     OW  889   2.571   3.071   0.214  0.2199  0.3293  0.3547
  297SOL    HW1  890   2.481   3.109   0.248  1.4786  1.8821  3.5353
  297SOL    HW2  891   2.560   2.974   0.192  2.5555 -1.0512 -0.7942
  298SOL     OW  892   1.053   0.360   2.926 -0.3969  0.4752  0.7582
  298SOL    HW1  893   1.039   0.334   2.827 -1.5265  1.1629 -3.9651
  298SOL    HW2  894   1.040   0.460   2.928  1.8242  3.7677 -1.6035
  299SOL     OW  895   0.600   2.516   2.542 -0.4306 -0.5848 -0.1538
  299SOL    HW1  896   0.525   2.481   2.484  0.3656  0.1390 -0.8220
  299SOL    HW2  897   0.572   2.548   2.636 -0.8751 -0.1573 -1.8924
  300SOL     OW  898   2.807   3.107   2.363 -0.3689  0.0743  0.0492
  300SOL    HW1  899   2.731   3.076   2.305  1.7752 -0.3305  2.4891
  300SOL    HW2  900   2.772   0.063   2.428 -0.7725 -0.9720 -0.3069
  301SOL     OW  901   1.302   0.430   1.710  0.1951  0.0574 -0.2046
  301SOL    HW1  902   1.326   0.426   1.812  2.6982  2.0050 -0.1274
  301SOL    HW2  903   1.386   0.427   1.658 -2.4464 -1.8600 -1.4569
  302SOL     OW  904   3.071   2.428   0.005  0.0864  0.6814  0.0341
  302SOL    HW1  905   3.115   2.515   0.025 -0.4125 -0.6757  0.3593
  302SOL    HW2  906   3.101   2.390   3.030 -1.0243  2.1860 -1.6348
  303SOL     OW  907   2.049   2.154   1.481  0.0536 -0.0135  0.5086
  303SOL    HW1  908   1.952   2.137   1.465  3.5735  1.1601 -0.8308
  303SOL    HW2  909   2.069   2.256   1.484 -0.8075  3.1196  0.7105
  304SOL     OW  910   2.758   0.949   1.463  0.4629 -0.4675 -0.3343
  304SOL    HW1  911   2.779   0.922   1.366 -0.4487  3.1018  0.6150
  304SOL    HW2  912   2.844   0.960   1.517  0.3872  1.6070 -0.4415
  305SOL     OW  913   0.543   1.575   0.896 -0.0248 -0.0231  0.2085
  305SOL    HW1  914   0.589   1.629   0.972 -1.3547 -2.1016 -2.5313
  305SOL    HW2  915   0.446   1.598   0.884  1.7507 -0.9494 -1.0584
  306SOL     OW  916   0.538   1.418   2.591 -0.2572  0.1498 -0.1138
  306SOL    HW1  917   0.599   1.487   2.633  0.9881 -2.6570  2.2281
  306SOL    HW2  918   0.470   1.381   2.657  1.1802 -0.1987 -0.7222
  307SOL     OW  919   1.022   0.131   1.356  0.0882 -0.0005  0.7947
  307SOL    HW1  920   1.066   0.153   1.445  0.6043  1.1235  1.5963
  307SOL    HW2  921   1.066   0.039   1.327  3.6310  0.8021  1.2815
  308SOL     OW  922   0.067   0.771   1.301  0.1006 -0.1187 -0.2451
  308SOL    HW1  923   3.092   0.722   1.315 -3.4257  0.0949  1.2271
  308SOL    HW2  924   0.112   0.771   1.211  0.8706  1.5729  3.8001
  309SOL     OW  925   2.450   1.181   1.077 -0.0820  0.4405  0.7152
  309SOL    HW1  926   2.404   1.269   1.085  2.8500 -0.4797  1.3945
  309SOL    HW2  927   2.553   1.201   1.076 -0.6857 -0.5489  0.1385
  310SOL     OW  928   0.422   2.104   2.635 -0.5292 -0.1707  0.3717
  310SOL    HW1  929   0.516   2.097   2.595 -0.7057 -1.5966 -0.8454
  310SOL    HW2  930   0.353   2.147   2.569 -1.3495 -3.7302 -1.9727
  311SOL     OW  931   2.487   2.589   2.240  0.1621 -0.0359  0.3439
  311SOL    HW1  932   2.561   2.644   2.194  0.1286  1.0781 -0.7649
  311SOL    HW2  933   2.510   2.551   2.328 -1.3631  4.7388 -2.8923
  312SOL     OW  934   2.161   1.951   2.890 -0.4786  0.0469  0.3688
  312SOL    HW1  935   2.187   2.053   2.878  2.1370  1.4553  2.0536
  312SOL    HW2  936   2.244   1.892   2.884  0.9158 -1.6444 -0.9751
  313SOL     OW  937   0.208   0.051   0.713 -0.1823 -0.5534 -0.0901
  313SOL    HW1  938   0.161   0.124   0.657  1.0243  0.0608 -0.0125
  313SOL    HW2  939   0.232   3.099   0.643 -0.2038  3.1991  1.4475
  314SOL     OW  940   2.051   1.145   2.814 -0.0367  1.0957 -0.1235
  314SOL    HW1  941   2.034   1.065   2.868  0.6635  3.9206 -3.3679
  314SOL    HW2  942   2.026   1.230   2.868  0.3608 -2.8718 -3.9820
  315SOL     OW  943   1.356   0.013   2.260  0.5617 -0.0621 -0.0854
  315SOL    HW1  944   1.445   3.095   2.229  1.1478  0.2088 -1.5511
  315SOL    HW2  945   1.299   3.049   2.292  0.5556  0.7302  0.0442
  316SOL     OW  946   2.804   1.149   0.658 -0.6172 -0.2811  0.8132
  316SOL    HW1  947   2.725   1.105   0.704  0.9871 -0.2193 -1.3179
  316SOL    HW2  948   2.781   1.173   0.564  0.8123 -0.8788  1.0166
  317SOL     OW  949   0.563   2.733   3.034  0.1047 -0.3161 -0.3709
  317SOL    HW1  950   0.648   2.721   3.089 -1.7343 -0.6039 -2.4885
  317SOL    HW2  951   0.502   2.797   3.083  0.8294 -1.6506 -0.2167
  318SOL     OW  952   2.507   2.581   1.108  0.0312 -0.0984  0.6444
  318SOL    HW1  953   2.456   2.651   1.058  1.3915 -1.7876  1.5884
  318SOL    HW2  954   2.444   2.507   1.132  0.7802  2.2160  0.1094
  319SOL     OW  955   1.279   1.952   2.927 -0.0975  0.2453  0.0791
  319SOL    HW1  956   1.221   1.990   2.854  1.4026  1.8046  1.0474
  319SOL    HW2  957   1.309   1.862   2.899  0.5005 -0.3647 -1.8027
  320SOL     OW  958   0.451   1.976   1.299  0.3366 -0.0830 -0.7352
  320SOL    HW1  959   0.427   1.880   1.267  1.1330 -1.8417 -1.0686
  320SOL    HW2  960   0.433   1.994   1.399  0.3418  0.4973 -0.0182
  321SOL     OW  961   1.133   2.768   2.160  0.2307 -0.4104 -0.3301
  321SOL    HW1  962   1.164   2.817   2.076 -3.4327 -2.3427  1.8380
  321SOL    HW2  963   1.199   2.696   2.195 -3.1947 -0.8327 -2.5781
  322SOL     OW  964   2.530   1.984   1.847 -0.1113  0.6376 -0.1290
  322SOL    HW1  965   2.598   2.019   1.915  1.8729 -3.1218 -1.1034
  322SOL    HW2  966   2.508   2.066   1.783 -1.1786  4.8807 -0.6547
  323SOL     OW  967   2.828   0.531   0.962  0.4336  0.4643  0.1117
  323SOL    HW1  968   2.781   0.571   0.879 -0.8808 -1.0953 -1.9315
  323SOL    HW2  969   2.911   0.582   0.979 -2.0196 -1.3885 -0.4703
  324SOL     OW  970   2.645   2.579   2.471  0.2946  0.1582  0.2880
  324SOL    HW1  971   2.648   2.636   2.559  2.5355 -0.6146  1.1786
  324SOL    HW2  972   2.721   2.612   2.414  2.1794 -0.4202  0.4071
  325SOL     OW  973   1.132   0.311   2.637  0.1609 -0.3618 -0.3447
  325SOL    HW1  974   1.184   0.233   2.601 -0.6309  0.5199  1.5790
  325SOL    HW2  975   1.030   0.291   2.643 -2.1495 -1.3464  0.9367
  326SOL     OW  976   2.160   2.458   1.760  0.0492 -1.0157  0.1606
  326SOL    HW1  977   2.127   2.522   1.828  1.7605  1.9309  0.4056
  326SOL    HW2  978   2.127   2.368   1.777  3.7827 -0.3552 -1.8843
  327SOL     OW  979   2.437   3.025   2.909 -0.3235  0.1468  0.0352
  327SOL    HW1  980   2.426   0.010   2.920  1.7755  1.6550  0.6457
  327SOL    HW2  981   2.497   2.984   2.978 -0.5681 -1.0779 -1.6141
  328SOL     OW  982   0.188   1.362   1.978  0.1294 -0.0999 -0.1610
  328SOL    HW1  983   0.228   1.347   2.067 -0.9673 -0.4939  1.0362
  328SOL    HW2  984   0.122   1.443   1.982 -0.8143  2.2212  1.7888
  329SOL     OW  985   2.109   0.580   1.773  0.3374  0.4728 -0.2989
  329SOL    HW1  986   2.059   0.618   1.852 -0.7543  0.7610 -0.0788
  329SOL    HW2  987   2.161   0.654   1.728 -0.9443  1.7393  2.8174
  330SOL     OW  988   0.075   1.097   0.905  0.0949  0.4516 -0.2976
  330SOL    HW1  989   0.016   1.024   0.942 -0.6642  1.9849  0.0726
  330SOL    HW2  990   0.088   1.176   0.969 -1.7314 -1.6712 -0.3900
  331SOL     OW  991   0.148   1.785   2.097  0.0476  0.1357 -0.1608
  331SOL    HW1  992   0.052   1.763   2.117  0.1536  1.0457  1.0841
  331SOL    HW2  993   0.210   1.753   2.176  0.3800 -1.1427  1.7176
  332SOL     OW  994   0.155   2.523   1.601 -0.2419  0.1113 -0.4660
  332SOL    HW1  995   0.193   2.582   1.526  0.7217  0.8469  0.6152
  332SOL    HW2  996   0.076   2.467   1.562  0.7229 -0.8096 -0.9877
  333SOL     OW  997   2.548   0.211   1.092  0.7960  0.3931  0.7834
  333SOL    HW1  998   2.642   0.233   1.063 -1.6799 -2.2734  0.7888
  333SOL    HW2  999   2.526   0.112   1.106 -0.1265  1.9892  0.6542
  334SOL     OW 1000   0.133   1.627   0.690  0.0273 -0.1776 -0.0017
  334SOL    HW1 1001   0.129   1.537   0.643 -2.1524 -0.1781 -1.5629
  334SOL    HW2 1002   0.101   1.597   0.786 -0.7974 -0.4509 -1.3799
  335SOL     OW 1003   0.089   2.611   2.913  0.3790  0.2212  0.1212
  335SOL    HW1 1004   0.064   2.526   2.862  1.2628  2.3828 -1.6467
  335SOL    HW2 1005   0.168   2.661   2.867  0.5595 -1.8230  0.2255
  336SOL     OW 1006   2.853   2.786   2.404 -0.5680  0.4868 -0.6027
  336SOL    HW1 1007   2.900   2.762   2.494  2.0947 -0.1826  1.0775
  336SOL    HW2 1008   2.822   2.882   2.397 -0.4681 -2.4261 -2.3176
  337SOL     OW 1009   1.994   2.235   1.759 -0.3379 -0.3265 -0.4327
  337SOL    HW1 1010   2.021   2.182   1.675  1.1075  0.9336  0.7893
  337SOL    HW2 1011   1.898   2.273   1.754 -0.4693 -2.1194  1.5114
  338SOL     OW 1012   0.778   0.065   3.030 -0.1319  0.3704 -1.1758
  338SOL    HW1 1013   0.754   0.004   3.109 -0.3853 -0.6676  0.1755
  338SOL    HW2 1014   0.876   0.068   3.016 -1.3810  2.0895  0.4815
  339SOL     OW 1015   0.506   1.226   2.346 -0.1327 -0.1251 -0.2666
  339SOL    HW1 1016   0.547   1.254   2.437 -0.0089 -0.2517  1.6095
  339SOL    HW2 1017   0.574   1.175   2.291  1.3023 -0.1368 -1.1428
  340SOL     OW 1018   1.741   2.894   0.728 -0.4062 -0.5154 -0.1005
  340SOL    HW1 1019   1.772   2.820   0.794  0.6577 -0.2835 -0.9325
  340SOL    HW2 1020   1.762   2.989   0.769  0.8109  2.2482  2.4169
  341SOL     OW 1021   2.028   1.108   0.999  0.1780 -0.3995  0.0113
  341SOL    HW1 1022   2.002   1.037   1.069  0.5996 -0.9997 -1.3981
  341SOL    HW2 1023   2.033   1.203   1.030 -0.1034  0.9423  0.5144
  342SOL     OW 1024   2.593   2.896   3.100  0.4923  0.0829 -0.2006
  342SOL    HW1 1025   2.558   2.803   0.013  2.2062  5.0680  0.0044
  342SOL    HW2 1026   2.692   2.892   3.110 -0.9070 -1.1605  0.3107
  343SOL     OW 1027   1.017   2.261   1.745 -0.1746  0.4323 -0.1275
  343SOL    HW1 1028   0.955   2.310   1.805  0.8567  0.8370 -0.3344
  343SOL    HW2 1029   1.073   2.331   1.701 -2.8064  2.8291 -0.7415
  344SOL     OW 1030   2.516   2.669   1.578 -0.1109  1.0342  0.6740
  344SOL    HW1 1031   2.523   2.754   1.634  0.7873  0.7235  1.7166
  344SOL    HW2 1032   2.606   2.633   1.544  2.6819 -0.6121 -0.8218
  345SOL     OW 1033   2.642   1.883   2.952  0.6360 -0.1235  0.0129
  345SOL    HW1 1034   2.696   1.905   2.871 -0.2588  0.6879  1.9041
  345SOL    HW2 1035   2.688   1.820   3.010  0.0469 -0.0513 -2.9931
  346SOL     OW 1036   2.172   2.175   0.761 -0.4930 -0.5887 -0.0867
  346SOL    HW1 1037   2.195   2.276   0.750 -2.0946  0.7297  1.4711
  346SOL    HW2 1038   2.183   2.153   0.862  1.2918 -2.4637 -3.5760
  347SOL     OW 1039   1.416   2.005   1.125  0.1749 -0.1106 -0.0275
  347SOL    HW1 1040   1.350   2.053   1.066 -1.4602  3.5841 -0.2754
  347SOL    HW2 1041   1.373   1.938   1.191 -1.7662 -1.4221  2.3960
  348SOL     OW 1042   0.549   1.874   2.306  0.3322  0.3692  0.7740
  348SOL    HW1 1043   0.598   1.788   2.320 -1.5668  1.6570 -3.1152
  348SOL    HW2 1044   0.598   1.947   2.352 -0.6472 -0.1283 -2.0621
  349SOL     OW 1045   2.066   1.602   0.568  0.5207  0.1108 -0.5450
  349SOL    HW1 1046   2.124   1.520   0.552 -1.7929 -1.1218  0.9664
  349SOL    HW2 1047   2.019   1.629   0.482 -1.7494  3.2862  1.5650
  350SOL     OW 1048   2.839   2.566   0.681  0.0677 -0.1263 -0.4511
  350SOL    HW1 1049   2.811   2.564   0.781  0.1787 -1.9138  0.9339
  350SOL    HW2 1050   2.755   2.548   0.624  0.1209 -1.5674  0.3874
  351SOL     OW 1051   0.340   2.991   1.547 -0.2337  0.0173 -0.0728
  351SOL    HW1 1052   0.383   2.895   1.535  0.4374 -1.1452 -1.5036
  351SOL    HW2 1053   0.240   2.992   1.507  0.9725 -0.8161 -1.7645
  352SOL     OW 1054   0.359   1.444   1.249  0.4248  0.3159  0.2953
  352SOL    HW1 1055   0.278   1.405   1.289  0.8805  0.9812 -1.9779
  352SOL    HW2 1056   0.399   1.381   1.180  1.0401 -1.4333  2.8484
  353SOL     OW 1057   1.331   1.226   2.593 -0.2237 -0.1651  0.0314
  353SOL    HW1 1058   1.234   1.258   2.609 -1.1719  0.3854 -0.7835
  353SOL    HW2 1059   1.387   1.240   2.676  0.7400  0.1567 -1.4189
  354SOL     OW 1060   1.503   0.003   1.563  0.4282 -0.5333 -0.3547
  354SOL    HW1 1061   1.502   0.088   1.508 -0.6446 -1.0852 -2.7489
  354SOL    HW2 1062   1.513   0.014   1.663  0.6618  0.0305  0.3088
  355SOL     OW 1063   2.373   1.272   0.580 -0.3026 -0.1211  0.0336
  355SOL    HW1 1064   2.402   1.303   0.672 -1.4036 -0.6919  2.8807
  355SOL    HW2 1065   2.426   1.323   0.506 -0.0406 -0.1765 -3.2912
  356SOL     OW 1066   2.849   1.683   1.705  0.5107  0.4070  0.8059
  356SOL    HW1 1067   2.863   1.780   1.671  0.5152  1.3005  1.4567
  356SOL    HW2 1068   2.910   1.673   1.783 -1.8978  1.2915 -1.3100
  357SOL     OW 1069   0.550   2.643   1.406 -0.1426 -0.1082  0.2122
  357SOL    HW1 1070   0.446   2.639   1.408  0.2173 -1.3187  0.3738
  357SOL    HW2 1071   0.582   2.721   1.348  0.0798  1.1990  0.2831
  358SOL     OW 1072   2.646   1.347   1.881  0.8408 -0.6362  0.6152
  358SOL    HW1 1073   2.689   1.375   1.793 -2.7457 -1.0445 -0.5493
  358SOL    HW2 1074   2.556   1.296   1.864 -2.3095 -1.5369 -0.1991
  359SOL     OW 1075   2.238   2.754   2.435  0.6312  0.0072  0.4675
  359SOL    HW1 1076   2.213   2.652   2.420 -0.4366  1.8668  0.9368
  359SOL    HW2 1077   2.172   2.784   2.502  1.0990 -2.4126  1.4844
  360SOL     OW 1078   0.702   0.337   0.910  0.0340 -0.7791  0.4984
  360SOL    HW1 1079   0.685   0.370   0.813  0.8473  0.6336 -1.6041
  360SOL    HW2 1080   0.625   0.369   0.971  2.1293 -1.5355 -0.7545
  361SOL     OW 1081   1.952   0.192   0.985 -0.4626 -0.0155 -0.0641
  361SOL    HW1 1082   2.000   0.107   0.966  0.7605  2.3367  2.5508
  361SOL    HW2 1083   1.994   0.260   0.923  0.9484  0.4533  3.2015
  362SOL     OW 1084   1.675   1.180   1.035  0.5854  0.5428  0.3726
  362SOL    HW1 1085   1.715   1.085   1.046  0.1661  0.3629  1.5953
  362SOL    HW2 1086   1.687   1.209   0.938  1.6908 -0.2150  0.1902
  363SOL     OW 1087   2.262   1.579   2.171 -0.1261  0.2037 -0.0052
  363SOL    HW1 1088   2.358   1.537   2.175  3.1095  1.0523 -0.2440
  363SOL    HW2 1089   2.193   1.508   2.142  2.7436 -2.4173 -1.0030
  364SOL     OW 1090   0.261   3.079   1.159 -0.3075 -0.3203 -0.0869
  364SOL    HW1 1091   0.197   3.107   1.237 -1.1220  1.6301 -0.5193
  364SOL    HW2 1092   0.205   3.070   1.076  1.4631 -1.3423  3.7068
  365SOL     OW 1093   0.381   0.104   3.010 -0.0487 -0.4467 -0.1381
  365SOL    HW1 1094   0.440   0.134   2.936 -2.0070 -0.1895  5.3881
  365SOL    HW2 1095   0.299   0.162   3.017  1.5340 -1.4347  2.0353
  366SOL     OW 1096   2.155   2.285   0.034  0.3711 -0.4853 -0.1335
  366SOL    HW1 1097   2.226   2.212   0.056 -0.8171  0.0375  1.3542
  366SOL    HW2 1098   2.180   2.368   0.087 -0.9563  1.0423 -1.6943
  367SOL     OW 1099   2.543   2.497   2.975  0.1350  0.1888  0.2657
  367SOL    HW1 1100   2.517   2.398   2.969 -1.9542 -1.6533  1.0893
  367SOL    HW2 1101   2.641   2.504   2.975 -2.4169 -2.0628  0.1761
  368SOL     OW 1102   0.065   1.310   1.078  0.0541  0.5410 -0.6277
  368SOL    HW1 1103   3.101   1.306   1.140 -1.1161  1.7085  0.0440
  368SOL    HW2 1104   0.141   1.326   1.142  0.7413  1.8215  0.2222
  369SOL     OW 1105   0.823   2.876   2.888 -0.0444  0.2951  0.1842
  369SOL    HW1 1106   0.805   2.827   2.979  0.4889  0.0023  2.2005
  369SOL    HW2 1107   0.768   2.960   2.876  0.5469 -0.5109  0.3372
  370SOL     OW 1108   2.921   0.714   0.366 -1.1681 -0.1283  0.7276
  370SOL    HW1 1109   3.008   0.739   0.314 -1.2244  2.5243 -1.0391
  370SOL    HW2 1110   2.861   0.796   0.384  1.0869  0.8867  0.4419
  371SOL     OW 1111   1.730   2.619   0.842  0.5618  0.2140  0.0355
  371SOL    HW1 1112   1.774   2.567   0.768 -1.6017  0.4038  1.7285
  371SOL    HW2 1113   1.630   2.598   0.854 -0.3788  0.5824 -0.5029
  372SOL     OW 1114   3.043   0.998   2.957  0.0780  0.1716  0.0479
  372SOL    HW1 1115   3.036   0.946   3.044  0.1526 -0.3811  3.0279
  372SOL    HW2 1116   0.020   0.975   2.913 -0.4343  2.3146  0.6526
  373SOL     OW 1117   2.861   1.901   1.331  0.1992 -0.0098 -0.4397
  373SOL    HW1 1118   2.884   1.798   1.337  0.8482 -1.6532 -0.3030
  373SOL    HW2 1119   2.789   1.907   1.258  0.6711  0.7208  1.6451
  374SOL     OW 1120   0.463   2.857   0.182 -0.1549  0.1134 -0.4760
  374SOL    HW1 1121   0.410   2.898   0.106  4.5907  0.7290  1.7049
  374SOL    HW2 1122   0.538   2.922   0.208  0.0414 -0.4012  1.3104
  375SOL     OW 1123   0.507   0.124   0.143 -0.2766 -0.3847 -0.4414
  375SOL    HW1 1124   0.422   0.140   0.199 -0.1294  1.4004  0.1728
  375SOL    HW2 1125   0.487   0.094   0.051  1.5053  0.9028  0.4857
  376SOL     OW 1126   0.265   2.196   1.562 -0.0150  0.0525 -0.3914
  376SOL    HW1 1127   0.181   2.138   1.565 -2.1480  1.8356  0.3824
  376SOL    HW2 1128   0.243   2.290   1.531 -2.0906  1.4074 -1.8165
  377SOL     OW 1129   1.778   2.311   2.749  0.2582 -0.4140  0.3177
  377SOL    HW1 1130   1.820   2.274   2.664 -2.8098  1.0951  0.4019
  377SOL    HW2 1131   1.685   2.270   2.749 -0.6550 -1.5164 -1.1407
  378SOL     OW 1132   0.731   0.546   0.209  0.0927  0.1943  0.1514
  378SOL    HW1 1133   0.767   0.616   0.276  1.2555  2.1230 -0.5938
  378SOL    HW2 1134   0.768   0.453   0.229  1.2754 -1.3676  2.3499
  379SOL     OW 1135   0.419   1.257   0.594  0.3734 -0.0514  0.7196
  379SOL    HW1 1136   0.463   1.220   0.509  1.0006 -2.3369  1.9060
  379SOL    HW2 1137   0.486   1.316   0.642 -1.4466 -1.5752 -0.3319
  380SOL     OW 1138   3.059   1.954   1.884  0.0985  0.0023  0.0569
  380SOL    HW1 1139   3.075   1.857   1.853  0.0949 -1.6225 -0.4179
  380SOL    HW2 1140   0.016   1.988   1.949  0.1954  0.2782 -1.6977
  381SOL     OW 1141   0.644   1.158   2.009 -0.5374  0.6633 -0.5630
  381SOL    HW1 1142   0.717   1.082   1.996  1.3803 -0.9774  0.1346
  381SOL    HW2 1143   0.605   1.190   1.924 -1.6650  0.1737  3.5708
  382SOL     OW 1144   2.433   2.046   0.605 -0.0951 -0.0618 -0.2957
  382SOL    HW1 1145   2.381   2.117   0.656  0.8473 -0.0842  1.0585
  382SOL    HW2 1146   2.443   2.072   0.509  1.0740 -1.4516  1.0353
  383SOL     OW 1147   2.785   1.960   2.740  0.9419 -0.0171 -0.1177
  383SOL    HW1 1148   2.857   1.908   2.696 -0.0297 -0.8890 -3.9843
  383SOL    HW2 1149   2.805   2.055   2.729 -0.5404  0.2134 -1.7406
  384SOL     OW 1150   0.688   2.100   2.543  0.4144 -0.2029  0.1345
  384SOL    HW1 1151   0.745   2.181   2.571  0.7113 -2.1714  0.2834
  384SOL    HW2 1152   0.714   2.067   2.450  0.3605 -0.5691  0.4282
  385SOL     OW 1153   2.898   1.565   1.022 -0.0942  0.0628  0.5276
  385SOL    HW1 1154   2.811   1.625   1.018 -0.6671 -0.9909  1.0515
  385SOL    HW2 1155   2.873   1.486   0.962 -2.3004 -0.1215 -0.3553
  386SOL     OW 1156   2.021   1.294   1.210  0.2629 -0.5066 -0.2166
  386SOL    HW1 1157   1.922   1.281   1.197  1.6135 -0.3669 -0.9044
  386SOL    HW2 1158   2.051   1.392   1.196 -0.8475 -0.2575  0.7480
  387SOL     OW 1159   3.072   1.096   2.117  0.9564 -0.5466 -0.1422
  387SOL    HW1 1160   3.021   1.012   2.105 -1.2021  0.2359 -0.4602
  387SOL    HW2 1161   3.019   1.174   2.076  0.2656 -0.6021  3.5249
  388SOL     OW 1162   2.523   1.455   2.253 -0.0280 -0.0621  0.4389
  388SOL    HW1 1163   2.585   1.401   2.313 -0.0702 -0.3557  0.7464
  388SOL    HW2 1164   2.574   1.492   2.176  2.9724  1.6331  0.9630
  389SOL     OW 1165   2.099   1.357   2.111 -0.4481 -0.2975  0.2563
  389SOL    HW1 1166   2.009   1.319   2.114  3.3971  3.1915 -3.3860
  389SOL    HW2 1167   2.161   1.284   2.075 -2.1266  0.7538  0.5407
  390SOL     OW 1168   1.948   2.694   0.555 -0.5952 -0.2447  0.6103
  390SOL    HW1 1169   1.860   2.740   0.531 -0.3462 -0.8429 -0.8183
  390SOL    HW2 1170   1.931   2.603   0.598 -0.6740  0.0212  2.3221
  391SOL     OW 1171   2.278   1.875   0.857 -0.0670 -0.3894 -0.5014
  391SOL    HW1 1172   2.273   1.932   0.773  1.6222  0.8843 -2.6183
  391SOL    HW2 1173   2.191   1.885   0.911 -0.9812 -0.1949 -2.8879
  392SOL     OW 1174   0.059   2.790   1.246  0.7256  0.0990 -0.1799
  392SOL    HW1 1175   0.042   2.692   1.271  0.4091 -1.1807  0.8517
  392SOL    HW2 1176   3.093   2.821   1.206  1.4223  0.1379  1.3251
  393SOL     OW 1177   2.049   1.849   2.659 -0.0982  0.0242 -0.2095
  393SOL    HW1 1178   2.103   1.881   2.741  2.0938  0.9796  1.6813
  393SOL    HW2 1179   1.949   1.835   2.686 -1.7930  1.1104  0.1834
  394SOL     OW 1180   0.299   0.456   2.638 -0.4821 -0.0535  0.1446
  394SOL    HW1 1181   0.202   0.470   2.651  3.7416  1.1172 -0.1743
  394SOL    HW2 1182   0.324   0.535   2.580 -2.9068  3.0700  2.3503
  395SOL     OW 1183   0.621   0.676   0.764 -0.3402 -0.1316  0.0305
  395SOL    HW1 1184   0.664   0.594   0.713  3.8356 -3.0038 -1.5459
  395SOL    HW2 1185   0.697   0.744   0.791  0.4592 -1.1291  0.6589
  396SOL     OW 1186   1.200   1.046   0.261 -0.1442 -0.1937 -1.0485
  396SOL    HW1 1187   1.164   1.092   0.346 -0.0078  0.1309 -2.1764
  396SOL    HW2 1188   1.126   0.990   0.217 -0.3374 -1.1672  0.3967
  397SOL     OW 1189   0.472   1.006   2.139  0.1855  0.1857  0.3808
  397SOL    HW1 1190   0.538   1.062   2.085 -0.4993 -0.3101 -1.4707
  397SOL    HW2 1191   0.381   1.043   2.105 -1.3844  0.4531 -0.0466
  398SOL     OW 1192   0.989   3.080   0.222  0.1822 -0.5690 -0.4018
  398SOL    HW1 1193   1.000   2.996   0.278  1.1493  3.0095  0.1878
  398SOL    HW2 1194   1.074   3.107   0.176 -2.0425 -0.8193  1.1643
  399SOL     OW 1195   1.930   3.075   1.742 -0.4163 -0.5341 -0.1998
  399SOL    HW1 1196   1.929   0.060   1.773 -2.6225 -0.5119  2.4623
  399SOL    HW2 1197   1.859   3.054   1.671 -0.6791 -1.6549 -1.7025
  400SOL     OW 1198   0.830   1.610   1.892 -0.6135  0.6487  0.3255
  400SOL    HW1 1199   0.864   1.660   1.978  0.7790 -0.2837  1.3215
  400SOL    HW2 1200   0.826   1.674   1.810  0.3036 -1.8833 -1.8085
  401SOL     OW 1201   0.637   0.878   2.729 -0.2089  0.3678  0.1739
  401SOL    HW1 1202   0.702   0.837   2.786 -1.8003 -0.2895 -0.1272
  401SOL    HW2 1203   0.540   0.839   2.746 -3.3944  0.6801  1.2319
  402SOL     OW 1204   2.885   2.173   1.299 -0.2072 -0.2253  0.3563
  402SOL    HW1 1205   2.823   2.199   1.374  1.8377  0.0151  0.9612
  402SOL    HW2 1206   2.898   2.071   1.313 -0.9805  1.2815  2.0480
  403SOL     OW 1207   0.208   1.047   2.027  0.2858  0.2931  0.0773
  403SOL    HW1 1208   0.118   1.079   2.065  1.1103 -1.5877  0.6254
  403SOL    HW2 1209   0.206   1.051   1.925  0.7165 -0.2240 -0.4388
  404SOL     OW 1210   0.010   2.865   1.771  0.1260 -0.4539 -0.0052
  404SOL    HW1 1211   0.108   2.838   1.763  1.3374 -1.8391 -0.5428
  404SOL    HW2 1212   3.062   2.830   1.698 -1.4467  2.1143  0.7600
  405SOL     OW 1213   0.518   0.414   1.933 -0.0726 -0.6910 -0.5583
  405SOL    HW1 1214   0.457   0.348   1.893  1.9139  3.0529  0.6932
  405SOL    HW2 1215   0.491   0.445   2.032 -2.0974  0.0877  1.7280
  406SOL     OW 1216   1.663   2.067   2.525 -0.3452 -0.1127 -0.6375
  406SOL    HW1 1217   1.758   2.101   2.512  0.8885 -2.5766 -1.1591
  406SOL    HW2 1218   1.665   1.969   2.497 -1.0384  3.2181 -1.1446
  407SOL     OW 1219   1.512   1.310   2.414 -0.6907  0.4938  0.1490
  407SOL    HW1 1220   1.462   1.327   2.327  0.2673  0.1699 -2.9376
  407SOL    HW2 1221   1.448   1.273   2.487  1.9149 -2.1406 -0.8139
  408SOL     OW 1222   0.980   0.284   2.328  0.4364  0.8508 -0.3015
  408SOL    HW1 1223   0.894   0.226   2.324 -2.7932 -2.7641 -3.1515
  408SOL    HW2 1224   1.044   0.241   2.395 -2.0467  0.3683 -2.1218
  409SOL     OW 1225   0.322   1.934   0.074  0.5194 -0.1209 -0.1402
  409SOL    HW1 1226   0.404   1.896   0.020 -1.4340  0.3581  1.8488
  409SOL    HW2 1227   0.310   1.875   0.152  1.6048  0.0149 -3.4040
  410SOL     OW 1228   2.915   1.472   0.294  0.2217  0.5815 -0.0008
  410SOL    HW1 1229   2.971   1.559   0.296  1.6401  0.2522  0.7329
  410SOL    HW2 1230   2.885   1.456   0.196 -0.3417 -0.9048 -2.4320
  411SOL     OW 1231   2.797   0.267   1.009 -0.1553 -0.6154 -0.2262
  411SOL    HW1 1232   2.797   0.369   0.989  1.9528  1.5651  2.8495
  411SOL    HW2 1233   2.838   0.226   0.927 -0.0312  0.9037 -0.1730
  412SOL     OW 1234   1.331   0.956   1.214  0.2440  0.0549 -0.2054
  412SOL    HW1 1235   1.368   0.953   1.117 -0.5826 -0.0276  2.0692
  412SOL    HW2 1236   1.399   0.996   1.279  2.3412  0.5823  1.0974
  413SOL     OW 1237   0.818   2.594   1.355 -0.7346 -0.2244  0.1061
  413SOL    HW1 1238   0.824   2.554   1.264 -0.7633  1.7859  0.2026
  413SOL    HW2 1239   0.726   2.619   1.382  3.6511  0.4471 -1.7792
  414SOL     OW 1240   2.702   1.643   2.679 -0.4386  0.2057  0.5010
  414SOL    HW1 1241   2.743   1.694   2.601 -2.1369  0.5112 -0.0918
  414SOL    HW2 1242   2.755   1.671   2.761  0.3340  0.2194 -3.8281
  415SOL     OW 1243   0.437   2.342   2.944 -0.4827 -0.5341  0.1950
  415SOL    HW1 1244   0.377   2.266   2.916  3.1181  1.1679  2.8849
  415SOL    HW2 1245   0.404   2.391   3.029  0.4926  0.4078  0.7302
  416SOL     OW 1246   1.794   0.092   0.395 -0.0562 -0.6128  0.2238
  416SOL    HW1 1247   1.851   0.021   0.355 -1.5179  0.8130 -0.2727
  416SOL    HW2 1248   1.778   0.168   0.322  0.1668  2.3967  0.0079
  417SOL     OW 1249   0.396   0.654   0.902 -0.2211  0.5408 -0.6313
  417SOL    HW1 1250   0.352   0.733   0.945  0.8392 -0.8544 -1.2207
  417SOL    HW2 1251   0.488   0.676   0.865  2.4373 -0.4196  0.9007
  418SOL     OW 1252   2.559   0.712   1.763  0.5491  0.3735 -0.0223
  418SOL    HW1 1253   2.575   0.612   1.742  0.3048 -0.0939  0.6627
  418SOL    HW2 1254   2.558   0.769   1.675  0.8790  0.0147 -0.2491
  419SOL     OW 1255   0.031   0.136   0.551 -0.2469  0.4376 -0.1104
  419SOL    HW1 1256   3.100   0.225   0.567 -0.3717 -1.4583  0.7437
  419SOL    HW2 1257   3.078   0.063   0.534  1.5894  0.2558 -1.8374
  420SOL     OW 1258   0.143   1.308   1.378 -0.0204 -0.3253  0.1595
  420SOL    HW1 1259   0.131   1.341   1.474  0.9694  0.2234  1.3956
  420SOL    HW2 1260   0.125   1.205   1.373  0.4824 -2.2944  1.5917
  421SOL     OW 1261   1.123   2.696   0.645 -0.1420  0.3392 -0.1181
  421SOL    HW1 1262   1.053   2.771   0.645  1.1700 -1.1629  1.9014
  421SOL    HW2 1263   1.072   2.608   0.648  0.1351  0.2276  0.5844
  422SOL     OW 1264   0.268   0.582   1.367 -0.5937 -0.1677 -0.0757
  422SOL    HW1 1265   0.195   0.657   1.374 -2.2031  2.4856 -1.8617
  422SOL    HW2 1266   0.346   0.608   1.302  1.5546  0.0267  1.2705
  423SOL     OW 1267   1.081   1.075   1.206 -0.2259  0.1415 -0.1213
  423SOL    HW1 1268   1.162   1.018   1.230 -1.6941  0.1650 -0.5022
  423SOL    HW2 1269   1.095   1.088   1.106  0.4375 -1.1066 -0.2949
  424SOL     OW 1270   2.037   1.413   2.911  0.1612  0.0812 -0.0177
  424SOL    HW1 1271   2.134   1.437   2.910  1.6873 -2.1928 -3.0969
  424SOL    HW2 1272   1.987   1.477   2.849  2.4039  1.2417 -2.2586
  425SOL     OW 1273   0.036   0.550   2.095  0.2634 -0.0147 -0.0017
  425SOL    HW1 1274   0.063   0.636   2.142 -1.0968 -2.2420 -1.7631
  425SOL    HW2 1275   3.058   0.523   2.119  3.7293  2.4512  1.1282
  426SOL     OW 1276   0.002   2.737   0.029 -0.2891 -0.8898  0.1172
  426SOL    HW1 1277   0.013   2.683   3.059  0.3760 -1.9960 -0.2952
  426SOL    HW2 1278   0.081   2.722   0.090 -1.9620  3.6907 -3.1176
  427SOL     OW 1279   0.998   0.982   2.607  0.4481  0.0557 -0.2307
  427SOL    HW1 1280   1.065   0.983   2.528  1.5441  2.5743 -1.0458
  427SOL    HW2 1281   1.022   1.046   2.684 -0.4199  1.1327  0.5863
  428SOL     OW 1282   2.470   1.196   1.716  0.3320  0.0635  0.4062
  428SOL    HW1 1283   2.533   1.190   1.639  0.2832  0.9603  0.8526
  428SOL    HW2 1284   2.376   1.209   1.688  2.7816  1.0524  0.1860
  429SOL     OW 1285   2.384   2.709   0.879 -0.3131  0.7765  0.1887
  429SOL    HW1 1286   2.390   2.654   0.791 -1.0525  0.2014 -3.3445
  429SOL    HW2 1287   2.295   2.763   0.881 -1.2688  0.4779 -0.3087
  430SOL     OW 1288   1.172   1.513   2.388 -0.0478  0.3666  0.4135
  430SOL    HW1 1289   1.170   1.432   2.451 -1.4341  1.5380  1.4694
  430SOL    HW2 1290   1.125   1.588   2.436  0.9376 -0.3010 -1.6495
  431SOL     OW 1291   2.748   1.436   1.639 -0.2935 -0.3506 -0.4982
  431SOL    HW1 1292   2.717   1.439   1.539 -3.2733 -0.3205  0.5216
  431SOL    HW2 1293   2.797   1.522   1.660  2.2886 -4.3564 -0.9184
  432SOL     OW 1294   1.202   2.922   2.392 -0.2568 -0.1431 -0.0527
  432SOL    HW1 1295   1.181   2.849   2.328  0.2238  0.1414  2.3913
  432SOL    HW2 1296   1.215   2.877   2.482 -1.1795 -1.9983 -1.1069
  433SOL     OW 1297   1.927   0.228   2.300 -0.6318  0.1962  0.1679
  433SOL    HW1 1298   1.988   0.149   2.328  1.5003  2.1460 -2.6462
  433SOL    HW2 1299   1.963   0.273   2.215  1.3264 -0.0325 -2.7615
  434SOL     OW 1300   0.317   2.810   2.234 -0.4928  0.2476  0.0447
  434SOL    HW1 1301   0.250   2.761   2.293 -3.0682 -1.0493 -0.0048
  434SOL    HW2 1302   0.269   2.832   2.145  0.4913 -0.7609  1.7647
  435SOL     OW 1303   3.006   2.575   0.359 -0.6464 -0.3485 -0.0096
  435SOL    HW1 1304   3.020   2.573   0.460  0.5796 -0.1667 -0.5351
  435SOL    HW2 1305   2.938   2.651   0.333  0.2953  0.3453 -2.1020
  436SOL     OW 1306   0.800   0.480   1.865 -0.2908 -0.3901 -0.3152
  436SOL    HW1 1307   0.701   0.465   1.882  1.0595 -1.0988  1.3011
  436SOL    HW2 1308   0.827   0.576   1.839  0.7649 -2.5700  0.6824
  437SOL     OW 1309   0.425   2.950   2.647 -0.8336  0.2601 -0.3930
  437SOL    HW1 1310   0.456   2.942   2.552  1.2444 -1.5195  1.9170
  437SOL    HW2 1311   0.501   2.975   2.709  0.0756  3.1397 -2.3689
  438SOL     OW 1312   0.566   1.296   1.786 -0.2452 -0.1091  0.6190
  438SOL    HW1 1313   0.621   1.268   1.706 -0.0945 -3.0923 -1.1382
  438SOL    HW2 1314   0.573   1.394   1.818  0.8881 -3.9496  2.7477
  439SOL     OW 1315   2.189   1.033   2.304 -0.0915 -0.0622 -0.6896
  439SOL    HW1 1316   2.278   1.073   2.285 -0.4307 -1.4028 -0.6971
  439SOL    HW2 1317   2.170   1.033   2.405 -0.9347  0.4481  0.0592
  440SOL     OW 1318   0.299   0.815   0.083  0.1587 -0.7108 -0.1704
  440SOL    HW1 1319   0.359   0.736   0.091  1.4252  0.4770  1.1809
  440SOL    HW2 1320   0.217   0.808   0.150  0.6339 -0.4866  0.8463
  441SOL     OW 1321   1.104   2.354   1.179  0.2326  0.0869  0.2687
  441SOL    HW1 1322   1.176   2.426   1.194 -3.5044  1.5662  0.6204
  441SOL    HW2 1323   1.025   2.396   1.130  3.4156  0.3288  0.5092
  442SOL     OW 1324   2.454   1.393   0.829  0.1582 -0.1209  0.3409
  442SOL    HW1 1325   2.408   1.370   0.915  0.4950  1.6825  0.5516
  442SOL    HW2 1326   2.472   1.493   0.828 -2.1600  3.2084 -1.7095
  443SOL     OW 1327   2.775   2.030   2.285  0.0113  0.0787 -0.0619
  443SOL    HW1 1328   2.746   2.125   2.273  2.9962 -1.2293  1.1531
  443SOL    HW2 1329   2.726   1.961   2.226 -2.3551  0.7834  0.4347
  444SOL     OW 1330   1.741   1.440   0.042  0.4515 -0.0446  0.1158
  444SOL    HW1 1331   1.833   1.404   0.068  0.9670  1.4497  1.3271
  444SOL    HW2 1332   1.668   1.380   0.088 -1.6635 -0.9726  0.6890
  445SOL     OW 1333   2.691   2.700   2.123  0.1829  0.2734  0.3002
  445SOL    HW1 1334   2.673   2.664   2.030  1.7017 -2.4503  0.3481
  445SOL    HW2 1335   2.784   2.673   2.152 -1.3428 -1.9644 -0.7176
  446SOL     OW 1336   0.171   1.034   1.415  0.1250 -0.2290 -0.0474
  446SOL    HW1 1337   0.220   1.017   1.507  0.1549 -0.4584  1.7333
  446SOL    HW2 1338   0.116   0.957   1.388  0.5757  1.7224 -0.6633
  447SOL     OW 1339   0.938   1.739   0.937  0.1257 -0.1391  0.3541
  447SOL    HW1 1340   0.865   1.702   0.995 -0.0355  2.5553 -2.1441
  447SOL    HW2 1341   0.903   1.750   0.842 -0.8053  0.6185 -1.0190
  448SOL     OW 1342   1.328   1.000   1.670  0.2013  0.3388  0.6711
  448SOL    HW1 1343   1.334   1.014   1.769 -0.3100 -1.7427 -2.2569
  448SOL    HW2 1344   1.288   0.907   1.651  1.8020  0.4489  1.7734
  449SOL     OW 1345   0.048   2.249   2.211 -0.3205  0.0344 -0.1589
  449SOL    HW1 1346   0.066   2.337   2.161  1.7417 -2.9375 -0.5556
  449SOL    HW2 1347   0.099   2.173   2.171  2.3164  1.8974 -0.7354
  450SOL     OW 1348   2.876   2.152   1.767 -0.3228  0.2576  0.4100
  450SOL    HW1 1349   2.923   2.220   1.707  0.4078  0.9723 -1.2929
  450SOL    HW2 1350   2.941   2.102   1.822 -1.2953  1.0980 -0.4986
  451SOL     OW 1351   2.299   0.783   1.310  0.0914 -0.0084  0.3386
  451SOL    HW1 1352   2.279   0.698   1.359  0.6958  0.5333 -0.8058
  451SOL    HW2 1353   2.315   0.751   1.213 -0.7058  0.4140  0.9906
  452SOL     OW 1354   0.391   1.233   1.076 -0.3926  0.7571 -0.2508
  452SOL    HW1 1355   0.437   1.174   1.004  2.5670 -3.1859  1.3793
  452SOL    HW2 1356   0.379   1.185   1.162 -3.2602 -1.2823 -0.8593
  453SOL     OW 1357   0.683   1.806   1.112  0.0113 -0.0932 -0.1446
  453SOL    HW1 1358   0.712   1.896   1.156 -0.9933  0.5643  1.0357
  453SOL    HW2 1359   0.714   1.726   1.163 -0.1672  2.9298  1.6309
  454SOL     OW 1360   0.593   1.602   0.069 -0.2394  0.1957 -0.5284
  454SOL    HW1 1361   0.565   1.686   0.024 -0.5538  0.5633 -0.2970
  454SOL    HW2 1362   0.570   1.527   0.003  1.1280  2.9316 -0.2709
  455SOL     OW 1363   1.833   0.899   0.627  0.2566 -0.3337  0.2612
  455SOL    HW1 1364   1.796   0.844   0.702  2.1675 -1.9800  1.9564
  455SOL    HW2 1365   1.759   0.958   0.581 -3.4058  0.2510 -2.2330
  456SOL     OW 1366   2.082   2.521   0.832  0.3132  0.4201  0.1501
  456SOL    HW1 1367   2.085   2.619   0.865  0.7101  0.5194  0.3915
  456SOL    HW2 1368   2.169   2.473   0.852  1.7850 -1.0295 -0.5299
  457SOL     OW 1369   2.020   2.806   2.603 -0.5007  0.3806 -0.0970
  457SOL    HW1 1370   1.961   2.885   2.579 -0.7881  0.4077  0.8363
  457SOL    HW2 1371   1.972   2.721   2.572 -0.8109 -0.1764 -0.4835
  458SOL     OW 1372   2.164   0.461   0.370 -0.2004 -0.0420 -0.3433
  458SOL    HW1 1373   2.217   0.524   0.430 -1.6022  0.0741  1.0640
  458SOL    HW2 1374   2.106   0.515   0.304  2.3497  1.5234  3.9848
  459SOL     OW 1375   0.062   1.120   2.371 -0.1168 -0.2888  0.3136
  459SOL    HW1 1376   0.027   1.186   2.439 -0.1091  2.6910  1.1540
  459SOL    HW2 1377   0.016   1.136   2.283  3.5943 -2.4579  0.9746
  460SOL     OW 1378   0.576   0.898   0.247  0.2726 -0.3083 -0.2930
  460SOL    HW1 1379   0.631   0.908   0.163 -2.5586  0.0482 -1.2469
  460SOL    HW2 1380   0.481   0.861   0.227 -2.4155  2.5128  1.0167
  461SOL     OW 1381   2.775   2.577   0.944 -0.3611  0.4176  0.2641
  461SOL    HW1 1382   2.768   2.677   0.956 -0.5351  0.2941 -1.2086
  461SOL    HW2 1383   2.713   2.523   1.002  0.7056 -0.4345  0.0241
  462SOL     OW 1384   0.333   0.292   1.682  0.2402 -0.1736  0.2299
  462SOL    HW1 1385   0.296   0.385   1.665 -0.6703 -1.2794 -2.7151
  462SOL    HW2 1386   0.343   0.241   1.596 -0.1759  1.1761  3.6953
  463SOL     OW 1387   1.964   2.244   2.036 -0.6391  0.6504  0.3860
  463SOL    HW1 1388   2.015   2.169   2.081 -0.4086  0.1054 -0.8751
  463SOL    HW2 1389   1.977   2.227   1.935  0.1406 -0.1276 -0.6305
  464SOL     OW 1390   0.389   0.138   1.466  0.1729  0.0063  0.2071
  464SOL    HW1 1391   0.489   0.160   1.470 -0.3808  0.7556 -1.3409
  464SOL    HW2 1392   0.372   0.036   1.471 -0.2574 -1.1479  1.5310
  465SOL     OW 1393   0.735   3.094   1.360 -0.0018 -0.0688 -0.3715
  465SOL    HW1 1394   0.824   3.105   1.316  1.8768  0.1267  0.3875
  465SOL    HW2 1395   0.714   0.064   1.411  1.4731 -1.0698 -0.3124
  466SOL     OW 1396   1.353   1.991   1.715 -0.6200 -0.0662 -0.1715
  466SOL    HW1 1397   1.423   1.922   1.680 -0.2812  0.5098  1.9922
  466SOL    HW2 1398   1.269   1.940   1.741  1.1933 -1.0982  0.3607
  467SOL     OW 1399   0.124   1.839   1.381 -0.1901  0.2595  0.5179
  467SOL    HW1 1400   0.069   1.757   1.421 -2.0142 -2.8216 -1.1345
  467SOL    HW2 1401   0.210   1.810   1.337 -0.0715  2.0627  4.0854
  468SOL     OW 1402   2.537   1.913   2.634  0.0927 -0.0200 -0.6166
  468SOL    HW1 1403   2.623   1.953   2.672  1.6945  1.3362 -1.3968
  468SOL    HW2 1404   2.473   1.897   2.709  0.0256  0.2241 -0.4463
  469SOL     OW 1405   1.366   2.318   0.550  0.2259  0.5013 -0.4111
  469SOL    HW1 1406   1.450   2.298   0.499  0.3082 -3.7144 -2.4755
  469SOL    HW2 1407   1.292   2.353   0.490 -0.5698 -1.3632  2.7015
  470SOL     OW 1408   2.102   1.554   1.127 -0.0858  0.3714  0.3652
  470SOL    HW1 1409   2.152   1.641   1.147  0.1523  2.8692 -0.1015
  470SOL    HW2 1410   2.056   1.558   1.039  0.2156  3.0075  1.1375
  471SOL     OW 1411   0.322   2.466   0.061 -0.4010  0.0742  0.3792
  471SOL    HW1 1412   0.240   2.516   0.090  0.8496  1.2722 -2.7618
  471SOL    HW2 1413   0.396   2.502   0.122  0.1227  1.6930  3.4247
  472SOL     OW 1414   2.720   2.098   1.979 -0.3115 -0.1609 -0.0217
  472SOL    HW1 1415   2.765   2.113   1.888  0.4823  4.1019 -1.0350
  472SOL    HW2 1416   2.657   2.179   2.000  0.1234  4.0072  1.6943
  473SOL     OW 1417   1.145   2.950   0.826  0.1353  0.1220 -0.1092
  473SOL    HW1 1418   1.193   3.027   0.784 -1.0251  1.4062  2.1095
  473SOL    HW2 1419   1.190   2.857   0.806 -0.5767 -1.2346  0.0899
  474SOL     OW 1420   2.884   0.102   1.241  0.4845  0.7245  0.1107
  474SOL    HW1 1421   2.881   0.165   1.160  0.5844  0.4529 -0.6787
  474SOL    HW2 1422   2.925   0.151   1.324  1.7645 -0.5734  0.8047
  475SOL     OW 1423   1.776   2.677   1.701 -0.3842  0.2694 -0.0491
  475SOL    HW1 1424   1.878   2.685   1.681  0.8905  1.2403  0.1918
  475SOL    HW2 1425   1.714   2.677   1.619  0.6562 -1.0645  2.5876
  476SOL     OW 1426   0.347   0.400   0.949 -0.5561 -0.1355 -0.0261
  476SOL    HW1 1427   0.358   0.502   0.929  0.8249  0.3770  0.7636
  476SOL    HW2 1428   0.269   0.381   1.014 -2.7527 -2.8730 -0.0864
  477SOL     OW 1429   0.796   2.355   0.889  0.4881  0.5018  0.3836
  477SOL    HW1 1430   0.697   2.376   0.895  3.4304 -0.2572  0.3020
  477SOL    HW2 1431   0.822   2.268   0.840 -0.5225 -0.2434  0.8509
  478SOL     OW 1432   0.504   2.582   2.830  0.1892  0.1917  0.1473
  478SOL    HW1 1433   0.471   2.487   2.852  2.3402 -1.3346  0.6270
  478SOL    HW2 1434   0.535   2.637   2.913  4.3607 -1.8152  2.5851
  479SOL     OW 1435   0.397   0.734   2.177  0.5006 -0.2994 -0.5594
  479SOL    HW1 1436   0.300   0.761   2.167  1.7144 -0.2464 -0.2863
  479SOL    HW2 1437   0.457   0.815   2.164  0.8398  0.8898  1.7382
  480SOL     OW 1438   3.096   2.125   0.014  0.6066 -0.0803  0.3560
  480SOL    HW1 1439   3.107   2.224   0.024 -1.6729  0.4026 -0.8633
  480SOL    HW2 1440   0.022   2.093   3.044 -0.6801 -0.4313  2.0619
  481SOL     OW 1441   1.344   2.156   2.030  0.5977 -0.2913 -0.6935
  481SOL    HW1 1442   1.396   2.070   2.040  2.8411  0.3335  1.1182
  481SOL    HW2 1443   1.397   2.226   1.974  1.2361  0.1814  1.0302
  482SOL     OW 1444   1.524   2.134   2.743 -0.1916  0.4166 -1.0482
  482SOL    HW1 1445   1.432   2.096   2.760 -0.9382  0.9445  0.9488
  482SOL    HW2 1446   1.562   2.108   2.653  0.4418 -0.0605 -2.2097
  483SOL     OW 1447   0.916   2.460   2.816  0.1235 -0.3711  0.3798
  483SOL    HW1 1448   0.869   2.544   2.772 -0.4678  1.9497 -0.0285
  483SOL    HW2 1449   0.981   2.484   2.892  2.1303  0.9646  2.8109
  484SOL     OW 1450   3.105   0.163   0.949 -0.0780 -0.2063  0.1480
  484SOL    HW1 1451   3.030   0.164   0.876 -1.4842 -1.5612 -0.1027
  484SOL    HW2 1452   0.029   0.071   0.954 -1.1577  1.2258  1.8155
  485SOL     OW 1453   1.865   0.812   0.368  0.3456  0.0758 -0.3486
  485SOL    HW1 1454   1.855   0.846   0.463  0.3012  0.2729 -1.5152
  485SOL    HW2 1455   1.776   0.769   0.345  0.7154  2.1000 -1.9327
  486SOL     OW 1456   1.776   2.643   2.212  0.5794  0.1705 -0.0461
  486SOL    HW1 1457   1.838   2.704   2.158  1.6639  0.2515 -1.4065
  486SOL    HW2 1458   1.683   2.678   2.246 -0.7274 -2.9558  0.2033
  487SOL     OW 1459   1.792   2.258   0.838  0.4308 -0.2982 -0.2295
  487SOL    HW1 1460   1.772   2.158   0.824 -1.7737 -0.4045  0.6449
  487SOL    HW2 1461   1.710   2.300   0.891  0.0384  1.4065 -0.6035
  488SOL     OW 1462   2.246   0.961   0.048  0.1576  0.3043  0.1163
  488SOL    HW1 1463   2.191   0.930   0.130 -0.4555  1.3470  2.8304
  488SOL    HW2 1464   2.328   0.894   0.035  2.8581 -5.3230  0.0848
  489SOL     OW 1465   2.437   0.185   0.620  0.2267  0.0706  0.2678
  489SOL    HW1 1466   2.431   0.095   0.674 -3.4367 -2.4442  2.4425
  489SOL    HW2 1467   2.343   0.217   0.595  1.1587  1.5464  1.5618
  490SOL     OW 1468   1.782   2.797   2.906  0.7022 -0.0661  0.4115
  490SOL    HW1 1469   1.825   2.800   3.000  2.6762  2.6856  2.5969
  490SOL    HW2 1470   1.738   2.706   2.891 -0.9598  2.0377 -0.8572
  491SOL     OW 1471   0.895   0.558   1.243 -0.0042 -0.8288 -0.4021
  491SOL    HW1 1472   0.985   0.558   1.198 -3.7316  0.5584 -1.6383
  491SOL    HW2 1473   0.857   0.468   1.218 -1.6674 -0.8803 -2.7088
  492SOL     OW 1474   1.746   0.248   0.178  0.1104 -0.3721  0.2583
  492SOL    HW1 1475   1.716   0.175   0.111  1.0269  1.1375  1.1296
  492SOL    HW2 1476   1.832   0.288   0.140  0.1243  1.5151  2.0409
  493SOL     OW 1477   2.045   2.253   2.871 -0.1871  0.0919  0.2046
  493SOL    HW1 1478   2.076   2.304   2.953  1.5316 -0.7771  1.0691
  493SOL    HW2 1479   1.948   2.277   2.851 -0.7971 -0.3534  1.0748
  494SOL     OW 1480   0.340   1.096   0.805 -0.0474 -0.3557 -0.0863
  494SOL    HW1 1481   0.356   1.160   0.723  0.8866  0.8026 -0.1651
  494SOL    HW2 1482   0.260   1.123   0.857  1.3052 -2.9458  1.0443
  495SOL     OW 1483   3.021   3.099   1.554 -0.4489  0.2012 -0.4737
  495SOL    HW1 1484   3.002   0.067   1.501 -0.4715  1.6020  0.0890
  495SOL    HW2 1485   3.058   0.013   1.648 -0.0240  2.2885  1.2975
  496SOL     OW 1486   2.576   2.899   1.720 -0.3897 -0.1343  0.2234
  496SOL    HW1 1487   2.647   2.912   1.649 -1.4436 -0.2428  2.3147
  496SOL    HW2 1488   2.622   2.916   1.813  1.5999 -0.4722  4.3752
  497SOL     OW 1489   1.537   1.594   2.509  0.5805  0.0371  0.0447
  497SOL    HW1 1490   1.515   1.597   2.608  0.8314  1.7239 -0.4686
  497SOL    HW2 1491   1.542   1.501   2.476  2.1640 -1.3884  1.5871
  498SOL     OW 1492   0.398   1.971   0.733 -0.2126  0.4194  0.3344
  498SOL    HW1 1493   0.366   1.908   0.661  1.6315  2.9169  0.9329
  498SOL    HW2 1494   0.326   1.997   0.801  1.0538  2.8297  0.1851
  499SOL     OW 1495   3.109   1.614   1.490  0.2200 -0.2377  0.5594
  499SOL    HW1 1496   0.041   1.524   1.508  3.3489 -1.8646 -0.6158
  499SOL    HW2 1497   3.020   1.596   1.442 -2.1616  0.8857 -2.1702
  500SOL     OW 1498   1.523   2.536   0.283  0.0182  0.5468 -0.3884
  500SOL    HW1 1499   1.531   2.438   0.310 -0.8357  0.1237 -1.4711
  500SOL    HW2 1500   1.471   2.595   0.353 -0.6142  1.6729  1.2286
  501SOL     OW 1501   2.184   2.576   1.185  0.2294 -0.0515 -0.3784
  501SOL    HW1 1502   2.252   2.620   1.245 -0.1587 -1.7497 -3.1849
  501SOL    HW2 1503   2.217   2.489   1.145 -4.2580  2.0656  1.7650
  502SOL     OW 1504   0.031   0.817   1.660  0.3959  0.1664 -0.1109
  502SOL    HW1 1505   0.122   0.862   1.664  0.2342 -1.0037 -0.9800
  502SOL    HW2 1506   0.028   0.725   1.702 -1.5391  0.5189 -0.7338
  503SOL     OW 1507   2.276   0.059   1.956  0.0605 -0.0075 -0.4399
  503SOL    HW1 1508   2.361   0.040   2.010  1.2164 -1.2715  1.0830
  503SOL    HW2 1509   2.278   0.162   1.930  1.8486  2.4233 -0.4814
  504SOL     OW 1510   1.999   0.691   1.988  0.1070 -0.1632  0.2626
  504SOL    HW1 1511   1.969   0.774   1.933 -0.4828  1.1659  1.8191
  504SOL    HW2 1512   2.053   0.717   2.069 -2.1870 -0.4054 -1.7698
  505SOL     OW 1513   1.287   0.095   2.544  0.5540  0.3649  0.0626
  505SOL    HW1 1514   1.292   0.019   2.607  0.2769  1.2066 -0.7661
  505SOL    HW2 1515   1.318   0.071   2.447  0.4521  2.0978  1.7620
  506SOL     OW 1516   0.534   0.607   1.726 -0.1912  0.0299 -0.3904
  506SOL    HW1 1517   0.573   0.556   1.647  0.4140 -0.1139  0.6294
  506SOL    HW2 1518   0.529   0.543   1.810 -1.3827 -1.1317  0.9995
  507SOL     OW 1519   1.914   3.039   2.873 -0.0140 -0.4234 -0.4716
  507SOL    HW1 1520   1.859   3.111   2.840  1.6033 -2.4511  0.4231
  507SOL    HW2 1521   1.866   2.953   2.871  0.6690 -0.2136 -1.0018
  508SOL     OW 1522   2.433   0.276   2.707 -0.1137  0.7154 -0.2740
  508SOL    HW1 1523   2.446   0.243   2.810  0.8921 -1.1744  3.3447
  508SOL    HW2 1524   2.479   0.364   2.695  0.9341 -1.6934  1.0894
  509SOL     OW 1525   1.012   1.386   1.844 -1.1016 -0.4618  0.0167
  509SOL    HW1 1526   0.936   1.433   1.898  0.7414  0.1595  1.1240
  509SOL    HW2 1527   0.980   1.337   1.763 -2.2898 -2.7031  3.3285
  510SOL     OW 1528   3.006   0.924   0.997  0.2721 -0.0608 -0.0753
  510SOL    HW1 1529   3.032   0.827   0.985 -1.0564 -2.3719 -1.7810
  510SOL    HW2 1530   2.923   0.952   0.944  2.1602  0.4433  2.9151
  511SOL     OW 1531   1.577   1.821   0.961 -0.3406 -0.1995 -0.3156
  511SOL    HW1 1532   1.513   1.874   1.020  2.4885 -1.4026  1.3446
  511SOL    HW2 1533   1.540   1.729   0.946  1.4486  1.9050 -0.9746
  512SOL     OW 1534   0.726   1.364   0.366 -0.2812  0.1954 -0.1347
  512SOL    HW1 1535   0.639   1.408   0.342 -0.5036  0.7989  0.4112
  512SOL    HW2 1536   0.781   1.409   0.439  0.2001 -1.5374 -0.2251
  513SOL     OW 1537   0.063   2.518   0.570  0.2548  0.3193 -0.3672
  513SOL    HW1 1538   0.055   2.598   0.631  1.2320  1.8867  1.6916
  513SOL    HW2 1539   0.157   2.502   0.536 -0.7597 -1.3023 -1.5766
  514SOL     OW 1540   0.131   1.936   3.001 -0.9035  0.2412  0.3726
  514SOL    HW1 1541   0.202   1.980   3.067  2.0981  1.2657  3.0735
  514SOL    HW2 1542   0.147   1.835   3.010  1.5470  2.7618 -1.2563
  515SOL     OW 1543   2.301   0.807   0.345  0.1238  0.3103  0.3258
  515SOL    HW1 1544   2.289   0.725   0.408 -3.8590 -0.2822  0.6495
  515SOL    HW2 1545   2.315   0.775   0.246  0.6318 -0.2450 -1.4673
  516SOL     OW 1546   2.347   2.658   1.358  0.1121 -0.3301  0.0177
  516SOL    HW1 1547   2.397   2.660   1.446 -1.9317 -0.5907 -1.7783
  516SOL    HW2 1548   2.336   2.752   1.318 -1.1682  1.6964 -0.3549
  517SOL     OW 1549   1.315   1.626   0.007 -0.1424 -0.0960  0.1925
  517SOL    HW1 1550   1.419   1.625   0.013  0.9271  0.2078 -0.3830
  517SOL    HW2 1551   1.281   1.708   0.053 -0.2988 -0.0103  0.4046
  518SOL     OW 1552   1.221   0.706   1.763 -0.0084  0.2911 -0.1435
  518SOL    HW1 1553   1.179   0.723   1.856  0.0039  1.8451  0.7965
  518SOL    HW2 1554   1.254   0.610   1.751 -0.8069  1.0550 -1.4293
  519SOL     OW 1555   2.858   2.069   0.855 -0.0002 -0.5493 -0.2761
  519SOL    HW1 1556   2.877   1.975   0.893 -0.3446 -4.6691  0.6872
  519SOL    HW2 1557   2.828   2.069   0.759  1.3088 -2.0184 -0.0846
  520SOL     OW 1558   2.278   2.052   1.624 -0.4774  0.6320 -0.1020
  520SOL    HW1 1559   2.251   1.990   1.701 -1.7736  1.8003 -2.2259
  520SOL    HW2 1560   2.198   2.063   1.564  0.0170 -1.2837  1.2902
  521SOL     OW 1561   1.004   0.062   2.509  0.1365  0.0369 -0.0434
  521SOL    HW1 1562   1.101   0.063   2.531 -2.8893 -1.0253 -1.9344
  521SOL    HW2 1563   0.976   3.101   2.448  1.7385 -2.5792  1.9811
  522SOL     OW 1564   2.685   0.221   2.509 -0.1546 -0.1619  0.2601
  522SOL    HW1 1565   2.700   0.291   2.433  2.5609 -1.3643  0.2953
  522SOL    HW2 1566   2.601   0.168   2.478 -0.5572  0.1251 -1.7199
  523SOL     OW 1567   1.523   2.379   1.567 -0.7801 -0.1390 -0.0998
  523SOL    HW1 1568   1.528   2.481   1.566  2.8532 -0.5213  0.3848
  523SOL    HW2 1569   1.551   2.340   1.657 -0.2718  1.3256 -0.7419
  524SOL     OW 1570   1.656   2.067   2.989  0.1302 -1.0070 -0.1906
  524SOL    HW1 1571   1.634   2.097   2.894  2.2221 -0.8507  0.8953
  524SOL    HW2 1572   1.743   2.022   2.998 -4.2680  2.4152 -0.7978
  525SOL     OW 1573   0.081   0.776   0.271  0.4677  0.2447 -0.1065
  525SOL    HW1 1574   0.114   0.859   0.318 -0.9251 -1.1220 -3.4817
  525SOL    HW2 1575   0.091   0.696   0.332 -1.0490  1.7164  2.4450
  526SOL     OW 1576   0.907   3.027   0.980 -0.0039 -0.0486  0.1567
  526SOL    HW1 1577   0.974   3.002   0.908  0.6999 -2.6122  1.5573
  526SOL    HW2 1578   0.840   3.103   0.964 -1.6317 -0.3869  0.1685
  527SOL     OW 1579   2.725   1.482   0.489  0.0803  1.3477  0.4796
  527SOL    HW1 1580   2.753   1.553   0.558  0.3049  1.3780 -1.1111
  527SOL    HW2 1581   2.811   1.453   0.437  5.0414  0.6285  0.9388
  528SOL     OW 1582   0.720   0.865   2.219  0.1152  0.3973  0.4538
  528SOL    HW1 1583   0.722   0.878   2.317  2.7801  1.9767 -5.7283
  528SOL    HW2 1584   0.638   0.910   2.177 -0.1716 -1.3770 -0.9380
  529SOL     OW 1585   1.201   1.628   2.853  0.8729 -0.0115  0.0831
  529SOL    HW1 1586   1.209   1.609   2.950 -1.0094  0.5882  0.3992
  529SOL    HW2 1587   1.280   1.589   2.803 -0.9457 -0.2827 -0.9776
  530SOL     OW 1588   1.760   1.223   2.436  0.7551  0.1163  0.0592
  530SOL    HW1 1589   1.659   1.237   2.431  1.6139  0.0037  0.5490
  530SOL    HW2 1590   1.793   1.162   2.512  2.1090 -0.8619 -0.5659
  531SOL     OW 1591   0.723   2.293   2.993  0.9969 -0.3228  0.5400
  531SOL    HW1 1592   0.627   2.306   2.962  1.7818 -0.3133 -1.2285
  531SOL    HW2 1593   0.790   2.323   2.924  2.5820  1.0439 -2.8478
  532SOL     OW 1594   2.503   0.996   0.440 -0.2006  0.8789 -0.0930
  532SOL    HW1 1595   2.486   1.093   0.412  0.9160 -3.1810 -2.1809
  532SOL    HW2 1596   2.424   0.939   0.405 -0.5160  0.0968  0.2952
  533SOL     OW 1597   0.056   0.594   1.812  0.6074  0.3377 -0.3571
  533SOL    HW1 1598   0.134   0.539   1.776  1.5623 -0.9036  0.5238
  533SOL    HW2 1599   0.062   0.592   1.914  1.5276 -0.0737 -0.6549
  534SOL     OW 1600   1.595   0.083   0.016  0.3225 -0.4098  0.0432
  534SOL    HW1 1601   1.519   0.149   0.031  2.3588  0.0102 -2.8312
  534SOL    HW2 1602   1.574   0.021   3.055 -1.6554  1.1196  1.4448
  535SOL     OW 1603   0.733   0.274   0.172  0.1919 -0.2656 -0.5711
  535SOL    HW1 1604   0.642   0.222   0.172 -0.6534 -1.4466  0.9591
  535SOL    HW2 1605   0.751   0.322   0.083  0.0879 -1.2901 -2.4963
  536SOL     OW 1606   0.303   1.708   1.873 -0.2848  0.2476  0.1334
  536SOL    HW1 1607   0.271   1.745   1.960  0.6190  0.3293  0.4520
  536SOL    HW2 1608   0.380   1.639   1.876 -2.4823 -1.1337 -0.9840
  537SOL     OW 1609   0.437   2.550   1.994  0.0851  0.5747 -0.4808
  537SOL    HW1 1610   0.413   2.499   1.910  0.3904 -0.8452  0.7654
  537SOL    HW2 1611   0.460   2.483   2.071 -0.9837 -2.7913  2.6801
  538SOL     OW 1612   3.088   1.669   0.082 -0.4277 -0.0638 -0.4820
  538SOL    HW1 1613   0.039   1.634   0.014 -0.7521  2.2650  0.6053
  538SOL    HW2 1614   3.112   1.640   0.176  1.3149  0.6733 -1.6028
  539SOL     OW 1615   2.686   0.594   2.597 -0.1652  0.3861 -0.2371
  539SOL    HW1 1616   2.677   0.559   2.500  0.0365 -2.0062 -2.2687
  539SOL    HW2 1617   2.773   0.569   2.644  2.6398  2.4503 -0.0517
  540SOL     OW 1618   1.802   0.449   2.423 -0.3087 -0.5258  0.3256
  540SOL    HW1 1619   1.862   0.462   2.507 -1.1106  0.3321  1.4500
  540SOL    HW2 1620   1.855   0.388   2.361 -0.5413  1.4904 -2.4575
  541SOL     OW 1621   0.744   0.091   1.763 -0.7647 -0.5272 -0.3911
  541SOL    HW1 1622   0.714   3.109   1.770  0.4104  0.0509 -1.2172
  541SOL    HW2 1623   0.795   0.122   1.848  0.6851  0.0284 -0.2291
  542SOL     OW 1624   1.822   2.527   2.576  0.7419 -0.2342  0.5593
  542SOL    HW1 1625   1.834   2.450   2.640 -0.9456 -3.7159  0.3461
  542SOL    HW2 1626   1.763   2.606   2.607  1.8266  0.2648 -0.6831
  543SOL     OW 1627   0.528   2.898   0.825 -0.1442 -0.0744 -0.1128
  543SOL    HW1 1628   0.522   2.855   0.917  0.6877 -1.5714 -0.7199
  543SOL    HW2 1629   0.572   2.991   0.837  1.2920  1.0231 -1.0183
  544SOL     OW 1630   2.595   1.581   2.033  0.3958  0.5647  0.0820
  544SOL    HW1 1631   2.641   1.500   1.993  0.1511  1.4982 -0.2232
  544SOL    HW2 1632   2.507   1.600   1.980 -2.6513  0.1878  2.1266
  545SOL     OW 1633   1.802   1.882   1.116  0.0085  0.3458 -0.1042
  545SOL    HW1 1634   1.812   1.824   1.198  1.2962 -2.1119 -0.9973
  545SOL    HW2 1635   1.734   1.850   1.047 -2.6561  0.4466 -0.5872
  546SOL     OW 1636   0.344   0.289   2.396  0.2314  0.0281 -0.4269
  546SOL    HW1 1637   0.274   0.211   2.400 -1.4110  0.2949  2.5255
  546SOL    HW2 1638   0.335   0.346   2.483 -2.6759  1.4662  0.4593
  547SOL     OW 1639   1.130   0.581   1.126 -0.4082 -0.1766  0.2965
  547SOL    HW1 1640   1.188   0.604   1.211  0.0500  1.6560 -1.9901
  547SOL    HW2 1641   1.148   0.653   1.054 -0.6805 -3.9422 -1.5887
  548SOL     OW 1642   1.362   2.509   2.893  0.0004  0.0431 -0.0978
  548SOL    HW1 1643   1.374   2.413   2.920 -0.7320  2.2276  1.8931
  548SOL    HW2 1644   1.412   2.529   2.807  0.0861  1.2540 -2.2355
  549SOL     OW 1645   2.464   0.185   2.967 -0.0616 -0.0384 -0.0644
  549SOL    HW1 1646   2.431   0.268   3.018 -3.6219  0.4398  0.9082
  549SOL    HW2 1647   2.560   0.164   3.000  1.5992  1.3921 -2.4731
  550SOL     OW 1648   2.723   2.040   0.621 -0.1939  0.0076  0.4197
  550SOL    HW1 1649   2.624   2.021   0.631  1.4805 -0.8871 -2.8522
  550SOL    HW2 1650   2.749   2.053   0.526 -1.1854  2.6678 -0.1439
  551SOL     OW 1651   1.180   2.924   1.916 -0.2474 -0.2419  0.6055
  551SOL    HW1 1652   1.114   2.859   1.872 -1.5190 -2.1404  0.1704
  551SOL    HW2 1653   1.164   3.022   1.892  1.5735  0.2584 -0.4237
  552SOL     OW 1654   3.020   2.262   2.662 -0.2961  0.0385 -0.0484
  552SOL    HW1 1655   3.041   2.220   2.573  1.0199  1.9973  3.1174
  552SOL    HW2 1656   2.920   2.257   2.679 -3.1971 -0.0112  0.3374
  553SOL     OW 1657   0.211   2.766   1.005 -0.5599 -0.0170 -0.0644
  553SOL    HW1 1658   0.307   2.746   1.026  1.9607 -4.2320 -1.1550
  553SOL    HW2 1659   0.156   2.792   1.083 -3.0006 -1.1061 -0.8513
  554SOL     OW 1660   2.024   1.833   1.718 -0.5131 -0.2607  0.8395
  554SOL    HW1 1661   2.097   1.867   1.779 -3.4187 -1.9889 -0.4972
  554SOL    HW2 1662   1.940   1.889   1.724  0.7443 -0.0182 -1.4624
  555SOL     OW 1663   1.573   2.153   1.770  0.0070  0.6201 -0.1728
  555SOL    HW1 1664   1.499   2.088   1.756  1.0784  2.7921  0.0658
  555SOL    HW2 1665   1.547   2.226   1.835  3.2721 -3.7131  3.4204
  556SOL     OW 1666   1.502   1.572   0.877 -0.1170 -0.3590 -0.2306
  556SOL    HW1 1667   1.433   1.524   0.941 -0.1647 -2.1370  3.1811
  556SOL    HW2 1668   1.476   1.563   0.779 -2.4080 -1.1792  0.8842
  557SOL     OW 1669   1.358   2.863   1.544  0.2402  0.4748 -0.0093
  557SOL    HW1 1670   1.350   2.853   1.640  3.2187 -1.6079 -2.2487
  557SOL    HW2 1671   1.394   2.954   1.518  4.3238  0.1429 -1.4849
  558SOL     OW 1672   0.266   0.152   1.893 -0.1814  0.0647 -0.8364
  558SOL    HW1 1673   0.224   0.204   1.970 -1.9557  0.6104  0.9064
  558SOL    HW2 1674   0.289   0.216   1.814  2.3024  2.1142  1.1423
  559SOL     OW 1675   2.161   3.060   0.618  0.4421  0.2718  0.0977
  559SOL    HW1 1676   2.241   3.087   0.677  0.8640 -0.1859 -0.1416
  559SOL    HW2 1677   2.083   0.009   0.626  0.2398 -0.5720  1.0103
  560SOL     OW 1678   1.349   2.377   0.819  0.3036 -0.3256  0.2170
  560SOL    HW1 1679   1.337   2.348   0.724  0.2745  2.7119 -0.0893
  560SOL    HW2 1680   1.331   2.478   0.825 -0.5392  0.5886  0.6893
  561SOL     OW 1681   0.964   0.336   0.576 -0.2588  0.3773  0.0910
  561SOL    HW1 1682   1.062   0.323   0.613  1.0537 -3.3889 -0.6944
  561SOL    HW2 1683   0.949   0.279   0.495 -0.2730  0.4662 -1.2673
  562SOL     OW 1684   0.372   1.305   2.791 -0.4310 -0.4662  0.3397
  562SOL    HW1 1685   0.282   1.261   2.787 -0.0436  0.1629  2.5746
  562SOL    HW2 1686   0.452   1.243   2.800  1.2245 -0.5770  0.4823
  563SOL     OW 1687   1.470   2.174   2.331  0.0217  0.0737 -0.0823
  563SOL    HW1 1688   1.488   2.178   2.232  0.1449 -1.3842  0.7770
  563SOL    HW2 1689   1.552   2.132   2.378  0.9591  0.9916 -3.2327
  564SOL     OW 1690   2.749   0.980   0.932 -0.8664 -0.2876  0.0004
  564SOL    HW1 1691   2.750   1.078   0.955 -0.0699 -1.3594 -0.8793
  564SOL    HW2 1692   2.677   0.964   0.860 -2.3450 -1.4426 -1.5321
  565SOL     OW 1693   0.719   0.942   0.019 -0.2882  0.1583  0.0487
  565SOL    HW1 1694   0.697   0.888   3.050  1.7247 -0.2156 -1.0186
  565SOL    HW2 1695   0.818   0.950   0.043 -0.2781 -1.5264  0.0488
  566SOL     OW 1696   2.607   3.031   2.717  0.1347 -0.4247 -0.3661
  566SOL    HW1 1697   2.530   3.025   2.786 -1.6812 -2.0380 -2.0647
  566SOL    HW2 1698   2.583   3.096   2.646 -2.5694 -2.5817  1.7508
  567SOL     OW 1699   1.431   0.930   0.969 -0.0008 -0.2891 -0.1628
  567SOL    HW1 1700   1.527   0.909   1.004 -2.5267 -3.4843  0.5991
  567SOL    HW2 1701   1.427   1.015   0.914  1.9398 -0.2204  0.1414
  568SOL     OW 1702   1.797   1.797   2.737 -0.2228 -0.3457 -0.1697
  568SOL    HW1 1703   1.763   1.807   2.640 -0.1302 -0.2527  0.2773
  568SOL    HW2 1704   1.719   1.816   2.801  0.5721  0.1043  2.3698
  569SOL     OW 1705   2.296   1.466   2.970 -0.1432  0.1978  0.2147
  569SOL    HW1 1706   2.302   1.367   2.978 -0.0172  1.9470 -1.6184
  569SOL    HW2 1707   2.343   1.503   2.886 -1.5873  0.9338 -0.2338
  570SOL     OW 1708   0.167   2.509   1.882 -0.0965 -0.2138  1.0638
  570SOL    HW1 1709   0.225   2.572   1.945  0.9919 -0.5330  0.2418
  570SOL    HW2 1710   0.185   2.526   1.780 -0.6744  1.2911 -0.9636
  571SOL     OW 1711   2.857   1.937   1.602 -0.0504 -0.1875  0.1485
  571SOL    HW1 1712   2.874   1.962   1.506 -2.6430 -0.1264  0.4768
  571SOL    HW2 1713   2.827   2.018   1.658  0.2387 -0.4925 -0.4611
  572SOL     OW 1714   1.772   1.876   0.419 -0.3981 -0.2526 -0.0746
  572SOL    HW1 1715   1.697   1.914   0.481 -2.0040  1.6215  1.3187
  572SOL    HW2 1716   1.826   1.955   0.380 -3.9077 -1.1880  0.5401
  573SOL     OW 1717   1.905   2.107   0.326 -0.4391  0.1557 -0.4825
  573SOL    HW1 1718   1.900   2.081   0.229 -1.9512  0.7683  0.8577
  573SOL    HW2 1719   1.862   2.194   0.348  0.5728 -1.8234 -2.2305
  574SOL     OW 1720   0.833   0.275   1.208 -0.8489 -0.5346  0.2923
  574SOL    HW1 1721   0.906   0.223   1.262  0.8599  0.0019  1.5323
  574SOL    HW2 1722   0.836   0.251   1.110 -0.5410 -1.2263 -0.2611
  575SOL     OW 1723   0.750   0.990   1.720  1.1578 -0.6482  0.4268
  575SOL    HW1 1724   0.752   1.074   1.662  2.9387  0.1507 -0.8891
  575SOL    HW2 1725   0.778   0.997   1.817 -2.4726 -1.0249 -4.8073
  576SOL     OW 1726   2.547   0.441   1.715  0.0339  0.3407  0.0916
  576SOL    HW1 1727   2.604   0.401   1.639  2.1864  1.7732  1.1956
  576SOL    HW2 1728   2.448   0.448   1.688 -0.6629 -2.5561 -1.1422
  577SOL     OW 1729   1.238   0.987   2.471  0.5069  0.4649  0.2781
  577SOL    HW1 1730   1.294   1.057   2.522  2.3925 -0.9247 -0.6964
  577SOL    HW2 1731   1.290   0.905   2.446 -0.4380  0.0083  0.7594
  578SOL     OW 1732   2.089   1.343   2.430  0.0791 -0.4315  0.7152
  578SOL    HW1 1733   2.043   1.424   2.468  1.2177 -1.7342 -2.6486
  578SOL    HW2 1734   2.048   1.322   2.341 -0.7488  1.5868 -2.1088
  579SOL     OW 1735   1.336   2.202   1.515  0.5514 -0.3265 -0.0436
  579SOL    HW1 1736   1.353   2.134   1.594 -0.1367  1.2765  1.8469
  579SOL    HW2 1737   1.418   2.263   1.503  1.9397 -0.4024  0.4577
  580SOL     OW 1738   1.577   2.279   0.384  0.2655 -0.3315  0.5499
  580SOL    HW1 1739   1.667   2.278   0.431  2.4041 -0.2257 -1.8993
  580SOL    HW2 1740   1.555   2.202   0.325 -0.4171  3.6995  0.7388
  581SOL     OW 1741   1.268   0.795   2.133  0.5004 -0.0314 -0.2045
  581SOL    HW1 1742   1.184   0.753   2.086 -0.6324  1.4681  0.2984
  581SOL    HW2 1743   1.259   0.789   2.235 -0.8198  0.3597 -0.5769
  582SOL     OW 1744   0.735   1.213   1.563 -0.2850  0.8620 -0.4989
  582SOL    HW1 1745   0.822   1.270   1.573 -1.3384 -0.1024 -1.4408
  582SOL    HW2 1746   0.699   1.237   1.470 -1.0851  0.5653  0.3763
  583SOL     OW 1747   1.104   1.158   1.993  0.0165 -0.0053  0.8309
  583SOL    HW1 1748   1.191   1.108   1.981  0.2156  1.3128 -1.5093
  583SOL    HW2 1749   1.097   1.230   1.923  0.9322  1.2651 -0.8971
  584SOL     OW 1750   2.314   2.346   1.043 -0.4867  0.2365  0.1144
  584SOL    HW1 1751   2.344   2.356   0.945  1.7963  2.8563 -0.7355
  584SOL    HW2 1752   2.268   2.259   1.064  0.8473  1.8291 -1.6914
  585SOL     OW 1753   2.201   3.076   2.792 -0.0669 -0.2295 -0.0178
  585SOL    HW1 1754   2.109   3.058   2.837 -3.1766  0.4723  0.4695
  585SOL    HW2 1755   2.284   3.033   2.842  3.4624 -0.9755  0.9532
  586SOL     OW 1756   3.061   2.367   0.744  0.8766  0.2603 -0.1952
  586SOL    HW1 1757   2.967   2.397   0.753  0.7667 -2.3453 -1.3443
  586SOL    HW2 1758   3.106   2.419   0.667  0.2423 -0.1559 -1.6558
  587SOL     OW 1759   1.591   1.805   2.897  0.2405 -0.0096 -0.3962
  587SOL    HW1 1760   1.554   1.899   2.915 -1.4275  2.3049  0.1520
  587SOL    HW2 1761   1.616   1.753   2.982  0.1935  3.6805 -2.1762
  588SOL     OW 1762   0.115   0.358   1.118  0.0091  0.0341 -0.2468
  588SOL    HW1 1763   0.112   0.339   1.220 -1.5915 -3.2459  3.0749
  588SOL    HW2 1764   0.043   0.305   1.071  1.5596  3.0798  2.5981
  589SOL     OW 1765   1.222   0.757   0.933 -0.1793 -0.4144 -0.2421
  589SOL    HW1 1766   1.311   0.810   0.935  0.2409  2.8204 -1.6516
  589SOL    HW2 1767   1.150   0.806   0.880 -1.0061 -1.3576  0.9579
  590SOL     OW 1768   1.334   1.266   3.055  0.1832  0.7044  0.0609
  590SOL    HW1 1769   1.404   1.292   0.003 -2.8785  0.6991 -2.7884
  590SOL    HW2 1770   1.241   1.289   3.090 -1.7924 -0.3612  1.3559
  591SOL     OW 1771   2.581   2.331   2.575  0.3925  0.6458 -0.3090
  591SOL    HW1 1772   2.481   2.348   2.565  0.5386  0.3532  0.0892
  591SOL    HW2 1773   2.634   2.403   2.532  0.3917 -2.7139 -0.4493
  592SOL     OW 1774   1.793   2.143   1.406  0.0309 -0.0533 -0.0223
  592SOL    HW1 1775   1.733   2.135   1.323 -1.3559  0.0227 -0.1677
  592SOL    HW2 1776   1.782   2.058   1.457 -0.7203  1.0013 -1.1259
  593SOL     OW 1777   0.624   0.030   0.892 -0.1357  0.3457  0.1263
  593SOL    HW1 1778   0.592   0.031   0.989  0.9170  2.2386 -5.1990
  593SOL    HW2 1779   0.586   0.107   0.833  0.8633  0.9776  0.7469
  594SOL     OW 1780   2.742   0.945   2.400  0.0310 -0.3611  0.7909
  594SOL    HW1 1781   2.790   0.949   2.493  0.9519 -2.4987  3.4271
  594SOL    HW2 1782   2.672   0.876   2.400  0.5406  0.2607  2.3298
  595SOL     OW 1783   0.463   2.712   1.054  0.1610  0.1859 -0.5029
  595SOL    HW1 1784   0.497   2.626   1.007  2.8444 -1.9552  1.9124
  595SOL    HW2 1785   0.523   2.739   1.131 -0.1181  0.9363  1.4510
  596SOL     OW 1786   3.016   1.060   1.279 -0.0139 -0.0057  0.4008
  596SOL    HW1 1787   3.013   1.012   1.368 -0.6124 -0.6475  1.1537
  596SOL    HW2 1788   2.996   1.000   1.199  5.1484 -2.3327 -1.7423
  597SOL     OW 1789   1.611   1.824   0.195  0.2501  0.2770  0.0004
  597SOL    HW1 1790   1.652   1.826   0.286 -1.4328  1.5108 -0.4953
  597SOL    HW2 1791   1.513   1.808   0.212  1.5931 -0.5401  0.5182
  598SOL     OW 1792   0.352   3.022   1.807  0.3125 -0.2180  0.9272
  598SOL    HW1 1793   0.336   3.024   1.706 -1.6955  1.5010 -0.8461
  598SOL    HW2 1794   0.332   3.112   1.849  3.3951  0.2988 -2.8025
  599SOL     OW 1795   2.453   1.559   2.764 -0.1636 -0.1026  0.2308
  599SOL    HW1 1796   2.418   1.533   2.671  0.4921 -2.6289  0.0934
  599SOL    HW2 1797   2.551   1.596   2.755  1.0643  1.4368  0.4689
  600SOL     OW 1798   0.882   1.186   0.239  0.3764 -0.2239 -0.2192
  600SOL    HW1 1799   0.815   1.256   0.272  1.7000  0.7679 -0.3616
  600SOL    HW2 1800   0.966   1.195   0.301 -0.5642  2.1901 -1.9276
  601SOL     OW 1801   0.476   0.903   0.660  0.2883  0.4723  0.2605
  601SOL    HW1 1802   0.420   0.962   0.716  3.7574 -2.2515 -2.5155
  601SOL    HW2 1803   0.512   0.823   0.710  1.0771  1.1912  0.0307
  602SOL     OW 1804   1.716   2.786   0.465 -0.2145  0.0255 -0.1506
  602SOL    HW1 1805   1.708   2.844   0.548 -2.6663 -0.9728 -1.0386
  602SOL    HW2 1806   1.672   2.832   0.384  2.8751  0.3961  0.3448
  603SOL     OW 1807   0.706   2.765   2.388  0.5554 -0.4350 -0.5626
  603SOL    HW1 1808   0.781   2.725   2.330  1.3807 -1.3515 -1.1550
  603SOL    HW2 1809   0.633   2.697   2.385  1.7797  0.4883  1.1173
  604SOL     OW 1810   0.038   0.298   2.673  0.3875  0.6261  0.1877
  604SOL    HW1 1811   0.011   0.209   2.628  0.0307  0.4073  2.2566
  604SOL    HW2 1812   3.078   0.330   2.734 -0.1159  0.3822  1.1556
  605SOL     OW 1813   2.643   1.397   1.377  0.2050 -0.6934  0.1262
  605SOL    HW1 1814   2.597   1.308   1.400  0.5334 -0.1977  0.4986
  605SOL    HW2 1815   2.570   1.464   1.347 -1.6360  0.9487  1.1606
  606SOL     OW 1816   0.896   1.492   2.529 -0.0351  0.3228 -0.2729
  606SOL    HW1 1817   0.823   1.565   2.543 -2.3223  0.8936 -0.6419
  606SOL    HW2 1818   0.861   1.423   2.459 -0.9535  1.2130 -1.4155
  607SOL     OW 1819   0.548   0.006   0.427  0.2597  0.2084 -0.3303
  607SOL    HW1 1820   0.450   0.010   0.396 -0.3979 -0.4392 -1.6639
  607SOL    HW2 1821   0.579   0.090   0.471 -0.7633 -1.2041 -1.4640
  608SOL     OW 1822   1.851   1.681   2.049 -0.5175 -0.5087 -0.4372
  608SOL    HW1 1823   1.796   1.614   2.105 -0.4163 -0.9574  0.2648
  608SOL    HW2 1824   1.794   1.703   1.968 -0.9332 -3.3886  1.6871
  609SOL     OW 1825   2.605   0.328   1.342 -0.1459 -0.0696  0.2340
  609SOL    HW1 1826   2.552   0.295   1.263  1.3499 -0.9840 -0.6658
  609SOL    HW2 1827   2.596   0.268   1.424 -1.0999 -1.5476  0.7330
  610SOL     OW 1828   0.361   2.747   0.629 -0.8573 -0.1839  0.2466
  610SOL    HW1 1829   0.426   2.677   0.597 -1.5756  0.8714 -2.4632
  610SOL    HW2 1830   0.407   2.810   0.696 -0.7848  1.5435  0.7228
  611SOL     OW 1831   1.726   0.839   2.842  0.0776 -0.1226  0.1276
  611SOL    HW1 1832   1.725   0.920   2.779 -0.8970 -0.4898  1.3588
  611SOL    HW2 1833   1.687   0.865   2.937 -0.6675  0.8167  0.4261
  612SOL     OW 1834   0.764   2.301   2.192  0.2897  0.5004 -0.1788
  612SOL    HW1 1835   0.832   2.298   2.268  0.0208 -3.0703  2.2485
  612SOL    HW2 1836   0.801   2.333   2.101 -1.9704  0.2802 -1.3299
  613SOL     OW 1837   0.578   2.495   0.672 -0.4980 -0.2184  0.2683
  613SOL    HW1 1838   0.537   2.422   0.614 -1.1111  0.3289 -0.3849
  613SOL    HW2 1839   0.645   2.550   0.613  2.0613 -0.1538  0.3143
  614SOL     OW 1840   2.395   3.080   1.696 -0.0264  0.9941  0.2842
  614SOL    HW1 1841   2.467   3.008   1.716 -1.7045  1.9105 -0.2464
  614SOL    HW2 1842   2.350   3.103   1.784 -0.3745 -1.3285 -1.5550
  615SOL     OW 1843   1.804   1.084   0.093  0.1620 -0.5359  0.1044
  615SOL    HW1 1844   1.757   1.142   0.163 -0.8477  0.4029 -0.2035
  615SOL    HW2 1845   1.888   1.135   0.057  0.0521 -0.0819  2.3223
  616SOL     OW 1846   2.025   0.913   0.199  0.8338 -0.6520 -0.1946
  616SOL    HW1 1847   1.967   0.881   0.280  1.4385 -1.0668  1.0268
  616SOL    HW2 1848   1.972   0.958   0.123  0.5483  0.6663 -3.2214
  617SOL     OW 1849   1.045   1.139   2.829 -0.2744  0.5846 -0.5737
  617SOL    HW1 1850   0.992   1.171   2.909  2.1936 -0.6225 -0.1833
  617SOL    HW2 1851   1.134   1.094   2.858  0.0376  3.6322  0.6362
  618SOL     OW 1852   0.629   2.934   1.790  0.2420 -0.3385  0.4355
  618SOL    HW1 1853   0.655   2.887   1.874 -2.7651 -1.1806 -0.4699
  618SOL    HW2 1854   0.534   2.973   1.796 -1.9357  0.9589  0.3116
  619SOL     OW 1855   2.902   1.288   1.223 -0.1045  0.2028 -0.4598
  619SOL    HW1 1856   2.954   1.209   1.263 -0.8212 -1.6113  1.1475
  619SOL    HW2 1857   2.820   1.322   1.274 -1.8800  0.8204  0.8131
  620SOL     OW 1858   2.448   0.930   2.828  1.1232  0.6983  0.1458
  620SOL    HW1 1859   2.424   0.987   2.748 -0.0081 -1.7682  0.6632
  620SOL    HW2 1860   2.442   0.829   2.804  1.6740 -0.7377 -0.5439
  621SOL     OW 1861   2.688   2.469   1.502 -0.3185 -0.5731  0.2129
  621SOL    HW1 1862   2.670   2.375   1.468  0.0512  1.7056  0.9088
  621SOL    HW2 1863   2.746   2.473   1.585 -0.4425  0.6190 -1.4813
  622SOL     OW 1864   0.952   0.724   2.614  0.2873  0.0934 -0.4876
  622SOL    HW1 1865   0.943   0.702   2.518  0.7155  2.0704  2.2385
  622SOL    HW2 1866   0.993   0.817   2.621 -0.8026 -0.7708  0.1907
  623SOL     OW 1867   1.207   0.559   2.671 -0.4841 -0.0773  0.0437
  623SOL    HW1 1868   1.192   0.456   2.663 -0.7428  0.7909 -0.6726
  623SOL    HW2 1869   1.129   0.610   2.633  2.1930 -0.3851 -1.4353
  624SOL     OW 1870   2.383   0.712   0.089  0.4238  0.0705  0.0028
  624SOL    HW1 1871   2.369   0.651   0.013  2.0573  1.7584  0.6059
  624SOL    HW2 1872   2.476   0.697   0.127  2.1740 -1.1767  0.0292
  625SOL     OW 1873   0.998   1.301   0.893  0.5965  0.1978  0.0505
  625SOL    HW1 1874   1.076   1.234   0.909  0.6498 -0.9198  0.7411
  625SOL    HW2 1875   0.971   1.346   0.981 -0.5260  2.7604  0.7119
  626SOL     OW 1876   1.855   1.041   2.628  0.2195 -0.3309  0.3555
  626SOL    HW1 1877   1.899   0.965   2.572  3.6424 -3.0142 -1.5472
  626SOL    HW2 1878   1.923   1.071   2.699  0.1183  1.5369  1.6745
  627SOL     OW 1879   1.074   2.977   2.864 -0.1943 -0.7267 -0.0379
  627SOL    HW1 1880   0.986   2.922   2.856 -2.5425 -1.2773 -0.3288
  627SOL    HW2 1881   1.049   3.075   2.886 -0.1939 -1.2798 -0.0353
  628SOL     OW 1882   2.248   0.126   2.596 -0.5014 -0.1216 -0.1492
  628SOL    HW1 1883   2.237   0.059   2.671  2.1438  2.0588 -1.6225
  628SOL    HW2 1884   2.314   0.199   2.628  3.2917  0.6173  0.4333
  629SOL     OW 1885   0.971   0.624   2.923 -0.8486 -0.0917 -0.0032
  629SOL    HW1 1886   0.969   0.627   2.818  1.3552  0.2430 -1.6818
  629SOL    HW2 1887   1.006   0.714   2.955 -0.6890 -1.7857  1.1282
  630SOL     OW 1888   1.248   0.186   2.090 -0.0216  0.0927 -0.3964
  630SOL    HW1 1889   1.178   0.239   2.140 -1.3965 -2.4177  1.0549
  630SOL    HW2 1890   1.286   0.122   2.161 -1.7416  0.5349  0.0874
  631SOL     OW 1891   2.563   1.025   0.703  0.1162 -0.0562  0.5055
  631SOL    HW1 1892   2.486   1.059   0.763  0.0519 -0.5568  1.9837
  631SOL    HW2 1893   2.535   1.016   0.605  1.6609 -1.8484  0.2358
  632SOL     OW 1894   1.903   0.854   1.393  0.0286 -0.2555  0.3355
  632SOL    HW1 1895   1.961   0.901   1.464 -0.0088 -0.4665  2.4559
  632SOL    HW2 1896   1.904   0.755   1.415  1.6224 -0.0029  0.4130
  633SOL     OW 1897   0.889   1.479   0.577  0.3269  0.2234  0.0288
  633SOL    HW1 1898   0.883   1.568   0.623 -1.0604 -0.7473  0.8765
  633SOL    HW2 1899   0.957   1.419   0.621 -0.8857 -1.1968 -2.5140
  634SOL     OW 1900   2.129   3.095   0.971 -0.8682  0.2968 -0.2448
  634SOL    HW1 1901   2.169   0.049   1.030  0.0068 -0.1852  0.3928
  634SOL    HW2 1902   2.108   3.012   1.029 -0.9775 -0.6004  0.8650
  635SOL     OW 1903   1.701   0.652   1.261  0.5684 -0.0371 -0.1067
  635SOL    HW1 1904   1.650   0.668   1.352 -1.9874 -2.4844 -0.4771
  635SOL    HW2 1905   1.684   0.725   1.195  2.0578 -3.1366  1.2789
  636SOL     OW 1906   1.048   1.182   0.449  0.5512 -0.4888  0.4482
  636SOL    HW1 1907   1.093   1.246   0.516  1.1840  0.2407  2.0829
  636SOL    HW2 1908   0.984   1.123   0.500  2.7275  2.6480  1.3597
  637SOL     OW 1909   2.516   2.226   2.933  0.1619 -0.0906 -0.7171
  637SOL    HW1 1910   2.526   2.151   3.002  0.9187 -1.5128  0.1078
  637SOL    HW2 1911   2.429   2.209   2.880  1.5285 -2.6989 -1.1415
  638SOL     OW 1912   1.486   2.585   2.661  0.2274 -0.5554  0.3495
  638SOL    HW1 1913   1.553   2.658   2.654  0.3366 -1.3311  0.2344
  638SOL    HW2 1914   1.498   2.523   2.584  0.8020  0.6482 -0.1665
  639SOL     OW 1915   0.954   1.936   1.359 -0.1076  0.2435 -0.2348
  639SOL    HW1 1916   0.863   1.981   1.344 -1.1124  2.3139  1.8272
  639SOL    HW2 1917   1.025   2.006   1.351 -1.5927 -0.2730  0.9772
  640SOL     OW 1918   2.310   2.819   0.490 -0.5648  0.2796  0.2926
  640SOL    HW1 1919   2.286   2.831   0.388 -0.7009 -0.0618 -3.1976
  640SOL    HW2 1920   2.287   2.902   0.543  0.0420 -0.2864 -0.3272
  641SOL     OW 1921   0.299   0.116   0.343 -0.1243 -1.0941  0.2507
  641SOL    HW1 1922   0.229   0.043   0.339 -0.2241 -0.1057 -0.6708
  641SOL    HW2 1923   0.255   0.206   0.329  1.3643  1.0419  0.2662
  642SOL     OW 1924   2.759   0.819   1.205  0.6606 -0.0668  0.3428
  642SOL    HW1 1925   2.711   0.731   1.198  1.5322  0.1634 -1.2903
  642SOL    HW2 1926   2.731   0.881   1.130  3.5565  1.3629  1.9270
  643SOL     OW 1927   0.845   1.897   2.075  0.5453  0.1022  0.4379
  643SOL    HW1 1928   0.749   1.931   2.063 -2.2178 -0.5465  0.5628
  643SOL    HW2 1929   0.905   1.956   2.014 -0.2048 -0.5616  1.1413
  644SOL     OW 1930   1.821   2.553   0.262 -0.3720 -0.6163  0.4204
  644SOL    HW1 1931   1.905   2.601   0.306  2.7418 -0.1768  1.6931
  644SOL    HW2 1932   1.731   2.596   0.292  0.5950  1.0570  1.1469
  645SOL     OW 1933   2.134   2.126   1.062  0.0546  0.0740 -0.7541
  645SOL    HW1 1934   2.100   2.048   1.007  2.4820  2.7365  0.6167
  645SOL    HW2 1935   2.055   2.187   1.079 -1.8393  1.3139  2.2693
  646SOL     OW 1936   1.103   2.779   3.064  0.1031  0.2307  0.1637
  646SOL    HW1 1937   1.190   2.766   0.001 -0.8645  1.6052 -0.4182
  646SOL    HW2 1938   1.119   2.857   2.997  1.3749 -1.3408  2.8805
  647SOL     OW 1939   0.279   2.800   1.950  0.4795 -0.2975 -0.9009
  647SOL    HW1 1940   0.309   2.892   1.913  1.5563  0.0157 -0.3642
  647SOL    HW2 1941   0.356   2.731   1.970 -1.5854  0.6543  1.6158
  648SOL     OW 1942   1.685   0.871   1.048 -0.1480  0.2352  0.1783
  648SOL    HW1 1943   1.699   0.809   0.964 -0.1148 -0.1426 -2.7750
  648SOL    HW2 1944   1.778   0.891   1.090 -0.9953  1.5149 -1.0485
  649SOL     OW 1945   1.484   2.285   3.052  0.6792  0.6038  0.5036
  649SOL    HW1 1946   1.540   2.357   3.097 -0.1735  0.6184  2.6834
  649SOL    HW2 1947   1.537   2.199   3.050  0.4701  2.8390 -0.0032
  650SOL     OW 1948   2.348   1.547   1.889 -0.1393 -0.2244  0.4120
  650SOL    HW1 1949   2.324   1.576   1.795 -0.0154  1.2035  1.6187
  650SOL    HW2 1950   2.268   1.537   1.948  2.1856  2.0342 -3.6593
  651SOL     OW 1951   1.722   2.400   0.032 -0.4902 -0.9033 -0.1986
  651SOL    HW1 1952   1.718   2.465   0.110  3.7543  0.3257 -0.4527
  651SOL    HW2 1953   1.735   2.448   3.057 -0.0987  1.9919 -0.0881
  652SOL     OW 1954   0.819   2.325   0.127  0.3765  0.1632  0.2341
  652SOL    HW1 1955   0.778   2.324   0.035  0.9776  0.5923  2.9570
  652SOL    HW2 1956   0.907   2.277   0.120 -0.7298 -0.2431 -0.5859
  653SOL     OW 1957   2.483   2.098   1.328  0.4342 -0.1754 -0.5336
  653SOL    HW1 1958   2.513   2.121   1.230  1.4959  0.5590 -0.5067
  653SOL    HW2 1959   2.383   2.076   1.330 -0.4378  0.0617 -2.0434
  654SOL     OW 1960   2.963   2.772   1.573  0.1706  0.5131 -0.5567
  654SOL    HW1 1961   2.907   2.850   1.534 -1.6145  0.2162 -1.2563
  654SOL    HW2 1962   2.992   2.706   1.507 -1.2036  0.7335 -2.2635
  655SOL     OW 1963   0.021   2.264   1.217 -0.2115  0.2216 -0.5191
  655SOL    HW1 1964   3.043   2.266   1.258  0.9655  0.8301 -1.0476
  655SOL    HW2 1965   0.022   2.304   1.124  1.4826 -0.9485  1.0141
  656SOL     OW 1966   2.981   2.736   2.657  0.0470 -0.4136  0.1092
  656SOL    HW1 1967   2.961   2.715   2.753  1.8578  1.3536 -1.9310
  656SOL    HW2 1968   3.026   2.828   2.657 -1.8421 -2.5617 -2.4041
  657SOL     OW 1969   3.040   0.831   0.051 -0.3964 -0.0260 -0.2701
  657SOL    HW1 1970   2.965   0.891   0.081  2.3829 -0.7456 -2.0318
  657SOL    HW2 1971   3.102   0.810   0.130  2.2713  0.6716  0.8853
  658SOL     OW 1972   2.019   1.906   0.933  0.3769 -0.2145 -0.5168
  658SOL    HW1 1973   1.988   1.858   0.848  0.8911 -0.9561  0.4059
  658SOL    HW2 1974   1.949   1.886   1.006  0.4082  0.6285  0.8042
  659SOL     OW 1975   1.494   0.662   1.442 -0.0519 -0.0555  0.3029
  659SOL    HW1 1976   1.402   0.665   1.399  0.2642 -1.5024  0.0240
  659SOL    HW2 1977   1.508   0.574   1.489 -2.0795 -1.9615 -0.9646
  660SOL     OW 1978   1.590   1.651   3.112 -0.5756 -0.7976  0.6085
  660SOL    HW1 1979   1.594   1.703   0.085 -1.7379  3.0766  0.9362
  660SOL    HW2 1980   1.648   1.571   0.004  1.3404  1.6171 -0.1661
  661SOL     OW 1981   0.176   1.927   0.331 -0.3768 -0.3680 -0.1205
  661SOL    HW1 1982   0.216   2.010   0.289  1.0879  0.8951  0.7277
  661SOL    HW2 1983   0.085   1.938   0.369  3.4010 -0.2977  1.6177
  662SOL     OW 1984   0.107   0.815   2.157  0.0610 -0.5501 -0.0444
  662SOL    HW1 1985   0.068   0.836   2.252 -0.4135 -0.9072  0.7281
  662SOL    HW2 1986   0.149   0.900   2.122 -0.4215  0.2937  1.8762
  663SOL     OW 1987   2.108   1.319   0.602  0.1795  1.2953 -0.0808
  663SOL    HW1 1988   2.060   1.242   0.658  2.0596 -0.8170  0.4374
  663SOL    HW2 1989   2.207   1.297   0.592  1.4759  0.0695 -0.8731
  664SOL     OW 1990   0.574   0.322   1.229 -0.2410  0.0547 -0.4086
  664SOL    HW1 1991   0.673   0.313   1.242  0.5238 -0.0508 -2.6110
  664SOL    HW2 1992   0.543   0.232   1.197  0.2032  0.9823 -0.1325
  665SOL     OW 1993   1.237   0.019   0.092 -0.1985  0.1265 -0.7033
  665SOL    HW1 1994   1.295   3.054   0.114  0.8927  1.3131 -0.1742
  665SOL    HW2 1995   1.288   0.103   0.098 -1.5832 -0.9819  0.1668
  666SOL     OW 1996   0.023   0.299   2.392 -0.1227 -0.4879 -0.2693
  666SOL    HW1 1997   0.062   0.291   2.487 -0.4346  0.7047 -1.9481
  666SOL    HW2 1998   0.097   0.308   2.325 -0.7063  1.4147  0.4895
  667SOL     OW 1999   2.093   1.808   2.056 -0.4010  0.6871 -0.0865
  667SOL    HW1 2000   2.153   1.750   2.113  1.1616  0.6627 -0.4786
  667SOL    HW2 2001   1.997   1.778   2.053  3.0155  0.1642  0.0913
  668SOL     OW 2002   0.444   1.828   2.707  0.7332  0.4055  0.0655
  668SOL    HW1 2003   0.439   1.914   2.657 -1.5393 -1.2994  1.9421
  668SOL    HW2 2004   0.360   1.773   2.692  1.0962 -0.6156 -2.0138
  669SOL     OW 2005   2.136   2.502   2.388  0.1258 -0.6394  0.1028
  669SOL    HW1 2006   2.184   2.469   2.304 -1.1516  0.0106  2.1927
  669SOL    HW2 2007   2.037   2.485   2.387  0.4200 -2.3148 -3.3325
  670SOL     OW 2008   2.533   1.103   2.394  0.0306 -0.4250 -0.1915
  670SOL    HW1 2009   2.494   1.110   2.301 -1.0042 -2.3670  2.3058
  670SOL    HW2 2010   2.622   1.050   2.395 -1.6362  0.9977  0.9870
  671SOL     OW 2011   2.552   1.225   0.271 -0.2735  0.1922 -0.0217
  671SOL    HW1 2012   2.567   1.226   0.173 -1.4271  3.4476  3.4771
  671SOL    HW2 2013   2.522   1.320   0.302 -0.7409  1.2826 -0.0543
  672SOL     OW 2014   2.708   1.320   2.391  0.0585  0.1478 -0.2847
  672SOL    HW1 2015   2.754   1.353   2.479  0.4024  0.5460  1.4349
  672SOL    HW2 2016   2.654   1.236   2.411 -0.3456 -0.9760  1.9465
  673SOL     OW 2017   2.590   1.153   1.464 -0.0954  0.2896 -0.4025
  673SOL    HW1 2018   2.517   1.116   1.403 -1.4262 -0.2425 -1.3704
  673SOL    HW2 2019   2.667   1.090   1.470 -0.3251  2.7093 -1.5478
  674SOL     OW 2020   1.659   1.881   1.486  0.0586  0.5681 -0.2018
  674SOL    HW1 2021   1.728   1.819   1.436  3.2904 -3.7294 -2.1800
  674SOL    HW2 2022   1.570   1.829   1.487  2.5998 -1.8088 -2.8476
  675SOL     OW 2023   3.090   0.648   1.013 -0.1840  0.9970  0.1782
  675SOL    HW1 2024   0.009   0.681   0.920  0.7525 -0.9309 -1.0740
  675SOL    HW2 2025   0.038   0.587   1.059 -0.0988  2.1227  0.1253
  676SOL     OW 2026   1.938   0.892   1.126 -0.6431  0.2506  0.2805
  676SOL    HW1 2027   1.943   0.874   1.224 -3.7720  0.0602  1.3479
  676SOL    HW2 2028   2.006   0.833   1.074  1.9961 -0.9549  1.1447
  677SOL     OW 2029   1.662   1.535   2.187  0.0922 -0.1948  0.3821
  677SOL    HW1 2030   1.616   1.462   2.136 -0.2686  2.0710  1.6654
  677SOL    HW2 2031   1.604   1.618   2.205  1.2182 -1.9725 -2.0153
  678SOL     OW 2032   3.005   1.862   0.966 -0.5911  0.1485 -0.2103
  678SOL    HW1 2033   3.068   1.918   1.027  1.8141  1.8227  0.6977
  678SOL    HW2 2034   2.983   1.775   1.011  1.5069  0.8036 -2.3255
  679SOL     OW 2035   2.990   3.008   0.461 -0.6441 -0.4962  0.5975
  679SOL    HW1 2036   2.940   2.999   0.372  1.0449  4.3208 -0.0006
  679SOL    HW2 2037   2.965   2.928   0.517 -2.5625  1.7163 -0.4520
  680SOL     OW 2038   0.235   2.408   1.296 -0.5187 -0.3059  0.4015
  680SOL    HW1 2039   0.320   2.361   1.274 -0.2541 -0.8798 -0.2571
  680SOL    HW2 2040   0.156   2.350   1.277  5.8370  1.2478  0.4166
  681SOL     OW 2041   0.817   0.792   1.139  0.0825 -0.3821  0.7605
  681SOL    HW1 2042   0.833   0.856   1.216 -0.0062  0.5957  0.7881
  681SOL    HW2 2043   0.831   0.695   1.172 -2.6524  1.3275 -0.6934
  682SOL     OW 2044   1.451   2.825   0.671 -0.0253 -0.4841  0.0808
  682SOL    HW1 2045   1.385   2.886   0.616 -0.6285 -0.5426 -0.3579
  682SOL    HW2 2046   1.537   2.873   0.695  1.1046 -1.2946  0.5574
  683SOL     OW 2047   2.166   1.227   1.444  0.1658 -0.2751  0.7888
  683SOL    HW1 2048   2.100   1.254   1.371 -1.9000  0.9163 -0.0756
  683SOL    HW2 2049   2.239   1.175   1.403 -1.0296 -0.0075 -0.4231
  684SOL     OW 2050   0.524   1.870   1.756  0.6735 -0.1896  0.6698
  684SOL    HW1 2051   0.519   1.908   1.848  0.1275 -0.0218 -1.4564
  684SOL    HW2 2052   0.476   1.782   1.756  2.0293  1.1831  1.2575
  685SOL     OW 2053   2.421   1.762   0.094  0.1280 -0.1392 -0.5276
  685SOL    HW1 2054   2.500   1.715   0.138  0.0760 -2.5360  1.5749
  685SOL    HW2 2055   2.337   1.706   0.112  0.7180  0.8807 -0.2441
  686SOL     OW 2056   2.976   0.363   0.567 -0.1447  0.2593 -0.3332
  686SOL    HW1 2057   2.944   0.358   0.473 -1.1106 -1.6250  2.4896
  686SOL    HW2 2058   2.949   0.455   0.600 -0.0121  1.5998  0.9966
  687SOL     OW 2059   1.376   2.909   0.132  0.5240  0.2592  0.0977
  687SOL    HW1 2060   1.430   2.867   0.208  0.5289 -0.6443 -0.7770
  687SOL    HW2 2061   1.394   2.848   0.051  0.7124  0.7017  2.0612
  688SOL     OW 2062   1.757   2.090   2.188 -0.7750  0.1386  0.5365
  688SOL    HW1 2063   1.818   2.020   2.232  0.7344 -3.3210 -1.7097
  688SOL    HW2 2064   1.807   2.146   2.120 -0.0117  0.7449 -0.1551
  689SOL     OW 2065   2.741   1.082   1.934 -0.1536  0.1823 -0.0378
  689SOL    HW1 2066   2.705   1.178   1.938  3.1468  1.9997  1.8558
  689SOL    HW2 2067   2.687   1.032   1.864  0.9661  0.1742  0.0278
  690SOL     OW 2068   1.945   1.124   0.744 -0.2824 -0.3240  0.1768
  690SOL    HW1 2069   1.993   1.107   0.834  1.3629  0.7802 -0.1948
  690SOL    HW2 2070   1.935   1.043   0.684  0.9317  3.1403 -2.1242
  691SOL     OW 2071   0.924   1.316   1.196  0.0298  0.0880  0.0676
  691SOL    HW1 2072   0.991   1.246   1.225  1.1017  1.1410  0.7618
  691SOL    HW2 2073   0.826   1.286   1.209 -0.8743  1.2528 -0.4224
  692SOL     OW 2074   1.622   0.079   2.148  0.0409 -0.7745 -0.2588
  692SOL    HW1 2075   1.595   3.102   2.122  0.3501  1.5762  3.1013
  692SOL    HW2 2076   1.711   0.109   2.113 -0.6140 -1.6801 -0.3110
  693SOL     OW 2077   0.175   0.973   2.819  0.5647 -0.3202 -0.3796
  693SOL    HW1 2078   0.222   0.993   2.906  0.4998 -2.2004  1.3622
  693SOL    HW2 2079   0.238   0.911   2.771 -4.0322  1.5400  2.2938
  694SOL     OW 2080   2.133   2.795   0.742  0.1556  0.3134  0.0770
  694SOL    HW1 2081   2.131   2.897   0.732 -0.7906  0.1605  1.0890
  694SOL    HW2 2082   2.096   2.752   0.658  1.8532  0.2163 -1.0727
  695SOL     OW 2083   1.665   1.402   2.889 -0.0318  0.2078 -0.0476
  695SOL    HW1 2084   1.686   1.381   2.982  0.8195 -2.0082 -2.0068
  695SOL    HW2 2085   1.739   1.452   2.839  2.3752  0.3859 -0.0559
  696SOL     OW 2086   1.797   0.326   1.532  0.1882  0.4286 -0.2057
  696SOL    HW1 2087   1.880   0.328   1.590 -0.6692  0.5653  0.1030
  696SOL    HW2 2088   1.821   0.274   1.447  0.5303  0.1496  1.2055
  697SOL     OW 2089   1.682   0.469   1.927  0.2853 -0.1076 -0.5688
  697SOL    HW1 2090   1.630   0.400   1.874 -0.4377 -0.9529 -0.8875
  697SOL    HW2 2091   1.622   0.522   1.990 -1.6477 -1.0914 -0.9695
  698SOL     OW 2092   1.813   1.483   2.484  0.0900 -0.0351 -0.3674
  698SOL    HW1 2093   1.784   1.518   2.394  1.9397  0.9780 -0.9241
  698SOL    HW2 2094   1.788   1.384   2.495 -0.9930  0.9175 -0.7311
  699SOL     OW 2095   1.736   1.280   0.796  0.1373  0.1184  0.1506
  699SOL    HW1 2096   1.666   1.290   0.727  0.6911 -2.4846  1.7621
  699SOL    HW2 2097   1.803   1.208   0.769  2.4006 -0.2451 -2.7314
  700SOL     OW 2098   1.912   2.994   0.263  0.4008 -0.4824 -0.0496
  700SOL    HW1 2099   2.006   2.962   0.291  1.7073  0.7141  1.8283
  700SOL    HW2 2100   1.923   3.027   0.165  1.8925 -0.2897  0.7670
  701SOL     OW 2101   0.191   0.297   1.378 -0.4885 -0.7996 -0.2946
  701SOL    HW1 2102   0.239   0.382   1.357 -0.8005 -0.8589  0.6367
  701SOL    HW2 2103   0.262   0.232   1.414 -1.5354  2.1432 -0.2528
  702SOL     OW 2104   1.770   3.037   1.527 -0.1501 -0.2023  0.2302
  702SOL    HW1 2105   1.812   2.958   1.478 -0.2840 -1.0534  0.0871
  702SOL    HW2 2106   1.678   3.058   1.493 -0.5919 -0.5472  1.5274
  703SOL     OW 2107   2.616   2.945   2.230 -0.4967 -0.0354  0.5883
  703SOL    HW1 2108   2.566   2.918   2.311  0.2049 -0.9680 -2.9283
  703SOL    HW2 2109   2.640   2.867   2.168  2.0006 -0.7403  0.1292
  704SOL     OW 2110   1.120   1.842   0.651 -0.0010  0.0074  1.2120
  704SOL    HW1 2111   1.042   1.855   0.713  1.7036 -1.0111  1.5489
  704SOL    HW2 2112   1.177   1.927   0.639 -0.1253  1.3203 -0.9959
  705SOL     OW 2113   2.970   1.716   2.122 -0.0078 -0.6910 -0.6942
  705SOL    HW1 2114   2.893   1.788   2.135 -0.9735 -0.5557 -1.4940
  705SOL    HW2 2115   2.948   1.635   2.184 -2.0668 -1.5762  2.7607
  706SOL     OW 2116   1.591   0.049   0.545  0.0757  0.2477 -0.1082
  706SOL    HW1 2117   1.521   3.102   0.513 -1.1440  0.7106  2.1272
  706SOL    HW2 2118   1.668   0.063   0.478 -2.6703  0.5022  1.2720
  707SOL     OW 2119   1.273   2.550   2.224 -0.4420 -0.3813  0.0921
  707SOL    HW1 2120   1.280   2.488   2.303 -2.9292  0.5385 -5.3249
  707SOL    HW2 2121   1.238   2.500   2.147  0.2964  3.8455  1.6631
  708SOL     OW 2122   0.644   2.303   1.653  0.3067 -0.2778 -0.1364
  708SOL    HW1 2123   0.603   2.227   1.599  1.1858  1.7066 -1.8330
  708SOL    HW2 2124   0.730   2.325   1.608  0.1767  0.2761  2.7587
  709SOL     OW 2125   2.604   0.816   2.005 -0.5738  0.1634 -0.2894
  709SOL    HW1 2126   2.698   0.830   2.032 -0.6266  1.9040 -0.3899
  709SOL    HW2 2127   2.595   0.769   1.912 -3.0930  1.4339 -2.8534
  710SOL     OW 2128   2.875   0.364   1.731  0.1574  0.2199  0.0783
  710SOL    HW1 2129   2.895   0.349   1.631  0.1710 -2.9143 -0.7269
  710SOL    HW2 2130   2.907   0.455   1.758 -1.6589 -2.3001 -0.1814
  711SOL     OW 2131   2.912   2.365   0.227  0.8524  0.2510 -0.0898
  711SOL    HW1 2132   2.989   2.354   0.162 -0.5273  2.6224 -0.6130
  711SOL    HW2 2133   2.929   2.446   0.289 -2.0069 -0.5763 -0.2563
  712SOL     OW 2134   0.299   2.782   2.831 -0.1002  0.0414 -0.5974
  712SOL    HW1 2135   0.342   2.849   2.767 -2.4357 -1.2496  1.9608
  712SOL    HW2 2136   0.368   2.712   2.854 -0.9817  1.1039 -1.9187
  713SOL     OW 2137   2.032   0.632   0.152  0.2223 -0.4190 -0.2188
  713SOL    HW1 2138   1.930   0.649   0.140 -5.1385  0.4878 -1.6838
  713SOL    HW2 2139   2.073   0.720   0.174 -2.1393  0.6042 -1.3446
  714SOL     OW 2140   1.525   1.925   0.551  0.1697 -0.2488 -0.0556
  714SOL    HW1 2141   1.431   1.966   0.542 -2.3659  1.4803 -3.0303
  714SOL    HW2 2142   1.575   1.954   0.636 -0.7778 -1.7535  0.7334
  715SOL     OW 2143   0.141   0.282   0.195  0.7726 -0.5430 -0.5323
  715SOL    HW1 2144   0.049   0.313   0.219  1.7837 -1.6380  1.5161
  715SOL    HW2 2145   0.214   0.352   0.213  0.2567 -0.3231  0.1080
  716SOL     OW 2146   0.909   2.964   2.378  0.5617 -0.1701  0.3691
  716SOL    HW1 2147   0.997   2.925   2.398 -3.4075  1.8979  0.3740
  716SOL    HW2 2148   0.830   2.903   2.403 -0.3463 -0.3246  1.5272
  717SOL     OW 2149   0.372   0.473   3.006 -0.4125 -0.7477  0.3878
  717SOL    HW1 2150   0.454   0.468   2.950  0.3405  1.5461  0.7102
  717SOL    HW2 2151   0.304   0.403   2.980  2.4752  2.1533 -0.6586
  718SOL     OW 2152   1.070   0.581   0.499 -0.0702  0.0358  0.2522
  718SOL    HW1 2153   1.169   0.562   0.465  2.8486 -0.7253 -1.0614
  718SOL    HW2 2154   1.010   0.500   0.519  1.4137  0.9968 -2.2738
  719SOL     OW 2155   2.276   2.166   2.780 -0.4502  0.2025  0.1092
  719SOL    HW1 2156   2.284   2.157   2.680 -1.5129  2.0763 -0.7494
  719SOL    HW2 2157   2.195   2.228   2.802 -2.7450  0.4925  0.0223
  720SOL     OW 2158   1.592   1.049   1.989  0.2276 -0.1541  1.2803
  720SOL    HW1 2159   1.645   1.036   1.898 -0.3995  1.2750 -2.6694
  720SOL    HW2 2160   1.646   1.014   2.067 -1.0185  1.6686 -2.4999
  721SOL     OW 2161   3.009   2.987   1.092  0.2675  0.1342  0.3048
  721SOL    HW1 2162   2.976   3.078   1.129 -1.8304  1.6856 -0.2219
  721SOL    HW2 2163   3.092   2.991   1.030  2.5043 -1.2398 -0.8587
  722SOL     OW 2164   1.292   2.041   2.530  0.6773  0.1069 -0.2053
  722SOL    HW1 2165   1.321   2.103   2.451 -0.7846  2.7677  1.1917
  722SOL    HW2 2166   1.315   1.944   2.510  2.2190 -0.4984 -1.9954
  723SOL     OW 2167   1.254   0.313   0.616 -0.1858 -0.0668  0.1886
  723SOL    HW1 2168   1.250   0.392   0.679 -0.4268  0.0571  0.7754
  723SOL    HW2 2169   1.347   0.299   0.580 -0.0753  0.6842  1.0647
  724SOL     OW 2170   0.839   1.944   2.713  0.2556  0.5882  0.2055
  724SOL    HW1 2171   0.758   1.998   2.692  2.7785 -0.3757 -4.1276
  724SOL    HW2 2172   0.868   1.954   2.810  3.2285  1.0869  2.4702
  725SOL     OW 2173   2.954   0.626   1.278  0.5429 -0.0690  0.0991
  725SOL    HW1 2174   2.881   0.694   1.270  1.2481 -1.2762  0.0002
  725SOL    HW2 2175   3.007   0.615   1.193  0.9768  0.0247  0.5074
  726SOL     OW 2176   1.940   0.119   0.606 -0.2089 -0.5058  0.5287
  726SOL    HW1 2177   1.877   0.114   0.530  2.9703  0.6790  1.9914
  726SOL    HW2 2178   1.895   0.101   0.694  0.8040  1.7640 -0.4710
  727SOL     OW 2179   2.009   1.038   2.112 -0.2921 -0.2134 -0.0331
  727SOL    HW1 2180   1.936   1.107   2.132  1.7330  0.9494  0.7357
  727SOL    HW2 2181   2.071   1.031   2.191 -0.4725 -2.3791  0.5983
  728SOL     OW 2182   1.587   2.677   1.523  0.4815 -0.2650 -0.4059
  728SOL    HW1 2183   1.504   2.734   1.519  2.4988  0.7474  0.7296
  728SOL    HW2 2184   1.638   2.685   1.437 -0.2530 -0.9901  0.3615
  729SOL     OW 2185   2.001   0.350   2.020  0.5571  0.0724 -0.6374
  729SOL    HW1 2186   2.094   0.356   1.979 -3.8202 -2.2578 -1.1541
  729SOL    HW2 2187   1.953   0.440   2.018  0.7316  2.2940  0.1309
  730SOL     OW 2188   0.423   1.061   1.278 -0.2527  0.3116  0.0944
  730SOL    HW1 2189   0.483   0.984   1.317 -1.7872 -0.6985  0.9510
  730SOL    HW2 2190   0.328   1.051   1.318 -2.6828 -1.8589  2.7686
  731SOL     OW 2191   0.725   3.037   0.157 -0.2873  0.1915 -0.3495
  731SOL    HW1 2192   0.821   3.060   0.189  3.5877  3.3368  1.7999
  731SOL    HW2 2193   0.658   3.114   0.176 -2.6718  1.2161 -0.4757
  732SOL     OW 2194   0.692   0.899   0.478 -0.4092  0.5706  0.9179
  732SOL    HW1 2195   0.619   0.882   0.548  0.5811 -1.0355  1.8231
  732SOL    HW2 2196   0.650   0.904   0.385  1.3126 -3.0954  3.6615
  733SOL     OW 2197   1.431   1.523   1.699 -0.6590 -0.1230 -0.2428
  733SOL    HW1 2198   1.408   1.481   1.791 -0.0395 -0.0529  0.9253
  733SOL    HW2 2199   1.343   1.546   1.657  1.2635  0.0675  0.5747
  734SOL     OW 2200   0.055   2.536   2.139  0.3191 -0.2826  0.3122
  734SOL    HW1 2201   0.079   2.528   2.037 -0.8596 -1.6191 -0.0120
  734SOL    HW2 2202   3.090   2.595   2.157 -2.3757  2.8930  5.2516
  735SOL     OW 2203   1.277   0.154   1.181  0.2873 -0.3845 -0.0602
  735SOL    HW1 2204   1.218   0.072   1.208  0.5623 -1.0053 -2.3323
  735SOL    HW2 2205   1.227   0.225   1.128 -0.1165  0.2810 -1.8604
  736SOL     OW 2206   0.952   1.231   3.068  0.3685 -0.0333 -0.5004
  736SOL    HW1 2207   0.905   1.185   0.029 -0.7044  0.2504 -0.9252
  736SOL    HW2 2208   1.019   1.299   3.102  0.9195 -0.6807 -0.1203
  737SOL     OW 2209   0.034   0.725   0.767  0.1276  0.3585 -0.0581
  737SOL    HW1 2210   0.100   0.769   0.702 -2.6256  0.2970  2.1805
  737SOL    HW2 2211   3.065   0.698   0.717 -2.7216 -0.9683 -1.2093
  738SOL     OW 2212   0.636   2.624   1.709  0.4215 -0.2356 -0.1594
  738SOL    HW1 2213   0.633   2.680   1.627  1.9902 -1.8840  2.5296
  738SOL    HW2 2214   0.586   2.535   1.696  0.7255  1.0913  0.3849
  739SOL     OW 2215   1.610   2.661   0.073 -0.1178  0.3276  0.3821
  739SOL    HW1 2216   1.585   2.625   0.163 -3.3229  0.3674  1.2375
  739SOL    HW2 2217   1.535   2.699   0.016 -0.0810 -0.2595 -0.6199
  740SOL     OW 2218   1.878   2.796   1.439 -0.3002 -0.4918  0.3194
  740SOL    HW1 2219   1.931   2.745   1.505 -0.3604  2.5809 -1.4410
  740SOL    HW2 2220   1.872   2.735   1.360 -0.8212  3.6851  0.3754
  741SOL     OW 2221   2.122   0.364   0.808 -0.8687 -0.0608 -0.1548
  741SOL    HW1 2222   2.152   0.343   0.711  2.1654  1.8141 -1.7472
  741SOL    HW2 2223   2.204   0.381   0.869  1.2674 -0.6618 -0.2428
  742SOL     OW 2224   1.246   2.338   2.416  0.6495  0.1082 -0.1302
  742SOL    HW1 2225   1.325   2.285   2.384 -2.7134  0.5521 -1.1488
  742SOL    HW2 2226   1.224   2.316   2.511  0.8827 -3.3167 -1.8152
  743SOL     OW 2227   2.326   0.868   1.947 -0.5371 -0.1540  0.4627
  743SOL    HW1 2228   2.310   0.845   1.850  0.1616 -2.9808  1.6650
  743SOL    HW2 2229   2.423   0.878   1.968 -1.4018 -0.4684 -0.5859
  744SOL     OW 2230   1.870   0.504   0.913 -0.1178  0.0226  0.1380
  744SOL    HW1 2231   1.886   0.511   1.015  2.0939  2.2342  0.3224
  744SOL    HW2 2232   1.956   0.473   0.865 -1.1041  0.0720  0.5381
  745SOL     OW 2233   2.251   1.156   1.966 -0.5591 -0.1722  0.4414
  745SOL    HW1 2234   2.210   1.183   1.874 -1.1499 -1.1512 -3.1546
  745SOL    HW2 2235   2.258   1.053   1.978  1.4467 -0.1601 -1.9468
  746SOL     OW 2236   1.272   1.609   0.670  0.3532 -0.1360  0.4188
  746SOL    HW1 2237   1.366   1.630   0.637 -2.7935  0.0498 -1.0715
  746SOL    HW2 2238   1.223   1.693   0.699  0.8296  3.7696 -0.8830
  747SOL     OW 2239   1.985   1.597   0.883  0.2837  0.5566  0.5284
  747SOL    HW1 2240   1.887   1.580   0.909 -1.6010 -1.4365 -0.4085
  747SOL    HW2 2241   2.002   1.579   0.786  0.5313  0.7682 -2.3562
  748SOL     OW 2242   0.270   2.796   0.370 -0.0776 -0.5050  0.0725
  748SOL    HW1 2243   0.310   2.791   0.460  0.5703 -0.3552  0.1103
  748SOL    HW2 2244   0.339   2.807   0.294  0.8257 -1.6328  0.1520
  749SOL     OW 2245   0.276   0.956   2.372 -0.3181 -0.3967 -0.3580
  749SOL    HW1 2246   0.341   1.027   2.339 -0.3561 -0.5289  1.1911
  749SOL    HW2 2247   0.184   1.000   2.382  0.1718  1.5892 -1.1079
  750SOL     OW 2248   1.389   2.761   1.824 -0.2305  0.2220 -0.1404
  750SOL    HW1 2249   1.320   2.822   1.866 -0.5501 -2.9672  2.5272
  750SOL    HW2 2250   1.485   2.805   1.828  1.1025  1.3554  0.2866
  751SOL     OW 2251   2.595   0.616   0.213 -0.3690 -0.3014 -0.1135
  751SOL    HW1 2252   2.665   0.624   0.284 -2.7572  2.0620  0.3772
  751SOL    HW2 2253   2.570   0.515   0.206 -0.3683 -0.1296  2.6115
  752SOL     OW 2254   3.099   2.101   0.773 -0.0157 -0.3857 -0.2910
  752SOL    HW1 2255   3.001   2.081   0.796 -0.3746  0.8194  0.4176
  752SOL    HW2 2256   3.101   2.196   0.728  2.3452  2.2787 -1.6229
  753SOL     OW 2257   0.924   0.208   0.923 -0.2736  0.4071  0.0571
  753SOL    HW1 2258   0.947   0.149   0.846  2.4627  4.2768  2.9475
  753SOL    HW2 2259   0.836   0.256   0.899  0.7882  0.6750  1.2134
  754SOL     OW 2260   0.560   0.094   2.398  0.3534 -0.6046  0.0687
  754SOL    HW1 2261   0.495   0.173   2.406  0.3199  1.7458 -0.7642
  754SOL    HW2 2262   0.512   0.010   2.376  0.4215  1.9783  0.4342
  755SOL     OW 2263   2.035   0.936   2.986 -0.2413  0.4413 -0.0503
  755SOL    HW1 2264   2.127   0.950   3.034  2.6082  1.2354  3.0902
  755SOL    HW2 2265   2.009   0.835   2.975  1.1634 -0.5060  2.8586
  756SOL     OW 2266   2.382   2.110   2.453  0.3947  0.4120  0.0268
  756SOL    HW1 2267   2.420   2.106   2.359  0.2432 -0.5995  1.6378
  756SOL    HW2 2268   2.458   2.111   2.519 -1.0841  1.5152  2.2219
  757SOL     OW 2269   1.520   0.445   0.727  0.4047  0.1620 -0.3798
  757SOL    HW1 2270   1.426   0.471   0.757  2.0355  0.2718  1.7197
  757SOL    HW2 2271   1.573   0.391   0.800  3.0092 -2.9914 -1.0581
  758SOL     OW 2272   1.490   0.306   1.122  0.5261 -0.1469  0.0095
  758SOL    HW1 2273   1.420   0.230   1.143  1.5052 -2.5365 -1.4790
  758SOL    HW2 2274   1.444   0.400   1.116 -4.2581  4.6579  1.3441
  759SOL     OW 2275   2.671   0.543   1.180 -0.6519  0.0069  0.0171
  759SOL    HW1 2276   2.645   0.470   1.241 -1.1233  1.3342 -0.5484
  759SOL    HW2 2277   2.738   0.524   1.110 -2.3883 -1.7225  2.4876
  760SOL     OW 2278   2.368   1.070   1.324 -0.7047  0.2326  0.3362
  760SOL    HW1 2279   2.385   1.123   1.243  0.5761 -1.2470  0.1051
  760SOL    HW2 2280   2.348   0.979   1.297  0.4537  3.5476 -0.3523
  761SOL     OW 2281   0.350   0.442   0.302  0.4435  0.2939  0.2502
  761SOL    HW1 2282   0.400   0.509   0.250 -0.7918 -5.3101 -0.5260
  761SOL    HW2 2283   0.302   0.490   0.375 -2.1166 -1.0633 -0.0322
  762SOL     OW 2284   1.654   2.122   1.146 -0.2070  0.1027  0.5244
  762SOL    HW1 2285   1.712   2.037   1.132 -0.5849 -1.1784 -1.6277
  762SOL    HW2 2286   1.554   2.096   1.139 -1.9585  0.3554  3.5964
  763SOL     OW 2287   1.269   1.477   1.939 -0.6561  1.0435  0.0041
  763SOL    HW1 2288   1.271   1.566   1.993  1.1766 -1.6597  0.8646
  763SOL    HW2 2289   1.176   1.470   1.900 -0.0565  4.3705  0.0952
  764SOL     OW 2290   0.050   1.911   2.561  0.3415 -0.7259 -0.0906
  764SOL    HW1 2291   3.091   1.961   2.506 -2.1968  0.5075 -2.8057
  764SOL    HW2 2292   0.023   1.910   2.663 -2.1410  0.2939  1.1921
  765SOL     OW 2293   1.469   2.703   1.112 -0.1383  0.7230  0.1284
  765SOL    HW1 2294   1.537   2.634   1.136 -1.4900 -0.1866  0.2982
  765SOL    HW2 2295   1.498   2.792   1.147  2.2787 -1.5071 -1.9523
  766SOL     OW 2296   3.081   2.519   2.546 -0.0058  0.2645 -0.2705
  766SOL    HW1 2297   3.053   2.603   2.593  0.5282 -0.4851 -1.8022
  766SOL    HW2 2298   3.064   2.438   2.606 -1.5448 -0.1499  0.6784
  767SOL     OW 2299   1.347   0.754   2.387 -0.3752 -0.1443  0.1917
  767SOL    HW1 2300   1.442   0.789   2.411  3.8813  0.7166  0.5622
  767SOL    HW2 2301   1.347   0.650   2.390  1.0940 -1.1229  3.1222
  768SOL     OW 2302   1.240   2.147   3.104 -0.0765  0.1459  0.0365
  768SOL    HW1 2303   1.308   2.220   3.096  1.2249 -3.4879  1.1723
  768SOL    HW2 2304   1.259   2.072   3.039 -3.3876 -0.4347  0.9888
  769SOL     OW 2305   0.452   2.257   1.229 -0.2865  0.1923  0.7128
  769SOL    HW1 2306   0.434   2.157   1.228 -0.8800  0.3612 -2.1184
  769SOL    HW2 2307   0.535   2.283   1.276 -1.4873 -1.2913 -3.8292
  770SOL     OW 2308   1.924   0.679   2.907  0.5113 -0.1250  0.1566
  770SOL    HW1 2309   1.903   0.581   2.916  1.2430  0.4266 -0.1624
  770SOL    HW2 2310   1.840   0.736   2.888 -0.3690 -1.9289  1.7147
  771SOL     OW 2311   0.194   0.043   2.328 -0.0125 -0.2062  0.1407
  771SOL    HW1 2312   0.099   0.015   2.311  2.3797  0.7809 -2.0188
  771SOL    HW2 2313   0.249   0.026   2.245  0.8046 -0.3929  1.5761
  772SOL     OW 2314   1.949   2.796   2.028 -0.0126 -0.0081  0.4725
  772SOL    HW1 2315   1.992   2.703   2.017  1.6059  0.8967 -0.4355
  772SOL    HW2 2316   2.003   2.867   1.981 -1.9212 -0.2358 -2.5862
  773SOL     OW 2317   0.928   1.996   1.650  0.3131  0.1283 -0.0999
  773SOL    HW1 2318   0.925   1.990   1.549 -1.1333 -1.3632  1.2696
  773SOL    HW2 2319   0.937   2.090   1.683 -0.0201  2.5180 -0.0727
  774SOL     OW 2320   1.117   0.117   1.859  0.2997 -0.4067 -0.2663
  774SOL    HW1 2321   1.180   0.151   1.935  0.8667 -0.4703  0.2448
  774SOL    HW2 2322   1.022   0.142   1.891  1.4910  3.4828  0.8085
  775SOL     OW 2323   2.148   2.878   3.087 -0.1188 -0.3220 -0.1336
  775SOL    HW1 2324   2.196   2.847   3.003  1.6754 -1.0364 -1.2465
  775SOL    HW2 2325   2.053   2.840   3.092 -0.9077 -1.5240 -1.5279
  776SOL     OW 2326   3.040   0.829   2.350 -0.5194 -0.3378 -0.3106
  776SOL    HW1 2327   2.965   0.846   2.281  3.5264 -1.3646 -3.2274
  776SOL    HW2 2328   3.033   0.895   2.426 -1.1173  0.4757  0.6851
  777SOL     OW 2329   2.255   2.244   1.998  0.3059  0.2353 -0.4897
  777SOL    HW1 2330   2.225   2.207   1.910 -1.1056  3.4303  0.4080
  777SOL    HW2 2331   2.225   2.188   2.073  2.6663  1.0825 -1.0670
  778SOL     OW 2332   1.956   0.813   2.505 -0.1135 -0.0334  0.2515
  778SOL    HW1 2333   1.991   0.753   2.575 -0.5677  0.5469 -1.3843
  778SOL    HW2 2334   1.968   0.763   2.416  1.0333  1.3018  1.6074
  779SOL     OW 2335   2.779   0.342   0.357  0.4993 -0.3193 -0.0436
  779SOL    HW1 2336   2.757   0.275   0.433 -1.1511 -0.8589  1.3559
  779SOL    HW2 2337   2.696   0.352   0.295 -0.8507  0.1289  0.5920
  780SOL     OW 2338   2.596   0.336   0.150  0.0469  0.3166  0.2635
  780SOL    HW1 2339   2.637   0.245   0.137 -1.4952 -1.6534 -1.7205
  780SOL    HW2 2340   2.500   0.337   0.110 -0.3995  2.7824 -0.0372
  781SOL     OW 2341   0.270   2.655   1.405  0.4945 -0.2592 -0.1856
  781SOL    HW1 2342   0.270   2.578   1.337 -1.9713  1.6686 -0.1700
  781SOL    HW2 2343   0.226   2.737   1.361 -1.4327  1.1579  0.9467
  782SOL     OW 2344   2.277   2.551   0.116 -0.2694 -0.1482 -0.5579
  782SOL    HW1 2345   2.231   2.583   0.205 -0.0229 -0.1493  2.8281
  782SOL    HW2 2346   2.349   2.618   0.084  0.6544  3.3677  0.2495
  783SOL     OW 2347   0.694   1.180   1.300 -0.2286 -0.1090 -0.0440
  783SOL    HW1 2348   0.594   1.175   1.274 -1.0467 -0.2304  0.4222
  783SOL    HW2 2349   0.732   1.084   1.314  0.0519  1.4575 -1.7639
  784SOL     OW 2350   1.436   0.687   2.753 -0.0632 -0.4471 -0.0657
  784SOL    HW1 2351   1.353   0.630   2.731 -4.1553  0.1378 -0.4117
  784SOL    HW2 2352   1.427   0.787   2.736  1.2098  0.5242  1.4292
  785SOL     OW 2353   2.349   0.387   1.039  0.0944 -0.2592 -0.8610
  785SOL    HW1 2354   2.401   0.301   1.061  0.0106  1.3727  0.3948
  785SOL    HW2 2355   2.269   0.400   1.103 -0.4378 -0.8281 -2.3102
  786SOL     OW 2356   1.204   2.394   2.028  0.3459  0.7751  0.1004
  786SOL    HW1 2357   1.248   2.448   1.957 -0.4992  0.1117 -2.7987
  786SOL    HW2 2358   1.236   2.297   2.028 -1.1678  2.0432  0.5450
  787SOL     OW 2359   1.865   0.458   1.174 -0.0795 -0.4445 -0.1249
  787SOL    HW1 2360   1.802   0.532   1.213 -3.6727  1.9246  0.5465
  787SOL    HW2 2361   1.832   0.364   1.198 -0.1435 -1.3995  0.7640
  788SOL     OW 2362   0.199   0.831   0.583 -0.0234 -0.0053  0.1343
  788SOL    HW1 2363   0.299   0.821   0.605  0.9120 -0.1729 -1.2547
  788SOL    HW2 2364   0.191   0.893   0.504 -1.8364 -0.4507  0.4846
  789SOL     OW 2365   0.507   2.084   1.557  0.0767 -0.8702 -0.0788
  789SOL    HW1 2366   0.413   2.132   1.564  0.4349  1.6818 -0.3086
  789SOL    HW2 2367   0.518   2.011   1.626  1.1907 -0.5194  0.2079
  790SOL     OW 2368   0.921   0.707   2.334  0.0594 -0.1345  0.1442
  790SOL    HW1 2369   0.854   0.753   2.276  1.2365 -0.9034  0.9428
  790SOL    HW2 2370   0.985   0.650   2.279  2.2855 -0.1053  0.9208
  791SOL     OW 2371   1.718   0.724   0.816 -0.0361  0.0329  0.1518
  791SOL    HW1 2372   1.671   0.671   0.745 -0.8889  1.5030 -0.4352
  791SOL    HW2 2373   1.791   0.663   0.856  0.0333  0.9331 -2.8836
  792SOL     OW 2374   0.906   2.657   2.227 -0.0924  0.0109 -0.2254
  792SOL    HW1 2375   0.994   2.699   2.203  1.2684 -1.0778 -1.6840
  792SOL    HW2 2376   0.864   2.619   2.144  0.6174  0.5825  0.6260
  793SOL     OW 2377   0.897   0.200   0.354 -0.1144 -0.4974 -0.5214
  793SOL    HW1 2378   0.838   0.240   0.288  2.0886 -3.0498 -0.1605
  793SOL    HW2 2379   0.937   0.112   0.319 -0.0577 -1.4020  1.8497
  794SOL     OW 2380   0.560   1.570   1.885 -0.2857  0.4936 -0.6061
  794SOL    HW1 2381   0.563   1.523   1.978  0.1565 -3.7279  1.6015
  794SOL    HW2 2382   0.657   1.604   1.870  5.3467 -2.6263 -0.8694
  795SOL     OW 2383   0.207   2.136   2.441  0.0617  0.0101  0.1569
  795SOL    HW1 2384   0.168   2.068   2.503  1.0986 -0.0745  0.6918
  795SOL    HW2 2385   0.134   2.180   2.380  0.2542  1.6609 -1.6144
  796SOL     OW 2386   2.523   0.654   2.197  0.0628  0.0930 -0.0426
  796SOL    HW1 2387   2.534   0.708   2.286  0.3060 -0.6882  0.5376
  796SOL    HW2 2388   2.537   0.720   2.117  1.9998 -0.2954 -0.4361
  797SOL     OW 2389   2.757   2.238   2.740  0.2839  0.3429  0.1982
  797SOL    HW1 2390   2.694   2.278   2.670  1.0267 -0.9043  1.1850
  797SOL    HW2 2391   2.702   2.209   2.825 -0.9946 -1.5135  3.3964
  798SOL     OW 2392   3.053   3.082   2.229  0.4340 -0.5982 -0.2825
  798SOL    HW1 2393   2.969   3.109   2.283 -2.4174 -1.4969  1.1241
  798SOL    HW2 2394   3.024   3.041   2.143 -0.4037  0.3230  1.2521
  799SOL     OW 2395   0.172   2.598   2.373  0.3375  0.3261  0.4850
  799SOL    HW1 2396   0.099   2.581   2.446  0.3436  0.2038  0.5465
  799SOL    HW2 2397   0.138   2.574   2.277 -0.6249  0.6061 -0.8043
  800SOL     OW 2398   0.390   2.182   0.156  0.1596 -0.7757  0.1590
  800SOL    HW1 2399   0.347   2.258   0.104 -0.5894 -2.1530  1.2211
  800SOL    HW2 2400   0.347   2.091   0.123 -2.9982 -1.8694  2.1083
  801SOL     OW 2401   1.744   1.503   0.951  0.3784 -0.2068 -0.1680
  801SOL    HW1 2402   1.759   1.413   0.901  1.2462 -1.0487 -1.5476
  801SOL    HW2 2403   1.653   1.545   0.935 -2.1786 -0.6864  0.7494
  802SOL     OW 2404   3.064   1.247   0.705 -0.5463  0.0833 -0.3379
  802SOL    HW1 2405   2.972   1.204   0.690 -2.3508  2.0396  1.4844
  802SOL    HW2 2406   3.115   1.199   0.781 -2.5385 -0.9757  1.3931
  803SOL     OW 2407   1.434   1.772   2.206 -1.1620 -0.1160 -0.5882
  803SOL    HW1 2408   1.364   1.764   2.136  2.4276  1.8008  1.6026
  803SOL    HW2 2409   1.392   1.780   2.297 -2.2923 -0.3131 -2.0224
  804SOL     OW 2410   1.784   1.450   0.520 -0.4644 -0.4896  0.6212
  804SOL    HW1 2411   1.849   1.521   0.483  1.1608  0.6735 -0.3724
  804SOL    HW2 2412   1.832   1.402   0.597 -0.2684  3.6008  1.1913
  805SOL     OW 2413   2.554   1.198   3.112  0.2564  0.0112 -0.1683
  805SOL    HW1 2414   2.527   1.247   3.028  0.9159  1.1333  0.1242
  805SOL    HW2 2415   2.595   1.103   3.082  0.0853 -1.4533  0.1188
  806SOL     OW 2416   0.737   2.652   0.517  0.1021 -0.2070  0.2668
  806SOL    HW1 2417   0.761   2.611   0.424  1.3295 -1.2684 -0.1196
  806SOL    HW2 2418   0.711   2.749   0.507 -0.7016 -0.4076 -0.4275
  807SOL     OW 2419   2.313   1.505   2.498 -0.0617 -0.2940 -0.1384
  807SOL    HW1 2420   2.245   1.573   2.501  2.9534 -0.1129 -2.8458
  807SOL    HW2 2421   2.292   1.449   2.420 -0.9235  2.0098  0.9669
  808SOL     OW 2422   0.798   1.550   1.131 -0.0819 -0.2400  0.2599
  808SOL    HW1 2423   0.875   1.492   1.162 -1.3230  0.5121 -0.3647
  808SOL    HW2 2424   0.708   1.538   1.176  1.1597 -1.6921 -1.8125
  809SOL     OW 2425   2.912   0.645   0.628  0.3610 -0.2836  0.0150
  809SOL    HW1 2426   2.824   0.642   0.678  2.2344 -0.2154 -1.6830
  809SOL    HW2 2427   2.902   0.663   0.529  0.2578 -0.2265  4.6948
  810SOL     OW 2428   0.652   1.398   0.716 -0.0385  0.0429  0.0092
  810SOL    HW1 2429   0.614   1.452   0.799 -0.9632 -0.0061 -0.7625
  810SOL    HW2 2430   0.720   1.450   0.653 -1.1174  0.8080  0.9071
  811SOL     OW 2431   1.932   2.677   1.214 -0.3415  0.3146  0.4806
  811SOL    HW1 2432   2.030   2.648   1.206 -1.1470 -0.3305 -1.2005
  811SOL    HW2 2433   1.866   2.605   1.185  1.9372 -1.3497 -0.1715
  812SOL     OW 2434   1.200   2.671   1.441 -0.4032  0.0832 -0.1593
  812SOL    HW1 2435   1.270   2.736   1.477  0.3015 -0.7161  1.7790
  812SOL    HW2 2436   1.114   2.725   1.423  1.6979  0.6078  0.7714
  813SOL     OW 2437   0.786   2.913   1.578 -0.0368 -0.3831  0.0968
  813SOL    HW1 2438   0.735   2.919   1.664 -1.6547 -1.2023  1.2945
  813SOL    HW2 2439   0.744   2.976   1.511 -1.1457  1.4831  0.9364
  814SOL     OW 2440   1.015   2.676   2.512  0.4079  0.1123 -0.0438
  814SOL    HW1 2441   0.985   2.636   2.423 -0.3102 -0.7863  0.2994
  814SOL    HW2 2442   0.939   2.667   2.579 -1.9481  1.9547  0.8835
  815SOL     OW 2443   0.884   0.333   2.681  0.0130  0.2878 -0.4565
  815SOL    HW1 2444   0.817   0.257   2.658 -2.1808  0.5995  1.1432
  815SOL    HW2 2445   0.828   0.418   2.657 -0.9987 -1.0511  0.7940
  816SOL     OW 2446   2.352   0.347   0.037  0.9977 -0.2826  0.1750
  816SOL    HW1 2447   2.265   0.299   0.064 -2.4041 -0.1870 -1.0662
  816SOL    HW2 2448   2.329   0.436   3.108 -2.6110  0.2425  1.1466
  817SOL     OW 2449   2.117   2.965   1.898  0.3554 -0.1409  0.0563
  817SOL    HW1 2450   2.176   3.041   1.920 -1.7394 -5.5337 -4.6993
  817SOL    HW2 2451   2.034   2.998   1.844 -0.0000  0.2547 -1.4951
  818SOL     OW 2452   1.161   0.584   0.055  0.7994 -0.1363  0.3599
  818SOL    HW1 2453   1.103   0.667   0.034  1.7040  3.0710 -1.3594
  818SOL    HW2 2454   1.102   0.498   0.046 -2.4974  0.5584  0.4074
  819SOL     OW 2455   1.694   1.816   2.494  0.2258 -0.1558 -0.1060
  819SOL    HW1 2456   1.631   1.736   2.488 -0.6934 -4.6668 -1.6509
  819SOL    HW2 2457   1.766   1.811   2.422  1.0543  0.6813  0.8704
  820SOL     OW 2458   0.201   1.668   3.011  0.1151  0.1463  0.1970
  820SOL    HW1 2459   0.236   1.682   2.915 -0.1636  2.3066 -1.8643
  820SOL    HW2 2460   0.184   1.565   3.014  1.1873 -3.9825  0.8982
  821SOL     OW 2461   0.096   2.780   0.758  0.6683 -0.1300 -0.4153
  821SOL    HW1 2462   0.155   2.754   0.680  2.4551 -0.0026 -1.5322
  821SOL    HW2 2463   0.140   2.756   0.846 -0.0126 -0.4359  2.1082
  822SOL     OW 2464   2.318   2.425   2.578  0.8244 -0.3553 -0.5275
  822SOL    HW1 2465   2.247   2.440   2.512 -0.8378 -2.3533  0.9939
  822SOL    HW2 2466   2.335   2.499   2.647  1.4931 -0.1071 -0.1285
  823SOL     OW 2467   1.428   0.041   1.860 -0.0466 -0.1519  0.6858
  823SOL    HW1 2468   1.462   3.098   1.937 -0.6860  0.7881  0.2623
  823SOL    HW2 2469   1.322   0.043   1.842 -4.4775  0.7099 -0.4336
  824SOL     OW 2470   2.960   2.222   2.031  0.8726  0.5522 -0.1631
  824SOL    HW1 2471   3.033   2.197   2.095 -3.6973 -0.0500  0.7788
  824SOL    HW2 2472   2.881   2.154   2.044 -2.5400  0.2245  0.5842
  825SOL     OW 2473   2.988   2.143   2.430  0.4412 -0.5991 -0.2290
  825SOL    HW1 2474   2.918   2.081   2.389 -0.5697  1.2277  2.8777
  825SOL    HW2 2475   2.977   2.246   2.400 -1.1519  4.0380  2.5748
  826SOL     OW 2476   2.533   0.794   2.465 -0.4547 -0.3454 -0.3312
  826SOL    HW1 2477   2.577   0.728   2.532  2.5706  0.8422  0.5364
  826SOL    HW2 2478   2.445   0.818   2.500  2.2388 -3.3036  1.6689
  827SOL     OW 2479   2.672   2.189   1.498  0.6021 -0.0417 -0.0548
  827SOL    HW1 2480   2.635   2.186   1.592  0.0333  1.0578  0.9736
  827SOL    HW2 2481   2.603   2.152   1.433  0.0253  0.3901 -0.7667
  828SOL     OW 2482   2.872   0.127   1.879  0.8280  0.0439  0.2179
  828SOL    HW1 2483   2.962   0.082   1.854  2.0479 -0.9477  0.3271
  828SOL    HW2 2484   2.863   0.218   1.838 -1.3186 -0.3241 -2.4743
  829SOL     OW 2485   1.106   2.038   2.719 -0.0364  0.2478  0.0402
  829SOL    HW1 2486   1.168   2.060   2.642  0.1189 -3.3425  0.3012
  829SOL    HW2 2487   1.018   1.994   2.698  1.7069  1.1356  1.9158
  830SOL     OW 2488   0.781   0.874   0.864 -0.1055  0.7634 -0.1811
  830SOL    HW1 2489   0.803   0.852   0.962 -2.5767  1.8368  1.5372
  830SOL    HW2 2490   0.751   0.972   0.859 -1.1345 -0.2489  1.7965
  831SOL     OW 2491   2.899   1.668   2.866 -0.2967 -0.3886  0.3563
  831SOL    HW1 2492   2.883   1.721   2.954  1.5151 -2.1517  0.0407
  831SOL    HW2 2493   2.938   1.575   2.889  1.2049 -1.3091 -0.7733
  832SOL     OW 2494   1.848   2.381   2.294 -0.0084 -0.4311 -0.1503
  832SOL    HW1 2495   1.879   2.343   2.203  2.8566 -0.3152  1.5033
  832SOL    HW2 2496   1.807   2.473   2.286 -0.6719 -0.5365  0.1201
  833SOL     OW 2497   0.889   0.197   1.960 -0.5922  0.0478  0.8905
  833SOL    HW1 2498   0.881   0.300   1.958  1.9794 -0.1684 -2.2609
  833SOL    HW2 2499   0.877   0.167   2.055 -1.0672  2.8686 -1.4436
  834SOL     OW 2500   3.019   0.243   1.433  0.3106 -0.1229 -0.0930
  834SOL    HW1 2501   2.952   0.316   1.446  1.8846 -1.4768 -1.6635
  834SOL    HW2 2502   3.110   0.290   1.427  0.9010  0.1811 -3.9717
  835SOL     OW 2503   2.712   0.703   3.094  0.1276  0.7199  0.2406
  835SOL    HW1 2504   2.671   0.678   0.074 -0.2468  0.0352  2.8188
  835SOL    HW2 2505   2.750   0.618   3.046  2.6199 -5.9895 -2.3517
  836SOL     OW 2506   1.599   2.097   0.181  0.5896 -0.5032  0.1275
  836SOL    HW1 2507   1.660   2.158   0.132 -0.0485  0.1664 -0.1313
  836SOL    HW2 2508   1.615   1.999   0.159 -1.9646 -1.0319  1.7713
  837SOL     OW 2509   1.938   1.821   0.679 -0.5930 -0.0603 -0.3803
  837SOL    HW1 2510   2.001   1.745   0.657  1.0660 -1.1968 -0.3802
  837SOL    HW2 2511   1.959   1.893   0.615 -1.3594 -0.8366  0.5577
  838SOL     OW 2512   1.608   0.921   2.451  0.2125  0.5697  0.0764
  838SOL    HW1 2513   1.633   0.909   2.354 -1.9358 -1.2750 -1.6013
  838SOL    HW2 2514   1.695   0.937   2.504  3.8782  0.5463  0.0065
  839SOL     OW 2515   0.678   1.449   2.108 -0.0332  0.2317 -0.3049
  839SOL    HW1 2516   0.704   1.352   2.116 -1.5364  2.4345  0.4281
  839SOL    HW2 2517   0.737   1.499   2.046  0.1497  0.6829  2.0635
  840SOL     OW 2518   1.071   1.753   0.391 -0.7646  0.3363  0.4676
  840SOL    HW1 2519   0.980   1.794   0.377  1.8070 -2.5351 -3.7331
  840SOL    HW2 2520   1.113   1.775   0.479  0.6757  2.2383  1.1764
  841SOL     OW 2521   1.838   2.342   0.425 -0.9021 -0.6792 -0.1132
  841SOL    HW1 2522   1.862   2.371   0.519 -1.4932  0.9261  0.7026
  841SOL    HW2 2523   1.837   2.412   0.349 -0.5378  0.1306 -2.3788
  842SOL     OW 2524   0.466   0.616   0.109 -0.0252 -0.5133 -0.8615
  842SOL    HW1 2525   0.570   0.597   0.118  2.1637 -1.0444  3.3120
  842SOL    HW2 2526   0.436   0.560   0.027 -0.5596 -0.4331 -1.6893
  843SOL     OW 2527   0.718   0.424   0.633  0.7809  0.1270 -0.0897
  843SOL    HW1 2528   0.641   0.379   0.580 -0.6728 -1.2779 -1.3315
  843SOL    HW2 2529   0.812   0.395   0.604  1.9167  0.8994  0.0221
  844SOL     OW 2530   2.875   3.110   2.779 -0.4398 -0.2991  0.2289
  844SOL    HW1 2531   2.779   3.077   2.760  3.7419 -0.3775  2.9593
  844SOL    HW2 2532   2.954   3.052   2.753  0.7031 -2.0665 -0.3730
  845SOL     OW 2533   3.072   2.312   1.587  0.0242 -0.1276  0.7059
  845SOL    HW1 2534   3.054   2.343   1.685  1.3587 -0.0776  2.3459
  845SOL    HW2 2535   3.089   2.212   1.592  1.4865  1.1978  0.3273
  846SOL     OW 2536   2.702   1.792   2.171  0.5849 -0.4254  0.1310
  846SOL    HW1 2537   2.658   1.768   2.258  0.3418  2.8028 -0.4511
  846SOL    HW2 2538   2.668   1.721   2.104 -2.6868 -0.0284  1.2738
  847SOL     OW 2539   1.057   0.680   1.996 -0.0850 -0.3036 -0.6235
  847SOL    HW1 2540   1.046   0.604   2.063 -1.8614  1.5000 -0.6331
  847SOL    HW2 2541   0.976   0.693   1.940  2.4770  0.9691 -2.3863
  848SOL     OW 2542   2.669   2.748   2.687  0.2113 -0.1966 -0.3545
  848SOL    HW1 2543   2.747   2.729   2.750  0.9917 -0.8255 -0.3831
  848SOL    HW2 2544   2.644   2.842   2.702 -2.0670 -2.9379 -0.7226
  849SOL     OW 2545   0.332   2.943   3.087  0.2762 -0.1143  0.4849
  849SOL    HW1 2546   0.333   3.035   3.043 -0.4897  0.6198 -0.5983
  849SOL    HW2 2547   0.307   2.877   3.015  0.6971  0.9135 -1.3704
  850SOL     OW 2548   1.212   2.838   1.089 -0.2455  0.3950 -0.2132
  850SOL    HW1 2549   1.226   2.743   1.053  1.1975 -1.1687 -1.7320
  850SOL    HW2 2550   1.227   2.911   1.016  1.3207  0.7730 -3.6388
  851SOL     OW 2551   2.710   0.477   2.355 -0.2969 -0.2019 -0.1972
  851SOL    HW1 2552   2.660   0.522   2.272 -0.8156  1.2536  0.6474
  851SOL    HW2 2553   2.811   0.461   2.336  0.0706 -0.6391 -2.5470
  852SOL     OW 2554   1.559   0.315   2.328  0.3831  0.1761  0.0045
  852SOL    HW1 2555   1.648   0.357   2.350 -0.3324 -0.6115 -2.7043
  852SOL    HW2 2556   1.575   0.225   2.283  1.3692 -0.0826 -0.8221
  853SOL     OW 2557   0.107   3.044   0.297  0.1753 -0.5931 -0.5715
  853SOL    HW1 2558   0.042   3.071   0.375 -0.7250  1.3721  1.7220
  853SOL    HW2 2559   0.153   2.954   0.320  0.0554  0.4610 -2.5622
  854SOL     OW 2560   2.432   1.223   2.156  0.1078  0.0358 -0.0591
  854SOL    HW1 2561   2.461   1.314   2.184 -0.6323 -1.3999 -3.8200
  854SOL    HW2 2562   2.384   1.223   2.069  0.0548  1.4095 -0.0481
  855SOL     OW 2563   0.750   2.562   0.260 -0.1129  0.7092  0.6041
  855SOL    HW1 2564   0.784   2.471   0.232  1.1883  3.6107 -1.9522
  855SOL    HW2 2565   0.764   2.634   0.189 -1.7628 -0.7572  2.3495
  856SOL     OW 2566   3.095   2.964   2.726  0.6894 -0.0112  0.1971
  856SOL    HW1 2567   0.044   2.990   2.652 -0.9059 -2.3212 -1.9044
  856SOL    HW2 2568   0.016   2.948   2.819 -0.7730 -0.1170  0.3139
  857SOL     OW 2569   0.996   2.838   1.421  0.3022 -0.2603 -0.7449
  857SOL    HW1 2570   0.921   2.882   1.478 -1.7041 -0.1237  0.1440
  857SOL    HW2 2571   0.965   2.743   1.406 -0.8071  2.5122  0.3128
  858SOL     OW 2572   2.473   2.205   1.714 -0.0652 -0.0044 -0.1930
  858SOL    HW1 2573   2.468   2.306   1.718 -1.4726  0.5710  1.2109
  858SOL    HW2 2574   2.391   2.171   1.661  0.2100  1.9622 -1.3761
  859SOL     OW 2575   1.779   1.970   1.731 -0.3468 -0.0355  0.4911
  859SOL    HW1 2576   1.706   1.910   1.695  0.4217  0.7201 -0.8605
  859SOL    HW2 2577   1.735   2.061   1.745  0.1307  0.7822  1.1539
  860SOL     OW 2578   2.337   0.044   0.317 -0.7407  0.0258  0.0656
  860SOL    HW1 2579   2.281   0.082   0.239  4.3665 -1.2438  2.4110
  860SOL    HW2 2580   2.335   0.108   0.395 -1.5372 -0.2083  1.6525
  861SOL     OW 2581   2.684   0.152   0.539 -0.2547  0.1964  0.0853
  861SOL    HW1 2582   2.680   0.049   0.548 -1.4022 -2.0445 -0.8570
  861SOL    HW2 2583   2.604   0.193   0.580 -1.3593 -1.2444 -1.8372
  862SOL     OW 2584   1.254   2.742   2.608 -0.6171  0.5396  0.2686
  862SOL    HW1 2585   1.319   2.665   2.620 -0.9899 -0.9876 -2.1650
  862SOL    HW2 2586   1.160   2.707   2.610 -0.7524 -0.5810  4.8687
  863SOL     OW 2587   0.496   0.614   1.208  0.1224 -0.0700 -0.5636
  863SOL    HW1 2588   0.513   0.654   1.113  0.6972 -1.9226 -1.3972
  863SOL    HW2 2589   0.512   0.514   1.208  0.7917 -0.4364 -0.9584
  864SOL     OW 2590   0.004   0.022   1.806  0.3537  0.6033 -0.2991
  864SOL    HW1 2591   0.083   0.074   1.838 -0.6224 -0.8243  0.6907
  864SOL    HW2 2592   0.022   3.040   1.817 -2.9304  2.4257 -2.1582
  865SOL     OW 2593   0.527   1.151   0.030  0.0928 -0.4136 -0.5082
  865SOL    HW1 2594   0.522   1.255   0.024 -2.3270  3.3434 -0.5623
  865SOL    HW2 2595   0.615   1.108   3.112  3.9531 -1.0724  0.0931
  866SOL     OW 2596   2.977   0.465   0.205 -0.0565  0.1581 -0.0950
  866SOL    HW1 2597   2.962   0.561   0.237 -2.0824 -0.2162  0.5161
  866SOL    HW2 2598   2.909   0.413   0.256 -0.0308 -0.5266 -0.5438
  867SOL     OW 2599   2.852   2.704   2.924  0.5324 -0.1499 -0.2102
  867SOL    HW1 2600   2.893   2.762   2.994 -2.5462 -0.5688 -0.5991
  867SOL    HW2 2601   2.840   2.607   2.955  2.4104 -0.9591 -1.7639
  868SOL     OW 2602   1.416   0.631   0.187  0.0608  0.2334 -0.2332
  868SOL    HW1 2603   1.455   0.537   0.201  0.1269 -2.6984 -1.2452
  868SOL    HW2 2604   1.323   0.629   0.149  0.6015 -1.4165  0.9363
  869SOL     OW 2605   2.481   1.448   0.406 -0.0268 -1.0105 -0.4144
  869SOL    HW1 2606   2.413   1.526   0.391 -0.3779 -0.2986 -0.2897
  869SOL    HW2 2607   2.565   1.484   0.455 -0.6473  1.4118 -0.8106
  870SOL     OW 2608   2.255   1.654   0.334 -0.6541 -0.0912  0.4519
  870SOL    HW1 2609   2.223   1.599   0.257 -1.5294 -0.2689 -0.8820
  870SOL    HW2 2610   2.230   1.754   0.336  1.9571  0.0487  0.3965
  871SOL     OW 2611   1.333   1.442   1.021  0.3143 -0.0933  0.1425
  871SOL    HW1 2612   1.241   1.486   1.048 -3.0904  0.0393  3.5583
  871SOL    HW2 2613   1.375   1.396   1.108  1.8125 -0.4633  2.5027
  872SOL     OW 2614   1.186   1.552   1.547 -0.1590 -0.0828  0.0288
  872SOL    HW1 2615   1.164   1.448   1.554 -0.4146 -2.7960  2.2335
  872SOL    HW2 2616   1.132   1.599   1.477  0.6830  1.2091  0.4043
  873SOL     OW 2617   0.567   1.544   2.350 -0.1339  0.0588  0.3570
  873SOL    HW1 2618   0.562   1.483   2.430 -0.6627  1.5539  0.6605
  873SOL    HW2 2619   0.608   1.499   2.266 -3.0386 -1.0805  0.0526
  874SOL     OW 2620   0.594   1.602   1.320  0.2113 -0.2395 -0.1653
  874SOL    HW1 2621   0.553   1.681   1.362  1.5860 -2.4460 -1.4227
  874SOL    HW2 2622   0.531   1.525   1.320 -1.5656  2.6946  0.1844
  875SOL     OW 2623   2.134   0.440   1.206 -0.5950 -0.3040 -0.0633
  875SOL    HW1 2624   2.029   0.450   1.195 -0.2617  1.1450 -1.7414
  875SOL    HW2 2625   2.176   0.508   1.273  2.8149 -0.2940  1.6937
  876SOL     OW 2626   1.051   0.857   3.036 -0.0128  0.4284 -0.2418
  876SOL    HW1 2627   1.032   0.911   0.002  0.1849 -1.2588 -0.7437
  876SOL    HW2 2628   1.142   0.892   3.002  0.1122 -0.4835 -3.0127
  877SOL     OW 2629   2.836   0.425   1.465 -0.1524 -0.6364 -0.3029
  877SOL    HW1 2630   2.744   0.430   1.414 -1.8388  0.7624 -1.1053
  877SOL    HW2 2631   2.904   0.496   1.429 -0.9513 -1.4023 -0.2043
  878SOL     OW 2632   1.908   2.180   0.025  0.4315 -0.1728  0.3657
  878SOL    HW1 2633   2.006   2.201   0.010 -1.3255  0.6746  0.5357
  878SOL    HW2 2634   1.855   2.267   0.022  0.8014  0.5052  0.2477
  879SOL     OW 2635   2.502   1.834   1.458  0.5668  0.0583  0.0605
  879SOL    HW1 2636   2.450   1.921   1.478 -1.7344  0.9100  0.8501
  879SOL    HW2 2637   2.530   1.801   1.552  0.6093  1.1419  1.1787
  880SOL     OW 2638   1.162   3.013   1.299  0.3555  0.0812  0.1919
  880SOL    HW1 2639   1.119   2.953   1.370 -0.2749  1.4960 -2.9871
  880SOL    HW2 2640   1.197   2.961   1.225 -2.2617 -1.7074  1.0437
  881SOL     OW 2641   1.235   1.817   0.200  0.0307 -0.0518  0.0619
  881SOL    HW1 2642   1.183   1.797   0.285 -2.3701 -0.3857  0.5269
  881SOL    HW2 2643   1.223   1.913   0.175 -1.2453 -1.2564 -0.7546
  882SOL     OW 2644   2.197   0.796   2.182  0.3003 -0.1297  0.2787
  882SOL    HW1 2645   2.201   0.880   2.241  0.0009  1.5272 -1.4950
  882SOL    HW2 2646   2.252   0.816   2.097  0.5363  0.2723 -0.8899
  883SOL     OW 2647   1.390   0.421   1.950  0.4518 -0.4052  0.0454
  883SOL    HW1 2648   1.417   0.498   2.015 -1.4784  1.9485  1.8603
  883SOL    HW2 2649   1.392   0.328   1.998 -0.2276 -1.6554  2.2483
  884SOL     OW 2650   2.914   0.011   3.079 -0.1253 -0.1429 -0.4094
  884SOL    HW1 2651   3.010   0.028   3.100  1.7074 -3.0354 -0.5327
  884SOL    HW2 2652   2.898   0.004   2.978  1.6433  0.3298 -1.1022
  885SOL     OW 2653   0.799   1.779   0.377  0.1236 -0.3956  0.0575
  885SOL    HW1 2654   0.731   1.708   0.398  0.9905  0.2143 -0.0741
  885SOL    HW2 2655   0.774   1.864   0.422 -2.4584 -1.4265 -1.3573
  886SOL     OW 2656   1.848   1.536   2.747 -0.6205  0.2931 -0.1590
  886SOL    HW1 2657   1.834   1.509   2.652  0.1392 -1.2261 -0.2721
  886SOL    HW2 2658   1.832   1.635   2.752  1.3630 -3.1133  1.0759
  887SOL     OW 2659   1.782   0.620   1.715  0.2497  0.0361  0.6360
  887SOL    HW1 2660   1.691   0.666   1.721  1.9445  0.2902  2.4776
  887SOL    HW2 2661   1.796   0.576   1.805  0.7367  1.3321 -0.6881
  888SOL     OW 2662   2.891   0.691   1.667 -0.2897  0.6570  0.7102
  888SOL    HW1 2663   2.976   0.740   1.634 -1.2842 -1.2300 -1.4473
  888SOL    HW2 2664   2.820   0.691   1.592 -4.9092  1.2779 -0.4769
  889SOL     OW 2665   2.970   2.798   0.653 -0.1614  0.4576 -0.6665
  889SOL    HW1 2666   2.921   2.707   0.643 -4.4158  1.9723 -0.2262
  889SOL    HW2 2667   3.054   2.792   0.713  4.4664 -2.1155  1.7767
  890SOL     OW 2668   2.818   2.487   3.050  0.2471  0.2763  0.4292
  890SOL    HW1 2669   2.740   2.438   3.102 -3.3959 -3.0730  2.7660
  890SOL    HW2 2670   2.912   2.460   3.094  2.0019  0.2921 -0.1236
  891SOL     OW 2671   0.912   1.635   2.855  0.6305 -0.0811 -0.0171
  891SOL    HW1 2672   0.885   1.652   2.952  0.7514 -0.0292 -0.1366
  891SOL    HW2 2673   1.013   1.615   2.846  0.9414  0.6313  1.9227
  892SOL     OW 2674   0.093   3.036   0.916 -0.1356 -0.2154 -0.0425
  892SOL    HW1 2675   0.128   3.104   0.842 -0.9336 -0.5479 -1.8027
  892SOL    HW2 2676   0.082   2.948   0.863  0.4184 -0.2464 -4.3497
  893SOL     OW 2677   0.678   2.822   1.224  0.0194 -0.0954  0.4450
  893SOL    HW1 2678   0.689   2.910   1.272 -1.3240  0.0814 -2.5191
  893SOL    HW2 2679   0.772   2.792   1.184  5.6650  0.6824  0.1042
  894SOL     OW 2680   2.753   1.392   0.839 -0.1401 -0.5240 -0.2955
  894SOL    HW1 2681   2.688   1.412   0.764  0.3673 -0.6381 -0.8685
  894SOL    HW2 2682   2.835   1.353   0.796 -2.0460 -0.6718  2.0201
  895SOL     OW 2683   2.867   2.527   1.681 -0.5385  0.2689  0.1317
  895SOL    HW1 2684   2.926   2.501   1.761  0.5190 -0.1326  0.3772
  895SOL    HW2 2685   2.900   2.617   1.639  2.2265  0.2513 -2.5268
  896SOL     OW 2686   0.905   0.408   1.611  0.4375  0.2960  0.1214
  896SOL    HW1 2687   0.868   0.397   1.708 -0.0496 -2.5266 -0.9760
  896SOL    HW2 2688   0.957   0.324   1.586  0.4257 -2.2599  0.4536
  897SOL     OW 2689   0.960   1.350   1.581 -0.5409 -0.3149 -0.1081
  897SOL    HW1 2690   1.025   1.297   1.519  1.1934 -0.1170 -3.3286
  897SOL    HW2 2691   0.921   1.439   1.548 -1.0023 -5.0480  0.7956
  898SOL     OW 2692   1.339   2.508   1.813  0.1896 -0.0030  0.2882
  898SOL    HW1 2693   1.375   2.605   1.811  1.2532  1.8391  2.4547
  898SOL    HW2 2694   1.277   2.489   1.734  0.9687  0.8105  0.0467
  899SOL     OW 2695   0.867   0.734   0.360  0.1539 -0.4076  0.2994
  899SOL    HW1 2696   0.796   0.780   0.411  0.5724 -0.8712 -0.4111
  899SOL    HW2 2697   0.935   0.688   0.421  0.1864  0.9312  0.4314
  900SOL     OW 2698   1.512   2.348   1.932 -0.4285  0.7505  0.2633
  900SOL    HW1 2699   1.451   2.418   1.895 -0.4836 -1.4043  1.1541
  900SOL    HW2 2700   1.606   2.387   1.946  0.2449 -1.0657  1.9559
  901SOL     OW 2701   1.089   2.334   0.362  0.0678 -0.6474  0.0878
  901SOL    HW1 2702   1.050   2.302   0.453 -1.7821 -0.8922  1.5414
  901SOL    HW2 2703   1.065   2.279   0.276 -0.3551  2.3656 -1.2831
  902SOL     OW 2704   1.978   1.284   0.045  0.1772 -0.1180  0.4097
  902SOL    HW1 2705   2.048   1.268   0.114 -2.6120 -1.0924 -3.2688
  902SOL    HW2 2706   2.006   1.329   3.074 -0.0572  3.7710 -0.3596
  903SOL     OW 2707   2.291   1.155   0.243 -0.0160  0.0906 -0.5885
  903SOL    HW1 2708   2.386   1.188   0.261  4.5697  3.0833  0.7606
  903SOL    HW2 2709   2.285   1.094   0.160 -1.3777 -1.3263 -1.0543
  904SOL     OW 2710   0.792   1.366   2.873 -0.0473  0.1112 -0.1499
  904SOL    HW1 2711   0.827   1.459   2.850 -2.1190  0.2912 -0.7318
  904SOL    HW2 2712   0.840   1.313   2.948  0.7491 -0.6725  0.7589
  905SOL     OW 2713   1.773   0.197   1.191  0.1124 -0.3271  0.1405
  905SOL    HW1 2714   1.845   0.194   1.117 -1.8595  0.2569 -0.8121
  905SOL    HW2 2715   1.682   0.230   1.157 -1.8993 -2.1479 -1.2044
  906SOL     OW 2716   2.991   2.567   1.112 -0.2911 -0.0272  0.2471
  906SOL    HW1 2717   2.901   2.553   1.064  0.0483 -2.9617  0.9765
  906SOL    HW2 2718   3.058   2.504   1.070 -4.1582 -0.1087 -3.5435
  907SOL     OW 2719   0.967   0.915   0.174  0.5706  0.1016  0.3619
  907SOL    HW1 2720   0.938   1.014   0.199  0.3544  1.7676  0.8600
  907SOL    HW2 2721   0.926   0.843   0.232  0.4180  2.3079  0.3051
  908SOL     OW 2722   1.626   2.934   1.165  0.3363  0.1903  0.3831
  908SOL    HW1 2723   1.684   2.905   1.086  2.9306  2.7875  0.6183
  908SOL    HW2 2724   1.629   3.039   1.171  0.8879  1.0369 -2.8073
  909SOL     OW 2725   2.145   1.245   1.703  0.2303 -0.3798 -0.0148
  909SOL    HW1 2726   2.129   1.342   1.731 -0.5181 -0.2526 -0.2392
  909SOL    HW2 2727   2.151   1.239   1.599 -0.5439 -1.8059  0.2046
  910SOL     OW 2728   1.538   2.937   2.112 -0.0949  0.8715  0.6487
  910SOL    HW1 2729   1.507   2.876   2.188  0.2148  0.9371  0.4261
  910SOL    HW2 2730   1.587   2.889   2.037  2.4969  1.5540 -1.3985
  911SOL     OW 2731   2.930   0.968   2.595  0.0454 -0.2028  0.0241
  911SOL    HW1 2732   2.968   1.060   2.624  2.8588 -0.0565 -1.4863
  911SOL    HW2 2733   2.971   0.892   2.648  1.1109  1.0258 -3.3049
  912SOL     OW 2734   0.081   1.379   1.630 -0.3522 -0.3191 -0.3518
  912SOL    HW1 2735   3.113   1.326   1.639 -0.4176  1.4261 -0.2608
  912SOL    HW2 2736   0.147   1.343   1.699 -0.6602 -1.6290 -2.4641
  913SOL     OW 2737   3.003   2.570   1.379  0.0745  0.3308  0.5244
  913SOL    HW1 2738   2.976   2.486   1.427 -0.2331  2.2063 -0.3448
  913SOL    HW2 2739   2.978   2.578   1.279  1.3841  1.4202 -3.8642
  914SOL     OW 2740   1.757   1.019   1.767  0.6114 -0.3612  0.0829
  914SOL    HW1 2741   1.698   0.949   1.723  0.2125 -1.4539 -0.6635
  914SOL    HW2 2742   1.779   1.099   1.700  0.8670  1.8410 -1.7839
  915SOL     OW 2743   1.924   0.611   1.482 -0.0070 -0.8284 -0.3500
  915SOL    HW1 2744   1.893   0.607   1.584  1.3787 -2.1141  0.5259
  915SOL    HW2 2745   1.867   0.547   1.433 -0.9248  0.6539  2.2237
  916SOL     OW 2746   2.732   2.658   1.269 -0.4301  0.2299 -0.3887
  916SOL    HW1 2747   2.743   2.611   1.357 -0.0013  2.0646 -2.8097
  916SOL    HW2 2748   2.648   2.630   1.234  4.9141  1.4596  5.0424
  917SOL     OW 2749   1.896   1.926   3.057  0.1005  0.3169  0.0633
  917SOL    HW1 2750   1.891   2.018   3.101  2.3565 -1.5700 -1.3858
  917SOL    HW2 2751   1.960   1.927   2.975  0.8835 -0.1045 -3.0230
  918SOL     OW 2752   1.701   2.753   2.634  0.0685  0.4209  0.0902
  918SOL    HW1 2753   1.740   2.820   2.572 -0.6625  0.9827  0.1595
  918SOL    HW2 2754   1.722   2.783   2.728 -1.3297  1.3278 -1.3040
  919SOL     OW 2755   1.256   2.556   1.207 -0.0889  0.3392  0.3189
  919SOL    HW1 2756   1.335   2.606   1.170  0.1218  1.3433  0.6789
  919SOL    HW2 2757   1.226   2.598   1.293  1.3349 -3.1155  0.1612
  920SOL     OW 2758   2.932   0.389   2.228  0.3358  0.5103  0.2534
  920SOL    HW1 2759   2.876   0.318   2.180 -1.3579  2.1937  0.1003
  920SOL    HW2 2760   3.012   0.346   2.271 -2.1157  0.8649  2.9323
  921SOL     OW 2761   2.999   1.003   1.553 -0.3466  0.8722 -0.2149
  921SOL    HW1 2762   2.989   1.080   1.617 -1.8681  2.0911 -2.8521
  921SOL    HW2 2763   3.055   0.930   1.597  3.0584 -0.2044 -0.6476
  922SOL     OW 2764   2.067   2.046   0.558  0.0096 -0.7331  0.2608
  922SOL    HW1 2765   2.107   2.113   0.625 -1.5377  0.6129 -1.2447
  922SOL    HW2 2766   2.005   2.086   0.493 -1.2119 -1.5569  0.6737
  923SOL     OW 2767   0.892   1.913   0.138 -0.0920  0.4530  0.4788
  923SOL    HW1 2768   0.880   1.824   0.095 -1.9157  1.9296 -0.2300
  923SOL    HW2 2769   0.829   1.925   0.215  2.0177  0.3499 -2.2844
  924SOL     OW 2770   1.366   0.374   2.949  0.1076  0.3370  0.1100
  924SOL    HW1 2771   1.268   0.371   2.926  2.2270  0.1355  0.6137
  924SOL    HW2 2772   1.389   0.470   2.955  0.4551  0.1772  3.3164
  925SOL     OW 2773   2.483   0.421   0.777 -0.0346  0.2920 -0.5312
  925SOL    HW1 2774   2.475   0.338   0.715 -3.6377  0.0335 -0.7515
  925SOL    HW2 2775   2.447   0.398   0.869 -0.5583  0.6021  3.4971
  926SOL     OW 2776   0.525   0.063   1.159 -0.1753  0.2653 -0.1040
  926SOL    HW1 2777   0.436   0.026   1.188 -1.0146  0.9278 -1.6626
  926SOL    HW2 2778   0.594   0.036   1.226 -2.3632  1.1056 -2.7023
  927SOL     OW 2779   0.062   1.430   2.373  0.0977  0.0792  0.1789
  927SOL    HW1 2780   0.086   1.513   2.430 -0.8602 -0.1079 -0.5226
  927SOL    HW2 2781   0.143   1.400   2.320  2.8533  1.2667 -1.2918
  928SOL     OW 2782   2.954   0.402   2.822  0.3528  0.3303 -0.4410
  928SOL    HW1 2783   2.981   0.469   2.893 -4.5565  0.8782 -0.6601
  928SOL    HW2 2784   2.855   0.372   2.829 -4.2741 -1.5563  1.0115
  929SOL     OW 2785   2.464   0.157   1.535 -0.3165  0.0254 -0.8293
  929SOL    HW1 2786   2.528   0.107   1.479 -0.3596  2.0572 -1.7538
  929SOL    HW2 2787   2.437   0.095   1.617 -1.5082  2.0216  0.9184
  930SOL     OW 2788   1.989   0.925   1.860 -0.3175 -0.0946  0.1009
  930SOL    HW1 2789   1.905   0.972   1.827 -3.2055 -0.3810 -1.2382
  930SOL    HW2 2790   2.016   0.957   1.952  1.3654  0.4317 -1.6230
  931SOL     OW 2791   2.287   1.181   2.970  0.8724 -0.0201  0.2363
  931SOL    HW1 2792   2.284   1.137   2.876 -2.1853  0.2732  1.5753
  931SOL    HW2 2793   2.258   1.115   3.043 -1.8413  0.8380  0.9834
  932SOL     OW 2794   2.309   1.036   0.870 -0.4525  0.1398  0.3892
  932SOL    HW1 2795   2.352   1.108   0.933  0.0666  0.3796  1.1272
  932SOL    HW2 2796   2.215   1.015   0.889  2.0254 -0.5031 -0.3009
  933SOL     OW 2797   2.475   1.695   0.826 -0.8284 -0.2350 -0.1713
  933SOL    HW1 2798   2.460   1.706   0.725  0.2265  1.6563  0.0511
  933SOL    HW2 2799   2.395   1.739   0.873 -4.0269  1.7427  0.5836
  934SOL     OW 2800   2.040   0.467   2.594  0.4915 -0.2803  0.5041
  934SOL    HW1 2801   2.074   0.467   2.499 -1.0939 -0.6495  4.4838
  934SOL    HW2 2802   2.058   0.377   2.630 -2.5211  1.0663  0.2293
  935SOL     OW 2803   0.121   1.385   0.543  0.2359 -0.1595  0.2524
  935SOL    HW1 2804   0.044   1.339   0.594 -0.0386 -1.0085 -0.0915
  935SOL    HW2 2805   0.212   1.344   0.557 -2.9266  3.7731 -0.9105
  936SOL     OW 2806   0.189   0.420   0.707 -0.1876  0.2875 -0.4769
  936SOL    HW1 2807   0.270   0.420   0.773 -1.2539  1.3026  0.3012
  936SOL    HW2 2808   0.102   0.387   0.752 -0.0881  3.8975 -0.0098
  937SOL     OW 2809   2.648   0.025   1.366  0.1996 -0.0823  0.1005
  937SOL    HW1 2810   2.576   3.107   1.299 -0.6440  0.7069  2.0159
  937SOL    HW2 2811   2.735   0.057   1.317  1.4977 -0.9045  1.3624
  938SOL     OW 2812   2.667   2.353   0.130 -1.0763 -0.4476 -0.1563
  938SOL    HW1 2813   2.598   2.351   0.206  1.5486 -1.6267 -2.2403
  938SOL    HW2 2814   2.757   2.342   0.171 -0.9542 -2.5993  1.2368
  939SOL     OW 2815   0.639   1.920   0.837 -0.1813  0.3769 -0.0772
  939SOL    HW1 2816   0.627   1.885   0.935  2.6347  0.3980  3.2312
  939SOL    HW2 2817   0.550   1.947   0.788 -0.8861 -1.5725 -1.4901
  940SOL     OW 2818   0.175   0.265   2.974 -0.0537  0.0635 -0.4415
  940SOL    HW1 2819   0.107   0.320   3.022  2.2553 -0.9088 -0.1434
  940SOL    HW2 2820   0.137   0.229   2.888  0.5379  2.5267  0.0354
  941SOL     OW 2821   1.597   0.264   2.845 -0.6859 -0.2896 -0.2063
  941SOL    HW1 2822   1.615   0.357   2.818  0.0323  0.3242  0.2569
  941SOL    HW2 2823   1.497   0.252   2.864 -1.6784 -1.8921 -2.1348
  942SOL     OW 2824   1.081   0.794   1.539  0.1758  0.3748 -0.4046
  942SOL    HW1 2825   0.988   0.745   1.541  0.1056  0.2732  1.6731
  942SOL    HW2 2826   1.132   0.758   1.616  1.2993 -0.4450 -1.9887
  943SOL     OW 2827   1.339   0.981   1.951  0.1998 -0.0359  0.1201
  943SOL    HW1 2828   1.435   1.003   1.978  2.3291 -1.8620 -0.2175
  943SOL    HW2 2829   1.313   0.904   2.015  0.4009 -0.8363  0.0434
  944SOL     OW 2830   2.056   0.973   1.577 -0.4614  0.3637 -0.7858
  944SOL    HW1 2831   2.039   0.945   1.677  0.3513 -0.4306  1.2761
  944SOL    HW2 2832   2.104   1.064   1.568  1.4391 -0.4494 -0.4761
  945SOL     OW 2833   2.846   3.052   0.227 -0.3658 -0.3482 -0.2176
  945SOL    HW1 2834   2.749   3.068   0.253  0.7265  1.7868 -0.4558
  945SOL    HW2 2835   2.883   3.109   0.151 -2.1424  0.9753 -1.6714
  946SOL     OW 2836   2.850   0.944   2.145  0.2557  0.2945  0.4214
  946SOL    HW1 2837   2.805   1.001   2.067  2.3593 -1.3067  1.0951
  946SOL    HW2 2838   2.815   0.964   2.234  1.3622 -0.5313 -2.5112
  947SOL     OW 2839   1.039   2.864   0.391  0.1797 -0.4922 -0.0303
  947SOL    HW1 2840   0.994   2.853   0.482 -1.1802  1.4653 -2.9050
  947SOL    HW2 2841   1.077   2.776   0.359  2.2402 -1.0952 -0.6350
  948SOL     OW 2842   2.375   1.590   1.617 -0.2081 -0.1109  0.6459
  948SOL    HW1 2843   2.441   1.654   1.660 -0.5642 -0.5839  1.2272
  948SOL    HW2 2844   2.417   1.524   1.554 -1.8439  0.9309  0.3777
  949SOL     OW 2845   0.535   1.412   3.019 -0.4202 -0.6918 -0.3630
  949SOL    HW1 2846   0.442   1.382   2.991 -1.3157 -1.7625  1.1030
  949SOL    HW2 2847   0.601   1.395   2.943  1.2444  0.5243  0.8916
  950SOL     OW 2848   0.536   2.447   0.926 -0.1500 -0.0563 -0.3703
  950SOL    HW1 2849   0.550   2.462   0.823  0.5375 -0.8824 -1.8087
  950SOL    HW2 2850   0.449   2.400   0.954  1.2409  1.1029  1.0308
  951SOL     OW 2851   0.815   1.217   2.402  0.4937 -0.3211  0.1520
  951SOL    HW1 2852   0.898   1.197   2.348 -1.9385 -0.0613  0.4513
  951SOL    HW2 2853   0.771   1.125   2.425  0.2687 -1.0850 -0.5919
  952SOL     OW 2854   0.193   0.998   0.352  0.2405 -0.0311 -0.0046
  952SOL    HW1 2855   0.282   1.038   0.329 -1.4401 -0.3042 -1.0943
  952SOL    HW2 2856   0.117   1.065   0.354  1.5231 -1.8821  1.4740
  953SOL     OW 2857   2.454   0.010   2.471  0.0707  0.3383  0.5338
  953SOL    HW1 2858   2.378   0.051   2.522 -0.1660  0.5131 -1.8309
  953SOL    HW2 2859   2.433   3.028   2.448  0.8595 -0.9816  1.6297
  954SOL     OW 2860   1.791   1.264   0.313  0.2160  0.6545 -0.4199
  954SOL    HW1 2861   1.762   1.326   0.386 -0.9638  0.0469  2.3309
  954SOL    HW2 2862   1.892   1.265   0.315 -2.7569  0.8689  4.2315
  955SOL     OW 2863   0.729   2.016   3.008  0.6358 -0.1352  0.4667
  955SOL    HW1 2864   0.809   1.999   3.063 -0.5148 -0.9037 -0.6824
  955SOL    HW2 2865   0.720   2.116   3.000 -0.8274 -1.7457  0.9536
  956SOL     OW 2866   2.118   0.584   2.318 -0.3682 -0.0834  0.0958
  956SOL    HW1 2867   2.172   0.498   2.316 -2.1672  1.1694  0.2765
  956SOL    HW2 2868   2.156   0.663   2.263 -1.8636  2.0069  0.5425
  957SOL     OW 2869   2.116   2.041   2.458 -0.6741 -0.5319  0.0412
  957SOL    HW1 2870   2.090   1.973   2.535  0.5139 -0.7230  4.1991
  957SOL    HW2 2871   2.219   2.057   2.458  3.2574  4.1184  0.9896
  958SOL     OW 2872   1.478   1.282   1.208  0.1040  0.5466  0.2961
  958SOL    HW1 2873   1.541   1.247   1.136  0.2427 -0.1274 -1.4268
  958SOL    HW2 2874   1.471   1.225   1.291  2.7688 -0.8072 -0.4829
  959SOL     OW 2875   1.906   2.207   2.500  0.3613 -0.3556  0.8982
  959SOL    HW1 2876   1.885   2.271   2.423 -1.6960  1.9103  0.1450
  959SOL    HW2 2877   1.995   2.149   2.484  0.5586 -2.1976  0.9709
  960SOL     OW 2878   0.272   0.694   2.481  0.1440 -0.0679 -0.2128
  960SOL    HW1 2879   0.259   0.791   2.437 -0.7927 -3.2051 -3.8288
  960SOL    HW2 2880   0.189   0.636   2.474  2.2787 -0.6523 -1.1644
  961SOL     OW 2881   0.364   0.774   2.744 -0.2174 -0.0892  1.0203
  961SOL    HW1 2882   0.326   0.725   2.660 -0.6273  0.1515 -4.4909
  961SOL    HW2 2883   0.339   0.726   2.823  0.7070 -1.2579 -0.5931
  962SOL     OW 2884   0.573   1.143   2.856 -0.1094 -0.1631 -0.2200
  962SOL    HW1 2885   0.665   1.189   2.845 -0.1766 -0.4601 -0.3718
  962SOL    HW2 2886   0.564   1.054   2.803  0.6435 -2.8011 -0.0057
  963SOL     OW 2887   2.590   2.097   0.064  0.8417 -0.1648 -0.1908
  963SOL    HW1 2888   2.626   2.189   0.075 -1.9985 -1.2598 -1.3252
  963SOL    HW2 2889   2.663   2.027   0.062 -3.9156 -0.6518  1.5535
  964SOL     OW 2890   0.936   2.400   1.976  0.2817  0.0138  0.1554
  964SOL    HW1 2891   1.027   2.388   2.008 -2.8621 -2.7097 -3.4978
  964SOL    HW2 2892   0.905   2.497   1.958 -0.2381 -3.5335  1.7986
  965SOL     OW 2893   1.908   1.664   0.366  0.3493 -0.0666 -0.3603
  965SOL    HW1 2894   1.913   1.665   0.270  0.4710 -0.4488  4.2503
  965SOL    HW2 2895   1.854   1.742   0.407 -3.0427  3.6373  5.4695
  966SOL     OW 2896   0.029   1.631   0.340 -0.0716  0.4725 -0.4998
  966SOL    HW1 2897   0.060   1.572   0.415 -2.3325  0.0351 -0.5635
  966SOL    HW2 2898   0.070   1.723   0.332 -0.8060  0.1842  0.1949
  967SOL     OW 2899   1.637   2.851   1.873 -0.0374  0.1698 -0.6393
  967SOL    HW1 2900   1.718   2.903   1.900 -1.5132 -2.4019 -0.6371
  967SOL    HW2 2901   1.668   2.778   1.805 -2.6377  0.0529  0.2891
  968SOL     OW 2902   1.613   0.758   0.334 -0.0796  0.1000 -0.2704
  968SOL    HW1 2903   1.527   0.746   0.281 -2.8566  1.5400 -2.8378
  968SOL    HW2 2904   1.608   0.696   0.414  1.5477  4.7954 -1.5773
  969SOL     OW 2905   0.270   1.308   2.264  0.1834  0.2768  0.2331
  969SOL    HW1 2906   0.363   1.285   2.288 -0.8799 -0.1594 -1.0378
  969SOL    HW2 2907   0.210   1.239   2.310 -0.3513 -3.3017 -0.7572
  970SOL     OW 2908   2.220   2.028   1.287 -0.2241 -0.2359  0.4110
  970SOL    HW1 2909   2.195   2.057   1.193  0.2708 -0.3377 -0.2237
  970SOL    HW2 2910   2.158   2.064   1.361 -0.8898  2.5729  0.5849
  971SOL     OW 2911   2.768   2.839   1.076  0.2447  0.1699  0.4351
  971SOL    HW1 2912   2.770   2.769   1.154  0.8188 -1.4179 -0.2123
  971SOL    HW2 2913   2.853   2.891   1.064 -0.5190 -1.1271 -0.4766
  972SOL     OW 2914   0.121   1.224   2.778  0.5464 -0.0009  1.1832
  972SOL    HW1 2915   0.128   1.125   2.792 -1.8284  1.5779 -2.1283
  972SOL    HW2 2916   0.057   1.245   2.699 -1.3230  0.3438 -2.5698
  973SOL     OW 2917   0.515   0.266   0.533 -0.3207  0.0772  0.1640
  973SOL    HW1 2918   0.472   0.225   0.617  0.1183 -4.2760 -1.3965
  973SOL    HW2 2919   0.445   0.283   0.460  1.6760 -0.0364 -0.9027
  974SOL     OW 2920   2.263   0.810   1.692 -0.5181 -0.6224 -0.1309
  974SOL    HW1 2921   2.196   0.854   1.624 -3.2664  1.7482 -2.9967
  974SOL    HW2 2922   2.359   0.799   1.654  0.9305 -1.7063  0.2964
  975SOL     OW 2923   2.853   2.821   0.083  0.1356  0.4222 -0.1169
  975SOL    HW1 2924   2.874   2.918   0.099 -0.0689 -3.5751  0.2468
  975SOL    HW2 2925   2.943   2.771   0.072 -1.0083 -0.5877 -0.3113
  976SOL     OW 2926   0.359   1.734   1.215 -0.2126  0.0134 -0.5816
  976SOL    HW1 2927   0.357   1.631   1.223  0.5336  0.6444  0.6534
  976SOL    HW2 2928   0.345   1.773   1.122 -0.5717  0.8089 -2.9151
  977SOL     OW 2929   1.035   2.010   0.892  0.0497 -0.1316  0.2692
  977SOL    HW1 2930   1.113   2.050   0.938 -0.0170 -0.8007  0.4477
  977SOL    HW2 2931   1.008   1.919   0.932 -0.9530 -2.7037 -1.5948
  978SOL     OW 2932   0.435   1.138   0.294 -0.1091 -0.1690  0.0038
  978SOL    HW1 2933   0.456   1.166   0.201 -1.6758  1.6499  2.9004
  978SOL    HW2 2934   0.498   1.062   0.323  1.0643 -1.5718 -3.3581
  979SOL     OW 2935   2.198   1.920   0.320 -0.0674 -0.0906 -0.0057
  979SOL    HW1 2936   2.156   1.947   0.410 -2.1166  1.6812 -0.4314
  979SOL    HW2 2937   2.149   1.963   0.245  1.4860 -1.0347 -0.7197
  980SOL     OW 2938   0.348   1.688   2.267 -0.0152  0.0226 -0.1779
  980SOL    HW1 2939   0.407   1.603   2.277  0.9963 -0.2916 -0.5081
  980SOL    HW2 2940   0.402   1.768   2.307 -3.8074  1.0428  2.0964
  981SOL     OW 2941   2.818   0.976   0.116  0.1305 -0.1694  0.0379
  981SOL    HW1 2942   2.764   1.004   0.204 -1.1015 -0.2665  5.0913
  981SOL    HW2 2943   2.761   0.947   0.038  0.9871 -0.4399 -0.0187
  982SOL     OW 2944   2.965   2.924   2.020  0.7578 -0.2274 -0.2069
  982SOL    HW1 2945   2.870   2.959   2.003 -0.3487 -0.2427  1.8484
  982SOL    HW2 2946   3.000   2.884   1.934 -0.2214 -2.0812  0.3474
  983SOL     OW 2947   1.537   0.393   1.586  0.1569  0.0730 -0.5134
  983SOL    HW1 2948   1.488   0.326   1.526  1.5746  2.6420 -0.3120
  983SOL    HW2 2949   1.639   0.393   1.567  0.7128  1.0871  0.4685
  984SOL     OW 2950   1.438   2.792   3.008 -0.1639  0.6312 -0.4179
  984SOL    HW1 2951   1.420   2.699   2.973 -2.0813  2.3925  0.5499
  984SOL    HW2 2952   1.455   2.867   2.942 -0.0785  1.5681  0.1700
  985SOL     OW 2953   1.425   1.761   1.509 -0.2913 -0.2670  0.0598
  985SOL    HW1 2954   1.378   1.821   1.443  1.4888 -0.9420  0.1250
  985SOL    HW2 2955   1.381   1.670   1.517  1.9385 -0.3061 -0.4656
  986SOL     OW 2956   1.813   2.927   2.456 -0.5836  0.9621  0.3464
  986SOL    HW1 2957   1.883   2.913   2.380 -0.7442  1.6536 -0.6955
  986SOL    HW2 2958   1.793   3.028   2.456 -1.0217  1.3317  2.9834
  987SOL     OW 2959   2.850   1.753   2.470  0.2841 -0.1853 -0.3054
  987SOL    HW1 2960   2.839   1.678   2.402  0.0856 -2.0332  0.4175
  987SOL    HW2 2961   2.786   1.826   2.451  2.0352 -2.6361  1.3887
  988SOL     OW 2962   2.891   0.679   1.954 -0.0082 -0.2779 -0.2096
  988SOL    HW1 2963   2.895   0.688   1.852  0.1218 -1.1876  0.0268
  988SOL    HW2 2964   2.942   0.753   2.000 -2.6304 -0.3370 -1.4810
  989SOL     OW 2965   1.808   1.231   1.568 -0.2412 -0.4375 -0.3220
  989SOL    HW1 2966   1.755   1.316   1.589 -0.7186 -0.1656  0.6950
  989SOL    HW2 2967   1.897   1.264   1.526 -0.9980  0.0908 -0.8583
  990SOL     OW 2968   3.000   1.173   0.064 -0.2975  0.3347 -0.2822
  990SOL    HW1 2969   2.926   1.106   0.078  0.8182 -0.7977 -0.5322
  990SOL    HW2 2970   3.032   1.159   3.083 -2.5348 -0.3700  1.5090
  991SOL     OW 2971   0.270   2.127   2.849  0.0286  0.1341 -0.2532
  991SOL    HW1 2972   0.211   2.046   2.860  1.7583  2.2381 -1.6861
  991SOL    HW2 2973   0.344   2.108   2.781 -0.4193 -1.2119  0.8375
  992SOL     OW 2974   2.550   2.294   2.004  0.3265 -0.3264 -0.1476
  992SOL    HW1 2975   2.457   2.276   1.963 -0.5699 -0.1602 -0.0869
  992SOL    HW2 2976   2.579   2.388   1.978 -2.1353  1.7233  0.4368
  993SOL     OW 2977   0.677   2.932   0.581  0.4298  0.1954 -0.0699
  993SOL    HW1 2978   0.650   3.013   0.520 -1.8685  2.4079  0.3225
  993SOL    HW2 2979   0.609   2.921   0.658  0.9318 -4.0233 -0.9816
  994SOL     OW 2980   0.041   2.050   1.568 -0.4330 -0.3000 -0.2876
  994SOL    HW1 2981   3.085   2.008   1.622  1.6060  0.1356  0.6808
  994SOL    HW2 2982   0.072   1.991   1.490  0.8918  3.5701  1.6474
  995SOL     OW 2983   2.333   1.833   2.217 -0.3876 -0.0036  0.0865
  995SOL    HW1 2984   2.406   1.834   2.284  0.5161  1.4194  0.2594
  995SOL    HW2 2985   2.301   1.737   2.197 -0.3602  0.9992  1.1225
  996SOL     OW 2986   1.911   1.688   0.105  0.2658 -0.0393  0.3628
  996SOL    HW1 2987   1.832   1.624   0.088 -2.4650  0.1088  1.3386
  996SOL    HW2 2988   1.911   1.772   0.050 -2.1958 -3.0916  0.1321
  997SOL     OW 2989   1.218   1.244   1.495 -0.0050  0.0741 -0.0093
  997SOL    HW1 2990   1.244   1.194   1.580  0.3848  3.5779  0.9602
  997SOL    HW2 2991   1.281   1.223   1.418  0.4035 -0.3297  0.3328
  998SOL     OW 2992   2.797   2.253   1.045 -0.4784  0.0846 -0.7233
  998SOL    HW1 2993   2.813   2.190   0.968  0.1976 -0.9060  0.4327
  998SOL    HW2 2994   2.829   2.207   1.134  1.2085 -1.3044  0.0497
  999SOL     OW 2995   2.765   2.717   0.324 -0.1711  0.6037 -0.1471
  999SOL    HW1 2996   2.711   2.783   0.379  1.6064 -1.2401  1.3612
  999SOL    HW2 2997   2.799   2.757   0.237 -0.1105  0.8100  1.7169
 1000SOL     OW 2998   1.048   0.095   3.010 -0.1388 -0.4994  0.2370
 1000SOL    HW1 2999   1.121   0.055   3.065  1.0814  1.0479 -0.1328
 1000SOL    HW2 3000   1.071   0.194   2.993 -1.4745 -1.3895  1.6649
   3.11583   3.11583   3.11583
