1000 SPC/Fw water molecules t= 318.00000 step= 318000
 3000
    1SOL     OW    1   2.551   3.068   0.804 -0.7257  0.2173  0.0075
    1SOL    HW1    2   2.543   2.966   0.814  2.7705 -0.1102  1.8622
    1SOL    HW2    3   2.645   3.090   0.844  0.9189 -0.0223 -1.0110
    2SOL     OW    4   3.075   2.268   0.903  0.1486 -0.3436 -0.0242
    2SOL    HW1    5   3.006   2.213   0.957 -1.6752 -0.1694  1.3595
    2SOL    HW2    6   0.030   2.253   0.933 -0.7689 -2.9668  0.1373
    3SOL     OW    7   0.822   2.884   2.936 -0.0354 -0.1870  0.1264
    3SOL    HW1    8   0.829   2.900   3.036  0.3142  2.0514 -0.0093
    3SOL    HW2    9   0.751   2.949   2.898  1.5369  0.3631  1.0438
    4SOL     OW   10   2.253   2.461   2.051 -0.7253 -0.6511  0.1359
    4SOL    HW1   11   2.174   2.424   2.003  3.5850  0.6431  3.7561
    4SOL    HW2   12   2.317   2.388   2.076 -0.2531  2.1091  1.3381
    5SOL     OW   13   1.939   0.811   1.493 -0.1009  0.6579  0.1115
    5SOL    HW1   14   1.975   0.861   1.410  0.8937  0.3686  0.6220
    5SOL    HW2   15   1.836   0.798   1.499 -1.0211 -0.1514 -2.6744
    6SOL     OW   16   1.954   2.828   0.387  0.3737  0.0628  0.2053
    6SOL    HW1   17   1.978   2.910   0.439 -2.8334 -1.9300 -1.7236
    6SOL    HW2   18   1.855   2.811   0.407  2.1301  1.7873 -0.6162
    7SOL     OW   19   2.601   1.390   1.096 -0.7746 -0.3135 -0.0767
    7SOL    HW1   20   2.705   1.380   1.106  0.5514  1.9589 -0.6967
    7SOL    HW2   21   2.572   1.446   1.171 -0.2877  0.6907 -2.8020
    8SOL     OW   22   1.219   2.244   1.386  0.1592 -0.0227  0.1056
    8SOL    HW1   23   1.121   2.273   1.410  0.0632 -0.3555  1.9375
    8SOL    HW2   24   1.283   2.320   1.411  0.6166  3.7834 -2.3612
    9SOL     OW   25   1.501   2.787   2.344 -0.2813  0.4758  0.5358
    9SOL    HW1   26   1.420   2.809   2.401  1.9467 -1.4701 -3.5370
    9SOL    HW2   27   1.465   2.767   2.251  0.7237  1.7665 -1.2773
   10SOL     OW   28   0.580   1.793   1.138  0.0903  0.3155  0.0598
   10SOL    HW1   29   0.634   1.703   1.149 -0.9591  1.2572  0.5062
   10SOL    HW2   30   0.581   1.838   1.232  2.8219 -0.6506 -1.0260
   11SOL     OW   31   1.828   1.674   1.229  0.1225  0.1352  0.1512
   11SOL    HW1   32   1.902   1.642   1.285  0.5746  0.2131 -1.2176
   11SOL    HW2   33   1.771   1.750   1.275 -0.3439  0.1882 -0.3675
   12SOL     OW   34   2.691   2.578   1.971  0.2894  0.1486  0.5729
   12SOL    HW1   35   2.692   2.498   2.031  3.3134  0.9027  0.3424
   12SOL    HW2   36   2.749   2.650   2.013 -2.3400  1.3074  3.0381
   13SOL     OW   37   2.384   3.040   0.444  0.3364 -0.1896 -0.3822
   13SOL    HW1   38   2.395   2.955   0.498  2.3234  0.8319  0.6151
   13SOL    HW2   39   2.466   3.072   0.403  0.8575 -1.9908 -2.1580
   14SOL     OW   40   1.578   2.143   0.343  0.4721 -0.2905  0.6281
   14SOL    HW1   41   1.518   2.082   0.404  0.9542 -2.4936  1.8454
   14SOL    HW2   42   1.654   2.082   0.305  1.0196 -1.7158 -0.4711
   15SOL     OW   43   3.053   2.309   1.905 -0.6750  0.3137  0.4118
   15SOL    HW1   44   2.987   2.243   1.939  1.7534 -2.4898 -0.1751
   15SOL    HW2   45   3.023   2.403   1.915  0.7186 -1.6972 -1.0223
   16SOL     OW   46   2.213   2.744   0.354  0.4996  0.8868  0.1497
   16SOL    HW1   47   2.114   2.768   0.357  2.5534  2.1629 -4.0034
   16SOL    HW2   48   2.259   2.767   0.441  1.6003 -0.7660 -0.2622
   17SOL     OW   49   0.443   0.204   1.097  0.1062  0.0034  0.2413
   17SOL    HW1   50   0.498   0.247   1.171  1.0910  2.5934  2.8911
   17SOL    HW2   51   0.443   0.102   1.093 -0.0435 -0.0133  4.4246
   18SOL     OW   52   2.013   0.907   0.287 -0.1218 -0.0817  0.1786
   18SOL    HW1   53   2.009   0.871   0.189  1.2731 -0.5458  0.4195
   18SOL    HW2   54   2.107   0.931   0.317 -2.8173  0.0450 -0.4091
   19SOL     OW   55   1.664   1.863   0.671  0.1515 -0.3057  0.6220
   19SOL    HW1   56   1.720   1.805   0.737 -0.3017 -2.3305 -0.9117
   19SOL    HW2   57   1.698   1.854   0.575 -0.4496  0.3953 -0.8691
   20SOL     OW   58   2.332   1.999   2.165  0.4952 -0.0801  0.2263
   20SOL    HW1   59   2.265   2.025   2.237 -0.4423  2.9953 -0.6198
   20SOL    HW2   60   2.383   2.077   2.132  0.0849 -0.5514  1.2722
   21SOL     OW   61   1.701   0.525   0.770 -0.3258 -0.0718 -0.5759
   21SOL    HW1   62   1.735   0.440   0.714  0.5079 -1.5227 -1.1732
   21SOL    HW2   63   1.638   0.499   0.843 -0.4692 -2.3969  0.1722
   22SOL     OW   64   2.520   0.047   1.596  0.5643  0.7451  0.8082
   22SOL    HW1   65   2.492   0.099   1.513 -1.0658 -2.2538 -2.4757
   22SOL    HW2   66   2.433   0.004   1.634 -3.0413 -1.3430 -1.7490
   23SOL     OW   67   3.128   0.433   1.979  0.0738 -0.4239  0.1514
   23SOL    HW1   68   3.085   0.356   1.929  0.7065 -2.0089  1.7823
   23SOL    HW2   69   3.102   0.525   1.943 -1.8974 -0.0003  1.2285
   24SOL     OW   70   2.538   2.616   0.191 -0.5697  0.3963 -0.4573
   24SOL    HW1   71   2.616   2.606   0.260  1.0209 -0.6504  0.2487
   24SOL    HW2   72   2.539   2.701   0.137 -1.3915 -1.0973 -0.3715
   25SOL     OW   73   1.413   3.085   2.528 -0.9950  0.0805  0.0199
   25SOL    HW1   74   1.486   3.035   2.573  0.9438  0.3490  3.4962
   25SOL    HW2   75   1.428   3.105   2.428  0.9177 -0.3958  1.5549
   26SOL     OW   76   1.330   2.273   0.396  0.2831  0.5152 -0.0196
   26SOL    HW1   77   1.400   2.202   0.379  0.6266  1.4089  0.1034
   26SOL    HW2   78   1.315   2.328   0.311 -0.3905  1.4593 -0.3540
   27SOL     OW   79   2.451   1.378   2.894  0.7281 -0.4097  0.6333
   27SOL    HW1   80   2.459   1.478   2.914  0.2825 -1.2479  0.1329
   27SOL    HW2   81   2.540   1.343   2.862 -1.2289  0.2064  1.9450
   28SOL     OW   82   1.113   1.366   1.419  0.2818 -0.4938 -0.0869
   28SOL    HW1   83   1.102   1.289   1.354  1.0728  0.0589 -0.3135
   28SOL    HW2   84   1.025   1.420   1.410  0.1151  0.2456  2.3182
   29SOL     OW   85   2.778   2.511   1.696  0.2706  0.3562  0.4288
   29SOL    HW1   86   2.771   2.608   1.659 -0.0390  0.0464 -3.8868
   29SOL    HW2   87   2.732   2.498   1.787  1.6595 -0.0440  0.8305
   30SOL     OW   88   1.209   0.406   0.962  0.0245 -0.0531 -0.4925
   30SOL    HW1   89   1.158   0.428   0.877  3.9918  0.4930  1.5575
   30SOL    HW2   90   1.309   0.411   0.948 -1.2843  1.0650 -0.0600
   31SOL     OW   91   2.257   2.855   2.036 -0.0193 -0.6476 -0.2496
   31SOL    HW1   92   2.213   2.789   2.102 -1.7385 -1.5116 -0.6480
   31SOL    HW2   93   2.273   2.818   1.943 -0.2219  0.6805 -1.5872
   32SOL     OW   94   1.117   1.702   0.586  0.1505 -0.4268 -0.8642
   32SOL    HW1   95   1.091   1.709   0.684  0.6855  0.6851  1.0704
   32SOL    HW2   96   1.057   1.638   0.543  0.5651  4.9541  1.7774
   33SOL     OW   97   0.420   0.489   2.406 -0.3450  0.0495  0.0660
   33SOL    HW1   98   0.427   0.569   2.468  0.0776 -1.7964  0.2839
   33SOL    HW2   99   0.405   0.526   2.311  0.7036 -2.4802  0.1920
   34SOL     OW  100   2.008   3.069   0.501 -0.1015  0.2312 -0.0776
   34SOL    HW1  101   1.993   3.077   0.600  0.8167  1.2843  1.2929
   34SOL    HW2  102   2.091   3.129   0.479  2.9976 -0.7104 -0.3221
   35SOL     OW  103   2.178   2.612   1.461 -0.3856  0.1298  0.4022
   35SOL    HW1  104   2.156   2.712   1.447 -0.9386 -0.0644 -0.4182
   35SOL    HW2  105   2.275   2.602   1.435 -1.1921  1.5937  1.3888
   36SOL     OW  106   1.865   2.302   0.006 -0.2060  0.1847 -0.1821
   36SOL    HW1  107   1.847   2.210   3.115 -0.3741  3.0940 -0.4143
   36SOL    HW2  108   1.939   2.340   3.091  0.3361 -2.4464  3.4473
   37SOL     OW  109   1.268   0.596   2.371  0.1580  0.5589 -0.1935
   37SOL    HW1  110   1.190   0.632   2.429 -0.0717  0.1249  0.4824
   37SOL    HW2  111   1.332   0.534   2.420  1.6976 -0.4262 -0.0536
   38SOL     OW  112   0.515   0.246   2.738 -0.5687 -0.2207  0.5503
   38SOL    HW1  113   0.594   0.315   2.747  1.1367  2.3608 -0.9912
   38SOL    HW2  114   0.525   0.191   2.651 -2.0788  0.2559 -1.7882
   39SOL     OW  115   2.631   1.256   1.796 -0.1864  0.1479  0.1767
   39SOL    HW1  116   2.588   1.330   1.849  1.4660 -2.4657 -0.1348
   39SOL    HW2  117   2.681   1.198   1.863  2.3687  0.2796 -0.3932
   40SOL     OW  118   1.296   2.951   0.320  0.0576 -0.1773  0.0691
   40SOL    HW1  119   1.249   3.039   0.350 -1.6344  0.5543 -0.0893
   40SOL    HW2  120   1.246   2.870   0.345  2.8113  4.1437 -1.6261
   41SOL     OW  121   2.518   1.471   0.846 -0.5632  0.5670 -0.0959
   41SOL    HW1  122   2.533   1.443   0.941 -2.0014  0.5018 -1.3555
   41SOL    HW2  123   2.507   1.569   0.848  2.4691 -0.5627 -0.9866
   42SOL     OW  124   0.790   0.304   1.138 -0.8571  1.0452  0.0011
   42SOL    HW1  125   0.705   0.320   1.194  1.0708 -0.0513  3.1715
   42SOL    HW2  126   0.868   0.329   1.198 -1.0746  0.1713  0.0769
   43SOL     OW  127   0.008   2.056   2.748 -0.4686 -0.1832  0.2418
   43SOL    HW1  128   3.138   2.038   2.847 -0.4856 -0.1862  1.5981
   43SOL    HW2  129   0.105   2.055   2.720  1.6415 -0.7635  0.0739
   44SOL     OW  130   2.267   3.131   1.718  0.4759 -0.2239  0.8688
   44SOL    HW1  131   2.200   3.105   1.789  0.5309  2.4455 -0.4927
   44SOL    HW2  132   2.225   0.078   1.680 -1.2070  0.5239 -2.3235
   45SOL     OW  133   1.231   0.136   2.334  0.0775  0.3654  0.1710
   45SOL    HW1  134   1.198   0.159   2.240 -0.1050 -0.5915 -1.0535
   45SOL    HW2  135   1.232   0.036   2.344  0.0320 -1.7622 -0.6029
   46SOL     OW  136   1.135   2.814   2.734 -0.1419 -0.8163 -0.0429
   46SOL    HW1  137   1.054   2.755   2.713  0.7297 -1.0004 -1.3225
   46SOL    HW2  138   1.152   2.831   2.833 -1.1683  1.6604  1.9745
   47SOL     OW  139   1.875   1.756   0.817 -0.3479  0.4741 -0.2928
   47SOL    HW1  140   1.866   1.830   0.889 -0.2001  2.8937 -0.9372
   47SOL    HW2  141   1.964   1.768   0.770  0.0185 -0.9748  2.3816
   48SOL     OW  142   1.068   2.282   0.686  0.1264  0.2819 -0.0483
   48SOL    HW1  143   1.049   2.244   0.594  0.1359 -1.3912 -0.4176
   48SOL    HW2  144   1.041   2.217   0.757  0.3543  2.0155 -0.4640
   49SOL     OW  145   2.149   2.957   2.433 -0.0376  0.4742 -0.7293
   49SOL    HW1  146   2.213   3.029   2.397  0.8814  0.7668  0.2458
   49SOL    HW2  147   2.201   2.879   2.477  2.7203 -0.7635 -0.8845
   50SOL     OW  148   1.750   2.961   0.045 -0.2066  0.0503 -0.3710
   50SOL    HW1  149   1.817   3.009   0.106  0.0786  2.2120  0.9263
   50SOL    HW2  150   1.674   3.029   0.022 -0.0956  4.8026 -2.5216
   51SOL     OW  151   2.063   0.612   1.030  0.1150  0.0044  0.2605
   51SOL    HW1  152   2.130   0.617   1.104  0.0935 -1.3226 -3.0231
   51SOL    HW2  153   2.075   0.699   0.970  3.3391  1.8638 -1.9514
   52SOL     OW  154   1.082   1.561   1.027  0.3875 -0.1043  0.0071
   52SOL    HW1  155   1.160   1.500   1.052  1.5635  3.1707 -2.6133
   52SOL    HW2  156   1.075   1.633   1.097 -0.6774  0.6199 -3.4468
   53SOL     OW  157   0.546   1.678   2.631  0.0037 -0.4126 -0.1546
   53SOL    HW1  158   0.453   1.648   2.663 -2.2192 -0.1107  1.2487
   53SOL    HW2  159   0.622   1.628   2.679  0.4303  2.0538 -1.7247
   54SOL     OW  160   2.812   1.075   1.894  0.2146  0.0160 -0.0535
   54SOL    HW1  161   2.860   1.030   1.813  3.8865 -1.1735  1.4088
   54SOL    HW2  162   2.782   1.018   1.975 -4.0598 -1.3869  2.6650
   55SOL     OW  163   2.691   1.905   0.664 -0.4532  0.2176 -0.2593
   55SOL    HW1  164   2.720   1.819   0.618 -0.1836  0.4934 -1.5739
   55SOL    HW2  165   2.740   1.986   0.625  1.3878 -3.0452 -1.2988
   56SOL     OW  166   1.634   0.169   1.771 -0.3055 -0.4031 -0.0397
   56SOL    HW1  167   1.648   0.074   1.809  0.9485 -3.6731  1.0225
   56SOL    HW2  168   1.556   0.216   1.822 -1.3044  1.0377  0.0367
   57SOL     OW  169   1.347   1.441   2.894  0.1732 -0.0053 -0.5514
   57SOL    HW1  170   1.398   1.397   2.822 -0.9049 -0.5093  0.6295
   57SOL    HW2  171   1.408   1.466   2.975 -0.4439  2.6212 -2.2400
   58SOL     OW  172   3.104   0.869   1.863 -0.2805  0.2331 -0.4167
   58SOL    HW1  173   0.059   0.843   1.833 -1.3249  0.0800 -0.4466
   58SOL    HW2  174   3.063   0.932   1.792 -1.0892  1.4434  1.8292
   59SOL     OW  175   1.685   2.739   0.199  0.1145  0.2429 -0.3988
   59SOL    HW1  176   1.752   2.667   0.170  1.6994  2.1356  0.3207
   59SOL    HW2  177   1.696   2.818   0.136 -0.4166 -0.3223 -0.6045
   60SOL     OW  178   2.976   1.788   0.185  0.3461  0.0873  0.3074
   60SOL    HW1  179   2.987   1.880   0.237 -0.4154  3.8341 -0.1000
   60SOL    HW2  180   3.025   1.789   0.099  0.3631  1.4373  2.1385
   61SOL     OW  181   1.104   2.799   0.865 -0.1524 -0.0439  0.2185
   61SOL    HW1  182   1.089   2.778   0.965 -0.2628  0.5301  1.5948
   61SOL    HW2  183   1.014   2.774   0.819 -1.9694  0.5736 -0.6662
   62SOL     OW  184   1.883   1.805   2.650  0.0268 -0.4548  0.4652
   62SOL    HW1  185   1.930   1.789   2.561  0.5586  0.3193 -2.3070
   62SOL    HW2  186   1.860   1.902   2.667  1.2068 -2.7344  1.4233
   63SOL     OW  187   2.109   2.411   0.593 -0.3191 -0.4671  0.2503
   63SOL    HW1  188   2.148   2.399   0.495 -0.3621 -0.1125 -4.1532
   63SOL    HW2  189   2.041   2.337   0.606 -2.9639  1.2375 -2.5596
   64SOL     OW  190   1.647   0.868   2.704 -0.0462  0.5795 -0.3940
   64SOL    HW1  191   1.611   0.887   2.611 -0.8328 -1.3557 -1.3455
   64SOL    HW2  192   1.736   0.826   2.708  1.7951  3.2109 -1.5405
   65SOL     OW  193   1.984   1.792   2.405 -0.4635 -0.2262  0.0077
   65SOL    HW1  194   2.070   1.765   2.359 -1.1459 -0.9405 -1.2064
   65SOL    HW2  195   1.924   1.842   2.337 -0.0067  1.8546 -1.2252
   66SOL     OW  196   0.344   0.936   1.546 -0.1684 -0.4354 -0.1245
   66SOL    HW1  197   0.276   1.013   1.527 -0.3155  0.5931  1.4395
   66SOL    HW2  198   0.415   0.946   1.475  0.0841  3.0132  2.9895
   67SOL     OW  199   2.413   2.844   2.673 -0.4127 -0.4638  0.2099
   67SOL    HW1  200   2.375   2.865   2.764 -0.1118  0.2292  1.1855
   67SOL    HW2  201   2.467   2.928   2.646  1.5388  2.3693  2.3550
   68SOL     OW  202   1.332   2.703   1.195  0.2609 -0.0732  0.1789
   68SOL    HW1  203   1.302   2.800   1.189 -1.8039  2.1773 -1.3254
   68SOL    HW2  204   1.343   2.666   1.098  0.2662 -0.2065 -0.2920
   69SOL     OW  205   0.647   2.676   3.133  0.3235  0.0770 -0.9103
   69SOL    HW1  206   0.688   2.766   3.116 -3.9257  0.0410  0.1948
   69SOL    HW2  207   0.713   2.615   0.041  0.3098  3.1132 -0.1007
   70SOL     OW  208   2.920   0.348   2.362  0.2989  0.1989  0.1329
   70SOL    HW1  209   2.864   0.335   2.449  1.0239  2.9317  0.0887
   70SOL    HW2  210   3.016   0.367   2.377 -1.2257  1.0501 -0.3902
   71SOL     OW  211   0.334   1.317   2.436 -0.0052 -0.3361 -0.3873
   71SOL    HW1  212   0.242   1.285   2.405 -2.5656 -0.3985  0.8143
   71SOL    HW2  213   0.346   1.304   2.539 -0.3585 -0.0479 -2.4078
   72SOL     OW  214   0.008   2.029   3.027 -0.6198  0.3894  1.0544
   72SOL    HW1  215   3.066   2.086   3.044  1.2570 -0.2361  1.3575
   72SOL    HW2  216   0.090   2.078   3.048  0.4741  0.2535 -0.5272
   73SOL     OW  217   1.581   1.285   0.143  0.6675 -0.1296 -0.1262
   73SOL    HW1  218   1.577   1.332   0.238  0.6676  0.8126  2.2913
   73SOL    HW2  219   1.531   1.341   0.075  0.1757  1.3639 -2.2953
   74SOL     OW  220   2.138   2.687   2.796 -0.1621 -0.0059 -0.0059
   74SOL    HW1  221   2.124   2.781   2.820 -2.8068 -3.7059 -1.6408
   74SOL    HW2  222   2.153   2.667   2.699  2.8728 -2.1557 -0.0723
   75SOL     OW  223   2.067   2.039   1.114 -0.1728 -0.0203  0.2533
   75SOL    HW1  224   2.094   2.034   1.013 -1.8997  1.2327  0.0851
   75SOL    HW2  225   1.983   1.988   1.139  0.1619  0.1550  0.5500
   76SOL     OW  226   2.447   2.608   1.889  0.1843 -0.1906 -0.2871
   76SOL    HW1  227   2.543   2.614   1.917  0.1039 -2.1255  1.3819
   76SOL    HW2  228   2.389   2.574   1.961  0.1026  0.3439 -1.3121
   77SOL     OW  229   2.631   3.115   2.170  0.2876 -0.9175  0.4856
   77SOL    HW1  230   2.567   0.050   2.141 -2.6518 -1.7842  1.1917
   77SOL    HW2  231   2.599   3.026   2.139 -1.2371  2.6744 -0.5962
   78SOL     OW  232   1.953   1.059   3.085  0.2868  0.2814 -0.0645
   78SOL    HW1  233   2.010   0.974   3.090  0.2720  1.7339  0.9574
   78SOL    HW2  234   1.851   1.048   3.101 -0.7720  1.0541 -0.8023
   79SOL     OW  235   2.541   1.554   2.592 -0.6389 -0.0806 -0.1518
   79SOL    HW1  236   2.508   1.629   2.653 -0.9951 -1.1621  1.0945
   79SOL    HW2  237   2.461   1.513   2.551  2.4549  0.3229  2.0607
   80SOL     OW  238   2.151   1.583   1.610 -0.1542  0.2238 -0.3041
   80SOL    HW1  239   2.074   1.517   1.613 -0.8769 -1.3853  2.5301
   80SOL    HW2  240   2.129   1.674   1.657 -2.0694 -0.2335  3.5246
   81SOL     OW  241   1.953   0.531   1.533 -0.1273 -0.2891 -0.0206
   81SOL    HW1  242   2.048   0.494   1.554  2.2857  0.0742  0.9401
   81SOL    HW2  243   1.965   0.632   1.527 -0.7475 -1.7630  0.4528
   82SOL     OW  244   2.179   2.358   1.649  0.5597  0.1258 -0.5799
   82SOL    HW1  245   2.264   2.411   1.632  2.1590 -2.4666 -2.2993
   82SOL    HW2  246   2.164   2.301   1.568 -1.8032  0.2720 -2.4226
   83SOL     OW  247   2.887   3.004   0.165  0.1708  0.0628 -0.5140
   83SOL    HW1  248   2.898   3.077   0.237  1.7286  1.7033  0.0342
   83SOL    HW2  249   2.834   3.030   0.082  0.0563 -1.8193  0.7978
   84SOL     OW  250   0.437   1.284   0.148  0.2939 -0.3117 -0.2346
   84SOL    HW1  251   0.517   1.230   0.191 -0.5097  0.8515  2.0968
   84SOL    HW2  252   0.398   1.348   0.221 -0.8493 -0.5230  1.1274
   85SOL     OW  253   2.809   2.105   1.643 -0.1771  0.4379 -0.0287
   85SOL    HW1  254   2.854   2.040   1.710  0.3969 -0.9060  2.6164
   85SOL    HW2  255   2.819   2.083   1.542 -0.9544  1.4092  0.0993
   86SOL     OW  256   0.292   2.670   1.463  0.3758  0.1170  0.1921
   86SOL    HW1  257   0.356   2.594   1.482  0.9035 -0.5530 -3.0257
   86SOL    HW2  258   0.348   2.751   1.438  1.3532  1.5563  3.4445
   87SOL     OW  259   0.391   2.638   2.476 -0.5034 -0.6314  0.1253
   87SOL    HW1  260   0.461   2.571   2.461 -1.5099 -0.0875 -1.6213
   87SOL    HW2  261   0.300   2.590   2.486  1.5348 -0.0679  1.5449
   88SOL     OW  262   0.559   1.972   0.916  0.1322  0.1470 -0.3808
   88SOL    HW1  263   0.500   2.049   0.955 -0.6037  2.2294 -0.2252
   88SOL    HW2  264   0.578   1.905   0.994 -0.0104 -1.6847  1.6298
   89SOL     OW  265   0.946   0.589   1.611  0.3510 -0.1790 -0.5367
   89SOL    HW1  266   0.994   0.676   1.609 -0.7106 -1.3400 -1.0040
   89SOL    HW2  267   1.005   0.518   1.574 -1.9844  1.0893  0.1708
   90SOL     OW  268   3.062   1.363   1.757  0.7495 -0.4484 -0.1843
   90SOL    HW1  269   3.126   1.406   1.692  0.3992  0.3849  0.3853
   90SOL    HW2  270   3.003   1.435   1.803 -2.5802  0.5938 -1.4297
   91SOL     OW  271   1.105   0.806   0.961 -0.1889 -0.3254 -0.1814
   91SOL    HW1  272   1.115   0.855   1.052  1.5930  1.4124  0.0031
   91SOL    HW2  273   1.178   0.839   0.893 -0.6354  1.2267 -5.3762
   92SOL     OW  274   2.225   1.020   0.608 -0.6176  0.2970  0.6926
   92SOL    HW1  275   2.324   1.038   0.625 -3.3144  1.0723 -0.7955
   92SOL    HW2  276   2.165   1.099   0.585 -3.4029 -1.1386 -0.6288
   93SOL     OW  277   2.454   0.789   2.667 -0.0616  0.1304 -0.2186
   93SOL    HW1  278   2.443   0.692   2.633  0.0878 -1.3607 -0.9195
   93SOL    HW2  279   2.367   0.830   2.707 -1.0464 -1.3659  0.4128
   94SOL     OW  280   2.410   1.901   2.522  0.3871 -0.2181 -0.1384
   94SOL    HW1  281   2.334   1.959   2.492  2.7734 -0.2667  1.5074
   94SOL    HW2  282   2.395   1.843   2.605  1.5962  0.7220  3.4208
   95SOL     OW  283   2.440   0.580   1.163  0.7355  0.2931 -0.3656
   95SOL    HW1  284   2.353   0.523   1.172  1.2019 -3.2649 -0.1746
   95SOL    HW2  285   2.521   0.533   1.210  0.5463  2.1605  1.4584
   96SOL     OW  286   2.675   2.909   1.907  0.2494  0.2018 -0.0549
   96SOL    HW1  287   2.598   2.892   1.971  2.0247  1.5859  0.3879
   96SOL    HW2  288   2.755   2.867   1.950 -3.0433 -0.9160 -0.4937
   97SOL     OW  289   2.542   0.986   1.324  0.4715  0.5603 -0.0042
   97SOL    HW1  290   2.520   1.046   1.241 -2.2551 -0.9280 -3.7653
   97SOL    HW2  291   2.588   1.042   1.397  3.7972 -2.6688  1.6704
   98SOL     OW  292   1.632   1.974   1.621  0.0857  0.4971 -0.0276
   98SOL    HW1  293   1.565   1.932   1.683  1.1023 -1.4737  0.7733
   98SOL    HW2  294   1.634   2.077   1.638  1.4396  2.9496 -1.4702
   99SOL     OW  295   0.098   2.432   1.526  0.0484 -0.4597 -0.4490
   99SOL    HW1  296   0.044   2.496   1.469  0.2054 -0.8704  1.1570
   99SOL    HW2  297   0.122   2.483   1.610 -0.0942  1.5387 -0.0084
  100SOL     OW  298   1.117   0.888   3.027  0.1299 -0.5064  0.1567
  100SOL    HW1  299   1.062   0.940   2.959 -1.9630 -1.2672 -1.5197
  100SOL    HW2  300   1.206   0.938   3.042  1.3906  3.4605 -0.8929
  101SOL     OW  301   2.275   0.124   2.711 -0.3221  0.7502  0.3589
  101SOL    HW1  302   2.319   0.123   2.619 -0.1286  1.1077  0.5948
  101SOL    HW2  303   2.274   0.221   2.742 -2.2710 -1.4635 -0.8225
  102SOL     OW  304   0.490   0.587   1.513  0.2833  0.3644 -0.6007
  102SOL    HW1  305   0.557   0.667   1.501  0.0343  2.0891 -1.3112
  102SOL    HW2  306   0.540   0.503   1.541  1.5342 -0.6062  0.9420
  103SOL     OW  307   0.241   0.603   2.891  0.2257  0.3790 -0.4285
  103SOL    HW1  308   0.279   0.698   2.881  1.8468 -0.1258  2.5180
  103SOL    HW2  309   0.313   0.545   2.926 -0.8892  4.2620  2.3848
  104SOL     OW  310   1.050   0.666   2.525 -0.2172 -0.3020  0.3450
  104SOL    HW1  311   0.966   0.670   2.471  0.4474  1.4500  0.3428
  104SOL    HW2  312   1.065   0.578   2.570 -0.2024  4.1848 -0.4564
  105SOL     OW  313   2.118   1.825   1.721 -0.0110 -0.7123  0.3514
  105SOL    HW1  314   2.099   1.831   1.817 -0.9129  2.5057 -0.0890
  105SOL    HW2  315   2.207   1.877   1.707 -0.1682 -0.5275  2.4767
  106SOL     OW  316   1.787   0.287   0.658  0.0134 -0.3592  0.2685
  106SOL    HW1  317   1.723   0.207   0.662 -0.5684  1.7576  0.3461
  106SOL    HW2  318   1.862   0.270   0.591 -1.8986  0.6673 -0.8608
  107SOL     OW  319   2.822   2.194   1.063 -0.1504 -0.0994  0.4492
  107SOL    HW1  320   2.761   2.208   1.141 -1.2379 -1.3061  1.3259
  107SOL    HW2  321   2.796   2.113   1.004 -0.9966  1.9208 -0.5925
  108SOL     OW  322   2.926   2.815   1.565 -0.1826  0.2175 -0.2454
  108SOL    HW1  323   2.832   2.851   1.567 -0.5874  0.4254 -0.3735
  108SOL    HW2  324   2.958   2.792   1.470  1.7575 -1.6466 -0.6437
  109SOL     OW  325   2.196   2.879   0.757 -0.2870  0.5914 -0.3135
  109SOL    HW1  326   2.147   2.792   0.734  0.9473  0.7599  0.5011
  109SOL    HW2  327   2.142   2.929   0.828 -1.7083 -0.7772  1.5728
  110SOL     OW  328   0.795   1.814   2.557 -0.1086 -0.6791 -0.2982
  110SOL    HW1  329   0.721   1.747   2.578 -1.4265 -2.0271  0.5288
  110SOL    HW2  330   0.819   1.875   2.634  0.0396  0.8501 -0.2022
  111SOL     OW  331   1.766   2.536   2.218  0.1963  0.4935  0.4055
  111SOL    HW1  332   1.826   2.620   2.216  0.9142 -0.4912  2.1344
  111SOL    HW2  333   1.715   2.527   2.130  1.5874 -0.6692  1.5368
  112SOL     OW  334   1.851   1.713   0.140 -0.2585  0.6727  0.6458
  112SOL    HW1  335   1.945   1.717   0.182 -0.1626  0.4640  1.0232
  112SOL    HW2  336   1.851   1.722   0.036 -0.5794  0.5963 -0.3477
  113SOL     OW  337   2.077   2.158   1.474 -0.1077 -0.1941  0.5231
  113SOL    HW1  338   2.169   2.134   1.450 -0.6016  0.1590  3.2181
  113SOL    HW2  339   2.030   2.080   1.517  1.1881 -0.0176  1.5877
  114SOL     OW  340   2.959   1.064   0.793  0.3543  0.2750 -0.2126
  114SOL    HW1  341   2.907   1.150   0.786  0.7434  0.2084  0.2876
  114SOL    HW2  342   2.937   1.000   0.716 -2.2093 -0.7062  2.8441
  115SOL     OW  343   0.806   0.778   3.074 -0.0278  0.1982  0.5515
  115SOL    HW1  344   0.704   0.762   3.082 -1.2534  0.4797 -1.1807
  115SOL    HW2  345   0.848   0.735   2.992 -3.1185  0.0152 -0.6379
  116SOL     OW  346   2.928   1.753   2.634  0.2379 -0.0187  0.4518
  116SOL    HW1  347   2.844   1.789   2.589  1.4691  0.8977 -1.0531
  116SOL    HW2  348   2.935   1.784   2.729  0.7536 -0.2350 -0.6957
  117SOL     OW  349   3.032   2.895   0.581  0.3334 -0.3042  0.2987
  117SOL    HW1  350   3.089   2.814   0.557  1.0049  1.5965  0.4610
  117SOL    HW2  351   2.933   2.871   0.580  3.2623  0.2343 -0.7419
  118SOL     OW  352   0.878   1.767   2.841 -0.0161 -0.5574 -0.2086
  118SOL    HW1  353   0.805   1.837   2.864 -0.4439  0.7404 -0.6224
  118SOL    HW2  354   0.970   1.802   2.859 -1.1067 -1.8375  1.9830
  119SOL     OW  355   0.319   2.327   0.232  1.0406  0.1497 -0.1378
  119SOL    HW1  356   0.393   2.389   0.202  4.6393 -1.4642  0.2791
  119SOL    HW2  357   0.353   2.272   0.306  0.0987  3.2710 -1.8206
  120SOL     OW  358   1.211   0.576   3.009 -0.0918 -0.3254 -0.0028
  120SOL    HW1  359   1.313   0.574   2.991  2.3373 -0.2780 -0.9600
  120SOL    HW2  360   1.175   0.668   2.984  0.8850  1.4762 -1.0938
  121SOL     OW  361   1.240   2.662   0.385  0.5791  0.3494 -0.2172
  121SOL    HW1  362   1.317   2.666   0.450 -0.8709  1.9312  0.2674
  121SOL    HW2  363   1.276   2.615   0.304  1.3727  0.5590  0.5443
  122SOL     OW  364   2.444   2.601   1.410 -0.9198  0.0294  0.0665
  122SOL    HW1  365   2.450   2.700   1.414  1.1267 -2.1984  1.7380
  122SOL    HW2  366   2.443   2.564   1.505 -2.2397  0.7595 -1.7066
  123SOL     OW  367   0.890   2.074   0.560  0.1319 -0.0423 -0.4249
  123SOL    HW1  368   0.922   2.064   0.463  0.1101  2.0928 -0.2538
  123SOL    HW2  369   0.785   2.069   0.564 -2.5823  0.1422 -0.2062
  124SOL     OW  370   2.805   0.635   0.271 -0.7370  0.0140  0.0673
  124SOL    HW1  371   2.887   0.595   0.313  0.7706  2.3442 -0.0300
  124SOL    HW2  372   2.770   0.720   0.323 -0.6365  3.6979  1.3733
  125SOL     OW  373   0.500   0.881   0.350  0.8621  0.1617  0.1993
  125SOL    HW1  374   0.533   0.796   0.303  1.0471 -0.2340  1.1841
  125SOL    HW2  375   0.403   0.898   0.335 -1.4345 -0.5066 -1.2327
  126SOL     OW  376   0.268   1.905   1.066 -0.1871  0.1137 -0.3132
  126SOL    HW1  377   0.329   1.898   0.988 -0.5200  1.1046 -0.8354
  126SOL    HW2  378   0.196   1.836   1.068  1.2785  1.5415 -1.3378
  127SOL     OW  379   1.430   1.893   1.774  0.3145 -0.7177  0.5459
  127SOL    HW1  380   1.491   1.902   1.861  0.7785 -0.9032  3.0701
  127SOL    HW2  381   1.362   1.967   1.760 -1.6794  3.6425  0.2346
  128SOL     OW  382   1.190   1.029   0.312 -0.2290 -0.5306 -0.1304
  128SOL    HW1  383   1.171   1.083   0.228 -2.0203  0.9227  0.2564
  128SOL    HW2  384   1.292   1.030   0.319  0.4741  0.6511  0.1284
  129SOL     OW  385   1.942   1.033   1.004 -0.0163  0.8679 -0.0218
  129SOL    HW1  386   1.995   0.965   0.946  1.2806 -2.4829 -2.4655
  129SOL    HW2  387   1.908   1.113   0.946 -1.6684  0.4030  0.0594
  130SOL     OW  388   2.659   1.591   1.650 -0.4091  0.0053  0.2972
  130SOL    HW1  389   2.587   1.634   1.591 -2.7902 -0.7631 -1.3846
  130SOL    HW2  390   2.743   1.565   1.594  0.5053 -3.4600 -1.1587
  131SOL     OW  391   2.888   2.714   2.861  0.1731  0.0381 -0.8045
  131SOL    HW1  392   2.811   2.741   2.927 -0.6445 -1.4665  0.1658
  131SOL    HW2  393   2.892   2.785   2.789 -1.1807  1.2072  1.4749
  132SOL     OW  394   0.064   1.366   0.398 -0.2090 -0.5435 -0.1586
  132SOL    HW1  395   0.003   1.409   0.327 -0.1280 -1.2626  1.4820
  132SOL    HW2  396   0.035   1.265   0.407 -1.5444  0.5071  0.8692
  133SOL     OW  397   0.589   0.323   1.580  0.0381  0.8874  0.7313
  133SOL    HW1  398   0.537   0.310   1.657  2.7237 -1.1330 -2.4543
  133SOL    HW2  399   0.666   0.256   1.573  2.3374  1.8553  0.4134
  134SOL     OW  400   0.306   1.778   3.094 -0.4978  0.1419 -0.2883
  134SOL    HW1  401   0.245   1.706   3.052  0.2281 -1.1178  1.7651
  134SOL    HW2  402   0.351   1.834   3.023  0.1809 -0.0537  3.7128
  135SOL     OW  403   1.687   0.658   1.910  0.3966  0.0102 -0.6331
  135SOL    HW1  404   1.673   0.760   1.888 -0.9690  2.2251  0.2119
  135SOL    HW2  405   1.601   0.607   1.949 -2.9984 -1.9137  2.1322
  136SOL     OW  406   2.971   1.049   0.155 -0.2152  0.3186 -0.1037
  136SOL    HW1  407   3.044   0.977   0.142 -0.5998 -2.0508  0.9524
  136SOL    HW2  408   2.999   1.130   0.100  1.6216 -0.7514 -1.0605
  137SOL     OW  409   0.377   1.089   1.287 -0.6366 -0.3170 -0.0220
  137SOL    HW1  410   0.288   1.109   1.336 -2.0315  1.4730  1.1057
  137SOL    HW2  411   0.365   1.032   1.206 -0.0650  0.5948 -0.2036
  138SOL     OW  412   2.211   0.471   1.248  0.0947 -0.0906 -0.1637
  138SOL    HW1  413   2.138   0.401   1.222  1.1105 -0.9817 -0.0178
  138SOL    HW2  414   2.211   0.493   1.344  1.8546  0.3979 -3.9915
  139SOL     OW  415   1.265   2.488   0.181 -0.6730 -0.4771 -0.5777
  139SOL    HW1  416   1.341   2.513   0.117  0.5764  0.7239 -1.5487
  139SOL    HW2  417   1.181   2.481   0.131  3.2487 -0.7259 -0.9145
  140SOL     OW  418   1.387   1.384   1.375  0.3260 -0.5452 -0.1720
  140SOL    HW1  419   1.299   1.416   1.407  1.3198  0.4759 -0.4956
  140SOL    HW2  420   1.421   1.450   1.307  1.5284 -0.9286  1.0822
  141SOL     OW  421   1.389   1.986   0.491  0.3660 -0.4864  0.0106
  141SOL    HW1  422   1.295   1.996   0.447 -0.3763 -1.0631 -0.3858
  141SOL    HW2  423   1.385   1.978   0.592  2.8701 -1.5459 -0.5138
  142SOL     OW  424   0.842   0.405   0.333  0.3111 -0.2664 -0.0578
  142SOL    HW1  425   0.894   0.366   0.249  2.0804  1.9204 -2.0358
  142SOL    HW2  426   0.803   0.500   0.310 -1.4451 -1.3132 -4.0491
  143SOL     OW  427   0.386   1.940   2.891 -0.1727  0.2162  0.4972
  143SOL    HW1  428   0.367   2.019   2.951  0.9883 -3.1125 -0.6718
  143SOL    HW2  429   0.333   1.958   2.810 -0.3530 -0.8816  0.4457
  144SOL     OW  430   1.626   2.651   0.860 -0.3833  0.3360 -0.0868
  144SOL    HW1  431   1.647   2.664   0.959 -1.1895  1.6257  0.4427
  144SOL    HW2  432   1.702   2.689   0.805 -0.2523 -0.9710  0.5701
  145SOL     OW  433   1.938   0.819   2.790 -0.2535 -0.1586  0.3337
  145SOL    HW1  434   1.941   0.726   2.745 -0.5325 -1.0349 -2.8291
  145SOL    HW2  435   1.914   0.821   2.891 -0.2345  0.2638  2.9827
  146SOL     OW  436   0.112   2.649   0.971  0.5103 -0.2159 -0.0760
  146SOL    HW1  437   0.052   2.720   0.925 -0.7190 -0.2493 -0.6648
  146SOL    HW2  438   0.145   2.588   0.897 -1.4832  0.2330  1.6627
  147SOL     OW  439   2.179   3.112   2.046  0.1098 -0.5384  0.1239
  147SOL    HW1  440   2.188   3.013   2.044 -0.7544 -2.5862  1.8592
  147SOL    HW2  441   2.082   3.138   2.065  1.4448  0.9649  0.5840
  148SOL     OW  442   1.091   3.110   1.869 -0.1183 -0.1196  0.6107
  148SOL    HW1  443   1.087   0.063   1.910 -1.6248  1.0571 -1.0147
  148SOL    HW2  444   1.060   3.032   1.932  0.0017  1.3580 -0.1878
  149SOL     OW  445   1.501   0.545   2.042 -0.3681  0.7560  0.0118
  149SOL    HW1  446   1.529   0.493   2.122  1.6154  0.6328 -2.0364
  149SOL    HW2  447   1.412   0.592   2.061 -0.2082  1.4914 -0.4967
  150SOL     OW  448   2.778   3.122   3.081 -0.2865  0.3151  0.0331
  150SOL    HW1  449   2.862   0.010   3.038 -0.4513 -0.5247  0.9147
  150SOL    HW2  450   2.705   3.109   3.012 -2.4191 -0.9015  0.7492
  151SOL     OW  451   0.827   1.711   0.477  0.0779  0.4373  0.1909
  151SOL    HW1  452   0.810   1.759   0.567  0.7952  1.6098 -0.4121
  151SOL    HW2  453   0.816   1.774   0.398  2.4169 -0.3250 -1.4499
  152SOL     OW  454   3.064   0.538   0.344  0.4402 -0.5695 -0.1638
  152SOL    HW1  455   3.089   0.541   0.442 -2.0261 -3.4118 -0.8428
  152SOL    HW2  456   3.139   0.567   0.281 -0.8963 -0.3810 -2.4682
  153SOL     OW  457   2.795   0.359   1.507 -0.0859  0.1649  0.2806
  153SOL    HW1  458   2.830   0.447   1.469 -0.8296 -4.0184  2.0801
  153SOL    HW2  459   2.767   0.370   1.603  1.4526  2.1542 -0.3869
  154SOL     OW  460   1.505   3.050   2.266  0.2164 -0.4831  0.4699
  154SOL    HW1  461   1.508   2.954   2.295 -0.8649  0.3306 -1.7028
  154SOL    HW2  462   1.438   3.055   2.187 -0.4573 -1.3449 -1.7838
  155SOL     OW  463   0.354   1.819   0.806 -0.1063 -0.1510 -0.0255
  155SOL    HW1  464   0.397   1.759   0.737  3.0861 -1.4302 -0.0946
  155SOL    HW2  465   0.428   1.883   0.828 -0.6320  0.9419  0.3509
  156SOL     OW  466   2.213   2.195   0.030 -0.0607 -0.8573 -0.0611
  156SOL    HW1  467   2.195   2.279   3.116  0.8910  0.5833 -0.1277
  156SOL    HW2  468   2.183   2.206   0.125  1.9102 -0.2054 -3.6616
  157SOL     OW  469   1.216   0.453   0.125  0.2507  0.4216 -0.3382
  157SOL    HW1  470   1.167   0.529   0.082  0.8976  2.5158  1.7353
  157SOL    HW2  471   1.294   0.427   0.064 -1.4504 -0.0866  1.9478
  158SOL     OW  472   2.383   0.016   2.932 -0.2267  0.4048 -0.7479
  158SOL    HW1  473   2.387   0.076   3.016 -1.7217  2.0955  1.5874
  158SOL    HW2  474   2.330   0.060   2.858  0.0254  1.6650  0.2069
  159SOL     OW  475   2.896   0.086   0.336 -0.1798 -0.2121 -0.3017
  159SOL    HW1  476   2.933   0.167   0.282 -1.8563  3.0811  2.3246
  159SOL    HW2  477   2.956   0.056   0.414  1.7216 -1.0417 -0.8425
  160SOL     OW  478   1.603   1.900   2.372 -0.1125 -0.4444  0.3360
  160SOL    HW1  479   1.572   1.837   2.442 -0.6161  0.1373  3.9089
  160SOL    HW2  480   1.528   1.934   2.312  0.2486  1.3384  2.3123
  161SOL     OW  481   2.689   0.875   2.739 -0.3443 -0.5321 -0.0129
  161SOL    HW1  482   2.755   0.808   2.697 -1.3676 -1.3040  0.2940
  161SOL    HW2  483   2.591   0.855   2.710 -2.3653 -0.9412 -0.4763
  162SOL     OW  484   0.507   2.466   1.500  0.4970  0.0613  0.9369
  162SOL    HW1  485   0.601   2.487   1.464 -2.2246 -2.0583  3.3556
  162SOL    HW2  486   0.506   2.437   1.597  1.0862 -1.5383  1.3697
  163SOL     OW  487   2.054   0.282   2.386  0.2335  0.4725 -0.4869
  163SOL    HW1  488   1.971   0.238   2.411  1.8207  1.1890 -0.1108
  163SOL    HW2  489   2.101   0.240   2.307  2.0586 -1.8498 -0.1771
  164SOL     OW  490   2.118   1.832   0.386 -0.1329 -0.6334  0.5104
  164SOL    HW1  491   2.133   1.824   0.284 -1.5378 -0.4644  0.1480
  164SOL    HW2  492   2.089   1.741   0.424 -4.0124 -0.1800  0.6591
  165SOL     OW  493   3.030   0.247   1.549  0.6813  0.4517 -0.4555
  165SOL    HW1  494   2.935   0.288   1.541 -0.9198 -3.1288 -2.6769
  165SOL    HW2  495   3.081   0.300   1.482  0.2075 -0.4828  0.8868
  166SOL     OW  496   2.338   1.187   3.085  0.0177  0.1109 -0.2741
  166SOL    HW1  497   2.366   1.250   3.012 -3.3167  3.0981  2.4564
  166SOL    HW2  498   2.308   1.237   0.032  0.7076 -1.9793  1.8303
  167SOL     OW  499   2.878   0.742   3.092 -0.1790  0.2860 -0.4121
  167SOL    HW1  500   2.789   0.697   3.107  2.3253  0.2905  0.2701
  167SOL    HW2  501   2.951   0.684   3.131  1.5261  0.9459  0.2074
  168SOL     OW  502   1.613   2.816   2.852 -0.5715  0.7996 -0.3023
  168SOL    HW1  503   1.703   2.805   2.887 -0.5803  0.3434 -0.8251
  168SOL    HW2  504   1.618   2.839   2.754 -0.9255 -1.7614  2.0622
  169SOL     OW  505   3.137   1.369   0.685 -0.3177  0.3646  0.2986
  169SOL    HW1  506   0.011   1.353   0.589 -3.3020  3.4454  3.2716
  169SOL    HW2  507   3.038   1.377   0.700  1.4979 -0.0764 -4.4593
  170SOL     OW  508   0.033   0.402   1.358 -0.6299  0.1937  0.2384
  170SOL    HW1  509   0.093   0.467   1.413  2.2457 -0.4208 -2.4819
  170SOL    HW2  510   3.104   0.457   1.307  0.8804 -1.1281  0.1003
  171SOL     OW  511   1.809   2.076   2.673 -0.0973 -0.9107 -0.2449
  171SOL    HW1  512   1.757   2.101   2.589 -2.1524  1.2213  1.7560
  171SOL    HW2  513   1.894   2.133   2.670  0.5396 -0.0125 -1.9635
  172SOL     OW  514   0.030   2.661   1.378  0.1754  0.0723 -0.3684
  172SOL    HW1  515   0.025   2.614   1.287  0.4106  2.3593 -1.0027
  172SOL    HW2  516   0.125   2.677   1.410 -0.4319  1.0065 -1.6287
  173SOL     OW  517   1.260   0.779   0.220 -0.2789  0.4365 -0.1699
  173SOL    HW1  518   1.222   0.867   0.263 -0.9500 -1.2811  0.8606
  173SOL    HW2  519   1.350   0.789   0.171  0.6196 -0.7775  2.2469
  174SOL     OW  520   1.122   0.166   2.768  0.7911  0.1347  0.4921
  174SOL    HW1  521   1.084   0.126   2.851  1.5524  0.4387  0.2940
  174SOL    HW2  522   1.151   0.087   2.708 -1.3451 -0.1987 -1.1952
  175SOL     OW  523   2.112   2.018   0.845 -0.2064  0.8033  0.3566
  175SOL    HW1  524   2.067   2.062   0.763 -0.4298 -1.1366  1.8091
  175SOL    HW2  525   2.195   2.068   0.865  0.3162  0.3707 -1.4445
  176SOL     OW  526   1.358   0.088   0.124 -0.3603  0.1092  0.2268
  176SOL    HW1  527   1.287   0.044   0.183  4.4707  1.1573 -1.8123
  176SOL    HW2  528   1.325   0.094   0.031  4.0716 -3.1663 -0.6766
  177SOL     OW  529   0.962   1.462   0.446 -0.3289  0.5483  0.0766
  177SOL    HW1  530   0.905   1.545   0.425 -1.1986  0.7517  0.1974
  177SOL    HW2  531   1.025   1.441   0.364  0.9825 -0.5999 -2.7470
  178SOL     OW  532   2.495   2.370   2.988  0.2183 -0.3750  0.2349
  178SOL    HW1  533   2.565   2.303   3.003 -5.0493  4.0720 -1.7847
  178SOL    HW2  534   2.444   2.396   3.069  1.0359 -2.5108 -4.8826
  179SOL     OW  535   2.638   3.078   2.858 -0.2572 -0.1210  0.1040
  179SOL    HW1  536   2.547   3.116   2.883 -1.8258  0.0466  0.1299
  179SOL    HW2  537   2.628   3.048   2.762  0.1353 -1.6846  2.4362
  180SOL     OW  538   1.573   1.552   0.669  0.0738 -0.2184  0.6729
  180SOL    HW1  539   1.526   1.465   0.692  0.3004 -3.6074 -1.6068
  180SOL    HW2  540   1.515   1.618   0.613  1.1418 -0.4444 -0.1702
  181SOL     OW  541   1.869   1.284   2.435 -0.3741  0.1533  0.1216
  181SOL    HW1  542   1.872   1.239   2.529  0.2458 -1.6031  1.0097
  181SOL    HW2  543   1.841   1.382   2.452  1.1996 -0.4111 -0.9191
  182SOL     OW  544   2.588   3.059   2.595  0.1548 -0.2595  0.3329
  182SOL    HW1  545   2.526   0.001   2.579  0.6388  0.3351 -0.5060
  182SOL    HW2  546   2.660   3.050   2.524 -0.8808  3.6409  0.9274
  183SOL     OW  547   1.815   0.419   2.362  0.2966  0.3131 -0.6176
  183SOL    HW1  548   1.820   0.485   2.281  0.3931  0.6795 -2.8642
  183SOL    HW2  549   1.907   0.379   2.395  2.7196 -2.1812  1.5971
  184SOL     OW  550   0.174   1.128   1.481  0.3305 -0.0196  0.2949
  184SOL    HW1  551   0.077   1.093   1.469 -2.2907 -2.0978  1.0269
  184SOL    HW2  552   0.173   1.209   1.543  1.5511 -1.1277 -0.9515
  185SOL     OW  553   1.830   0.750   0.716  0.2017 -0.2803 -0.8543
  185SOL    HW1  554   1.931   0.749   0.733 -1.1853  0.2598  0.7737
  185SOL    HW2  555   1.787   0.656   0.727 -1.4637 -1.5727 -1.0707
  186SOL     OW  556   0.237   2.768   2.852  0.7230 -0.2839  0.0705
  186SOL    HW1  557   0.152   2.766   2.910 -1.3512  1.8817 -1.6079
  186SOL    HW2  558   0.215   2.771   2.753 -1.5898  2.3662 -0.0022
  187SOL     OW  559   2.721   1.042   0.240  0.5559  0.3372  0.4541
  187SOL    HW1  560   2.820   1.033   0.213  0.5586 -0.3738  5.0707
  187SOL    HW2  561   2.664   1.025   0.158  2.3320  0.3917  2.6605
  188SOL     OW  562   2.918   1.657   1.340 -0.1339  0.0565  0.1547
  188SOL    HW1  563   2.910   1.585   1.414 -1.9026  0.5624  1.6742
  188SOL    HW2  564   3.007   1.708   1.356 -1.8893  2.6413 -2.2837
  189SOL     OW  565   2.494   0.488   2.983 -0.1565 -0.0308 -0.6929
  189SOL    HW1  566   2.554   0.499   2.895  1.6798  1.4978 -1.8444
  189SOL    HW2  567   2.556   0.512   3.060  0.7285 -1.1529  1.8887
  190SOL     OW  568   1.518   1.386   2.068 -0.4443  0.0554 -0.0765
  190SOL    HW1  569   1.506   1.399   1.970 -0.7846 -0.1442  1.7943
  190SOL    HW2  570   1.514   1.284   2.086  1.5123  0.0256  0.3535
  191SOL     OW  571   0.578   0.475   1.869  0.2957 -0.4888 -0.1309
  191SOL    HW1  572   0.670   0.450   1.833 -0.6401 -1.0686 -1.8116
  191SOL    HW2  573   0.514   0.396   1.880  0.7084  0.1413 -2.5509
  192SOL     OW  574   1.978   1.307   1.208 -0.1322 -0.4054 -0.1083
  192SOL    HW1  575   1.889   1.354   1.176 -2.7882  2.7492 -1.0512
  192SOL    HW2  576   1.982   1.313   1.314  0.2749  1.1925  2.8684
  193SOL     OW  577   1.460   0.772   1.028  0.0625 -0.0832 -0.5733
  193SOL    HW1  578   1.556   0.795   1.046 -2.2851 -1.2339 -0.6925
  193SOL    HW2  579   1.424   0.835   0.958  1.1337  2.0819  0.5475
  194SOL     OW  580   0.981   2.311   1.489  0.1303 -0.2841 -0.2059
  194SOL    HW1  581   0.907   2.372   1.456 -0.5327 -1.6872  0.4852
  194SOL    HW2  582   0.939   2.223   1.523 -2.9031 -2.8334 -2.9161
  195SOL     OW  583   1.981   0.094   2.985  0.5041  0.3909 -0.1357
  195SOL    HW1  584   2.050   0.050   3.047  0.0552 -0.1350  1.5565
  195SOL    HW2  585   1.991   0.070   2.885 -1.4056 -0.4574  1.3627
  196SOL     OW  586   0.644   1.790   1.879  0.1131  0.3845  0.6465
  196SOL    HW1  587   0.689   1.829   1.797 -1.1506  1.3830 -1.4836
  196SOL    HW2  588   0.708   1.735   1.937  0.3565  2.0131 -2.7643
  197SOL     OW  589   0.813   0.039   1.107 -0.1365  0.0861 -0.1977
  197SOL    HW1  590   0.913   0.022   1.090  1.0095  1.1049 -1.0994
  197SOL    HW2  591   0.796   0.138   1.100 -1.1287 -0.9352  1.3862
  198SOL     OW  592   0.789   1.077   1.130  0.8030 -0.3313  0.2241
  198SOL    HW1  593   0.776   0.983   1.163  0.5221  0.1648  1.3872
  198SOL    HW2  594   0.826   1.079   1.039 -1.0071 -2.4216  2.7671
  199SOL     OW  595   0.180   2.636   1.712  0.1709 -0.4389 -0.0537
  199SOL    HW1  596   0.235   2.611   1.794 -1.3920 -1.3338 -2.8430
  199SOL    HW2  597   0.236   2.676   1.640  1.6402 -1.6974  1.9661
  200SOL     OW  598   1.759   1.760   2.014  0.4935  0.4174 -1.1720
  200SOL    HW1  599   1.841   1.744   1.955 -1.6808  1.4395  2.1229
  200SOL    HW2  600   1.747   1.678   2.072 -2.9261  1.4822  0.0896
  201SOL     OW  601   0.408   1.603   2.412 -0.0585 -0.2412 -0.1696
  201SOL    HW1  602   0.409   1.504   2.398  2.1405  0.9925 -1.5701
  201SOL    HW2  603   0.480   1.625   2.481 -1.0554  0.3544 -0.2900
  202SOL     OW  604   1.669   0.481   0.027  0.1074 -0.4817  0.1083
  202SOL    HW1  605   1.717   0.393   0.012  1.6278  0.9218  0.0921
  202SOL    HW2  606   1.683   0.513   0.121  0.3062  0.0032 -2.8274
  203SOL     OW  607   1.164   2.597   2.037 -0.2550  0.2619  0.2099
  203SOL    HW1  608   1.085   2.571   2.100 -0.6285 -1.4568  0.0853
  203SOL    HW2  609   1.133   2.638   1.948 -1.6817  0.6723 -2.1974
  204SOL     OW  610   1.044   1.913   1.665  0.1812  0.0146  0.1006
  204SOL    HW1  611   0.969   1.958   1.611 -2.5599 -0.4748 -1.0248
  204SOL    HW2  612   1.125   1.978   1.673 -2.1891  1.3984  1.5973
  205SOL     OW  613   1.549   1.914   2.010  0.5019 -1.0590 -0.8474
  205SOL    HW1  614   1.628   1.849   2.025  1.6110 -1.6459 -1.8324
  205SOL    HW2  615   1.482   1.911   2.084  0.4601  0.9326  0.1560
  206SOL     OW  616   0.123   1.170   2.378 -0.0785 -0.1610  0.2067
  206SOL    HW1  617   0.129   1.079   2.416  0.0844  0.8044 -0.7506
  206SOL    HW2  618   0.145   1.164   2.277 -0.7307 -0.7110 -0.2450
  207SOL     OW  619   1.072   2.928   2.072 -0.9096 -0.2869  0.9376
  207SOL    HW1  620   1.116   2.947   2.160 -2.1719  0.9903 -0.6286
  207SOL    HW2  621   1.008   2.851   2.069 -1.4856  0.0348 -2.0636
  208SOL     OW  622   0.607   2.854   2.017 -0.1938 -0.6069  0.0604
  208SOL    HW1  623   0.707   2.835   2.018 -0.4096 -1.1231 -0.9808
  208SOL    HW2  624   0.557   2.817   1.938  2.4923 -1.5451  0.3896
  209SOL     OW  625   1.624   0.119   0.094  0.5031  0.0665  0.7233
  209SOL    HW1  626   1.646   0.187   0.165  0.3023 -1.0784  0.4830
  209SOL    HW2  627   1.524   0.101   0.096  1.6563 -1.8144  0.4002
  210SOL     OW  628   2.739   0.837   0.886 -0.1850  0.2496  0.1966
  210SOL    HW1  629   2.800   0.812   0.965  1.2916  0.1840 -1.1712
  210SOL    HW2  630   2.803   0.880   0.817  0.5824  1.6899 -2.6734
  211SOL     OW  631   0.568   0.359   1.284 -0.1026  0.3252 -0.4061
  211SOL    HW1  632   0.571   0.453   1.244  2.3452 -0.6554 -2.6387
  211SOL    HW2  633   0.595   0.350   1.386  0.8969 -1.2821  1.8953
  212SOL     OW  634   1.669   1.865   1.362  0.0555  0.1122  0.4115
  212SOL    HW1  635   1.649   1.896   1.458 -1.9499 -0.3640  1.3304
  212SOL    HW2  636   1.681   1.950   1.310 -1.8799  1.0602  1.3917
  213SOL     OW  637   2.433   0.254   1.795 -0.1161 -0.2014  0.3983
  213SOL    HW1  638   2.447   0.158   1.769  2.9892 -0.0507 -0.8593
  213SOL    HW2  639   2.469   0.317   1.720 -0.3434 -1.1370  0.4601
  214SOL     OW  640   0.718   2.618   2.316  0.3484 -0.7230 -0.0274
  214SOL    HW1  641   0.707   2.721   2.336 -0.6873  2.3109 -3.3476
  214SOL    HW2  642   0.665   2.562   2.384 -0.4875 -0.4193  0.8393
  215SOL     OW  643   2.926   1.856   1.760 -0.0361 -0.0933  0.3206
  215SOL    HW1  644   2.937   1.764   1.803 -0.6415 -0.4702  0.7312
  215SOL    HW2  645   3.017   1.899   1.752 -0.8468  0.4295 -1.3998
  216SOL     OW  646   0.739   0.967   1.689  0.4131  0.0204 -0.0919
  216SOL    HW1  647   0.801   1.019   1.622  4.6704 -0.6137  3.0758
  216SOL    HW2  648   0.662   1.026   1.726  0.3209 -0.7729  0.4181
  217SOL     OW  649   2.726   0.362   0.671 -0.4018 -0.0753  0.0414
  217SOL    HW1  650   2.711   0.456   0.651  3.2245 -2.8469  0.2133
  217SOL    HW2  651   2.680   0.342   0.759  2.3294 -0.0814  0.5587
  218SOL     OW  652   1.664   2.096   1.198  0.1979 -0.1163  0.5888
  218SOL    HW1  653   1.617   2.120   1.111  3.3452 -2.3787  0.9794
  218SOL    HW2  654   1.679   2.175   1.258  0.2089 -0.7375  0.2119
  219SOL     OW  655   1.671   0.043   0.586  0.3472  0.1495  0.1281
  219SOL    HW1  656   1.745   0.002   0.646  1.7120  1.4060 -1.8535
  219SOL    HW2  657   1.609   3.105   0.564  0.5282  0.8752 -1.9926
  220SOL     OW  658   1.722   2.113   0.615  0.5967  0.0278 -0.2207
  220SOL    HW1  659   1.686   2.154   0.530 -1.0884  0.3338 -0.7514
  220SOL    HW2  660   1.686   2.018   0.633  1.5452  1.6669 -1.6891
  221SOL     OW  661   2.876   1.322   0.394  0.1470 -0.0523 -0.0828
  221SOL    HW1  662   2.790   1.294   0.342 -4.1279  0.1731 -0.2173
  221SOL    HW2  663   2.911   1.401   0.343 -0.0992 -0.5699 -0.9138
  222SOL     OW  664   0.757   2.168   1.272 -0.0835  0.8701 -0.1727
  222SOL    HW1  665   0.827   2.143   1.204 -2.7662 -0.9326  1.9784
  222SOL    HW2  666   0.701   2.246   1.252  1.5432 -0.9106  0.8301
  223SOL     OW  667   1.397   0.330   0.298 -0.0125  0.0498  0.3964
  223SOL    HW1  668   1.316   0.379   0.258 -0.5112  1.4927  0.7456
  223SOL    HW2  669   1.414   0.239   0.254 -1.2188  0.6075  0.5444
  224SOL     OW  670   2.821   1.233   1.332  0.1410 -0.0711  0.3169
  224SOL    HW1  671   2.744   1.163   1.329 -0.9054  0.6932  0.4010
  224SOL    HW2  672   2.834   1.294   1.249 -0.5402 -0.9742  2.0723
  225SOL     OW  673   0.557   1.563   1.592 -0.2638  0.1849 -0.1086
  225SOL    HW1  674   0.587   1.469   1.563  1.3718 -0.0560 -0.0349
  225SOL    HW2  675   0.463   1.577   1.566  2.0587 -1.8651  1.6483
  226SOL     OW  676   0.859   2.807   0.750  0.2060  1.1017 -0.3085
  226SOL    HW1  677   0.805   2.733   0.694 -1.0605  1.1875 -0.2438
  226SOL    HW2  678   0.795   2.881   0.780  2.2251  0.2527  0.2983
  227SOL     OW  679   1.390   1.636   1.700 -0.3145  0.3380  0.1764
  227SOL    HW1  680   1.298   1.623   1.661  0.8158 -0.0999 -0.4587
  227SOL    HW2  681   1.411   1.731   1.735 -0.8457  1.7653  0.0339
  228SOL     OW  682   0.791   0.145   1.627  0.1594 -0.6499 -0.0701
  228SOL    HW1  683   0.829   0.227   1.667 -1.4354 -1.4632 -1.2120
  228SOL    HW2  684   0.874   0.094   1.599 -2.7147 -0.1611  0.8870
  229SOL     OW  685   2.891   0.656   2.766  0.3161 -0.0347 -0.9827
  229SOL    HW1  686   2.911   0.681   2.669  2.5377  0.7166 -1.0682
  229SOL    HW2  687   2.966   0.650   2.833 -0.2419  0.1243  0.7093
  230SOL     OW  688   0.335   0.741   1.142 -0.3563 -0.0068 -0.5759
  230SOL    HW1  689   0.333   0.829   1.088  3.5699  0.3936 -0.8182
  230SOL    HW2  690   0.272   0.763   1.220 -2.4003  0.5691  1.4053
  231SOL     OW  691   1.134   2.789   1.526  0.2977 -0.8374 -0.3499
  231SOL    HW1  692   1.042   2.793   1.483 -1.9964  0.5091 -1.1849
  231SOL    HW2  693   1.192   2.867   1.501  3.3820 -0.9774 -1.7648
  232SOL     OW  694   3.071   2.228   0.184 -0.0278  0.1695 -0.5750
  232SOL    HW1  695   3.059   2.132   0.225  0.7648 -2.6995  1.7362
  232SOL    HW2  696   3.014   2.291   0.241  1.6753 -0.8424 -0.7918
  233SOL     OW  697   1.161   2.515   2.973 -0.0713 -0.7044  0.2979
  233SOL    HW1  698   1.090   2.510   2.900 -0.7150 -2.1771  2.9690
  233SOL    HW2  699   1.249   2.553   2.936  0.3278  1.4856  3.4635
  234SOL     OW  700   0.573   1.215   1.743 -0.3276  0.0303 -1.0177
  234SOL    HW1  701   0.594   1.241   1.648 -3.0965 -2.4033 -2.3038
  234SOL    HW2  702   0.484   1.254   1.767 -1.4315 -2.5583 -2.5858
  235SOL     OW  703   3.078   2.456   2.475  0.2140  0.2234 -0.2311
  235SOL    HW1  704   0.041   2.438   2.459  4.2014  0.2439 -0.1111
  235SOL    HW2  705   3.039   2.402   2.553  0.2268 -1.0583  0.9520
  236SOL     OW  706   1.678   2.139   2.908  0.7339 -0.4085 -1.1667
  236SOL    HW1  707   1.724   2.127   2.826 -1.2249 -3.2747  1.9243
  236SOL    HW2  708   1.657   2.239   2.934  0.5474  1.9759  0.9205
  237SOL     OW  709   1.614   1.109   0.893  1.4508 -0.1704  0.2825
  237SOL    HW1  710   1.678   1.052   0.834 -0.4693  0.9990 -0.1512
  237SOL    HW2  711   1.656   1.201   0.900  0.5638  0.9877  1.3899
  238SOL     OW  712   1.363   2.744   2.119 -0.8780 -0.0030 -0.4261
  238SOL    HW1  713   1.287   2.682   2.095 -1.5361 -1.6795 -0.7220
  238SOL    HW2  714   1.345   2.838   2.081 -1.6584 -3.2328 -0.5538
  239SOL     OW  715   0.952   2.319   1.867  0.1701 -0.0171  0.2962
  239SOL    HW1  716   0.964   2.282   1.958 -0.8825 -2.0536 -0.8130
  239SOL    HW2  717   1.040   2.324   1.809  1.1767 -1.6397 -3.3967
  240SOL     OW  718   2.331   0.089   0.855  0.4866 -0.9582 -0.4931
  240SOL    HW1  719   2.399   0.017   0.844 -0.4303 -0.7634  1.6542
  240SOL    HW2  720   2.324   0.154   0.774  0.2882  1.0412 -1.7276
  241SOL     OW  721   1.251   1.684   2.929  0.2201 -0.2113 -0.4877
  241SOL    HW1  722   1.213   1.676   3.021  3.1486 -0.3265 -0.7906
  241SOL    HW2  723   1.284   1.592   2.897  0.2639  1.0069  1.2220
  242SOL     OW  724   2.789   0.987   2.972 -0.3243  0.0022  0.0332
  242SOL    HW1  725   2.825   0.911   3.031 -0.4798 -0.0620 -0.2724
  242SOL    HW2  726   2.762   0.957   2.879  0.4528 -0.5671 -1.0479
  243SOL     OW  727   0.825   0.407   1.785  0.2135  0.1221 -1.0419
  243SOL    HW1  728   0.875   0.406   1.874  0.1191  2.3517 -0.6422
  243SOL    HW2  729   0.872   0.453   1.711 -3.3937 -0.9646 -1.0284
  244SOL     OW  730   1.120   2.843   2.999 -0.2605  0.3742  0.1687
  244SOL    HW1  731   1.045   2.784   3.039  0.5754 -0.3865 -0.6886
  244SOL    HW2  732   1.201   2.863   3.061  1.1321  1.5640  2.6557
  245SOL     OW  733   1.521   2.577   0.062 -0.2378 -0.5176  0.6013
  245SOL    HW1  734   1.551   2.478   0.065 -0.2062 -0.5102  0.3461
  245SOL    HW2  735   1.541   2.629   0.147 -2.3208 -0.9425 -1.5662
  246SOL     OW  736   0.834   1.090   2.113  0.0037 -0.1924  0.0024
  246SOL    HW1  737   0.825   1.151   2.030 -0.6031 -0.9138  0.4971
  246SOL    HW2  738   0.743   1.046   2.134 -1.2002 -1.9122  0.7234
  247SOL     OW  739   3.128   0.658   2.395  0.4946 -0.0666 -0.3055
  247SOL    HW1  740   0.002   0.580   2.327  0.0407  0.8111  1.0816
  247SOL    HW2  741   0.037   0.630   2.480 -0.4193 -1.6119 -0.4841
  248SOL     OW  742   0.095   1.269   2.004 -0.0815 -0.1937  0.2066
  248SOL    HW1  743   3.137   1.240   2.015 -1.4206  0.6425 -2.3644
  248SOL    HW2  744   0.148   1.218   2.074  0.3588 -0.1372 -2.1770
  249SOL     OW  745   3.027   0.303   0.220 -0.1792 -0.5283  0.1755
  249SOL    HW1  746   3.119   0.269   0.245 -0.4275 -0.6491  2.9845
  249SOL    HW2  747   3.019   0.393   0.265 -1.4629  0.8084 -2.5575
  250SOL     OW  748   2.777   0.300   2.979  0.1533  0.6179 -0.1494
  250SOL    HW1  749   2.699   0.229   2.977 -3.4757 -1.6816 -1.3827
  250SOL    HW2  750   2.751   0.379   2.921  0.6876 -1.7576  1.4635
  251SOL     OW  751   1.002   1.831   1.919 -0.7611 -0.3671 -0.2617
  251SOL    HW1  752   1.015   1.912   1.981  1.0346 -0.8429 -1.9259
  251SOL    HW2  753   1.023   1.849   1.824  0.5262 -0.4627 -1.6502
  252SOL     OW  754   2.204   1.682   1.362  0.3671 -0.1257 -0.3175
  252SOL    HW1  755   2.175   1.625   1.285 -1.2676  1.3597  1.9920
  252SOL    HW2  756   2.180   1.634   1.449  2.2710  0.6771 -2.6566
  253SOL     OW  757   1.801   2.291   2.260  0.4741  0.3855  0.0810
  253SOL    HW1  758   1.817   2.391   2.253 -1.9833  1.7568  0.6866
  253SOL    HW2  759   1.770   2.253   2.167  1.3173  3.5614 -0.2612
  254SOL     OW  760   0.545   2.462   2.115 -0.1437  0.0754 -0.1810
  254SOL    HW1  761   0.610   2.450   2.039 -0.1984  0.6686  2.0888
  254SOL    HW2  762   0.577   2.533   2.184  0.0596  0.0125  0.1544
  255SOL     OW  763   1.079   0.429   0.741  0.2918 -0.3841 -0.0208
  255SOL    HW1  764   1.080   0.432   0.641 -0.2879  0.6037 -0.5155
  255SOL    HW2  765   0.984   0.425   0.779 -3.1037 -0.8917  0.0215
  256SOL     OW  766   2.372   2.131   1.479 -0.4116  0.4026 -0.1763
  256SOL    HW1  767   2.429   2.208   1.450  0.0550 -2.0881  1.7575
  256SOL    HW2  768   2.331   2.075   1.401 -0.7598 -2.1007 -1.8272
  257SOL     OW  769   0.564   2.443   2.762 -0.2833  0.3730  0.2923
  257SOL    HW1  770   0.619   2.392   2.833 -0.8227 -0.0533  0.1489
  257SOL    HW2  771   0.532   2.531   2.796 -0.9990 -0.0609 -0.6666
  258SOL     OW  772   0.305   0.844   2.127 -0.0147 -0.3113  0.2124
  258SOL    HW1  773   0.309   0.742   2.136  1.0669  1.7066  0.2168
  258SOL    HW2  774   0.382   0.880   2.069  2.0485  0.1560  0.2392
  259SOL     OW  775   0.781   1.077   2.389 -0.6185  0.1837  0.0187
  259SOL    HW1  776   0.764   1.137   2.471 -2.3125 -0.3495  2.1982
  259SOL    HW2  777   0.849   1.123   2.325  0.5611  1.7744  0.5848
  260SOL     OW  778   2.122   0.830   0.873  0.5447  0.4670 -0.5646
  260SOL    HW1  779   2.211   0.841   0.927  1.6146  1.4755 -0.0709
  260SOL    HW2  780   2.151   0.789   0.786  0.6980 -0.4730  2.8676
  261SOL     OW  781   0.892   0.092   0.739  0.2671  0.7360 -0.3544
  261SOL    HW1  782   0.866   0.131   0.650  0.2459 -1.5129  3.6219
  261SOL    HW2  783   0.973   0.029   0.726  1.7664 -5.1931 -2.3264
  262SOL     OW  784   2.082   2.552   2.437 -0.8324 -0.0672 -0.8076
  262SOL    HW1  785   2.016   2.600   2.499 -0.3238 -0.1861 -0.1665
  262SOL    HW2  786   2.071   2.451   2.458 -2.1244 -1.5507  2.2581
  263SOL     OW  787   0.554   1.673   0.072 -0.6490 -0.2566 -0.2975
  263SOL    HW1  788   0.587   1.594   0.018 -0.3700  2.5357  1.6415
  263SOL    HW2  789   0.456   1.699   0.045 -4.0527 -0.9116  1.1332
  264SOL     OW  790   0.257   1.862   1.505  0.0805 -0.4533 -0.5921
  264SOL    HW1  791   0.303   1.878   1.593  0.3904  0.1721  1.0120
  264SOL    HW2  792   0.303   1.920   1.432  0.6063  0.5847  0.0920
  265SOL     OW  793   0.908   0.747   0.533  0.3175 -0.2088 -0.1299
  265SOL    HW1  794   0.832   0.699   0.483  0.5616 -0.8160  2.4472
  265SOL    HW2  795   0.911   0.730   0.638 -0.7544 -0.6737  0.8849
  266SOL     OW  796   1.398   1.923   3.137  0.4855 -0.0222 -0.7311
  266SOL    HW1  797   1.376   2.024   0.022  1.7450  1.7361  1.4745
  266SOL    HW2  798   1.428   1.912   3.042 -1.6850 -1.5139  0.8267
  267SOL     OW  799   0.469   0.485   2.953 -0.0298 -0.3696  0.3624
  267SOL    HW1  800   0.493   0.408   3.016  0.5490  0.3232 -1.2767
  267SOL    HW2  801   0.505   0.479   2.855  1.5676 -0.5433 -1.4837
  268SOL     OW  802   0.893   0.703   2.814 -0.1729  0.0675 -0.4035
  268SOL    HW1  803   0.953   0.706   2.735  0.1079  1.5258  0.1742
  268SOL    HW2  804   0.803   0.744   2.796 -0.1275 -0.9751  1.6652
  269SOL     OW  805   1.844   0.101   2.480  0.4627  0.1724 -0.0253
  269SOL    HW1  806   1.803   0.091   2.386  0.3734 -1.0688 -2.4721
  269SOL    HW2  807   1.774   0.118   2.553  1.1416  1.4092  0.8250
  270SOL     OW  808   0.666   0.813   2.753 -0.0610 -0.3858 -0.7541
  270SOL    HW1  809   0.710   0.823   2.662  0.5664 -1.8592  1.6662
  270SOL    HW2  810   0.637   0.903   2.787  0.6883 -0.5313 -0.3176
  271SOL     OW  811   0.177   0.705   0.269 -0.0954 -0.2378  0.2208
  271SOL    HW1  812   0.169   0.734   0.361 -0.6516 -2.0600 -1.8696
  271SOL    HW2  813   0.241   0.626   0.263  0.0468 -0.0437 -2.0505
  272SOL     OW  814   2.285   1.243   2.516  0.4374 -0.1346  0.2351
  272SOL    HW1  815   2.217   1.248   2.440  3.8268 -0.4803  2.0359
  272SOL    HW2  816   2.346   1.159   2.521  3.0564 -3.6532 -1.8445
  273SOL     OW  817   0.043   0.419   2.274  0.2848 -0.3202 -0.1323
  273SOL    HW1  818   0.117   0.367   2.302  0.2300 -1.6210 -0.5496
  273SOL    HW2  819   0.021   0.399   2.174  3.2728 -1.8363 -1.6057
  274SOL     OW  820   2.730   0.249   1.994  0.0284  0.4368 -0.2449
  274SOL    HW1  821   2.649   0.233   2.058 -0.9822  1.6008  3.9883
  274SOL    HW2  822   2.737   0.175   1.923 -1.9881  1.3399  1.3258
  275SOL     OW  823   1.844   1.400   0.365  0.6938 -0.4363 -0.0164
  275SOL    HW1  824   1.841   1.409   0.261 -1.4440  2.1601  1.2072
  275SOL    HW2  825   1.751   1.402   0.406  2.9144 -1.3353 -1.1087
  276SOL     OW  826   0.189   1.194   2.939 -0.4894 -0.3943 -0.6227
  276SOL    HW1  827   0.165   1.097   2.937  0.1819 -0.6695  1.6162
  276SOL    HW2  828   0.112   1.257   2.929  0.1231  0.4710  0.8249
  277SOL     OW  829   1.904   2.770   2.221 -0.2846  0.6293 -0.4829
  277SOL    HW1  830   1.991   2.734   2.183 -1.1761  0.1989 -0.6149
  277SOL    HW2  831   1.920   2.822   2.308  0.9432  0.8147  0.9949
  278SOL     OW  832   1.727   0.108   1.509  0.2123  0.8356  0.0679
  278SOL    HW1  833   1.813   0.053   1.531  2.4809  1.6164  0.7375
  278SOL    HW2  834   1.697   0.143   1.602  0.0205  0.2728  2.8478
  279SOL     OW  835   1.070   1.355   2.892 -1.1384  0.3203  0.2521
  279SOL    HW1  836   1.167   1.377   2.914 -0.2135 -0.5817  1.0245
  279SOL    HW2  837   1.011   1.359   2.973  0.2600  1.0293 -0.2666
  280SOL     OW  838   0.824   1.198   0.390  0.6416 -0.1352  0.3640
  280SOL    HW1  839   0.866   1.287   0.411  1.3637  0.9196  1.2419
  280SOL    HW2  840   0.883   1.120   0.413  1.0468  1.7318 -0.2421
  281SOL     OW  841   0.281   0.061   1.651 -0.1188  0.3308 -0.2188
  281SOL    HW1  842   0.291   3.128   1.720  5.2110  0.3482 -1.3471
  281SOL    HW2  843   0.363   0.054   1.582  0.8927 -1.0032 -3.0650
  282SOL     OW  844   0.182   2.151   0.960 -0.4258 -0.1440 -0.8990
  282SOL    HW1  845   0.269   2.197   0.948 -4.2258 -3.8019  2.1726
  282SOL    HW2  846   0.198   2.064   1.014 -0.2580 -0.2321  3.0249
  283SOL     OW  847   1.266   2.340   2.067 -0.2312  0.0111 -1.0632
  283SOL    HW1  848   1.228   2.441   2.062 -2.2708  2.5840 -0.9792
  283SOL    HW2  849   1.349   2.331   2.006 -0.1604 -1.4585  2.1117
  284SOL     OW  850   2.293   0.888   0.335  0.0221 -0.3045  0.3139
  284SOL    HW1  851   2.319   0.837   0.417  1.5169  1.5877 -3.0630
  284SOL    HW2  852   2.337   0.852   0.250 -0.5963  0.6153 -0.9149
  285SOL     OW  853   3.041   2.905   2.732  0.8509  0.5356 -0.5245
  285SOL    HW1  854   3.046   2.877   2.639  1.7663 -1.2845 -0.2147
  285SOL    HW2  855   3.107   2.977   2.758 -3.5384 -0.1767 -1.7188
  286SOL     OW  856   2.155   2.705   1.035 -0.0035  0.1005 -0.2763
  286SOL    HW1  857   2.117   2.786   1.081  0.0526 -1.0369 -0.3736
  286SOL    HW2  858   2.140   2.629   1.103 -1.1741 -0.6088 -0.1920
  287SOL     OW  859   0.542   1.365   1.037  0.4715 -0.3452  0.0513
  287SOL    HW1  860   0.623   1.423   1.031 -1.2534 -2.6222 -0.0525
  287SOL    HW2  861   0.521   1.344   1.135  0.9731 -0.8179 -1.3487
  288SOL     OW  862   1.602   2.316   0.095 -0.2766  0.2513 -0.3578
  288SOL    HW1  863   1.610   2.279   0.190 -0.8202 -3.4533 -1.6203
  288SOL    HW2  864   1.686   2.319   0.041  1.7956  0.1406 -0.6492
  289SOL     OW  865   0.280   2.079   2.680  0.9085 -0.6431 -0.3130
  289SOL    HW1  866   0.293   2.179   2.699  2.4980 -0.0262 -2.1587
  289SOL    HW2  867   0.274   2.073   2.579 -0.4554  3.6680 -0.2995
  290SOL     OW  868   1.527   2.179   0.981 -0.1675 -0.4282 -0.0821
  290SOL    HW1  869   1.429   2.218   0.982 -5.7065 -1.7648 -1.4831
  290SOL    HW2  870   1.546   2.137   0.893 -0.1644  1.6131  3.6933
  291SOL     OW  871   1.512   1.507   3.105  0.0104 -0.1190 -0.5230
  291SOL    HW1  872   1.593   1.508   3.046 -0.9325  2.3694  0.2351
  291SOL    HW2  873   1.531   1.570   0.043  1.0193 -0.5405  0.5434
  292SOL     OW  874   1.438   1.582   1.192 -0.5898  0.0765  0.6938
  292SOL    HW1  875   1.461   1.589   1.093  0.1280 -0.2377 -3.8670
  292SOL    HW2  876   1.402   1.674   1.225 -1.1166 -2.4465  2.6687
  293SOL     OW  877   1.842   3.051   0.760  0.2984  0.1641 -0.0843
  293SOL    HW1  878   1.925   3.069   0.821  0.2166  0.1338 -2.2720
  293SOL    HW2  879   1.833   2.949   0.756 -0.2235  0.2745  0.0989
  294SOL     OW  880   3.010   1.507   2.668  0.3257 -0.8307  0.0294
  294SOL    HW1  881   2.964   1.591   2.629  1.5962  0.1439 -0.5424
  294SOL    HW2  882   3.014   1.432   2.600  1.0928  0.3502 -0.9225
  295SOL     OW  883   1.276   2.151   2.814  0.3735 -0.2491  0.0298
  295SOL    HW1  884   1.257   2.228   2.755  0.2791 -1.3134  2.7047
  295SOL    HW2  885   1.337   2.087   2.771 -0.7945  0.1616  2.2123
  296SOL     OW  886   1.743   1.523   2.151  0.4837 -0.1189  0.0643
  296SOL    HW1  887   1.813   1.487   2.089 -2.0415  1.3494  0.6091
  296SOL    HW2  888   1.655   1.470   2.139  0.5265  1.3145 -1.0878
  297SOL     OW  889   2.923   0.748   2.502 -0.1161 -0.1053 -0.6366
  297SOL    HW1  890   3.009   0.703   2.467  1.3092 -0.9244  1.7221
  297SOL    HW2  891   2.861   0.769   2.427 -0.5939 -0.5623  0.2496
  298SOL     OW  892   0.966   2.524   2.195 -0.2386 -0.1046 -0.1425
  298SOL    HW1  893   0.881   2.558   2.234  3.1321 -0.3835  0.1671
  298SOL    HW2  894   0.958   2.424   2.181  0.9095  1.3224  2.9065
  299SOL     OW  895   0.859   2.722   2.724  0.1361 -0.4038 -0.3967
  299SOL    HW1  896   0.770   2.724   2.672  0.6768  1.7469  2.1161
  299SOL    HW2  897   0.856   2.783   2.806 -0.3325 -0.4150  1.1452
  300SOL     OW  898   3.108   0.569   2.928 -0.1787  0.0966 -0.1399
  300SOL    HW1  899   3.076   0.512   3.004  0.4319  1.3526 -0.4365
  300SOL    HW2  900   0.071   0.570   2.928  1.9072  0.3336 -2.3339
  301SOL     OW  901   1.669   0.789   1.504 -0.4941 -0.3913  0.0914
  301SOL    HW1  902   1.636   0.726   1.578  2.4345 -0.5164 -1.6897
  301SOL    HW2  903   1.596   0.811   1.439  2.9608 -1.8356  1.5585
  302SOL     OW  904   2.701   1.948   2.814  0.3532  0.3038  0.1665
  302SOL    HW1  905   2.713   1.927   2.711  2.3855  1.7108 -1.0051
  302SOL    HW2  906   2.765   1.884   2.863  1.5364  1.9922  1.8472
  303SOL     OW  907   0.128   0.151   2.574 -0.3444 -0.7627  0.3532
  303SOL    HW1  908   0.165   0.207   2.491  1.3376  0.1376 -1.4911
  303SOL    HW2  909   0.087   0.215   2.645  0.2325 -2.4692  0.1778
  304SOL     OW  910   2.898   0.597   1.447 -0.7569 -0.0386  0.3422
  304SOL    HW1  911   2.959   0.624   1.366  1.5223  2.1404 -0.6329
  304SOL    HW2  912   2.831   0.670   1.453  4.6059 -0.3589  0.2111
  305SOL     OW  913   0.006   0.062   2.010 -0.0470 -0.7412 -0.4945
  305SOL    HW1  914   3.074   0.050   2.082 -1.3923  0.0270  1.0774
  305SOL    HW2  915   3.115   0.136   1.942 -0.3526 -0.7181 -1.1882
  306SOL     OW  916   2.870   1.455   1.524  0.1591 -0.0459 -0.1932
  306SOL    HW1  917   2.920   1.409   1.603  1.2217  0.8078 -0.1753
  306SOL    HW2  918   2.847   1.391   1.452  1.0366  2.0070 -0.0828
  307SOL     OW  919   2.037   0.239   1.196 -0.3262 -0.5503 -0.0311
  307SOL    HW1  920   1.988   0.277   1.277 -0.4552  0.2079  0.6380
  307SOL    HW2  921   1.979   0.238   1.112  1.5006  0.1886  0.6457
  308SOL     OW  922   0.356   2.012   1.305 -0.0172 -0.3274 -0.4201
  308SOL    HW1  923   0.334   1.966   1.216  2.7382  0.1874 -0.5018
  308SOL    HW2  924   0.298   2.092   1.327  1.5871  1.9920 -1.6735
  309SOL     OW  925   2.432   1.697   1.522 -0.1422 -0.4364  0.1276
  309SOL    HW1  926   2.357   1.688   1.459  1.5523  2.3532  0.7930
  309SOL    HW2  927   2.401   1.762   1.591 -2.0198 -1.5780 -0.8302
  310SOL     OW  928   2.742   1.689   0.077  0.0234  0.3765  0.0232
  310SOL    HW1  929   2.825   1.721   0.123  0.5835  0.6037 -2.6022
  310SOL    HW2  930   2.672   1.765   0.077  1.2898  5.4946 -0.3548
  311SOL     OW  931   2.259   1.510   2.500 -0.2041  0.3091 -0.7789
  311SOL    HW1  932   2.279   1.410   2.504 -1.6978  2.6292  1.9589
  311SOL    HW2  933   2.193   1.533   2.573  0.4787 -1.1252  1.3484
  312SOL     OW  934   2.222   2.273   1.100 -0.3124 -0.4334 -0.0615
  312SOL    HW1  935   2.156   2.199   1.124  0.0977  1.2762  1.7515
  312SOL    HW2  936   2.281   2.239   1.019  0.5485 -2.0144 -1.4662
  313SOL     OW  937   3.112   2.519   1.141  0.0149 -0.2369 -0.0094
  313SOL    HW1  938   0.018   2.578   1.075 -1.6001  0.7054  2.1534
  313SOL    HW2  939   3.009   2.513   1.122 -1.3860 -2.2752  0.7312
  314SOL     OW  940   1.394   2.059   1.457  0.2419 -0.3479  0.0974
  314SOL    HW1  941   1.321   2.130   1.435  0.2066  1.9440  0.7475
  314SOL    HW2  942   1.484   2.097   1.480 -1.3568 -2.7823  1.7974
  315SOL     OW  943   0.266   3.049   2.303 -0.5213 -0.5997 -0.2310
  315SOL    HW1  944   0.365   3.026   2.286  3.7762 -1.7648 -1.1656
  315SOL    HW2  945   0.233   3.134   2.258  2.0179 -3.0019 -0.3596
  316SOL     OW  946   3.053   1.892   0.939  0.5855 -0.1595 -0.1045
  316SOL    HW1  947   3.109   1.829   0.885 -2.4930 -1.1560  1.6321
  316SOL    HW2  948   2.959   1.842   0.950 -1.3064  0.5264  0.0704
  317SOL     OW  949   1.893   0.282   0.270  0.1635 -0.6606  0.4466
  317SOL    HW1  950   1.798   0.273   0.302 -0.5742 -0.5741 -2.0978
  317SOL    HW2  951   1.954   0.290   0.350 -2.4491  0.9181 -0.6057
  318SOL     OW  952   2.839   2.576   0.108 -0.4218  0.1946  0.0360
  318SOL    HW1  953   2.810   2.627   0.023 -0.5743  0.6790 -0.0172
  318SOL    HW2  954   2.835   2.635   0.189  2.2545  0.3212 -2.2671
  319SOL     OW  955   1.363   1.559   0.261 -0.7629 -0.3895  0.6604
  319SOL    HW1  956   1.396   1.622   0.334 -0.6515 -0.7277 -1.1890
  319SOL    HW2  957   1.363   1.605   0.169 -0.6492  0.4817 -0.9843
  320SOL     OW  958   0.576   2.773   2.649 -0.6511 -0.2243 -0.3536
  320SOL    HW1  959   0.553   2.761   2.747  1.4205 -2.2665  2.9939
  320SOL    HW2  960   0.497   2.740   2.588 -0.9902 -0.2712 -3.7930
  321SOL     OW  961   0.976   0.027   0.153  0.6030  0.3685 -0.2882
  321SOL    HW1  962   0.910   3.123   0.214  1.2822 -0.6494  0.0740
  321SOL    HW2  963   1.027   3.097   0.103  1.6235 -0.3300 -0.9775
  322SOL     OW  964   2.414   1.055   2.067  0.4610  0.5044  0.7058
  322SOL    HW1  965   2.352   1.038   2.148 -2.5230 -0.1734 -0.6064
  322SOL    HW2  966   2.443   1.154   2.055 -0.8300  1.2696 -0.6716
  323SOL     OW  967   2.668   0.861   0.435 -0.1585  0.4831 -0.1665
  323SOL    HW1  968   2.568   0.843   0.424  1.8234 -1.8816 -1.6946
  323SOL    HW2  969   2.697   0.936   0.372 -1.3958 -2.3191  0.7700
  324SOL     OW  970   0.138   0.545   2.631 -0.0646  0.2780 -0.1055
  324SOL    HW1  971   0.173   0.575   2.721 -0.3016 -0.0412 -1.6384
  324SOL    HW2  972   0.209   0.485   2.590 -0.5896  0.9141  0.8463
  325SOL     OW  973   1.375   3.010   2.020 -0.6622  0.6206  0.3859
  325SOL    HW1  974   1.448   3.015   1.938  3.0217 -1.0679 -2.3919
  325SOL    HW2  975   1.282   3.021   1.981  0.6893 -3.5778  1.5090
  326SOL     OW  976   2.548   2.959   1.124  0.0461 -0.2811 -0.1167
  326SOL    HW1  977   2.601   2.994   1.044  0.9017 -0.2121 -2.4009
  326SOL    HW2  978   2.444   2.965   1.102 -3.6881  2.0708 -0.4805
  327SOL     OW  979   1.881   0.594   3.026  0.5723  0.2254  0.4036
  327SOL    HW1  980   1.794   0.571   3.076  1.2373 -1.2933 -0.7857
  327SOL    HW2  981   1.888   0.535   2.942 -0.1895 -0.8406  1.1538
  328SOL     OW  982   2.953   1.627   2.193 -0.0677 -0.0550 -0.4519
  328SOL    HW1  983   2.964   1.696   2.267  1.2453 -1.5407  0.4409
  328SOL    HW2  984   2.939   1.530   2.226 -1.4289 -0.6177  1.2219
  329SOL     OW  985   1.794   2.696   1.852 -0.8715  0.0733  0.0233
  329SOL    HW1  986   1.724   2.631   1.887  0.7958  2.1113 -3.3521
  329SOL    HW2  987   1.859   2.645   1.794  0.9695  2.3903  0.9219
  330SOL     OW  988   2.534   1.535   1.870  0.5898 -0.0844 -0.0962
  330SOL    HW1  989   2.564   1.565   1.781 -0.6674 -1.6528 -1.1420
  330SOL    HW2  990   2.577   1.592   1.943  0.4105 -0.0784  1.2394
  331SOL     OW  991   3.084   2.066   0.728 -0.0014  0.1959  0.7285
  331SOL    HW1  992   3.056   1.982   0.775 -0.6087  2.8610 -0.6063
  331SOL    HW2  993   3.085   2.144   0.794  0.8476 -3.2934  0.9808
  332SOL     OW  994   0.343   0.161   0.463  0.6157  0.0511 -0.3568
  332SOL    HW1  995   0.284   0.106   0.527  3.2461  2.9937  2.9658
  332SOL    HW2  996   0.358   0.248   0.513 -3.8714  3.0309  3.3467
  333SOL     OW  997   2.345   3.104   2.289  0.3346  0.0818  0.1732
  333SOL    HW1  998   2.391   3.013   2.275 -1.0456  0.8098 -1.3122
  333SOL    HW2  999   2.300   3.135   2.205  0.7061 -0.5065  1.3337
  334SOL     OW 1000   0.838   1.444   0.983 -0.1864  0.3078 -0.2751
  334SOL    HW1 1001   0.833   1.420   0.885 -0.0552 -0.1916 -1.1334
  334SOL    HW2 1002   0.935   1.462   1.013 -1.7466  2.6503  0.8388
  335SOL     OW 1003   3.104   2.734   2.424 -0.4932  0.2066 -0.2371
  335SOL    HW1 1004   0.065   2.760   2.408  0.2027  0.5621 -2.5649
  335SOL    HW2 1005   3.089   2.633   2.431 -2.5308 -0.0215 -0.5223
  336SOL     OW 1006   2.898   2.792   1.979 -0.1495  0.1560  0.5414
  336SOL    HW1 1007   2.942   2.836   2.058 -0.5884 -0.8543 -0.4424
  336SOL    HW2 1008   2.971   2.795   1.905  1.7139  1.6700  0.1194
  337SOL     OW 1009   2.097   1.557   0.720  0.0967 -0.3716 -0.3391
  337SOL    HW1 1010   2.190   1.532   0.765  1.3061 -0.8337  1.3962
  337SOL    HW2 1011   2.020   1.520   0.776 -1.9940  0.4271  1.4812
  338SOL     OW 1012   1.169   1.694   1.309  0.7632 -0.1057 -0.5267
  338SOL    HW1 1013   1.151   1.648   1.398 -0.2968  2.2302 -1.5946
  338SOL    HW2 1014   1.260   1.738   1.316 -0.9713  0.3000  0.2744
  339SOL     OW 1015   2.866   0.824   1.122 -0.1642  0.9819 -0.2800
  339SOL    HW1 1016   2.952   0.867   1.143 -0.6335  0.9740 -0.6943
  339SOL    HW2 1017   2.834   0.781   1.213  0.4660  1.4374  0.2625
  340SOL     OW 1018   1.732   2.879   2.039 -0.7629 -0.3982  0.2895
  340SOL    HW1 1019   1.748   2.819   1.961  1.0780  0.2172  0.4572
  340SOL    HW2 1020   1.803   2.854   2.109  2.1947 -0.1561 -2.1923
  341SOL     OW 1021   2.259   1.406   0.908 -0.2209  0.0505  0.0287
  341SOL    HW1 1022   2.359   1.425   0.895  1.1470 -0.1827 -0.1009
  341SOL    HW2 1023   2.243   1.322   0.965  1.1713  0.8409  2.9928
  342SOL     OW 1024   0.070   1.758   0.776  0.3462  0.1645 -0.1585
  342SOL    HW1 1025   0.171   1.767   0.789  1.0814  1.5178 -0.4853
  342SOL    HW2 1026   0.052   1.758   0.675  1.5529  0.8790  0.2416
  343SOL     OW 1027   2.589   1.161   1.511  0.4648 -0.7346  0.4564
  343SOL    HW1 1028   2.494   1.196   1.491 -1.7004 -1.2226 -1.9694
  343SOL    HW2 1029   2.629   1.205   1.595 -1.3541  1.7712 -0.6371
  344SOL     OW 1030   2.174   0.411   0.897  0.6950  0.1778  0.1849
  344SOL    HW1 1031   2.168   0.327   0.963 -2.0414 -0.9803  6.2253
  344SOL    HW2 1032   2.134   0.492   0.944  1.2704 -0.2829  1.1973
  345SOL     OW 1033   3.004   2.887   2.218 -0.7692 -0.9970  0.2036
  345SOL    HW1 1034   3.055   2.821   2.280  0.1803  1.0581  0.0531
  345SOL    HW2 1035   2.983   2.979   2.247  0.4317 -0.9511  0.3339
  346SOL     OW 1036   3.032   1.514   0.245  0.5361  0.2302 -0.0434
  346SOL    HW1 1037   3.016   1.616   0.247  0.0170  0.3525 -2.3104
  346SOL    HW2 1038   3.069   1.495   0.154  1.1911 -1.8749  0.8196
  347SOL     OW 1039   1.853   2.700   1.516 -0.3904  0.5455  0.6560
  347SOL    HW1 1040   1.922   2.668   1.583 -0.8977 -1.2617  1.7545
  347SOL    HW2 1041   1.829   2.618   1.466  1.2881  1.3017  0.2181
  348SOL     OW 1042   1.057   1.106   1.794  0.1343  0.4148 -0.0886
  348SOL    HW1 1043   0.962   1.105   1.833 -1.1904  0.6839 -0.6461
  348SOL    HW2 1044   1.119   1.154   1.856  0.3387  1.4154 -1.9961
  349SOL     OW 1045   2.191   1.663   2.256 -0.5275  0.4036 -0.0246
  349SOL    HW1 1046   2.167   1.603   2.334 -1.0849  2.7091 -0.4806
  349SOL    HW2 1047   2.288   1.679   2.243 -3.8068  2.5019  0.3049
  350SOL     OW 1048   2.860   2.362   0.503  0.5655  0.0780 -0.3330
  350SOL    HW1 1049   2.835   2.348   0.407  1.1686  1.4279  3.5460
  350SOL    HW2 1050   2.953   2.393   0.523  0.3746  0.4373  1.3604
  351SOL     OW 1051   0.405   0.263   1.776 -0.4975 -0.0296 -0.1682
  351SOL    HW1 1052   0.358   0.207   1.705  1.7865 -1.7497  2.0926
  351SOL    HW2 1053   0.337   0.284   1.853 -0.6189  2.0070 -1.3176
  352SOL     OW 1054   1.319   2.609   1.672 -0.3325  0.4166 -0.0101
  352SOL    HW1 1055   1.241   2.668   1.647  2.6367 -2.3447  1.4503
  352SOL    HW2 1056   1.403   2.662   1.680 -2.5780 -2.4070 -0.3188
  353SOL     OW 1057   0.693   1.246   2.606 -0.0270 -0.2614 -0.0072
  353SOL    HW1 1058   0.783   1.291   2.608 -1.5805 -0.8021 -1.8955
  353SOL    HW2 1059   0.611   1.303   2.586 -0.7415 -0.5647 -0.6103
  354SOL     OW 1060   1.395   1.710   0.526 -0.3249  0.2714 -0.2751
  354SOL    HW1 1061   1.408   1.810   0.522 -2.8150  0.1133  0.8330
  354SOL    HW2 1062   1.305   1.684   0.573 -1.8838  0.7684  4.1051
  355SOL     OW 1063   1.884   0.179   0.957 -0.1287 -0.2103  0.7841
  355SOL    HW1 1064   1.794   0.219   0.982  0.7334  0.5261 -1.2505
  355SOL    HW2 1065   1.899   0.204   0.856 -0.6156  0.6630  0.6937
  356SOL     OW 1066   3.132   1.361   0.030  0.3112  0.2230 -0.0646
  356SOL    HW1 1067   0.059   1.290   0.060  0.7448  0.4049 -1.5039
  356SOL    HW2 1068   3.053   1.308   3.129  0.1671  0.9713  0.2757
  357SOL     OW 1069   0.314   3.012   1.851 -0.0240 -0.0507  0.2892
  357SOL    HW1 1070   0.367   3.069   1.914 -2.2876 -1.9692 -0.3320
  357SOL    HW2 1071   0.244   2.958   1.900 -0.3283  0.3379  3.3754
  358SOL     OW 1072   0.398   1.356   3.043 -0.2354 -0.4050  0.3676
  358SOL    HW1 1073   0.324   1.295   3.005 -1.0769 -0.9132  2.1947
  358SOL    HW2 1074   0.406   1.331   0.005 -0.8393  0.9157  2.8295
  359SOL     OW 1075   2.708   2.601   2.622  0.2432  0.3173  0.2701
  359SOL    HW1 1076   2.695   2.620   2.720  0.5738 -1.6498  0.8194
  359SOL    HW2 1077   2.761   2.674   2.578 -2.0656 -2.2171 -1.1745
  360SOL     OW 1078   1.758   1.429   1.095 -0.3713 -0.0362 -0.1056
  360SOL    HW1 1079   1.754   1.444   0.995 -0.0380  1.4170  2.9464
  360SOL    HW2 1080   1.738   1.517   1.142 -1.5308 -1.1631 -1.3260
  361SOL     OW 1081   2.091   2.494   1.200  0.0702 -0.2423  0.0663
  361SOL    HW1 1082   2.138   2.414   1.159  0.6866 -1.7795  0.0395
  361SOL    HW2 1083   2.128   2.522   1.291 -0.4460  2.4655  3.5855
  362SOL     OW 1084   1.814   1.477   0.778  0.3062 -0.8431 -0.8567
  362SOL    HW1 1085   1.855   1.571   0.793  0.5033  2.2911 -0.0589
  362SOL    HW2 1086   1.725   1.498   0.733  0.8193 -1.1957  2.3478
  363SOL     OW 1087   2.478   2.235   0.264  0.0092 -0.2038  0.7177
  363SOL    HW1 1088   2.517   2.248   0.356  0.8482  1.4294 -3.3504
  363SOL    HW2 1089   2.531   2.162   0.215  1.6112 -1.2894  2.6808
  364SOL     OW 1090   2.983   0.169   1.248  0.3665 -0.0251  0.4992
  364SOL    HW1 1091   3.008   0.183   1.344  1.2483  2.1052 -1.1333
  364SOL    HW2 1092   3.049   0.101   1.207 -0.6326 -0.3532 -0.4430
  365SOL     OW 1093   0.719   2.679   1.068  0.0220  0.1335  0.2156
  365SOL    HW1 1094   0.630   2.671   1.014  0.7813 -0.6129  0.0464
  365SOL    HW2 1095   0.776   2.597   1.046 -1.0973  0.1335  0.5122
  366SOL     OW 1096   0.509   1.642   0.663 -0.3753 -0.1870  0.3100
  366SOL    HW1 1097   0.455   1.658   0.582  4.4207 -1.0603  3.0511
  366SOL    HW2 1098   0.510   1.543   0.687  0.3875  1.9287  0.4717
  367SOL     OW 1099   2.546   2.631   2.868  0.2206  0.1248 -0.4496
  367SOL    HW1 1100   2.477   2.685   2.813 -1.2552  1.4172 -1.5978
  367SOL    HW2 1101   2.511   2.538   2.896  0.0387 -1.1687 -0.8038
  368SOL     OW 1102   2.719   1.993   0.919  0.2285 -0.1529  0.1699
  368SOL    HW1 1103   2.625   1.985   0.958  0.3253 -3.5758 -1.1376
  368SOL    HW2 1104   2.725   1.943   0.833  2.7462  1.7158  1.3343
  369SOL     OW 1105   0.986   1.009   0.509  0.7080  0.0659  0.2509
  369SOL    HW1 1106   0.936   0.921   0.499  0.9992 -1.5097  3.0983
  369SOL    HW2 1107   1.074   1.004   0.457 -2.6121 -0.4216 -0.1294
  370SOL     OW 1108   0.417   3.046   0.883 -0.3447  0.1642  0.6009
  370SOL    HW1 1109   0.479   3.105   0.833 -0.9795 -1.0491 -0.7777
  370SOL    HW2 1110   0.446   2.950   0.869 -1.3437 -0.9119 -2.4462
  371SOL     OW 1111   2.711   1.340   2.741  0.2471  0.1905 -0.3816
  371SOL    HW1 1112   2.726   1.437   2.702 -0.7286  4.0657 -2.2070
  371SOL    HW2 1113   2.735   1.272   2.670 -2.1803  0.9845  3.0731
  372SOL     OW 1114   0.821   0.664   2.377  0.8018  0.8082 -0.5449
  372SOL    HW1 1115   0.793   0.671   2.282  1.2888 -3.9201  0.0059
  372SOL    HW2 1116   0.786   0.574   2.411 -1.9262 -2.5216 -0.0158
  373SOL     OW 1117   0.709   0.429   2.811  0.3269 -0.2962 -0.0137
  373SOL    HW1 1118   0.781   0.480   2.760 -0.9633  0.6994 -1.6565
  373SOL    HW2 1119   0.724   0.430   2.911  0.4767  2.3105  1.6854
  374SOL     OW 1120   0.925   2.228   0.167 -0.5133 -0.8753 -0.1469
  374SOL    HW1 1121   0.993   2.260   0.098  1.6077 -0.4241 -0.1259
  374SOL    HW2 1122   0.834   2.217   0.121 -1.3498  0.1268  0.0470
  375SOL     OW 1123   0.750   3.041   0.859  0.0801 -0.4073 -0.7039
  375SOL    HW1 1124   0.724   3.080   0.953  0.9268  1.6930  1.2947
  375SOL    HW2 1125   0.795   3.112   0.800 -0.6061 -1.8488 -0.8159
  376SOL     OW 1126   0.307   2.560   1.963  0.1426 -0.0073 -0.0696
  376SOL    HW1 1127   0.247   2.617   2.030 -2.9344  1.8099  0.5556
  376SOL    HW2 1128   0.362   2.491   2.014 -0.7813 -3.3558 -1.9542
  377SOL     OW 1129   2.335   1.966   3.113  0.4583 -0.0050  0.0458
  377SOL    HW1 1130   2.293   2.058   0.002 -0.6030  1.2504 -1.1903
  377SOL    HW2 1131   2.350   1.959   3.010 -0.6761 -0.6960 -3.1928
  378SOL     OW 1132   2.012   0.288   0.506  0.1024  0.6117  0.6698
  378SOL    HW1 1133   2.061   0.371   0.532 -0.2256  0.1552  1.0395
  378SOL    HW2 1134   2.075   0.207   0.510 -1.7381 -2.6132 -3.7111
  379SOL     OW 1135   1.343   0.924   0.799 -0.0275  0.0003 -0.4189
  379SOL    HW1 1136   1.334   1.025   0.816 -3.4443  0.7669  0.7575
  379SOL    HW2 1137   1.395   0.898   0.715  0.9598  3.1962 -0.6947
  380SOL     OW 1138   2.513   2.076   1.840  0.2362 -0.2453 -0.0675
  380SOL    HW1 1139   2.592   2.025   1.877 -0.8191  1.8216  0.1565
  380SOL    HW2 1140   2.526   2.110   1.749 -2.8119 -1.7904 -1.4797
  381SOL     OW 1141   2.903   1.363   2.280  0.2066  0.4292 -0.3057
  381SOL    HW1 1142   2.955   1.335   2.364  0.3878 -1.3400  0.0983
  381SOL    HW2 1143   2.921   1.296   2.202 -0.0755  0.1063 -1.4077
  382SOL     OW 1144   2.938   2.262   3.069 -0.3458  0.4272  0.6477
  382SOL    HW1 1145   2.951   2.354   3.026  2.1384  1.5431 -0.5697
  382SOL    HW2 1146   2.969   2.257   0.024  0.6061 -0.8800 -0.6144
  383SOL     OW 1147   1.156   1.046   2.343 -0.1118  0.0053  0.1141
  383SOL    HW1 1148   1.104   0.995   2.265  1.4726 -1.0987  1.3756
  383SOL    HW2 1149   1.123   1.010   2.432 -1.1513 -2.0255  0.7185
  384SOL     OW 1150   1.358   2.367   2.349  0.5950  0.2517 -0.3598
  384SOL    HW1 1151   1.336   2.340   2.254 -1.6771  1.9386  1.3849
  384SOL    HW2 1152   1.453   2.393   2.360 -0.1356  0.6486 -0.6488
  385SOL     OW 1153   2.204   2.668   3.111 -0.2095 -0.0890 -0.0084
  385SOL    HW1 1154   2.157   2.630   3.031  2.1320  1.9674  0.9169
  385SOL    HW2 1155   2.265   2.594   0.006 -2.2014 -2.7855 -1.4209
  386SOL     OW 1156   1.440   1.321   0.726 -0.1915  0.3095 -0.7407
  386SOL    HW1 1157   1.376   1.271   0.787  0.5162 -2.0863 -0.8247
  386SOL    HW2 1158   1.471   1.255   0.654 -0.6011 -1.1897  1.2888
  387SOL     OW 1159   0.192   1.690   1.742 -0.3485 -0.3482  0.8231
  387SOL    HW1 1160   0.143   1.627   1.806  0.8874  0.0392  1.4049
  387SOL    HW2 1161   0.197   1.649   1.650 -0.5935 -1.8983  0.5633
  388SOL     OW 1162   0.704   1.310   1.511 -0.0635 -0.4988 -0.9415
  388SOL    HW1 1163   0.771   1.245   1.559  1.9063 -1.0312  1.1268
  388SOL    HW2 1164   0.672   1.271   1.421  0.3635  2.4918 -3.0839
  389SOL     OW 1165   2.285   1.022   2.286 -0.1533  0.5084 -0.3251
  389SOL    HW1 1166   2.356   1.014   2.364  1.2207  0.9695 -0.1257
  389SOL    HW2 1167   2.212   1.086   2.320 -1.4651  1.6875  2.3287
  390SOL     OW 1168   1.157   1.897   0.398  0.5797 -0.6631  0.4372
  390SOL    HW1 1169   1.066   1.940   0.375  0.5119  1.7698  2.0998
  390SOL    HW2 1170   1.142   1.821   0.463  0.0061 -0.1070 -3.7074
  391SOL     OW 1171   0.991   2.023   0.807  0.6109  0.3073  0.0206
  391SOL    HW1 1172   1.008   1.925   0.835  2.5304 -0.6905  0.4050
  391SOL    HW2 1173   0.960   2.019   0.709 -1.8152 -1.0319  3.6701
  392SOL     OW 1174   2.561   2.685   2.273 -0.0407 -0.6025  0.1279
  392SOL    HW1 1175   2.483   2.653   2.331  3.6904 -0.2527 -0.6864
  392SOL    HW2 1176   2.654   2.669   2.306  0.3252 -1.2181  2.4637
  393SOL     OW 1177   1.368   2.187   3.128 -0.1624 -0.1025  0.3841
  393SOL    HW1 1178   1.447   2.240   0.032  2.8510 -0.5649  2.3476
  393SOL    HW2 1179   1.379   2.190   3.029  1.3583 -1.7202 -0.3351
  394SOL     OW 1180   0.251   0.290   2.373 -0.6316 -0.2309 -0.2677
  394SOL    HW1 1181   0.325   0.356   2.381 -1.2647 -2.2122 -1.1690
  394SOL    HW2 1182   0.275   0.220   2.301  0.4010  2.3231 -2.5432
  395SOL     OW 1183   3.126   0.918   1.185  0.2021  0.3993 -0.2300
  395SOL    HW1 1184   0.020   0.962   1.098  0.9872 -1.0091 -1.6956
  395SOL    HW2 1185   0.055   0.860   1.233  2.2774  1.9875  1.9728
  396SOL     OW 1186   2.173   1.585   2.760  0.0452  0.1468 -0.3485
  396SOL    HW1 1187   2.160   1.490   2.781  1.8561  1.3719 -0.0873
  396SOL    HW2 1188   2.142   1.650   2.830  0.9667 -0.9816 -0.0811
  397SOL     OW 1189   0.366   0.857   2.889 -0.4350 -0.1345 -0.0121
  397SOL    HW1 1190   0.326   0.856   2.792 -0.2983 -0.3124  0.8695
  397SOL    HW2 1191   0.376   0.952   2.912  0.8934  1.4799  0.3807
  398SOL     OW 1192   0.963   2.660   0.396 -0.0674 -0.4928  0.2575
  398SOL    HW1 1193   1.057   2.620   0.405  0.5340 -0.5723  1.9885
  398SOL    HW2 1194   0.960   2.760   0.419 -0.0545 -0.7060  0.3840
  399SOL     OW 1195   2.154   2.661   2.186 -0.7202 -0.7482 -0.3303
  399SOL    HW1 1196   2.141   2.632   2.286  1.0846 -0.0624  1.7283
  399SOL    HW2 1197   2.183   2.579   2.136 -0.5701  3.1601 -1.4271
  400SOL     OW 1198   0.332   1.335   1.829 -0.6217 -0.1862  0.2169
  400SOL    HW1 1199   0.267   1.304   1.893 -0.3881  0.3047  0.8350
  400SOL    HW2 1200   0.396   1.399   1.873 -0.0539 -0.5220  2.3344
  401SOL     OW 1201   0.595   0.907   0.624 -0.4062 -0.0537 -0.2306
  401SOL    HW1 1202   0.543   0.824   0.669  0.1038 -3.8303  1.4098
  401SOL    HW2 1203   0.554   0.923   0.535 -1.1188  1.0341  1.5059
  402SOL     OW 1204   0.925   3.056   2.466 -0.2300  0.2305  0.2202
  402SOL    HW1 1205   0.967   3.058   2.561  1.4731  0.2276 -0.3092
  402SOL    HW2 1206   0.926   0.009   2.429  2.2602 -0.4885  1.0694
  403SOL     OW 1207   2.693   1.908   1.901 -0.3841  0.3743 -0.2958
  403SOL    HW1 1208   2.684   1.824   1.953  0.1464  0.7032 -0.4244
  403SOL    HW2 1209   2.771   1.901   1.835  1.7490  2.4718 -1.1323
  404SOL     OW 1210   2.627   2.300   1.676  0.0588  0.7765 -0.0247
  404SOL    HW1 1211   2.674   2.387   1.653  0.0797  0.8341  1.7613
  404SOL    HW2 1212   2.690   2.223   1.697 -0.0708  1.2128  0.8280
  405SOL     OW 1213   2.007   0.030   2.705 -0.2728  0.5523 -0.3698
  405SOL    HW1 1214   1.957   0.083   2.631 -0.0388 -1.1326 -0.7982
  405SOL    HW2 1215   2.107   0.040   2.692  1.6329 -1.4366 -0.5546
  406SOL     OW 1216   1.209   1.800   0.135 -0.2640  0.2143 -0.0421
  406SOL    HW1 1217   1.288   1.845   0.093  1.6244  0.5790  1.3507
  406SOL    HW2 1218   1.196   1.842   0.227 -0.2044 -1.8893  1.4239
  407SOL     OW 1219   1.561   1.401   0.380 -0.3832  0.7388 -0.2305
  407SOL    HW1 1220   1.495   1.471   0.350  0.1373 -1.3697  1.5117
  407SOL    HW2 1221   1.544   1.361   0.469 -1.3393  0.9090  1.6379
  408SOL     OW 1222   0.189   0.570   1.502  0.2797  0.1981  0.0232
  408SOL    HW1 1223   0.187   0.577   1.602  1.1606 -0.0450  0.2454
  408SOL    HW2 1224   0.291   0.557   1.486  1.9336 -3.2439  2.0858
  409SOL     OW 1225   2.755   1.418   0.042 -1.0728 -0.3765  0.1871
  409SOL    HW1 1226   2.680   1.371   0.089 -1.2007  1.4638 -1.2985
  409SOL    HW2 1227   2.759   1.514   0.075 -0.0450  0.2797 -0.2095
  410SOL     OW 1228   2.763   2.835   0.592  0.5429  0.4071  0.0599
  410SOL    HW1 1229   2.710   2.902   0.648 -2.2188 -0.2223 -1.8720
  410SOL    HW2 1230   2.744   2.737   0.622 -0.6148  2.0095  0.2586
  411SOL     OW 1231   0.380   0.278   0.155  0.0708 -0.1055  0.2907
  411SOL    HW1 1232   0.465   0.224   0.172  1.9183 -1.1069  1.6337
  411SOL    HW2 1233   0.342   0.260   0.059  0.7292  0.8079 -3.8674
  412SOL     OW 1234   1.494   2.954   0.543  0.5471  0.8167 -0.2017
  412SOL    HW1 1235   1.423   2.962   0.470 -1.9958 -0.1943 -1.0012
  412SOL    HW2 1236   1.446   2.926   0.627 -2.4585  1.7289 -2.5034
  413SOL     OW 1237   1.832   0.602   2.164 -0.1407  0.6695  0.4797
  413SOL    HW1 1238   1.925   0.641   2.163 -1.8643 -0.6481 -1.8285
  413SOL    HW2 1239   1.780   0.636   2.079 -1.2966  1.7555 -1.3922
  414SOL     OW 1240   0.136   0.816   0.743 -0.0464  0.3061  0.4985
  414SOL    HW1 1241   0.161   0.857   0.657  0.8329 -1.4589 -0.9394
  414SOL    HW2 1242   0.096   0.885   0.804 -1.0263 -0.0900 -0.2273
  415SOL     OW 1243   3.082   1.133   0.391 -0.0711 -0.0333 -0.5265
  415SOL    HW1 1244   3.007   1.189   0.440  1.9799  3.0369  0.8813
  415SOL    HW2 1245   3.040   1.071   0.323  0.7227 -0.0138  0.2223
  416SOL     OW 1246   2.670   0.497   2.795 -0.4416 -0.0326  0.3953
  416SOL    HW1 1247   2.628   0.528   2.711  0.2267 -1.0092  2.3138
  416SOL    HW2 1248   2.763   0.541   2.807  0.1809 -0.2152 -2.3237
  417SOL     OW 1249   2.370   0.270   0.639  0.5392  0.7242  0.7070
  417SOL    HW1 1250   2.333   0.362   0.635 -0.5322  0.4384  0.3548
  417SOL    HW2 1251   2.440   0.253   0.567 -2.9688 -0.8030 -1.1865
  418SOL     OW 1252   0.653   3.095   2.842  0.1304  0.5911 -0.2978
  418SOL    HW1 1253   0.691   0.008   2.924 -1.2087 -0.2314 -0.2729
  418SOL    HW2 1254   0.548   3.101   2.835 -2.9617  0.9141 -1.7986
  419SOL     OW 1255   0.295   0.582   0.924 -0.0773 -0.1842 -0.1558
  419SOL    HW1 1256   0.301   0.614   1.020 -1.7885  1.8806  1.2528
  419SOL    HW2 1257   0.336   0.488   0.915  0.1312 -0.4553  1.9561
  420SOL     OW 1258   3.060   1.101   1.405  0.3125 -0.3527 -0.0746
  420SOL    HW1 1259   3.089   1.063   1.318 -2.7018 -1.3100  1.2463
  420SOL    HW2 1260   2.974   1.156   1.394 -2.3194 -1.6332 -1.6563
  421SOL     OW 1261   0.629   1.996   3.139 -0.3297 -0.1528 -0.0096
  421SOL    HW1 1262   0.599   1.913   0.042  2.3708 -1.2942  1.5714
  421SOL    HW2 1263   0.674   1.973   3.048  0.3039  4.5674  0.2272
  422SOL     OW 1264   2.506   0.350   2.342  0.3225 -0.2128  0.3221
  422SOL    HW1 1265   2.581   0.389   2.283 -3.4881 -0.8842 -1.9003
  422SOL    HW2 1266   2.418   0.349   2.293  0.7558 -0.4711  3.0675
  423SOL     OW 1267   1.816   1.439   0.097 -0.0698 -0.6485 -0.0960
  423SOL    HW1 1268   1.802   1.537   0.132 -0.6061  0.5144  0.2547
  423SOL    HW2 1269   1.732   1.376   0.103 -1.1907 -2.1877 -1.1321
  424SOL     OW 1270   1.236   1.231   1.958  0.5467  0.5964  0.5703
  424SOL    HW1 1271   1.246   1.326   1.932 -0.1738  0.2572  1.0076
  424SOL    HW2 1272   1.270   1.215   2.055 -1.8626 -2.9579  2.7834
  425SOL     OW 1273   0.141   2.716   2.111  0.2436 -0.2935 -0.3689
  425SOL    HW1 1274   0.171   2.726   2.206 -0.0478 -2.3047 -2.9723
  425SOL    HW2 1275   0.121   2.807   2.063  0.6172 -0.8187 -0.9505
  426SOL     OW 1276   2.374   2.806   0.576  0.0327  0.1594 -0.0223
  426SOL    HW1 1277   2.458   2.763   0.614  0.2215 -1.4996 -3.5120
  426SOL    HW2 1278   2.316   2.848   0.648 -1.7362 -0.1992  0.7210
  427SOL     OW 1279   0.224   0.899   2.640  0.0230 -0.0353  0.0222
  427SOL    HW1 1280   0.122   0.908   2.652  1.5296  2.1372  3.0520
  427SOL    HW2 1281   0.258   0.977   2.582 -1.9548 -0.4718  2.1109
  428SOL     OW 1282   2.724   1.518   2.940 -0.0587 -0.0733 -0.1750
  428SOL    HW1 1283   2.767   1.495   3.028  0.2464  1.5866  0.1445
  428SOL    HW2 1284   2.733   1.442   2.877  0.4480  0.4253  0.3799
  429SOL     OW 1285   2.534   0.345   0.218 -0.1605 -0.2479 -0.7902
  429SOL    HW1 1286   2.568   0.269   0.163  2.1130  0.1106  0.8225
  429SOL    HW2 1287   2.534   0.325   0.319  0.5036  1.7612 -0.7004
  430SOL     OW 1288   1.655   2.175   2.459 -0.6874 -0.5972  0.3325
  430SOL    HW1 1289   1.627   2.080   2.428 -0.0157  1.6232 -2.0572
  430SOL    HW2 1290   1.708   2.228   2.386  0.8209 -3.8390 -0.3290
  431SOL     OW 1291   0.399   1.872   1.768 -0.2353  0.7802 -0.3725
  431SOL    HW1 1292   0.343   1.785   1.760  0.3878 -3.0496 -1.1169
  431SOL    HW2 1293   0.487   1.842   1.817 -1.1007 -1.9744  0.5906
  432SOL     OW 1294   1.485   2.309   1.896  0.1346  0.3180 -0.2145
  432SOL    HW1 1295   1.531   2.254   1.968  0.9402 -0.3871  0.3494
  432SOL    HW2 1296   1.525   2.284   1.805 -0.7282  0.2818 -2.1656
  433SOL     OW 1297   1.053   2.290   0.403 -0.4886  0.2354 -0.5858
  433SOL    HW1 1298   1.150   2.267   0.400  0.2165  0.6888  0.0712
  433SOL    HW2 1299   1.011   2.263   0.316  2.1984  2.9390  2.2861
  434SOL     OW 1300   0.291   2.344   2.705  0.6392 -0.4829 -0.0137
  434SOL    HW1 1301   0.380   2.385   2.719 -0.1740 -0.6221 -0.5325
  434SOL    HW2 1302   0.220   2.386   2.764  0.3895  1.1366 -2.5344
  435SOL     OW 1303   0.122   0.927   0.492  0.1543  0.2153  0.3467
  435SOL    HW1 1304   0.029   0.974   0.481 -2.8503  0.5811  0.6096
  435SOL    HW2 1305   0.196   0.983   0.452 -0.2099  1.5541  2.8895
  436SOL     OW 1306   0.514   2.857   1.739 -0.3439 -0.1916 -0.0293
  436SOL    HW1 1307   0.438   2.911   1.788 -2.3827  0.6401  1.2372
  436SOL    HW2 1308   0.512   2.859   1.637 -3.3165  0.8695 -0.2793
  437SOL     OW 1309   0.807   0.200   0.503 -0.6459 -0.3377 -0.3369
  437SOL    HW1 1310   0.837   0.284   0.454 -0.0091 -0.0935  0.1022
  437SOL    HW2 1311   0.754   0.140   0.439 -1.5674  2.4356 -0.1642
  438SOL     OW 1312   0.638   2.161   0.654 -0.0134  1.0647  0.3251
  438SOL    HW1 1313   0.680   2.245   0.689  1.5352 -0.8443 -1.8647
  438SOL    HW2 1314   0.644   2.089   0.729 -1.9543 -2.0885  2.4814
  439SOL     OW 1315   0.758   2.706   1.668  0.6100 -0.3600 -0.2976
  439SOL    HW1 1316   0.753   2.626   1.731 -2.4740 -1.7400  2.5472
  439SOL    HW2 1317   0.678   2.764   1.697 -1.8663  1.3538  0.3909
  440SOL     OW 1318   1.999   2.898   1.831 -0.0646  0.9126  0.1864
  440SOL    HW1 1319   1.946   2.815   1.854 -0.6964 -0.4234  0.7510
  440SOL    HW2 1320   2.099   2.877   1.826  1.1849 -0.1516 -0.0432
  441SOL     OW 1321   2.749   0.414   1.754 -0.0930 -0.4442 -0.5329
  441SOL    HW1 1322   2.758   0.365   1.846 -2.4215  1.6881 -0.0603
  441SOL    HW2 1323   2.828   0.478   1.736 -1.1986 -1.0486 -0.7743
  442SOL     OW 1324   1.921   2.361   0.987 -0.8050  0.0419  0.4810
  442SOL    HW1 1325   1.955   2.293   0.922 -0.4272 -0.4513 -1.3189
  442SOL    HW2 1326   2.000   2.400   1.033 -3.2604 -2.3553 -2.2891
  443SOL     OW 1327   2.676   0.684   2.315 -0.0812  0.1665  0.0223
  443SOL    HW1 1328   2.686   0.594   2.266  0.1381  0.7840 -0.9308
  443SOL    HW2 1329   2.629   0.745   2.254 -0.7296 -2.2061  2.7121
  444SOL     OW 1330   2.176   0.982   1.860 -0.4141 -0.0564 -0.0033
  444SOL    HW1 1331   2.111   0.907   1.867  1.7810  0.6750  1.1229
  444SOL    HW2 1332   2.274   0.953   1.854  1.5978 -1.7535 -0.2422
  445SOL     OW 1333   3.081   2.282   1.286  0.0160 -0.3267 -0.2116
  445SOL    HW1 1334   3.014   2.293   1.361  0.3774 -2.0021 -1.5778
  445SOL    HW2 1335   3.100   2.369   1.236  0.2689 -0.2783 -0.5879
  446SOL     OW 1336   2.850   1.723   0.940 -0.0789  0.7847  0.0853
  446SOL    HW1 1337   2.775   1.725   1.006  0.8599  0.0827 -0.8183
  446SOL    HW2 1338   2.922   1.663   0.975 -1.9632  2.0482 -0.0560
  447SOL     OW 1339   0.531   1.133   0.903 -0.0189  0.0945 -0.0326
  447SOL    HW1 1340   0.621   1.086   0.886  2.9394 -2.1293  0.6297
  447SOL    HW2 1341   0.552   1.224   0.944  0.8863  0.8234 -2.1750
  448SOL     OW 1342   1.468   1.380   1.798 -0.3294  0.2428  0.5680
  448SOL    HW1 1343   1.439   1.470   1.764  0.8920  1.0077  0.0432
  448SOL    HW2 1344   1.407   1.307   1.769  0.2000 -0.9130  2.0520
  449SOL     OW 1345   1.148   1.156   0.091 -0.0477 -0.0543 -0.7819
  449SOL    HW1 1346   1.225   1.098   0.051 -2.2099 -0.4514  2.6209
  449SOL    HW2 1347   1.052   1.125   0.060 -2.5234 -0.5385  3.7986
  450SOL     OW 1348   2.729   2.300   2.151 -0.3976 -0.2138 -0.5132
  450SOL    HW1 1349   2.778   2.380   2.187  1.3919  0.9887  1.6339
  450SOL    HW2 1350   2.789   2.230   2.103  0.3508 -0.1396  0.4186
  451SOL     OW 1351   1.882   2.941   2.460  0.6660 -0.0986  0.4854
  451SOL    HW1 1352   1.982   2.925   2.443 -1.0107  2.9003  1.8005
  451SOL    HW2 1353   1.859   3.039   2.486 -2.5361  2.2157  2.0988
  452SOL     OW 1354   1.555   3.022   1.433  0.4727  0.2737  0.3783
  452SOL    HW1 1355   1.459   3.042   1.404 -0.3454 -0.9153  1.0839
  452SOL    HW2 1356   1.595   3.104   1.467  0.8363 -2.4219 -0.3778
  453SOL     OW 1357   1.740   0.846   0.963 -0.5016  0.0974 -0.5321
  453SOL    HW1 1358   1.760   0.818   0.868 -1.1818 -0.2029  0.6980
  453SOL    HW2 1359   1.760   0.943   0.985 -1.9330  3.4588 -0.2999
  454SOL     OW 1360   0.168   1.249   0.866 -0.2012  0.3822  0.1797
  454SOL    HW1 1361   0.220   1.318   0.924 -1.3916  1.2729 -1.1169
  454SOL    HW2 1362   0.120   1.293   0.789  0.8750 -3.8434  2.2475
  455SOL     OW 1363   2.628   0.020   0.350 -0.0995  0.2951 -0.4707
  455SOL    HW1 1364   2.595   0.044   0.256 -1.2486  0.7765 -1.7252
  455SOL    HW2 1365   2.732   0.029   0.350 -0.3059 -1.5987 -3.5256
  456SOL     OW 1366   2.862   2.456   1.074 -0.7457 -0.2805  0.2091
  456SOL    HW1 1367   2.761   2.478   1.067 -1.4470 -1.0131 -0.3315
  456SOL    HW2 1368   2.869   2.354   1.063  0.0927 -2.2268  1.3410
  457SOL     OW 1369   1.184   0.050   0.374  0.1537 -0.3863  0.3099
  457SOL    HW1 1370   1.096   0.077   0.323 -1.0961  0.3472 -2.2394
  457SOL    HW2 1371   1.218   0.130   0.427 -0.8775  1.1484  0.5227
  458SOL     OW 1372   2.446   0.689   0.518 -0.1014 -0.1618  0.5168
  458SOL    HW1 1373   2.532   0.656   0.560  0.9816 -1.9415 -0.3747
  458SOL    HW2 1374   2.425   0.640   0.433  0.3850  0.1731  1.8369
  459SOL     OW 1375   2.211   0.461   2.521 -0.1098 -0.5683 -0.1375
  459SOL    HW1 1376   2.150   0.397   2.468 -0.1159 -1.2004 -1.3314
  459SOL    HW2 1377   2.243   0.425   2.612 -0.9050 -2.3076 -0.2926
  460SOL     OW 1378   2.878   0.051   2.719  0.4181 -0.2476  0.5357
  460SOL    HW1 1379   2.808   3.125   2.710  0.5339  4.8689 -0.1575
  460SOL    HW2 1380   2.932   0.031   2.807 -0.8180  1.0331 -0.9948
  461SOL     OW 1381   0.981   1.717   0.825  0.2137 -0.4187 -0.2778
  461SOL    HW1 1382   1.012   1.659   0.899 -1.0611 -1.2503  0.2327
  461SOL    HW2 1383   0.878   1.704   0.804 -2.0056  1.1181 -2.0621
  462SOL     OW 1384   2.488   2.864   1.391 -0.4644  0.0227 -0.0394
  462SOL    HW1 1385   2.551   2.883   1.469  1.7363 -1.5286 -0.1020
  462SOL    HW2 1386   2.527   2.899   1.305 -0.3083  1.5393 -2.0281
  463SOL     OW 1387   2.508   1.039   0.650 -0.0605  0.0973  0.1538
  463SOL    HW1 1388   2.578   0.988   0.601 -2.9409 -2.6723 -1.0136
  463SOL    HW2 1389   2.505   0.998   0.743  1.8905 -0.3025  0.0452
  464SOL     OW 1390   0.334   2.637   1.136 -0.3243 -0.1238 -0.5620
  464SOL    HW1 1391   0.241   2.646   1.096  1.5417  2.6729  0.3283
  464SOL    HW2 1392   0.349   2.542   1.158  0.4117  2.2386 -0.6129
  465SOL     OW 1393   0.142   1.537   3.056  0.0194  0.6670 -0.2068
  465SOL    HW1 1394   0.064   1.484   3.097 -2.3026  0.9211  1.9083
  465SOL    HW2 1395   0.221   1.474   3.058 -3.3114  1.0536 -1.0712
  466SOL     OW 1396   1.676   0.132   2.718  0.0133  0.1564 -0.2638
  466SOL    HW1 1397   1.577   0.167   2.728 -3.1634  1.6490  0.6432
  466SOL    HW2 1398   1.691   0.101   2.813  0.1598  2.0230 -0.8963
  467SOL     OW 1399   1.022   0.714   2.008 -0.4539 -0.2830  0.1131
  467SOL    HW1 1400   1.111   0.667   2.034  2.8694 -1.9912 -0.4953
  467SOL    HW2 1401   1.032   0.812   2.041 -2.9178 -0.5431 -3.5612
  468SOL     OW 1402   0.460   1.019   2.455 -0.7548  0.1325  0.2776
  468SOL    HW1 1403   0.551   0.980   2.476  1.2659 -1.2066 -1.6199
  468SOL    HW2 1404   0.461   1.069   2.365 -1.7822  0.0731  3.2815
  469SOL     OW 1405   0.150   2.271   0.047  0.0217  0.0292 -0.1051
  469SOL    HW1 1406   0.220   2.299   0.118  2.2109  0.9605 -0.6500
  469SOL    HW2 1407   0.064   2.246   0.098  1.5390 -1.6931 -0.4845
  470SOL     OW 1408   2.394   1.723   2.737  0.3047 -0.3174  0.4717
  470SOL    HW1 1409   2.302   1.680   2.731 -1.4788 -0.6371 -0.1937
  470SOL    HW2 1410   2.445   1.703   2.825  0.8753  0.3787  2.2938
  471SOL     OW 1411   2.324   0.573   2.291 -0.2669  0.0941 -0.3140
  471SOL    HW1 1412   2.297   0.577   2.390 -0.1563 -2.2946 -1.7010
  471SOL    HW2 1413   2.404   0.632   2.269 -2.8471 -0.0489 -0.8254
  472SOL     OW 1414   0.508   2.638   0.912 -0.3004  0.6205  0.3962
  472SOL    HW1 1415   0.497   2.678   0.818 -0.3907 -2.8362 -0.5917
  472SOL    HW2 1416   0.414   2.633   0.952  1.5425  0.0322 -1.7972
  473SOL     OW 1417   0.719   0.120   2.548 -0.5404  0.1265  0.2022
  473SOL    HW1 1418   0.761   0.087   2.464 -0.5223 -1.9230  2.4285
  473SOL    HW2 1419   0.721   0.043   2.620  0.8835 -3.4037  4.2469
  474SOL     OW 1420   1.719   0.074   2.230  0.4442  0.2722  0.1266
  474SOL    HW1 1421   1.680   0.164   2.200 -1.1813 -0.2894 -3.4317
  474SOL    HW2 1422   1.648   0.000   2.251  0.1654 -0.4078  0.5919
  475SOL     OW 1423   1.803   2.768   0.706 -0.1162  0.6493  0.1621
  475SOL    HW1 1424   1.882   2.708   0.712 -0.7656  1.1608 -2.0292
  475SOL    HW2 1425   1.781   2.787   0.608  0.5868 -0.0311 -0.0620
  476SOL     OW 1426   0.027   0.646   1.000  0.4961 -0.0853  0.1106
  476SOL    HW1 1427   3.101   0.676   0.931 -0.1008  2.7439 -1.7720
  476SOL    HW2 1428   0.121   0.642   0.960 -0.4535  2.3723 -0.7445
  477SOL     OW 1429   1.308   2.381   0.640 -0.1310  0.5568  0.0472
  477SOL    HW1 1430   1.322   2.324   0.556 -4.5034 -2.1606  1.8703
  477SOL    HW2 1431   1.215   2.369   0.676 -1.0397  1.0643  0.0850
  478SOL     OW 1432   0.209   2.417   2.461  0.5327 -0.3605 -0.0634
  478SOL    HW1 1433   0.234   2.392   2.552 -4.8070 -1.4303 -2.5891
  478SOL    HW2 1434   0.248   2.351   2.392  1.6966  0.6884 -1.4110
  479SOL     OW 1435   2.463   0.461   0.844  0.1162  0.2829 -0.0024
  479SOL    HW1 1436   2.363   0.449   0.852 -0.2631 -0.0239  1.9150
  479SOL    HW2 1437   2.509   0.381   0.887  2.4385 -2.6318 -0.7017
  480SOL     OW 1438   3.101   2.993   3.129  0.6976  0.1335 -0.2248
  480SOL    HW1 1439   3.037   2.982   0.070 -0.9874 -0.6469 -0.1424
  480SOL    HW2 1440   0.047   3.040   0.020 -1.9669 -0.7263  1.5022
  481SOL     OW 1441   2.901   2.334   1.499  0.3231  0.0124  0.4099
  481SOL    HW1 1442   2.901   2.253   1.561 -0.8234  1.4853 -2.4746
  481SOL    HW2 1443   2.869   2.419   1.549  0.8804  1.5697  3.0589
  482SOL     OW 1444   1.019   2.499   2.738  0.6311  0.1993  0.8540
  482SOL    HW1 1445   1.084   2.510   2.655  1.8010  1.5089 -3.0941
  482SOL    HW2 1446   0.949   2.577   2.738  0.8948  3.3507 -0.9535
  483SOL     OW 1447   0.688   2.192   2.413  0.7628 -0.3094 -0.0112
  483SOL    HW1 1448   0.745   2.127   2.465  2.4332 -1.9032 -3.2597
  483SOL    HW2 1449   0.604   2.137   2.381 -1.3949  1.4451  0.6429
  484SOL     OW 1450   1.123   0.802   1.638  0.0066 -0.5446  0.0707
  484SOL    HW1 1451   1.074   0.884   1.678 -0.9499 -0.1873 -1.0195
  484SOL    HW2 1452   1.202   0.775   1.703  1.6684 -1.4195  1.2689
  485SOL     OW 1453   2.266   0.930   3.051 -0.6729 -0.3730  0.3396
  485SOL    HW1 1454   2.274   0.906   2.955 -1.7882 -1.1479  1.6411
  485SOL    HW2 1455   2.294   1.029   3.063 -0.2517  0.4165  1.1650
  486SOL     OW 1456   2.286   2.951   1.076  0.3641  0.1220  0.0741
  486SOL    HW1 1457   2.200   2.991   1.111 -0.7013 -0.6352 -1.0207
  486SOL    HW2 1458   2.259   2.882   1.006 -0.5834 -0.3219 -0.3270
  487SOL     OW 1459   0.608   1.962   1.351 -0.3967  0.1354  0.1289
  487SOL    HW1 1460   0.671   2.040   1.324 -0.6870 -0.9651 -0.4300
  487SOL    HW2 1461   0.514   1.993   1.362 -0.5463 -0.2504  0.2153
  488SOL     OW 1462   2.580   1.055   3.132 -0.5995  0.0293  0.0558
  488SOL    HW1 1463   2.516   1.114   3.079  0.3447 -0.4794 -0.3118
  488SOL    HW2 1464   2.664   1.035   3.073  0.9331 -1.9356 -1.0194
  489SOL     OW 1465   1.616   0.248   1.002 -0.2611 -0.2468  0.0951
  489SOL    HW1 1466   1.604   0.237   1.102 -1.6959  0.4181  0.3904
  489SOL    HW2 1467   1.598   0.347   0.978  1.2989 -1.3591 -0.5390
  490SOL     OW 1468   0.773   0.659   0.302  0.2121  0.1310  0.1105
  490SOL    HW1 1469   0.691   0.666   0.243  1.8698  0.7565  2.1512
  490SOL    HW2 1470   0.841   0.727   0.264  1.3727  1.5837  1.5922
  491SOL     OW 1471   0.582   2.385   0.813  0.2614  0.2264  0.1248
  491SOL    HW1 1472   0.679   2.413   0.798 -0.4659  0.3721  0.6819
  491SOL    HW2 1473   0.533   2.459   0.866 -1.5373  1.0250 -0.3431
  492SOL     OW 1474   1.366   1.924   2.194 -0.2004 -0.8282 -0.2134
  492SOL    HW1 1475   1.310   1.849   2.233 -0.0377  1.9540  0.8149
  492SOL    HW2 1476   1.315   1.979   2.128  1.6536  0.4657 -1.7043
  493SOL     OW 1477   2.687   2.583   0.675  0.0807 -0.3044  0.3586
  493SOL    HW1 1478   2.782   2.544   0.665  0.5109 -2.1322  1.3323
  493SOL    HW2 1479   2.624   2.506   0.706 -3.2375  0.3882 -0.3627
  494SOL     OW 1480   2.691   2.115   0.114  0.5806  0.1182  0.1952
  494SOL    HW1 1481   2.654   2.019   0.095 -0.2045 -0.5252  0.0238
  494SOL    HW2 1482   2.701   2.156   0.019  1.8214 -0.2429  1.6007
  495SOL     OW 1483   2.695   2.205   2.988  0.6681  0.6118  0.2250
  495SOL    HW1 1484   2.693   2.132   2.919 -0.6452 -0.4238  0.0999
  495SOL    HW2 1485   2.797   2.222   3.014  3.1640  2.5020  1.5518
  496SOL     OW 1486   2.723   0.013   1.805  0.1218  0.2305  0.4770
  496SOL    HW1 1487   2.668   0.022   1.719  1.6798 -3.2787  1.7956
  496SOL    HW2 1488   2.713   3.060   1.850  0.3096 -3.5972 -1.0511
  497SOL     OW 1489   2.921   1.219   3.086  0.0148 -0.3342 -0.4013
  497SOL    HW1 1490   2.886   1.133   3.048 -2.2498  0.9026  0.1467
  497SOL    HW2 1491   2.849   1.282   3.123 -1.4328  0.7541  3.1189
  498SOL     OW 1492   0.098   1.679   2.122  0.3005  0.4488 -0.0223
  498SOL    HW1 1493   0.078   1.769   2.083 -1.3105  0.0029  2.6772
  498SOL    HW2 1494   0.014   1.650   2.176 -1.6823 -1.5736  2.9200
  499SOL     OW 1495   0.707   2.327   2.960 -1.0332 -0.3001 -0.2103
  499SOL    HW1 1496   0.801   2.299   2.933  1.6122 -1.2627 -0.0489
  499SOL    HW2 1497   0.689   2.311   3.062  0.0331 -0.0415  2.2057
  500SOL     OW 1498   1.699   0.070   3.001 -0.5153  0.0119 -0.0667
  500SOL    HW1 1499   1.667   0.099   3.096  2.8007  5.7802  0.2967
  500SOL    HW2 1500   1.802   0.073   2.993  0.9915  1.4649  1.6161
  501SOL     OW 1501   1.272   3.080   1.389 -0.1150 -0.2533 -0.1520
  501SOL    HW1 1502   1.232   3.053   1.299  0.6294  1.4135  0.3798
  501SOL    HW2 1503   1.296   0.040   1.385 -0.5091  0.2920  0.7636
  502SOL     OW 1504   2.509   0.793   2.110  0.2109  0.6431  0.0363
  502SOL    HW1 1505   2.476   0.888   2.090  0.5349  2.5620  1.2414
  502SOL    HW2 1506   2.446   0.722   2.069  0.6460 -1.7348  0.1668
  503SOL     OW 1507   2.221   2.089   2.436 -0.2393 -0.3110  0.2284
  503SOL    HW1 1508   2.227   2.176   2.490  3.7290  0.0329 -0.6130
  503SOL    HW2 1509   2.140   2.093   2.376  2.2639 -0.2319  1.6284
  504SOL     OW 1510   1.525   0.590   1.636 -0.5216 -0.0722  0.1941
  504SOL    HW1 1511   1.499   0.549   1.547  0.1320 -2.6622  2.1170
  504SOL    HW2 1512   1.603   0.536   1.682  2.0013 -0.8003  0.1289
  505SOL     OW 1513   0.779   0.846   1.929 -0.4468 -0.2875  0.7727
  505SOL    HW1 1514   0.774   0.888   1.833 -2.0664 -1.9060 -2.3129
  505SOL    HW2 1515   0.859   0.780   1.928  0.9178 -2.1743 -0.2508
  506SOL     OW 1516   0.452   0.694   2.616 -0.1431 -0.3715 -0.9955
  506SOL    HW1 1517   0.391   0.779   2.607 -1.6321  2.8157 -1.2617
  506SOL    HW2 1518   0.542   0.713   2.663 -0.5640  1.2567  0.4301
  507SOL     OW 1519   0.188   3.129   0.009 -0.2833  0.4976  0.0791
  507SOL    HW1 1520   0.253   3.046   0.006  0.4330 -2.3442  0.1921
  507SOL    HW2 1521   0.221   0.060   3.083  3.1627 -2.1467 -0.6564
  508SOL     OW 1522   1.251   0.783   1.401  0.4330  0.7982 -0.0238
  508SOL    HW1 1523   1.203   0.803   1.489  1.4379 -1.1323 -1.8523
  508SOL    HW2 1524   1.336   0.840   1.399 -0.3580  0.1704  1.0210
  509SOL     OW 1525   1.824   2.254   1.466  0.2668  1.1171 -0.4955
  509SOL    HW1 1526   1.811   2.333   1.404  1.8919  0.0554  0.9987
  509SOL    HW2 1527   1.922   2.220   1.465 -0.7663  2.4973 -2.1939
  510SOL     OW 1528   2.484   1.307   2.078  0.0111  0.4601 -0.3873
  510SOL    HW1 1529   2.510   1.380   2.009  1.6939  1.1679 -0.4723
  510SOL    HW2 1530   2.505   1.346   2.170 -3.2946  0.9063 -0.8964
  511SOL     OW 1531   0.869   2.081   1.532 -0.5746 -0.8076 -0.6404
  511SOL    HW1 1532   0.855   2.074   1.432  2.7233  1.1350 -1.8684
  511SOL    HW2 1533   0.782   2.103   1.582  2.8983 -1.7712  1.0298
  512SOL     OW 1534   2.866   2.091   0.555 -0.1597  0.1431 -0.2332
  512SOL    HW1 1535   2.868   2.196   0.556 -0.8476 -0.4056  1.1524
  512SOL    HW2 1536   2.946   2.058   0.611  1.1345  1.3936  0.5216
  513SOL     OW 1537   3.111   1.759   3.079 -0.3912 -0.5105 -0.0784
  513SOL    HW1 1538   3.128   1.861   3.063  0.2889  1.3684 -1.1875
  513SOL    HW2 1539   0.055   1.698   3.070  0.0525 -0.7261  2.9091
  514SOL     OW 1540   2.905   2.480   2.243 -0.3289 -0.3212 -0.5017
  514SOL    HW1 1541   2.948   2.501   2.330 -0.9939  1.4978 -1.6674
  514SOL    HW2 1542   2.968   2.495   2.165 -0.3756  0.5840 -0.7842
  515SOL     OW 1543   2.201   1.202   1.077  0.1367 -0.1163  0.4359
  515SOL    HW1 1544   2.170   1.121   1.022  2.9631  2.7581  0.3098
  515SOL    HW2 1545   2.126   1.230   1.141 -0.6980  1.5441 -2.1867
  516SOL     OW 1546   2.174   2.065   0.484  0.5385  0.2565 -0.1715
  516SOL    HW1 1547   2.271   2.082   0.512 -0.3906 -0.1398  0.5420
  516SOL    HW2 1548   2.156   1.973   0.446  1.0465  0.0958  1.1479
  517SOL     OW 1549   0.884   1.168   0.097 -0.4517  0.2637 -0.1004
  517SOL    HW1 1550   0.884   1.262   0.063  2.6076  2.6101 -1.8065
  517SOL    HW2 1551   0.851   1.168   0.192  0.6968  0.5092 -1.8845
  518SOL     OW 1552   0.076   2.929   1.978 -0.3516 -0.1829  0.5114
  518SOL    HW1 1553   0.052   3.025   1.990  1.3123 -2.2048 -1.5756
  518SOL    HW2 1554   0.026   2.886   1.898 -4.4599 -1.4842 -2.1141
  519SOL     OW 1555   1.506   1.649   2.483 -0.9732  0.3263  0.1006
  519SOL    HW1 1556   1.550   1.561   2.452  1.9013 -1.4952 -0.9480
  519SOL    HW2 1557   1.536   1.664   2.579 -0.4571  2.2439 -0.9405
  520SOL     OW 1558   2.773   3.060   2.392 -0.1474  0.2899 -0.0939
  520SOL    HW1 1559   2.743   3.098   2.300 -0.2409  0.9848 -1.0102
  520SOL    HW2 1560   2.862   3.107   2.410 -0.7019 -2.3796 -0.4280
  521SOL     OW 1561   0.020   1.903   2.003  0.1161 -0.0800  0.1635
  521SOL    HW1 1562   0.053   1.999   2.012 -0.8989  2.1790  0.8181
  521SOL    HW2 1563   0.030   1.877   1.905  0.7214 -0.7076 -1.0603
  522SOL     OW 1564   0.999   2.729   1.773 -0.5966  0.1436 -0.5301
  522SOL    HW1 1565   0.911   2.737   1.721  0.4348  0.7226  0.3458
  522SOL    HW2 1566   1.073   2.760   1.708  0.4271 -2.1929 -3.2772
  523SOL     OW 1567   0.186   2.223   1.364 -0.0353 -0.3551  0.1916
  523SOL    HW1 1568   0.179   2.288   1.442 -2.4988 -0.6761  0.5997
  523SOL    HW2 1569   0.103   2.238   1.307  1.0765 -0.9281 -1.4278
  524SOL     OW 1570   1.404   2.628   0.617 -0.3397 -0.1435  0.2145
  524SOL    HW1 1571   1.350   2.537   0.614 -0.5976 -1.4154 -0.4621
  524SOL    HW2 1572   1.497   2.625   0.666  2.5254  0.2137  3.0547
  525SOL     OW 1573   2.467   1.150   1.119  0.0656 -0.5711  0.0182
  525SOL    HW1 1574   2.531   1.227   1.099 -0.4311 -2.6379 -0.8374
  525SOL    HW2 1575   2.367   1.178   1.118 -2.6187 -2.6812 -0.7388
  526SOL     OW 1576   0.854   2.457   0.776 -0.0542 -0.2932  0.2471
  526SOL    HW1 1577   0.819   2.519   0.707  2.7736 -1.0119 -0.4128
  526SOL    HW2 1578   0.940   2.412   0.749 -2.8591 -0.3337  2.8615
  527SOL     OW 1579   2.553   2.277   0.516 -0.9153  0.0018  0.2726
  527SOL    HW1 1580   2.642   2.326   0.496  1.5346  1.0206  1.9924
  527SOL    HW2 1581   2.488   2.335   0.567  0.1188 -1.9886  0.2153
  528SOL     OW 1582   2.123   0.455   3.111 -0.5999  0.0685 -0.2479
  528SOL    HW1 1583   2.025   0.471   3.118  0.2519 -1.4508 -1.5814
  528SOL    HW2 1584   2.148   0.374   0.025  1.8252  2.1917 -2.2687
  529SOL     OW 1585   1.185   1.550   2.178  0.1783  0.3778 -0.1354
  529SOL    HW1 1586   1.226   1.607   2.249 -1.6290  1.5649 -0.0317
  529SOL    HW2 1587   1.199   1.593   2.084 -0.7514  2.7233 -2.2228
  530SOL     OW 1588   2.451   1.017   2.506  0.5759 -0.1707 -0.5472
  530SOL    HW1 1589   2.545   1.038   2.481 -0.5187  0.0362  0.1491
  530SOL    HW2 1590   2.435   0.926   2.551  2.3249 -0.7810 -2.0924
  531SOL     OW 1591   0.751   1.036   3.025  0.2415 -0.0405  0.4947
  531SOL    HW1 1592   0.772   1.087   3.114  3.7169  0.3827 -1.5105
  531SOL    HW2 1593   0.772   0.940   3.035 -1.5076  0.2035 -0.8714
  532SOL     OW 1594   1.558   1.117   0.540 -0.2919  0.1140 -0.5581
  532SOL    HW1 1595   1.585   1.039   0.600 -0.0584 -0.3957  2.9638
  532SOL    HW2 1596   1.525   1.078   0.453 -0.8024  2.6225  2.0885
  533SOL     OW 1597   0.392   0.566   2.146  0.2643 -0.0415  0.1827
  533SOL    HW1 1598   0.349   0.496   2.080  0.0016  0.1888 -3.0681
  533SOL    HW2 1599   0.490   0.582   2.121  0.5722  2.3300 -1.7965
  534SOL     OW 1600   1.572   0.361   2.254 -0.0607  0.1622  0.3233
  534SOL    HW1 1601   1.658   0.384   2.305 -1.3928  0.6191  1.0667
  534SOL    HW2 1602   1.507   0.330   2.328 -0.4323 -1.7720  1.0681
  535SOL     OW 1603   0.558   0.076   0.299  0.4389  0.2423 -0.8118
  535SOL    HW1 1604   0.560   3.119   0.273  0.4246  0.6815 -0.0211
  535SOL    HW2 1605   0.465   0.104   0.324  1.3213 -3.3143  0.8667
  536SOL     OW 1606   1.079   0.394   0.474  0.2153 -0.6022 -0.2478
  536SOL    HW1 1607   1.128   0.485   0.466 -0.2680 -2.7081  0.6939
  536SOL    HW2 1608   0.986   0.400   0.436 -0.4586 -1.0529  1.6390
  537SOL     OW 1609   1.560   2.987   1.842 -0.0161 -0.2018  0.3322
  537SOL    HW1 1610   1.620   2.964   1.919 -1.6295  0.3035 -1.4076
  537SOL    HW2 1611   1.549   2.908   1.780 -1.6355  1.3423  1.0962
  538SOL     OW 1612   0.373   2.828   0.200  0.1189  0.9328 -0.0081
  538SOL    HW1 1613   0.272   2.820   0.219 -0.6460 -1.3065  1.8940
  538SOL    HW2 1614   0.388   2.882   0.113 -2.0001  0.5459  1.3709
  539SOL     OW 1615   2.973   1.595   1.902 -0.0213 -0.0761 -0.6116
  539SOL    HW1 1616   3.074   1.567   1.887  2.8133 -1.9573 -1.9082
  539SOL    HW2 1617   2.944   1.598   1.997  1.3612 -0.1042 -3.8549
  540SOL     OW 1618   2.457   2.241   2.072 -0.5365 -0.0540 -0.2712
  540SOL    HW1 1619   2.551   2.241   2.109 -2.9871  0.7130  0.7618
  540SOL    HW2 1620   2.460   2.201   1.978 -1.0540  0.4726  1.0029
  541SOL     OW 1621   0.532   2.812   1.222 -0.0047  0.1715 -0.2914
  541SOL    HW1 1622   0.443   2.764   1.207  0.0998  1.3372 -0.2281
  541SOL    HW2 1623   0.605   2.770   1.163 -0.6525  2.5021 -1.4471
  542SOL     OW 1624   2.720   0.438   2.201 -0.4472  0.9349  0.0282
  542SOL    HW1 1625   2.795   0.412   2.263  0.9784  1.0877  0.3020
  542SOL    HW2 1626   2.738   0.390   2.110  1.2576 -3.1933 -0.5015
  543SOL     OW 1627   0.681   0.614   0.899 -0.3053  0.4939 -0.3639
  543SOL    HW1 1628   0.648   0.604   0.996 -0.8230 -2.3452  0.9643
  543SOL    HW2 1629   0.763   0.557   0.888  1.7084  0.9583  0.1393
  544SOL     OW 1630   2.435   2.323   1.314 -0.1922 -0.0532 -0.0032
  544SOL    HW1 1631   2.404   2.287   1.225 -1.5087  1.0857  0.2145
  544SOL    HW2 1632   2.429   2.426   1.314 -1.0490  1.1185 -0.1615
  545SOL     OW 1633   1.272   1.369   1.069 -0.3918  0.1273  0.3404
  545SOL    HW1 1634   1.364   1.353   1.028 -0.4875  0.8092 -2.2468
  545SOL    HW2 1635   1.289   1.377   1.168 -1.6089  3.1158  1.8543
  546SOL     OW 1636   2.827   0.297   2.620  0.2449  0.2415  0.4363
  546SOL    HW1 1637   2.846   0.217   2.684 -2.6699 -0.3736  1.9624
  546SOL    HW2 1638   2.737   0.342   2.640  0.2547  1.1667 -1.7943
  547SOL     OW 1639   2.289   0.390   2.787  0.1727  0.1976  0.0361
  547SOL    HW1 1640   2.221   0.365   2.857  1.7542 -1.5982 -2.0822
  547SOL    HW2 1641   2.355   0.449   2.827 -2.5677 -1.3789 -0.7246
  548SOL     OW 1642   2.407   1.972   2.866 -0.5256 -0.1068  0.1049
  548SOL    HW1 1643   2.373   1.884   2.839  3.0204 -0.3958  2.6248
  548SOL    HW2 1644   2.507   1.981   2.857  1.9382  1.6491  1.0038
  549SOL     OW 1645   2.166   0.468   0.631 -0.1042 -0.3849 -0.2665
  549SOL    HW1 1646   2.160   0.442   0.727 -0.9846 -0.0264 -0.4016
  549SOL    HW2 1647   2.172   0.567   0.620  1.2126  2.1086  1.0007
  550SOL     OW 1648   2.634   1.289   0.283 -0.2517 -0.4049  0.3390
  550SOL    HW1 1649   2.541   1.302   0.330 -2.0532 -0.0995  3.4514
  550SOL    HW2 1650   2.653   1.189   0.257 -0.1973 -0.3928 -0.3853
  551SOL     OW 1651   1.482   2.479   1.249  0.6048 -0.0927 -0.2717
  551SOL    HW1 1652   1.452   2.574   1.231  0.6336  1.2540 -0.2328
  551SOL    HW2 1653   1.533   2.443   1.175 -2.1017 -0.6668  3.0073
  552SOL     OW 1654   2.854   2.367   2.675 -0.2945 -0.2634 -0.2643
  552SOL    HW1 1655   2.877   2.290   2.614  1.0433  0.0785  1.7020
  552SOL    HW2 1656   2.792   2.438   2.635 -1.7003 -0.5195  3.6910
  553SOL     OW 1657   0.418   2.981   0.565 -0.5059 -0.1675  0.2247
  553SOL    HW1 1658   0.318   2.997   0.548  1.2896 -0.6929  1.1290
  553SOL    HW2 1659   0.453   3.075   0.585 -1.7308 -1.4842  1.1205
  554SOL     OW 1660   1.942   1.968   1.581  0.1522  0.1173  0.0127
  554SOL    HW1 1661   1.855   1.927   1.597 -0.1647  1.1319 -0.2787
  554SOL    HW2 1662   2.014   1.910   1.623 -2.1936 -0.6720  0.2305
  555SOL     OW 1663   1.592   2.562   1.992  0.1273  0.2360 -0.5797
  555SOL    HW1 1664   1.538   2.486   1.952  0.7693 -1.9334 -2.0807
  555SOL    HW2 1665   1.544   2.629   2.053  3.2097  0.4531 -1.4796
  556SOL     OW 1666   1.551   0.864   0.642 -0.4557 -0.0234  0.1761
  556SOL    HW1 1667   1.652   0.847   0.664  0.9174 -0.1321  0.8941
  556SOL    HW2 1668   1.510   0.794   0.578 -0.2902  0.3532 -1.5392
  557SOL     OW 1669   1.595   2.253   1.645  0.0464  0.4535 -0.1527
  557SOL    HW1 1670   1.685   2.252   1.589  0.6372  1.3103 -1.5963
  557SOL    HW2 1671   1.530   2.321   1.609 -1.6437  0.7685  1.9636
  558SOL     OW 1672   3.037   1.261   2.512  0.4256  0.6106  0.3979
  558SOL    HW1 1673   2.956   1.225   2.564 -0.4443  1.0237  1.2759
  558SOL    HW2 1674   3.113   1.191   2.501  0.3302 -2.5318  0.0231
  559SOL     OW 1675   2.424   2.600   2.528  0.1233  0.3174  0.2053
  559SOL    HW1 1676   2.520   2.577   2.555 -2.0793  0.9601 -0.7973
  559SOL    HW2 1677   2.403   2.696   2.557 -3.4862  1.9210 -0.1053
  560SOL     OW 1678   0.324   3.123   2.582  0.7400 -0.0869  0.2047
  560SOL    HW1 1679   0.252   0.057   2.577 -2.5601  1.8257  1.1460
  560SOL    HW2 1680   0.344   3.095   2.482  0.8243 -0.7810 -3.5778
  561SOL     OW 1681   1.445   0.684   0.484 -0.1973  0.1749  0.2538
  561SOL    HW1 1682   1.372   0.719   0.427  1.3496 -0.1089  0.9514
  561SOL    HW2 1683   1.435   0.584   0.509  1.0658 -0.6840  0.4864
  562SOL     OW 1684   0.701   1.364   2.209  0.0287 -0.4961 -0.0881
  562SOL    HW1 1685   0.782   1.418   2.239 -2.0059  1.9404  1.0303
  562SOL    HW2 1686   0.666   1.398   2.115 -1.2676  1.6294 -0.4657
  563SOL     OW 1687   1.837   2.064   0.268 -0.5110  0.0067 -0.3598
  563SOL    HW1 1688   1.798   2.062   0.177  3.6883  2.3097 -0.7124
  563SOL    HW2 1689   1.926   2.107   0.272 -0.6068  0.8075  0.0587
  564SOL     OW 1690   0.167   2.139   0.592 -0.2111 -0.0065  0.4328
  564SOL    HW1 1691   0.186   2.074   0.511 -0.2145 -3.7036 -1.5831
  564SOL    HW2 1692   0.091   2.098   0.644 -0.3874  1.0134 -1.8339
  565SOL     OW 1693   0.358   2.924   3.086  0.4081  0.8064 -0.0848
  565SOL    HW1 1694   0.409   2.994   3.036 -0.1761 -1.6594  0.0603
  565SOL    HW2 1695   0.325   2.850   3.019 -3.0998 -2.1791 -1.5542
  566SOL     OW 1696   1.433   2.595   2.960 -0.5235  0.0730  0.3093
  566SOL    HW1 1697   1.477   2.611   3.053  1.5679 -1.9847 -0.6607
  566SOL    HW2 1698   1.475   2.647   2.881  1.5401  0.9875 -3.6920
  567SOL     OW 1699   2.586   1.884   1.345  0.0499  0.3531  0.3791
  567SOL    HW1 1700   2.672   1.940   1.362  1.7011  0.2223  1.3108
  567SOL    HW2 1701   2.549   1.857   1.434  1.0558  1.1457  0.8017
  568SOL     OW 1702   1.902   1.110   2.681 -0.0206  0.1037  0.1097
  568SOL    HW1 1703   1.946   1.034   2.634 -0.3027  2.0530  0.4318
  568SOL    HW2 1704   1.879   1.100   2.778  1.4552  2.1314 -0.0224
  569SOL     OW 1705   2.074   1.934   2.005  0.3688  0.2442 -0.6372
  569SOL    HW1 1706   2.039   1.849   2.053  1.1941 -2.2605 -1.1195
  569SOL    HW2 1707   2.153   1.970   2.061 -0.6738  1.0660  2.5666
  570SOL     OW 1708   3.091   2.788   1.787 -0.1435  0.7133  0.0355
  570SOL    HW1 1709   0.025   2.728   1.745  2.0220 -4.0541 -0.9317
  570SOL    HW2 1710   3.025   2.806   1.708  0.4258 -3.2259 -3.0187
  571SOL     OW 1711   0.151   0.775   1.360 -0.1096 -0.1326  0.9299
  571SOL    HW1 1712   0.110   0.843   1.424  2.4699 -1.6368 -0.4907
  571SOL    HW2 1713   0.172   0.687   1.406 -1.2193 -2.9375  0.4129
  572SOL     OW 1714   0.465   1.376   0.647 -0.0540 -0.3738 -0.0290
  572SOL    HW1 1715   0.386   1.322   0.681 -2.2884  1.9547  0.7856
  572SOL    HW2 1716   0.545   1.310   0.638 -0.4035  0.3252  1.5279
  573SOL     OW 1717   0.956   0.798   0.169 -0.3461  0.0668  0.5292
  573SOL    HW1 1718   0.916   0.810   0.072 -1.5309 -1.0718 -3.4824
  573SOL    HW2 1719   1.058   0.800   0.158 -0.3335  0.3319  1.3564
  574SOL     OW 1720   0.128   0.181   0.231 -0.5334  0.2200  0.0516
  574SOL    HW1 1721   0.146   0.095   0.173  2.5301 -1.8735 -2.7511
  574SOL    HW2 1722   0.216   0.240   0.234  2.3797  1.9153  0.8695
  575SOL     OW 1723   0.934   2.094   1.080  0.3601  0.3086  0.3175
  575SOL    HW1 1724   0.933   2.080   0.978  1.3252 -0.5858 -2.0621
  575SOL    HW2 1725   1.032   2.117   1.103 -0.7364 -1.3645 -0.7551
  576SOL     OW 1726   2.998   0.208   1.820 -0.4498 -0.0279 -0.0790
  576SOL    HW1 1727   3.001   0.255   1.727  1.2524 -2.2222 -0.7237
  576SOL    HW2 1728   2.916   0.150   1.818  1.6749  2.0719 -0.0906
  577SOL     OW 1729   2.622   1.674   2.068  0.6298  0.1455 -0.0830
  577SOL    HW1 1730   2.563   1.715   2.143  1.4808  2.2583 -0.8787
  577SOL    HW2 1731   2.708   1.631   2.100 -0.2543 -0.7024  1.1465
  578SOL     OW 1732   1.166   3.073   2.634 -0.2676  0.3573 -0.1805
  578SOL    HW1 1733   1.256   3.074   2.586  2.7201 -1.9162 -2.2811
  578SOL    HW2 1734   1.137   2.985   2.678 -0.5602  0.0267  1.8828
  579SOL     OW 1735   1.824   1.928   2.222 -0.2167  0.2369  0.1765
  579SOL    HW1 1736   1.816   1.870   2.139 -1.1138  3.3092  1.1669
  579SOL    HW2 1737   1.736   1.916   2.272  1.9037 -1.3840 -1.8934
  580SOL     OW 1738   1.684   1.006   2.150  0.3488  0.2578  0.6470
  580SOL    HW1 1739   1.779   0.977   2.176 -0.7958  2.1974 -0.6687
  580SOL    HW2 1740   1.649   1.079   2.211 -1.2898  2.0128 -0.5378
  581SOL     OW 1741   1.143   1.252   2.507 -0.1006 -0.2536  0.0412
  581SOL    HW1 1742   1.121   1.200   2.589  1.1356 -0.2425  1.6818
  581SOL    HW2 1743   1.148   1.185   2.425 -1.3427 -4.3637 -0.0902
  582SOL     OW 1744   3.059   2.560   2.007 -0.7477 -0.4248 -0.0225
  582SOL    HW1 1745   0.002   2.606   2.052 -0.6085  1.2967 -0.7263
  582SOL    HW2 1746   3.020   2.612   1.931 -0.1027 -0.7560  2.4133
  583SOL     OW 1747   1.695   1.169   1.188  0.0975  0.0807 -0.2325
  583SOL    HW1 1748   1.719   1.261   1.157  1.0985 -0.2191  2.3758
  583SOL    HW2 1749   1.763   1.108   1.152 -3.6618  2.0647  1.3624
  584SOL     OW 1750   0.951   2.255   2.854  0.0038 -0.1548 -0.1305
  584SOL    HW1 1751   1.035   2.245   2.910  3.1691 -2.1035  0.2266
  584SOL    HW2 1752   0.961   2.342   2.804  3.5865 -1.3134  0.0727
  585SOL     OW 1753   0.120   2.522   0.306  0.0370 -0.2490  0.4218
  585SOL    HW1 1754   0.074   2.558   0.226  1.0827 -1.6802  2.4844
  585SOL    HW2 1755   0.212   2.486   0.285 -2.4320  1.2475 -0.7957
  586SOL     OW 1756   1.957   1.604   0.497  0.0545  0.4240 -0.0548
  586SOL    HW1 1757   1.919   1.528   0.439  2.9772  0.9813 -0.7212
  586SOL    HW2 1758   2.035   1.571   0.554  0.7390 -0.7471 -0.3829
  587SOL     OW 1759   3.048   1.994   0.318  0.4268  0.3762  0.4682
  587SOL    HW1 1760   0.008   1.982   0.330  0.0630 -0.6352 -2.1322
  587SOL    HW2 1761   3.002   2.034   0.400  1.6300 -0.6495  0.0346
  588SOL     OW 1762   2.665   0.289   0.940 -0.2229  0.0188  0.5907
  588SOL    HW1 1763   2.737   0.324   1.002  1.3606  1.6185  0.7186
  588SOL    HW2 1764   2.654   0.189   0.956 -1.8994 -0.2993  1.2749
  589SOL     OW 1765   0.908   0.719   0.790 -0.0708 -0.1978 -0.1848
  589SOL    HW1 1766   0.988   0.746   0.845 -3.4163 -0.7472 -0.7563
  589SOL    HW2 1767   0.825   0.723   0.850 -0.4381  1.5364  3.0636
  590SOL     OW 1768   2.383   2.447   0.086 -0.0026 -0.0774  0.0370
  590SOL    HW1 1769   2.395   2.353   0.116  1.9389 -0.7536 -0.3186
  590SOL    HW2 1770   2.442   2.509   0.138 -1.5515  0.2813 -0.2353
  591SOL     OW 1771   0.735   2.487   1.837 -0.1569 -0.0825 -0.6184
  591SOL    HW1 1772   0.814   2.429   1.850  0.6061  0.6346 -0.7094
  591SOL    HW2 1773   0.646   2.434   1.830  0.9945 -2.3992 -2.0748
  592SOL     OW 1774   0.834   1.672   2.026  0.4232  0.3253 -0.4506
  592SOL    HW1 1775   0.914   1.731   2.007 -1.5392  0.8307 -1.8828
  592SOL    HW2 1776   0.846   1.613   2.109  2.4625 -0.8897  1.5628
  593SOL     OW 1777   1.396   1.818   1.331  0.3286 -0.3201  0.4242
  593SOL    HW1 1778   1.497   1.807   1.324 -1.8216  0.4738 -0.1959
  593SOL    HW2 1779   1.375   1.899   1.389  0.4187 -0.6399 -0.6769
  594SOL     OW 1780   0.359   1.227   2.708 -0.0270 -0.2400 -0.5728
  594SOL    HW1 1781   0.279   1.195   2.766 -0.3321 -2.3223  0.1517
  594SOL    HW2 1782   0.434   1.164   2.701  1.2928  0.7256 -1.3268
  595SOL     OW 1783   1.523   0.499   0.975  0.6136  0.5827  0.0805
  595SOL    HW1 1784   1.515   0.520   1.077  0.8008  4.6767  0.7976
  595SOL    HW2 1785   1.487   0.579   0.920  0.0775 -0.4206  0.9981
  596SOL     OW 1786   0.314   0.982   1.018 -0.3225  1.0455 -0.3900
  596SOL    HW1 1787   0.390   1.022   0.965 -1.9111 -1.4175  1.1052
  596SOL    HW2 1788   0.223   1.012   0.993  3.7074 -1.9335 -1.3355
  597SOL     OW 1789   0.121   2.424   2.904 -0.6274  0.5265 -0.1286
  597SOL    HW1 1790   0.114   2.384   2.996  0.5825  2.9025 -0.4567
  597SOL    HW2 1791   0.034   2.469   2.877 -2.4091  0.4009 -0.2365
  598SOL     OW 1792   2.112   2.052   2.942  0.3166 -0.0212 -0.5285
  598SOL    HW1 1793   2.048   2.120   2.896 -2.1235 -1.2763  1.0866
  598SOL    HW2 1794   2.149   2.081   3.035  2.4797  2.1422  1.3748
  599SOL     OW 1795   1.675   0.573   0.266  0.2305 -0.0990  0.9821
  599SOL    HW1 1796   1.586   0.608   0.298  0.8203  1.6426  0.5220
  599SOL    HW2 1797   1.716   0.508   0.326 -0.3240  0.5251  0.3287
  600SOL     OW 1798   0.985   0.303   0.130 -0.2163  0.9100 -0.4088
  600SOL    HW1 1799   0.993   0.201   0.125  0.2851  1.5154  0.7537
  600SOL    HW2 1800   1.070   0.348   0.100 -1.1058 -0.4933 -1.3546
  601SOL     OW 1801   0.553   0.021   1.501  0.0367  0.3232 -0.0303
  601SOL    HW1 1802   0.624   0.071   1.551 -1.4945  1.0993  2.0665
  601SOL    HW2 1803   0.567   0.029   1.402  0.0527 -0.2668  1.0499
  602SOL     OW 1804   3.117   2.891   0.845  0.0164 -0.2750 -0.9484
  602SOL    HW1 1805   3.065   2.902   0.760 -0.7647  2.5642 -0.6949
  602SOL    HW2 1806   0.036   2.975   0.862  1.2710  0.9322  1.5427
  603SOL     OW 1807   0.700   2.895   2.436 -0.5133  0.4597 -0.2023
  603SOL    HW1 1808   0.794   2.926   2.436 -0.5576 -2.5028  2.8477
  603SOL    HW2 1809   0.668   2.865   2.525 -2.8658 -2.1527 -0.2692
  604SOL     OW 1810   0.980   2.659   0.019 -0.0205 -0.1973  0.1045
  604SOL    HW1 1811   0.913   2.621   0.084  0.8910  3.4639 -0.1853
  604SOL    HW2 1812   1.011   2.604   3.078  0.5514 -0.2170  1.3569
  605SOL     OW 1813   1.332   0.716   1.796 -0.2407 -0.5656  0.5760
  605SOL    HW1 1814   1.406   0.698   1.734 -4.3965  0.6534  0.0453
  605SOL    HW2 1815   1.361   0.771   1.880 -0.3565 -3.4465  0.8811
  606SOL     OW 1816   1.433   0.273   2.737 -0.0425 -0.2387  0.3091
  606SOL    HW1 1817   1.406   0.368   2.773  1.3293  0.6210  1.7869
  606SOL    HW2 1818   1.352   0.217   2.756 -1.2103  2.7196 -0.7540
  607SOL     OW 1819   0.612   1.215   1.276  0.1735 -0.6287 -0.0450
  607SOL    HW1 1820   0.680   1.168   1.212 -1.2262  0.3358  2.8699
  607SOL    HW2 1821   0.521   1.166   1.274 -1.3790  1.7913 -2.2511
  608SOL     OW 1822   2.745   2.144   2.413  0.0820 -0.2298  0.1014
  608SOL    HW1 1823   2.706   2.200   2.333 -0.7724  3.8138 -0.5021
  608SOL    HW2 1824   2.840   2.174   2.433 -1.5800 -1.0697  0.2484
  609SOL     OW 1825   2.192   0.236   0.139 -0.1621  0.3393 -0.4829
  609SOL    HW1 1826   2.184   0.133   0.103  1.4322 -1.4869 -1.4239
  609SOL    HW2 1827   2.222   0.245   0.237 -1.0795  0.3987  0.7246
  610SOL     OW 1828   0.761   2.537   1.367 -0.8188 -0.1611 -0.3489
  610SOL    HW1 1829   0.737   2.512   1.274  0.5017 -1.8178  0.9424
  610SOL    HW2 1830   0.812   2.624   1.382  0.1051  3.9067  2.8570
  611SOL     OW 1831   0.866   1.350   0.746 -0.4441 -0.1201  0.0384
  611SOL    HW1 1832   0.888   1.422   0.678 -2.1711  0.9866  1.1318
  611SOL    HW2 1833   0.802   1.279   0.709  0.4765 -0.0774  0.4261
  612SOL     OW 1834   0.904   0.174   2.308  0.2543  0.0323  0.0680
  612SOL    HW1 1835   0.835   0.174   2.230 -1.4561 -1.4900  0.0826
  612SOL    HW2 1836   0.925   0.262   2.345  0.3271 -0.8732  0.1232
  613SOL     OW 1837   2.631   1.592   0.500  0.3204  0.0564  0.5406
  613SOL    HW1 1838   2.597   1.498   0.525 -0.4115  2.4915 -1.7478
  613SOL    HW2 1839   2.706   1.618   0.566  1.4703  0.0337 -2.4384
  614SOL     OW 1840   1.763   0.477   1.730 -0.4384 -0.2172 -0.2167
  614SOL    HW1 1841   1.759   0.550   1.810  1.2649  1.2162 -1.0064
  614SOL    HW2 1842   1.833   0.503   1.658  3.6155  1.5462  0.0619
  615SOL     OW 1843   0.949   1.823   1.195 -0.6005 -1.1359 -0.1917
  615SOL    HW1 1844   1.030   1.791   1.245 -1.3860 -0.4685  0.9291
  615SOL    HW2 1845   0.956   1.924   1.178  0.9590 -2.3896  1.9163
  616SOL     OW 1846   1.527   1.288   2.707 -0.2134  0.0808  0.0776
  616SOL    HW1 1847   1.622   1.323   2.711  3.1070 -0.8547 -1.2894
  616SOL    HW2 1848   1.483   1.308   2.620 -1.2489 -1.8542 -0.5020
  617SOL     OW 1849   1.687   2.807   0.467 -0.0455 -0.1248  0.2223
  617SOL    HW1 1850   1.674   2.776   0.370 -0.5091  1.8107 -0.6034
  617SOL    HW2 1851   1.624   2.882   0.495 -0.4572  1.7209 -1.0531
  618SOL     OW 1852   0.599   1.084   2.791 -0.1752 -0.4172 -0.2273
  618SOL    HW1 1853   0.648   1.110   2.877  0.2506  2.1786 -0.6713
  618SOL    HW2 1854   0.632   1.140   2.710  0.4209 -2.0221 -1.3283
  619SOL     OW 1855   2.840   1.377   0.641  0.0147  0.3761 -0.1421
  619SOL    HW1 1856   2.873   1.359   0.550  0.3893  0.0197  3.6195
  619SOL    HW2 1857   2.746   1.334   0.654 -2.5633 -1.2598 -0.8554
  620SOL     OW 1858   2.262   2.875   0.133 -0.4109 -0.4433 -1.2957
  620SOL    HW1 1859   2.235   2.799   0.073 -0.3616  1.8090 -1.4274
  620SOL    HW2 1860   2.252   2.844   0.231  1.1727 -1.9005  0.9958
  621SOL     OW 1861   2.276   1.316   0.183  0.1084 -0.2319  0.4841
  621SOL    HW1 1862   2.291   1.296   0.282  2.5829 -1.5332 -0.7639
  621SOL    HW2 1863   2.180   1.304   0.151  1.7706  0.2540  1.3735
  622SOL     OW 1864   1.162   2.550   2.409 -0.4555  0.1834 -0.3588
  622SOL    HW1 1865   1.103   2.538   2.326  0.9613  0.0450  0.1760
  622SOL    HW2 1866   1.246   2.492   2.402  1.3530 -1.7162 -2.6742
  623SOL     OW 1867   0.773   1.774   0.192  0.3350  0.1801  0.5770
  623SOL    HW1 1868   0.849   1.717   0.153 -1.2002 -1.1216 -0.5314
  623SOL    HW2 1869   0.681   1.729   0.167 -0.7850  0.6356 -0.4094
  624SOL     OW 1870   0.360   3.065   2.856 -0.2816 -0.3024 -0.0189
  624SOL    HW1 1871   0.364   3.084   2.758 -1.9927  1.4493  0.1978
  624SOL    HW2 1872   0.258   3.062   2.882 -1.8325 -2.8559  0.0102
  625SOL     OW 1873   0.918   1.991   0.292 -0.5249 -0.0334  0.1990
  625SOL    HW1 1874   0.911   2.073   0.232  0.1496 -2.5513 -1.1036
  625SOL    HW2 1875   0.885   1.912   0.239  1.3789  0.6669  0.1444
  626SOL     OW 1876   2.423   0.250   3.102  0.6115 -0.1261  0.5208
  626SOL    HW1 1877   2.363   0.260   0.046  0.6069  0.5402  1.9720
  626SOL    HW2 1878   2.445   0.340   3.055 -0.0244 -0.0827 -1.2429
  627SOL     OW 1879   1.392   1.366   2.410  0.7052  0.4549 -0.2842
  627SOL    HW1 1880   1.301   1.341   2.457 -2.4516  3.0003  0.3624
  627SOL    HW2 1881   1.372   1.439   2.344 -0.9187  1.8033  1.7007
  628SOL     OW 1882   0.787   0.863   2.535  0.1663  0.4525 -0.4125
  628SOL    HW1 1883   0.803   0.953   2.486 -2.3407 -0.7840  0.0402
  628SOL    HW2 1884   0.790   0.779   2.472  0.7964 -1.8888  1.2711
  629SOL     OW 1885   0.475   0.025   2.021 -0.2531  0.0357 -0.0789
  629SOL    HW1 1886   0.503   3.121   2.102  1.4093  2.8067 -5.0332
  629SOL    HW2 1887   0.555   0.047   1.960  3.1170 -2.7264  1.2844
  630SOL     OW 1888   2.374   0.753   1.721 -0.5318  0.1989 -0.2599
  630SOL    HW1 1889   2.436   0.834   1.748  1.6088 -0.0529  2.1947
  630SOL    HW2 1890   2.317   0.781   1.641 -1.9906  0.9226 -2.4826
  631SOL     OW 1891   2.399   1.227   0.436  0.4797  0.5431 -0.0656
  631SOL    HW1 1892   2.350   1.140   0.458 -0.0872  2.2173  2.4811
  631SOL    HW2 1893   2.441   1.262   0.517  0.4309 -0.0181 -0.2622
  632SOL     OW 1894   2.222   0.380   1.911 -0.3976 -0.2509 -0.5301
  632SOL    HW1 1895   2.307   0.326   1.877  1.2547  0.8593 -2.2117
  632SOL    HW2 1896   2.138   0.354   1.864 -0.4616  2.0441  0.4977
  633SOL     OW 1897   0.835   2.988   0.315  0.4293  0.1298  0.5902
  633SOL    HW1 1898   0.733   2.962   0.324  0.7000  0.3298  0.0026
  633SOL    HW2 1899   0.890   2.945   0.394  0.5707 -0.5247  0.3428
  634SOL     OW 1900   1.505   3.034   3.008 -0.5921  0.3443  0.8209
  634SOL    HW1 1901   1.570   3.118   3.010  0.1426 -1.8710 -0.4535
  634SOL    HW2 1902   1.540   2.958   2.950  0.0219  0.6389 -0.9070
  635SOL     OW 1903   2.640   0.547   0.067 -0.1303  0.0126 -0.1312
  635SOL    HW1 1904   2.698   0.591   0.139 -0.9102  1.0075  0.1391
  635SOL    HW2 1905   2.599   0.463   0.111 -1.0838  0.0769 -1.6143
  636SOL     OW 1906   0.744   1.595   1.168  0.3700  0.4186 -0.0606
  636SOL    HW1 1907   0.808   1.675   1.180 -0.3036  1.3270  1.5201
  636SOL    HW2 1908   0.784   1.524   1.107 -2.1476 -0.5248  2.6895
  637SOL     OW 1909   0.066   2.684   0.553  0.1494 -0.4508 -0.1216
  637SOL    HW1 1910   0.097   2.621   0.628  1.1141 -1.1757 -0.7263
  637SOL    HW2 1911   0.102   2.644   0.471  0.9209 -0.6395 -0.1945
  638SOL     OW 1912   0.102   2.837   0.217  0.3928 -0.1836 -0.0864
  638SOL    HW1 1913   0.055   2.771   0.153 -0.1278 -0.5487  2.1464
  638SOL    HW2 1914   0.049   2.848   0.299  1.1785 -0.0921 -1.2068
  639SOL     OW 1915   1.131   1.417   0.226  0.2275 -0.7954  0.5641
  639SOL    HW1 1916   1.141   1.323   0.190  0.3504  0.0822  0.3233
  639SOL    HW2 1917   1.223   1.463   0.235 -0.1728  1.6129 -0.0599
  640SOL     OW 1918   1.354   2.585   0.958 -0.6735 -0.2386  0.0691
  640SOL    HW1 1919   1.429   2.596   0.887  0.8290  1.8979 -0.9669
  640SOL    HW2 1920   1.267   2.621   0.923 -0.6622  1.4755  0.1099
  641SOL     OW 1921   2.915   2.507   0.808  0.0668  0.2081 -0.2956
  641SOL    HW1 1922   2.910   2.456   0.896  1.4353 -0.9493 -0.9239
  641SOL    HW2 1923   2.955   2.446   0.741  1.0411  2.0375  1.3018
  642SOL     OW 1924   1.046   0.015   1.596  0.4323 -0.1401 -0.4955
  642SOL    HW1 1925   1.139   3.128   1.568  2.0083 -1.0925  4.1614
  642SOL    HW2 1926   1.027   3.128   1.692  0.3143 -0.6762  0.8583
  643SOL     OW 1927   0.882   2.254   2.166 -0.4106 -0.4993  0.6757
  643SOL    HW1 1928   0.817   2.217   2.102 -0.3974  0.6826  1.5038
  643SOL    HW2 1929   0.855   2.227   2.261  0.5403 -2.3240 -3.3301
  644SOL     OW 1930   0.983   2.917   0.524  0.2468  0.4342  0.4725
  644SOL    HW1 1931   1.034   2.998   0.553 -1.9636 -2.2846 -0.8640
  644SOL    HW2 1932   0.952   2.870   0.609  0.3404  0.1062  2.7359
  645SOL     OW 1933   1.281   1.714   2.367  0.7256  0.1112 -0.6230
  645SOL    HW1 1934   1.213   1.771   2.420 -3.9204  0.7895  1.8748
  645SOL    HW2 1935   1.365   1.697   2.416 -1.3568  1.4249 -0.0634
  646SOL     OW 1936   0.569   1.143   0.336 -0.4098  0.2622 -0.1277
  646SOL    HW1 1937   0.544   1.042   0.330  0.2031  0.2555 -1.4134
  646SOL    HW2 1938   0.669   1.162   0.356 -1.3078 -1.9326 -1.7810
  647SOL     OW 1939   1.240   0.187   0.663  0.5749  0.4525  0.1407
  647SOL    HW1 1940   1.170   0.264   0.675 -1.2576  0.8203  0.8827
  647SOL    HW2 1941   1.326   0.213   0.704  0.4954  0.4592 -0.2969
  648SOL     OW 1942   2.634   2.908   1.634 -0.0495  0.4062 -0.3692
  648SOL    HW1 1943   2.671   2.886   1.726 -0.0954 -1.6904 -2.6564
  648SOL    HW2 1944   2.571   2.989   1.643 -0.9584  0.3137 -1.5566
  649SOL     OW 1945   0.663   2.237   0.082  0.0280  0.0330  0.1466
  649SOL    HW1 1946   0.643   2.145   0.050 -0.9583  1.7924  1.6878
  649SOL    HW2 1947   0.631   2.249   0.179 -1.8313  0.4642  1.9228
  650SOL     OW 1948   0.022   1.790   1.348  0.0825 -0.1134  0.4262
  650SOL    HW1 1949   0.090   1.848   1.404  0.5706  1.7384  3.5083
  650SOL    HW2 1950   3.114   1.854   1.283 -2.3527  1.8254  0.9192
  651SOL     OW 1951   3.009   0.036   2.954  0.4495 -0.1590 -0.3129
  651SOL    HW1 1952   3.057   3.109   3.008  0.4086 -0.3449  1.5024
  651SOL    HW2 1953   3.051   0.130   2.957  0.6946  0.6035  0.0533
  652SOL     OW 1954   2.538   1.881   0.140  0.2178 -0.1354  0.4359
  652SOL    HW1 1955   2.460   1.920   0.088  0.6871  2.0790  0.0499
  652SOL    HW2 1956   2.508   1.818   0.216  1.0103  1.9836  1.7921
  653SOL     OW 1957   0.369   0.326   0.843  0.4093 -0.1986 -0.2632
  653SOL    HW1 1958   0.461   0.327   0.800 -2.2344 -0.8668 -1.1790
  653SOL    HW2 1959   0.375   0.272   0.931 -1.6988  1.0046 -1.3985
  654SOL     OW 1960   1.304   2.935   0.043 -0.4977  0.2166 -0.6229
  654SOL    HW1 1961   1.310   2.944   0.145  0.3986  1.5439 -1.9557
  654SOL    HW2 1962   1.381   2.991   0.002 -1.1263 -1.4522  0.6098
  655SOL     OW 1963   0.871   2.469   1.064  0.1598 -0.1119 -0.0678
  655SOL    HW1 1964   0.943   2.512   1.122 -1.9201 -2.9371  3.1471
  655SOL    HW2 1965   0.883   2.476   0.965  0.6175 -0.1640 -0.9474
  656SOL     OW 1966   0.545   2.995   2.241 -0.3493  0.1945 -0.0980
  656SOL    HW1 1967   0.559   2.942   2.152 -0.3066 -1.2307 -0.0910
  656SOL    HW2 1968   0.602   2.948   2.317  2.3226  0.5014 -1.8943
  657SOL     OW 1969   1.940   0.946   2.225 -0.1819  0.2172  0.1015
  657SOL    HW1 1970   1.980   0.854   2.194  3.9572 -2.8780 -2.0609
  657SOL    HW2 1971   2.016   1.005   2.265  1.4007  1.0709  1.7783
  658SOL     OW 1972   2.471   1.943   1.015 -0.2009 -0.1597 -0.1108
  658SOL    HW1 1973   2.473   1.937   1.115  0.0153 -1.8357 -1.6859
  658SOL    HW2 1974   2.453   1.849   0.980 -0.3395 -2.6073  1.0363
  659SOL     OW 1975   2.539   2.885   0.111 -0.0843  0.4137  0.4674
  659SOL    HW1 1976   2.583   2.915   0.201  0.1995 -0.0642 -1.1507
  659SOL    HW2 1977   2.439   2.895   0.119  1.6270 -1.5035  0.6176
  660SOL     OW 1978   0.998   1.090   2.845 -0.0204 -0.3636  0.2014
  660SOL    HW1 1979   1.007   1.194   2.858  0.3951  3.1712  2.1644
  660SOL    HW2 1980   0.911   1.054   2.890  0.0440 -1.5812 -1.6254
  661SOL     OW 1981   2.389   2.624   0.945 -0.3133  0.3576  0.1220
  661SOL    HW1 1982   2.296   2.640   0.984 -1.0571 -1.5214  2.1804
  661SOL    HW2 1983   2.458   2.616   1.017 -3.3290 -0.9145  3.0592
  662SOL     OW 1984   0.547   0.671   0.166  0.2511 -0.7311 -0.3452
  662SOL    HW1 1985   0.460   0.617   0.183  0.6660 -1.1999  1.9655
  662SOL    HW2 1986   0.539   0.704   0.069 -0.6106  0.5141 -0.8566
  663SOL     OW 1987   1.310   2.349   2.639 -0.1935 -0.0574 -0.2520
  663SOL    HW1 1988   1.413   2.353   2.634  2.3568 -1.2294 -2.3693
  663SOL    HW2 1989   1.279   2.324   2.544  2.1641  0.1478 -0.2619
  664SOL     OW 1990   1.061   2.657   1.192  0.2419 -0.0256 -0.0693
  664SOL    HW1 1991   1.035   2.754   1.185  0.0994  1.5840 -1.9509
  664SOL    HW2 1992   1.153   2.654   1.232  1.1460  0.6454  0.9741
  665SOL     OW 1993   1.583   1.534   1.545 -0.1735  0.7024  0.5168
  665SOL    HW1 1994   1.520   1.565   1.619 -0.7842  3.4500 -1.3277
  665SOL    HW2 1995   1.538   1.462   1.497  2.5886  3.3083  0.5109
  666SOL     OW 1996   0.462   2.574   0.168  0.0120  0.1987  0.2227
  666SOL    HW1 1997   0.539   2.594   0.107 -0.6613 -1.1854  0.5583
  666SOL    HW2 1998   0.410   2.658   0.196 -2.3451 -0.4661 -0.6766
  667SOL     OW 1999   2.021   1.310   1.463  0.1124 -0.4120  0.5608
  667SOL    HW1 2000   2.087   1.261   1.524 -1.6609  1.0644  1.1744
  667SOL    HW2 2001   1.942   1.346   1.519 -0.2294 -3.6002  0.9915
  668SOL     OW 2002   0.243   0.143   2.155 -0.4057  0.7004  0.3450
  668SOL    HW1 2003   0.326   0.133   2.095  0.6547  0.3022  0.2763
  668SOL    HW2 2004   0.163   0.135   2.096  2.9671  0.4718 -0.0306
  669SOL     OW 2005   2.010   2.120   2.273  0.0214  0.2910 -0.1871
  669SOL    HW1 2006   1.955   2.208   2.290 -0.5916  0.0982  0.3200
  669SOL    HW2 2007   1.942   2.051   2.241  0.9823  0.5760  0.1974
  670SOL     OW 2008   2.440   2.042   0.568  0.3938  0.0016 -0.1664
  670SOL    HW1 2009   2.514   1.977   0.592  0.6095  0.8519 -2.0273
  670SOL    HW2 2010   2.483   2.127   0.532  1.1596  2.1327 -1.9696
  671SOL     OW 2011   0.903   1.133   1.565 -0.4795 -0.3775 -0.0258
  671SOL    HW1 2012   0.940   1.106   1.471 -1.1372 -0.6934 -1.7726
  671SOL    HW2 2013   0.977   1.140   1.641  4.3517  1.4618  2.5634
  672SOL     OW 2014   2.630   1.391   2.343 -0.2445 -0.8928 -0.3354
  672SOL    HW1 2015   2.601   1.476   2.383  2.3427 -2.2875 -0.8048
  672SOL    HW2 2016   2.729   1.391   2.312  4.7550  0.7148 -0.4147
  673SOL     OW 2017   3.064   1.787   2.406 -0.0814  0.0815  0.3912
  673SOL    HW1 2018   3.020   1.762   2.497  2.5525 -1.4087  2.1809
  673SOL    HW2 2019   0.021   1.781   2.424 -2.9291  0.0701 -0.2054
  674SOL     OW 2020   1.170   2.997   2.341 -0.1518 -0.9817  0.1919
  674SOL    HW1 2021   1.226   2.925   2.383  0.3727 -0.5631  0.4217
  674SOL    HW2 2022   1.086   3.014   2.396  1.7074 -0.3822  3.1280
  675SOL     OW 2023   0.716   0.753   1.505  0.1410 -0.8323  0.3738
  675SOL    HW1 2024   0.781   0.685   1.537 -1.5758 -0.4374 -3.3537
  675SOL    HW2 2025   0.710   0.837   1.568  0.2494  1.4246  0.4256
  676SOL     OW 2026   1.862   0.928   0.481  0.0348  0.1905  0.4283
  676SOL    HW1 2027   1.867   0.856   0.552 -1.5653 -0.1578 -2.4329
  676SOL    HW2 2028   1.919   0.902   0.401  0.8725  1.4305 -1.2196
  677SOL     OW 2029   2.885   1.775   2.914  0.1392 -0.3272 -0.2402
  677SOL    HW1 2030   2.834   1.690   2.920 -0.7007  1.2588 -0.8172
  677SOL    HW2 2031   2.961   1.777   2.982 -0.0644 -0.2049 -0.7039
  678SOL     OW 2032   0.024   3.100   1.237 -0.1323 -1.3136 -0.1970
  678SOL    HW1 2033   0.114   0.011   1.228  4.9896 -0.1169  0.2198
  678SOL    HW2 2034   0.008   3.096   1.338  1.5475  0.0300  0.2809
  679SOL     OW 2035   2.211   0.093   0.485  0.4356 -0.1048 -0.1232
  679SOL    HW1 2036   2.251   0.142   0.564 -1.6807 -2.2176  1.6619
  679SOL    HW2 2037   2.283   0.025   0.454  1.1553  0.0477  1.3502
  680SOL     OW 2038   0.355   2.294   2.244 -0.3399 -0.1141 -0.0649
  680SOL    HW1 2039   0.400   2.202   2.250  1.1131 -2.6922  0.2333
  680SOL    HW2 2040   0.426   2.368   2.218  1.5962 -1.4082 -1.9396
  681SOL     OW 2041   0.283   1.588   1.498  0.1407 -0.0653 -0.1881
  681SOL    HW1 2042   0.300   1.549   1.406 -0.4723  1.4226  1.9024
  681SOL    HW2 2043   0.277   1.692   1.492 -2.4296  0.4125 -1.1976
  682SOL     OW 2044   0.482   2.406   1.786  0.0712 -0.2886 -0.3562
  682SOL    HW1 2045   0.427   2.319   1.777  0.0295  0.8796 -0.2353
  682SOL    HW2 2046   0.418   2.485   1.808 -0.9822 -0.6263 -0.4430
  683SOL     OW 2047   0.038   1.931   1.732  0.0546 -0.3178  0.0534
  683SOL    HW1 2048   0.097   2.015   1.727 -1.7453 -0.7417 -0.1921
  683SOL    HW2 2049   0.083   1.854   1.687 -2.0423  4.0333  2.9476
  684SOL     OW 2050   2.507   1.649   2.977 -0.3806  0.1762 -0.4709
  684SOL    HW1 2051   2.479   1.652   3.074  0.2342 -1.1632 -0.1122
  684SOL    HW2 2052   2.604   1.613   2.964 -0.6572  0.9905 -0.2073
  685SOL     OW 2053   1.464   1.052   0.272 -0.2469  0.2486  0.6225
  685SOL    HW1 2054   1.525   0.971   0.250 -2.2958  1.3931 -2.7064
  685SOL    HW2 2055   1.507   1.134   0.235 -0.0906 -1.3882 -2.3819
  686SOL     OW 2056   0.161   0.086   0.651  0.0050  0.3280 -0.6365
  686SOL    HW1 2057   0.161   0.029   0.740  0.7493 -1.4025  0.9575
  686SOL    HW2 2058   0.156   0.182   0.677 -1.2706 -0.9552 -0.1382
  687SOL     OW 2059   0.951   1.405   2.649 -0.0523 -0.2883  0.0229
  687SOL    HW1 2060   1.032   1.383   2.592 -0.3086 -0.6023 -1.1870
  687SOL    HW2 2061   0.987   1.377   2.742  1.2944  0.5682 -1.1618
  688SOL     OW 2062   1.093   1.641   1.589  0.4689 -0.5742  0.1040
  688SOL    HW1 2063   1.011   1.602   1.542 -2.5587 -0.0525  1.1671
  688SOL    HW2 2064   1.073   1.731   1.625 -0.3140 -0.8202 -3.4905
  689SOL     OW 2065   2.495   0.170   1.353 -0.5696 -0.3996  0.2886
  689SOL    HW1 2066   2.579   0.144   1.302 -0.3162  0.7177  1.8878
  689SOL    HW2 2067   2.414   0.175   1.290  0.4884  1.1786 -0.1176
  690SOL     OW 2068   3.050   1.546   0.985  0.2127 -0.1029  0.3828
  690SOL    HW1 2069   3.106   1.611   1.042  0.5889  0.3204 -2.8789
  690SOL    HW2 2070   3.090   1.528   0.897 -1.9194  0.5172  0.8461
  691SOL     OW 2071   0.393   2.392   1.247 -0.0055 -0.2064  0.6192
  691SOL    HW1 2072   0.450   2.433   1.327 -2.4535  0.4224 -0.3007
  691SOL    HW2 2073   0.312   2.339   1.276 -0.9300 -0.3145 -3.0941
  692SOL     OW 2074   2.200   3.133   1.366  0.3283  0.1309  0.0692
  692SOL    HW1 2075   2.271   0.018   1.298  0.7960 -1.1408  1.4262
  692SOL    HW2 2076   2.182   0.070   1.431  0.4953  1.1265 -0.2794
  693SOL     OW 2077   0.238   2.026   2.417  0.1956 -0.4203 -0.1198
  693SOL    HW1 2078   0.230   1.938   2.464  1.3453  2.3204  0.5007
  693SOL    HW2 2079   0.146   2.051   2.379 -0.1622  0.8845  0.3484
  694SOL     OW 2080   1.680   1.063   1.646 -0.1678 -0.0817 -0.1247
  694SOL    HW1 2081   1.705   0.978   1.594 -2.4514  0.9754  0.9667
  694SOL    HW2 2082   1.638   1.124   1.578  1.3672  2.0964  3.0065
  695SOL     OW 2083   0.744   0.831   1.220 -0.1659 -0.3313  0.5896
  695SOL    HW1 2084   0.737   0.811   1.319 -0.5594  1.6198  0.5363
  695SOL    HW2 2085   0.817   0.767   1.180  0.2886  1.3820  2.3844
  696SOL     OW 2086   1.500   0.218   0.746 -0.1545 -0.0167  0.3474
  696SOL    HW1 2087   1.550   0.232   0.835  0.2537  0.3375 -0.0168
  696SOL    HW2 2088   1.520   0.134   0.700  0.3025 -0.4215  2.0479
  697SOL     OW 2089   1.034   0.410   1.249  0.4733  0.5550  0.0480
  697SOL    HW1 2090   1.049   0.410   1.350 -0.8942  0.9961  1.0886
  697SOL    HW2 2091   1.124   0.426   1.201  0.9409  0.3714  1.7464
  698SOL     OW 2092   1.367   1.110   2.186  0.8144  0.0662  0.8005
  698SOL    HW1 2093   1.288   1.113   2.254 -1.0145  1.5152  2.2139
  698SOL    HW2 2094   1.450   1.133   2.238 -0.7837  0.0980 -2.3313
  699SOL     OW 2095   1.789   0.584   1.049  0.0350  0.1234  0.3836
  699SOL    HW1 2096   1.889   0.559   1.027  4.1365 -0.3886 -1.8206
  699SOL    HW2 2097   1.763   0.676   1.014  0.7117  1.0226 -0.1496
  700SOL     OW 2098   0.805   2.510   0.162  0.0356 -0.2988  0.2680
  700SOL    HW1 2099   0.847   2.552   0.244  0.5546 -0.2139  0.3462
  700SOL    HW2 2100   0.838   2.415   0.161  1.9242 -1.1994  0.5432
  701SOL     OW 2101   2.122   2.396   2.986  0.1884  0.6081 -0.1707
  701SOL    HW1 2102   2.040   2.422   2.939  0.3839 -0.9046  1.1482
  701SOL    HW2 2103   2.198   2.367   2.921  1.9904 -3.5396  0.5940
  702SOL     OW 2104   0.627   0.310   0.751  0.8820 -0.3523  0.1471
  702SOL    HW1 2105   0.706   0.357   0.798 -1.2990  1.0394  1.1161
  702SOL    HW2 2106   0.643   0.314   0.650  0.9313  1.5490 -1.0650
  703SOL     OW 2107   2.432   0.122   2.482  0.7013  0.6521  0.4508
  703SOL    HW1 2108   2.411   0.051   2.409  0.3008 -0.8207  1.6514
  703SOL    HW2 2109   2.486   0.200   2.441 -0.0770  1.3501 -0.1348
  704SOL     OW 2110   3.135   2.384   0.532  0.1113  0.8114 -0.0202
  704SOL    HW1 2111   0.012   2.449   0.458 -0.1962 -1.8796  1.6062
  704SOL    HW2 2112   0.054   2.299   0.536  2.2727 -1.7415  1.5078
  705SOL     OW 2113   2.844   2.796   2.507 -0.6065 -0.1490  0.2508
  705SOL    HW1 2114   2.930   2.772   2.458  0.3020 -1.5765  0.8054
  705SOL    HW2 2115   2.806   2.879   2.471  0.3258 -3.2172  2.5931
  706SOL     OW 2116   2.027   2.940   1.202  0.3342  0.1345 -0.5451
  706SOL    HW1 2117   1.935   2.915   1.235  0.4278 -1.3822 -0.4168
  706SOL    HW2 2118   2.072   3.012   1.264  2.6955  1.9093 -1.0498
  707SOL     OW 2119   0.875   2.753   2.013 -0.1758  0.5665  0.8700
  707SOL    HW1 2120   0.900   2.767   1.919 -0.3024 -0.2715  2.5725
  707SOL    HW2 2121   0.881   2.661   2.050 -2.5224  1.0151  2.4013
  708SOL     OW 2122   0.114   2.148   2.078  0.1054 -0.0491  0.5101
  708SOL    HW1 2123   0.089   2.207   1.993 -0.0941  2.0745  0.3222
  708SOL    HW2 2124   0.168   2.195   2.153  1.1939  0.6278 -0.1366
  709SOL     OW 2125   1.964   0.283   1.820 -0.1068 -0.6651  0.4286
  709SOL    HW1 2126   1.893   0.349   1.782  0.3014  0.6850  0.1033
  709SOL    HW2 2127   1.916   0.208   1.869 -1.5602 -1.4095  2.4045
  710SOL     OW 2128   1.569   0.595   2.749  0.3982 -0.0456  0.2179
  710SOL    HW1 2129   1.627   0.531   2.702 -0.1739  2.4296 -2.1176
  710SOL    HW2 2130   1.567   0.686   2.701 -1.1561  0.7939  0.5569
  711SOL     OW 2131   0.868   2.055   2.671  0.3757  0.8425  0.0890
  711SOL    HW1 2132   0.855   2.156   2.690 -2.0909  1.6652  2.3593
  711SOL    HW2 2133   0.965   2.030   2.700  1.2881  0.1609 -0.3955
  712SOL     OW 2134   0.594   2.436   2.478 -0.1057  0.2001 -0.3151
  712SOL    HW1 2135   0.611   2.440   2.580  2.5061 -0.3329  2.7028
  712SOL    HW2 2136   0.617   2.342   2.443 -1.6150  2.2551 -0.9718
  713SOL     OW 2137   1.786   1.411   2.689 -0.0325 -0.1306  0.6767
  713SOL    HW1 2138   1.869   1.380   2.738  0.5694 -1.4160  0.4305
  713SOL    HW2 2139   1.808   1.478   2.614 -0.8912  3.0991  1.8361
  714SOL     OW 2140   1.247   1.710   1.963 -0.0225  0.5935  0.5123
  714SOL    HW1 2141   1.160   1.757   1.965  1.4032 -0.8164 -2.3703
  714SOL    HW2 2142   1.310   1.735   1.888 -0.5851 -0.9259 -1.9101
  715SOL     OW 2143   1.991   0.591   2.679  0.2787 -0.2047  0.8424
  715SOL    HW1 2144   2.086   0.565   2.648 -3.1777 -2.1523  2.7836
  715SOL    HW2 2145   1.927   0.522   2.640 -0.1687 -0.1518 -0.8799
  716SOL     OW 2146   0.113   2.208   1.715  0.5047  0.1974 -0.5028
  716SOL    HW1 2147   0.059   2.273   1.771  0.0074 -1.2923 -0.2968
  716SOL    HW2 2148   0.084   2.222   1.618  0.1643 -1.5280 -0.4184
  717SOL     OW 2149   2.558   1.306   0.638 -0.0362  0.1701 -0.6401
  717SOL    HW1 2150   2.551   1.361   0.722  0.1372 -2.2503 -2.1015
  717SOL    HW2 2151   2.549   1.203   0.656 -1.2313 -0.1446 -0.6568
  718SOL     OW 2152   1.197   2.083   2.056 -0.2850  0.2003  0.2491
  718SOL    HW1 2153   1.212   2.183   2.076 -0.8624  3.0996  0.3190
  718SOL    HW2 2154   1.133   2.040   2.126 -1.8432 -1.7450  0.1555
  719SOL     OW 2155   2.214   0.839   2.785  0.0088  0.4913  0.1613
  719SOL    HW1 2156   2.116   0.864   2.764  0.8421  0.0438  0.6074
  719SOL    HW2 2157   2.220   0.755   2.839 -0.0986  0.2102 -2.1031
  720SOL     OW 2158   0.868   0.357   0.894  0.2059 -0.3039  0.0242
  720SOL    HW1 2159   0.842   0.340   0.995 -0.4777  0.4510  0.7300
  720SOL    HW2 2160   0.916   0.270   0.865 -0.6597 -0.3699  0.6610
  721SOL     OW 2161   2.887   0.863   0.610 -0.0614 -0.0572  0.3833
  721SOL    HW1 2162   2.970   0.820   0.570  1.3258  2.3482 -0.9194
  721SOL    HW2 2163   2.802   0.843   0.556  1.6107  0.4436  0.9869
  722SOL     OW 2164   3.091   0.354   2.697 -0.5090  0.4820  0.1209
  722SOL    HW1 2165   2.991   0.365   2.685  2.8597  0.3818  1.7878
  722SOL    HW2 2166   0.012   0.435   2.675  3.8720  0.8621  0.0384
  723SOL     OW 2167   1.653   0.251   0.395  0.5702  0.0312  0.0206
  723SOL    HW1 2168   1.562   0.296   0.379 -1.1653  1.3752 -2.7491
  723SOL    HW2 2169   1.644   0.177   0.464 -0.6288  2.0525  0.3295
  724SOL     OW 2170   0.796   1.935   2.315  0.2601 -0.0742  0.1760
  724SOL    HW1 2171   0.708   1.921   2.264  0.2426  2.6221 -1.3208
  724SOL    HW2 2172   0.799   1.892   2.408  1.9837  1.9006  0.4023
  725SOL     OW 2173   1.598   3.111   0.924  0.1204 -0.2373  0.6619
  725SOL    HW1 2174   1.679   3.073   0.876  0.4975 -0.5176  2.3835
  725SOL    HW2 2175   1.631   0.048   0.972  1.3370 -1.2197 -0.9057
  726SOL     OW 2176   1.912   2.604   0.113  0.6098  0.3031 -0.0317
  726SOL    HW1 2177   1.903   2.503   0.126  1.5201  1.5818 -1.1299
  726SOL    HW2 2178   2.002   2.636   0.144  1.8762 -1.2714 -1.1614
  727SOL     OW 2179   1.471   1.651   0.924  0.3930  0.4558 -0.1808
  727SOL    HW1 2180   1.425   1.740   0.926  0.0627 -3.3551 -1.3515
  727SOL    HW2 2181   1.504   1.632   0.830 -0.7129 -0.3159  2.7374
  728SOL     OW 2182   2.264   2.780   1.782 -0.4463  1.0019 -0.3092
  728SOL    HW1 2183   2.234   2.806   1.687  0.2257 -0.0611 -1.0051
  728SOL    HW2 2184   2.351   2.726   1.786 -0.3667 -0.5768 -0.2258
  729SOL     OW 2185   2.251   1.949   1.313 -0.2525 -0.9549 -0.0985
  729SOL    HW1 2186   2.238   1.851   1.346 -2.4946 -1.4434 -0.2249
  729SOL    HW2 2187   2.186   1.969   1.237  1.7555 -1.8326  0.5709
  730SOL     OW 2188   1.498   0.594   3.005  0.2650 -0.3272 -0.7368
  730SOL    HW1 2189   1.519   0.603   2.909  0.4638 -1.4043  3.4097
  730SOL    HW2 2190   1.569   0.542   3.063  1.3112 -1.5392 -0.5387
  731SOL     OW 2191   0.521   0.075   0.652 -0.8165 -0.5056  0.3187
  731SOL    HW1 2192   0.486   0.095   0.557  0.3728 -0.1870 -1.0585
  731SOL    HW2 2193   0.556   0.152   0.705  0.0946  1.0734 -0.9685
  732SOL     OW 2194   1.434   0.434   0.555  0.3310 -0.1449  0.0525
  732SOL    HW1 2195   1.410   0.399   0.462 -3.1279 -0.8335 -0.5552
  732SOL    HW2 2196   1.474   0.361   0.616 -0.1653 -3.3801  1.7723
  733SOL     OW 2197   0.856   1.544   1.455  0.5713  0.1398  0.2125
  733SOL    HW1 2198   0.800   1.458   1.471  1.3341 -2.8763 -0.3780
  733SOL    HW2 2199   0.811   1.593   1.376 -0.9146 -1.8156  0.2491
  734SOL     OW 2200   2.693   2.747   3.052  0.6342  0.2808 -0.5018
  734SOL    HW1 2201   2.635   2.822   3.095 -2.6486  4.4006 -0.7092
  734SOL    HW2 2202   2.632   2.683   3.001  1.3414 -0.1554  2.7639
  735SOL     OW 2203   1.185   2.956   1.156 -0.3768  0.4168 -0.3005
  735SOL    HW1 2204   1.088   2.938   1.135  1.8222  0.3804 -0.5951
  735SOL    HW2 2205   1.232   3.008   1.083 -2.4303 -3.0611 -2.2743
  736SOL     OW 2206   1.788   1.834   0.431 -0.3186  0.7252 -0.6469
  736SOL    HW1 2207   1.831   1.909   0.374 -0.4764  1.3652  1.2400
  736SOL    HW2 2208   1.851   1.758   0.446 -1.5305 -0.1818 -0.6933
  737SOL     OW 2209   0.100   1.668   1.113 -0.2344  0.0464  0.1409
  737SOL    HW1 2210   0.190   1.620   1.115  0.7685  0.6424 -0.8537
  737SOL    HW2 2211   0.067   1.687   1.209 -0.4050  0.1856 -3.2029
  738SOL     OW 2212   2.005   2.263   2.679 -0.0116  0.4165  0.0421
  738SOL    HW1 2213   2.089   2.307   2.638  1.0118 -3.8604 -0.1667
  738SOL    HW2 2214   1.964   2.335   2.743 -1.4505  2.4417 -0.7509
  739SOL     OW 2215   1.118   1.911   2.834  0.3732  0.1248  0.0941
  739SOL    HW1 2216   1.153   1.998   2.877  1.0399 -1.8523  0.0525
  739SOL    HW2 2217   1.178   1.832   2.862 -1.7381  2.8169 -0.5995
  740SOL     OW 2218   1.315   3.082   0.938  0.1260 -0.4364 -0.1410
  740SOL    HW1 2219   1.412   3.114   0.929 -1.7053  1.3229  0.0565
  740SOL    HW2 2220   1.269   3.064   0.847  0.3167 -0.4811 -1.8887
  741SOL     OW 2221   0.336   1.076   0.688 -0.0567  0.1188 -0.8104
  741SOL    HW1 2222   0.286   1.115   0.769 -0.8786 -2.8850 -2.8235
  741SOL    HW2 2223   0.432   1.041   0.708  3.0046 -1.9624 -4.7555
  742SOL     OW 2224   1.090   1.855   2.551  0.4605 -0.4622  0.3828
  742SOL    HW1 2225   1.117   1.878   2.646  1.1041  0.2524  0.2885
  742SOL    HW2 2226   0.997   1.814   2.555 -1.8481 -2.3855  1.8758
  743SOL     OW 2227   1.064   0.972   2.102 -0.1862  0.2896 -0.5823
  743SOL    HW1 2228   0.968   1.003   2.101  1.1530  1.4280  1.6884
  743SOL    HW2 2229   1.128   1.013   2.032  2.5807 -0.6231  0.5254
  744SOL     OW 2230   2.094   0.167   1.615  0.4121  0.3552 -0.1187
  744SOL    HW1 2231   2.050   0.227   1.683 -2.2560  0.1483  2.5243
  744SOL    HW2 2232   2.029   0.087   1.605 -2.1167 -2.0384 -0.6768
  745SOL     OW 2233   2.172   1.197   1.697  0.1872  0.2946  0.2491
  745SOL    HW1 2234   2.207   1.282   1.746  0.7829  1.2869  0.9756
  745SOL    HW2 2235   2.147   1.117   1.759  1.1266 -0.2133 -2.2875
  746SOL     OW 2236   1.985   1.169   0.540  0.3493 -0.2577 -0.1053
  746SOL    HW1 2237   1.971   1.255   0.486  0.4080  0.6090 -1.1421
  746SOL    HW2 2238   1.932   1.089   0.505 -1.9887 -2.8619  1.1919
  747SOL     OW 2239   2.492   1.760   0.792 -0.2623  0.0110 -0.1750
  747SOL    HW1 2240   2.567   1.812   0.744 -2.3285  0.0454  0.3354
  747SOL    HW2 2241   2.400   1.797   0.761 -0.1716  1.0948 -1.9001
  748SOL     OW 2242   0.182   1.964   0.365 -0.0059  0.3262 -0.4721
  748SOL    HW1 2243   0.248   1.970   0.285 -2.5890  1.2437  0.1717
  748SOL    HW2 2244   0.171   1.868   0.389 -0.9031  1.2889 -1.7135
  749SOL     OW 2245   2.973   2.465   2.898 -0.1692  0.1446 -0.0318
  749SOL    HW1 2246   2.937   2.411   2.819 -0.1466 -0.7601  0.0765
  749SOL    HW2 2247   2.949   2.565   2.890  1.3402 -1.1274 -2.5710
  750SOL     OW 2248   2.184   0.762   0.619 -0.4984 -0.0945 -0.1754
  750SOL    HW1 2249   2.280   0.727   0.592  2.0603 -2.1489  0.2340
  750SOL    HW2 2250   2.189   0.867   0.614  0.5574 -1.2496 -1.8149
  751SOL     OW 2251   2.592   0.097   0.096  0.4302 -0.1427  0.3213
  751SOL    HW1 2252   2.527   0.156   0.045  0.6710 -0.2744  1.6363
  751SOL    HW2 2253   2.654   0.046   0.032 -1.0190  0.8922 -0.7073
  752SOL     OW 2254   2.815   2.767   0.883 -0.1089  0.2105 -0.2293
  752SOL    HW1 2255   2.872   2.812   0.956  5.0842  1.5238  1.8317
  752SOL    HW2 2256   2.855   2.675   0.857  0.6318  1.0110 -1.8503
  753SOL     OW 2257   1.588   1.179   2.342  0.0292 -0.6076 -0.1071
  753SOL    HW1 2258   1.686   1.205   2.368 -0.5070  1.3328  0.9277
  753SOL    HW2 2259   1.516   1.248   2.374  0.4793  1.4810 -0.7826
  754SOL     OW 2260   1.909   2.090   1.847  0.7515  0.0149 -0.6693
  754SOL    HW1 2261   1.910   2.058   1.750  1.3782 -0.5856 -1.4195
  754SOL    HW2 2262   1.972   2.034   1.897 -1.1342  2.9279  2.3514
  755SOL     OW 2263   2.515   0.968   0.915 -0.8066  0.5271 -0.2823
  755SOL    HW1 2264   2.584   0.895   0.937 -0.4881 -0.5699 -3.5245
  755SOL    HW2 2265   2.502   1.033   0.992  0.7216 -0.5647 -1.7137
  756SOL     OW 2266   0.652   1.416   2.976 -0.4017  0.0068 -0.1370
  756SOL    HW1 2267   0.555   1.391   2.968  1.2661  0.8018  0.8080
  756SOL    HW2 2268   0.682   1.466   2.890 -2.2955 -0.8086  0.9239
  757SOL     OW 2269   1.804   2.468   1.312  0.1234 -0.1635  0.3974
  757SOL    HW1 2270   1.732   2.469   1.242  0.1096 -1.4292  3.8634
  757SOL    HW2 2271   1.896   2.488   1.283  0.0617  1.6683 -0.5371
  758SOL     OW 2272   1.440   2.432   1.515 -0.7860  0.1036 -0.2295
  758SOL    HW1 2273   1.455   2.478   1.430 -1.6824 -2.6899  0.9017
  758SOL    HW2 2274   1.394   2.486   1.586  0.5946 -0.5621  0.2225
  759SOL     OW 2275   2.871   1.414   1.127  0.0447 -0.0870 -0.6526
  759SOL    HW1 2276   2.846   1.491   1.188 -3.6333  0.1642 -0.4253
  759SOL    HW2 2277   2.938   1.439   1.054 -0.6776  0.0990 -1.0964
  760SOL     OW 2278   2.323   1.244   1.445 -0.5684  0.4960  0.3644
  760SOL    HW1 2279   2.254   1.209   1.380 -2.1377 -0.1525  1.0799
  760SOL    HW2 2280   2.299   1.203   1.536 -1.3513 -1.4511  2.9189
  761SOL     OW 2281   1.913   0.004   0.211  0.0574 -0.2526 -0.3434
  761SOL    HW1 2282   1.934   3.091   0.292 -0.4467 -0.7526  2.0540
  761SOL    HW2 2283   1.898   0.105   0.238  1.2176  1.8912 -0.1206
  762SOL     OW 2284   1.826   1.741   3.027  0.4604 -0.2100  0.2072
  762SOL    HW1 2285   1.806   1.645   3.004 -1.2898  2.5779  1.0789
  762SOL    HW2 2286   1.904   1.778   2.973  0.4335  0.3549 -0.0855
  763SOL     OW 2287   0.630   2.098   1.639  0.1829 -0.5273  0.2741
  763SOL    HW1 2288   0.620   2.001   1.612 -2.5874  1.0581 -2.3147
  763SOL    HW2 2289   0.542   2.142   1.656  0.6901 -0.7136  0.2943
  764SOL     OW 2290   3.121   2.637   0.098 -0.8684  0.4386  0.0758
  764SOL    HW1 2291   3.029   2.594   0.110 -0.6961  3.9326 -0.0285
  764SOL    HW2 2292   0.014   2.627   0.003  1.1431  3.3932  1.3207
  765SOL     OW 2293   0.582   3.122   1.236 -0.5707 -0.1795 -0.4058
  765SOL    HW1 2294   0.667   3.139   1.188  0.4686 -1.1463 -2.0770
  765SOL    HW2 2295   0.551   3.030   1.215 -0.2970  0.9349 -3.6704
  766SOL     OW 2296   2.909   2.111   2.057 -0.1868 -0.8255 -0.4209
  766SOL    HW1 2297   2.986   2.108   2.124 -1.3992  1.7504  1.6328
  766SOL    HW2 2298   2.861   2.020   2.057  1.1005  0.9451 -1.0685
  767SOL     OW 2299   2.731   0.959   2.140  0.0075  0.3982  0.3233
  767SOL    HW1 2300   2.661   0.884   2.121 -0.9811  1.7053 -1.7318
  767SOL    HW2 2301   2.828   0.931   2.148 -3.7252  2.7678  0.3332
  768SOL     OW 2302   1.073   0.440   2.657  0.3867 -0.0379  0.4112
  768SOL    HW1 2303   1.035   0.465   2.747 -0.7771  1.3142 -3.4030
  768SOL    HW2 2304   1.085   0.336   2.659 -0.0213  0.8165 -1.4826
  769SOL     OW 2305   2.535   2.816   0.807 -0.5163  0.6550 -0.1681
  769SOL    HW1 2306   2.621   2.762   0.798 -0.6890  1.2543 -4.4360
  769SOL    HW2 2307   2.452   2.759   0.835 -1.7798 -1.1105 -1.0268
  770SOL     OW 2308   0.096   3.087   2.800 -0.5406  0.6504 -0.1768
  770SOL    HW1 2309   0.127   3.130   2.712 -0.5651 -0.2710  1.0879
  770SOL    HW2 2310   0.024   0.000   2.847 -0.9922  2.7000 -0.4573
  771SOL     OW 2311   1.708   2.158   2.036  0.2846 -0.2160 -0.1034
  771SOL    HW1 2312   1.778   2.154   1.959 -0.0146 -2.8820  1.0468
  771SOL    HW2 2313   1.662   2.069   2.039 -0.3877  4.0853  0.9341
  772SOL     OW 2314   1.305   0.081   3.006  0.7550  0.0090  0.5737
  772SOL    HW1 2315   1.216   0.035   2.990  1.1471  1.1058  1.1399
  772SOL    HW2 2316   1.377   0.008   2.992  0.3745  0.2187  0.8533
  773SOL     OW 2317   2.501   0.490   1.612  0.0058  0.1681 -0.0151
  773SOL    HW1 2318   2.596   0.465   1.636 -1.6773  0.1205  1.6591
  773SOL    HW2 2319   2.468   0.572   1.658  3.5991  2.8412 -0.5292
  774SOL     OW 2320   0.996   1.124   1.314  0.5124 -0.8353  0.6735
  774SOL    HW1 2321   1.050   1.061   1.253 -0.9349  0.2168 -2.8799
  774SOL    HW2 2322   0.906   1.130   1.263  1.3139  1.8757 -2.8732
  775SOL     OW 2323   2.322   2.873   2.928 -0.0032 -0.1601 -0.5405
  775SOL    HW1 2324   2.347   2.965   2.967 -0.1251 -0.1630  1.6592
  775SOL    HW2 2325   2.278   2.806   2.993 -0.7000 -1.1972 -2.2208
  776SOL     OW 2326   2.489   0.985   1.800  0.0752 -0.3145 -0.3692
  776SOL    HW1 2327   2.491   1.019   1.898 -0.9282 -1.6885 -0.1016
  776SOL    HW2 2328   2.490   1.069   1.744 -0.7009  3.1257  3.3619
  777SOL     OW 2329   0.258   1.097   2.138  0.1536  0.6213  0.0855
  777SOL    HW1 2330   0.269   0.991   2.138 -1.1161 -2.7102  0.2953
  777SOL    HW2 2331   0.352   1.133   2.171  3.5500  1.2400  3.1898
  778SOL     OW 2332   0.544   0.733   3.039 -0.0029 -0.3549 -0.0588
  778SOL    HW1 2333   0.481   0.780   2.977  0.2479  0.4415 -1.0280
  778SOL    HW2 2334   0.545   0.637   3.006  2.0275  3.8255 -0.8461
  779SOL     OW 2335   0.701   0.422   2.437 -0.2061  0.0267  0.3351
  779SOL    HW1 2336   0.739   0.333   2.462 -1.1866 -0.4482  1.1669
  779SOL    HW2 2337   0.600   0.425   2.428 -0.1130  1.4386  0.2050
  780SOL     OW 2338   2.199   1.300   2.781 -0.0680  0.4565  0.5661
  780SOL    HW1 2339   2.287   1.307   2.829 -0.3068  0.4226 -0.3499
  780SOL    HW2 2340   2.217   1.268   2.687  0.0175 -0.1181 -0.8887
  781SOL     OW 2341   2.979   1.200   2.067  0.2172  0.1522 -0.4041
  781SOL    HW1 2342   2.919   1.198   1.988  1.8767  1.6924 -0.3469
  781SOL    HW2 2343   2.976   1.108   2.111 -4.2669  1.3398  2.1621
  782SOL     OW 2344   0.372   1.510   2.717  0.0186  0.1288  0.4244
  782SOL    HW1 2345   0.364   1.411   2.731  1.7505  4.0899 -0.3879
  782SOL    HW2 2346   0.286   1.560   2.741  1.0383 -1.9833  0.2703
  783SOL     OW 2347   1.201   2.160   1.125  0.3785  0.3509 -0.2009
  783SOL    HW1 2348   1.229   2.182   1.220 -1.2103  0.6973  0.1368
  783SOL    HW2 2349   1.211   2.238   1.063  0.3809 -0.7980 -1.8738
  784SOL     OW 2350   1.719   0.410   2.631  0.9403  0.2743  0.2232
  784SOL    HW1 2351   1.723   0.313   2.655  1.2023  0.3968 -0.7279
  784SOL    HW2 2352   1.725   0.425   2.530 -0.6384 -1.0700  1.1126
  785SOL     OW 2353   0.668   0.030   1.848 -0.3457  0.2873 -0.4556
  785SOL    HW1 2354   0.661   3.071   1.824 -1.5548  0.2971  1.9050
  785SOL    HW2 2355   0.708   0.086   1.773 -1.7801 -0.8681 -0.3976
  786SOL     OW 2356   0.554   2.198   0.321  0.1010 -0.3354 -0.2886
  786SOL    HW1 2357   0.526   2.111   0.283  1.8054  1.8535  1.2685
  786SOL    HW2 2358   0.559   2.192   0.424  2.5677 -0.4697  1.1192
  787SOL     OW 2359   1.146   0.649   0.431  0.2050 -0.4530  0.9763
  787SOL    HW1 2360   1.187   0.679   0.342  0.7404 -0.5200 -0.2646
  787SOL    HW2 2361   1.068   0.700   0.470 -0.4444 -0.1206  0.2462
  788SOL     OW 2362   2.711   1.694   1.184 -0.2394  0.1487  0.2690
  788SOL    HW1 2363   2.805   1.692   1.232  1.3232  0.9687  2.4613
  788SOL    HW2 2364   2.643   1.747   1.232  0.5413 -2.9989 -2.3584
  789SOL     OW 2365   2.695   1.113   2.380  0.1345 -0.1425 -0.5553
  789SOL    HW1 2366   2.701   1.054   2.299  1.0724 -0.3518  0.5738
  789SOL    HW2 2367   2.660   1.207   2.359  2.0176  0.4028 -1.4568
  790SOL     OW 2368   0.794   0.078   3.044  0.4370  0.3874 -0.0522
  790SOL    HW1 2369   0.815   0.059   0.000 -0.8849 -2.5748 -2.9660
  790SOL    HW2 2370   0.765   0.177   3.030 -2.7387  0.5588  0.0827
  791SOL     OW 2371   2.996   0.389   3.105 -0.0372 -0.2961 -0.2836
  791SOL    HW1 2372   2.916   0.348   3.058  3.1763  0.0636  0.9584
  791SOL    HW2 2373   2.996   0.357   0.058  1.3223  2.1819 -0.6063
  792SOL     OW 2374   1.520   0.938   2.467  0.8388 -0.1656  0.3690
  792SOL    HW1 2375   1.426   0.917   2.431 -2.5089  0.1504  0.9295
  792SOL    HW2 2376   1.563   1.017   2.420  0.1773 -0.3009  0.3287
  793SOL     OW 2377   3.127   0.243   0.894 -0.0372  0.0056  0.3959
  793SOL    HW1 2378   3.044   0.212   0.845 -1.8289  1.3618  0.1612
  793SOL    HW2 2379   3.105   0.295   0.976  0.1623 -1.8340  0.0220
  794SOL     OW 2380   0.250   0.436   1.956  0.0628 -0.3170 -0.0878
  794SOL    HW1 2381   0.286   0.502   1.889  0.4245  0.4865 -1.3915
  794SOL    HW2 2382   0.151   0.423   1.949 -0.4745  2.5616  0.2852
  795SOL     OW 2383   0.297   1.100   0.414 -0.6630 -0.1203  0.0781
  795SOL    HW1 2384   0.389   1.133   0.373 -1.4942 -2.1365 -0.4997
  795SOL    HW2 2385   0.309   1.089   0.516 -0.4665 -2.1381  0.5636
  796SOL     OW 2386   0.065   0.891   0.090  0.1065  0.0976 -0.5932
  796SOL    HW1 2387   0.116   0.828   0.158  1.9452  0.0828  1.5123
  796SOL    HW2 2388   0.102   0.988   0.082 -0.1847  0.6808 -0.7451
  797SOL     OW 2389   1.882   2.642   2.599 -0.3214 -0.6891  0.2154
  797SOL    HW1 2390   1.893   2.728   2.657  1.2853 -1.2106  1.1249
  797SOL    HW2 2391   1.792   2.646   2.556  5.2117 -1.9166 -1.8817
  798SOL     OW 2392   0.209   0.161   1.229  0.5456 -0.0058 -0.3441
  798SOL    HW1 2393   0.152   0.242   1.251  0.5065 -1.4787  0.2823
  798SOL    HW2 2394   0.292   0.186   1.176 -0.5843  1.8510 -2.7343
  799SOL     OW 2395   2.242   0.653   1.959 -0.4593 -0.7528 -0.1011
  799SOL    HW1 2396   2.261   0.706   1.876 -1.3287 -0.4357 -0.8472
  799SOL    HW2 2397   2.254   0.552   1.936  0.9401 -0.4408  0.5474
  800SOL     OW 2398   0.010   1.747   0.498 -0.4403  0.5078  0.6860
  800SOL    HW1 2399   0.009   1.656   0.447 -0.2470  0.2177  0.4488
  800SOL    HW2 2400   3.060   1.761   0.542  0.7850 -2.5030 -0.5092
  801SOL     OW 2401   1.406   1.909   0.755 -0.5851  0.2216  0.0696
  801SOL    HW1 2402   1.400   1.946   0.849 -0.3100 -1.4472 -3.5798
  801SOL    HW2 2403   1.506   1.880   0.742  0.0398 -3.8436  0.0629
  802SOL     OW 2404   1.533   1.082   2.881  0.5594  0.4827  0.6259
  802SOL    HW1 2405   1.511   1.166   2.831  0.7655 -1.7243  0.4009
  802SOL    HW2 2406   1.570   1.018   2.815 -1.2533  1.8379  1.5509
  803SOL     OW 2407   0.381   2.161   1.704 -0.1874  0.0676  0.3346
  803SOL    HW1 2408   0.285   2.185   1.713  3.4863  0.4876  2.2937
  803SOL    HW2 2409   0.391   2.063   1.736 -0.2091 -3.1278 -2.3478
  804SOL     OW 2410   1.664   2.399   1.068 -0.6445 -0.3743  0.2849
  804SOL    HW1 2411   1.756   2.404   1.025 -1.3331  2.5088  0.0823
  804SOL    HW2 2412   1.609   2.316   1.043  0.1758 -0.3180  2.6854
  805SOL     OW 2413   2.339   2.254   2.811  0.2463 -0.2882  0.3916
  805SOL    HW1 2414   2.400   2.308   2.871  0.2364  0.2040 -4.1482
  805SOL    HW2 2415   2.346   2.159   2.834 -2.2354  1.9547  1.1542
  806SOL     OW 2416   2.929   0.153   0.733 -0.5464 -0.0292 -0.3374
  806SOL    HW1 2417   2.881   0.244   0.716 -1.2174  3.9952 -0.6021
  806SOL    HW2 2418   2.947   0.106   0.644  1.4815  0.8120 -0.4677
  807SOL     OW 2419   3.085   1.319   2.877  0.0548 -0.0110 -0.4316
  807SOL    HW1 2420   3.018   1.273   2.935  0.1876  1.2205 -2.3629
  807SOL    HW2 2421   3.040   1.374   2.805 -1.1657  1.9736  1.0996
  808SOL     OW 2422   0.724   1.766   0.723  0.3918 -0.1242 -0.4465
  808SOL    HW1 2423   0.639   1.717   0.693 -1.9942 -1.0217  3.9463
  808SOL    HW2 2424   0.700   1.849   0.777  2.1490 -1.3766  0.2173
  809SOL     OW 2425   2.916   0.122   2.182 -0.4552 -0.7419 -0.2698
  809SOL    HW1 2426   2.834   0.168   2.140 -0.8313 -2.5382 -0.2581
  809SOL    HW2 2427   2.935   0.155   2.278  0.1638  3.3661 -0.4146
  810SOL     OW 2428   1.334   0.584   1.233  0.5395  0.0081  0.1821
  810SOL    HW1 2429   1.361   0.632   1.149 -0.3568  1.4421  1.6761
  810SOL    HW2 2430   1.278   0.646   1.295 -0.4194  2.1727  0.1953
  811SOL     OW 2431   1.917   0.019   2.047 -0.1619 -0.6753  0.3658
  811SOL    HW1 2432   1.878   3.074   2.005  0.1892 -1.6750  0.1205
  811SOL    HW2 2433   1.863   0.045   2.125 -3.8217  0.3758  0.8226
  812SOL     OW 2434   1.989   2.167   0.666  0.1768  0.3011  0.2863
  812SOL    HW1 2435   1.887   2.150   0.666 -0.0105  1.8216  1.2609
  812SOL    HW2 2436   2.035   2.128   0.584 -1.4393  0.8999 -0.7016
  813SOL     OW 2437   1.205   0.440   1.770 -0.3659 -0.2215  0.0806
  813SOL    HW1 2438   1.114   0.447   1.811  1.4686 -0.2863 -1.1934
  813SOL    HW2 2439   1.258   0.528   1.782  0.2822  0.6164 -0.7826
  814SOL     OW 2440   0.153   3.100   0.905 -0.1416  0.2824  0.1980
  814SOL    HW1 2441   0.253   3.069   0.899  0.5628  0.6349 -1.2552
  814SOL    HW2 2442   0.110   3.087   0.999 -0.6318 -0.8375  1.1887
  815SOL     OW 2443   3.057   0.016   0.534 -0.3590 -0.3396 -0.3032
  815SOL    HW1 2444   3.053   3.053   0.538 -1.0632 -0.5012 -0.9899
  815SOL    HW2 2445   0.005   0.052   0.578  2.2552 -1.7412  0.6590
  816SOL     OW 2446   2.452   1.770   2.282  0.0318 -0.1815  0.3535
  816SOL    HW1 2447   2.396   1.846   2.240 -0.0230 -1.0449 -0.7431
  816SOL    HW2 2448   2.436   1.775   2.380 -1.9160 -1.6939  1.2849
  817SOL     OW 2449   1.122   3.087   0.670  0.0489 -0.3049 -0.4282
  817SOL    HW1 2450   1.164   0.039   0.675 -1.9408  1.0148 -1.3859
  817SOL    HW2 2451   1.187   3.010   0.676 -2.2537  1.5034  0.8100
  818SOL     OW 2452   1.866   0.293   3.136  0.1874 -0.5125 -0.3957
  818SOL    HW1 2453   1.924   0.242   3.078 -2.8257 -0.2948  2.2888
  818SOL    HW2 2454   1.911   0.307   0.086 -1.8087 -1.4582 -0.7288
  819SOL     OW 2455   2.130   3.112   0.038  1.0546  0.0785 -0.5677
  819SOL    HW1 2456   2.159   3.015   0.060  0.0301  1.5251  0.5277
  819SOL    HW2 2457   2.042   3.129   0.090 -1.0585  2.7256 -0.5118
  820SOL     OW 2458   1.944   1.303   2.909  0.5333  0.1799 -0.5113
  820SOL    HW1 2459   1.948   1.243   2.994 -2.3912  1.7800  1.0562
  820SOL    HW2 2460   2.033   1.301   2.860  0.1953 -3.2445  0.1170
  821SOL     OW 2461   3.038   0.590   1.223 -0.0548  0.2795  0.1815
  821SOL    HW1 2462   2.956   0.566   1.164 -0.2232 -3.5477 -0.1008
  821SOL    HW2 2463   3.117   0.619   1.168 -1.1602 -0.3796  1.8631
  822SOL     OW 2464   1.266   2.782   2.487  0.3074 -0.2307  0.0596
  822SOL    HW1 2465   1.220   2.695   2.458  1.0069 -0.8729  0.8885
  822SOL    HW2 2466   1.241   2.795   2.585  0.0419  0.5462 -2.8611
  823SOL     OW 2467   0.512   1.503   1.948  0.2914  0.2503 -0.4270
  823SOL    HW1 2468   0.557   1.570   1.891 -1.6840 -0.7132 -2.0618
  823SOL    HW2 2469   0.475   1.550   2.031 -1.0759  1.4470 -0.8410
  824SOL     OW 2470   1.664   2.608   2.448  0.1826 -0.1978  0.2616
  824SOL    HW1 2471   1.708   2.566   2.362  0.1892  0.6156 -1.2144
  824SOL    HW2 2472   1.598   2.674   2.407 -0.7862 -2.1624 -0.1730
  825SOL     OW 2473   1.682   0.853   0.281 -0.1132  0.0181  0.2650
  825SOL    HW1 2474   1.770   0.879   0.238 -0.3273  0.4988 -1.5861
  825SOL    HW2 2475   1.691   0.883   0.379  0.8794  1.6295 -0.2930
  826SOL     OW 2476   2.029   0.786   0.037  0.8007 -0.0991  0.2862
  826SOL    HW1 2477   1.983   0.704   3.139 -1.2098  2.2662  1.5089
  826SOL    HW2 2478   2.125   0.795   0.007 -0.9449 -1.2985  2.6318
  827SOL     OW 2479   0.674   1.954   2.865  0.2074 -0.3806  0.5228
  827SOL    HW1 2480   0.582   1.930   2.826  0.0174  1.1767 -0.3828
  827SOL    HW2 2481   0.727   2.015   2.804 -0.8522 -0.8727 -0.8742
  828SOL     OW 2482   2.477   1.447   1.358  0.0967  0.1100  0.4959
  828SOL    HW1 2483   2.488   1.523   1.424  2.3574 -0.3946 -1.7449
  828SOL    HW2 2484   2.416   1.371   1.389 -0.1558  0.0534  1.0898
  829SOL     OW 2485   0.323   1.486   0.947  0.2307  0.1397 -0.0724
  829SOL    HW1 2486   0.327   1.560   0.874 -1.2404  2.5780  1.3367
  829SOL    HW2 2487   0.417   1.451   0.954 -3.7300  3.3164  0.3758
  830SOL     OW 2488   1.178   0.965   1.190 -0.1916 -0.2955  0.7713
  830SOL    HW1 2489   1.271   0.996   1.160  3.3724 -1.0079  1.2398
  830SOL    HW2 2490   1.191   0.914   1.276 -0.6989  2.4031 -0.6251
  831SOL     OW 2491   0.347   1.968   0.154  0.3401  0.1547 -0.1276
  831SOL    HW1 2492   0.357   2.056   0.109  2.6848 -0.2798  2.0601
  831SOL    HW2 2493   0.335   1.891   0.082  1.6472  1.6059  2.2352
  832SOL     OW 2494   0.797   0.346   3.049  0.0076 -0.0574  0.2390
  832SOL    HW1 2495   0.875   0.360   2.985  0.2947  0.8193 -3.5721
  832SOL    HW2 2496   0.825   0.349   0.002  0.6563  1.4994 -0.3068
  833SOL     OW 2497   0.657   0.659   2.068 -0.0420 -0.2252 -0.4731
  833SOL    HW1 2498   0.699   0.739   2.024 -1.3060 -3.6803 -0.0480
  833SOL    HW2 2499   0.661   0.580   2.003 -1.5681 -1.6980 -1.1341
  834SOL     OW 2500   0.132   0.391   0.722 -0.2114  0.0865  0.1310
  834SOL    HW1 2501   0.058   0.344   0.771 -2.0983  1.5870  0.4307
  834SOL    HW2 2502   0.216   0.391   0.777  0.5731 -3.1496 -1.8631
  835SOL     OW 2503   2.795   3.103   0.936  0.4875 -0.4242 -0.4484
  835SOL    HW1 2504   2.837   0.037   0.876  2.0557 -1.3063  0.4105
  835SOL    HW2 2505   2.856   3.047   0.992 -1.5110 -0.5829 -0.1840
  836SOL     OW 2506   0.369   2.158   3.077  0.1841  0.1779  0.6624
  836SOL    HW1 2507   0.278   2.202   3.096 -0.6736 -1.6482 -1.2851
  836SOL    HW2 2508   0.432   2.212   3.020  0.6776 -0.3788  0.2098
  837SOL     OW 2509   1.610   1.720   2.707 -0.6664  0.3390 -0.5629
  837SOL    HW1 2510   1.706   1.749   2.686 -1.8408  1.0040  2.2135
  837SOL    HW2 2511   1.600   1.668   2.797 -0.4726  0.0027 -0.8431
  838SOL     OW 2512   2.991   1.092   1.689 -0.5248 -0.4330  0.5102
  838SOL    HW1 2513   3.038   1.094   1.600  0.3058  0.1463  0.0460
  838SOL    HW2 2514   3.006   1.181   1.736  2.3613 -1.4663 -0.4006
  839SOL     OW 2515   0.774   1.003   0.816 -0.4319 -0.6581 -0.2153
  839SOL    HW1 2516   0.871   1.019   0.783  3.4519  0.1491  0.2298
  839SOL    HW2 2517   0.717   0.972   0.742 -0.4541  2.0285  1.8500
  840SOL     OW 2518   1.546   2.806   1.624  0.2122  0.1746 -0.4363
  840SOL    HW1 2519   1.635   2.756   1.611  0.1027  0.0409 -0.8609
  840SOL    HW2 2520   1.536   2.881   1.554 -0.6306  0.7235 -3.1242
  841SOL     OW 2521   0.478   2.569   0.482 -0.0933 -0.1561 -0.4184
  841SOL    HW1 2522   0.431   2.630   0.413 -1.0381 -0.0621 -3.9311
  841SOL    HW2 2523   0.422   2.495   0.516  1.6645  1.1275 -1.6298
  842SOL     OW 2524   0.467   0.704   0.741  0.3111 -0.0039  0.2172
  842SOL    HW1 2525   0.394   0.659   0.800  0.0751 -0.1286 -0.1714
  842SOL    HW2 2526   0.554   0.700   0.791 -3.3794  2.0910 -3.0607
  843SOL     OW 2527   0.923   1.512   2.251 -0.6688  0.5878  0.4314
  843SOL    HW1 2528   1.022   1.495   2.229  1.8902  1.3146 -1.0306
  843SOL    HW2 2529   0.918   1.589   2.309  0.2602 -2.3825 -1.7476
  844SOL     OW 2530   1.121   2.292   3.139 -0.3552  0.1833  0.1782
  844SOL    HW1 2531   1.208   2.244   0.005  1.9740 -1.6602 -2.7018
  844SOL    HW2 2532   1.131   2.371   3.075  1.6520 -2.7711  0.8495
  845SOL     OW 2533   2.251   2.339   2.565 -0.7895 -0.3270 -0.1889
  845SOL    HW1 2534   2.298   2.426   2.541 -1.3948 -1.0611 -0.9784
  845SOL    HW2 2535   2.294   2.303   2.653  2.8206  1.3632  2.3402
  846SOL     OW 2536   1.791   2.010   3.129 -0.7711 -0.3513  0.8500
  846SOL    HW1 2537   1.749   2.045   3.042 -0.9041  0.3915 -0.8918
  846SOL    HW2 2538   1.842   1.923   3.110  2.6927  1.5430  1.5678
  847SOL     OW 2539   1.918   2.858   2.759  0.8252  0.3739 -0.3808
  847SOL    HW1 2540   1.913   2.952   2.719 -0.3755 -0.0530 -0.7539
  847SOL    HW2 2541   1.926   2.856   2.863 -0.8656  0.6859 -1.4972
  848SOL     OW 2542   0.365   0.510   0.561 -0.0982  0.2118  0.7528
  848SOL    HW1 2543   0.427   0.571   0.613 -0.6176 -4.7587 -2.7641
  848SOL    HW2 2544   0.272   0.496   0.605  0.0565  0.7309  1.0422
  849SOL     OW 2545   0.894   3.052   1.342  0.1325  0.0204  0.3820
  849SOL    HW1 2546   0.935   3.114   1.408 -2.5890 -0.5699 -1.9454
  849SOL    HW2 2547   0.853   3.095   1.260 -3.8525  2.3184 -0.9424
  850SOL     OW 2548   0.361   1.689   0.423 -0.1674  0.1809  0.4532
  850SOL    HW1 2549   0.343   1.607   0.365 -2.2834  0.8882 -0.3804
  850SOL    HW2 2550   0.376   1.775   0.363  1.1000  4.4193 -0.7771
  851SOL     OW 2551   0.035   1.051   0.950  0.1264 -0.0735  0.1962
  851SOL    HW1 2552   3.082   1.058   0.906  3.0969  2.2419 -1.2902
  851SOL    HW2 2553   0.081   1.139   0.932  2.6195  1.0628  0.5792
  852SOL     OW 2554   2.037   2.341   1.903  0.1616 -0.1123  0.3773
  852SOL    HW1 2555   1.988   2.255   1.923 -2.3666  1.0099  1.8121
  852SOL    HW2 2556   2.093   2.325   1.819 -1.1017  1.6407  0.9221
  853SOL     OW 2557   0.356   1.418   0.388 -0.1826  0.1647 -0.2480
  853SOL    HW1 2558   0.270   1.373   0.419 -1.2712 -0.7415  1.5819
  853SOL    HW2 2559   0.418   1.422   0.471 -0.0737  0.7602  2.1357
  854SOL     OW 2560   1.713   1.268   1.823  0.4588 -0.8339 -0.1390
  854SOL    HW1 2561   1.719   1.183   1.770 -0.1760  2.5963 -0.9076
  854SOL    HW2 2562   1.620   1.308   1.795 -1.2106  1.9922 -2.2929
  855SOL     OW 2563   0.484   2.651   2.894  0.1138 -0.0950  0.3760
  855SOL    HW1 2564   0.400   2.706   2.878 -2.0958 -1.0982  1.0410
  855SOL    HW2 2565   0.520   2.661   2.986  0.8856  0.4598  1.4806
  856SOL     OW 2566   2.978   0.562   1.705  0.0501  0.2381 -0.1158
  856SOL    HW1 2567   3.030   0.646   1.735 -0.4588 -0.4302  0.0172
  856SOL    HW2 2568   2.955   0.576   1.603 -1.0428 -2.2090 -2.9788
  857SOL     OW 2569   0.484   0.927   1.921 -0.4464 -0.1822 -0.1401
  857SOL    HW1 2570   0.500   1.023   1.883  0.5677 -0.9140  0.7871
  857SOL    HW2 2571   0.567   0.872   1.932 -1.6751  2.0490  0.6220
  858SOL     OW 2572   0.481   1.203   2.235 -0.3451 -0.2856 -0.2925
  858SOL    HW1 2573   0.428   1.262   2.301  0.2850  0.9334 -0.4706
  858SOL    HW2 2574   0.578   1.236   2.240 -1.6535  1.9072  0.3035
  859SOL     OW 2575   2.577   0.261   0.469  0.4973 -0.2634  0.3460
  859SOL    HW1 2576   2.630   0.288   0.551 -0.1386 -0.0806 -0.0790
  859SOL    HW2 2577   2.589   0.160   0.445 -1.1931 -0.7373 -0.8693
  860SOL     OW 2578   1.886   2.807   3.019  0.7023  0.3922  0.1227
  860SOL    HW1 2579   1.821   2.857   3.077 -3.2056 -1.3817  1.9868
  860SOL    HW2 2580   1.924   2.730   3.075  2.9657 -1.8221  0.9087
  861SOL     OW 2581   0.354   0.513   0.285 -0.0896 -0.6561  0.0089
  861SOL    HW1 2582   0.361   0.411   0.268  0.4790 -0.3803  2.4839
  861SOL    HW2 2583   0.358   0.531   0.387 -0.4176 -1.0818 -0.3770
  862SOL     OW 2584   1.232   0.171   2.060 -0.1295 -0.8624 -0.5995
  862SOL    HW1 2585   1.273   0.263   2.049  1.8831  1.4626  0.6027
  862SOL    HW2 2586   1.292   0.089   2.048 -1.5083 -0.6823  1.1473
  863SOL     OW 2587   2.710   2.287   1.292  0.0423  0.1447 -0.2741
  863SOL    HW1 2588   2.604   2.302   1.290 -4.3469  1.5914  3.9485
  863SOL    HW2 2589   2.753   2.324   1.377  0.5985  3.7133 -1.0523
  864SOL     OW 2590   2.502   2.884   2.106  0.7894 -0.4510 -0.3033
  864SOL    HW1 2591   2.404   2.865   2.083  1.4793  1.7702  1.1864
  864SOL    HW2 2592   2.530   2.802   2.158  0.3699 -1.6612  1.3527
  865SOL     OW 2593   1.087   0.374   1.525  0.6546  0.0317 -0.1519
  865SOL    HW1 2594   1.082   0.273   1.509 -1.8887 -1.3235  0.8992
  865SOL    HW2 2595   1.159   0.402   1.591 -0.8693  0.0990 -0.1239
  866SOL     OW 2596   2.050   3.086   0.909 -0.0523  0.5893  0.2982
  866SOL    HW1 2597   2.137   3.126   0.910 -0.1819 -2.3420  1.0143
  866SOL    HW2 2598   1.993   0.015   0.960 -0.2946 -1.1630 -0.1484
  867SOL     OW 2599   2.806   2.783   0.320 -0.1012 -0.3703 -0.0605
  867SOL    HW1 2600   2.850   2.863   0.274  0.5736 -0.0034  0.5735
  867SOL    HW2 2601   2.774   2.810   0.416  0.7205 -0.1836 -4.7385
  868SOL     OW 2602   1.244   2.081   1.772 -0.3104  0.3347 -0.1346
  868SOL    HW1 2603   1.239   2.078   1.870 -0.0780 -0.3118 -1.1519
  868SOL    HW2 2604   1.236   2.176   1.735 -0.1923 -0.5314  0.1101
  869SOL     OW 2605   2.091   2.209   0.265 -0.6362 -0.2421 -0.0368
  869SOL    HW1 2606   2.118   2.137   0.331  0.9312 -2.1061  1.1634
  869SOL    HW2 2607   2.138   2.298   0.294  1.6268  1.5748 -1.8782
  870SOL     OW 2608   2.390   2.440   0.723 -0.2049  0.2097  0.5269
  870SOL    HW1 2609   2.297   2.417   0.707  1.5300 -1.8514  1.3639
  870SOL    HW2 2610   2.398   2.502   0.802  1.5058 -2.0070 -1.3786
  871SOL     OW 2611   0.167   1.378   1.629 -0.1387 -0.0876 -0.5947
  871SOL    HW1 2612   0.207   1.451   1.572  1.8947 -1.4133  1.7869
  871SOL    HW2 2613   0.228   1.362   1.708  0.4925  0.5811  0.9407
  872SOL     OW 2614   0.758   1.547   2.773 -0.2104  0.0611 -0.1777
  872SOL    HW1 2615   0.791   1.631   2.813 -1.8460 -2.8448 -0.8913
  872SOL    HW2 2616   0.835   1.493   2.726  0.5197 -3.1518 -1.1251
  873SOL     OW 2617   0.883   2.774   1.413 -0.2773  0.0117  0.7134
  873SOL    HW1 2618   0.814   2.764   1.488 -2.4816  0.1751 -0.6810
  873SOL    HW2 2619   0.887   2.868   1.367 -2.4738  2.5794 -2.0469
  874SOL     OW 2620   1.407   0.891   2.050  1.0583 -0.4687 -0.4182
  874SOL    HW1 2621   1.382   0.975   2.106 -0.9813  0.4661 -0.8145
  874SOL    HW2 2622   1.489   0.912   1.997  0.0916  0.3253  0.2851
  875SOL     OW 2623   2.622   2.603   1.081  0.4956  0.0623  0.1652
  875SOL    HW1 2624   2.595   2.654   1.163 -2.8634  2.4309 -1.4126
  875SOL    HW2 2625   2.706   2.654   1.034  1.9201 -1.0628 -2.5761
  876SOL     OW 2626   1.016   1.124   0.751  0.2889 -0.0311 -0.0303
  876SOL    HW1 2627   1.012   1.085   0.657  0.3240 -0.1221  0.7982
  876SOL    HW2 2628   0.982   1.220   0.762 -0.5404 -1.3966 -2.1617
  877SOL     OW 2629   2.831   0.395   1.147 -0.3169 -0.4885  0.2912
  877SOL    HW1 2630   2.755   0.418   1.207 -0.8676 -0.3842  2.1390
  877SOL    HW2 2631   2.898   0.326   1.186  0.8941 -0.5494 -0.9228
  878SOL     OW 2632   2.377   1.580   0.101 -0.3076 -0.0754  0.1640
  878SOL    HW1 2633   2.416   1.626   0.183 -0.3675  2.0355  2.4552
  878SOL    HW2 2634   2.326   1.493   0.130  0.5767 -2.8002  0.3652
  879SOL     OW 2635   2.805   2.043   1.362 -0.0078 -0.1409 -0.1437
  879SOL    HW1 2636   2.897   2.038   1.313 -1.8301 -1.1569 -1.8790
  879SOL    HW2 2637   2.752   2.130   1.347 -0.9884  0.7807  0.8260
  880SOL     OW 2638   0.453   2.238   1.008 -0.3506 -0.0812 -0.2515
  880SOL    HW1 2639   0.450   2.292   1.098  0.7958  1.4038 -0.3613
  880SOL    HW2 2640   0.527   2.277   0.945  1.9748  0.3657  1.7593
  881SOL     OW 2641   1.404   1.062   1.089  0.2072  0.2888  0.1995
  881SOL    HW1 2642   1.490   1.073   1.037 -1.2594  1.1344  4.0098
  881SOL    HW2 2643   1.331   1.100   1.029  1.5755  0.4758  0.6606
  882SOL     OW 2644   2.812   1.096   2.622 -0.7440  0.2527 -0.3836
  882SOL    HW1 2645   2.767   1.110   2.532  0.0366 -0.1165 -0.5952
  882SOL    HW2 2646   2.779   1.007   2.659  0.0374  0.0184  1.3914
  883SOL     OW 2647   1.143   0.146   1.040  0.6430  0.8637  0.1771
  883SOL    HW1 2648   1.198   0.076   0.987  0.6741  1.9928 -0.3369
  883SOL    HW2 2649   1.170   0.238   1.010 -0.8993 -0.6528 -1.2313
  884SOL     OW 2650   2.954   2.935   1.082  0.4387  0.0914 -0.2994
  884SOL    HW1 2651   3.005   2.981   1.156  0.5578  1.3095 -2.0823
  884SOL    HW2 2652   3.021   2.909   1.008  1.7643 -0.3015  0.4196
  885SOL     OW 2653   1.480   0.944   1.343 -0.3468 -0.2117 -0.0691
  885SOL    HW1 2654   1.492   1.031   1.391  2.2561  0.5533  0.6650
  885SOL    HW2 2655   1.459   0.958   1.243  1.7037 -0.6635  0.7922
  886SOL     OW 2656   1.358   1.003   3.084 -0.0374  0.6675 -0.2276
  886SOL    HW1 2657   1.417   0.957   0.014  0.2406  0.4989 -1.3844
  886SOL    HW2 2658   1.412   1.022   3.002 -0.0750 -1.4030  3.9175
  887SOL     OW 2659   1.475   0.405   1.406 -0.1648 -0.2179  0.3218
  887SOL    HW1 2660   1.531   0.331   1.362  0.4592 -1.5411  0.0616
  887SOL    HW2 2661   1.413   0.450   1.334  0.9002  4.7083 -0.7612
  888SOL     OW 2662   2.178   1.319   2.011 -0.1594  0.3619 -0.1503
  888SOL    HW1 2663   2.228   1.369   1.937  0.3190 -2.0705  0.8675
  888SOL    HW2 2664   2.220   1.228   2.029  1.2151  1.9598 -0.1809
  889SOL     OW 2665   2.365   2.153   0.889 -0.0311 -0.1631  0.1252
  889SOL    HW1 2666   2.398   2.062   0.920 -0.9272  0.0830  0.2456
  889SOL    HW2 2667   2.435   2.189   0.824 -1.3115  2.5780 -0.7074
  890SOL     OW 2668   1.344   1.957   1.027  0.3027 -0.6449  0.6961
  890SOL    HW1 2669   1.275   2.031   1.044  1.1134  2.2654  2.3010
  890SOL    HW2 2670   1.386   1.924   1.108  1.7519  0.4661 -0.7572
  891SOL     OW 2671   2.547   0.542   2.548  0.3840  0.8559  0.6412
  891SOL    HW1 2672   2.601   0.608   2.491 -0.0665  1.6015 -5.4005
  891SOL    HW2 2673   2.523   0.461   2.493  2.5522 -1.8272  0.9454
  892SOL     OW 2674   1.050   0.408   2.248  0.1747 -0.8776 -0.0010
  892SOL    HW1 2675   1.097   0.324   2.270 -0.9227 -1.5893 -0.4729
  892SOL    HW2 2676   1.092   0.492   2.287  0.0085  0.6335  0.7960
  893SOL     OW 2677   1.334   0.189   1.519  0.0174  0.1192 -0.2359
  893SOL    HW1 2678   1.368   0.178   1.614  1.9986  2.1998 -1.1820
  893SOL    HW2 2679   1.372   0.269   1.474 -2.4004 -1.3121  2.3030
  894SOL     OW 2680   2.638   0.642   0.730  0.7881 -0.0710  0.7696
  894SOL    HW1 2681   2.568   0.580   0.776 -0.5620 -2.3845  0.9475
  894SOL    HW2 2682   2.659   0.724   0.784  0.7311  0.5493 -1.3210
  895SOL     OW 2683   1.910   2.465   2.833 -0.6153 -0.1755 -0.0014
  895SOL    HW1 2684   1.928   2.557   2.788 -1.8049  0.1343  3.0650
  895SOL    HW2 2685   1.808   2.442   2.831 -3.0890 -0.0597 -0.9192
  896SOL     OW 2686   1.957   3.061   1.584 -0.3550  0.0356  0.1779
  896SOL    HW1 2687   1.969   3.011   1.666 -0.8352  1.6524 -2.4913
  896SOL    HW2 2688   1.928   2.994   1.513 -1.1948 -0.8699 -0.5098
  897SOL     OW 2689   0.561   1.879   2.148  0.4255 -0.7684 -0.0821
  897SOL    HW1 2690   0.494   1.798   2.146  0.7703 -1.9332  0.9516
  897SOL    HW2 2691   0.608   1.881   2.061 -1.4342  0.0854  2.1967
  898SOL     OW 2692   2.031   1.663   2.034 -0.1743 -0.2390 -0.0074
  898SOL    HW1 2693   2.014   1.583   1.976  0.3737 -0.5909  0.0322
  898SOL    HW2 2694   2.106   1.635   2.100  1.2268  1.3438 -5.0549
  899SOL     OW 2695   2.034   2.642   0.765  0.0387 -0.1931  0.2426
  899SOL    HW1 2696   2.077   2.557   0.722  0.7196 -2.7931  1.5942
  899SOL    HW2 2697   2.063   2.647   0.861  0.0863 -1.2136 -1.5202
  900SOL     OW 2698   1.050   0.000   2.969  0.2658 -0.7057 -0.3022
  900SOL    HW1 2699   1.078   3.047   2.979  0.3008  0.4627 -1.6555
  900SOL    HW2 2700   0.946   0.006   2.967 -0.7059  3.0955 -0.6324
  901SOL     OW 2701   1.061   1.970   2.276  0.0580  0.8125  0.0629
  901SOL    HW1 2702   0.957   1.966   2.294 -1.3009  1.6137 -0.0138
  901SOL    HW2 2703   1.119   1.966   2.361  2.7563 -1.8062  2.7287
  902SOL     OW 2704   2.259   0.618   2.940 -0.2123 -0.0619  0.4405
  902SOL    HW1 2705   2.347   0.602   2.978 -1.9492  0.6797 -0.1059
  902SOL    HW2 2706   2.191   0.568   2.997  2.0569 -1.2544  1.1686
  903SOL     OW 2707   2.089   0.709   2.169  0.0499 -0.0064  0.2645
  903SOL    HW1 2708   2.145   0.688   2.084  2.6573  0.1475 -0.3835
  903SOL    HW2 2709   2.124   0.640   2.233  0.9001  2.6177  0.2659
  904SOL     OW 2710   1.647   0.928   1.896  0.2450 -0.3687  0.0247
  904SOL    HW1 2711   1.665   0.996   1.823  2.4880 -1.3356 -0.8224
  904SOL    HW2 2712   1.678   0.962   1.988 -0.9975 -1.2956 -0.3679
  905SOL     OW 2713   2.309   0.131   1.153 -0.0268 -0.5531  0.3186
  905SOL    HW1 2714   2.322   0.104   1.060 -0.5951  1.4499  0.6641
  905SOL    HW2 2715   2.214   0.165   1.171  0.3641  1.6143 -1.5560
  906SOL     OW 2716   2.227   1.803   0.746 -0.1240  0.2291 -0.0462
  906SOL    HW1 2717   2.175   1.880   0.793 -2.8321  1.5942  0.0477
  906SOL    HW2 2718   2.175   1.722   0.722  2.6834 -1.5955 -2.1983
  907SOL     OW 2719   1.281   2.864   0.696 -0.0855 -0.2773  0.3401
  907SOL    HW1 2720   1.321   2.775   0.670  0.5919  0.6635 -1.0677
  907SOL    HW2 2721   1.198   2.855   0.759 -2.3687  1.1055  1.2195
  908SOL     OW 2722   1.603   2.376   2.633 -0.6113  0.3533 -0.7318
  908SOL    HW1 2723   1.617   2.296   2.577 -1.4334 -0.6134  1.5328
  908SOL    HW2 2724   1.629   2.458   2.581  2.6108  1.2203  0.0879
  909SOL     OW 2725   2.265   0.337   2.170  0.3078 -0.5835 -0.0798
  909SOL    HW1 2726   2.276   0.434   2.205  1.4704  0.8599  0.7615
  909SOL    HW2 2727   2.241   0.338   2.071  1.4539 -0.4428  0.4465
  910SOL     OW 2728   1.110   0.949   2.604 -0.6285  0.5694 -0.2789
  910SOL    HW1 2729   1.067   0.990   2.687  0.5465  0.2162 -5.0916
  910SOL    HW2 2730   1.081   0.848   2.596  1.4488 -2.4568  0.3411
  911SOL     OW 2731   0.021   0.897   2.961 -0.4397 -0.1178  0.0342
  911SOL    HW1 2732   0.048   0.879   3.062  2.0385  1.2668  3.1704
  911SOL    HW2 2733   3.122   0.813   2.932 -1.0021  2.0079  1.4828
  912SOL     OW 2734   0.236   2.445   0.799 -0.3163  0.4150 -0.3713
  912SOL    HW1 2735   0.291   2.407   0.722  0.7036  0.8334  0.6903
  912SOL    HW2 2736   0.154   2.388   0.805  0.9239  1.7833 -2.8774
  913SOL     OW 2737   2.705   1.896   2.524  0.0757  0.3990 -0.1012
  913SOL    HW1 2738   2.611   1.862   2.521 -0.2337  1.4480 -2.4165
  913SOL    HW2 2739   2.717   1.981   2.476  0.1719 -3.4123  1.1308
  914SOL     OW 2740   1.868   1.208   0.794  0.3357 -0.2866 -0.3335
  914SOL    HW1 2741   1.920   1.188   0.707  0.1986 -0.5219 -1.0756
  914SOL    HW2 2742   1.834   1.303   0.789 -0.7191  0.2801 -1.3168
  915SOL     OW 2743   0.213   2.788   2.358  0.1132  0.6239 -0.1757
  915SOL    HW1 2744   0.221   2.891   2.343 -2.7430 -2.4361 -1.4857
  915SOL    HW2 2745   0.299   2.757   2.404  1.8291 -0.9586 -0.5491
  916SOL     OW 2746   0.905   2.890   1.082  0.2684 -0.3165 -0.2135
  916SOL    HW1 2747   0.885   2.942   0.997  2.0686  1.6815 -1.1770
  916SOL    HW2 2748   0.829   2.827   1.111  3.4782  1.7083  0.3543
  917SOL     OW 2749   2.433   0.806   0.103  0.4839 -0.1438 -0.1199
  917SOL    HW1 2750   2.497   0.758   0.037  1.1072 -0.3662 -1.6177
  917SOL    HW2 2751   2.373   0.872   0.043 -2.5544  3.4807 -1.6431
  918SOL     OW 2752   1.621   2.399   2.905  0.1472 -0.5492 -0.1717
  918SOL    HW1 2753   1.562   2.474   2.938 -2.7133 -0.1184  0.2334
  918SOL    HW2 2754   1.580   2.373   2.815  2.9076 -0.3458  1.9236
  919SOL     OW 2755   1.802   2.914   1.369 -0.5674 -0.4913 -0.0178
  919SOL    HW1 2756   1.707   2.943   1.372 -0.9716 -3.3629 -0.8083
  919SOL    HW2 2757   1.814   2.836   1.438  0.6265 -0.3850  3.3458
  920SOL     OW 2758   1.379   0.331   2.456  0.0085  0.1102 -0.0717
  920SOL    HW1 2759   1.391   0.294   2.551 -3.0695  1.4685 -0.0105
  920SOL    HW2 2760   1.319   0.267   2.400  1.5297 -0.6367  1.3417
  921SOL     OW 2761   3.095   0.995   2.665  0.1898  0.2511  0.4126
  921SOL    HW1 2762   3.000   0.989   2.635 -1.2043  1.0268 -0.5090
  921SOL    HW2 2763   3.093   1.016   2.764 -0.9911  0.8624 -2.4670
  922SOL     OW 2764   3.033   2.010   1.206  0.4517 -0.2975 -0.0469
  922SOL    HW1 2765   3.034   2.110   1.217 -0.0971 -0.1147  0.7766
  922SOL    HW2 2766   3.064   1.986   1.110  0.2270 -0.5285  2.3331
  923SOL     OW 2767   0.381   1.676   2.139 -0.4694 -0.2222  0.2069
  923SOL    HW1 2768   0.395   1.653   2.238 -0.0187 -3.1384  0.8487
  923SOL    HW2 2769   0.286   1.664   2.104  0.7654 -1.0835 -1.7405
  924SOL     OW 2770   1.627   2.880   2.582  0.0046  1.0762  0.6597
  924SOL    HW1 2771   1.576   2.833   2.507  1.4432 -0.6167 -0.8629
  924SOL    HW2 2772   1.716   2.916   2.548 -0.5470  1.0744 -0.3177
  925SOL     OW 2773   2.833   1.644   0.686 -0.9850 -0.5310  0.3942
  925SOL    HW1 2774   2.821   1.545   0.705 -2.5355  2.6718  2.5091
  925SOL    HW2 2775   2.857   1.692   0.774 -1.8343 -0.5785 -0.1157
  926SOL     OW 2776   2.344   0.789   1.031  0.1395  0.3029 -0.4387
  926SOL    HW1 2777   2.389   0.698   1.057  0.4723 -1.2976  3.9185
  926SOL    HW2 2778   2.408   0.843   0.968  2.3445  2.6287 -0.9048
  927SOL     OW 2779   1.656   0.225   1.292  0.4417 -0.1571 -0.2301
  927SOL    HW1 2780   1.746   0.272   1.272 -0.8957 -2.2338 -0.8377
  927SOL    HW2 2781   1.668   0.176   1.380  2.3784 -0.2165  0.4323
  928SOL     OW 2782   0.063   0.888   2.274  0.0789  0.3029 -0.1912
  928SOL    HW1 2783   0.150   0.878   2.221 -1.1727 -0.0524  0.4871
  928SOL    HW2 2784   0.037   0.798   2.321 -0.6347 -2.6181  1.2777
  929SOL     OW 2785   2.283   0.886   1.275  0.3546 -0.2169  0.2038
  929SOL    HW1 2786   2.286   0.829   1.189 -1.3577  1.1644 -2.0143
  929SOL    HW2 2787   2.373   0.916   1.308  1.9073  1.4468  2.7936
  930SOL     OW 2788   2.419   2.483   1.644  0.0828 -0.2625 -0.4088
  930SOL    HW1 2789   2.473   2.394   1.641  0.4619 -0.6847  3.7945
  930SOL    HW2 2790   2.414   2.518   1.739 -1.8899 -1.5936 -1.9656
  931SOL     OW 2791   2.027   0.964   1.260  0.4032  0.4633 -0.2043
  931SOL    HW1 2792   1.978   0.989   1.175 -0.6068 -1.4372 -0.2940
  931SOL    HW2 2793   2.125   0.934   1.249  0.6422  1.2669 -1.1143
  932SOL     OW 2794   0.326   0.589   1.754  0.5372  0.5173  0.2163
  932SOL    HW1 2795   0.388   0.555   1.678 -1.1331  3.0725 -0.1981
  932SOL    HW2 2796   0.333   0.692   1.769  0.5079  2.1446  1.0405
  933SOL     OW 2797   2.347   1.944   1.662 -0.3262 -0.4531 -0.5382
  933SOL    HW1 2798   2.342   2.019   1.592 -1.0776 -1.0199  0.6655
  933SOL    HW2 2799   2.421   1.967   1.727 -0.9761 -1.3929 -2.5081
  934SOL     OW 2800   1.179   2.354   1.702  0.4017  0.1296  0.4207
  934SOL    HW1 2801   1.251   2.425   1.688  2.3706 -0.5088  1.9360
  934SOL    HW2 2802   1.129   2.330   1.618 -0.6045  2.0095 -0.3588
  935SOL     OW 2803   0.084   1.520   1.910  0.1170 -0.6539 -0.6094
  935SOL    HW1 2804   0.075   1.423   1.935  0.7080  0.2749  1.3394
  935SOL    HW2 2805   0.088   1.570   1.999 -0.0677 -1.8097 -1.0123
  936SOL     OW 2806   2.669   0.757   1.319  0.1083  0.3878  0.0594
  936SOL    HW1 2807   2.624   0.849   1.328  1.0802 -2.5698  0.3259
  936SOL    HW2 2808   2.608   0.690   1.275  1.4173 -3.1328 -0.1922
  937SOL     OW 2809   1.843   0.433   1.275 -0.3404  0.1894  0.6016
  937SOL    HW1 2810   1.819   0.491   1.196 -1.9456 -4.2137 -0.8884
  937SOL    HW2 2811   1.862   0.488   1.355 -0.0910  0.5665 -1.1441
  938SOL     OW 2812   0.487   2.748   0.679  0.2450  0.3074  0.2451
  938SOL    HW1 2813   0.490   2.684   0.600 -1.1017  0.2516  0.0278
  938SOL    HW2 2814   0.485   2.843   0.641  1.6252 -1.8498  2.7374
  939SOL     OW 2815   3.012   2.179   2.548 -0.0446  0.2199  0.8769
  939SOL    HW1 2816   3.041   2.122   2.628  0.6096 -0.4768  0.8254
  939SOL    HW2 2817   3.041   2.145   2.456  1.3327  2.3502 -2.4369
  940SOL     OW 2818   1.562   1.727   0.115  0.4490 -0.0415  0.9279
  940SOL    HW1 2819   1.657   1.742   0.147  1.2378 -1.4491 -0.0730
  940SOL    HW2 2820   1.520   1.814   0.087 -0.3072  1.1518  1.2691
  941SOL     OW 2821   2.231   2.425   0.339  0.3361  0.5159  0.3495
  941SOL    HW1 2822   2.306   2.374   0.296 -0.8472 -0.0002 -2.6995
  941SOL    HW2 2823   2.254   2.523   0.351  3.7012  1.1625  0.2831
  942SOL     OW 2824   1.823   1.916   1.061  0.1053 -0.7019 -0.5783
  942SOL    HW1 2825   1.752   1.978   1.098 -0.1634  2.6532 -1.1910
  942SOL    HW2 2826   1.826   1.824   1.109  1.5204  1.6312  1.2427
  943SOL     OW 2827   2.219   0.796   1.524  0.0448  0.7006 -0.2438
  943SOL    HW1 2828   2.240   0.799   1.423 -0.6890 -1.6770 -1.5002
  943SOL    HW2 2829   2.127   0.834   1.542  1.8023  0.8908  0.1618
  944SOL     OW 2830   1.253   0.644   2.105  0.4594  0.3191  0.1844
  944SOL    HW1 2831   1.252   0.613   2.204  1.1458  0.7225 -1.8922
  944SOL    HW2 2832   1.280   0.740   2.097  0.6673 -1.0312 -1.4598
  945SOL     OW 2833   2.223   2.877   1.482 -0.3550 -0.3683  0.0344
  945SOL    HW1 2834   2.307   2.865   1.429  0.3243  0.4557  0.9414
  945SOL    HW2 2835   2.191   2.976   1.483 -1.2827 -1.4207 -0.2458
  946SOL     OW 2836   0.667   1.208   0.627  0.4709  0.0760  0.4128
  946SOL    HW1 2837   0.630   1.113   0.627  2.4380 -1.6027  0.3513
  946SOL    HW2 2838   0.718   1.230   0.538 -1.9888  0.0487 -4.2553
  947SOL     OW 2839   1.310   2.326   0.949  0.3645 -0.5055 -0.0417
  947SOL    HW1 2840   1.326   2.424   0.977  1.8080  2.9391 -1.5520
  947SOL    HW2 2841   1.328   2.325   0.849 -1.1343 -1.5348 -1.5886
  948SOL     OW 2842   0.358   1.555   1.237 -0.0791 -0.0313  0.0635
  948SOL    HW1 2843   0.423   1.620   1.197  1.7167 -1.6924 -1.1789
  948SOL    HW2 2844   0.317   1.500   1.163 -0.3329  3.2508  3.7510
  949SOL     OW 2845   0.825   1.233   1.855  0.2378  0.0276 -0.0434
  949SOL    HW1 2846   0.872   1.323   1.844 -1.6323  0.2137 -0.1495
  949SOL    HW2 2847   0.722   1.248   1.845 -2.3010  0.3785 -0.9870
  950SOL     OW 2848   0.571   0.625   1.141 -0.6101  0.3822 -0.0490
  950SOL    HW1 2849   0.623   0.702   1.172 -0.9373 -1.6511 -1.2512
  950SOL    HW2 2850   0.468   0.650   1.145 -1.6509  1.2979 -0.8801
  951SOL     OW 2851   0.666   2.166   1.950  0.1663 -0.3805  0.2812
  951SOL    HW1 2852   0.569   2.158   1.982 -3.2073 -0.7295 -0.4631
  951SOL    HW2 2853   0.671   2.165   1.850 -3.1657 -2.0116 -0.2582
  952SOL     OW 2854   1.002   1.628   0.097 -0.0519  0.1393  0.0808
  952SOL    HW1 2855   1.066   1.704   0.117  0.5934 -2.5519  2.3756
  952SOL    HW2 2856   1.044   1.545   0.133 -2.3542  1.4751  0.1192
  953SOL     OW 2857   0.851   2.889   0.068 -0.5026  0.7458 -0.2537
  953SOL    HW1 2858   0.853   2.924   0.165  0.2530  1.6512  0.4516
  953SOL    HW2 2859   0.900   2.801   0.056 -1.3034  3.5600  1.4677
  954SOL     OW 2860   1.689   1.120   3.107 -0.1529  0.3607 -0.4837
  954SOL    HW1 2861   1.619   1.112   3.032 -2.2060 -1.7085 -1.1504
  954SOL    HW2 2862   1.648   1.177   0.041 -0.1380  0.6787  0.7020
  955SOL     OW 2863   3.130   2.765   2.993  0.6020 -0.2483  0.0574
  955SOL    HW1 2864   3.117   2.851   3.051 -0.7076 -1.1190  0.6301
  955SOL    HW2 2865   3.049   2.760   2.932 -2.5628  0.0373  1.5236
  956SOL     OW 2866   0.951   0.678   1.143 -0.1257  0.4587 -0.1085
  956SOL    HW1 2867   1.015   0.707   1.069 -0.1412  0.4617 -2.2055
  956SOL    HW2 2868   0.970   0.588   1.186 -2.3138 -2.0391  2.6386
  957SOL     OW 2869   1.847   1.435   1.630  0.5896  0.4462  0.1390
  957SOL    HW1 2870   1.768   1.472   1.578  2.0932 -0.2924  0.8649
  957SOL    HW2 2871   1.815   1.383   1.710 -2.4968 -0.6731  3.8814
  958SOL     OW 2872   0.645   1.820   1.584  0.0570 -0.0943  0.2301
  958SOL    HW1 2873   0.625   1.722   1.585 -3.8650 -0.9831 -1.2184
  958SOL    HW2 2874   0.658   1.853   1.484  3.5272  0.2995 -2.6264
  959SOL     OW 2875   1.557   1.170   1.443 -0.1850  0.1055 -0.1054
  959SOL    HW1 2876   1.618   1.152   1.362 -0.9049 -0.3516  0.5412
  959SOL    HW2 2877   1.499   1.253   1.427  1.7665 -0.7941 -1.0461
  960SOL     OW 2878   0.156   1.186   0.146 -0.2155  0.1833 -0.2928
  960SOL    HW1 2879   0.124   1.194   0.245  0.6690 -0.7135  0.6293
  960SOL    HW2 2880   0.255   1.204   0.146  1.1622 -1.4676 -1.6681
  961SOL     OW 2881   0.934   1.471   1.792  0.6432 -0.0337 -0.2141
  961SOL    HW1 2882   1.012   1.493   1.733 -0.7731 -0.9133  1.4612
  961SOL    HW2 2883   0.884   1.554   1.822  3.5044  0.1101  0.1343
  962SOL     OW 2884   1.247   1.178   0.871  0.0054 -0.3322 -0.0324
  962SOL    HW1 2885   1.236   1.240   0.950  1.1854 -1.1727  1.3457
  962SOL    HW2 2886   1.155   1.154   0.821 -0.4000  0.4362 -0.9458
  963SOL     OW 2887   1.511   1.995   2.726  0.2585  0.7084 -0.4102
  963SOL    HW1 2888   1.580   2.048   2.777 -1.5075 -1.8218 -1.9213
  963SOL    HW2 2889   1.542   1.899   2.707  0.4491 -0.7649 -0.0848
  964SOL     OW 2890   0.559   2.949   0.341 -0.5705 -0.9848  0.0084
  964SOL    HW1 2891   0.531   2.958   0.438  0.0716  0.2022 -1.2236
  964SOL    HW2 2892   0.498   2.881   0.286 -5.0903  0.4822  0.5281
  965SOL     OW 2893   0.379   2.324   0.600 -0.0147 -0.2286 -0.0772
  965SOL    HW1 2894   0.460   2.315   0.661 -1.8463 -0.3819  0.8998
  965SOL    HW2 2895   0.314   2.249   0.615  0.5902  2.2695  1.6133
  966SOL     OW 2896   0.134   1.623   2.783  0.3532 -0.1171 -0.0262
  966SOL    HW1 2897   0.056   1.603   2.719 -0.8131 -0.8254  2.1683
  966SOL    HW2 2898   0.114   1.578   2.875 -0.1408  0.6461  0.9005
  967SOL     OW 2899   2.996   0.039   2.469  0.3341  0.1001  0.2722
  967SOL    HW1 2900   3.098   0.055   2.466  0.1093 -2.8653 -2.4871
  967SOL    HW2 2901   2.962   0.051   2.564  0.8277 -1.7702  0.2073
  968SOL     OW 2902   2.383   0.589   0.267 -0.2156  0.3518  0.0025
  968SOL    HW1 2903   2.428   0.509   0.237  0.2680 -0.2882  2.0111
  968SOL    HW2 2904   2.369   0.654   0.191  1.4436  1.7662  1.4396
  969SOL     OW 2905   0.253   0.842   1.781  0.0619  0.2047 -0.0241
  969SOL    HW1 2906   0.290   0.860   1.688 -1.2859 -0.9804 -0.0339
  969SOL    HW2 2907   0.309   0.882   1.852 -1.9747 -2.8585  1.3016
  970SOL     OW 2908   2.146   1.527   1.142  0.1578  0.1772  0.0558
  970SOL    HW1 2909   2.119   1.498   1.048 -1.6652  2.3580 -1.4067
  970SOL    HW2 2910   2.130   1.454   1.213 -0.0854 -0.7762 -0.1236
  971SOL     OW 2911   2.713   0.100   1.186 -0.0288  0.1102  0.3565
  971SOL    HW1 2912   2.691   0.011   1.140 -0.7614 -2.1232 -0.9780
  971SOL    HW2 2913   2.811   0.117   1.205  0.4984  0.3221  1.6679
  972SOL     OW 2914   0.478   2.903   1.469 -0.0035 -0.0866 -0.0424
  972SOL    HW1 2915   0.488   3.003   1.494  0.3755 -0.3619  2.4807
  972SOL    HW2 2916   0.507   2.894   1.372 -2.6173  0.3490 -0.1308
  973SOL     OW 2917   0.302   0.210   3.023  0.1070 -0.5242  0.0120
  973SOL    HW1 2918   0.373   0.197   2.949 -0.0797 -0.5564 -0.1843
  973SOL    HW2 2919   0.206   0.225   2.991 -0.5616 -0.2596 -0.1563
  974SOL     OW 2920   1.801   1.559   2.428 -0.3475  0.2375  0.0264
  974SOL    HW1 2921   1.788   1.559   2.325 -0.7510 -1.4357  2.0220
  974SOL    HW2 2922   1.860   1.636   2.453 -2.4628 -3.0950 -0.3815
  975SOL     OW 2923   0.029   0.011   1.511 -0.4567  0.0349 -0.1096
  975SOL    HW1 2924   0.118   0.002   1.558  1.4347 -1.1826 -1.2263
  975SOL    HW2 2925   3.116   0.088   1.547  1.2524 -0.9350  0.7075
  976SOL     OW 2926   0.483   2.060   2.314  0.0695  0.0104  0.7749
  976SOL    HW1 2927   0.394   2.039   2.364 -0.9915 -1.3121  1.2079
  976SOL    HW2 2928   0.502   1.988   2.240  1.6250 -1.9554 -4.7307
  977SOL     OW 2929   0.767   2.617   0.569 -0.2306 -0.3917 -0.6418
  977SOL    HW1 2930   0.675   2.615   0.523 -0.5079  1.0920  2.0701
  977SOL    HW2 2931   0.843   2.611   0.498 -2.5240 -0.3092 -0.9622
  978SOL     OW 2932   0.175   1.751   2.509 -0.0224  0.0696 -0.0369
  978SOL    HW1 2933   0.249   1.685   2.476 -3.0531  0.4506  2.0751
  978SOL    HW2 2934   0.172   1.748   2.609  0.2192  1.1544 -0.2448
  979SOL     OW 2935   2.034   2.587   1.730 -0.4476 -0.6239  0.1218
  979SOL    HW1 2936   2.103   2.534   1.684 -0.1140  0.0509 -0.1690
  979SOL    HW2 2937   2.011   2.537   1.813  0.8063  0.5480 -1.2990
  980SOL     OW 2938   0.897   1.408   3.116  0.2942  0.5591  0.0123
  980SOL    HW1 2939   0.805   1.385   3.086  0.2903  0.7473 -2.1415
  980SOL    HW2 2940   0.911   1.511   0.001  0.5806  2.8176  0.0237
  981SOL     OW 2941   2.454   0.145   2.086  0.3542  0.6581  0.4071
  981SOL    HW1 2942   2.390   0.207   2.137 -1.2348  1.7930 -1.3376
  981SOL    HW2 2943   2.406   0.107   2.004 -0.1014 -1.3786  0.9341
  982SOL     OW 2944   0.015   0.262   2.934 -0.6302 -0.5630  0.1560
  982SOL    HW1 2945   3.123   0.317   3.013 -1.2355 -1.0654  1.2022
  982SOL    HW2 2946   3.125   0.296   2.843  0.7263  2.8807  0.7250
  983SOL     OW 2947   2.110   1.240   2.312 -0.2611 -0.4767  0.3453
  983SOL    HW1 2948   2.020   1.249   2.357  3.0652 -0.4403 -2.2155
  983SOL    HW2 2949   2.118   1.292   2.224 -0.6317  0.1732  0.5329
  984SOL     OW 2950   1.433   0.313   1.874  0.1817  0.0325  0.2256
  984SOL    HW1 2951   1.350   0.342   1.824  2.3991 -2.4269  0.1231
  984SOL    HW2 2952   1.487   0.391   1.910 -3.5841 -1.1808 -0.9911
  985SOL     OW 2953   1.916   1.416   1.977  0.6447 -0.7469  0.4987
  985SOL    HW1 2954   1.843   1.372   1.922 -0.3146 -0.2324  0.2517
  985SOL    HW2 2955   1.996   1.350   1.991  0.5416  2.3332  2.4441
  986SOL     OW 2956   2.221   0.521   1.525  0.4386 -0.0254 -0.2547
  986SOL    HW1 2957   2.293   0.460   1.567  2.5594 -0.5360 -1.3719
  986SOL    HW2 2958   2.247   0.621   1.539  2.6605  2.2106  4.3636
  987SOL     OW 2959   2.618   0.430   1.299  0.3124 -0.3192 -0.5621
  987SOL    HW1 2960   2.650   0.454   1.391  0.5840 -1.7791  0.9409
  987SOL    HW2 2961   2.574   0.338   1.294 -0.6189  3.0543  0.1433
  988SOL     OW 2962   3.000   0.938   2.116 -0.3812  0.3401 -0.3875
  988SOL    HW1 2963   3.032   0.921   2.020  0.5816 -1.2957 -2.3416
  988SOL    HW2 2964   3.068   0.911   2.189  2.4531  1.7837  1.2732
  989SOL     OW 2965   2.165   1.770   0.121  0.1538 -0.4464 -0.6502
  989SOL    HW1 2966   2.198   1.833   0.053 -1.1136  0.7934  2.1843
  989SOL    HW2 2967   2.224   1.687   0.133  2.5462 -0.5378  1.4865
  990SOL     OW 2968   1.021   0.395   2.916  0.3368  0.2807 -0.3811
  990SOL    HW1 2969   1.053   0.309   2.877  1.5273  1.1335  1.3464
  990SOL    HW2 2970   1.082   0.443   2.977 -1.0815 -0.5689  1.8470
  991SOL     OW 2971   1.488   0.780   0.095  0.2004  0.3931  0.3437
  991SOL    HW1 2972   1.564   0.773   0.160 -1.3006  3.0227 -2.8516
  991SOL    HW2 2973   1.492   0.701   0.026 -0.4534 -1.6107  2.7221
  992SOL     OW 2974   2.025   1.253   0.104  0.0143  0.1046 -0.5020
  992SOL    HW1 2975   1.954   1.328   0.104 -0.8129 -0.6024 -2.0713
  992SOL    HW2 2976   2.001   1.167   0.060  1.3575 -0.2648 -0.0089
  993SOL     OW 2977   0.023   0.607   0.605  0.0098  0.3636  0.3750
  993SOL    HW1 2978   0.061   0.693   0.651 -0.8639  0.1161  1.7879
  993SOL    HW2 2979   0.056   0.520   0.640 -0.7201  0.2865 -0.1042
  994SOL     OW 2980   3.082   2.038   2.293  0.2991 -0.5230 -0.1306
  994SOL    HW1 2981   3.062   1.939   2.291 -1.1878  0.8019  0.5855
  994SOL    HW2 2982   0.009   2.064   2.217 -0.6252  0.1994 -0.3671
  995SOL     OW 2983   1.731   1.482   2.932  0.7858 -0.9826 -0.1927
  995SOL    HW1 2984   1.735   1.473   2.831 -2.7907 -1.5811 -1.3926
  995SOL    HW2 2985   1.789   1.407   2.978  1.4454 -0.6728  1.5890
  996SOL     OW 2986   2.028   1.810   2.871  0.2935  0.0541 -0.1833
  996SOL    HW1 2987   2.066   1.901   2.894  0.7433  1.8513  0.5382
  996SOL    HW2 2988   1.963   1.804   2.791 -2.5526 -2.5949 -1.6399
  997SOL     OW 2989   2.286   1.441   1.806  0.0316 -0.8199  0.1089
  997SOL    HW1 2990   2.361   1.502   1.840  2.1188  2.3130  1.2243
  997SOL    HW2 2991   2.250   1.475   1.716  1.1042 -1.0794  0.5412
  998SOL     OW 2992   2.452   1.708   0.337  0.2766 -0.0835 -0.4647
  998SOL    HW1 2993   2.531   1.660   0.381 -3.7966 -0.3519 -0.2673
  998SOL    HW2 2994   2.388   1.722   0.413  0.3885  0.1028  1.4667
  999SOL     OW 2995   2.816   2.332   0.241  0.0347 -0.0214 -0.5984
  999SOL    HW1 2996   2.767   2.252   0.197 -1.3657 -0.3990  1.9338
  999SOL    HW2 2997   2.810   2.411   0.180 -1.1714 -3.0992  1.5846
 1000SOL     OW 2998   0.989   0.450   1.986  0.0182 -0.0684 -0.2048
 1000SOL    HW1 2999   1.007   0.417   2.080  1.6973  0.0397  1.4718
 1000SOL    HW2 3000   0.999   0.548   1.986  1.8376 -0.0707  3.3929
   3.13945   3.13945   3.13945
