1000 SPC/Fw water molecules t=  88.00000 step= 88000
 3000
    1SOL     OW    1   2.006   2.527   0.492 -0.0812  0.9190 -0.1368
    1SOL    HW1    2   2.040   2.451   0.435 -1.6890  0.1860  0.6419
    1SOL    HW2    3   2.084   2.593   0.511 -1.6779 -3.3351 -2.2838
    2SOL     OW    4   0.883   1.138   1.937  0.2249 -0.1423 -0.0339
    2SOL    HW1    5   0.950   1.141   1.860 -0.4383  0.9865 -2.3165
    2SOL    HW2    6   0.923   1.156   2.027  1.6148 -1.2167  0.7631
    3SOL     OW    7   1.482   2.570   2.503  0.6348 -0.1386 -0.0715
    3SOL    HW1    8   1.478   2.464   2.518  0.4110 -1.6755  0.0296
    3SOL    HW2    9   1.456   2.600   2.405  0.0783 -0.5309  0.3365
    4SOL     OW   10   1.369   1.757   2.797  0.5355 -0.1081  0.1312
    4SOL    HW1   11   1.394   1.801   2.707 -2.2834  2.1519  1.1230
    4SOL    HW2   12   1.420   1.799   2.872 -0.1132 -0.7702 -1.9413
    5SOL     OW   13   0.522   0.948   1.689 -0.1792  0.0467  0.3245
    5SOL    HW1   14   0.564   1.021   1.740 -1.1822 -2.5177 -0.8782
    5SOL    HW2   15   0.579   0.911   1.614 -1.8490  0.5593  1.2599
    6SOL     OW   16   1.963   0.604   2.702  0.2346  0.0304  0.0862
    6SOL    HW1   17   1.972   0.658   2.620  0.0624  2.6377  0.6814
    6SOL    HW2   18   1.876   0.623   2.753  1.8725  0.5934  0.0168
    7SOL     OW   19   0.411   0.393   1.681 -0.1845  0.0055  0.8590
    7SOL    HW1   20   0.394   0.465   1.610 -1.1096  0.8045  0.2311
    7SOL    HW2   21   0.331   0.378   1.741  0.5235  1.0115  1.6758
    8SOL     OW   22   1.781   3.096   1.909 -0.8083 -0.5504 -0.3162
    8SOL    HW1   23   1.853   0.056   1.869  2.7145  2.0207 -0.1443
    8SOL    HW2   24   1.823   3.005   1.915 -1.2811  0.2664 -2.3322
    9SOL     OW   25   0.219   0.254   0.569 -0.0894  0.5692 -0.4233
    9SOL    HW1   26   0.160   0.237   0.653 -1.6062 -1.6355 -1.0076
    9SOL    HW2   27   0.304   0.202   0.566 -1.4988 -0.1860 -0.9425
   10SOL     OW   28   0.550   2.086   2.325  0.6788  0.0831 -0.3966
   10SOL    HW1   29   0.628   2.121   2.381  0.5980  0.2379  0.8110
   10SOL    HW2   30   0.496   2.159   2.277 -0.9457 -0.6098 -0.3061
   11SOL     OW   31   0.597   1.655   0.186 -0.1188  0.0986  0.0529
   11SOL    HW1   32   0.624   1.642   0.090 -2.3315 -0.2532  0.1019
   11SOL    HW2   33   0.602   1.568   0.240  2.6724 -0.1801 -0.8051
   12SOL     OW   34   2.950   2.795   1.416 -0.7435 -0.3410  0.3864
   12SOL    HW1   35   2.948   2.898   1.428  0.8485 -0.3188 -0.1353
   12SOL    HW2   36   2.990   2.766   1.330  1.8311 -0.4109  1.7760
   13SOL     OW   37   0.981   2.996   0.488 -0.4262 -1.2485  0.1088
   13SOL    HW1   38   0.922   2.951   0.417  0.8077  0.4960  0.8763
   13SOL    HW2   39   0.967   3.097   0.488 -0.0289  1.9080  1.3691
   14SOL     OW   40   1.557   1.540   1.036 -0.4481  0.2671  0.1806
   14SOL    HW1   41   1.498   1.600   1.088 -0.0886 -0.3647  1.1119
   14SOL    HW2   42   1.627   1.492   1.094 -0.2692 -0.5156 -0.4725
   15SOL     OW   43   2.988   1.744   2.416 -0.4397 -0.0511  0.2523
   15SOL    HW1   44   2.930   1.726   2.498 -0.3251 -1.5667 -3.3265
   15SOL    HW2   45   2.984   1.845   2.384  2.5104  1.6092 -1.4972
   16SOL     OW   46   1.464   0.540   2.521 -0.3390  0.0656  0.0885
   16SOL    HW1   47   1.425   0.611   2.458 -0.1659 -1.6299  0.0987
   16SOL    HW2   48   1.469   0.572   2.614 -0.4044 -1.0132 -0.3579
   17SOL     OW   49   0.165   2.216   2.337  0.4351  0.3331 -0.5205
   17SOL    HW1   50   0.203   2.223   2.430  0.0986  0.1688 -3.1418
   17SOL    HW2   51   0.099   2.134   2.339  0.2568 -0.7005  1.5277
   18SOL     OW   52   1.060   1.362   0.562 -0.0976 -0.0886  0.3478
   18SOL    HW1   53   1.091   1.443   0.612  0.9900  1.1533  1.0391
   18SOL    HW2   54   1.070   1.283   0.622 -1.0364 -1.1823 -0.1890
   19SOL     OW   55   2.705   1.451   2.556 -0.1266 -0.3954 -0.0552
   19SOL    HW1   56   2.792   1.507   2.564  2.6155  0.0718  3.0284
   19SOL    HW2   57   2.617   1.502   2.550 -1.2353  1.2266  0.5031
   20SOL     OW   58   2.503   2.209   2.468 -0.0081 -0.3800 -0.2196
   20SOL    HW1   59   2.479   2.224   2.372 -0.4047  2.2216  1.0657
   20SOL    HW2   60   2.564   2.284   2.505  0.8195  2.1215  0.3185
   21SOL     OW   61   1.074   2.094   0.143  0.0122 -0.1829  0.2097
   21SOL    HW1   62   1.162   2.126   0.101 -1.7736  0.9890  0.0388
   21SOL    HW2   63   1.068   2.133   0.242  0.0542  1.8548  4.0453
   22SOL     OW   64   2.189   2.175   1.451  0.1960  0.1050  0.2312
   22SOL    HW1   65   2.133   2.242   1.502  0.0833 -0.4412 -2.6497
   22SOL    HW2   66   2.139   2.146   1.364  1.6605  0.6758 -0.1792
   23SOL     OW   67   0.290   1.190   1.263 -0.4117  0.0734  0.2250
   23SOL    HW1   68   0.198   1.151   1.259  2.4794  0.8868 -0.7212
   23SOL    HW2   69   0.349   1.128   1.325  2.3980 -1.5387  2.7790
   24SOL     OW   70   2.043   1.853   2.330 -0.3183 -0.0858  0.7124
   24SOL    HW1   71   2.020   1.790   2.407  0.5908  1.1961  0.9645
   24SOL    HW2   72   2.145   1.856   2.307  0.7267  1.7457 -0.8150
   25SOL     OW   73   1.811   0.367   2.222  0.2351 -0.5257 -0.5088
   25SOL    HW1   74   1.907   0.394   2.195 -0.9663  0.0575 -1.0471
   25SOL    HW2   75   1.761   0.343   2.137 -0.2492 -0.0205 -0.4137
   26SOL     OW   76   1.473   0.410   0.464  0.7867  0.5809  0.3814
   26SOL    HW1   77   1.420   0.490   0.434 -2.0998  0.4239 -1.1536
   26SOL    HW2   78   1.441   0.387   0.553  0.0757  0.7391 -0.1542
   27SOL     OW   79   0.886   1.736   0.524 -0.0905  0.4427  0.4021
   27SOL    HW1   80   0.832   1.788   0.452  2.0745  3.0722 -1.2075
   27SOL    HW2   81   0.826   1.685   0.587  1.0999 -0.3247 -2.5419
   28SOL     OW   82   2.518   1.802   0.970  0.7610 -0.8577  0.7409
   28SOL    HW1   83   2.561   1.793   1.058 -2.1991  2.6668 -4.3913
   28SOL    HW2   84   2.419   1.821   0.987 -0.8362  1.2841  2.2834
   29SOL     OW   85   2.293   3.016   1.661  0.0476  0.0292  0.5444
   29SOL    HW1   86   2.216   2.945   1.658 -0.0031 -1.0722  0.8839
   29SOL    HW2   87   2.344   3.003   1.748 -3.0308 -1.2723 -2.3711
   30SOL     OW   88   0.953   0.165   1.301  0.0956  0.3805  0.8066
   30SOL    HW1   89   0.932   0.109   1.385  1.6890 -0.7413 -2.5171
   30SOL    HW2   90   1.026   0.232   1.325  0.1012  0.6870 -0.6303
   31SOL     OW   91   3.039   1.989   1.661  0.2401  0.4217  0.7590
   31SOL    HW1   92   3.069   1.900   1.702  2.0641 -1.1777 -0.0541
   31SOL    HW2   93   3.092   2.063   1.708  1.2286 -0.9175 -2.0880
   32SOL     OW   94   1.450   1.405   1.822  0.2505 -0.5248  0.1029
   32SOL    HW1   95   1.396   1.430   1.737 -1.5282 -0.4296  0.2503
   32SOL    HW2   96   1.545   1.443   1.828 -2.3692  1.0428  0.7905
   33SOL     OW   97   0.304   0.393   3.061  0.2824 -0.4190  0.3226
   33SOL    HW1   98   0.399   0.426   3.071  1.9078 -1.4357 -0.4552
   33SOL    HW2   99   0.278   0.390   2.962 -0.9851 -0.5007 -1.2702
   34SOL     OW  100   2.304   0.030   0.590 -0.1519 -0.0835  0.2827
   34SOL    HW1  101   2.239   3.054   0.593  1.0717  2.2008 -0.4470
   34SOL    HW2  102   2.381   0.011   0.652  1.9378 -0.4081  2.2676
   35SOL     OW  103   2.615   0.134   1.496  0.2943 -0.7699  0.0580
   35SOL    HW1  104   2.588   0.175   1.583 -3.1846  0.9916  0.9813
   35SOL    HW2  105   2.552   0.054   1.479 -0.5547  2.7125 -0.0961
   36SOL     OW  106   2.701   2.736   2.705  0.4086  0.2447 -0.0954
   36SOL    HW1  107   2.618   2.798   2.691  0.3914 -0.9968 -2.6049
   36SOL    HW2  108   2.766   2.742   2.629 -2.1083 -2.4486  0.7838
   37SOL     OW  109   1.572   2.458   2.971 -0.1672  0.3454 -0.4565
   37SOL    HW1  110   1.577   2.556   2.947  2.4064 -3.2288 -1.8260
   37SOL    HW2  111   1.505   2.457   3.044  1.0250  0.2615 -2.1317
   38SOL     OW  112   2.784   0.886   2.861  0.0207 -0.1747  0.5143
   38SOL    HW1  113   2.881   0.863   2.845  1.1378  0.1760  0.1335
   38SOL    HW2  114   2.764   0.919   2.952 -1.3907 -1.8679 -1.2443
   39SOL     OW  115   1.838   1.752   2.034  0.4104 -0.6215 -0.2023
   39SOL    HW1  116   1.823   1.823   2.112  2.5604  0.9735  2.0026
   39SOL    HW2  117   1.936   1.743   2.016  1.2063 -1.3069  3.0411
   40SOL     OW  118   0.287   0.291   2.656  0.3102  0.7141  0.0092
   40SOL    HW1  119   0.205   0.263   2.711 -0.2694  0.9474  0.4779
   40SOL    HW2  120   0.353   0.213   2.676  0.5965 -2.0890  0.4735
   41SOL     OW  121   1.569   1.317   1.445  0.3220  0.1627  0.3948
   41SOL    HW1  122   1.539   1.222   1.459  0.3571  1.1452  0.9660
   41SOL    HW2  123   1.631   1.344   1.518  0.5448 -1.3342 -2.3977
   42SOL     OW  124   0.178   0.328   1.800  0.5188 -0.8155  0.3180
   42SOL    HW1  125   0.123   0.414   1.790 -4.8219  0.9658 -1.7195
   42SOL    HW2  126   0.157   0.283   1.888 -0.2777  1.1002 -2.1761
   43SOL     OW  127   1.340   1.311   2.051  0.5875 -0.7578  0.2375
   43SOL    HW1  128   1.374   1.214   2.038  1.6809  0.3636  0.2241
   43SOL    HW2  129   1.345   1.359   1.962 -1.3123  0.3053 -3.1287
   44SOL     OW  130   3.042   0.082   0.012  0.2977  0.2581  0.7453
   44SOL    HW1  131   3.007   0.082   3.020 -0.1413  0.1227 -0.2748
   44SOL    HW2  132   2.970   0.120   0.075 -0.1160  0.1454 -0.4898
   45SOL     OW  133   0.418   2.091   1.130  0.3328 -0.1752 -0.4993
   45SOL    HW1  134   0.514   2.125   1.129 -0.8677 -0.0513 -0.7366
   45SOL    HW2  135   0.406   2.003   1.088  1.8023  0.0285  0.8704
   46SOL     OW  136   2.437   2.718   1.756 -0.1122 -0.0623 -0.2104
   46SOL    HW1  137   2.481   2.803   1.795 -0.2187  1.6181 -0.3824
   46SOL    HW2  138   2.490   2.679   1.681 -2.5147  2.5362  2.5498
   47SOL     OW  139   0.834   1.783   1.226 -0.1524  0.0461 -0.3822
   47SOL    HW1  140   0.838   1.691   1.271 -0.3851 -1.3316  3.4589
   47SOL    HW2  141   0.736   1.807   1.225 -0.2553 -0.1850 -0.1746
   48SOL     OW  142   0.585   2.756   0.380  0.1193 -0.1722  0.2497
   48SOL    HW1  143   0.574   2.728   0.477  1.2807 -2.0892  0.4477
   48SOL    HW2  144   0.495   2.766   0.338  1.6903 -1.0028 -0.6489
   49SOL     OW  145   2.861   1.734   1.976 -0.2009 -0.1009 -0.1307
   49SOL    HW1  146   2.897   1.699   2.062  0.5930 -0.2566 -0.1241
   49SOL    HW2  147   2.789   1.668   1.944  1.6611  1.3171  1.9502
   50SOL     OW  148   1.721   0.971   0.715  0.2401  0.1885 -0.1141
   50SOL    HW1  149   1.691   0.880   0.688  0.9211 -0.2885 -2.3300
   50SOL    HW2  150   1.779   0.973   0.799 -0.7875 -0.3469 -1.0542
   51SOL     OW  151   0.883   0.797   0.951  0.2694 -0.4630 -0.3457
   51SOL    HW1  152   0.931   0.745   1.023  2.0419 -0.1812 -2.2911
   51SOL    HW2  153   0.869   0.740   0.866  0.0974  1.3217 -1.2052
   52SOL     OW  154   1.026   1.585   0.321 -0.3868 -0.8189  0.1557
   52SOL    HW1  155   1.090   1.505   0.324 -2.1482  2.4137 -2.0392
   52SOL    HW2  156   0.976   1.596   0.409 -0.5190  0.2821 -2.3693
   53SOL     OW  157   1.166   2.851   2.847  0.0790 -0.0588 -0.0411
   53SOL    HW1  158   1.201   2.759   2.821  1.4834  1.8475  3.4478
   53SOL    HW2  159   1.239   2.925   2.823  0.8069  1.4926 -0.0380
   54SOL     OW  160   1.629   0.659   1.645 -0.3110  0.1679 -0.5750
   54SOL    HW1  161   1.582   0.588   1.702  1.1678  0.4408 -1.3861
   54SOL    HW2  162   1.562   0.731   1.614  1.6485 -1.2787  0.8387
   55SOL     OW  163   2.925   2.582   0.287 -0.8011  0.1673  0.0054
   55SOL    HW1  164   2.992   2.656   0.314  0.6022 -1.0288 -0.2954
   55SOL    HW2  165   2.825   2.612   0.287 -2.3945  0.9510  1.1550
   56SOL     OW  166   0.770   2.450   1.845  0.5817 -0.2807  0.2263
   56SOL    HW1  167   0.673   2.422   1.831 -2.4609 -0.8398 -1.2681
   56SOL    HW2  168   0.783   2.540   1.802  1.5326 -2.9752  1.1208
   57SOL     OW  169   1.878   0.966   2.445 -0.2025  0.0956  0.4426
   57SOL    HW1  170   1.918   0.882   2.486 -0.3072 -1.0020  0.6499
   57SOL    HW2  171   1.778   0.942   2.427  0.2097  0.3828  1.4577
   58SOL     OW  172   0.103   1.211   2.042 -0.3563 -0.4570  0.3003
   58SOL    HW1  173   0.155   1.160   1.965 -0.1043  0.3268  0.9293
   58SOL    HW2  174   0.062   1.294   2.001  1.0515  1.7991  0.0014
   59SOL     OW  175   0.458   2.797   2.248  0.0465 -0.3320 -0.0593
   59SOL    HW1  176   0.528   2.859   2.209 -2.8887 -2.8671 -0.5165
   59SOL    HW2  177   0.502   2.721   2.304  0.8755 -1.1962  0.3219
   60SOL     OW  178   2.828   2.335   0.377 -0.0826 -0.4631  0.0613
   60SOL    HW1  179   2.897   2.271   0.414 -0.4840  2.8363  0.8701
   60SOL    HW2  180   2.873   2.403   0.314 -0.7862 -1.8122  1.3455
   61SOL     OW  181   0.924   2.794   0.674  0.0214 -0.2567  0.5379
   61SOL    HW1  182   0.961   2.702   0.641 -1.7663 -1.1911 -0.0958
   61SOL    HW2  183   0.968   2.863   0.613  1.9905 -3.4179 -2.2046
   62SOL     OW  184   1.730   2.551   2.643  0.0845  0.3823 -0.6852
   62SOL    HW1  185   1.656   2.569   2.578  0.1277  0.4251 -0.3058
   62SOL    HW2  186   1.721   2.453   2.668  1.7862 -0.0501  0.1777
   63SOL     OW  187   1.926   0.543   0.079  0.4152  0.0595 -0.5512
   63SOL    HW1  188   1.987   0.541   3.102 -0.4818 -1.2958 -0.0994
   63SOL    HW2  189   1.954   0.464   0.139  1.2818 -1.0199 -0.8368
   64SOL     OW  190   1.011   1.429   2.734  0.5026 -0.4613 -0.2181
   64SOL    HW1  191   1.055   1.338   2.742 -1.0923 -0.7722 -1.2809
   64SOL    HW2  192   1.072   1.506   2.764  1.7149  1.3882 -1.8572
   65SOL     OW  193   1.288   2.993   1.089 -0.0488 -0.2366  0.0543
   65SOL    HW1  194   1.378   2.958   1.056  2.9106  0.1991  0.1843
   65SOL    HW2  195   1.221   2.993   1.015 -0.6366 -0.2341  0.7836
   66SOL     OW  196   0.470   1.718   1.754  0.5888 -0.2932  0.2027
   66SOL    HW1  197   0.536   1.716   1.677 -1.4006  1.1841  1.4671
   66SOL    HW2  198   0.504   1.769   1.834  1.8562 -0.7823 -0.4549
   67SOL     OW  199   2.293   2.813   2.156  0.4512 -0.2139 -0.1920
   67SOL    HW1  200   2.376   2.762   2.184 -2.9072  3.8362 -1.0213
   67SOL    HW2  201   2.312   2.907   2.131  0.6643 -0.8105  1.9432
   68SOL     OW  202   0.888   0.959   1.574  0.0128  0.1688  0.4780
   68SOL    HW1  203   0.832   1.039   1.569  0.1834 -1.2032 -0.3483
   68SOL    HW2  204   0.816   0.887   1.569 -0.4758  0.3191  5.0987
   69SOL     OW  205   2.515   2.410   0.171 -0.5689 -0.8716 -0.2639
   69SOL    HW1  206   2.447   2.485   0.196 -0.8640  1.8399  2.0741
   69SOL    HW2  207   2.521   2.339   0.244 -2.5608  0.0679  2.1265
   70SOL     OW  208   2.266   0.795   2.850 -0.1597 -0.2188  0.1831
   70SOL    HW1  209   2.368   0.780   2.856  0.3842  2.4972 -2.6397
   70SOL    HW2  210   2.243   0.890   2.819 -1.1342  2.6615 -0.8730
   71SOL     OW  211   3.034   2.154   0.381  0.1530  0.0006 -0.4681
   71SOL    HW1  212   3.033   2.086   0.459  1.2855 -1.4286  2.9210
   71SOL    HW2  213   2.992   2.109   0.295  1.7757 -1.7153 -4.0961
   72SOL     OW  214   2.890   1.794   0.395  0.5602 -0.1054  0.4313
   72SOL    HW1  215   2.926   1.857   0.464 -0.4916 -1.7827 -0.3046
   72SOL    HW2  216   2.932   1.704   0.404 -0.3823  1.9940  1.1253
   73SOL     OW  217   0.955   0.799   0.594 -0.0916  0.8407 -0.3971
   73SOL    HW1  218   0.887   0.754   0.532 -0.0654  1.5741  2.0584
   73SOL    HW2  219   0.912   0.887   0.627 -2.6576  2.6964  1.1524
   74SOL     OW  220   0.211   1.891   2.029 -0.1040  0.1050 -0.3469
   74SOL    HW1  221   0.189   1.888   2.128  0.8661 -2.5808  0.4519
   74SOL    HW2  222   0.272   1.967   1.997 -0.6133 -0.1596  0.1864
   75SOL     OW  223   1.699   1.707   1.438 -0.6740 -0.3669  0.2654
   75SOL    HW1  224   1.744   1.713   1.530 -2.4873  1.7750  0.7688
   75SOL    HW2  225   1.605   1.668   1.451  1.3203  3.8697 -1.7621
   76SOL     OW  226   1.632   2.252   0.990  0.4095  0.0783 -0.0352
   76SOL    HW1  227   1.650   2.226   0.894  0.0991  1.0216  1.8998
   76SOL    HW2  228   1.546   2.220   1.031  1.6153 -0.3161 -0.6031
   77SOL     OW  229   2.480   1.627   2.029  0.9722  0.0956  0.1235
   77SOL    HW1  230   2.549   1.645   2.101  3.0802 -2.9168  1.9077
   77SOL    HW2  231   2.408   1.703   2.023  1.9210 -1.3078  0.0719
   78SOL     OW  232   1.392   0.631   0.720 -0.6455  0.0151 -0.1378
   78SOL    HW1  233   1.299   0.662   0.687 -1.8904  0.3219 -2.9495
   78SOL    HW2  234   1.384   0.531   0.741 -0.4075  1.5111  2.5308
   79SOL     OW  235   2.233   1.778   1.657  0.0484 -0.4106 -0.2956
   79SOL    HW1  236   2.234   1.702   1.593 -0.4236  0.7815  1.4489
   79SOL    HW2  237   2.283   1.860   1.625 -0.3424  1.6126 -1.7910
   80SOL     OW  238   1.165   0.310   1.411  0.2871  0.4628 -0.3575
   80SOL    HW1  239   1.251   0.256   1.430  1.1957 -0.3611  2.5624
   80SOL    HW2  240   1.139   0.362   1.498  0.1115 -1.1828  2.5180
   81SOL     OW  241   0.565   2.634   0.621  0.2366 -0.1327  0.3200
   81SOL    HW1  242   0.634   2.562   0.645 -1.6091 -2.5809  1.4070
   81SOL    HW2  243   0.579   2.713   0.679  1.3133 -2.2075 -1.5578
   82SOL     OW  244   1.397   0.241   1.724  0.3220 -0.1707 -0.3425
   82SOL    HW1  245   1.295   0.243   1.753 -0.5945 -5.3763 -0.6082
   82SOL    HW2  246   1.403   0.250   1.621 -0.5016  2.4856  1.9799
   83SOL     OW  247   0.611   1.968   0.602 -0.1321 -0.2304  0.3350
   83SOL    HW1  248   0.678   2.041   0.635  0.1071  1.6835  2.1244
   83SOL    HW2  249   0.652   1.916   0.521  0.7841 -1.2967 -2.1601
   84SOL     OW  250   2.734   1.324   0.133 -0.1892 -0.0692 -0.3549
   84SOL    HW1  251   2.662   1.280   0.073 -1.3772 -1.0649 -0.8934
   84SOL    HW2  252   2.825   1.289   0.109 -0.5402 -0.2838 -1.9843
   85SOL     OW  253   3.018   2.558   1.526 -0.1222 -0.0866  0.1025
   85SOL    HW1  254   2.968   2.648   1.509  0.5557 -0.5900  0.5735
   85SOL    HW2  255   2.956   2.482   1.544  0.8456 -2.5781 -0.0616
   86SOL     OW  256   1.712   2.770   1.036  0.1065  0.1774 -0.2143
   86SOL    HW1  257   1.767   2.703   1.092  1.6182 -0.3977  0.3161
   86SOL    HW2  258   1.676   2.720   0.952 -0.4282 -0.8025  0.9295
   87SOL     OW  259   2.941   1.566   0.695 -0.4514 -0.1459 -0.5584
   87SOL    HW1  260   2.979   1.471   0.694 -0.6851  2.5334 -0.7297
   87SOL    HW2  261   2.846   1.571   0.665 -0.2369  1.9852  0.4080
   88SOL     OW  262   0.917   0.614   1.187 -0.1161  0.2591  0.0525
   88SOL    HW1  263   0.884   0.696   1.232  0.6826 -3.0001 -1.0565
   88SOL    HW2  264   0.842   0.543   1.179  1.1358 -3.3745 -2.4850
   89SOL     OW  265   0.626   2.854   1.887 -0.0165 -0.1014 -0.0459
   89SOL    HW1  266   0.628   2.758   1.854 -0.1285 -2.9182  2.4424
   89SOL    HW2  267   0.615   2.919   1.808  1.4429 -0.3097  1.0556
   90SOL     OW  268   3.045   1.872   1.246 -0.1509 -0.2179 -0.4391
   90SOL    HW1  269   0.028   1.930   1.261  0.9592  0.8218  3.2174
   90SOL    HW2  270   2.967   1.915   1.191  2.3930  0.2505 -0.8318
   91SOL     OW  271   1.237   1.915   0.913 -0.3454  0.2464  0.4302
   91SOL    HW1  272   1.241   1.974   0.830 -0.3034 -0.4969  1.8556
   91SOL    HW2  273   1.169   1.840   0.904 -1.1545 -0.9549  2.3663
   92SOL     OW  274   2.810   2.811   1.741  0.1087  0.2371 -0.1201
   92SOL    HW1  275   2.750   2.797   1.661  3.8438 -2.4240 -0.0667
   92SOL    HW2  276   2.760   2.863   1.810  1.5340  1.3641 -3.2736
   93SOL     OW  277   2.927   1.178   3.060 -0.2622  0.1677  0.4166
   93SOL    HW1  278   2.954   1.174   2.963 -0.8259 -2.8123 -0.3306
   93SOL    HW2  279   2.835   1.133   3.072 -1.6171  1.9315  0.9268
   94SOL     OW  280   2.485   2.970   1.868  0.1070  0.3764  0.2775
   94SOL    HW1  281   2.432   2.999   1.947 -0.3532  0.1374 -0.6081
   94SOL    HW2  282   2.585   2.984   1.889  1.2545 -1.3574 -0.7284
   95SOL     OW  283   1.503   0.491   1.834 -0.3278  0.2836 -0.2583
   95SOL    HW1  284   1.415   0.545   1.854  1.4741 -1.4258  0.0997
   95SOL    HW2  285   1.477   0.394   1.828 -1.2391 -2.9524  0.3436
   96SOL     OW  286   2.416   0.626   1.910  0.4228 -0.6404 -0.1941
   96SOL    HW1  287   2.459   0.715   1.945  0.5388  3.0818  0.3137
   96SOL    HW2  288   2.485   0.573   1.854  0.1628  0.0101  1.7105
   97SOL     OW  289   2.494   2.995   1.458 -0.0823  0.3552 -0.7243
   97SOL    HW1  290   2.569   2.932   1.483  0.5504  1.6546 -2.3915
   97SOL    HW2  291   2.417   2.986   1.522  0.9241 -0.6467 -1.0046
   98SOL     OW  292   2.107   2.810   1.388 -0.3170 -0.5663  0.2521
   98SOL    HW1  293   2.170   2.746   1.443  0.2891  0.6656  0.3111
   98SOL    HW2  294   2.008   2.798   1.404  0.2591 -2.2664 -0.7142
   99SOL     OW  295   2.670   0.257   1.765 -0.0241  0.2347  0.3606
   99SOL    HW1  296   2.637   0.276   1.861  0.4616 -0.9610  0.3001
   99SOL    HW2  297   2.726   0.171   1.757 -0.8838 -0.6568 -1.3336
  100SOL     OW  298   2.078   1.612   2.110  0.0484 -0.2291  0.4729
  100SOL    HW1  299   2.098   1.699   2.151 -2.4173  0.9967 -2.7235
  100SOL    HW2  300   2.028   1.551   2.175 -0.4554 -1.2552 -1.9080
  101SOL     OW  301   2.044   0.010   0.231 -0.0939 -0.1556  0.2577
  101SOL    HW1  302   2.130   0.062   0.255  1.1035 -2.1377  1.1932
  101SOL    HW2  303   1.975   0.042   0.295  0.0232 -0.1186  0.1302
  102SOL     OW  304   0.609   0.561   1.449  0.8043  0.0102 -0.1207
  102SOL    HW1  305   0.509   0.570   1.471 -1.2796  0.1143  2.9203
  102SOL    HW2  306   0.622   0.484   1.385 -1.6517  2.0501 -1.6760
  103SOL     OW  307   2.419   0.022   2.647  0.4729  0.3961 -0.3155
  103SOL    HW1  308   2.499   0.076   2.685 -1.0415  2.1524  2.1691
  103SOL    HW2  309   2.340   0.021   2.711 -0.5421  0.1327  0.1243
  104SOL     OW  310   3.053   2.893   1.749 -0.4737 -0.1170  0.0306
  104SOL    HW1  311   0.025   2.828   1.751 -1.7354  1.0817  0.4785
  104SOL    HW2  312   2.965   2.851   1.720  1.2386  2.0374 -3.5412
  105SOL     OW  313   1.270   0.765   2.114  0.3376 -0.1556  0.0620
  105SOL    HW1  314   1.211   0.847   2.126  0.8668  0.1899  2.4684
  105SOL    HW2  315   1.258   0.717   2.027  0.1520 -1.2638 -1.2125
  106SOL     OW  316   1.617   0.141   0.776 -0.0251  0.0703  0.3589
  106SOL    HW1  317   1.637   0.187   0.866  2.1863  1.6082  0.8683
  106SOL    HW2  318   1.692   0.159   0.712  0.0532 -1.8000  1.9745
  107SOL     OW  319   0.645   1.166   1.253 -0.0944 -0.1080 -0.1520
  107SOL    HW1  320   0.574   1.113   1.309 -2.0308  0.2431  2.7265
  107SOL    HW2  321   0.689   1.103   1.188  0.3822 -0.7240 -2.0767
  108SOL     OW  322   2.838   0.395   2.268  0.0824  0.3030 -0.6472
  108SOL    HW1  323   2.847   0.369   2.168 -0.0926 -0.7945 -0.4681
  108SOL    HW2  324   2.906   0.335   2.323  0.7984 -1.8655  0.9983
  109SOL     OW  325   2.090   0.119   3.077  0.0044  0.5146  0.4596
  109SOL    HW1  326   2.076   0.075   0.066 -0.3134  0.5478 -2.2335
  109SOL    HW2  327   2.002   0.117   3.027  2.2729 -2.1920 -2.2300
  110SOL     OW  328   3.058   1.865   2.867  0.1401 -0.1585  0.1322
  110SOL    HW1  329   0.029   1.930   2.897 -3.1873  0.8320 -1.2747
  110SOL    HW2  330   3.072   1.770   2.900 -2.0339  3.4472 -0.1491
  111SOL     OW  331   2.449   0.209   2.438 -0.0392  0.1060  0.3659
  111SOL    HW1  332   2.390   0.269   2.500 -1.2782  0.6832 -1.3805
  111SOL    HW2  333   2.455   0.116   2.478  2.7425  0.2084 -0.0934
  112SOL     OW  334   2.538   2.768   1.120  0.0894 -0.0641  0.5407
  112SOL    HW1  335   2.634   2.776   1.095 -0.2231  2.1431  0.4211
  112SOL    HW2  336   2.498   2.855   1.154 -0.0854  0.6728  3.2371
  113SOL     OW  337   2.538   2.316   1.928 -0.2014  0.5983 -0.1437
  113SOL    HW1  338   2.613   2.307   1.858  1.4103  0.4299 -0.6934
  113SOL    HW2  339   2.450   2.333   1.880  1.1275  0.5803  1.0518
  114SOL     OW  340   2.620   0.019   0.522  0.4276 -0.2094 -0.5891
  114SOL    HW1  341   2.556   3.062   0.576  1.6525 -0.0326 -1.4180
  114SOL    HW2  342   2.693   0.047   0.585 -1.5232  0.8944  0.1692
  115SOL     OW  343   2.802   1.813   0.125 -0.4038  0.2072  0.7845
  115SOL    HW1  344   2.868   1.796   0.205 -2.2546 -1.9873  1.7894
  115SOL    HW2  345   2.763   1.725   0.087  3.7382  0.0339 -0.8636
  116SOL     OW  346   0.059   1.480   1.952 -0.3497 -0.7157 -0.1111
  116SOL    HW1  347   0.128   1.559   1.934  2.1784  2.7243  0.5671
  116SOL    HW2  348   3.091   1.487   1.876 -1.5709  1.9599  0.0302
  117SOL     OW  349   2.207   0.109   1.034 -0.9685  0.1542  0.4757
  117SOL    HW1  350   2.176   0.065   1.121 -0.3637 -0.0570 -0.7671
  117SOL    HW2  351   2.296   0.154   1.047 -1.7113 -0.5243 -0.7655
  118SOL     OW  352   0.295   2.166   1.694  0.6310  0.3998 -0.2153
  118SOL    HW1  353   0.285   2.070   1.653  1.0038 -0.4216 -0.8386
  118SOL    HW2  354   0.355   2.221   1.634 -0.1523 -2.4588  2.1885
  119SOL     OW  355   1.335   2.179   1.431  0.3902  0.1602  0.5287
  119SOL    HW1  356   1.282   2.095   1.429  0.0603  0.7156 -1.4546
  119SOL    HW2  357   1.280   2.255   1.389 -2.4333 -1.7361 -0.7996
  120SOL     OW  358   0.263   1.923   1.591  0.1999  0.4659 -0.2198
  120SOL    HW1  359   0.205   1.838   1.592  1.0559  1.2751  0.1224
  120SOL    HW2  360   0.363   1.902   1.576 -0.3411 -0.1192  1.0331
  121SOL     OW  361   2.360   1.223   0.993  0.0434  0.0877 -0.0809
  121SOL    HW1  362   2.390   1.244   1.092  0.8990 -1.9507 -0.4718
  121SOL    HW2  363   2.310   1.305   0.953 -0.1096  0.2285 -0.6885
  122SOL     OW  364   2.262   1.882   2.668  0.2850 -0.0289  0.3363
  122SOL    HW1  365   2.179   1.871   2.724 -2.4867 -0.1962  1.2960
  122SOL    HW2  366   2.288   1.977   2.664 -0.4046 -3.6933  0.1992
  123SOL     OW  367   2.790   2.789   0.583 -0.1788  0.2210 -0.3691
  123SOL    HW1  368   2.719   2.801   0.658  0.6501 -0.9095  1.6790
  123SOL    HW2  369   2.854   2.714   0.601  0.1566  0.0212  1.0346
  124SOL     OW  370   1.136   1.272   0.075  0.4188 -0.0864  0.1198
  124SOL    HW1  371   1.049   1.328   0.080 -1.1077  2.1059  0.2161
  124SOL    HW2  372   1.123   1.180   0.026  0.6856  1.0456 -0.4017
  125SOL     OW  373   0.141   1.460   2.760  0.3927 -0.3472  0.3353
  125SOL    HW1  374   0.152   1.513   2.674  2.2339  0.8750  0.7933
  125SOL    HW2  375   0.218   1.408   2.798 -2.9164  2.4014  2.4327
  126SOL     OW  376   0.054   2.385   0.451 -0.0806  0.2381 -0.3498
  126SOL    HW1  377   0.129   2.417   0.383  1.0030 -0.4629 -0.4535
  126SOL    HW2  378   0.003   2.306   0.411 -0.4091 -0.4271 -0.5269
  127SOL     OW  379   0.101   1.697   0.611 -0.3679  0.3217 -0.1394
  127SOL    HW1  380   0.004   1.670   0.612  1.7105 -1.8514  0.6923
  127SOL    HW2  381   0.120   1.783   0.562 -0.2497  0.9714  0.8023
  128SOL     OW  382   1.205   1.339   0.328  0.5199  0.4559  0.1454
  128SOL    HW1  383   1.131   1.319   0.392  1.9650  0.2645  2.1097
  128SOL    HW2  384   1.199   1.281   0.241  0.0508  0.0027 -2.6916
  129SOL     OW  385   2.088   1.873   1.326 -0.0861 -0.0118  0.2504
  129SOL    HW1  386   2.055   1.957   1.274 -0.1908  2.3952 -1.4388
  129SOL    HW2  387   2.188   1.883   1.348  1.3094 -1.9398  0.0479
  130SOL     OW  388   1.964   0.953   0.578 -0.0395  0.3475 -0.6511
  130SOL    HW1  389   1.983   0.853   0.565  1.7144 -0.3358  2.0712
  130SOL    HW2  390   1.870   0.966   0.614 -0.5303 -0.8362  2.2976
  131SOL     OW  391   2.766   1.058   2.649 -0.1499 -0.2106  0.3561
  131SOL    HW1  392   2.776   0.992   2.729 -1.8737 -1.7293  0.5716
  131SOL    HW2  393   2.712   1.006   2.581  3.4516  0.2707  2.3013
  132SOL     OW  394   1.697   1.516   2.002  0.3317  0.0281 -0.0498
  132SOL    HW1  395   1.767   1.588   2.001 -0.7418  0.1041 -0.6098
  132SOL    HW2  396   1.618   1.543   2.060 -1.7667 -3.4648  0.9680
  133SOL     OW  397   0.064   1.211   0.095  0.4326 -0.6480  0.4672
  133SOL    HW1  398   3.083   1.196   0.040  2.0899  2.7952  0.3352
  133SOL    HW2  399   0.046   1.224   0.192 -0.6929 -1.5341  2.9057
  134SOL     OW  400   2.743   0.881   0.688 -0.7121 -0.4290 -0.2175
  134SOL    HW1  401   2.656   0.886   0.640  3.1392 -0.6078  0.7789
  134SOL    HW2  402   2.793   0.800   0.652  0.0612 -3.2573 -0.2966
  135SOL     OW  403   2.304   0.892   0.084  0.7092  0.0022 -0.3230
  135SOL    HW1  404   2.337   0.818   0.025  0.6358  0.0565  1.7726
  135SOL    HW2  405   2.307   0.979   0.038 -0.1215 -0.6775 -0.7736
  136SOL     OW  406   1.890   1.907   1.528  0.1662 -0.3005 -0.4286
  136SOL    HW1  407   1.850   1.839   1.587  1.1503  2.4857 -0.9025
  136SOL    HW2  408   1.957   1.867   1.460 -1.4362  0.1210 -1.2137
  137SOL     OW  409   2.370   2.467   0.517 -0.1231 -0.1986 -0.0206
  137SOL    HW1  410   2.464   2.440   0.550  0.8313 -3.4586 -1.4069
  137SOL    HW2  411   2.310   2.422   0.584  0.3916  1.2021 -1.7401
  138SOL     OW  412   2.236   0.363   1.513 -0.2959  0.7128 -0.0865
  138SOL    HW1  413   2.163   0.424   1.553 -1.3258  0.2150 -0.1011
  138SOL    HW2  414   2.263   0.388   1.419  2.8527 -3.2830  4.9862
  139SOL     OW  415   2.642   0.126   2.778 -0.4973  0.2644 -0.2260
  139SOL    HW1  416   2.606   0.074   2.858 -0.1547 -2.6429 -2.8176
  139SOL    HW2  417   2.656   0.220   2.808 -0.3674  0.7563 -1.8550
  140SOL     OW  418   1.254   1.551   2.454  0.4901 -0.0479  0.0213
  140SOL    HW1  419   1.260   1.462   2.403 -1.0983  0.9318  0.3258
  140SOL    HW2  420   1.327   1.550   2.523 -0.0458  2.2651 -2.0938
  141SOL     OW  421   0.739   0.603   2.296  0.8971  0.9286 -0.2227
  141SOL    HW1  422   0.650   0.633   2.257 -1.8362  1.8331 -0.3452
  141SOL    HW2  423   0.779   0.528   2.238 -1.8900 -1.1705  0.2502
  142SOL     OW  424   2.581   2.564   2.905  0.5072 -0.3457 -0.4463
  142SOL    HW1  425   2.652   2.563   2.977 -1.1959  0.4886  0.2035
  142SOL    HW2  426   2.591   2.635   2.838 -3.4017 -0.2656  1.4287
  143SOL     OW  427   1.037   2.223   0.383  0.2956 -0.2951 -0.4110
  143SOL    HW1  428   0.950   2.280   0.391 -1.0685 -0.1670 -0.2429
  143SOL    HW2  429   1.053   2.160   0.462  3.9698  0.4526 -0.6724
  144SOL     OW  430   1.356   2.430   0.049 -0.0580  0.7029 -0.0986
  144SOL    HW1  431   1.259   2.419   0.017 -0.1195  0.1497 -3.0937
  144SOL    HW2  432   1.362   2.466   0.143 -0.9382  0.0649 -0.2421
  145SOL     OW  433   1.707   2.161   2.477 -0.3150  0.3323 -0.7252
  145SOL    HW1  434   1.782   2.105   2.514 -1.5130  0.3130 -0.7731
  145SOL    HW2  435   1.660   2.122   2.398 -1.7268  0.9098 -1.4065
  146SOL     OW  436   2.856   2.900   2.891  0.1669  0.6250  0.4202
  146SOL    HW1  437   2.841   2.868   2.988  3.1365  0.9083  0.1962
  146SOL    HW2  438   2.798   2.843   2.827  2.3889  0.2034  1.7272
  147SOL     OW  439   3.085   1.415   1.234 -0.0004 -0.4976  0.1039
  147SOL    HW1  440   0.046   1.495   1.247 -3.7033 -1.8327  0.5825
  147SOL    HW2  441   2.991   1.448   1.206 -1.6178  1.9995  1.0119
  148SOL     OW  442   1.823   2.855   0.048 -0.3939  0.1545 -0.3641
  148SOL    HW1  443   1.762   2.898   0.122 -0.3214  0.9585 -0.3159
  148SOL    HW2  444   1.806   2.910   3.066 -0.0841 -0.9489  0.0427
  149SOL     OW  445   0.701   1.910   2.796  0.5516  0.0429 -0.1807
  149SOL    HW1  446   0.605   1.874   2.803  0.2005 -2.0751  2.2772
  149SOL    HW2  447   0.710   2.011   2.784 -1.0094  3.3439  0.6476
  150SOL     OW  448   0.329   2.383   0.345  0.1396 -0.1726  0.3491
  150SOL    HW1  449   0.314   2.294   0.303 -1.3676  2.0495  3.3217
  150SOL    HW2  450   0.431   2.396   0.347 -2.6759 -1.1522  1.1353
  151SOL     OW  451   0.387   1.275   0.248 -0.5108 -0.7614  0.7643
  151SOL    HW1  452   0.347   1.180   0.250 -1.7525 -0.0120  2.2211
  151SOL    HW2  453   0.351   1.318   0.163 -0.4753 -1.4885  2.2072
  152SOL     OW  454   2.677   1.591   0.634  0.3434  0.0147 -0.3920
  152SOL    HW1  455   2.680   1.527   0.555 -0.7080  0.1363  0.8966
  152SOL    HW2  456   2.639   1.686   0.610 -0.8663  3.6703  1.0482
  153SOL     OW  457   1.876   2.251   0.418 -0.6824  0.4407  0.1276
  153SOL    HW1  458   1.907   2.292   0.330 -0.1188 -0.6766 -1.1551
  153SOL    HW2  459   1.795   2.302   0.454  0.0691 -3.5290 -1.6529
  154SOL     OW  460   0.847   2.580   0.892 -0.0780 -0.2059  0.0904
  154SOL    HW1  461   0.854   2.635   0.807  1.2975 -0.7320  1.2397
  154SOL    HW2  462   0.748   2.564   0.910  0.0361  0.8360  2.8059
  155SOL     OW  463   2.955   1.699   0.934 -0.1732  0.1920 -0.2887
  155SOL    HW1  464   2.939   1.658   0.845 -0.3025  0.5465  0.3674
  155SOL    HW2  465   3.056   1.705   0.948  0.3733  3.4377  1.3742
  156SOL     OW  466   2.568   2.217   0.345  0.3751  0.0539 -0.0329
  156SOL    HW1  467   2.538   2.170   0.429 -1.8951 -1.0669 -2.6919
  156SOL    HW2  468   2.665   2.246   0.350 -0.0915  0.4791 -0.1421
  157SOL     OW  469   0.524   2.089   1.448  0.3305 -0.4102  0.5588
  157SOL    HW1  470   0.572   2.045   1.525  0.4243 -0.0772 -2.6854
  157SOL    HW2  471   0.571   2.070   1.360 -1.8646 -1.8034  0.8463
  158SOL     OW  472   1.611   0.786   0.374  0.1029  0.7463  0.2966
  158SOL    HW1  473   1.556   0.756   0.293 -0.1641  0.4756 -0.8115
  158SOL    HW2  474   1.710   0.804   0.354  0.5076  1.5473 -1.8578
  159SOL     OW  475   1.175   0.803   0.131  0.5043 -0.0446 -0.0565
  159SOL    HW1  476   1.134   0.815   0.225  0.1135 -0.2961 -0.3968
  159SOL    HW2  477   1.134   0.723   0.080  0.3042 -1.4334  0.1975
  160SOL     OW  478   0.785   1.365   0.503  0.5198 -0.2656 -0.0149
  160SOL    HW1  479   0.754   1.441   0.567 -1.0232  2.5355  1.4392
  160SOL    HW2  480   0.882   1.343   0.518 -1.5277 -0.6005 -1.6740
  161SOL     OW  481   0.217   2.269   2.606  0.0551 -0.8722 -0.0823
  161SOL    HW1  482   0.121   2.263   2.634 -0.9115  0.9483 -1.9893
  161SOL    HW2  483   0.279   2.243   2.680  0.1404  3.2979 -1.6074
  162SOL     OW  484   0.136   2.525   0.893 -0.2107 -0.6491 -0.4645
  162SOL    HW1  485   0.139   2.461   0.973  1.1610 -2.2877 -1.0144
  162SOL    HW2  486   0.121   2.468   0.806 -1.0152  1.2672 -3.0670
  163SOL     OW  487   2.965   0.480   2.625  0.3302 -0.1191  0.4705
  163SOL    HW1  488   2.927   0.563   2.577  2.3950 -1.2104  1.8397
  163SOL    HW2  489   3.037   0.504   2.698  2.2713  0.1342  0.1937
  164SOL     OW  490   0.457   0.112   2.720  0.6053 -0.1779  0.4604
  164SOL    HW1  491   0.388   0.067   2.781  0.8159 -0.7366 -0.4653
  164SOL    HW2  492   0.499   0.044   2.658 -2.1718 -0.9004 -0.4834
  165SOL     OW  493   2.201   0.708   1.791 -0.2856 -0.0598  0.5179
  165SOL    HW1  494   2.120   0.656   1.821  1.2957 -2.3551 -3.1568
  165SOL    HW2  495   2.277   0.667   1.848  0.1949 -1.0721  0.7091
  166SOL     OW  496   2.044   2.356   1.622  0.2524  0.3934 -0.6459
  166SOL    HW1  497   1.995   2.269   1.647 -2.6312  2.6022  3.1663
  166SOL    HW2  498   2.025   2.420   1.699 -3.0673  3.7322 -0.3339
  167SOL     OW  499   1.052   1.187   2.380  0.4945 -0.0396 -0.2682
  167SOL    HW1  500   1.040   1.171   2.479 -1.9010  0.3229  0.2325
  167SOL    HW2  501   0.960   1.214   2.336 -3.0551  1.2005 -0.5907
  168SOL     OW  502   2.348   3.063   2.069  0.1007  0.0182 -0.2042
  168SOL    HW1  503   2.275   0.033   2.066  1.9225  1.7638 -3.9522
  168SOL    HW2  504   2.417   3.102   2.128 -0.6078 -1.1880 -4.2875
  169SOL     OW  505   0.300   1.036   0.311 -0.0117  0.2599 -0.1400
  169SOL    HW1  506   0.237   1.046   0.387  1.0292 -0.0107  0.0846
  169SOL    HW2  507   0.251   0.974   0.246 -0.6175 -0.9863 -0.9128
  170SOL     OW  508   2.953   1.498   1.784 -0.3413 -0.3617 -0.2128
  170SOL    HW1  509   2.929   1.486   1.687 -3.5818  0.1614  2.5394
  170SOL    HW2  510   2.882   1.545   1.840 -0.1320 -2.2738  1.6874
  171SOL     OW  511   1.151   2.230   1.973  0.4978  0.6898 -0.5279
  171SOL    HW1  512   1.071   2.279   2.015  0.0511 -1.1509  0.9868
  171SOL    HW2  513   1.240   2.262   2.008 -0.3028 -1.2696 -2.9375
  172SOL     OW  514   0.947   2.437   2.032  0.1136  0.1969 -0.3306
  172SOL    HW1  515   0.876   2.435   1.958  0.6400 -1.6883  1.1767
  172SOL    HW2  516   0.964   2.530   2.077 -1.1743  2.3626 -0.2050
  173SOL     OW  517   1.379   2.575   0.860 -0.4573  0.3961 -0.2186
  173SOL    HW1  518   1.477   2.580   0.845 -0.6833 -0.6592  0.0053
  173SOL    HW2  519   1.328   2.642   0.803  0.1086 -1.9239  1.7560
  174SOL     OW  520   2.264   0.127   0.320 -0.1216  0.2003  0.6504
  174SOL    HW1  521   2.286   0.113   0.416 -0.0959  1.0696  0.6880
  174SOL    HW2  522   2.308   0.217   0.291 -1.4423  0.0457 -0.9808
  175SOL     OW  523   1.188   1.876   0.404 -0.2192 -0.7004 -0.2757
  175SOL    HW1  524   1.270   1.926   0.369 -1.2394  0.4866 -2.0247
  175SOL    HW2  525   1.189   1.779   0.379 -0.3215  5.4983 -2.0956
  176SOL     OW  526   0.715   1.563   0.683 -0.1377 -0.1533  0.4223
  176SOL    HW1  527   0.708   1.490   0.757 -0.9630 -0.6982  2.4672
  176SOL    HW2  528   0.642   1.634   0.690  1.8708  1.3906 -2.6194
  177SOL     OW  529   1.199   1.264   1.428 -0.5140  0.1907  0.3771
  177SOL    HW1  530   1.237   1.271   1.333  0.1788 -0.0020 -1.8501
  177SOL    HW2  531   1.266   1.281   1.504  0.3193  0.7866 -3.2469
  178SOL     OW  532   2.502   1.500   0.418  0.1542  0.5705  0.0359
  178SOL    HW1  533   2.602   1.496   0.400 -0.5755 -0.4585  1.6678
  178SOL    HW2  534   2.467   1.404   0.400  2.0257  1.2207 -1.1087
  179SOL     OW  535   1.109   2.394   3.050 -0.2742 -0.1181 -0.3659
  179SOL    HW1  536   1.030   2.408   0.007  2.4768  0.1529 -1.1397
  179SOL    HW2  537   1.088   2.386   2.952 -1.4262  1.8366  3.5093
  180SOL     OW  538   2.029   1.692   1.795 -0.1450  0.4364  0.2988
  180SOL    HW1  539   2.054   1.639   1.877 -0.2755  0.9103 -1.0473
  180SOL    HW2  540   2.112   1.729   1.749 -2.0821 -0.5356  1.7264
  181SOL     OW  541   0.706   1.032   2.237  0.2334 -0.7749  0.0037
  181SOL    HW1  542   0.657   1.040   2.148 -0.0414 -2.5291  1.7391
  181SOL    HW2  543   0.777   0.952   2.241  1.2176 -5.2933 -0.4292
  182SOL     OW  544   2.792   0.941   2.272 -0.3821 -0.3319 -0.1190
  182SOL    HW1  545   2.729   0.943   2.347  3.0472  1.4062 -0.5057
  182SOL    HW2  546   2.841   0.852   2.276 -2.4928 -0.7140  0.6322
  183SOL     OW  547   1.468   0.706   2.284  0.4112 -0.4808  0.7326
  183SOL    HW1  548   1.510   0.617   2.256  1.4675 -1.5618  1.6802
  183SOL    HW2  549   1.376   0.723   2.241 -1.0051 -3.8046  0.7923
  184SOL     OW  550   0.343   0.749   1.794 -0.1067  0.1976  0.4365
  184SOL    HW1  551   0.398   0.693   1.864  1.5019  0.3601 -2.6210
  184SOL    HW2  552   0.412   0.818   1.757  0.2309  0.9074  2.3897
  185SOL     OW  553   2.242   1.810   0.711  0.7179 -0.0253 -0.4723
  185SOL    HW1  554   2.287   1.746   0.650 -1.5900  0.5727  0.8670
  185SOL    HW2  555   2.234   1.776   0.808 -0.7599 -0.2030  0.1328
  186SOL     OW  556   0.440   1.947   0.063 -0.0157  0.2250  0.5362
  186SOL    HW1  557   0.531   1.970   0.017  4.8496  0.2723 -1.0315
  186SOL    HW2  558   0.445   1.858   0.113  2.4866 -2.2637  2.7219
  187SOL     OW  559   2.411   1.676   0.007  0.0820 -0.0952 -0.0175
  187SOL    HW1  560   2.478   1.720   3.045  1.5735 -0.5827 -0.2185
  187SOL    HW2  561   2.326   1.652   3.051 -3.5717  1.0563 -1.2584
  188SOL     OW  562   0.977   2.373   1.004  0.0695  0.0867 -0.5420
  188SOL    HW1  563   1.077   2.370   0.998  0.1277  0.3244  1.8150
  188SOL    HW2  564   0.934   2.452   0.949 -2.7277  0.1449  0.9860
  189SOL     OW  565   1.893   1.209   2.561 -0.2483  0.3413  0.0787
  189SOL    HW1  566   1.890   1.125   2.506  0.4887  2.4105  1.8740
  189SOL    HW2  567   1.970   1.275   2.544  0.6406  2.2409 -1.1486
  190SOL     OW  568   0.864   2.057   2.218 -0.1125 -0.0499 -0.2349
  190SOL    HW1  569   0.820   1.966   2.244 -0.5964 -1.1749 -1.1679
  190SOL    HW2  570   0.943   2.078   2.279 -0.5276 -2.9615  0.5260
  191SOL     OW  571   2.342   0.699   1.472  0.1941 -0.3852 -0.3848
  191SOL    HW1  572   2.276   0.689   1.547 -0.6235 -2.8491 -0.7147
  191SOL    HW2  573   2.400   0.620   1.454 -0.3953  0.8844  0.1572
  192SOL     OW  574   2.326   0.560   2.164 -0.3007  0.0265  0.2953
  192SOL    HW1  575   2.355   0.613   2.084  0.2868  2.7684  0.1230
  192SOL    HW2  576   2.390   0.578   2.239  0.4750 -0.5173 -0.7822
  193SOL     OW  577   0.882   0.305   0.668  0.2508 -0.3128  0.0070
  193SOL    HW1  578   0.892   0.248   0.584 -0.7575 -2.6420 -0.4907
  193SOL    HW2  579   0.903   0.254   0.748 -0.7622  0.9380 -0.2250
  194SOL     OW  580   1.404   2.417   1.784  0.1167 -0.1826  0.3361
  194SOL    HW1  581   1.385   2.315   1.771  1.1072  0.5376 -1.2853
  194SOL    HW2  582   1.318   2.467   1.764  0.2756  1.0097  0.0289
  195SOL     OW  583   2.810   0.864   0.952 -0.0866  0.4883  0.5244
  195SOL    HW1  584   2.741   0.877   1.026  0.3087  2.3092 -1.2252
  195SOL    HW2  585   2.776   0.889   0.858  0.5737  1.4567 -0.6467
  196SOL     OW  586   1.093   1.728   1.557 -0.8254 -0.3189  0.0144
  196SOL    HW1  587   1.149   1.817   1.544  0.0133  3.9101 -1.0165
  196SOL    HW2  588   1.052   1.729   1.652 -2.4357  1.9673  2.0867
  197SOL     OW  589   0.341   0.863   2.404 -0.8364  0.5756 -0.4429
  197SOL    HW1  590   0.283   0.916   2.342  0.5248 -1.9283  2.6325
  197SOL    HW2  591   0.332   0.764   2.389 -2.5076  1.9703  1.5540
  198SOL     OW  592   1.646   1.037   0.210 -0.3640 -0.3067  0.3541
  198SOL    HW1  593   1.675   0.943   0.176  1.9847 -0.8908 -1.4707
  198SOL    HW2  594   1.725   1.064   0.270  1.3797 -1.1384 -2.4095
  199SOL     OW  595   2.655   0.586   2.125  0.0927 -0.3823 -0.1419
  199SOL    HW1  596   2.625   0.536   2.204 -1.4210  0.8535 -0.3329
  199SOL    HW2  597   2.603   0.673   2.107  1.2537  1.2439 -1.2390
  200SOL     OW  598   2.223   2.520   2.561 -0.0050 -0.2679  0.4233
  200SOL    HW1  599   2.312   2.563   2.533 -1.1964  0.8450  0.0940
  200SOL    HW2  600   2.230   2.478   2.654 -3.1153  0.3699 -1.5291
  201SOL     OW  601   2.274   0.108   1.450 -0.3515  0.0879  0.3602
  201SOL    HW1  602   2.278   0.206   1.467 -2.2030  0.5911 -0.5550
  201SOL    HW2  603   2.286   0.043   1.526 -1.9603 -0.9732  1.1179
  202SOL     OW  604   2.733   2.523   0.056  0.1209 -0.2543 -0.0709
  202SOL    HW1  605   2.753   2.599   0.119  0.4023  0.1334 -1.1419
  202SOL    HW2  606   2.649   2.472   0.082  2.6657 -1.1697 -3.2706
  203SOL     OW  607   0.987   2.044   2.483 -0.2137 -0.1959  0.4217
  203SOL    HW1  608   0.896   2.098   2.472 -2.2154  1.7905  1.4552
  203SOL    HW2  609   1.003   2.034   2.583  0.0493  1.1267  2.1145
  204SOL     OW  610   0.771   1.517   2.695 -0.1458 -0.3771  0.1879
  204SOL    HW1  611   0.689   1.477   2.743 -2.0718  1.8887  0.3510
  204SOL    HW2  612   0.851   1.460   2.716 -0.3130 -0.1189 -0.6843
  205SOL     OW  613   0.940   1.091   1.175  0.5049 -0.6653 -0.3124
  205SOL    HW1  614   1.040   1.108   1.169  0.4402  1.0015 -0.0130
  205SOL    HW2  615   0.892   1.178   1.178 -0.4639  2.3321 -1.3600
  206SOL     OW  616   0.116   0.703   2.640  0.2340  0.9156  0.1106
  206SOL    HW1  617   0.181   0.760   2.692 -1.0688 -1.6967  2.0610
  206SOL    HW2  618   0.156   0.681   2.543  1.1646 -0.6223 -2.3091
  207SOL     OW  619   1.936   2.338   2.021  0.3791 -0.1236  0.1864
  207SOL    HW1  620   2.027   2.306   2.046 -3.5826  0.0881  1.4813
  207SOL    HW2  621   1.923   2.439   2.004  1.7953  0.0636 -0.2774
  208SOL     OW  622   1.053   2.611   1.476 -0.8507  0.1292 -0.4054
  208SOL    HW1  623   0.954   2.603   1.462  4.6142  0.0205  1.9609
  208SOL    HW2  624   1.088   2.688   1.427 -2.7955 -0.6698 -2.4260
  209SOL     OW  625   1.442   1.547   3.026  0.0019 -0.1210  0.5790
  209SOL    HW1  626   1.442   1.448   3.045 -0.1631  0.9428 -0.0775
  209SOL    HW2  627   1.428   1.561   2.926  0.0921 -2.9895 -2.0815
  210SOL     OW  628   2.173   0.594   1.044  0.2576 -0.0091  0.3149
  210SOL    HW1  629   2.204   0.685   1.013 -0.2846  2.9144  0.5744
  210SOL    HW2  630   2.105   0.561   0.976  2.8350 -1.1309  1.3755
  211SOL     OW  631   1.310   2.627   0.259 -0.0565  0.1963 -0.0940
  211SOL    HW1  632   1.346   2.615   0.352 -2.2201 -1.2176 -1.8084
  211SOL    HW2  633   1.381   2.676   0.205  2.7368  0.3903  2.5213
  212SOL     OW  634   2.256   2.053   0.558 -0.3782 -0.1816  0.5702
  212SOL    HW1  635   2.236   1.957   0.589  2.4982  2.9736  0.0281
  212SOL    HW2  636   2.210   2.070   0.468 -0.4887 -0.1915 -0.2180
  213SOL     OW  637   1.736   0.676   2.852 -0.0178  0.3341  0.3927
  213SOL    HW1  638   1.717   0.630   2.939  0.1901 -0.0794 -1.7203
  213SOL    HW2  639   1.712   0.773   2.864  0.2888  2.2225 -0.4957
  214SOL     OW  640   1.013   1.774   1.845 -0.4594  0.5650 -0.0426
  214SOL    HW1  641   0.939   1.833   1.881 -0.8920 -2.1446  0.5682
  214SOL    HW2  642   1.044   1.710   1.920  0.2858 -1.9708  0.1411
  215SOL     OW  643   0.365   1.367   0.529 -0.0060 -0.2125  0.3341
  215SOL    HW1  644   0.352   1.327   0.438  0.5385 -1.5684  2.5523
  215SOL    HW2  645   0.377   1.466   0.521 -0.5703  0.4690  0.0907
  216SOL     OW  646   0.045   2.999   2.367  0.2441  0.0433  0.1728
  216SOL    HW1  647   0.126   2.979   2.430  3.6271 -1.7736  0.7194
  216SOL    HW2  648   0.056   2.938   2.284 -0.7287 -0.1788  0.6235
  217SOL     OW  649   2.554   0.875   1.412 -0.2250 -0.1589  0.0232
  217SOL    HW1  650   2.466   0.828   1.429  2.5085 -0.0686  0.9783
  217SOL    HW2  651   2.603   0.867   1.502  1.5036  2.3655  0.2531
  218SOL     OW  652   1.316   1.763   2.167 -0.1226 -0.2558  0.2076
  218SOL    HW1  653   1.345   1.820   2.083 -0.2768 -2.9660 -0.9846
  218SOL    HW2  654   1.295   1.818   2.249 -0.2707  3.2400 -0.4114
  219SOL     OW  655   1.999   1.569   0.160 -0.4880  0.4099  0.1271
  219SOL    HW1  656   1.998   1.501   0.232  0.4721  1.0528 -0.8239
  219SOL    HW2  657   1.920   1.559   0.097  0.5196  2.0074  1.0777
  220SOL     OW  658   2.011   0.701   0.507 -0.3944  0.2788  0.3058
  220SOL    HW1  659   2.075   0.708   0.425  0.8512 -0.3431 -4.3840
  220SOL    HW2  660   1.966   0.609   0.506 -2.9882 -1.1656 -0.7643
  221SOL     OW  661   0.123   0.268   0.120 -0.1436  0.0457  0.6267
  221SOL    HW1  662   0.187   0.324   0.062 -0.8192  1.6165 -1.2532
  221SOL    HW2  663   0.052   0.214   0.075 -1.6431  0.2989 -0.7262
  222SOL     OW  664   1.509   1.989   0.676 -0.0591  0.3493 -0.1425
  222SOL    HW1  665   1.525   1.905   0.723 -0.5168  1.4924 -2.0941
  222SOL    HW2  666   1.414   2.021   0.689  3.0427  0.8873 -1.1816
  223SOL     OW  667   0.827   0.126   0.059 -0.4023  0.4888  0.7923
  223SOL    HW1  668   0.914   0.171   0.034 -0.2359  0.6754 -2.9016
  223SOL    HW2  669   0.775   0.093   3.081  1.7568 -0.2154  1.0180
  224SOL     OW  670   1.830   0.112   1.110  0.0072  0.6312  0.0726
  224SOL    HW1  671   1.798   0.086   1.208 -1.1811 -1.7547 -0.0882
  224SOL    HW2  672   1.868   0.030   1.063  1.6865  1.4298 -0.9434
  225SOL     OW  673   0.639   2.496   1.215 -0.0909  0.5087  0.4783
  225SOL    HW1  674   0.611   2.520   1.120  0.9122 -1.0937  1.4841
  225SOL    HW2  675   0.556   2.506   1.276 -0.3123  1.1618  1.8655
  226SOL     OW  676   1.060   1.808   0.116  0.2316  0.2177  0.1771
  226SOL    HW1  677   1.044   1.760   0.210  0.7199 -0.5869  3.1465
  226SOL    HW2  678   1.081   1.908   0.123  1.0564  0.8903  2.4782
  227SOL     OW  679   0.775   1.780   0.958 -0.1178  0.1628 -0.0472
  227SOL    HW1  680   0.686   1.751   0.923  0.5108  0.5105 -1.0932
  227SOL    HW2  681   0.787   1.771   1.058  0.4343 -0.5343  0.5796
  228SOL     OW  682   0.371   1.643   0.523  0.4016 -0.1863 -0.2813
  228SOL    HW1  683   0.365   1.680   0.427 -1.0382  1.4737  0.9785
  228SOL    HW2  684   0.279   1.661   0.558 -0.2070  0.4809  0.3191
  229SOL     OW  685   2.315   0.364   2.608  0.0921 -0.1462 -0.0097
  229SOL    HW1  686   2.224   0.411   2.578  2.0659 -0.5008  0.0386
  229SOL    HW2  687   2.325   0.367   2.708  0.2313  0.9277  0.4753
  230SOL     OW  688   1.967   1.189   0.028  0.4264 -0.3334  0.0592
  230SOL    HW1  689   1.909   1.229   3.057  3.1343 -2.0078  0.1661
  230SOL    HW2  690   1.941   1.221   0.118  0.7072 -2.1157 -1.3892
  231SOL     OW  691   1.441   1.521   2.692 -0.3335  0.9435  0.1954
  231SOL    HW1  692   1.406   1.611   2.727  0.2298 -1.7665  0.9833
  231SOL    HW2  693   1.544   1.518   2.695  0.5944 -0.1907 -2.7615
  232SOL     OW  694   2.540   2.063   0.585 -0.0498  0.2574  0.0610
  232SOL    HW1  695   2.438   2.044   0.574 -1.5021 -0.7889  0.4353
  232SOL    HW2  696   2.597   1.983   0.555 -0.5844 -2.1621 -1.2456
  233SOL     OW  697   0.310   2.545   0.586 -0.0409 -0.2424 -0.0538
  233SOL    HW1  698   0.410   2.571   0.596 -0.8821  0.8996  1.4857
  233SOL    HW2  699   0.301   2.483   0.504 -0.3229 -0.0253 -1.8494
  234SOL     OW  700   0.626   0.793   2.678  0.4321 -0.2760  0.0679
  234SOL    HW1  701   0.629   0.855   2.596 -2.0782 -0.1582 -1.6887
  234SOL    HW2  702   0.708   0.813   2.730  1.8822  0.2794 -0.3792
  235SOL     OW  703   2.587   0.456   2.347 -0.3080  0.1464  0.0616
  235SOL    HW1  704   2.518   0.383   2.364 -0.8081  0.7301 -1.2662
  235SOL    HW2  705   2.683   0.422   2.341 -0.4633 -1.9811 -1.0359
  236SOL     OW  706   1.797   2.586   1.214 -0.2418 -0.1876 -0.0857
  236SOL    HW1  707   1.822   2.570   1.311 -2.1967  1.0902 -1.0150
  236SOL    HW2  708   1.813   2.501   1.162 -0.3298 -0.9471  1.3956
  237SOL     OW  709   0.791   1.807   2.377  0.5656  0.3232  0.1761
  237SOL    HW1  710   0.861   1.733   2.361  1.1614  3.1055  0.5898
  237SOL    HW2  711   0.835   1.871   2.438 -0.0895  0.2109 -1.6649
  238SOL     OW  712   1.068   0.263   2.368 -0.3942 -0.1170  0.2706
  238SOL    HW1  713   1.039   0.183   2.418  0.1580  2.2169 -2.2306
  238SOL    HW2  714   1.146   0.231   2.311  0.5077 -0.2022  1.1757
  239SOL     OW  715   0.381   2.078   1.947  0.0383  0.3903  0.1758
  239SOL    HW1  716   0.418   2.162   1.990 -1.2324 -0.2818  0.6473
  239SOL    HW2  717   0.363   2.099   1.850  1.7370  0.8295  0.9794
  240SOL     OW  718   2.673   2.706   0.310 -0.1079 -0.1934  0.9333
  240SOL    HW1  719   2.572   2.687   0.299 -0.2396  0.8629 -2.3572
  240SOL    HW2  720   2.696   2.748   0.402  0.6694  1.2422 -0.2309
  241SOL     OW  721   2.621   0.908   1.149  0.3394  0.0168 -0.2829
  241SOL    HW1  722   2.604   0.908   1.252  1.7412  1.1893  2.6171
  241SOL    HW2  723   2.532   0.920   1.104  1.4630  1.6990 -1.3053
  242SOL     OW  724   2.200   2.386   2.107 -0.8673 -0.1491 -0.0624
  242SOL    HW1  725   2.164   2.397   2.200  1.9134  0.1010  1.8807
  242SOL    HW2  726   2.216   2.481   2.067  0.1157  0.4146  0.0426
  243SOL     OW  727   0.765   2.681   1.696  0.0311  0.3597  0.6312
  243SOL    HW1  728   0.759   2.645   1.598 -1.0584 -2.6154 -0.2787
  243SOL    HW2  729   0.827   2.763   1.703 -0.3740  0.4299 -2.0111
  244SOL     OW  730   2.104   0.576   2.941 -0.9247 -0.1621  0.2238
  244SOL    HW1  731   2.041   0.569   2.862 -0.8992 -0.2023 -0.1606
  244SOL    HW2  732   2.153   0.667   2.927 -1.5159  0.5885  0.2147
  245SOL     OW  733   1.429   0.578   1.165 -0.5322  0.0599  0.0713
  245SOL    HW1  734   1.397   0.676   1.188 -0.0011  1.7680 -0.0634
  245SOL    HW2  735   1.343   0.525   1.166  0.1369 -1.2561 -1.2456
  246SOL     OW  736   1.842   2.479   2.974 -0.1076  0.3272 -0.5307
  246SOL    HW1  737   1.894   2.447   2.893 -1.6083 -1.7460  0.9703
  246SOL    HW2  738   1.743   2.473   2.950 -1.1249  1.0871 -0.8148
  247SOL     OW  739   1.132   0.778   2.395 -0.1835 -0.0376  0.4168
  247SOL    HW1  740   1.116   0.678   2.399 -1.0605  2.6613  3.1118
  247SOL    HW2  741   1.187   0.811   2.315 -1.3681 -1.8438  0.4398
  248SOL     OW  742   0.549   1.880   1.986 -0.4461  0.3183  0.0929
  248SOL    HW1  743   0.580   1.862   2.081  0.4782 -0.0805  0.7052
  248SOL    HW2  744   0.478   1.951   1.984  2.3579 -0.1412 -0.7913
  249SOL     OW  745   2.543   0.290   0.453  0.2822  0.0403 -0.1351
  249SOL    HW1  746   2.490   0.297   0.368 -0.5221  1.4471  1.9041
  249SOL    HW2  747   2.590   0.199   0.463  2.4684 -0.1185  1.4308
  250SOL     OW  748   2.785   0.353   2.836 -0.0587 -0.0528  0.0184
  250SOL    HW1  749   2.826   0.381   2.924  0.3225  1.3897 -0.8254
  250SOL    HW2  750   2.833   0.389   2.754  0.6592  2.5120  0.1147
  251SOL     OW  751   1.394   0.842   2.918 -0.5395  0.0039  0.1917
  251SOL    HW1  752   1.445   0.896   2.989  0.4928 -1.2037 -2.0535
  251SOL    HW2  753   1.374   0.902   2.840 -1.1362  1.3637 -2.5687
  252SOL     OW  754   1.649   1.867   1.871  0.1980  0.1229 -0.4165
  252SOL    HW1  755   1.653   1.955   1.822  0.2668 -0.1076  0.8640
  252SOL    HW2  756   1.727   1.850   1.932 -1.5741 -1.2775  1.2958
  253SOL     OW  757   2.191   2.498   1.114 -0.0567  0.0256  0.2872
  253SOL    HW1  758   2.280   2.530   1.066 -0.6510  0.7843 -0.9473
  253SOL    HW2  759   2.219   2.493   1.212 -1.8189 -0.8442  2.6141
  254SOL     OW  760   2.422   1.072   0.757  0.6162  0.0621  0.4320
  254SOL    HW1  761   2.323   1.096   0.745  0.0598  1.5466 -1.9049
  254SOL    HW2  762   2.446   1.037   0.849 -1.0739  2.3028  0.6375
  255SOL     OW  763   1.430   0.103   1.197  0.4570  0.0222  0.3425
  255SOL    HW1  764   1.460   0.160   1.120  0.8516  0.2426 -2.0916
  255SOL    HW2  765   1.403   0.010   1.170  1.1119  2.1191 -0.7281
  256SOL     OW  766   1.426   2.491   1.498  0.1820 -0.3455 -0.0327
  256SOL    HW1  767   1.442   2.467   1.593  0.1620  0.9890  0.8035
  256SOL    HW2  768   1.340   2.454   1.456 -1.4675  1.3323  0.2025
  257SOL     OW  769   0.546   3.022   2.560 -0.2133  0.0556 -0.4400
  257SOL    HW1  770   0.618   3.069   2.501 -2.7299  0.4392  0.6408
  257SOL    HW2  771   0.597   2.941   2.607  1.1588 -1.4267  1.2318
  258SOL     OW  772   1.049   2.573   0.587  0.0767  0.1494  0.8493
  258SOL    HW1  773   1.019   2.580   0.488 -3.6719  0.6108 -0.0184
  258SOL    HW2  774   1.117   2.495   0.592 -1.7606 -2.4064 -0.0653
  259SOL     OW  775   1.617   0.205   2.703 -0.0584  0.2442  0.2639
  259SOL    HW1  776   1.597   0.268   2.624 -1.1355 -0.4646 -1.6809
  259SOL    HW2  777   1.680   0.130   2.670  0.4677  0.2311 -1.1916
  260SOL     OW  778   2.642   0.339   1.310 -0.3027  0.0602 -0.5221
  260SOL    HW1  779   2.619   0.417   1.368  2.3117 -1.2287 -3.2856
  260SOL    HW2  780   2.641   0.251   1.365 -1.7892 -0.7822  0.8101
  261SOL     OW  781   0.682   0.566   2.553  0.4901  0.6752 -1.0022
  261SOL    HW1  782   0.640   0.648   2.596 -0.7064 -2.1374 -0.9432
  261SOL    HW2  783   0.714   0.591   2.460  2.3990 -1.7615  0.7826
  262SOL     OW  784   0.798   2.475   2.430 -0.7182  0.4430  0.0921
  262SOL    HW1  785   0.725   2.542   2.444  1.3160  0.1732 -1.8117
  262SOL    HW2  786   0.796   2.442   2.331  0.3123 -1.1765 -0.6141
  263SOL     OW  787   0.380   1.621   2.594  0.0564  0.2971 -0.3041
  263SOL    HW1  788   0.288   1.613   2.552  1.1425 -0.8757 -2.0789
  263SOL    HW2  789   0.442   1.544   2.579 -0.0688 -0.1988 -3.0154
  264SOL     OW  790   1.101   1.608   0.684  0.3392  0.5612 -0.0695
  264SOL    HW1  791   1.078   1.615   0.784 -0.7744  0.6005 -2.5394
  264SOL    HW2  792   1.056   1.685   0.633  1.4060 -0.7164 -0.4168
  265SOL     OW  793   1.457   2.573   0.500 -0.2509 -0.0637 -0.1750
  265SOL    HW1  794   1.526   2.503   0.531 -2.2231 -1.6015 -2.1220
  265SOL    HW2  795   1.505   2.661   0.497  2.9138  2.9291  3.4284
  266SOL     OW  796   1.831   0.768   1.265  0.2055 -0.4257 -0.4370
  266SOL    HW1  797   1.778   0.682   1.252  0.3274 -3.3149 -0.1231
  266SOL    HW2  798   1.927   0.749   1.266 -1.8000  1.4414  2.1310
  267SOL     OW  799   2.615   1.225   2.819  0.1791 -0.1731  0.3030
  267SOL    HW1  800   2.677   1.200   2.743 -0.6944 -1.4026 -1.5876
  267SOL    HW2  801   2.600   1.140   2.877 -0.0504  1.0086  0.4890
  268SOL     OW  802   1.486   0.266   0.076  0.4224  0.1139 -0.2263
  268SOL    HW1  803   1.497   0.250   0.177  0.8686 -0.0851  1.6295
  268SOL    HW2  804   1.395   0.306   0.055  1.8403  1.1579 -0.1041
  269SOL     OW  805   2.646   0.710   2.472 -0.3314  0.1967 -0.5166
  269SOL    HW1  806   2.739   0.718   2.518  4.8130  1.6111  1.8732
  269SOL    HW2  807   2.630   0.615   2.429  0.7353 -0.1892 -0.1877
  270SOL     OW  808   3.046   1.560   0.326 -0.2946  0.0949  0.1395
  270SOL    HW1  809   3.080   1.468   0.337 -1.1829  0.7525  2.6318
  270SOL    HW2  810   3.096   1.611   0.251  1.1105 -1.7154  1.1739
  271SOL     OW  811   2.475   1.014   2.916 -0.4637  0.0629 -0.2664
  271SOL    HW1  812   2.384   1.047   2.890  1.2946  1.0665 -0.3804
  271SOL    HW2  813   2.505   0.931   2.864  0.3895  1.4145  0.0067
  272SOL     OW  814   3.051   2.414   2.306  0.3388  0.0530  0.3886
  272SOL    HW1  815   0.030   2.349   2.298  0.4434  0.6650 -1.3335
  272SOL    HW2  816   2.966   2.367   2.343 -2.6583 -0.5801 -1.4619
  273SOL     OW  817   0.198   2.911   0.691  0.5671  0.2401 -0.2732
  273SOL    HW1  818   0.168   3.005   0.664  0.1725  0.6791  0.9375
  273SOL    HW2  819   0.155   2.830   0.650  2.0130 -0.6739  1.0238
  274SOL     OW  820   0.676   2.339   0.690  0.0260  0.0697  0.0155
  274SOL    HW1  821   0.577   2.340   0.692  1.2982  0.9505 -0.9938
  274SOL    HW2  822   0.715   2.301   0.777  0.2732  2.1586  1.0595
  275SOL     OW  823   2.507   0.933   0.551  0.0334 -0.9057 -0.1096
  275SOL    HW1  824   2.467   0.983   0.636  0.5729  0.4642  0.3802
  275SOL    HW2  825   2.531   0.999   0.474  0.3781  1.8458 -0.1369
  276SOL     OW  826   2.466   1.591   1.351  0.5615  0.2721  0.0748
  276SOL    HW1  827   2.523   1.531   1.412  2.7116  0.0028  5.6230
  276SOL    HW2  828   2.484   1.572   1.256  0.5435 -2.4046  0.9562
  277SOL     OW  829   2.598   2.817   0.772  0.3167  0.3325  0.1937
  277SOL    HW1  830   2.561   2.914   0.778 -2.0582 -1.5719  1.5437
  277SOL    HW2  831   2.667   2.804   0.848 -0.0592  0.6430  1.3434
  278SOL     OW  832   1.500   0.215   2.197 -0.6121 -0.2873 -0.6386
  278SOL    HW1  833   1.534   0.122   2.224 -0.1050  0.1566  1.6246
  278SOL    HW2  834   1.502   0.284   2.279 -0.4995  1.6488  0.5857
  279SOL     OW  835   1.640   2.621   0.813  0.8567 -0.3906 -0.0679
  279SOL    HW1  836   1.647   2.689   0.737  1.0531 -1.8640 -0.6082
  279SOL    HW2  837   1.722   2.563   0.798 -0.0183 -0.1709 -0.1854
  280SOL     OW  838   0.664   1.167   0.893 -0.2616 -0.0479 -0.2544
  280SOL    HW1  839   0.716   1.251   0.917  1.5048  1.0292  2.4982
  280SOL    HW2  840   0.582   1.187   0.836  0.5367 -1.6406  2.5033
  281SOL     OW  841   2.529   1.454   2.950 -0.4756  0.3239 -0.7947
  281SOL    HW1  842   2.553   1.370   2.897 -2.7912 -0.6233 -0.5689
  281SOL    HW2  843   2.495   1.526   2.884 -1.7507 -0.9612  0.0795
  282SOL     OW  844   3.092   1.277   0.362 -0.3078 -0.0228  0.3500
  282SOL    HW1  845   3.006   1.222   0.355 -0.8895 -1.3668  1.6960
  282SOL    HW2  846   0.043   1.249   0.441  1.8035 -0.4629  0.5622
  283SOL     OW  847   1.825   2.748   2.785 -0.1115 -0.0641  0.4775
  283SOL    HW1  848   1.920   2.771   2.759 -1.0236  0.2057 -0.5233
  283SOL    HW2  849   1.800   2.662   2.731 -0.9326 -1.5451 -1.5951
  284SOL     OW  850   1.137   0.202   0.043  0.5999 -0.3687  0.4356
  284SOL    HW1  851   1.160   0.115   0.094 -0.1820 -0.1421 -1.2337
  284SOL    HW2  852   1.140   0.286   0.097 -1.8676  1.4640 -1.2480
  285SOL     OW  853   2.491   1.571   2.416 -0.0206  0.2508 -0.1762
  285SOL    HW1  854   2.469   1.488   2.358  0.2331  0.0900 -0.4844
  285SOL    HW2  855   2.404   1.613   2.452  0.7505  0.4511  0.2475
  286SOL     OW  856   1.666   2.391   0.583  0.8054  0.3492 -0.2850
  286SOL    HW1  857   1.717   2.458   0.630 -2.3911 -2.0086 -1.6154
  286SOL    HW2  858   1.640   2.321   0.654  3.2073  0.5386 -0.0200
  287SOL     OW  859   1.569   0.723   0.924 -0.1859 -0.3666 -0.8454
  287SOL    HW1  860   1.528   0.705   0.834  1.2738 -0.5103  4.2292
  287SOL    HW2  861   1.535   0.663   0.996 -0.2252 -0.1086 -0.1604
  288SOL     OW  862   0.802   2.840   2.360  0.2736 -0.0673  0.2116
  288SOL    HW1  863   0.790   2.874   2.458 -0.4921 -0.7388 -1.1142
  288SOL    HW2  864   0.743   2.891   2.289 -2.2972 -2.0575 -1.3803
  289SOL     OW  865   3.003   1.309   0.775  0.1704  0.3884  0.0836
  289SOL    HW1  866   3.000   1.294   0.875  0.5758  2.4421 -0.5171
  289SOL    HW2  867   2.984   1.218   0.733  3.1862  0.9562  0.6337
  290SOL     OW  868   1.272   2.310   0.950  0.2226 -0.7049 -0.2707
  290SOL    HW1  869   1.306   2.392   0.905  1.9847 -0.8253  3.0659
  290SOL    HW2  870   1.277   2.227   0.888 -3.0261  0.1883  0.8504
  291SOL     OW  871   1.359   0.010   0.355 -0.8156 -0.4902 -0.0479
  291SOL    HW1  872   1.331   3.085   0.256 -1.1342 -3.1492 -1.0018
  291SOL    HW2  873   1.357   3.036   0.421 -0.5787  0.6009  1.7566
  292SOL     OW  874   0.466   0.232   2.301  0.3338 -0.5211  0.0408
  292SOL    HW1  875   0.536   0.280   2.350 -2.0438 -1.5561 -1.1780
  292SOL    HW2  876   0.375   0.261   2.344  0.4329  1.5497  0.2558
  293SOL     OW  877   2.505   1.584   0.838  0.0878  0.2674  0.6183
  293SOL    HW1  878   2.579   1.581   0.771  0.1726  0.8438  0.7975
  293SOL    HW2  879   2.511   1.673   0.892 -0.0463  2.6512  1.7864
  294SOL     OW  880   0.651   0.119   2.115 -0.0168  0.2277  0.5199
  294SOL    HW1  881   0.579   0.157   2.178 -2.7167 -1.9634  0.7298
  294SOL    HW2  882   0.610   0.094   2.022 -3.0874  0.3447 -1.1002
  295SOL     OW  883   1.052   1.694   0.945 -0.0357 -0.5480  0.1273
  295SOL    HW1  884   1.058   1.601   0.988 -1.0558  0.7884 -0.3153
  295SOL    HW2  885   0.954   1.725   0.949  2.3846  1.2656  0.1327
  296SOL     OW  886   2.345   1.705   0.477  0.1041  0.1716  0.4351
  296SOL    HW1  887   2.347   1.754   0.391  0.5873 -0.2748  2.6389
  296SOL    HW2  888   2.427   1.648   0.484 -1.8795  1.8627  0.6778
  297SOL     OW  889   2.531   0.021   2.991  0.5079 -0.0542 -0.3472
  297SOL    HW1  890   2.451   3.089   2.935  0.4076  1.0434 -1.1880
  297SOL    HW2  891   2.533   3.076   3.081  1.2766 -2.7620 -3.5938
  298SOL     OW  892   0.993   0.154   2.743 -0.6255  0.5500 -0.0660
  298SOL    HW1  893   0.955   0.239   2.711  1.8349 -5.0018 -0.4515
  298SOL    HW2  894   1.093   0.170   2.771  2.6796  1.1416 -0.0100
  299SOL     OW  895   1.082   2.685   1.930 -0.4767 -1.2202 -0.0794
  299SOL    HW1  896   1.034   2.750   1.864  2.7128 -0.6644 -0.2778
  299SOL    HW2  897   1.044   2.695   2.023 -1.4347 -0.0259  1.6960
  300SOL     OW  898   2.724   2.997   1.945  0.2301 -0.2200  0.1111
  300SOL    HW1  899   2.737   2.994   2.046 -1.5153 -0.3765 -1.4628
  300SOL    HW2  900   2.776   3.069   1.899 -1.8769 -1.9891 -1.4705
  301SOL     OW  901   1.802   0.392   1.821  0.6065  0.1232 -0.0177
  301SOL    HW1  902   1.755   0.351   1.901 -2.9794  0.8323  1.6270
  301SOL    HW2  903   1.803   0.326   1.743 -0.8443 -0.1133  0.2362
  302SOL     OW  904   0.182   2.334   0.023 -0.7589  0.3061 -0.1200
  302SOL    HW1  905   0.237   2.290   0.100  3.3043  0.3550  1.7803
  302SOL    HW2  906   0.101   2.384   0.059  1.4703  0.0979  1.5962
  303SOL     OW  907   1.850   2.498   1.482  0.9871  0.4902  0.4084
  303SOL    HW1  908   1.791   2.421   1.501  0.7008  2.2611 -1.2890
  303SOL    HW2  909   1.935   2.489   1.536 -1.8543 -1.2730 -0.4848
  304SOL     OW  910   2.846   0.761   1.394 -0.3750  0.6584 -0.4510
  304SOL    HW1  911   2.877   0.722   1.300 -2.5952 -0.1220 -2.1918
  304SOL    HW2  912   2.881   0.856   1.402 -2.4285 -1.5995 -0.8827
  305SOL     OW  913   0.451   1.198   0.733 -0.5201 -0.4223 -0.4210
  305SOL    HW1  914   0.352   1.180   0.769 -2.0892 -0.5834 -0.3917
  305SOL    HW2  915   0.445   1.255   0.646  0.8016 -1.0201 -0.9292
  306SOL     OW  916   0.354   1.276   2.871  0.6275 -0.3936 -0.3365
  306SOL    HW1  917   0.446   1.243   2.890 -1.2237  1.6140  0.4309
  306SOL    HW2  918   0.299   1.197   2.839 -0.8070  0.7556 -1.4285
  307SOL     OW  919   1.115   3.081   1.695 -0.1390 -0.0953  0.1530
  307SOL    HW1  920   1.197   3.032   1.666  0.3446 -0.4937 -1.1267
  307SOL    HW2  921   1.135   0.075   1.733 -1.6646  1.3146  0.5535
  308SOL     OW  922   0.372   0.867   0.966 -0.5942 -0.2346  0.0435
  308SOL    HW1  923   0.469   0.900   0.998  4.0537  0.8103  0.4783
  308SOL    HW2  924   0.377   0.868   0.865  0.6478 -2.9913 -0.2541
  309SOL     OW  925   2.388   0.961   1.013  0.4482  0.3992 -0.4103
  309SOL    HW1  926   2.301   0.910   0.992  0.0678  0.0873 -2.3311
  309SOL    HW2  927   2.375   1.061   1.017 -1.9524 -0.3688  0.4201
  310SOL     OW  928   0.455   1.818   2.774  0.1825  0.0047 -0.2334
  310SOL    HW1  929   0.433   1.756   2.699 -2.2553  2.0907  0.9894
  310SOL    HW2  930   0.375   1.871   2.800  1.1580 -0.6183  2.7581
  311SOL     OW  931   2.441   2.648   2.462 -1.0363 -0.0860 -0.1259
  311SOL    HW1  932   2.486   2.652   2.367  2.6452  0.5286 -2.5853
  311SOL    HW2  933   2.456   2.730   2.519 -1.0731 -0.7452 -1.1803
  312SOL     OW  934   2.139   2.088   3.027  0.2705 -0.2085 -0.0122
  312SOL    HW1  935   2.082   2.012   3.058  0.9066  1.3643  1.6482
  312SOL    HW2  936   2.228   2.058   2.984  1.0804  1.7588  0.4639
  313SOL     OW  937   0.497   0.136   0.473  0.2797  0.3663  0.1771
  313SOL    HW1  938   0.581   0.153   0.412  2.6141  0.0928 -0.2761
  313SOL    HW2  939   0.517   0.062   0.542  0.5926  0.3843 -0.3471
  314SOL     OW  940   2.353   1.352   2.639 -0.3977 -0.3146 -0.4117
  314SOL    HW1  941   2.387   1.256   2.610  0.6096 -1.7490 -2.1655
  314SOL    HW2  942   2.434   1.411   2.671 -0.0402  0.1858 -1.7957
  315SOL     OW  943   1.601   0.353   2.409 -0.3451  0.1353 -0.0613
  315SOL    HW1  944   1.671   0.378   2.343 -1.5179 -1.6126  0.7335
  315SOL    HW2  945   1.566   0.434   2.463  0.8089 -0.8615 -1.8118
  316SOL     OW  946   0.016   0.795   0.754  0.0365 -0.1945  0.1326
  316SOL    HW1  947   3.039   0.749   0.706  0.3426  0.2159  0.9663
  316SOL    HW2  948   3.087   0.849   0.837 -0.0329 -0.3029  3.7959
  317SOL     OW  949   0.330   2.716   2.926 -0.2861  0.2099 -0.1836
  317SOL    HW1  950   0.296   2.763   2.841 -0.4814  1.6371  1.2525
  317SOL    HW2  951   0.395   2.769   2.980 -3.0293 -1.6029 -0.6234
  318SOL     OW  952   2.395   2.588   0.989 -0.2888 -0.3412  0.1933
  318SOL    HW1  953   2.364   2.596   0.894 -0.0331 -2.2723  0.1862
  318SOL    HW2  954   2.453   2.669   1.019 -0.3958  0.3012 -0.7902
  319SOL     OW  955   0.946   1.642   3.032  0.1811  0.4733  0.6073
  319SOL    HW1  956   0.987   1.713   3.096 -0.7029 -1.3529  1.2913
  319SOL    HW2  957   0.988   1.641   2.939  1.4160  0.3658 -0.6708
  320SOL     OW  958   0.582   1.871   1.221 -0.1489 -0.3704  0.0598
  320SOL    HW1  959   0.533   1.828   1.299  1.2463 -1.9744  3.4928
  320SOL    HW2  960   0.529   1.855   1.139 -0.1009 -2.0143  2.0616
  321SOL     OW  961   1.344   2.757   2.022  0.1189  0.2495 -0.4798
  321SOL    HW1  962   1.249   2.751   1.985 -0.1626  2.9747 -1.2358
  321SOL    HW2  963   1.382   2.852   2.032  1.1361 -1.5611  1.8378
  322SOL     OW  964   2.314   1.899   2.281 -0.6151 -0.2005  0.0785
  322SOL    HW1  965   2.404   1.859   2.304 -1.4058 -1.3827  1.9748
  322SOL    HW2  966   2.318   1.970   2.209  1.6505  0.0076 -0.4918
  323SOL     OW  967   2.777   0.091   0.742 -0.0185 -0.0196 -0.2011
  323SOL    HW1  968   2.801   0.012   0.799 -3.4854 -1.4079 -0.3662
  323SOL    HW2  969   2.712   0.146   0.794  1.7696 -2.2511  1.4383
  324SOL     OW  970   2.885   2.731   2.497  0.8995 -0.0083  0.0363
  324SOL    HW1  971   2.985   2.706   2.509  2.1997 -1.6625 -1.2839
  324SOL    HW2  972   2.862   2.691   2.404  0.5154 -0.8306 -1.1150
  325SOL     OW  973   1.150   0.510   2.424 -0.0337 -0.3195 -0.7447
  325SOL    HW1  974   1.101   0.421   2.407 -1.3719 -0.1276  0.6277
  325SOL    HW2  975   1.225   0.489   2.491 -0.7236  0.2373  0.8045
  326SOL     OW  976   2.223   2.666   1.592 -0.0282 -0.1136 -0.1974
  326SOL    HW1  977   2.305   2.648   1.650  1.9911  0.0476  1.8975
  326SOL    HW2  978   2.152   2.715   1.648 -2.4500  0.8245  0.9499
  327SOL     OW  979   2.447   3.066   0.138  0.1126  0.4241 -0.4067
  327SOL    HW1  980   2.399   0.052   0.153 -0.3284  0.1157  1.4366
  327SOL    HW2  981   2.383   2.990   0.132  1.3132 -1.4167  2.9537
  328SOL     OW  982   0.167   1.283   1.630  0.0251 -0.1682  0.7723
  328SOL    HW1  983   0.190   1.225   1.707 -1.1127  0.0365  1.4689
  328SOL    HW2  984   0.214   1.371   1.636  1.4222 -1.3599 -1.8460
  329SOL     OW  985   2.015   0.515   1.599 -0.7365 -0.5228 -0.2358
  329SOL    HW1  986   1.946   0.558   1.537  0.9626  0.6571 -1.2078
  329SOL    HW2  987   1.997   0.541   1.698 -2.0103  0.1198  4.2275
  330SOL     OW  988   0.157   0.889   1.188 -0.1336  0.4300  0.5930
  330SOL    HW1  989   0.076   0.910   1.124 -0.5648 -2.0624 -2.5669
  330SOL    HW2  990   0.238   0.886   1.124  3.2464  1.9031 -1.0536
  331SOL     OW  991   0.729   1.414   1.982  0.5076 -0.5701  0.1860
  331SOL    HW1  992   0.827   1.410   1.989 -0.1637  1.0224 -2.4850
  331SOL    HW2  993   0.684   1.401   2.071 -1.6366  1.4965  3.0914
  332SOL     OW  994   0.157   2.526   1.375 -0.5377  0.2125 -0.3755
  332SOL    HW1  995   0.060   2.541   1.405  0.0506 -0.3666  1.9605
  332SOL    HW2  996   0.176   2.427   1.365  1.5625  1.8683 -2.4716
  333SOL     OW  997   2.936   3.017   0.865  1.1386 -0.0411  0.4674
  333SOL    HW1  998   2.986   3.076   0.932  1.6865 -0.9804 -1.7678
  333SOL    HW2  999   3.002   2.951   0.830  1.5239 -0.3839 -0.1105
  334SOL     OW 1000   0.107   1.245   0.601 -0.0385 -0.6660 -0.2199
  334SOL    HW1 1001   0.194   1.301   0.602  2.2233  2.5557  1.1479
  334SOL    HW2 1002   0.037   1.286   0.663  0.0312  0.0679 -1.7094
  335SOL     OW 1003   0.375   2.441   2.980 -0.1522  0.0435  0.1370
  335SOL    HW1 1004   0.298   2.414   3.042  2.2797 -0.1567 -1.5303
  335SOL    HW2 1005   0.369   2.542   2.955 -0.4754 -1.0600 -1.8327
  336SOL     OW 1006   2.896   2.636   2.224 -0.1771  0.0969  0.0089
  336SOL    HW1 1007   2.955   2.555   2.241  1.4468  0.9986  1.3598
  336SOL    HW2 1008   2.807   2.616   2.173  0.8045  3.0822  0.9464
  337SOL     OW 1009   1.922   2.120   1.724 -0.0971  0.2532  0.4376
  337SOL    HW1 1010   1.827   2.133   1.759 -0.4294  2.4514 -0.1545
  337SOL    HW2 1011   1.924   2.056   1.637 -0.0574 -3.8037 -1.4212
  338SOL     OW 1012   0.872   0.445   2.711  0.1056 -0.0835 -0.4479
  338SOL    HW1 1013   0.808   0.381   2.758  1.0974  0.4221  2.4331
  338SOL    HW2 1014   0.825   0.502   2.645 -2.8837  0.2231 -1.0774
  339SOL     OW 1015   0.348   1.230   2.158  0.0298 -0.1882 -0.1120
  339SOL    HW1 1016   0.255   1.251   2.120  0.8912  1.2559  0.4235
  339SOL    HW2 1017   0.378   1.315   2.204 -1.0433 -1.6189 -0.5546
  340SOL     OW 1018   2.127   2.950   0.661  0.2105 -0.4235 -0.9404
  340SOL    HW1 1019   2.167   2.948   0.754 -0.6607 -0.9100  1.2558
  340SOL    HW2 1020   2.028   2.985   0.666 -0.1941 -1.4763 -2.4880
  341SOL     OW 1021   2.027   1.313   0.879  0.1371  0.2338 -0.1470
  341SOL    HW1 1022   1.936   1.366   0.879 -1.1063 -2.9004  0.4682
  341SOL    HW2 1023   2.105   1.373   0.902  0.5292 -1.3805  0.4335
  342SOL     OW 1024   2.237   2.647   3.079 -0.0390 -0.4291 -0.4519
  342SOL    HW1 1025   2.272   2.553   3.069 -1.8132  2.8185  2.2843
  342SOL    HW2 1026   2.138   2.660   3.095 -0.0236 -0.4796 -1.5072
  343SOL     OW 1027   0.923   2.121   1.510 -0.2070 -0.2260 -0.5251
  343SOL    HW1 1028   0.949   2.195   1.573 -1.5689  0.3092 -3.1469
  343SOL    HW2 1029   0.930   2.160   1.417  0.3983  1.0036  0.2235
  344SOL     OW 1030   2.290   2.498   1.373 -0.2447  0.2733  0.3062
  344SOL    HW1 1031   2.265   2.562   1.447 -0.2619 -0.6294 -2.1102
  344SOL    HW2 1032   2.384   2.515   1.346  0.2725 -1.4308 -0.4903
  345SOL     OW 1033   2.621   1.952   3.066  0.2893 -0.5891  0.4381
  345SOL    HW1 1034   2.677   1.954   2.980 -2.3519 -1.6444  0.5505
  345SOL    HW2 1035   2.675   1.900   0.031 -2.0461  0.1162 -2.2150
  346SOL     OW 1036   1.864   2.330   1.081  0.4830  0.3068  0.0477
  346SOL    HW1 1037   1.926   2.336   1.002 -1.2432  0.5987  0.6441
  346SOL    HW2 1038   1.771   2.308   1.051  2.1801  1.8326 -1.7749
  347SOL     OW 1039   1.400   1.888   1.106  0.5557  0.2022  0.8116
  347SOL    HW1 1040   1.351   1.864   1.017  0.7938 -1.5025 -1.1348
  347SOL    HW2 1041   1.407   1.992   1.118 -0.8895  2.3389  1.7434
  348SOL     OW 1042   0.548   1.715   2.305 -0.5622 -0.7854 -0.6491
  348SOL    HW1 1043   0.492   1.767   2.376 -1.4309 -1.0089  0.4565
  348SOL    HW2 1044   0.651   1.723   2.323  1.9726 -0.3374  1.2792
  349SOL     OW 1045   1.885   1.635   1.005  0.4254 -0.1120 -0.6407
  349SOL    HW1 1046   1.860   1.730   0.985 -0.8411 -0.5447 -0.8802
  349SOL    HW2 1047   1.901   1.618   1.105  0.3340  0.6608 -0.1190
  350SOL     OW 1048   2.632   2.404   0.578  0.0236 -0.7348 -0.3094
  350SOL    HW1 1049   2.713   2.384   0.518  1.3549 -2.4596  1.2349
  350SOL    HW2 1050   2.664   2.473   0.647  1.8232 -2.6883  1.8751
  351SOL     OW 1051   0.730   2.936   1.497 -0.0867  0.0361  0.4180
  351SOL    HW1 1052   0.811   2.993   1.522 -2.2213 -0.4757 -0.6700
  351SOL    HW2 1053   0.725   2.930   1.395  1.1706  2.5449 -2.6360
  352SOL     OW 1054   0.284   1.586   1.053 -0.1465  0.8491 -0.7021
  352SOL    HW1 1055   0.292   1.482   1.041 -0.0433  0.1519  0.5408
  352SOL    HW2 1056   0.204   1.614   1.113  1.7614  0.2009  0.7603
  353SOL     OW 1057   0.999   1.619   2.402 -0.1661  0.4048 -0.1177
  353SOL    HW1 1058   0.942   1.550   2.456 -1.4267  0.2871  0.6442
  353SOL    HW2 1059   1.096   1.594   2.421  0.0074 -1.2400  3.9508
  354SOL     OW 1060   1.517   0.006   1.826  0.3550  0.0405  0.2155
  354SOL    HW1 1061   1.482   0.105   1.807  0.0036  3.3680  0.2001
  354SOL    HW2 1062   1.606   0.008   1.878 -1.1569  2.3169  0.7948
  355SOL     OW 1063   2.604   1.180   0.445  0.1554 -0.3484  0.3186
  355SOL    HW1 1064   2.612   1.230   0.533  0.7491 -1.7619 -1.3755
  355SOL    HW2 1065   2.517   1.202   0.393 -0.9194 -0.5799  1.9966
  356SOL     OW 1066   2.931   1.717   1.469 -0.4397 -0.3884 -0.2306
  356SOL    HW1 1067   2.878   1.780   1.529 -0.5536 -0.1692  2.0325
  356SOL    HW2 1068   2.968   1.771   1.390 -0.9459  1.6467  0.4529
  357SOL     OW 1069   0.440   2.548   1.395  0.0990  0.3416 -0.4204
  357SOL    HW1 1070   0.347   2.531   1.367 -0.7980  0.2357  0.7582
  357SOL    HW2 1071   0.462   2.643   1.384  1.2020 -3.7849 -1.7012
  358SOL     OW 1072   2.685   1.523   1.877 -0.3822 -0.2000  0.0247
  358SOL    HW1 1073   2.613   1.552   1.943  0.6636  0.8670  0.7806
  358SOL    HW2 1074   2.670   1.573   1.790 -0.5335 -2.0046  2.2703
  359SOL     OW 1075   2.269   2.709   2.812 -0.0434  0.1185  0.1532
  359SOL    HW1 1076   2.220   2.623   2.784 -0.3364 -0.9149  1.1998
  359SOL    HW2 1077   2.268   2.715   2.914  0.0189  0.9351  0.4550
  360SOL     OW 1078   1.017   0.126   0.837 -0.3647 -0.2050 -0.0753
  360SOL    HW1 1079   1.088   0.199   0.836  0.7671  0.9312 -1.3789
  360SOL    HW2 1080   1.064   0.039   0.835  0.1564  0.5303 -1.6686
  361SOL     OW 1081   2.064   0.234   0.849 -0.0850 -0.2505  0.1416
  361SOL    HW1 1082   2.073   0.331   0.879 -0.5954  0.3254 -1.5175
  361SOL    HW2 1083   2.109   0.166   0.906 -3.1241 -0.4307  1.5364
  362SOL     OW 1084   1.994   1.216   1.162  0.0341  0.3982 -0.0452
  362SOL    HW1 1085   2.029   1.221   1.067 -2.6284 -1.1848 -1.7068
  362SOL    HW2 1086   2.009   1.125   1.202 -0.6294 -0.8356 -0.3624
  363SOL     OW 1087   2.203   1.198   2.271  0.8153  0.1108  0.0180
  363SOL    HW1 1088   2.103   1.204   2.249 -2.1103  1.5024  0.6606
  363SOL    HW2 1089   2.255   1.246   2.201 -2.0479 -2.4863 -0.0719
  364SOL     OW 1090   0.308   0.249   1.200 -0.3803 -0.2424 -0.0812
  364SOL    HW1 1091   0.281   0.341   1.227 -0.3974 -1.4624 -1.1420
  364SOL    HW2 1092   0.241   0.180   1.233 -0.9298  0.4480 -0.7884
  365SOL     OW 1093   0.690   0.250   2.831 -0.1308 -0.1152  0.3815
  365SOL    HW1 1094   0.607   0.255   2.777  2.6891  0.5877  0.2828
  365SOL    HW2 1095   0.724   0.156   2.836 -0.9820 -0.6360  0.5145
  366SOL     OW 1096   1.946   2.370   2.720 -0.6467 -0.3007  0.0540
  366SOL    HW1 1097   1.935   2.430   2.639  1.5782  0.2780  1.4207
  366SOL    HW2 1098   2.047   2.377   2.748  2.4783  0.9470  1.3618
  367SOL     OW 1099   2.880   2.305   0.048 -0.0698  0.5456 -0.0826
  367SOL    HW1 1100   2.804   2.374   0.035 -1.8503  1.4599 -2.8020
  367SOL    HW2 1101   2.972   2.348   0.050 -1.4461  1.0421 -1.3950
  368SOL     OW 1102   0.009   1.201   1.395 -0.0189 -0.1671 -0.3984
  368SOL    HW1 1103   0.007   1.277   1.323 -0.9919 -1.0411 -0.1838
  368SOL    HW2 1104   0.076   1.223   1.467  0.2845 -1.1444  0.7255
  369SOL     OW 1105   0.807   0.004   2.891  0.0519  0.1410  0.2911
  369SOL    HW1 1106   0.842   3.012   2.898 -2.4463  1.2338  0.6030
  369SOL    HW2 1107   0.878   0.068   2.858 -2.9516  1.2061 -1.2020
  370SOL     OW 1108   2.736   0.484   0.464 -0.0310  0.5644  0.0194
  370SOL    HW1 1109   2.648   0.425   0.475 -0.9496 -1.5573  0.0910
  370SOL    HW2 1110   2.811   0.419   0.441 -0.9375 -1.0982  1.8105
  371SOL     OW 1111   1.693   2.186   0.753 -0.2342  0.2143  0.2178
  371SOL    HW1 1112   1.640   2.108   0.722  2.3983  2.2197 -1.2393
  371SOL    HW2 1113   1.795   2.171   0.759 -0.1959 -0.6522 -2.6647
  372SOL     OW 1114   2.899   0.737   2.535  0.1486 -0.2947 -0.0705
  372SOL    HW1 1115   2.915   0.743   2.435 -3.8241  2.5403  2.9762
  372SOL    HW2 1116   2.982   0.756   2.589 -2.0816  2.0904  2.1067
  373SOL     OW 1117   2.858   1.522   1.121  0.4298  0.2665 -0.0391
  373SOL    HW1 1118   2.884   1.578   1.038 -3.4272  2.4455  1.2896
  373SOL    HW2 1119   2.763   1.484   1.107 -0.4104 -0.9575 -0.2396
  374SOL     OW 1120   0.547   2.949   3.034  0.1465  0.3862 -0.1982
  374SOL    HW1 1121   0.557   2.994   0.022  1.9700  0.3540  2.6748
  374SOL    HW2 1122   0.553   3.015   2.955  0.7491  0.8592 -1.8098
  375SOL     OW 1123   0.168   3.021   0.078  0.2348  0.0330 -0.8386
  375SOL    HW1 1124   0.225   3.027   0.159 -2.8249  0.4824 -1.4162
  375SOL    HW2 1125   0.084   3.080   0.082  1.1583 -0.8430 -0.4631
  376SOL     OW 1126   0.010   2.171   1.454 -0.0743  0.3343  0.0471
  376SOL    HW1 1127   3.093   2.104   1.524  0.3396 -0.1518 -0.9735
  376SOL    HW2 1128   3.091   2.135   1.362  1.5935  1.0818  1.3589
  377SOL     OW 1129   1.529   2.325   2.583 -0.4162 -0.6618  0.1357
  377SOL    HW1 1130   1.560   2.306   2.679 -0.2633  1.9304 -0.2515
  377SOL    HW2 1131   1.604   2.286   2.522 -0.6198 -2.7231 -1.5155
  378SOL     OW 1132   0.548   0.498   3.037 -0.1725 -0.1893 -0.5142
  378SOL    HW1 1133   0.532   0.582   2.978 -1.2513  1.3216 -0.9205
  378SOL    HW2 1134   0.623   0.440   2.993 -0.6402 -1.4158  1.5635
  379SOL     OW 1135   0.577   0.852   0.319 -0.2001 -0.0075  0.2938
  379SOL    HW1 1136   0.575   0.855   0.220  3.9226  0.3088 -2.0509
  379SOL    HW2 1137   0.579   0.947   0.354 -2.1712 -0.5220  1.0965
  380SOL     OW 1138   0.012   1.807   1.837 -0.3245 -0.0631 -0.1411
  380SOL    HW1 1139   3.027   1.789   1.886  0.2015  1.6203  0.5796
  380SOL    HW2 1140   0.093   1.838   1.896 -0.6356 -0.0078  0.0546
  381SOL     OW 1141   0.289   1.144   1.832 -0.1416 -0.1906 -0.4876
  381SOL    HW1 1142   0.360   1.204   1.859 -2.1141 -2.1614 -2.1941
  381SOL    HW2 1143   0.340   1.072   1.782  0.7061  1.2017  0.3702
  382SOL     OW 1144   2.449   1.805   0.237  0.2151 -0.0658 -0.0109
  382SOL    HW1 1145   2.443   1.901   0.215 -0.2890 -3.1842 -2.0191
  382SOL    HW2 1146   2.457   1.750   0.150  1.5665 -0.6098 -2.4308
  383SOL     OW 1147   2.815   1.981   2.877 -0.0545  0.3943  0.1467
  383SOL    HW1 1148   2.912   1.945   2.890  4.4227 -0.8017 -1.5149
  383SOL    HW2 1149   2.819   2.081   2.885  0.5450  0.5524 -2.2691
  384SOL     OW 1150   0.743   2.195   2.486 -0.1461 -0.8409 -0.0099
  384SOL    HW1 1151   0.693   2.181   2.576 -0.3276 -0.7260  0.3850
  384SOL    HW2 1152   0.769   2.295   2.473  0.7301  2.8729 -1.3383
  385SOL     OW 1153   3.019   1.222   1.062  0.0266  0.3437  0.2878
  385SOL    HW1 1154   3.043   1.301   1.124  0.9297  2.3832  0.7634
  385SOL    HW2 1155   2.919   1.211   1.048 -0.4697 -0.1386 -0.1314
  386SOL     OW 1156   2.242   1.544   1.507 -0.8604 -0.0209  0.1041
  386SOL    HW1 1157   2.326   1.555   1.452  0.7666  2.4378 -0.3263
  386SOL    HW2 1158   2.167   1.502   1.453  2.4467  1.5509  2.3688
  387SOL     OW 1159   2.794   1.252   1.924 -0.1471 -0.4030 -0.2793
  387SOL    HW1 1160   2.866   1.214   1.865 -1.4622  0.2620  0.6815
  387SOL    HW2 1161   2.758   1.341   1.883 -2.2660  1.4226  0.4064
  388SOL     OW 1162   2.911   1.320   2.170  0.3057 -0.7102  1.1083
  388SOL    HW1 1163   2.821   1.310   2.213 -0.5902  0.1002 -0.6829
  388SOL    HW2 1164   2.891   1.299   2.072  1.2706  0.6212 -2.3345
  389SOL     OW 1165   1.957   1.262   1.957 -0.1265  0.3278 -0.0019
  389SOL    HW1 1166   1.875   1.226   1.996  2.0210  1.8826  0.0288
  389SOL    HW2 1167   2.038   1.203   1.985  1.4729 -0.7621 -1.9624
  390SOL     OW 1168   1.850   2.701   0.350  0.0949  0.5522  0.1556
  390SOL    HW1 1169   1.898   2.636   0.414 -0.5089  0.9094 -1.5121
  390SOL    HW2 1170   1.810   2.656   0.265 -2.2849 -0.7656 -0.8546
  391SOL     OW 1171   2.165   1.688   0.960  0.9824  0.1431 -0.4476
  391SOL    HW1 1172   2.203   1.763   1.015 -1.2719 -0.1736  0.7933
  391SOL    HW2 1173   2.065   1.683   0.983  2.1560  1.0086  1.0474
  392SOL     OW 1174   2.693   2.454   0.848 -0.1194 -0.4998  0.2548
  392SOL    HW1 1175   2.794   2.437   0.828  0.6777 -0.8711 -0.0163
  392SOL    HW2 1176   2.687   2.496   0.941 -0.1971 -0.0217  0.5915
  393SOL     OW 1177   1.708   1.845   2.717  0.1847 -0.0732 -0.0618
  393SOL    HW1 1178   1.705   1.747   2.741 -1.5617  1.5683 -0.2434
  393SOL    HW2 1179   1.619   1.875   2.678  1.2789  0.3566  1.0249
  394SOL     OW 1180   0.092   0.224   2.831  0.0092 -0.1023 -0.1177
  394SOL    HW1 1181   0.004   0.175   2.831  2.8475  1.4311  1.5591
  394SOL    HW2 1182   0.159   0.180   2.896  1.6243  0.7458  2.9495
  395SOL     OW 1183   0.643   0.933   1.034  0.5024 -0.2251 -0.0248
  395SOL    HW1 1184   0.717   0.877   0.999 -1.2968  3.8303 -0.5750
  395SOL    HW2 1185   0.637   1.027   0.986 -3.7934  2.0528 -0.5445
  396SOL     OW 1186   1.097   1.107   0.700  0.4725  0.2685  0.0020
  396SOL    HW1 1187   1.100   1.045   0.785 -0.9454 -1.2807 -0.1374
  396SOL    HW2 1188   1.188   1.105   0.650  2.1675 -2.8445 -2.7651
  397SOL     OW 1189   0.511   0.712   2.150 -0.1366  0.2381  0.0084
  397SOL    HW1 1190   0.416   0.684   2.125 -1.3027  0.1188 -1.5123
  397SOL    HW2 1191   0.519   0.812   2.137  1.3218 -0.3394 -0.3492
  398SOL     OW 1192   1.133   0.183   0.335  0.2335 -0.0238  0.0199
  398SOL    HW1 1193   1.149   0.281   0.315 -0.3762 -0.2650  0.6340
  398SOL    HW2 1194   1.218   0.130   0.352  0.4902 -0.1739  0.1367
  399SOL     OW 1195   2.042   2.912   1.687 -0.3032 -0.1129  0.0181
  399SOL    HW1 1196   1.966   2.882   1.625  1.2161  0.1489  1.4534
  399SOL    HW2 1197   2.044   3.016   1.691  1.0065  1.1476  0.7998
  400SOL     OW 1198   1.067   1.637   2.139  0.0193  0.3317  0.0956
  400SOL    HW1 1199   1.161   1.670   2.151  2.7055 -0.7142 -0.9622
  400SOL    HW2 1200   1.023   1.635   2.233 -0.7004 -0.4811 -0.5021
  401SOL     OW 1201   0.777   1.119   2.813  0.0679  0.5393 -0.4750
  401SOL    HW1 1202   0.815   1.025   2.802 -0.5744 -1.5763  1.0134
  401SOL    HW2 1203   0.707   1.122   2.887 -2.0302  0.3808 -1.7080
  402SOL     OW 1204   2.757   1.926   0.906 -0.1259  0.5476 -0.2519
  402SOL    HW1 1205   2.828   1.852   0.888 -1.0294 -0.5120 -0.7518
  402SOL    HW2 1206   2.670   1.889   0.920  2.8988  1.1464  0.9842
  403SOL     OW 1207   0.151   0.961   2.218 -0.5679  0.1775  0.0717
  403SOL    HW1 1208   0.069   1.013   2.246  0.2274 -0.9102 -0.7638
  403SOL    HW2 1209   0.207   1.019   2.155  1.3702 -1.2783 -1.7196
  404SOL     OW 1210   0.129   2.659   1.680 -0.0714 -0.4216  0.0878
  404SOL    HW1 1211   0.201   2.705   1.623 -0.8208  1.0785 -0.0014
  404SOL    HW2 1212   0.057   2.618   1.618  0.7376  1.1346  2.5503
  405SOL     OW 1213   0.420   0.358   2.054 -0.0219 -0.3549 -0.0483
  405SOL    HW1 1214   0.449   0.323   2.145  1.1851 -1.7017 -1.5992
  405SOL    HW2 1215   0.341   0.306   2.020 -1.5081  2.3966 -1.2414
  406SOL     OW 1216   1.563   1.875   2.345 -0.4046  0.6539 -0.7429
  406SOL    HW1 1217   1.654   1.900   2.304 -0.4678  1.0740 -1.2443
  406SOL    HW2 1218   1.523   1.798   2.286 -1.4366 -0.0512 -3.1275
  407SOL     OW 1219   1.277   1.317   2.336  0.6937 -0.2585 -0.0232
  407SOL    HW1 1220   1.308   1.317   2.239  3.0795 -2.1033 -0.0704
  407SOL    HW2 1221   1.194   1.266   2.352  0.7651  1.2889  0.1541
  408SOL     OW 1222   0.758   0.036   2.479 -0.7308  0.3567  0.2742
  408SOL    HW1 1223   0.728   0.133   2.479  3.9845 -0.5763 -1.9167
  408SOL    HW2 1224   0.861   0.037   2.480  1.0904 -0.7398  3.6705
  409SOL     OW 1225   0.388   2.074   0.471  0.0437 -0.0793 -0.0627
  409SOL    HW1 1226   0.452   2.028   0.534 -2.2744  1.9912 -1.9161
  409SOL    HW2 1227   0.440   2.092   0.384  0.4638 -0.9091 -1.1149
  410SOL     OW 1228   2.874   1.110   0.382  0.0213 -0.0878  0.0540
  410SOL    HW1 1229   2.865   1.024   0.326 -2.0851  2.1549 -3.0781
  410SOL    HW2 1230   2.787   1.156   0.411 -0.2520 -1.1053 -1.3467
  411SOL     OW 1231   0.141   0.052   1.305 -0.1544 -0.1583  0.1598
  411SOL    HW1 1232   0.046   0.032   1.282  0.9217 -0.5255 -0.8168
  411SOL    HW2 1233   0.156   0.015   1.401 -1.1262 -1.5814  2.7570
  412SOL     OW 1234   1.514   1.045   1.495 -0.5511  0.6325  0.2630
  412SOL    HW1 1235   1.598   1.011   1.445 -0.2035 -1.6420 -2.5708
  412SOL    HW2 1236   1.449   0.970   1.505 -0.5277  1.6013 -0.6739
  413SOL     OW 1237   0.521   3.032   1.642 -0.1679 -0.5636 -0.0455
  413SOL    HW1 1238   0.504   0.020   1.596 -2.0021 -0.2237  0.0863
  413SOL    HW2 1239   0.599   2.995   1.580  0.2553  0.1539 -2.5370
  414SOL     OW 1240   2.883   1.653   2.658 -0.4474  0.1163 -0.0670
  414SOL    HW1 1241   2.803   1.709   2.670  0.1916 -2.7948 -0.4067
  414SOL    HW2 1242   2.888   1.578   2.725 -0.0447  1.1505 -2.0282
  415SOL     OW 1243   0.615   2.501   3.098 -0.2644 -0.0335  0.3432
  415SOL    HW1 1244   0.521   2.476   3.070 -0.1104  0.2741  0.9030
  415SOL    HW2 1245   0.641   2.595   3.060  0.8345  0.5439  0.9757
  416SOL     OW 1246   2.083   2.832   0.273 -0.2335  0.4759  0.0427
  416SOL    HW1 1247   1.997   2.785   0.283  0.8900 -0.7746  1.3166
  416SOL    HW2 1248   2.072   2.926   0.237  0.4071 -0.5097 -0.1399
  417SOL     OW 1249   0.274   0.686   0.560 -0.1626  0.6072  0.1287
  417SOL    HW1 1250   0.315   0.769   0.603 -0.3830 -0.4567  0.1037
  417SOL    HW2 1251   0.329   0.599   0.582  0.7233 -1.5814 -0.3427
  418SOL     OW 1252   2.429   0.261   1.123  0.0807  0.1682  0.6509
  418SOL    HW1 1253   2.353   0.330   1.145 -2.3724  0.8611  0.7047
  418SOL    HW2 1254   2.508   0.254   1.190  2.7299 -1.0403  2.4608
  419SOL     OW 1255   0.026   3.088   0.537  0.4570 -0.5428 -0.0416
  419SOL    HW1 1256   0.001   0.079   0.575 -0.1338  2.1464 -1.7763
  419SOL    HW2 1257   3.042   3.040   0.501  0.2920  0.0100 -0.8768
  420SOL     OW 1258   0.296   1.540   1.600  0.3889  0.1676  0.0141
  420SOL    HW1 1259   0.368   1.594   1.648 -0.2153  0.0094  2.7341
  420SOL    HW2 1260   0.206   1.584   1.611 -0.0859  1.3182  0.2552
  421SOL     OW 1261   1.245   2.879   0.441 -0.0799  0.4301 -0.2051
  421SOL    HW1 1262   1.161   2.935   0.441 -1.5413  0.4769 -0.7631
  421SOL    HW2 1263   1.243   2.817   0.359 -2.2205  0.4318 -0.4810
  422SOL     OW 1264   0.333   0.596   1.520 -0.3312  0.4227  0.2671
  422SOL    HW1 1265   0.284   0.657   1.581  2.1814 -0.2245 -1.5155
  422SOL    HW2 1266   0.271   0.533   1.462 -2.1465  0.1227  0.1902
  423SOL     OW 1267   0.993   1.373   1.553 -0.1907 -0.1704 -0.8698
  423SOL    HW1 1268   1.006   1.360   1.653 -0.6414  1.4108 -0.0565
  423SOL    HW2 1269   1.072   1.331   1.506 -0.0037 -0.8540 -1.4060
  424SOL     OW 1270   2.179   1.576   3.002  0.2050  0.4158 -0.7541
  424SOL    HW1 1271   2.138   1.546   3.092 -2.6175 -0.6128  1.6126
  424SOL    HW2 1272   2.173   1.500   2.942 -1.4179 -1.0712 -0.8386
  425SOL     OW 1273   0.179   0.203   2.038  0.4849  0.0729  0.4920
  425SOL    HW1 1274   0.175   0.184   2.136 -1.4249 -0.4602  1.5272
  425SOL    HW2 1275   0.126   0.125   1.997 -1.1392 -2.3653 -2.9544
  426SOL     OW 1276   0.264   0.000   2.888 -0.6855 -0.0520 -0.3358
  426SOL    HW1 1277   0.239   3.077   2.986  0.9516 -1.3563  2.7822
  426SOL    HW2 1278   0.247   3.025   2.830  0.6703 -0.6181 -0.2486
  427SOL     OW 1279   1.230   1.046   2.804 -0.8591 -0.6082  0.0738
  427SOL    HW1 1280   1.296   1.121   2.816  0.7214  1.8434 -0.3813
  427SOL    HW2 1281   1.184   1.040   2.891  0.7422  2.7974 -1.5861
  428SOL     OW 1282   2.505   1.239   1.579  0.4076 -0.0275  0.1428
  428SOL    HW1 1283   2.477   1.243   1.677 -1.0515 -1.5692  3.2431
  428SOL    HW2 1284   2.444   1.173   1.532 -0.5071  0.4971 -0.9250
  429SOL     OW 1285   2.259   2.891   0.883  0.1221  0.2762 -0.0574
  429SOL    HW1 1286   2.278   2.799   0.852  1.3502  1.8630 -0.7534
  429SOL    HW2 1287   2.204   2.891   0.971 -0.8738  2.7516  1.0084
  430SOL     OW 1288   0.819   1.299   2.281 -1.0937  0.1355  0.7313
  430SOL    HW1 1289   0.758   1.219   2.269 -0.3714  0.5993 -2.4435
  430SOL    HW2 1290   0.768   1.382   2.323  2.6614  2.9130  0.1947
  431SOL     OW 1291   2.663   1.495   1.538  0.2534  0.6380 -0.1096
  431SOL    HW1 1292   2.762   1.485   1.530  2.4621  0.7169  1.2990
  431SOL    HW2 1293   2.621   1.407   1.568 -2.7239 -3.1323  0.0306
  432SOL     OW 1294   0.952   2.654   2.195 -0.0284 -0.1101 -0.3171
  432SOL    HW1 1295   0.882   2.714   2.241  1.5043 -0.4642 -2.1334
  432SOL    HW2 1296   1.003   2.590   2.259 -1.8590 -0.7715 -1.0844
  433SOL     OW 1297   1.861   0.102   2.333  0.1322 -0.0456  0.1898
  433SOL    HW1 1298   1.924   0.061   2.269 -0.2595  1.6516 -0.0065
  433SOL    HW2 1299   1.824   0.194   2.301  1.1599 -2.3156 -0.6276
  434SOL     OW 1300   0.527   2.656   2.488  0.0522 -0.1394  0.3424
  434SOL    HW1 1301   0.454   2.592   2.514  2.3384  0.6667  1.1463
  434SOL    HW2 1302   0.575   2.686   2.572 -0.0720 -3.8787 -0.1114
  435SOL     OW 1303   0.327   2.799   0.292 -0.1020  0.2203  0.1542
  435SOL    HW1 1304   0.290   2.879   0.341  0.9154 -0.2298  0.7045
  435SOL    HW2 1305   0.256   2.762   0.234  1.0969 -2.8821  3.3035
  436SOL     OW 1306   0.697   0.631   1.953  0.3267  0.6039  0.3546
  436SOL    HW1 1307   0.629   0.666   2.022  1.8922 -1.1256 -0.2429
  436SOL    HW2 1308   0.681   0.532   1.934  0.8214  0.7572 -0.5988
  437SOL     OW 1309   0.279   2.512   2.523 -0.1405  0.2619 -0.3252
  437SOL    HW1 1310   0.299   2.481   2.427 -0.7626  1.3081 -0.4654
  437SOL    HW2 1311   0.264   2.428   2.582  0.9041 -0.0614 -1.0596
  438SOL     OW 1312   0.490   1.369   1.846  0.6586 -0.5820  0.1502
  438SOL    HW1 1313   0.422   1.448   1.846  3.6999  1.4242  0.4743
  438SOL    HW2 1314   0.575   1.408   1.891  3.6383  3.8166 -0.5981
  439SOL     OW 1315   2.315   0.952   2.240  0.0795  1.2666 -0.1226
  439SOL    HW1 1316   2.274   0.895   2.313 -2.9088 -1.7150  3.0420
  439SOL    HW2 1317   2.274   1.050   2.239  0.6059  0.1894 -2.0215
  440SOL     OW 1318   0.421   0.639   0.295 -0.7248 -0.5507  0.3857
  440SOL    HW1 1319   0.385   0.622   0.384  1.7017 -0.9490 -3.8219
  440SOL    HW2 1320   0.485   0.717   0.289 -0.2058 -0.3744 -1.3798
  441SOL     OW 1321   1.214   2.399   1.332 -0.0500  0.1328 -0.0462
  441SOL    HW1 1322   1.147   2.445   1.386 -0.9175 -1.0418 -0.0680
  441SOL    HW2 1323   1.209   2.425   1.233  0.8075  0.0904 -1.2865
  442SOL     OW 1324   2.227   1.437   0.548  0.0580 -0.2335 -0.4156
  442SOL    HW1 1325   2.258   1.528   0.510 -1.3486  2.8021  1.7137
  442SOL    HW2 1326   2.308   1.392   0.592  3.5303 -3.9512  1.3204
  443SOL     OW 1327   2.612   1.953   2.501  0.0876  0.5631  0.6224
  443SOL    HW1 1328   2.582   2.049   2.494  1.9285 -1.2269  0.9416
  443SOL    HW2 1329   2.651   1.921   2.410  0.1176  0.2745  0.4648
  444SOL     OW 1330   1.792   1.270   2.939 -0.3919  0.0184  0.4815
  444SOL    HW1 1331   1.711   1.314   2.987 -0.6855  2.1522 -0.6232
  444SOL    HW2 1332   1.763   1.190   2.883  0.7834  0.2664  2.7226
  445SOL     OW 1333   2.557   2.727   2.218 -0.2495 -0.2767  0.1780
  445SOL    HW1 1334   2.577   2.655   2.152  2.2560  0.5731 -1.3522
  445SOL    HW2 1335   2.616   2.809   2.211  0.2307  0.2401 -1.4570
  446SOL     OW 1336   0.448   1.037   1.418  0.4158  0.0217  0.5681
  446SOL    HW1 1337   0.446   0.948   1.464 -1.0139 -4.4885 -1.6249
  446SOL    HW2 1338   0.471   1.110   1.484 -2.7680 -2.6263 -1.7830
  447SOL     OW 1339   0.783   1.401   0.938 -0.0364 -0.4924 -0.0206
  447SOL    HW1 1340   0.876   1.397   0.979  1.7833 -1.5935  2.6075
  447SOL    HW2 1341   0.709   1.444   0.993 -1.2967  0.6048 -0.9445
  448SOL     OW 1342   1.198   1.075   1.895 -0.3868 -0.3199  0.1590
  448SOL    HW1 1343   1.273   1.092   1.830 -0.8976  2.0252  0.6553
  448SOL    HW2 1344   1.143   0.993   1.861 -0.1826 -2.2126  1.3411
  449SOL     OW 1345   3.051   2.006   2.276 -0.1738  0.1245 -0.3879
  449SOL    HW1 1346   3.040   2.052   2.183 -1.7372  1.5370 -1.5737
  449SOL    HW2 1347   0.028   1.943   2.273  1.0164 -1.5270 -2.3478
  450SOL     OW 1348   2.779   1.988   1.945  0.2438 -0.1352  0.3925
  450SOL    HW1 1349   2.858   2.051   1.958  0.0495 -2.5353 -1.5126
  450SOL    HW2 1350   2.804   1.892   1.945 -2.1172  0.3165 -0.9778
  451SOL     OW 1351   2.359   1.097   1.388  0.1711 -0.0400  0.3833
  451SOL    HW1 1352   2.259   1.080   1.377 -2.2087  0.0598  3.0922
  451SOL    HW2 1353   2.414   1.019   1.368  0.0436  1.8391 -0.6925
  452SOL     OW 1354   0.373   1.459   1.358 -0.0332 -0.0262 -0.4130
  452SOL    HW1 1355   0.338   1.452   1.454  1.8768  0.5167  0.0901
  452SOL    HW2 1356   0.332   1.381   1.307 -1.9887 -2.4116  0.6349
  453SOL     OW 1357   0.293   1.303   1.002  0.3428  0.2281  0.0744
  453SOL    HW1 1358   0.282   1.220   0.939  2.1645 -0.4630  0.4796
  453SOL    HW2 1359   0.285   1.277   1.101 -1.1023 -1.3024 -0.6282
  454SOL     OW 1360   0.337   1.594   0.115  0.1905  0.1476 -0.0452
  454SOL    HW1 1361   0.439   1.611   0.122 -2.6046 -3.0673 -0.9193
  454SOL    HW2 1362   0.322   1.510   0.062  0.9467  2.0849 -1.6457
  455SOL     OW 1363   1.878   0.940   0.926  0.2688  0.2324 -0.1222
  455SOL    HW1 1364   1.875   0.997   1.012 -1.5253 -1.8513 -1.9543
  455SOL    HW2 1365   1.831   0.847   0.937  1.2422 -0.1307 -0.5230
  456SOL     OW 1366   1.866   2.511   0.722 -0.1431  0.0521 -0.5302
  456SOL    HW1 1367   1.935   2.520   0.646  2.0121  0.4389 -1.2115
  456SOL    HW2 1368   1.903   2.464   0.802 -0.5015 -0.0488 -2.1420
  457SOL     OW 1369   2.088   3.011   2.662 -0.0643  0.1655  0.0824
  457SOL    HW1 1370   1.998   3.049   2.635 -0.8084 -0.1691 -2.6574
  457SOL    HW2 1371   2.113   2.931   2.601  2.1423 -0.9900  1.9484
  458SOL     OW 1372   2.384   0.350   0.228 -0.3769  0.7599  0.0868
  458SOL    HW1 1373   2.363   0.322   0.130 -0.2864 -1.2227 -1.8412
  458SOL    HW2 1374   2.382   0.451   0.241  3.5328  1.8190 -1.4699
  459SOL     OW 1375   3.018   1.091   2.290  0.0931  0.2323  0.3823
  459SOL    HW1 1376   2.949   1.027   2.250  3.6597 -0.0167 -0.9333
  459SOL    HW2 1377   3.000   1.187   2.255 -1.4736  2.0873 -2.4495
  460SOL     OW 1378   0.245   0.628   0.091  0.2819 -0.8474 -0.1312
  460SOL    HW1 1379   0.271   0.546   0.038 -2.8636  0.3428  0.7479
  460SOL    HW2 1380   0.305   0.633   0.176  1.5634 -0.0002  2.7572
  461SOL     OW 1381   2.941   2.316   0.754 -0.5118  0.2029  0.5194
  461SOL    HW1 1382   2.874   2.235   0.742 -0.9052 -0.5161 -0.3924
  461SOL    HW2 1383   3.039   2.284   0.745  2.9302 -1.2844 -0.4689
  462SOL     OW 1384   0.158   3.030   1.538 -0.1040  0.1360 -0.3908
  462SOL    HW1 1385   0.066   3.017   1.579  1.4659 -2.5047 -3.2299
  462SOL    HW2 1386   0.220   2.946   1.548  1.4325  2.4932  0.0020
  463SOL     OW 1387   2.157   2.077   1.861  0.0334  0.1007 -0.0927
  463SOL    HW1 1388   2.083   2.083   1.797  1.1695 -1.4154 -0.6492
  463SOL    HW2 1389   2.197   2.172   1.875  1.8722  1.7218  1.8696
  464SOL     OW 1390   0.477   2.809   1.328 -0.0569  0.1333 -0.3486
  464SOL    HW1 1391   0.498   2.898   1.367 -2.6404 -1.6202 -0.6883
  464SOL    HW2 1392   0.473   2.817   1.228  0.5352  0.7596  1.1931
  465SOL     OW 1393   0.542   0.185   1.549  0.1441  0.0490  0.2431
  465SOL    HW1 1394   0.619   0.183   1.619  0.0083 -0.0071  1.9073
  465SOL    HW2 1395   0.472   0.256   1.575  2.2439  1.3386  0.7228
  466SOL     OW 1396   1.408   1.889   1.967 -0.3399  0.4850 -0.2174
  466SOL    HW1 1397   1.502   1.875   1.919  1.6973  0.2103 -1.5232
  466SOL    HW2 1398   1.331   1.922   1.903 -1.7080 -1.4098 -1.9993
  467SOL     OW 1399   0.123   1.725   0.892  0.0202  0.0491  0.1718
  467SOL    HW1 1400   0.204   1.678   0.939 -0.7108  3.0645 -2.0493
  467SOL    HW2 1401   0.136   1.714   0.790 -3.5491 -0.1656  0.2901
  468SOL     OW 1402   2.285   2.147   2.643  0.3874  0.4411 -0.0616
  468SOL    HW1 1403   2.376   2.187   2.611  1.3551  0.5316 -1.2208
  468SOL    HW2 1404   2.212   2.151   2.571 -2.1846 -0.7252 -1.3090
  469SOL     OW 1405   1.266   2.394   0.589  0.3340  0.2861  0.2027
  469SOL    HW1 1406   1.257   2.369   0.491  0.0560  0.4791 -0.5102
  469SOL    HW2 1407   1.333   2.469   0.602  0.4699 -1.9943 -0.1711
  470SOL     OW 1408   1.926   1.626   1.280 -0.2952  0.2870 -0.2349
  470SOL    HW1 1409   1.991   1.703   1.281  1.0774 -2.7796 -0.8758
  470SOL    HW2 1410   1.838   1.649   1.328 -0.3255 -0.3334  1.1228
  471SOL     OW 1411   0.587   2.504   0.278  0.0502 -0.0192  0.4543
  471SOL    HW1 1412   0.594   2.597   0.309 -2.6685 -4.8934  0.2599
  471SOL    HW2 1413   0.602   2.491   0.181 -1.3654 -1.4695  0.5974
  472SOL     OW 1414   2.747   1.958   2.252  0.0770 -0.3557 -0.0469
  472SOL    HW1 1415   2.718   1.862   2.230  1.4054 -0.3482  0.5513
  472SOL    HW2 1416   2.775   2.005   2.166  0.0791 -1.2585 -0.8649
  473SOL     OW 1417   1.239   2.748   0.687 -0.0615  0.7933  0.5823
  473SOL    HW1 1418   1.148   2.697   0.677 -1.3723  0.3841 -1.7152
  473SOL    HW2 1419   1.258   2.788   0.595 -0.1597  1.0445 -2.7721
  474SOL     OW 1420   2.985   3.081   1.416  0.4362 -0.2804  0.6326
  474SOL    HW1 1421   2.896   3.078   1.359 -3.3949 -1.2009 -0.3436
  474SOL    HW2 1422   2.975   0.037   1.498 -0.0808 -0.1106  2.7207
  475SOL     OW 1423   1.813   2.619   1.989  0.5505  0.6662 -0.0358
  475SOL    HW1 1424   1.788   2.628   2.086  1.5974 -0.5299  0.2909
  475SOL    HW2 1425   1.723   2.622   1.931 -3.2329  0.1769 -0.7203
  476SOL     OW 1426   0.407   0.272   0.929  0.3547  0.4303 -0.1737
  476SOL    HW1 1427   0.394   0.365   0.891  2.0528 -0.7039  1.0766
  476SOL    HW2 1428   0.370   0.268   1.022  1.3930  3.7359  2.0658
  477SOL     OW 1429   0.786   2.209   0.923  0.1508  0.0963  0.1079
  477SOL    HW1 1430   0.717   2.201   0.995 -0.9994 -3.1875  0.4634
  477SOL    HW2 1431   0.862   2.275   0.944 -1.3494  0.6342 -2.7112
  478SOL     OW 1432   0.675   2.809   2.696 -0.1806 -0.1182 -0.4359
  478SOL    HW1 1433   0.773   2.808   2.665  0.2567  1.0987  2.2568
  478SOL    HW2 1434   0.670   2.770   2.790  0.9640  1.5638  2.0875
  479SOL     OW 1435   0.285   0.588   2.051 -0.4175  0.2455  0.1222
  479SOL    HW1 1436   0.203   0.565   1.986 -0.4134 -0.5763 -5.4658
  479SOL    HW2 1437   0.343   0.501   2.065 -0.7753 -2.9857 -0.1837
  480SOL     OW 1438   0.061   2.109   2.959 -0.2259  0.5634 -0.1784
  480SOL    HW1 1439   0.090   2.191   3.008  1.3635 -4.0869 -2.6895
  480SOL    HW2 1440   0.019   2.125   2.869  1.0241 -3.9485  3.5436
  481SOL     OW 1441   1.605   3.072   2.269 -0.7569  0.9263  0.3547
  481SOL    HW1 1442   1.596   2.980   2.313  0.8797  2.7463 -0.0139
  481SOL    HW2 1443   1.674   0.025   2.316  0.8258 -1.1742  0.6851
  482SOL     OW 1444   1.734   2.011   2.917  0.8939 -0.1553 -0.0108
  482SOL    HW1 1445   1.724   1.938   2.846 -1.1015 -0.8609  1.1054
  482SOL    HW2 1446   1.835   2.030   2.938  2.8246  0.8575  0.5541
  483SOL     OW 1447   0.944   2.794   2.635  0.1317 -0.3132  0.2960
  483SOL    HW1 1448   0.976   2.702   2.610  1.6364  1.5341 -0.8906
  483SOL    HW2 1449   1.011   2.836   2.696 -2.1032  2.8588 -2.1577
  484SOL     OW 1450   0.670   2.943   1.014  0.9021 -0.2045 -0.2578
  484SOL    HW1 1451   0.681   3.037   0.980  3.3286 -4.5938  1.7486
  484SOL    HW2 1452   0.572   2.917   1.032 -2.9481  0.3880  0.6860
  485SOL     OW 1453   2.039   0.528   0.826 -0.4061  0.1097  0.2354
  485SOL    HW1 1454   1.949   0.509   0.782 -2.8320 -0.0539 -3.8143
  485SOL    HW2 1455   2.103   0.579   0.765 -2.9190 -2.4459  1.3234
  486SOL     OW 1456   2.021   2.545   1.828 -0.0020  0.0846 -0.1056
  486SOL    HW1 1457   2.108   2.592   1.861  0.8912  1.5599 -1.2023
  486SOL    HW2 1458   1.937   2.587   1.866  0.0440  1.4935 -2.4388
  487SOL     OW 1459   1.268   2.155   0.726  0.3240 -0.7322 -0.0374
  487SOL    HW1 1460   1.279   2.249   0.686 -1.2499  1.0941  0.5125
  487SOL    HW2 1461   1.192   2.114   0.671  1.4673 -0.4779  0.4392
  488SOL     OW 1462   1.933   0.359   0.274 -0.9659 -0.5573 -0.3367
  488SOL    HW1 1463   1.859   0.401   0.328 -0.1474 -1.1818  0.1368
  488SOL    HW2 1464   2.027   0.381   0.309 -0.8650  0.0172 -1.5315
  489SOL     OW 1465   2.185   2.752   0.502  0.2127  0.0192 -0.1179
  489SOL    HW1 1466   2.170   2.823   0.573 -0.9400  0.2812  2.2798
  489SOL    HW2 1467   2.140   2.788   0.416 -0.9743 -2.3958 -0.0067
  490SOL     OW 1468   1.558   2.736   2.939 -0.1106 -0.3828  0.6892
  490SOL    HW1 1469   1.650   2.775   2.913  2.0514  1.6017 -3.7426
  490SOL    HW2 1470   1.524   2.766   3.032 -3.0304 -0.0891  3.2527
  491SOL     OW 1471   0.725   0.403   1.151  0.1313 -0.1809  0.3851
  491SOL    HW1 1472   0.776   0.321   1.111  0.3496  1.9527 -1.1698
  491SOL    HW2 1473   0.669   0.381   1.231  0.8196  0.9637 -1.8728
  492SOL     OW 1474   1.825   0.115   0.344  0.8773 -0.1853  0.0923
  492SOL    HW1 1475   1.725   0.117   0.370 -0.5573  1.1388  1.0632
  492SOL    HW2 1476   1.860   0.212   0.325  0.2013  1.1022 -1.1350
  493SOL     OW 1477   1.972   2.118   2.825  0.0487 -0.3093 -0.2841
  493SOL    HW1 1478   1.927   2.205   2.801  0.2388 -1.9365 -0.9524
  493SOL    HW2 1479   2.041   2.128   2.903  2.1037 -3.0354 -0.4330
  494SOL     OW 1480   0.235   1.067   0.866 -0.8099 -0.4858  0.0298
  494SOL    HW1 1481   0.273   0.978   0.900 -0.9459  0.2947 -0.2851
  494SOL    HW2 1482   0.136   1.053   0.858  0.2013 -1.2885  0.4140
  495SOL     OW 1483   2.920   0.183   1.614 -0.1751  0.0278  0.4538
  495SOL    HW1 1484   2.887   0.277   1.637 -4.1915  1.5902  1.1915
  495SOL    HW2 1485   3.024   0.180   1.603 -0.2696  1.1030  2.1559
  496SOL     OW 1486   2.656   2.517   2.064  0.6507  0.3806  0.3700
  496SOL    HW1 1487   2.736   2.544   2.003 -0.9109 -1.5484  1.5108
  496SOL    HW2 1488   2.596   2.454   2.010 -1.9731  1.0444  0.7193
  497SOL     OW 1489   1.607   1.428   2.398  0.1707  0.3792 -0.2704
  497SOL    HW1 1490   1.544   1.450   2.317 -1.9037 -0.6895 -4.5491
  497SOL    HW2 1491   1.567   1.349   2.447  0.7236 -2.0094 -1.1650
  498SOL     OW 1492   0.500   1.751   0.738 -0.2563 -0.0480 -0.2691
  498SOL    HW1 1493   0.444   1.688   0.677 -1.1304 -1.9234 -1.4297
  498SOL    HW2 1494   0.514   1.839   0.695 -1.6666 -0.3613 -0.0450
  499SOL     OW 1495   0.084   1.660   1.231 -0.0604 -0.4494  0.7825
  499SOL    HW1 1496   0.009   1.724   1.216  1.4490 -1.2165  1.0890
  499SOL    HW2 1497   0.145   1.707   1.299  1.6554 -0.2914  1.3838
  500SOL     OW 1498   1.318   2.137   0.025  0.5707 -0.1783 -0.0730
  500SOL    HW1 1499   1.365   2.075   0.091  0.0855 -2.1610  2.7295
  500SOL    HW2 1500   1.338   2.234   0.042  1.2542 -1.5905  0.5475
  501SOL     OW 1501   2.062   2.380   0.889 -0.2678 -0.4251  0.3543
  501SOL    HW1 1502   2.101   2.444   0.956  0.0141  0.4534  0.2110
  501SOL    HW2 1503   2.128   2.376   0.807  0.2308  0.1032 -1.2775
  502SOL     OW 1504   0.089   0.784   1.714  0.1657 -0.1809  0.2553
  502SOL    HW1 1505   0.087   0.837   1.623 -3.1102 -0.3770  0.4560
  502SOL    HW2 1506   0.183   0.773   1.743 -0.7069  0.5496 -1.6431
  503SOL     OW 1507   2.231   0.204   1.757 -0.4233 -0.7477 -0.3878
  503SOL    HW1 1508   2.245   0.269   1.679 -0.6697 -0.1970 -3.2537
  503SOL    HW2 1509   2.279   0.118   1.750 -2.3815  2.9811  0.8214
  504SOL     OW 1510   1.901   0.830   1.992 -1.0717 -0.0078 -0.3720
  504SOL    HW1 1511   1.846   0.843   2.076 -3.2384 -2.4752  1.2656
  504SOL    HW2 1512   1.984   0.893   1.996 -2.3738  1.7395  0.3051
  505SOL     OW 1513   1.085   2.922   2.337  0.6939  0.2366 -0.0171
  505SOL    HW1 1514   1.166   2.880   2.383  0.2658  0.0675  0.1470
  505SOL    HW2 1515   1.001   2.867   2.350 -3.1351 -3.1769 -2.3186
  506SOL     OW 1516   0.611   0.393   1.860 -0.6618  0.1271  0.7383
  506SOL    HW1 1517   0.561   0.360   1.942  1.2748  0.7627 -0.9060
  506SOL    HW2 1518   0.547   0.403   1.778  0.7775 -0.1793  0.0150
  507SOL     OW 1519   1.632   0.323   2.951 -0.1798  0.4273 -0.2354
  507SOL    HW1 1520   1.610   0.259   2.873 -1.1654 -1.6679 -1.2597
  507SOL    HW2 1521   1.580   0.286   3.033  0.6310  0.3540 -1.3212
  508SOL     OW 1522   2.395   0.647   2.580 -0.1011  0.1754  0.0638
  508SOL    HW1 1523   2.389   0.547   2.595 -3.1306  0.7629 -0.8184
  508SOL    HW2 1524   2.493   0.673   2.565  1.7095 -0.4182  3.3871
  509SOL     OW 1525   0.992   1.404   2.081  0.5318  0.2167  0.0657
  509SOL    HW1 1526   0.950   1.364   2.165  0.1438 -0.2239 -2.1884
  509SOL    HW2 1527   1.025   1.497   2.096 -1.4362  0.0334 -0.1674
  510SOL     OW 1528   0.076   0.407   0.785  0.6321 -0.7006 -0.2262
  510SOL    HW1 1529   0.129   0.457   0.853  1.4911 -1.3707 -1.0897
  510SOL    HW2 1530   0.088   0.449   0.689  0.4823  0.6899 -0.6193
  511SOL     OW 1531   1.508   1.388   0.820 -0.0032  0.2928 -0.7465
  511SOL    HW1 1532   1.488   1.454   0.749 -0.5487 -1.2253 -0.3198
  511SOL    HW2 1533   1.512   1.438   0.909  1.5665  0.5453 -0.3920
  512SOL     OW 1534   0.593   1.442   0.328 -0.3634 -0.2208  0.2609
  512SOL    HW1 1535   0.522   1.373   0.304  0.1536  1.4971 -0.7973
  512SOL    HW2 1536   0.664   1.399   0.388 -3.1366 -1.4121 -1.1389
  513SOL     OW 1537   0.118   2.315   0.689  0.4522 -0.4248 -0.2749
  513SOL    HW1 1538   0.194   2.249   0.701  0.4463  0.9110 -0.7403
  513SOL    HW2 1539   0.107   2.348   0.593  0.7705 -1.5678 -3.9284
  514SOL     OW 1540   0.281   2.152   0.182 -0.2182  0.2188 -0.7776
  514SOL    HW1 1541   0.197   2.102   0.198 -0.6453 -2.4122  1.0466
  514SOL    HW2 1542   0.354   2.088   0.155 -1.7113 -0.8878  1.4835
  515SOL     OW 1543   2.853   0.195   0.162  0.1911 -0.1716  0.0615
  515SOL    HW1 1544   2.772   0.138   0.187 -0.0038 -0.1209  0.3103
  515SOL    HW2 1545   2.882   0.233   0.252 -1.4569  0.3387  2.0721
  516SOL     OW 1546   2.096   2.780   1.124  0.3087  0.3936 -0.3666
  516SOL    HW1 1547   2.109   2.795   1.225 -0.8609 -1.8765  3.0989
  516SOL    HW2 1548   2.099   2.682   1.098  1.0396  1.0941 -0.3521
  517SOL     OW 1549   1.451   1.695   0.154 -0.2973  0.2647 -0.3149
  517SOL    HW1 1550   1.395   1.663   0.233 -2.2633  1.0281  3.4085
  517SOL    HW2 1551   1.453   1.626   0.078 -1.1532 -0.4945  0.8712
  518SOL     OW 1552   1.405   0.786   1.513  0.0382 -0.2156 -0.3253
  518SOL    HW1 1553   1.394   0.745   1.421  0.1800 -2.5550 -4.3114
  518SOL    HW2 1554   1.320   0.776   1.568  2.0710  1.0619  0.4934
  519SOL     OW 1555   2.992   1.992   0.588  0.1271  0.1324  0.4565
  519SOL    HW1 1556   3.056   1.981   0.664  1.7336  0.3085 -0.0676
  519SOL    HW2 1557   2.909   2.043   0.615 -1.1970 -0.0213 -0.8812
  520SOL     OW 1558   2.251   2.332   1.853 -0.4564 -0.1227  0.0089
  520SOL    HW1 1559   2.192   2.371   1.781 -3.1056 -1.4875  0.2584
  520SOL    HW2 1560   2.216   2.364   1.944  0.2619  0.8792  1.3523
  521SOL     OW 1561   1.287   2.925   2.564 -0.1376  0.0952  0.1475
  521SOL    HW1 1562   1.346   2.842   2.581  0.1791  0.7987 -1.3694
  521SOL    HW2 1563   1.300   2.994   2.637  2.3040 -1.9575 -1.5783
  522SOL     OW 1564   2.889   0.111   1.860  0.0528  0.3044 -0.0562
  522SOL    HW1 1565   2.965   0.067   1.912 -0.2212  1.5782 -0.9089
  522SOL    HW2 1566   2.918   0.146   1.768  1.3334  0.6639  0.5623
  523SOL     OW 1567   1.377   2.155   1.707 -0.4562  0.6850  0.7425
  523SOL    HW1 1568   1.304   2.097   1.744  0.6792  0.0771  2.1835
  523SOL    HW2 1569   1.373   2.160   1.607  3.2073  0.3503  0.2053
  524SOL     OW 1570   2.196   2.199   0.168 -0.2995 -0.3166  0.3476
  524SOL    HW1 1571   2.289   2.163   0.181  0.6413 -1.0475 -1.4992
  524SOL    HW2 1572   2.167   2.181   0.072  0.7377  3.4610 -1.1556
  525SOL     OW 1573   2.811   0.899   0.214  0.2751  0.3102 -0.0334
  525SOL    HW1 1574   2.902   0.852   0.220  0.7751  1.3913  2.7215
  525SOL    HW2 1575   2.734   0.849   0.251  2.1378 -0.3304  0.5634
  526SOL     OW 1576   1.098   2.943   0.844  0.0463 -0.2946  0.1315
  526SOL    HW1 1577   1.163   2.874   0.808  0.4959  1.7197  0.0173
  526SOL    HW2 1578   1.001   2.916   0.822  0.1990  1.3253 -0.3316
  527SOL     OW 1579   2.586   1.287   0.696  0.1452  0.2148 -0.0170
  527SOL    HW1 1580   2.527   1.204   0.708  0.7544 -0.3583 -2.2216
  527SOL    HW2 1581   2.562   1.363   0.760 -3.2916 -0.0967  0.5108
  528SOL     OW 1582   0.571   0.972   2.482 -0.2423 -0.0922  0.0904
  528SOL    HW1 1583   0.630   1.008   2.408  0.8646 -2.1591  1.3977
  528SOL    HW2 1584   0.495   0.918   2.446  2.6456 -1.0465 -1.7808
  529SOL     OW 1585   0.676   1.634   3.036  0.3923  0.1798  0.3781
  529SOL    HW1 1586   0.775   1.628   3.016 -0.8166  2.2675  1.0548
  529SOL    HW2 1587   0.624   1.575   2.968  0.4930  1.7945 -1.6553
  530SOL     OW 1588   1.482   1.094   2.022  0.2119 -0.4014 -0.0097
  530SOL    HW1 1589   1.542   1.058   1.948 -2.2701  0.2805  0.9332
  530SOL    HW2 1590   1.433   1.018   2.066 -2.0004  3.6555 -0.5375
  531SOL     OW 1591   0.991   2.318   2.808  0.1289 -0.4371 -0.5001
  531SOL    HW1 1592   0.914   2.318   2.871  0.5304 -0.4807  1.2822
  531SOL    HW2 1593   1.002   2.226   2.764  2.3337  2.1227 -1.4615
  532SOL     OW 1594   2.383   0.609   0.291  0.1914  0.5283 -0.4880
  532SOL    HW1 1595   2.328   0.697   0.273 -1.3433  2.1390  1.8125
  532SOL    HW2 1596   2.481   0.637   0.282 -0.2620  0.6688  1.4858
  533SOL     OW 1597   0.054   0.565   1.886  0.6843  0.3055  0.1649
  533SOL    HW1 1598   0.062   0.636   1.818 -0.8883 -1.0147  0.8874
  533SOL    HW2 1599   3.068   0.567   1.937 -0.6858  0.5113  0.5353
  534SOL     OW 1600   1.681   0.549   3.092 -0.2947 -0.1061 -0.4063
  534SOL    HW1 1601   1.646   0.461   3.065  2.0992  0.4666  3.3823
  534SOL    HW2 1602   1.782   0.541   0.018  1.6006 -1.6434  2.6102
  535SOL     OW 1603   0.694   0.205   0.273 -0.5786  0.3895  0.6996
  535SOL    HW1 1604   0.749   0.182   0.194  0.2000  2.5018  5.7198
  535SOL    HW2 1605   0.648   0.295   0.259 -1.0280 -0.9525  0.3375
  536SOL     OW 1606   0.253   1.660   1.911  0.5896 -0.3688  0.4567
  536SOL    HW1 1607   0.253   1.736   1.976 -0.1810  1.7128 -1.9735
  536SOL    HW2 1608   0.307   1.687   1.829 -0.1123 -3.8355  1.0587
  537SOL     OW 1609   0.491   2.417   1.823 -0.7165 -0.1289 -0.2018
  537SOL    HW1 1610   0.487   2.397   1.725  0.1308 -0.2466  0.6124
  537SOL    HW2 1611   0.433   2.499   1.842  2.4682  1.7859  3.1056
  538SOL     OW 1612   0.087   1.939   0.200 -0.6056 -0.0346  0.7445
  538SOL    HW1 1613   0.096   1.847   0.150 -0.8385 -1.1005 -2.6111
  538SOL    HW2 1614   0.007   1.995   0.170 -0.2803  0.9633  0.3572
  539SOL     OW 1615   2.555   0.498   2.853  0.2392 -0.0187  0.0475
  539SOL    HW1 1616   2.467   0.441   2.867  1.8460  0.2452  1.8069
  539SOL    HW2 1617   2.640   0.440   2.839  1.3769 -2.7774 -0.6047
  540SOL     OW 1618   1.514   1.047   3.068 -0.3784  0.1325  0.2458
  540SOL    HW1 1619   1.475   1.143   3.052 -4.1817  0.7158  1.0091
  540SOL    HW2 1620   1.558   1.042   0.057  0.2129  1.0805  0.2563
  541SOL     OW 1621   0.836   0.592   1.698 -0.1357  0.0846  0.1388
  541SOL    HW1 1622   0.795   0.601   1.792  0.3934 -0.8106  0.5835
  541SOL    HW2 1623   0.768   0.584   1.625  0.2387  0.3599 -0.5697
  542SOL     OW 1624   1.811   2.394   2.372 -0.5222 -0.1246 -0.0074
  542SOL    HW1 1625   1.768   2.300   2.365  0.7488 -2.3119  0.9937
  542SOL    HW2 1626   1.910   2.387   2.359 -2.0625 -0.4757 -0.2119
  543SOL     OW 1627   0.803   2.918   1.247 -0.2330  0.5309  0.4632
  543SOL    HW1 1628   0.775   2.960   1.157  0.5794  2.2155 -0.5950
  543SOL    HW2 1629   0.877   2.843   1.231  2.7138 -2.6850  1.6473
  544SOL     OW 1630   2.905   1.593   2.199 -0.2134  0.0281 -0.3713
  544SOL    HW1 1631   2.912   1.492   2.191 -2.0809  1.2344 -0.7863
  544SOL    HW2 1632   2.962   1.618   2.282  1.3061 -1.4293  0.0214
  545SOL     OW 1633   1.767   2.060   1.354 -0.2654  0.0402 -0.3521
  545SOL    HW1 1634   1.825   2.013   1.422 -1.1616  1.0334 -1.0071
  545SOL    HW2 1635   1.729   1.991   1.292 -3.0231  2.0653  0.6421
  546SOL     OW 1636   0.258   0.365   2.408  0.2413 -0.1734  0.1781
  546SOL    HW1 1637   0.182   0.312   2.371  0.3645  0.1918  2.6541
  546SOL    HW2 1638   0.275   0.344   2.507 -1.3828  1.8751 -1.9082
  547SOL     OW 1639   1.407   0.326   0.720  0.3628 -0.1521 -0.4075
  547SOL    HW1 1640   1.463   0.245   0.726 -3.9677 -1.3036 -0.0502
  547SOL    HW2 1641   1.325   0.321   0.782 -1.0730 -1.1689  0.1956
  548SOL     OW 1642   1.331   2.148   2.631 -0.4021  0.4237 -0.2389
  548SOL    HW1 1643   1.301   2.141   2.727 -2.2309 -0.6236 -3.3570
  548SOL    HW2 1644   1.409   2.208   2.617  0.9352 -2.3781  0.9523
  549SOL     OW 1645   2.022   0.939   0.073 -0.1969 -0.0322 -0.8221
  549SOL    HW1 1646   2.120   0.915   0.074  1.4359 -0.9710  1.2184
  549SOL    HW2 1647   2.008   1.037   0.069 -1.2234 -3.2234  0.2671
  550SOL     OW 1648   2.624   1.813   0.461 -0.1262  0.1985 -0.4197
  550SOL    HW1 1649   2.553   1.810   0.387 -0.8052 -1.3029 -0.2971
  550SOL    HW2 1650   2.717   1.799   0.424  1.1445  0.1354 -0.5870
  551SOL     OW 1651   1.148   3.049   2.111 -0.0541 -0.1150 -0.0790
  551SOL    HW1 1652   1.242   3.019   2.088  0.2760 -0.2627  1.2332
  551SOL    HW2 1653   1.112   3.003   2.192 -0.9588  1.3243  2.2438
  552SOL     OW 1654   3.065   2.185   2.687 -0.3285 -0.0431  0.0064
  552SOL    HW1 1655   3.070   2.118   2.611  0.9482  2.4743 -0.3023
  552SOL    HW2 1656   2.968   2.202   2.708  3.3804  2.1320 -0.0719
  553SOL     OW 1657   2.928   2.553   1.008  0.0465  0.1362 -0.1560
  553SOL    HW1 1658   2.994   2.588   1.076  1.0547  2.7115  1.4527
  553SOL    HW2 1659   2.972   2.540   0.918 -1.6021  1.3288  2.2292
  554SOL     OW 1660   2.283   1.847   1.926  0.2046 -0.0077 -0.2368
  554SOL    HW1 1661   2.242   1.941   1.903 -0.7292 -2.0750  0.5434
  554SOL    HW2 1662   2.253   1.780   1.857  1.7349  0.9805  1.4889
  555SOL     OW 1663   1.522   2.149   2.060 -0.1967 -0.7413 -0.3157
  555SOL    HW1 1664   1.471   2.060   2.042  0.5792 -4.2928 -0.0533
  555SOL    HW2 1665   1.461   2.233   2.069  1.0411  1.2143 -2.1008
  556SOL     OW 1666   1.402   1.656   1.223 -0.3133  0.1473 -0.1928
  556SOL    HW1 1667   1.456   1.640   1.312 -0.4514  0.6705  0.0746
  556SOL    HW2 1668   1.410   1.754   1.185 -2.2947  0.3756 -2.2253
  557SOL     OW 1669   1.389   3.016   1.586 -0.0004 -0.2831 -0.3073
  557SOL    HW1 1670   1.448   3.033   1.667 -1.2311 -0.6669 -0.0947
  557SOL    HW2 1671   1.358   2.917   1.590 -0.6454 -0.4675 -0.2620
  558SOL     OW 1672   0.521   0.032   1.901  0.0975 -0.9952 -0.0662
  558SOL    HW1 1673   0.515   3.086   1.814  0.1912 -3.2938  1.0423
  558SOL    HW2 1674   0.445   3.097   1.956 -2.6100 -1.2606  1.3518
  559SOL     OW 1675   2.389   2.622   0.303 -0.3317 -0.2511  0.5013
  559SOL    HW1 1676   2.335   2.704   0.272 -0.2533  0.3760 -1.7266
  559SOL    HW2 1677   2.361   2.573   0.389 -0.2998  3.4713  0.5301
  560SOL     OW 1678   1.669   2.532   0.175 -0.6838 -0.4019 -0.2562
  560SOL    HW1 1679   1.752   2.514   0.116  1.3264 -0.8649  0.6188
  560SOL    HW2 1680   1.627   2.437   0.194  0.1732 -0.8527 -2.3139
  561SOL     OW 1681   1.311   0.444   2.892 -0.4250  0.2002 -0.3222
  561SOL    HW1 1682   1.230   0.502   2.873  0.0358  1.7593 -1.6705
  561SOL    HW2 1683   1.395   0.500   2.875  1.6029 -0.9764  1.5494
  562SOL     OW 1684   0.413   1.481   2.246 -0.5776 -0.3839 -0.1715
  562SOL    HW1 1685   0.414   1.441   2.340 -0.4297 -0.7050  0.4273
  562SOL    HW2 1686   0.479   1.563   2.235  1.7611  2.0490  0.0663
  563SOL     OW 1687   1.470   1.890   2.589  0.0839  0.0242  0.2259
  563SOL    HW1 1688   1.449   1.991   2.594  1.1320  1.0723  0.7538
  563SOL    HW2 1689   1.506   1.863   2.497 -0.3459 -1.2492 -1.8206
  564SOL     OW 1690   3.068   0.967   0.960 -0.0403  0.3681 -0.0784
  564SOL    HW1 1691   2.980   0.917   0.967 -0.2412  2.0119 -2.1788
  564SOL    HW2 1692   3.063   1.053   1.013  1.1688  0.0372 -1.4323
  565SOL     OW 1693   0.449   0.891   3.100  0.3200  0.2196  0.6163
  565SOL    HW1 1694   0.459   0.822   3.025 -1.1811  3.0620  2.0247
  565SOL    HW2 1695   0.356   0.913   0.019  5.3634 -0.3933  0.3943
  566SOL     OW 1696   2.457   2.856   2.663  0.0862 -0.5238 -0.4299
  566SOL    HW1 1697   2.437   2.955   2.643 -1.2360  2.9172 -0.0562
  566SOL    HW2 1698   2.381   2.813   2.716 -0.1283  0.8423  0.0351
  567SOL     OW 1699   1.483   1.176   1.008  0.7063  0.2402  0.0369
  567SOL    HW1 1700   1.490   1.258   0.947 -2.3866 -0.0173 -2.6998
  567SOL    HW2 1701   1.570   1.163   1.060 -1.0908  0.5786  2.0965
  568SOL     OW 1702   1.697   1.570   2.813  0.1855  0.1407 -0.0127
  568SOL    HW1 1703   1.729   1.525   2.900  0.5209 -1.0457  1.6183
  568SOL    HW2 1704   1.749   1.534   2.734  0.2157  0.9737  2.1831
  569SOL     OW 1705   2.385   1.383   0.066 -0.2368  0.2717 -0.1817
  569SOL    HW1 1706   2.436   1.388   3.081  0.5241 -1.6490 -1.7438
  569SOL    HW2 1707   2.384   1.477   0.110 -0.7114  1.6175  0.8714
  570SOL     OW 1708   0.054   2.218   1.790  0.1914  0.0438  0.0029
  570SOL    HW1 1709   0.033   2.318   1.796  1.5498  1.5894 -0.1137
  570SOL    HW2 1710   0.149   2.209   1.755 -0.3113 -0.9972 -0.9778
  571SOL     OW 1711   2.659   1.712   1.680  0.1436  0.0357 -0.4133
  571SOL    HW1 1712   2.581   1.765   1.718 -0.5894 -1.9970 -0.7334
  571SOL    HW2 1713   2.630   1.631   1.624 -0.4208  1.8612  1.5982
  572SOL     OW 1714   2.013   2.385   0.201  0.0304 -0.3301 -0.0065
  572SOL    HW1 1715   2.018   2.454   0.127  1.3786  0.5249 -1.0266
  572SOL    HW2 1716   2.096   2.323   0.194 -0.0215 -1.4321 -0.4163
  573SOL     OW 1717   1.574   2.036   0.412 -0.1407 -0.1535 -0.6375
  573SOL    HW1 1718   1.674   2.041   0.393  0.9092  2.2152 -0.9290
  573SOL    HW2 1719   1.546   2.008   0.511  0.6439  0.3615  4.8461
  574SOL     OW 1720   1.393   0.156   1.465  0.3061 -0.1176 -0.1731
  574SOL    HW1 1721   1.395   0.071   1.526 -0.5677  1.1677 -3.0755
  574SOL    HW2 1722   1.428   0.142   1.370 -1.0660  0.7061  1.2151
  575SOL     OW 1723   0.510   1.265   1.591  0.0490 -0.2198 -0.5826
  575SOL    HW1 1724   0.503   1.297   1.686  1.0759  2.7987 -0.2374
  575SOL    HW2 1725   0.605   1.280   1.554  0.5108  0.1661 -2.7616
  576SOL     OW 1726   2.586   0.577   1.434 -0.0596  0.0735  0.2877
  576SOL    HW1 1727   2.599   0.579   1.532 -1.0302  0.2659 -2.6715
  576SOL    HW2 1728   2.646   0.644   1.389  1.1474 -0.8146 -3.5871
  577SOL     OW 1729   1.614   0.913   2.390  0.3694 -0.1889  0.5511
  577SOL    HW1 1730   1.548   0.986   2.421 -2.1440 -2.6781 -2.1279
  577SOL    HW2 1731   1.560   0.833   2.357  0.4241 -0.0024 -3.0739
  578SOL     OW 1732   2.096   1.382   2.530 -0.2247 -0.4098 -0.5180
  578SOL    HW1 1733   2.190   1.366   2.575 -0.9308 -0.3818 -0.7148
  578SOL    HW2 1734   2.091   1.406   2.432  0.1332  0.3669 -0.6781
  579SOL     OW 1735   1.150   1.977   1.438  0.5745  0.1494  0.1687
  579SOL    HW1 1736   1.064   2.016   1.473  0.6879  0.1106 -1.4836
  579SOL    HW2 1737   1.130   1.958   1.337  1.9927 -0.8163  1.5211
  580SOL     OW 1738   1.563   2.288   0.214  0.0349 -0.2490  0.0925
  580SOL    HW1 1739   1.583   2.234   0.129  4.0786 -0.8160 -0.1938
  580SOL    HW2 1740   1.549   2.229   0.294 -0.8743  0.8974  0.6766
  581SOL     OW 1741   0.911   0.769   2.021 -0.1455  0.1762 -0.4106
  581SOL    HW1 1742   0.819   0.725   2.004  2.3712  2.1942  0.5658
  581SOL    HW2 1743   0.937   0.782   2.119  0.1845 -1.4373  1.3668
  582SOL     OW 1744   0.772   1.213   1.492  0.3875 -0.4758  0.8626
  582SOL    HW1 1745   0.747   1.182   1.397 -1.0550 -0.8239 -1.4462
  582SOL    HW2 1746   0.854   1.273   1.504 -0.6502  0.5974 -0.3309
  583SOL     OW 1747   0.625   1.132   1.851 -0.6080  0.3549 -0.5182
  583SOL    HW1 1748   0.599   1.233   1.857  1.9938 -0.3799  0.0307
  583SOL    HW2 1749   0.728   1.120   1.861 -0.1133  0.9777 -0.2498
  584SOL     OW 1750   2.228   2.307   0.702  0.0985  0.1497  0.0526
  584SOL    HW1 1751   2.319   2.304   0.755  1.9392 -2.4421  0.4730
  584SOL    HW2 1752   2.225   2.225   0.645  1.0415  2.5705  1.1753
  585SOL     OW 1753   1.859   0.156   2.902  0.2408 -0.6058 -0.2494
  585SOL    HW1 1754   1.784   0.222   2.936  1.6114  1.8298  0.7383
  585SOL    HW2 1755   1.870   0.159   2.803 -0.0076  0.6520  0.4036
  586SOL     OW 1756   0.024   1.982   0.834 -0.6755 -0.0494  0.2889
  586SOL    HW1 1757   0.043   1.886   0.871 -1.9812  0.3804  0.7493
  586SOL    HW2 1758   0.018   2.051   0.908 -1.2215  0.8062  0.4037
  587SOL     OW 1759   1.787   2.006   0.213 -0.0533  0.2746 -0.2124
  587SOL    HW1 1760   1.873   1.997   0.262 -2.9346  1.5699 -0.3426
  587SOL    HW2 1761   1.784   2.096   0.159 -2.6150  0.8131 -3.1614
  588SOL     OW 1762   0.144   3.045   0.985 -0.1083 -0.1147 -0.6247
  588SOL    HW1 1763   0.071   0.006   1.027 -0.9844 -0.5389 -2.5369
  588SOL    HW2 1764   0.196   3.093   0.908 -0.5919 -1.3271  1.5521
  589SOL     OW 1765   1.191   1.187   1.082  0.5126  0.1820  0.2279
  589SOL    HW1 1766   1.156   1.105   1.028  1.8970 -1.3114 -0.3387
  589SOL    HW2 1767   1.290   1.198   1.067  2.3061 -0.6147 -1.1652
  590SOL     OW 1768   1.409   1.286   0.042  0.0089 -0.4348 -0.4603
  590SOL    HW1 1769   1.459   1.319   0.126 -0.5051 -0.4058  2.9106
  590SOL    HW2 1770   1.308   1.303   0.048 -0.9151 -0.2567 -1.0012
  591SOL     OW 1771   2.665   2.444   2.514  0.0664 -0.2538 -0.3142
  591SOL    HW1 1772   2.752   2.485   2.553 -1.0426 -0.0385 -1.0489
  591SOL    HW2 1773   2.585   2.506   2.510  1.3263 -2.1742 -1.3749
  592SOL     OW 1774   1.665   2.271   1.533  0.1316 -0.0924  0.2740
  592SOL    HW1 1775   1.568   2.285   1.508  1.8967 -0.3766 -2.3178
  592SOL    HW2 1776   1.705   2.198   1.473  2.2388  0.6624  1.5002
  593SOL     OW 1777   0.859   0.207   1.046 -0.2028 -0.3391 -0.1746
  593SOL    HW1 1778   0.888   0.182   1.140 -0.7568 -3.1145  1.8751
  593SOL    HW2 1779   0.924   0.163   0.981 -2.1693 -1.7849 -1.0842
  594SOL     OW 1780   2.909   0.697   2.265  0.3117 -0.1015 -0.1661
  594SOL    HW1 1781   2.997   0.695   2.215 -2.2863  0.4274  3.1800
  594SOL    HW2 1782   2.867   0.606   2.274  0.2007  1.6116  0.1922
  595SOL     OW 1783   0.758   2.628   1.433  0.1064 -0.1304  0.6253
  595SOL    HW1 1784   0.703   2.711   1.431  2.1420 -2.3508  0.5823
  595SOL    HW2 1785   0.765   2.579   1.345 -1.4315  1.0580 -0.8412
  596SOL     OW 1786   0.061   0.871   1.450 -0.1414 -0.5057 -0.6582
  596SOL    HW1 1787   3.068   0.912   1.439 -4.3049  0.7449 -2.5242
  596SOL    HW2 1788   0.113   0.878   1.366 -0.7030 -0.8892  2.4616
  597SOL     OW 1789   1.717   1.764   0.111  0.4276 -0.4677  0.1679
  597SOL    HW1 1790   1.614   1.745   0.112 -2.6163  0.4451 -1.0469
  597SOL    HW2 1791   1.741   1.848   0.163 -1.1681 -0.0167  1.1273
  598SOL     OW 1792   0.344   2.815   1.624  0.0298  0.0946 -0.3757
  598SOL    HW1 1793   0.400   2.764   1.553  2.1332 -2.6691 -0.3815
  598SOL    HW2 1794   0.396   2.901   1.651 -0.4037  1.4870 -1.3563
  599SOL     OW 1795   2.457   1.668   2.802  0.2326  0.0289  0.0936
  599SOL    HW1 1796   2.371   1.673   2.744 -0.8776 -0.0327  0.6801
  599SOL    HW2 1797   2.533   1.720   2.759 -1.0702 -1.0593 -0.9757
  600SOL     OW 1798   0.768   1.051   0.168 -0.0113  0.3195 -0.0670
  600SOL    HW1 1799   0.769   1.054   0.271  2.6403  0.3713  3.3525
  600SOL    HW2 1800   0.763   1.146   0.134  0.7336  1.5190 -0.4957
  601SOL     OW 1801   0.595   0.708   0.795  0.5552  0.1213 -0.3858
  601SOL    HW1 1802   0.554   0.791   0.755  0.1604 -1.9940 -0.3695
  601SOL    HW2 1803   0.554   0.684   0.887 -1.0409 -1.6115  1.7390
  602SOL     OW 1804   1.523   3.020   0.679 -0.3526  0.3113  0.5038
  602SOL    HW1 1805   1.603   2.988   0.629  1.2731  2.1707 -2.0560
  602SOL    HW2 1806   1.542   3.102   0.739  0.6569  2.9635 -0.8492
  603SOL     OW 1807   0.658   2.948   2.144 -0.2277  0.2452  0.0953
  603SOL    HW1 1808   0.646   3.052   2.138 -0.5401  1.4614  0.9765
  603SOL    HW2 1809   0.632   2.910   2.053 -1.5090  2.0877 -1.5804
  604SOL     OW 1810   2.875   2.976   2.375  0.0630 -0.3598 -0.3340
  604SOL    HW1 1811   2.973   3.007   2.383  1.5557  1.4699 -1.5129
  604SOL    HW2 1812   2.868   2.880   2.405 -0.1137  0.3678 -1.2907
  605SOL     OW 1813   2.681   1.771   1.180  0.0586 -0.9720 -0.1705
  605SOL    HW1 1814   2.689   1.848   1.246 -1.8870  1.4785  1.8008
  605SOL    HW2 1815   2.740   1.694   1.204 -0.7315 -0.2337 -0.5555
  606SOL     OW 1816   0.545   1.519   2.828  0.5207  0.2448  0.2664
  606SOL    HW1 1817   0.494   1.607   2.818  0.4064  1.0152  2.9109
  606SOL    HW2 1818   0.481   1.444   2.849  0.0019 -0.8112  1.4481
  607SOL     OW 1819   0.904   0.162   0.456 -0.4615  0.3251 -0.0215
  607SOL    HW1 1820   0.831   0.193   0.391  0.4583 -0.7975  0.6662
  607SOL    HW2 1821   0.993   0.166   0.405 -3.6055 -1.2282  0.5750
  608SOL     OW 1822   1.704   1.249   2.096 -0.4959  0.2938  0.0563
  608SOL    HW1 1823   1.622   1.186   2.084  0.1090  2.0945  2.2086
  608SOL    HW2 1824   1.688   1.345   2.058 -1.3239 -2.1002 -0.5059
  609SOL     OW 1825   3.009   0.068   1.091  0.0570  0.5123  0.2132
  609SOL    HW1 1826   2.927   0.028   1.137  3.1150  0.5633 -0.4654
  609SOL    HW2 1827   3.005   0.164   1.052  1.5957 -2.1714  0.5851
  610SOL     OW 1828   0.660   2.839   0.771  0.0918 -0.3831  0.4297
  610SOL    HW1 1829   0.750   2.838   0.728 -1.7136 -0.0301 -0.9338
  610SOL    HW2 1830   0.660   2.873   0.867 -1.0104 -1.9313  1.1157
  611SOL     OW 1831   1.740   0.932   2.958 -0.4780  0.1193  0.1290
  611SOL    HW1 1832   1.815   0.908   3.021  1.1770 -1.9113 -0.4126
  611SOL    HW2 1833   1.666   0.992   2.995  0.0814 -0.6724 -0.1776
  612SOL     OW 1834   0.758   2.313   2.172  0.2304 -0.4340  0.6209
  612SOL    HW1 1835   0.780   2.216   2.183 -2.5891  0.5211 -0.3695
  612SOL    HW2 1836   0.836   2.360   2.127 -2.2860 -3.7918  0.2124
  613SOL     OW 1837   1.012   2.612   0.277 -0.5735 -0.0432  0.0953
  613SOL    HW1 1838   1.102   2.621   0.230 -1.3102  0.5080  1.2384
  613SOL    HW2 1839   0.951   2.550   0.227  2.5020  0.4890  2.6922
  614SOL     OW 1840   2.691   2.814   1.499  0.3414 -0.1701 -0.1713
  614SOL    HW1 1841   2.789   2.800   1.461  4.4054 -0.7987 -2.0515
  614SOL    HW2 1842   2.651   2.727   1.529  1.5566  0.9165 -1.2875
  615SOL     OW 1843   2.131   1.170   0.404 -0.5182  0.4204 -0.3919
  615SOL    HW1 1844   2.148   1.147   0.500 -1.2321  1.6510 -2.1084
  615SOL    HW2 1845   2.066   1.247   0.406  2.1481  0.8828 -0.5079
  616SOL     OW 1846   1.763   0.454   0.468  0.1531 -0.1769  0.8876
  616SOL    HW1 1847   1.667   0.469   0.437  0.0176  2.0197  0.0380
  616SOL    HW2 1848   1.773   0.456   0.571  2.1934 -1.7478  0.8830
  617SOL     OW 1849   1.124   0.990   3.054 -0.4287 -0.7605 -0.0306
  617SOL    HW1 1850   1.184   0.930   3.102 -0.1519 -1.8681  0.1763
  617SOL    HW2 1851   1.028   0.958   3.057  0.8828  4.9793 -3.1907
  618SOL     OW 1852   0.789   0.176   1.791  0.0934 -0.3940  0.4164
  618SOL    HW1 1853   0.797   0.103   1.863 -2.2812 -0.6628  0.4325
  618SOL    HW2 1854   0.741   0.259   1.825 -1.0745 -0.2105 -2.3554
  619SOL     OW 1855   2.920   1.019   1.410  0.4546  0.1541 -0.2932
  619SOL    HW1 1856   2.989   1.092   1.401  1.6105  0.7924 -0.1532
  619SOL    HW2 1857   2.843   1.065   1.457  0.3889  1.7095  0.9653
  620SOL     OW 1858   2.237   1.080   2.769 -0.0311 -0.1090 -0.4401
  620SOL    HW1 1859   2.265   1.097   2.674 -1.0380 -2.1109  2.5703
  620SOL    HW2 1860   2.181   1.156   2.803  0.4340 -0.7286  0.4208
  621SOL     OW 1861   2.556   2.553   1.315 -0.1164 -0.8333 -0.0660
  621SOL    HW1 1862   2.547   2.630   1.247  1.3515  2.9402 -2.6115
  621SOL    HW2 1863   2.618   2.484   1.270 -0.0304 -0.7808 -2.4883
  622SOL     OW 1864   1.143   0.808   2.670 -0.4760 -0.0703  0.3520
  622SOL    HW1 1865   1.139   0.796   2.571 -1.1599  1.0219  2.0830
  622SOL    HW2 1866   1.170   0.901   2.704  0.5861  0.2650  3.4753
  623SOL     OW 1867   1.078   0.592   2.840  0.3030  0.1746  0.0102
  623SOL    HW1 1868   1.019   0.541   2.777  2.6228  1.3502  0.3387
  623SOL    HW2 1869   1.112   0.672   2.786  0.2367 -0.0120 -0.8632
  624SOL     OW 1870   1.819   0.806   0.183  0.6270  0.3477 -0.1928
  624SOL    HW1 1871   1.898   0.870   0.165  2.5714  0.1371  1.0356
  624SOL    HW2 1872   1.847   0.709   0.157  2.7872 -3.8177  1.5743
  625SOL     OW 1873   1.007   1.405   1.088 -0.9387 -0.0002 -0.1018
  625SOL    HW1 1874   1.078   1.330   1.085 -0.3773 -0.3241  0.6171
  625SOL    HW2 1875   1.035   1.478   1.158 -3.3958  0.4682  1.0102
  626SOL     OW 1876   1.662   1.109   2.733  0.2810 -0.2620 -0.4240
  626SOL    HW1 1877   1.727   1.135   2.659 -1.5877 -0.1111 -0.0555
  626SOL    HW2 1878   1.695   1.027   2.782  3.6071 -1.8056 -1.6283
  627SOL     OW 1879   1.016   0.030   2.502  0.4316 -0.2168 -0.2180
  627SOL    HW1 1880   1.062   3.051   2.469  1.4638  1.6736  2.8914
  627SOL    HW2 1881   1.006   0.037   2.605  0.0664  0.8527 -0.1489
  628SOL     OW 1882   2.535   0.120   2.199  0.1317 -0.1852  0.4380
  628SOL    HW1 1883   2.560   0.207   2.152 -0.2632 -1.4031  0.9335
  628SOL    HW2 1884   2.501   0.147   2.292  3.1874  1.4474  0.5537
  629SOL     OW 1885   0.855   0.858   2.814  0.6742 -0.0283 -0.3846
  629SOL    HW1 1886   0.942   0.816   2.775 -1.5406 -0.6251 -1.6268
  629SOL    HW2 1887   0.850   0.875   2.913  1.5910  0.8732 -1.2935
  630SOL     OW 1888   1.121   0.388   2.023  0.5395 -0.0897  0.2130
  630SOL    HW1 1889   1.029   0.430   2.037 -3.4344  0.0739 -0.5374
  630SOL    HW2 1890   1.165   0.325   2.091 -0.2921 -2.2305 -0.5592
  631SOL     OW 1891   2.898   0.688   0.559 -0.1213 -0.1287 -0.5044
  631SOL    HW1 1892   2.832   0.614   0.536 -0.3678  0.7398  0.6314
  631SOL    HW2 1893   2.987   0.672   0.510  0.0943  2.3719  0.0532
  632SOL     OW 1894   2.108   1.016   1.316 -0.3800  0.0451  0.2829
  632SOL    HW1 1895   2.062   1.033   1.408  0.4456 -0.8060  3.6813
  632SOL    HW2 1896   2.111   0.916   1.295  1.0041  1.5677 -0.6486
  633SOL     OW 1897   1.121   0.976   0.944  0.1907 -0.4848 -0.0008
  633SOL    HW1 1898   1.030   0.925   0.954 -1.0022 -2.5332 -2.6614
  633SOL    HW2 1899   1.199   0.910   0.945  0.2787 -1.7798 -0.0961
  634SOL     OW 1900   1.908   2.961   0.991  0.0941  0.5726 -0.5691
  634SOL    HW1 1901   1.988   2.935   1.047 -0.9518 -0.7962 -2.4252
  634SOL    HW2 1902   1.831   2.897   1.002  1.4438 -1.5993 -1.1580
  635SOL     OW 1903   1.404   0.925   1.012  0.5275 -0.0067  0.0987
  635SOL    HW1 1904   1.479   0.866   0.978 -1.3401  0.1185  0.6288
  635SOL    HW2 1905   1.427   1.024   1.001  1.7892 -1.0564 -2.2970
  636SOL     OW 1906   0.820   1.055   0.690  0.0998  0.5390  0.5757
  636SOL    HW1 1907   0.777   1.078   0.779  1.9089  0.7501 -2.0744
  636SOL    HW2 1908   0.909   1.104   0.680 -1.1403  2.0163 -1.3824
  637SOL     OW 1909   2.434   2.075   0.178  0.6731 -0.0193 -0.2208
  637SOL    HW1 1910   2.487   2.116   0.257  0.6939  0.3721  0.0668
  637SOL    HW2 1911   2.478   2.096   0.091 -3.4638  0.3061  1.0224
  638SOL     OW 1912   1.392   2.713   2.705 -0.0754 -0.5327 -0.4981
  638SOL    HW1 1913   1.426   2.644   2.643 -3.1112  1.6635  3.8482
  638SOL    HW2 1914   1.442   2.694   2.793 -2.1921  1.9233  2.1347
  639SOL     OW 1915   0.944   2.214   1.232 -0.2686  0.1903  0.1330
  639SOL    HW1 1916   0.962   2.284   1.160 -0.0307  0.8974  1.2532
  639SOL    HW2 1917   0.982   2.119   1.214 -0.5041  0.3825  0.2596
  640SOL     OW 1918   2.940   2.540   0.597 -0.2675  0.8203 -0.0807
  640SOL    HW1 1919   2.942   2.452   0.652  1.5686  0.3257 -1.7440
  640SOL    HW2 1920   2.932   2.512   0.495 -1.4752 -0.9390 -3.1742
  641SOL     OW 1921   0.569   0.440   0.193 -0.0229  0.0571  0.4975
  641SOL    HW1 1922   0.505   0.500   0.239  0.6144  0.2987 -3.1836
  641SOL    HW2 1923   0.553   0.437   0.089 -0.3175 -0.6658 -2.1390
  642SOL     OW 1924   2.917   0.691   1.134 -0.1924 -0.1557  0.6458
  642SOL    HW1 1925   2.895   0.596   1.116 -0.8961 -2.1051 -0.6066
  642SOL    HW2 1926   2.862   0.747   1.067  1.6849 -3.2858  0.1507
  643SOL     OW 1927   0.813   1.922   1.947 -0.3937  0.1062 -0.6707
  643SOL    HW1 1928   0.711   1.930   1.961 -0.1636  0.4979 -0.3454
  643SOL    HW2 1929   0.857   1.962   2.030 -2.2702  0.7578  2.5359
  644SOL     OW 1930   1.515   2.738   0.125 -0.5122  0.1078 -0.2696
  644SOL    HW1 1931   1.582   2.656   0.129  3.3147 -1.4548  0.2207
  644SOL    HW2 1932   1.544   2.800   0.196 -1.5639  0.5081  0.9474
  645SOL     OW 1933   1.944   2.109   0.830  0.4499  0.1435  0.0644
  645SOL    HW1 1934   1.979   2.064   0.743 -0.4727 -0.9854 -1.9222
  645SOL    HW2 1935   1.988   2.196   0.856  0.1526  0.7482 -0.9584
  646SOL     OW 1936   1.240   3.052   0.117  0.3449  0.2094  0.1136
  646SOL    HW1 1937   1.309   3.011   0.058  1.2635 -1.2834  0.6607
  646SOL    HW2 1938   1.143   3.016   0.095 -1.1607  1.1066 -1.2110
  647SOL     OW 1939   0.333   2.617   1.879 -0.5212  0.2451 -0.5696
  647SOL    HW1 1940   0.280   2.656   1.955  0.4641  1.5321  1.8894
  647SOL    HW2 1941   0.292   2.644   1.788  2.8616  0.3599 -1.7789
  648SOL     OW 1942   1.760   1.003   1.394 -0.6220  0.3602 -0.1320
  648SOL    HW1 1943   1.843   0.996   1.452 -0.0446 -0.0367  2.5376
  648SOL    HW2 1944   1.761   0.930   1.324  0.9955  3.1996  1.3003
  649SOL     OW 1945   1.634   2.260   2.816  0.1033 -0.3851  0.3816
  649SOL    HW1 1946   1.664   2.172   2.856 -0.5405  1.3427  0.9246
  649SOL    HW2 1947   1.588   2.324   2.882 -0.7287 -0.3226  0.2715
  650SOL     OW 1948   2.258   1.500   1.935 -0.2390 -0.7341  0.1686
  650SOL    HW1 1949   2.352   1.533   1.954  0.3119  0.3567 -2.2171
  650SOL    HW2 1950   2.191   1.541   2.000  1.6197 -2.8263 -1.8177
  651SOL     OW 1951   1.477   1.891   3.013  0.3719  0.2493 -0.5564
  651SOL    HW1 1952   1.469   1.841   3.102 -2.9990  1.6814  1.4456
  651SOL    HW2 1953   1.557   1.949   3.004 -0.2836 -1.4039  1.7612
  652SOL     OW 1954   0.707   2.741   2.977 -0.1266  0.4348  0.0027
  652SOL    HW1 1955   0.804   2.771   2.962  2.5466  1.9726 -0.5109
  652SOL    HW2 1956   0.643   2.817   3.004 -2.8317 -0.7072 -2.9707
  653SOL     OW 1957   2.283   1.895   1.076 -0.0729 -0.0666 -0.3902
  653SOL    HW1 1958   2.275   1.995   1.044 -0.7504 -1.1849 -2.9336
  653SOL    HW2 1959   2.324   1.885   1.169  1.4839 -1.8933  0.3815
  654SOL     OW 1960   2.850   2.592   1.902 -0.1755 -0.4839 -0.2079
  654SOL    HW1 1961   2.838   2.679   1.848 -1.2903  0.8928  3.6896
  654SOL    HW2 1962   2.943   2.556   1.888 -4.6345  0.4102 -0.7663
  655SOL     OW 1963   2.858   2.039   1.123 -0.1858 -0.8828  0.2546
  655SOL    HW1 1964   2.796   2.011   1.047  0.8192  1.1553  0.1928
  655SOL    HW2 1965   2.809   2.049   1.210 -0.0139 -0.4431 -0.5081
  656SOL     OW 1966   0.255   2.872   2.704  0.1304  0.0396  0.0139
  656SOL    HW1 1967   0.300   2.899   2.614 -0.0450 -0.9615 -0.7641
  656SOL    HW2 1968   0.171   2.818   2.689 -1.1214 -0.9094  0.0206
  657SOL     OW 1969   3.042   0.766   0.200 -0.4705  0.3381 -0.2320
  657SOL    HW1 1970   3.061   0.711   0.286  0.9500 -1.6154 -1.5945
  657SOL    HW2 1971   0.021   0.816   0.166  0.3956  0.1657  0.8661
  658SOL     OW 1972   1.859   1.893   0.963 -0.3517 -0.3194  0.5773
  658SOL    HW1 1973   1.818   1.911   1.051  0.0958 -0.3145 -2.0697
  658SOL    HW2 1974   1.909   1.978   0.929  3.6039  0.5746 -0.2580
  659SOL     OW 1975   1.698   0.518   1.211  0.1998 -0.2134 -0.3597
  659SOL    HW1 1976   1.734   0.455   1.142  0.2670  0.4184  0.5190
  659SOL    HW2 1977   1.594   0.528   1.199 -0.9527  0.7497  1.4326
  660SOL     OW 1978   1.337   1.563   0.358  0.1527 -0.2955  0.2550
  660SOL    HW1 1979   1.290   1.474   0.345 -0.4939 -1.0376  0.2964
  660SOL    HW2 1980   1.359   1.581   0.456 -0.5908  0.2442 -0.8250
  661SOL     OW 1981   0.169   1.902   0.459  0.2013 -0.0978  0.0526
  661SOL    HW1 1982   0.235   1.979   0.449 -1.8340  2.2352 -3.2655
  661SOL    HW2 1983   0.114   1.900   0.371 -3.2536  0.2934 -0.7209
  662SOL     OW 1984   0.068   0.705   2.161 -0.0202  0.6222  0.2280
  662SOL    HW1 1985   0.141   0.653   2.117 -0.6773  1.5306  0.2495
  662SOL    HW2 1986   0.089   0.804   2.166 -0.4861 -2.3097  1.9635
  663SOL     OW 1987   2.116   1.427   1.287  0.4200  0.3620 -0.1831
  663SOL    HW1 1988   2.098   1.339   1.241 -0.5713  0.9616 -1.5585
  663SOL    HW2 1989   2.036   1.490   1.276 -0.8033  0.9872 -0.7647
  664SOL     OW 1990   0.521   0.538   1.024  0.2792 -0.3900  0.5579
  664SOL    HW1 1991   0.466   0.600   1.087 -0.9681  0.0912  1.3236
  664SOL    HW2 1992   0.599   0.493   1.075 -1.2801 -1.7249 -0.5359
  665SOL     OW 1993   1.330   3.048   2.797  0.5554 -0.0737 -0.6453
  665SOL    HW1 1994   1.387   3.025   2.881  2.2506 -1.3032 -0.2095
  665SOL    HW2 1995   1.284   0.044   2.809  1.6853  0.7429 -0.3239
  666SOL     OW 1996   0.200   0.624   2.394 -0.0274  0.2766 -0.0924
  666SOL    HW1 1997   0.234   0.526   2.399 -0.7468 -2.5099 -0.0171
  666SOL    HW2 1998   0.128   0.643   2.323 -0.5314 -0.3243 -1.3471
  667SOL     OW 1999   1.897   1.522   2.269 -0.5129 -0.3964 -0.1764
  667SOL    HW1 2000   1.857   1.614   2.272  1.1380  0.9308  0.8387
  667SOL    HW2 2001   1.833   1.451   2.237 -1.6902 -1.1026 -2.3199
  668SOL     OW 2002   3.096   1.597   2.929 -0.1449  0.4182  0.5816
  668SOL    HW1 2003   0.075   1.562   2.872 -0.5742 -0.0989 -0.9746
  668SOL    HW2 2004   3.017   1.549   2.897  3.5803  0.5125 -0.1115
  669SOL     OW 2005   2.041   2.750   2.526  0.4775 -0.2846 -0.2594
  669SOL    HW1 2006   2.052   2.802   2.434  2.2493  0.8452 -2.6460
  669SOL    HW2 2007   2.099   2.668   2.537  1.8646 -2.6583  2.7452
  670SOL     OW 2008   2.586   0.975   2.464  0.2359 -0.0587 -0.4597
  670SOL    HW1 2009   2.593   0.871   2.467  0.0384 -1.4047  2.5969
  670SOL    HW2 2010   2.490   1.009   2.474 -3.1899 -0.3255 -0.6332
  671SOL     OW 2011   2.371   1.270   0.315 -0.7267 -0.2573  0.4557
  671SOL    HW1 2012   2.365   1.304   0.221 -0.6344 -0.9863  1.0758
  671SOL    HW2 2013   2.278   1.236   0.336  0.6632  0.5577  0.1394
  672SOL     OW 2014   2.695   1.262   2.345  0.5622  0.0170  0.7307
  672SOL    HW1 2015   2.702   1.328   2.421  2.2414 -0.4274 -0.4006
  672SOL    HW2 2016   2.676   1.168   2.380  0.7428  0.7856 -1.2578
  673SOL     OW 2017   2.925   1.433   1.517  0.0726 -0.6299  0.2957
  673SOL    HW1 2018   2.939   1.523   1.480 -1.2977 -4.3218 -1.2271
  673SOL    HW2 2019   2.982   1.362   1.471  0.9255  3.6357  0.4551
  674SOL     OW 2020   1.776   1.687   1.689  0.1349  0.1884  0.0332
  674SOL    HW1 2021   1.712   1.731   1.755 -0.1682  0.4611  0.9899
  674SOL    HW2 2022   1.858   1.665   1.742 -3.8356  0.2432 -0.6190
  675SOL     OW 2023   2.996   0.307   0.976 -0.0015 -0.1834  0.5392
  675SOL    HW1 2024   3.067   0.361   0.928 -0.9582  0.3424  1.0246
  675SOL    HW2 2025   2.918   0.375   0.990 -0.6656  1.2944 -1.4406
  676SOL     OW 2026   2.151   0.857   0.933 -0.6751  0.2284  0.0192
  676SOL    HW1 2027   2.061   0.907   0.932 -3.0689  1.0665  0.8117
  676SOL    HW2 2028   2.171   0.819   0.845 -2.9564  3.0050 -0.8485
  677SOL     OW 2029   1.482   1.535   2.154 -0.2452  0.8547  0.0706
  677SOL    HW1 2030   1.424   1.619   2.140  2.7750  1.6186 -1.3728
  677SOL    HW2 2031   1.417   1.451   2.148 -1.6879  1.7219 -0.3622
  678SOL     OW 2032   2.575   1.425   1.070  0.3065 -0.0665 -0.4217
  678SOL    HW1 2033   2.551   1.506   1.016  0.3810 -2.7080  0.5199
  678SOL    HW2 2034   2.504   1.385   1.129  1.8374 -0.5720  0.5243
  679SOL     OW 2035   0.320   2.719   0.864 -0.0708 -0.2097  0.0588
  679SOL    HW1 2036   0.277   2.790   0.803 -0.9534  1.1567  1.1563
  679SOL    HW2 2037   0.273   2.629   0.851 -0.7970  0.3507  1.0681
  680SOL     OW 2038   0.020   2.136   1.052 -0.8214 -0.1081  0.1581
  680SOL    HW1 2039   0.074   2.219   1.061  2.1482 -2.9997 -2.3166
  680SOL    HW2 2040   3.027   2.140   1.078 -1.6673  1.5399 -1.4900
  681SOL     OW 2041   0.791   0.858   1.254  0.2808  0.2005 -0.7021
  681SOL    HW1 2042   0.866   0.923   1.220 -0.3423  1.1196 -1.3584
  681SOL    HW2 2043   0.716   0.852   1.181  1.6236  1.5075 -3.1616
  682SOL     OW 2044   1.705   2.778   0.594 -0.0440 -0.0149  0.2979
  682SOL    HW1 2045   1.790   2.835   0.607 -0.7964  0.9792  0.4114
  682SOL    HW2 2046   1.683   2.769   0.494  0.2093  0.7187 -2.3324
  683SOL     OW 2047   2.242   1.346   1.682  0.3920 -0.6089 -0.3503
  683SOL    HW1 2048   2.257   1.392   1.770 -0.5497  1.7716 -0.3333
  683SOL    HW2 2049   2.247   1.422   1.609  1.0139 -0.5031 -0.4101
  684SOL     OW 2050   0.066   1.687   1.608  0.2563  0.6330 -0.3141
  684SOL    HW1 2051   3.084   1.692   1.553 -2.1426  1.8648 -0.2406
  684SOL    HW2 2052   0.047   1.706   1.708 -0.5148 -0.9052 -0.9622
  685SOL     OW 2053   2.150   1.802   0.176 -0.3410  0.3127 -0.1182
  685SOL    HW1 2054   2.104   1.716   0.205  0.0312  0.8240 -0.0632
  685SOL    HW2 2055   2.249   1.797   0.193  2.2439 -1.1667 -1.1526
  686SOL     OW 2056   3.004   0.212   0.663  0.1413 -0.3638 -0.1738
  686SOL    HW1 2057   3.050   0.278   0.724  0.4905  0.1205  2.3248
  686SOL    HW2 2058   2.912   0.184   0.696 -0.2888 -1.5160  0.7193
  687SOL     OW 2059   1.488   3.031   3.019  1.0206 -0.1559  0.1343
  687SOL    HW1 2060   1.475   0.020   3.062 -0.1190 -0.5050 -0.4512
  687SOL    HW2 2061   1.584   3.009   3.003  1.9431 -2.4591  2.3266
  688SOL     OW 2062   1.812   1.940   2.228 -0.0788  0.2820  0.0513
  688SOL    HW1 2063   1.894   1.900   2.270  0.3708  0.9751 -1.2223
  688SOL    HW2 2064   1.814   2.042   2.218 -0.6739  1.3532  0.9287
  689SOL     OW 2065   2.714   1.009   2.038  0.4221  0.1340  0.3517
  689SOL    HW1 2066   2.752   1.102   2.016  1.8755  0.2219  1.5784
  689SOL    HW2 2067   2.753   0.978   2.126  0.1814  0.6120 -0.7621
  690SOL     OW 2068   1.781   1.451   0.853 -0.1531  0.2238  0.1312
  690SOL    HW1 2069   1.810   1.528   0.916 -0.5062 -1.8329  2.1059
  690SOL    HW2 2070   1.688   1.424   0.877  0.0721  1.3283  0.6998
  691SOL     OW 2071   0.862   1.551   1.393 -0.3200 -0.3021  0.4302
  691SOL    HW1 2072   0.926   1.495   1.448  0.7499  2.7608 -0.2556
  691SOL    HW2 2073   0.779   1.497   1.366 -0.3762 -1.9240 -1.6128
  692SOL     OW 2074   1.991   3.061   2.106  0.0501 -0.2376 -0.1368
  692SOL    HW1 2075   2.056   0.031   2.061  3.8568  3.5256 -0.4687
  692SOL    HW2 2076   1.929   3.017   2.037  0.7527 -1.5787 -1.4826
  693SOL     OW 2077   0.001   1.230   2.821  0.2336  0.0071 -0.3461
  693SOL    HW1 2078   0.037   1.326   2.825  0.8676  1.2462 -1.6764
  693SOL    HW2 2079   3.055   1.211   2.733  0.3679  0.2357 -0.9282
  694SOL     OW 2080   1.977   0.315   1.259 -0.1575 -0.0803 -0.7180
  694SOL    HW1 2081   1.935   0.231   1.220 -0.0774  0.4545  1.5369
  694SOL    HW2 2082   1.919   0.357   1.332 -1.2155  0.3958  1.1543
  695SOL     OW 2083   1.432   1.250   2.790  0.6284 -0.2193  0.4256
  695SOL    HW1 2084   1.519   1.203   2.774  1.1801  1.7432  1.2073
  695SOL    HW2 2085   1.435   1.345   2.751  1.8839 -0.9650 -0.0769
  696SOL     OW 2086   1.965   0.087   1.731  0.1191 -0.2385 -0.0835
  696SOL    HW1 2087   1.893   0.128   1.670 -1.5282 -0.4061  1.9566
  696SOL    HW2 2088   2.055   0.134   1.726 -0.1362 -0.5901  0.2991
  697SOL     OW 2089   1.544   0.491   2.133  0.1830 -0.6317  0.0979
  697SOL    HW1 2090   1.520   0.394   2.144  2.5534  0.0718  1.2343
  697SOL    HW2 2091   1.569   0.509   2.039  2.9901  1.8872  0.8885
  698SOL     OW 2092   1.963   1.709   2.534  0.0921 -0.0089 -0.3750
  698SOL    HW1 2093   2.003   1.756   2.613 -1.5100 -2.2110 -1.3593
  698SOL    HW2 2094   1.917   1.628   2.572  0.8443  0.8769  0.2077
  699SOL     OW 2095   1.550   1.179   0.631 -0.7832 -0.0238  0.4323
  699SOL    HW1 2096   1.519   1.219   0.715  1.6008 -1.6812 -1.3780
  699SOL    HW2 2097   1.605   1.097   0.654 -2.7432  0.2561 -0.4671
  700SOL     OW 2098   1.740   2.940   0.314  0.1294  0.6748 -0.2549
  700SOL    HW1 2099   1.791   2.853   0.341  1.8423 -0.9467  0.5420
  700SOL    HW2 2100   1.789   3.032   0.328  1.2974  0.1328  0.0199
  701SOL     OW 2101   0.166   0.444   1.366 -1.0336  0.5474  0.0855
  701SOL    HW1 2102   0.111   0.513   1.319 -0.2298 -3.8444  1.6476
  701SOL    HW2 2103   0.100   0.384   1.416  0.1773  0.7186 -1.8566
  702SOL     OW 2104   1.805   0.023   1.352  0.0768  0.2392 -0.4545
  702SOL    HW1 2105   1.903   3.100   1.344 -1.0133 -1.5453 -2.0421
  702SOL    HW2 2106   1.751   3.046   1.387 -2.4148 -0.0370  0.0890
  703SOL     OW 2107   2.623   0.540   1.747  0.2460  0.5291  0.5186
  703SOL    HW1 2108   2.656   0.444   1.753  1.0089  1.2940  1.4002
  703SOL    HW2 2109   2.700   0.605   1.738  2.9974  1.8480 -0.9428
  704SOL     OW 2110   1.437   2.158   1.148 -0.2520 -0.1754  0.0762
  704SOL    HW1 2111   1.450   2.182   1.246  2.2382 -0.3003 -0.0557
  704SOL    HW2 2112   1.382   2.226   1.095  1.2431 -1.0619  0.8320
  705SOL     OW 2113   0.176   1.848   2.293  0.2632 -0.5120  0.3861
  705SOL    HW1 2114   0.253   1.876   2.359  0.1128 -1.5955  2.6024
  705SOL    HW2 2115   0.198   1.761   2.246 -3.4913 -2.2637 -0.1145
  706SOL     OW 2116   2.320   0.389   2.882  0.6101  0.2903 -0.7345
  706SOL    HW1 2117   2.235   0.443   2.897  3.4415 -1.9226  0.5736
  706SOL    HW2 2118   2.328   0.319   2.956 -0.4091 -1.0708  1.2885
  707SOL     OW 2119   1.627   2.824   2.380 -0.2689  0.1874  0.1416
  707SOL    HW1 2120   1.694   2.773   2.324  0.6235 -1.2298 -0.9575
  707SOL    HW2 2121   1.573   2.761   2.437  1.6957  1.0448 -0.8604
  708SOL     OW 2122   0.672   2.216   1.196  0.5843  0.1591 -0.4455
  708SOL    HW1 2123   0.682   2.310   1.225  0.4094 -0.7474  1.7137
  708SOL    HW2 2124   0.767   2.180   1.208  1.1286  1.2346  1.9524
  709SOL     OW 2125   2.668   0.942   1.783  0.2717  0.6912  0.2137
  709SOL    HW1 2126   2.698   0.937   1.882  0.5072  1.5450 -3.4648
  709SOL    HW2 2127   2.657   0.853   1.730  1.1164 -1.6753 -0.7766
  710SOL     OW 2128   2.884   0.451   1.662  0.2988 -0.0852  0.6579
  710SOL    HW1 2129   2.947   0.442   1.583 -0.4177 -1.0483  1.4330
  710SOL    HW2 2130   2.865   0.549   1.680  0.8773  0.8441  1.4396
  711SOL     OW 2131   0.027   2.809   0.926  0.5859 -0.0386  0.1127
  711SOL    HW1 2132   0.081   2.733   0.882 -2.0558 -4.5665  1.2520
  711SOL    HW2 2133   0.082   2.894   0.951 -1.8055  2.5137  0.9086
  712SOL     OW 2134   0.325   2.929   2.424 -0.2672 -0.1863 -0.2480
  712SOL    HW1 2135   0.401   2.982   2.459 -0.4457 -2.3822 -1.4433
  712SOL    HW2 2136   0.370   2.850   2.369  0.8044  0.3864 -1.2558
  713SOL     OW 2137   2.145   0.465   0.404 -0.0618  0.1423 -0.0121
  713SOL    HW1 2138   2.181   0.403   0.470  2.7840  0.6328  1.9935
  713SOL    HW2 2139   2.213   0.539   0.401 -0.4854  0.9178  1.0139
  714SOL     OW 2140   1.751   1.514   0.010 -0.3130 -0.0235 -0.0718
  714SOL    HW1 2141   1.743   1.614   0.034 -0.4889  1.5763 -0.2678
  714SOL    HW2 2142   1.708   1.458   0.081 -1.7154 -0.2366 -1.2751
  715SOL     OW 2143   0.079   0.360   0.366 -0.0571  0.1876 -0.2894
  715SOL    HW1 2144   0.114   0.337   0.273  1.0298  0.9422  1.9373
  715SOL    HW2 2145   0.152   0.342   0.436  2.1458  1.2375  1.1391
  716SOL     OW 2146   0.896   3.079   1.985  0.4256  0.2918  0.6476
  716SOL    HW1 2147   0.994   3.082   1.998 -1.8471 -0.0512  0.8457
  716SOL    HW2 2148   0.839   3.068   2.070 -1.4202  1.2916 -0.7299
  717SOL     OW 2149   0.284   0.530   2.803  0.1967 -0.4661 -0.3499
  717SOL    HW1 2150   0.309   0.455   2.741 -2.1606  0.4518  1.1137
  717SOL    HW2 2151   0.183   0.550   2.785 -2.1292 -1.3326 -2.7516
  718SOL     OW 2152   1.321   0.602   0.349  0.6090 -0.4009  0.0233
  718SOL    HW1 2153   1.380   0.627   0.273  0.0419 -1.6542  2.6963
  718SOL    HW2 2154   1.308   0.675   0.419 -2.2859 -0.3575 -0.5012
  719SOL     OW 2155   2.382   2.001   2.951 -0.6191  0.0992 -0.1034
  719SOL    HW1 2156   2.385   1.968   2.855 -4.2068  0.1870  1.2441
  719SOL    HW2 2157   2.454   1.965   3.009 -0.5442  3.5222  1.0020
  720SOL     OW 2158   1.112   1.000   1.402 -0.6807  0.3689 -0.2660
  720SOL    HW1 2159   1.129   1.101   1.422 -2.5276 -0.2848  2.2336
  720SOL    HW2 2160   1.060   0.962   1.483 -3.3923  0.6345  1.8401
  721SOL     OW 2161   3.095   2.720   1.178 -0.1992  0.3147  0.3672
  721SOL    HW1 2162   0.023   2.766   1.093  2.8492 -1.3673  1.3627
  721SOL    HW2 2163   0.073   2.661   1.203 -1.8216  0.1913 -1.2297
  722SOL     OW 2164   1.114   1.655   2.811  0.0738  0.4498 -0.0836
  722SOL    HW1 2165   1.206   1.695   2.799 -2.1699 -2.4037 -1.9821
  722SOL    HW2 2166   1.042   1.712   2.768 -0.9422 -2.2591  0.9595
  723SOL     OW 2167   1.849   0.170   0.653 -0.3076 -0.0784 -0.2087
  723SOL    HW1 2168   1.877   0.176   0.553  1.9556  0.0290 -0.2613
  723SOL    HW2 2169   1.933   0.177   0.708 -2.6315 -0.3902 -2.0901
  724SOL     OW 2170   0.647   2.185   2.732 -0.0223 -0.7664  0.0449
  724SOL    HW1 2171   0.705   2.219   2.808  0.1233 -2.0930 -0.9734
  724SOL    HW2 2172   0.547   2.205   2.749  0.2777 -1.0106 -1.4631
  725SOL     OW 2173   0.058   0.612   1.176 -0.2303 -0.2349  0.2936
  725SOL    HW1 2174   3.077   0.669   1.182  0.1686  1.4522  1.0015
  725SOL    HW2 2175   0.098   0.622   1.081  1.0777 -0.9729 -1.2510
  726SOL     OW 2176   2.265   0.292   0.641 -0.1787 -0.4508 -0.5941
  726SOL    HW1 2177   2.297   0.202   0.614  0.0781  3.8180  0.9103
  726SOL    HW2 2178   2.211   0.282   0.726 -1.7055 -0.0311  1.0354
  727SOL     OW 2179   1.928   1.142   2.269  0.0379 -0.3017  0.1625
  727SOL    HW1 2180   1.849   1.166   2.212 -0.6384  0.1191  0.5089
  727SOL    HW2 2181   1.922   1.064   2.334  0.4413 -0.1063 -2.5506
  728SOL     OW 2182   1.601   2.916   1.432  0.0197  0.4059 -0.1932
  728SOL    HW1 2183   1.515   2.959   1.460  1.5063  0.4859 -2.3026
  728SOL    HW2 2184   1.579   2.823   1.393 -0.9403  0.1449  1.5381
  729SOL     OW 2185   1.972   0.592   1.873  0.0215 -0.2563  0.3545
  729SOL    HW1 2186   1.932   0.675   1.922  0.0724  2.4699  1.8370
  729SOL    HW2 2187   1.901   0.519   1.861  2.2785  0.3970 -1.3011
  730SOL     OW 2188   0.663   0.824   1.489 -0.0362 -0.1101 -0.2674
  730SOL    HW1 2189   0.641   0.726   1.468 -2.1283 -2.1078  1.3812
  730SOL    HW2 2190   0.709   0.871   1.412 -1.6175 -1.6682  0.3002
  731SOL     OW 2191   0.231   3.048   0.360  0.3406  0.1831 -0.0728
  731SOL    HW1 2192   0.150   3.068   0.415  2.1690 -0.5427 -1.8076
  731SOL    HW2 2193   0.306   0.011   0.368 -0.5133 -0.2901  1.1158
  732SOL     OW 2194   0.769   0.673   0.411 -0.0960  0.4786 -0.3239
  732SOL    HW1 2195   0.726   0.618   0.487  0.4228  1.8869  2.2226
  732SOL    HW2 2196   0.699   0.735   0.372  1.8772  1.4782  0.0034
  733SOL     OW 2197   1.807   1.492   2.586  0.3962 -0.8003  0.3778
  733SOL    HW1 2198   1.730   1.484   2.512 -2.4524  2.1830 -1.1546
  733SOL    HW2 2199   1.862   1.407   2.583 -0.0192  1.2866  0.0008
  734SOL     OW 2200   3.015   2.113   2.011  0.5505 -0.4681  0.4069
  734SOL    HW1 2201   3.048   2.119   1.917  1.6379  0.0567  1.8225
  734SOL    HW2 2202   2.941   2.181   2.025  0.3306  0.4865  2.2930
  735SOL     OW 2203   1.758   0.322   0.966  0.0277  0.5678 -0.2859
  735SOL    HW1 2204   1.835   0.324   0.900  1.0678  0.7595 -1.4613
  735SOL    HW2 2205   1.757   0.239   1.030 -0.2209  0.8000 -1.9681
  736SOL     OW 2206   0.907   1.434   0.105 -0.0135 -0.3576  0.2829
  736SOL    HW1 2207   0.921   1.509   0.041  0.1255 -2.8844 -1.7777
  736SOL    HW2 2208   0.917   1.468   0.201  2.5784  0.7945  0.9545
  737SOL     OW 2209   2.929   0.294   0.406  0.0833  0.4089  0.1642
  737SOL    HW1 2210   3.025   0.320   0.378  1.5788 -2.1719 -2.7316
  737SOL    HW2 2211   2.934   0.242   0.495  0.5956  0.0328  1.7256
  738SOL     OW 2212   0.480   2.328   1.554  0.6783 -0.1574 -0.0582
  738SOL    HW1 2213   0.487   2.400   1.486  0.5553 -0.5633  1.1578
  738SOL    HW2 2214   0.520   2.240   1.523  0.8943 -0.2472 -1.7363
  739SOL     OW 2215   0.938   2.855   2.961  0.3871 -0.2647  0.2757
  739SOL    HW1 2216   0.941   2.896   3.058  0.8748  0.7327 -0.0653
  739SOL    HW2 2217   1.024   2.870   2.910 -2.1788  0.5299  1.8787
  740SOL     OW 2218   1.854   2.795   1.485  0.6831  0.7158 -0.8832
  740SOL    HW1 2219   1.763   2.839   1.471 -0.5309  2.8729  1.1797
  740SOL    HW2 2220   1.846   2.693   1.489  0.0503 -0.4117  2.0062
  741SOL     OW 2221   2.202   0.685   0.701 -0.1297 -0.4699  0.0186
  741SOL    HW1 2222   2.298   0.703   0.665  0.2931  2.2039 -2.4577
  741SOL    HW2 2223   2.136   0.693   0.623 -1.2665  2.3025  3.2295
  742SOL     OW 2224   1.127   2.507   2.377 -0.0626 -0.4139 -0.0295
  742SOL    HW1 2225   1.156   2.409   2.370 -0.8822 -1.6855 -0.0733
  742SOL    HW2 2226   1.086   2.520   2.469  0.9301 -0.9460  1.2683
  743SOL     OW 2227   2.442   1.113   1.850 -0.1567 -0.1697  0.0217
  743SOL    HW1 2228   2.374   1.054   1.803  1.6637 -1.8896 -0.3574
  743SOL    HW2 2229   2.523   1.057   1.864 -0.8431  2.3355  0.1705
  744SOL     OW 2230   2.565   0.224   0.883 -0.1645 -0.0271 -0.5568
  744SOL    HW1 2231   2.539   0.288   0.809  1.5348 -0.4924  0.5114
  744SOL    HW2 2232   2.547   0.273   0.974 -0.5914  3.0568 -0.1631
  745SOL     OW 2233   2.345   1.266   2.032  0.6663  0.3780  0.1371
  745SOL    HW1 2234   2.284   1.337   1.992 -2.1289  0.4603 -1.1729
  745SOL    HW2 2235   2.382   1.206   1.963  1.5815  1.7142  1.7022
  746SOL     OW 2236   1.384   1.605   0.634  0.0575  0.0662 -0.0129
  746SOL    HW1 2237   1.439   1.662   0.697 -2.4633 -1.1173 -0.4391
  746SOL    HW2 2238   1.285   1.612   0.654  1.8612 -0.5919 -1.0972
  747SOL     OW 2239   1.686   1.854   1.198  0.2363  0.2586  0.1193
  747SOL    HW1 2240   1.597   1.892   1.178  0.1306  1.9970  1.9745
  747SOL    HW2 2241   1.674   1.779   1.266  0.2078 -2.0460 -1.4777
  748SOL     OW 2242   0.084   2.707   3.076 -0.3795 -0.2244  0.4471
  748SOL    HW1 2243   0.065   2.786   0.038  0.6745 -0.7323  0.3026
  748SOL    HW2 2244   0.168   2.716   3.020 -1.2071  0.3290 -0.4617
  749SOL     OW 2245   0.152   1.230   2.442  0.0775 -0.7482  0.6773
  749SOL    HW1 2246   0.189   1.165   2.377  0.7933  1.9537 -0.0280
  749SOL    HW2 2247   0.065   1.206   2.485  4.5294 -0.7746  0.6103
  750SOL     OW 2248   1.406   3.012   2.059  0.1695 -0.0814 -0.0298
  750SOL    HW1 2249   1.477   3.025   2.127  0.9398 -0.5187 -0.9412
  750SOL    HW2 2250   1.439   3.061   1.970  2.0049  0.7543 -3.5138
  751SOL     OW 2251   2.641   0.685   0.256  0.4974  0.1206  0.0871
  751SOL    HW1 2252   2.662   0.647   0.159 -0.6237 -0.3274 -2.6280
  751SOL    HW2 2253   2.696   0.636   0.329 -1.6994  2.3494  0.1329
  752SOL     OW 2254   0.318   2.138   0.738  0.0582 -0.0073 -0.2603
  752SOL    HW1 2255   0.321   2.139   0.638  0.8375  1.0199 -1.2819
  752SOL    HW2 2256   0.265   2.060   0.779 -1.6578 -1.3326  2.0635
  753SOL     OW 2257   0.970   2.692   1.150 -0.1539  0.0793 -0.3828
  753SOL    HW1 2258   1.065   2.676   1.159 -1.5578  0.5603 -0.2641
  753SOL    HW2 2259   0.927   2.666   1.060  0.3390  1.2155  1.2634
  754SOL     OW 2260   0.363   3.074   2.135  0.3301 -0.0701 -0.1426
  754SOL    HW1 2261   0.362   3.002   2.209  0.1435  0.3843  2.4268
  754SOL    HW2 2262   0.348   0.062   2.180  0.5476 -1.2967  0.5524
  755SOL     OW 2263   1.870   1.131   0.324 -0.1553 -0.6888  0.3829
  755SOL    HW1 2264   1.819   1.195   0.389 -0.6238  1.0049 -1.5110
  755SOL    HW2 2265   1.963   1.100   0.350  0.2349  0.2386 -1.2626
  756SOL     OW 2266   2.228   2.388   2.800 -0.1710  0.6736 -0.0217
  756SOL    HW1 2267   2.269   2.299   2.765  2.3227 -1.8039  0.2275
  756SOL    HW2 2268   2.268   2.409   2.890 -2.8712  0.3558 -2.5838
  757SOL     OW 2269   1.626   0.714   0.626  0.6013 -0.3898  0.5992
  757SOL    HW1 2270   1.624   0.739   0.522  1.4767  1.5290 -1.5390
  757SOL    HW2 2271   1.533   0.681   0.646  1.9426  1.6820 -1.4571
  758SOL     OW 2272   2.233   0.434   1.236  0.1172  0.0014  0.2916
  758SOL    HW1 2273   2.151   0.377   1.238  2.2585  1.2564  1.1088
  758SOL    HW2 2274   2.231   0.506   1.164 -0.3500 -0.0469 -0.9533
  759SOL     OW 2275   2.794   0.445   1.095  0.1734  0.0149 -0.0283
  759SOL    HW1 2276   2.779   0.380   1.176 -0.8924  0.8233  0.3601
  759SOL    HW2 2277   2.703   0.461   1.047 -3.1730  1.3700 -2.6284
  760SOL     OW 2278   2.380   1.314   1.246  0.1032  0.6645  0.6270
  760SOL    HW1 2279   2.294   1.360   1.260  0.7809 -0.8358 -1.3675
  760SOL    HW2 2280   2.399   1.235   1.315  0.5675 -0.3850  1.9677
  761SOL     OW 2281   0.414   0.463   0.539 -0.3502 -0.3214  0.1491
  761SOL    HW1 2282   0.507   0.459   0.579 -1.9355  2.0725  2.6089
  761SOL    HW2 2283   0.384   0.374   0.505  1.1214  2.7641 -1.1740
  762SOL     OW 2284   1.051   1.941   1.188  0.1365  0.2169 -0.3521
  762SOL    HW1 2285   1.095   1.920   1.101  0.2849  2.1096 -1.8887
  762SOL    HW2 2286   0.967   1.884   1.201  1.8193 -0.6682 -0.4445
  763SOL     OW 2287   1.357   1.161   1.691 -0.2553 -0.1968 -0.3345
  763SOL    HW1 2288   1.401   1.232   1.747 -1.8324  0.3271 -1.9743
  763SOL    HW2 2289   1.422   1.113   1.631  1.0180 -0.8455  1.2853
  764SOL     OW 2290   0.081   1.929   2.588 -0.6840  0.0721 -0.3211
  764SOL    HW1 2291   0.025   1.917   2.677 -1.9346 -0.6072  3.2418
  764SOL    HW2 2292   0.062   1.848   2.528 -0.4408 -1.9566  0.1437
  765SOL     OW 2293   1.315   2.610   1.131  0.3871  0.1956  0.3474
  765SOL    HW1 2294   1.402   2.626   1.178  1.0637  0.4680 -1.9957
  765SOL    HW2 2295   1.320   2.596   1.029 -1.6147 -0.5733 -0.1922
  766SOL     OW 2296   2.841   2.269   2.383  0.3271 -0.2743 -0.1173
  766SOL    HW1 2297   2.773   2.320   2.447  0.7285 -0.6200  0.4101
  766SOL    HW2 2298   2.869   2.180   2.425 -1.6577 -0.0922 -2.2157
  767SOL     OW 2299   1.040   1.133   2.640 -0.1307 -0.2710  0.3626
  767SOL    HW1 2300   0.983   1.165   2.716  0.9631 -1.0279 -0.1544
  767SOL    HW2 2301   1.119   1.088   2.676 -0.0479  1.7703 -4.4670
  768SOL     OW 2302   1.258   2.044   2.876 -0.0571  0.4684  0.1896
  768SOL    HW1 2303   1.335   1.984   2.858  0.3764  0.8071 -1.3061
  768SOL    HW2 2304   1.266   2.086   2.970 -1.0108 -0.8276  0.9078
  769SOL     OW 2305   0.394   2.302   0.963 -0.8337  0.1367  0.0454
  769SOL    HW1 2306   0.406   2.219   1.027  1.3219 -1.2263  0.4618
  769SOL    HW2 2307   0.381   2.263   0.866 -0.5913 -2.2407 -3.9869
  770SOL     OW 2308   1.446   1.118   2.496  0.5798 -0.2930 -0.3099
  770SOL    HW1 2309   1.452   1.105   2.596  0.4958 -0.1321 -1.5813
  770SOL    HW2 2310   1.381   1.191   2.464  0.4908  0.0768 -0.8315
  771SOL     OW 2311   0.036   2.817   2.157 -0.3079 -0.0375  0.3405
  771SOL    HW1 2312   0.110   2.744   2.159  0.2165  0.3274  0.7594
  771SOL    HW2 2313   3.042   2.783   2.180 -2.6853 -1.5440 -2.3743
  772SOL     OW 2314   2.230   2.656   1.950  0.6542  0.3148  0.3651
  772SOL    HW1 2315   2.214   2.736   2.010  1.8198  0.5255 -0.4267
  772SOL    HW2 2316   2.316   2.657   1.902 -1.5833 -2.2472  0.3576
  773SOL     OW 2317   0.752   1.969   1.649  0.5068 -0.0302 -0.2442
  773SOL    HW1 2318   0.813   2.027   1.589  2.8959 -3.0378 -1.5296
  773SOL    HW2 2319   0.802   1.940   1.734  1.7821  0.3126  0.3488
  774SOL     OW 2320   1.067   0.229   1.805 -0.2488  0.5378 -0.5317
  774SOL    HW1 2321   1.081   0.297   1.881 -0.7012  0.2448 -0.6085
  774SOL    HW2 2322   0.971   0.205   1.793  0.8128 -1.4701 -0.8378
  775SOL     OW 2323   1.751   3.019   2.948  0.0330 -0.0880 -0.6081
  775SOL    HW1 2324   1.775   0.014   2.932 -3.5702 -1.4958  0.5135
  775SOL    HW2 2325   1.789   2.953   2.876  0.8223  0.1635  0.1658
  776SOL     OW 2326   2.851   0.362   1.996  0.4808  0.7046  0.2696
  776SOL    HW1 2327   2.849   0.454   1.948 -3.2565 -1.4860 -0.5399
  776SOL    HW2 2328   2.881   0.284   1.934  0.1425 -3.0382 -0.3863
  777SOL     OW 2329   2.431   2.254   2.200 -0.1333 -0.2398  0.9973
  777SOL    HW1 2330   2.499   2.260   2.124 -0.3725  2.3432 -2.4765
  777SOL    HW2 2331   2.335   2.264   2.162  1.9052 -0.1762  1.2793
  778SOL     OW 2332   1.803   0.725   2.255 -0.2611  0.3542  0.1051
  778SOL    HW1 2333   1.756   0.662   2.186 -1.7159 -0.5453 -2.2205
  778SOL    HW2 2334   1.726   0.780   2.290  1.6728 -0.2683 -1.0625
  779SOL     OW 2335   2.525   0.429   0.693 -0.2877 -0.0548 -0.3166
  779SOL    HW1 2336   2.477   0.362   0.635  2.7129  0.5361  0.5764
  779SOL    HW2 2337   2.497   0.522   0.670 -0.7392 -4.2362  2.0845
  780SOL     OW 2338   2.324   0.206   3.083 -0.5237 -0.1172  0.1053
  780SOL    HW1 2339   2.225   0.174   3.082 -1.8557 -2.6290 -2.0339
  780SOL    HW2 2340   2.393   0.144   3.043 -0.6731 -0.8213  1.4055
  781SOL     OW 2341   0.252   2.271   1.369 -0.1295  0.2031  0.4747
  781SOL    HW1 2342   0.345   2.232   1.357  1.4044  0.9843 -0.6405
  781SOL    HW2 2343   0.190   2.214   1.424 -0.1121  1.5171  0.6120
  782SOL     OW 2344   2.368   2.425   3.031  0.0356  0.0344 -0.1840
  782SOL    HW1 2345   2.450   2.475   2.985 -3.2786  1.8659 -0.1996
  782SOL    HW2 2346   2.400   2.366   0.006 -0.6150 -1.1800  0.4314
  783SOL     OW 2347   0.448   1.727   1.396  0.0645 -0.3055 -0.1707
  783SOL    HW1 2348   0.403   1.632   1.385 -1.3048 -4.0020  0.8559
  783SOL    HW2 2349   0.521   1.714   1.460  1.5889 -2.7735 -2.7188
  784SOL     OW 2350   1.479   0.640   2.773 -0.1330  0.4199 -0.1542
  784SOL    HW1 2351   1.583   0.636   2.771  1.3787 -0.7059  1.1086
  784SOL    HW2 2352   1.444   0.711   2.836 -0.0347  2.3089  0.5438
  785SOL     OW 2353   2.482   3.064   0.789  0.3733 -0.0122 -0.1655
  785SOL    HW1 2354   2.407   3.016   0.839  1.4494  1.5471  1.8478
  785SOL    HW2 2355   2.514   0.036   0.850 -1.3856 -0.4459  0.1199
  786SOL     OW 2356   1.195   2.008   1.853 -0.0725 -0.0372 -0.0835
  786SOL    HW1 2357   1.116   1.943   1.841  1.1850 -0.8542 -1.4768
  786SOL    HW2 2358   1.169   2.083   1.917  1.5323 -0.3283 -0.4535
  787SOL     OW 2359   1.297   0.818   1.244  0.3838 -0.1757  0.1466
  787SOL    HW1 2360   1.230   0.874   1.294 -0.1072 -1.0589  0.7882
  787SOL    HW2 2361   1.332   0.868   1.165 -0.3106 -1.3906  3.2221
  788SOL     OW 2362   0.027   0.615   0.422  0.5020 -0.1131  0.2341
  788SOL    HW1 2363   0.116   0.643   0.466 -0.3724 -0.6470  1.6453
  788SOL    HW2 2364   0.019   0.515   0.398 -0.5152  0.2159 -0.7995
  789SOL     OW 2365   0.203   1.984   1.319 -0.1853 -0.0686 -0.1839
  789SOL    HW1 2366   0.269   2.053   1.277 -3.2419  1.5845 -0.2705
  789SOL    HW2 2367   0.245   1.954   1.409  1.3585 -0.5818 -1.4436
  790SOL     OW 2368   0.891   0.830   2.310 -0.7943 -0.3873 -0.3084
  790SOL    HW1 2369   0.985   0.818   2.357  0.0841  0.1124  0.3063
  790SOL    HW2 2370   0.836   0.748   2.323 -0.7146  2.1186  0.3973
  791SOL     OW 2371   1.780   0.511   0.733  0.2383  0.1301  0.1823
  791SOL    HW1 2372   1.748   0.591   0.680 -0.3138 -1.7126 -0.0687
  791SOL    HW2 2373   1.706   0.483   0.797 -1.8103 -1.1895  2.1000
  792SOL     OW 2374   1.376   2.641   2.275  0.0092  0.6524 -0.3093
  792SOL    HW1 2375   1.376   2.702   2.192  0.2919  1.7685 -1.4608
  792SOL    HW2 2376   1.282   2.604   2.291 -2.0983 -1.3644  1.8173
  793SOL     OW 2377   1.231   0.819   0.500  0.3753 -0.1837 -0.0011
  793SOL    HW1 2378   1.276   0.910   0.520  0.6573  0.0879 -2.0284
  793SOL    HW2 2379   1.132   0.820   0.531 -2.4009 -0.8150  2.3816
  794SOL     OW 2380   0.478   0.990   2.068 -0.2695  0.0036 -0.2299
  794SOL    HW1 2381   0.410   1.053   2.113  0.4259 -4.8257 -1.5099
  794SOL    HW2 2382   0.511   1.039   1.988  1.0887 -0.3479  1.6446
  795SOL     OW 2383   0.378   1.920   2.446 -0.4238  0.4799  0.0301
  795SOL    HW1 2384   0.437   1.992   2.394  0.6767  1.7637 -0.6564
  795SOL    HW2 2385   0.384   1.932   2.549 -1.0734  0.1922  2.0544
  796SOL     OW 2386   2.517   0.821   2.095 -0.0326 -0.4587 -0.3393
  796SOL    HW1 2387   2.440   0.869   2.141  3.7718  0.9295  1.0519
  796SOL    HW2 2388   2.587   0.890   2.077 -2.9978 -2.8341  0.4979
  797SOL     OW 2389   2.855   2.257   2.875 -0.3292  0.6077  0.8249
  797SOL    HW1 2390   2.848   2.342   2.824  2.0359 -1.5761  1.1007
  797SOL    HW2 2391   2.849   2.282   2.976 -1.6170  1.3214  0.8348
  798SOL     OW 2392   0.344   2.407   2.252  0.0969  0.4195  0.0735
  798SOL    HW1 2393   0.396   2.365   2.172 -1.1719 -1.0190 -1.2988
  798SOL    HW2 2394   0.275   2.337   2.286  1.8968  1.9196 -1.6563
  799SOL     OW 2395   0.401   2.220   2.814  0.2697  0.2695 -0.0455
  799SOL    HW1 2396   0.377   2.310   2.865 -0.0433  1.9247 -0.4584
  799SOL    HW2 2397   0.391   2.142   2.877  1.2749 -0.5833  0.5629
  800SOL     OW 2398   0.768   2.292   2.975  0.0530 -0.6326  0.1884
  800SOL    HW1 2399   0.684   2.342   3.009 -2.4661  1.5581  1.0746
  800SOL    HW2 2400   0.791   2.228   3.052 -0.6795 -0.2776  0.1000
  801SOL     OW 2401   1.718   1.452   1.242 -0.1759  0.4597 -0.1340
  801SOL    HW1 2402   1.795   1.508   1.277  0.1123 -0.8145  1.9169
  801SOL    HW2 2403   1.672   1.400   1.312 -0.4774 -1.7595 -4.7986
  802SOL     OW 2404   2.933   1.078   0.652  0.0928  0.3793 -0.3953
  802SOL    HW1 2405   2.917   1.096   0.553 -1.7576 -0.4634  0.1870
  802SOL    HW2 2406   2.873   1.007   0.690  0.0870  0.5756  0.0692
  803SOL     OW 2407   1.234   1.935   2.355 -0.2006 -0.2788 -0.1546
  803SOL    HW1 2408   1.149   1.941   2.406 -1.4541  2.1212 -1.0789
  803SOL    HW2 2409   1.297   2.011   2.386  2.8529  1.1299  1.5521
  804SOL     OW 2410   1.619   1.335   0.205  0.0985 -0.3990  0.4587
  804SOL    HW1 2411   1.669   1.346   0.293  0.5964 -0.7418  0.2736
  804SOL    HW2 2412   1.622   1.240   0.168  1.7410  1.0060 -1.9586
  805SOL     OW 2413   2.722   1.559   0.008  0.1606 -0.1902 -0.1873
  805SOL    HW1 2414   2.754   1.497   0.084 -2.0712 -0.0695  3.0685
  805SOL    HW2 2415   2.633   1.528   3.074  1.9258  0.9352  2.6691
  806SOL     OW 2416   0.506   3.080   0.684  0.3129 -0.0239  0.3039
  806SOL    HW1 2417   0.552   0.018   0.760 -2.7078 -1.3895 -1.2067
  806SOL    HW2 2418   0.511   2.981   0.676 -1.1958 -1.5802 -1.3491
  807SOL     OW 2419   2.038   1.772   2.824  0.4619  0.0368 -0.7578
  807SOL    HW1 2420   2.004   1.838   2.890  2.1583 -2.5837  0.2129
  807SOL    HW2 2421   2.096   1.702   2.875 -0.9265 -1.9912  1.8690
  808SOL     OW 2422   0.594   1.558   1.066  0.3640  0.0715  0.6265
  808SOL    HW1 2423   0.491   1.575   1.069 -2.9494 -0.7249 -3.1001
  808SOL    HW2 2424   0.631   1.529   1.155 -2.5274  1.5951 -1.6679
  809SOL     OW 2425   2.433   0.677   0.575 -0.0354  0.0021  0.6177
  809SOL    HW1 2426   2.453   0.776   0.567 -0.5362  1.0512 -0.5786
  809SOL    HW2 2427   2.433   0.640   0.480  4.0670 -0.4090 -1.7816
  810SOL     OW 2428   0.704   1.103   0.437 -0.5720 -0.0722  0.2516
  810SOL    HW1 2429   0.724   1.198   0.459  1.8336 -1.9243 -1.7625
  810SOL    HW2 2430   0.739   1.040   0.507  0.5212  2.4470 -2.8936
  811SOL     OW 2431   1.553   2.671   1.333 -0.1849  0.1152 -0.5643
  811SOL    HW1 2432   1.633   2.625   1.283 -2.4084  0.1476  1.9678
  811SOL    HW2 2433   1.507   2.604   1.394 -0.3436 -0.6054  3.8584
  812SOL     OW 2434   1.163   2.547   1.714 -0.0378 -0.2205  0.5833
  812SOL    HW1 2435   1.135   2.596   1.795 -2.7995 -0.1797 -1.5253
  812SOL    HW2 2436   1.106   2.570   1.633  0.9468  0.4607 -2.3805
  813SOL     OW 2437   0.926   2.875   1.777 -0.7455 -0.2432 -0.4412
  813SOL    HW1 2438   0.870   2.939   1.837  0.2893 -2.2411 -1.1624
  813SOL    HW2 2439   1.002   2.932   1.735  0.2005  2.5626  1.0824
  814SOL     OW 2440   1.007   2.517   2.622  0.3075 -0.0660  0.0329
  814SOL    HW1 2441   0.930   2.489   2.557 -0.4801 -0.8022  1.8900
  814SOL    HW2 2442   1.014   2.464   2.708  1.1913  1.2238 -0.2713
  815SOL     OW 2443   0.680   0.326   2.438  0.4379  0.1107 -0.0873
  815SOL    HW1 2444   0.739   0.348   2.359  0.8173 -0.4194  2.8911
  815SOL    HW2 2445   0.679   0.406   2.498  0.5472 -2.4275 -3.2410
  816SOL     OW 2446   2.253   3.091   2.863  0.5844 -0.7135  0.3726
  816SOL    HW1 2447   2.198   3.051   2.785  0.0362  1.1945 -0.1138
  816SOL    HW2 2448   2.196   0.046   2.923 -0.2719 -0.7060 -0.8311
  817SOL     OW 2449   2.164   0.175   2.027  0.1347  0.1034  0.0695
  817SOL    HW1 2450   2.166   0.201   1.929 -0.5772 -0.1602 -1.2227
  817SOL    HW2 2451   2.148   0.255   2.090 -1.4235  0.7523 -1.8844
  818SOL     OW 2452   1.473   0.683   0.144 -1.1370 -0.2248  0.7036
  818SOL    HW1 2453   1.407   0.743   0.089 -2.1277  0.3488 -1.8332
  818SOL    HW2 2454   1.536   0.628   0.088 -2.2565 -0.5852 -0.3480
  819SOL     OW 2455   2.267   1.687   2.494  0.0103 -0.2874  0.3566
  819SOL    HW1 2456   2.185   1.635   2.532 -0.7556 -1.7443 -1.2911
  819SOL    HW2 2457   2.275   1.776   2.536 -0.7116 -2.8198  0.4713
  820SOL     OW 2458   0.073   1.668   0.115  0.2147 -0.6387 -0.2831
  820SOL    HW1 2459   0.030   1.662   0.020  0.1533  2.2907  0.8038
  820SOL    HW2 2460   0.176   1.656   0.120  1.6516  0.2010  0.2408
  821SOL     OW 2461   0.397   2.879   1.062 -0.2458  0.2928  0.1564
  821SOL    HW1 2462   0.319   2.938   1.077  5.0703  0.4762  1.1666
  821SOL    HW2 2463   0.365   2.800   0.997 -2.2912 -4.1882 -1.6055
  822SOL     OW 2464   2.876   2.510   2.718  0.5130 -0.2459  0.4354
  822SOL    HW1 2465   2.800   2.572   2.701  0.7676 -1.1537  1.5343
  822SOL    HW2 2466   2.953   2.551   2.763 -2.3466 -2.9428 -1.5158
  823SOL     OW 2467   1.238   0.188   2.153  0.4115 -0.2072  0.8272
  823SOL    HW1 2468   1.215   0.087   2.132 -1.8216 -1.2632 -0.3696
  823SOL    HW2 2469   1.338   0.209   2.149 -2.1317  0.1561 -1.4793
  824SOL     OW 2470   2.782   2.234   2.129  0.3120 -0.3390 -0.1524
  824SOL    HW1 2471   2.808   2.237   2.230 -1.0513 -0.7582  1.4400
  824SOL    HW2 2472   2.696   2.289   2.118 -1.2070 -1.8962  0.2725
  825SOL     OW 2473   2.901   2.007   2.502 -0.2461  0.3556  0.7434
  825SOL    HW1 2474   2.803   1.996   2.461 -4.1537 -3.0176 -2.4728
  825SOL    HW2 2475   2.961   2.020   2.425 -3.1887 -1.9050 -0.6035
  826SOL     OW 2476   2.322   1.095   2.496  0.0904 -0.1532  0.0294
  826SOL    HW1 2477   2.283   1.001   2.487 -3.8495  3.9484  2.5203
  826SOL    HW2 2478   2.293   1.149   2.418 -0.1069 -0.6375  2.8653
  827SOL     OW 2479   2.465   2.190   1.250 -0.1641 -0.0933 -0.0347
  827SOL    HW1 2480   2.406   2.166   1.172  2.3096  0.3995 -0.7720
  827SOL    HW2 2481   2.407   2.227   1.324 -0.0792 -1.9738 -0.3232
  828SOL     OW 2482   0.076   0.183   1.601  0.2328  0.0400 -0.0145
  828SOL    HW1 2483   0.116   0.096   1.573 -1.6435  0.4646  0.7711
  828SOL    HW2 2484   0.135   0.240   1.662 -2.1404 -0.3367 -0.6545
  829SOL     OW 2485   1.209   2.245   2.419 -0.1429 -0.5824  0.2537
  829SOL    HW1 2486   1.266   2.189   2.486 -0.2452 -0.8159  0.9305
  829SOL    HW2 2487   1.111   2.212   2.420 -2.1664 -0.8525 -1.0464
  830SOL     OW 2488   1.004   0.563   0.749 -0.1145 -0.0872 -0.1364
  830SOL    HW1 2489   0.960   0.480   0.712  1.7666 -0.6216 -0.6521
  830SOL    HW2 2490   1.011   0.640   0.683  3.5558 -1.4947  0.2638
  831SOL     OW 2491   2.828   1.469   2.838 -0.2283  0.1553  0.0348
  831SOL    HW1 2492   2.775   1.494   2.921  0.8249  0.2297  0.1590
  831SOL    HW2 2493   2.777   1.426   2.767  0.7837 -0.8763  0.8540
  832SOL     OW 2494   1.738   2.212   2.188  0.0508  0.3819  0.4487
  832SOL    HW1 2495   1.644   2.197   2.157  1.7760  0.6101 -1.0842
  832SOL    HW2 2496   1.796   2.270   2.126  1.1467 -1.7830 -0.2008
  833SOL     OW 2497   0.844   0.333   2.209  0.0565 -0.1357  0.4722
  833SOL    HW1 2498   0.933   0.312   2.264  1.8603  0.5727  1.3351
  833SOL    HW2 2499   0.810   0.248   2.166  0.0416  2.1712 -0.4310
  834SOL     OW 2500   0.347   0.650   1.209  0.2615 -0.3272 -0.9376
  834SOL    HW1 2501   0.340   0.706   1.297 -1.7897  1.3878  2.9046
  834SOL    HW2 2502   0.257   0.610   1.185 -2.5162 -0.2149 -1.5929
  835SOL     OW 2503   2.663   0.562   0.008  0.0635  0.1450  0.0515
  835SOL    HW1 2504   2.601   0.557   3.027 -2.4508  0.6281 -0.5548
  835SOL    HW2 2505   2.757   0.527   3.091 -0.9630  0.9137 -1.2938
  836SOL     OW 2506   1.389   1.969   0.235  0.0553  0.5761 -0.2172
  836SOL    HW1 2507   1.457   1.996   0.303  0.2070 -1.7907 -0.3461
  836SOL    HW2 2508   1.398   1.870   0.214 -5.1517 -0.3088 -2.0345
  837SOL     OW 2509   1.569   1.769   0.833  0.6029 -0.2116 -0.2972
  837SOL    HW1 2510   1.665   1.763   0.787  2.4931  0.1142 -3.2326
  837SOL    HW2 2511   1.568   1.736   0.931  1.0288  1.2045 -0.5263
  838SOL     OW 2512   1.139   1.002   2.174  0.2289 -0.3981 -0.0886
  838SOL    HW1 2513   1.141   1.052   2.085 -0.9540  0.2531 -0.0949
  838SOL    HW2 2514   1.112   1.065   2.251 -1.9669  1.6039  0.3212
  839SOL     OW 2515   0.896   1.757   2.693  0.4819 -0.1642 -0.0592
  839SOL    HW1 2516   0.818   1.813   2.729 -4.5451  2.1574  0.2519
  839SOL    HW2 2517   0.864   1.658   2.687 -1.2338  1.1653  2.2356
  840SOL     OW 2518   0.778   2.319   0.391 -0.5625 -0.3334  0.2204
  840SOL    HW1 2519   0.724   2.393   0.344 -0.4663  2.1159 -1.5576
  840SOL    HW2 2520   0.739   2.320   0.487 -1.2632  0.1375  0.7188
  841SOL     OW 2521   1.970   2.636   0.031 -0.1434  0.0809  0.4900
  841SOL    HW1 2522   1.915   2.725   0.039  0.2785  2.4178  0.2828
  841SOL    HW2 2523   1.918   2.571   3.075  5.7593 -1.0356  0.4217
  842SOL     OW 2524   0.464   0.714   2.893 -0.1241 -0.1582  0.5810
  842SOL    HW1 2525   0.529   0.740   2.815 -1.4635 -0.2874 -0.0952
  842SOL    HW2 2526   0.375   0.679   2.853  0.5215  1.6548 -0.1824
  843SOL     OW 2527   1.152   0.375   0.871  0.0527  0.9963  0.0120
  843SOL    HW1 2528   1.087   0.448   0.836 -1.1347 -0.5797  0.2592
  843SOL    HW2 2529   1.159   0.383   0.973  3.0141  1.7914  3.9079
  844SOL     OW 2530   2.822   0.083   2.579  0.3734  0.0454  0.4720
  844SOL    HW1 2531   2.745   0.087   2.646 -1.1238  0.8302 -0.2571
  844SOL    HW2 2532   2.835   3.088   2.546 -1.8611 -0.9747 -0.3590
  845SOL     OW 2533   2.688   2.008   1.319 -0.0893 -0.6077 -0.2751
  845SOL    HW1 2534   2.599   2.048   1.303  0.1239  0.4770 -1.3524
  845SOL    HW2 2535   2.711   1.997   1.415  1.0575  1.0521  0.0124
  846SOL     OW 2536   2.658   1.671   2.234 -0.2582 -0.2046  0.5883
  846SOL    HW1 2537   2.615   1.623   2.315  1.5783 -3.9288 -2.7352
  846SOL    HW2 2538   2.756   1.644   2.222 -2.3355 -1.9177  0.1019
  847SOL     OW 2539   1.171   0.723   1.650 -0.0052  0.4744 -0.7645
  847SOL    HW1 2540   1.113   0.767   1.718  3.2399 -3.2261 -2.0796
  847SOL    HW2 2541   1.114   0.660   1.594  1.1803  1.7596 -0.2507
  848SOL     OW 2542   2.784   2.880   0.058 -0.5828  0.6929 -0.2926
  848SOL    HW1 2543   2.724   2.810   0.106 -1.7085 -0.3319 -3.2699
  848SOL    HW2 2544   2.822   2.950   0.116 -0.6519 -1.7622  0.7956
  849SOL     OW 2545   0.532   3.051   0.168 -0.2114 -0.3724  0.2666
  849SOL    HW1 2546   0.524   2.987   0.246 -0.5984  4.4225  0.1010
  849SOL    HW2 2547   0.548   0.043   0.208  0.4578 -1.7759  1.5904
  850SOL     OW 2548   1.494   2.923   0.956 -0.3198  0.7561  0.1851
  850SOL    HW1 2549   1.494   2.954   0.858  3.6862  0.0412 -2.7999
  850SOL    HW2 2550   1.583   2.875   0.985  1.4974  0.4726 -1.4589
  851SOL     OW 2551   2.576   0.304   2.011 -0.3183 -0.0515  0.2096
  851SOL    HW1 2552   2.666   0.350   1.994  0.3664  1.8465 -0.8076
  851SOL    HW2 2553   2.497   0.365   1.995 -0.1939 -3.0420  2.4743
  852SOL     OW 2554   1.988   0.709   2.457  0.0887 -0.0169 -0.2555
  852SOL    HW1 2555   1.927   0.723   2.373 -2.1897 -0.6879 -3.8131
  852SOL    HW2 2556   2.063   0.639   2.450 -0.5008 -0.5851  0.7240
  853SOL     OW 2557   2.889   2.968   0.425 -0.5272  0.5871 -0.1302
  853SOL    HW1 2558   2.827   2.915   0.480 -0.4274  0.8928 -2.5776
  853SOL    HW2 2559   2.834   3.029   0.365 -2.9533 -1.1946  3.3177
  854SOL     OW 2560   2.452   1.356   2.260  0.2513  0.1932 -0.0702
  854SOL    HW1 2561   2.544   1.319   2.284  1.0514 -0.4205 -0.5946
  854SOL    HW2 2562   2.413   1.309   2.175 -1.9121 -3.2385  2.1472
  855SOL     OW 2563   0.853   2.827   0.325 -0.2945 -0.3979  0.3456
  855SOL    HW1 2564   0.756   2.803   0.346 -1.8479  0.9223  3.3240
  855SOL    HW2 2565   0.915   2.745   0.321 -0.2046  1.7872 -0.8641
  856SOL     OW 2566   2.966   0.037   2.844 -0.0560 -0.4507  0.0600
  856SOL    HW1 2567   2.906   0.083   2.775  0.7790 -1.1632  0.5560
  856SOL    HW2 2568   2.921   3.047   2.872 -0.4716  0.4277  0.5100
  857SOL     OW 2569   1.326   2.762   1.567 -0.3618  0.3464 -0.6221
  857SOL    HW1 2570   1.274   2.791   1.483 -0.8648  1.2312 -1.0741
  857SOL    HW2 2571   1.348   2.662   1.565  1.6741 -3.2971  1.5090
  858SOL     OW 2572   2.724   2.396   1.730 -0.2574 -0.1420 -0.4206
  858SOL    HW1 2573   2.779   2.443   1.800 -1.1053 -0.3420 -0.3858
  858SOL    HW2 2574   2.779   2.365   1.649  1.7346  1.1203  0.1438
  859SOL     OW 2575   1.640   2.130   1.807  0.3916 -0.2272 -0.2008
  859SOL    HW1 2576   1.589   2.172   1.732 -1.8597  0.5134 -0.7443
  859SOL    HW2 2577   1.590   2.160   1.890  0.8483 -1.6762  3.2126
  860SOL     OW 2578   2.316   2.833   0.141 -0.1891  0.3729  0.1226
  860SOL    HW1 2579   2.303   2.765   0.065 -1.2928 -2.5158  0.2408
  860SOL    HW2 2580   2.236   2.841   0.207 -1.5948  0.6436 -0.5219
  861SOL     OW 2581   2.357   2.652   0.738 -0.4669  0.6230  0.1074
  861SOL    HW1 2582   2.338   2.639   0.636 -3.0422  2.0167  1.2856
  861SOL    HW2 2583   2.455   2.683   0.755  1.1041 -0.3982  1.8691
  862SOL     OW 2584   1.818   0.055   2.606 -0.1150  0.0000 -0.0795
  862SOL    HW1 2585   1.763   3.075   2.617  0.3079  2.8637  0.1669
  862SOL    HW2 2586   1.849   0.073   2.510  1.8879  0.6157 -0.8976
  863SOL     OW 2587   0.194   0.613   0.916  0.5441 -0.0047  0.4989
  863SOL    HW1 2588   0.280   0.669   0.940  2.0843  2.6928  1.4199
  863SOL    HW2 2589   0.123   0.665   0.860 -0.1385  2.5350 -2.0154
  864SOL     OW 2590   0.254   2.647   2.161 -0.0421  0.5566 -0.4113
  864SOL    HW1 2591   0.332   2.707   2.185 -1.6809 -0.0483  0.7861
  864SOL    HW2 2592   0.281   2.556   2.195  1.5655 -0.3459 -0.9158
  865SOL     OW 2593   0.573   1.111   3.003  0.2467 -0.1847 -0.0830
  865SOL    HW1 2594   0.613   1.170   3.076  0.5958  2.8878 -0.7028
  865SOL    HW2 2595   0.525   1.029   3.040 -1.4813 -0.8555 -2.7510
  866SOL     OW 2596   3.083   0.576   0.019 -0.1604 -0.0249  0.4962
  866SOL    HW1 2597   0.077   0.601   0.030 -0.3021 -0.7273 -0.4619
  866SOL    HW2 2598   3.030   0.617   0.093  1.6326 -0.4554 -2.3756
  867SOL     OW 2599   3.023   2.666   2.869  0.0988  0.0785 -0.0176
  867SOL    HW1 2600   3.082   2.664   2.950  0.1533  0.3623 -0.1567
  867SOL    HW2 2601   2.974   2.755   2.860  4.0297  0.5746 -2.8719
  868SOL     OW 2602   1.575   0.158   0.419  0.0746 -0.4216 -0.4856
  868SOL    HW1 2603   1.542   0.254   0.431 -0.1052 -1.8947  0.2751
  868SOL    HW2 2604   1.497   0.094   0.399 -0.8471  1.0247  0.2698
  869SOL     OW 2605   1.828   1.543   0.602 -0.6808 -0.4538  0.2679
  869SOL    HW1 2606   1.807   1.479   0.678 -1.4424  2.0945 -2.3539
  869SOL    HW2 2607   1.827   1.642   0.626 -0.5464  1.4926  2.5591
  870SOL     OW 2608   1.810   1.808   0.710 -0.2120  0.0168  0.8770
  870SOL    HW1 2609   1.840   1.827   0.804  1.1554 -0.0300  0.8499
  870SOL    HW2 2610   1.865   1.865   0.646  0.8282 -1.6063  0.2767
  871SOL     OW 2611   1.120   1.579   1.262 -0.1909  0.3052 -0.3221
  871SOL    HW1 2612   1.089   1.628   1.344 -3.4229 -0.4572 -0.7301
  871SOL    HW2 2613   1.214   1.611   1.238  1.1918  0.3530  0.0750
  872SOL     OW 2614   1.246   1.530   1.660  0.0273 -0.0389  0.0831
  872SOL    HW1 2615   1.189   1.470   1.717 -2.8335 -0.8132 -2.0822
  872SOL    HW2 2616   1.196   1.602   1.608 -1.0395  1.4067  1.8315
  873SOL     OW 2617   0.715   1.512   2.428 -0.4980  0.0937 -0.1310
  873SOL    HW1 2618   0.740   1.507   2.528  1.2631 -0.4738  1.5109
  873SOL    HW2 2619   0.617   1.495   2.421  0.7314 -0.0817 -2.7649
  874SOL     OW 2620   0.636   1.430   1.308  0.0427  0.6749 -0.1991
  874SOL    HW1 2621   0.544   1.450   1.337 -1.6215  1.1268 -0.0844
  874SOL    HW2 2622   0.652   1.330   1.290 -2.3091 -0.6800  1.4509
  875SOL     OW 2623   2.484   3.028   1.189  0.5265  0.2177 -0.5166
  875SOL    HW1 2624   2.414   3.096   1.161  1.6764 -2.8826 -0.1882
  875SOL    HW2 2625   2.491   3.021   1.292  0.6879  0.8489  0.5916
  876SOL     OW 2626   0.864   0.891   3.094  0.6268  0.6030  0.4400
  876SOL    HW1 2627   0.832   0.795   0.011  1.2348 -3.6523  1.5283
  876SOL    HW2 2628   0.832   0.951   0.069  0.5293  0.7453 -0.8450
  877SOL     OW 2629   3.003   0.361   1.405 -0.2427  0.1574  0.6887
  877SOL    HW1 2630   2.988   0.353   1.305 -2.7906 -0.3773 -1.0819
  877SOL    HW2 2631   2.955   0.284   1.454  0.7639  1.7047 -1.6601
  878SOL     OW 2632   1.753   2.203   0.024  0.4709 -0.2585 -1.1095
  878SOL    HW1 2633   1.797   2.281   3.076 -1.4304 -0.4026  0.9774
  878SOL    HW2 2634   1.747   2.123   3.066  1.3459  0.8892 -0.6654
  879SOL     OW 2635   2.358   2.004   1.581  0.4994  0.4349  0.4460
  879SOL    HW1 2636   2.295   2.077   1.552  3.9253 -1.8759  0.1936
  879SOL    HW2 2637   2.416   2.038   1.659  0.3905 -0.6839 -2.4603
  880SOL     OW 2638   0.892   0.034   1.561 -0.4468  0.1903  0.3106
  880SOL    HW1 2639   0.826   0.076   1.621  1.3784  0.0988  1.0241
  880SOL    HW2 2640   0.981   0.017   1.609  2.9448  0.1283 -0.5283
  881SOL     OW 2641   1.010   2.042   2.759  0.7860 -0.5614  0.0189
  881SOL    HW1 2642   0.951   1.971   2.794  0.5668  1.0438 -2.0677
  881SOL    HW2 2643   1.112   2.022   2.785  1.7530 -2.5758  0.3344
  882SOL     OW 2644   2.120   1.014   2.004  0.3141 -0.1836 -0.1222
  882SOL    HW1 2645   2.178   0.951   2.061  1.4950 -0.9704  0.7127
  882SOL    HW2 2646   2.145   1.009   1.907 -0.9620  2.1275  3.0767
  883SOL     OW 2647   1.257   0.580   1.870  0.0061  0.0572 -0.0539
  883SOL    HW1 2648   1.222   0.607   1.781  0.5884 -0.7293  0.5294
  883SOL    HW2 2649   1.187   0.518   1.910  1.2399  0.3779 -0.2883
  884SOL     OW 2650   2.878   0.406   3.085 -0.5761 -0.4582 -0.6435
  884SOL    HW1 2651   2.885   0.331   0.052 -0.2649  2.4296  0.0267
  884SOL    HW2 2652   2.954   0.472   3.098 -0.1983 -1.6798  0.9114
  885SOL     OW 2653   0.637   2.111   0.279 -0.4973 -0.4349  0.1474
  885SOL    HW1 2654   0.690   2.162   0.351  0.4184 -0.8141  0.8382
  885SOL    HW2 2655   0.691   2.114   0.193 -0.3864 -1.4805  1.9555
  886SOL     OW 2656   2.010   1.399   2.813  0.4015  0.1475  0.1181
  886SOL    HW1 2657   2.030   1.394   2.713  3.1365  0.4675  1.0789
  886SOL    HW2 2658   1.925   1.342   2.831 -0.6851 -0.6703  0.8079
  887SOL     OW 2659   1.768   0.489   1.472 -0.2301 -0.3222 -0.1825
  887SOL    HW1 2660   1.719   0.571   1.515 -1.6817  1.1932  0.4364
  887SOL    HW2 2661   1.753   0.503   1.371 -0.3261  1.8112 -0.2797
  888SOL     OW 2662   2.746   1.126   1.606  0.2883  0.0935 -0.2212
  888SOL    HW1 2663   2.654   1.169   1.590 -1.1541  2.8466 -1.3293
  888SOL    HW2 2664   2.739   1.054   1.678 -1.9906  3.5980  0.8408
  889SOL     OW 2665   2.787   2.810   1.000  0.5460  0.3119  0.0708
  889SOL    HW1 2666   2.863   2.859   0.959 -3.4969  1.9386  1.6443
  889SOL    HW2 2667   2.814   2.711   1.010 -3.1563  0.0213 -1.0536
  890SOL     OW 2668   0.076   2.692   2.597 -0.0198  0.7890 -0.3011
  890SOL    HW1 2669   0.152   2.642   2.550 -1.4012  0.5702 -1.2200
  890SOL    HW2 2670   0.033   2.641   2.673 -1.0974 -0.3753 -1.0890
  891SOL     OW 2671   0.723   1.899   3.055  0.2749  0.3918 -0.4576
  891SOL    HW1 2672   0.733   1.903   2.954 -0.1802 -0.2106  0.2252
  891SOL    HW2 2673   0.721   1.804   3.091 -1.0898 -1.6836  0.0518
  892SOL     OW 2674   0.173   2.356   1.119  0.1083  0.2009 -0.1246
  892SOL    HW1 2675   0.256   2.331   1.065  2.6925  0.1688 -1.3011
  892SOL    HW2 2676   0.181   2.324   1.214  2.0124 -0.3322  0.6038
  893SOL     OW 2677   0.481   3.101   1.333 -0.0870 -0.0253 -0.2832
  893SOL    HW1 2678   0.517   0.073   1.398  3.1221  0.0485  1.8807
  893SOL    HW2 2679   0.412   0.027   1.266  1.3272 -0.1821 -0.4404
  894SOL     OW 2680   2.764   1.227   0.957 -0.1053 -0.5175 -0.6507
  894SOL    HW1 2681   2.744   1.205   0.859  0.2155 -0.5784 -0.3911
  894SOL    HW2 2682   2.684   1.283   0.997 -1.2915 -0.9146  2.6981
  895SOL     OW 2683   2.572   2.580   1.584 -0.5750 -0.4715  0.5140
  895SOL    HW1 2684   2.604   2.500   1.641  1.0383 -1.7835  2.1087
  895SOL    HW2 2685   2.563   2.542   1.491 -1.0034  1.2001  1.6869
  896SOL     OW 2686   1.080   0.456   1.632  0.1350  0.2306 -0.2502
  896SOL    HW1 2687   1.087   0.368   1.687 -0.4821 -0.0228 -0.1958
  896SOL    HW2 2688   0.992   0.507   1.653  0.2515  3.5299  2.2654
  897SOL     OW 2689   0.683   1.717   1.559 -0.1451  0.0770 -0.0440
  897SOL    HW1 2690   0.750   1.673   1.501  0.1477  3.3840  1.0669
  897SOL    HW2 2691   0.722   1.801   1.604  0.6443 -0.9330  1.2726
  898SOL     OW 2692   1.551   2.619   1.861  0.0310 -0.0078  0.8557
  898SOL    HW1 2693   1.528   2.518   1.861  1.5441 -2.5517 -1.5264
  898SOL    HW2 2694   1.474   2.668   1.906  0.2751 -0.6722  2.3069
  899SOL     OW 2695   0.792   0.646   0.140  0.3559  0.0189 -0.3775
  899SOL    HW1 2696   0.808   0.643   0.240  0.9022 -1.2302  1.8135
  899SOL    HW2 2697   0.712   0.589   0.116  2.4666  2.3953 -1.5569
  900SOL     OW 2698   1.379   2.389   2.074 -0.1199  0.7099  0.0653
  900SOL    HW1 2699   1.411   2.436   2.157  0.5365  0.4698 -4.7055
  900SOL    HW2 2700   1.386   2.457   1.998  0.5777  3.1158 -1.0212
  901SOL     OW 2701   0.879   2.424   0.111  0.5419 -0.1454 -0.1595
  901SOL    HW1 2702   0.786   2.441   0.064 -1.8525 -0.7001 -3.9417
  901SOL    HW2 2703   0.875   2.336   0.165 -0.3319  0.2053 -0.9458
  902SOL     OW 2704   1.702   1.313   0.456 -0.0048 -0.6368  0.3673
  902SOL    HW1 2705   1.632   1.270   0.522 -3.0897  1.9106  2.7673
  902SOL    HW2 2706   1.724   1.412   0.484 -0.0380  0.8478 -0.1472
  903SOL     OW 2707   2.166   0.843   0.327 -0.0038 -0.3548  0.0572
  903SOL    HW1 2708   2.134   0.933   0.358  3.9163 -0.9471  1.1092
  903SOL    HW2 2709   2.203   0.856   0.231  0.2837 -1.6775 -2.6494
  904SOL     OW 2710   0.667   1.292   0.066 -0.5478  0.1132  0.1306
  904SOL    HW1 2711   0.758   1.334   0.059 -1.7538 -1.7141 -1.3529
  904SOL    HW2 2712   0.617   1.314   0.152 -0.3323  0.4667  1.5851
  905SOL     OW 2713   2.076   3.094   1.300 -0.2263 -0.5080 -0.2767
  905SOL    HW1 2714   2.129   0.077   1.323  0.3359  2.6735 -0.2415
  905SOL    HW2 2715   2.120   3.009   1.338 -0.6049 -0.7704  2.0423
  906SOL     OW 2716   2.717   2.339   1.233 -1.0025 -0.9060 -0.7333
  906SOL    HW1 2717   2.770   2.324   1.150 -0.2253 -1.4715  2.2785
  906SOL    HW2 2718   2.644   2.273   1.245  1.2909  2.1597  2.0615
  907SOL     OW 2719   1.384   1.040   0.277  0.2549  0.1708 -0.3229
  907SOL    HW1 2720   1.367   0.942   0.257 -0.7826 -1.9771  2.1907
  907SOL    HW2 2721   1.486   1.068   0.281  0.2204 -1.2335 -0.2475
  908SOL     OW 2722   1.835   2.994   0.726  0.2289 -0.3894  0.3256
  908SOL    HW1 2723   1.880   2.974   0.813 -0.0262  3.2070 -1.9154
  908SOL    HW2 2724   1.793   3.088   0.717 -0.8203  1.2005  0.5918
  909SOL     OW 2725   1.988   1.248   1.685  0.0888  0.3500 -0.1149
  909SOL    HW1 2726   1.963   1.256   1.785 -2.5858  0.4273  1.5047
  909SOL    HW2 2727   2.079   1.282   1.662  1.1358 -0.6789 -0.5953
  910SOL     OW 2728   1.701   0.230   2.012  0.1853 -0.1497 -0.6514
  910SOL    HW1 2729   1.613   0.226   2.066 -0.1149  1.8415  0.0604
  910SOL    HW2 2730   1.730   0.140   1.980  0.4514  0.0965  1.0063
  911SOL     OW 2731   2.548   0.768   2.843 -0.3101  0.3180 -0.0399
  911SOL    HW1 2732   2.644   0.806   2.857 -0.3701  0.3414  1.6299
  911SOL    HW2 2733   2.554   0.666   2.826  0.6288 -2.2698 -0.6668
  912SOL     OW 2734   3.003   1.147   1.746  0.3638 -0.3300 -0.9464
  912SOL    HW1 2735   3.079   1.208   1.723 -0.4539  0.0548  0.3920
  912SOL    HW2 2736   2.936   1.142   1.672 -1.3297  0.1911 -1.0093
  913SOL     OW 2737   2.873   2.349   1.470  0.0561  0.3101  0.2693
  913SOL    HW1 2738   2.968   2.313   1.478 -0.9837 -1.7488 -2.1886
  913SOL    HW2 2739   2.822   2.305   1.395  1.1762 -2.1130  0.4440
  914SOL     OW 2740   1.633   1.029   1.795  0.0836 -0.0494 -0.3569
  914SOL    HW1 2741   1.697   0.950   1.791  2.5156 -1.1050 -1.4136
  914SOL    HW2 2742   1.648   1.099   1.723  2.0346  1.6948 -2.3642
  915SOL     OW 2743   2.111   0.732   1.280  0.2398  0.6257  0.1861
  915SOL    HW1 2744   2.196   0.722   1.336  0.3612 -2.4324 -2.4653
  915SOL    HW2 2745   2.124   0.676   1.197 -1.9954 -0.1170 -0.8320
  916SOL     OW 2746   2.326   2.151   0.997 -0.1983  0.7263  0.0114
  916SOL    HW1 2747   2.258   2.224   0.989  2.9557 -0.1600 -1.3521
  916SOL    HW2 2748   2.410   2.177   0.937 -0.3283  0.6812  0.0848
  917SOL     OW 2749   1.915   2.020   2.569 -0.3128 -0.0626  0.8142
  917SOL    HW1 2750   1.948   2.052   2.659  0.0030 -0.9542 -0.9860
  917SOL    HW2 2751   1.862   1.934   2.570 -1.9423  0.1926 -1.2752
  918SOL     OW 2752   1.839   2.675   2.292  0.4726  0.3831  0.0069
  918SOL    HW1 2753   1.910   2.725   2.342 -0.7154  0.6852  0.9198
  918SOL    HW2 2754   1.818   2.585   2.338 -1.2465  0.0568 -0.7630
  919SOL     OW 2755   1.222   2.818   1.328 -0.2623  0.2467 -0.2068
  919SOL    HW1 2756   1.199   2.899   1.270 -2.2900 -3.2153 -1.3232
  919SOL    HW2 2757   1.266   2.747   1.267  0.6817 -1.8105 -0.8069
  920SOL     OW 2758   0.071   0.184   2.309  0.1400 -0.1493 -0.2700
  920SOL    HW1 2759   0.060   0.085   2.301  2.9241  1.9040  0.1593
  920SOL    HW2 2760   3.092   0.224   2.358  0.4624 -2.1225  0.3296
  921SOL     OW 2761   2.956   0.881   1.809  0.1823 -0.0506  0.4338
  921SOL    HW1 2762   2.944   0.981   1.794 -1.4359  1.3917  1.1290
  921SOL    HW2 2763   3.047   0.848   1.773 -0.8279 -0.6432 -2.8471
  922SOL     OW 2764   2.063   2.009   0.309  0.1763  0.1755 -0.7722
  922SOL    HW1 2765   2.107   2.086   0.262  2.0774  1.2627  0.2837
  922SOL    HW2 2766   2.084   1.924   0.255  0.9135 -1.5097  2.1636
  923SOL     OW 2767   0.675   1.863   0.375  0.1163 -0.4281  0.1735
  923SOL    HW1 2768   0.641   1.786   0.312 -0.5593 -0.5562 -1.4337
  923SOL    HW2 2769   0.684   1.951   0.324  1.2125  0.9711 -1.0582
  924SOL     OW 2770   1.051   0.584   0.011 -0.2126 -0.7198 -0.5774
  924SOL    HW1 2771   0.968   0.562   0.059  2.6526  1.3116 -1.2680
  924SOL    HW2 2772   1.037   0.592   3.014  1.9465 -1.0603  0.6683
  925SOL     OW 2773   2.575   0.510   0.968  0.4728  1.1181  0.0243
  925SOL    HW1 2774   2.501   0.506   1.039  0.8667 -1.9511 -0.2233
  925SOL    HW2 2775   2.543   0.484   0.874 -0.7509 -2.5087 -0.0324
  926SOL     OW 2776   0.547   0.316   1.322 -0.1049 -0.1706  0.0425
  926SOL    HW1 2777   0.465   0.302   1.262 -1.9360  3.3709 -2.5399
  926SOL    HW2 2778   0.549   0.259   1.407 -2.8592  1.3066  1.3425
  927SOL     OW 2779   0.117   1.587   2.500 -0.1051  0.4215 -0.0935
  927SOL    HW1 2780   0.037   1.653   2.493  0.2733  0.5554 -0.7323
  927SOL    HW2 2781   0.128   1.546   2.411 -0.9321 -0.4047  1.5611
  928SOL     OW 2782   2.979   0.269   2.454 -0.3952 -0.0658  0.8099
  928SOL    HW1 2783   2.925   0.197   2.493 -0.2275 -2.7398 -1.7633
  928SOL    HW2 2784   2.985   0.347   2.519 -0.2063 -0.6629 -1.7425
  929SOL     OW 2785   2.789   3.030   1.220  0.1271  0.2782  0.0188
  929SOL    HW1 2786   2.830   2.948   1.172  2.2223 -1.0869  3.7066
  929SOL    HW2 2787   2.690   3.039   1.195  0.0753 -3.0320  1.8641
  930SOL     OW 2788   1.825   0.843   1.742  0.0299  0.4901 -0.7691
  930SOL    HW1 2789   1.755   0.772   1.717  0.5488 -0.8164 -1.0015
  930SOL    HW2 2790   1.865   0.827   1.834 -0.4228 -1.5363  0.9593
  931SOL     OW 2791   2.251   1.145   0.008  0.7155  0.4440  0.2729
  931SOL    HW1 2792   2.303   1.228   0.034 -0.1384 -2.7694 -1.3926
  931SOL    HW2 2793   2.148   1.162   0.016 -1.8803  2.8324  0.5340
  932SOL     OW 2794   2.159   1.117   0.716  0.0706  0.1833  0.3286
  932SOL    HW1 2795   2.110   1.188   0.775  0.7542  0.9411 -1.5645
  932SOL    HW2 2796   2.091   1.048   0.691 -0.6846  0.2883  0.3766
  933SOL     OW 2797   2.261   1.457   0.908  0.1487  0.2850  0.1063
  933SOL    HW1 2798   2.351   1.486   0.874  1.4788 -0.2568 -1.6594
  933SOL    HW2 2799   2.211   1.545   0.928  1.2241  1.1193 -0.0097
  934SOL     OW 2800   2.239   0.842   2.468  0.1718  0.4491  0.0587
  934SOL    HW1 2801   2.310   0.776   2.510 -2.0211  1.0923 -0.0812
  934SOL    HW2 2802   2.141   0.819   2.478  0.4841  0.8956 -1.2019
  935SOL     OW 2803   0.160   0.986   0.586 -0.1743 -0.1511 -0.2078
  935SOL    HW1 2804   0.137   1.085   0.605  0.0572  1.6108 -0.3612
  935SOL    HW2 2805   0.086   0.922   0.617 -0.8921 -1.0984 -2.1766
  936SOL     OW 2806   0.253   0.090   0.804  0.0147  0.2715 -0.1950
  936SOL    HW1 2807   0.319   0.045   0.743 -0.8626 -1.9693 -0.3341
  936SOL    HW2 2808   0.295   0.173   0.846 -3.7014 -1.2186  1.2308
  937SOL     OW 2809   0.022   3.078   1.960  0.0356 -0.1812 -0.1184
  937SOL    HW1 2810   0.017   3.014   2.037 -0.2824  0.4716  0.3566
  937SOL    HW2 2811   0.005   3.024   1.875  0.3497 -0.1304  0.7398
  938SOL     OW 2812   3.066   2.488   0.089  0.1373 -0.4480 -0.7674
  938SOL    HW1 2813   3.027   2.533   0.177 -1.5587  1.6500  4.2479
  938SOL    HW2 2814   0.002   2.561   0.032  0.5629 -0.4517 -1.0684
  939SOL     OW 2815   0.885   1.982   0.800  0.0263 -0.6171  0.3125
  939SOL    HW1 2816   0.863   2.062   0.856  1.0065 -1.4622  0.9747
  939SOL    HW2 2817   0.867   1.897   0.852  1.1849  0.7469 -4.3317
  940SOL     OW 2818   0.009   0.496   2.837 -0.4313  1.0675  0.3339
  940SOL    HW1 2819   3.076   0.534   2.922  3.3996 -1.7644 -1.5122
  940SOL    HW2 2820   0.013   0.396   2.837 -1.6671 -1.2767  1.4236
  941SOL     OW 2821   2.052   0.435   2.512  0.2797 -0.0187 -0.0195
  941SOL    HW1 2822   2.010   0.461   2.605  0.0809 -0.9639  0.5041
  941SOL    HW2 2823   1.993   0.360   2.473  0.1273  1.9916 -1.5780
  942SOL     OW 2824   1.177   0.439   1.177 -1.5694  0.2220  0.3388
  942SOL    HW1 2825   1.171   0.376   1.255 -0.0416 -1.6846  0.8352
  942SOL    HW2 2826   1.096   0.496   1.172  1.2779  0.3220  0.2750
  943SOL     OW 2827   1.018   0.882   1.789 -0.2910 -0.1830 -0.0191
  943SOL    HW1 2828   0.966   0.834   1.867 -2.6314 -0.9311  1.1710
  943SOL    HW2 2829   0.955   0.900   1.711 -1.5493  1.3824 -3.7821
  944SOL     OW 2830   1.967   0.994   1.575  0.2490  0.3033 -0.0235
  944SOL    HW1 2831   1.914   0.929   1.633 -0.5737  1.6391 -0.1548
  944SOL    HW2 2832   1.952   1.088   1.608  1.9272  0.5506  1.3734
  945SOL     OW 2833   2.691   3.091   0.259  0.1087  0.3982 -0.1505
  945SOL    HW1 2834   2.671   0.020   0.354  0.9311 -2.2395  1.8444
  945SOL    HW2 2835   2.609   3.064   0.208 -0.3668 -1.0923 -0.3217
  946SOL     OW 2836   2.890   0.645   1.966  0.2018  0.0994 -0.1243
  946SOL    HW1 2837   2.802   0.650   2.016  1.3147  0.8663 -2.2086
  946SOL    HW2 2838   2.924   0.739   1.942 -0.2127 -0.1702 -2.0754
  947SOL     OW 2839   0.975   2.985   0.112  0.1571 -0.2531  0.0935
  947SOL    HW1 2840   0.912   3.057   0.087  3.4420 -2.0696 -1.0081
  947SOL    HW2 2841   0.949   2.932   0.192  0.9224 -1.1987 -0.0484
  948SOL     OW 2842   2.351   1.845   1.372  0.7216 -0.1054 -0.0232
  948SOL    HW1 2843   2.376   1.891   1.459  2.6459 -1.5051  0.0444
  948SOL    HW2 2844   2.390   1.748   1.380  3.7954  0.0804 -1.1596
  949SOL     OW 2845   0.277   1.360   0.018 -0.0810 -0.2111 -0.1040
  949SOL    HW1 2846   0.183   1.326   0.048 -1.8903  0.3199  0.9176
  949SOL    HW2 2847   0.298   1.327   3.028 -0.2110  2.3832  0.0276
  950SOL     OW 2848   0.534   2.539   0.955 -0.0662 -0.0184  0.1132
  950SOL    HW1 2849   0.461   2.612   0.933 -0.9932 -0.0035 -1.3785
  950SOL    HW2 2850   0.481   2.456   0.984  1.6331  1.9368  0.3866
  951SOL     OW 2851   0.578   1.190   2.652 -0.0533 -0.2890 -0.6842
  951SOL    HW1 2852   0.660   1.186   2.710  2.8518 -0.0671 -1.7038
  951SOL    HW2 2853   0.582   1.115   2.582  3.9053  0.6619 -0.7944
  952SOL     OW 2854   0.392   0.901   0.693 -0.0563 -0.0983  0.2272
  952SOL    HW1 2855   0.456   0.982   0.691  0.2020 -1.1405  0.5877
  952SOL    HW2 2856   0.305   0.932   0.645 -0.1493  0.7819 -2.3398
  953SOL     OW 2857   2.695   3.012   2.197  0.0919  0.2798 -0.0348
  953SOL    HW1 2858   2.644   3.099   2.209  0.4784 -1.9068 -1.6083
  953SOL    HW2 2859   2.760   3.004   2.276  1.9837  0.5897 -0.4981
  954SOL     OW 2860   1.314   1.057   0.536 -0.4096  0.4025  0.0754
  954SOL    HW1 2861   1.315   1.058   0.435 -1.1497 -0.1444  1.4664
  954SOL    HW2 2862   1.397   1.102   0.578 -2.1080 -0.6283  0.3800
  955SOL     OW 2863   0.810   2.120   0.069  0.3480  0.3610  0.0666
  955SOL    HW1 2864   0.909   2.105   0.090 -1.1034  1.2671  0.3195
  955SOL    HW2 2865   0.773   2.031   0.030  0.8609 -1.6118  0.7439
  956SOL     OW 2866   2.065   0.449   2.106 -0.1171 -0.3117 -0.2421
  956SOL    HW1 2867   2.161   0.467   2.134  1.1268 -1.7910  1.9496
  956SOL    HW2 2868   2.049   0.489   2.014  0.7335 -2.2899 -0.1258
  957SOL     OW 2869   2.086   2.386   2.349 -0.0133  0.0381 -0.4508
  957SOL    HW1 2870   2.103   2.288   2.378 -0.0781 -2.1805  1.0832
  957SOL    HW2 2871   2.136   2.452   2.411  1.0177 -0.9755 -0.9016
  958SOL     OW 2872   1.699   1.153   1.163 -0.1481 -0.4047 -0.0081
  958SOL    HW1 2873   1.789   1.204   1.156  0.2763  0.8084 -1.4900
  958SOL    HW2 2874   1.675   1.120   1.256 -2.1512  0.6465 -2.8066
  959SOL     OW 2875   2.155   2.081   2.133 -0.1555  0.4427 -0.2288
  959SOL    HW1 2876   2.133   2.067   2.035  1.9732 -0.3473 -0.6137
  959SOL    HW2 2877   2.072   2.085   2.190  3.6164 -0.2587 -0.7245
  960SOL     OW 2878   0.280   0.938   2.736 -0.0324 -0.3033 -0.2876
  960SOL    HW1 2879   0.289   0.964   2.640  0.8917 -0.7059  1.9380
  960SOL    HW2 2880   0.370   0.924   2.776  0.5211 -1.0856  0.5826
  961SOL     OW 2881   0.104   0.984   2.956  0.2179  0.2632  0.4959
  961SOL    HW1 2882   0.159   0.971   2.869 -1.3291 -0.7405 -0.0969
  961SOL    HW2 2883   0.065   1.076   2.958  0.5849 -4.7720  1.7235
  962SOL     OW 2884   0.434   1.344   2.494 -0.0535 -0.6363 -0.2976
  962SOL    HW1 2885   0.342   1.305   2.481 -0.0346  0.2339  0.4032
  962SOL    HW2 2886   0.486   1.291   2.566  0.0505  0.4358  0.4493
  963SOL     OW 2887   2.933   2.062   0.157  0.0306 -0.1030  0.3251
  963SOL    HW1 2888   2.907   2.147   0.107  1.5742 -2.5844  0.2324
  963SOL    HW2 2889   2.871   1.987   0.131 -0.5073  0.4140  0.6843
  964SOL     OW 2890   0.969   2.309   1.716  0.3978  0.3441  0.2022
  964SOL    HW1 2891   1.021   2.394   1.721 -1.6117 -2.0319  2.9693
  964SOL    HW2 2892   0.877   2.329   1.751  0.9994  0.6345  0.9657
  965SOL     OW 2893   1.940   2.029   0.557 -0.0894  0.0666  0.0529
  965SOL    HW1 2894   1.909   2.116   0.517  1.3910 -1.9571 -0.2593
  965SOL    HW2 2895   1.994   1.980   0.480  2.2636  0.0214 -1.2462
  966SOL     OW 2896   2.778   1.450   0.381  0.3809 -0.4422 -0.3424
  966SOL    HW1 2897   2.876   1.482   0.390  0.2756  3.0746 -1.1047
  966SOL    HW2 2898   2.756   1.417   0.289 -0.1471  1.7244  0.5361
  967SOL     OW 2899   1.913   2.868   1.936 -0.2975 -0.0250 -0.1677
  967SOL    HW1 2900   1.965   2.864   1.849  0.0007  1.9605 -1.5439
  967SOL    HW2 2901   1.875   2.773   1.959 -2.2736 -2.1723 -1.1800
  968SOL     OW 2902   1.212   0.431   0.189 -0.1478 -0.5179 -0.4892
  968SOL    HW1 2903   1.245   0.492   0.259 -1.7807 -0.4624 -1.4813
  968SOL    HW2 2904   1.190   0.488   0.107 -1.6815 -1.8390 -0.3613
  969SOL     OW 2905   0.166   1.576   2.199 -0.2146  0.0634  0.1632
  969SOL    HW1 2906   0.264   1.551   2.205  0.9716  2.5728  0.0133
  969SOL    HW2 2907   0.121   1.542   2.115 -2.8774  2.1959 -1.5878
  970SOL     OW 2908   2.002   2.115   1.218 -0.2442  0.7300 -0.3259
  970SOL    HW1 2909   1.914   2.125   1.263  2.1909 -0.5803 -1.0885
  970SOL    HW2 2910   2.011   2.195   1.155  1.5074  0.0104 -0.3545
  971SOL     OW 2911   2.503   2.232   0.803  0.5724  0.1840  0.3126
  971SOL    HW1 2912   2.577   2.302   0.792 -0.2606  0.9900 -0.0174
  971SOL    HW2 2913   2.523   2.147   0.744  1.0209 -1.9596 -1.3580
  972SOL     OW 2914   3.006   1.140   2.565 -0.1897  0.0206  0.1277
  972SOL    HW1 2915   2.999   1.103   2.468 -0.2337  0.3018 -0.1983
  972SOL    HW2 2916   2.914   1.130   2.614  2.5307 -0.6338 -3.0868
  973SOL     OW 2917   0.683   0.518   0.620 -0.4905  0.6842 -0.2579
  973SOL    HW1 2918   0.662   0.587   0.694 -1.4482  0.1167  1.2054
  973SOL    HW2 2919   0.758   0.459   0.649 -0.5776  2.8503  1.9279
  974SOL     OW 2920   2.211   0.975   1.737 -0.0447 -0.1357  0.4797
  974SOL    HW1 2921   2.138   1.008   1.673  0.0547 -0.3135  1.1717
  974SOL    HW2 2922   2.212   0.873   1.734 -1.0798 -1.9235  0.8347
  975SOL     OW 2923   3.097   2.790   0.369  0.2689  0.1087  0.2580
  975SOL    HW1 2924   3.020   2.853   0.380 -1.7214  2.4085  0.2082
  975SOL    HW2 2925   0.027   2.762   0.458  2.5178 -0.6520  0.9870
  976SOL     OW 2926   0.437   1.848   0.990 -0.5573  0.0761  0.2221
  976SOL    HW1 2927   0.378   1.774   1.030 -0.2759 -0.5810 -2.7800
  976SOL    HW2 2928   0.485   1.814   0.904  0.0722  1.5522  0.5276
  977SOL     OW 2929   1.055   2.034   0.585  0.2937  0.1116 -0.2340
  977SOL    HW1 2930   1.088   1.955   0.528 -1.0800 -0.1971  0.3253
  977SOL    HW2 2931   0.978   2.005   0.645  0.0302  1.5435 -1.1673
  978SOL     OW 2932   0.183   0.882   0.112  0.4626  0.0301 -0.6315
  978SOL    HW1 2933   0.204   0.779   0.095 -0.4640 -1.1513  1.1000
  978SOL    HW2 2934   0.152   0.932   0.031  0.2473 -0.6963  1.1412
  979SOL     OW 2935   1.997   1.408   0.422  0.1128  0.7435  0.1786
  979SOL    HW1 2936   2.084   1.421   0.473  0.2531  0.5892 -1.9556
  979SOL    HW2 2937   1.925   1.465   0.464  2.2099 -2.6101  2.2892
  980SOL     OW 2938   0.507   2.295   2.061 -0.6261  0.8793  0.3354
  980SOL    HW1 2939   0.509   2.334   1.967  0.1442 -0.0473  0.9647
  980SOL    HW2 2940   0.601   2.306   2.110  2.2169 -0.4690  1.7024
  981SOL     OW 2941   2.699   1.033   3.100 -0.1198  0.3712  0.2943
  981SOL    HW1 2942   2.743   0.983   0.070 -2.3660 -1.7622 -1.2219
  981SOL    HW2 2943   2.599   1.009   3.082 -2.0337  1.6305 -0.5517
  982SOL     OW 2944   0.019   2.491   1.864 -0.0508  0.1932  0.3379
  982SOL    HW1 2945   0.078   2.436   1.930  2.0053  0.3578 -1.0650
  982SOL    HW2 2946   0.079   2.566   1.826  2.3534 -2.5117 -2.1070
  983SOL     OW 2947   1.803   0.239   1.573  0.0228 -0.0958 -0.2135
  983SOL    HW1 2948   1.753   0.183   1.504  0.2119  0.5178  1.8397
  983SOL    HW2 2949   1.788   0.332   1.552 -0.9700 -0.5555 -1.1291
  984SOL     OW 2950   1.652   2.951   2.644  0.2127  0.0332  0.2282
  984SOL    HW1 2951   1.656   2.856   2.602  0.6898  0.2756  1.7387
  984SOL    HW2 2952   1.556   2.977   2.678 -3.0095  0.7052  3.2153
  985SOL     OW 2953   1.482   1.569   1.467 -0.2433  0.5331  0.2248
  985SOL    HW1 2954   1.490   1.473   1.425 -2.6671 -0.2752 -1.1031
  985SOL    HW2 2955   1.396   1.574   1.521 -1.0011  0.3308  0.4060
  986SOL     OW 2956   2.052   2.869   2.291 -0.5325  0.3527  0.2683
  986SOL    HW1 2957   2.139   2.839   2.253  0.4755  0.0526  2.2671
  986SOL    HW2 2958   2.009   2.944   2.234  1.0493 -2.0312  2.2218
  987SOL     OW 2959   2.671   1.809   2.711  0.1513 -0.1253  0.2473
  987SOL    HW1 2960   2.731   1.867   2.768  2.5399 -1.8848 -2.6766
  987SOL    HW2 2961   2.645   1.863   2.629  0.2933 -1.9607  1.5255
  988SOL     OW 2962   2.797   0.716   1.654 -0.0638 -0.5515  0.7740
  988SOL    HW1 2963   2.823   0.732   1.555 -1.6747 -0.2833  1.3806
  988SOL    HW2 2964   2.861   0.762   1.716 -0.2499 -4.1424 -0.6648
  989SOL     OW 2965   1.747   1.396   1.625 -0.9663  0.0217 -0.0360
  989SOL    HW1 2966   1.766   1.497   1.640  0.5957  2.8882 -0.4763
  989SOL    HW2 2967   1.832   1.341   1.651  0.8970 -0.6989 -1.5135
  990SOL     OW 2968   3.029   0.817   2.824 -0.3645  0.1806 -0.3059
  990SOL    HW1 2969   3.069   0.858   2.903  0.3951 -3.0252  0.2322
  990SOL    HW2 2970   3.096   0.767   2.771 -3.0368  3.9878  1.4489
  991SOL     OW 2971   0.298   1.989   2.945  0.2285  0.0967 -0.4893
  991SOL    HW1 2972   0.205   2.028   2.956  4.9012  0.4152 -1.1728
  991SOL    HW2 2973   0.340   1.978   3.037  2.1108  0.8815 -0.3495
  992SOL     OW 2974   2.520   1.963   1.793  0.3190 -0.2740  0.3110
  992SOL    HW1 2975   2.447   1.945   1.861 -1.4058 -1.0369 -1.8814
  992SOL    HW2 2976   2.611   1.973   1.838 -2.3798 -0.2981 -1.1425
  993SOL     OW 2977   0.626   0.105   0.919  0.0437 -0.8534 -0.1580
  993SOL    HW1 2978   0.541   0.162   0.917  0.5388 -0.5544 -0.7263
  993SOL    HW2 2979   0.707   0.154   0.951  0.7145 -0.4305 -0.9517
  994SOL     OW 2980   2.777   1.953   1.562 -0.1907  0.5777 -0.2839
  994SOL    HW1 2981   2.859   2.005   1.587  3.2074  1.1997 -3.1365
  994SOL    HW2 2982   2.731   1.898   1.634  0.6443 -0.3680  0.9447
  995SOL     OW 2983   2.135   2.128   2.410 -0.3691  0.1853  0.4114
  995SOL    HW1 2984   2.045   2.097   2.445  1.1925  1.3135  1.0786
  995SOL    HW2 2985   2.164   2.069   2.334  1.4885  2.1919  0.7732
  996SOL     OW 2986   1.961   1.896   3.084  0.1868 -0.2126  0.1940
  996SOL    HW1 2987   1.866   1.870   3.099  0.6175 -1.9640 -0.4027
  996SOL    HW2 2988   2.030   1.844   0.038  2.7995  1.1959  0.8613
  997SOL     OW 2989   1.080   1.319   1.809 -0.2368  0.1155 -0.3406
  997SOL    HW1 2990   1.041   1.366   1.893 -1.7523  3.3570  3.0558
  997SOL    HW2 2991   1.129   1.238   1.844 -0.4593  0.3798 -0.0407
  998SOL     OW 2992   2.777   2.104   0.705 -0.3370 -0.2183  0.3824
  998SOL    HW1 2993   2.688   2.119   0.656 -2.6892  1.8214 -2.5528
  998SOL    HW2 2994   2.759   2.068   0.798  1.3439  2.5515 -3.6868
  999SOL     OW 2995   0.078   2.677   0.603 -0.4352  0.1952 -0.4706
  999SOL    HW1 2996   0.164   2.626   0.600  0.4383 -0.1131  2.1189
  999SOL    HW2 2997   3.102   2.615   0.614  1.5602  0.1540 -1.8525
 1000SOL     OW 2998   1.237   0.178   2.885 -0.1977  0.0532  0.0578
 1000SOL    HW1 2999   1.189   0.181   2.974  0.2131  1.3093 -1.7503
 1000SOL    HW2 3000   1.290   0.269   2.870  1.3100  2.4016 -1.9327
   3.10255   3.10255   3.10255
