1000 SPC/Fw water molecules t= 138.00000 step= 138000
 3000
    1SOL     OW    1   2.219   2.467   1.047  0.6074  0.1663 -0.6607
    1SOL    HW1    2   2.122   2.500   1.030 -1.3832 -0.3529 -2.3292
    1SOL    HW2    3   2.225   2.382   1.107 -0.4892 -0.9327 -0.0769
    2SOL     OW    4   1.570   1.905   2.362  0.2847  0.4668 -0.0143
    2SOL    HW1    5   1.494   1.968   2.371  2.1346  0.6385 -2.5434
    2SOL    HW2    6   1.593   1.865   2.452 -3.2915 -0.1012 -0.5746
    3SOL     OW    7   1.605   2.524   2.254  0.2940  0.0494 -0.2725
    3SOL    HW1    8   1.639   2.579   2.334  1.0262  3.1676 -1.1796
    3SOL    HW2    9   1.650   2.434   2.243 -0.8711  1.7914 -1.1636
    4SOL     OW   10   1.589   2.638   2.014 -0.0985 -0.4741 -1.3115
    4SOL    HW1   11   1.585   2.588   2.107 -1.8130 -2.7035  1.4106
    4SOL    HW2   12   1.672   2.596   1.972  0.1240 -1.4916  1.9260
    5SOL     OW   13   0.493   0.571   1.419  0.0737 -0.4085  0.0684
    5SOL    HW1   14   0.550   0.583   1.332  2.2413  2.9732 -1.9816
    5SOL    HW2   15   0.421   0.500   1.415  0.2956  1.5168  0.9408
    6SOL     OW   16   2.581   1.031   2.954  0.7148  1.0212  0.0474
    6SOL    HW1   17   2.588   0.961   3.027  0.1707  0.7952 -2.6687
    6SOL    HW2   18   2.596   0.985   2.865 -2.8735  1.4518  0.4865
    7SOL     OW   19   0.596   0.280   1.364 -0.2194 -0.1038  0.0714
    7SOL    HW1   20   0.549   0.207   1.418  0.3839 -1.2178  0.7819
    7SOL    HW2   21   0.564   0.293   1.267  0.9893 -0.6062 -1.2663
    8SOL     OW   22   0.959   2.653   1.570  0.0907  0.0242 -0.4537
    8SOL    HW1   23   0.911   2.674   1.487  2.7288  0.8467  1.2223
    8SOL    HW2   24   0.895   2.648   1.650 -0.6041 -0.4087  3.1644
    9SOL     OW   25   0.724   0.845   0.426 -0.2387 -0.5815 -0.2059
    9SOL    HW1   26   0.622   0.858   0.435  0.1755  0.7068  0.7458
    9SOL    HW2   27   0.756   0.942   0.403 -1.3383 -0.8850 -0.4399
   10SOL     OW   28   0.748   2.370   2.517 -0.3011 -0.3604 -0.1808
   10SOL    HW1   29   0.711   2.408   2.603 -0.5286 -2.0600 -1.9974
   10SOL    HW2   30   0.729   2.437   2.438 -0.3005  1.2885 -2.0653
   11SOL     OW   31   0.427   1.918   0.199  0.1745 -0.6651 -0.3200
   11SOL    HW1   32   0.324   1.914   0.181 -1.2217  1.3658 -0.2155
   11SOL    HW2   33   0.442   1.893   0.298 -0.1630 -0.9376  3.3123
   12SOL     OW   34   0.468   0.035   1.435  0.0520 -0.0907  0.4901
   12SOL    HW1   35   0.408   3.070   1.499  0.1474 -1.7138  1.3690
   12SOL    HW2   36   0.437   0.005   1.343 -0.0238 -0.4933  2.4490
   13SOL     OW   37   0.809   2.684   0.247  0.1063  0.4836 -0.3877
   13SOL    HW1   38   0.855   2.623   0.180  0.2162  2.0463  0.7341
   13SOL    HW2   39   0.792   2.778   0.222  0.6933 -5.4881  1.7852
   14SOL     OW   40   1.405   1.888   1.102  0.1735  0.7631  0.1275
   14SOL    HW1   41   1.478   1.913   1.036  0.5288  1.2736 -0.7972
   14SOL    HW2   42   1.450   1.881   1.194 -1.9321 -1.2306 -0.8941
   15SOL     OW   43   2.576   0.672   2.346 -0.5242  0.3561 -0.3540
   15SOL    HW1   44   2.649   0.681   2.421  1.1384  1.0255  2.3676
   15SOL    HW2   45   2.487   0.691   2.384  1.3589 -1.1001  0.1757
   16SOL     OW   46   1.591   2.785   3.032  0.5134 -0.2452 -0.0371
   16SOL    HW1   47   1.625   2.709   2.980 -3.1231  1.2364  1.7471
   16SOL    HW2   48   1.652   2.866   3.034 -2.2789  0.0470 -1.9788
   17SOL     OW   49   0.909   2.413   1.943  0.1097 -0.0812 -0.7850
   17SOL    HW1   50   0.887   2.315   1.943  1.4278  2.1419 -2.2607
   17SOL    HW2   51   0.850   2.464   2.010  2.0273 -0.1625 -1.7270
   18SOL     OW   52   1.448   1.052   0.383  0.5240 -0.4454  0.4590
   18SOL    HW1   53   1.403   1.143   0.377 -0.4535 -2.0436 -1.9361
   18SOL    HW2   54   1.412   1.005   0.464 -1.3816  0.4642 -2.7683
   19SOL     OW   55   2.521   2.204   2.824 -0.7202  0.4184  0.0004
   19SOL    HW1   56   2.463   2.166   2.896 -2.2370 -1.0117 -0.8738
   19SOL    HW2   57   2.580   2.134   2.778  0.5354  1.6480 -1.2749
   20SOL     OW   58   2.209   1.854   2.496  0.2004  0.2490 -0.0660
   20SOL    HW1   59   2.146   1.776   2.498 -1.0094 -0.3989  1.5289
   20SOL    HW2   60   2.154   1.941   2.497  1.7270 -3.1876 -1.1370
   21SOL     OW   61   0.694   2.095   2.897 -0.5681  0.1018 -0.4038
   21SOL    HW1   62   0.736   2.140   2.977  0.6804 -0.0459 -1.5533
   21SOL    HW2   63   0.632   2.019   2.923  0.1777  0.2263  0.7861
   22SOL     OW   64   2.056   3.023   1.328  0.3806 -0.0006  0.0248
   22SOL    HW1   65   2.047   3.067   1.234  3.2994 -1.5318 -2.5468
   22SOL    HW2   66   2.120   3.075   1.391 -1.0213 -0.9098 -1.7407
   23SOL     OW   67   0.182   1.312   1.413  0.0707 -0.4484  0.3839
   23SOL    HW1   68   0.149   1.309   1.510 -2.1722  2.0204  0.5906
   23SOL    HW2   69   0.275   1.274   1.396  1.7618 -0.0843  0.1258
   24SOL     OW   70   2.233   1.955   1.596  0.0709  0.0758  0.3880
   24SOL    HW1   71   2.331   1.925   1.610 -0.6316 -2.3902 -2.6925
   24SOL    HW2   72   2.221   2.052   1.628 -0.3357  0.8478  1.0117
   25SOL     OW   73   2.048   2.823   2.949  0.8013  0.0660 -0.3102
   25SOL    HW1   74   2.132   2.884   2.949  1.7018 -1.3632 -0.2184
   25SOL    HW2   75   2.022   2.787   2.858  1.9870  1.3133 -1.2361
   26SOL     OW   76   1.275   2.912   0.884  0.4205  0.7274 -0.3430
   26SOL    HW1   77   1.297   2.897   0.985 -0.0187  0.9196  0.2861
   26SOL    HW2   78   1.262   3.011   0.874  0.9335  2.4994  2.0015
   27SOL     OW   79   1.177   1.955   2.816 -0.3361 -0.1594 -0.0698
   27SOL    HW1   80   1.176   1.993   2.911  1.2698  1.6564 -2.0338
   27SOL    HW2   81   1.097   1.900   2.791 -0.6701  0.8288 -2.4252
   28SOL     OW   82   2.983   1.707   1.465  0.1929  0.5755  0.4378
   28SOL    HW1   83   3.022   1.687   1.557 -1.3899  0.9118  0.4224
   28SOL    HW2   84   3.050   1.737   1.399 -2.0018 -2.1075 -0.1341
   29SOL     OW   85   2.345   2.194   2.137 -0.2780  0.2748  0.3088
   29SOL    HW1   86   2.338   2.285   2.184  1.8029  0.4733  1.7088
   29SOL    HW2   87   2.361   2.121   2.206 -0.0209  1.6997 -2.2985
   30SOL     OW   88   0.981   2.734   1.147 -0.2700  0.4377 -0.6459
   30SOL    HW1   89   1.024   2.814   1.187 -3.0177 -2.0212 -3.5615
   30SOL    HW2   90   0.987   2.740   1.046  0.2771  0.0424 -0.6276
   31SOL     OW   91   0.002   2.119   2.052 -0.2166  0.1553 -0.6969
   31SOL    HW1   92   3.029   2.044   2.086 -0.0806  1.6709  0.7626
   31SOL    HW2   93   0.098   2.080   2.040  0.9615  1.5424  2.1188
   32SOL     OW   94   1.223   1.023   2.037  0.1083  0.1553  0.2796
   32SOL    HW1   95   1.204   0.995   1.939  0.9950 -0.2471  0.4842
   32SOL    HW2   96   1.210   1.121   2.052 -1.8295  1.0448  1.0300
   33SOL     OW   97   0.477   2.867   2.451  0.7187  0.1813 -0.4383
   33SOL    HW1   98   0.391   2.921   2.476 -0.8004  0.5639 -0.4804
   33SOL    HW2   99   0.524   2.820   2.525  1.7069 -0.9389 -2.6155
   34SOL     OW  100   1.484   0.012   1.503  0.6886 -0.6472  0.0194
   34SOL    HW1  101   1.490   3.009   1.450 -1.5426 -0.6971 -2.1253
   34SOL    HW2  102   1.469   3.071   1.600 -1.6584  0.5539 -1.7179
   35SOL     OW  103   2.070   0.456   0.925  0.2564 -0.3855  0.3950
   35SOL    HW1  104   2.077   0.369   0.978  1.8529 -1.0350  1.0542
   35SOL    HW2  105   2.008   0.529   0.965  0.7551  0.9199 -1.2259
   36SOL     OW  106   2.288   2.748   2.589 -0.1262 -0.2989 -0.1740
   36SOL    HW1  107   2.312   2.653   2.610  0.6534 -2.5162 -0.4756
   36SOL    HW2  108   2.340   2.812   2.648 -2.0757 -0.1891  2.3176
   37SOL     OW  109   1.371   2.350   2.660  0.0746  0.4307 -0.4327
   37SOL    HW1  110   1.271   2.362   2.647  0.9326 -1.2171  2.3092
   37SOL    HW2  111   1.392   2.261   2.711  1.3147 -3.2025 -1.3544
   38SOL     OW  112   2.442   0.656   2.826  0.0977 -0.3146  0.0453
   38SOL    HW1  113   2.392   0.625   2.915 -1.0008 -0.3132  1.9125
   38SOL    HW2  114   2.538   0.658   2.846 -1.7734 -0.5970  1.3454
   39SOL     OW  115   2.157   2.139   2.527 -0.0426  0.0481 -0.4457
   39SOL    HW1  116   2.146   2.150   2.626  0.4977 -0.6115  1.3336
   39SOL    HW2  117   2.111   2.214   2.476  1.4698  0.6338 -2.9498
   40SOL     OW  118   0.249   0.177   2.984  0.0274  0.0475  0.6290
   40SOL    HW1  119   0.337   0.138   3.016 -1.0549 -1.3015 -0.6744
   40SOL    HW2  120   0.177   0.157   3.054 -1.7921  0.4602  2.2557
   41SOL     OW  121   1.235   0.979   1.561 -0.1204  0.2204 -0.3412
   41SOL    HW1  122   1.223   1.034   1.477  0.7663  1.7814 -1.3394
   41SOL    HW2  123   1.199   0.884   1.552 -1.6591  2.4159 -1.3280
   42SOL     OW  124   0.339   0.208   1.694 -0.7773  0.4427  0.5376
   42SOL    HW1  125   0.329   0.113   1.653  0.7590 -1.5797 -0.9546
   42SOL    HW2  126   0.441   0.226   1.721  1.0003  1.8440 -0.1930
   43SOL     OW  127   1.555   1.261   2.202  0.0629  0.1914  0.2590
   43SOL    HW1  128   1.487   1.326   2.171  0.0220 -3.0888  1.7306
   43SOL    HW2  129   1.636   1.264   2.135  1.4924  2.6785 -0.5273
   44SOL     OW  130   0.132   2.656   2.629 -0.6498  0.1909 -0.0981
   44SOL    HW1  131   0.152   2.711   2.715  0.0612  0.0347 -1.1886
   44SOL    HW2  132   0.106   2.713   2.549 -0.3197 -0.4736 -1.2229
   45SOL     OW  133   0.522   2.491   1.170  0.0956 -0.4107  0.1954
   45SOL    HW1  134   0.502   2.585   1.138  0.6426 -0.4560  1.2903
   45SOL    HW2  135   0.601   2.453   1.121 -1.5547  0.3524 -0.1706
   46SOL     OW  136   2.500   2.264   1.919 -0.1723  0.7195 -0.5261
   46SOL    HW1  137   2.425   2.242   1.988  1.0732 -0.4167 -0.3397
   46SOL    HW2  138   2.514   2.365   1.922  0.8871  0.5969  0.2559
   47SOL     OW  139   1.778   1.987   1.693 -0.5115  0.6425  0.2317
   47SOL    HW1  140   1.720   2.001   1.776  0.0494  0.8869 -2.5238
   47SOL    HW2  141   1.828   1.895   1.694 -0.3765 -2.2286  0.3253
   48SOL     OW  142   0.523   2.108   0.516  0.0018 -0.6286 -0.3064
   48SOL    HW1  143   0.611   2.081   0.468 -1.1559 -0.6418 -0.7837
   48SOL    HW2  144   0.493   2.199   0.484  1.1561  0.4928 -0.8684
   49SOL     OW  145   2.998   0.729   2.160 -0.1806 -0.4587 -0.0639
   49SOL    HW1  146   3.009   0.679   2.249  0.1377 -3.5895 -3.4999
   49SOL    HW2  147   2.976   0.826   2.166 -0.3885 -3.0206  2.0592
   50SOL     OW  148   2.247   0.656   0.875  0.9042  1.1105 -0.4056
   50SOL    HW1  149   2.191   0.739   0.847 -1.3159  2.1522 -2.3622
   50SOL    HW2  150   2.182   0.577   0.895 -3.2632 -1.6438 -0.6838
   51SOL     OW  151   1.187   0.490   0.737 -0.0434  0.4051 -0.0733
   51SOL    HW1  152   1.141   0.519   0.825 -0.5084 -1.1185 -0.1918
   51SOL    HW2  153   1.279   0.535   0.734  0.5213 -0.9355  0.6418
   52SOL     OW  154   1.147   1.333   0.182 -0.3922  1.0853 -0.4569
   52SOL    HW1  155   1.126   1.235   0.169  1.4363  0.9468  1.9504
   52SOL    HW2  156   1.063   1.380   0.206  0.7284  1.3232 -0.5250
   53SOL     OW  157   1.050   2.244   2.468 -0.2673  0.8409 -0.0531
   53SOL    HW1  158   1.114   2.173   2.504  1.4556 -2.5240 -0.5887
   53SOL    HW2  159   1.063   2.326   2.530 -0.4181  1.0744 -1.8183
   54SOL     OW  160   1.422   0.946   1.777 -0.3237  0.2659  0.5226
   54SOL    HW1  161   1.428   0.844   1.788  0.7490 -2.6747  0.8043
   54SOL    HW2  162   1.366   0.960   1.693 -0.5400  0.3061 -2.6452
   55SOL     OW  163   1.940   2.862   0.540 -0.1402 -0.0783  0.3906
   55SOL    HW1  164   1.850   2.881   0.582  1.8668 -0.7761 -2.3611
   55SOL    HW2  165   1.971   2.941   0.486 -0.7008 -0.3639  0.5161
   56SOL     OW  166   0.800   2.676   1.351 -0.2465  0.4669 -0.4366
   56SOL    HW1  167   0.875   2.691   1.284 -0.8694  0.9852  1.4893
   56SOL    HW2  168   0.733   2.749   1.338 -2.3859 -2.3342  0.8015
   57SOL     OW  169   2.035   0.798   0.026  0.3493  0.4415 -0.1803
   57SOL    HW1  170   2.123   0.843   3.074  1.1309  0.5336  2.1071
   57SOL    HW2  171   1.966   0.773   3.040 -0.3068 -0.2942  3.0704
   58SOL     OW  172   2.999   1.308   2.116 -0.1132 -0.4094 -0.4075
   58SOL    HW1  173   2.931   1.348   2.180  0.0030 -0.7197  0.7553
   58SOL    HW2  174   0.006   1.361   2.123 -0.0505  0.9368 -0.3850
   59SOL     OW  175   0.748   2.545   2.313 -0.3638 -0.0125  0.7409
   59SOL    HW1  176   0.704   2.532   2.222 -0.2327  1.0794  0.5936
   59SOL    HW2  177   0.758   2.643   2.338  1.3940 -0.6931  0.6086
   60SOL     OW  178   2.581   2.652   1.145 -0.4070 -0.4600 -0.0420
   60SOL    HW1  179   2.569   2.591   1.066  0.9082 -2.3730  1.8689
   60SOL    HW2  180   2.672   2.698   1.135 -0.2495 -0.3056  0.9063
   61SOL     OW  181   1.272   2.204   0.395  0.6665  0.2152 -0.0578
   61SOL    HW1  182   1.331   2.283   0.415  2.2920 -1.3047 -2.1014
   61SOL    HW2  183   1.213   2.228   0.316  0.9235  1.9928  1.7872
   62SOL     OW  184   2.373   2.739   0.007  0.0649 -0.5319 -0.1655
   62SOL    HW1  185   2.438   2.667   0.028 -0.6938  3.0164 -1.1502
   62SOL    HW2  186   2.288   2.727   0.060  1.6078  0.8007  0.8920
   63SOL     OW  187   1.970   0.145   0.097 -0.6541  0.1009 -0.4058
   63SOL    HW1  188   2.074   0.122   0.091  1.1474 -1.5833  1.3963
   63SOL    HW2  189   1.955   0.240   0.114  1.3291 -2.4082 -0.0973
   64SOL     OW  190   0.865   1.056   2.436 -0.6664  0.2582  0.4883
   64SOL    HW1  191   0.840   1.136   2.496  1.2825  1.5125  0.8187
   64SOL    HW2  192   0.852   0.962   2.478  0.2378 -2.6816 -0.0812
   65SOL     OW  193   1.134   2.551   0.333 -0.0244 -0.6282 -0.4716
   65SOL    HW1  194   1.071   2.476   0.329 -0.5055 -0.7239 -2.0398
   65SOL    HW2  195   1.228   2.518   0.361  0.6230 -0.1731  0.3968
   66SOL     OW  196   0.548   1.598   1.433 -0.3130  0.1533  0.1199
   66SOL    HW1  197   0.582   1.672   1.493 -0.9013  1.3387  0.5148
   66SOL    HW2  198   0.454   1.575   1.461 -1.1340  1.7107 -1.6447
   67SOL     OW  199   2.646   2.880   2.063  0.1200 -0.2910 -0.2752
   67SOL    HW1  200   2.617   2.976   2.045 -0.4571  2.5466  0.0284
   67SOL    HW2  201   2.609   2.853   2.156  1.8488  0.8916  1.2704
   68SOL     OW  202   0.802   0.728   1.395  0.3648  0.4878  0.2218
   68SOL    HW1  203   0.839   0.649   1.451  1.7186 -0.5031  1.0044
   68SOL    HW2  204   0.764   0.799   1.448  1.5298 -1.1348 -2.4050
   69SOL     OW  205   1.898   2.789   0.264  0.6289  0.0046  0.1340
   69SOL    HW1  206   1.893   2.882   0.222 -0.0796  1.6103  2.3401
   69SOL    HW2  207   1.926   2.794   0.364  1.3370 -1.1716  2.5336
   70SOL     OW  208   2.800   1.035   2.518 -0.4025 -0.4836  0.6936
   70SOL    HW1  209   2.733   1.005   2.450 -2.0973  0.7294  2.9582
   70SOL    HW2  210   2.891   1.059   2.472 -1.0315 -0.3654  1.0414
   71SOL     OW  211   2.872   1.735   0.054  0.3203 -0.3026  0.0766
   71SOL    HW1  212   2.796   1.755   0.120 -1.2928 -2.2481  2.6646
   71SOL    HW2  213   2.845   1.738   3.034  1.4320  2.1145 -1.2771
   72SOL     OW  214   0.139   1.726   0.391  0.4519  0.1223  1.2555
   72SOL    HW1  215   0.141   1.630   0.368  0.9904  2.0361  1.6363
   72SOL    HW2  216   0.230   1.767   0.411 -1.0557 -2.0168  0.5307
   73SOL     OW  217   0.994   1.275   0.488  0.1067  0.3647  0.0494
   73SOL    HW1  218   1.026   1.240   0.579  2.1950 -1.4633  2.8435
   73SOL    HW2  219   1.013   1.372   0.482  1.3607  0.7222 -0.6430
   74SOL     OW  220   0.292   1.768   2.012 -0.2105 -0.0158 -0.1716
   74SOL    HW1  221   0.267   1.867   2.002  0.9234  0.1634  1.3904
   74SOL    HW2  222   0.326   1.728   1.924 -0.1884 -0.6690 -0.0446
   75SOL     OW  223   1.693   1.568   1.741  0.1616  0.9746  0.9686
   75SOL    HW1  224   1.628   1.499   1.714  0.3821 -1.1372 -0.7260
   75SOL    HW2  225   1.657   1.609   1.826  0.7973 -1.7888 -2.6452
   76SOL     OW  226   2.140   2.597   1.393 -0.6148  0.2203 -0.3356
   76SOL    HW1  227   2.192   2.513   1.423  0.5314  0.8841  1.0650
   76SOL    HW2  228   2.185   2.642   1.313 -1.4458  0.0284  2.4797
   77SOL     OW  229   2.548   1.356   1.539 -0.4225 -0.3011  0.0033
   77SOL    HW1  230   2.517   1.346   1.634 -0.5334  1.8286  1.5826
   77SOL    HW2  231   2.582   1.452   1.526  0.1782  0.1724 -0.0244
   78SOL     OW  232   1.545   0.753   0.569  0.6673  0.6754  0.1083
   78SOL    HW1  233   1.462   0.810   0.547 -0.6777  1.0014  1.7162
   78SOL    HW2  234   1.526   0.685   0.641  0.0213 -1.0064  0.5077
   79SOL     OW  235   2.255   1.541   1.527  0.2909  0.0208 -0.2223
   79SOL    HW1  236   2.266   1.457   1.472  0.2983  2.9987  2.6880
   79SOL    HW2  237   2.209   1.613   1.474 -0.8019  1.2442 -2.0680
   80SOL     OW  238   0.795   0.441   1.483 -0.1628 -0.0576  0.2328
   80SOL    HW1  239   0.720   0.387   1.439 -0.4891 -1.2262  1.4464
   80SOL    HW2  240   0.880   0.389   1.465 -2.3937 -0.1420  0.8929
   81SOL     OW  241   0.782   2.919   0.832 -0.3543 -0.1909 -0.4408
   81SOL    HW1  242   0.801   2.986   0.761 -1.1887 -4.1766  0.2149
   81SOL    HW2  243   0.871   2.885   0.878 -2.1634  0.5366  2.7391
   82SOL     OW  244   1.467   3.036   1.767 -0.6572  0.6874  0.8891
   82SOL    HW1  245   1.381   2.977   1.762 -1.9884 -3.1210 -2.9830
   82SOL    HW2  246   1.534   3.005   1.840  1.7982 -0.5581 -0.7108
   83SOL     OW  247   1.244   1.812   0.781  0.1665 -0.4909 -0.2229
   83SOL    HW1  248   1.224   1.866   0.869  0.3988 -0.0925 -1.0459
   83SOL    HW2  249   1.286   1.880   0.721  0.3881  0.1744  0.0250
   84SOL     OW  250   0.181   1.502   2.718 -0.5187 -0.0406  0.2905
   84SOL    HW1  251   0.245   1.455   2.653 -1.6264  1.3265  1.8653
   84SOL    HW2  252   0.091   1.530   2.670 -3.4456  0.9977 -0.9880
   85SOL     OW  253   0.333   2.277   1.124 -0.4226  0.3120  0.8617
   85SOL    HW1  254   0.245   2.332   1.103  0.1332 -2.9348  1.1397
   85SOL    HW2  255   0.408   2.345   1.143 -0.0612  2.5272  0.8721
   86SOL     OW  256   2.336   2.367   1.467  0.2278  0.6210  0.1495
   86SOL    HW1  257   2.411   2.424   1.510 -0.6033  2.0293  0.7134
   86SOL    HW2  258   2.303   2.297   1.534 -1.4614 -0.9913 -0.5792
   87SOL     OW  259   2.948   2.144   0.776 -0.0954 -0.4356  0.4509
   87SOL    HW1  260   2.990   2.143   0.866 -0.4007  0.3075  0.0680
   87SOL    HW2  261   3.015   2.141   0.696  1.9648  1.0992 -0.2077
   88SOL     OW  262   0.988   1.115   1.196 -0.1140 -0.1126 -0.0533
   88SOL    HW1  263   0.961   1.176   1.118  0.3100 -0.4296 -0.4972
   88SOL    HW2  264   0.970   1.018   1.184 -0.4805  1.0296 -0.7741
   89SOL     OW  265   1.018   0.074   2.149  0.3462  0.2876 -0.4525
   89SOL    HW1  266   1.030   0.095   2.246 -0.5274  0.5378 -0.1126
   89SOL    HW2  267   0.958   3.072   2.134 -1.3813 -1.6591 -0.0126
   90SOL     OW  268   3.071   2.075   1.501 -0.4149 -0.7789  1.0198
   90SOL    HW1  269   0.003   1.980   1.531  0.2530  2.7727 -0.4421
   90SOL    HW2  270   0.055   2.143   1.534 -2.4165  0.7633 -0.2974
   91SOL     OW  271   1.371   2.015   1.719  0.4503 -0.5325  0.0337
   91SOL    HW1  272   1.358   1.970   1.805  2.6741 -0.2797  0.3262
   91SOL    HW2  273   1.386   1.949   1.644 -0.2795 -1.4003 -0.0124
   92SOL     OW  274   2.700   2.777   1.422 -0.2468  0.1534  0.3517
   92SOL    HW1  275   2.629   2.717   1.383  0.6457  0.1908  2.5147
   92SOL    HW2  276   2.665   2.836   1.498  0.8607  0.4572 -1.8805
   93SOL     OW  277   2.847   1.271   2.662  0.3610  0.0599 -0.3089
   93SOL    HW1  278   2.822   1.196   2.598  2.5128  0.6741  0.4141
   93SOL    HW2  279   2.806   1.258   2.752  0.6460 -2.7712  0.8578
   94SOL     OW  280   2.753   2.493   1.838  0.1575 -0.1009  0.4328
   94SOL    HW1  281   2.850   2.468   1.851  1.2770  0.7880 -0.2466
   94SOL    HW2  282   2.749   2.594   1.810 -0.9110  1.1798 -3.2350
   95SOL     OW  283   1.349   0.583   2.080  0.2000 -0.3216  0.3327
   95SOL    HW1  284   1.416   0.527   2.129 -1.4474  0.0274 -1.0544
   95SOL    HW2  285   1.360   0.685   2.105  1.8357 -2.2171  0.3978
   96SOL     OW  286   2.401   0.796   1.563 -0.5412 -0.2348 -0.1086
   96SOL    HW1  287   2.480   0.733   1.584  1.8734 -1.7469  1.3147
   96SOL    HW2  288   2.316   0.740   1.555  2.4441  0.7120  0.8873
   97SOL     OW  289   1.815   0.455   1.759  0.0746  0.6989 -0.0881
   97SOL    HW1  290   1.762   0.416   1.680  1.7162 -0.8119 -0.5610
   97SOL    HW2  291   1.847   0.545   1.729  0.6457  2.8407 -1.6616
   98SOL     OW  292   1.838   2.894   1.285  0.5959  0.8362  0.3290
   98SOL    HW1  293   1.912   2.957   1.320  1.2171  1.0653  2.0360
   98SOL    HW2  294   1.793   2.833   1.359  0.5997 -1.2617  0.9606
   99SOL     OW  295   2.591   0.044   1.941  0.2329 -0.5675  0.4217
   99SOL    HW1  296   2.683   0.044   1.985  0.1020  0.7374  1.6793
   99SOL    HW2  297   2.539   0.131   1.959  0.3466 -0.2787 -0.5281
  100SOL     OW  298   2.287   1.511   1.783 -0.1111 -0.7477  0.3277
  100SOL    HW1  299   2.262   1.512   1.684 -1.7690  0.7189 -1.6088
  100SOL    HW2  300   2.355   1.439   1.805 -2.5756  3.6236 -0.9113
  101SOL     OW  301   1.426   0.229   0.784  0.2082  0.0030 -0.1950
  101SOL    HW1  302   1.348   0.173   0.820  0.3431  3.1051  3.7881
  101SOL    HW2  303   1.505   0.236   0.846 -0.4386 -1.0416 -0.2657
  102SOL     OW  304   0.424   0.978   1.088 -0.1770  0.2980 -0.0604
  102SOL    HW1  305   0.347   1.040   1.077  3.4710  1.6795  2.1874
  102SOL    HW2  306   0.446   0.977   1.189  2.1845 -0.3993  1.6906
  103SOL     OW  307   2.902   0.486   3.037 -0.3001 -0.0413  0.3695
  103SOL    HW1  308   2.882   0.389   3.061  0.2586  1.6787  3.7832
  103SOL    HW2  309   2.920   0.538   0.039  2.2944  0.0267 -0.5318
  104SOL     OW  310   2.630   0.142   1.695 -0.3038 -0.8640  0.5146
  104SOL    HW1  311   2.727   0.179   1.704  0.3409  0.8667 -0.7896
  104SOL    HW2  312   2.601   0.108   1.789 -0.3411  0.8634  1.0990
  105SOL     OW  313   1.875   0.618   2.138  0.2830  0.7458  0.0153
  105SOL    HW1  314   1.865   0.589   2.235 -0.3314  4.1104 -0.7510
  105SOL    HW2  315   1.791   0.663   2.104 -1.4311 -2.9221 -0.0558
  106SOL     OW  316   1.651   0.214   0.967  0.0206 -0.1318 -0.3781
  106SOL    HW1  317   1.739   0.160   0.973  1.4879  0.3496  1.3324
  106SOL    HW2  318   1.576   0.168   1.021 -0.7443  0.2494 -0.3649
  107SOL     OW  319   0.739   1.168   0.792 -0.5335 -0.2040  0.0654
  107SOL    HW1  320   0.730   1.266   0.752 -0.5706  2.2880  0.9807
  107SOL    HW2  321   0.650   1.123   0.799  2.2171 -2.7068 -0.7679
  108SOL     OW  322   2.855   0.087   2.040 -0.4201  0.2300 -0.3414
  108SOL    HW1  323   2.900   0.164   1.995 -0.5193  0.2182  0.7229
  108SOL    HW2  324   2.914   0.001   2.030  0.8299 -2.5715 -1.0425
  109SOL     OW  325   1.915   0.411   0.174 -0.5877 -0.3479  0.5219
  109SOL    HW1  326   1.858   0.477   0.124  1.2830 -0.8423 -1.3161
  109SOL    HW2  327   1.879   0.386   0.267 -0.7177 -1.1783 -2.0080
  110SOL     OW  328   0.221   2.167   2.758 -0.1031  0.0028 -0.6498
  110SOL    HW1  329   0.179   2.255   2.717 -2.8889  0.3661 -1.6930
  110SOL    HW2  330   0.157   2.128   2.826  1.4978 -0.2419 -0.0404
  111SOL     OW  331   2.184   3.082   1.963  0.5058  0.1582 -0.4680
  111SOL    HW1  332   2.148   0.069   2.032 -2.5147  2.1206  1.1707
  111SOL    HW2  333   2.112   3.064   1.895  1.0523  0.9488  0.2130
  112SOL     OW  334   2.368   2.778   0.409 -0.7393 -0.6487 -0.5880
  112SOL    HW1  335   2.347   2.861   0.359  0.4677 -0.5332  1.5060
  112SOL    HW2  336   2.303   2.772   0.488  0.1547  0.7974  3.2565
  113SOL     OW  337   2.509   1.896   1.640 -0.4562  0.2618  0.2594
  113SOL    HW1  338   2.574   1.914   1.719  3.8614 -0.1265  1.7173
  113SOL    HW2  339   2.560   1.939   1.562  0.0368  1.5537  0.7975
  114SOL     OW  340   2.722   0.860   0.736 -0.8367  1.0103 -0.2842
  114SOL    HW1  341   2.667   0.784   0.773 -4.2760 -1.7088  0.4140
  114SOL    HW2  342   2.818   0.837   0.714  0.4318 -2.4984  0.1993
  115SOL     OW  343   3.024   1.867   0.263  0.3199  0.4071 -0.8702
  115SOL    HW1  344   0.017   1.812   0.312  1.7800 -1.9245 -0.9976
  115SOL    HW2  345   2.979   1.806   0.193 -0.1160 -0.8113 -0.7401
  116SOL     OW  346   3.033   1.629   1.971 -0.1276 -0.1064  0.3059
  116SOL    HW1  347   2.948   1.577   1.947 -0.9223 -3.5078 -1.3379
  116SOL    HW2  348   0.001   1.575   2.046  0.6347  1.1003  1.0790
  117SOL     OW  349   2.578   0.025   0.507 -0.1098 -0.1775  0.5904
  117SOL    HW1  350   2.496   0.042   0.571  0.2379  0.0782  2.1056
  117SOL    HW2  351   2.545   0.011   0.413 -2.9660 -1.1432  0.3786
  118SOL     OW  352   0.558   2.253   1.602  0.1680 -0.1295  0.2737
  118SOL    HW1  353   0.651   2.213   1.627  2.5537  0.0588  0.2040
  118SOL    HW2  354   0.568   2.344   1.556 -1.7491  0.1697 -1.5646
  119SOL     OW  355   1.861   2.297   1.174  0.2619 -0.3322 -0.0556
  119SOL    HW1  356   1.934   2.229   1.198 -2.0540 -0.3337 -0.9754
  119SOL    HW2  357   1.840   2.361   1.251 -0.5556  0.8770  2.3456
  120SOL     OW  358   0.157   1.669   2.368  0.2221  0.3507  0.3152
  120SOL    HW1  359   0.249   1.635   2.393  0.2846  0.4212 -0.5322
  120SOL    HW2  360   0.164   1.763   2.327  0.8271  1.0318 -0.5270
  121SOL     OW  361   2.803   1.771   1.268 -0.0110  0.2152 -0.3995
  121SOL    HW1  362   2.869   1.761   1.342 -0.4893  1.0841 -4.1026
  121SOL    HW2  363   2.840   1.709   1.191 -0.9119  0.3199 -0.2950
  122SOL     OW  364   2.089   1.429   2.225 -0.4976  0.3085 -0.1662
  122SOL    HW1  365   2.180   1.402   2.260 -0.3825 -0.5113 -2.8330
  122SOL    HW2  366   2.063   1.521   2.253  1.8750 -0.9391  0.3309
  123SOL     OW  367   0.012   0.046   0.725 -0.0794  0.3011 -0.3991
  123SOL    HW1  368   3.031   0.055   0.804 -0.5416  2.5825 -2.1654
  123SOL    HW2  369   0.043   3.029   0.715  0.6160 -2.3104  0.4958
  124SOL     OW  370   1.376   1.181   2.620  0.4776 -0.0823  0.2897
  124SOL    HW1  371   1.328   1.152   2.532 -1.3690 -1.7050 -1.6844
  124SOL    HW2  372   1.377   1.102   2.682 -0.9939  0.5816  0.6887
  125SOL     OW  373   0.542   1.474   2.673 -0.0274  0.1133 -0.0594
  125SOL    HW1  374   0.642   1.484   2.684 -3.2139 -0.2260 -3.2617
  125SOL    HW2  375   0.518   1.402   2.741 -1.0787 -1.6877 -1.9854
  126SOL     OW  376   2.891   2.127   0.227 -0.1401 -0.3966  0.1686
  126SOL    HW1  377   2.886   2.178   0.314 -0.8182 -0.2488  2.0015
  126SOL    HW2  378   2.955   2.044   0.240 -2.3352 -1.9414 -0.2892
  127SOL     OW  379   0.684   1.684   0.620  1.0289  0.0200  0.6184
  127SOL    HW1  380   0.731   1.707   0.704 -0.1129  1.2552 -0.0185
  127SOL    HW2  381   0.584   1.680   0.640  1.3364 -1.1646  0.3625
  128SOL     OW  382   1.306   0.916   0.203  0.5843 -0.2890  0.1540
  128SOL    HW1  383   1.375   0.850   0.166  0.6272  1.8410  0.5302
  128SOL    HW2  384   1.354   0.994   0.250  0.7992 -1.2068 -2.7764
  129SOL     OW  385   2.348   1.784   1.131  0.3311 -0.7602 -0.0318
  129SOL    HW1  386   2.289   1.753   1.050 -2.6389 -3.6563 -4.5515
  129SOL    HW2  387   2.363   1.885   1.119  1.0231  1.2510  2.3811
  130SOL     OW  388   2.020   1.491   0.803  0.2579 -0.1769 -0.1567
  130SOL    HW1  389   1.975   1.489   0.707  1.4995 -0.8195 -3.2314
  130SOL    HW2  390   1.950   1.512   0.874  0.9188  1.4619 -1.7968
  131SOL     OW  391   0.076   0.832   2.465  0.3993 -0.0679  0.5091
  131SOL    HW1  392   0.027   0.910   2.418  0.8446 -1.9072  1.2764
  131SOL    HW2  393   0.108   0.861   2.558  1.9875  0.0178  1.8770
  132SOL     OW  394   2.229   1.789   1.830  0.5412  0.0371  0.2675
  132SOL    HW1  395   2.241   1.865   1.767  2.5790  0.6883 -0.6311
  132SOL    HW2  396   2.261   1.702   1.789 -1.8199  0.2677  2.3382
  133SOL     OW  397   0.031   1.152   3.000  0.1536  0.3331 -0.3269
  133SOL    HW1  398   3.026   1.188   3.044 -1.3843 -0.3469  1.5254
  133SOL    HW2  399   0.017   1.129   2.905 -0.2025  0.1898  1.0278
  134SOL     OW  400   0.198   1.390   2.949  0.1872  0.4163 -0.2434
  134SOL    HW1  401   0.113   1.327   2.963 -2.8682 -2.3759  0.2095
  134SOL    HW2  402   0.181   1.452   2.866  0.6937  1.9056 -0.0766
  135SOL     OW  403   2.250   1.396   0.477 -0.5998 -0.0496 -0.3311
  135SOL    HW1  404   2.193   1.435   0.401  2.5435 -1.4973 -0.2954
  135SOL    HW2  405   2.325   1.456   0.512 -0.1470 -0.5774  1.5230
  136SOL     OW  406   1.924   1.365   1.365  0.0787 -0.0651  0.0737
  136SOL    HW1  407   1.994   1.418   1.313  2.3629  1.3628  1.6378
  136SOL    HW2  408   1.862   1.427   1.415  2.3404 -3.4806  0.4985
  137SOL     OW  409   2.508   2.324   0.735 -0.2542  0.5836  0.4614
  137SOL    HW1  410   2.467   2.231   0.750 -0.2218 -0.6358 -0.4369
  137SOL    HW2  411   2.570   2.323   0.652  0.0882 -1.5841 -2.5072
  138SOL     OW  412   1.370   0.270   1.509  0.1190  0.3516  0.3919
  138SOL    HW1  413   1.411   0.178   1.510  0.3469 -1.3828 -1.4165
  138SOL    HW2  414   1.273   0.261   1.540  0.1980  0.6117  1.0118
  139SOL     OW  415   2.614   0.110   2.915  0.0279  0.1801 -0.1803
  139SOL    HW1  416   2.603   0.210   2.892  0.9919  0.1620  1.9375
  139SOL    HW2  417   2.680   0.109   2.993  1.2405 -1.2118 -1.3857
  140SOL     OW  418   1.770   2.001   2.703  0.1703 -0.1901  0.0231
  140SOL    HW1  419   1.815   2.076   2.641  2.1398  3.6448 -1.9628
  140SOL    HW2  420   1.819   1.998   2.795  3.0712 -0.5230 -0.7852
  141SOL     OW  421   0.654   0.921   1.579  0.1228  0.1501  0.3735
  141SOL    HW1  422   0.591   0.947   1.658  1.9134  0.3811  1.4501
  141SOL    HW2  423   0.756   0.916   1.610  2.2106  0.3903 -3.4777
  142SOL     OW  424   2.572   2.920   0.105  0.2252 -0.4658 -0.2182
  142SOL    HW1  425   2.495   2.865   0.064 -0.5548  0.9943  0.1254
  142SOL    HW2  426   2.660   2.918   0.056 -1.1094 -1.5134  4.1793
  143SOL     OW  427   0.886   2.151   2.716 -0.2259 -0.2331  0.4108
  143SOL    HW1  428   0.885   2.193   2.623  1.3944  1.6897 -1.6011
  143SOL    HW2  429   0.794   2.158   2.760  0.2800  0.8625 -0.6791
  144SOL     OW  430   1.002   2.801   3.067  0.0679 -0.4203  0.0818
  144SOL    HW1  431   1.035   2.842   2.976  0.8327  2.6263 -0.4385
  144SOL    HW2  432   1.049   2.713   3.082  0.2401 -0.2823 -0.5836
  145SOL     OW  433   2.423   1.757   0.112  0.4568  0.0115 -0.2500
  145SOL    HW1  434   2.418   1.788   0.207 -1.0367 -1.4730 -1.5278
  145SOL    HW2  435   2.487   1.809   0.055  1.5915 -0.0659 -0.3148
  146SOL     OW  436   2.718   2.685   2.949  0.0160  0.6883 -0.2686
  146SOL    HW1  437   2.757   2.754   3.013 -0.2106 -1.2356  0.9035
  146SOL    HW2  438   2.802   2.645   2.905  5.1730  0.2478 -1.1732
  147SOL     OW  439   2.614   1.961   1.385  0.2137  0.2784 -0.3416
  147SOL    HW1  440   2.636   2.042   1.331  0.4708  0.4110 -0.5083
  147SOL    HW2  441   2.640   1.876   1.335  0.4973  1.7010 -0.7706
  148SOL     OW  442   1.614   0.362   0.179 -0.6360  0.2274  0.3008
  148SOL    HW1  443   1.632   0.427   0.099 -0.9968  0.9596 -1.5444
  148SOL    HW2  444   1.588   0.271   0.144 -0.0569  1.6669 -1.6742
  149SOL     OW  445   1.012   1.538   2.675 -0.3238  0.3589  0.3463
  149SOL    HW1  446   1.053   1.446   2.699  0.5958 -2.6701  2.2892
  149SOL    HW2  447   0.938   1.515   2.608 -0.1179 -1.7455 -1.1488
  150SOL     OW  448   1.009   2.175   0.589  0.1313 -0.0313 -0.5627
  150SOL    HW1  449   1.003   2.159   0.694 -1.1457 -0.5229  2.7408
  150SOL    HW2  450   1.092   2.127   0.559  0.9301 -1.4575  1.3731
  151SOL     OW  451   0.529   1.698   2.872  0.2524 -0.4017  0.5548
  151SOL    HW1  452   0.542   1.611   2.926 -0.9681 -3.8966 -1.8961
  151SOL    HW2  453   0.578   1.692   2.782  1.3692  0.7689  0.5978
  152SOL     OW  454   2.625   1.277   0.402  0.7326  0.1215 -0.2431
  152SOL    HW1  455   2.658   1.351   0.341  2.0623 -0.6920 -1.8246
  152SOL    HW2  456   2.689   1.198   0.412  0.8687  2.0455  2.4512
  153SOL     OW  457   2.200   2.496   0.746  0.0940 -0.6260  0.5580
  153SOL    HW1  458   2.270   2.426   0.777 -0.5435  0.0035  2.5106
  153SOL    HW2  459   2.114   2.493   0.799  1.6099 -0.4579  0.5311
  154SOL     OW  460   0.604   3.053   1.003  0.2604  0.0148  0.3644
  154SOL    HW1  461   0.669   0.038   1.039 -2.1775  0.6884  2.6850
  154SOL    HW2  462   0.656   2.984   0.952  1.1260 -0.8023  1.6371
  155SOL     OW  463   0.295   2.127   0.821  0.0404  0.9135  0.2359
  155SOL    HW1  464   0.388   2.138   0.861  1.3924  0.2990 -0.7819
  155SOL    HW2  465   0.221   2.169   0.877  1.2914  1.7381 -2.1648
  156SOL     OW  466   2.670   2.440   0.003  0.0395 -0.0643 -0.3547
  156SOL    HW1  467   2.717   2.356   3.046 -2.1901 -0.0446 -2.5853
  156SOL    HW2  468   2.706   2.524   3.044  0.8744 -0.6977  1.3597
  157SOL     OW  469   1.081   2.117   1.379 -0.4251  0.4822  0.2174
  157SOL    HW1  470   1.038   2.207   1.370  0.2728 -0.0320 -0.4682
  157SOL    HW2  471   1.040   2.054   1.311  1.7155  1.4048 -0.4222
  158SOL     OW  472   1.718   0.550   3.064 -0.2073  0.0645 -0.3095
  158SOL    HW1  473   1.664   0.500   2.994 -3.2650  0.4805 -0.2010
  158SOL    HW2  474   1.759   0.630   3.015 -2.6842  0.5036 -0.0313
  159SOL     OW  475   0.886   0.359   0.008  0.6947  0.2045  0.0319
  159SOL    HW1  476   0.877   0.408   0.098 -2.4904  0.9617  0.8556
  159SOL    HW2  477   0.984   0.352   3.082 -2.8870 -0.5689  0.8332
  160SOL     OW  478   1.211   1.451   3.033 -0.0238  0.4755 -0.3164
  160SOL    HW1  479   1.189   1.549   3.049 -1.8551 -2.1811  0.6179
  160SOL    HW2  480   1.169   1.391   0.025  1.0233 -2.3326 -2.8154
  161SOL     OW  481   3.049   2.099   2.882  0.3731  0.0093  0.0569
  161SOL    HW1  482   2.990   2.061   2.806 -1.4272 -0.1188 -0.4426
  161SOL    HW2  483   0.022   2.020   2.924  0.5173 -2.1762  0.6544
  162SOL     OW  484   0.640   2.681   0.865 -0.8721  0.6382 -0.0700
  162SOL    HW1  485   0.682   2.771   0.866 -2.3080 -0.6497  0.8851
  162SOL    HW2  486   0.564   2.685   0.936  1.4904  2.0731  1.2515
  163SOL     OW  487   2.906   1.279   0.040 -0.4006 -0.0323  0.1962
  163SOL    HW1  488   2.945   1.354   0.096 -3.2330 -0.2483 -1.2309
  163SOL    HW2  489   2.887   1.197   0.090  1.1591  0.8379 -1.1303
  164SOL     OW  490   0.184   2.822   2.858 -0.0484  0.1925 -0.0601
  164SOL    HW1  491   0.172   2.736   2.916  3.2664  1.3946  1.3581
  164SOL    HW2  492   0.279   2.837   2.823  2.4164  1.8680 -1.1599
  165SOL     OW  493   2.218   0.324   1.262  0.1420  0.0056 -0.1876
  165SOL    HW1  494   2.236   0.424   1.246  2.3605 -2.0702  0.8032
  165SOL    HW2  495   2.172   0.278   1.183  0.6863 -1.4671 -0.0649
  166SOL     OW  496   1.934   0.294   1.407  0.6896  0.0116  0.6949
  166SOL    HW1  497   1.914   0.196   1.424 -1.3302  0.5122  0.8691
  166SOL    HW2  498   2.030   0.318   1.389 -2.2160  1.9304 -1.4937
  167SOL     OW  499   1.081   0.161   1.916  0.0046 -0.0871 -0.7250
  167SOL    HW1  500   1.119   0.255   1.918  0.4357 -1.0656  0.7249
  167SOL    HW2  501   1.067   0.125   2.013 -0.8697  1.1429  1.2365
  168SOL     OW  502   2.457   0.277   1.953  0.0979  0.0211  0.0037
  168SOL    HW1  503   2.501   0.367   1.942  0.5064 -1.6013  0.9627
  168SOL    HW2  504   2.376   0.267   1.892  2.5392  0.8899 -0.7070
  169SOL     OW  505   0.388   1.384   0.076 -0.1371 -0.4157  0.4279
  169SOL    HW1  506   0.321   1.390   0.001  1.6712  0.9382  0.6761
  169SOL    HW2  507   0.397   1.291   0.119 -0.4269 -0.4413 -0.7569
  170SOL     OW  508   0.091   1.361   1.663  0.2055  0.0731 -0.4156
  170SOL    HW1  509   0.056   1.298   1.736 -4.1254 -0.8775 -0.4345
  170SOL    HW2  510   0.054   1.455   1.674 -1.1731 -1.1912 -1.3058
  171SOL     OW  511   1.266   2.298   2.034 -0.1330  0.4669  0.8783
  171SOL    HW1  512   1.210   2.359   1.971 -1.0690 -2.4632  0.0736
  171SOL    HW2  513   1.219   2.205   2.034 -3.0011  1.3101 -0.3832
  172SOL     OW  514   0.444   2.471   1.432  0.1651 -0.3792 -0.3024
  172SOL    HW1  515   0.423   2.562   1.481 -0.8953  3.6924  0.8735
  172SOL    HW2  516   0.492   2.481   1.341  2.5919 -2.1797 -0.3264
  173SOL     OW  517   1.370   2.491   0.892 -0.1039 -0.2597 -0.0229
  173SOL    HW1  518   1.415   2.499   0.799 -2.1359 -0.0564  1.7742
  173SOL    HW2  519   1.275   2.456   0.894  1.9950  2.1927 -1.1915
  174SOL     OW  520   1.251   0.096   0.136 -0.3490 -0.4662  0.1806
  174SOL    HW1  521   1.209   0.154   0.206  1.3008  2.6004 -0.4271
  174SOL    HW2  522   1.241   3.080   0.163  0.3914  1.1653  0.9311
  175SOL     OW  523   0.890   1.004   2.839  0.6971 -0.3244 -0.0866
  175SOL    HW1  524   0.919   1.054   2.922  0.2308 -2.8868  0.5151
  175SOL    HW2  525   0.966   1.017   2.773  1.3242  0.7873  1.4563
  176SOL     OW  526   1.718   0.739   0.344  0.3875  1.0808 -0.8056
  176SOL    HW1  527   1.821   0.738   0.333 -0.6455 -2.2932 -0.4983
  176SOL    HW2  528   1.683   0.762   0.437 -2.2927 -1.6103 -1.4249
  177SOL     OW  529   1.297   0.787   0.964  1.0165 -0.3383  0.2061
  177SOL    HW1  530   1.198   0.816   0.952  0.8550 -1.2347 -0.2589
  177SOL    HW2  531   1.326   0.806   1.061 -0.0065  0.4825 -0.4433
  178SOL     OW  532   2.585   1.535   2.831  0.0729 -0.3059  0.2858
  178SOL    HW1  533   2.615   1.443   2.867  0.0586 -1.3106 -2.3169
  178SOL    HW2  534   2.520   1.518   2.749  2.2045  2.4062 -1.7682
  179SOL     OW  535   0.704   2.544   2.989  0.6520  0.5828 -0.2972
  179SOL    HW1  536   0.744   2.609   2.922  0.1511  0.6299 -2.4569
  179SOL    HW2  537   0.774   2.516   3.061  1.8266  0.4910  1.2610
  180SOL     OW  538   1.917   1.755   1.677 -0.3188  0.0768 -0.2976
  180SOL    HW1  539   1.930   1.796   1.584 -2.6318  2.1939  0.6102
  180SOL    HW2  540   1.878   1.660   1.674  0.2356 -3.4920 -0.6189
  181SOL     OW  541   1.147   1.244   2.172 -0.0047  0.0879  0.5988
  181SOL    HW1  542   1.050   1.257   2.150  0.3704  2.6495  0.0534
  181SOL    HW2  543   1.197   1.330   2.147  2.8291  0.2287  1.7088
  182SOL     OW  544   0.319   0.708   2.417  0.4008  0.1034 -0.5480
  182SOL    HW1  545   0.385   0.786   2.402 -1.7281 -0.0690 -1.9801
  182SOL    HW2  546   0.225   0.740   2.440 -0.5654  0.7095 -0.2719
  183SOL     OW  547   1.514   0.413   2.220  0.1580  0.3170 -0.6943
  183SOL    HW1  548   1.431   0.377   2.270 -1.1632  0.1634 -0.3025
  183SOL    HW2  549   1.578   0.455   2.286 -1.7934  1.1807  1.7424
  184SOL     OW  550   0.065   0.536   1.481 -0.3992  0.1431 -0.0078
  184SOL    HW1  551   0.047   0.578   1.384 -0.9000 -1.2912  1.3351
  184SOL    HW2  552   3.079   0.466   1.506 -1.0419  0.6911  0.4292
  185SOL     OW  553   2.523   1.688   0.814 -0.2633  0.2099  0.0666
  185SOL    HW1  554   2.528   1.787   0.839 -0.1815 -0.7552 -0.8607
  185SOL    HW2  555   2.602   1.650   0.863 -2.3645 -1.2313 -0.6038
  186SOL     OW  556   0.454   1.817   2.501 -0.1632  0.1194  0.2008
  186SOL    HW1  557   0.419   1.744   2.439 -1.5160  1.1593 -0.7646
  186SOL    HW2  558   0.383   1.868   2.550  0.5003  0.7033  1.5082
  187SOL     OW  559   2.559   1.959   3.050 -0.7591  0.0672  0.5965
  187SOL    HW1  560   2.651   1.999   3.025  1.4496  2.7468 -1.7170
  187SOL    HW2  561   2.486   2.021   3.079  0.5983 -2.0530  1.0950
  188SOL     OW  562   0.817   2.192   0.039  0.3250 -0.2774 -0.4533
  188SOL    HW1  563   0.878   2.119   0.072  1.6520  0.1570 -0.6622
  188SOL    HW2  564   0.729   2.183   0.088  2.3517 -0.4389 -2.2537
  189SOL     OW  565   2.249   0.951   3.038 -0.3924 -0.0023 -0.1461
  189SOL    HW1  566   2.229   0.975   2.941  0.3870 -0.3057 -0.6374
  189SOL    HW2  567   2.253   1.036   0.012  0.1758 -1.8042 -0.5164
  190SOL     OW  568   0.861   1.795   1.951 -0.2138 -0.5521 -0.2992
  190SOL    HW1  569   0.797   1.865   1.923  1.9534 -1.1967  1.9147
  190SOL    HW2  570   0.951   1.813   1.909 -0.2899  0.3716  2.0849
  191SOL     OW  571   2.175   0.659   1.566 -0.1129  0.1635  0.6242
  191SOL    HW1  572   2.163   0.622   1.659  0.1013 -2.9422 -2.0773
  191SOL    HW2  573   2.083   0.648   1.519  0.3021 -0.0251 -2.1507
  192SOL     OW  574   1.889   0.021   1.628 -0.4253  0.0754 -0.1817
  192SOL    HW1  575   1.849   0.070   1.712 -0.2200 -0.4755  1.9834
  192SOL    HW2  576   1.844   0.051   1.540  0.4364  0.9499 -2.1009
  193SOL     OW  577   0.161   0.761   0.891 -0.3030  0.0899  0.0542
  193SOL    HW1  578   0.177   0.781   0.990 -2.1112  3.1687  0.4546
  193SOL    HW2  579   0.215   0.676   0.871  0.8285 -1.4414 -0.4670
  194SOL     OW  580   1.574   2.514   1.479  0.2450  0.2618 -0.2621
  194SOL    HW1  581   1.474   2.510   1.472  1.9133  0.2044  1.6651
  194SOL    HW2  582   1.609   2.451   1.557  2.3034 -0.9327  0.8973
  195SOL     OW  583   2.703   0.636   0.969 -0.0279 -0.0503  0.8387
  195SOL    HW1  584   2.796   0.612   0.944  0.0711 -0.3527  1.5514
  195SOL    HW2  585   2.700   0.730   1.003 -1.7096 -0.6828 -0.7995
  196SOL     OW  586   1.535   2.259   1.939 -0.7710 -0.0398 -0.1230
  196SOL    HW1  587   1.593   2.269   2.028  2.6774  0.2154  0.7499
  196SOL    HW2  588   1.441   2.248   1.965 -0.9839 -0.7567 -0.0291
  197SOL     OW  589   0.140   3.078   2.771  0.0526  0.0614 -0.0391
  197SOL    HW1  590   0.163   2.991   2.823 -0.2762 -1.2452 -1.4131
  197SOL    HW2  591   0.078   0.055   2.825  0.6215  0.6827  0.4135
  198SOL     OW  592   1.131   1.161   0.701 -0.3095 -0.2021  0.1638
  198SOL    HW1  593   1.232   1.133   0.705  0.9574 -1.2292 -0.5411
  198SOL    HW2  594   1.079   1.074   0.702  1.0722 -1.3332 -1.6129
  199SOL     OW  595   2.695   1.038   1.745  0.2438 -0.6116 -0.4079
  199SOL    HW1  596   2.755   0.978   1.691  0.0324 -0.0723 -1.0620
  199SOL    HW2  597   2.598   1.018   1.721  3.2111 -0.1018  0.4298
  200SOL     OW  598   2.247   2.694   2.336  0.2241  0.1446 -0.5580
  200SOL    HW1  599   2.263   2.774   2.281  1.9690 -2.9463  1.5135
  200SOL    HW2  600   2.252   2.725   2.436  0.1304  0.8488 -1.9484
  201SOL     OW  601   2.509   0.311   1.532  0.5227 -0.0479  0.4542
  201SOL    HW1  602   2.561   0.246   1.589  1.1138  0.3592 -0.8731
  201SOL    HW2  603   2.525   0.299   1.428 -1.8888 -0.9780 -2.6552
  202SOL     OW  604   2.237   2.991   0.281 -0.2538  0.2071 -0.0749
  202SOL    HW1  605   2.218   3.047   0.200  0.3295 -0.8351  1.4964
  202SOL    HW2  606   2.164   3.002   0.351  1.3007 -0.0725 -0.7099
  203SOL     OW  607   1.296   1.962   2.209  0.0043  0.1588 -0.5029
  203SOL    HW1  608   1.212   2.012   2.176 -1.0297  0.5926  3.6626
  203SOL    HW2  609   1.378   2.022   2.234  1.4416 -2.8687 -1.4905
  204SOL     OW  610   0.814   1.484   2.502  0.0712 -0.0194  0.1683
  204SOL    HW1  611   0.771   1.392   2.518 -2.1919 -1.5439  0.8254
  204SOL    HW2  612   0.822   1.492   2.400 -0.1979 -0.8271  2.2749
  205SOL     OW  613   1.144   1.746   1.397 -0.6259 -0.2894 -0.4414
  205SOL    HW1  614   1.167   1.769   1.305  0.2291  1.1029  0.3968
  205SOL    HW2  615   1.095   1.655   1.403  0.7735 -0.0548  0.6989
  206SOL     OW  616   0.188   0.389   2.764  0.0961 -0.8847  0.1330
  206SOL    HW1  617   0.165   0.339   2.683  1.9821  1.7687 -0.2626
  206SOL    HW2  618   0.194   0.330   2.845  3.9671 -0.7195  1.7724
  207SOL     OW  619   1.738   2.710   2.435  0.1628  0.0701 -0.4358
  207SOL    HW1  620   1.694   2.771   2.507 -2.7475 -0.0969  0.1176
  207SOL    HW2  621   1.817   2.753   2.388  0.5822 -1.7857  0.2044
  208SOL     OW  622   0.783   2.401   1.046  0.2079  0.3226 -0.4883
  208SOL    HW1  623   0.874   2.420   1.084 -2.3646 -3.0989 -0.2033
  208SOL    HW2  624   0.786   2.403   0.942  1.2530 -0.1704  2.1158
  209SOL     OW  625   1.185   1.121   2.407  0.2770 -0.4575 -0.5212
  209SOL    HW1  626   1.174   1.161   2.313 -0.2210 -0.3825  1.3062
  209SOL    HW2  627   1.096   1.092   2.448 -1.6318 -1.5216  0.8650
  210SOL     OW  628   1.960   0.791   1.264  0.2679  0.2570  0.3354
  210SOL    HW1  629   2.047   0.828   1.298  0.8626  0.2981  0.2352
  210SOL    HW2  630   1.963   0.754   1.168  0.5412  2.3962 -2.9882
  211SOL     OW  631   0.888   2.615   0.508 -0.2215  0.3809  0.1834
  211SOL    HW1  632   0.923   2.648   0.417 -0.1545  1.5673  1.6629
  211SOL    HW2  633   0.966   2.620   0.576  0.5624  2.2072  1.0192
  212SOL     OW  634   1.849   1.828   0.430  0.3563 -0.7687 -0.1386
  212SOL    HW1  635   1.771   1.894   0.438  2.6270 -2.2455 -0.1325
  212SOL    HW2  636   1.909   1.820   0.515 -1.7344 -0.7991  1.8426
  213SOL     OW  637   1.606   0.135   2.897  0.3979 -0.1161 -0.3798
  213SOL    HW1  638   1.578   0.139   2.997 -1.4089  1.3671  1.0345
  213SOL    HW2  639   1.709   0.130   2.888 -0.5679  0.4632 -1.4208
  214SOL     OW  640   1.143   1.550   2.126  0.2528  0.1071  0.0325
  214SOL    HW1  641   1.137   1.558   2.024  0.7509 -4.3981 -1.7946
  214SOL    HW2  642   1.100   1.633   2.167  2.9627 -0.5954  0.1312
  215SOL     OW  643   0.754   1.925   0.142 -0.0204 -0.0553 -0.0162
  215SOL    HW1  644   0.683   1.977   0.089 -2.7910  1.9298 -1.5263
  215SOL    HW2  645   0.710   1.877   0.220  2.4641 -1.0033 -0.4090
  216SOL     OW  646   0.151   2.762   2.182  0.1257 -0.4462  0.4031
  216SOL    HW1  647   0.244   2.722   2.188 -1.5052  0.8293 -0.2126
  216SOL    HW2  648   0.087   2.694   2.152  0.9222  1.4254  0.8219
  217SOL     OW  649   2.401   0.884   0.987 -0.2235  0.1322  0.6361
  217SOL    HW1  650   2.399   0.967   0.925 -1.6572 -1.2808  0.8644
  217SOL    HW2  651   2.341   0.808   0.952  1.8549  0.7967  0.8473
  218SOL     OW  652   1.600   1.558   2.000 -0.0297  0.0946 -0.8958
  218SOL    HW1  653   1.525   1.529   2.066 -0.8301 -0.4461 -2.4986
  218SOL    HW2  654   1.663   1.478   1.980  2.1361 -0.7982 -1.7103
  219SOL     OW  655   1.833   1.581   0.329 -0.2873  0.6134 -0.1168
  219SOL    HW1  656   1.797   1.551   0.236  0.9562 -1.8799 -0.2625
  219SOL    HW2  657   1.839   1.679   0.354 -1.1125  0.3918 -0.5279
  220SOL     OW  658   1.549   1.573   0.957 -0.1501 -0.0147  0.2032
  220SOL    HW1  659   1.494   1.590   0.879  1.7241 -2.7654  4.0432
  220SOL    HW2  660   1.610   1.654   0.976 -2.0572  0.8591 -0.5682
  221SOL     OW  661   0.795   0.497   2.871 -0.3186 -0.1229 -0.4778
  221SOL    HW1  662   0.843   0.586   2.864  0.5522  1.8072  2.6532
  221SOL    HW2  663   0.819   0.458   2.964 -0.0302 -0.2249  3.0913
  222SOL     OW  664   1.354   1.321   0.350  0.0583 -0.4526  0.0312
  222SOL    HW1  665   1.331   1.347   0.443 -0.1125  1.3577 -0.2337
  222SOL    HW2  666   1.273   1.328   0.287 -1.1363 -0.8414  2.7797
  223SOL     OW  667   1.073   0.135   3.011 -1.0820 -0.2083  0.3718
  223SOL    HW1  668   1.127   0.115   0.009 -1.6526  1.9175 -0.7225
  223SOL    HW2  669   0.971   0.124   3.028  0.5035 -3.5921 -1.8509
  224SOL     OW  670   2.240   0.101   1.453  0.6956 -0.6929 -0.4429
  224SOL    HW1  671   2.245   0.188   1.399 -1.2946  1.2689 -0.4461
  224SOL    HW2  672   2.236   0.114   1.555 -2.5826 -1.6761  1.8765
  225SOL     OW  673   0.394   3.042   1.181  0.1642 -0.4522  0.2664
  225SOL    HW1  674   0.327   0.037   1.176 -1.0274  1.0124  0.3039
  225SOL    HW2  675   0.457   3.044   1.099  1.5371  1.0328 -0.9563
  226SOL     OW  676   1.189   1.334   2.783 -0.4076 -0.2652  0.3550
  226SOL    HW1  677   1.260   1.290   2.727  0.1916  0.4480  2.0004
  226SOL    HW2  678   1.226   1.350   2.873  1.8976  1.4755 -1.3379
  227SOL     OW  679   1.224   1.701   1.089 -0.4300 -0.4105  0.3926
  227SOL    HW1  680   1.271   1.610   1.081 -0.8630 -1.6046 -1.0024
  227SOL    HW2  681   1.295   1.774   1.097 -2.0326 -2.2026  1.6913
  228SOL     OW  682   0.406   1.661   0.646 -0.3090  0.2032 -0.2578
  228SOL    HW1  683   0.429   1.579   0.590  1.1464 -1.2999  1.0069
  228SOL    HW2  684   0.318   1.640   0.703 -3.4455 -1.4248  2.5817
  229SOL     OW  685   1.201   0.398   3.078 -0.1449  0.0531 -0.6202
  229SOL    HW1  686   1.226   0.496   3.078  2.3100 -2.3210 -3.0879
  229SOL    HW2  687   1.279   0.339   0.005  0.6735  0.6816  0.5163
  230SOL     OW  688   1.655   0.486   2.491 -0.0087  0.1721  0.2996
  230SOL    HW1  689   1.641   0.386   2.480  1.9638 -1.4765  0.0384
  230SOL    HW2  690   1.752   0.508   2.468 -2.5178 -1.2131  0.4267
  231SOL     OW  691   1.128   1.859   2.386 -0.0669  0.1864  0.5607
  231SOL    HW1  692   1.047   1.821   2.341  1.8314 -0.9964 -0.8403
  231SOL    HW2  693   1.203   1.879   2.317  3.4419  1.7866 -1.3832
  232SOL     OW  694   2.440   2.052   0.774  0.1864 -0.3871  0.8529
  232SOL    HW1  695   2.377   2.073   0.846  1.8580 -1.9516 -0.0314
  232SOL    HW2  696   2.401   2.040   0.674 -1.4724 -2.9088 -2.3161
  233SOL     OW  697   2.645   2.737   0.311 -0.0831 -0.2903  0.2736
  233SOL    HW1  698   2.657   2.793   0.227 -0.4315 -1.5645 -0.5862
  233SOL    HW2  699   2.543   2.739   0.336 -1.8648 -0.8698  2.9587
  234SOL     OW  700   1.187   0.399   2.789  0.5794  0.2955  0.3268
  234SOL    HW1  701   1.180   0.500   2.788 -1.4803  2.7834 -0.2248
  234SOL    HW2  702   1.177   0.369   2.887 -1.8577 -0.2582  0.8476
  235SOL     OW  703   2.641   0.380   2.830  0.2815  0.5422 -0.5001
  235SOL    HW1  704   2.585   0.386   2.744  3.5098 -0.9525 -0.7401
  235SOL    HW2  705   2.670   0.469   2.871 -2.6339  0.1217  0.3492
  236SOL     OW  706   2.202   2.468   1.960 -0.2713  0.7515 -0.3624
  236SOL    HW1  707   2.158   2.513   2.037  2.1158 -1.4514 -0.1166
  236SOL    HW2  708   2.297   2.506   1.954 -1.8068  0.2422 -0.8936
  237SOL     OW  709   0.624   1.263   1.920 -0.2951  0.3387  0.1569
  237SOL    HW1  710   0.634   1.180   1.853 -0.2311 -1.5525  0.9227
  237SOL    HW2  711   0.644   1.348   1.866  1.9248  0.6137 -1.4897
  238SOL     OW  712   1.524   2.989   2.742 -0.1665  0.0297 -0.0157
  238SOL    HW1  713   1.544   3.071   2.798  1.1064 -0.2310  1.2618
  238SOL    HW2  714   1.605   2.925   2.732  0.3703 -0.2567  0.5406
  239SOL     OW  715   0.161   2.223   1.645  0.2054  0.1498 -0.1264
  239SOL    HW1  716   0.085   2.225   1.715 -2.4254 -0.1779  0.2738
  239SOL    HW2  717   0.254   2.218   1.691  1.1684 -1.8946 -0.1582
  240SOL     OW  718   0.008   2.402   0.741  0.4156 -0.0354  0.1794
  240SOL    HW1  719   2.994   2.417   0.713 -3.3678 -0.0433  2.5081
  240SOL    HW2  720   0.071   2.376   0.665 -2.4355  1.3841  0.0048
  241SOL     OW  721   2.339   1.081   0.772 -0.4377 -0.1771  0.6479
  241SOL    HW1  722   2.410   1.144   0.813 -0.7203 -2.4695 -0.9012
  241SOL    HW2  723   2.271   1.135   0.720  1.1067  0.1659  1.1877
  242SOL     OW  724   2.077   2.031   2.785 -0.4889 -0.2581  0.1458
  242SOL    HW1  725   2.122   1.946   2.775 -0.3037  2.7925 -0.8288
  242SOL    HW2  726   2.000   2.017   2.852  0.9985  4.4220  0.5572
  243SOL     OW  727   0.750   2.457   1.498 -0.4648 -0.3712  0.3287
  243SOL    HW1  728   0.745   2.536   1.433  1.2446 -1.3270 -0.5131
  243SOL    HW2  729   0.737   2.476   1.598  1.9436 -0.9446 -0.0005
  244SOL     OW  730   2.273   2.942   2.931 -0.1767 -0.1608 -0.2264
  244SOL    HW1  731   2.344   2.896   2.990  0.6996 -0.5257  0.4315
  244SOL    HW2  732   2.324   2.985   2.851  0.9938  0.8731 -0.7977
  245SOL     OW  733   1.267   2.960   1.170  0.2253 -0.0486  0.2676
  245SOL    HW1  734   1.204   3.031   1.201  0.7067  0.7459  0.3558
  245SOL    HW2  735   1.266   2.882   1.235  0.7962 -2.7290 -2.7095
  246SOL     OW  736   1.666   2.430   0.351  0.3465  0.1529 -0.2583
  246SOL    HW1  737   1.711   2.481   0.270  0.3624  0.9192 -0.8594
  246SOL    HW2  738   1.713   2.467   0.432 -2.6027  0.0884  1.0865
  247SOL     OW  739   1.301   0.339   2.376 -0.0507 -0.3920  0.2742
  247SOL    HW1  740   1.220   0.391   2.412 -0.5782 -0.4540  0.2154
  247SOL    HW2  741   1.345   0.292   2.454 -2.6981 -0.8037  0.2120
  248SOL     OW  742   0.297   1.706   1.719  0.1380 -0.1181 -0.4902
  248SOL    HW1  743   0.367   1.777   1.722 -0.0655  2.7899 -2.0685
  248SOL    HW2  744   0.337   1.616   1.692 -0.9525 -1.1115 -0.0506
  249SOL     OW  745   2.109   0.274   0.391 -0.2589  0.0478  0.0690
  249SOL    HW1  746   2.210   0.268   0.371 -0.5006 -2.4758 -1.7069
  249SOL    HW2  747   2.088   0.352   0.450  1.4942 -2.2481  0.6182
  250SOL     OW  748   0.175   0.670   0.487  0.7272 -0.1478 -0.2295
  250SOL    HW1  749   0.267   0.689   0.527 -1.2219 -1.5081  0.5501
  250SOL    HW2  750   0.120   0.751   0.455 -1.1704  1.4889 -1.1743
  251SOL     OW  751   1.539   0.408   2.892 -0.0889 -0.1581 -0.6584
  251SOL    HW1  752   1.465   0.455   2.845  4.3286 -3.4969 -0.4205
  251SOL    HW2  753   1.549   0.314   2.860 -1.6569  0.4268 -0.5264
  252SOL     OW  754   1.552   1.822   2.094 -0.6322  0.2274 -0.0070
  252SOL    HW1  755   1.546   1.839   2.194  1.0664  1.4753  0.9624
  252SOL    HW2  756   1.564   1.723   2.073  0.5567  1.0459 -2.2163
  253SOL     OW  757   2.632   2.314   1.676  0.2350  0.1602 -0.4053
  253SOL    HW1  758   2.698   2.372   1.732  0.5650  1.6376  3.1103
  253SOL    HW2  759   2.579   2.261   1.743  0.3248 -0.7314 -0.9771
  254SOL     OW  760   2.686   1.566   0.977 -0.5907  0.1980 -0.1622
  254SOL    HW1  761   2.776   1.599   1.013 -1.2983 -0.6217  0.7958
  254SOL    HW2  762   2.656   1.490   1.039 -0.2624  0.3736  0.5381
  255SOL     OW  763   1.061   0.471   1.246  0.7198 -0.0666  0.2628
  255SOL    HW1  764   1.013   0.446   1.329  2.2272  0.7690 -0.4757
  255SOL    HW2  765   1.161   0.466   1.267  1.4602 -2.9768  0.7941
  256SOL     OW  766   2.054   2.467   1.737 -0.1960  0.2057 -0.2998
  256SOL    HW1  767   2.123   2.462   1.816  3.5396 -2.1385  0.6892
  256SOL    HW2  768   2.040   2.373   1.707  1.4271  2.3564  0.6403
  257SOL     OW  769   0.577   2.705   2.656 -0.0974 -0.4316  0.9057
  257SOL    HW1  770   0.673   2.687   2.697 -0.1746  0.4398 -1.6829
  257SOL    HW2  771   0.526   2.614   2.638 -0.2728 -0.1993 -3.3483
  258SOL     OW  772   0.968   2.308   2.930 -0.6208 -0.3121  0.7512
  258SOL    HW1  773   0.960   2.255   2.847  0.1217  0.0374  3.5858
  258SOL    HW2  774   0.901   2.274   2.997  0.5856  0.9025  1.1121
  259SOL     OW  775   1.357   3.029   2.518  0.1371 -0.3776 -0.8300
  259SOL    HW1  776   1.364   2.934   2.485 -0.3757 -0.2619  2.6497
  259SOL    HW2  777   1.420   3.048   2.595  0.4275  0.9600  1.7235
  260SOL     OW  778   1.899   0.644   1.040  0.0210  0.5865  0.3813
  260SOL    HW1  779   1.847   0.722   1.006  0.7250 -1.6459 -2.6677
  260SOL    HW2  780   1.845   0.609   1.115  3.1161  3.2342 -1.2159
  261SOL     OW  781   0.523   0.235   2.590  0.2717  0.5961  0.7595
  261SOL    HW1  782   0.481   0.313   2.545  2.1686  1.9173  2.1687
  261SOL    HW2  783   0.621   0.255   2.622  1.2423 -0.1343 -0.2577
  262SOL     OW  784   0.280   2.026   1.973  0.3082  0.3104 -0.0063
  262SOL    HW1  785   0.333   2.027   2.058 -2.8831  0.6223 -0.5161
  262SOL    HW2  786   0.331   2.065   1.893 -0.5977  0.0191 -1.8003
  263SOL     OW  787   2.831   1.456   2.262 -0.1885  0.3055 -0.5714
  263SOL    HW1  788   2.843   1.558   2.282 -0.4230  2.4185  0.3785
  263SOL    HW2  789   2.767   1.415   2.328 -0.5704  0.4783 -0.9858
  264SOL     OW  790   0.903   1.263   1.000 -0.0748  0.4205 -0.1071
  264SOL    HW1  791   0.861   1.204   0.929 -1.2219  0.3319 -1.8683
  264SOL    HW2  792   0.843   1.342   1.030 -1.1892  1.6964 -0.6380
  265SOL     OW  793   1.113   2.400   0.870 -0.3928 -0.0722  0.1475
  265SOL    HW1  794   1.051   2.326   0.837 -0.3986  0.9835  2.2169
  265SOL    HW2  795   1.093   2.409   0.973 -0.8197  2.5214 -0.8745
  266SOL     OW  796   1.587   1.024   1.031 -0.0329  0.3225  0.0995
  266SOL    HW1  797   1.633   1.036   1.123  0.4493 -0.5948  2.6948
  266SOL    HW2  798   1.576   1.120   0.988 -0.7605  0.1774 -1.1159
  267SOL     OW  799   2.392   1.231   2.996  0.1630 -0.1674 -0.2816
  267SOL    HW1  800   2.339   1.224   2.909 -0.7280 -0.8865  0.0719
  267SOL    HW2  801   2.462   1.161   2.996  0.9774  3.6044  0.9618
  268SOL     OW  802   1.287   0.377   0.414  0.4229  0.7485  0.1021
  268SOL    HW1  803   1.364   0.354   0.474  0.8291 -0.7860  0.2546
  268SOL    HW2  804   1.302   0.454   0.347 -0.0744  0.3996 -1.0945
  269SOL     OW  805   2.402   0.416   2.674  0.0516 -0.3876 -0.3756
  269SOL    HW1  806   2.412   0.493   2.740  0.9204  2.3391  2.2511
  269SOL    HW2  807   2.354   0.336   2.726 -2.5669 -2.7572 -1.0372
  270SOL     OW  808   0.111   0.904   2.703 -0.5966 -0.0110  0.6770
  270SOL    HW1  809   0.194   0.880   2.756 -0.1081 -2.4001 -1.7459
  270SOL    HW2  810   0.084   1.003   2.711  1.1354  2.5526  0.5577
  271SOL     OW  811   2.855   1.065   0.173  0.2014  0.3157 -0.0001
  271SOL    HW1  812   2.837   0.969   0.152  1.1068  2.0344  2.1830
  271SOL    HW2  813   2.812   1.088   0.258  1.1462  2.8163 -3.9618
  272SOL     OW  814   2.945   2.735   2.694  0.3104 -0.1094  0.0635
  272SOL    HW1  815   3.031   2.714   2.650 -0.5382 -2.2147  1.8196
  272SOL    HW2  816   2.916   2.646   2.736  0.4746  0.0596  0.8374
  273SOL     OW  817   2.814   2.902   3.076  0.4990  0.3090  0.1128
  273SOL    HW1  818   2.850   2.971   3.008 -0.5976  1.1933  0.7701
  273SOL    HW2  819   2.866   2.912   0.081  1.2670  1.2419 -0.4370
  274SOL     OW  820   0.721   2.412   0.782  0.4200  0.0576 -0.2111
  274SOL    HW1  821   0.685   2.501   0.807  0.5814 -1.8996 -0.4622
  274SOL    HW2  822   0.746   2.403   0.681  1.0163 -0.9930  0.1525
  275SOL     OW  823   2.326   1.134   0.385  0.7387  0.5696 -0.5508
  275SOL    HW1  824   2.328   1.229   0.420  0.2237 -0.6870 -0.1300
  275SOL    HW2  825   2.423   1.108   0.373 -1.4917  0.1208  2.4419
  276SOL     OW  826   2.812   1.306   1.702 -0.3042 -0.5301 -0.1546
  276SOL    HW1  827   2.742   1.230   1.693 -2.3656 -0.1720 -1.6740
  276SOL    HW2  828   2.818   1.351   1.609  0.2561  2.7879 -2.5427
  277SOL     OW  829   2.084   0.201   1.043 -0.0113 -0.2406 -0.3820
  277SOL    HW1  830   2.002   0.142   1.036  1.3802  1.6061 -0.2528
  277SOL    HW2  831   2.167   0.154   1.012 -1.6724 -0.7157 -0.5423
  278SOL     OW  832   1.370   2.373   2.279  0.4454  0.2993 -0.1175
  278SOL    HW1  833   1.452   2.433   2.270  1.2212 -0.1136 -0.9948
  278SOL    HW2  834   1.325   2.346   2.192  0.7048 -0.8215  0.6933
  279SOL     OW  835   1.697   2.048   1.147 -0.4380  0.6695  0.5999
  279SOL    HW1  836   1.718   2.026   1.240 -0.1935 -0.8448 -2.9388
  279SOL    HW2  837   1.727   2.138   1.126  1.9620 -3.9552 -3.0776
  280SOL     OW  838   0.309   1.388   0.909 -0.0535 -0.5699  0.1591
  280SOL    HW1  839   0.268   1.443   0.837 -0.2757  0.2993 -0.0357
  280SOL    HW2  840   0.373   1.446   0.967 -1.0980  1.8451  0.3917
  281SOL     OW  841   3.052   1.071   2.383  0.2258 -0.4981  0.2335
  281SOL    HW1  842   3.050   1.054   2.281 -2.1372 -1.8203 -0.2378
  281SOL    HW2  843   0.016   1.156   2.422  0.5282  1.9784  2.9980
  282SOL     OW  844   0.599   1.483   3.039 -0.1740  0.2882  0.7059
  282SOL    HW1  845   0.519   1.444   0.014  1.5173 -2.9400  0.1972
  282SOL    HW2  846   0.664   1.534   0.013 -1.0259 -0.5923 -1.0088
  283SOL     OW  847   2.400   2.426   0.058 -0.0156  0.4933 -0.9739
  283SOL    HW1  848   2.364   2.470   0.144 -1.2307 -2.2854  0.5208
  283SOL    HW2  849   2.502   2.434   0.053 -3.9602  0.3702 -3.0216
  284SOL     OW  850   0.807   0.137   0.785  0.6323  0.7254  0.1000
  284SOL    HW1  851   0.899   0.179   0.767  0.3584  2.7232 -2.8049
  284SOL    HW2  852   0.736   0.163   0.713 -1.5991  3.7776 -3.3050
  285SOL     OW  853   2.235   1.133   2.770 -0.1739 -0.2288  0.0925
  285SOL    HW1  854   2.297   1.064   2.726  1.2269  1.7920 -1.0193
  285SOL    HW2  855   2.135   1.106   2.765 -1.3591  1.6141  0.2573
  286SOL     OW  856   1.833   2.659   1.143 -0.3536  0.1168  0.7898
  286SOL    HW1  857   1.855   2.601   1.220  1.9974 -1.2047 -1.8522
  286SOL    HW2  858   1.830   2.754   1.175 -1.1366 -2.9237  0.2828
  287SOL     OW  859   1.057   0.243   0.704  0.2509  0.3634  0.2489
  287SOL    HW1  860   1.074   0.216   0.610  1.3728  2.3025  0.7293
  287SOL    HW2  861   1.089   0.338   0.718  1.2997 -1.0753  1.4911
  288SOL     OW  862   1.104   2.451   2.639 -0.2944 -0.1983  0.5130
  288SOL    HW1  863   1.101   2.481   2.735  1.2129  0.3937  1.4262
  288SOL    HW2  864   1.117   2.531   2.574  0.0133  0.0044 -1.6558
  289SOL     OW  865   2.928   1.663   1.050  0.3177  0.2382 -0.1601
  289SOL    HW1  866   2.973   1.742   1.006  0.4745 -1.4744  2.3579
  289SOL    HW2  867   2.990   1.582   1.060  2.5566 -0.4130  0.6786
  290SOL     OW  868   1.393   2.272   1.068 -0.3523  0.5322  1.0728
  290SOL    HW1  869   1.396   2.265   1.167 -3.8915 -1.2527 -0.5895
  290SOL    HW2  870   1.404   2.369   1.037 -1.3208  0.4705  1.6689
  291SOL     OW  871   1.457   2.713   0.175  0.3405 -0.2035  0.2876
  291SOL    HW1  872   1.363   2.751   0.169 -0.7596  1.4604  0.8891
  291SOL    HW2  873   1.515   2.736   0.101 -1.7161  1.2629  2.4962
  292SOL     OW  874   0.595   0.257   1.767  0.5738  0.2947  0.0759
  292SOL    HW1  875   0.597   0.363   1.769  0.8165  0.0499  1.4965
  292SOL    HW2  876   0.657   0.221   1.840 -1.1771 -1.5418 -0.0603
  293SOL     OW  877   2.376   2.061   1.111  0.9221 -0.0272 -0.3017
  293SOL    HW1  878   2.472   2.077   1.144 -2.8059 -2.7049 -0.0019
  293SOL    HW2  879   2.324   2.145   1.145 -0.6291  0.4291  2.9393
  294SOL     OW  880   0.894   0.407   2.214 -0.4442  0.5295 -0.9939
  294SOL    HW1  881   0.819   0.340   2.207  0.3611  1.7623  0.1059
  294SOL    HW2  882   0.847   0.493   2.248 -1.8040  0.2688 -0.6156
  295SOL     OW  883   1.557   1.806   1.324  0.1538  0.2245  0.3682
  295SOL    HW1  884   1.590   1.713   1.318 -3.0371  2.3297 -1.1576
  295SOL    HW2  885   1.637   1.864   1.313  1.6070 -3.2024  2.3560
  296SOL     OW  886   2.680   1.943   0.280 -0.0718 -0.2101 -0.1085
  296SOL    HW1  887   2.762   1.997   0.249 -1.8847  2.6367 -0.4347
  296SOL    HW2  888   2.607   2.010   0.308 -1.8466  1.8073  2.1895
  297SOL     OW  889   2.565   0.085   0.224  0.2997  0.6446  0.1092
  297SOL    HW1  890   2.546   3.082   0.172  0.7129  0.2520 -0.2784
  297SOL    HW2  891   2.660   0.107   0.210 -2.4622 -0.6933 -2.6610
  298SOL     OW  892   0.934   0.006   2.684 -0.1604 -0.5253 -0.0122
  298SOL    HW1  893   0.993   3.038   2.748 -3.2543  4.1140  0.2952
  298SOL    HW2  894   0.847   0.030   2.733 -5.8173 -1.3228  0.6615
  299SOL     OW  895   0.800   2.164   2.060 -0.6173 -0.1714 -0.0599
  299SOL    HW1  896   0.766   2.077   2.021  0.5694  0.9639  1.1765
  299SOL    HW2  897   0.801   2.163   2.162 -0.0610 -0.5110 -3.6581
  300SOL     OW  898   2.914   2.922   2.305 -0.0980 -0.2500  0.6312
  300SOL    HW1  899   2.971   2.904   2.220  1.2889  2.0213 -1.6714
  300SOL    HW2  900   2.941   3.012   2.344 -0.9354  2.0146  2.0075
  301SOL     OW  901   0.862   0.836   1.905  0.2345 -0.1502 -0.3926
  301SOL    HW1  902   0.918   0.749   1.902 -0.5115  0.1106 -1.3006
  301SOL    HW2  903   0.893   0.894   1.985  0.1915  1.9080 -0.9346
  302SOL     OW  904   0.017   2.150   0.546  0.3744 -0.3700 -0.3296
  302SOL    HW1  905   0.119   2.153   0.529  0.5290  0.3361 -2.2252
  302SOL    HW2  906   3.065   2.055   0.530  0.4923 -0.8686  1.5491
  303SOL     OW  907   2.503   2.572   1.559 -0.1866 -0.1442 -0.0086
  303SOL    HW1  908   2.594   2.540   1.587 -3.9754 -1.2754 -1.8807
  303SOL    HW2  909   2.453   2.620   1.633  0.1591  0.9664  1.6424
  304SOL     OW  910   2.826   0.853   1.561  0.7241 -0.1945 -0.0190
  304SOL    HW1  911   2.849   0.794   1.642  0.5798  0.2963 -0.9114
  304SOL    HW2  912   2.913   0.893   1.525 -0.3399  0.2832 -1.0243
  305SOL     OW  913   0.763   1.487   1.021  0.0716  0.2427 -0.1770
  305SOL    HW1  914   0.729   1.456   0.932 -1.9313 -1.3434  0.1059
  305SOL    HW2  915   0.710   1.567   1.062 -0.5678 -0.3608 -0.0939
  306SOL     OW  916   0.331   1.259   2.033  0.1215  0.3784 -0.4069
  306SOL    HW1  917   0.293   1.189   1.976  1.8950  1.0848 -1.1248
  306SOL    HW2  918   0.431   1.245   2.047 -1.3233 -0.3388  2.6116
  307SOL     OW  919   0.733   0.521   1.738 -1.0193 -0.3374 -0.7037
  307SOL    HW1  920   0.825   0.534   1.783 -0.5073  0.5520 -0.8399
  307SOL    HW2  921   0.760   0.499   1.645  1.6606  0.3531  0.6398
  308SOL     OW  922   3.048   1.186   1.123 -0.0653  0.7077 -0.2666
  308SOL    HW1  923   3.010   1.198   1.217  0.4365  0.5520  4.1845
  308SOL    HW2  924   2.968   1.137   1.081 -0.1617 -1.2490  0.8997
  309SOL     OW  925   2.562   1.387   1.143  0.6481  0.2054 -0.2292
  309SOL    HW1  926   2.540   1.470   1.193  1.0838 -0.5527 -2.5013
  309SOL    HW2  927   2.545   1.304   1.206 -1.3236  1.7392  2.3237
  310SOL     OW  928   2.904   1.985   2.689 -0.0364 -0.2180  0.5385
  310SOL    HW1  929   2.811   1.956   2.696  1.3965 -0.3846  2.7815
  310SOL    HW2  930   2.943   1.971   2.595  1.6380  1.0175  0.5696
  311SOL     OW  931   2.658   2.526   2.375  0.4094 -0.0685  0.0371
  311SOL    HW1  932   2.691   2.575   2.290 -1.1947  1.7420 -2.8105
  311SOL    HW2  933   2.661   2.582   2.462 -1.5268  5.6446  1.0635
  312SOL     OW  934   2.163   2.053   0.229 -0.1234 -0.4511  0.0235
  312SOL    HW1  935   2.111   2.123   0.283  1.2973  1.0784  0.1185
  312SOL    HW2  936   2.096   1.986   0.196  1.6583  1.3664 -1.7506
  313SOL     OW  937   2.753   2.982   0.664 -0.1878  0.0345  0.7258
  313SOL    HW1  938   2.690   3.024   0.595 -0.3184 -0.8801 -0.7857
  313SOL    HW2  939   2.819   2.922   0.605 -2.7926 -0.8397 -0.5210
  314SOL     OW  940   1.797   1.063   2.993  0.3312 -0.0003  0.4444
  314SOL    HW1  941   1.711   1.100   3.026 -0.2711  0.2352 -2.8795
  314SOL    HW2  942   1.866   1.117   3.039 -1.5683  1.0241  0.4359
  315SOL     OW  943   1.424   2.791   2.306 -0.3043  0.5267  0.0230
  315SOL    HW1  944   1.516   2.828   2.305 -2.2234 -1.6234 -0.9395
  315SOL    HW2  945   1.425   2.708   2.365  0.4192 -0.5993  0.7673
  316SOL     OW  946   0.102   1.228   0.194  0.3353  0.0693 -0.4745
  316SOL    HW1  947   0.076   1.198   0.101 -1.5131 -1.3990  1.1115
  316SOL    HW2  948   0.030   1.214   0.262 -1.6008  1.6349  0.3323
  317SOL     OW  949   0.532   2.812   0.018 -0.0220  0.2651  0.9176
  317SOL    HW1  950   0.492   2.838   3.006 -0.4769 -0.6647  0.7731
  317SOL    HW2  951   0.606   2.743   0.014 -1.1424 -1.8871 -0.2000
  318SOL     OW  952   2.457   2.529   0.925  0.0306  0.5300 -0.1266
  318SOL    HW1  953   2.461   2.455   0.855 -0.0207  1.9608 -0.8406
  318SOL    HW2  954   2.366   2.526   0.969  0.5153  0.7258  1.5016
  319SOL     OW  955   1.191   2.052   2.572 -0.3173 -0.3809 -0.2806
  319SOL    HW1  956   1.156   1.976   2.512 -0.0975  0.8437 -0.0219
  319SOL    HW2  957   1.193   2.020   2.669 -1.7699  0.0196 -0.7158
  320SOL     OW  958   0.623   1.997   1.194 -0.2734 -0.4228  0.1115
  320SOL    HW1  959   0.648   2.092   1.217  0.4662 -0.8751 -1.1403
  320SOL    HW2  960   0.523   1.991   1.178 -0.1661  1.7474  2.2866
  321SOL     OW  961   1.388   2.608   2.537 -0.2600 -0.1000 -0.0405
  321SOL    HW1  962   1.404   2.511   2.569  0.2526 -0.5214  1.1424
  321SOL    HW2  963   1.288   2.631   2.522  0.8729  2.3977  1.7381
  322SOL     OW  964   2.644   1.406   2.056  0.1120 -0.0912  0.0303
  322SOL    HW1  965   2.722   1.380   2.114 -0.4489  0.6336 -2.2271
  322SOL    HW2  966   2.598   1.494   2.090  1.1405  3.6855  1.6950
  323SOL     OW  967   2.620   0.865   1.128  0.4753  0.5178 -0.3247
  323SOL    HW1  968   2.533   0.870   1.075 -1.3419  0.9516  0.7635
  323SOL    HW2  969   2.605   0.855   1.233  0.7732 -1.8436  0.6479
  324SOL     OW  970   2.669   2.840   2.364 -0.1130 -0.9476 -0.5814
  324SOL    HW1  971   2.658   2.801   2.460  0.5402  2.0042  0.2895
  324SOL    HW2  972   2.765   2.864   2.341 -0.9558 -0.1910 -0.6305
  325SOL     OW  973   1.028   0.615   2.463 -0.5415 -0.6227  0.7063
  325SOL    HW1  974   1.031   0.514   2.469 -3.6086  0.8974  0.1682
  325SOL    HW2  975   0.993   0.641   2.366  1.3458  0.4948 -2.5240
  326SOL     OW  976   1.957   2.863   2.313  0.6459 -0.0142 -0.1401
  326SOL    HW1  977   1.916   2.951   2.326  0.7109 -2.7940  1.2649
  326SOL    HW2  978   2.001   2.860   2.220  1.2308  1.6089  3.0597
  327SOL     OW  979   2.372   0.272   3.082  0.1512 -0.0821  0.2737
  327SOL    HW1  980   2.293   0.336   0.035 -2.7427  0.0778  0.4702
  327SOL    HW2  981   2.458   0.314   0.024 -1.3387  0.8394  1.9365
  328SOL     OW  982   0.103   1.325   2.482 -0.0247 -0.0295  0.3894
  328SOL    HW1  983   0.168   1.326   2.405 -0.5935 -2.1629  1.1238
  328SOL    HW2  984   0.047   1.415   2.483  0.0841  1.1565  0.5657
  329SOL     OW  985   1.713   0.117   1.407  0.6200 -0.6274  0.4307
  329SOL    HW1  986   1.629   0.075   1.454  0.0179  2.0440 -0.2738
  329SOL    HW2  987   1.672   0.184   1.337  0.1502  2.5671 -3.9146
  330SOL     OW  988   0.357   1.171   0.746 -0.0050  0.2661 -0.1040
  330SOL    HW1  989   0.283   1.101   0.754  0.1922 -1.2267 -0.4602
  330SOL    HW2  990   0.360   1.233   0.827  0.9949  0.7026  3.2134
  331SOL     OW  991   0.138   1.459   2.144 -0.1762  0.1031  0.1034
  331SOL    HW1  992   0.224   1.410   2.112  0.4294 -2.3026 -2.9860
  331SOL    HW2  993   0.162   1.545   2.193 -0.8303 -1.8072 -2.7448
  332SOL     OW  994   0.082   2.594   1.606  0.2300 -0.2529  0.3694
  332SOL    HW1  995   3.066   2.598   1.587  2.1039 -0.6444 -1.6965
  332SOL    HW2  996   0.129   2.525   1.548  0.2202 -0.1195 -0.7520
  333SOL     OW  997   2.382   0.119   0.684 -0.0192  0.6144  0.0727
  333SOL    HW1  998   2.292   0.084   0.719  2.9562 -1.9069 -2.0594
  333SOL    HW2  999   2.440   0.145   0.764 -0.9255 -0.3620 -0.0109
  334SOL     OW 1000   0.775   2.057   0.413 -0.0527  0.2275 -0.5053
  334SOL    HW1 1001   0.797   1.959   0.383 -1.5021 -0.5227 -1.0392
  334SOL    HW2 1002   0.856   2.110   0.452  1.7940  3.8393 -2.5691
  335SOL     OW 1003   0.192   2.583   2.982  0.1156  0.4918  0.0825
  335SOL    HW1 1004   0.135   2.497   2.966  2.2687 -1.5302  3.2021
  335SOL    HW2 1005   0.287   2.563   2.963 -0.7201  1.3577 -0.8323
  336SOL     OW 1006   2.970   2.546   2.085  0.1153  0.3384  0.2605
  336SOL    HW1 1007   3.022   2.540   1.998 -1.3578  0.7330  0.5344
  336SOL    HW2 1008   2.979   2.460   2.135  1.0099  2.6301 -2.6151
  337SOL     OW 1009   2.081   2.354   2.420  1.0840 -0.3666  0.4073
  337SOL    HW1 1010   2.018   2.361   2.337 -2.2279 -1.0838  0.4872
  337SOL    HW2 1011   2.072   2.439   2.469 -0.9474 -1.8658 -1.2267
  338SOL     OW 1012   0.665   0.061   0.411 -0.8893 -0.6237  0.1690
  338SOL    HW1 1013   0.757   0.021   0.428 -1.0059  0.1115  0.4487
  338SOL    HW2 1014   0.649   0.096   0.317 -0.3954  2.0582 -1.0300
  339SOL     OW 1015   0.220   0.935   2.116 -0.3532 -0.4471 -0.0462
  339SOL    HW1 1016   0.202   0.842   2.093  1.0761  0.8955 -0.8768
  339SOL    HW2 1017   0.196   0.987   2.031  0.8381 -2.9378 -0.3375
  340SOL     OW 1018   1.810   3.057   0.205 -0.2058  0.2891  0.0208
  340SOL    HW1 1019   1.874   0.043   0.161 -0.5768  2.0694  2.9919
  340SOL    HW2 1020   1.755   0.014   0.281  0.5613 -1.6346  0.2446
  341SOL     OW 1021   2.121   0.899   0.839 -0.5492 -0.3446  0.9973
  341SOL    HW1 1022   2.029   0.935   0.828  3.0293  2.8582 -0.3871
  341SOL    HW2 1023   2.189   0.972   0.818 -0.0192  1.3250  1.7911
  342SOL     OW 1024   2.236   0.047   0.045  0.6983  0.1269 -0.0276
  342SOL    HW1 1025   2.233   3.061   3.047 -1.7955 -2.1215 -5.2042
  342SOL    HW2 1026   2.320   0.112   0.037 -0.5151 -3.5354  0.7433
  343SOL     OW 1027   1.477   2.206   1.557 -0.3769 -0.4282 -0.2097
  343SOL    HW1 1028   1.557   2.263   1.591  0.6391 -0.9143  1.3874
  343SOL    HW2 1029   1.455   2.125   1.615 -1.0206 -0.8500 -0.2947
  344SOL     OW 1030   2.335   2.941   0.823  0.6434  0.4816  0.6160
  344SOL    HW1 1031   2.428   2.903   0.840  0.7079  0.1716 -1.7806
  344SOL    HW2 1032   2.303   2.908   0.730  0.0495 -1.6496 -0.5667
  345SOL     OW 1033   2.932   2.382   0.131  0.1739 -0.2201  0.6434
  345SOL    HW1 1034   2.981   2.446   0.194 -2.8788  0.8289  0.3312
  345SOL    HW2 1035   2.900   2.296   0.180  0.9489 -2.4962 -1.1527
  346SOL     OW 1036   2.685   1.919   0.859 -0.2511 -0.4190 -0.3706
  346SOL    HW1 1037   2.599   1.972   0.853 -2.0387 -0.4952  1.0111
  346SOL    HW2 1038   2.761   1.964   0.912 -1.3407  2.4783  1.0924
  347SOL     OW 1039   1.677   2.035   1.958 -0.4562 -1.1491 -0.0798
  347SOL    HW1 1040   1.620   2.117   1.932 -1.3600 -3.0003 -0.6990
  347SOL    HW2 1041   1.624   1.960   1.997  2.6679  1.8078 -1.3041
  348SOL     OW 1042   0.388   1.545   2.457 -0.1851  0.4681  0.4047
  348SOL    HW1 1043   0.399   1.462   2.402 -0.1827  3.8072  1.3598
  348SOL    HW2 1044   0.439   1.535   2.546  0.7314  0.8629 -0.4454
  349SOL     OW 1045   2.513   1.237   0.901 -0.2893 -0.5266  0.1196
  349SOL    HW1 1046   2.525   1.310   0.976  0.2974  3.1831 -0.7655
  349SOL    HW2 1047   2.551   1.273   0.813 -2.2167 -1.0658 -2.6899
  350SOL     OW 1048   2.964   2.616   1.022 -0.8590  0.1525 -0.6227
  350SOL    HW1 1049   2.922   2.686   1.084 -1.0920  0.5687 -1.6688
  350SOL    HW2 1050   2.991   2.535   1.080 -1.0435 -1.2839  0.5293
  351SOL     OW 1051   0.628   3.001   1.856  0.1503 -0.1492  0.7727
  351SOL    HW1 1052   0.532   2.994   1.883  2.8139  0.0496 -2.0618
  351SOL    HW2 1053   0.660   0.012   1.847  0.5399 -1.7802 -2.2694
  352SOL     OW 1054   0.955   1.715   1.087  0.3002 -0.8806  0.6248
  352SOL    HW1 1055   0.906   1.625   1.092 -1.4514  1.6391  0.3765
  352SOL    HW2 1056   1.056   1.702   1.095  0.8630 -2.0463 -0.5852
  353SOL     OW 1057   1.219   1.669   2.570 -0.4921 -0.0345 -0.0700
  353SOL    HW1 1058   1.190   1.741   2.506  0.8491  0.4694 -2.2327
  353SOL    HW2 1059   1.141   1.620   2.616  1.5683  0.4045 -0.6337
  354SOL     OW 1060   1.450   0.076   1.100  0.0251 -0.0093  0.5923
  354SOL    HW1 1061   1.479   3.065   1.120 -0.4163 -1.3215 -0.1451
  354SOL    HW2 1062   1.346   0.080   1.093  1.5226 -0.5843  0.5901
  355SOL     OW 1063   2.603   1.335   0.667 -0.3489 -0.0230  0.0532
  355SOL    HW1 1064   2.685   1.387   0.688  1.1324  2.0340  1.0101
  355SOL    HW2 1065   2.599   1.325   0.567  1.7132 -2.2172 -1.8135
  356SOL     OW 1066   2.442   1.593   2.184  0.1186 -0.0639  0.8772
  356SOL    HW1 1067   2.392   1.668   2.141 -3.3157 -2.6072  2.0760
  356SOL    HW2 1068   2.486   1.622   2.268 -3.0031  1.8291 -1.3258
  357SOL     OW 1069   0.398   2.737   1.500 -0.3683 -0.1769  0.0265
  357SOL    HW1 1070   0.346   2.755   1.415  1.9348  0.5468  2.9863
  357SOL    HW2 1071   0.463   2.813   1.526  2.3014  1.2130  1.1840
  358SOL     OW 1072   2.425   0.995   1.745 -0.1313  0.1136 -0.8118
  358SOL    HW1 1073   2.342   1.052   1.728  0.1662 -0.1279 -3.0915
  358SOL    HW2 1074   2.418   0.906   1.694  1.5217 -1.3217  1.1862
  359SOL     OW 1075   2.329   2.493   2.659 -0.6257 -1.2917  0.3472
  359SOL    HW1 1076   2.333   2.402   2.614  0.0599 -1.5230  2.0221
  359SOL    HW2 1077   2.415   2.509   2.713 -1.6422  0.4223 -0.7518
  360SOL     OW 1078   0.764   0.503   0.956  0.4961 -0.1185 -0.0275
  360SOL    HW1 1079   0.863   0.527   0.934 -0.7460 -2.4678 -1.1969
  360SOL    HW2 1080   0.701   0.574   0.917 -0.6193 -1.5000  3.1844
  361SOL     OW 1081   1.859   0.057   1.041 -0.1558 -0.2361 -0.3769
  361SOL    HW1 1082   1.790   0.025   1.108 -1.4442 -3.5773 -2.2935
  361SOL    HW2 1083   1.868   3.077   0.964  0.4999  0.2712  1.5012
  362SOL     OW 1084   1.363   1.056   0.846  0.1088 -0.2373  0.2872
  362SOL    HW1 1085   1.419   1.137   0.870  0.1861 -1.4332  1.1291
  362SOL    HW2 1086   1.379   0.978   0.912  2.3380 -2.3903  1.3950
  363SOL     OW 1087   2.249   1.391   2.665  0.3629 -0.0884 -0.1172
  363SOL    HW1 1088   2.203   1.462   2.721  1.6927 -1.6413  1.8875
  363SOL    HW2 1089   2.268   1.310   2.719  0.1258  3.8380 -1.1572
  364SOL     OW 1090   0.067   0.341   1.026 -0.5736 -0.7732  0.3132
  364SOL    HW1 1091   0.142   0.342   1.095 -0.2206  2.9586  2.6556
  364SOL    HW2 1092   0.108   0.300   0.940  0.2260  1.2157 -2.2507
  365SOL     OW 1093   0.092   2.726   0.096 -0.4491  0.3594 -0.3188
  365SOL    HW1 1094   0.128   2.675   0.014  0.2215  3.1685  0.9270
  365SOL    HW2 1095   0.028   2.670   0.153  1.0193  0.7114 -0.9198
  366SOL     OW 1096   2.353   2.131   0.036 -0.2117 -0.0953 -0.5440
  366SOL    HW1 1097   2.281   2.105   0.101 -2.0171  2.4459  1.3996
  366SOL    HW2 1098   2.368   2.234   0.031  0.9281  1.1853  0.1723
  367SOL     OW 1099   2.908   2.513   2.830 -0.1200 -0.0862 -0.4045
  367SOL    HW1 1100   2.849   2.436   2.789  0.2914 -0.8996  1.0065
  367SOL    HW2 1101   2.966   2.470   2.902  1.3242 -1.0775 -1.7845
  368SOL     OW 1102   0.201   1.874   0.814  0.3164 -0.2170 -0.3148
  368SOL    HW1 1103   0.218   1.970   0.777 -1.4870 -1.4282 -1.3489
  368SOL    HW2 1104   0.100   1.871   0.830  1.1085 -0.8292 -0.5111
  369SOL     OW 1105   0.847   2.659   2.749  0.7222 -0.0704 -0.0086
  369SOL    HW1 1106   0.928   2.604   2.777  3.1822 -1.2648 -1.7603
  369SOL    HW2 1107   0.884   2.741   2.692  0.1291  0.8110 -2.3466
  370SOL     OW 1108   0.142   1.016   0.789  0.2230  0.1175 -0.0283
  370SOL    HW1 1109   0.072   1.094   0.803  0.7327 -0.6012 -1.0719
  370SOL    HW2 1110   0.118   0.933   0.836 -1.0110  2.5788 -2.4939
  371SOL     OW 1111   1.992   2.577   0.939 -0.0629 -0.0420  0.1481
  371SOL    HW1 1112   2.045   2.663   0.922 -0.4572  0.8779  1.5719
  371SOL    HW2 1113   1.915   2.589   1.004 -0.2850 -0.5926 -1.7406
  372SOL     OW 1114   0.353   0.872   2.800  0.1938  0.4376 -0.2621
  372SOL    HW1 1115   0.395   0.775   2.800  0.9154 -3.7598 -1.0427
  372SOL    HW2 1116   0.414   0.937   2.852  0.1231 -0.6943  1.4438
  373SOL     OW 1117   3.032   1.885   0.887  0.3152 -0.3505 -0.0396
  373SOL    HW1 1118   2.999   1.918   0.793  2.3007 -2.4816  2.5710
  373SOL    HW2 1119   2.970   1.917   0.964 -1.9278 -1.0813  1.4930
  374SOL     OW 1120   0.208   2.493   0.437 -0.3547 -0.4782  0.2754
  374SOL    HW1 1121   0.224   2.404   0.482 -0.1480  1.1481  0.8997
  374SOL    HW2 1122   0.270   2.564   0.479  0.6889 -0.0492  1.2685
  375SOL     OW 1123   0.466   0.419   0.250  0.0488  0.2685 -0.0425
  375SOL    HW1 1124   0.523   0.440   0.331  0.5027  2.0125 -1.7184
  375SOL    HW2 1125   0.375   0.376   0.276 -1.6460 -0.0709 -0.2488
  376SOL     OW 1126   0.339   2.447   1.930 -0.2052 -0.2396 -0.1549
  376SOL    HW1 1127   0.241   2.461   1.916  3.1042 -0.1153 -0.2499
  376SOL    HW2 1128   0.385   2.517   1.873 -0.6662  2.1364 -1.4556
  377SOL     OW 1129   1.425   2.443   0.088 -0.0811 -0.2588 -0.2277
  377SOL    HW1 1130   1.511   2.425   0.042 -2.4361 -0.8922 -0.3428
  377SOL    HW2 1131   1.431   2.528   0.142  3.9109  0.5613  2.4555
  378SOL     OW 1132   0.779   0.632   0.590 -0.4779 -0.3411 -0.0113
  378SOL    HW1 1133   0.761   0.712   0.528 -1.2598  0.4287  1.0906
  378SOL    HW2 1134   0.872   0.594   0.571 -2.1623 -0.5725  1.0202
  379SOL     OW 1135   0.724   1.740   0.334  0.3144 -0.0380 -0.3928
  379SOL    HW1 1136   0.704   1.737   0.436 -0.1656  1.0037  1.4312
  379SOL    HW2 1137   0.737   1.647   0.296 -0.2168  1.8474 -2.1785
  380SOL     OW 1138   0.387   2.046   1.521 -0.2340  0.0545 -0.5081
  380SOL    HW1 1139   0.372   2.050   1.418 -0.1862 -1.6673 -0.3044
  380SOL    HW2 1140   0.468   2.108   1.544 -0.0214 -0.3902  0.1186
  381SOL     OW 1141   0.566   1.265   1.613 -0.4761  0.6954 -0.6477
  381SOL    HW1 1142   0.617   1.354   1.616 -0.8508 -1.5606  1.6670
  381SOL    HW2 1143   0.630   1.191   1.635  0.3233  1.4501  1.0038
  382SOL     OW 1144   2.216   1.750   0.485  0.4339 -0.2183 -0.2727
  382SOL    HW1 1145   2.196   1.687   0.403  1.2330 -1.7807  0.7879
  382SOL    HW2 1146   2.279   1.703   0.550 -1.7284  1.4943  0.6183
  383SOL     OW 1147   2.559   1.700   2.390 -0.3979 -1.0101  0.3369
  383SOL    HW1 1148   2.558   1.799   2.410 -2.3365 -1.3224 -1.8393
  383SOL    HW2 1149   2.652   1.670   2.378 -0.2693 -3.2536 -0.4301
  384SOL     OW 1150   0.176   1.950   2.331 -0.5128 -0.5655  0.4269
  384SOL    HW1 1151   0.200   1.962   2.429  1.5198 -0.2215  0.5776
  384SOL    HW2 1152   0.242   1.999   2.274 -1.3883 -1.5690 -1.5160
  385SOL     OW 1153   2.724   2.234   0.913  0.1912  0.2310  0.3155
  385SOL    HW1 1154   2.810   2.212   0.865 -0.2903 -3.0540  0.1360
  385SOL    HW2 1155   2.657   2.296   0.870  0.1188 -1.7767  0.7194
  386SOL     OW 1156   1.791   0.898   0.921 -0.2808 -0.2346  0.2710
  386SOL    HW1 1157   1.792   0.879   0.823 -0.7574  0.5731  4.2886
  386SOL    HW2 1158   1.700   0.919   0.957 -0.8482 -1.1395  0.5261
  387SOL     OW 1159   0.243   0.601   1.858 -0.1287 -0.1782  0.1731
  387SOL    HW1 1160   0.270   0.599   1.958  3.4599 -2.5440  1.3468
  387SOL    HW2 1161   0.327   0.580   1.798 -0.0161  1.0480 -0.6608
  388SOL     OW 1162   2.324   0.771   2.415  0.2711 -0.5209 -0.0214
  388SOL    HW1 1163   2.329   0.873   2.393  1.7053 -1.2308 -0.0265
  388SOL    HW2 1164   2.252   0.740   2.350 -1.9541  3.1378 -2.4858
  389SOL     OW 1165   2.040   0.989   2.072 -0.4170 -0.1087  0.1033
  389SOL    HW1 1166   2.107   1.068   2.090  2.1080  1.4237 -0.7179
  389SOL    HW2 1167   2.059   0.951   1.977 -1.7229 -1.0223  1.0900
  390SOL     OW 1168   1.857   2.564   0.511  0.0799  0.4526  0.2878
  390SOL    HW1 1169   1.846   2.665   0.488 -1.8608 -2.5659  1.5913
  390SOL    HW2 1170   1.952   2.533   0.486 -2.6249 -0.4364  0.4382
  391SOL     OW 1171   2.045   2.090   1.246 -0.1466  0.9237 -0.0308
  391SOL    HW1 1172   2.016   2.046   1.153 -2.1748 -1.0043 -1.4068
  391SOL    HW2 1173   2.049   2.025   1.320 -1.5868 -2.9562  1.2551
  392SOL     OW 1174   2.849   2.796   1.191  0.2761  0.1571  0.0419
  392SOL    HW1 1175   2.799   2.780   1.282 -1.4620 -0.0870 -2.2268
  392SOL    HW2 1176   2.795   2.866   1.140  0.0271  0.9690  4.0777
  393SOL     OW 1177   1.913   1.900   0.161  1.0131  0.3803  0.0346
  393SOL    HW1 1178   1.887   1.844   0.245 -0.2629 -0.1803  4.0199
  393SOL    HW2 1179   1.877   1.867   0.068 -1.0373 -0.3100 -2.0512
  394SOL     OW 1180   0.108   0.282   2.481  0.0869  0.0343 -0.1761
  394SOL    HW1 1181   0.075   0.188   2.487  0.8743 -0.1227 -0.1994
  394SOL    HW2 1182   0.085   0.332   2.399  1.2345  0.3531 -1.3993
  395SOL     OW 1183   1.032   0.822   0.988  0.3297 -0.5863  0.6913
  395SOL    HW1 1184   0.960   0.835   1.058 -1.7401 -1.2341  0.1812
  395SOL    HW2 1185   0.987   0.845   0.897  1.2218  2.2439  0.1707
  396SOL     OW 1186   1.277   0.674   3.019 -0.3599 -0.5301  0.0108
  396SOL    HW1 1187   1.202   0.703   2.954 -1.6133 -0.4136 -2.2654
  396SOL    HW2 1188   1.360   0.725   2.994  2.7979  1.1405 -0.6955
  397SOL     OW 1189   0.516   0.504   2.124  0.1256 -0.3312  0.1710
  397SOL    HW1 1190   0.497   0.404   2.115 -0.0809  3.3886  1.0422
  397SOL    HW2 1191   0.429   0.557   2.125  1.7766  0.0115 -1.9008
  398SOL     OW 1192   0.894   0.189   0.272 -0.1674 -0.9291  0.1831
  398SOL    HW1 1193   0.914   0.092   0.292  0.4820  2.3407  1.5598
  398SOL    HW2 1194   0.804   0.204   0.232  1.0415  1.2799  1.5870
  399SOL     OW 1195   2.048   2.935   1.770 -0.3593  0.0871  0.1964
  399SOL    HW1 1196   2.105   2.871   1.715 -1.4449  1.4464 -1.5368
  399SOL    HW2 1197   1.993   2.999   1.712  2.1259  0.2730  1.7417
  400SOL     OW 1198   0.467   1.676   2.199 -0.8092  0.0640  0.6083
  400SOL    HW1 1199   0.466   1.578   2.230 -2.8857 -0.1899 -0.9558
  400SOL    HW2 1200   0.380   1.702   2.146 -3.6235  0.6739 -1.4080
  401SOL     OW 1201   0.779   0.280   2.687 -0.3288 -0.5268  0.0576
  401SOL    HW1 1202   0.871   0.295   2.645 -1.0864  2.4613 -1.2221
  401SOL    HW2 1203   0.763   0.353   2.759 -1.5365  0.3022  2.7266
  402SOL     OW 1204   2.976   2.244   1.837  0.5314  0.0080 -0.0610
  402SOL    HW1 1205   3.028   2.198   1.912  1.3470 -1.5825  0.5497
  402SOL    HW2 1206   2.911   2.178   1.793 -1.9860  0.9260  0.0281
  403SOL     OW 1207   0.506   0.931   1.792  0.5416 -0.3448  0.3482
  403SOL    HW1 1208   0.567   0.879   1.855 -2.2400 -4.1753 -3.5400
  403SOL    HW2 1209   0.409   0.904   1.802 -0.5218  0.8620 -1.2922
  404SOL     OW 1210   0.170   2.823   1.726  0.2599 -0.1624  0.0524
  404SOL    HW1 1211   0.175   2.734   1.673 -0.7780  1.3320  2.5019
  404SOL    HW2 1212   0.073   2.831   1.753 -1.0205 -0.8594  0.9040
  405SOL     OW 1213   0.135   0.341   1.814  0.4107 -0.5427 -0.2431
  405SOL    HW1 1214   0.173   0.433   1.804 -2.7931 -1.1861  0.2887
  405SOL    HW2 1215   0.196   0.269   1.779 -1.9466  3.0612  0.2231
  406SOL     OW 1216   1.917   2.241   0.009  0.7262  0.5724 -0.3023
  406SOL    HW1 1217   1.953   2.240   0.104 -2.6810  1.2667 -0.3542
  406SOL    HW2 1218   1.944   2.326   3.040 -1.7729  1.7750 -0.5242
  407SOL     OW 1219   1.405   1.499   2.182 -0.1244  0.6318  0.0846
  407SOL    HW1 1220   1.305   1.519   2.158 -0.9352 -0.0907 -0.1541
  407SOL    HW2 1221   1.429   1.495   2.283  1.0793 -0.3726  3.6183
  408SOL     OW 1222   0.403   0.046   2.747  0.0832 -0.2020 -0.3067
  408SOL    HW1 1223   0.429   0.109   2.673 -0.5712  0.0479 -3.2417
  408SOL    HW2 1224   0.307   0.060   2.778 -0.1306  3.2306  1.8010
  409SOL     OW 1225   0.383   1.863   0.474  0.0483  0.1265  0.2361
  409SOL    HW1 1226   0.391   1.783   0.538  2.1897 -0.3126  0.6620
  409SOL    HW2 1227   0.426   1.941   0.515 -4.2202 -1.9629  1.7502
  410SOL     OW 1228   2.620   1.702   0.415  0.0494  0.4763 -0.5420
  410SOL    HW1 1229   2.651   1.789   0.380 -0.7347 -2.1826  1.9371
  410SOL    HW2 1230   2.654   1.626   0.354  0.3633  1.9948 -1.5509
  411SOL     OW 1231   2.839   0.412   1.146  0.0999 -0.2766  0.1715
  411SOL    HW1 1232   2.801   0.372   1.060  2.8139 -0.5116  3.1881
  411SOL    HW2 1233   2.896   0.343   1.194 -0.4416 -1.6291  2.7314
  412SOL     OW 1234   1.376   0.925   1.204 -0.0544 -0.6657  0.0802
  412SOL    HW1 1235   1.458   0.963   1.158 -1.2638 -2.8622  0.7438
  412SOL    HW2 1236   1.314   0.999   1.241  0.1339  0.2532 -0.1259
  413SOL     OW 1237   0.308   2.808   1.265  0.0336 -0.6587  0.0087
  413SOL    HW1 1238   0.348   2.899   1.252  1.7372 -2.0959  3.6891
  413SOL    HW2 1239   0.205   2.804   1.249 -2.1011  0.1332  0.6574
  414SOL     OW 1240   2.909   1.731   2.856  0.1882  0.4637 -0.2786
  414SOL    HW1 1241   2.992   1.768   2.905  2.4636  1.2646  0.5853
  414SOL    HW2 1242   2.907   1.633   2.868  0.2011  1.2078  0.3231
  415SOL     OW 1243   0.486   2.254   2.823 -0.2278 -0.0278  0.5506
  415SOL    HW1 1244   0.552   2.191   2.864 -0.6325  2.7880  1.7323
  415SOL    HW2 1245   0.401   2.210   2.815  0.0359 -0.0234  0.9738
  416SOL     OW 1246   1.510   0.293   0.527  0.3311 -0.0888  0.9027
  416SOL    HW1 1247   1.589   0.353   0.506  0.2352 -2.4817 -0.2644
  416SOL    HW2 1248   1.480   0.300   0.623  0.7949  1.2182 -2.1751
  417SOL     OW 1249   0.215   1.096   0.487  0.2221 -0.4665  0.5572
  417SOL    HW1 1250   0.297   1.048   0.446  0.8896  0.4700  0.0153
  417SOL    HW2 1251   0.194   1.052   0.572  0.3007  0.5795 -2.3259
  418SOL     OW 1252   2.480   0.990   2.035 -0.4997 -0.2238 -0.2891
  418SOL    HW1 1253   2.439   0.916   1.973  0.3643  1.2146 -1.9233
  418SOL    HW2 1254   2.408   1.051   2.068 -1.6175  1.3528 -0.2629
  419SOL     OW 1255   0.042   0.477   0.321  0.8073  0.0149  0.3673
  419SOL    HW1 1256   0.112   0.412   0.288  1.9883  0.7306  0.5406
  419SOL    HW2 1257   0.093   0.541   0.383  0.5895 -2.1862 -1.9992
  420SOL     OW 1258   0.377   1.391   0.528 -0.0264 -0.0043 -0.2135
  420SOL    HW1 1259   0.309   1.406   0.455  3.4660  0.7120  2.7124
  420SOL    HW2 1260   0.374   1.295   0.561  0.8217  0.3287  2.1888
  421SOL     OW 1261   0.803   2.352   0.533 -0.1145 -0.0577 -0.3079
  421SOL    HW1 1262   0.880   2.292   0.571  2.4503  2.5648  1.7926
  421SOL    HW2 1263   0.844   2.444   0.510 -2.3715 -0.0954  0.9395
  422SOL     OW 1264   3.010   0.985   1.368 -0.4355  0.1252 -0.5240
  422SOL    HW1 1265   2.969   1.077   1.377  0.6880 -0.2290 -2.7135
  422SOL    HW2 1266   0.025   0.993   1.363  1.2221  2.4856 -0.8298
  423SOL     OW 1267   1.311   1.621   1.731  0.4684  0.0959 -0.0702
  423SOL    HW1 1268   1.339   1.530   1.692 -1.9698 -0.0393  2.2255
  423SOL    HW2 1269   1.297   1.686   1.652 -0.0844 -2.1294  1.9735
  424SOL     OW 1270   1.957   1.054   2.772  1.1280  0.4936  0.7664
  424SOL    HW1 1271   1.878   1.071   2.834  2.0552  0.6544  0.0887
  424SOL    HW2 1272   1.934   1.055   2.670  0.1848  0.7808 -2.8163
  425SOL     OW 1273   2.956   0.294   1.895  0.2884 -0.1493  0.2341
  425SOL    HW1 1274   3.054   0.303   1.866  0.0150  1.6835  2.8819
  425SOL    HW2 1275   2.918   0.388   1.909  0.4629  0.0182  1.2510
  426SOL     OW 1276   2.666   2.670   2.583  0.4219  0.5028  0.3801
  426SOL    HW1 1277   2.762   2.692   2.606 -3.9225  2.9164 -0.3489
  426SOL    HW2 1278   2.609   2.649   2.665  0.0436 -1.3564  0.0817
  427SOL     OW 1279   0.872   0.709   2.249  0.2770 -0.6035 -0.4585
  427SOL    HW1 1280   0.774   0.676   2.270 -0.9990 -0.6535  0.4345
  427SOL    HW2 1281   0.869   0.806   2.221 -0.6571 -0.5436 -0.5097
  428SOL     OW 1282   2.096   0.855   1.823  0.0710  0.1463  0.0743
  428SOL    HW1 1283   2.138   0.772   1.789 -1.6327  2.2740  1.4961
  428SOL    HW2 1284   1.997   0.835   1.813  1.4833 -0.7768 -3.8304
  429SOL     OW 1285   2.920   2.853   0.484  0.0049  0.3857  0.2765
  429SOL    HW1 1286   3.014   2.879   0.510  0.2760 -1.3485 -0.2896
  429SOL    HW2 1287   2.908   2.865   0.382 -0.2992 -1.0691 -1.3711
  430SOL     OW 1288   1.817   1.659   2.378  0.5133 -0.3626  0.1851
  430SOL    HW1 1289   1.753   1.584   2.359 -0.0717  2.2169  0.6575
  430SOL    HW2 1290   1.764   1.736   2.424 -0.4608  1.5183  0.9572
  431SOL     OW 1291   0.106   1.776   1.269  0.3855 -0.2426  0.4318
  431SOL    HW1 1292   0.161   1.789   1.186  0.1112  0.0053 -0.8038
  431SOL    HW2 1293   0.147   1.822   1.347  2.3278 -1.4075  0.6103
  432SOL     OW 1294   1.777   2.903   2.665 -0.0088  0.3440  0.2511
  432SOL    HW1 1295   1.871   2.871   2.653 -1.6435  1.7987  1.9860
  432SOL    HW2 1296   1.782   3.006   2.653  2.1285  1.9912 -1.6719
  433SOL     OW 1297   1.629   2.956   2.276 -0.5258 -0.3623 -0.3499
  433SOL    HW1 1298   1.558   3.029   2.261 -0.4809 -2.3667  0.0793
  433SOL    HW2 1299   1.723   2.992   2.299  1.1781 -1.3589  0.1687
  434SOL     OW 1300   0.638   2.524   2.058  0.1029  0.2964  0.2379
  434SOL    HW1 1301   0.549   2.473   2.055 -0.7788  2.6225  2.2839
  434SOL    HW2 1302   0.629   2.622   2.027 -1.0845 -0.3882 -1.1801
  435SOL     OW 1303   0.170   2.249   0.153  0.0990  0.2370 -0.4822
  435SOL    HW1 1304   0.267   2.278   0.146 -0.6587 -2.0562 -1.6582
  435SOL    HW2 1305   0.103   2.324   0.133 -0.2386 -1.0134  1.8004
  436SOL     OW 1306   0.465   0.562   1.696 -0.0408 -0.3267 -0.4382
  436SOL    HW1 1307   0.556   0.585   1.735 -0.2848 -2.1201 -2.3414
  436SOL    HW2 1308   0.475   0.542   1.592 -0.3089  0.0301 -1.5848
  437SOL     OW 1309   0.416   2.697   2.197 -0.0929 -0.2757  0.4218
  437SOL    HW1 1310   0.444   2.794   2.193 -0.6113 -2.4381 -0.5613
  437SOL    HW2 1311   0.430   2.654   2.289  0.8560  1.5458 -0.3980
  438SOL     OW 1312   0.657   1.682   1.182  0.1173 -0.1304  0.0962
  438SOL    HW1 1313   0.681   1.774   1.162 -1.7856 -2.9065  0.8651
  438SOL    HW2 1314   0.622   1.673   1.277  0.8200 -0.6974 -0.1367
  439SOL     OW 1315   2.028   0.799   2.743 -0.1670 -0.2773  0.6630
  439SOL    HW1 1316   2.128   0.784   2.745  2.1640 -0.4984 -0.9910
  439SOL    HW2 1317   1.994   0.892   2.726  0.1501 -2.9149 -0.6169
  440SOL     OW 1318   0.603   0.721   0.010 -0.4281 -0.2344  0.1962
  440SOL    HW1 1319   0.668   0.708   0.087 -2.2716 -0.4456 -1.7819
  440SOL    HW2 1320   0.643   0.767   3.007  0.4469  0.3116 -0.1647
  441SOL     OW 1321   0.683   2.255   1.271 -0.2501 -0.3332 -0.3325
  441SOL    HW1 1322   0.688   2.310   1.358 -0.0917 -0.5512  1.8753
  441SOL    HW2 1323   0.719   2.309   1.195 -0.6585  0.8584  1.4970
  442SOL     OW 1324   2.810   1.503   0.743 -0.4564 -0.1844 -0.0150
  442SOL    HW1 1325   2.822   1.598   0.708  0.5351  2.2146  0.0599
  442SOL    HW2 1326   2.766   1.498   0.834  1.4471  0.4881 -0.1870
  443SOL     OW 1327   2.616   1.997   2.657 -0.7310  0.7015  0.0061
  443SOL    HW1 1328   2.590   1.991   2.557 -0.0333 -0.3554 -0.5626
  443SOL    HW2 1329   2.581   1.916   2.710 -1.5593 -2.1467 -1.0310
  444SOL     OW 1330   1.513   1.174   2.991  0.1885  0.4568 -0.0640
  444SOL    HW1 1331   1.512   1.216   0.004  1.2006 -0.1043  1.9809
  444SOL    HW2 1332   1.536   1.243   2.921  0.0502  1.7452  2.3257
  445SOL     OW 1333   2.712   2.785   1.826 -0.3262  0.4967 -0.1585
  445SOL    HW1 1334   2.678   2.835   1.748  0.8228 -1.2972  0.8653
  445SOL    HW2 1335   2.681   2.824   1.912  1.2429  2.4606 -3.4813
  446SOL     OW 1336   0.238   1.177   1.107 -0.2629  0.1904  0.3407
  446SOL    HW1 1337   0.268   1.251   1.046 -1.2530  4.4739 -0.1877
  446SOL    HW2 1338   0.133   1.163   1.098  1.9736  1.6592 -0.1277
  447SOL     OW 1339   0.928   1.960   1.226 -0.6611  0.1307 -0.2677
  447SOL    HW1 1340   0.831   1.955   1.240  2.4251  0.1337  0.1316
  447SOL    HW2 1341   0.958   1.874   1.174 -0.0597 -1.6011  0.7839
  448SOL     OW 1342   0.849   1.166   1.649 -0.4492  0.1490  0.0263
  448SOL    HW1 1343   0.850   1.191   1.552 -1.1379  0.5606 -0.8316
  448SOL    HW2 1344   0.882   1.069   1.660  2.3010  0.2019  0.0535
  449SOL     OW 1345   2.783   2.041   2.244  0.5949  0.0220  0.3950
  449SOL    HW1 1346   2.800   2.130   2.193  0.8079 -1.2850 -1.2833
  449SOL    HW2 1347   2.735   1.977   2.178 -0.6957 -1.4663 -2.2641
  450SOL     OW 1348   0.020   1.623   1.702 -0.2514  0.0337  0.5960
  450SOL    HW1 1349   3.061   1.622   1.797 -0.5856 -1.5754 -0.0854
  450SOL    HW2 1350   0.117   1.658   1.711  0.3440 -1.5338 -1.1439
  451SOL     OW 1351   2.266   0.597   1.156  0.0380 -0.7918  0.2213
  451SOL    HW1 1352   2.264   0.682   1.214  1.3607 -0.8640  0.3817
  451SOL    HW2 1353   2.232   0.609   1.067  0.5354  0.0240  2.1718
  452SOL     OW 1354   0.646   1.400   0.673  0.5075 -0.0246 -0.3994
  452SOL    HW1 1355   0.576   1.346   0.613 -0.0944  1.1648 -0.1084
  452SOL    HW2 1356   0.677   1.488   0.629 -0.6564  0.1027  1.4831
  453SOL     OW 1357   1.328   2.032   0.641  0.0854  0.0293  0.0586
  453SOL    HW1 1358   1.344   2.083   0.555  1.0119  2.2515  1.6830
  453SOL    HW2 1359   1.351   2.094   0.719 -1.1171 -0.0514  1.2792
  454SOL     OW 1360   0.529   1.922   3.004  0.2278 -0.1692 -0.2054
  454SOL    HW1 1361   0.521   1.837   2.945 -1.1323  0.9670 -2.4244
  454SOL    HW2 1362   0.486   1.907   0.011 -0.2585  0.4690  0.3351
  455SOL     OW 1363   1.323   0.910   0.603  0.1074 -0.1159 -0.0656
  455SOL    HW1 1364   1.223   0.903   0.577 -1.0830  0.1018 -0.6758
  455SOL    HW2 1365   1.328   0.955   0.699  0.6663 -1.4468  1.2549
  456SOL     OW 1366   2.220   2.279   1.234 -0.3801  0.2611 -0.1213
  456SOL    HW1 1367   2.151   2.208   1.248  2.9917  2.0889  1.9681
  456SOL    HW2 1368   2.257   2.307   1.325 -3.0195 -2.0749  0.6267
  457SOL     OW 1369   1.799   2.961   3.021  0.4122  0.2202  0.3607
  457SOL    HW1 1370   1.810   2.984   0.038  1.4975  3.7032 -0.7828
  457SOL    HW2 1371   1.869   2.893   2.983  1.2585 -0.6717  2.4477
  458SOL     OW 1372   2.342   0.781   0.175  0.4962 -0.2155  0.2853
  458SOL    HW1 1373   2.289   0.861   0.132 -2.1433 -4.6962  0.9008
  458SOL    HW2 1374   2.311   0.773   0.274 -1.1728 -0.9055  1.5780
  459SOL     OW 1375   3.034   0.393   2.301 -0.2139  0.4893 -0.1768
  459SOL    HW1 1376   3.000   0.478   2.346 -1.4284 -0.9990 -1.8815
  459SOL    HW2 1377   2.961   0.325   2.292  2.2553 -1.2605 -1.4812
  460SOL     OW 1378   2.886   1.016   2.890  0.1406  0.6620 -0.5421
  460SOL    HW1 1379   2.921   0.948   2.827  1.3509  4.1223  0.8847
  460SOL    HW2 1380   2.846   0.981   2.974  0.9744  1.2485 -4.0215
  461SOL     OW 1381   2.866   2.559   0.758 -0.1733 -0.3355 -0.8514
  461SOL    HW1 1382   2.898   2.582   0.852  0.1956  0.1480  0.2537
  461SOL    HW2 1383   2.784   2.613   0.737  1.1993 -2.8760 -2.0854
  462SOL     OW 1384   2.975   3.028   1.587 -0.1325 -0.3410 -0.5014
  462SOL    HW1 1385   2.947   0.037   1.618 -0.9026 -0.5105  0.0923
  462SOL    HW2 1386   3.024   3.032   1.500 -0.5445 -1.6040 -1.0779
  463SOL     OW 1387   2.065   1.626   2.494  0.0823 -0.1073 -0.0413
  463SOL    HW1 1388   2.057   1.598   2.591  0.5139 -1.2633  0.9298
  463SOL    HW2 1389   1.976   1.658   2.452 -0.0740  0.4019  1.7481
  464SOL     OW 1390   0.671   2.898   1.448 -0.1334 -0.4082  0.0967
  464SOL    HW1 1391   0.762   2.912   1.490 -0.4246 -1.5584  0.0928
  464SOL    HW2 1392   0.634   2.986   1.417 -2.4834 -1.4894 -0.6732
  465SOL     OW 1393   0.766   0.088   1.542  0.4715 -0.5128 -0.2536
  465SOL    HW1 1394   0.789   0.014   1.613  0.1538 -4.1131  2.2994
  465SOL    HW2 1395   0.704   0.159   1.581  0.7376 -0.2131 -1.7582
  466SOL     OW 1396   1.662   2.920   1.985  0.1696 -0.0213 -0.1901
  466SOL    HW1 1397   1.661   2.818   1.992  2.0172 -1.2596  1.5075
  466SOL    HW2 1398   1.640   2.955   2.076  2.1937  1.8980 -2.3375
  467SOL     OW 1399   0.331   2.014   1.242 -0.0725 -0.0323  0.0785
  467SOL    HW1 1400   0.274   1.952   1.180 -1.2223 -1.4005  3.1999
  467SOL    HW2 1401   0.326   2.116   1.213  1.6890  2.1051 -0.7440
  468SOL     OW 1402   2.461   1.513   2.600 -0.1967  0.0958  0.1499
  468SOL    HW1 1403   2.456   1.564   2.512  2.2584  1.4960  1.0181
  468SOL    HW2 1404   2.371   1.470   2.620  0.0715 -0.6528  1.3285
  469SOL     OW 1405   1.047   1.889   0.411  0.0296 -0.4518  0.4562
  469SOL    HW1 1406   1.080   1.834   0.335 -2.8096 -0.0678 -0.9085
  469SOL    HW2 1407   1.035   1.834   0.498  0.7503  1.2634  0.2378
  470SOL     OW 1408   2.242   1.285   1.431 -0.4958 -0.1405  0.1221
  470SOL    HW1 1409   2.333   1.236   1.420  2.2908 -1.7676 -2.9811
  470SOL    HW2 1410   2.185   1.242   1.504  0.1603  0.1595  1.2704
  471SOL     OW 1411   0.452   2.492   2.975 -0.7696 -0.4639 -0.3542
  471SOL    HW1 1412   0.455   2.400   2.927  3.2120  0.2892  0.4409
  471SOL    HW2 1413   0.556   2.519   2.976  2.7107 -1.3313  0.6998
  472SOL     OW 1414   2.959   1.850   2.094 -0.2298  0.1477  0.0720
  472SOL    HW1 1415   2.995   1.765   2.050 -2.0959 -2.5288  0.8734
  472SOL    HW2 1416   2.859   1.864   2.078  0.2126 -3.6500  0.6846
  473SOL     OW 1417   0.894   3.009   0.368 -0.6042  0.1061  0.2672
  473SOL    HW1 1418   0.978   2.955   0.388 -0.7228  1.1697  0.9636
  473SOL    HW2 1419   0.848   2.969   0.285  0.5842  0.6805 -1.9567
  474SOL     OW 1420   2.581   2.862   0.822  0.4054  0.1234 -0.0160
  474SOL    HW1 1421   2.576   2.766   0.787  0.7615 -2.8919  0.8902
  474SOL    HW2 1422   2.645   2.921   0.764  1.9134  1.7522 -3.5345
  475SOL     OW 1423   2.200   2.765   1.607  0.3087  0.5838  0.2429
  475SOL    HW1 1424   2.180   2.706   1.529  1.6325 -0.2978  0.5125
  475SOL    HW2 1425   2.273   2.723   1.662 -0.0608  1.9510 -0.3312
  476SOL     OW 1426   0.653   0.703   0.833 -0.2610  0.1539  0.3878
  476SOL    HW1 1427   0.685   0.670   0.739 -1.6906  0.2966 -1.3823
  476SOL    HW2 1428   0.616   0.795   0.823  0.3879 -2.4592  1.3300
  477SOL     OW 1429   0.590   2.174   0.783  0.2383  0.1101 -0.0601
  477SOL    HW1 1430   0.649   2.255   0.783 -1.6600  1.1293 -0.2331
  477SOL    HW2 1431   0.559   2.147   0.686  0.3726 -1.4463 -2.8166
  478SOL     OW 1432   3.045   2.334   2.236 -0.2464  0.5414  0.2381
  478SOL    HW1 1433   3.033   2.311   2.333 -2.3290  0.7353 -1.7130
  478SOL    HW2 1434   3.072   2.256   2.177  0.5005  3.4346  0.1828
  479SOL     OW 1435   0.110   0.746   1.660  0.3902 -0.5938  0.3239
  479SOL    HW1 1436   0.170   0.699   1.731 -1.5954 -0.0485  2.0502
  479SOL    HW2 1437   0.073   0.680   1.588  1.9352  0.5074  0.7770
  480SOL     OW 1438   0.003   2.361   2.991  0.0333  0.0562  0.2894
  480SOL    HW1 1439   0.005   2.265   2.947 -0.2091 -3.2303  1.0706
  480SOL    HW2 1440   3.040   2.358   0.002 -0.5139 -1.6533  2.8222
  481SOL     OW 1441   1.801   2.063   2.308  0.1838  0.4473  0.5027
  481SOL    HW1 1442   1.870   2.026   2.238 -0.4079  2.7673  1.1010
  481SOL    HW2 1443   1.723   1.999   2.324 -0.1957  0.4922 -0.3740
  482SOL     OW 1444   1.639   2.288   3.010 -0.1832  0.3839  0.0116
  482SOL    HW1 1445   1.650   2.228   2.927  0.9167  0.2927 -0.2834
  482SOL    HW2 1446   1.734   2.299   3.052  0.1373  1.5003 -1.2920
  483SOL     OW 1447   0.599   1.906   2.181  0.1175 -0.2378  0.0714
  483SOL    HW1 1448   0.559   1.814   2.201  2.0088 -1.4227  1.6987
  483SOL    HW2 1449   0.654   1.926   2.264 -0.4819  0.3415  2.2563
  484SOL     OW 1450   0.001   0.588   1.223  0.0445 -0.0476  0.2801
  484SOL    HW1 1451   0.002   0.536   1.135  1.6885 -0.7048  0.1679
  484SOL    HW2 1452   2.991   0.632   1.241 -0.1748 -0.3074  4.9399
  485SOL     OW 1453   2.353   0.779   0.478  0.1358 -0.2880  0.0260
  485SOL    HW1 1454   2.352   0.692   0.531 -0.9867 -0.9532 -0.3170
  485SOL    HW2 1455   2.275   0.841   0.495  0.9132  0.7592  2.0700
  486SOL     OW 1456   1.859   0.027   2.345 -0.2871 -0.5323 -0.4891
  486SOL    HW1 1457   1.871   0.112   2.293  1.4415  0.5872 -0.3127
  486SOL    HW2 1458   1.848   0.046   2.445 -1.6772  0.1671 -0.6580
  487SOL     OW 1459   1.332   1.432   1.057  0.1753 -0.4857 -0.3706
  487SOL    HW1 1460   1.270   1.392   0.987  2.0077  1.6033 -0.4036
  487SOL    HW2 1461   1.399   1.493   1.009 -0.9682  2.3388  1.5491
  488SOL     OW 1462   2.168   1.372   3.081 -0.3524 -0.4136  0.0150
  488SOL    HW1 1463   2.260   1.330   3.056 -1.0422 -1.5744  0.2316
  488SOL    HW2 1464   2.169   1.473   0.007  0.1032 -0.4430 -0.5556
  489SOL     OW 1465   2.386   0.289   0.319  0.1780 -0.1718  0.7368
  489SOL    HW1 1466   2.432   0.315   0.408 -0.9364 -1.7411  1.7611
  489SOL    HW2 1467   2.444   0.230   0.261  2.1209 -1.5775 -2.0746
  490SOL     OW 1468   1.591   2.695   0.454 -0.3459  0.3093 -0.1967
  490SOL    HW1 1469   1.629   2.782   0.492  0.5947 -4.4777  1.4376
  490SOL    HW2 1470   1.559   2.716   0.358  1.2050  1.1986 -0.5909
  491SOL     OW 1471   0.958   0.937   0.727 -0.3425  0.0526 -0.1587
  491SOL    HW1 1472   0.868   0.977   0.726 -1.7056 -0.7922 -1.1348
  491SOL    HW2 1473   0.981   0.882   0.646 -1.2366  0.8462  2.4034
  492SOL     OW 1474   1.541   0.111   0.087  0.1000  0.1548  0.0015
  492SOL    HW1 1475   1.568   0.055   0.167  0.9810  1.4278  1.7403
  492SOL    HW2 1476   1.443   0.093   0.071 -1.4118  0.1278  0.2134
  493SOL     OW 1477   1.993   2.252   0.325 -0.3128  0.6466 -0.0139
  493SOL    HW1 1478   2.039   2.328   0.376  2.0509  0.1130  0.6277
  493SOL    HW2 1479   1.894   2.238   0.338 -0.4729  1.0032  2.3106
  494SOL     OW 1480   0.549   1.096   0.447 -0.1583 -0.1252 -0.1424
  494SOL    HW1 1481   0.498   1.023   0.396 -1.1658 -3.4549 -2.9994
  494SOL    HW2 1482   0.645   1.110   0.415  1.4087 -0.8646  0.3914
  495SOL     OW 1483   0.032   2.900   1.004 -0.6729  0.3961  0.0695
  495SOL    HW1 1484   3.064   2.817   0.979  1.0208  2.0738  1.7122
  495SOL    HW2 1485   0.129   2.898   0.971  1.0413  1.4233 -0.4211
  496SOL     OW 1486   2.282   0.323   1.693  0.4274  0.1174 -0.1219
  496SOL    HW1 1487   2.375   0.324   1.653  1.9383  0.9241  1.2611
  496SOL    HW2 1488   2.250   0.417   1.720 -0.7595  0.9967 -1.3306
  497SOL     OW 1489   1.837   1.681   2.750 -0.4748  0.0407  1.1837
  497SOL    HW1 1490   1.820   1.581   2.731  4.5777  0.0487  0.8268
  497SOL    HW2 1491   1.776   1.743   2.698 -0.2116  0.1199 -2.1350
  498SOL     OW 1492   1.019   1.721   0.641  0.3824  0.1620 -0.3789
  498SOL    HW1 1493   0.936   1.714   0.705  1.3116  2.9556 -3.0887
  498SOL    HW2 1494   1.096   1.759   0.699 -0.9232  1.9069  0.5897
  499SOL     OW 1495   0.722   2.002   0.928  0.0695 -0.6476 -0.2986
  499SOL    HW1 1496   0.670   2.068   0.868  1.2316 -0.0188 -2.0474
  499SOL    HW2 1497   0.692   2.011   1.025  1.5443 -0.1888  2.5583
  500SOL     OW 1498   1.188   1.994   0.000 -0.4159 -0.3563  0.0492
  500SOL    HW1 1499   1.110   2.020   0.065 -2.1926  2.1339  1.9361
  500SOL    HW2 1500   1.257   2.072   0.010 -2.0397 -0.7282 -2.1518
  501SOL     OW 1501   2.434   2.927   1.197 -0.3245 -0.0255  0.8242
  501SOL    HW1 1502   2.504   2.856   1.164 -2.7036 -1.7926  0.0029
  501SOL    HW2 1503   2.413   2.918   1.297  0.1948 -1.2429 -1.0611
  502SOL     OW 1504   0.193   0.991   1.625 -0.1110  0.2927 -0.4131
  502SOL    HW1 1505   0.138   0.905   1.629 -0.5507  1.3605  0.7529
  502SOL    HW2 1506   0.212   1.021   1.530 -0.7961  4.5432  1.3279
  503SOL     OW 1507   1.899   0.559   1.499 -0.0435 -0.2232  0.1332
  503SOL    HW1 1508   1.888   0.459   1.486 -0.6864  1.2798 -2.2959
  503SOL    HW2 1509   1.852   0.608   1.422 -3.2250  1.3088  1.0988
  504SOL     OW 1510   1.405   0.845   2.127 -0.9166 -0.0619 -0.7426
  504SOL    HW1 1511   1.423   0.861   2.226 -1.5675 -0.0177 -0.7735
  504SOL    HW2 1512   1.350   0.922   2.097  0.3598 -0.9285 -0.2068
  505SOL     OW 1513   1.109   0.047   2.444  0.1897  0.2089 -0.7604
  505SOL    HW1 1514   1.203   0.029   2.478  0.3169  2.4740 -0.5878
  505SOL    HW2 1515   1.048   0.046   2.524  1.6220  1.2024 -3.8185
  506SOL     OW 1516   0.309   0.378   1.462 -0.2957 -0.1933  0.2544
  506SOL    HW1 1517   0.319   0.296   1.530 -0.1087 -4.5050  1.8245
  506SOL    HW2 1518   0.235   0.446   1.489 -2.0066  0.1575 -2.4742
  507SOL     OW 1519   1.364   2.982   3.037  0.2497 -0.1659  0.5559
  507SOL    HW1 1520   1.320   2.956   0.037  0.6144 -0.0763 -1.6612
  507SOL    HW2 1521   1.435   2.911   3.008  2.1571 -3.3909 -1.3541
  508SOL     OW 1522   2.138   0.331   2.378 -0.3479  0.5073 -0.4379
  508SOL    HW1 1523   2.232   0.361   2.374 -1.9458 -1.6413  0.1562
  508SOL    HW2 1524   2.113   0.304   2.473 -2.0830  2.0751  0.6033
  509SOL     OW 1525   0.646   1.495   1.759  0.2320  0.3936  0.5396
  509SOL    HW1 1526   0.718   1.532   1.700 -3.2631 -0.7442  1.0487
  509SOL    HW2 1527   0.644   1.542   1.852  1.2574  3.9279 -0.8566
  510SOL     OW 1528   3.060   1.227   0.842  0.3273  0.0368  0.1899
  510SOL    HW1 1529   2.972   1.201   0.798 -0.4359  0.3056  0.9757
  510SOL    HW2 1530   3.049   1.300   0.913 -0.1506  0.8058  1.5332
  511SOL     OW 1531   1.721   1.807   1.034 -0.2659 -0.3594 -0.3180
  511SOL    HW1 1532   1.720   1.907   1.036 -0.6082 -0.7326  1.7170
  511SOL    HW2 1533   1.813   1.769   1.065  2.5404 -2.0795  4.3080
  512SOL     OW 1534   0.804   1.109   0.354 -0.1800  0.3163 -0.5144
  512SOL    HW1 1535   0.801   1.162   0.267 -1.0393  1.6113  4.3715
  512SOL    HW2 1536   0.881   1.152   0.411  1.4061 -0.2408  1.2120
  513SOL     OW 1537   0.525   2.399   0.500 -0.3966  0.0905  0.0495
  513SOL    HW1 1538   0.532   2.471   0.424 -1.4247 -0.9721 -1.3415
  513SOL    HW2 1539   0.618   2.371   0.522 -1.8042  0.0239  2.4430
  514SOL     OW 1540   2.556   1.972   2.404  0.0170 -0.0513 -0.1712
  514SOL    HW1 1541   2.463   1.973   2.359 -1.8559 -0.8995 -1.6514
  514SOL    HW2 1542   2.624   2.017   2.341  1.7026  1.6865  2.1038
  515SOL     OW 1543   2.581   0.837   0.053  0.2779  0.1375 -0.0824
  515SOL    HW1 1544   2.649   0.811   0.125 -0.3724  0.9704 -0.2072
  515SOL    HW2 1545   2.491   0.815   0.090 -1.6064 -1.7387 -2.6708
  516SOL     OW 1546   1.911   2.925   0.891  0.1566  0.5924 -0.4960
  516SOL    HW1 1547   1.990   2.873   0.919 -0.9701  2.3425  1.0580
  516SOL    HW2 1548   1.834   2.861   0.881  0.2667 -0.6557 -4.0380
  517SOL     OW 1549   1.517   2.091   2.816  0.5558 -0.9599 -0.4781
  517SOL    HW1 1550   1.474   1.997   2.829  0.4125 -1.4143 -2.8679
  517SOL    HW2 1551   1.608   2.090   2.777 -0.8530 -0.6315  0.6720
  518SOL     OW 1552   0.922   0.906   1.658 -0.1810 -0.9033 -0.3694
  518SOL    HW1 1553   0.993   0.853   1.607 -1.0792  0.0576  1.6686
  518SOL    HW2 1554   0.908   0.867   1.752 -1.2222 -0.3975  0.5544
  519SOL     OW 1555   2.999   1.488   0.143 -0.2632  0.1437  0.0550
  519SOL    HW1 1556   0.008   1.493   0.183  0.4717  0.2426  0.4363
  519SOL    HW2 1557   2.962   1.578   0.115  1.5546 -0.0814 -0.4972
  520SOL     OW 1558   2.103   2.141   1.986  0.2944 -0.4383  0.2019
  520SOL    HW1 1559   2.190   2.177   2.032 -1.4679 -0.5230  0.1097
  520SOL    HW2 1560   2.062   2.060   2.035 -0.5749 -1.6181  0.8192
  521SOL     OW 1561   0.932   2.865   2.569 -0.1425  0.1137  0.0511
  521SOL    HW1 1562   0.926   2.959   2.613  0.6526  0.1995  0.6582
  521SOL    HW2 1563   0.863   2.858   2.494  0.6647 -0.3013  2.5733
  522SOL     OW 1564   2.080   0.202   2.126  0.3199  0.5917 -0.0773
  522SOL    HW1 1565   2.107   0.242   2.215  1.2122  2.1312 -2.4982
  522SOL    HW2 1566   2.038   0.279   2.074  2.4451  1.5920  0.1381
  523SOL     OW 1567   1.880   2.496   1.374 -0.2994 -0.6857 -0.1779
  523SOL    HW1 1568   1.820   2.517   1.456  0.6823  1.6973  2.5708
  523SOL    HW2 1569   1.974   2.529   1.395  0.7568 -0.1548  1.3841
  524SOL     OW 1570   1.651   2.050   0.123 -0.2824 -0.1056  0.1446
  524SOL    HW1 1571   1.727   2.012   0.174 -0.7462 -0.2267 -0.1900
  524SOL    HW2 1572   1.678   2.138   0.077  0.9907 -0.3211 -1.9915
  525SOL     OW 1573   0.194   0.680   3.036  0.5449 -0.2318 -0.3258
  525SOL    HW1 1574   0.268   0.611   3.033 -0.0488 -0.6434  0.1316
  525SOL    HW2 1575   0.126   0.652   2.967 -1.5834 -1.4174 -0.2925
  526SOL     OW 1576   1.126   2.819   0.408  0.1679  0.1638 -0.2833
  526SOL    HW1 1577   1.134   2.716   0.388 -0.8502  0.2539  1.1668
  526SOL    HW2 1578   1.157   2.843   0.506 -1.1239  0.6562  1.2610
  527SOL     OW 1579   2.779   1.744   0.636 -0.0549 -0.2983  0.1761
  527SOL    HW1 1580   2.765   1.793   0.723 -1.4297  0.1695  0.6584
  527SOL    HW2 1581   2.690   1.725   0.591  1.8142 -1.0979  0.9783
  528SOL     OW 1582   0.480   0.952   2.163 -0.2130 -0.9740 -0.5267
  528SOL    HW1 1583   0.380   0.961   2.145 -0.1739 -2.1624 -1.9009
  528SOL    HW2 1584   0.514   0.885   2.101  0.2607  3.7226  3.8109
  529SOL     OW 1585   1.633   1.804   2.599  0.3365  0.1338 -0.1326
  529SOL    HW1 1586   1.544   1.788   2.648 -2.7336  0.3638  3.9935
  529SOL    HW2 1587   1.684   1.873   2.654 -0.6929  0.4893  1.4394
  530SOL     OW 1588   1.645   1.035   2.318 -0.3560  0.0741  0.1387
  530SOL    HW1 1589   1.617   1.121   2.268  2.7015  0.1127 -2.9153
  530SOL    HW2 1590   1.563   0.991   2.354  4.7311  2.0949 -1.2326
  531SOL     OW 1591   0.507   2.444   2.641  0.6530  0.2741 -0.0704
  531SOL    HW1 1592   0.456   2.423   2.554  1.0440  0.2115 -0.2599
  531SOL    HW2 1593   0.492   2.377   2.716  1.4799 -1.6913  1.1262
  532SOL     OW 1594   2.622   0.789   0.476 -0.4167  0.2241  0.3476
  532SOL    HW1 1595   2.638   0.834   0.565  0.5021  1.5773 -1.2171
  532SOL    HW2 1596   2.522   0.785   0.453  1.6123  0.6472  0.9179
  533SOL     OW 1597   2.902   0.197   1.655 -0.2344  0.4353 -0.0649
  533SOL    HW1 1598   2.930   0.232   1.748 -0.3834 -2.1880  1.3153
  533SOL    HW2 1599   2.918   0.263   1.577 -0.4673  0.5826 -0.1700
  534SOL     OW 1600   0.813   0.098   3.048 -0.3021 -1.0525  0.4823
  534SOL    HW1 1601   0.819   0.197   3.069 -0.9980 -0.5866 -2.8425
  534SOL    HW2 1602   0.750   0.089   2.968  1.7258  0.8501  0.9632
  535SOL     OW 1603   0.214   0.291   0.237  0.9965  0.2379 -0.4315
  535SOL    HW1 1604   0.179   0.243   0.152  1.1602  0.5498 -0.0334
  535SOL    HW2 1605   0.205   0.238   0.325  0.6488  1.0342  1.3627
  536SOL     OW 1606   0.267   1.811   1.060 -0.1783 -0.6384 -0.6383
  536SOL    HW1 1607   0.248   1.849   0.965 -1.8219 -0.2596  0.7735
  536SOL    HW2 1608   0.335   1.734   1.058 -1.8658 -1.0060  2.0793
  537SOL     OW 1609   0.979   2.766   1.872 -0.2784  0.1208 -0.5323
  537SOL    HW1 1610   1.049   2.714   1.823 -0.3398  4.1704 -0.6994
  537SOL    HW2 1611   0.986   2.743   1.970 -0.0025  0.8795 -1.4168
  538SOL     OW 1612   0.094   1.882   2.992 -0.1116 -0.0393  0.3136
  538SOL    HW1 1613   0.123   1.922   3.081 -1.6827  0.1661  0.4851
  538SOL    HW2 1614   0.167   1.816   2.957  5.1478 -0.2093  0.9485
  539SOL     OW 1615   2.624   0.932   2.698  0.2019  0.2073 -0.2105
  539SOL    HW1 1616   2.554   0.940   2.627  3.5112  2.5869  0.3781
  539SOL    HW2 1617   2.711   0.969   2.665 -3.0577 -0.1715  0.6172
  540SOL     OW 1618   1.867   0.104   2.633 -0.3405 -0.3030  0.4525
  540SOL    HW1 1619   1.848   0.127   2.733 -2.8111 -0.2889  0.1994
  540SOL    HW2 1620   1.957   0.155   2.607 -0.4633 -0.1617 -1.6541
  541SOL     OW 1621   0.689   0.226   2.166 -0.2189 -0.5388  0.2039
  541SOL    HW1 1622   0.692   0.160   2.248 -0.2156 -2.0268  3.3059
  541SOL    HW2 1623   0.593   0.244   2.135  3.3607  1.0294  0.7149
  542SOL     OW 1624   2.101   2.685   0.122  0.5435 -0.1271  0.4533
  542SOL    HW1 1625   2.057   2.669   0.030  0.0673 -0.4208 -0.0860
  542SOL    HW2 1626   2.025   2.726   0.182 -2.9292  2.4506 -1.8477
  543SOL     OW 1627   1.111   0.175   0.439  0.1620 -0.5247  0.6264
  543SOL    HW1 1628   1.185   0.243   0.424 -1.2285 -1.8570 -0.3328
  543SOL    HW2 1629   1.028   0.204   0.396  2.6729  1.8792  2.5085
  544SOL     OW 1630   2.511   1.288   1.810 -0.2505  0.9855  0.1300
  544SOL    HW1 1631   2.543   1.189   1.803  0.1584 -0.7558  0.6510
  544SOL    HW2 1632   2.559   1.346   1.882  1.8200  1.9242  0.2624
  545SOL     OW 1633   2.166   1.686   1.324 -0.8599 -0.2437 -0.2239
  545SOL    HW1 1634   2.239   1.748   1.286 -0.0982  0.6215 -2.8136
  545SOL    HW2 1635   2.159   1.594   1.273 -2.0516 -5.4018 -0.4754
  546SOL     OW 1636   0.236   3.011   2.103  0.0359 -0.0564 -0.3217
  546SOL    HW1 1637   0.256   3.076   2.173  1.8273 -1.8234  0.5208
  546SOL    HW2 1638   0.210   2.922   2.146 -1.4848 -2.7143 -0.4947
  547SOL     OW 1639   1.426   0.630   0.787 -0.6951 -0.1753 -0.0025
  547SOL    HW1 1640   1.380   0.689   0.857 -2.3194  0.1431  0.3737
  547SOL    HW2 1641   1.495   0.563   0.822 -4.3181  0.3718 -0.1229
  548SOL     OW 1642   1.644   2.417   2.641  0.3160 -0.0306  0.2820
  548SOL    HW1 1643   1.547   2.392   2.657  1.3684 -0.6653 -0.1783
  548SOL    HW2 1644   1.690   2.334   2.612 -1.0080 -0.0743  0.9196
  549SOL     OW 1645   2.185   0.409   0.143  0.1109  0.0680 -0.5285
  549SOL    HW1 1646   2.084   0.421   0.154  3.0740 -2.3162  1.0291
  549SOL    HW2 1647   2.232   0.370   0.228  3.2699 -0.9356 -1.0376
  550SOL     OW 1648   3.032   1.867   0.562  0.1548  0.1246  0.7713
  550SOL    HW1 1649   2.933   1.842   0.545 -0.3521 -1.2370 -0.3426
  550SOL    HW2 1650   0.002   1.780   0.548 -1.5037 -1.2131  0.4497
  551SOL     OW 1651   1.196   2.906   2.210  0.6984  0.2777  0.3240
  551SOL    HW1 1652   1.278   2.855   2.246 -1.5965  1.5152  1.9351
  551SOL    HW2 1653   1.173   2.991   2.263  0.1919 -1.2844 -2.5551
  552SOL     OW 1654   3.002   2.232   2.470  0.2666  0.2674 -0.2566
  552SOL    HW1 1655   3.004   2.134   2.447 -2.1921 -1.0963  0.3885
  552SOL    HW2 1656   2.910   2.243   2.514 -0.7754  0.9537  2.9326
  553SOL     OW 1657   0.193   0.230   0.810 -0.3269 -0.0665 -0.1720
  553SOL    HW1 1658   0.129   0.163   0.779  1.1471  1.9801  0.8445
  553SOL    HW2 1659   0.284   0.188   0.833 -0.3241  1.8499  0.3435
  554SOL     OW 1660   2.250   2.211   1.680 -0.1706  0.3249  0.1415
  554SOL    HW1 1661   2.152   2.204   1.706  1.4883 -0.6119  2.0990
  554SOL    HW2 1662   2.296   2.232   1.769  0.3379 -0.1138  1.9955
  555SOL     OW 1663   1.723   2.295   2.137  0.0010  0.3656  0.0441
  555SOL    HW1 1664   1.743   2.210   2.191 -1.1781  1.4986  1.2715
  555SOL    HW2 1665   1.815   2.336   2.116 -1.6738 -3.4760 -0.6119
  556SOL     OW 1666   1.304   1.380   1.331 -0.8747 -0.0878 -0.1091
  556SOL    HW1 1667   1.324   1.415   1.241 -1.4655 -1.8000  0.5219
  556SOL    HW2 1668   1.243   1.442   1.379 -0.4564  1.6325 -2.8251
  557SOL     OW 1669   2.076   2.611   2.153  1.0858 -0.1129  0.6423
  557SOL    HW1 1670   2.144   2.624   2.229 -0.4336 -1.7364 -0.4044
  557SOL    HW2 1671   2.020   2.697   2.136 -0.1544 -1.3181  0.0769
  558SOL     OW 1672   0.367   2.909   1.893  0.0040 -0.0872 -0.3141
  558SOL    HW1 1673   0.318   2.946   1.966  0.6807  0.1703 -1.8279
  558SOL    HW2 1674   0.302   2.870   1.825 -1.0956  0.7626  0.6596
  559SOL     OW 1675   2.027   0.019   0.451  0.1175  0.1686  0.0809
  559SOL    HW1 1676   2.047   0.036   0.548 -2.9464 -0.1429 -2.2913
  559SOL    HW2 1677   2.037   0.104   0.392  1.6298  0.2177 -2.2382
  560SOL     OW 1678   1.677   2.909   0.617 -0.0693 -0.4095  0.3928
  560SOL    HW1 1679   1.644   2.878   0.708  0.0789 -0.9392  0.7306
  560SOL    HW2 1680   1.607   2.975   0.582  1.5126  0.6917 -2.3099
  561SOL     OW 1681   0.761   0.244   1.045  0.5237 -0.0596  0.0604
  561SOL    HW1 1682   0.773   0.339   1.021 -1.3800  0.7384 -2.0985
  561SOL    HW2 1683   0.756   0.190   0.960  2.6662  0.9941  4.0263
  562SOL     OW 1684   0.469   0.911   2.438  0.0839 -0.1549  0.0907
  562SOL    HW1 1685   0.435   0.994   2.487 -0.3116  0.1340 -0.5166
  562SOL    HW2 1686   0.482   0.931   2.333  0.5963  0.9792 -3.4726
  563SOL     OW 1687   1.827   2.212   2.535  0.3668 -0.0397 -0.4126
  563SOL    HW1 1688   1.920   2.257   2.538 -0.8530 -1.0877 -2.0790
  563SOL    HW2 1689   1.804   2.157   2.451  1.2056 -1.1263 -1.6753
  564SOL     OW 1690   2.809   1.063   1.056  0.3838  0.3633  0.2351
  564SOL    HW1 1691   2.734   1.004   1.088 -0.6905  1.1948 -1.1612
  564SOL    HW2 1692   2.785   1.104   0.966  0.1832 -3.9910 -1.1104
  565SOL     OW 1693   0.830   0.924   0.044  0.0397 -0.2670 -0.2168
  565SOL    HW1 1694   0.825   0.869   0.126 -2.8287  2.0282  1.1267
  565SOL    HW2 1695   0.747   0.984   0.043 -0.1925  2.1946 -0.3681
  566SOL     OW 1696   2.327   0.185   2.804 -0.3839  0.1299  0.3995
  566SOL    HW1 1697   2.364   0.092   2.779  1.8870 -3.7694  1.0653
  566SOL    HW2 1698   2.341   0.206   2.901 -1.2055 -0.1246 -1.4837
  567SOL     OW 1699   1.889   1.125   0.599  0.3052  0.2878 -0.0040
  567SOL    HW1 1700   1.960   1.197   0.624 -3.0366  0.1817  2.7305
  567SOL    HW2 1701   1.845   1.135   0.506 -0.8262 -0.4944 -1.2181
  568SOL     OW 1702   1.788   1.773   3.024 -0.6473  0.4300 -0.4776
  568SOL    HW1 1703   1.708   1.736   3.080  1.7664 -1.0808  0.1215
  568SOL    HW2 1704   1.799   1.736   2.929  0.4078 -1.9372  0.0338
  569SOL     OW 1705   1.899   1.357   3.005  0.0338  1.0258 -0.7116
  569SOL    HW1 1706   1.835   1.390   3.073 -0.5241 -1.4952 -2.4600
  569SOL    HW2 1707   1.992   1.385   3.029 -0.4596  0.3692 -0.7710
  570SOL     OW 1708   0.380   2.209   1.811  0.3634  0.1089  0.4843
  570SOL    HW1 1709   0.462   2.217   1.752 -2.6164  1.0302 -0.8833
  570SOL    HW2 1710   0.367   2.289   1.871  1.1780 -3.6252 -1.3329
  571SOL     OW 1711   0.173   1.076   1.888  0.6002  0.4984  0.7692
  571SOL    HW1 1712   0.193   1.042   1.790  4.7887  1.9338  1.2372
  571SOL    HW2 1713   0.091   1.137   1.884 -2.3865  2.4586  2.1271
  572SOL     OW 1714   1.232   1.691   0.293  0.0795 -0.3586 -0.7182
  572SOL    HW1 1715   1.297   1.765   0.324 -0.4432  0.5854 -1.0256
  572SOL    HW2 1716   1.245   1.666   0.198 -1.5037  0.1909  1.0031
  573SOL     OW 1717   1.898   2.131   0.698  0.3581  0.1316  0.2142
  573SOL    HW1 1718   1.842   2.167   0.624  0.9057 -1.5134  3.9693
  573SOL    HW2 1719   1.864   2.163   0.788  0.2507  0.3293  4.9631
  574SOL     OW 1720   0.880   0.156   1.287  0.3039 -0.0388  0.0221
  574SOL    HW1 1721   0.818   0.152   1.373 -1.8355 -0.1951  0.7791
  574SOL    HW2 1722   0.832   0.203   1.208 -0.5364  2.3634 -1.7711
  575SOL     OW 1723   0.438   1.207   1.352  0.0867  0.3967 -0.6219
  575SOL    HW1 1724   0.467   1.235   1.446 -1.2273  0.8229 -2.1160
  575SOL    HW2 1725   0.497   1.243   1.275  1.6573  0.6246  2.7676
  576SOL     OW 1726   2.720   2.972   1.049 -0.0638  0.1689 -0.0333
  576SOL    HW1 1727   2.652   2.951   0.977 -0.0548 -0.4876  2.1782
  576SOL    HW2 1728   2.686   3.038   1.119 -0.2395  0.8565  0.0538
  577SOL     OW 1729   0.843   1.292   2.084  0.3570 -0.0467 -0.2426
  577SOL    HW1 1730   0.775   1.283   2.012  0.8190  0.5994 -1.0814
  577SOL    HW2 1731   0.797   1.269   2.167  0.4627  0.2198 -1.8681
  578SOL     OW 1732   1.860   1.075   2.500 -0.1612 -0.0685  0.3405
  578SOL    HW1 1733   1.798   1.052   2.416 -1.4884 -1.7703 -2.5687
  578SOL    HW2 1734   1.863   1.180   2.505 -1.3586  1.8795  0.1591
  579SOL     OW 1735   1.635   2.396   1.722 -0.4277 -0.6144 -0.0745
  579SOL    HW1 1736   1.722   2.439   1.758 -0.2710 -0.0938  2.0368
  579SOL    HW2 1737   1.591   2.342   1.797  1.4104  2.3393 -1.6063
  580SOL     OW 1738   1.419   1.831   2.820 -0.2019 -0.6290  0.5045
  580SOL    HW1 1739   1.418   1.730   2.840  0.3961  0.0556 -0.3387
  580SOL    HW2 1740   1.326   1.874   2.825  1.0097  1.6760 -1.5089
  581SOL     OW 1741   0.951   0.958   2.152 -1.0378 -0.1255 -0.3515
  581SOL    HW1 1742   0.945   1.008   2.243  0.8101  0.2557 -3.0554
  581SOL    HW2 1743   1.048   0.957   2.117  1.0837  1.1838  0.0217
  582SOL     OW 1744   0.848   1.260   1.390 -0.3513  0.0922 -0.1193
  582SOL    HW1 1745   0.759   1.298   1.359  3.7687 -0.1993 -0.8759
  582SOL    HW2 1746   0.906   1.227   1.313 -1.8069  1.5277  2.3856
  583SOL     OW 1747   0.984   1.256   1.859  0.1235  0.2644 -0.0970
  583SOL    HW1 1748   0.918   1.227   1.786 -0.6143 -1.6531 -1.6588
  583SOL    HW2 1749   0.937   1.280   1.945 -0.5412 -2.4140  0.1197
  584SOL     OW 1750   2.622   2.635   0.611  0.1292  0.2240 -0.3582
  584SOL    HW1 1751   2.632   2.535   0.583  0.7275 -0.2484 -1.4619
  584SOL    HW2 1752   2.549   2.681   0.559  0.6630 -1.4615 -1.2018
  585SOL     OW 1753   1.889   0.112   2.908  0.2543 -0.0940  0.4620
  585SOL    HW1 1754   1.927   0.151   2.993 -4.9116 -0.3199 -2.8026
  585SOL    HW2 1755   1.845   0.025   2.938  0.4929 -0.8570  0.6258
  586SOL     OW 1756   0.072   2.265   0.959 -0.1254 -0.5093 -0.1362
  586SOL    HW1 1757   0.045   2.324   0.877  3.1963  1.4267 -2.0336
  586SOL    HW2 1758   0.041   2.307   1.051 -1.0044  2.3556  1.2160
  587SOL     OW 1759   1.584   1.684   0.075 -0.4187  0.2989  0.1561
  587SOL    HW1 1760   1.530   1.756   0.124  0.2129  0.8187 -0.0706
  587SOL    HW2 1761   1.520   1.633   0.010  0.0413 -3.1418 -1.2026
  588SOL     OW 1762   0.277   0.228   1.203 -0.4295 -0.2726 -0.0683
  588SOL    HW1 1763   0.369   0.256   1.175 -1.0647 -0.4707  2.3659
  588SOL    HW2 1764   0.250   0.276   1.291 -0.8800  1.6655  1.8618
  589SOL     OW 1765   1.208   0.102   0.891  0.3633  0.3180  0.5868
  589SOL    HW1 1766   1.160   0.162   0.822  1.6222 -0.0993 -0.0364
  589SOL    HW2 1767   1.171   0.118   0.983  1.4629 -0.0178 -1.5361
  590SOL     OW 1768   1.105   1.061   2.710  0.2071  0.3237 -0.4723
  590SOL    HW1 1769   1.187   1.000   2.717 -1.9838 -1.7933 -0.9610
  590SOL    HW2 1770   1.131   1.161   2.713 -0.8488 -2.8154 -1.1420
  591SOL     OW 1771   2.717   2.227   2.480  0.3571  0.0738  0.0956
  591SOL    HW1 1772   2.629   2.176   2.497  0.5041 -3.4934 -0.7988
  591SOL    HW2 1773   2.714   2.292   2.401 -3.4779 -2.3877  0.7556
  592SOL     OW 1774   2.025   1.898   1.443 -0.1574 -0.1850  0.3121
  592SOL    HW1 1775   2.103   1.936   1.497 -0.0551 -0.3589  1.3126
  592SOL    HW2 1776   2.057   1.811   1.398  2.6858  0.8451 -0.0256
  593SOL     OW 1777   1.091   0.720   1.543  0.4041 -0.4228 -0.1680
  593SOL    HW1 1778   1.098   0.713   1.446  2.8452  0.3463  3.2081
  593SOL    HW2 1779   1.108   0.629   1.586  1.3911 -0.3879 -1.1789
  594SOL     OW 1780   2.654   1.007   2.274  0.4690  0.0632 -0.4567
  594SOL    HW1 1781   2.727   1.021   2.204  0.0109  1.7417 -1.7344
  594SOL    HW2 1782   2.572   0.963   2.238  1.6443  2.6517 -0.0048
  595SOL     OW 1783   3.014   0.230   0.551  0.0196 -0.3090 -0.1085
  595SOL    HW1 1784   3.059   0.314   0.585  0.2604 -0.5706  0.5148
  595SOL    HW2 1785   3.029   0.151   0.615  0.6748 -1.6190  0.6534
  596SOL     OW 1786   3.078   1.456   1.026 -0.0501  0.0769 -0.8767
  596SOL    HW1 1787   0.090   1.482   1.014 -1.6224  0.5579 -0.6851
  596SOL    HW2 1788   3.081   1.373   1.080  0.0909 -1.7981  1.0235
  597SOL     OW 1789   1.821   1.494   0.599  0.3917 -0.8086 -0.0515
  597SOL    HW1 1790   1.778   1.580   0.629  0.0340  1.6634 -1.0968
  597SOL    HW2 1791   1.836   1.502   0.503  2.7370 -0.7175  1.9114
  598SOL     OW 1792   0.467   2.649   1.821  0.0968 -0.0886 -0.1984
  598SOL    HW1 1793   0.474   2.688   1.731 -0.1319 -1.7535  1.2956
  598SOL    HW2 1794   0.440   2.719   1.891  2.9396 -2.4510  0.3237
  599SOL     OW 1795   2.685   1.413   2.502 -0.4988  0.3338  0.2599
  599SOL    HW1 1796   2.772   1.402   2.558 -1.1135 -1.2413 -0.4118
  599SOL    HW2 1797   2.609   1.421   2.568 -1.5016  1.3136  1.1233
  600SOL     OW 1798   0.607   1.118   0.092 -0.3856  0.2127  0.6221
  600SOL    HW1 1799   0.691   1.173   0.120  2.1870  1.4457 -0.4356
  600SOL    HW2 1800   0.533   1.128   0.159 -0.0131 -0.2982 -2.5755
  601SOL     OW 1801   0.496   0.937   0.830 -0.2600 -0.2422 -0.5834
  601SOL    HW1 1802   0.482   0.949   0.929  1.4466  1.1054 -0.0991
  601SOL    HW2 1803   0.458   1.017   0.783  0.6912 -0.3997  1.9324
  602SOL     OW 1804   1.391   2.431   0.434 -0.1172  0.2329 -0.4547
  602SOL    HW1 1805   1.429   2.447   0.524  0.7860  1.0179 -1.4979
  602SOL    HW2 1806   1.460   2.448   0.361 -0.4068  0.4836 -0.8372
  603SOL     OW 1807   1.165   2.497   1.876 -0.4292 -0.3719  0.2450
  603SOL    HW1 1808   1.228   2.569   1.913  1.2210  0.7065 -2.2786
  603SOL    HW2 1809   1.069   2.494   1.916 -0.1763 -0.6145 -0.2924
  604SOL     OW 1810   0.397   0.453   2.484 -0.0992  0.0866  0.3619
  604SOL    HW1 1811   0.308   0.398   2.502  1.1421 -1.3951 -1.1770
  604SOL    HW2 1812   0.377   0.550   2.460  0.7880 -1.6425 -3.1376
  605SOL     OW 1813   2.486   1.182   1.354 -0.2772  0.1663 -0.1272
  605SOL    HW1 1814   2.516   1.246   1.429 -0.2831  0.9335 -0.3335
  605SOL    HW2 1815   2.536   1.087   1.364  1.7876  0.5056 -0.7508
  606SOL     OW 1816   0.700   1.740   2.605  0.3613  0.3848 -0.2733
  606SOL    HW1 1817   0.613   1.771   2.555 -4.0589  0.9924  2.2287
  606SOL    HW2 1818   0.737   1.658   2.568 -1.3458  2.4849  0.3604
  607SOL     OW 1819   0.504   3.044   0.160  0.5045  0.1789  0.2969
  607SOL    HW1 1820   0.526   2.971   0.089 -0.1348 -2.7008 -2.6114
  607SOL    HW2 1821   0.493   3.001   0.251 -0.6499 -0.1985 -1.9737
  608SOL     OW 1822   2.285   1.776   2.077 -0.0690  0.0632  0.5376
  608SOL    HW1 1823   2.264   1.787   1.978 -0.3530  2.1213  0.6307
  608SOL    HW2 1824   2.206   1.735   2.129 -2.6016  1.0689  0.1638
  609SOL     OW 1825   2.783   0.279   0.905 -0.0335 -0.1046  0.2886
  609SOL    HW1 1826   2.840   0.193   0.900  1.1905 -2.3173  0.7874
  609SOL    HW2 1827   2.684   0.271   0.875 -1.0235 -0.7783 -3.3164
  610SOL     OW 1828   0.365   2.687   0.548 -0.7643  0.2822 -0.5228
  610SOL    HW1 1829   0.468   2.695   0.564 -0.0829  0.9139  0.1787
  610SOL    HW2 1830   0.345   2.745   0.468  0.2136  2.8418  0.1323
  611SOL     OW 1831   1.577   1.269   0.184  0.3325  0.4915  0.2712
  611SOL    HW1 1832   1.641   1.225   0.252  0.5260 -0.8180 -2.5197
  611SOL    HW2 1833   1.489   1.303   0.231 -1.1904  0.6606 -1.1724
  612SOL     OW 1834   0.723   2.534   1.757 -0.2781  0.1407  0.1822
  612SOL    HW1 1835   0.782   2.482   1.822 -1.5829 -0.8848  2.0410
  612SOL    HW2 1836   0.638   2.569   1.802 -0.6985  1.6254  0.3310
  613SOL     OW 1837   0.632   2.753   0.589  0.2750 -0.2014 -0.3133
  613SOL    HW1 1838   0.648   2.758   0.691 -1.9867  2.2044  0.5188
  613SOL    HW2 1839   0.698   2.688   0.546 -0.2466  0.8715 -1.6799
  614SOL     OW 1840   2.351   2.939   1.448  0.3015  0.5564 -0.1236
  614SOL    HW1 1841   2.310   3.032   1.443  0.3387 -0.7017 -0.6525
  614SOL    HW2 1842   2.300   2.878   1.514 -2.5735  0.1713  0.4949
  615SOL     OW 1843   1.720   1.103   0.371 -0.1165 -0.4047  0.0031
  615SOL    HW1 1844   1.622   1.071   0.367  1.3092 -2.6429 -0.6426
  615SOL    HW2 1845   1.787   1.055   0.308  0.8292 -0.0609 -0.6130
  616SOL     OW 1846   1.910   1.010   0.185 -0.6729 -0.0051  0.2701
  616SOL    HW1 1847   1.993   1.067   0.196 -0.9897  0.7589  0.1416
  616SOL    HW2 1848   1.918   0.945   0.110  0.1723  2.2808  0.4637
  617SOL     OW 1849   1.021   0.754   2.877 -0.2937  0.3762 -0.3725
  617SOL    HW1 1850   0.981   0.760   2.783  0.1429  0.7881 -0.5124
  617SOL    HW2 1851   0.992   0.832   2.933 -0.1353  0.1002 -3.2197
  618SOL     OW 1852   0.818   2.974   2.127  0.1418  0.2248  0.3342
  618SOL    HW1 1853   0.816   2.896   2.064  0.5937 -0.9674  1.0310
  618SOL    HW2 1854   0.775   3.047   2.074 -0.4298  1.6376 -1.0260
  619SOL     OW 1855   2.858   1.472   1.482 -0.0847 -0.2199 -0.2826
  619SOL    HW1 1856   2.906   1.555   1.460 -2.8444 -2.4669 -0.1778
  619SOL    HW2 1857   2.764   1.507   1.494  0.4098  2.6315 -0.5779
  620SOL     OW 1858   2.971   0.751   2.712  0.2179 -0.4932 -0.7555
  620SOL    HW1 1859   3.020   0.670   2.756 -1.0745 -1.4800 -1.0593
  620SOL    HW2 1860   3.045   0.826   2.689  1.9307  0.9964 -1.0428
  621SOL     OW 1861   2.327   1.973   2.290  0.1239 -0.2384 -0.3128
  621SOL    HW1 1862   2.321   1.899   2.221 -0.1306  5.6246 -0.0794
  621SOL    HW2 1863   2.290   1.933   2.378  0.3908  0.4045  2.3553
  622SOL     OW 1864   1.108   0.447   2.058 -0.8504 -0.4342 -0.5250
  622SOL    HW1 1865   1.042   0.413   2.126  1.9679  2.0888 -1.1078
  622SOL    HW2 1866   1.200   0.473   2.095 -1.4745  0.5754  1.8862
  623SOL     OW 1867   0.661   1.164   2.256  0.5121  0.3746  0.1317
  623SOL    HW1 1868   0.599   1.096   2.210 -1.1104  1.4088 -0.3664
  623SOL    HW2 1869   0.722   1.117   2.320 -2.2855  0.1469 -2.3826
  624SOL     OW 1870   2.767   0.814   0.232  0.3570 -0.0131 -0.5424
  624SOL    HW1 1871   2.716   0.800   0.319 -0.5547 -1.6381  0.0578
  624SOL    HW2 1872   2.837   0.744   0.226 -0.7109  2.1780 -0.8436
  625SOL     OW 1873   0.819   1.770   0.836 -0.4286  0.1618  0.0690
  625SOL    HW1 1874   0.778   1.861   0.851 -0.5869  0.2957  0.3413
  625SOL    HW2 1875   0.874   1.739   0.915  0.2114  0.0727  1.3182
  626SOL     OW 1876   1.918   0.796   2.469  0.0680  0.1091 -0.6662
  626SOL    HW1 1877   1.894   0.765   2.563  3.6543  0.4036  0.0234
  626SOL    HW2 1878   1.920   0.899   2.456 -0.4079  4.1863  1.3814
  627SOL     OW 1879   1.352   2.796   2.740  0.0828 -0.0137  0.3030
  627SOL    HW1 1880   1.418   2.879   2.728 -0.5043  0.2894 -0.6184
  627SOL    HW2 1881   1.369   2.727   2.666 -0.3394 -0.7429  2.1005
  628SOL     OW 1882   2.275   2.903   2.146  0.5165  0.7081 -0.1626
  628SOL    HW1 1883   2.361   2.948   2.185 -1.4311  0.9134 -1.0071
  628SOL    HW2 1884   2.232   2.958   2.073  0.7238  0.1128  0.6629
  629SOL     OW 1885   0.677   0.066   2.814 -0.2943 -0.1120  0.7631
  629SOL    HW1 1886   0.577   0.055   2.794  0.6038 -1.6302 -1.9734
  629SOL    HW2 1887   0.709   0.153   2.773  0.2784 -1.5726 -0.6545
  630SOL     OW 1888   1.079   0.333   2.553  0.3464  0.6776  0.5656
  630SOL    HW1 1889   1.124   0.252   2.512 -0.7258 -0.2442  1.4722
  630SOL    HW2 1890   1.127   0.353   2.641  0.0536 -0.7788 -3.8259
  631SOL     OW 1891   2.119   1.268   0.670  0.0749  0.2051 -0.3384
  631SOL    HW1 1892   2.088   1.337   0.740 -0.5089  1.0394  0.0462
  631SOL    HW2 1893   2.181   1.314   0.601  0.3018 -0.4950 -1.5002
  632SOL     OW 1894   1.832   0.811   1.807  0.0489  0.6387  0.2324
  632SOL    HW1 1895   1.737   0.795   1.836  1.4912 -0.4398 -3.4867
  632SOL    HW2 1896   1.846   0.896   1.756  1.7580 -2.0012 -2.5209
  633SOL     OW 1897   1.190   1.709   3.081  0.5828 -0.0114 -0.5330
  633SOL    HW1 1898   1.106   1.713   3.021 -0.7145  1.8232 -0.6453
  633SOL    HW2 1899   1.222   1.796   0.030  1.9685 -1.4052  2.0111
  634SOL     OW 1900   2.629   2.961   1.621  0.4557  0.3369  0.3583
  634SOL    HW1 1901   2.527   2.947   1.605  1.5950  0.5908 -0.5745
  634SOL    HW2 1902   2.650   3.062   1.616 -0.9190 -2.3310 -0.0049
  635SOL     OW 1903   1.650   0.476   0.867 -0.5033  0.0704  0.3400
  635SOL    HW1 1904   1.748   0.508   0.850  0.1080  0.1717  1.0337
  635SOL    HW2 1905   1.658   0.388   0.923 -0.5923 -0.7713  0.5459
  636SOL     OW 1906   0.830   1.246   0.118  0.2926 -0.6827 -0.5141
  636SOL    HW1 1907   0.829   1.337   0.167  0.0114 -5.1282 -3.1446
  636SOL    HW2 1908   0.890   1.254   0.031  1.1950  1.5702 -2.0334
  637SOL     OW 1909   2.794   2.121   3.012 -0.5185  0.3118 -0.0524
  637SOL    HW1 1910   2.811   2.115   0.029  1.8016 -1.2627  2.2960
  637SOL    HW2 1911   2.886   2.126   2.964  2.3448 -1.0711 -0.9874
  638SOL     OW 1912   1.736   2.616   2.828  0.4980  0.0208 -0.2358
  638SOL    HW1 1913   1.733   2.709   2.785 -0.8964  1.1005 -1.9730
  638SOL    HW2 1914   1.704   2.550   2.759  0.2301  1.2542 -0.0793
  639SOL     OW 1915   1.368   1.847   1.514  0.0112  0.0619  0.1179
  639SOL    HW1 1916   1.277   1.822   1.471 -0.2519 -0.7290 -0.5298
  639SOL    HW2 1917   1.442   1.833   1.442  0.3917 -0.8625 -1.4214
  640SOL     OW 1918   2.189   2.787   0.625 -0.3661  0.5410  0.0618
  640SOL    HW1 1919   2.091   2.808   0.608 -0.0674  1.3359  0.5330
  640SOL    HW2 1920   2.196   2.700   0.672 -0.9099  0.8014 -0.0552
  641SOL     OW 1921   2.961   0.039   2.935 -0.3903  0.2296  0.4282
  641SOL    HW1 1922   2.917   0.120   2.894 -0.3269 -1.8955  0.0481
  641SOL    HW2 1923   3.019   0.065   3.016 -1.5881  1.1500 -0.6720
  642SOL     OW 1924   2.884   0.778   1.236  0.2148  0.2356  0.0423
  642SOL    HW1 1925   2.851   0.825   1.155  2.2868 -2.9347 -0.6498
  642SOL    HW2 1926   2.933   0.851   1.296  0.4583  1.5250  0.6652
  643SOL     OW 1927   0.638   1.621   1.998 -0.0182 -0.2540  0.5563
  643SOL    HW1 1928   0.580   1.650   2.073  1.9835 -1.4254 -2.3231
  643SOL    HW2 1929   0.718   1.685   1.992 -0.8437  1.4112  0.4398
  644SOL     OW 1930   1.736   2.270   0.911 -0.5467 -0.6333  0.4245
  644SOL    HW1 1931   1.772   2.291   1.004 -1.7013 -1.0551 -0.7290
  644SOL    HW2 1932   1.752   2.355   0.855  2.2498 -1.8286  2.2698
  645SOL     OW 1933   2.030   2.011   0.991 -0.1240 -0.2387 -0.0760
  645SOL    HW1 1934   2.095   2.072   0.945 -0.1438 -1.2572  0.0388
  645SOL    HW2 1935   2.023   1.917   0.951 -1.4150 -1.4923 -1.5178
  646SOL     OW 1936   1.069   2.554   2.895 -0.0999 -0.1020  0.7817
  646SOL    HW1 1937   1.133   2.594   2.961  2.4847  0.9064  1.1090
  646SOL    HW2 1938   1.013   2.479   2.939 -0.7089 -1.5254 -1.4066
  647SOL     OW 1939   0.694   2.763   1.971  0.1099 -0.0013 -0.0463
  647SOL    HW1 1940   0.662   2.853   1.951  3.2969 -5.8443  0.3922
  647SOL    HW2 1941   0.781   2.736   1.922  1.2219 -0.8634 -1.3471
  648SOL     OW 1942   1.494   0.670   1.809 -0.1798  0.0734 -0.5308
  648SOL    HW1 1943   1.441   0.586   1.823  0.7627  0.7496  0.3996
  648SOL    HW2 1944   1.554   0.671   1.893  2.0481 -2.1331 -0.4901
  649SOL     OW 1945   1.720   2.176   0.470 -0.3915 -0.2699  0.3827
  649SOL    HW1 1946   1.684   2.084   0.456  1.6898 -0.6462 -0.0168
  649SOL    HW2 1947   1.659   2.242   0.424 -1.1213  0.5197 -0.2357
  650SOL     OW 1948   1.957   1.752   1.934  0.7321  0.2069 -0.7099
  650SOL    HW1 1949   1.929   1.733   1.839  3.1413 -0.7991  2.1941
  650SOL    HW2 1950   2.058   1.757   1.947 -1.8075  0.4923 -2.4079
  651SOL     OW 1951   1.784   2.558   0.151 -0.9221 -0.2105 -0.2170
  651SOL    HW1 1952   1.792   2.657   0.179  1.2987 -0.9353  0.8882
  651SOL    HW2 1953   1.852   2.533   0.076 -1.7206 -1.1809  0.8671
  652SOL     OW 1954   0.577   2.146   0.169  0.2103 -0.3490  0.2789
  652SOL    HW1 1955   0.511   2.074   0.198 -2.1794 -1.3108  0.0468
  652SOL    HW2 1956   0.526   2.236   0.170 -4.2486  0.4903  1.1813
  653SOL     OW 1957   2.555   2.395   1.271 -0.0594  0.2491 -0.2737
  653SOL    HW1 1958   2.456   2.371   1.290 -1.7396  0.7877 -3.0387
  653SOL    HW2 1959   2.576   2.479   1.224 -0.3878 -1.1928  0.9444
  654SOL     OW 1960   2.891   2.587   1.546  0.6245  0.1012  0.4324
  654SOL    HW1 1961   2.833   2.643   1.482 -0.2873  0.0268  1.7180
  654SOL    HW2 1962   2.877   2.489   1.517  0.2617  1.0592  0.5206
  655SOL     OW 1963   2.857   1.973   1.076  0.0292 -0.8148  0.1860
  655SOL    HW1 1964   2.849   1.900   1.140  0.4699  3.9557 -0.6074
  655SOL    HW2 1965   2.907   2.050   1.120  3.8592 -3.8027  1.5690
  656SOL     OW 1966   0.051   2.808   2.439 -0.1564 -0.6344  0.2759
  656SOL    HW1 1967   3.034   2.823   2.422 -0.7158 -1.7339 -2.5704
  656SOL    HW2 1968   0.095   2.770   2.349  3.6111 -1.4032 -2.6703
  657SOL     OW 1969   2.715   1.285   2.915 -0.4802 -0.4635  0.1209
  657SOL    HW1 1970   2.778   1.314   2.993  1.9510  1.8560  2.9262
  657SOL    HW2 1971   2.685   1.192   2.919  2.0647  3.0425 -3.2979
  658SOL     OW 1972   1.779   1.725   0.770  0.2905  0.2674 -0.0891
  658SOL    HW1 1973   1.864   1.773   0.742 -1.4127  1.3253 -2.0885
  658SOL    HW2 1974   1.753   1.754   0.865 -0.4621 -2.8151  2.0507
  659SOL     OW 1975   1.473   0.677   1.289  0.7072  0.2806 -0.2059
  659SOL    HW1 1976   1.455   0.775   1.281 -0.8097 -1.4729  1.3289
  659SOL    HW2 1977   1.516   0.652   1.382  0.7533 -1.5333 -2.4435
  660SOL     OW 1978   1.441   1.547   2.969 -0.5873 -0.0762  0.4596
  660SOL    HW1 1979   1.351   1.507   2.988 -1.6424  1.7664 -2.0428
  660SOL    HW2 1980   1.487   1.497   2.892 -1.5358  1.2969 -1.0050
  661SOL     OW 1981   0.298   2.278   0.581  0.8329 -0.3935  0.0261
  661SOL    HW1 1982   0.322   2.208   0.650 -1.8765 -0.4093 -1.3521
  661SOL    HW2 1983   0.383   2.328   0.565 -1.3917 -1.2196  1.6618
  662SOL     OW 1984   0.274   0.609   2.125 -0.2286  0.6241 -0.4277
  662SOL    HW1 1985   0.276   0.645   2.220  2.1725  0.9970 -0.3364
  662SOL    HW2 1986   0.225   0.518   2.120 -1.3952 -2.8217  1.3540
  663SOL     OW 1987   1.781   1.458   1.003 -0.4559  0.2252 -0.0870
  663SOL    HW1 1988   1.680   1.482   1.007 -0.4173  0.1613  2.6766
  663SOL    HW2 1989   1.799   1.360   1.024 -0.2524 -0.4036  0.9923
  664SOL     OW 1990   0.846   0.876   1.176 -0.3658 -0.2254 -0.0962
  664SOL    HW1 1991   0.824   0.831   1.266  0.8134  2.1476 -0.4969
  664SOL    HW2 1992   0.772   0.921   1.123 -0.5573 -0.5157  0.0241
  665SOL     OW 1993   1.143   2.943   2.836 -0.1142 -0.5729  0.3770
  665SOL    HW1 1994   1.196   3.009   2.892 -1.9627  2.2485  2.0160
  665SOL    HW2 1995   1.201   2.868   2.798 -0.3237  0.2484 -0.7787
  666SOL     OW 1996   3.000   0.061   2.460  0.4582 -0.3503  0.3213
  666SOL    HW1 1997   2.969   0.018   2.548  0.7425 -2.5950 -0.6022
  666SOL    HW2 1998   2.924   0.111   2.408  1.4393 -0.0924 -1.5830
  667SOL     OW 1999   2.267   1.174   2.081  0.6945  0.2632 -0.6910
  667SOL    HW1 2000   2.276   1.261   2.131  3.5914 -0.1440  1.0369
  667SOL    HW2 2001   2.238   1.193   1.980 -0.4921  1.2118 -2.3304
  668SOL     OW 2002   0.462   1.183   2.540 -0.1818  0.1830 -0.2776
  668SOL    HW1 2003   0.425   1.209   2.634  0.1386 -0.5829  0.8551
  668SOL    HW2 2004   0.398   1.208   2.466 -0.5233  1.2408 -1.0829
  669SOL     OW 2005   2.075   2.340   2.753  0.2749  0.1315 -0.4216
  669SOL    HW1 2006   2.081   2.250   2.806  0.3092  0.0810 -0.2409
  669SOL    HW2 2007   2.134   2.411   2.794  1.3018 -1.1232  1.2289
  670SOL     OW 2008   2.330   1.025   2.303  0.3317  0.7253  0.0541
  670SOL    HW1 2009   2.402   1.057   2.365 -0.2377  1.1644  1.2827
  670SOL    HW2 2010   2.284   1.108   2.256  2.0481  1.5783 -3.3906
  671SOL     OW 2011   2.521   1.442   0.066 -0.6949 -0.0005  0.6330
  671SOL    HW1 2012   2.485   1.379   3.078 -1.9227  0.3460 -0.8885
  671SOL    HW2 2013   2.466   1.527   0.079 -1.1674  0.4404  1.4083
  672SOL     OW 2014   2.730   0.935   1.999 -0.2213 -0.0934  0.8177
  672SOL    HW1 2015   2.734   0.989   1.910 -0.1090 -1.1191  1.4119
  672SOL    HW2 2016   2.635   0.949   2.035 -0.5293 -3.2539  0.8524
  673SOL     OW 2017   2.585   0.948   1.421  0.2440  0.3168  0.1570
  673SOL    HW1 2018   2.669   0.907   1.470  2.2218  0.5011 -0.6761
  673SOL    HW2 2019   2.499   0.902   1.452 -2.4522 -0.3702  0.6905
  674SOL     OW 2020   1.897   1.970   2.085  0.2780  0.4992 -0.2515
  674SOL    HW1 2021   1.905   1.878   2.050 -2.0613 -0.9794 -3.2683
  674SOL    HW2 2022   1.817   2.015   2.039  1.4727  0.5615  0.1770
  675SOL     OW 2023   0.429   0.623   1.090 -0.6177 -0.1819 -0.5323
  675SOL    HW1 2024   0.522   0.657   1.113 -0.2784 -0.4962  0.3813
  675SOL    HW2 2025   0.350   0.680   1.127 -1.3930 -0.2370 -2.3057
  676SOL     OW 2026   1.728   1.113   1.248  0.6691  0.0959 -0.4699
  676SOL    HW1 2027   1.803   1.156   1.197  1.2024 -0.4268  1.0808
  676SOL    HW2 2028   1.757   1.023   1.291  0.1567 -2.3854 -0.4357
  677SOL     OW 2029   2.352   1.359   2.271  0.0649  0.1578 -0.7352
  677SOL    HW1 2030   2.396   1.443   2.236  1.9569 -3.0868 -0.8036
  677SOL    HW2 2031   2.408   1.316   2.343 -2.3742  2.9255  2.4378
  678SOL     OW 2032   3.068   1.451   0.680 -0.3801  0.4704 -0.3312
  678SOL    HW1 2033   3.080   1.366   0.738 -1.8982  1.8680 -2.7632
  678SOL    HW2 2034   2.973   1.487   0.694  0.4981 -0.7702  1.5915
  679SOL     OW 2035   2.888   2.581   0.492  0.0079  0.0869 -0.3066
  679SOL    HW1 2036   2.894   2.674   0.450 -1.0699 -0.1955 -1.7073
  679SOL    HW2 2037   2.880   2.584   0.592 -2.0022 -0.5399 -0.8569
  680SOL     OW 2038   0.022   2.401   1.179 -0.1823 -0.2228  0.4474
  680SOL    HW1 2039   0.078   2.445   1.252  0.8628 -0.1396 -1.5708
  680SOL    HW2 2040   3.059   2.317   1.213  2.5220  1.0767 -1.5668
  681SOL     OW 2041   0.414   1.581   1.091  0.4713  0.3062  0.3634
  681SOL    HW1 2042   0.505   1.603   1.130 -0.6342 -1.2739  1.0921
  681SOL    HW2 2043   0.341   1.565   1.162 -0.9129 -1.3692 -0.0312
  682SOL     OW 2044   1.635   2.797   0.899 -0.4728 -0.0852  0.0897
  682SOL    HW1 2045   1.614   2.864   0.973  1.1103  2.2965  0.6952
  682SOL    HW2 2046   1.581   2.712   0.905 -0.3139  2.1605 -2.7605
  683SOL     OW 2047   2.160   1.244   1.023  0.6886 -0.1132  0.3283
  683SOL    HW1 2048   2.196   1.264   0.933 -4.5744 -0.0455  3.5456
  683SOL    HW2 2049   2.231   1.184   1.073  1.4232  0.3907 -0.8007
  684SOL     OW 2050   0.640   1.980   1.939 -0.4076 -0.1074  0.8417
  684SOL    HW1 2051   0.554   1.972   1.884  2.6219 -0.2258  1.6204
  684SOL    HW2 2052   0.624   1.939   2.034 -1.2094 -1.7582  2.5078
  685SOL     OW 2053   2.103   1.529   0.301  0.2512  0.5452 -0.0064
  685SOL    HW1 2054   2.110   1.569   0.209  0.5077 -1.4598 -0.2296
  685SOL    HW2 2055   2.003   1.516   0.322  0.5209 -1.6664 -1.6911
  686SOL     OW 2056   0.063   0.452   0.670  0.2179  0.2518 -0.0891
  686SOL    HW1 2057   0.103   0.519   0.601 -0.5548  0.4758 -1.2926
  686SOL    HW2 2058   0.139   0.397   0.710 -1.5294 -0.7335  1.2709
  687SOL     OW 2059   1.184   2.921   0.151 -0.0873 -0.2815  0.2204
  687SOL    HW1 2060   1.153   2.874   0.237  1.5449 -0.1989  0.2049
  687SOL    HW2 2061   1.126   2.884   0.077  0.5678  0.9440  0.0544
  688SOL     OW 2062   2.013   1.719   2.206 -0.3061  0.7566 -0.6985
  688SOL    HW1 2063   1.930   1.715   2.265  2.4291  0.3093 -0.3604
  688SOL    HW2 2064   1.991   1.717   2.106 -1.0940 -1.1637  2.0662
  689SOL     OW 2065   2.629   0.679   2.086  0.0873  0.1200 -0.5249
  689SOL    HW1 2066   2.677   0.760   2.055  0.3551  0.6928  0.0247
  689SOL    HW2 2067   2.632   0.668   2.189  1.8629 -0.6114 -0.1351
  690SOL     OW 2068   1.712   0.553   1.238 -0.1045 -0.0622 -0.1309
  690SOL    HW1 2069   1.620   0.596   1.239 -1.3688  2.4035 -0.8579
  690SOL    HW2 2070   1.706   0.453   1.267  0.5181  0.3382  0.1078
  691SOL     OW 2071   0.955   1.835   1.545  0.3190 -0.3560 -0.1145
  691SOL    HW1 2072   1.023   1.795   1.478  2.9038  0.2978 -0.1900
  691SOL    HW2 2073   0.995   1.923   1.581  0.3092  0.3555  0.8007
  692SOL     OW 2074   1.693   0.299   1.945 -0.1872  0.1164  0.3294
  692SOL    HW1 2075   1.732   0.362   1.872 -2.2434  0.7477 -1.3186
  692SOL    HW2 2076   1.600   0.272   1.927  1.1031 -2.2478  0.6153
  693SOL     OW 2077   0.521   1.041   2.931  0.3519  0.2338 -0.2087
  693SOL    HW1 2078   0.542   1.075   3.022 -1.5423  0.8895 -2.2382
  693SOL    HW2 2079   0.581   0.970   2.902 -2.3809  2.7353  1.4079
  694SOL     OW 2080   2.141   2.780   0.935  0.4553 -0.2016 -0.2744
  694SOL    HW1 2081   2.147   2.779   1.037 -0.5441 -0.1872  0.4911
  694SOL    HW2 2082   2.206   2.844   0.895 -1.7297 -2.2344 -0.6334
  695SOL     OW 2083   1.404   1.503   2.462 -0.8652  0.3726 -0.0125
  695SOL    HW1 2084   1.353   1.577   2.509 -1.6663 -1.2018 -0.5380
  695SOL    HW2 2085   1.380   1.406   2.488  1.3166 -1.5171 -0.3612
  696SOL     OW 2086   1.326   0.444   1.314  0.4121 -0.7073 -0.3198
  696SOL    HW1 2087   1.354   0.394   1.400  1.6523 -2.0054 -2.6527
  696SOL    HW2 2088   1.375   0.535   1.305  2.0383 -0.6230 -2.1791
  697SOL     OW 2089   1.431   0.210   1.912  0.0333 -0.3811 -0.7012
  697SOL    HW1 2090   1.418   0.124   1.862 -2.7165  0.7307  3.8526
  697SOL    HW2 2091   1.369   0.198   1.994 -0.8486  0.4323 -0.4238
  698SOL     OW 2092   1.659   1.418   2.409  0.2139 -0.2314 -0.8210
  698SOL    HW1 2093   1.629   1.348   2.343  0.1259  0.8183  1.5844
  698SOL    HW2 2094   1.577   1.470   2.438  3.1756 -0.2550  0.0551
  699SOL     OW 2095   1.572   1.303   1.390 -0.0226  0.2448 -0.3722
  699SOL    HW1 2096   1.618   1.220   1.342 -0.4747 -0.2753 -0.4880
  699SOL    HW2 2097   1.475   1.316   1.347 -1.3092  0.4807  0.4106
  700SOL     OW 2098   1.620   0.065   0.362 -0.7379  0.0525 -0.2996
  700SOL    HW1 2099   1.588   0.159   0.384 -0.4810  0.2211 -0.6486
  700SOL    HW2 2100   1.599   0.009   0.444 -0.3233 -1.8453 -0.5482
  701SOL     OW 2101   0.255   3.044   1.596 -0.5422 -0.0261  0.2337
  701SOL    HW1 2102   0.224   2.974   1.667  0.3570 -0.3061 -3.3088
  701SOL    HW2 2103   0.191   3.054   1.520  0.9702  1.7264  1.4729
  702SOL     OW 2104   1.321   2.735   0.648 -0.2317 -0.4685 -0.3986
  702SOL    HW1 2105   1.328   2.819   0.707  0.6693  0.0070  0.0231
  702SOL    HW2 2106   1.401   2.671   0.651  0.3224 -1.3181 -3.4581
  703SOL     OW 2107   2.411   2.940   1.864 -0.7129  0.3033  0.5857
  703SOL    HW1 2108   2.324   2.982   1.893  1.0661 -0.7563  1.2219
  703SOL    HW2 2109   2.487   3.003   1.889 -0.3391  0.2722  1.9077
  704SOL     OW 2110   1.197   2.088   1.043  0.1018 -0.2922  0.3312
  704SOL    HW1 2111   1.249   2.011   1.083 -1.4078  0.4056  1.5211
  704SOL    HW2 2112   1.250   2.172   1.063  0.8706 -0.9347 -0.2524
  705SOL     OW 2113   2.793   1.522   1.860 -0.5066  0.4529  0.0027
  705SOL    HW1 2114   2.725   1.498   1.930  0.7125  0.5031 -2.0517
  705SOL    HW2 2115   2.800   1.442   1.793 -1.5396 -1.9976  2.0972
  706SOL     OW 2116   1.196   3.042   0.583 -0.1093 -0.4815  0.5276
  706SOL    HW1 2117   1.156   0.025   0.518  0.8102  2.1720  1.3573
  706SOL    HW2 2118   1.137   3.027   0.659 -1.1636 -0.4726 -1.1027
  707SOL     OW 2119   1.013   2.499   2.295 -0.1606 -0.5991 -0.4170
  707SOL    HW1 2120   0.910   2.488   2.303 -1.4158 -0.8248 -0.7494
  707SOL    HW2 2121   1.062   2.415   2.320  0.0459  1.3585 -1.4443
  708SOL     OW 2122   0.191   2.406   1.424  0.3877 -0.2160 -0.2146
  708SOL    HW1 2123   0.166   2.336   1.492  1.4178  2.7874 -1.2419
  708SOL    HW2 2124   0.292   2.427   1.426  1.0053  0.0972 -0.0973
  709SOL     OW 2125   1.958   0.407   2.012 -0.0639 -0.0641  0.1951
  709SOL    HW1 2126   1.937   0.492   2.066  2.9625 -1.5232  2.4264
  709SOL    HW2 2127   1.919   0.401   1.918  1.7707 -1.7976  2.8410
  710SOL     OW 2128   2.584   0.573   1.577 -0.0892 -0.4898  0.0565
  710SOL    HW1 2129   2.545   0.479   1.565  1.2047  0.8859  0.5809
  710SOL    HW2 2130   2.645   0.598   1.501 -1.1342 -1.1577  0.1575
  711SOL     OW 2131   0.193   2.659   0.781 -0.3426  0.0507  0.7885
  711SOL    HW1 2132   0.264   2.633   0.714 -0.2191 -1.0310  1.8597
  711SOL    HW2 2133   0.134   2.585   0.813  2.5394  1.4549  1.2280
  712SOL     OW 2134   0.341   2.404   2.443 -0.1424  0.4684  0.4810
  712SOL    HW1 2135   0.298   2.410   2.351 -0.7658 -0.6777  1.9849
  712SOL    HW2 2136   0.268   2.408   2.515  0.8553 -1.2266 -1.3483
  713SOL     OW 2137   1.603   0.788   0.110  0.2123 -0.4766  0.2708
  713SOL    HW1 2138   1.633   0.787   0.209  0.5859 -1.5027  1.5105
  713SOL    HW2 2139   1.637   0.705   0.062  0.7020  1.5597 -2.3367
  714SOL     OW 2140   1.589   1.946   0.464 -0.3780 -0.3737 -0.1985
  714SOL    HW1 2141   1.560   1.914   0.558  1.2022  0.2752  0.4353
  714SOL    HW2 2142   1.522   1.931   0.390 -1.3178  1.5594  2.0544
  715SOL     OW 2143   2.841   0.069   0.411 -0.1137  0.1321 -0.1248
  715SOL    HW1 2144   2.751   0.043   0.440  3.2429 -2.0465  2.3142
  715SOL    HW2 2145   2.885   0.131   0.480 -1.9219  1.3892 -1.3071
  716SOL     OW 2146   0.654   0.077   2.396 -0.1818  0.3367 -0.6371
  716SOL    HW1 2147   0.605   0.135   2.467  1.2920  2.6844 -0.0610
  716SOL    HW2 2148   0.709   0.008   2.443  3.2453  4.3004 -1.0653
  717SOL     OW 2149   0.018   0.563   2.867  0.2531  0.0906 -0.1093
  717SOL    HW1 2150   0.071   0.495   2.819 -0.8798  1.5087  2.6709
  717SOL    HW2 2151   3.027   0.521   2.924 -0.0426 -2.3998 -0.4967
  718SOL     OW 2152   1.048   0.538   0.507 -0.3197 -0.0801 -0.2517
  718SOL    HW1 2153   1.095   0.500   0.593 -1.0236 -0.8773  0.0916
  718SOL    HW2 2154   1.119   0.593   0.459  1.7875 -3.4045  1.0704
  719SOL     OW 2155   2.767   2.317   2.725 -0.1482  0.5073 -0.0080
  719SOL    HW1 2156   2.746   2.289   2.632 -1.3549  1.2271 -0.6270
  719SOL    HW2 2157   2.774   2.235   2.784 -0.5019  2.6694 -1.5712
  720SOL     OW 2158   1.565   0.611   1.536  0.2700  0.2208  0.1250
  720SOL    HW1 2159   1.612   0.521   1.542 -1.4443 -1.4199 -0.2288
  720SOL    HW2 2160   1.531   0.642   1.624  1.4035  0.1403  0.0285
  721SOL     OW 2161   2.997   0.756   0.783 -0.1993  0.1988 -0.5329
  721SOL    HW1 2162   2.954   0.668   0.789  3.5684  0.3884  0.5230
  721SOL    HW2 2163   0.015   0.753   0.812  2.0487  2.6708 -0.7929
  722SOL     OW 2164   1.419   2.100   2.422  0.2213 -0.7107 -0.4472
  722SOL    HW1 2165   1.400   2.187   2.374  1.0974 -4.1959 -0.8982
  722SOL    HW2 2166   1.352   2.084   2.495 -0.6433 -0.0784  2.7238
  723SOL     OW 2167   0.576   0.506   0.486 -0.6709 -0.0319 -0.5502
  723SOL    HW1 2168   0.672   0.543   0.511  2.5385 -0.2418 -1.8715
  723SOL    HW2 2169   0.508   0.575   0.519  0.0408 -1.9222  0.5499
  724SOL     OW 2170   1.092   2.087   2.080  0.0164 -0.1257  0.5801
  724SOL    HW1 2171   1.083   2.020   2.003  0.6498 -0.3792  0.1868
  724SOL    HW2 2172   1.008   2.140   2.093  1.7518  0.9683  2.5708
  725SOL     OW 2173   0.213   1.008   1.337 -0.0412  0.2367  0.1144
  725SOL    HW1 2174   0.231   1.096   1.286 -1.6010 -2.2880  1.1319
  725SOL    HW2 2175   0.298   0.956   1.368  2.1594  0.1431 -1.7496
  726SOL     OW 2176   1.860   0.594   0.645  0.0481  0.4292 -0.3777
  726SOL    HW1 2177   1.825   0.682   0.675  1.2080 -4.8421 -0.1666
  726SOL    HW2 2178   1.815   0.562   0.559  0.2097 -1.1758  0.1435
  727SOL     OW 2179   1.759   0.971   2.085  0.1414  0.5321 -0.1179
  727SOL    HW1 2180   1.860   0.991   2.094 -0.5515 -0.6056 -1.8363
  727SOL    HW2 2181   1.713   0.980   2.172  3.2304  1.8293 -0.9423
  728SOL     OW 2182   1.704   2.744   1.480  0.2558 -0.2324 -0.6534
  728SOL    HW1 2183   1.737   2.774   1.573 -0.1692 -0.9605  1.2999
  728SOL    HW2 2184   1.654   2.655   1.480  1.6815 -2.6077  2.7932
  729SOL     OW 2185   1.331   0.456   1.845 -0.4261 -0.2847 -0.4057
  729SOL    HW1 2186   1.372   0.369   1.861 -2.7950  4.0296 -2.1991
  729SOL    HW2 2187   1.324   0.509   1.932  1.0442 -0.8111 -1.7564
  730SOL     OW 2188   0.683   1.838   1.518 -0.1929 -0.0264 -0.3781
  730SOL    HW1 2189   0.660   1.930   1.481 -0.2394  1.4918  1.7705
  730SOL    HW2 2190   0.784   1.832   1.540  0.7300 -0.4008 -1.3133
  731SOL     OW 2191   0.643   0.201   0.183 -0.3283 -0.4316  0.0626
  731SOL    HW1 2192   0.574   0.283   0.190 -0.5932  2.0447 -2.5938
  731SOL    HW2 2193   0.596   0.117   0.147 -1.3038 -1.4594 -0.4862
  732SOL     OW 2194   0.391   0.873   0.098  0.5328 -0.0443 -0.2311
  732SOL    HW1 2195   0.308   0.835   0.049  0.1232 -2.4884  0.9556
  732SOL    HW2 2196   0.476   0.819   0.079 -0.1697  1.2536  0.8527
  733SOL     OW 2197   1.339   1.824   1.905  0.0288  0.0943 -0.2647
  733SOL    HW1 2198   1.404   1.822   1.987 -0.3869 -0.0564  0.5101
  733SOL    HW2 2199   1.341   1.732   1.857 -2.7370 -1.4505  0.6557
  734SOL     OW 2200   2.726   2.626   2.119  0.7013 -0.7027 -0.2208
  734SOL    HW1 2201   2.819   2.592   2.103 -4.3666  1.5923  1.1902
  734SOL    HW2 2202   2.722   2.725   2.101  2.7662 -0.3730  0.4253
  735SOL     OW 2203   1.029   2.819   0.880  0.1218 -0.1750  0.1445
  735SOL    HW1 2204   1.037   2.745   0.813 -0.5885 -0.0287  2.7193
  735SOL    HW2 2205   1.125   2.848   0.895  1.3501  1.5361  1.2811
  736SOL     OW 2206   1.328   0.923   2.755  0.0242  0.4894  0.0922
  736SOL    HW1 2207   1.343   0.840   2.702 -0.8993  2.0681  2.0876
  736SOL    HW2 2208   1.392   0.919   2.839  0.3293 -0.3597  0.6833
  737SOL     OW 2209   0.030   0.883   0.052  0.3697 -0.4961 -0.7041
  737SOL    HW1 2210   0.086   0.804   0.012  1.5383 -1.4102 -1.2915
  737SOL    HW2 2211   0.047   0.958   3.073 -1.2653 -0.7367 -1.9068
  738SOL     OW 2212   0.026   2.780   1.296  0.0095 -0.0278  0.0095
  738SOL    HW1 2213   0.008   2.716   1.376 -0.1065 -1.6161 -1.1820
  738SOL    HW2 2214   3.021   2.796   1.246 -0.0873 -1.4566  1.4700
  739SOL     OW 2215   1.472   3.069   0.595  0.3268  0.4995  0.1278
  739SOL    HW1 2216   1.473   0.074   0.649  0.2696  1.7304 -1.6510
  739SOL    HW2 2217   1.375   3.041   0.588  1.2903 -0.9572  0.0009
  740SOL     OW 2218   1.572   2.906   1.140 -0.3493 -0.0672 -0.3685
  740SOL    HW1 2219   1.651   2.913   1.205  1.6317 -0.3379 -0.9642
  740SOL    HW2 2220   1.497   2.852   1.175  1.1403  0.1747 -0.7766
  741SOL     OW 2221   2.055   0.542   0.490  0.1735  0.0366  0.1158
  741SOL    HW1 2222   1.990   0.580   0.552 -0.6328 -1.9042 -0.8576
  741SOL    HW2 2223   2.056   0.592   0.399 -0.6691  0.4934 -1.7163
  742SOL     OW 2224   1.207   2.320   1.646  0.0462  0.5835  0.2011
  742SOL    HW1 2225   1.204   2.414   1.685 -2.2268  2.3907  0.1988
  742SOL    HW2 2226   1.303   2.292   1.629 -1.7827  2.5981 -0.4427
  743SOL     OW 2227   2.381   0.708   1.998  0.0078 -0.1594 -0.0777
  743SOL    HW1 2228   2.312   0.748   2.062 -2.5868 -0.1882  0.8834
  743SOL    HW2 2229   2.474   0.709   2.043 -1.5834 -2.6050 -0.6447
  744SOL     OW 2230   1.950   0.288   0.717 -0.1887  0.5423 -0.0483
  744SOL    HW1 2231   1.874   0.341   0.676 -3.7231 -3.3611 -1.4288
  744SOL    HW2 2232   2.010   0.347   0.777 -0.9394  2.2594 -0.5992
  745SOL     OW 2233   1.997   1.389   1.934  0.8268 -0.2026  0.1817
  745SOL    HW1 2234   2.031   1.409   2.029  2.3173 -0.9683  2.4445
  745SOL    HW2 2235   2.052   1.435   1.859 -3.6563  0.8312 -3.1089
  746SOL     OW 2236   1.337   1.571   0.774  0.2493  0.1100 -0.0622
  746SOL    HW1 2237   1.319   1.673   0.775 -1.0761  0.7810 -1.8976
  746SOL    HW2 2238   1.250   1.518   0.799  0.2376  0.0677 -1.3271
  747SOL     OW 2239   1.883   1.190   1.038  0.3058 -0.4604  0.2629
  747SOL    HW1 2240   1.854   1.103   0.994 -1.1162  0.4359 -1.6969
  747SOL    HW2 2241   1.982   1.212   1.018 -0.3590 -2.6222 -2.3589
  748SOL     OW 2242   0.119   2.962   0.218 -0.3472  0.6668  0.1432
  748SOL    HW1 2243   0.175   2.935   0.297 -0.4298 -0.9670 -3.5458
  748SOL    HW2 2244   0.118   2.880   0.156  0.9926  0.6381  1.2909
  749SOL     OW 2245   0.160   0.376   2.115 -0.0997 -0.2498 -0.0428
  749SOL    HW1 2246   0.083   0.381   2.187  0.2460  0.1648  1.3491
  749SOL    HW2 2247   0.121   0.361   2.026 -1.9183  2.7638 -0.6045
  750SOL     OW 2248   1.794   2.812   1.735  0.2441 -0.4723 -0.0064
  750SOL    HW1 2249   1.894   2.839   1.730  2.2271  2.1144 -1.0577
  750SOL    HW2 2250   1.745   2.872   1.798  0.0482  1.5626  1.9339
  751SOL     OW 2251   2.588   0.540   0.366  0.0351 -0.3192 -0.0094
  751SOL    HW1 2252   2.597   0.636   0.400 -2.4959 -1.2461  0.0531
  751SOL    HW2 2253   2.558   0.482   0.438  1.1559  1.6624 -1.4875
  752SOL     OW 2254   0.277   2.882   0.878  0.3635 -0.5174  0.6726
  752SOL    HW1 2255   0.257   2.785   0.842  1.0879 -0.8736 -3.0807
  752SOL    HW2 2256   0.314   2.937   0.802 -0.6653 -0.1698  0.8081
  753SOL     OW 2257   1.010   0.281   1.477  0.4293  0.3650 -0.3893
  753SOL    HW1 2258   0.983   0.224   1.392  0.2408 -2.0611 -0.1479
  753SOL    HW2 2259   1.018   0.221   1.559 -0.1860 -2.1665  1.0157
  754SOL     OW 2260   0.756   2.825   2.359 -0.5548 -0.1967 -0.3639
  754SOL    HW1 2261   0.661   2.853   2.387 -0.0141 -0.7131 -0.9211
  754SOL    HW2 2262   0.785   2.871   2.274  2.0247  2.4004  1.0512
  755SOL     OW 2263   2.161   1.147   0.156  0.1461 -0.3136  0.3342
  755SOL    HW1 2264   2.212   1.145   0.244 -0.6552 -0.3382 -2.3477
  755SOL    HW2 2265   2.152   1.241   0.117  1.9666 -0.2369 -0.8365
  756SOL     OW 2266   2.252   1.800   2.765  0.1691  0.3582 -0.1807
  756SOL    HW1 2267   2.346   1.801   2.807  2.1447 -1.2715  0.1376
  756SOL    HW2 2268   2.252   1.819   2.661  1.1962  0.4200 -1.4815
  757SOL     OW 2269   1.596   0.303   1.244 -0.2183 -0.0477 -0.2859
  757SOL    HW1 2270   1.492   0.292   1.255 -0.3005 -0.7153 -0.2979
  757SOL    HW2 2271   1.618   0.299   1.147  0.1312  1.7548  0.9050
  758SOL     OW 2272   1.508   2.547   0.669  0.0174  0.2677  0.3059
  758SOL    HW1 2273   1.597   2.518   0.707 -0.6692  0.1723 -2.0143
  758SOL    HW2 2274   1.535   2.605   0.586  1.3756 -2.6251 -2.7476
  759SOL     OW 2275   2.507   0.475   1.066  0.0133  0.3699  0.2501
  759SOL    HW1 2276   2.582   0.529   1.026 -1.0363 -0.4239  0.3211
  759SOL    HW2 2277   2.428   0.532   1.095  2.4579 -1.2591 -0.6006
  760SOL     OW 2278   2.318   1.050   1.171 -0.5572 -0.6700 -0.1979
  760SOL    HW1 2279   2.375   1.097   1.245  0.6212 -1.4584  1.6221
  760SOL    HW2 2280   2.382   1.011   1.101  0.3481 -0.1825 -0.2463
  761SOL     OW 2281   0.409   0.704   0.638  0.1156 -0.1927 -0.2519
  761SOL    HW1 2282   0.451   0.794   0.676 -0.1638 -1.3993 -1.2610
  761SOL    HW2 2283   0.385   0.641   0.715 -2.6229 -0.1743 -1.4376
  762SOL     OW 2284   1.760   1.977   1.411  0.1200 -0.4751 -0.2068
  762SOL    HW1 2285   1.859   1.954   1.393 -0.2418  0.2502  1.6731
  762SOL    HW2 2286   1.745   1.988   1.512 -0.2238 -0.7712 -0.2755
  763SOL     OW 2287   0.993   1.523   1.401 -0.0631 -0.1838  0.0049
  763SOL    HW1 2288   0.957   1.440   1.365  2.0239  1.2795  1.2891
  763SOL    HW2 2289   0.951   1.540   1.494  0.0575  0.7149 -1.9013
  764SOL     OW 2290   2.872   1.734   2.331  0.5215 -0.0307 -0.1378
  764SOL    HW1 2291   2.909   1.807   2.268  1.1955  2.9135 -0.1366
  764SOL    HW2 2292   2.866   1.770   2.431  2.8354  1.6598  1.4900
  765SOL     OW 2293   1.309   2.533   1.371  0.0939 -0.2818 -0.3395
  765SOL    HW1 2294   1.331   2.437   1.349 -0.4223 -0.9231 -0.9548
  765SOL    HW2 2295   1.305   2.592   1.287 -0.3283  1.6581  0.1651
  766SOL     OW 2296   0.114   2.365   2.607  0.1696  0.1630 -0.0855
  766SOL    HW1 2297   0.097   2.462   2.629  1.4452  3.3601  0.1994
  766SOL    HW2 2298   0.047   2.328   2.541  1.4997 -1.5503 -1.7547
  767SOL     OW 2299   1.269   0.721   2.572 -0.4498  0.5883  0.0156
  767SOL    HW1 2300   1.315   0.635   2.597 -0.3116 -0.7309  0.2448
  767SOL    HW2 2301   1.173   0.709   2.538  0.3529  2.1263  2.6754
  768SOL     OW 2302   1.348   2.199   3.021 -0.0248 -0.3837 -0.0289
  768SOL    HW1 2303   1.382   2.279   3.071 -1.6246  3.7537 -1.7990
  768SOL    HW2 2304   1.417   2.165   2.955 -2.9597  2.4020 -0.7515
  769SOL     OW 2305   0.441   2.751   1.057  0.1415  0.0111 -0.1292
  769SOL    HW1 2306   0.406   2.833   1.012 -0.2167 -0.9095  0.3146
  769SOL    HW2 2307   0.401   2.737   1.149 -1.8730 -1.8613  0.4376
  770SOL     OW 2308   1.475   0.911   2.973 -0.0263 -0.2483 -0.7610
  770SOL    HW1 2309   1.475   1.018   2.982 -0.3711  3.8108  0.5406
  770SOL    HW2 2310   1.532   0.878   3.052 -1.3222  0.1219 -0.7218
  771SOL     OW 2311   0.381   0.050   2.299 -0.3669 -0.6046 -0.5181
  771SOL    HW1 2312   0.322   0.019   2.377  0.6970  0.0259  0.1762
  771SOL    HW2 2313   0.481   0.028   2.307 -1.6773  1.4035 -0.6812
  772SOL     OW 2314   1.969   2.856   2.043 -0.0719 -0.0603  0.7606
  772SOL    HW1 2315   2.015   2.843   1.952 -0.3678  1.3299 -3.7489
  772SOL    HW2 2316   1.901   2.930   2.039  0.6854  1.5978 -2.2587
  773SOL     OW 2317   0.780   2.087   1.678 -0.4425 -0.9742 -0.8236
  773SOL    HW1 2318   0.880   2.089   1.670  3.3181  0.2948  0.5708
  773SOL    HW2 2319   0.750   2.035   1.762 -0.5718  2.8421  1.4963
  774SOL     OW 2320   1.521   0.120   2.233  0.1315 -0.0209  0.2935
  774SOL    HW1 2321   1.426   0.134   2.196  3.0068  0.8945  1.2502
  774SOL    HW2 2322   1.563   0.210   2.254 -2.1378 -2.5077 -0.8801
  775SOL     OW 2323   2.279   2.558   0.252  0.7717 -0.2249 -0.2586
  775SOL    HW1 2324   2.204   2.595   0.188  0.2500  1.2624 -1.2607
  775SOL    HW2 2325   2.314   2.636   0.306  1.9209  1.5375  0.5118
  776SOL     OW 2326   2.399   0.405   2.363 -0.6024 -0.2499  0.0626
  776SOL    HW1 2327   2.398   0.395   2.462  1.2275 -3.3035 -3.6653
  776SOL    HW2 2328   2.455   0.486   2.329  1.2211  1.3346 -0.7391
  777SOL     OW 2329   2.533   1.168   2.448 -0.2294  0.7121 -0.1484
  777SOL    HW1 2330   2.595   1.213   2.513 -0.0308  0.8440 -0.2366
  777SOL    HW2 2331   2.591   1.111   2.389 -3.8384  1.0762 -0.2446
  778SOL     OW 2332   2.144   0.731   2.171  0.3980  0.1845  0.0089
  778SOL    HW1 2333   2.124   0.830   2.164  1.7303  2.5698 -2.1722
  778SOL    HW2 2334   2.056   0.688   2.170  2.7718  0.4098 -0.9847
  779SOL     OW 2335   2.979   0.249   0.232  0.4174  0.0866  0.2155
  779SOL    HW1 2336   3.023   0.329   0.279 -0.4757  0.3480  0.0994
  779SOL    HW2 2337   2.923   0.196   0.303 -1.0949 -0.4682  3.0066
  780SOL     OW 2338   2.692   0.657   2.939  0.1189 -0.0901 -0.0362
  780SOL    HW1 2339   2.783   0.609   2.958  0.9757 -1.1477 -0.4111
  780SOL    HW2 2340   2.670   0.728   3.013 -1.9307  0.0515 -0.9041
  781SOL     OW 2341   0.053   3.057   1.365 -0.2586  0.3233  0.1025
  781SOL    HW1 2342   0.004   0.022   1.290 -1.1153 -1.1173 -0.7574
  781SOL    HW2 2343   0.049   2.956   1.353 -2.5029 -1.7943  0.7248
  782SOL     OW 2344   1.766   2.516   0.757 -0.0140 -0.7676 -0.3137
  782SOL    HW1 2345   1.813   2.522   0.666 -1.4707  1.1872 -1.6836
  782SOL    HW2 2346   1.826   2.549   0.832 -1.0703 -0.8282 -0.5490
  783SOL     OW 2347   0.642   1.392   1.273  0.0446  0.0642 -0.2453
  783SOL    HW1 2348   0.698   1.428   1.192  1.5300 -2.1856  4.1833
  783SOL    HW2 2349   0.625   1.467   1.339  0.7396 -1.8255  3.1124
  784SOL     OW 2350   1.445   0.504   2.646 -0.1402  0.1155  0.4337
  784SOL    HW1 2351   1.397   0.416   2.643  1.6024  0.6490  1.2111
  784SOL    HW2 2352   1.527   0.496   2.584  0.1638  0.1025 -0.9426
  785SOL     OW 2353   2.495   0.288   1.258  0.0882 -0.6829  0.1430
  785SOL    HW1 2354   2.527   0.342   1.176  2.7749 -0.1629  0.8705
  785SOL    HW2 2355   2.400   0.316   1.293 -0.6868 -0.6010 -1.0200
  786SOL     OW 2356   1.219   2.650   1.596 -0.3302 -0.1805  0.2645
  786SOL    HW1 2357   1.257   2.598   1.514  0.7889 -0.2037  1.3799
  786SOL    HW2 2358   1.120   2.647   1.602  4.9997 -2.3979 -1.6750
  787SOL     OW 2359   1.649   0.366   1.570  0.0594 -0.3810 -0.3762
  787SOL    HW1 2360   1.709   0.324   1.499  0.7266  1.4671 -0.0552
  787SOL    HW2 2361   1.555   0.328   1.572 -1.5202  1.3241  1.3236
  788SOL     OW 2362   2.850   1.099   0.462 -0.1716 -0.5168 -0.3306
  788SOL    HW1 2363   2.942   1.143   0.459 -0.2663  1.1209  0.0470
  788SOL    HW2 2364   2.872   1.006   0.498  3.2456 -0.9565 -0.6364
  789SOL     OW 2365   0.489   1.874   1.717 -0.1290 -0.5454  0.0009
  789SOL    HW1 2366   0.570   1.849   1.663 -1.6912  0.8808  0.1047
  789SOL    HW2 2367   0.436   1.939   1.659  0.0743 -0.8563 -0.1687
  790SOL     OW 2368   0.663   0.546   2.342  0.0435  0.5936  0.3181
  790SOL    HW1 2369   0.596   0.521   2.417  0.2915  1.7095  0.9599
  790SOL    HW2 2370   0.621   0.527   2.252 -1.4175 -0.3432 -3.1872
  791SOL     OW 2371   2.310   0.580   0.628 -0.0007  0.3041 -0.6381
  791SOL    HW1 2372   2.224   0.564   0.574  0.7501  1.2272  1.4484
  791SOL    HW2 2373   2.291   0.601   0.729  4.3333 -0.4742  0.5693
  792SOL     OW 2374   1.264   2.862   1.765 -0.9253 -0.0191  0.0318
  792SOL    HW1 2375   1.248   2.826   1.858  1.6722  0.1301 -0.5359
  792SOL    HW2 2376   1.272   2.789   1.696 -0.0990  0.9244 -2.9835
  793SOL     OW 2377   0.458   0.103   0.810 -0.0610  0.9747 -0.2034
  793SOL    HW1 2378   0.509   0.048   0.872 -2.6489  2.3684 -3.1426
  793SOL    HW2 2379   0.523   0.163   0.763 -0.7404  0.4450  1.1894
  794SOL     OW 2380   3.035   1.222   1.879 -0.1456 -0.3764  0.3464
  794SOL    HW1 2381   3.020   1.252   1.972  0.3948 -0.8319 -1.9000
  794SOL    HW2 2382   2.949   1.233   1.828 -0.1627 -0.0535  0.6193
  795SOL     OW 2383   0.390   2.068   2.212 -0.1177 -0.2371 -0.0077
  795SOL    HW1 2384   0.406   2.164   2.247  1.5689 -1.0090 -0.5677
  795SOL    HW2 2385   0.476   2.012   2.216 -2.0860  0.5451 -2.4775
  796SOL     OW 2386   2.542   0.210   2.228 -0.1212 -0.1648 -0.4263
  796SOL    HW1 2387   2.493   0.277   2.291 -0.3038  0.0055  0.2511
  796SOL    HW2 2388   2.507   0.222   2.134  0.3939  1.1294 -2.7407
  797SOL     OW 2389   2.404   2.243   2.576 -0.1796  0.3755 -0.1271
  797SOL    HW1 2390   2.440   2.227   2.671  2.5495  1.3220  2.0787
  797SOL    HW2 2391   2.307   2.205   2.556  0.1461  0.8550 -2.1020
  798SOL     OW 2392   3.042   2.966   2.031  1.0148  0.2855  0.2591
  798SOL    HW1 2393   0.055   2.992   2.023  0.7477  0.9662  0.6243
  798SOL    HW2 2394   3.011   2.928   1.940 -1.0182 -0.1250 -3.6811
  799SOL     OW 2395   0.221   2.469   2.211 -0.5756  0.2832 -0.5313
  799SOL    HW1 2396   0.121   2.436   2.218  2.4998 -3.8299  0.1230
  799SOL    HW2 2397   0.263   2.484   2.119 -0.1895  1.7760  3.4957
  800SOL     OW 2398   0.174   1.969   0.157 -0.0707 -0.0395  0.0934
  800SOL    HW1 2399   0.180   2.073   0.159  0.4256  1.7792 -1.8919
  800SOL    HW2 2400   0.084   1.939   0.190 -2.1631 -2.2746  0.0586
  801SOL     OW 2401   1.711   1.555   1.438  0.5469  0.1403  0.0653
  801SOL    HW1 2402   1.686   1.466   1.399 -2.8390  0.5221  0.5804
  801SOL    HW2 2403   1.686   1.564   1.534  1.4255 -1.3328 -1.5314
  802SOL     OW 2404   0.060   0.890   0.326  0.5348  0.3918 -0.1987
  802SOL    HW1 2405   3.045   0.907   0.348  0.9119  1.5721  1.1490
  802SOL    HW2 2406   0.070   0.906   0.228  1.4039  1.9441 -0.5375
  803SOL     OW 2407   1.097   1.540   1.859 -0.4823 -0.6555 -0.3887
  803SOL    HW1 2408   1.183   1.567   1.814 -1.5657 -0.4453  3.2552
  803SOL    HW2 2409   1.072   1.443   1.847  2.8123  1.3159 -0.8194
  804SOL     OW 2410   1.917   1.651   1.126 -0.8096  0.0484  0.1159
  804SOL    HW1 2411   1.966   1.633   1.212  3.8572 -1.2116 -1.7907
  804SOL    HW2 2412   1.873   1.565   1.091  2.1405  1.6196  2.1763
  805SOL     OW 2413   2.806   1.711   2.597  0.3368 -0.7237  0.4311
  805SOL    HW1 2414   2.714   1.670   2.622 -0.9480 -1.5367 -1.1525
  805SOL    HW2 2415   2.842   1.761   2.676 -3.4527 -0.5418  0.7727
  806SOL     OW 2416   0.429   2.359   0.129 -0.5998 -0.1606  0.2433
  806SOL    HW1 2417   0.469   2.413   0.201  2.4619 -1.0074 -1.6204
  806SOL    HW2 2418   0.440   2.406   0.038 -0.6847  0.5559 -0.9428
  807SOL     OW 2419   2.138   1.633   0.034 -0.2266  0.3974  0.3958
  807SOL    HW1 2420   2.227   1.681   0.061  0.7248  4.3137  0.5680
  807SOL    HW2 2421   2.105   1.634   3.018  0.1994 -0.2833 -1.0363
  808SOL     OW 2422   1.345   2.234   1.328 -0.0814 -0.4203 -0.0838
  808SOL    HW1 2423   1.250   2.201   1.328  0.5918 -0.2762  1.9416
  808SOL    HW2 2424   1.398   2.190   1.403 -1.3658  1.3562  1.6553
  809SOL     OW 2425   2.852   0.583   0.499 -0.1157 -0.3942  0.8644
  809SOL    HW1 2426   2.762   0.574   0.449 -1.3551 -1.3781 -0.7535
  809SOL    HW2 2427   2.858   0.527   0.580  1.2940  0.0453 -2.3663
  810SOL     OW 2428   0.891   1.483   0.241  0.2886  0.1678 -0.0196
  810SOL    HW1 2429   0.946   1.506   0.326 -1.3772  0.2388 -0.2047
  810SOL    HW2 2430   0.879   1.568   0.183 -0.7692  1.7928 -1.2142
  811SOL     OW 2431   1.582   2.568   1.199 -0.4946 -0.5341 -0.0731
  811SOL    HW1 2432   1.597   2.520   1.289  1.2025  0.2953  0.2182
  811SOL    HW2 2433   1.672   2.573   1.154 -0.2863 -1.0019  0.7876
  812SOL     OW 2434   1.396   2.813   1.442 -0.2993  0.3216 -0.0538
  812SOL    HW1 2435   1.488   2.773   1.459 -0.8833  2.5499  0.1017
  812SOL    HW2 2436   1.322   2.763   1.489 -1.9525 -2.4018  0.7787
  813SOL     OW 2437   0.828   2.912   1.694  0.0757 -0.2897  0.2879
  813SOL    HW1 2438   0.755   2.939   1.753  3.7731 -1.5070 -1.7105
  813SOL    HW2 2439   0.896   2.852   1.746  0.0554 -3.5884  0.6200
  814SOL     OW 2440   1.011   2.708   2.120  0.2080  0.4241 -0.0818
  814SOL    HW1 2441   1.075   2.781   2.150 -0.2603 -1.4288 -1.8984
  814SOL    HW2 2442   1.016   2.625   2.177  0.2823  4.1779 -1.0782
  815SOL     OW 2443   0.443   2.871   2.856 -0.2600 -0.0057 -0.1165
  815SOL    HW1 2444   0.520   2.832   2.805 -0.7387 -1.1410  0.9791
  815SOL    HW2 2445   0.425   2.966   2.817  0.1740  1.4925  0.7683
  816SOL     OW 2446   2.336   0.566   0.011 -0.3218  0.2890 -0.1840
  816SOL    HW1 2447   2.359   0.653   0.061  2.9897 -0.5523  1.7862
  816SOL    HW2 2448   2.267   0.503   0.061 -0.9501 -1.3959  1.5841
  817SOL     OW 2449   2.404   2.438   2.251 -0.3834  0.0118 -0.1890
  817SOL    HW1 2450   2.492   2.463   2.300  1.7778 -0.9690 -2.9977
  817SOL    HW2 2451   2.323   2.481   2.289 -0.9573  1.2240 -0.9458
  818SOL     OW 2452   1.059   0.873   0.488 -0.2856  0.0688  0.1019
  818SOL    HW1 2453   1.079   0.794   0.426 -0.6639 -0.5189 -0.3538
  818SOL    HW2 2454   1.028   0.958   0.438 -3.0501  1.7613 -1.9176
  819SOL     OW 2455   1.805   1.391   2.740  0.1223 -0.6343  0.3579
  819SOL    HW1 2456   1.869   1.392   2.657 -1.1439  0.1787 -3.2818
  819SOL    HW2 2457   1.853   1.363   2.829 -4.3395  0.7403  0.3294
  820SOL     OW 2458   3.056   1.608   2.562  0.4026 -0.1020 -0.0874
  820SOL    HW1 2459   2.962   1.644   2.570 -0.7737 -1.2330 -1.4991
  820SOL    HW2 2460   0.016   1.648   2.479 -1.9858 -0.2257  0.6816
  821SOL     OW 2461   0.323   3.024   0.621  0.1608  0.1254 -0.0458
  821SOL    HW1 2462   0.369   0.011   0.671  3.0407 -2.0242 -1.8658
  821SOL    HW2 2463   0.392   2.976   0.561  0.3050 -0.7359  1.3962
  822SOL     OW 2464   2.558   2.546   2.797  0.0909  0.8061 -0.0997
  822SOL    HW1 2465   2.575   2.446   2.814  0.0705 -1.1082 -1.6619
  822SOL    HW2 2466   2.594   2.606   2.874 -2.6280 -4.2490 -0.9991
  823SOL     OW 2467   1.629   0.203   2.516  0.0145  0.1149 -0.2905
  823SOL    HW1 2468   1.716   0.164   2.558  0.4029  1.0489  0.0104
  823SOL    HW2 2469   1.599   0.136   2.444  2.2002 -0.9225  0.4831
  824SOL     OW 2470   2.743   2.279   2.100  0.2775  0.5478 -0.0502
  824SOL    HW1 2471   2.747   2.379   2.115  0.8796  2.3689 -0.0104
  824SOL    HW2 2472   2.652   2.249   2.063 -1.2527  1.7793 -1.2526
  825SOL     OW 2473   3.005   1.975   2.411  0.5852 -0.3520 -0.3100
  825SOL    HW1 2474   0.010   1.947   2.377 -1.9720  1.1406  0.7167
  825SOL    HW2 2475   2.936   1.994   2.339  0.3851 -2.7234  0.6933
  826SOL     OW 2476   1.816   0.764   2.937  0.3734  0.2748  0.0614
  826SOL    HW1 2477   1.794   0.863   2.942  3.2299 -0.7763  3.0075
  826SOL    HW2 2478   1.886   0.746   2.867 -1.9538  1.5918  0.6126
  827SOL     OW 2479   2.818   1.747   1.712 -0.0005  0.0936 -0.5532
  827SOL    HW1 2480   2.843   1.714   1.615 -0.2898  2.0133 -2.3966
  827SOL    HW2 2481   2.798   1.667   1.767  3.8497  4.1269 -0.3925
  828SOL     OW 2482   2.906   0.164   1.287  0.0677 -0.1550 -0.1289
  828SOL    HW1 2483   2.973   0.132   1.216 -0.5060 -0.1401  0.4602
  828SOL    HW2 2484   2.815   0.129   1.267  0.9027  1.1568 -2.4532
  829SOL     OW 2485   0.788   1.933   2.368 -0.7332 -0.0396 -0.1846
  829SOL    HW1 2486   0.800   2.035   2.362 -1.0693  1.6382  2.3207
  829SOL    HW2 2487   0.793   1.897   2.466 -1.9951 -1.8067 -1.6973
  830SOL     OW 2488   0.438   0.855   1.422  0.2027 -0.1999 -0.4950
  830SOL    HW1 2489   0.506   0.892   1.493 -0.7038 -0.1930  3.1705
  830SOL    HW2 2490   0.445   0.756   1.417 -1.2343  2.9319 -0.3798
  831SOL     OW 2491   2.521   1.802   2.820  0.4372  0.0819 -0.0651
  831SOL    HW1 2492   2.543   1.704   2.834  0.2897  0.9634 -0.6648
  831SOL    HW2 2493   2.517   1.858   2.904 -0.4779  0.2493 -0.3705
  832SOL     OW 2494   1.931   2.519   3.015  0.3486  0.4478  0.1891
  832SOL    HW1 2495   2.021   2.521   2.968  1.9602 -0.0365 -1.2632
  832SOL    HW2 2496   1.859   2.559   2.958  5.3271 -0.4591  2.4790
  833SOL     OW 2497   0.784   0.140   1.924  0.3012 -1.0320 -0.2096
  833SOL    HW1 2498   0.880   0.152   1.898  1.8280 -0.2957  1.5995
  833SOL    HW2 2499   0.769   0.170   2.019  0.8518  0.1754 -1.8174
  834SOL     OW 2500   2.921   0.379   1.467  0.5377 -0.4611 -0.1488
  834SOL    HW1 2501   2.909   0.297   1.403 -0.8770 -0.7774 -0.0828
  834SOL    HW2 2502   2.891   0.463   1.420 -0.1446  0.3180  0.6046
  835SOL     OW 2503   2.576   0.431   0.106  0.3280  0.2295 -0.1054
  835SOL    HW1 2504   2.563   0.511   0.041  1.4993 -1.0913 -2.2395
  835SOL    HW2 2505   2.556   0.453   0.205 -1.0247 -0.4723 -2.0729
  836SOL     OW 2506   1.430   1.939   0.239 -0.2878 -0.2117  0.1150
  836SOL    HW1 2507   1.360   2.011   0.260 -3.3385  2.5889 -0.6040
  836SOL    HW2 2508   1.504   1.980   0.178  0.8669 -1.0335 -1.5368
  837SOL     OW 2509   1.992   1.867   0.665  0.4469  0.1090  0.2519
  837SOL    HW1 2510   2.084   1.870   0.624  0.4097  0.3322  1.3073
  837SOL    HW2 2511   1.959   1.961   0.688 -1.2273 -0.5715  2.0788
  838SOL     OW 2512   1.386   0.914   2.392  0.0293  0.0684  0.4923
  838SOL    HW1 2513   1.359   0.834   2.448 -1.7349  2.7863 -0.9253
  838SOL    HW2 2514   1.309   0.978   2.405 -0.2414  1.8339  0.4627
  839SOL     OW 2515   0.533   1.410   2.240  0.2008  0.1355 -0.0129
  839SOL    HW1 2516   0.619   1.465   2.241  1.3121 -1.0712 -0.4723
  839SOL    HW2 2517   0.562   1.315   2.258 -1.7921  0.2803 -3.1221
  840SOL     OW 2518   1.052   1.557   0.437 -0.4358  0.1440  0.2211
  840SOL    HW1 2519   1.133   1.588   0.382  1.2082  1.0218 -0.4048
  840SOL    HW2 2520   1.027   1.622   0.509 -0.0842 -0.8115 -2.7987
  841SOL     OW 2521   1.472   2.213   0.818 -0.0626 -0.3226 -0.0767
  841SOL    HW1 2522   1.572   2.224   0.841  0.2106  0.6639  0.6374
  841SOL    HW2 2523   1.423   2.220   0.902 -1.1305  0.7397 -2.6722
  842SOL     OW 2524   0.441   0.509   3.069 -0.1280  0.3175  0.1065
  842SOL    HW1 2525   0.440   0.451   0.071 -1.6531  2.0802  1.6646
  842SOL    HW2 2526   0.510   0.582   3.071  0.8975 -1.5960  1.2839
  843SOL     OW 2527   0.592   0.254   0.606  0.6431  0.0651  0.1766
  843SOL    HW1 2528   0.635   0.189   0.537  1.8215 -2.2795  0.2784
  843SOL    HW2 2529   0.600   0.348   0.572  1.0883 -0.8504  0.8129
  844SOL     OW 2530   2.237   3.034   2.478  0.1241  0.2852 -0.4805
  844SOL    HW1 2531   2.299   3.033   2.398 -1.2981 -1.1188 -0.6463
  844SOL    HW2 2532   2.151   2.985   2.461  1.3176 -1.6531  4.8376
  845SOL     OW 2533   0.058   2.467   1.880  0.1186 -0.2397 -0.1702
  845SOL    HW1 2534   0.000   2.384   1.883 -0.0839  0.3013 -0.5308
  845SOL    HW2 2535   0.055   2.504   1.785 -1.6012  0.8078  1.2618
  846SOL     OW 2536   1.901   1.361   2.489  0.8323 -0.1065  0.2081
  846SOL    HW1 2537   1.981   1.386   2.423  1.5509  2.2000 -1.5806
  846SOL    HW2 2538   1.811   1.389   2.450  1.3229 -0.4646 -0.0878
  847SOL     OW 2539   0.598   0.754   2.001  0.0140  0.5407 -0.2306
  847SOL    HW1 2540   0.600   0.651   2.020 -0.5498 -0.6470  0.5700
  847SOL    HW2 2541   0.694   0.785   1.973  1.4943  1.1918  0.5547
  848SOL     OW 2542   2.648   3.069   2.662  0.0668  0.6771 -0.0517
  848SOL    HW1 2543   2.744   3.042   2.647  0.0333 -2.6790  0.6565
  848SOL    HW2 2544   2.634   0.028   2.755  1.9352  3.9191  1.0491
  849SOL     OW 2545   0.372   2.737   0.253 -0.4025 -0.2863 -0.0617
  849SOL    HW1 2546   0.278   2.698   0.229 -3.3077 -0.9870  0.5286
  849SOL    HW2 2547   0.407   2.790   0.173 -0.1264  0.8210  0.4904
  850SOL     OW 2548   1.078   2.620   0.696  0.1075 -0.8653 -0.1314
  850SOL    HW1 2549   1.094   2.535   0.746  1.7287 -1.4707  1.0736
  850SOL    HW2 2550   1.170   2.650   0.664 -0.0480  0.7423  2.9246
  851SOL     OW 2551   2.129   0.178   2.613 -0.0983 -0.9499  0.5060
  851SOL    HW1 2552   2.155   0.089   2.576 -1.1831  1.0825  0.3692
  851SOL    HW2 2553   2.189   0.193   2.693 -0.2643 -0.2873  0.6772
  852SOL     OW 2554   1.383   0.236   2.612  0.1809  0.4528 -0.2993
  852SOL    HW1 2555   1.482   0.209   2.612  3.3721 -0.0558 -2.7801
  852SOL    HW2 2556   1.338   0.194   2.691 -0.6890  0.4291 -1.3975
  853SOL     OW 2557   3.061   2.559   0.295  0.0640  0.2021  0.4017
  853SOL    HW1 2558   0.067   2.520   0.338  0.2844  0.0233  2.7192
  853SOL    HW2 2559   3.000   2.575   0.375  0.2213 -1.1544 -0.7133
  854SOL     OW 2560   1.901   0.539   2.426 -0.2155 -0.3865  0.2606
  854SOL    HW1 2561   1.899   0.637   2.449 -1.2206 -5.0394  3.6095
  854SOL    HW2 2562   1.977   0.488   2.471  0.8186  2.7005 -3.2440
  855SOL     OW 2563   0.573   2.567   0.298  0.7638  0.0402  0.5552
  855SOL    HW1 2564   0.494   2.637   0.287  0.0703 -0.6323 -0.2933
  855SOL    HW2 2565   0.665   2.606   0.290 -0.7973  0.3025  1.9352
  856SOL     OW 2566   0.245   3.003   2.521  0.1845  0.6714  0.3039
  856SOL    HW1 2567   0.183   2.934   2.480  1.8832  2.3358  1.4878
  856SOL    HW2 2568   0.218   3.024   2.620 -0.9097  0.3901 -0.0183
  857SOL     OW 2569   1.067   2.964   1.580  0.1306  0.0269 -0.0680
  857SOL    HW1 2570   1.129   2.920   1.652 -0.6164 -2.2787  1.8783
  857SOL    HW2 2571   0.966   2.954   1.597  0.4404 -0.1416  1.7253
  858SOL     OW 2572   2.621   2.041   1.838 -0.4990 -0.4264 -0.0153
  858SOL    HW1 2573   2.716   2.051   1.799  1.7921  0.3288 -1.1005
  858SOL    HW2 2574   2.583   2.134   1.867 -1.3750 -0.0015 -2.3587
  859SOL     OW 2575   1.990   2.343   2.136 -0.6256  0.3857  0.0788
  859SOL    HW1 2576   2.010   2.439   2.104  1.9818 -2.2638  0.1387
  859SOL    HW2 2577   2.026   2.267   2.074 -1.1044 -0.7759  0.1359
  860SOL     OW 2578   1.723   0.471   0.407  0.4234  0.5607 -0.6115
  860SOL    HW1 2579   1.697   0.567   0.395  0.7229 -0.1624  1.5080
  860SOL    HW2 2580   1.694   0.415   0.328 -3.6434  0.5476  1.0365
  861SOL     OW 2581   2.903   0.493   0.785 -0.1598  0.5044  0.0044
  861SOL    HW1 2582   2.995   0.464   0.745  5.0674 -0.6851  1.1091
  861SOL    HW2 2583   2.861   0.414   0.839 -2.3887 -2.9070 -0.4374
  862SOL     OW 2584   1.137   2.681   2.490 -0.4437  0.4861  0.3108
  862SOL    HW1 2585   1.087   2.767   2.507 -0.2067 -1.5966  1.8806
  862SOL    HW2 2586   1.099   2.629   2.409 -1.5525  0.4101  0.4601
  863SOL     OW 2587   0.665   0.591   1.204  0.1936 -0.2780  0.6458
  863SOL    HW1 2588   0.734   0.634   1.268  2.2309  0.2422 -2.3838
  863SOL    HW2 2589   0.717   0.564   1.119 -1.9632  2.6042 -0.0489
  864SOL     OW 2590   2.975   2.858   1.787 -0.6294  0.4838 -0.4714
  864SOL    HW1 2591   2.966   2.927   1.711  1.6714  1.2835 -1.0481
  864SOL    HW2 2592   2.883   2.835   1.812  3.3059 -0.1834 -0.4732
  865SOL     OW 2593   0.691   1.297   2.871 -0.0721 -0.2552 -0.4890
  865SOL    HW1 2594   0.621   1.232   2.898  1.2433  0.5271  2.2610
  865SOL    HW2 2595   0.671   1.381   2.921 -2.2335 -0.1622  1.8492
  866SOL     OW 2596   0.064   0.103   0.088  0.4556  0.2486 -0.4564
  866SOL    HW1 2597   0.003   0.156   0.155 -0.2155 -1.7488  1.5129
  866SOL    HW2 2598   0.103   0.022   0.138 -1.4709 -0.7111  0.4216
  867SOL     OW 2599   2.927   3.006   2.680 -0.1410 -0.0803  0.0541
  867SOL    HW1 2600   2.933   3.057   2.769  0.7175  1.2549  0.6111
  867SOL    HW2 2601   2.921   2.908   2.691 -2.1940 -0.1244 -0.1180
  868SOL     OW 2602   1.073   1.069   0.141  0.0626 -0.4631  0.3619
  868SOL    HW1 2603   0.983   1.024   0.120  0.4268  1.5878  0.8817
  868SOL    HW2 2604   1.145   0.999   0.136 -1.9303  2.7820  0.8270
  869SOL     OW 2605   3.071   1.234   0.464 -0.2814  0.1977 -0.3410
  869SOL    HW1 2606   3.079   1.329   0.504  2.3465 -2.9731  1.7202
  869SOL    HW2 2607   0.074   1.173   0.477  1.7097 -1.6520  0.0763
  870SOL     OW 2608   2.426   1.585   0.577 -0.3360 -0.1658  0.4060
  870SOL    HW1 2609   2.493   1.630   0.510 -0.8678 -2.4824  0.9146
  870SOL    HW2 2610   2.461   1.596   0.674 -1.1659  0.6038  1.6871
  871SOL     OW 2611   1.128   1.386   0.866 -0.2639 -0.7391  0.1349
  871SOL    HW1 2612   1.136   1.317   0.793 -0.4243  0.4083 -0.5250
  871SOL    HW2 2613   1.046   1.368   0.924  1.0358 -1.1616 -0.6368
  872SOL     OW 2614   1.089   1.870   1.849  0.0794  0.0207  0.3393
  872SOL    HW1 2615   1.089   1.922   1.766  1.5717 -4.5765  2.5922
  872SOL    HW2 2616   1.182   1.843   1.876 -2.7320 -1.9505  2.1019
  873SOL     OW 2617   0.916   1.758   2.224  0.1785  0.0534  0.4105
  873SOL    HW1 2618   0.864   1.826   2.282 -0.9278  2.3601 -0.1526
  873SOL    HW2 2619   0.900   1.775   2.123  0.5137  0.8789 -1.2589
  874SOL     OW 2620   0.979   2.150   0.862  0.1235 -0.4433 -0.8682
  874SOL    HW1 2621   1.046   2.118   0.931 -0.8947  3.2046 -2.4305
  874SOL    HW2 2622   0.899   2.091   0.876  2.1926  2.4630  1.2086
  875SOL     OW 2623   2.507   0.253   0.893  0.2603  0.1104  0.1336
  875SOL    HW1 2624   2.467   0.347   0.912  0.2474  1.9221  0.4561
  875SOL    HW2 2625   2.491   0.194   0.979 -2.9133 -0.2116  0.8386
  876SOL     OW 2626   0.786   0.694   0.200  0.0948  0.0777 -0.0210
  876SOL    HW1 2627   0.735   0.725   0.282 -0.2801 -1.5645  1.5837
  876SOL    HW2 2628   0.847   0.610   0.217 -0.0000  0.9143 -0.2180
  877SOL     OW 2629   2.722   0.564   1.353 -0.0727  0.4988  0.9579
  877SOL    HW1 2630   2.740   0.495   1.278  2.0612  0.2448 -0.2697
  877SOL    HW2 2631   2.762   0.656   1.328 -2.9902  2.7458  1.4881
  878SOL     OW 2632   2.175   2.122   0.743  0.0883 -0.2389 -0.0585
  878SOL    HW1 2633   2.077   2.147   0.727 -0.5452  0.6578  0.3891
  878SOL    HW2 2634   2.214   2.084   0.656 -0.8002  0.5377  1.1295
  879SOL     OW 2635   2.603   1.639   1.505 -0.0476 -0.0987 -0.5475
  879SOL    HW1 2636   2.567   1.629   1.415  4.2980  0.1551  4.5833
  879SOL    HW2 2637   2.558   1.713   1.559 -0.4907  1.6467 -3.1454
  880SOL     OW 2638   1.338   2.664   1.115 -0.6852  0.6500  0.1641
  880SOL    HW1 2639   1.434   2.656   1.145  0.6107 -0.3331  0.1800
  880SOL    HW2 2640   1.327   2.610   1.029  2.1242 -2.1053 -0.9141
  881SOL     OW 2641   0.900   2.482   0.091  0.1438 -0.1843  0.0972
  881SOL    HW1 2642   0.848   2.394   0.097 -0.1207  1.6487  2.0121
  881SOL    HW2 2643   0.999   2.463   0.106 -1.1362 -0.8410  0.7507
  882SOL     OW 2644   1.806   1.042   1.636 -0.2522 -0.0698  0.2860
  882SOL    HW1 2645   1.718   1.063   1.683  0.1125  0.0490 -2.8744
  882SOL    HW2 2646   1.797   1.032   1.539 -3.4131 -0.2735  2.7775
  883SOL     OW 2647   1.286   0.190   2.136 -0.7241 -0.0355  0.2693
  883SOL    HW1 2648   1.280   0.250   2.216 -1.5144 -0.2110  0.4383
  883SOL    HW2 2649   1.197   0.141   2.120 -0.4067  0.5913  2.0545
  884SOL     OW 2650   2.978   0.633   0.156 -0.0080  0.1951  0.1714
  884SOL    HW1 2651   3.015   0.570   0.226  0.2340  1.1690 -1.4735
  884SOL    HW2 2652   3.030   0.723   0.152  0.9982  0.9423  0.5507
  885SOL     OW 2653   0.964   1.259   2.960 -0.1044 -0.2770  0.1650
  885SOL    HW1 2654   1.041   1.297   2.901  1.8719  1.5264  0.8567
  885SOL    HW2 2655   0.876   1.304   2.934  1.3176 -1.8122  1.8413
  886SOL     OW 2656   1.528   1.359   2.772 -0.0918 -0.2119 -0.1861
  886SOL    HW1 2657   1.482   1.310   2.702 -0.2548  0.3109  1.9665
  886SOL    HW2 2658   1.620   1.378   2.737 -2.5847  0.5463 -1.1518
  887SOL     OW 2659   0.960   0.584   1.875 -0.1833  0.4342  0.4664
  887SOL    HW1 2660   1.015   0.561   1.794 -0.9798 -2.3101  2.9018
  887SOL    HW2 2661   0.996   0.535   1.960  1.8979  2.1117 -1.5270
  888SOL     OW 2662   2.588   0.498   1.887  0.7304 -0.0303  0.4050
  888SOL    HW1 2663   2.585   0.577   1.947 -0.8540  1.4222  0.9936
  888SOL    HW2 2664   2.601   0.526   1.792  0.0118  0.0280  2.3505
  889SOL     OW 2665   0.077   2.892   0.622 -0.4777  0.0757  0.7028
  889SOL    HW1 2666   0.078   2.806   0.673 -0.5678  3.3770 -1.7708
  889SOL    HW2 2667   0.168   2.935   0.607 -2.1591 -0.9819 -2.4125
  890SOL     OW 2668   2.914   2.308   0.439  0.0502 -0.0103 -0.0229
  890SOL    HW1 2669   2.911   2.411   0.458 -0.4863  1.1145  1.5889
  890SOL    HW2 2670   2.985   2.267   0.492 -1.6520 -0.5374 -3.9477
  891SOL     OW 2671   0.984   1.673   2.923 -0.5223  0.0250  0.1237
  891SOL    HW1 2672   0.942   1.753   2.874  1.5687 -0.6891 -0.4671
  891SOL    HW2 2673   1.016   1.609   2.851 -0.0417  0.8678  1.8894
  892SOL     OW 2674   2.886   0.014   0.883 -0.0399  0.0301  0.0170
  892SOL    HW1 2675   2.848   3.067   0.792  0.2398 -0.5850 -0.3421
  892SOL    HW2 2676   2.840   3.054   0.965 -2.1468  0.8590  0.9385
  893SOL     OW 2677   1.032   3.003   1.311  0.6884 -0.2305 -0.2129
  893SOL    HW1 2678   1.059   2.992   1.411  0.5517  2.0564 -2.5701
  893SOL    HW2 2679   0.960   3.076   1.302  0.2019 -0.3698 -1.2837
  894SOL     OW 2680   2.939   0.852   0.538  0.3654  0.0693 -0.1192
  894SOL    HW1 2681   2.908   0.758   0.506 -2.7751  0.7861 -0.6772
  894SOL    HW2 2682   3.010   0.846   0.615  1.0320  1.3636 -0.0556
  895SOL     OW 2683   2.406   2.683   1.769 -0.0455  0.1959  0.4896
  895SOL    HW1 2684   2.446   2.619   1.836 -0.0857  2.5903 -0.1656
  895SOL    HW2 2685   2.419   2.774   1.807 -0.6495 -2.9738  0.4409
  896SOL     OW 2686   1.156   0.126   1.666  0.6221 -0.3912 -0.1046
  896SOL    HW1 2687   1.146   0.035   1.620  1.8543 -0.6810  0.2348
  896SOL    HW2 2688   1.119   0.131   1.762  0.9134  0.2828 -0.2648
  897SOL     OW 2689   0.893   1.611   1.667 -0.4324  0.1894 -0.1694
  897SOL    HW1 2690   0.926   1.695   1.625 -0.9688  1.8725  2.1134
  897SOL    HW2 2691   0.936   1.604   1.759  0.2864  0.9064  0.8733
  898SOL     OW 2692   1.827   2.563   1.830  0.1463 -0.1211 -0.0301
  898SOL    HW1 2693   1.923   2.531   1.820 -0.6393  1.5054  2.1824
  898SOL    HW2 2694   1.813   2.661   1.798 -1.6465 -0.5954 -0.1535
  899SOL     OW 2695   1.061   0.552   0.984  0.7250 -0.0006 -0.2335
  899SOL    HW1 2696   1.037   0.510   1.076 -1.8328  1.5983 -0.5748
  899SOL    HW2 2697   1.079   0.651   0.993 -0.9954 -0.8004 -1.3583
  900SOL     OW 2698   1.922   2.511   2.604 -0.4844  0.0308  0.3086
  900SOL    HW1 2699   1.835   2.460   2.592 -0.3557 -0.2654  2.8204
  900SOL    HW2 2700   1.987   2.451   2.654  1.8874 -2.7052  0.0909
  901SOL     OW 2701   0.822   2.198   2.338 -0.1602  0.0240 -0.2405
  901SOL    HW1 2702   0.920   2.197   2.369 -1.3961 -2.2405 -1.9303
  901SOL    HW2 2703   0.769   2.264   2.399  1.1462  2.3450 -0.7039
  902SOL     OW 2704   2.131   0.979   0.485 -0.4935  0.0327  0.4002
  902SOL    HW1 2705   2.203   1.050   0.447  0.6223  1.5220  0.7833
  902SOL    HW2 2706   2.075   1.016   0.561 -1.9945 -0.5446 -1.6585
  903SOL     OW 2707   2.028   0.752   0.308 -0.2353 -0.4417  0.1943
  903SOL    HW1 2708   2.031   0.749   0.208 -1.4248  0.6340 -0.7671
  903SOL    HW2 2709   2.035   0.850   0.340 -0.5779  2.3798 -1.8663
  904SOL     OW 2710   0.683   0.836   2.849 -0.2811  0.5242  0.0977
  904SOL    HW1 2711   0.760   0.908   2.844  2.0978  0.6557 -0.4672
  904SOL    HW2 2712   0.670   0.791   2.755  0.3129 -1.1930 -0.0927
  905SOL     OW 2713   2.068   0.059   0.724 -0.3957 -0.1600  0.6532
  905SOL    HW1 2714   2.017   3.082   0.786 -0.4178 -4.0564 -1.4434
  905SOL    HW2 2715   2.023   0.152   0.718  0.8583 -0.2629 -0.8554
  906SOL     OW 2716   2.956   2.161   1.274 -0.1346 -0.3395 -0.2051
  906SOL    HW1 2717   3.013   2.099   1.337 -0.9453 -0.7650  0.9074
  906SOL    HW2 2718   2.902   2.229   1.322  0.7484  1.1883 -1.7010
  907SOL     OW 2719   1.139   0.712   0.293 -0.1760 -0.2216  0.1488
  907SOL    HW1 2720   1.201   0.788   0.263 -1.9745 -1.4058  0.3847
  907SOL    HW2 2721   1.078   0.684   0.214  1.2480 -0.4597 -2.3781
  908SOL     OW 2722   2.170   2.807   1.209  0.5933  0.2984  0.5851
  908SOL    HW1 2723   2.268   2.840   1.217 -0.8134  3.4866 -0.5997
  908SOL    HW2 2724   2.110   2.854   1.274 -0.6971 -0.0200  2.8050
  909SOL     OW 2725   2.222   0.877   1.337  0.7729  0.1992 -0.4620
  909SOL    HW1 2726   2.252   0.889   1.438  0.2094  1.0382  3.7311
  909SOL    HW2 2727   2.262   0.949   1.271 -1.5123  0.1707 -0.2791
  910SOL     OW 2728   1.296   2.691   1.995 -0.4303 -0.6176  0.2169
  910SOL    HW1 2729   1.273   2.712   2.095 -1.8997 -2.4722  0.1958
  910SOL    HW2 2730   1.396   2.672   1.987 -1.1566  1.4302  3.6779
  911SOL     OW 2731   2.820   0.198   2.289 -0.1578  0.0391 -0.3844
  911SOL    HW1 2732   2.716   0.209   2.298  1.9216 -0.3796 -1.5025
  911SOL    HW2 2733   2.836   0.167   2.196 -2.0158  1.0038 -2.2768
  912SOL     OW 2734   2.984   1.261   1.376 -0.4830  0.0541  0.0637
  912SOL    HW1 2735   2.933   1.338   1.414  1.7429  0.9044  1.6442
  912SOL    HW2 2736   3.082   1.271   1.385 -0.7893 -0.0187  0.0038
  913SOL     OW 2737   2.866   2.025   1.695  0.0529 -0.0414 -0.3112
  913SOL    HW1 2738   2.842   1.928   1.701  2.2843  0.0513 -0.0134
  913SOL    HW2 2739   2.932   2.054   1.626 -1.5701  0.6805  2.3856
  914SOL     OW 2740   1.749   0.879   1.405 -0.1581 -0.8954 -0.2564
  914SOL    HW1 2741   1.827   0.845   1.344  1.4617 -1.0812 -2.0330
  914SOL    HW2 2742   1.707   0.808   1.463  1.1510 -2.1020 -2.2360
  915SOL     OW 2743   1.127   0.481   1.679  0.6014  0.6992  0.1649
  915SOL    HW1 2744   1.214   0.476   1.732  1.7742 -0.8257 -1.7385
  915SOL    HW2 2745   1.118   0.398   1.627  0.3994  2.9754 -0.4021
  916SOL     OW 2746   2.760   2.362   1.449 -0.5829  0.0147 -0.3953
  916SOL    HW1 2747   2.680   2.373   1.383 -0.0041 -0.9431 -0.4855
  916SOL    HW2 2748   2.719   2.329   1.537  0.4675 -2.8614 -2.7845
  917SOL     OW 2749   2.488   2.141   0.327 -0.3336 -0.3021 -0.0108
  917SOL    HW1 2750   2.442   2.124   0.235 -0.4555 -1.6310  0.7146
  917SOL    HW2 2751   2.491   2.242   0.345  0.2992  2.5049 -2.4420
  918SOL     OW 2752   2.019   2.765   2.672 -0.6441 -0.0644 -0.0886
  918SOL    HW1 2753   2.119   2.773   2.645  2.1394  0.0591 -1.9890
  918SOL    HW2 2754   1.984   2.670   2.657 -0.7466  1.3952 -0.8439
  919SOL     OW 2755   0.998   2.393   1.416  0.1062  0.3421  0.4931
  919SOL    HW1 2756   0.905   2.426   1.438  1.6322 -1.3883  0.8151
  919SOL    HW2 2757   1.056   2.405   1.498 -0.7979 -2.0670 -1.0644
  920SOL     OW 2758   0.401   0.248   2.122 -0.4144  0.5350 -0.2004
  920SOL    HW1 2759   0.385   0.174   2.188  1.7863  1.1820 -4.2037
  920SOL    HW2 2760   0.310   0.287   2.094 -0.3829 -1.9481  0.6698
  921SOL     OW 2761   2.926   0.728   1.752  0.5933  1.1626 -0.0216
  921SOL    HW1 2762   2.921   0.666   1.830  1.3729 -1.4842 -0.2327
  921SOL    HW2 2763   3.020   0.757   1.739 -1.8998 -0.2011 -0.2207
  922SOL     OW 2764   2.306   2.004   0.527 -0.2973  0.3793 -0.0318
  922SOL    HW1 2765   2.349   2.046   0.445 -2.1613 -1.0835  0.2856
  922SOL    HW2 2766   2.275   1.906   0.506  1.9289 -0.4964 -0.3513
  923SOL     OW 2767   0.909   1.874   2.748 -0.5114  0.5980 -0.3352
  923SOL    HW1 2768   0.823   1.838   2.708  1.1337 -0.0347 -0.0763
  923SOL    HW2 2769   0.913   1.979   2.746 -1.1056  1.0081 -0.8526
  924SOL     OW 2770   0.911   0.469   0.284 -0.2114  0.1179  0.0930
  924SOL    HW1 2771   0.904   0.366   0.298  0.4926 -0.7799  1.4598
  924SOL    HW2 2772   0.970   0.510   0.359 -0.5665  1.1863  1.4610
  925SOL     OW 2773   2.475   0.359   0.575 -0.3904  0.1243  0.1230
  925SOL    HW1 2774   2.408   0.423   0.617  0.6622  1.8972 -0.5439
  925SOL    HW2 2775   2.458   0.264   0.599 -0.3835 -0.0673 -0.7021
  926SOL     OW 2776   0.192   0.779   1.160 -0.4467  0.2940 -0.0118
  926SOL    HW1 2777   0.193   0.871   1.210 -3.1056 -0.6167  0.5038
  926SOL    HW2 2778   0.124   0.715   1.202 -0.5568  2.4505 -0.0584
  927SOL     OW 2779   0.036   1.169   2.731  0.0520  0.4019  0.7498
  927SOL    HW1 2780   0.101   1.212   2.662  0.6509  0.4315 -2.0730
  927SOL    HW2 2781   3.022   1.210   2.720 -0.8969  0.9692 -1.4206
  928SOL     OW 2782   2.737   0.712   2.586 -0.3395 -0.1083 -0.2915
  928SOL    HW1 2783   2.678   0.784   2.629 -1.1819  0.2945  0.7164
  928SOL    HW2 2784   2.811   0.684   2.654 -2.0658 -1.1754  1.5057
  929SOL     OW 2785   2.652   0.071   1.236  0.2456 -0.2267 -0.0770
  929SOL    HW1 2786   2.604   0.159   1.250 -1.1066  2.9030 -1.8574
  929SOL    HW2 2787   2.606   0.001   1.298 -1.0451 -1.3008  0.9715
  930SOL     OW 2788   2.036   1.201   1.574  0.4334 -0.0376 -0.3754
  930SOL    HW1 2789   1.957   1.138   1.600 -3.5744  0.2232 -0.4872
  930SOL    HW2 2790   2.013   1.261   1.496  0.6112 -1.6076  0.7897
  931SOL     OW 2791   1.675   1.285   0.691 -0.2380  0.2069  0.4638
  931SOL    HW1 2792   1.715   1.196   0.654  0.8327 -2.7721 -4.0242
  931SOL    HW2 2793   1.732   1.367   0.659  1.8757  0.1959  0.8567
  932SOL     OW 2794   2.810   1.137   0.780 -0.2485 -0.0739  0.4335
  932SOL    HW1 2795   2.774   1.189   0.701 -1.7429 -1.2777 -1.4321
  932SOL    HW2 2796   2.782   1.037   0.775 -1.6325  1.2074  1.7756
  933SOL     OW 2797   2.552   1.635   1.254  0.6310  0.8693 -0.1224
  933SOL    HW1 2798   2.466   1.683   1.219  0.3849  0.8408  0.8896
  933SOL    HW2 2799   2.632   1.697   1.264 -2.0044 -2.5982 -2.6203
  934SOL     OW 2800   1.803   0.284   2.237 -0.0190 -0.0944 -0.4036
  934SOL    HW1 2801   1.892   0.334   2.232  1.0535  0.6930 -0.7231
  934SOL    HW2 2802   1.760   0.283   2.147  4.7100  1.4928 -0.5952
  935SOL     OW 2803   0.186   1.583   0.785  0.2202 -0.2413  0.0919
  935SOL    HW1 2804   0.101   1.539   0.749  0.1665 -2.4161 -1.7272
  935SOL    HW2 2805   0.174   1.672   0.827 -0.8557  1.6881 -3.2354
  936SOL     OW 2806   0.413   0.868   0.380 -0.5673 -0.3916  0.3880
  936SOL    HW1 2807   0.401   0.857   0.278 -0.6994 -1.0076  1.2111
  936SOL    HW2 2808   0.363   0.791   0.424  1.1090 -1.7348  0.1244
  937SOL     OW 2809   2.313   0.049   1.036  0.3974  0.0366  0.7149
  937SOL    HW1 2810   2.321   3.075   0.953  1.5097  1.0794  0.6941
  937SOL    HW2 2811   2.359   0.002   1.114  1.6362 -0.0937 -2.9194
  938SOL     OW 2812   2.655   2.338   0.524 -0.3766  0.3967  0.2250
  938SOL    HW1 2813   2.740   2.287   0.536 -1.0457  1.0896  1.8869
  938SOL    HW2 2814   2.650   2.369   0.426 -1.0223 -2.3269 -1.3341
  939SOL     OW 2815   1.005   2.037   0.181  0.0490 -0.0753  0.1343
  939SOL    HW1 2816   0.920   1.978   0.184 -4.2940  0.1194  0.8006
  939SOL    HW2 2817   1.027   2.052   0.285  3.4701  2.2321  1.1590
  940SOL     OW 2818   2.890   0.261   2.792 -0.0847 -0.2894  0.3338
  940SOL    HW1 2819   2.938   0.274   2.704 -2.3763 -0.8096  1.9798
  940SOL    HW2 2820   2.792   0.287   2.781  0.2634 -0.7531 -0.4456
  941SOL     OW 2821   1.309   0.130   2.873  0.4474 -0.0927 -0.5093
  941SOL    HW1 2822   1.353   0.067   2.937 -0.0361 -0.3156 -0.4422
  941SOL    HW2 2823   1.222   0.162   2.915 -2.2568  0.6000  1.3527
  942SOL     OW 2824   1.230   1.123   1.327  0.4301  0.0404 -0.5027
  942SOL    HW1 2825   1.258   1.218   1.352  0.2087 -1.4056 -2.0822
  942SOL    HW2 2826   1.135   1.123   1.286  1.0073 -2.7253  0.6265
  943SOL     OW 2827   1.236   1.242   1.731 -0.2262  0.1641  0.1219
  943SOL    HW1 2828   1.220   1.171   1.661 -0.5486 -0.1301 -2.1634
  943SOL    HW2 2829   1.145   1.262   1.767  2.7999  3.8082  1.1737
  944SOL     OW 2830   1.625   1.096   1.882 -0.0195  0.1992  0.3668
  944SOL    HW1 2831   1.555   1.036   1.836  0.1821 -0.5298 -0.8156
  944SOL    HW2 2832   1.665   1.053   1.968  1.5806 -3.0128  2.6188
  945SOL     OW 2833   2.937   2.978   0.224 -0.1421 -0.4222 -0.9249
  945SOL    HW1 2834   3.035   2.979   0.204 -0.1650  1.1920  1.2431
  945SOL    HW2 2835   2.909   3.056   0.288  0.7129  0.7270 -1.1780
  946SOL     OW 2836   2.890   0.544   1.968  0.2214  0.3659 -0.2654
  946SOL    HW1 2837   2.944   0.605   2.028 -0.0555 -1.3568 -1.0918
  946SOL    HW2 2838   2.795   0.539   2.001  2.2330 -0.2522 -2.9322
  947SOL     OW 2839   0.510   2.946   0.439 -0.3698 -0.6478 -0.0326
  947SOL    HW1 2840   0.567   2.875   0.486 -1.5245 -0.1457 -0.0013
  947SOL    HW2 2841   0.559   3.036   0.430  2.1004  1.9462  3.6629
  948SOL     OW 2842   2.180   1.105   1.780  0.0658 -0.2402  0.1491
  948SOL    HW1 2843   2.155   1.005   1.781 -1.0616  1.7801 -0.1350
  948SOL    HW2 2844   2.123   1.157   1.717  0.5248 -0.8708  2.5798
  949SOL     OW 2845   0.588   0.702   2.623  0.0787 -0.0240 -0.3567
  949SOL    HW1 2846   0.530   0.767   2.568  0.5746 -0.4829 -3.7789
  949SOL    HW2 2847   0.539   0.636   2.675  0.0656  1.0133 -0.9083
  950SOL     OW 2848   0.508   0.332   1.101  0.0945 -0.2301 -0.5709
  950SOL    HW1 2849   0.600   0.322   1.063 -0.1678 -2.1725  1.7706
  950SOL    HW2 2850   0.470   0.424   1.086 -0.9251 -2.0127  1.3953
  951SOL     OW 2851   0.780   1.508   2.231 -0.3219 -0.2463  0.3402
  951SOL    HW1 2852   0.818   1.600   2.220 -0.6264 -1.1427  0.1000
  951SOL    HW2 2853   0.802   1.443   2.157 -0.2512 -1.1429  0.3268
  952SOL     OW 2854   0.819   1.663   0.062 -0.4947  0.0484 -0.8198
  952SOL    HW1 2855   0.880   1.663   3.062 -0.3498 -0.8546  1.2639
  952SOL    HW2 2856   0.798   1.755   0.099  0.8226 -0.3873 -1.7128
  953SOL     OW 2857   2.463   3.040   2.326  0.2674 -0.1560  0.2019
  953SOL    HW1 2858   2.491   0.054   2.316  0.4316  0.5591  0.5391
  953SOL    HW2 2859   2.535   2.976   2.364 -1.0889 -0.0512  2.2928
  954SOL     OW 2860   1.544   1.265   0.928  0.1594 -0.5347  0.1116
  954SOL    HW1 2861   1.602   1.271   0.840  1.3315 -0.1872  0.5742
  954SOL    HW2 2862   1.531   1.356   0.969  1.2566 -0.5404 -0.8832
  955SOL     OW 2863   0.234   1.935   2.620 -0.2251 -0.1814  0.2829
  955SOL    HW1 2864   0.234   1.861   2.691  0.6641  1.4387 -0.1210
  955SOL    HW2 2865   0.224   2.030   2.665 -3.7162  2.6584 -0.1689
  956SOL     OW 2866   1.640   0.727   2.042  0.7502  0.0805 -0.0531
  956SOL    HW1 2867   1.546   0.749   2.083 -1.6120 -2.1571  0.1367
  956SOL    HW2 2868   1.698   0.810   2.040  0.5717 -3.2611  0.2948
  957SOL     OW 2869   1.864   2.019   2.937 -0.1701  0.5196  0.4648
  957SOL    HW1 2870   1.819   1.938   2.983  0.7493  0.5209  1.1629
  957SOL    HW2 2871   1.897   2.088   3.010  1.2999  0.5069  2.2306
  958SOL     OW 2872   1.076   2.061   1.646 -0.0810 -0.1437 -0.7696
  958SOL    HW1 2873   1.140   2.130   1.691  2.9967  1.1842 -1.7021
  958SOL    HW2 2874   1.072   2.082   1.547 -0.4335 -0.3877 -0.2595
  959SOL     OW 2875   2.204   2.526   2.953  0.1511 -0.2151 -0.1235
  959SOL    HW1 2876   2.254   2.589   2.890 -1.4593 -2.5043  1.1469
  959SOL    HW2 2877   2.260   2.494   3.031 -1.9876  0.0056  2.1233
  960SOL     OW 2878   2.976   0.654   2.420  0.0075  0.5180  0.0829
  960SOL    HW1 2879   3.051   0.716   2.445 -2.5157  2.0793 -1.5702
  960SOL    HW2 2880   2.888   0.668   2.470 -0.2248  0.7501  0.3636
  961SOL     OW 2881   0.832   0.799   2.549 -0.7646  0.0428 -0.3135
  961SOL    HW1 2882   0.739   0.756   2.564 -2.4435 -1.9018 -1.0490
  961SOL    HW2 2883   0.904   0.726   2.526 -0.7901  0.0676 -0.5135
  962SOL     OW 2884   0.721   1.247   2.583  0.1170  0.2268 -0.3008
  962SOL    HW1 2885   0.724   1.226   2.684  1.4971  0.6094  0.0697
  962SOL    HW2 2886   0.629   1.222   2.538 -0.6526 -1.8659 -0.3255
  963SOL     OW 2887   2.654   2.450   0.279  0.5271 -0.2436 -0.3116
  963SOL    HW1 2888   2.668   2.442   0.177  1.3043 -2.0310 -0.8819
  963SOL    HW2 2889   2.706   2.526   0.319  1.3788 -0.5468 -1.0970
  964SOL     OW 2890   1.057   2.463   1.120  0.0558  0.3265 -0.2755
  964SOL    HW1 2891   1.069   2.422   1.217 -0.6151  0.6370  3.3501
  964SOL    HW2 2892   1.037   2.563   1.129 -2.0212 -2.5895 -1.8645
  965SOL     OW 2893   1.393   1.332   0.643 -0.0425  0.7112 -0.2052
  965SOL    HW1 2894   1.493   1.321   0.665 -4.8432 -0.5327 -0.6430
  965SOL    HW2 2895   1.359   1.422   0.676  2.1976  0.4459  0.1089
  966SOL     OW 2896   0.181   1.465   0.253 -0.1840  0.5345 -0.4713
  966SOL    HW1 2897   0.157   1.368   0.243  1.9800  0.9575 -1.6231
  966SOL    HW2 2898   0.271   1.494   0.206  0.6331 -0.6327  1.5781
  967SOL     OW 2899   1.781   0.054   1.870  0.4897  0.0276  0.3986
  967SOL    HW1 2900   1.748   3.061   1.929  0.9969  2.1536 -2.2522
  967SOL    HW2 2901   1.759   0.144   1.914 -1.6134  1.9614  2.6922
  968SOL     OW 2902   1.783   0.875   0.650 -0.3770  0.2881 -0.4775
  968SOL    HW1 2903   1.821   0.963   0.621  1.0613 -2.2331 -0.6817
  968SOL    HW2 2904   1.691   0.858   0.611 -1.9488 -0.1966  1.6698
  969SOL     OW 2905   0.277   1.186   2.290  0.3565 -0.0974 -0.0089
  969SOL    HW1 2906   0.306   1.229   2.202  1.7933  0.1131  1.1286
  969SOL    HW2 2907   0.233   1.094   2.268  0.6357 -4.6424 -0.2022
  970SOL     OW 2908   2.147   1.430   1.222 -0.0594 -0.0886 -0.1960
  970SOL    HW1 2909   2.190   1.364   1.287  1.2972 -2.7040 -1.4245
  970SOL    HW2 2910   2.129   1.386   1.132 -1.3860 -1.7179 -2.0711
  971SOL     OW 2911   0.002   0.072   1.112 -0.1836 -0.5508  0.2765
  971SOL    HW1 2912   0.076   0.142   1.090  0.1912  0.9103  0.6132
  971SOL    HW2 2913   0.014   3.068   1.061  2.2620  0.4595 -1.8273
  972SOL     OW 2914   0.393   0.557   2.787  0.3954 -0.1489 -0.2399
  972SOL    HW1 2915   0.421   0.528   2.880  0.1549  1.1876 -1.1902
  972SOL    HW2 2916   0.310   0.508   2.757  1.7910 -1.5574 -1.3315
  973SOL     OW 2917   0.322   0.546   0.861  0.3847  0.1646 -0.1557
  973SOL    HW1 2918   0.284   0.450   0.852 -3.9623 -0.1580  0.6539
  973SOL    HW2 2919   0.362   0.566   0.953  0.1179 -1.0401 -2.3946
  974SOL     OW 2920   2.196   0.565   1.838 -0.0299  0.1144 -0.2975
  974SOL    HW1 2921   2.263   0.608   1.904  1.6608  0.7130 -0.2463
  974SOL    HW2 2922   2.127   0.516   1.891 -0.3238  1.8597  0.5069
  975SOL     OW 2923   2.763   0.217   0.040  0.2906 -0.7310 -0.3390
  975SOL    HW1 2924   2.694   0.287   0.075 -3.0823  2.6178  3.1963
  975SOL    HW2 2925   2.849   0.199   0.093  2.5682  0.1022 -2.2171
  976SOL     OW 2926   0.236   1.543   1.276 -0.5076  0.5264  0.2208
  976SOL    HW1 2927   0.210   1.476   1.351  0.9014 -0.6151 -1.2817
  976SOL    HW2 2928   0.180   1.621   1.290 -0.3812 -1.9473 -0.2448
  977SOL     OW 2929   1.136   2.357   0.074 -0.3273  0.2779 -0.5305
  977SOL    HW1 2930   1.232   2.384   0.061 -0.6915 -1.4445 -0.8295
  977SOL    HW2 2931   1.097   2.299   3.083  0.2961 -1.7817 -1.1232
  978SOL     OW 2932   0.394   1.264   2.810 -0.5072 -0.1122  0.2594
  978SOL    HW1 2933   0.314   1.303   2.859  3.4330 -3.8733  2.8112
  978SOL    HW2 2934   0.422   1.173   2.852 -1.0297 -0.2967  1.4781
  979SOL     OW 2935   2.111   1.745   0.953 -0.1483 -0.6936 -0.1140
  979SOL    HW1 2936   2.119   1.677   0.878 -0.3585 -0.5904  3.2176
  979SOL    HW2 2937   2.055   1.709   1.028  4.5229  2.9192 -0.8611
  980SOL     OW 2938   0.353   1.458   1.625  0.2733  0.5219  1.0400
  980SOL    HW1 2939   0.266   1.417   1.658  0.9388  1.1719 -0.6301
  980SOL    HW2 2940   0.438   1.413   1.664 -1.4342 -0.8365  1.2125
  981SOL     OW 2941   2.716   1.485   0.245  0.5729 -0.0112 -0.3438
  981SOL    HW1 2942   2.804   1.467   0.200 -0.4857  0.2531  0.9601
  981SOL    HW2 2943   2.645   1.464   0.178  2.6250  0.6730  0.8801
  982SOL     OW 2944   2.492   2.527   1.977 -0.0470  0.0743  0.0537
  982SOL    HW1 2945   2.589   2.536   1.996 -0.3079 -0.1164 -1.2670
  982SOL    HW2 2946   2.445   2.526   2.069 -3.1433 -1.2605  1.1994
  983SOL     OW 2947   1.135   0.174   1.145  0.0851  0.0148  0.5711
  983SOL    HW1 2948   1.045   0.137   1.183 -0.1040  2.8790  1.7094
  983SOL    HW2 2949   1.151   0.273   1.168 -0.7468 -0.5554  2.0863
  984SOL     OW 2950   1.288   2.662   3.010 -0.2488 -0.2744  0.3174
  984SOL    HW1 2951   1.306   2.704   2.919 -0.0153 -2.0116 -0.9142
  984SOL    HW2 2952   1.344   2.577   3.029  1.1933  1.1795  0.6485
  985SOL     OW 2953   2.006   2.180   1.749 -0.2800  1.1082  0.4207
  985SOL    HW1 2954   2.038   2.164   1.846  2.1218 -1.8013  3.8985
  985SOL    HW2 2955   1.923   2.122   1.728 -2.5275 -0.0880 -0.3536
  986SOL     OW 2956   2.367   3.019   2.692  0.0360  0.5300 -0.5079
  986SOL    HW1 2957   2.307   3.028   2.608  1.4630  0.3054 -2.0227
  986SOL    HW2 2958   2.461   3.030   2.660  1.1818  2.4713  1.0465
  987SOL     OW 2959   2.943   0.995   2.137 -0.3919  0.6495 -0.0933
  987SOL    HW1 2960   2.872   0.950   2.078 -0.6466 -0.2248 -3.0417
  987SOL    HW2 2961   2.949   1.096   2.115  1.5979 -0.6538 -1.0896
  988SOL     OW 2962   2.336   0.868   2.676  0.2137  0.6627  0.2511
  988SOL    HW1 2963   2.374   0.809   2.749  0.2330  0.3604  1.3017
  988SOL    HW2 2964   2.337   0.821   2.589  1.3324 -1.7622  0.6511
  989SOL     OW 2965   1.734   1.321   1.969 -0.1679  0.2498 -0.2120
  989SOL    HW1 2966   1.698   1.224   1.942 -0.6868 -3.0525  1.5433
  989SOL    HW2 2967   1.834   1.334   1.957  3.3216  1.8179 -0.3722
  990SOL     OW 2968   0.364   1.131   0.212  0.5040  0.4168  0.4755
  990SOL    HW1 2969   0.369   1.046   0.157  0.2195 -2.1204  0.6342
  990SOL    HW2 2970   0.272   1.144   0.244  1.2963  0.1125  0.2308
  991SOL     OW 2971   0.264   1.729   2.833  0.1625  0.3797  0.8462
  991SOL    HW1 2972   0.220   1.650   2.784  2.8111 -0.5036 -0.5852
  991SOL    HW2 2973   0.366   1.729   2.825  0.5913  1.7861  0.7928
  992SOL     OW 2974   2.666   1.875   2.059  0.1631 -0.2128  0.0122
  992SOL    HW1 2975   2.650   1.925   1.975  0.2417  0.7498  3.4188
  992SOL    HW2 2976   2.587   1.824   2.092 -1.8117 -0.4146  0.6544
  993SOL     OW 2977   0.224   0.124   0.434 -0.3254  0.7814 -0.5031
  993SOL    HW1 2978   0.276   0.043   0.478  0.6605 -1.8273 -0.7923
  993SOL    HW2 2979   0.126   0.136   0.462 -1.6368  0.4248  1.1012
  994SOL     OW 2980   0.187   1.882   1.519  0.5289  0.0374  0.3594
  994SOL    HW1 2981   0.231   1.815   1.581  0.6639  0.9474  1.0610
  994SOL    HW2 2982   0.236   1.973   1.536  0.7124 -2.1595  0.9962
  995SOL     OW 2983   2.085   1.617   2.858  0.4080 -0.2596  0.0213
  995SOL    HW1 2984   2.146   1.681   2.816 -5.4672 -1.5927 -0.4292
  995SOL    HW2 2985   1.990   1.652   2.838 -1.6323  1.6987  1.7527
  996SOL     OW 2986   1.731   1.463   0.095  0.0102 -0.5318 -0.0189
  996SOL    HW1 2987   1.678   1.382   0.128 -0.7883 -0.1813 -0.0516
  996SOL    HW2 2988   1.663   1.542   0.088 -1.6447  0.8681  0.4782
  997SOL     OW 2989   1.451   1.403   1.647 -0.0314  0.1267 -0.1150
  997SOL    HW1 2990   1.508   1.355   1.576 -0.0610  2.3525  0.0988
  997SOL    HW2 2991   1.379   1.344   1.686 -2.5369 -1.7476  0.7486
  998SOL     OW 2992   2.634   2.151   1.162  0.3833  0.2890 -0.3896
  998SOL    HW1 2993   2.645   2.240   1.213 -0.2506 -3.0405  0.2474
  998SOL    HW2 2994   2.668   2.153   1.066 -1.2274 -0.7433  2.8327
  999SOL     OW 2995   2.117   2.479   0.458 -0.0518 -0.0388  0.0613
  999SOL    HW1 2996   2.191   2.481   0.386 -0.3153  0.2382 -0.8987
  999SOL    HW2 2997   2.152   2.468   0.555  1.4602  4.1497  2.1128
 1000SOL     OW 2998   0.801   2.942   0.123  0.1017 -0.1726 -0.2504
 1000SOL    HW1 2999   0.867   2.889   0.069 -0.3352 -1.2471 -2.2997
 1000SOL    HW2 3000   0.801   3.034   0.081  1.1252  0.6992  0.1646
   3.08305   3.08305   3.08305
