1000 SPC/Fw water molecules t= 285.00000 step= 285000
 3000
    1SOL     OW    1   2.591   2.787   0.669  0.5901  0.2078 -0.4105
    1SOL    HW1    2   2.659   2.715   0.648  1.3908  1.3550  0.5163
    1SOL    HW2    3   2.644   2.873   0.674  1.1849 -0.7577 -0.7884
    2SOL     OW    4   2.486   1.843   0.825  0.2127 -0.0396 -0.2713
    2SOL    HW1    5   2.587   1.816   0.820  0.9130  0.7346 -0.9956
    2SOL    HW2    6   2.435   1.771   0.879 -1.7498 -3.4609  2.4435
    3SOL     OW    7   1.060   2.621   2.764 -0.2723  0.2589  0.7789
    3SOL    HW1    8   0.961   2.628   2.781  0.6848  1.8720  0.8022
    3SOL    HW2    9   1.087   2.534   2.722  1.0089 -1.8461  1.5490
    4SOL     OW   10   2.015   2.200   1.257 -0.0469  0.3419 -0.1308
    4SOL    HW1   11   2.082   2.262   1.301 -2.3943  0.1739  1.7866
    4SOL    HW2   12   2.057   2.114   1.226  0.4303  1.5197 -1.0027
    5SOL     OW   13   1.348   0.974   1.339 -0.1338  0.9066  0.1527
    5SOL    HW1   14   1.339   1.051   1.268 -0.4894  0.1614  1.0160
    5SOL    HW2   15   1.399   0.892   1.301  1.7479  2.9297 -2.2668
    6SOL     OW   16   2.213   2.953   0.142  0.6270  0.0436  0.1083
    6SOL    HW1   17   2.146   2.899   0.099  1.3181  4.2753  1.3736
    6SOL    HW2   18   2.194   2.963   0.240 -0.4461 -1.4199 -0.3462
    7SOL     OW   19   2.685   1.256   1.325 -0.8488  0.1938  0.0707
    7SOL    HW1   20   2.784   1.272   1.340  0.9898  0.0439  0.6142
    7SOL    HW2   21   2.636   1.335   1.273 -1.3547  0.3905 -0.8466
    8SOL     OW   22   1.288   2.820   1.403 -0.1875  0.1403 -0.8910
    8SOL    HW1   23   1.205   2.870   1.399  2.4118  0.9257 -1.3614
    8SOL    HW2   24   1.291   2.760   1.321  0.0191  0.2493  3.5346
    9SOL     OW   25   1.601   2.957   1.999  0.1549 -0.4358  0.6648
    9SOL    HW1   26   1.612   3.049   1.948  0.2879 -0.1433 -2.1127
    9SOL    HW2   27   1.532   2.962   2.071  1.8715  0.5945 -0.6346
   10SOL     OW   28   0.751   2.184   0.753 -0.1155  0.3190 -0.3750
   10SOL    HW1   29   0.744   2.285   0.779  0.0285  0.8947  1.6178
   10SOL    HW2   30   0.843   2.147   0.779 -2.1106 -0.9630 -0.9624
   11SOL     OW   31   1.730   1.672   1.001  0.0129 -0.4172 -0.1759
   11SOL    HW1   32   1.752   1.595   0.939  2.2843 -0.9896 -0.0478
   11SOL    HW2   33   1.684   1.633   1.084 -0.1743 -0.9592 -3.1308
   12SOL     OW   34   2.646   2.690   1.988  0.5769 -0.4620 -0.1137
   12SOL    HW1   35   2.680   2.785   2.005 -1.1925 -1.5109  0.7350
   12SOL    HW2   36   2.727   2.633   1.967  1.5042 -0.0653  0.4196
   13SOL     OW   37   2.046   0.183   0.372 -0.6044 -0.0605 -0.4580
   13SOL    HW1   38   2.065   0.281   0.351 -0.4626 -0.9035  0.8515
   13SOL    HW2   39   2.099   0.154   0.450 -0.6716  2.0081 -4.4522
   14SOL     OW   40   1.831   2.353   0.679  0.2764 -0.6348 -0.0650
   14SOL    HW1   41   1.893   2.327   0.603  0.2751 -0.8704  0.5875
   14SOL    HW2   42   1.750   2.293   0.684  0.5898  0.9008  0.4325
   15SOL     OW   43   2.882   1.969   1.755  0.0316  0.1271  0.4282
   15SOL    HW1   44   2.789   1.969   1.798 -0.7632 -3.1209  1.5070
   15SOL    HW2   45   2.921   1.876   1.779  1.4735 -3.9313  1.1844
   16SOL     OW   46   2.019   2.311   0.480  0.0029 -0.3371  0.3080
   16SOL    HW1   47   2.079   2.387   0.454 -1.8887 -3.1230  0.8651
   16SOL    HW2   48   2.075   2.241   0.533 -2.1487  0.9080 -3.3747
   17SOL     OW   49   0.712   3.008   1.470  0.2290  0.3716  0.1280
   17SOL    HW1   50   0.653   2.967   1.539  1.4397 -0.7742 -0.3838
   17SOL    HW2   51   0.756   0.014   1.504  2.1061  0.9461  0.4661
   18SOL     OW   52   1.155   0.998   0.075 -0.0364 -0.4277 -0.4591
   18SOL    HW1   53   1.065   1.045   0.065 -2.3214 -2.7174  1.9774
   18SOL    HW2   54   1.187   0.974   3.060 -0.0432  0.8273  0.1980
   19SOL     OW   55   1.758   1.977   0.296  0.0521  0.0414 -0.1203
   19SOL    HW1   56   1.853   1.945   0.302  2.6728  0.7284  4.0373
   19SOL    HW2   57   1.711   1.904   0.243 -0.3438 -2.0733 -1.1393
   20SOL     OW   58   2.579   1.826   1.993  0.0314 -0.5418 -0.2861
   20SOL    HW1   59   2.579   1.919   2.024 -2.4494  2.1332  1.2586
   20SOL    HW2   60   2.484   1.789   1.979 -1.8579 -0.9385  0.0278
   21SOL     OW   61   0.808   1.378   0.572 -0.1199  0.1390 -0.3690
   21SOL    HW1   62   0.777   1.290   0.612  2.3270  2.8327 -0.6384
   21SOL    HW2   63   0.734   1.413   0.510 -1.2311  2.9070 -0.6312
   22SOL     OW   64   2.165   2.747   1.502 -0.4138  0.6166  0.2946
   22SOL    HW1   65   2.068   2.732   1.480  0.2497 -0.3971  0.0158
   22SOL    HW2   66   2.181   2.849   1.518  0.6087  3.7161 -1.6435
   23SOL     OW   67   2.911   0.803   1.918 -0.2948 -0.4654 -0.1473
   23SOL    HW1   68   2.830   0.749   1.949  0.4273 -2.1697 -1.1668
   23SOL    HW2   69   2.984   0.805   1.989 -0.8037 -1.2937 -2.1009
   24SOL     OW   70   2.279   2.478   0.411  0.0636 -0.5668 -0.1110
   24SOL    HW1   71   2.356   2.489   0.471 -2.7805 -0.8076 -1.2882
   24SOL    HW2   72   2.300   2.440   0.318 -0.5415  0.6424 -0.2823
   25SOL     OW   73   1.276   3.051   2.387 -0.4382 -0.1029 -0.0183
   25SOL    HW1   74   1.357   3.002   2.346 -0.3703 -0.7965 -1.8919
   25SOL    HW2   75   1.314   0.059   2.430  1.5908  0.1051  2.8015
   26SOL     OW   76   1.340   2.380   0.061 -0.1570 -0.1103 -0.1204
   26SOL    HW1   77   1.405   2.458   0.093  0.1520  1.3086  1.5571
   26SOL    HW2   78   1.376   2.338   3.053  2.9159 -0.1785 -0.3244
   27SOL     OW   79   2.277   1.650   0.160 -0.4003  0.4314 -0.3271
   27SOL    HW1   80   2.212   1.650   0.082  1.8352  1.0082  2.7552
   27SOL    HW2   81   2.352   1.714   0.140 -1.1100 -2.4320  0.8684
   28SOL     OW   82   0.072   1.174   1.773 -0.0613 -0.0293 -0.3528
   28SOL    HW1   83   3.066   1.114   1.764  1.4120  1.7773 -0.4030
   28SOL    HW2   84   0.119   1.171   1.682  0.4976  0.3604  0.7551
   29SOL     OW   85   2.240   2.347   1.300 -0.0713  0.5036  0.8210
   29SOL    HW1   86   2.274   2.445   1.281  2.9422  0.2099 -0.4771
   29SOL    HW2   87   2.296   2.299   1.372  0.2232  2.4245  2.1537
   30SOL     OW   88   1.805   0.672   0.620  0.5601  0.5145 -0.0296
   30SOL    HW1   89   1.833   0.575   0.587  0.2590 -3.7570 -1.0399
   30SOL    HW2   90   1.787   0.667   0.720 -0.8594 -1.0214  1.9499
   31SOL     OW   91   2.280   2.599   1.711  0.3092  0.0137  0.4489
   31SOL    HW1   92   2.255   2.650   1.623 -1.4304 -0.6278 -2.2596
   31SOL    HW2   93   2.195   2.540   1.726  0.2852  0.0522  0.5260
   32SOL     OW   94   0.960   1.843   1.222  0.7074  0.3114  0.1231
   32SOL    HW1   95   0.868   1.809   1.188  2.1796  0.8484  1.0617
   32SOL    HW2   96   1.004   1.905   1.154  0.0302 -3.0720  0.9389
   33SOL     OW   97   0.401   2.986   2.578  1.2031  0.4240 -0.1151
   33SOL    HW1   98   0.445   3.059   2.640 -0.4011 -0.5192  2.8756
   33SOL    HW2   99   0.410   3.005   2.483  2.4167 -1.5741 -1.4227
   34SOL     OW  100   1.447   2.737   0.615 -0.4703 -0.1138  0.3257
   34SOL    HW1  101   1.518   2.811   0.616  3.4116  0.7290  1.1849
   34SOL    HW2  102   1.438   2.707   0.711  3.0043  1.2773  0.8733
   35SOL     OW  103   2.043   2.738   1.199 -0.1504  0.0698  0.1302
   35SOL    HW1  104   2.116   2.732   1.126  0.2169 -0.4131  1.2384
   35SOL    HW2  105   2.040   2.645   1.257  2.4053 -0.9112  1.6212
   36SOL     OW  106   1.984   2.447   2.272 -0.6495 -0.3036  0.2361
   36SOL    HW1  107   1.966   2.355   2.307 -0.1555  0.6268  0.5974
   36SOL    HW2  108   2.061   2.492   2.324  3.5947 -0.2571 -0.0963
   37SOL     OW  109   0.891   0.055   2.163  0.3002  0.0542  0.8319
   37SOL    HW1  110   0.863   0.144   2.125 -3.4572 -1.0794  1.6092
   37SOL    HW2  111   0.990   0.044   2.140  0.6894  0.6619 -0.7655
   38SOL     OW  112   0.135   2.758   2.590 -0.1098 -0.1769 -0.4343
   38SOL    HW1  113   0.123   2.848   2.543  1.2018 -1.6942  0.6554
   38SOL    HW2  114   0.197   2.701   2.538 -0.9832  1.3770  2.6334
   39SOL     OW  115   2.261   0.797   1.611 -0.6666  0.1946 -0.4264
   39SOL    HW1  116   2.330   0.874   1.616  1.6788  0.6338  0.1377
   39SOL    HW2  117   2.206   0.806   1.522  0.6209 -2.1561 -2.9750
   40SOL     OW  118   1.269   2.824   0.161 -0.0076 -0.0271 -0.6285
   40SOL    HW1  119   1.176   2.827   0.127  1.1735 -0.6399 -1.3665
   40SOL    HW2  120   1.315   2.911   0.138  0.1897 -0.3039  0.8632
   41SOL     OW  121   2.085   1.224   1.068 -0.3228 -0.1725  0.1933
   41SOL    HW1  122   2.078   1.144   1.130 -0.4474 -0.4329 -0.2298
   41SOL    HW2  123   2.079   1.187   0.975 -0.9253 -0.4191  2.9123
   42SOL     OW  124   0.521   0.278   0.947 -0.3763 -0.3812 -0.1201
   42SOL    HW1  125   0.594   0.222   0.905  1.5519  0.6529 -1.7124
   42SOL    HW2  126   0.452   0.299   0.872 -0.0028 -0.4818 -0.4269
   43SOL     OW  127   2.630   1.283   2.846 -0.2115 -0.0250  0.1183
   43SOL    HW1  128   2.622   1.248   2.945  1.0141  0.7837  1.2131
   43SOL    HW2  129   2.542   1.256   2.802  1.7698 -2.0362  1.0864
   44SOL     OW  130   2.648   0.130   1.558  0.1631  0.6398 -0.4600
   44SOL    HW1  131   2.735   0.091   1.516  2.3397 -0.4478 -1.0039
   44SOL    HW2  132   2.647   0.123   1.659 -0.1728 -0.4992  1.8911
   45SOL     OW  133   0.537   2.931   1.679  0.1827  0.2786 -0.5004
   45SOL    HW1  134   0.595   2.982   1.744  0.1835 -1.1143 -0.8992
   45SOL    HW2  135   0.442   2.927   1.720 -0.1569  0.1602 -1.8118
   46SOL     OW  136   1.673   2.874   2.430  0.0045  0.3336 -0.6096
   46SOL    HW1  137   1.692   2.929   2.513 -0.3038 -0.0036 -2.2252
   46SOL    HW2  138   1.763   2.858   2.384  0.9448 -0.8099 -1.1261
   47SOL     OW  139   1.675   1.881   0.826 -0.6686 -0.3067 -0.8277
   47SOL    HW1  140   1.656   1.964   0.880 -0.4355 -1.1649  1.2905
   47SOL    HW2  141   1.732   1.825   0.893  3.8144 -0.0642 -0.9443
   48SOL     OW  142   0.866   2.176   0.401 -0.5798  0.3494 -0.0268
   48SOL    HW1  143   0.844   2.253   0.342 -1.8433  1.3905 -0.0223
   48SOL    HW2  144   0.779   2.146   0.444  2.0800  1.4335 -1.0110
   49SOL     OW  145   2.029   0.074   2.310 -0.1495  0.4067 -0.0009
   49SOL    HW1  146   2.125   0.035   2.319  0.8107  0.1866 -1.6020
   49SOL    HW2  147   1.983   0.076   2.404 -3.2046 -0.2106  1.3102
   50SOL     OW  148   1.986   0.478   0.364 -0.4051 -0.4304 -0.0447
   50SOL    HW1  149   1.900   0.492   0.414 -0.5103  0.5622  0.2554
   50SOL    HW2  150   1.963   0.453   0.265 -0.1690  0.5340  0.8899
   51SOL     OW  151   1.879   1.026   0.677  0.4088 -0.3047  0.7256
   51SOL    HW1  152   1.960   1.076   0.709  1.5086 -3.3630  2.1215
   51SOL    HW2  153   1.855   0.945   0.729  2.8333  1.7058 -1.1831
   52SOL     OW  154   1.407   1.314   1.512  0.3282 -0.6648 -0.3015
   52SOL    HW1  155   1.440   1.274   1.602 -0.8253 -1.7866  4.0169
   52SOL    HW2  156   1.389   1.242   1.440  0.5369  0.5214 -0.7591
   53SOL     OW  157   0.815   1.600   2.264  0.0130 -0.2823  0.3871
   53SOL    HW1  158   0.745   1.602   2.185 -1.7444  0.5040  1.8959
   53SOL    HW2  159   0.845   1.697   2.286  0.9849  1.5009  2.0050
   54SOL     OW  160   2.434   0.107   1.388  0.2751 -0.2358  0.0004
   54SOL    HW1  161   2.513   0.118   1.453  0.0696  1.3395  2.7702
   54SOL    HW2  162   2.401   0.195   1.347 -0.4521  0.4071 -0.5583
   55SOL     OW  163   2.714   1.735   0.759 -1.0461 -0.0790 -0.0398
   55SOL    HW1  164   2.815   1.741   0.757  0.7649  1.3969 -0.9240
   55SOL    HW2  165   2.687   1.661   0.689  1.3967 -2.0905 -2.3452
   56SOL     OW  166   1.089   0.230   1.951 -0.3082  0.4737 -0.3799
   56SOL    HW1  167   1.147   0.155   1.993  1.8165 -0.5386  0.9587
   56SOL    HW2  168   1.122   0.238   1.854 -0.7031 -1.6753 -1.6245
   57SOL     OW  169   1.393   1.517   0.031  0.4964  0.6662  0.2978
   57SOL    HW1  170   1.429   1.447   0.094 -3.8448  1.0506 -0.0540
   57SOL    HW2  171   1.473   1.562   3.062  1.4891  1.4184  1.0495
   58SOL     OW  172   0.212   1.195   2.003 -0.1094  0.4274  0.3575
   58SOL    HW1  173   0.140   1.184   1.935 -4.0563  1.0783  0.9167
   58SOL    HW2  174   0.248   1.289   2.000  0.9435  0.1026  1.3571
   59SOL     OW  175   1.499   0.023   0.022  0.2173 -0.8581  0.1804
   59SOL    HW1  176   1.494   3.025   3.032 -0.2998  1.9309  1.3849
   59SOL    HW2  177   1.402   0.054   0.036  2.8786 -3.9530  1.9380
   60SOL     OW  178   2.916   2.076   0.372 -0.2133 -0.3722 -0.6698
   60SOL    HW1  179   2.852   2.013   0.327  1.5386  1.7377 -0.2377
   60SOL    HW2  180   2.869   2.161   0.411  1.6379 -0.0597  0.1811
   61SOL     OW  181   1.178   2.528   0.243 -0.1003 -0.9645  0.1729
   61SOL    HW1  182   1.228   2.552   0.327  2.5213 -0.8768 -0.8306
   61SOL    HW2  183   1.230   2.465   0.183  0.8996  1.5180 -0.5636
   62SOL     OW  184   2.163   2.082   2.565  0.1978 -0.6354 -0.0360
   62SOL    HW1  185   2.113   1.994   2.542 -1.1427 -1.6463  1.2364
   62SOL    HW2  186   2.165   2.151   2.492  0.3629  1.2424 -0.3564
   63SOL     OW  187   2.164   2.112   0.581  0.3502 -0.1861 -0.1122
   63SOL    HW1  188   2.218   2.101   0.671  2.4105  4.5324  2.4133
   63SOL    HW2  189   2.076   2.056   0.586  0.7392  0.1203 -1.2141
   64SOL     OW  190   1.945   1.137   2.772  0.5130  0.0225 -0.3126
   64SOL    HW1  191   1.887   1.206   2.819  2.3621 -0.2076 -0.7894
   64SOL    HW2  192   1.895   1.050   2.773  1.0263  0.4247 -1.0073
   65SOL     OW  193   1.447   1.923   2.724 -0.2528 -0.4467  0.0439
   65SOL    HW1  194   1.492   1.932   2.815  1.6726  1.1790 -2.3569
   65SOL    HW2  195   1.404   1.831   2.711  0.0051 -0.8311 -0.2363
   66SOL     OW  196   0.128   1.110   2.234  0.1909  0.0568  0.3909
   66SOL    HW1  197   0.197   1.123   2.307  0.6836  1.1200 -0.2000
   66SOL    HW2  198   0.153   1.162   2.150 -0.5133  2.1638 -1.6924
   67SOL     OW  199   2.577   2.735   0.073 -0.6319 -0.6072 -0.3013
   67SOL    HW1  200   2.483   2.759   0.071  3.5262 -0.3480  0.9471
   67SOL    HW2  201   2.640   2.820   0.074  0.2803  2.6675 -1.0617
   68SOL     OW  202   1.103   2.522   1.421 -0.0218  0.1797  1.2267
   68SOL    HW1  203   1.135   2.467   1.497 -2.3209 -0.2252 -1.4208
   68SOL    HW2  204   1.173   2.558   1.360  0.4945 -2.7206 -0.0383
   69SOL     OW  205   0.882   2.504   0.505  0.3947 -0.2654 -0.2282
   69SOL    HW1  206   0.957   2.486   0.567 -0.9657 -2.2395 -1.0377
   69SOL    HW2  207   0.820   2.569   0.551  0.1376 -1.0979 -0.4502
   70SOL     OW  208   2.528   0.334   2.540 -0.3703 -0.5438  0.0495
   70SOL    HW1  209   2.466   0.277   2.598  0.5293  0.4427  0.3693
   70SOL    HW2  210   2.515   0.427   2.585 -3.1649 -0.2325 -0.5045
   71SOL     OW  211   0.596   1.352   2.454 -0.0734 -0.1516  0.0557
   71SOL    HW1  212   0.644   1.435   2.485 -0.3672 -0.9934 -0.1061
   71SOL    HW2  213   0.541   1.314   2.530 -0.6214  1.2644 -1.9740
   72SOL     OW  214   0.061   2.157   0.236 -0.2460 -0.0781  0.1629
   72SOL    HW1  215   0.040   2.240   0.177 -1.1285  0.0667 -1.3941
   72SOL    HW2  216   3.051   2.120   0.276 -3.4320 -0.5002  1.6044
   73SOL     OW  217   1.026   1.397   0.383  0.1012  0.3197 -0.4140
   73SOL    HW1  218   1.008   1.357   0.292 -2.1786  1.9310 -0.8051
   73SOL    HW2  219   0.945   1.378   0.442 -0.0828  1.2030 -1.3216
   74SOL     OW  220   2.159   2.866   2.929  0.5354 -0.4057 -0.7051
   74SOL    HW1  221   2.119   2.924   2.856 -0.9084  0.6293  1.9728
   74SOL    HW2  222   2.202   2.780   2.893  1.3720  1.2398 -1.3093
   75SOL     OW  223   2.336   1.677   0.992 -0.8020 -0.9109 -0.0339
   75SOL    HW1  224   2.354   1.698   1.091 -0.3660 -0.3808  1.0296
   75SOL    HW2  225   2.303   1.580   0.991 -0.2292 -0.3784 -0.9752
   76SOL     OW  226   2.004   2.515   1.335 -0.3190  0.3737  0.2979
   76SOL    HW1  227   2.046   2.436   1.383 -1.9890 -1.2254  0.5882
   76SOL    HW2  228   1.949   2.562   1.406  0.6537  1.8469  1.1714
   77SOL     OW  229   2.361   0.177   1.848  0.3352 -0.2604  0.1417
   77SOL    HW1  230   2.273   0.209   1.887 -1.7463 -1.0910 -0.0893
   77SOL    HW2  231   2.371   0.075   1.874  0.8178 -0.4150  0.0821
   78SOL     OW  232   1.536   0.723   3.042  0.0758  0.1481 -0.2446
   78SOL    HW1  233   1.503   0.673   0.048 -2.2395 -2.0779 -0.4642
   78SOL    HW2  234   1.516   0.673   2.956 -0.3500  2.3035 -2.8586
   79SOL     OW  235   2.603   1.459   2.071  0.1987  0.3756  0.0662
   79SOL    HW1  236   2.701   1.490   2.055  2.0971  1.5899 -1.1889
   79SOL    HW2  237   2.601   1.388   2.148  1.3333  1.2870 -0.3091
   80SOL     OW  238   2.153   1.558   1.658  0.3072 -0.6910 -0.1330
   80SOL    HW1  239   2.146   1.489   1.587 -0.4538  1.4983  0.0223
   80SOL    HW2  240   2.067   1.617   1.657  0.1106  2.5799  1.3957
   81SOL     OW  241   1.168   0.695   1.313  0.1411 -0.3233 -0.2892
   81SOL    HW1  242   1.198   0.634   1.393  0.0185 -2.3854  3.4896
   81SOL    HW2  243   1.171   0.798   1.330 -0.4140  3.6400  0.4909
   82SOL     OW  244   1.357   2.680   1.620 -0.1815  0.3151  0.4402
   82SOL    HW1  245   1.460   2.666   1.633  1.6275  0.1017 -0.1131
   82SOL    HW2  246   1.347   2.726   1.530  2.6026  0.5122  1.7778
   83SOL     OW  247   0.210   0.036   0.543  0.0833  0.3528  0.1252
   83SOL    HW1  248   0.262   3.031   0.576  0.2838 -2.1964  2.3909
   83SOL    HW2  249   0.166   0.082   0.621  0.3105 -1.0833 -1.1181
   84SOL     OW  250   0.354   1.242   2.973  0.5227  0.3242  0.4563
   84SOL    HW1  251   0.267   1.234   2.914  0.3771 -1.1525  1.4842
   84SOL    HW2  252   0.328   1.249   3.073 -0.9720  3.5128  2.2325
   85SOL     OW  253   2.589   2.113   1.601 -0.5613  0.6158 -0.1744
   85SOL    HW1  254   2.589   2.021   1.561  0.1508  3.1553 -1.3067
   85SOL    HW2  255   2.587   2.102   1.704  1.2130  1.3401 -0.7438
   86SOL     OW  256   2.958   2.620   1.624 -0.1080  0.0369  0.2306
   86SOL    HW1  257   2.971   2.574   1.713  1.4297  1.0757  0.4730
   86SOL    HW2  258   3.023   2.694   1.610  0.0627  2.0596 -1.7860
   87SOL     OW  259   0.679   0.297   2.544  0.5909 -0.2341  0.3180
   87SOL    HW1  260   0.774   0.288   2.499  1.1241  0.1349  0.0747
   87SOL    HW2  261   0.643   0.207   2.568 -1.7791  0.6686 -0.4793
   88SOL     OW  262   0.621   2.288   1.217 -0.6836 -0.2854 -0.6344
   88SOL    HW1  263   0.677   2.235   1.150 -0.2882  2.3023  0.0760
   88SOL    HW2  264   0.554   2.227   1.255 -0.4153  0.6356 -1.7420
   89SOL     OW  265   0.853   0.877   1.555 -0.1513  0.1611 -0.1541
   89SOL    HW1  266   0.872   0.789   1.505  1.3191 -2.9109  0.9523
   89SOL    HW2  267   0.803   0.853   1.641 -1.0405 -0.0645  0.9287
   90SOL     OW  268   2.942   1.561   1.466 -0.3712 -0.2217  0.8212
   90SOL    HW1  269   2.879   1.595   1.396  3.1053  0.8075  2.1378
   90SOL    HW2  270   3.029   1.613   1.472 -2.7850 -0.7016 -0.1915
   91SOL     OW  271   1.232   1.164   0.754  0.0111  0.0709 -0.3034
   91SOL    HW1  272   1.144   1.211   0.770 -0.0691 -0.4964  1.2445
   91SOL    HW2  273   1.221   1.071   0.797 -0.3417 -0.5096 -2.5530
   92SOL     OW  274   2.543   0.524   0.969  0.0019  0.0043 -0.2289
   92SOL    HW1  275   2.507   0.619   0.997 -0.6016  0.8585  2.7557
   92SOL    HW2  276   2.520   0.509   0.868 -1.8877  1.2392 -2.9122
   93SOL     OW  277   1.798   0.916   2.867  0.6345 -0.0027 -0.4636
   93SOL    HW1  278   1.732   0.947   2.941 -0.2835 -1.4533  0.7667
   93SOL    HW2  279   1.746   0.865   2.797 -0.2561  2.8257 -0.1052
   94SOL     OW  280   2.369   1.555   2.137 -0.4706  0.1013  0.0584
   94SOL    HW1  281   2.348   1.624   2.066  0.3800  1.7304  2.3307
   94SOL    HW2  282   2.463   1.517   2.132 -0.9214 -1.4781  1.6336
   95SOL     OW  283   1.984   0.610   1.184 -0.0417 -0.3034 -0.1398
   95SOL    HW1  284   1.896   0.654   1.207  1.3750  0.8371 -2.8666
   95SOL    HW2  285   1.969   0.545   1.112  3.1504  0.8740 -0.4334
   96SOL     OW  286   2.419   3.077   2.157  0.1302 -0.1199 -0.5489
   96SOL    HW1  287   2.447   3.075   2.061 -0.7404 -1.3642 -0.1484
   96SOL    HW2  288   2.503   0.024   2.213  1.2385  0.2313  2.0015
   97SOL     OW  289   2.379   0.348   1.333  0.2081  0.1725 -0.3022
   97SOL    HW1  290   2.454   0.414   1.327  0.2652  0.6239  0.4224
   97SOL    HW2  291   2.294   0.396   1.368 -1.6133 -0.8133  0.4930
   98SOL     OW  292   1.590   2.515   1.620 -0.3894  0.4872  0.2067
   98SOL    HW1  293   1.582   2.486   1.718  1.0687 -0.6038 -0.7816
   98SOL    HW2  294   1.582   2.429   1.560 -1.6373  0.0871 -0.6284
   99SOL     OW  295   2.383   2.271   1.525  0.5266  0.7502  0.0453
   99SOL    HW1  296   2.424   2.350   1.574  2.0582  0.8564  1.7736
   99SOL    HW2  297   2.441   2.187   1.539  0.6975 -0.8179  1.0040
  100SOL     OW  298   0.547   0.892   2.797 -0.3752  0.0362 -0.4057
  100SOL    HW1  299   0.447   0.901   2.792  1.0760  0.4517  0.3071
  100SOL    HW2  300   0.582   0.956   2.869 -0.4693  1.6547  0.5874
  101SOL     OW  301   1.985   0.355   2.806 -0.3063 -0.2032 -0.2702
  101SOL    HW1  302   1.970   0.295   2.886  2.6397  3.7384 -1.1883
  101SOL    HW2  303   2.028   0.442   2.838  2.3645  1.0562 -0.3802
  102SOL     OW  304   0.281   0.774   1.802  0.7593  0.1870  0.2766
  102SOL    HW1  305   0.188   0.791   1.760 -0.8287 -1.4044  1.7090
  102SOL    HW2  306   0.313   0.681   1.775  0.1062  1.6257  2.8738
  103SOL     OW  307   2.732   0.608   2.757  0.5270  0.1713  0.6739
  103SOL    HW1  308   2.789   0.678   2.705  2.2462  1.0273  0.9407
  103SOL    HW2  309   2.789   0.558   2.824 -0.3615  0.7647 -3.8897
  104SOL     OW  310   0.685   0.568   2.670 -0.3703 -0.0435 -0.3612
  104SOL    HW1  311   0.645   0.647   2.616  1.1158  2.6282 -0.2931
  104SOL    HW2  312   0.692   0.477   2.622  0.1203 -0.0200 -2.7913
  105SOL     OW  313   2.259   1.816   1.698  0.1780 -0.0643  0.3301
  105SOL    HW1  314   2.231   1.720   1.673  1.5327 -1.1128 -2.4584
  105SOL    HW2  315   2.212   1.892   1.644 -1.5041  1.8063  1.7021
  106SOL     OW  316   2.120   0.834   0.622  0.3802  0.4411  0.3757
  106SOL    HW1  317   2.090   0.793   0.538  1.6809  1.9314  2.4402
  106SOL    HW2  318   2.048   0.892   0.666  0.9212  0.1035 -1.5565
  107SOL     OW  319   0.232   1.828   0.700 -0.5728 -0.0453 -0.5645
  107SOL    HW1  320   0.221   1.836   0.799 -1.7343 -1.1115 -0.0388
  107SOL    HW2  321   0.314   1.871   0.663 -1.3686 -0.9467 -2.7112
  108SOL     OW  322   2.737   2.718   1.520  0.6578 -0.1127 -0.4341
  108SOL    HW1  323   2.815   2.693   1.579  2.2114  1.0029 -4.1295
  108SOL    HW2  324   2.759   2.680   1.426  0.4315  0.2383 -2.5295
  109SOL     OW  325   1.808   0.065   0.824 -0.4071  0.7137 -0.5139
  109SOL    HW1  326   1.851   0.009   0.750 -0.8381 -0.8331  0.6218
  109SOL    HW2  327   1.792   0.160   0.794 -2.2212 -1.8076 -2.5934
  110SOL     OW  328   0.594   2.045   2.713 -0.4810 -0.1480 -0.1892
  110SOL    HW1  329   0.593   1.945   2.687 -1.0674 -1.0613 -3.2821
  110SOL    HW2  330   0.678   2.068   2.767 -2.2577  1.4792 -0.8881
  111SOL     OW  331   1.481   2.644   1.925 -0.3835 -0.3916 -0.0542
  111SOL    HW1  332   1.487   2.546   1.909  0.8901  1.0070  0.1180
  111SOL    HW2  333   1.519   2.703   1.850 -0.6140  1.6076  0.7480
  112SOL     OW  334   1.937   2.289   2.891 -0.0837  0.1408  0.3087
  112SOL    HW1  335   1.967   2.388   2.899  1.0660  0.2051  1.0008
  112SOL    HW2  336   1.840   2.286   2.869  2.4059  1.4192  1.6819
  113SOL     OW  337   1.593   2.308   1.412  0.4814  0.4885 -0.9591
  113SOL    HW1  338   1.626   2.361   1.333 -0.6220  0.6029 -0.8697
  113SOL    HW2  339   1.651   2.221   1.429 -1.4761 -2.9952 -1.1934
  114SOL     OW  340   2.858   0.925   0.825 -0.1341  0.2051  0.5211
  114SOL    HW1  341   2.816   0.925   0.915  0.9707  0.0862 -1.7296
  114SOL    HW2  342   2.821   0.860   0.755 -2.6188  0.1571  0.0813
  115SOL     OW  343   0.585   1.091   2.979 -0.3198  0.2543  0.1516
  115SOL    HW1  344   0.521   1.169   2.959 -2.0378  2.2630  1.0624
  115SOL    HW2  345   0.566   1.036   3.065 -3.0861 -2.7261  1.9414
  116SOL     OW  346   2.529   1.306   2.292  0.4453  0.0608  0.1516
  116SOL    HW1  347   2.573   1.305   2.388  1.4015 -0.5195  3.1694
  116SOL    HW2  348   2.452   1.242   2.285 -0.2112  0.4039 -0.7525
  117SOL     OW  349   0.415   2.715   0.749 -0.0689  0.0975 -0.1491
  117SOL    HW1  350   0.412   2.749   0.847 -0.9907  0.0344 -0.1339
  117SOL    HW2  351   0.365   2.627   0.737  0.6244  2.8960  1.6356
  118SOL     OW  352   0.862   1.861   2.332  0.3983  0.0650 -0.2675
  118SOL    HW1  353   0.929   1.889   2.397 -2.9807 -0.3659 -1.4610
  118SOL    HW2  354   0.796   1.936   2.321  1.5189  0.8394  1.0553
  119SOL     OW  355   0.127   2.305   2.793  0.3413  0.3234  0.0057
  119SOL    HW1  356   0.043   2.257   2.823 -0.7122  0.0736  0.1548
  119SOL    HW2  357   0.211   2.295   2.852 -1.2988  1.8817  1.5288
  120SOL     OW  358   0.993   0.777   2.973  0.2964 -0.2593  0.0378
  120SOL    HW1  359   1.056   0.850   2.943 -0.4942 -0.0394  0.6821
  120SOL    HW2  360   0.977   0.765   3.074 -1.8000 -2.6633  0.2486
  121SOL     OW  361   1.138   2.960   1.052  0.2929  0.7467 -0.1743
  121SOL    HW1  362   1.117   2.894   0.977  0.5044 -0.3499 -2.6442
  121SOL    HW2  363   1.237   2.968   1.073 -1.7846 -0.1801  2.7543
  122SOL     OW  364   2.538   2.487   1.671  0.0092  0.4058 -0.1810
  122SOL    HW1  365   2.449   2.535   1.656  1.3444 -2.8792  0.6772
  122SOL    HW2  366   2.611   2.552   1.695 -0.2283 -1.2977 -0.8407
  123SOL     OW  367   0.738   2.439   0.821 -0.3687  0.5742  0.7897
  123SOL    HW1  368   0.723   2.519   0.759 -0.2509  0.0240  0.1631
  123SOL    HW2  369   0.654   2.429   0.880  0.1540  0.3892 -0.9862
  124SOL     OW  370   2.067   0.681   0.125 -0.6359  0.0065 -0.0132
  124SOL    HW1  371   1.987   0.671   0.064  2.4351  0.8988  1.2314
  124SOL    HW2  372   2.154   0.700   0.070 -0.1725  0.4063 -3.1234
  125SOL     OW  373   0.451   0.942   0.378 -0.3085 -0.6144  0.3394
  125SOL    HW1  374   0.427   0.875   0.450 -0.4134  0.6495 -1.7935
  125SOL    HW2  375   0.547   0.963   0.385 -3.2652 -0.1685 -1.3361
  126SOL     OW  376   3.076   1.387   0.491  0.0818  0.1300 -0.4357
  126SOL    HW1  377   0.054   1.474   0.487  0.4798  2.0831 -0.8639
  126SOL    HW2  378   0.006   1.341   0.581 -2.0083  1.1700  0.1317
  127SOL     OW  379   0.604   1.856   2.152  0.6105 -0.1456  0.3621
  127SOL    HW1  380   0.638   1.772   2.102  3.7315 -1.1523  0.0732
  127SOL    HW2  381   0.581   1.932   2.080 -3.1269  1.6080 -2.9115
  128SOL     OW  382   0.902   1.096   3.008  0.0258 -0.1560 -0.5525
  128SOL    HW1  383   0.909   1.097   2.904 -1.7920 -1.0848 -1.3669
  128SOL    HW2  384   0.807   1.073   3.027  0.1261  0.1057 -1.3841
  129SOL     OW  385   2.755   1.404   0.763 -0.3756  0.0511 -0.0187
  129SOL    HW1  386   2.819   1.332   0.725  1.0536 -2.0039  1.8753
  129SOL    HW2  387   2.691   1.443   0.691  0.0573  2.1482 -2.0015
  130SOL     OW  388   2.497   0.998   1.614 -0.1512 -0.4150  0.0517
  130SOL    HW1  389   2.592   0.972   1.585  3.4236 -0.6103 -2.9457
  130SOL    HW2  390   2.492   1.095   1.634 -1.8198 -0.5724  2.5892
  131SOL     OW  391   0.108   2.959   2.945  0.2164  0.3649  0.1974
  131SOL    HW1  392   0.045   3.026   2.904 -0.9037 -3.1248  2.4565
  131SOL    HW2  393   0.122   2.984   3.044 -1.2764  1.3904  2.4582
  132SOL     OW  394   0.328   1.747   1.294  0.0410 -0.4304 -0.1573
  132SOL    HW1  395   0.433   1.745   1.305  2.8253 -2.4943 -0.6856
  132SOL    HW2  396   0.292   1.754   1.195  0.6279 -2.5679  0.2083
  133SOL     OW  397   0.813   0.335   1.310  0.2614 -0.7258  0.0395
  133SOL    HW1  398   0.891   0.386   1.353  0.8439  0.2168  0.3689
  133SOL    HW2  399   0.731   0.396   1.288  2.2168  3.5955 -3.5734
  134SOL     OW  400   0.106   1.948   0.050 -0.5279 -0.3931  0.8252
  134SOL    HW1  401   0.031   1.921   3.064  2.1461  2.0389 -0.1236
  134SOL    HW2  402   0.085   2.043   0.091 -1.3550  3.9201  0.6498
  135SOL     OW  403   1.841   0.679   1.508  0.0569  0.1155 -0.5309
  135SOL    HW1  404   1.762   0.740   1.523  2.1135  0.4017 -0.5095
  135SOL    HW2  405   1.816   0.601   1.454  0.4188  1.6452  2.5636
  136SOL     OW  406   0.132   1.231   0.323  0.1027 -0.0782  0.1509
  136SOL    HW1  407   0.080   1.286   0.394  0.6933  0.2289  2.2486
  136SOL    HW2  408   0.097   1.134   0.321  0.0905 -2.0968 -0.8316
  137SOL     OW  409   0.125   1.274   0.750  0.3743 -0.6150  0.1990
  137SOL    HW1  410   0.202   1.219   0.714  1.5382 -1.8091 -0.1528
  137SOL    HW2  411   0.159   1.340   0.820  0.4864 -2.6112 -2.2474
  138SOL     OW  412   1.731   0.888   0.871  0.1808 -0.0421 -0.2216
  138SOL    HW1  413   1.697   0.790   0.862 -0.7256 -2.7802  0.5960
  138SOL    HW2  414   1.738   0.923   0.970  1.6126 -0.4823  0.9168
  139SOL     OW  415   1.684   2.686   0.245  0.1792 -0.1475 -0.6512
  139SOL    HW1  416   1.692   2.784   0.239  0.4069 -4.3334 -2.2328
  139SOL    HW2  417   1.688   2.650   0.341 -0.7137 -1.7996 -0.7916
  140SOL     OW  418   1.564   1.464   1.681 -0.2023 -0.1142  0.4193
  140SOL    HW1  419   1.655   1.432   1.713  1.9405  0.1428 -0.3265
  140SOL    HW2  420   1.531   1.405   1.604 -0.9360 -2.4973  1.6037
  141SOL     OW  421   1.514   2.090   0.390 -0.2135  0.0682  0.5486
  141SOL    HW1  422   1.599   2.041   0.362  0.3026 -2.9637  0.3158
  141SOL    HW2  423   1.442   2.020   0.384  0.6849  5.6705  2.3962
  142SOL     OW  424   0.855   0.534   3.057 -0.5682  0.4612 -0.0711
  142SOL    HW1  425   0.951   0.528   0.017 -1.2466  0.6073 -0.8408
  142SOL    HW2  426   0.847   0.593   2.976  0.2804 -1.0373 -2.3557
  143SOL     OW  427   0.346   2.288   2.952 -0.0586 -0.0288 -0.0678
  143SOL    HW1  428   0.363   2.186   2.957 -1.0095 -0.9078 -1.1426
  143SOL    HW2  429   0.336   2.322   3.046  0.9264  3.8020  2.6025
  144SOL     OW  430   1.347   0.034   1.213  0.5012 -0.3240 -0.3405
  144SOL    HW1  431   1.380   0.127   1.179 -2.5632  0.4705 -2.0906
  144SOL    HW2  432   1.383   0.013   1.304 -0.8096  1.3677 -0.4752
  145SOL     OW  433   1.984   1.293   0.207 -0.2969 -0.6056 -0.2862
  145SOL    HW1  434   1.984   1.230   0.288  1.2924  3.4840 -0.4003
  145SOL    HW2  435   1.894   1.292   0.155 -1.3004  0.6318  0.3670
  146SOL     OW  436   0.026   2.333   0.709  0.5813  0.4746  0.0304
  146SOL    HW1  437   0.100   2.261   0.692 -0.0301  1.6698 -0.6652
  146SOL    HW2  438   3.016   2.284   0.706  2.1606  0.4496 -1.2300
  147SOL     OW  439   2.328   2.981   1.545  0.2813  0.1107  0.1303
  147SOL    HW1  440   2.418   2.953   1.583 -0.7675 -2.8835 -0.0473
  147SOL    HW2  441   2.344   3.037   1.459 -0.8854  1.9407 -0.4512
  148SOL     OW  442   1.314   0.029   1.864 -0.2908  0.1228 -0.1421
  148SOL    HW1  443   1.400   0.030   1.814 -1.4483  0.1493 -0.4380
  148SOL    HW2  444   1.262   3.026   1.845  1.1173 -0.7603 -1.8252
  149SOL     OW  445   1.841   0.518   2.285  0.8129  0.2127 -0.4325
  149SOL    HW1  446   1.934   0.512   2.332 -0.4164  0.8404  1.2770
  149SOL    HW2  447   1.830   0.487   2.190 -0.9532  0.9114  3.9559
  150SOL     OW  448   0.220   2.792   0.375 -0.8687  0.3453  0.6315
  150SOL    HW1  449   0.274   2.806   0.458 -1.5031  0.0825 -1.0785
  150SOL    HW2  450   0.227   2.871   0.312 -0.7778 -0.5997  0.8757
  151SOL     OW  451   0.294   2.310   0.151  0.6783 -0.2587  0.6501
  151SOL    HW1  452   0.266   2.400   0.193  0.3053  0.8255  0.0880
  151SOL    HW2  453   0.231   2.235   0.181  0.3491 -2.4406  3.4590
  152SOL     OW  454   2.727   3.000   0.678  0.4752 -0.1040  0.9094
  152SOL    HW1  455   2.824   3.019   0.693 -2.5716  0.1785 -0.1639
  152SOL    HW2  456   2.671   3.062   0.739  1.0812  1.1742 -2.0723
  153SOL     OW  457   2.446   0.099   0.903  0.6689  0.3406  0.5371
  153SOL    HW1  458   2.395   0.023   0.851 -1.2875  0.9105 -1.1162
  153SOL    HW2  459   2.487   0.161   0.831 -1.9511  0.0930 -2.2273
  154SOL     OW  460   0.694   0.546   1.929 -0.0199 -0.1017 -0.6224
  154SOL    HW1  461   0.703   0.513   2.023 -0.8849  1.8980  1.9172
  154SOL    HW2  462   0.766   0.616   1.912  1.3984 -1.9206 -1.0894
  155SOL     OW  463   0.044   1.312   1.132 -0.0560  0.0178  0.4684
  155SOL    HW1  464   0.035   1.381   1.060 -1.8841 -0.2571  2.4112
  155SOL    HW2  465   0.123   1.339   1.188 -1.3400 -2.7016  1.4397
  156SOL     OW  466   2.810   2.150   0.066  0.1077 -0.8704  0.5081
  156SOL    HW1  467   2.805   2.072   0.127  0.3884 -0.9336 -1.2292
  156SOL    HW2  468   2.718   2.175   0.030  0.0913  1.1555 -2.1913
  157SOL     OW  469   0.850   0.826   0.153 -0.6144 -0.3031  0.6830
  157SOL    HW1  470   0.833   0.754   0.222  1.8443 -2.3953  1.6867
  157SOL    HW2  471   0.903   0.907   0.189  2.8916  2.4497  1.2896
  158SOL     OW  472   2.463   3.051   2.577 -0.0336 -0.0510 -0.1655
  158SOL    HW1  473   2.564   3.037   2.562  1.7098 -0.1930  0.9225
  158SOL    HW2  474   2.426   3.013   2.663 -0.2951 -0.7311 -3.0737
  159SOL     OW  475   0.708   0.205   0.503 -0.2786 -0.2101 -0.0817
  159SOL    HW1  476   0.683   0.119   0.551  0.1474  1.4700 -1.0037
  159SOL    HW2  477   0.806   0.224   0.507 -0.3071  0.5367 -2.0756
  160SOL     OW  478   1.335   1.693   2.619 -0.1611 -0.1243 -0.0359
  160SOL    HW1  479   1.302   1.709   2.526  0.7830  0.1624  1.8812
  160SOL    HW2  480   1.311   1.604   2.654  0.1324  3.0975  0.8607
  161SOL     OW  481   2.966   1.050   2.655  0.0241 -0.5665  0.3330
  161SOL    HW1  482   2.883   1.052   2.590  1.3042 -1.9658 -1.7120
  161SOL    HW2  483   2.938   1.104   2.737  0.1682 -1.0265  1.0576
  162SOL     OW  484   0.669   2.414   1.457 -0.0433 -0.2295  0.6261
  162SOL    HW1  485   0.715   2.502   1.438  1.6268  0.7818  0.3369
  162SOL    HW2  486   0.669   2.363   1.371 -1.1743 -0.2536 -1.1276
  163SOL     OW  487   2.196   0.306   2.257 -0.6699 -0.2989  0.0100
  163SOL    HW1  488   2.140   0.386   2.269 -1.4691 -0.3177  3.3151
  163SOL    HW2  489   2.164   0.238   2.323  0.7868  2.7092 -0.5850
  164SOL     OW  490   2.421   1.252   0.357  0.2347  0.0476 -0.3968
  164SOL    HW1  491   2.514   1.289   0.381  2.1384 -0.0067  1.3377
  164SOL    HW2  492   2.347   1.319   0.342 -1.7918 -0.2814  0.2376
  165SOL     OW  493   0.060   0.221   1.635 -0.4574 -0.1019 -0.4486
  165SOL    HW1  494   0.007   0.201   1.721 -0.9879 -0.8014 -2.1566
  165SOL    HW2  495   0.140   0.156   1.626  1.2769  3.4045  1.4982
  166SOL     OW  496   1.960   1.125   0.432  0.0601 -0.2337  0.0500
  166SOL    HW1  497   1.889   1.081   0.485  0.9509 -0.6541  0.9028
  166SOL    HW2  498   2.033   1.061   0.399  1.1651  0.1408 -2.7288
  167SOL     OW  499   0.247   0.580   0.471  0.4309 -0.3368 -0.1408
  167SOL    HW1  500   0.193   0.607   0.385  1.2247  1.2681 -0.6838
  167SOL    HW2  501   0.313   0.653   0.501 -0.2470 -4.0595  2.1972
  168SOL     OW  502   1.790   2.583   2.170 -0.2298 -0.0857  0.2294
  168SOL    HW1  503   1.867   2.527   2.206  0.6602  0.7065 -0.7245
  168SOL    HW2  504   1.802   2.604   2.072 -0.9517  1.1945 -0.2831
  169SOL     OW  505   0.693   1.511   0.819  0.5078 -0.7900 -0.4178
  169SOL    HW1  506   0.706   1.475   0.725  1.4959 -0.4029  1.5898
  169SOL    HW2  507   0.721   1.438   0.889 -1.5131 -2.0409  2.6362
  170SOL     OW  508   0.043   0.627   1.446  0.6464  0.2253  0.2908
  170SOL    HW1  509   0.116   0.571   1.400 -0.8192 -1.4226 -0.3435
  170SOL    HW2  510   3.072   0.560   1.504 -0.5546  2.2244 -1.9912
  171SOL     OW  511   1.282   2.359   2.437  0.3270 -0.1320  0.2107
  171SOL    HW1  512   1.379   2.356   2.472  0.4100 -1.0920 -0.3178
  171SOL    HW2  513   1.262   2.431   2.368  0.6055 -2.4210 -0.8033
  172SOL     OW  514   0.092   2.856   1.322  0.7817  0.0041 -0.4978
  172SOL    HW1  515   0.170   2.803   1.287 -1.6078 -0.6800  0.7722
  172SOL    HW2  516   0.085   2.956   1.300  0.9241 -2.1058  1.2046
  173SOL     OW  517   1.615   0.806   2.692 -0.2400 -0.4621  0.3568
  173SOL    HW1  518   1.564   0.719   2.705  1.5495  2.2293 -1.1238
  173SOL    HW2  519   1.609   0.840   2.595 -0.2487  0.7538 -1.4547
  174SOL     OW  520   1.826   3.038   2.926  0.3054  0.1978 -0.1627
  174SOL    HW1  521   1.755   3.052   2.857  0.9457 -1.7882 -0.4040
  174SOL    HW2  522   1.799   2.964   2.998 -0.0774  0.5888  2.3549
  175SOL     OW  523   1.836   2.254   0.282 -0.2388 -0.1522  0.7704
  175SOL    HW1  524   1.788   2.168   0.272  3.4610  2.9923 -0.3137
  175SOL    HW2  525   1.891   2.262   0.367 -1.2283 -1.1956 -1.2154
  176SOL     OW  526   1.936   0.186   3.012  0.6183  0.7428 -0.2720
  176SOL    HW1  527   2.019   0.162   3.067  0.2252  0.1947  1.0664
  176SOL    HW2  528   1.899   0.097   2.976  0.3981 -0.6584 -2.7826
  177SOL     OW  529   1.084   1.922   0.577  0.2287 -0.0400 -0.1339
  177SOL    HW1  530   0.984   1.899   0.580 -0.8947  0.7460  2.0813
  177SOL    HW2  531   1.089   2.026   0.589 -1.4252 -0.2218 -0.8338
  178SOL     OW  532   2.554   2.164   3.037 -0.0043 -0.6492 -0.8010
  178SOL    HW1  533   2.518   2.235   2.974 -1.0643  0.2256 -0.0037
  178SOL    HW2  534   2.493   2.132   0.031  2.1006 -2.1390 -0.3681
  179SOL     OW  535   0.376   2.924   2.847 -0.5797 -0.0170  0.0325
  179SOL    HW1  536   0.399   2.939   2.744 -0.9064 -1.0189 -3.4298
  179SOL    HW2  537   0.272   2.927   2.855 -0.8168  0.0212  0.8673
  180SOL     OW  538   1.497   1.209   0.952  0.1654  0.5308 -0.5900
  180SOL    HW1  539   1.482   1.306   0.930  1.7051  0.5688 -0.0433
  180SOL    HW2  540   1.533   1.168   0.865 -0.2268  3.0189 -0.4478
  181SOL     OW  541   1.940   0.914   2.004 -0.3281  0.3032  0.3740
  181SOL    HW1  542   1.841   0.934   2.018  0.0615 -0.4263 -0.5466
  181SOL    HW2  543   1.950   0.851   1.925 -0.1755 -0.7410  1.2205
  182SOL     OW  544   2.715   2.975   2.491  0.5148 -0.6581 -0.4625
  182SOL    HW1  545   2.655   2.915   2.434  0.0722  2.3871 -0.0600
  182SOL    HW2  546   2.801   2.929   2.510 -2.3212  0.5676 -0.0966
  183SOL     OW  547   1.240   0.783   2.234 -0.2226 -0.1459  0.0039
  183SOL    HW1  548   1.293   0.730   2.303  1.5038  2.5612  0.2733
  183SOL    HW2  549   1.259   0.745   2.143  2.7958  0.8286  1.2479
  184SOL     OW  550   0.495   1.166   1.380 -0.6398 -0.3760  0.1349
  184SOL    HW1  551   0.498   1.269   1.374  0.6636  1.3142  0.5614
  184SOL    HW2  552   0.427   1.136   1.449  1.7553 -2.3450 -3.1285
  185SOL     OW  553   2.027   0.772   0.389 -0.2086  0.3113 -0.3660
  185SOL    HW1  554   1.930   0.749   0.419 -0.9893 -2.0148 -0.9987
  185SOL    HW2  555   2.042   0.732   0.295 -0.6601  1.0158  0.6415
  186SOL     OW  556   0.812   2.701   3.033  0.1464  0.4213 -0.1670
  186SOL    HW1  557   0.732   2.734   0.002 -0.0775  1.7078 -1.1780
  186SOL    HW2  558   0.793   2.662   2.939 -1.1536 -1.2224 -3.8072
  187SOL     OW  559   2.374   1.000   3.064  0.0142 -0.6805 -0.3816
  187SOL    HW1  560   2.285   1.055   0.000 -1.4505  0.3425 -0.5676
  187SOL    HW2  561   2.391   0.952   2.976  3.2196 -1.1882  0.3125
  188SOL     OW  562   0.040   1.635   1.180  0.2977  0.9432  0.5288
  188SOL    HW1  563   0.077   1.606   1.268 -3.0928 -0.3698 -1.2072
  188SOL    HW2  564   3.019   1.650   1.183  2.0052  0.7755 -1.1974
  189SOL     OW  565   2.537   0.493   0.151 -0.3846 -0.3227 -0.3372
  189SOL    HW1  566   2.613   0.445   0.100  1.8441  0.0440 -1.2560
  189SOL    HW2  567   2.528   0.458   0.246  0.1052 -1.4331 -1.5405
  190SOL     OW  568   1.159   1.429   1.862 -0.1247  0.3338  0.2457
  190SOL    HW1  569   1.075   1.461   1.912 -2.8188  2.9328 -2.1244
  190SOL    HW2  570   1.222   1.374   1.916 -0.7908 -1.4328 -2.8143
  191SOL     OW  571   2.934   0.513   1.589 -0.4738  0.0066 -0.2576
  191SOL    HW1  572   2.868   0.493   1.512 -2.6452 -2.6815 -0.8249
  191SOL    HW2  573   2.921   0.449   1.672  0.2599  0.2003 -2.0650
  192SOL     OW  574   1.985   1.531   1.277 -0.2233  1.0218 -0.2488
  192SOL    HW1  575   1.955   1.618   1.227  1.2314 -0.2611  2.9256
  192SOL    HW2  576   1.943   1.447   1.240 -0.0175  2.9761  1.4737
  193SOL     OW  577   1.171   0.639   0.956 -0.1179 -0.9534 -0.1139
  193SOL    HW1  578   1.128   0.592   1.037 -1.3356 -0.6542 -1.4606
  193SOL    HW2  579   1.111   0.717   0.928  1.0633  2.3647  2.7787
  194SOL     OW  580   1.240   2.416   1.641 -0.0336 -0.4483 -0.3271
  194SOL    HW1  581   1.283   2.505   1.637 -0.7191  0.0361  0.7324
  194SOL    HW2  582   1.217   2.397   1.738  1.6613 -2.1566  2.8472
  195SOL     OW  583   2.321   0.208   2.661 -0.4629  0.1576  0.0407
  195SOL    HW1  584   2.235   0.240   2.615 -0.0727 -1.8957 -1.2431
  195SOL    HW2  585   2.305   0.141   2.738  0.3097  1.6373 -0.3338
  196SOL     OW  586   1.140   2.376   1.896 -0.1114  0.2692  0.3432
  196SOL    HW1  587   1.080   2.460   1.916  0.3467  1.8841 -2.8732
  196SOL    HW2  588   1.200   2.355   1.975  0.4531 -0.8878 -0.3285
  197SOL     OW  589   0.749   2.857   0.848 -0.2885 -0.1878  0.6100
  197SOL    HW1  590   0.731   2.954   0.870  0.6722 -1.0813 -2.8326
  197SOL    HW2  591   0.830   2.827   0.899 -0.2762  1.8343  1.5384
  198SOL     OW  592   0.921   0.802   0.827 -0.6924 -0.5294  0.0506
  198SOL    HW1  593   0.877   0.718   0.874  1.8049 -0.8871 -2.6558
  198SOL    HW2  594   0.868   0.882   0.859 -0.0812  0.7635  2.8128
  199SOL     OW  595   0.027   2.655   2.070  0.4242 -0.0719 -0.2771
  199SOL    HW1  596   3.043   2.614   2.004  2.2312 -0.8934  0.7276
  199SOL    HW2  597   0.099   2.587   2.099  0.9980 -1.4582 -0.8964
  200SOL     OW  598   2.044   1.949   2.078 -0.2363  0.1465 -0.0873
  200SOL    HW1  599   2.033   1.855   2.042 -1.6850 -0.6658 -0.8402
  200SOL    HW2  600   2.095   2.012   2.017  0.7798 -1.1067 -1.0217
  201SOL     OW  601   0.363   2.072   1.549  0.3079 -0.2750  0.0880
  201SOL    HW1  602   0.275   2.075   1.494 -0.6347 -1.6355 -2.1174
  201SOL    HW2  603   0.376   2.153   1.609  1.6679 -3.6672 -0.6055
  202SOL     OW  604   2.481   0.136   0.494  0.2996  0.6146 -0.2585
  202SOL    HW1  605   2.465   0.204   0.419 -0.0778  2.9772  2.2002
  202SOL    HW2  606   2.485   0.041   0.455 -0.4925 -1.1710 -2.0805
  203SOL     OW  607   1.272   2.315   2.115  0.1126 -0.5556 -0.2585
  203SOL    HW1  608   1.305   2.217   2.129  1.6847 -2.9638  0.5730
  203SOL    HW2  609   1.348   2.373   2.144  1.1647 -0.5113 -0.8122
  204SOL     OW  610   1.282   2.051   1.847  0.1492  0.3111 -0.0800
  204SOL    HW1  611   1.350   2.074   1.773  1.1655  0.6135  3.3300
  204SOL    HW2  612   1.214   2.122   1.861  0.0075 -1.7892 -0.4647
  205SOL     OW  613   1.333   1.628   1.767 -0.0531 -0.4831 -0.0599
  205SOL    HW1  614   1.396   1.613   1.690 -1.3398  1.1850  0.5583
  205SOL    HW2  615   1.261   1.553   1.776 -1.6264 -0.8571  0.1767
  206SOL     OW  616   0.290   0.649   2.551 -0.4561  0.1984  0.1546
  206SOL    HW1  617   0.367   0.589   2.528 -1.0012  2.0561  0.6050
  206SOL    HW2  618   0.292   0.738   2.502  1.5660 -1.7848 -2.1457
  207SOL     OW  619   0.813   0.265   2.007 -0.7168 -0.2433  0.3217
  207SOL    HW1  620   0.755   0.287   1.930  1.3459  0.3691  1.3282
  207SOL    HW2  621   0.913   0.270   1.984  0.5209  0.1345  0.9368
  208SOL     OW  622   0.691   2.623   2.006 -0.1323 -0.6987  0.0179
  208SOL    HW1  623   0.667   2.668   1.911 -0.7373 -0.1803 -2.5207
  208SOL    HW2  624   0.607   2.569   2.040 -1.7719 -4.5614 -1.2890
  209SOL     OW  625   1.219   0.569   0.045  0.3517 -0.3785 -0.0437
  209SOL    HW1  626   1.307   0.539   0.087 -0.9735  3.1454 -3.5520
  209SOL    HW2  627   1.214   0.538   3.030  0.4401 -1.3263 -0.0489
  210SOL     OW  628   0.129   0.436   0.667 -0.2789 -0.3936  0.8651
  210SOL    HW1  629   0.032   0.446   0.640  1.0906 -0.0928  1.2129
  210SOL    HW2  630   0.189   0.472   0.596  1.9063 -1.6556  1.3701
  211SOL     OW  631   0.579   0.515   1.279  0.0493  0.3541 -0.9843
  211SOL    HW1  632   0.523   0.452   1.225  1.5726 -0.5228 -0.1124
  211SOL    HW2  633   0.537   0.529   1.371  0.0857  0.8955  2.5909
  212SOL     OW  634   1.158   1.736   1.342  0.3271 -0.0929  0.4955
  212SOL    HW1  635   1.067   1.768   1.306  0.4983  1.5104 -2.0360
  212SOL    HW2  636   1.194   1.787   1.418 -0.0852 -1.5564 -2.4053
  213SOL     OW  637   1.901   0.136   1.730  0.4092 -0.0141 -0.0053
  213SOL    HW1  638   1.980   0.136   1.667 -0.7854  0.2774 -3.3540
  213SOL    HW2  639   1.913   0.054   1.789 -0.2154 -0.3222  3.9100
  214SOL     OW  640   0.924   2.203   2.444 -0.0080  0.2316 -0.2816
  214SOL    HW1  641   0.969   2.277   2.388  0.3941  0.8468  2.2566
  214SOL    HW2  642   0.839   2.172   2.395  0.4882  1.5200 -0.5656
  215SOL     OW  643   2.851   1.659   1.218 -0.5728 -0.0830 -0.3916
  215SOL    HW1  644   2.782   1.729   1.257 -0.2825  0.1824  2.2710
  215SOL    HW2  645   2.814   1.614   1.132 -0.5812  0.5570 -0.0662
  216SOL     OW  646   0.355   0.973   1.967 -0.0926  0.3889  0.0296
  216SOL    HW1  647   0.330   0.897   1.900  0.6236 -2.0179 -1.8311
  216SOL    HW2  648   0.278   1.040   1.992  0.5409 -0.1357 -1.3197
  217SOL     OW  649   0.030   0.117   0.140  0.3483 -0.1213  0.4791
  217SOL    HW1  650   0.029   0.211   0.099  1.2212 -1.2995 -0.5234
  217SOL    HW2  651   0.017   0.121   0.239  1.1448 -0.7648 -0.2789
  218SOL     OW  652   1.810   1.868   1.314  0.1211  0.4147 -0.0196
  218SOL    HW1  653   1.727   1.907   1.276 -0.0613  1.0133 -0.9889
  218SOL    HW2  654   1.875   1.838   1.242 -0.2617 -0.9482 -2.0815
  219SOL     OW  655   1.586   0.280   0.145 -0.9424  0.2247  0.3425
  219SOL    HW1  656   1.559   0.200   0.091  0.4699  0.5917  1.8459
  219SOL    HW2  657   1.638   0.252   0.232  1.4431 -0.1120  2.2962
  220SOL     OW  658   1.605   2.077   0.979 -0.0812 -0.6610 -0.2298
  220SOL    HW1  659   1.664   2.159   0.983  2.0926  1.1364 -0.3226
  220SOL    HW2  660   1.581   2.044   1.073  0.1316 -1.5344 -1.2981
  221SOL     OW  661   3.048   0.756   0.475 -0.1149 -0.4886  0.8795
  221SOL    HW1  662   3.053   0.715   0.385 -1.3321 -0.3586  1.8571
  221SOL    HW2  663   0.006   0.689   0.540 -1.0394  1.2067 -2.4372
  222SOL     OW  664   0.824   2.667   1.509 -0.3942  0.3388 -0.0534
  222SOL    HW1  665   0.816   2.713   1.419  1.5629 -0.3702 -0.5452
  222SOL    HW2  666   0.883   2.582   1.495 -2.3511 -2.3130 -0.2914
  223SOL     OW  667   1.259   0.476   2.855  0.2072 -0.1486  0.1796
  223SOL    HW1  668   1.228   0.518   2.765  0.7785 -0.2703  1.0565
  223SOL    HW2  669   1.209   0.388   2.878  0.1295 -3.1942  3.9942
  224SOL     OW  670   2.697   0.436   1.154  0.5311 -0.1218 -0.7397
  224SOL    HW1  671   2.683   0.519   1.212 -3.0208  0.7651 -0.9571
  224SOL    HW2  672   2.626   0.444   1.078 -0.7296  0.0416 -0.4915
  225SOL     OW  673   0.793   1.292   1.478  0.6988  0.6599 -0.6946
  225SOL    HW1  674   0.756   1.382   1.478 -0.4236 -5.5980 -0.8937
  225SOL    HW2  675   0.754   1.242   1.395 -0.2971 -1.3755 -2.4139
  226SOL     OW  676   1.080   3.026   0.583 -0.0851 -1.0696 -0.0330
  226SOL    HW1  677   0.986   2.979   0.575 -3.3750 -1.3377  0.8211
  226SOL    HW2  678   1.138   3.021   0.499 -1.4241  0.5049 -0.2684
  227SOL     OW  679   1.134   1.821   1.779 -0.3475  0.0365  0.0708
  227SOL    HW1  680   1.215   1.757   1.759  0.5116  1.0064 -1.7148
  227SOL    HW2  681   1.166   1.899   1.837 -0.0324 -2.3822  0.3355
  228SOL     OW  682   0.474   2.928   2.003  0.1632 -0.1070  0.2161
  228SOL    HW1  683   0.486   3.026   1.981  1.0984  1.0977 -1.2274
  228SOL    HW2  684   0.377   2.902   2.002 -1.1705  3.1683 -2.1039
  229SOL     OW  685   2.578   0.796   0.418  0.1836  0.0254 -0.4688
  229SOL    HW1  686   2.520   0.875   0.443  1.8148  2.8223  1.6974
  229SOL    HW2  687   2.619   0.799   0.325  1.6322  1.5381  1.1545
  230SOL     OW  688   3.068   1.732   1.769  0.3682 -0.8525  0.2672
  230SOL    HW1  689   0.031   1.731   1.673 -2.5915  4.5267 -0.3415
  230SOL    HW2  690   3.062   1.637   1.810 -0.6796 -0.5755  0.6160
  231SOL     OW  691   1.065   2.948   1.308  0.1037 -0.1013 -0.8668
  231SOL    HW1  692   0.978   2.900   1.322 -1.3223  1.7206  0.8861
  231SOL    HW2  693   1.100   2.937   1.214  1.5740 -0.2161 -1.1256
  232SOL     OW  694   2.396   2.392   0.151  0.3408 -0.9308 -0.0201
  232SOL    HW1  695   2.409   2.297   0.120 -1.3161  3.7369 -0.9740
  232SOL    HW2  696   2.476   2.446   0.122 -3.7066  0.4895  0.7058
  233SOL     OW  697   1.219   2.713   2.975  1.0706 -0.0632 -0.4049
  233SOL    HW1  698   1.236   2.629   3.035  1.2595 -0.3083  2.5069
  233SOL    HW2  699   1.157   2.696   2.890 -3.6290 -2.7360 -1.8375
  234SOL     OW  700   0.711   1.015   2.165 -0.4490 -0.1960  0.2407
  234SOL    HW1  701   0.732   1.089   2.097 -3.7644  0.2584  1.3874
  234SOL    HW2  702   0.709   1.066   2.254  0.0226 -1.3176  0.0377
  235SOL     OW  703   3.073   2.319   0.047 -0.3559  0.4883 -0.4547
  235SOL    HW1  704   0.028   2.413   0.048  0.6372  3.9247  0.4411
  235SOL    HW2  705   3.022   2.307   3.040 -1.7436 -0.2933 -1.5694
  236SOL     OW  706   2.044   2.413   2.599 -0.2620 -0.2255  0.3359
  236SOL    HW1  707   2.072   2.356   2.682  1.1742 -2.1320  2.0588
  236SOL    HW2  708   1.950   2.396   2.566  0.9145  1.1144  0.7225
  237SOL     OW  709   2.010   1.024   1.239 -0.2643  0.4659  0.0351
  237SOL    HW1  710   2.046   0.933   1.265  2.0148 -0.5567  1.6220
  237SOL    HW2  711   1.976   1.073   1.321  0.2661 -1.5015 -0.3403
  238SOL     OW  712   1.461   2.903   2.258  0.2868 -0.6865 -0.8306
  238SOL    HW1  713   1.537   2.899   2.330  0.3533  0.8198  0.4499
  238SOL    HW2  714   1.458   2.818   2.205 -1.1605  2.0901 -1.0379
  239SOL     OW  715   0.885   1.825   2.032 -0.1531 -0.3224 -0.1240
  239SOL    HW1  716   0.877   1.852   2.125  1.3230  1.9361 -3.5667
  239SOL    HW2  717   0.870   1.909   1.976 -2.6290 -0.2975  1.1533
  240SOL     OW  718   2.774   2.905   0.426  0.0601 -0.3810 -0.7118
  240SOL    HW1  719   2.865   2.854   0.429  1.6012 -2.5402 -2.0457
  240SOL    HW2  720   2.766   2.966   0.507  0.2808 -0.6242 -1.7751
  241SOL     OW  721   1.291   1.979   3.038 -0.4537  0.0016 -0.0264
  241SOL    HW1  722   1.293   2.013   0.057  0.7427  1.0554  5.1412
  241SOL    HW2  723   1.389   1.950   3.019  0.2154 -0.2043  1.4127
  242SOL     OW  724   2.112   1.068   0.087 -0.7301  0.1737 -1.0201
  242SOL    HW1  725   2.050   1.144   0.104  1.3450 -1.9077  1.5525
  242SOL    HW2  726   2.164   1.043   0.175  2.7678  0.5535  1.4328
  243SOL     OW  727   0.570   0.275   2.162  0.3559  0.0940  0.5748
  243SOL    HW1  728   0.548   0.370   2.184 -2.0736  2.4593 -1.0083
  243SOL    HW2  729   0.661   0.280   2.120 -1.3602  1.1365  1.2925
  244SOL     OW  730   1.469   2.444   2.702 -0.2738  0.4258 -0.2648
  244SOL    HW1  731   1.403   2.494   2.650  0.4224 -2.1272 -1.2695
  244SOL    HW2  732   1.545   2.503   2.741  0.1820 -0.1289 -0.0839
  245SOL     OW  733   1.671   2.843   3.071 -0.1009 -0.4482  0.4206
  245SOL    HW1  734   1.575   2.849   3.026 -2.4717  3.2935 -2.0249
  245SOL    HW2  735   1.676   2.894   0.080 -1.2032 -1.2126 -0.0364
  246SOL     OW  736   1.244   1.064   2.474  0.6361  0.1259  0.3489
  246SOL    HW1  737   1.335   1.075   2.424 -1.1485  4.3901  0.2530
  246SOL    HW2  738   1.198   1.157   2.496 -0.5617 -0.7107  1.4457
  247SOL     OW  739   2.936   0.516   2.407 -0.2954 -0.4316  0.0205
  247SOL    HW1  740   3.010   0.582   2.383 -1.8237 -1.8032  0.2095
  247SOL    HW2  741   2.948   0.427   2.356 -1.1950 -1.1123  0.6449
  248SOL     OW  742   0.016   1.465   1.842  0.2138 -0.0507 -0.1111
  248SOL    HW1  743   0.115   1.485   1.865  0.8507  1.4734 -0.0598
  248SOL    HW2  744   0.015   1.385   1.780 -0.5120  0.0558  2.4766
  249SOL     OW  745   2.843   0.541   0.212 -0.0224  0.4686  0.3149
  249SOL    HW1  746   2.810   0.635   0.199  2.2832 -2.7548 -1.0397
  249SOL    HW2  747   2.806   0.485   0.134 -1.1811 -0.0190  1.5639
  250SOL     OW  748   2.918   0.261   0.585 -0.0801  0.3345  0.0063
  250SOL    HW1  749   2.843   0.306   0.533  0.3623  2.1104 -0.5129
  250SOL    HW2  750   2.893   0.229   0.683  3.4959 -1.4050  3.2701
  251SOL     OW  751   0.753   1.257   2.035 -0.5483  0.8854  0.3459
  251SOL    HW1  752   0.834   1.302   2.080  1.7446  0.4808  2.0722
  251SOL    HW2  753   0.741   1.285   1.938 -0.6834 -2.7893  1.1219
  252SOL     OW  754   1.576   1.705   1.580  0.5640  0.5868 -0.8796
  252SOL    HW1  755   1.654   1.710   1.514  3.2460  0.7527 -0.9444
  252SOL    HW2  756   1.575   1.612   1.621 -0.9264 -2.5603 -1.2155
  253SOL     OW  757   1.745   2.118   1.861  0.1524 -0.0501  0.2474
  253SOL    HW1  758   1.764   2.037   1.923  2.3074  1.5272  1.1445
  253SOL    HW2  759   1.751   2.205   1.913 -2.3057 -1.6878 -1.6018
  254SOL     OW  760   0.692   2.087   2.363  0.0152  0.5566 -0.5800
  254SOL    HW1  761   0.621   2.055   2.425  2.4470 -2.3887  0.4806
  254SOL    HW2  762   0.676   2.181   2.326  1.3990  1.0115 -0.0929
  255SOL     OW  763   1.393   0.465   0.459  0.2735  0.3248 -0.5580
  255SOL    HW1  764   1.335   0.436   0.378  0.8703 -1.6495  0.2957
  255SOL    HW2  765   1.365   0.416   0.546  0.4750 -0.8702 -1.8060
  256SOL     OW  766   1.878   2.273   1.038 -0.3401  0.5073 -0.3201
  256SOL    HW1  767   1.909   2.260   1.135  0.0899  0.4217  1.0262
  256SOL    HW2  768   1.917   2.211   0.974 -2.2791 -0.4305  0.7571
  257SOL     OW  769   0.313   2.315   2.545  0.0563 -0.5808  0.1599
  257SOL    HW1  770   0.414   2.306   2.555  1.3284  0.4062 -0.8510
  257SOL    HW2  771   0.274   2.319   2.642 -0.3355 -1.6230  1.9606
  258SOL     OW  772   0.375   1.136   2.407 -0.0535  0.2085 -0.2433
  258SOL    HW1  773   0.473   1.134   2.401 -1.1699  0.9323  1.9848
  258SOL    HW2  774   0.341   1.218   2.457  0.0991 -1.3864  0.3661
  259SOL     OW  775   1.067   0.881   2.395 -0.1147 -0.7870 -0.4705
  259SOL    HW1  776   1.131   0.939   2.438 -2.8703 -0.0735 -1.8926
  259SOL    HW2  777   1.116   0.836   2.321 -0.0745  0.2821  0.1397
  260SOL     OW  778   2.259   0.655   0.767 -0.1762  0.1154 -0.5854
  260SOL    HW1  779   2.289   0.726   0.834 -0.2877  0.8153 -2.8200
  260SOL    HW2  780   2.213   0.700   0.690 -0.5312 -3.9097 -0.3840
  261SOL     OW  781   0.966   0.290   0.136 -0.3053  0.2876 -0.4470
  261SOL    HW1  782   1.027   0.329   0.209  0.4023  1.4362  0.3226
  261SOL    HW2  783   0.883   0.245   0.176  0.1253  0.6880  0.9325
  262SOL     OW  784   1.883   2.714   2.627 -0.2675 -0.3683 -0.2075
  262SOL    HW1  785   1.905   2.618   2.643 -1.1613 -0.4812 -0.5483
  262SOL    HW2  786   1.896   2.733   2.526 -2.0789 -1.9101 -0.6881
  263SOL     OW  787   0.785   1.781   2.795  0.7536  0.2103 -0.6672
  263SOL    HW1  788   0.880   1.766   2.769 -1.4581 -0.2017  1.2425
  263SOL    HW2  789   0.716   1.764   2.724  1.7335  1.1608  2.7263
  264SOL     OW  790   0.420   1.606   1.843 -0.4541  0.8615  0.2384
  264SOL    HW1  791   0.509   1.556   1.834 -0.8041 -2.4938  0.8415
  264SOL    HW2  792   0.381   1.565   1.929  2.8606  1.7607  1.6596
  265SOL     OW  793   0.723   0.958   0.443  0.0168 -0.1778  0.5873
  265SOL    HW1  794   0.730   0.995   0.537 -1.2211 -0.7239  1.0762
  265SOL    HW2  795   0.795   0.999   0.382 -1.7944 -1.3143  0.5752
  266SOL     OW  796   1.615   1.742   0.153  0.5120 -0.0109 -0.2176
  266SOL    HW1  797   1.683   1.666   0.135  0.6377  0.3345 -1.5820
  266SOL    HW2  798   1.556   1.725   0.237 -0.3925 -0.2091  1.8889
  267SOL     OW  799   2.743   0.371   0.026  0.0442  0.2182  0.0815
  267SOL    HW1  800   2.773   0.281   0.067 -1.2753 -1.5297 -3.3731
  267SOL    HW2  801   2.757   0.361   3.006  0.4071 -1.8623  0.9746
  268SOL     OW  802   0.519   0.530   2.884  0.3047  0.0432 -0.1521
  268SOL    HW1  803   0.579   0.574   2.810 -0.2610 -0.3838 -2.0473
  268SOL    HW2  804   0.555   0.437   2.904  0.1007  1.4908  0.8296
  269SOL     OW  805   1.643   0.497   2.475 -0.1824  0.0547  0.1209
  269SOL    HW1  806   1.561   0.541   2.435  0.6384  0.8408 -2.0632
  269SOL    HW2  807   1.720   0.510   2.404 -1.1423  1.8874 -3.2636
  270SOL     OW  808   0.864   0.939   2.560  0.4617  0.2613  0.0705
  270SOL    HW1  809   0.933   0.910   2.496 -2.9722 -0.0700  2.5008
  270SOL    HW2  810   0.786   0.872   2.564  0.3008  1.4539 -1.8099
  271SOL     OW  811   2.840   0.885   3.054 -0.1498  0.2253  0.3927
  271SOL    HW1  812   2.899   0.949   0.032 -1.3695 -0.1123  1.1815
  271SOL    HW2  813   2.801   0.931   2.970 -0.8046  0.5003 -0.8446
  272SOL     OW  814   2.368   1.504   2.628 -0.0486 -0.4370 -0.1890
  272SOL    HW1  815   2.404   1.541   2.536 -0.6483 -2.0734  0.1853
  272SOL    HW2  816   2.335   1.409   2.617  0.7638  0.7512 -0.6934
  273SOL     OW  817   3.036   0.276   2.271 -0.0623  0.5009 -0.5398
  273SOL    HW1  818   3.014   0.174   2.274 -0.5175 -3.1405  0.1860
  273SOL    HW2  819   0.051   0.294   2.247 -2.6614 -1.1023  2.7416
  274SOL     OW  820   2.857   3.078   1.423 -0.1543  0.2276  0.3283
  274SOL    HW1  821   2.813   3.033   1.342 -0.9340 -1.4734 -1.8991
  274SOL    HW2  822   2.906   0.083   1.394 -0.6495  1.4660 -0.8180
  275SOL     OW  823   1.969   1.326   0.596 -0.4944  0.2341 -0.0328
  275SOL    HW1  824   1.963   1.246   0.531 -1.2606 -1.9824 -2.8207
  275SOL    HW2  825   1.892   1.392   0.584 -1.1060  1.4310  0.2012
  276SOL     OW  826   0.333   1.491   2.736 -0.1900  0.2104  0.1659
  276SOL    HW1  827   0.421   1.474   2.790  1.7797  0.6852 -0.1245
  276SOL    HW2  828   0.331   1.419   2.661 -1.2700 -2.7647 -1.3003
  277SOL     OW  829   1.987   2.574   1.957 -0.0108 -0.1423 -0.0507
  277SOL    HW1  830   2.063   2.627   1.998  0.1877  1.7164  0.1342
  277SOL    HW2  831   1.907   2.639   1.931 -1.3682  0.5036  0.0263
  278SOL     OW  832   1.960   0.259   1.400  0.2997 -0.6470  0.4078
  278SOL    HW1  833   1.973   0.185   1.468 -2.2403 -2.2809 -3.1632
  278SOL    HW2  834   1.964   0.223   1.304 -1.5406  0.3198 -0.9482
  279SOL     OW  835   1.473   1.130   2.895 -0.2394 -0.1320  0.0463
  279SOL    HW1  836   1.444   1.075   2.814  0.1999  0.5974 -1.8841
  279SOL    HW2  837   1.478   1.079   2.984  2.2855 -0.5061 -0.2724
  280SOL     OW  838   0.701   1.845   1.119  0.5839  0.5235 -0.3830
  280SOL    HW1  839   0.713   1.944   1.122 -0.8771  0.7911  0.2534
  280SOL    HW2  840   0.727   1.811   1.028 -0.6250  2.0961  1.8611
  281SOL     OW  841   0.227   3.073   2.233 -0.3704  0.1005  0.2356
  281SOL    HW1  842   0.324   0.019   2.259 -1.6963  1.7644  0.9979
  281SOL    HW2  843   0.198   0.055   2.156  0.9228 -0.8486  2.0028
  282SOL     OW  844   0.067   1.141   1.480  0.3674  0.6536  0.2395
  282SOL    HW1  845   3.070   1.198   1.443  0.1303 -2.7205 -1.3138
  282SOL    HW2  846   0.126   1.110   1.404 -1.3598 -0.2606  4.2656
  283SOL     OW  847   1.720   2.149   2.444 -0.6126  0.4812  0.6213
  283SOL    HW1  848   1.789   2.082   2.417  0.9887 -0.3076  0.9093
  283SOL    HW2  849   1.628   2.099   2.469 -3.6606 -0.5314  2.4873
  284SOL     OW  850   1.820   0.929   0.187 -0.2923 -0.5626 -0.2502
  284SOL    HW1  851   1.791   0.927   0.285  0.5313 -0.1016 -1.1124
  284SOL    HW2  852   1.897   0.864   0.177 -1.2668 -1.2053 -1.2318
  285SOL     OW  853   0.085   2.720   2.840  0.2166  0.5615  0.2911
  285SOL    HW1  854   0.114   2.736   2.740 -0.5582 -0.9654 -1.4795
  285SOL    HW2  855   0.098   2.805   2.900 -1.5702 -0.9303  2.1899
  286SOL     OW  856   2.066   2.473   1.051  0.1171  0.4898  0.5097
  286SOL    HW1  857   2.101   2.486   1.144  3.1975  0.3233  0.3229
  286SOL    HW2  858   1.977   2.418   1.054  0.3072 -3.3025  1.3967
  287SOL     OW  859   0.614   0.759   1.181  0.0322  0.4061  0.8596
  287SOL    HW1  860   0.587   0.672   1.234 -3.0062 -2.6033 -2.8235
  287SOL    HW2  861   0.635   0.841   1.236 -0.1572 -3.1769 -0.0229
  288SOL     OW  862   1.444   2.613   0.152  0.2014 -0.6245 -0.0189
  288SOL    HW1  863   1.538   2.646   0.177  0.9786 -0.1646  0.7589
  288SOL    HW2  864   1.368   2.680   0.171 -0.7773  0.9945 -1.2311
  289SOL     OW  865   3.009   1.899   2.922 -0.9462 -0.1217  0.0682
  289SOL    HW1  866   3.061   1.964   2.864  2.5567 -0.5813  0.1601
  289SOL    HW2  867   2.910   1.925   2.930 -1.4911  0.3858 -0.3113
  290SOL     OW  868   1.104   2.550   0.672  0.2211  0.6316 -0.7286
  290SOL    HW1  869   1.145   2.556   0.578 -1.2806  0.3571 -1.9699
  290SOL    HW2  870   1.139   2.464   0.716  0.4533 -1.8647 -1.0434
  291SOL     OW  871   2.070   1.684   3.046  0.2942  0.6185  0.3478
  291SOL    HW1  872   2.051   1.675   2.948  2.8715  0.9668 -1.6929
  291SOL    HW2  873   2.043   1.775   3.072  0.2869 -4.1979 -0.8317
  292SOL     OW  874   0.761   1.242   1.763 -0.0439 -1.3248 -0.0594
  292SOL    HW1  875   0.829   1.185   1.815  0.8166 -2.4324  0.2610
  292SOL    HW2  876   0.773   1.246   1.661  0.3437 -1.1286  1.0461
  293SOL     OW  877   2.211   2.704   0.971 -0.1802  0.6780 -0.1458
  293SOL    HW1  878   2.311   2.699   0.942  1.4231 -0.9176  1.9410
  293SOL    HW2  879   2.175   2.610   0.975  0.4154  2.1164 -1.1759
  294SOL     OW  880   0.050   0.683   2.351  0.4670  0.0954  0.2101
  294SOL    HW1  881   0.067   0.718   2.441  0.1351 -0.4962 -2.7737
  294SOL    HW2  882   0.124   0.619   2.330  0.5121 -2.3714  2.5069
  295SOL     OW  883   0.919   1.939   0.273  0.2371  0.0343  0.0562
  295SOL    HW1  884   0.915   2.032   0.316  0.0335 -0.0490  3.8087
  295SOL    HW2  885   0.984   1.929   0.198 -1.3862 -1.5610  3.2154
  296SOL     OW  886   2.112   1.811   2.516  0.2647 -0.3649  0.2648
  296SOL    HW1  887   2.146   1.742   2.450 -0.9298  2.1435  0.5607
  296SOL    HW2  888   2.116   1.781   2.613 -2.1357  0.2322 -0.3200
  297SOL     OW  889   2.843   0.351   2.843 -0.3984 -0.6472  0.3999
  297SOL    HW1  890   2.919   0.384   2.777  1.2307 -0.4986 -0.6609
  297SOL    HW2  891   2.780   0.279   2.800 -1.3517 -3.4550 -0.0322
  298SOL     OW  892   0.742   2.087   0.065 -0.2336  0.1311  0.1985
  298SOL    HW1  893   0.803   2.037   0.129 -0.6669 -0.3271 -2.9639
  298SOL    HW2  894   0.666   2.137   0.111  1.2005 -2.0901  0.9879
  299SOL     OW  895   1.397   2.878   2.666 -0.3592 -0.3625 -0.4505
  299SOL    HW1  896   1.312   2.929   2.663  1.0514 -1.5874 -1.5286
  299SOL    HW2  897   1.400   2.794   2.613 -0.6190  3.3419 -0.1677
  300SOL     OW  898   2.728   0.405   0.425 -0.2202 -0.4169 -0.0147
  300SOL    HW1  899   2.646   0.464   0.441 -0.1173 -0.4705 -1.3446
  300SOL    HW2  900   2.770   0.445   0.340 -1.5281  2.7130 -4.5000
  301SOL     OW  901   1.066   1.021   1.637  0.7135  0.5179 -0.0371
  301SOL    HW1  902   1.004   0.946   1.610  0.9270 -0.8005 -1.5129
  301SOL    HW2  903   1.078   1.088   1.564 -0.2653 -0.6684  0.4784
  302SOL     OW  904   3.056   2.502   2.687 -0.4394  0.1050  0.8950
  302SOL    HW1  905   0.039   2.425   2.714 -1.4993 -0.0387  0.5971
  302SOL    HW2  906   0.010   2.583   2.738 -0.9188  1.4265 -1.3582
  303SOL     OW  907   2.947   0.036   2.265  0.5096  0.0496 -0.4361
  303SOL    HW1  908   3.002   3.042   2.313  3.2552 -1.9233  1.2386
  303SOL    HW2  909   2.852   0.039   2.301 -1.1778  0.4189 -0.1604
  304SOL     OW  910   2.792   0.335   1.403  1.0452  0.2010  0.1233
  304SOL    HW1  911   2.716   0.291   1.458 -0.3855  2.3586 -1.1499
  304SOL    HW2  912   2.755   0.374   1.315  0.0852 -2.1516 -0.8153
  305SOL     OW  913   0.545   2.781   2.241 -0.0747  0.1688  0.1907
  305SOL    HW1  914   0.628   2.817   2.288  0.7782  1.3102 -0.4624
  305SOL    HW2  915   0.530   2.829   2.157  1.7070 -1.5051  3.1860
  306SOL     OW  916   2.736   1.022   1.430  0.2075  0.5211 -0.0160
  306SOL    HW1  917   2.828   1.003   1.462  0.0924 -1.0486  0.3178
  306SOL    HW2  918   2.731   1.113   1.389  0.9247 -2.9002  0.4558
  307SOL     OW  919   1.435   0.733   1.209  0.3579 -0.2365 -0.4870
  307SOL    HW1  920   1.345   0.699   1.247 -1.9408  2.4949 -3.4196
  307SOL    HW2  921   1.426   0.749   1.110  1.9860  0.6344  1.4517
  308SOL     OW  922   0.029   2.118   1.424 -0.4205 -0.3042  0.1357
  308SOL    HW1  923   3.055   2.201   1.441 -0.4151 -2.1959 -0.3742
  308SOL    HW2  924   0.054   2.100   1.328  2.6483  0.0081  0.5918
  309SOL     OW  925   2.437   1.787   1.219 -0.0427  0.3499  0.6604
  309SOL    HW1  926   2.435   1.856   1.138  0.0940  3.1158 -2.2908
  309SOL    HW2  927   2.515   1.792   1.282 -0.1624 -0.8570  1.2273
  310SOL     OW  928   2.647   1.635   3.075  0.4915 -0.0103  0.1491
  310SOL    HW1  929   2.685   1.618   2.980 -0.9238 -0.9771 -4.2427
  310SOL    HW2  930   2.577   1.561   0.014 -3.2658 -2.3264 -0.9214
  311SOL     OW  931   2.318   1.907   2.983 -0.1206 -0.4810 -0.0863
  311SOL    HW1  932   2.353   1.984   2.925 -0.8737  0.1711 -0.3799
  311SOL    HW2  933   2.329   1.818   2.930  1.6798 -2.1071  0.9277
  312SOL     OW  934   2.772   1.563   0.998 -0.2113 -0.0106 -0.0062
  312SOL    HW1  935   2.784   1.619   0.917  1.1223  1.4786  1.7377
  312SOL    HW2  936   2.784   1.468   0.975  0.4071 -0.7734 -0.2817
  313SOL     OW  937   2.706   2.355   1.170 -0.2127  0.2434  0.7272
  313SOL    HW1  938   2.719   2.303   1.259  0.4466  0.4065  1.5127
  313SOL    HW2  939   2.710   2.453   1.197  0.0299 -1.8989  1.5043
  314SOL     OW  940   0.997   2.093   0.865 -1.2456  0.3497 -0.0201
  314SOL    HW1  941   1.003   2.193   0.884 -1.9154 -0.4879 -1.6430
  314SOL    HW2  942   1.033   2.042   0.946 -1.5866  0.7506  1.8717
  315SOL     OW  943   0.496   2.553   2.635 -0.3576 -0.1462 -0.2538
  315SOL    HW1  944   0.439   2.617   2.582  2.9786 -0.9456 -0.9413
  315SOL    HW2  945   0.478   2.453   2.624 -0.6108  0.6562  1.0146
  316SOL     OW  946   0.293   1.090   0.600 -0.2616  0.3685  0.0874
  316SOL    HW1  947   0.282   1.044   0.510  0.1398  2.1383  0.0211
  316SOL    HW2  948   0.301   1.020   0.674  1.3427  3.7778  3.0073
  317SOL     OW  949   1.934   0.347   0.633  0.0271  0.6794 -0.3705
  317SOL    HW1  950   1.982   0.361   0.546 -0.0152 -1.7418  2.0343
  317SOL    HW2  951   1.993   0.363   0.713 -1.9993  0.3180 -1.8825
  318SOL     OW  952   2.987   2.509   0.524  0.1569 -0.3860  0.3219
  318SOL    HW1  953   2.947   2.437   0.462 -0.1638 -3.1285 -0.3364
  318SOL    HW2  954   3.039   2.482   0.609 -0.9483 -0.6525 -0.5314
  319SOL     OW  955   0.658   1.537   0.009 -0.1901 -0.0377  0.3681
  319SOL    HW1  956   0.717   1.616   0.004 -1.6539  0.1458 -0.0608
  319SOL    HW2  957   0.601   1.543   0.089  1.1386 -2.4097  0.6253
  320SOL     OW  958   0.859   2.728   2.431  0.0731 -0.1153 -0.0520
  320SOL    HW1  959   0.936   2.781   2.460 -2.8797 -1.3745 -0.2252
  320SOL    HW2  960   0.832   2.667   2.508 -3.3391 -0.7246 -0.4797
  321SOL     OW  961   1.438   2.884   2.950 -0.8822 -0.1249  0.5100
  321SOL    HW1  962   1.361   2.836   2.998  1.5023 -1.0126 -0.2891
  321SOL    HW2  963   1.409   2.906   2.856  0.5135  2.3681  0.4043
  322SOL     OW  964   2.412   1.349   1.909 -0.4025 -0.0755 -0.6637
  322SOL    HW1  965   2.484   1.383   1.969 -0.6669 -0.2040 -0.4283
  322SOL    HW2  966   2.403   1.246   1.920  0.5709  0.4768 -1.3924
  323SOL     OW  967   2.493   0.552   0.408 -0.0894  0.0439  0.8184
  323SOL    HW1  968   2.399   0.540   0.360 -0.8084 -0.3120 -0.7422
  323SOL    HW2  969   2.529   0.649   0.404  0.5578  2.8337  0.8469
  324SOL     OW  970   0.071   0.087   2.668 -0.2992  0.1096 -0.0657
  324SOL    HW1  971   0.139   0.115   2.738  1.6199  0.2494 -2.9223
  324SOL    HW2  972   3.063   0.056   2.709  2.3197 -0.3551  2.4970
  325SOL     OW  973   1.445   0.271   1.911 -0.3430 -0.1560  0.5900
  325SOL    HW1  974   1.522   0.207   1.909 -1.1370 -0.5745  2.4758
  325SOL    HW2  975   1.356   0.226   1.936 -1.5038  0.7682  0.8784
  326SOL     OW  976   2.496   2.768   1.188 -0.4339 -0.0442  0.0352
  326SOL    HW1  977   2.469   2.867   1.205 -1.1475  2.1970 -0.1189
  326SOL    HW2  978   2.482   2.751   1.088 -1.5216 -0.3074  2.2699
  327SOL     OW  979   1.510   0.571   2.786  0.1967 -0.0065 -0.0235
  327SOL    HW1  980   1.410   0.545   2.794 -0.5403  2.3489  3.4640
  327SOL    HW2  981   1.571   0.490   2.794  1.6720 -0.1742 -2.7655
  328SOL     OW  982   2.760   1.043   2.485  0.0023 -0.4248 -0.1803
  328SOL    HW1  983   2.774   1.008   2.388 -3.1047 -1.4517  0.1932
  328SOL    HW2  984   2.747   1.141   2.482 -0.4991  0.3070  2.2995
  329SOL     OW  985   1.865   2.639   1.525  1.5422 -0.3473 -0.2319
  329SOL    HW1  986   1.771   2.605   1.546  3.6202 -1.0950 -2.8345
  329SOL    HW2  987   1.882   2.732   1.567 -0.0992  2.2534 -3.8550
  330SOL     OW  988   2.555   1.818   1.626  0.5042 -0.4009 -0.2682
  330SOL    HW1  989   2.460   1.848   1.661 -0.2235 -0.6571 -1.0264
  330SOL    HW2  990   2.601   1.761   1.691 -1.1413  1.4794 -0.4047
  331SOL     OW  991   0.117   1.682   1.501  0.1815  0.6262  0.0233
  331SOL    HW1  992   0.185   1.732   1.449 -2.8876 -1.2622  0.8533
  331SOL    HW2  993   0.171   1.625   1.568  0.1965  2.1981 -1.6150
  332SOL     OW  994   0.695   0.148   1.157 -0.8344 -0.0310  0.7015
  332SOL    HW1  995   0.605   0.200   1.141 -0.7195  0.3772  1.2014
  332SOL    HW2  996   0.762   0.212   1.196  0.4236 -3.3554 -2.5036
  333SOL     OW  997   2.229   2.501   2.429  0.7396  0.6143 -0.3365
  333SOL    HW1  998   2.170   2.468   2.508  0.2614  0.1314  0.5668
  333SOL    HW2  999   2.252   2.603   2.439  1.4760  1.3793  1.1536
  334SOL     OW 1000   1.123   1.213   1.187 -0.3189 -0.0045 -0.0026
  334SOL    HW1 1001   1.154   1.308   1.168  0.8144 -2.9512 -0.7034
  334SOL    HW2 1002   1.182   1.152   1.132 -0.6075 -0.4382  1.1571
  335SOL     OW 1003   0.765   2.615   2.774 -0.8828 -0.2277 -0.1458
  335SOL    HW1 1004   0.669   2.637   2.746  0.5183  1.9020  3.2887
  335SOL    HW2 1005   0.789   2.522   2.742  1.1229  0.8778 -0.3946
  336SOL     OW 1006   2.542   2.467   2.101 -0.4343 -0.4463 -0.0491
  336SOL    HW1 1007   2.564   2.565   2.070  0.1276  0.8257  0.1413
  336SOL    HW2 1008   2.515   2.412   2.021 -1.4041 -0.8667 -2.7379
  337SOL     OW 1009   2.322   1.500   0.374 -0.1491 -0.0749 -0.0045
  337SOL    HW1 1010   2.338   1.566   0.296  0.1740  0.0086 -0.4659
  337SOL    HW2 1011   2.309   1.558   0.460 -0.1338  0.1188  0.7583
  338SOL     OW 1012   1.215   1.948   1.546  0.5799 -0.0668 -0.2100
  338SOL    HW1 1013   1.169   2.037   1.523 -0.8942 -0.5938  2.6441
  338SOL    HW2 1014   1.169   1.911   1.629 -0.0319 -1.0466  1.1689
  339SOL     OW 1015   3.053   0.880   2.177  0.3074 -0.0891 -0.1357
  339SOL    HW1 1016   3.070   0.790   2.227  2.7889 -1.2450 -0.7345
  339SOL    HW2 1017   0.040   0.950   2.205  0.4495  0.8136  1.4565
  340SOL     OW 1018   1.593   2.824   1.403 -0.2029  0.8083 -0.2781
  340SOL    HW1 1019   1.652   2.778   1.332  1.5350 -1.6859 -2.5217
  340SOL    HW2 1020   1.497   2.832   1.373 -1.0274  1.2686  0.7316
  341SOL     OW 1021   1.852   1.365   1.104 -0.3350  0.4375 -0.0860
  341SOL    HW1 1022   1.935   1.303   1.097  0.8652 -2.2108 -0.7063
  341SOL    HW2 1023   1.862   1.426   1.023  0.8731  1.5835  0.2447
  342SOL     OW 1024   0.336   1.562   0.887  0.5288  0.3728 -0.4386
  342SOL    HW1 1025   0.374   1.558   0.789 -1.6265  3.1724  1.0998
  342SOL    HW2 1026   0.308   1.657   0.916  1.4552 -0.2416  2.2569
  343SOL     OW 1027   2.134   0.471   1.360 -0.4236  0.1442 -0.3710
  343SOL    HW1 1028   2.070   0.403   1.394  5.0084  0.9671  1.7060
  343SOL    HW2 1029   2.088   0.537   1.299 -1.1368 -0.7298 -0.3786
  344SOL     OW 1030   2.023   2.897   0.901  0.7569  0.0311  0.5446
  344SOL    HW1 1031   2.097   2.837   0.933  1.0543 -0.0102  0.2424
  344SOL    HW2 1032   1.932   2.859   0.928 -0.1846 -1.5484 -1.6550
  345SOL     OW 1033   2.851   2.730   2.811 -0.1975  0.2828  0.3939
  345SOL    HW1 1034   2.785   2.804   2.826  2.8475 -0.2968 -1.2312
  345SOL    HW2 1035   2.929   2.757   2.754  0.6248  0.5381 -3.6574
  346SOL     OW 1036   2.792   0.787   0.592  0.5058  0.5217 -0.1301
  346SOL    HW1 1037   2.709   0.780   0.529 -2.8531 -1.7863 -0.1911
  346SOL    HW2 1038   2.883   0.752   0.547  1.9445  0.6128  0.1428
  347SOL     OW 1039   1.758   2.748   1.191  0.2576  0.2075 -0.3377
  347SOL    HW1 1040   1.852   2.741   1.234 -1.2242  2.6735  0.1576
  347SOL    HW2 1041   1.768   2.780   1.092  1.0663 -2.0237 -4.0053
  348SOL     OW 1042   1.484   1.451   2.036  0.3365 -0.8647 -0.9885
  348SOL    HW1 1043   1.422   1.385   1.986 -0.5089 -0.1157  1.9749
  348SOL    HW2 1044   1.449   1.546   2.021 -1.7760 -0.8304  0.1150
  349SOL     OW 1045   2.325   1.157   2.215 -0.2760  0.0730  0.3252
  349SOL    HW1 1046   2.233   1.112   2.213 -4.4708 -3.0561 -0.3114
  349SOL    HW2 1047   2.364   1.145   2.122  1.8681 -1.8672  0.1371
  350SOL     OW 1048   0.362   2.030   1.093 -0.1899 -0.5892 -0.1591
  350SOL    HW1 1049   0.427   2.009   1.166 -3.1599 -1.6079 -0.9612
  350SOL    HW2 1050   0.276   2.063   1.134  2.2556  2.3269  0.5950
  351SOL     OW 1051   0.804   0.538   2.183  0.0369  0.4183  0.1828
  351SOL    HW1 1052   0.902   0.517   2.189 -0.8110  2.9934  0.6884
  351SOL    HW2 1053   0.786   0.635   2.206 -2.3061 -0.0361  0.4360
  352SOL     OW 1054   0.921   2.805   1.740 -0.1933  0.4475  0.3942
  352SOL    HW1 1055   0.871   2.884   1.780 -1.4872  3.1466  0.7174
  352SOL    HW2 1056   0.875   2.760   1.660  1.2040 -0.5977 -1.3338
  353SOL     OW 1057   1.043   1.619   2.518 -0.0706 -0.0024  0.1873
  353SOL    HW1 1058   1.093   1.682   2.459 -0.1121 -1.7317 -0.8319
  353SOL    HW2 1059   1.022   1.532   2.467 -1.9214  2.1426  0.4659
  354SOL     OW 1060   1.746   1.483   0.651  0.6722  0.0435  0.4416
  354SOL    HW1 1061   1.718   1.579   0.635  0.0935 -5.4055  1.4424
  354SOL    HW2 1062   1.663   1.429   0.679 -0.7153  1.8698 -0.5258
  355SOL     OW 1063   2.201   0.090   0.590 -0.0683  0.2518 -0.2106
  355SOL    HW1 1064   2.204   0.058   0.688 -0.2785 -0.3054  2.0976
  355SOL    HW2 1065   2.295   0.101   0.554 -1.3885 -1.8464  0.2818
  356SOL     OW 1066   0.137   1.172   2.850 -0.2999  0.2999  0.0770
  356SOL    HW1 1067   0.081   1.094   2.873 -0.3643  1.2741  0.3043
  356SOL    HW2 1068   0.087   1.238   2.795 -0.6735  1.2192 -1.6238
  357SOL     OW 1069   2.975   2.959   1.650  0.1229  0.4513  0.4664
  357SOL    HW1 1070   2.929   2.984   1.565 -0.2317 -0.9592 -3.3171
  357SOL    HW2 1071   3.059   2.905   1.627  3.3997  0.4902  0.9889
  358SOL     OW 1072   0.018   1.367   2.626  0.3289  0.5277 -0.3762
  358SOL    HW1 1073   0.024   1.467   2.626  0.1146 -1.2116 -0.2786
  358SOL    HW2 1074   3.016   1.331   2.674 -0.9714  0.3969  1.7497
  359SOL     OW 1075   2.477   2.345   2.465  0.4685 -0.2502 -0.2198
  359SOL    HW1 1076   2.378   2.379   2.455 -0.3887 -0.4358 -0.2281
  359SOL    HW2 1077   2.545   2.407   2.417 -2.3998 -0.6826  0.0780
  360SOL     OW 1078   1.469   1.470   0.867  0.2355 -0.1850  0.2335
  360SOL    HW1 1079   1.405   1.438   0.790 -1.0223 -0.0251 -0.3396
  360SOL    HW2 1080   1.454   1.564   0.902 -1.2018 -1.3622 -0.3872
  361SOL     OW 1081   2.265   2.272   0.984 -0.5936  0.2741  0.2423
  361SOL    HW1 1082   2.247   2.276   1.084  0.0487 -2.6359 -1.6802
  361SOL    HW2 1083   2.194   2.314   0.927 -0.2030 -3.8233 -1.7222
  362SOL     OW 1084   1.615   1.221   1.193  0.3435 -0.3895 -0.0872
  362SOL    HW1 1085   1.694   1.281   1.179  1.3598  0.4373  0.5467
  362SOL    HW2 1086   1.562   1.207   1.104 -1.2646 -4.2656  0.5591
  363SOL     OW 1087   2.564   1.789   0.460  0.2882 -0.5717 -0.0611
  363SOL    HW1 1088   2.633   1.801   0.387  1.4490  3.0833 -0.9565
  363SOL    HW2 1089   2.489   1.858   0.454  3.1328  1.8401 -2.4393
  364SOL     OW 1090   2.146   0.127   1.601 -0.0313  0.3473  0.0546
  364SOL    HW1 1091   2.191   0.045   1.556  1.1809 -3.7968 -1.7828
  364SOL    HW2 1092   2.218   0.191   1.630  2.7327  0.7810 -1.0291
  365SOL     OW 1093   0.158   2.638   0.953 -0.0958  0.1889 -0.1936
  365SOL    HW1 1094   0.215   2.571   0.899  1.8489 -1.7459 -1.0675
  365SOL    HW2 1095   0.070   2.596   0.977 -0.1806 -2.2219 -1.0932
  366SOL     OW 1096   3.034   1.040   0.135 -0.0206  0.0612 -0.1854
  366SOL    HW1 1097   0.049   1.010   0.118  0.8373  2.1106 -0.7184
  366SOL    HW2 1098   3.006   1.025   0.232 -2.8203 -1.3400  0.1638
  367SOL     OW 1099   2.424   2.339   2.865  0.6464 -0.6632 -0.6027
  367SOL    HW1 1100   2.338   2.294   2.830 -0.6429 -1.2700  1.4435
  367SOL    HW2 1101   2.492   2.299   2.799  0.1953  1.6269 -0.7319
  368SOL     OW 1102   3.038   1.889   1.008 -0.0105  0.0502 -0.0474
  368SOL    HW1 1103   2.955   1.911   1.058  1.6660 -1.1308 -0.7641
  368SOL    HW2 1104   3.023   1.882   0.908  1.3268  1.1898  2.1622
  369SOL     OW 1105   0.752   0.692   0.398 -0.0135  0.3845  0.2230
  369SOL    HW1 1106   0.696   0.628   0.457  1.0308 -2.0829 -2.4622
  369SOL    HW2 1107   0.744   0.785   0.434  2.7804  1.5531  0.1578
  370SOL     OW 1108   0.656   0.005   0.936  0.0283  0.0055  0.0870
  370SOL    HW1 1109   0.567   0.021   0.978  1.0315 -2.0410 -0.7610
  370SOL    HW2 1110   0.719   0.060   0.996  1.1727 -3.5334 -1.3813
  371SOL     OW 1111   2.134   1.412   3.044  0.0398 -0.2070  0.1991
  371SOL    HW1 1112   2.095   1.357   0.041  0.8374 -2.7163  1.7175
  371SOL    HW2 1113   2.081   1.499   3.029 -2.0487  0.5176  0.0143
  372SOL     OW 1114   0.327   1.017   2.718  0.5319  0.3182 -0.1513
  372SOL    HW1 1115   0.259   1.063   2.772  0.6764  1.4029 -2.2451
  372SOL    HW2 1116   0.281   0.984   2.630 -2.8718 -1.3143  0.9323
  373SOL     OW 1117   2.908   0.633   3.003 -0.4096 -0.0319 -0.5964
  373SOL    HW1 1118   2.878   0.728   3.037 -1.6616  0.2733  1.9641
  373SOL    HW2 1119   3.007   0.614   3.037 -1.4856 -0.0349  0.9230
  374SOL     OW 1120   0.991   2.222   0.039  0.0953 -0.5417  0.7685
  374SOL    HW1 1121   0.892   2.191   0.057 -2.1250  0.9677 -0.6902
  374SOL    HW2 1122   0.980   2.325   0.032 -1.9565  1.7714 -1.6337
  375SOL     OW 1123   1.205   0.187   0.345  0.3878 -0.2614 -0.4121
  375SOL    HW1 1124   1.206   0.291   0.338 -0.7083  0.6467 -0.3649
  375SOL    HW2 1125   1.285   0.140   0.393  2.3744 -0.4346  1.2004
  376SOL     OW 1126   0.197   2.415   2.079 -0.1468 -0.2592  0.0164
  376SOL    HW1 1127   0.203   2.318   2.039  1.9399 -1.6900 -0.8438
  376SOL    HW2 1128   0.128   2.427   2.153 -0.3763  2.4150  1.1022
  377SOL     OW 1129   2.741   1.993   2.894  0.3660 -0.3794 -0.0257
  377SOL    HW1 1130   2.687   2.059   2.950 -0.5350 -1.8849  2.0056
  377SOL    HW2 1131   2.676   1.916   2.872  1.5756 -0.9426  1.0902
  378SOL     OW 1132   1.470   0.965   0.449  0.2311 -0.0828 -0.2466
  378SOL    HW1 1133   1.425   1.044   0.402  0.4716 -1.7397 -0.1425
  378SOL    HW2 1134   1.408   0.884   0.466 -0.4352  0.2781 -0.0263
  379SOL     OW 1135   1.174   1.619   0.428  0.4590 -0.1903 -0.1233
  379SOL    HW1 1136   1.113   1.540   0.419  0.5878  0.0572 -1.4244
  379SOL    HW2 1137   1.141   1.691   0.493 -1.5612  0.5030 -0.0492
  380SOL     OW 1138   2.057   2.432   1.688 -0.0771 -0.4310 -0.0123
  380SOL    HW1 1139   2.026   2.338   1.665 -2.1312  0.4517  0.4509
  380SOL    HW2 1140   1.984   2.504   1.667  1.3160  1.6719 -1.9828
  381SOL     OW 1141   2.801   0.956   2.230 -0.2373 -0.1319  0.1091
  381SOL    HW1 1142   2.899   0.934   2.217 -2.9248 -1.3243  0.7226
  381SOL    HW2 1143   2.754   0.979   2.138 -0.2288  2.1585 -0.8130
  382SOL     OW 1144   2.793   2.416   0.140 -0.3633 -0.0786  0.4434
  382SOL    HW1 1145   2.802   2.316   0.120 -0.0402 -0.3972 -0.2882
  382SOL    HW2 1146   2.813   2.473   0.060 -1.5078  1.4123  2.4560
  383SOL     OW 1147   1.573   1.204   2.126 -0.0441 -0.0014 -0.2699
  383SOL    HW1 1148   1.661   1.195   2.079  0.8094  0.1747  1.9142
  383SOL    HW2 1149   1.549   1.303   2.123  2.6697 -1.9363  0.6660
  384SOL     OW 1150   1.055   1.986   2.525 -0.1167  0.0271  0.4620
  384SOL    HW1 1151   0.999   2.069   2.506 -1.5710 -1.6518 -1.1415
  384SOL    HW2 1152   1.029   1.945   2.612 -0.6471  1.7423 -1.1827
  385SOL     OW 1153   2.454   2.198   0.576  0.2361  0.0051 -0.2471
  385SOL    HW1 1154   2.455   2.299   0.560  2.0913  1.6826  1.7000
  385SOL    HW2 1155   2.387   2.180   0.656 -2.9610  1.6799  3.3408
  386SOL     OW 1156   1.486   1.308   0.185 -0.4837  0.1969  0.3547
  386SOL    HW1 1157   1.463   1.357   0.272  0.2606 -0.8498 -0.9630
  386SOL    HW2 1158   1.425   1.234   0.166  2.1902  2.7523 -2.6268
  387SOL     OW 1159   2.720   0.715   1.257  0.9506  0.6313  0.1216
  387SOL    HW1 1160   2.629   0.762   1.249 -2.2741 -0.0380  0.4352
  387SOL    HW2 1161   2.788   0.767   1.204 -1.4692  1.2979  0.3203
  388SOL     OW 1162   3.027   0.717   1.178 -0.4507  0.1692 -0.3127
  388SOL    HW1 1163   0.043   0.724   1.148  0.1450 -0.4150  0.3386
  388SOL    HW2 1164   3.026   0.735   1.281 -1.9187  0.5000  1.3130
  389SOL     OW 1165   1.708   1.202   2.482 -0.0479 -0.3268  0.6053
  389SOL    HW1 1166   1.685   1.238   2.574  0.3882 -1.2115 -2.1897
  389SOL    HW2 1167   1.804   1.163   2.487  2.1235 -2.1308  0.3161
  390SOL     OW 1168   1.484   2.371   0.444 -0.4464  0.1932  0.1125
  390SOL    HW1 1169   1.557   2.442   0.448 -2.3238 -2.4805  1.6475
  390SOL    HW2 1170   1.517   2.275   0.431 -1.7855 -0.4448 -1.4683
  391SOL     OW 1171   1.219   2.231   1.147  0.5788 -0.5352 -0.4397
  391SOL    HW1 1172   1.234   2.268   1.247  1.3751  2.1648  1.2730
  391SOL    HW2 1173   1.277   2.282   1.084 -2.2937 -3.7636  2.0869
  392SOL     OW 1174   2.359   2.757   1.955  0.0410 -0.1890  0.0877
  392SOL    HW1 1175   2.330   2.707   1.870  2.0054 -2.9795 -0.1288
  392SOL    HW2 1176   2.455   2.740   1.969 -0.4371  1.4469  3.4710
  393SOL     OW 1177   1.770   2.363   2.583 -0.1675 -0.4297 -0.5361
  393SOL    HW1 1178   1.714   2.432   2.533 -0.3911 -0.8481 -0.4018
  393SOL    HW2 1179   1.772   2.278   2.526 -1.1014 -0.1238  0.7090
  394SOL     OW 1180   0.076   3.014   2.446  0.1907  0.0230 -0.3925
  394SOL    HW1 1181   0.078   0.020   2.505  0.3059 -1.8887 -2.1479
  394SOL    HW2 1182   0.130   3.035   2.363  0.0801  0.9601  3.3909
  395SOL     OW 1183   0.444   1.401   1.070  0.2369  0.0187 -0.5657
  395SOL    HW1 1184   0.392   1.445   0.997  0.0708  0.8109  2.7161
  395SOL    HW2 1185   0.544   1.403   1.056 -0.4638  0.5657 -2.0974
  396SOL     OW 1186   2.236   0.849   2.777  0.7897  0.2235  0.3799
  396SOL    HW1 1187   2.170   0.846   2.860 -0.0808 -1.4885  1.0292
  396SOL    HW2 1188   2.189   0.804   2.698 -1.7387 -0.5344 -1.8212
  397SOL     OW 1189   3.050   0.449   2.675 -0.2820 -0.1292  0.4769
  397SOL    HW1 1190   0.042   0.387   2.643 -0.8421  1.0990 -2.7947
  397SOL    HW2 1191   3.008   0.499   2.599  3.0983 -4.0932 -1.2765
  398SOL     OW 1192   1.682   2.950   0.234  0.2330 -0.7418 -0.4518
  398SOL    HW1 1193   1.755   2.985   0.298 -0.0897  1.4116 -1.1913
  398SOL    HW2 1194   1.609   3.025   0.205 -0.1010  1.4836 -2.0019
  399SOL     OW 1195   2.187   2.374   1.966 -0.1574  0.0085  0.2422
  399SOL    HW1 1196   2.203   2.363   2.067  0.6657  1.3083 -0.4734
  399SOL    HW2 1197   2.108   2.438   1.944  1.5825  0.9468 -0.4736
  400SOL     OW 1198   3.012   1.930   2.243  0.7248 -0.1789 -0.5643
  400SOL    HW1 1199   3.066   1.924   2.159  0.3074 -1.1695  3.2900
  400SOL    HW2 1200   2.916   1.894   2.234 -0.1668 -1.2707  1.0781
  401SOL     OW 1201   0.440   0.750   0.552 -0.0540  0.2571  0.2648
  401SOL    HW1 1202   0.501   0.669   0.558 -0.9709  1.3994 -1.5717
  401SOL    HW2 1203   0.410   0.781   0.644  2.3122 -1.2970 -0.7519
  402SOL     OW 1204   0.743   2.976   2.331 -0.0211 -0.3133  0.1405
  402SOL    HW1 1205   0.804   2.929   2.394 -2.1642  0.5355 -1.1605
  402SOL    HW2 1206   0.787   3.038   2.267 -1.4397  1.5404 -1.1229
  403SOL     OW 1207   2.867   1.500   2.018  0.2330 -0.0122  0.3260
  403SOL    HW1 1208   2.952   1.482   1.968  1.3603  1.4878  0.0083
  403SOL    HW2 1209   2.882   1.497   2.119 -1.7125  1.1938 -2.9802
  404SOL     OW 1210   2.839   2.074   2.640  0.1179 -0.2518 -0.1183
  404SOL    HW1 1211   2.797   2.041   2.728  0.2998  0.6977  0.3652
  404SOL    HW2 1212   2.779   2.150   2.613  1.9730 -2.8996 -2.8290
  405SOL     OW 1213   1.923   0.059   2.574 -0.5860 -0.3513  0.5231
  405SOL    HW1 1214   1.954   3.049   2.613  0.8114 -1.0801  0.3052
  405SOL    HW2 1215   1.818   0.061   2.573 -0.8324 -1.5621  2.0960
  406SOL     OW 1216   1.288   1.947   0.389  0.0500  0.1235  0.6599
  406SOL    HW1 1217   1.255   2.025   0.334 -2.4217 -0.0422  0.4185
  406SOL    HW2 1218   1.218   1.921   0.454 -0.4972  0.7665 -2.4863
  407SOL     OW 1219   1.752   1.280   0.104  0.6145 -0.5637 -0.1262
  407SOL    HW1 1220   1.753   1.250   0.005 -1.6174  0.7820 -1.0532
  407SOL    HW2 1221   1.656   1.282   0.139 -0.0490  1.5087  0.5749
  408SOL     OW 1222   0.356   1.042   1.580 -0.2036 -0.4113  0.1409
  408SOL    HW1 1223   0.309   0.953   1.568  3.3364  0.6042  0.8705
  408SOL    HW2 1224   0.415   1.045   1.665  4.4437  1.0856  2.1793
  409SOL     OW 1225   2.919   1.237   2.844 -0.1578 -0.4783 -0.0514
  409SOL    HW1 1226   2.817   1.240   2.843  3.1955  4.1705  0.5564
  409SOL    HW2 1227   2.954   1.269   2.938  0.5539  1.5912  3.3656
  410SOL     OW 1228   2.262   1.746   0.621 -0.4243 -0.5278  0.0718
  410SOL    HW1 1229   2.346   1.756   0.680  2.3244 -0.2938 -0.3519
  410SOL    HW2 1230   2.265   1.816   0.545  3.7331  1.5937  0.3211
  411SOL     OW 1231   0.014   0.436   0.287  0.0544 -0.2903 -0.2564
  411SOL    HW1 1232   3.012   0.490   0.259  4.0515 -1.3238  0.9565
  411SOL    HW2 1233   3.071   0.357   0.345  3.2405  0.3661  1.5934
  412SOL     OW 1234   1.853   3.071   0.409 -0.1074  0.4016 -0.5471
  412SOL    HW1 1235   1.865   3.028   0.502 -0.4038 -0.5371  1.2030
  412SOL    HW2 1236   1.942   0.050   0.388  1.5568  0.1882 -0.7858
  413SOL     OW 1237   1.158   0.247   1.694  0.1437  0.1730 -0.3606
  413SOL    HW1 1238   1.243   0.300   1.696 -2.8540 -1.1453  1.5485
  413SOL    HW2 1239   1.147   0.200   1.608  0.4732 -0.5351  1.5342
  414SOL     OW 1240   0.381   1.175   0.182  0.2816  0.1856  0.0120
  414SOL    HW1 1241   0.303   1.209   0.237 -0.0097  0.7315  0.5352
  414SOL    HW2 1242   0.422   1.091   0.225  1.1968  0.3820 -0.4869
  415SOL     OW 1243   2.665   1.359   0.413 -0.5502  0.5357  0.0443
  415SOL    HW1 1244   2.734   1.426   0.377  0.5276  0.6403  1.9918
  415SOL    HW2 1245   2.706   1.265   0.403 -1.2268 -2.9075 -2.8104
  416SOL     OW 1246   2.330   0.686   0.050 -0.0290 -0.3344 -0.1132
  416SOL    HW1 1247   2.409   0.628   0.062 -0.1367  3.3941 -0.0104
  416SOL    HW2 1248   2.349   0.777   0.011 -2.9833 -3.2854  0.9332
  417SOL     OW 1249   2.629   2.540   0.310 -0.5070 -0.5920  0.2994
  417SOL    HW1 1250   2.595   2.626   0.265 -2.1147  1.2174 -0.6479
  417SOL    HW2 1251   2.698   2.499   0.251  0.9741 -1.2916  2.4386
  418SOL     OW 1252   0.021   0.325   3.055  0.1343 -0.2683  0.3687
  418SOL    HW1 1253   3.003   0.320   3.016 -2.2340 -1.6082  0.9088
  418SOL    HW2 1254   0.066   0.415   3.066  0.8719 -1.2136 -0.8394
  419SOL     OW 1255   0.746   1.007   0.907  0.1887 -0.3148 -0.1215
  419SOL    HW1 1256   0.790   1.069   0.975  0.9798 -2.0561  1.3324
  419SOL    HW2 1257   0.644   0.998   0.926  0.6911  0.2804 -1.2850
  420SOL     OW 1258   0.324   0.881   0.765 -0.2050  0.2104  0.0690
  420SOL    HW1 1259   0.226   0.863   0.778  0.6935 -0.8727  0.2791
  420SOL    HW2 1260   0.382   0.876   0.850  2.6904  1.9614 -0.1901
  421SOL     OW 1261   0.479   2.061   0.357  0.4677  0.7044 -0.2521
  421SOL    HW1 1262   0.524   1.985   0.312  0.6672  1.9602 -0.5369
  421SOL    HW2 1263   0.512   2.148   0.314  1.3416 -1.2783 -1.3384
  422SOL     OW 1264   2.884   0.331   1.797 -0.8750  0.2278  0.0904
  422SOL    HW1 1265   2.895   0.389   1.880  1.4292 -2.2116 -2.4914
  422SOL    HW2 1266   2.790   0.294   1.788 -0.0871 -0.2767  1.3542
  423SOL     OW 1267   1.978   1.954   0.010  0.6279 -0.1561 -0.3067
  423SOL    HW1 1268   1.905   1.927   3.019 -3.1000 -1.7799 -0.5556
  423SOL    HW2 1269   2.000   2.057   0.017  1.5587  3.4671  0.7822
  424SOL     OW 1270   1.815   1.532   2.540  0.1526 -0.2180 -0.5167
  424SOL    HW1 1271   1.808   1.546   2.440 -0.4720  1.0404  5.0462
  424SOL    HW2 1272   1.896   1.479   2.565  1.4303  1.7385  0.9666
  425SOL     OW 1273   2.946   2.790   2.262 -0.4649  0.1251  0.4023
  425SOL    HW1 1274   2.959   2.719   2.333  0.0029  2.3381  0.5989
  425SOL    HW2 1275   3.012   2.770   2.182  0.1089 -1.8672 -1.6869
  426SOL     OW 1276   2.078   2.652   0.146  0.1639  0.5337 -0.0803
  426SOL    HW1 1277   1.984   2.608   0.149 -2.2612  0.7021 -1.3398
  426SOL    HW2 1278   2.113   2.656   0.046  0.8536 -0.8392 -2.9391
  427SOL     OW 1279   0.267   1.370   2.487  0.4916 -0.3038  0.4514
  427SOL    HW1 1280   0.265   1.463   2.442  0.1949 -1.3759 -0.4203
  427SOL    HW2 1281   0.182   1.360   2.543  0.0094  1.0260 -0.3052
  428SOL     OW 1282   2.406   1.226   2.692  0.6526  0.0507 -0.0532
  428SOL    HW1 1283   2.375   1.166   2.608  1.3528 -0.6755 -4.3618
  428SOL    HW2 1284   2.337   1.206   2.765 -0.5608  1.2051 -2.7655
  429SOL     OW 1285   2.335   2.824   0.600  0.2019  0.6558  0.4004
  429SOL    HW1 1286   2.431   2.808   0.624 -0.6041  2.3292 -0.1685
  429SOL    HW2 1287   2.320   2.827   0.498 -0.9322 -0.9095 -4.6913
  430SOL     OW 1288   1.551   1.886   2.225  0.0742 -0.1082  0.0115
  430SOL    HW1 1289   1.493   1.805   2.206  0.2645  0.3223  1.1228
  430SOL    HW2 1290   1.529   1.926   2.318  1.0468  1.9225  0.7712
  431SOL     OW 1291   3.068   2.175   1.741  0.2170  0.0753 -0.0817
  431SOL    HW1 1292   2.984   2.118   1.762 -2.5158 -0.4588 -1.2197
  431SOL    HW2 1293   0.007   2.163   1.638  4.3802 -1.9710 -1.2165
  432SOL     OW 1294   1.260   2.085   2.380 -0.0830 -0.3025  0.7195
  432SOL    HW1 1295   1.182   2.038   2.425 -1.0404 -2.1132 -0.3696
  432SOL    HW2 1296   1.265   2.184   2.392  1.0214 -1.7501  0.2575
  433SOL     OW 1297   1.054   2.810   0.813 -0.6405  0.7236  0.6806
  433SOL    HW1 1298   1.099   2.723   0.773  2.9301  1.4004 -1.7263
  433SOL    HW2 1299   1.062   2.885   0.747 -0.7279  1.4868  0.3695
  434SOL     OW 1300   0.188   1.861   2.354  0.7533 -0.0958 -0.1367
  434SOL    HW1 1301   0.148   1.791   2.418 -0.7330  0.0689 -0.2298
  434SOL    HW2 1302   0.122   1.939   2.341  0.5002 -1.0418 -0.1245
  435SOL     OW 1303   0.173   1.586   0.528 -0.0517 -0.5304 -0.0038
  435SOL    HW1 1304   0.143   1.626   0.442  0.0332  3.0698 -2.1143
  435SOL    HW2 1305   0.180   1.655   0.603 -1.8473  0.1497  0.0947
  436SOL     OW 1306   0.549   2.068   1.950 -0.5241  0.0833  0.2222
  436SOL    HW1 1307   0.508   2.121   1.875  0.2408 -0.2402 -1.8290
  436SOL    HW2 1308   0.651   2.055   1.933  0.3490  1.9597  0.0399
  437SOL     OW 1309   1.023   0.636   0.392 -0.1719 -0.0444 -0.1448
  437SOL    HW1 1310   0.929   0.676   0.423 -2.9770  1.7405  0.2020
  437SOL    HW2 1311   1.064   0.698   0.321  0.8058  1.1753  1.5717
  438SOL     OW 1312   0.468   2.138   0.849 -0.1559  0.2209  0.4765
  438SOL    HW1 1313   0.429   2.101   0.940 -0.5745 -0.9729  1.5275
  438SOL    HW2 1314   0.563   2.111   0.824  1.3991 -0.0708 -0.0804
  439SOL     OW 1315   0.982   2.586   1.918  0.7110 -0.4695 -0.4886
  439SOL    HW1 1316   0.953   2.621   2.012  1.2605  3.4778 -0.5778
  439SOL    HW2 1317   0.957   2.651   1.843 -1.1604  0.5256 -0.5641
  440SOL     OW 1318   1.690   0.195   1.536  0.1566 -0.3205  0.6822
  440SOL    HW1 1319   1.742   0.215   1.621 -1.6181  0.9276 -0.2267
  440SOL    HW2 1320   1.678   0.272   1.473 -1.2266  1.7801 -0.9403
  441SOL     OW 1321   0.285   0.086   1.574  0.0104  0.2524 -0.2518
  441SOL    HW1 1322   0.293   0.018   1.647 -2.4911  1.9098 -0.5921
  441SOL    HW2 1323   0.333   0.059   1.491  1.1159 -2.7486  1.3665
  442SOL     OW 1324   2.150   1.895   0.226  0.1771  0.2498  0.4692
  442SOL    HW1 1325   2.180   1.799   0.207 -2.1168  0.6891  1.5789
  442SOL    HW2 1326   2.081   1.923   0.154  1.3384  1.1659  1.2312
  443SOL     OW 1327   2.515   0.374   2.269  0.7009  0.0611  0.2268
  443SOL    HW1 1328   2.420   0.355   2.236 -0.6831 -0.9760  0.2914
  443SOL    HW2 1329   2.513   0.365   2.372 -2.4594 -2.3492 -2.5759
  444SOL     OW 1330   2.070   1.181   1.943  0.1869 -0.5439  0.2818
  444SOL    HW1 1331   2.144   1.110   1.942  0.2765 -0.0619 -1.9835
  444SOL    HW2 1332   2.110   1.274   1.941 -1.0308 -0.5172 -1.9627
  445SOL     OW 1333   2.687   2.342   1.452  0.0913  0.0812  0.4099
  445SOL    HW1 1334   2.669   2.246   1.479 -1.8491  1.5110 -0.8662
  445SOL    HW2 1335   2.634   2.408   1.506  1.9018  1.5962 -1.0110
  446SOL     OW 1336   2.938   1.175   0.760  0.0192  0.2358  0.0390
  446SOL    HW1 1337   3.035   1.208   0.768 -0.9826  0.5556  1.7906
  446SOL    HW2 1338   2.927   1.075   0.765 -0.5749  2.2015  2.6944
  447SOL     OW 1339   1.166   1.737   0.767  0.2107 -0.0006  0.3434
  447SOL    HW1 1340   1.260   1.752   0.799 -1.3846  0.7614 -0.9823
  447SOL    HW2 1341   1.138   1.809   0.699  0.3042 -0.3572  1.8283
  448SOL     OW 1342   1.326   1.228   1.934  0.3906  0.3842  0.1271
  448SOL    HW1 1343   1.372   1.191   1.853 -0.0870  0.2971  0.3888
  448SOL    HW2 1344   1.296   1.154   1.999  0.5295 -2.3116 -1.6966
  449SOL     OW 1345   0.474   1.455   0.191  0.4851  0.4107  0.3146
  449SOL    HW1 1346   0.387   1.507   0.198  0.2930 -1.1424  1.0925
  449SOL    HW2 1347   0.461   1.362   0.159  1.0979 -0.7037 -0.4057
  450SOL     OW 1348   2.448   2.338   1.888  0.2396 -0.6368  0.2584
  450SOL    HW1 1349   2.463   2.369   1.798 -1.4514 -0.6719  1.1523
  450SOL    HW2 1350   2.350   2.337   1.911  5.7475  0.1040 -0.8294
  451SOL     OW 1351   1.861   0.170   2.132 -0.0241 -0.0093 -0.0259
  451SOL    HW1 1352   1.932   0.131   2.197  0.8164 -1.2466 -0.4412
  451SOL    HW2 1353   1.870   0.270   2.118  3.5346  0.5121  1.0200
  452SOL     OW 1354   1.081   0.105   1.451 -0.2217  0.9729 -0.1535
  452SOL    HW1 1355   1.066   0.013   1.403  2.0551 -0.7849  0.1389
  452SOL    HW2 1356   0.989   0.135   1.489 -2.5885  1.1809  0.4398
  453SOL     OW 1357   1.038   1.592   0.942 -0.1237  0.7993 -0.1916
  453SOL    HW1 1358   1.088   1.627   0.858  0.3590  1.2487 -1.0228
  453SOL    HW2 1359   0.981   1.665   0.973  0.8790  0.6417 -0.3239
  454SOL     OW 1360   0.496   1.248   0.683  0.0594 -0.2094 -0.2862
  454SOL    HW1 1361   0.412   1.195   0.664  0.2971 -0.1865  3.0025
  454SOL    HW2 1362   0.480   1.347   0.669  2.3990 -4.1475 -0.6857
  455SOL     OW 1363   3.031   2.874   0.185 -0.2953 -0.2581 -0.9453
  455SOL    HW1 1364   3.014   2.813   0.267  2.3605 -1.4596  0.9960
  455SOL    HW2 1365   0.054   2.899   0.185  1.6224  1.2381 -0.9478
  456SOL     OW 1366   2.321   2.100   0.802  0.2965 -0.2909  0.3349
  456SOL    HW1 1367   2.294   2.162   0.882  0.4874  0.2846  0.6782
  456SOL    HW2 1368   2.381   2.027   0.836  0.4800  2.2816 -0.2449
  457SOL     OW 1369   1.661   0.196   0.399 -0.1970 -0.7684  0.0415
  457SOL    HW1 1370   1.735   0.126   0.411 -1.6933 -1.7914 -2.5628
  457SOL    HW2 1371   1.567   0.153   0.408 -2.6876 -1.1194 -2.8362
  458SOL     OW 1372   2.496   2.962   0.395 -0.2928 -0.1920  0.2661
  458SOL    HW1 1373   2.594   2.924   0.393  2.1621  0.6792 -1.4472
  458SOL    HW2 1374   2.430   2.895   0.360 -1.1844  0.9946  1.9070
  459SOL     OW 1375   2.084   0.277   2.566 -0.7825 -0.0171 -0.2906
  459SOL    HW1 1376   2.038   0.298   2.653 -0.5614 -2.5145  2.3041
  459SOL    HW2 1377   2.026   0.203   2.528 -0.3945 -3.1968 -1.2965
  460SOL     OW 1378   2.831   0.113   0.059  0.4184  0.4747  0.5723
  460SOL    HW1 1379   2.935   0.119   0.070  0.6385  1.2895 -0.4323
  460SOL    HW2 1380   2.780   0.032   0.098 -0.0367  2.1795  0.3072
  461SOL     OW 1381   0.899   1.489   1.229  0.0009  0.4829 -0.6058
  461SOL    HW1 1382   0.855   1.534   1.313 -0.0102  1.3174 -2.6534
  461SOL    HW2 1383   0.991   1.523   1.211 -2.1518 -3.5301  0.5486
  462SOL     OW 1384   2.562   2.908   1.642  0.0103  0.0950 -0.2932
  462SOL    HW1 1385   2.623   2.970   1.690  1.2510 -0.9388  2.9121
  462SOL    HW2 1386   2.618   2.838   1.599 -0.2313 -1.4969  1.8988
  463SOL     OW 1387   2.702   1.020   2.847  0.1054 -0.0592 -0.0552
  463SOL    HW1 1388   2.669   1.084   2.770 -3.2568 -0.3519 -2.6060
  463SOL    HW2 1389   2.633   0.943   2.844 -1.3152 -2.7827  1.9398
  464SOL     OW 1390   0.291   2.469   1.342  0.3601  0.5678  0.1094
  464SOL    HW1 1391   0.306   2.555   1.286 -0.9825  0.3549  1.2301
  464SOL    HW2 1392   0.235   2.403   1.287  1.0160 -0.3137  0.5212
  465SOL     OW 1393   0.423   1.520   0.624  0.4595 -0.6794 -0.0702
  465SOL    HW1 1394   0.510   1.530   0.570 -1.5294  1.2436 -2.3137
  465SOL    HW2 1395   0.344   1.538   0.567  2.4935  1.9025 -0.1294
  466SOL     OW 1396   1.075   0.435   2.179  0.0216  0.5881  0.1355
  466SOL    HW1 1397   1.161   0.426   2.237  1.6327 -0.0036  2.3010
  466SOL    HW2 1398   1.081   0.377   2.096 -2.2656 -0.8255 -0.6918
  467SOL     OW 1399   0.852   0.810   2.216  0.3940 -0.0821  0.0383
  467SOL    HW1 1400   0.798   0.892   2.194  0.5438 -1.8543 -0.3402
  467SOL    HW2 1401   0.903   0.827   2.303 -0.3256 -0.8262  1.3711
  468SOL     OW 1402   0.129   0.957   2.529  0.1906  0.6021  0.0274
  468SOL    HW1 1403   0.120   0.996   2.434 -2.8633 -2.4388 -0.4117
  468SOL    HW2 1404   0.083   1.018   2.597  0.0267 -1.7585  2.7701
  469SOL     OW 1405   0.220   2.083   0.444 -0.2370  0.6077 -0.0196
  469SOL    HW1 1406   0.319   2.067   0.417 -0.8667 -0.6328  0.1463
  469SOL    HW2 1407   0.162   2.091   0.361 -0.3149 -2.3577 -0.0070
  470SOL     OW 1408   2.744   1.598   2.490  0.1065  0.1322  0.3843
  470SOL    HW1 1409   2.646   1.609   2.463 -1.5496  0.0215 -1.3348
  470SOL    HW2 1410   2.766   1.625   2.586  2.0767  2.4645 -0.8536
  471SOL     OW 1411   1.617   0.688   2.182 -0.3502  0.3262 -0.0291
  471SOL    HW1 1412   1.557   0.618   2.141  2.9012  0.9224 -0.2953
  471SOL    HW2 1413   1.707   0.645   2.203 -1.8793 -0.1253 -1.9687
  472SOL     OW 1414   0.715   2.631   1.084 -0.4659  0.0425  0.1137
  472SOL    HW1 1415   0.753   2.568   1.151 -5.0330 -0.4557  0.3287
  472SOL    HW2 1416   0.638   2.580   1.034  1.5727 -3.2485 -1.5539
  473SOL     OW 1417   0.907   0.368   2.376 -1.0082  0.2254  0.5635
  473SOL    HW1 1418   0.825   0.422   2.346 -1.7684 -1.5942  2.8617
  473SOL    HW2 1419   0.981   0.375   2.308  0.1670  0.6937  1.2437
  474SOL     OW 1420   1.755   3.037   1.412 -0.7157 -0.5882  0.3510
  474SOL    HW1 1421   1.728   0.043   1.464  0.7622  2.6518 -0.1247
  474SOL    HW2 1422   1.685   2.966   1.410  1.6482 -0.7496 -1.7435
  475SOL     OW 1423   1.922   0.371   1.007 -0.1871  0.1699 -0.2468
  475SOL    HW1 1424   2.001   0.396   0.949  0.1040  0.6727  2.1672
  475SOL    HW2 1425   1.943   0.289   1.066 -2.4064  0.1175 -1.4961
  476SOL     OW 1426   0.430   0.888   1.008  0.0365  0.1507 -0.1115
  476SOL    HW1 1427   0.398   0.963   1.071 -1.5143 -0.6087 -1.2536
  476SOL    HW2 1428   0.511   0.831   1.043  1.8649  0.0018 -0.3944
  477SOL     OW 1429   1.292   2.562   0.483  0.1561  0.0593 -0.2178
  477SOL    HW1 1430   1.359   2.616   0.541  1.9727 -3.0925  1.5392
  477SOL    HW2 1431   1.330   2.469   0.477  0.9019  0.9326  1.2784
  478SOL     OW 1432   0.175   2.179   2.332 -0.8598  0.7725 -0.1731
  478SOL    HW1 1433   0.242   2.170   2.248  1.0140 -1.5402 -1.3402
  478SOL    HW2 1434   0.231   2.203   2.412  0.0270  0.3040 -2.0211
  479SOL     OW 1435   2.830   0.218   1.105  0.1950 -0.3338  0.4760
  479SOL    HW1 1436   2.768   0.297   1.129  0.8486  2.5329  1.4399
  479SOL    HW2 1437   2.925   0.230   1.125 -2.7756 -0.3841  1.5008
  480SOL     OW 1438   0.479   2.549   0.387  0.1415  0.5754 -0.7120
  480SOL    HW1 1439   0.557   2.605   0.345  1.7606  1.6127 -0.9483
  480SOL    HW2 1440   0.395   2.567   0.339  0.4420  1.5827 -1.1214
  481SOL     OW 1441   2.174   1.983   1.192 -0.3008 -0.0989 -0.2011
  481SOL    HW1 1442   2.239   1.961   1.118 -0.1308  0.3001  2.9845
  481SOL    HW2 1443   2.175   1.913   1.265  0.7437  0.7345 -1.2657
  482SOL     OW 1444   1.106   2.370   2.655  0.4551 -0.7226  0.1204
  482SOL    HW1 1445   1.166   2.375   2.572 -0.2229  0.4290  2.4419
  482SOL    HW2 1446   1.139   2.289   2.710  1.6979 -0.0158 -0.9940
  483SOL     OW 1447   0.629   2.334   2.255 -0.2724 -0.1632 -0.1597
  483SOL    HW1 1448   0.574   2.419   2.256  1.2701 -0.1740  0.8793
  483SOL    HW2 1449   0.690   2.323   2.174  0.9724 -0.7963  1.6333
  484SOL     OW 1450   0.927   0.582   1.472 -0.8110 -0.3926  0.1773
  484SOL    HW1 1451   0.926   0.524   1.555  0.2417  0.5895 -2.5678
  484SOL    HW2 1452   1.015   0.631   1.451  2.4195 -2.5441  1.1148
  485SOL     OW 1453   1.913   0.645   2.696  0.4703  0.3764  0.2723
  485SOL    HW1 1454   1.943   0.717   2.626 -2.0237  1.1801 -0.2116
  485SOL    HW2 1455   1.814   0.629   2.691 -2.7764 -1.4000 -0.1451
  486SOL     OW 1456   2.487   2.696   0.909  0.3160 -0.3481 -0.3574
  486SOL    HW1 1457   2.529   2.602   0.924 -0.4846  0.1157 -0.0157
  486SOL    HW2 1458   2.528   2.736   0.825  3.5881 -1.3433 -2.4590
  487SOL     OW 1459   0.925   2.394   1.629 -0.1812  0.7483 -0.5545
  487SOL    HW1 1460   0.981   2.392   1.716  1.3742  0.5591  2.2334
  487SOL    HW2 1461   0.826   2.369   1.656 -1.4502 -1.2555  0.7689
  488SOL     OW 1462   2.372   1.644   2.890 -0.7845  0.1946  0.7499
  488SOL    HW1 1463   2.363   1.608   2.795 -1.6319  0.5936 -1.2768
  488SOL    HW2 1464   2.417   1.570   2.950  1.5600  1.2568 -1.8607
  489SOL     OW 1465   1.964   2.990   1.248 -0.2540 -0.3718  0.8871
  489SOL    HW1 1466   2.001   2.896   1.228 -0.9099  1.8721 -1.4506
  489SOL    HW2 1467   1.889   2.972   1.318 -1.7668 -0.9529  1.1152
  490SOL     OW 1468   0.952   1.512   0.081 -0.2437 -0.0804 -0.4293
  490SOL    HW1 1469   1.034   1.545   0.137 -1.6559  0.5629  0.8294
  490SOL    HW2 1470   0.900   1.595   0.050  0.4171  0.7681 -1.4898
  491SOL     OW 1471   0.514   2.037   1.323 -0.1686  0.4106  0.8620
  491SOL    HW1 1472   0.464   2.046   1.407  1.9832 -1.8987 -2.0750
  491SOL    HW2 1473   0.599   1.979   1.340  0.4989  0.1718 -0.7313
  492SOL     OW 1474   0.894   1.675   1.798 -0.0485  0.0527  0.3385
  492SOL    HW1 1475   0.992   1.689   1.778 -0.0449 -0.5201 -1.9757
  492SOL    HW2 1476   0.861   1.732   1.871  2.2595 -1.6373 -1.8777
  493SOL     OW 1477   2.868   2.152   0.755 -0.0201  0.4666  0.6862
  493SOL    HW1 1478   2.787   2.111   0.708  0.7925  2.1862  2.7207
  493SOL    HW2 1479   2.952   2.094   0.750 -0.8761  1.9945 -1.5912
  494SOL     OW 1480   2.669   2.040   0.637  0.1607 -0.2181 -0.6205
  494SOL    HW1 1481   2.592   2.074   0.586  1.4180 -1.6664  1.2438
  494SOL    HW2 1482   2.670   1.935   0.638  0.1478 -1.5223 -0.1329
  495SOL     OW 1483   2.762   2.944   0.143  0.2990  0.0933 -0.7128
  495SOL    HW1 1484   2.853   2.910   0.113 -0.6508 -0.2129  0.0224
  495SOL    HW2 1485   2.755   2.918   0.244  1.6538  2.6504  0.2805
  496SOL     OW 1486   2.471   3.057   1.141  0.1911 -0.0755 -0.3201
  496SOL    HW1 1487   2.472   0.026   1.050  1.1382  2.0371 -0.3594
  496SOL    HW2 1488   2.425   0.025   1.222  0.4797  0.2542  2.9765
  497SOL     OW 1489   2.589   0.850   2.597  0.9619  0.0452 -0.0064
  497SOL    HW1 1490   2.668   0.916   2.593  0.5813  0.2177  1.8532
  497SOL    HW2 1491   2.542   0.836   2.687 -1.3849 -1.6584  0.2203
  498SOL     OW 1492   2.898   1.961   1.458 -0.0986 -0.7083 -0.2590
  498SOL    HW1 1493   2.887   1.958   1.562  0.5477 -1.3547 -3.4322
  498SOL    HW2 1494   2.980   2.022   1.450  1.5227 -0.4750  1.1316
  499SOL     OW 1495   0.828   2.364   2.657 -0.3934  0.4959  0.0985
  499SOL    HW1 1496   0.886   2.326   2.727 -1.7694 -0.6885  0.6525
  499SOL    HW2 1497   0.854   2.321   2.565  0.8046 -0.6087  0.0098
  500SOL     OW 1498   1.658   0.666   0.286 -0.2844  0.2982  0.3587
  500SOL    HW1 1499   1.684   0.760   0.325  1.3712 -0.2226  0.7200
  500SOL    HW2 1500   1.659   0.591   0.355  2.9511  1.7444 -0.7036
  501SOL     OW 1501   1.395   0.381   1.653 -0.4835 -0.2209 -0.5260
  501SOL    HW1 1502   1.448   0.464   1.631  1.7497  1.1453  1.3515
  501SOL    HW2 1503   1.437   0.339   1.732  2.2994 -0.2750 -0.7496
  502SOL     OW 1504   2.227   0.507   1.667 -0.0822 -0.5246 -0.1254
  502SOL    HW1 1505   2.254   0.605   1.660 -0.9618  0.8177 -1.4329
  502SOL    HW2 1506   2.190   0.474   1.582 -0.2473 -0.5635 -0.8618
  503SOL     OW 1507   2.313   1.759   1.957 -0.1521 -0.0226  0.4520
  503SOL    HW1 1508   2.276   1.780   1.867  0.6341  1.1125  0.3399
  503SOL    HW2 1509   2.250   1.793   2.032 -0.8775 -1.6284 -0.1057
  504SOL     OW 1510   1.465   1.162   1.732 -0.2384  0.3160 -0.4396
  504SOL    HW1 1511   1.566   1.144   1.740  2.8661 -3.3432 -0.3296
  504SOL    HW2 1512   1.409   1.101   1.671 -1.8102 -1.2195 -1.0259
  505SOL     OW 1513   0.594   0.578   1.681  0.0579 -0.6206 -0.0763
  505SOL    HW1 1514   0.593   0.538   1.776 -1.0260 -0.6576  1.0904
  505SOL    HW2 1515   0.611   0.676   1.691  2.1974 -4.4831 -0.6703
  506SOL     OW 1516   0.348   0.337   2.734  0.1974 -0.2962  0.2987
  506SOL    HW1 1517   0.281   0.278   2.788  1.3634  0.9320  0.4367
  506SOL    HW2 1518   0.374   0.418   2.790 -0.1228  1.3482  3.8568
  507SOL     OW 1519   0.430   0.086   0.380 -0.0560 -0.5766  0.4866
  507SOL    HW1 1520   0.353   0.054   0.439 -2.9378  0.8657 -1.3966
  507SOL    HW2 1521   0.400   0.154   0.312  3.2175 -1.6020 -0.2867
  508SOL     OW 1522   0.654   0.841   1.767 -0.7176  0.2543  0.2505
  508SOL    HW1 1523   0.592   0.915   1.759  2.1343 -1.4557 -4.2666
  508SOL    HW2 1524   0.722   0.858   1.840 -1.9107  1.1967  3.2104
  509SOL     OW 1525   1.434   2.422   1.061 -0.0168 -0.4944  0.4004
  509SOL    HW1 1526   1.522   2.433   1.109  0.9050  1.2419  0.2841
  509SOL    HW2 1527   1.462   2.402   0.958  2.1723 -2.1478 -1.3575
  510SOL     OW 1528   2.729   1.446   1.614 -0.7942 -0.1643 -0.3033
  510SOL    HW1 1529   2.807   1.471   1.550 -1.7859 -0.1698 -0.8231
  510SOL    HW2 1530   2.692   1.523   1.668 -0.2178  0.6045  0.3272
  511SOL     OW 1531   1.065   2.172   1.498  0.4355 -0.5381 -0.0197
  511SOL    HW1 1532   1.156   2.205   1.459  1.7657 -0.3245  2.7285
  511SOL    HW2 1533   1.024   2.235   1.565  3.0330 -2.0232  0.7964
  512SOL     OW 1534   2.990   1.718   0.718 -0.1093 -0.2708 -0.2435
  512SOL    HW1 1535   3.028   1.641   0.773  2.4059  2.1113  2.2868
  512SOL    HW2 1536   3.043   1.742   0.637  3.4864  4.6214 -1.5635
  513SOL     OW 1537   2.989   1.630   2.870 -0.4496 -0.0395 -0.0735
  513SOL    HW1 1538   3.009   1.732   2.892  1.4352  3.4831  1.5757
  513SOL    HW2 1539   3.071   1.566   2.888  0.9358 -2.2563 -0.4688
  514SOL     OW 1540   2.396   1.874   2.434  0.0407  0.5268 -0.1109
  514SOL    HW1 1541   2.364   1.864   2.532 -0.4126  1.2944  2.6328
  514SOL    HW2 1542   2.381   1.968   2.393  0.2523 -1.6338 -0.8852
  515SOL     OW 1543   2.392   1.020   0.753  0.1888  0.2695  0.0208
  515SOL    HW1 1544   2.389   0.940   0.813  0.7980  0.6494 -1.7856
  515SOL    HW2 1545   2.481   1.073   0.775 -0.8174  2.5572 -1.3217
  516SOL     OW 1546   2.484   1.817   0.105  0.2079  0.2744  0.0105
  516SOL    HW1 1547   2.422   1.865   0.041 -1.0223 -1.6310  2.2883
  516SOL    HW2 1548   2.534   1.743   0.053  1.8598  1.5296 -1.7940
  517SOL     OW 1549   0.535   1.398   2.905 -0.4318 -0.0619  0.4916
  517SOL    HW1 1550   0.587   1.453   2.976  0.0375 -2.0254  0.9113
  517SOL    HW2 1551   0.459   1.346   2.930  2.7741  0.5363 -1.2265
  518SOL     OW 1552   2.665   0.078   2.291 -0.4681 -0.2709  0.2137
  518SOL    HW1 1553   2.640   0.175   2.307  2.7545  1.9714 -1.3719
  518SOL    HW2 1554   2.660   0.027   2.381 -1.3069 -1.2633  2.0732
  519SOL     OW 1555   1.739   1.250   2.922 -0.0444  0.2283 -0.0851
  519SOL    HW1 1556   1.653   1.200   2.910  2.8676 -0.8914  0.6149
  519SOL    HW2 1557   1.724   1.348   2.942 -1.1795 -1.3096 -0.3610
  520SOL     OW 1558   2.589   2.806   2.329  0.0959 -0.0891 -0.1807
  520SOL    HW1 1559   2.571   2.848   2.234 -2.0217  1.4412  0.3848
  520SOL    HW2 1560   2.611   2.710   2.321  1.9286 -0.5016 -1.8940
  521SOL     OW 1561   0.360   1.622   2.347  0.4704 -0.1395  0.1553
  521SOL    HW1 1562   0.388   1.705   2.401  1.0390  0.2993 -1.1863
  521SOL    HW2 1563   0.354   1.649   2.245 -0.1145 -1.0164 -1.7302
  522SOL     OW 1564   1.259   2.748   2.062 -0.3135 -0.1522  0.2034
  522SOL    HW1 1565   1.340   2.704   2.012  3.2119 -2.1853 -0.2553
  522SOL    HW2 1566   1.193   2.779   1.989  1.6000 -0.4661 -1.5287
  523SOL     OW 1567   2.664   2.152   1.010  0.5692 -0.2330 -0.0210
  523SOL    HW1 1568   2.684   2.233   1.064 -1.3777 -1.7794 -1.9073
  523SOL    HW2 1569   2.673   2.163   0.912  1.3661 -1.3161  1.9983
  524SOL     OW 1570   1.623   2.145   0.651 -0.2767 -0.3773  0.2708
  524SOL    HW1 1571   1.617   2.046   0.689 -1.6292 -1.3506 -0.9450
  524SOL    HW2 1572   1.554   2.148   0.572 -0.0760  0.9834 -2.1064
  525SOL     OW 1573   2.957   0.549   0.699 -0.0768 -0.2500  0.4505
  525SOL    HW1 1574   2.903   0.583   0.778  0.8177  1.3878  0.0689
  525SOL    HW2 1575   2.910   0.474   0.655  1.1292  0.3206  0.8510
  526SOL     OW 1576   1.548   2.918   0.999  0.5966 -0.0522 -0.0899
  526SOL    HW1 1577   1.501   2.976   0.932 -1.8790  0.5029 -1.3528
  526SOL    HW2 1578   1.608   2.974   1.061  1.2962  0.1919  1.9322
  527SOL     OW 1579   2.089   1.829   0.879 -0.2127 -0.0388 -0.0814
  527SOL    HW1 1580   2.112   1.833   0.779 -2.2723 -0.1260 -1.4706
  527SOL    HW2 1581   2.152   1.760   0.921 -1.1976 -1.3037  0.2244
  528SOL     OW 1582   2.312   0.013   2.867 -0.1363  0.2312 -0.5520
  528SOL    HW1 1583   2.278   3.003   2.899 -0.7956 -1.2191 -1.6759
  528SOL    HW2 1584   2.336   0.073   2.946 -1.0842 -0.1106 -0.7038
  529SOL     OW 1585   1.104   1.293   2.527 -0.1705  0.0453 -0.1229
  529SOL    HW1 1586   1.170   1.364   2.564 -0.3469 -2.0232  0.6756
  529SOL    HW2 1587   1.014   1.302   2.581 -0.0523 -0.9071  1.2556
  530SOL     OW 1588   2.104   0.955   2.220 -0.3857 -0.0706 -0.0290
  530SOL    HW1 1589   2.172   0.879   2.219 -0.1287  1.8575  0.2187
  530SOL    HW2 1590   2.041   0.943   2.138  2.3623 -0.2067 -0.4853
  531SOL     OW 1591   0.210   0.979   0.056  0.1561 -0.0512  0.3309
  531SOL    HW1 1592   0.284   1.044   0.083  0.0461  1.2813 -0.2390
  531SOL    HW2 1593   0.217   0.951   3.036 -1.5894 -1.8433 -1.3751
  532SOL     OW 1594   1.397   1.434   0.405 -0.1848 -0.3266  0.1005
  532SOL    HW1 1595   1.431   1.371   0.479 -0.0963  1.3624  0.3634
  532SOL    HW2 1596   1.305   1.470   0.431  1.1006 -1.0135  2.1654
  533SOL     OW 1597   0.262   0.481   2.292  0.5278  0.3205 -0.0750
  533SOL    HW1 1598   0.325   0.512   2.223 -0.5642 -0.5280  0.1744
  533SOL    HW2 1599   0.310   0.451   2.377  1.5267  0.4787  1.4397
  534SOL     OW 1600   1.386   0.597   2.447 -0.2285 -0.2261  0.6322
  534SOL    HW1 1601   1.300   0.597   2.504 -3.0377 -1.5602 -1.5181
  534SOL    HW2 1602   1.445   0.679   2.460  0.1226 -1.7109  0.8141
  535SOL     OW 1603   0.500   0.524   0.265 -0.3308  0.2185 -0.3848
  535SOL    HW1 1604   0.589   0.558   0.292 -2.8329  0.1164 -1.1326
  535SOL    HW2 1605   0.467   0.581   0.190 -0.9567  0.7091 -0.3529
  536SOL     OW 1606   0.423   0.662   0.037 -0.8175  0.2823  0.2716
  536SOL    HW1 1607   0.438   0.763   0.038  0.0876  0.5382 -0.2783
  536SOL    HW2 1608   0.481   0.617   3.043  0.3186 -3.1017  0.5861
  537SOL     OW 1609   1.522   0.010   1.683  0.2252  0.0146  0.0316
  537SOL    HW1 1610   1.446   3.064   1.619  0.0150 -1.1237  0.1012
  537SOL    HW2 1611   1.590   0.071   1.632  1.9240  2.2751  4.0556
  538SOL     OW 1612   0.503   2.746   0.022  0.1404 -0.1414 -0.0614
  538SOL    HW1 1613   0.437   2.824   0.015  0.4088  2.9319 -1.1241
  538SOL    HW2 1614   0.480   2.668   3.037 -0.7608  0.4286  1.0413
  539SOL     OW 1615   2.807   1.245   1.890  0.5345 -0.7878 -0.0535
  539SOL    HW1 1616   2.861   1.238   1.803 -0.4281  0.6521  0.4235
  539SOL    HW2 1617   2.765   1.340   1.903  0.7891 -0.1483  0.7138
  540SOL     OW 1618   2.202   1.744   1.338 -0.1676 -0.3216  0.8874
  540SOL    HW1 1619   2.300   1.757   1.318 -0.5504  1.4259  0.8130
  540SOL    HW2 1620   2.151   1.695   1.263 -0.9125 -2.2593  1.6714
  541SOL     OW 1621   0.657   2.284   1.689  0.2509 -0.2052 -0.0548
  541SOL    HW1 1622   0.650   2.340   1.599 -0.9183  3.3922 -2.3290
  541SOL    HW2 1623   0.593   2.325   1.756  2.4274 -1.8482  1.8411
  542SOL     OW 1624   2.205   0.907   1.887  0.1541  0.2078 -0.2251
  542SOL    HW1 1625   2.199   0.838   1.811  0.7231  0.7462  1.7012
  542SOL    HW2 1626   2.239   0.857   1.970 -0.1050  0.3079 -0.9771
  543SOL     OW 1627   1.062   0.479   0.625 -0.1856 -0.2539  0.0741
  543SOL    HW1 1628   1.037   0.548   0.554  0.3579 -0.7515 -1.7517
  543SOL    HW2 1629   0.992   0.486   0.699 -2.4004 -1.0286 -0.5510
  544SOL     OW 1630   2.004   1.800   1.509  0.6433  0.2520  0.1965
  544SOL    HW1 1631   1.935   1.822   1.439  1.6474 -1.2940 -2.7412
  544SOL    HW2 1632   2.092   1.777   1.464  0.6454 -2.5655  0.1411
  545SOL     OW 1633   1.596   1.576   1.235  0.2195  0.2176 -0.0490
  545SOL    HW1 1634   1.513   1.548   1.289 -0.9715 -0.7745  0.5894
  545SOL    HW2 1635   1.671   1.589   1.303 -1.1666  2.3147  0.6161
  546SOL     OW 1636   0.209   0.180   2.924 -0.3479 -0.3576  0.6694
  546SOL    HW1 1637   0.128   0.218   2.972  0.0779  0.2302  2.2831
  546SOL    HW2 1638   0.288   0.188   2.979 -4.6127 -1.3803 -1.8776
  547SOL     OW 1639   2.320   0.435   2.908  0.3038 -0.1993  0.4841
  547SOL    HW1 1640   2.321   0.391   2.816  0.5633 -0.0878 -1.4601
  547SOL    HW2 1641   2.233   0.490   2.917  0.1553  0.0482  2.9895
  548SOL     OW 1642   2.650   2.142   2.136 -0.5138 -0.0237  0.4815
  548SOL    HW1 1643   2.598   2.094   2.208  3.0903 -3.0697  0.0547
  548SOL    HW2 1644   2.738   2.183   2.164  1.5573  0.0946  0.4438
  549SOL     OW 1645   2.257   3.012   0.805  0.0190  0.2807 -0.1702
  549SOL    HW1 1646   2.268   2.953   0.718 -1.8427 -4.2393 -0.2079
  549SOL    HW2 1647   2.195   2.968   0.872 -4.5426 -0.9408 -0.6693
  550SOL     OW 1648   2.561   1.070   0.221  0.4922  0.3759  0.0005
  550SOL    HW1 1649   2.535   1.009   0.140 -0.7496 -2.5568  0.0499
  550SOL    HW2 1650   2.488   1.135   0.249  0.7094 -0.2891  0.7188
  551SOL     OW 1651   1.344   3.066   1.498  0.0013  0.5401  0.1821
  551SOL    HW1 1652   1.332   2.975   1.454 -0.3684 -0.0595  1.3940
  551SOL    HW2 1653   1.263   0.047   1.485  3.0437 -0.9797 -1.9845
  552SOL     OW 1654   2.791   2.615   3.045  0.1663  0.3088  0.2641
  552SOL    HW1 1655   2.822   2.651   2.948 -0.8794  1.5885 -4.6761
  552SOL    HW2 1656   2.699   2.647   3.076  1.8098  3.3362 -1.0000
  553SOL     OW 1657   0.639   3.058   0.658  0.8323 -0.0617  0.7955
  553SOL    HW1 1658   0.660   0.034   0.739 -0.8479 -2.5386 -0.3823
  553SOL    HW2 1659   0.705   2.982   0.646  0.3628 -1.8633 -0.3541
  554SOL     OW 1660   1.926   2.175   1.652 -0.1497 -0.3462 -0.4695
  554SOL    HW1 1661   1.877   2.153   1.734  2.7671 -3.2540  0.7310
  554SOL    HW2 1662   1.870   2.162   1.567 -0.3098  1.8645  0.4660
  555SOL     OW 1663   1.549   2.396   1.848 -0.4598 -0.4354 -0.3730
  555SOL    HW1 1664   1.651   2.398   1.867  3.1304  0.5056 -2.0832
  555SOL    HW2 1665   1.520   2.300   1.826 -3.1600 -0.4309  1.7572
  556SOL     OW 1666   1.677   1.742   0.594 -0.3758  0.1839  0.0746
  556SOL    HW1 1667   1.686   1.798   0.678  0.4961  0.3050  0.7284
  556SOL    HW2 1668   1.583   1.742   0.557 -3.1920  0.6767  0.6392
  557SOL     OW 1669   1.465   2.117   2.045 -0.5680  0.2965  0.2664
  557SOL    HW1 1670   1.395   2.102   1.971  0.6517 -0.2538 -0.7968
  557SOL    HW2 1671   1.516   2.035   2.066  0.8430 -0.3498  1.3700
  558SOL     OW 1672   0.102   0.409   2.078 -0.0226 -0.3594  0.5606
  558SOL    HW1 1673   0.135   0.314   2.065  0.7872  3.4925  1.9856
  558SOL    HW2 1674   0.148   0.453   2.156  0.5589  1.1525  2.0992
  559SOL     OW 1675   2.163   2.955   2.006 -0.0848 -0.0967 -0.1558
  559SOL    HW1 1676   2.222   2.877   1.981 -1.5605 -1.8775 -1.1874
  559SOL    HW2 1677   2.173   2.960   2.104 -1.3426  1.2902 -2.4900
  560SOL     OW 1678   0.428   3.035   0.020  0.5464  0.5022 -0.0253
  560SOL    HW1 1679   0.424   0.054   0.020  0.0604 -1.2392 -0.7705
  560SOL    HW2 1680   0.419   2.999   3.004  0.2113  0.5637  1.6806
  561SOL     OW 1681   1.285   1.127   0.272  0.2357 -0.0651  0.6111
  561SOL    HW1 1682   1.248   1.071   0.189 -0.5428 -0.8062 -2.4654
  561SOL    HW2 1683   1.204   1.126   0.341 -1.0076 -2.8869 -1.8079
  562SOL     OW 1684   0.754   1.138   2.384  0.2679 -0.7433 -0.4088
  562SOL    HW1 1685   0.706   1.225   2.418 -0.6323  1.8093 -2.8848
  562SOL    HW2 1686   0.794   1.090   2.467 -1.5764  1.1104 -1.0942
  563SOL     OW 1687   1.691   2.225   2.805 -0.3864  0.5238 -0.1564
  563SOL    HW1 1688   1.591   2.244   2.824 -1.0194 -0.0288 -1.8787
  563SOL    HW2 1689   1.715   2.258   2.714  0.7781 -0.8107  1.4734
  564SOL     OW 1690   0.007   1.886   0.475  0.1447  0.2901  0.0455
  564SOL    HW1 1691   0.093   1.937   0.474  0.1359 -2.8040 -0.3078
  564SOL    HW2 1692   3.016   1.950   0.445  0.4131  0.6811 -0.8028
  565SOL     OW 1693   1.098   2.920   2.761  0.0339 -0.1549  0.0878
  565SOL    HW1 1694   1.117   2.946   2.859  2.1892  0.3044 -3.3671
  565SOL    HW2 1695   1.086   2.820   2.744 -0.5924  0.0874  0.0328
  566SOL     OW 1696   1.688   2.610   2.835 -0.1299  0.1947 -0.1571
  566SOL    HW1 1697   1.739   2.668   2.774  0.4562 -0.7584  1.0483
  566SOL    HW2 1698   1.642   2.650   2.917 -2.0148 -0.3938  0.1303
  567SOL     OW 1699   2.436   1.174   1.056  0.2124 -1.1367 -0.4578
  567SOL    HW1 1700   2.496   1.149   0.977 -1.9595 -0.3870 -1.1457
  567SOL    HW2 1701   2.400   1.268   1.038 -2.3074 -2.7200  3.5491
  568SOL     OW 1702   2.193   1.186   2.881  0.3270 -0.0414 -0.0378
  568SOL    HW1 1703   2.108   1.155   2.833 -1.5092  3.4099 -0.8278
  568SOL    HW2 1704   2.168   1.263   2.944 -1.7609  0.3904 -0.1640
  569SOL     OW 1705   2.135   1.608   2.332 -0.4590  0.0634 -0.1904
  569SOL    HW1 1706   2.202   1.594   2.259 -1.2945  2.2244  2.4050
  569SOL    HW2 1707   2.044   1.633   2.294 -0.7109  0.3711 -0.1487
  570SOL     OW 1708   2.862   2.541   1.978  0.3329 -0.6645 -0.2288
  570SOL    HW1 1709   2.858   2.503   2.066 -0.1205  2.6508 -3.3717
  570SOL    HW2 1710   2.924   2.484   1.926 -1.7894  1.4004  0.9848
  571SOL     OW 1711   0.448   0.164   1.948  0.4946  0.6855 -0.0151
  571SOL    HW1 1712   0.499   0.215   2.016 -1.3680  2.1768 -0.8531
  571SOL    HW2 1713   0.457   0.208   1.856 -0.9100  3.2983  1.9464
  572SOL     OW 1714   1.151   1.963   1.048 -0.1657 -0.2685 -0.1569
  572SOL    HW1 1715   1.199   1.876   1.038  1.7275  1.1548 -2.8076
  572SOL    HW2 1716   1.201   2.038   1.098 -2.1654  1.8492 -0.1716
  573SOL     OW 1717   1.158   0.432   0.289 -0.2329  0.3991 -0.1372
  573SOL    HW1 1718   1.096   0.492   0.346  0.1584  2.4965 -3.0188
  573SOL    HW2 1719   1.171   0.477   0.195  1.8007  1.1503  0.7049
  574SOL     OW 1720   0.678   2.986   0.316  0.0847 -0.6588  0.2813
  574SOL    HW1 1721   0.593   3.036   0.344 -0.1556 -0.3985  0.1408
  574SOL    HW2 1722   0.735   2.961   0.399 -0.6861  0.7269 -0.7025
  575SOL     OW 1723   0.244   1.391   1.276 -0.5079  0.2367 -0.1901
  575SOL    HW1 1724   0.264   1.470   1.339 -1.1015  0.0792  3.8460
  575SOL    HW2 1725   0.311   1.383   1.201  2.5157 -0.8167  0.7013
  576SOL     OW 1726   2.619   0.244   1.850 -0.5309 -0.0979 -0.3330
  576SOL    HW1 1727   2.684   0.217   1.922 -1.3368 -1.0831  2.5964
  576SOL    HW2 1728   2.529   0.198   1.858 -0.9394 -1.1290  3.5283
  577SOL     OW 1729   2.680   1.667   1.806 -0.7022  0.9584 -0.4262
  577SOL    HW1 1730   2.646   1.733   1.877 -1.0701 -0.1606 -2.4183
  577SOL    HW2 1731   2.755   1.613   1.845  1.1901  2.5758  0.4227
  578SOL     OW 1732   1.177   0.028   2.143  0.3190  0.1004  0.6854
  578SOL    HW1 1733   1.183   0.003   2.242 -0.1862 -2.2897  0.1795
  578SOL    HW2 1734   1.249   3.054   2.094  1.1055  0.6158  0.4213
  579SOL     OW 1735   2.197   2.100   1.926 -0.3271 -0.1738  0.1266
  579SOL    HW1 1736   2.195   2.063   1.833 -0.1761  0.0417  0.5521
  579SOL    HW2 1737   2.176   2.199   1.931 -0.8039 -0.7250 -1.9370
  580SOL     OW 1738   1.816   1.232   1.997  0.1798  0.2624  0.3869
  580SOL    HW1 1739   1.914   1.200   1.968  1.8086  0.8757  0.8900
  580SOL    HW2 1740   1.788   1.321   1.949 -0.4908  1.2983 -1.1832
  581SOL     OW 1741   1.506   1.082   2.359 -0.2561 -0.3876  0.4096
  581SOL    HW1 1742   1.508   1.106   2.262 -1.3173  1.2661  1.9657
  581SOL    HW2 1743   1.578   1.127   2.420 -1.0776 -1.1004  0.2240
  582SOL     OW 1744   0.007   2.439   1.778  0.2110  0.1880  0.1268
  582SOL    HW1 1745   0.069   2.471   1.700  1.3682  1.9459 -1.6354
  582SOL    HW2 1746   3.067   2.339   1.780  0.6897 -0.2403  1.4754
  583SOL     OW 1747   1.636   1.134   0.723  0.0110 -0.0416 -0.6835
  583SOL    HW1 1748   1.720   1.162   0.674 -0.2177  1.4131  1.2267
  583SOL    HW2 1749   1.647   1.041   0.763 -1.6502 -3.6851 -1.7595
  584SOL     OW 1750   0.791   2.429   0.259  0.3353  0.1108  0.1124
  584SOL    HW1 1751   0.833   2.458   0.345  0.3369 -1.9750  0.5723
  584SOL    HW2 1752   0.833   2.469   0.176 -0.3029 -1.4947  0.3452
  585SOL     OW 1753   0.012   2.609   0.014 -0.2435 -0.0030  0.5441
  585SOL    HW1 1754   3.041   2.695   0.034 -0.8933  1.0178 -1.1700
  585SOL    HW2 1755   0.057   2.612   3.000 -2.0492 -0.1455  2.2553
  586SOL     OW 1756   2.424   1.009   0.488  0.1822  0.0323 -0.2222
  586SOL    HW1 1757   2.416   1.022   0.589  0.5242  1.6359 -0.7789
  586SOL    HW2 1758   2.446   1.095   0.437  0.6181  0.6100 -0.5126
  587SOL     OW 1759   2.902   1.454   0.291  0.1908  0.6333  0.0281
  587SOL    HW1 1760   2.942   1.530   0.236  2.1603  2.2642 -1.6519
  587SOL    HW2 1761   2.974   1.430   0.359  1.1557  1.5614  0.4603
  588SOL     OW 1762   0.357   0.316   0.732 -0.1183  0.2483 -0.6294
  588SOL    HW1 1763   0.412   0.321   0.647  0.0972 -0.6512 -1.1365
  588SOL    HW2 1764   0.260   0.349   0.717  2.0765  0.7524 -1.4068
  589SOL     OW 1765   1.515   0.083   0.815  0.3672  0.5599 -0.5634
  589SOL    HW1 1766   1.417   0.107   0.799  3.5004 -0.8145 -0.4589
  589SOL    HW2 1767   1.571   0.165   0.801 -0.3137 -1.1321  0.3414
  590SOL     OW 1768   2.530   2.125   0.320  0.1061 -0.1605  0.2114
  590SOL    HW1 1769   2.451   2.094   0.261 -1.4089 -2.2871 -4.9086
  590SOL    HW2 1770   2.498   2.160   0.413 -0.5019 -0.2061  1.1445
  591SOL     OW 1771   0.159   2.175   1.938 -0.4922  0.1481 -0.2718
  591SOL    HW1 1772   0.171   2.084   1.977 -2.0926  2.7910  0.6461
  591SOL    HW2 1773   0.081   2.177   1.873  2.3441 -0.8065  1.2629
  592SOL     OW 1774   0.120   1.631   2.172 -0.4476  0.2216  0.4003
  592SOL    HW1 1775   0.025   1.627   2.145  1.6429 -0.1422 -2.2587
  592SOL    HW2 1776   0.146   1.725   2.203  2.4183 -0.0030 -0.2967
  593SOL     OW 1777   1.486   1.968   1.519  0.3064 -0.4329 -0.0421
  593SOL    HW1 1778   1.388   1.962   1.520  2.4624  1.0050  0.4294
  593SOL    HW2 1779   1.533   1.884   1.544 -0.7905  1.8133 -0.1072
  594SOL     OW 1780   0.472   1.252   2.667 -0.3112  0.8977  0.4338
  594SOL    HW1 1781   0.437   1.162   2.698  1.5298  1.8965  0.1126
  594SOL    HW2 1782   0.537   1.290   2.733 -1.9759  1.3659 -2.0491
  595SOL     OW 1783   1.671   0.613   0.888  0.7820 -0.2112 -0.7380
  595SOL    HW1 1784   1.569   0.596   0.896  1.6876  2.4387 -0.7133
  595SOL    HW2 1785   1.718   0.614   0.979 -2.2507  0.2631 -2.8255
  596SOL     OW 1786   0.349   1.111   1.143  0.0131  0.4229 -0.1307
  596SOL    HW1 1787   0.358   1.189   1.074  1.9891  0.6718 -1.7603
  596SOL    HW2 1788   0.385   1.136   1.235 -0.8142  0.5331 -1.2019
  597SOL     OW 1789   0.177   2.522   2.329 -0.2517 -0.0269  0.3490
  597SOL    HW1 1790   0.226   2.605   2.370  0.0158  2.2486  1.2387
  597SOL    HW2 1791   0.237   2.437   2.333  0.1922  0.6407 -2.0156
  598SOL     OW 1792   2.402   2.117   2.319 -0.2753  0.1701  0.2092
  598SOL    HW1 1793   2.338   2.169   2.259  0.4895  3.3998 -0.4541
  598SOL    HW2 1794   2.451   2.177   2.381  0.1056 -1.3537 -0.1264
  599SOL     OW 1795   1.120   1.140   0.492  0.0442 -0.3059  0.6219
  599SOL    HW1 1796   1.108   1.236   0.485  0.7455 -0.8776 -0.2781
  599SOL    HW2 1797   1.173   1.130   0.577 -1.1147 -0.5540  0.9167
  600SOL     OW 1798   1.659   0.464   0.471 -0.5058 -0.1279 -0.2669
  600SOL    HW1 1799   1.679   0.367   0.451 -1.4332  2.9787  0.3152
  600SOL    HW2 1800   1.561   0.473   0.494  1.9704 -1.2297  2.5538
  601SOL     OW 1801   0.416   0.277   1.708  0.0244  0.0938 -0.4160
  601SOL    HW1 1802   0.363   0.360   1.724  2.0207  0.0145 -1.6328
  601SOL    HW2 1803   0.359   0.207   1.664 -2.8388 -0.8040 -0.3138
  602SOL     OW 1804   0.476   2.403   0.619  0.4256 -0.5725  0.0485
  602SOL    HW1 1805   0.565   2.384   0.658 -2.3749 -0.1505  0.7914
  602SOL    HW2 1806   0.483   2.452   0.529 -1.8286  2.3560 -0.5789
  603SOL     OW 1807   1.060   2.896   2.490 -0.0875 -0.2336  0.1276
  603SOL    HW1 1808   1.080   2.912   2.586  0.8913  1.9943 -1.4680
  603SOL    HW2 1809   1.118   2.954   2.429  1.7748  0.8406 -0.6076
  604SOL     OW 1810   0.981   2.507   0.025 -0.1877 -0.7135 -0.5686
  604SOL    HW1 1811   1.049   2.531   0.096 -3.2104 -0.0326 -1.1401
  604SOL    HW2 1812   0.941   2.593   3.070  1.8171 -0.7209 -1.1514
  605SOL     OW 1813   1.860   1.416   1.669  0.1830  0.3173  0.3342
  605SOL    HW1 1814   1.855   1.509   1.701 -0.5547 -4.1601  0.8823
  605SOL    HW2 1815   1.916   1.356   1.731 -2.8644 -0.3571 -2.6537
  606SOL     OW 1816   0.958   1.091   2.745  0.1674  0.8998  0.3148
  606SOL    HW1 1817   0.932   1.021   2.672 -1.2385 -1.3913 -1.2322
  606SOL    HW2 1818   0.920   1.182   2.713  1.0131 -2.0159  1.4717
  607SOL     OW 1819   0.845   1.119   1.139  0.4051 -0.0624 -0.7113
  607SOL    HW1 1820   0.802   1.054   1.201 -1.3298  3.2280  0.0283
  607SOL    HW2 1821   0.935   1.159   1.173  1.3322  1.2447  0.7473
  608SOL     OW 1822   2.619   2.124   1.874  0.5825  0.3425 -0.4114
  608SOL    HW1 1823   2.535   2.181   1.872 -2.4942  0.4126 -1.3652
  608SOL    HW2 1824   2.646   2.114   1.972  0.9351 -0.3073 -0.0379
  609SOL     OW 1825   2.149   0.134   0.114 -0.1859  0.0879  0.2209
  609SOL    HW1 1826   2.103   0.135   0.206 -0.7351 -2.3675  2.3016
  609SOL    HW2 1827   2.184   0.041   0.100 -1.7980  4.0736  1.7800
  610SOL     OW 1828   0.470   2.468   1.804 -0.4783 -0.0414 -0.4733
  610SOL    HW1 1829   0.450   2.495   1.903 -2.3980  0.5643  0.4912
  610SOL    HW2 1830   0.526   2.541   1.755 -0.7664  0.1811  1.9734
  611SOL     OW 1831   1.369   1.772   1.157 -1.0880 -0.0487 -0.2434
  611SOL    HW1 1832   1.302   1.759   1.233  1.3407 -0.1489  1.6081
  611SOL    HW2 1833   1.451   1.721   1.186 -0.6014 -0.6206 -0.8793
  612SOL     OW 1834   0.486   0.049   2.288  0.0062  0.3342 -0.2683
  612SOL    HW1 1835   0.521   0.127   2.238 -1.2541  0.2513 -2.3389
  612SOL    HW2 1836   0.561   3.074   2.327 -4.5228  1.8634 -0.3253
  613SOL     OW 1837   2.763   1.083   0.394  0.9518 -0.0500 -1.0144
  613SOL    HW1 1838   2.684   1.065   0.329 -0.3181  1.1253 -1.0628
  613SOL    HW2 1839   2.767   1.012   0.466 -1.0893 -0.0774  0.2110
  614SOL     OW 1840   1.684   0.145   1.924 -0.1304  0.0116  0.0233
  614SOL    HW1 1841   1.745   0.165   1.844  0.0072  0.6359 -0.5660
  614SOL    HW2 1842   1.742   0.154   2.010  1.0624  0.1526  0.5616
  615SOL     OW 1843   0.834   1.580   1.494  0.0650 -0.3491 -0.0130
  615SOL    HW1 1844   0.914   1.572   1.559  1.1508  0.5958 -0.8233
  615SOL    HW2 1845   0.806   1.676   1.497  1.0820  1.7557  2.2593
  616SOL     OW 1846   1.541   1.916   3.028  0.1355 -0.0270 -0.6439
  616SOL    HW1 1847   1.551   1.855   0.031  2.0056 -2.2512 -1.7210
  616SOL    HW2 1848   1.629   1.957   3.012  2.0925 -0.8462  2.2178
  617SOL     OW 1849   2.153   2.962   0.399  0.4058 -0.8584 -0.1408
  617SOL    HW1 1850   2.072   2.906   0.419 -0.0792 -1.3995 -0.9244
  617SOL    HW2 1851   2.198   2.997   0.479 -0.3546  0.5105 -2.3230
  618SOL     OW 1852   0.648   0.786   2.558 -0.0549 -0.1740  0.4865
  618SOL    HW1 1853   0.616   0.839   2.639 -1.6797  1.4026 -1.1526
  618SOL    HW2 1854   0.575   0.788   2.485 -2.4827  1.9628  1.0620
  619SOL     OW 1855   2.437   1.426   0.857 -0.7041  0.1106 -0.4090
  619SOL    HW1 1856   2.351   1.475   0.839 -0.3536 -1.7609 -0.8540
  619SOL    HW2 1857   2.518   1.470   0.809  1.8120  2.9143 -0.5487
  620SOL     OW 1858   2.228   2.549   2.917  0.4573 -0.0790  0.0243
  620SOL    HW1 1859   2.131   2.527   2.938  2.5932 -0.3838  1.5718
  620SOL    HW2 1860   2.293   2.474   2.940 -0.7529  0.5941  0.3227
  621SOL     OW 1861   2.429   1.433   3.055 -0.4577  0.3858  0.5441
  621SOL    HW1 1862   2.332   1.409   3.047  3.1821 -1.5462  0.9858
  621SOL    HW2 1863   2.480   1.362   0.022 -1.0756  1.4518 -0.0593
  622SOL     OW 1864   1.467   2.485   2.181 -0.0467  0.7123  0.1109
  622SOL    HW1 1865   1.461   2.564   2.117 -0.4297  1.2297 -2.2028
  622SOL    HW2 1866   1.565   2.447   2.181  1.1514  1.3697  2.9260
  623SOL     OW 1867   0.792   1.728   0.349  0.7662  0.4582  0.2702
  623SOL    HW1 1868   0.860   1.795   0.316 -4.2543 -0.7953  0.4260
  623SOL    HW2 1869   0.701   1.756   0.312 -1.8009  0.0533  1.4585
  624SOL     OW 1870   0.424   0.236   0.005 -0.0617 -0.2642 -0.0291
  624SOL    HW1 1871   0.362   0.267   0.080 -0.4780 -0.2285 -0.3574
  624SOL    HW2 1872   0.509   0.294   3.076 -2.2651 -1.8978 -0.7585
  625SOL     OW 1873   0.830   1.838   0.593  0.3789 -0.2112  0.2562
  625SOL    HW1 1874   0.829   1.778   0.514 -1.0026  2.0187 -0.8952
  625SOL    HW2 1875   0.766   1.921   0.572 -0.1940  1.2664 -2.8113
  626SOL     OW 1876   2.673   2.953   2.819 -0.2698  0.0047  0.6003
  626SOL    HW1 1877   2.682   2.976   2.721 -0.9725 -0.4088  0.9860
  626SOL    HW2 1878   2.636   3.022   2.881  3.3383 -1.3833 -0.8446
  627SOL     OW 1879   1.309   1.419   2.681 -0.1497 -0.7709 -0.3507
  627SOL    HW1 1880   1.403   1.393   2.691 -1.9216 -2.1510  0.0860
  627SOL    HW2 1881   1.265   1.392   2.766  1.5186 -1.1084 -0.9699
  628SOL     OW 1882   0.432   0.416   2.493  0.2333  0.1401  0.7635
  628SOL    HW1 1883   0.503   0.347   2.495  1.4795  1.7770  0.4799
  628SOL    HW2 1884   0.372   0.404   2.573  2.2174 -0.6957  0.5900
  629SOL     OW 1885   0.209   2.862   2.027 -0.2051  0.6274  0.8978
  629SOL    HW1 1886   0.146   2.783   2.042 -0.9774  1.0230 -1.6963
  629SOL    HW2 1887   0.199   2.929   2.103  0.4555 -0.3103 -0.5760
  630SOL     OW 1888   1.703   0.999   1.783 -0.0253  0.0121  0.4423
  630SOL    HW1 1889   1.801   1.011   1.748  2.4476 -1.1416 -0.9681
  630SOL    HW2 1890   1.689   1.013   1.882 -1.5009 -0.1281  0.5549
  631SOL     OW 1891   2.182   0.995   0.356 -0.1781 -0.5609  0.0786
  631SOL    HW1 1892   2.141   0.903   0.376  1.1230 -0.5267 -3.0103
  631SOL    HW2 1893   2.272   1.007   0.405  2.0500  1.3534  0.8040
  632SOL     OW 1894   2.150   0.178   2.007 -0.5415  0.1621  0.0549
  632SOL    HW1 1895   2.184   0.219   2.093  1.2265  0.4097 -1.7241
  632SOL    HW2 1896   2.116   0.080   2.016 -0.6138 -1.5711  0.6057
  633SOL     OW 1897   0.992   2.834   0.125  0.0532  0.3400  0.1005
  633SOL    HW1 1898   0.997   2.801   0.219 -0.4771  0.8510 -1.8927
  633SOL    HW2 1899   0.925   2.779   0.070 -3.4195 -2.3663 -1.6223
  634SOL     OW 1900   1.412   2.642   2.486 -0.1798 -0.1107  0.4450
  634SOL    HW1 1901   1.337   2.668   2.425  1.0124 -2.0437 -0.6510
  634SOL    HW2 1902   1.488   2.597   2.437 -0.4955  0.6969  0.7268
  635SOL     OW 1903   2.380   0.216   3.061 -0.3203 -0.0428 -0.3633
  635SOL    HW1 1904   2.364   0.302   3.012 -1.7598 -0.2646 -0.4598
  635SOL    HW2 1905   2.298   0.194   0.035  1.9939  2.5358  1.1465
  636SOL     OW 1906   0.732   1.132   0.656 -0.2234  0.4373  0.1779
  636SOL    HW1 1907   0.634   1.162   0.680  0.4645 -1.5544  2.4054
  636SOL    HW2 1908   0.773   1.082   0.737  1.8530  1.5419  1.3366
  637SOL     OW 1909   0.241   2.168   0.698  0.2568  0.1477  0.0711
  637SOL    HW1 1910   0.333   2.156   0.746  1.2968 -1.4163 -1.8734
  637SOL    HW2 1911   0.240   2.132   0.600 -1.4186 -0.1097  1.0899
  638SOL     OW 1912   0.694   0.087   2.906  0.0217  0.0553 -0.4864
  638SOL    HW1 1913   0.671   0.004   2.961 -1.6379 -2.4503 -0.9677
  638SOL    HW2 1914   0.676   0.175   2.961  0.1776  0.7946  0.9744
  639SOL     OW 1915   1.458   1.723   0.367 -0.0115  0.3731 -0.2380
  639SOL    HW1 1916   1.443   1.624   0.373  1.9626 -0.0082 -0.9400
  639SOL    HW2 1917   1.368   1.771   0.379  0.3736 -0.5919  1.2132
  640SOL     OW 1918   1.765   2.781   0.926 -0.2256  0.1676 -0.0316
  640SOL    HW1 1919   1.761   2.716   0.847  0.0528 -0.0564  1.4312
  640SOL    HW2 1920   1.675   2.823   0.942 -0.5705  0.7225 -0.7666
  641SOL     OW 1921   3.028   2.777   0.468 -0.2983  0.4064  0.2649
  641SOL    HW1 1922   0.044   2.801   0.445 -1.9558 -1.8106  1.2816
  641SOL    HW2 1923   3.014   2.676   0.483  1.2122 -3.0419 -0.3251
  642SOL     OW 1924   0.716   0.289   1.744  0.1797  0.3224 -0.4419
  642SOL    HW1 1925   0.618   0.302   1.730  2.4289 -1.0028 -0.4228
  642SOL    HW2 1926   0.776   0.374   1.748  3.0354 -1.2781 -4.4702
  643SOL     OW 1927   0.480   1.876   2.383 -0.8493 -0.1979 -0.2173
  643SOL    HW1 1928   0.396   1.928   2.365  2.5970  1.8235 -2.0499
  643SOL    HW2 1929   0.545   1.880   2.300  5.5255 -1.0276 -0.0572
  644SOL     OW 1930   0.851   2.886   0.521 -0.1836 -0.1195 -0.0696
  644SOL    HW1 1931   0.796   2.814   0.566 -0.3939 -1.7363 -1.8484
  644SOL    HW2 1932   0.917   2.844   0.450  0.2394  0.2910  0.2751
  645SOL     OW 1933   1.063   1.835   0.036  0.1870 -0.1326 -0.3129
  645SOL    HW1 1934   1.140   1.884   3.071 -0.9120  0.9880 -1.4893
  645SOL    HW2 1935   1.091   1.755   0.088  0.8838  1.5553 -3.0816
  646SOL     OW 1936   0.165   1.366   0.080  0.0279  0.4289 -0.3850
  646SOL    HW1 1937   0.214   1.449   0.114 -0.2973 -1.4259 -2.3150
  646SOL    HW2 1938   0.133   1.307   0.156  0.6525  0.9369 -1.2604
  647SOL     OW 1939   1.007   0.123   0.981 -0.3880 -0.2007 -0.1851
  647SOL    HW1 1940   1.009   0.176   1.069  0.0247 -1.1683 -0.2328
  647SOL    HW2 1941   1.043   0.030   1.003 -0.3559  1.8001 -0.5111
  648SOL     OW 1942   2.768   3.062   1.776  0.3802  0.1088  0.4445
  648SOL    HW1 1943   2.795   0.014   1.871 -0.4289  0.8914 -0.6947
  648SOL    HW2 1944   2.857   3.034   1.729  2.3321 -1.6958 -0.0594
  649SOL     OW 1945   0.807   2.069   2.878 -0.0945 -0.4091 -0.2337
  649SOL    HW1 1946   0.880   2.004   2.853 -1.0517  2.0845 -1.1444
  649SOL    HW2 1947   0.771   2.050   2.974 -0.5766 -0.7352  0.1970
  650SOL     OW 1948   0.543   1.877   1.694 -0.2414  0.0061 -0.5044
  650SOL    HW1 1949   0.454   1.930   1.684 -0.3050 -0.1899 -0.0227
  650SOL    HW2 1950   0.518   1.776   1.703 -1.3362 -0.7650 -1.3328
  651SOL     OW 1951   0.687   0.318   3.072  0.3199 -0.1669 -0.1513
  651SOL    HW1 1952   0.701   0.262   0.078 -0.6120  0.3659  0.5957
  651SOL    HW2 1953   0.753   0.398   3.072  0.6939 -0.3415 -0.9296
  652SOL     OW 1954   2.708   1.945   0.234  0.4095 -0.1925  0.2768
  652SOL    HW1 1955   2.649   1.873   0.193 -0.0431 -0.6579  1.1597
  652SOL    HW2 1956   2.650   2.009   0.284 -0.5807 -0.2491 -1.0867
  653SOL     OW 1957   0.048   0.143   0.762 -0.3689 -0.6445  0.2809
  653SOL    HW1 1958   0.011   0.053   0.725  2.7109 -1.6653  0.4765
  653SOL    HW2 1959   0.011   0.230   0.715 -1.3791  2.2224 -1.9919
  654SOL     OW 1960   1.657   3.046   2.647 -0.0774  0.5269 -0.4796
  654SOL    HW1 1961   1.606   0.056   2.655  2.2563  0.9230 -1.4720
  654SOL    HW2 1962   1.593   2.970   2.672  2.4557  1.2329  0.2013
  655SOL     OW 1963   0.897   2.477   1.240 -0.2612 -0.2809 -0.6409
  655SOL    HW1 1964   0.974   2.480   1.309  1.5557  0.2379  0.1823
  655SOL    HW2 1965   0.882   2.383   1.213 -0.7109  0.7633  3.0371
  656SOL     OW 1966   0.235   0.492   1.808  0.3175  0.0646  0.1472
  656SOL    HW1 1967   0.198   0.466   1.898  0.4178 -1.6051  0.1409
  656SOL    HW2 1968   0.155   0.525   1.749 -0.4485  2.4685 -1.0870
  657SOL     OW 1969   2.286   0.526   2.117  0.2400  0.2557 -0.5432
  657SOL    HW1 1970   2.258   0.442   2.170  0.6487 -0.7603 -1.1296
  657SOL    HW2 1971   2.324   0.499   2.028  1.2268  0.4238  1.5874
  658SOL     OW 1972   2.292   1.412   1.154  1.0378 -0.0688  1.2252
  658SOL    HW1 1973   2.212   1.360   1.118  1.1273  0.4971 -1.5979
  658SOL    HW2 1974   2.336   1.352   1.221 -0.2870 -0.1547 -0.4728
  659SOL     OW 1975   2.597   0.114   2.962  0.2311 -0.2915  0.3116
  659SOL    HW1 1976   2.523   0.138   3.034 -2.4760 -1.6835  0.5059
  659SOL    HW2 1977   2.686   0.118   3.015 -0.4572  0.1178  2.9354
  660SOL     OW 1978   1.278   1.308   2.938 -0.0075  0.0418  0.3009
  660SOL    HW1 1979   1.312   1.381   3.001 -0.4495  2.1418  0.0765
  660SOL    HW2 1980   1.351   1.243   2.911  1.3420  0.5278 -0.6044
  661SOL     OW 1981   2.795   2.411   0.891 -0.1311  0.5297  0.8941
  661SOL    HW1 1982   2.827   2.325   0.850 -0.9387 -0.7549 -0.6317
  661SOL    HW2 1983   2.717   2.394   0.960 -3.0046  0.5921  3.2983
  662SOL     OW 1984   0.574   0.899   0.105 -0.3620  0.7242  0.1024
  662SOL    HW1 1985   0.673   0.867   0.103  0.8748  1.5946 -0.2444
  662SOL    HW2 1986   0.539   0.890   0.201 -0.0711  0.3126  1.9877
  663SOL     OW 1987   1.214   2.181   0.229  0.8024  0.3864  0.4775
  663SOL    HW1 1988   1.299   2.237   0.202  1.7489 -0.3891  2.1841
  663SOL    HW2 1989   1.143   2.209   0.160 -2.1139 -1.3220 -0.6893
  664SOL     OW 1990   0.638   2.661   1.727  0.2372  0.1078  0.1075
  664SOL    HW1 1991   0.720   2.644   1.668 -0.1243  0.9511  2.6961
  664SOL    HW2 1992   0.620   2.762   1.712  0.7879  2.8545 -1.4681
  665SOL     OW 1993   2.179   2.077   1.633 -0.6499 -0.0531 -0.1321
  665SOL    HW1 1994   2.243   2.158   1.619 -0.7973  0.8720 -2.8767
  665SOL    HW2 1995   2.080   2.109   1.650 -2.5630  1.1353 -0.5990
  666SOL     OW 1996   0.648   2.706   0.239 -0.0155  0.1397 -0.0974
  666SOL    HW1 1997   0.663   2.801   0.264 -0.2158 -1.7378 -1.9227
  666SOL    HW2 1998   0.599   2.704   0.150  1.7781 -1.3640 -2.1248
  667SOL     OW 1999   1.897   1.699   1.729 -0.3851  0.4804 -0.2338
  667SOL    HW1 2000   1.923   1.751   1.647 -1.6715 -0.2062  0.8831
  667SOL    HW2 2001   1.810   1.729   1.771  1.2528  1.5515 -0.4576
  668SOL     OW 2002   0.409   0.841   2.396  0.0443  0.0519  0.3607
  668SOL    HW1 2003   0.410   0.938   2.403  0.9338 -4.0518 -0.2112
  668SOL    HW2 2004   0.442   0.811   2.301 -0.1909 -1.4335 -0.5474
  669SOL     OW 2005   1.982   2.164   2.283 -0.3638 -0.2927  0.8155
  669SOL    HW1 2006   1.967   2.068   2.278  1.8419  5.0496 -0.3700
  669SOL    HW2 2007   2.054   2.192   2.210  6.8888  1.6106 -0.9382
  670SOL     OW 2008   2.337   2.123   0.117  0.2596  0.0225  0.1117
  670SOL    HW1 2009   2.299   2.039   0.081  1.0435  1.8803  0.1066
  670SOL    HW2 2010   2.269   2.194   0.097  1.5199 -3.2583  0.3440
  671SOL     OW 2011   0.729   1.349   1.053 -0.0746  0.1012 -0.4404
  671SOL    HW1 2012   0.794   1.399   1.116 -2.2453 -1.4146  0.8337
  671SOL    HW2 2013   0.730   1.252   1.078  2.8185  1.3636 -0.7517
  672SOL     OW 2014   2.520   0.850   2.310 -0.4482  0.4453  0.7277
  672SOL    HW1 2015   2.574   0.889   2.235 -1.0820 -0.6660 -0.0160
  672SOL    HW2 2016   2.569   0.845   2.401  2.4836  2.7706  1.7704
  673SOL     OW 2017   2.695   1.897   2.477 -0.0812 -0.2042  0.3241
  673SOL    HW1 2018   2.595   1.902   2.488  0.9795 -0.5659 -1.1586
  673SOL    HW2 2019   2.753   1.952   2.545  2.3751 -0.9065  0.9636
  674SOL     OW 2020   1.192   2.671   2.304 -0.0644 -0.9646  0.1086
  674SOL    HW1 2021   1.119   2.731   2.353 -0.8865  2.9910  3.2168
  674SOL    HW2 2022   1.212   2.705   2.207  1.1726  0.2459 -1.5125
  675SOL     OW 2023   0.696   0.984   1.355 -0.0789 -0.3953  0.1392
  675SOL    HW1 2024   0.758   0.972   1.434  0.5885  0.9233  0.1594
  675SOL    HW2 2025   0.611   1.035   1.383  0.6275  0.0411  0.4610
  676SOL     OW 2026   1.723   0.884   0.429  0.0522  0.2555  0.4405
  676SOL    HW1 2027   1.624   0.918   0.446 -1.6381  1.3774  0.9181
  676SOL    HW2 2028   1.761   0.838   0.513  0.3992 -1.0795 -0.3254
  677SOL     OW 2029   2.727   1.566   2.810  0.1480  0.2186  0.1737
  677SOL    HW1 2030   2.717   1.463   2.812  0.8473 -0.2789 -1.4212
  677SOL    HW2 2031   2.825   1.592   2.827  0.9025  0.8773 -1.5126
  678SOL     OW 2032   0.035   2.341   1.186  0.5881 -0.2229  0.3014
  678SOL    HW1 2033   3.047   2.356   1.261 -0.4162 -0.9413 -1.9405
  678SOL    HW2 2034   0.026   2.421   1.126 -1.7193  0.5633 -1.9694
  679SOL     OW 2035   2.109   2.661   0.662  0.5698  0.6124 -0.2789
  679SOL    HW1 2036   2.131   2.567   0.700 -0.6427  0.8882  0.4824
  679SOL    HW2 2037   2.191   2.710   0.651 -2.2024 -2.5211  2.0329
  680SOL     OW 2038   3.013   2.565   2.421 -0.0639  0.2058  0.2390
  680SOL    HW1 2039   3.000   2.556   2.525  0.1832 -0.7944  1.3793
  680SOL    HW2 2040   0.031   2.544   2.395  1.9224 -0.5463 -0.3634
  681SOL     OW 2041   2.960   1.320   1.349 -0.2450 -0.6203 -0.7668
  681SOL    HW1 2042   3.026   1.319   1.268  0.1438  2.2737 -1.8873
  681SOL    HW2 2043   2.957   1.408   1.399  1.8686  0.2557 -3.7166
  682SOL     OW 2044   0.626   1.737   1.332  0.2184  0.5397  0.5400
  682SOL    HW1 2045   0.657   1.768   1.238  0.1396  0.6889 -1.6952
  682SOL    HW2 2046   0.675   1.786   1.413  1.6125  1.8352  3.1376
  683SOL     OW 2047   2.683   1.827   1.378 -0.1024  0.2774  0.1154
  683SOL    HW1 2048   2.769   1.881   1.392  0.4996  0.3478 -0.2883
  683SOL    HW2 2049   2.640   1.816   1.470  1.1005  0.9284  0.1027
  684SOL     OW 2050   2.912   1.278   0.062 -0.1834  0.5527  0.2327
  684SOL    HW1 2051   2.952   1.189   0.093  0.1924  1.6050 -1.3811
  684SOL    HW2 2052   2.923   1.348   0.136 -0.8462  1.2355 -0.7239
  685SOL     OW 2053   0.927   1.040   0.315 -0.4427 -0.6032  0.3238
  685SOL    HW1 2054   0.929   1.117   0.246 -2.8571  0.3286  1.5687
  685SOL    HW2 2055   1.001   1.052   0.380 -1.6014  0.4980  2.6482
  686SOL     OW 2056   0.180   0.125   0.998 -0.2763  0.3217 -0.4100
  686SOL    HW1 2057   0.162   0.208   1.054 -1.2234 -0.8682  0.1011
  686SOL    HW2 2058   0.119   0.128   0.914 -2.1256 -0.6053  0.0080
  687SOL     OW 2059   1.011   1.213   2.267 -0.1106 -0.2082 -0.0854
  687SOL    HW1 2060   0.925   1.168   2.304  1.4865 -0.7665 -0.7978
  687SOL    HW2 2061   1.077   1.238   2.341  2.0691 -0.0114 -0.4259
  688SOL     OW 2062   0.834   1.884   1.463  0.1856  0.0228  0.7630
  688SOL    HW1 2063   0.898   1.914   1.392 -2.0075  1.6274  0.4825
  688SOL    HW2 2064   0.829   1.948   1.541  1.1552  1.0705 -0.5398
  689SOL     OW 2065   1.716   0.725   1.166 -0.2472  0.1773  0.1107
  689SOL    HW1 2066   1.618   0.716   1.193 -1.6243 -1.2557 -0.3736
  689SOL    HW2 2067   1.744   0.823   1.171  0.1600 -0.7687  1.3988
  690SOL     OW 2068   2.763   0.970   1.080 -0.0523  0.3743  0.0259
  690SOL    HW1 2069   2.811   1.059   1.073 -0.0168  0.5449  3.1450
  690SOL    HW2 2070   2.701   0.974   1.158 -0.7287  0.4084  0.6833
  691SOL     OW 2071   0.369   2.216   1.771  0.0683 -0.3355 -0.1828
  691SOL    HW1 2072   0.281   2.207   1.823 -1.1364 -0.0637 -2.4262
  691SOL    HW2 2073   0.396   2.313   1.786 -2.8431  1.6882  1.6981
  692SOL     OW 2074   1.740   0.015   1.093 -0.1461 -0.5594 -0.3842
  692SOL    HW1 2075   1.769   0.018   0.997 -0.9351 -0.6957  1.3792
  692SOL    HW2 2076   1.813   3.051   1.146  0.0499  0.4307 -1.0368
  693SOL     OW 2077   3.048   1.615   2.510 -0.5951  0.7665 -0.0283
  693SOL    HW1 2078   3.022   1.708   2.536 -1.0833 -0.3310  0.8719
  693SOL    HW2 2079   2.992   1.581   2.428 -1.1865  0.2291 -1.5412
  694SOL     OW 2080   2.316   0.849   0.970 -0.0704  0.0838 -0.5694
  694SOL    HW1 2081   2.328   0.788   1.054 -2.4902  0.2302  0.2368
  694SOL    HW2 2082   2.313   0.950   0.990 -0.1644  0.4504  0.5240
  695SOL     OW 2083   1.071   1.233   1.464  0.5675 -1.0365  0.1966
  695SOL    HW1 2084   0.968   1.255   1.457 -3.6927  3.0716 -0.0172
  695SOL    HW2 2085   1.113   1.232   1.371 -0.3841  1.4588  2.4185
  696SOL     OW 2086   1.606   2.963   0.654  0.2988 -0.4243 -0.1371
  696SOL    HW1 2087   1.581   3.031   0.730 -1.7129  1.1077  2.8764
  696SOL    HW2 2088   1.706   2.949   0.653  1.7625  0.7652 -0.1710
  697SOL     OW 2089   0.839   0.177   0.778  0.5787 -0.0351  0.3129
  697SOL    HW1 2090   0.897   0.166   0.698 -1.2954 -0.2114  2.6492
  697SOL    HW2 2091   0.896   0.169   0.861 -0.4583 -2.2852 -3.4958
  698SOL     OW 2092   1.803   1.404   2.230 -0.4853  0.0326  0.2721
  698SOL    HW1 2093   1.863   1.370   2.156  0.0482  1.6472  2.4933
  698SOL    HW2 2094   1.802   1.342   2.309  3.0175 -2.8757  1.7533
  699SOL     OW 2095   1.288   1.052   1.059  0.2006  0.5575  0.6330
  699SOL    HW1 2096   1.348   1.111   1.007 -2.7135  0.8129  0.7967
  699SOL    HW2 2097   1.309   0.951   1.035  0.6903 -1.1916 -1.9401
  700SOL     OW 2098   1.288   2.891   0.434  0.4987 -0.0526  0.2538
  700SOL    HW1 2099   1.257   2.847   0.345  0.4523 -2.4498  0.3796
  700SOL    HW2 2100   1.337   2.825   0.490 -0.7476  0.1369  0.8111
  701SOL     OW 2101   2.332   2.633   2.680  0.2032 -0.4897 -0.7865
  701SOL    HW1 2102   2.287   2.577   2.755 -1.5963 -1.8277  2.9157
  701SOL    HW2 2103   2.430   2.607   2.674  1.3285  0.4565 -0.4861
  702SOL     OW 2104   0.960   0.251   0.516 -0.1050 -0.0875 -0.4361
  702SOL    HW1 2105   1.034   0.196   0.477  1.1576 -1.1734 -0.7271
  702SOL    HW2 2106   0.989   0.339   0.552 -1.0816 -0.8690 -0.4559
  703SOL     OW 2107   2.510   0.477   1.967 -0.1006  0.3737  0.0226
  703SOL    HW1 2108   2.503   0.444   2.059 -0.7044 -1.8274 -2.3853
  703SOL    HW2 2109   2.533   0.403   1.903  0.3430  2.7028 -0.5753
  704SOL     OW 2110   0.014   2.014   0.743 -0.7588 -0.2244  0.1281
  704SOL    HW1 2111   0.027   1.926   0.687 -1.1373 -1.2629 -1.8557
  704SOL    HW2 2112   0.099   2.070   0.737  0.6096 -1.6001 -1.1939
  705SOL     OW 2113   2.747   2.911   2.122 -0.1675 -0.0788  0.1534
  705SOL    HW1 2114   2.810   2.850   2.172  1.0694 -2.2500 -1.7489
  705SOL    HW2 2115   2.778   3.006   2.135  1.3307 -3.0081 -3.9489
  706SOL     OW 2116   2.520   2.411   0.976 -0.2604 -0.1566  0.1864
  706SOL    HW1 2117   2.434   2.361   0.964 -1.1022  0.3541  0.5369
  706SOL    HW2 2118   2.536   2.441   1.067 -1.4606  0.5294 -4.0179
  707SOL     OW 2119   0.803   2.343   2.030 -0.1618 -0.3685 -0.2173
  707SOL    HW1 2120   0.903   2.348   2.066  4.9214 -1.5397  1.4945
  707SOL    HW2 2121   0.782   2.436   1.993 -1.3180  1.7316  1.3133
  708SOL     OW 2122   2.956   2.857   2.543  0.0015 -0.1381 -0.9806
  708SOL    HW1 2123   3.027   2.786   2.556  1.6562 -0.7431  0.7145
  708SOL    HW2 2124   3.007   2.942   2.506  1.1620  3.8260 -0.5464
  709SOL     OW 2125   1.925   2.974   1.876  0.5340 -0.2652 -0.7547
  709SOL    HW1 2126   2.021   2.969   1.894 -3.6804 -0.6955 -1.8133
  709SOL    HW2 2127   1.878   2.956   1.963 -2.2248 -3.5686  0.5317
  710SOL     OW 2128   1.545   0.819   2.427  0.1503 -0.0014 -0.1838
  710SOL    HW1 2129   1.589   0.776   2.346 -0.4142  0.7265  1.9816
  710SOL    HW2 2130   1.521   0.918   2.404  0.1733 -0.3915  0.5516
  711SOL     OW 2131   0.804   1.755   3.067 -0.0190  0.4020 -0.0585
  711SOL    HW1 2132   0.892   1.806   3.066 -0.2624  0.7590 -1.2981
  711SOL    HW2 2133   0.771   1.755   2.972  2.6616  1.8379  2.0407
  712SOL     OW 2134   0.560   2.284   2.617 -0.7874 -0.2675 -0.1013
  712SOL    HW1 2135   0.650   2.331   2.623 -1.8075 -1.4159  0.6808
  712SOL    HW2 2136   0.570   2.196   2.670 -0.5405  1.7980 -1.3033
  713SOL     OW 2137   1.672   1.523   2.969  0.1487 -0.1911  0.4479
  713SOL    HW1 2138   1.655   1.510   2.867  0.7669  0.2784 -0.8470
  713SOL    HW2 2139   1.725   1.606   2.994  0.5112  0.1525  0.0499
  714SOL     OW 2140   1.088   1.506   1.577 -0.0007 -0.8330 -0.0830
  714SOL    HW1 2141   1.086   1.437   1.503  1.7461  2.3355 -1.3585
  714SOL    HW2 2142   1.095   1.462   1.666 -1.3897  0.7858 -0.8482
  715SOL     OW 2143   1.703   0.376   2.727 -0.2795  0.3824  0.3366
  715SOL    HW1 2144   1.690   0.404   2.629  0.4943 -1.5325 -1.2497
  715SOL    HW2 2145   1.801   0.364   2.738 -0.9771 -0.4921  1.5264
  716SOL     OW 2146   2.909   2.422   2.218  0.4458 -0.2083 -0.0495
  716SOL    HW1 2147   2.917   2.324   2.231 -1.3003  3.2506  0.2696
  716SOL    HW2 2148   2.947   2.475   2.294 -1.0438  1.0915  2.0879
  717SOL     OW 2149   2.874   0.569   0.961 -0.2573 -0.0205  0.1626
  717SOL    HW1 2150   2.917   0.625   1.033  2.6414 -2.2947  1.8092
  717SOL    HW2 2151   2.797   0.516   0.994 -0.0936  1.1540 -0.4176
  718SOL     OW 2152   0.737   1.558   2.520 -0.1182 -0.2429  0.0328
  718SOL    HW1 2153   0.667   1.626   2.558  0.2153  0.8917  0.8256
  718SOL    HW2 2154   0.775   1.570   2.427  0.8166 -2.1676 -0.9150
  719SOL     OW 2155   2.060   0.876   2.986 -0.4535 -0.9517 -0.0998
  719SOL    HW1 2156   1.968   0.905   2.950  2.5297 -0.4376  0.1065
  719SOL    HW2 2157   2.095   0.946   3.047 -1.7104 -2.0829 -1.3643
  720SOL     OW 2158   0.821   0.463   0.766  0.3330  0.0736 -0.4514
  720SOL    HW1 2159   0.812   0.520   0.849 -1.2939  1.7164 -0.0995
  720SOL    HW2 2160   0.808   0.368   0.787  2.0873  3.9689 -2.1255
  721SOL     OW 2161   2.548   0.267   0.727 -0.2164  0.3898  0.1688
  721SOL    HW1 2162   2.522   0.366   0.726  0.9242 -1.4533 -0.4662
  721SOL    HW2 2163   2.529   0.226   0.632  1.9179  1.4401 -0.7510
  722SOL     OW 2164   2.472   0.580   2.634  0.4634 -0.4754  0.1064
  722SOL    HW1 2165   2.410   0.648   2.675 -0.3292 -0.1219  1.3661
  722SOL    HW2 2166   2.570   0.596   2.656 -0.1730  0.3531 -0.5455
  723SOL     OW 2167   2.416   0.285   0.287  0.2083 -0.2157  0.0793
  723SOL    HW1 2168   2.434   0.269   0.190 -1.1032  1.4392 -1.9783
  723SOL    HW2 2169   2.341   0.357   0.301  1.0052  1.4649  0.7834
  724SOL     OW 2170   0.661   1.600   2.054 -0.1244  0.2346 -0.5224
  724SOL    HW1 2171   0.595   1.529   2.087 -0.0018 -0.9624  1.5862
  724SOL    HW2 2172   0.687   1.579   1.956  1.4304 -0.5860  1.0946
  725SOL     OW 2173   1.680   0.276   1.149  0.3124 -0.2662 -0.3889
  725SOL    HW1 2174   1.747   0.309   1.078 -1.9441  2.0009 -0.4201
  725SOL    HW2 2175   1.682   0.177   1.169 -0.0609 -0.3099  0.0781
  726SOL     OW 2176   1.857   2.509   0.153 -0.0903 -0.2584 -0.2026
  726SOL    HW1 2177   1.783   2.575   0.171 -2.9651 -0.3100 -0.4429
  726SOL    HW2 2178   1.827   2.413   0.179  0.3194 -2.2107 -0.1311
  727SOL     OW 2179   1.784   1.557   1.435  0.7707  0.4474  0.6848
  727SOL    HW1 2180   1.804   1.495   1.515 -0.4447 -1.4949 -1.4360
  727SOL    HW2 2181   1.867   1.564   1.378 -1.6051 -0.0386 -0.2424
  728SOL     OW 2182   2.323   2.602   1.296 -0.1437 -0.3948  0.0351
  728SOL    HW1 2183   2.403   2.666   1.282  2.4296 -0.1387 -1.5373
  728SOL    HW2 2184   2.251   2.643   1.354  2.6769 -0.4067  0.9760
  729SOL     OW 2185   1.921   1.504   0.867 -0.0864 -0.3302 -0.2901
  729SOL    HW1 2186   2.020   1.495   0.838  1.2591  2.1411  1.1452
  729SOL    HW2 2187   1.864   1.472   0.787  0.6875 -0.2312 -0.1611
  730SOL     OW 2188   0.950   0.610   2.745 -0.3485 -0.5196 -0.2142
  730SOL    HW1 2189   0.850   0.605   2.723 -0.0835 -1.8020  0.9183
  730SOL    HW2 2190   0.971   0.674   2.823 -2.0882  0.9777 -0.6248
  731SOL     OW 2191   0.412   0.017   1.063 -0.1250  0.2769 -0.2753
  731SOL    HW1 2192   0.408   0.015   1.165  2.4483  2.6609  0.7672
  731SOL    HW2 2193   0.329   0.058   1.023  1.3789 -0.1996  1.4682
  732SOL     OW 2194   1.302   0.729   0.490 -0.7059 -0.1046 -0.3854
  732SOL    HW1 2195   1.260   0.745   0.399 -0.5950  0.2384  0.9905
  732SOL    HW2 2196   1.339   0.635   0.505 -1.3615  2.5742 -2.1229
  733SOL     OW 2197   0.774   2.128   1.074  0.0607 -0.0179 -0.1962
  733SOL    HW1 2198   0.792   2.088   0.985 -1.6528 -0.3858  3.6991
  733SOL    HW2 2199   0.857   2.143   1.131  2.3677 -2.5705  1.6823
  734SOL     OW 2200   0.183   2.560   0.224  0.6472  0.3137  0.4202
  734SOL    HW1 2201   0.178   2.632   0.289  0.8838 -0.9542 -2.3729
  734SOL    HW2 2202   0.096   2.558   0.164 -2.0810  0.0727  2.1524
  735SOL     OW 2203   1.115   0.278   1.236  0.0043  0.0087 -0.8944
  735SOL    HW1 2204   1.105   0.208   1.314 -0.1462 -4.6191  1.9589
  735SOL    HW2 2205   1.212   0.268   1.195  0.3112  1.1695 -1.2506
  736SOL     OW 2206   2.081   2.212   0.037 -0.0779  0.0021  0.4794
  736SOL    HW1 2207   2.046   2.233   0.130  1.2157 -0.1933  2.7788
  736SOL    HW2 2208   2.025   2.258   3.042 -2.4227  0.8556 -2.8848
  737SOL     OW 2209   2.919   1.175   1.033 -0.6270  0.6612  0.2414
  737SOL    HW1 2210   3.005   1.215   1.073  1.0821 -1.0292  1.5583
  737SOL    HW2 2211   2.931   1.193   0.937  1.6096  1.0123  0.9225
  738SOL     OW 2212   2.287   2.352   2.213  0.6598 -0.2196  0.3247
  738SOL    HW1 2213   2.376   2.388   2.180  1.2169  1.1688  0.5335
  738SOL    HW2 2214   2.255   2.407   2.292 -0.6242  1.8515  0.8701
  739SOL     OW 2215   1.155   2.148   2.873  0.1651  0.1530  0.7179
  739SOL    HW1 2216   1.200   2.077   2.933 -0.3901 -2.6296  4.9314
  739SOL    HW2 2217   1.081   2.187   2.931  0.1379 -0.3454 -2.0428
  740SOL     OW 2218   1.392   0.299   1.100  0.2007  0.5907 -0.2461
  740SOL    HW1 2219   1.484   0.314   1.132 -2.7817  1.5241  0.0252
  740SOL    HW2 2220   1.378   0.348   1.014  1.4073  0.8030  2.3431
  741SOL     OW 2221   0.037   0.826   0.853 -0.1666  0.4628 -0.6595
  741SOL    HW1 2222   3.026   0.872   0.869 -1.8354  1.8799  0.6209
  741SOL    HW2 2223   0.036   0.725   0.841  1.7538  1.6620  2.6055
  742SOL     OW 2224   0.875   1.340   2.667  0.0502  0.4674 -0.3948
  742SOL    HW1 2225   0.896   1.358   2.764 -1.3971 -1.0742 -2.0800
  742SOL    HW2 2226   0.807   1.403   2.630  2.3182 -1.8705  1.5266
  743SOL     OW 2227   0.887   0.788   1.920  0.2579  0.5369 -0.2108
  743SOL    HW1 2228   0.877   0.763   2.017  2.6967 -0.1176 -2.1827
  743SOL    HW2 2229   0.916   0.887   1.910  1.7807  0.2703 -1.0631
  744SOL     OW 2230   1.750   0.433   1.372  0.4142  0.4280  0.4670
  744SOL    HW1 2231   1.722   0.380   1.285  1.7122 -0.9893 -1.1453
  744SOL    HW2 2232   1.842   0.392   1.399  0.5151 -0.2203  0.2436
  745SOL     OW 2233   1.670   1.100   1.427  0.1489 -0.0059 -0.0612
  745SOL    HW1 2234   1.647   1.152   1.345 -2.1624 -1.1906 -2.0764
  745SOL    HW2 2235   1.758   1.125   1.464  0.3274 -0.9112  2.3043
  746SOL     OW 2236   2.082   1.170   0.801  0.0589 -0.2873  0.1534
  746SOL    HW1 2237   2.059   1.260   0.760 -2.3597  1.5329  0.9400
  746SOL    HW2 2238   2.166   1.122   0.757  0.7158  0.2647  2.6107
  747SOL     OW 2239   2.585   1.480   1.205 -0.2191  0.1455  0.1141
  747SOL    HW1 2240   2.650   1.518   1.136 -1.2298 -0.0640  0.2895
  747SOL    HW2 2241   2.489   1.513   1.186 -1.9061  1.4196 -0.6550
  748SOL     OW 2242   0.676   2.077   0.540 -0.3304  0.2149  0.8455
  748SOL    HW1 2243   0.698   2.127   0.625 -0.0405 -2.3815 -3.5030
  748SOL    HW2 2244   0.577   2.060   0.536  2.2305  0.1307  1.5189
  749SOL     OW 2245   2.237   2.767   2.461  0.1297  0.1442 -0.1482
  749SOL    HW1 2246   2.251   2.748   2.560  0.2554 -0.4964 -1.3577
  749SOL    HW2 2247   2.304   2.827   2.421  0.6798 -1.7835 -2.1690
  750SOL     OW 2248   2.482   0.540   0.687  0.3694 -0.5797  0.6471
  750SOL    HW1 2249   2.481   0.539   0.581  1.8471 -2.8380  1.5221
  750SOL    HW2 2250   2.397   0.586   0.716  0.4350  1.0526  1.3625
  751SOL     OW 2251   2.292   2.740   0.327  0.8507  0.1702 -0.1112
  751SOL    HW1 2252   2.249   2.801   0.265  1.7296 -1.1952  1.0414
  751SOL    HW2 2253   2.264   2.644   0.309 -0.6307  2.1037 -0.0666
  752SOL     OW 2254   2.990   2.967   0.707 -0.9720  0.7271 -0.4656
  752SOL    HW1 2255   3.022   2.928   0.798 -0.1760 -0.5074  1.9852
  752SOL    HW2 2256   3.017   2.903   0.632  0.8979  0.2227  1.4257
  753SOL     OW 2257   1.650   0.930   2.051  0.5153 -0.3271 -0.2500
  753SOL    HW1 2258   1.614   1.011   2.102  0.6118 -1.5590  1.5271
  753SOL    HW2 2259   1.604   0.846   2.078 -1.4262  3.3172 -2.0217
  754SOL     OW 2260   1.796   2.124   1.428 -0.7165 -0.9662 -0.3244
  754SOL    HW1 2261   1.861   2.177   1.368  0.9899  0.7624  0.4066
  754SOL    HW2 2262   1.806   2.023   1.416 -0.3352  0.4130  1.5753
  755SOL     OW 2263   2.620   1.136   0.841  0.1647 -0.2533 -0.4886
  755SOL    HW1 2264   2.709   1.093   0.822  2.6083  0.3665 -0.7167
  755SOL    HW2 2265   2.618   1.238   0.828 -1.2014 -0.2659  0.0264
  756SOL     OW 2266   1.013   1.392   2.903 -0.5561 -0.2333 -1.0024
  756SOL    HW1 2267   1.107   1.354   2.921 -0.0710 -0.7861  0.1379
  756SOL    HW2 2268   0.965   1.408   2.995 -0.5345  0.4220  1.1762
  757SOL     OW 2269   1.441   2.686   0.911  0.1980 -0.0592  0.2243
  757SOL    HW1 2270   1.463   2.775   0.956 -4.1187  0.0677 -0.4968
  757SOL    HW2 2271   1.446   2.611   0.979  2.1974 -2.2916 -0.3096
  758SOL     OW 2272   1.186   2.883   1.796 -0.3018 -0.2401  0.0732
  758SOL    HW1 2273   1.090   2.872   1.765  1.3824  1.8046  2.4506
  758SOL    HW2 2274   1.241   2.812   1.753 -3.7180  1.9856  1.0868
  759SOL     OW 2275   0.059   0.531   0.913  0.0920  0.8326  0.0497
  759SOL    HW1 2276   0.096   0.504   0.823  0.3509  2.1078  0.0435
  759SOL    HW2 2277   3.037   0.540   0.909  3.4784  0.4462 -1.4744
  760SOL     OW 2278   2.526   0.975   1.258 -0.5094 -0.3488 -0.2604
  760SOL    HW1 2279   2.500   1.063   1.205  0.0618  2.3282 -3.1299
  760SOL    HW2 2280   2.576   1.000   1.342 -0.8443  1.8883 -0.2746
  761SOL     OW 2281   1.899   2.936   0.650 -0.0246 -0.3726 -0.1233
  761SOL    HW1 2282   1.916   2.859   0.585  0.1206 -2.2948  2.2210
  761SOL    HW2 2283   1.962   2.931   0.724 -0.3023  0.3536 -2.2285
  762SOL     OW 2284   2.098   1.603   2.787  0.2517 -0.1774 -0.1370
  762SOL    HW1 2285   2.075   1.514   2.736 -0.6948 -1.1070  0.5530
  762SOL    HW2 2286   2.201   1.604   2.801  2.7441 -0.2648 -0.9726
  763SOL     OW 2287   0.747   2.044   1.665 -0.2796 -0.1935  0.2407
  763SOL    HW1 2288   0.719   2.146   1.660 -1.6500 -0.1819  0.9987
  763SOL    HW2 2289   0.663   1.992   1.677  0.1827  0.4192 -1.2861
  764SOL     OW 2290   2.955   2.210   2.909 -0.5356 -0.0629  0.2737
  764SOL    HW1 2291   2.911   2.155   2.981 -2.8973 -0.0440 -0.3844
  764SOL    HW2 2292   2.887   2.256   2.852 -2.3985  0.5474 -0.9710
  765SOL     OW 2293   0.283   2.697   1.177 -0.1382 -0.0384 -0.7504
  765SOL    HW1 2294   0.359   2.726   1.120 -2.1179 -0.0072 -0.6728
  765SOL    HW2 2295   0.208   2.670   1.117  0.9998  1.4228 -1.4798
  766SOL     OW 2296   2.969   2.184   2.299  0.0273  0.0193  0.4727
  766SOL    HW1 2297   3.066   2.218   2.313  0.3887  0.4178  2.0583
  766SOL    HW2 2298   2.985   2.084   2.285  1.9504  0.4898 -0.8873
  767SOL     OW 2299   2.323   0.712   2.441  0.2003  0.4312 -0.5307
  767SOL    HW1 2300   2.383   0.780   2.393  0.4940 -0.9622  0.6106
  767SOL    HW2 2301   2.372   0.641   2.493 -1.1171 -1.4728 -2.2686
  768SOL     OW 2302   1.509   0.207   2.750  0.2063 -0.6351  0.1483
  768SOL    HW1 2303   1.450   0.227   2.829 -0.1763 -0.3920  1.3861
  768SOL    HW2 2304   1.580   0.282   2.736  1.0658 -0.2903 -0.6293
  769SOL     OW 2305   2.986   2.556   1.054  0.2050 -0.0504  0.8535
  769SOL    HW1 2306   2.930   2.507   0.982  0.0848  0.9888  0.4933
  769SOL    HW2 2307   2.940   2.645   1.071 -2.1660 -0.9242 -3.3678
  770SOL     OW 2308   0.490   0.100   2.717 -0.8155 -0.5412  0.3643
  770SOL    HW1 2309   0.565   0.109   2.785 -0.4808 -1.7757  3.8545
  770SOL    HW2 2310   0.422   0.180   2.723 -3.2287 -2.0059 -1.5141
  771SOL     OW 2311   1.371   1.711   2.025  0.1159 -0.9482  0.3244
  771SOL    HW1 2312   1.401   1.706   1.929 -1.3959 -0.9160  0.5379
  771SOL    HW2 2313   1.271   1.715   2.025  1.1778  2.5433  0.5876
  772SOL     OW 2314   1.665   2.559   2.412 -0.3815 -0.6578  0.7064
  772SOL    HW1 2315   1.701   2.642   2.458  0.3520 -0.7860 -2.2596
  772SOL    HW2 2316   1.716   2.562   2.325  1.1370 -0.4803 -0.0905
  773SOL     OW 2317   1.618   0.852   1.514 -0.2747 -0.0331  0.4779
  773SOL    HW1 2318   1.534   0.869   1.560 -1.3302  0.6259 -0.8177
  773SOL    HW2 2319   1.659   0.939   1.475  0.6917 -0.8597 -0.5307
  774SOL     OW 2320   0.800   0.622   0.994 -0.3933  0.1006  0.0044
  774SOL    HW1 2321   0.867   0.586   1.064  2.4161 -0.4073 -0.1726
  774SOL    HW2 2322   0.718   0.671   1.036  0.6314 -2.4403  1.4243
  775SOL     OW 2323   1.979   2.931   2.736  0.2690 -0.1110  0.2424
  775SOL    HW1 2324   1.923   2.982   2.807  2.3510  1.4751  2.2769
  775SOL    HW2 2325   1.930   2.853   2.686 -2.0933 -3.7392 -0.6695
  776SOL     OW 2326   2.054   0.791   1.373  0.2078  0.5323 -0.2447
  776SOL    HW1 2327   1.980   0.797   1.444 -0.5193  1.0482 -2.9212
  776SOL    HW2 2328   2.027   0.728   1.302 -1.5683  0.1899  0.7418
  777SOL     OW 2329   2.938   1.204   2.234  0.5009 -0.1099 -0.0834
  777SOL    HW1 2330   3.036   1.191   2.239 -4.1399  1.1488 -0.6976
  777SOL    HW2 2331   2.892   1.133   2.180  0.1515 -1.7389  2.6414
  778SOL     OW 2332   2.949   0.788   2.623  0.1429  0.4911  0.2232
  778SOL    HW1 2333   3.023   0.735   2.666 -0.9350  0.3857 -0.1180
  778SOL    HW2 2334   2.963   0.886   2.645  1.2247  0.8768  0.5928
  779SOL     OW 2335   0.160   0.571   3.033 -0.0592  0.0680  0.0990
  779SOL    HW1 2336   0.252   0.564   3.071  2.3555  2.2945  0.3011
  779SOL    HW2 2337   0.163   0.636   2.953  0.3844  1.1748  1.1554
  780SOL     OW 2338   2.460   1.615   2.400  0.4708 -0.2428  0.7546
  780SOL    HW1 2339   2.436   1.576   2.307  0.2292 -2.3870  0.5805
  780SOL    HW2 2340   2.438   1.712   2.411  2.8071 -1.0529  0.8629
  781SOL     OW 2341   2.672   1.044   1.994  0.0338  0.2021  0.2097
  781SOL    HW1 2342   2.726   1.118   1.952 -0.8426  0.4522 -1.6891
  781SOL    HW2 2343   2.685   0.963   1.935 -0.1140  2.5671 -0.3748
  782SOL     OW 2344   1.029   1.917   2.789  0.2855 -0.0815  0.5439
  782SOL    HW1 2345   1.076   1.830   2.809 -0.4976  0.2652  0.4316
  782SOL    HW2 2346   1.091   1.996   2.814 -0.1131 -0.3639 -0.9373
  783SOL     OW 2347   1.279   2.616   1.197 -0.0890 -0.1781  0.1782
  783SOL    HW1 2348   1.353   2.554   1.164 -0.6728  1.1164  1.8414
  783SOL    HW2 2349   1.213   2.632   1.123  0.8409 -0.2235  2.4904
  784SOL     OW 2350   2.087   0.505   2.405  0.1323  0.5308  0.7809
  784SOL    HW1 2351   2.101   0.437   2.479 -0.5877 -2.0852  0.6246
  784SOL    HW2 2352   2.155   0.578   2.417 -0.0801 -0.6885  0.8792
  785SOL     OW 2353   3.051   0.071   1.862 -0.3964  0.3895  0.5195
  785SOL    HW1 2354   2.967   0.109   1.902  0.1670  0.2603 -1.2981
  785SOL    HW2 2355   3.028   3.072   1.799 -1.0272  1.4184  3.3907
  786SOL     OW 2356   1.108   2.217   0.509  0.1625 -0.1758 -0.1303
  786SOL    HW1 2357   1.151   2.210   0.420 -1.9745 -0.4539  1.2311
  786SOL    HW2 2358   1.007   2.207   0.487 -2.4955 -3.4845  0.7611
  787SOL     OW 2359   1.247   0.085   0.774  0.5416 -0.4437 -0.1708
  787SOL    HW1 2360   1.198   0.030   0.705  0.9686  0.2710  0.4491
  787SOL    HW2 2361   1.188   0.100   0.856 -0.8758 -0.2714  1.0646
  788SOL     OW 2362   0.048   1.547   0.927  0.8418  0.5218  0.0430
  788SOL    HW1 2363   0.044   1.592   1.021  2.1172  2.8638  3.3252
  788SOL    HW2 2364   0.122   1.574   0.863 -1.7897 -1.6319 -2.4834
  789SOL     OW 2365   2.290   0.792   2.120 -0.4975 -0.3696  0.3487
  789SOL    HW1 2366   2.289   0.691   2.116  1.3212  0.2440 -0.1248
  789SOL    HW2 2367   2.371   0.826   2.177 -1.5976 -1.4945 -0.4463
  790SOL     OW 2368   1.119   0.237   2.961 -0.2459 -0.0352  0.0925
  790SOL    HW1 2369   1.043   0.228   3.026  0.1120 -2.6309  2.5282
  790SOL    HW2 2370   1.100   0.194   2.871 -1.0012 -1.6461 -1.1347
  791SOL     OW 2371   0.196   2.989   0.147  0.5707 -0.1792  0.2354
  791SOL    HW1 2372   0.155   3.077   0.135  3.2476 -1.6238  1.7397
  791SOL    HW2 2373   0.290   2.994   0.107 -1.8994 -0.3290  1.8136
  792SOL     OW 2374   1.315   0.692   1.993 -0.4436 -0.7202  0.1438
  792SOL    HW1 2375   1.357   0.603   2.022  0.7928 -1.3119 -0.6978
  792SOL    HW2 2376   1.386   0.736   1.935  1.3822 -0.5982  3.1055
  793SOL     OW 2377   0.035   0.309   1.141 -0.1781 -0.1829  0.0775
  793SOL    HW1 2378   0.042   0.408   1.119  2.1835  1.1638  2.4064
  793SOL    HW2 2379   0.008   0.297   1.241  0.2663  1.4415 -2.0031
  794SOL     OW 2380   0.176   0.149   2.038 -0.4436 -0.2297 -0.1702
  794SOL    HW1 2381   0.269   0.125   2.000 -1.8417  3.2577 -0.5632
  794SOL    HW2 2382   0.109   0.132   1.963  0.5361  0.9809 -1.6311
  795SOL     OW 2383   0.629   1.500   0.424 -0.0981  0.1319  0.2103
  795SOL    HW1 2384   0.579   1.474   0.340  0.1699 -1.2770 -3.7695
  795SOL    HW2 2385   0.678   1.591   0.417  1.3671  4.1660  0.0923
  796SOL     OW 2386   0.067   0.894   2.890 -0.2887  0.0669 -0.7967
  796SOL    HW1 2387   0.085   0.813   2.829 -2.0228  1.7942 -2.0031
  796SOL    HW2 2388   3.070   0.871   2.955  1.5740 -1.6897  0.0087
  797SOL     OW 2389   1.835   2.942   2.152  0.3811  0.2997  0.2024
  797SOL    HW1 2390   1.745   2.947   2.107  1.5611  0.9021  2.1347
  797SOL    HW2 2391   1.858   3.034   2.177 -1.2610 -0.4493 -1.4040
  798SOL     OW 2392   0.112   0.046   1.249  0.1370 -0.1775 -0.1783
  798SOL    HW1 2393   0.073   0.127   1.290  2.1404 -6.2554 -1.9378
  798SOL    HW2 2394   0.147   0.065   1.156 -2.3674 -1.5351  0.1690
  799SOL     OW 2395   2.948   1.005   1.752 -0.0491  0.3030  0.2290
  799SOL    HW1 2396   2.941   0.978   1.655 -1.1965 -0.7057 -0.4605
  799SOL    HW2 2397   2.931   0.923   1.813  0.2621  2.0484  0.7485
  800SOL     OW 2398   2.929   1.637   0.098  0.1774 -0.0583 -0.7985
  800SOL    HW1 2399   2.828   1.627   0.085 -2.3210  0.9836  4.2774
  800SOL    HW2 2400   2.969   1.667   0.010 -0.6534  1.3810 -0.2731
  801SOL     OW 2401   1.942   1.705   0.498 -0.8462 -0.1486 -0.2420
  801SOL    HW1 2402   1.968   1.637   0.427 -2.9120  2.8729  0.1071
  801SOL    HW2 2403   1.840   1.725   0.516 -1.6324  0.6398 -1.6814
  802SOL     OW 2404   1.382   0.980   2.704  0.3957 -0.8563 -0.2524
  802SOL    HW1 2405   1.340   1.017   2.618 -1.7948 -3.3024 -1.8167
  802SOL    HW2 2406   1.443   0.902   2.690 -0.7041  0.9127 -0.6620
  803SOL     OW 2407   0.846   2.083   1.920  0.2590  0.1263 -0.1941
  803SOL    HW1 2408   0.832   2.182   1.940 -1.2719 -0.7004 -2.6314
  803SOL    HW2 2409   0.832   2.061   1.825 -1.1935  2.9374  1.8916
  804SOL     OW 2410   1.465   2.351   0.799 -0.1977 -0.9745  0.4452
  804SOL    HW1 2411   1.530   2.286   0.757  1.4562 -0.8002  0.8809
  804SOL    HW2 2412   1.376   2.343   0.751  2.3767 -0.1362  1.0514
  805SOL     OW 2413   2.600   2.230   2.673  0.2044  0.3532  0.0057
  805SOL    HW1 2414   2.687   2.280   2.700  3.1672  0.1678 -0.4351
  805SOL    HW2 2415   2.562   2.266   2.587  2.4949 -0.7784  0.0102
  806SOL     OW 2416   0.013   0.174   0.396 -0.5055 -0.0374 -0.2872
  806SOL    HW1 2417   3.007   0.178   0.457 -2.5332  1.1715  0.4774
  806SOL    HW2 2418   0.100   0.142   0.439 -1.1435  0.4307 -0.6457
  807SOL     OW 2419   2.546   0.589   2.959  0.5735  0.4383  0.0330
  807SOL    HW1 2420   2.604   0.565   2.881  1.0440 -0.7214  0.0841
  807SOL    HW2 2421   2.460   0.528   2.963 -2.2892 -1.9596  1.2598
  808SOL     OW 2422   0.998   2.363   0.913  0.0132 -0.0313  0.3944
  808SOL    HW1 2423   1.036   2.435   0.973 -0.7159  0.5330  1.7307
  808SOL    HW2 2424   0.920   2.395   0.856  0.4445 -0.6402 -1.0902
  809SOL     OW 2425   2.688   0.168   2.703  0.0068 -0.0128  0.2788
  809SOL    HW1 2426   2.633   0.148   2.785  2.6153  0.8282 -1.3780
  809SOL    HW2 2427   2.634   0.202   2.625 -3.2734 -1.6604 -0.5770
  810SOL     OW 2428   1.429   1.289   0.632 -0.2890 -0.1057 -0.0190
  810SOL    HW1 2429   1.342   1.257   0.678  4.1759 -0.5443 -0.0848
  810SOL    HW2 2430   1.501   1.223   0.660  0.2820  0.4633 -0.3878
  811SOL     OW 2431   1.914   2.891   1.599  0.7173 -0.2837  0.3871
  811SOL    HW1 2432   1.851   2.957   1.554  0.1978 -1.1590 -2.6334
  811SOL    HW2 2433   1.921   2.910   1.701 -0.0802  3.7827  3.2173
  812SOL     OW 2434   1.651   2.592   0.509  0.3743  0.1824  0.1157
  812SOL    HW1 2435   1.718   2.596   0.581 -3.3526  0.5027 -3.8675
  812SOL    HW2 2436   1.559   2.637   0.539 -2.6247  0.7110  2.8000
  813SOL     OW 2437   1.107   0.687   1.798  0.0163  0.2323 -0.7174
  813SOL    HW1 2438   1.170   0.681   1.876 -3.3961 -1.8056 -3.0065
  813SOL    HW2 2439   1.013   0.716   1.823 -0.4241 -0.9216 -2.2914
  814SOL     OW 2440   0.464   0.024   1.337  0.0236  0.1141  0.0594
  814SOL    HW1 2441   0.487   0.112   1.288  1.5321  2.9676 -2.1909
  814SOL    HW2 2442   0.546   3.063   1.381  0.8203 -3.8885 -2.6262
  815SOL     OW 2443   0.380   2.929   0.611  0.5088 -0.0072 -0.1732
  815SOL    HW1 2444   0.453   2.998   0.625 -1.5543 -1.5458 -0.8302
  815SOL    HW2 2445   0.398   2.843   0.665 -0.6699 -1.6871 -1.0137
  816SOL     OW 2446   2.668   1.328   2.522 -0.5924  0.4140  0.1722
  816SOL    HW1 2447   2.632   1.341   2.616  2.6021 -0.6776 -1.6681
  816SOL    HW2 2448   2.725   1.410   2.497  0.6618  1.5603 -1.5285
  817SOL     OW 2449   1.248   0.108   0.091 -0.0245  0.1436 -0.4789
  817SOL    HW1 2450   1.206   0.115   0.181 -1.0929  2.1944 -0.0794
  817SOL    HW2 2451   1.219   0.186   0.030 -0.7168  0.6599  0.4465
  818SOL     OW 2452   1.451   0.533   0.168 -0.0188  0.0093  0.5347
  818SOL    HW1 2453   1.498   0.583   0.239 -1.3232  0.1644 -2.3331
  818SOL    HW2 2454   1.499   0.444   0.157 -4.0519  1.1035 -0.0433
  819SOL     OW 2455   1.960   2.542   2.976  0.1223 -0.3494 -0.6003
  819SOL    HW1 2456   1.871   2.561   2.931  0.4043  2.1580  0.8463
  819SOL    HW2 2457   1.945   2.521   3.075  0.3764 -1.4437 -1.6480
  820SOL     OW 2458   1.615   0.974   0.007 -0.0882 -0.2672  0.2092
  820SOL    HW1 2459   1.569   0.884   3.075  2.0020 -0.4859 -0.1951
  820SOL    HW2 2460   1.696   0.973   0.070  0.2342  2.0566  0.3813
  821SOL     OW 2461   0.429   0.618   1.478 -0.2778  0.0505 -0.1248
  821SOL    HW1 2462   0.373   0.703   1.489 -1.0845 -0.2025  0.8610
  821SOL    HW2 2463   0.480   0.591   1.560 -3.5371 -0.4387  2.4725
  822SOL     OW 2464   1.028   2.396   2.228  0.0756  0.4532  0.1519
  822SOL    HW1 2465   1.123   2.361   2.202 -0.4254 -1.8549 -0.3852
  822SOL    HW2 2466   1.018   2.495   2.204  0.8016 -1.7167 -1.6375
  823SOL     OW 2467   0.317   1.475   2.067  0.6065 -0.4234 -0.1540
  823SOL    HW1 2468   0.248   1.526   2.121  0.0026 -0.0429 -0.6794
  823SOL    HW2 2469   0.392   1.439   2.129  1.3865  0.5653  4.2242
  824SOL     OW 2470   1.765   2.718   1.922  0.3737  0.1098  0.1131
  824SOL    HW1 2471   1.729   2.764   1.839  3.2190 -0.5358 -1.1385
  824SOL    HW2 2472   1.701   2.734   2.000  1.1016  0.4168 -0.9745
  825SOL     OW 2473   0.953   1.249   0.146  0.0580  0.3503  0.0962
  825SOL    HW1 2474   0.951   1.351   0.134 -0.1126  4.3866 -2.0874
  825SOL    HW2 2475   0.928   1.198   0.056  0.8477 -2.5752  0.8187
  826SOL     OW 2476   2.090   0.604   2.898 -0.7025  0.3480  0.1071
  826SOL    HW1 2477   2.018   0.621   2.829  0.9893 -2.1390  0.6626
  826SOL    HW2 2478   2.101   0.688   2.947 -2.1642  0.1341 -1.3893
  827SOL     OW 2479   0.391   2.030   2.895  0.4391  0.1204  0.2882
  827SOL    HW1 2480   0.461   2.039   2.825 -0.3258  2.6232 -0.2719
  827SOL    HW2 2481   0.299   2.014   2.848 -3.8733 -1.2196 -1.7384
  828SOL     OW 2482   3.031   0.254   1.394 -1.0761  0.0993  0.1588
  828SOL    HW1 2483   0.000   0.255   1.487 -1.1009  0.0818  1.0081
  828SOL    HW2 2484   2.943   0.306   1.394  0.8320 -1.0496  0.7373
  829SOL     OW 2485   1.198   1.472   1.145  1.2234 -0.3987 -0.5113
  829SOL    HW1 2486   1.245   1.531   1.210  1.3573 -0.3775 -3.1042
  829SOL    HW2 2487   1.155   1.526   1.070 -1.3037 -1.4499 -3.2514
  830SOL     OW 2488   0.542   1.455   1.336  0.3725 -0.3503 -0.3550
  830SOL    HW1 2489   0.574   1.544   1.372 -1.3186  4.0448  0.3259
  830SOL    HW2 2490   0.511   1.466   1.241  0.7836  0.0652 -3.0528
  831SOL     OW 2491   0.594   1.846   0.186 -0.7240 -0.5012  0.7235
  831SOL    HW1 2492   0.661   1.864   0.108 -0.9256  0.5389  0.5342
  831SOL    HW2 2493   0.507   1.843   0.140  4.0245 -0.6521 -0.2651
  832SOL     OW 2494   1.111   2.992   3.021  0.4446  1.0206 -0.1978
  832SOL    HW1 2495   1.158   3.070   3.061  0.6397  1.1158 -1.3829
  832SOL    HW2 2496   1.059   2.935   0.014  0.7806 -1.2532  2.5905
  833SOL     OW 2497   0.000   0.708   1.726 -0.1943  0.5307 -0.3452
  833SOL    HW1 2498   3.031   0.647   1.662  0.5894  1.5463  2.0480
  833SOL    HW2 2499   3.028   0.730   1.808 -0.2752 -0.9335  1.7126
  834SOL     OW 2500   0.232   0.680   1.087  0.3380 -0.8972 -0.1477
  834SOL    HW1 2501   0.176   0.631   1.021  0.3101  1.6988 -1.6037
  834SOL    HW2 2502   0.305   0.729   1.036 -1.4849 -0.6138  1.0554
  835SOL     OW 2503   2.743   3.039   1.155 -0.5666  0.1726 -0.1657
  835SOL    HW1 2504   2.768   0.048   1.113  0.5205 -1.1635  0.0090
  835SOL    HW2 2505   2.642   3.035   1.153 -3.2125 -1.3799  1.9847
  836SOL     OW 2506   0.361   1.869   0.050 -0.4136 -0.4325  0.4691
  836SOL    HW1 2507   0.264   1.900   0.057  1.7689  2.4158  0.2206
  836SOL    HW2 2508   0.408   1.926   3.061  0.0524  0.6608 -2.1673
  837SOL     OW 2509   1.891   1.754   2.711 -0.1901  0.4685 -0.5259
  837SOL    HW1 2510   1.857   1.710   2.626 -2.6124  0.6738 -0.7934
  837SOL    HW2 2511   1.965   1.697   2.750 -0.0431 -0.2079  0.6207
  838SOL     OW 2512   2.413   1.098   1.968  0.1778  0.2539 -0.4085
  838SOL    HW1 2513   2.370   1.026   1.908  0.2717 -2.9076  2.0763
  838SOL    HW2 2514   2.509   1.080   1.985 -0.9882  0.8358  3.1778
  839SOL     OW 2515   1.167   0.877   0.750 -0.6400 -0.2720  0.4137
  839SOL    HW1 2516   1.071   0.855   0.763  1.8897  0.5561 -0.5119
  839SOL    HW2 2517   1.204   0.848   0.659 -2.4690 -2.7292 -0.1874
  840SOL     OW 2518   1.391   0.508   0.897 -0.3554 -0.0779  0.7516
  840SOL    HW1 2519   1.352   0.455   0.818  1.1743  0.3201 -0.4568
  840SOL    HW2 2520   1.318   0.575   0.931 -1.4850  1.7296 -0.1142
  841SOL     OW 2521   0.702   2.678   0.662 -0.5376 -0.5683  0.3840
  841SOL    HW1 2522   0.719   2.755   0.725  1.3296 -2.0605 -2.8419
  841SOL    HW2 2523   0.608   2.684   0.622 -0.5209 -2.1029 -1.3942
  842SOL     OW 2524   0.620   0.555   0.598 -0.2015 -0.7181  0.0307
  842SOL    HW1 2525   0.698   0.527   0.665 -0.2505 -1.9015  1.6012
  842SOL    HW2 2526   0.569   0.473   0.570  0.2968  1.1714  0.6124
  843SOL     OW 2527   0.530   1.082   1.801  0.4164 -0.3230 -0.6491
  843SOL    HW1 2528   0.588   1.165   1.810  1.5392  2.0016  2.1442
  843SOL    HW2 2529   0.471   1.065   1.884 -0.4727 -1.8062  0.0098
  844SOL     OW 2530   1.417   2.272   2.896  0.5074 -0.0475 -0.2061
  844SOL    HW1 2531   1.435   2.350   2.833  0.8562  1.5573  4.1060
  844SOL    HW2 2532   1.329   2.231   2.863 -0.3710  2.1462 -1.4701
  845SOL     OW 2533   2.650   2.494   2.331 -0.2890 -0.7283 -0.5191
  845SOL    HW1 2534   2.749   2.469   2.332  1.2810  2.2779  1.8390
  845SOL    HW2 2535   2.602   2.476   2.240  3.6859  0.1985  0.8344
  846SOL     OW 2536   1.907   1.922   2.355  0.2183 -0.1805 -0.4713
  846SOL    HW1 2537   1.987   1.900   2.422  0.9905 -4.5836  2.2009
  846SOL    HW2 2538   1.881   1.835   2.305 -0.6583  1.8250 -1.8099
  847SOL     OW 2539   1.952   2.792   2.374 -0.0432 -0.6936 -0.2921
  847SOL    HW1 2540   2.053   2.780   2.374  2.1238  0.5581  0.6243
  847SOL    HW2 2541   1.906   2.810   2.282 -1.0227 -2.0596 -0.5076
  848SOL     OW 2542   0.464   0.349   0.485  0.1875  0.3758 -0.4195
  848SOL    HW1 2543   0.465   0.428   0.420 -1.5859  0.7247  0.7312
  848SOL    HW2 2544   0.544   0.287   0.479 -3.3945  1.4406  4.2671
  849SOL     OW 2545   0.793   2.803   1.279 -0.1533  0.1757 -0.2931
  849SOL    HW1 2546   0.742   2.777   1.195  0.4862 -2.0550 -1.7840
  849SOL    HW2 2547   0.750   2.884   1.327  0.4257  0.4527  0.1741
  850SOL     OW 2548   0.027   1.678   0.305 -0.3870  0.1417  0.2912
  850SOL    HW1 2549   3.045   1.680   0.222 -1.6459 -2.4664 -1.5003
  850SOL    HW2 2550   0.001   1.756   0.369  0.2787  0.3740  3.2462
  851SOL     OW 2551   0.071   0.715   0.182 -0.5128 -0.3709  0.6487
  851SOL    HW1 2552   0.108   0.804   0.143 -1.9513  2.4405 -3.8422
  851SOL    HW2 2553   0.095   0.636   0.119 -1.3506 -1.2451 -1.5462
  852SOL     OW 2554   1.522   2.158   1.714  0.7331 -0.2620  0.0116
  852SOL    HW1 2555   1.611   2.141   1.757 -0.6535  0.3039  0.6967
  852SOL    HW2 2556   1.512   2.115   1.621 -1.0917 -0.3324  0.6851
  853SOL     OW 2557   0.237   1.622   0.156 -0.2196  0.1220 -0.3047
  853SOL    HW1 2558   0.291   1.698   0.115  1.7664  0.8869  0.5101
  853SOL    HW2 2559   0.156   1.640   0.212  0.4868 -1.8387  0.9543
  854SOL     OW 2560   1.960   1.150   1.481  0.3442  0.8676 -0.0624
  854SOL    HW1 2561   2.015   1.234   1.506 -1.4398 -0.3421  2.2521
  854SOL    HW2 2562   1.967   1.087   1.563 -0.2712 -0.4336  1.0300
  855SOL     OW 2563   0.563   2.250   0.185  0.5287  0.4248  0.0894
  855SOL    HW1 2564   0.470   2.277   0.150 -0.1464  0.7876  0.4868
  855SOL    HW2 2565   0.629   2.329   0.176 -0.1609 -0.0351 -0.6262
  856SOL     OW 2566   2.854   0.142   2.016  0.1050  0.2264 -0.1369
  856SOL    HW1 2567   2.852   0.241   2.030 -1.1130  0.9727 -1.6855
  856SOL    HW2 2568   2.897   0.100   2.096  1.6388  4.0911 -0.8969
  857SOL     OW 2569   0.465   0.541   2.144  0.3194  0.7375  0.2297
  857SOL    HW1 2570   0.484   0.499   2.050  4.1370 -0.3556 -2.5106
  857SOL    HW2 2571   0.497   0.638   2.140 -0.5759 -0.7493 -0.6180
  858SOL     OW 2572   2.902   1.481   2.294 -0.1544 -0.1102 -0.5256
  858SOL    HW1 2573   2.896   1.382   2.277 -3.6413  0.4647 -1.1767
  858SOL    HW2 2574   2.836   1.518   2.362  0.6993  1.1029  1.0186
  859SOL     OW 2575   1.965   2.766   0.434  0.2487 -0.1233 -0.0829
  859SOL    HW1 2576   1.959   2.730   0.340 -1.3337 -1.6737 -1.0173
  859SOL    HW2 2577   2.029   2.717   0.490 -3.3397  2.3581 -1.4863
  860SOL     OW 2578   1.913   0.401   0.123 -0.3792  0.0284  0.3447
  860SOL    HW1 2579   1.903   0.316   0.066 -1.2534 -0.2544 -2.2489
  860SOL    HW2 2580   1.876   0.481   0.075  1.8218 -1.0759  2.1292
  861SOL     OW 2581   0.477   0.576   0.953 -0.4504  0.2646  0.6715
  861SOL    HW1 2582   0.400   0.519   0.925 -0.3667  1.2526  1.6251
  861SOL    HW2 2583   0.566   0.549   0.911  0.5337  1.6981 -1.5055
  862SOL     OW 2584   1.639   0.552   1.824  0.2582 -0.5744 -0.3047
  862SOL    HW1 2585   1.597   0.636   1.859  1.5298 -0.6748 -1.7207
  862SOL    HW2 2586   1.649   0.552   1.725 -0.9909  2.0192 -0.9335
  863SOL     OW 2587   0.223   1.828   0.976  0.5987 -0.0745  0.4149
  863SOL    HW1 2588   0.128   1.841   1.013  2.8087  2.0015  0.9614
  863SOL    HW2 2589   0.292   1.897   1.011  1.5534 -2.8598  0.1704
  864SOL     OW 2590   2.452   3.008   1.900  0.0103 -0.1415  0.0008
  864SOL    HW1 2591   2.519   2.975   1.828  3.5772 -0.4524 -1.2762
  864SOL    HW2 2592   2.397   2.929   1.940  3.9227 -1.1776  0.3297
  865SOL     OW 2593   1.023   0.524   1.154  0.3875  0.1990 -0.0441
  865SOL    HW1 2594   1.068   0.603   1.203  1.5927  0.6825  4.0065
  865SOL    HW2 2595   1.041   0.435   1.202 -0.0338 -0.2549 -1.8679
  866SOL     OW 2596   2.537   2.461   0.540  0.2523  0.5788  0.2708
  866SOL    HW1 2597   2.543   2.496   0.444 -0.7409 -0.9574  1.7753
  866SOL    HW2 2598   2.606   2.497   0.599  1.2616  0.8086  2.0934
  867SOL     OW 2599   2.762   2.557   0.665 -0.3432  0.4703  0.8531
  867SOL    HW1 2600   2.786   2.515   0.754  0.1460  0.8322 -2.1838
  867SOL    HW2 2601   2.851   2.571   0.619  1.3286  0.4965  1.2784
  868SOL     OW 2602   1.198   1.734   2.325 -0.0611  0.0612  0.2861
  868SOL    HW1 2603   1.182   1.703   2.229 -1.1358 -0.4698 -0.4350
  868SOL    HW2 2604   1.218   1.830   2.328  1.0642 -3.0132 -1.6880
  869SOL     OW 2605   2.036   1.545   0.315 -0.0321  0.3852  0.2330
  869SOL    HW1 2606   2.017   1.445   0.312  1.3212 -1.7526 -1.0471
  869SOL    HW2 2607   2.121   1.562   0.263  0.1416  2.4989  1.0740
  870SOL     OW 2608   2.333   1.943   0.430  0.0686 -0.1654  0.2618
  870SOL    HW1 2609   2.313   2.032   0.478  2.3687  1.8346  4.1075
  870SOL    HW2 2610   2.270   1.928   0.351 -0.1626  0.8523 -1.6005
  871SOL     OW 2611   2.989   0.923   1.494 -0.0315  0.4410  0.0598
  871SOL    HW1 2612   3.055   0.994   1.521 -0.5446 -0.0776 -1.3220
  871SOL    HW2 2613   3.015   0.830   1.525 -0.3003  0.7043 -0.6368
  872SOL     OW 2614   0.569   1.769   2.633  0.0778 -0.2358 -0.1686
  872SOL    HW1 2615   0.545   1.804   2.542  1.6465 -0.4232 -1.9841
  872SOL    HW2 2616   0.486   1.750   2.691  0.3196 -1.3054  2.0585
  873SOL     OW 2617   0.448   2.539   2.101  0.2788  0.0346 -0.2712
  873SOL    HW1 2618   0.358   2.483   2.094 -3.8466 -0.6623  0.4734
  873SOL    HW2 2619   0.441   2.627   2.155 -0.9815 -1.6378  0.3809
  874SOL     OW 2620   1.167   1.028   2.080  0.2582  0.4565 -0.3734
  874SOL    HW1 2621   1.118   1.081   2.158 -1.8499  0.0651  2.9838
  874SOL    HW2 2622   1.197   0.931   2.110 -0.0053 -2.9075  2.5206
  875SOL     OW 2623   2.877   2.803   1.119  0.0017 -0.0897 -0.6223
  875SOL    HW1 2624   2.957   2.851   1.073 -0.9117 -0.1527 -3.5670
  875SOL    HW2 2625   2.809   2.877   1.149  2.3109  1.0909 -0.0451
  876SOL     OW 2626   1.003   1.309   0.794  0.3553  0.1652 -0.2333
  876SOL    HW1 2627   0.999   1.399   0.840  0.1101 -2.9589 -0.7966
  876SOL    HW2 2628   0.954   1.308   0.705 -0.8457  1.9696  0.0043
  877SOL     OW 2629   0.420   0.268   1.203  1.1893  0.6247 -0.8807
  877SOL    HW1 2630   0.338   0.322   1.234  1.3268  2.5804  2.2155
  877SOL    HW2 2631   0.428   0.258   1.103  2.7882 -2.4390  2.9393
  878SOL     OW 2632   2.609   1.800   2.798  0.0562  0.2236  0.4371
  878SOL    HW1 2633   2.667   1.715   2.783 -0.0473 -1.0844  2.0400
  878SOL    HW2 2634   2.517   1.779   2.832 -2.1323  0.3651  0.3810
  879SOL     OW 2635   2.455   1.983   1.048 -0.1458  0.7999 -0.1001
  879SOL    HW1 2636   2.473   1.941   0.957 -0.9280 -2.7749  4.0893
  879SOL    HW2 2637   2.517   2.060   1.062  0.1904 -1.9317 -0.4053
  880SOL     OW 2638   0.965   2.184   1.238 -0.5886 -0.0456 -0.1659
  880SOL    HW1 2639   0.977   2.168   1.338 -1.4787  0.5343 -0.4754
  880SOL    HW2 2640   1.046   2.222   1.188  2.6737 -0.2405 -0.2986
  881SOL     OW 2641   1.555   1.979   1.246  0.4416  0.0672  0.2248
  881SOL    HW1 2642   1.541   2.015   1.338 -0.4132  0.4433 -4.3085
  881SOL    HW2 2643   1.479   1.920   1.212  0.5563  0.8323  1.0085
  882SOL     OW 2644   2.180   1.358   2.416  0.1624  0.2500 -1.1512
  882SOL    HW1 2645   2.257   1.316   2.361  0.8378 -2.0113  1.3375
  882SOL    HW2 2646   2.159   1.457   2.395  1.1124  0.4592  0.1199
  883SOL     OW 2647   1.277   0.350   0.685 -0.1237  0.3375 -0.3306
  883SOL    HW1 2648   1.195   0.407   0.663 -2.5477  0.5620  0.4953
  883SOL    HW2 2649   1.250   0.251   0.685 -0.9344 -1.1943  3.8739
  884SOL     OW 2650   0.053   2.902   0.942 -0.0693  0.5180 -0.0324
  884SOL    HW1 2651   0.113   2.822   0.918  1.4152 -3.5397 -3.0035
  884SOL    HW2 2652   0.113   2.978   0.975  3.0311  1.2701 -5.4916
  885SOL     OW 2653   0.974   1.075   1.878 -0.4672 -0.2055  0.3034
  885SOL    HW1 2654   1.010   1.072   1.782  2.1599  0.4870 -2.1552
  885SOL    HW2 2655   1.049   1.069   1.946  0.1356  3.2601 -0.0964
  886SOL     OW 2656   1.164   0.980   2.895 -0.0336 -0.4946  0.2387
  886SOL    HW1 2657   1.100   1.036   2.838 -0.0963  1.1942  1.4352
  886SOL    HW2 2658   1.258   0.974   2.853  2.4397  1.8127  0.8880
  887SOL     OW 2659   1.696   0.290   0.763  0.3090  0.2177 -0.6387
  887SOL    HW1 2660   1.664   0.370   0.818  0.6535  1.0579 -0.0327
  887SOL    HW2 2661   1.784   0.306   0.711 -0.8615  2.7386 -0.4652
  888SOL     OW 2662   2.499   1.279   1.654  0.6872 -0.4897  0.3247
  888SOL    HW1 2663   2.569   1.341   1.625 -1.4702 -0.5363  3.3354
  888SOL    HW2 2664   2.462   1.307   1.749  0.4271  1.4247  1.2701
  889SOL     OW 2665   0.106   2.071   1.163  0.2357 -0.2100  0.3798
  889SOL    HW1 2666   0.075   2.170   1.156 -1.3012 -0.5121  3.0225
  889SOL    HW2 2667   0.043   2.013   1.108 -0.4418  2.8912  0.6465
  890SOL     OW 2668   1.208   2.302   0.749 -0.4606 -0.1516  0.0961
  890SOL    HW1 2669   1.162   2.271   0.660 -0.1168 -1.2335 -1.6056
  890SOL    HW2 2670   1.161   2.280   0.839  0.1522 -2.0151 -0.4666
  891SOL     OW 2671   2.724   0.525   2.203  0.2244 -0.2706 -0.6866
  891SOL    HW1 2672   2.775   0.567   2.281 -0.2666  1.4229 -0.0867
  891SOL    HW2 2673   2.653   0.454   2.233 -1.6622 -1.0105 -0.2707
  892SOL     OW 2674   0.218   2.476   1.602  0.0482 -0.0715  0.7583
  892SOL    HW1 2675   0.243   2.484   1.501 -0.1925  1.5423 -1.0435
  892SOL    HW2 2676   0.299   2.458   1.660  0.9231  0.9785  0.8337
  893SOL     OW 2677   0.960   0.453   1.686 -0.5872  0.2831 -0.3010
  893SOL    HW1 2678   1.013   0.364   1.701 -0.2349 -2.6165 -0.4353
  893SOL    HW2 2679   1.005   0.530   1.736 -1.1977  0.4567  1.5069
  894SOL     OW 2680   2.808   0.204   0.824 -0.1429 -0.1379  0.2545
  894SOL    HW1 2681   2.828   0.187   0.921 -0.2822  2.8235 -2.8014
  894SOL    HW2 2682   2.711   0.233   0.806 -1.5887  0.1752  1.5915
  895SOL     OW 2683   1.869   1.680   2.203  0.1697  0.1170 -0.2598
  895SOL    HW1 2684   1.812   1.595   2.205 -0.3230  0.1427  1.1544
  895SOL    HW2 2685   1.935   1.675   2.128 -1.0617  0.5451  0.7401
  896SOL     OW 2686   1.562   0.591   1.549 -0.3428  0.3935 -0.0530
  896SOL    HW1 2687   1.576   0.536   1.463 -0.1566 -0.3797 -2.2649
  896SOL    HW2 2688   1.565   0.691   1.525  2.3164  0.3528 -0.2662
  897SOL     OW 2689   0.672   1.512   1.779 -0.9022 -0.5639 -0.1615
  897SOL    HW1 2690   0.757   1.569   1.763  1.0672  1.4927 -1.8972
  897SOL    HW2 2691   0.688   1.416   1.751  1.5734  0.2146 -2.3760
  898SOL     OW 2692   1.765   1.945   2.070 -0.0046 -0.3639  0.4363
  898SOL    HW1 2693   1.698   1.919   2.142 -0.3275 -0.1368  0.0273
  898SOL    HW2 2694   1.860   1.945   2.111 -0.6828 -1.4133 -0.7884
  899SOL     OW 2695   1.921   1.960   0.579 -0.2074  0.0838  0.2805
  899SOL    HW1 2696   1.946   1.863   0.554  1.9119 -1.2486  0.7220
  899SOL    HW2 2697   1.838   1.992   0.527 -2.4402 -0.5084 -1.1013
  900SOL     OW 2698   1.071   0.269   2.565 -0.1309 -0.6455 -0.4145
  900SOL    HW1 2699   1.009   0.238   2.642  0.1765 -1.9481  3.3169
  900SOL    HW2 2700   1.016   0.290   2.480  1.7977 -0.8249 -1.9076
  901SOL     OW 2701   0.987   1.450   2.105 -0.1199  0.2080  0.2250
  901SOL    HW1 2702   0.925   1.493   2.173 -1.7623 -1.2034 -0.2513
  901SOL    HW2 2703   1.029   1.363   2.135  2.4881  0.8819  2.8828
  902SOL     OW 2704   1.791   0.653   0.044  0.0908  0.0692 -0.0269
  902SOL    HW1 2705   1.731   0.689   3.051  2.2040 -1.2425  1.1177
  902SOL    HW2 2706   1.744   0.664   0.132  1.9443  0.3580  0.1835
  903SOL     OW 2707   2.054   0.828   2.555 -0.5646  0.0302  0.3867
  903SOL    HW1 2708   2.000   0.914   2.537 -2.2019  0.2905 -0.4777
  903SOL    HW2 2709   2.123   0.804   2.480 -0.5559  0.5226 -1.9120
  904SOL     OW 2710   1.980   0.998   1.701 -0.0830  0.1886  0.4636
  904SOL    HW1 2711   1.980   0.895   1.715  1.2011 -0.3090  1.4834
  904SOL    HW2 2712   2.039   1.041   1.772 -2.0500  1.8006  0.0202
  905SOL     OW 2713   2.141   0.392   0.837 -0.0774  0.1660  0.1405
  905SOL    HW1 2714   2.179   0.476   0.795 -2.2681 -1.8574 -0.1719
  905SOL    HW2 2715   2.202   0.358   0.905 -0.3846  1.5745 -2.9520
  906SOL     OW 2716   2.587   1.564   0.595 -0.3173  0.9088 -0.0164
  906SOL    HW1 2717   2.575   1.481   0.538 -2.1694 -1.4222 -0.0235
  906SOL    HW2 2718   2.572   1.648   0.539 -1.7254 -1.6092  1.1659
  907SOL     OW 2719   1.431   0.041   0.480  0.0419  1.1865  0.0794
  907SOL    HW1 2720   1.503   0.025   0.550 -0.7149 -0.2028 -3.3019
  907SOL    HW2 2721   1.389   3.037   0.444  1.3180  1.4083 -0.5414
  908SOL     OW 2722   1.800   2.374   1.957 -0.1898 -0.7103  0.6204
  908SOL    HW1 2723   1.779   2.332   2.042 -1.0797 -0.9132 -2.5991
  908SOL    HW2 2724   1.870   2.446   1.969  1.8548 -1.0030 -2.8281
  909SOL     OW 2725   2.602   0.462   1.656 -0.2949 -0.5445 -0.2121
  909SOL    HW1 2726   2.526   0.516   1.693  1.5018  0.9850 -0.6749
  909SOL    HW2 2727   2.602   0.370   1.692  0.1738  1.7449  0.1916
  910SOL     OW 2728   1.329   0.206   2.521 -0.0949  0.5759 -0.7547
  910SOL    HW1 2729   1.236   0.228   2.555  2.2470 -3.3812  2.6663
  910SOL    HW2 2730   1.404   0.214   2.593 -0.9141 -3.2473  1.0464
  911SOL     OW 2731   2.366   1.099   2.470  0.5178  0.0650 -0.2322
  911SOL    HW1 2732   2.375   1.105   2.367 -2.7368 -0.5887 -1.3105
  911SOL    HW2 2733   2.410   1.016   2.505 -3.5045 -0.4317 -1.0318
  912SOL     OW 2734   2.978   2.357   1.469  0.0357  0.5808 -0.4803
  912SOL    HW1 2735   2.878   2.339   1.457 -0.5184 -0.5154  0.5940
  912SOL    HW2 2736   2.990   2.448   1.515  1.9462  0.4740  2.6593
  913SOL     OW 2737   2.769   1.805   2.237 -0.3596 -0.7990  0.0410
  913SOL    HW1 2738   2.743   1.829   2.333  1.2736 -0.4386 -1.0790
  913SOL    HW2 2739   2.695   1.770   2.177  1.1960  0.0187  0.0642
  914SOL     OW 2740   2.187   1.515   0.730  0.1694 -0.5649  0.2917
  914SOL    HW1 2741   2.208   1.606   0.692  1.6903 -1.6494  3.1815
  914SOL    HW2 2742   2.158   1.450   0.659  0.7377  1.2937  0.2098
  915SOL     OW 2743   0.899   2.659   2.186 -0.4869  0.2690  0.4205
  915SOL    HW1 2744   0.883   2.678   2.285 -0.7498  2.3537 -0.8394
  915SOL    HW2 2745   0.814   2.664   2.131 -1.3536  0.2145  1.0101
  916SOL     OW 2746   0.522   2.461   0.992  0.0511 -0.0550  0.5643
  916SOL    HW1 2747   0.514   2.415   1.081  0.1110  3.7097  0.0210
  916SOL    HW2 2748   0.432   2.449   0.945  1.2999 -1.2684 -2.1213
  917SOL     OW 2749   2.482   0.828   2.845 -0.3270 -0.2167  0.0822
  917SOL    HW1 2750   2.378   0.822   2.823 -0.6217 -0.5952 -0.0781
  917SOL    HW2 2751   2.521   0.737   2.880 -1.6721 -1.6348  1.7342
  918SOL     OW 2752   1.669   2.245   2.165  0.4032 -0.5743  0.1378
  918SOL    HW1 2753   1.684   2.204   2.256  1.2049  0.7397 -2.4499
  918SOL    HW2 2754   1.589   2.210   2.113 -0.4114  0.5393  1.8323
  919SOL     OW 2755   1.921   2.056   0.863  0.0334  0.3741 -0.3695
  919SOL    HW1 2756   1.874   2.040   0.777 -1.1712 -0.9763  0.7183
  919SOL    HW2 2757   1.987   1.975   0.872  1.3696 -0.2898 -1.7105
  920SOL     OW 2758   1.319   0.386   2.297 -0.5909  0.2646  0.8150
  920SOL    HW1 2759   1.322   0.313   2.366  2.5844  2.4853 -1.3163
  920SOL    HW2 2760   1.339   0.472   2.348  0.5162 -0.6568 -1.1401
  921SOL     OW 2761   0.128   0.667   2.770  0.2701 -0.3311 -0.4359
  921SOL    HW1 2762   0.204   0.669   2.701  1.7607 -0.5457  1.0101
  921SOL    HW2 2763   0.053   0.604   2.743 -0.9618 -3.5262 -0.5913
  922SOL     OW 2764   2.814   1.974   1.139 -0.0466 -0.1124 -0.5680
  922SOL    HW1 2765   2.752   1.950   1.218 -0.4800  1.9641 -1.2288
  922SOL    HW2 2766   2.761   2.031   1.077  0.3481 -0.8407  3.4150
  923SOL     OW 2767   3.024   1.877   2.524 -0.3323  0.7806  0.0361
  923SOL    HW1 2768   2.986   1.878   2.433  0.7603  0.1167  0.1625
  923SOL    HW2 2769   2.992   1.957   2.577 -1.4374  1.3783  0.5156
  924SOL     OW 2770   1.457   0.480   2.079  0.0361  0.6288  0.3047
  924SOL    HW1 2771   1.476   0.431   1.992 -1.3999 -1.1461  1.2056
  924SOL    HW2 2772   1.406   0.417   2.145 -1.6413 -1.5715  3.0030
  925SOL     OW 2773   3.036   1.040   0.427  0.6908 -0.0256  0.0283
  925SOL    HW1 2774   3.033   0.946   0.468 -0.0840 -2.6761 -6.0548
  925SOL    HW2 2775   2.945   1.078   0.426  2.3410  0.9091  0.0875
  926SOL     OW 2776   2.281   0.263   1.091  0.0920  0.2301  0.2916
  926SOL    HW1 2777   2.343   0.213   1.029  0.6301 -2.7392 -1.5664
  926SOL    HW2 2778   2.322   0.316   1.172  2.6322  2.9352  0.4056
  927SOL     OW 2779   1.402   0.818   0.955 -0.5051 -0.4129 -0.2407
  927SOL    HW1 2780   1.435   0.865   0.873 -0.2344 -0.1958 -1.2153
  927SOL    HW2 2781   1.327   0.755   0.931 -0.3455  0.3570  0.1771
  928SOL     OW 2782   2.905   0.417   2.036 -0.3144  0.0028  0.1375
  928SOL    HW1 2783   2.826   0.448   2.093 -1.3739 -1.6077  0.0863
  928SOL    HW2 2784   2.998   0.443   2.077  1.3405  1.1139 -0.1168
  929SOL     OW 2785   2.419   0.720   1.215 -0.4600  0.0583  0.1945
  929SOL    HW1 2786   2.369   0.674   1.293 -0.8763 -2.0403  1.2971
  929SOL    HW2 2787   2.440   0.820   1.237 -1.1823  1.3714 -2.2045
  930SOL     OW 2788   2.084   2.416   0.796  0.1316  0.3724 -0.0823
  930SOL    HW1 2789   2.011   2.371   0.742 -1.5500 -0.7783 -2.7712
  930SOL    HW2 2790   2.064   2.438   0.893 -0.4514  0.0867 -2.2142
  931SOL     OW 2791   1.758   0.992   1.128 -0.2796 -0.4915  0.6912
  931SOL    HW1 2792   1.696   1.064   1.156  0.7692 -3.3721 -3.0778
  931SOL    HW2 2793   1.852   1.004   1.173 -0.7307  0.6056  0.2295
  932SOL     OW 2794   0.223   0.835   1.477 -0.2972  0.5739  0.0886
  932SOL    HW1 2795   0.150   0.768   1.499  0.7450 -1.2623 -1.7699
  932SOL    HW2 2796   0.204   0.901   1.399 -0.9170  0.4858 -1.6131
  933SOL     OW 2797   2.038   1.692   1.975 -0.1410 -0.1505  0.1735
  933SOL    HW1 2798   2.083   1.605   1.962 -1.0746  3.0930 -0.9398
  933SOL    HW2 2799   1.975   1.696   1.888 -1.5495  1.2561  0.1062
  934SOL     OW 2800   1.618   2.836   1.716  0.0897  0.3489 -0.1118
  934SOL    HW1 2801   1.612   2.823   1.615 -0.8729  1.0923 -1.0895
  934SOL    HW2 2802   1.594   2.927   1.740 -2.9216 -1.7397  0.6011
  935SOL     OW 2803   0.152   0.972   1.273 -0.9575 -0.6023 -0.8136
  935SOL    HW1 2804   0.068   0.958   1.225  0.1427  0.5225  0.8182
  935SOL    HW2 2805   0.225   1.013   1.210  1.9027  2.2191  0.9426
  936SOL     OW 2806   2.553   0.556   1.408 -0.1476 -0.0753  0.0248
  936SOL    HW1 2807   2.581   0.521   1.501 -0.9737 -0.1261  1.8994
  936SOL    HW2 2808   2.623   0.623   1.374  1.6021  0.8454  0.8098
  937SOL     OW 2809   0.841   0.166   1.525 -0.3086  0.2212  0.2477
  937SOL    HW1 2810   0.806   0.221   1.444 -0.9141  1.4225  0.2832
  937SOL    HW2 2811   0.801   0.202   1.610  1.7430 -2.8378  1.6290
  938SOL     OW 2812   0.295   2.459   0.802  0.3498 -0.0176  0.7030
  938SOL    HW1 2813   0.200   2.423   0.789 -3.1317 -0.5353  0.6697
  938SOL    HW2 2814   0.365   2.415   0.740  0.7533 -1.3196 -1.4194
  939SOL     OW 2815   2.805   2.419   2.771 -0.3274  0.7667 -0.3969
  939SOL    HW1 2816   2.896   2.425   2.729  0.7951 -1.5460 -2.4006
  939SOL    HW2 2817   2.782   2.491   2.839  1.6056  0.5912  1.8756
  940SOL     OW 2818   1.795   1.975   2.898 -0.1837  0.7845  0.1824
  940SOL    HW1 2819   1.758   2.064   2.875  1.3342 -3.1309 -0.2609
  940SOL    HW2 2820   1.851   1.941   2.821  1.7439  1.4437 -0.0328
  941SOL     OW 2821   1.830   2.614   0.712 -0.0715 -0.2302  0.2163
  941SOL    HW1 2822   1.828   2.511   0.702 -2.1701  0.2274  0.2870
  941SOL    HW2 2823   1.927   2.641   0.719 -2.4254 -1.4126  0.4448
  942SOL     OW 2824   1.973   1.777   1.116  0.8170 -0.1520 -0.0644
  942SOL    HW1 2825   2.024   1.850   1.069 -2.6625  0.9829 -2.4700
  942SOL    HW2 2826   1.891   1.745   1.062  0.6736 -1.2607  0.8878
  943SOL     OW 2827   1.972   0.738   1.776  0.7094 -0.4665  0.5478
  943SOL    HW1 2828   1.908   0.692   1.713  1.7537  0.7461 -1.3351
  943SOL    HW2 2829   2.023   0.670   1.832  3.0663 -1.8222  0.7216
  944SOL     OW 2830   1.494   0.822   1.834  0.1413 -0.0174 -0.2737
  944SOL    HW1 2831   1.583   0.868   1.816 -1.3228 -1.4509  1.9676
  944SOL    HW2 2832   1.431   0.846   1.757 -1.4600 -2.6079 -3.1295
  945SOL     OW 2833   2.728   2.622   1.267 -0.2332  0.5494 -0.3330
  945SOL    HW1 2834   2.635   2.657   1.277  0.2401 -0.5214  0.8385
  945SOL    HW2 2835   2.789   2.688   1.216 -0.1447  2.9126 -1.2824
  946SOL     OW 2836   0.796   1.750   0.876  0.0292  0.9199 -0.5406
  946SOL    HW1 2837   0.763   1.656   0.869  0.4564  1.9512  2.9050
  946SOL    HW2 2838   0.790   1.799   0.787  0.2623  0.7515 -1.2835
  947SOL     OW 2839   1.052   2.605   1.025  0.2245  0.6889 -0.2769
  947SOL    HW1 2840   1.005   2.653   0.949 -0.3098  2.1831 -0.0215
  947SOL    HW2 2841   0.994   2.608   1.108  0.9104 -1.4097 -1.2812
  948SOL     OW 2842   0.269   1.517   1.653 -0.0971  0.1265  0.3555
  948SOL    HW1 2843   0.307   1.429   1.625 -1.6421 -0.6415 -0.5307
  948SOL    HW2 2844   0.320   1.564   1.725  0.7684 -0.5153  0.1317
  949SOL     OW 2845   0.514   0.822   2.131  0.2700 -0.1650 -0.0418
  949SOL    HW1 2846   0.597   0.871   2.161  0.2276  0.8606 -2.4778
  949SOL    HW2 2847   0.465   0.883   2.062 -1.0265  0.0899  0.3818
  950SOL     OW 2848   0.270   0.495   1.303  0.0363  0.6417 -0.0595
  950SOL    HW1 2849   0.335   0.540   1.372 -0.2775  0.2392  1.4859
  950SOL    HW2 2850   0.245   0.565   1.235 -2.5430 -1.7295 -2.7449
  951SOL     OW 2851   1.111   1.682   2.062  1.0702 -0.7915 -0.2392
  951SOL    HW1 2852   1.083   1.585   2.069 -0.0441 -0.5643  1.4295
  951SOL    HW2 2853   1.028   1.735   2.038  0.2387 -0.9464  0.7680
  952SOL     OW 2854   1.176   1.621   0.159  0.5711 -0.3497  0.5356
  952SOL    HW1 2855   1.208   1.635   0.255  1.9323 -0.8965  1.8511
  952SOL    HW2 2856   1.255   1.603   0.100 -0.4001  0.3700 -1.6498
  953SOL     OW 2857   0.941   0.103   2.764 -1.0673  0.1858  0.5197
  953SOL    HW1 2858   0.851   0.113   2.813 -0.4596 -2.0667  0.6704
  953SOL    HW2 2859   0.980   0.008   2.777  1.8184 -2.7646 -0.5408
  954SOL     OW 2860   1.817   1.569   0.125  0.0268 -0.3033 -0.5146
  954SOL    HW1 2861   1.792   1.475   0.095 -1.9734 -1.1912 -1.3981
  954SOL    HW2 2862   1.888   1.569   0.198  1.1931 -1.0870 -1.0330
  955SOL     OW 2863   0.475   2.546   2.904 -0.1701 -0.2503 -0.5836
  955SOL    HW1 2864   0.495   2.566   2.805  0.2969 -3.4201  0.8352
  955SOL    HW2 2865   0.442   2.449   2.908  2.4171  0.8112 -0.7214
  956SOL     OW 2866   1.344   0.945   1.617  0.5087  0.3883  0.3628
  956SOL    HW1 2867   1.349   0.956   1.512  2.2380  0.7892  0.6801
  956SOL    HW2 2868   1.248   0.968   1.647 -1.3373 -0.0796 -0.9283
  957SOL     OW 2869   1.684   1.769   1.864  0.2811  0.6642  0.1565
  957SOL    HW1 2870   1.703   1.835   1.942 -0.1750  0.1150 -0.5950
  957SOL    HW2 2871   1.596   1.784   1.821  0.2387 -1.6833 -2.9053
  958SOL     OW 2872   1.313   2.316   1.390 -0.4628  0.5057 -0.4751
  958SOL    HW1 2873   1.279   2.328   1.486  1.3579  1.4864 -1.2026
  958SOL    HW2 2874   1.419   2.328   1.391  2.0977  1.9434 -0.3690
  959SOL     OW 2875   1.357   1.542   1.404  0.2160  0.1683  0.6734
  959SOL    HW1 2876   1.266   1.560   1.439  2.6559 -1.4715  0.3101
  959SOL    HW2 2877   1.385   1.458   1.451 -1.3221 -1.2729 -2.2135
  960SOL     OW 2878   0.134   1.491   2.925 -0.0540 -0.7208 -0.2396
  960SOL    HW1 2879   0.152   1.444   3.013 -0.6836 -0.6640  2.1369
  960SOL    HW2 2880   0.211   1.481   2.859 -1.8613  1.8377 -2.1533
  961SOL     OW 2881   0.559   1.389   2.177 -0.5478  0.3225  0.4161
  961SOL    HW1 2882   0.558   1.401   2.280  2.0089  0.3494  1.7547
  961SOL    HW2 2883   0.635   1.330   2.141  1.1763  0.1099 -0.0482
  962SOL     OW 2884   1.405   1.769   0.895 -0.1895 -0.1649 -0.0477
  962SOL    HW1 2885   1.500   1.797   0.872  1.0592  0.9961 -2.3008
  962SOL    HW2 2886   1.392   1.760   0.994 -0.4297 -0.4338 -1.4644
  963SOL     OW 2887   1.498   1.985   2.469  0.2723  0.2682  0.1471
  963SOL    HW1 2888   1.413   2.042   2.463  3.0906  0.0275 -0.2760
  963SOL    HW2 2889   1.491   1.932   2.557 -0.1220  1.4478 -1.0732
  964SOL     OW 2890   0.761   0.137   0.228  0.0824 -0.3790  0.1334
  964SOL    HW1 2891   0.750   0.157   0.328  1.0771  0.5891  1.4456
  964SOL    HW2 2892   0.718   0.042   0.209 -0.6410 -0.3809 -0.3494
  965SOL     OW 2893   0.447   2.834   0.992 -0.1849 -0.4671  0.7914
  965SOL    HW1 2894   0.542   2.814   0.974 -2.6016  1.1352 -0.9671
  965SOL    HW2 2895   0.433   2.932   1.001 -1.3355 -0.1371 -0.8627
  966SOL     OW 2896   0.311   1.753   2.798  0.8251 -0.0147 -0.6531
  966SOL    HW1 2897   0.300   1.775   2.897 -1.5882  0.6665  1.2324
  966SOL    HW2 2898   0.323   1.657   2.782  1.0152  0.2617  1.9381
  967SOL     OW 2899   0.392   2.713   2.454 -0.4330  0.3414 -0.4047
  967SOL    HW1 2900   0.392   2.805   2.504  0.2223  0.9866  2.1352
  967SOL    HW2 2901   0.456   2.728   2.372 -0.1453  3.1006 -0.6531
  968SOL     OW 2902   2.247   0.503   0.301 -0.0032 -0.0093  0.1114
  968SOL    HW1 2903   2.150   0.498   0.327 -1.0652  0.1832  2.0962
  968SOL    HW2 2904   2.258   0.574   0.231 -2.8940 -5.1149  1.0023
  969SOL     OW 2905   0.078   1.892   2.015 -0.0374 -0.4498 -0.1055
  969SOL    HW1 2906   0.173   1.868   1.994  0.9617  1.3182  1.6801
  969SOL    HW2 2907   0.023   1.840   1.949  1.7406  0.9978  3.3500
  970SOL     OW 2908   2.412   1.285   1.384 -0.1479 -0.1787  0.1569
  970SOL    HW1 2909   2.503   1.269   1.333 -1.8630 -0.6622 -0.6968
  970SOL    HW2 2910   2.437   1.277   1.483 -1.4861  1.1043  4.7941
  971SOL     OW 2911   2.025   0.180   1.152 -0.2319 -0.1465  0.3202
  971SOL    HW1 2912   2.122   0.189   1.118 -2.8903 -0.3779 -1.5046
  971SOL    HW2 2913   2.012   0.082   1.173 -0.2694 -0.4644  0.6750
  972SOL     OW 2914   0.238   2.936   1.770  0.2192 -0.0030 -0.9027
  972SOL    HW1 2915   0.204   2.923   1.865 -0.4703 -2.3411 -0.4275
  972SOL    HW2 2916   0.182   2.879   1.705 -0.8402 -0.5210  2.1594
  973SOL     OW 2917   2.641   0.755   0.156 -0.0886 -0.3081  0.3045
  973SOL    HW1 2918   2.699   0.805   0.087  1.2031  1.8091  0.6264
  973SOL    HW2 2919   2.591   0.672   0.113  0.2773 -1.9136 -1.0479
  974SOL     OW 2920   1.998   1.097   2.417 -0.1054 -0.3961  0.4079
  974SOL    HW1 2921   2.046   1.186   2.420 -0.2732  1.2716 -1.5039
  974SOL    HW2 2922   2.030   1.043   2.337 -0.3856  0.6791  1.0597
  975SOL     OW 2923   0.119   2.771   1.576  0.2369 -0.0233 -0.3901
  975SOL    HW1 2924   0.126   2.797   1.476 -1.7460  1.4026  2.6456
  975SOL    HW2 2925   0.148   2.676   1.596 -2.1180  0.3171  2.0412
  976SOL     OW 2926   0.335   1.893   1.930  0.6414  0.5408 -0.4063
  976SOL    HW1 2927   0.402   1.969   1.915  4.0390  0.3113 -2.7529
  976SOL    HW2 2928   0.369   1.797   1.904  1.0888  2.1897  4.3423
  977SOL     OW 2929   1.002   2.711   0.373  0.2918 -0.0178 -0.8091
  977SOL    HW1 2930   1.080   2.664   0.331 -2.5559 -0.3632  1.6450
  977SOL    HW2 2931   0.948   2.647   0.430  0.1738 -0.8062  0.0898
  978SOL     OW 2932   0.147   1.959   2.734 -0.3172  0.4437 -0.1938
  978SOL    HW1 2933   0.121   1.978   2.635  1.1775  0.0183 -0.2721
  978SOL    HW2 2934   0.176   1.861   2.739  0.3805 -1.2316 -0.9446
  979SOL     OW 2935   1.698   2.438   1.153  0.2806  0.4566 -0.0376
  979SOL    HW1 2936   1.711   2.539   1.156  1.0720  1.0551 -0.0780
  979SOL    HW2 2937   1.765   2.387   1.101  2.4477  0.6850 -1.4260
  980SOL     OW 2938   1.054   1.641   2.785 -0.0924  0.1119 -0.0510
  980SOL    HW1 2939   1.036   1.646   2.687  1.6987 -0.7657  1.4748
  980SOL    HW2 2940   1.045   1.545   2.823  2.5412 -2.0341 -0.4080
  981SOL     OW 2941   2.267   3.060   2.376 -0.1430 -0.2314 -0.2384
  981SOL    HW1 2942   2.319   3.066   2.291 -1.8682 -0.5915  1.8548
  981SOL    HW2 2943   2.319   3.063   2.466  0.2716  1.1134 -0.2597
  982SOL     OW 2944   2.915   0.033   2.785 -0.2185  0.1145  0.0770
  982SOL    HW1 2945   2.870   3.040   2.843  0.7694 -1.6207  0.9933
  982SOL    HW2 2946   2.846   0.087   2.734  0.8226  0.8680 -0.6425
  983SOL     OW 2947   2.170   1.471   1.888  0.2578  0.4234 -0.3852
  983SOL    HW1 2948   2.260   1.429   1.908 -1.3705 -0.3350 -0.0809
  983SOL    HW2 2949   2.159   1.504   1.790  3.2856  0.6116 -3.1531
  984SOL     OW 2950   1.232   0.586   1.555 -0.0618  0.4553  0.1382
  984SOL    HW1 2951   1.201   0.647   1.631  1.6637  0.5124  0.3242
  984SOL    HW2 2952   1.271   0.503   1.596 -0.9431  1.6737  1.6893
  985SOL     OW 2953   1.744   1.481   1.942  0.0580 -0.5659 -0.2774
  985SOL    HW1 2954   1.645   1.459   1.956 -1.7973  0.8488 -0.0238
  985SOL    HW2 2955   1.766   1.582   1.946 -0.1203 -0.3923 -3.2156
  986SOL     OW 2956   1.839   0.451   2.020 -0.1132  0.7408  0.5641
  986SOL    HW1 2957   1.924   0.450   1.963 -0.2939 -0.7982 -1.1679
  986SOL    HW2 2958   1.759   0.487   1.963 -0.3457  1.3697 -0.4824
  987SOL     OW 2959   2.089   0.440   1.893  0.4735  0.0402 -0.1044
  987SOL    HW1 2960   2.109   0.350   1.937  0.0214 -0.8777  2.5298
  987SOL    HW2 2961   2.138   0.444   1.802 -0.9426 -1.4158  0.2696
  988SOL     OW 2962   2.660   0.744   2.016  0.2058  0.3820  0.2597
  988SOL    HW1 2963   2.698   0.707   2.100  0.0553 -0.1903 -3.2557
  988SOL    HW2 2964   2.605   0.671   1.970  2.4034 -0.7293  1.9748
  989SOL     OW 2965   2.180   2.227   2.788  0.6025  0.7751  0.0896
  989SOL    HW1 2966   2.162   2.173   2.707 -1.3613 -0.3768 -1.0334
  989SOL    HW2 2967   2.099   2.224   2.853 -1.1568  0.1588  1.2279
  990SOL     OW 2968   1.165   0.538   2.601  0.0894  0.1576  0.1469
  990SOL    HW1 2969   1.142   0.442   2.579 -1.1606  1.4602 -1.1800
  990SOL    HW2 2970   1.094   0.575   2.663  0.0646 -2.4135 -1.2622
  991SOL     OW 2971   1.182   0.771   0.226 -0.2244  0.9582 -0.1971
  991SOL    HW1 2972   1.160   0.865   0.191  0.2972  1.0505 -0.8220
  991SOL    HW2 2973   1.208   0.709   0.148  1.4853  1.4525 -2.7183
  992SOL     OW 2974   2.409   2.037   2.727 -0.4129  0.0040 -0.0227
  992SOL    HW1 2975   2.485   2.097   2.693  0.1681  3.0043  0.5782
  992SOL    HW2 2976   2.318   2.067   2.695 -0.5754 -3.0266  0.3861
  993SOL     OW 2977   0.278   0.363   0.200  0.2823 -0.7146 -0.3270
  993SOL    HW1 2978   0.360   0.419   0.228 -0.2045  0.4049  1.3582
  993SOL    HW2 2979   0.188   0.399   0.234 -0.1508  0.2778 -0.8288
  994SOL     OW 2980   0.387   2.167   2.155 -0.7077  0.3290 -0.5021
  994SOL    HW1 2981   0.456   2.213   2.213 -0.5444 -1.0660  2.4071
  994SOL    HW2 2982   0.435   2.109   2.087  2.3132 -0.0090 -0.6382
  995SOL     OW 2983   2.026   1.390   2.638 -0.7024  0.3013  0.4450
  995SOL    HW1 2984   2.002   1.301   2.675 -2.2601 -0.0591 -0.7663
  995SOL    HW2 2985   2.087   1.373   2.557 -0.2299  0.0158 -0.6550
  996SOL     OW 2986   1.596   1.509   2.711 -0.1502 -0.0743 -0.3077
  996SOL    HW1 2987   1.679   1.520   2.643  1.9851 -0.4235 -2.1528
  996SOL    HW2 2988   1.534   1.588   2.698  2.4706  0.0374  2.4877
  997SOL     OW 2989   2.151   1.375   1.462 -0.3688  0.0183  0.8087
  997SOL    HW1 2990   2.240   1.322   1.447  3.1216 -1.0696 -2.2547
  997SOL    HW2 2991   2.123   1.415   1.372 -2.4542  2.4995  0.8741
  998SOL     OW 2992   2.631   1.245   0.043  0.0441  0.4645 -0.2385
  998SOL    HW1 2993   2.620   1.165   0.105 -0.2965 -1.7094 -0.0103
  998SOL    HW2 2994   2.724   1.281   0.039 -0.7972 -2.3626  1.5334
  999SOL     OW 2995   2.810   2.319   0.398  0.4715  0.3895 -0.6487
  999SOL    HW1 2996   2.731   2.337   0.456 -0.2286  1.1593 -1.7541
  999SOL    HW2 2997   2.811   2.375   0.311  0.3128  1.7122 -0.3521
 1000SOL     OW 2998   0.741   2.954   1.941  0.2462 -0.0814  0.1299
 1000SOL    HW1 2999   0.650   2.926   1.979 -0.9736  1.1521  0.2217
 1000SOL    HW2 3000   0.805   3.000   2.004 -0.3996  2.3246  0.3057
   3.07947   3.07947   3.07947
