1000 SPC/Fw water molecules
 3000
    1SOL     OW    1   1.266   0.245   0.562  0.2460 -0.2419  0.0847
    1SOL    HW1    2   1.226   0.158   0.532 -1.6275  0.3590  1.3901
    1SOL    HW2    3   1.319   0.293   0.489 -2.0627 -1.7493  2.2543
    2SOL     OW    4   1.556   0.469   1.853 -0.2345 -0.1006 -0.0200
    2SOL    HW1    5   1.455   0.486   1.845  0.0405  1.4974 -0.2120
    2SOL    HW2    6   1.597   0.493   1.943 -1.5027 -0.6517  0.2511
    3SOL     OW    7   1.121   0.016   0.146 -0.0338 -0.1132  0.2393
    3SOL    HW1    8   1.073  -0.072   0.173 -1.5306  0.4621 -0.1232
    3SOL    HW2    9   1.165  -0.001   0.053  1.5961 -1.0904  1.1130
    4SOL     OW   10   1.695   1.720   0.213  0.0982  0.2478 -0.2530
    4SOL    HW1   11   1.730   1.630   0.244 -0.8799 -0.7698 -2.0082
    4SOL    HW2   12   1.635   1.768   0.279 -0.0888 -2.7672  0.1878
    5SOL     OW   13   0.687   1.720   1.819 -0.1729  0.1141 -0.0384
    5SOL    HW1   14   0.650   1.662   1.746  0.9521 -3.4567 -0.8824
    5SOL    HW2   15   0.754   1.788   1.783  2.2345  0.1851  1.4887
    6SOL     OW   16   2.187   0.918   2.160  0.8373 -0.0942  0.1467
    6SOL    HW1   17   2.114   0.848   2.142 -0.2119 -0.9439 -0.1321
    6SOL    HW2   18   2.278   0.871   2.168 -0.2182 -1.0393 -0.5950
    7SOL     OW   19   0.649   1.492   0.761 -0.0284  0.4113 -0.0069
    7SOL    HW1   20   0.701   1.437   0.687  0.8033  1.9378  1.5731
    7SOL    HW2   21   0.716   1.510   0.834 -2.0697  1.2014  1.2163
    8SOL     OW   22   2.077   2.335   2.413 -0.1273 -0.5083  0.4369
    8SOL    HW1   23   1.977   2.337   2.431 -0.6706 -0.4012  0.1946
    8SOL    HW2   24   2.136   2.325   2.494 -0.9968  0.5943  1.4001
    9SOL     OW   25   2.879   2.987   0.250  0.6122  0.0593 -0.1499
    9SOL    HW1   26   2.882   2.940   0.344  0.5255 -1.7818 -0.9750
    9SOL    HW2   27   2.913   2.925   0.176  0.3075  1.2615 -1.6211
   10SOL     OW   28   0.245   2.334   2.130 -0.3212  0.6332 -0.5448
   10SOL    HW1   29   0.210   2.249   2.168 -1.1178 -0.2149 -1.5153
   10SOL    HW2   30   0.179   2.404   2.125 -0.5924  0.4915 -4.5708
   11SOL     OW   31   0.105   1.945   3.023  0.3545  0.2636 -0.9475
   11SOL    HW1   32   0.157   2.026   3.061  1.0374  0.5886 -0.0311
   11SOL    HW2   33   0.142   1.918   2.931  0.4129 -0.5869 -0.0191
   12SOL     OW   34   2.239   2.860   0.645  0.4492 -0.0819 -0.4027
   12SOL    HW1   35   2.168   2.813   0.582 -0.7916  1.4306  0.7198
   12SOL    HW2   36   2.251   2.804   0.731  1.4561 -1.9284  1.5412
   13SOL     OW   37   0.416   0.767   2.457 -0.0559  0.0955 -0.0898
   13SOL    HW1   38   0.460   0.786   2.366  2.1812  1.2371 -0.9942
   13SOL    HW2   39   0.431   0.850   2.514 -1.1209 -2.0304  0.0462
   14SOL     OW   40   1.466   0.824   0.819 -0.0734  0.4186 -0.1165
   14SOL    HW1   41   1.408   0.739   0.830  0.2710 -0.0792 -1.3382
   14SOL    HW2   42   1.460   0.902   0.882 -2.5419  2.1000  0.8904
   15SOL     OW   43   0.214   1.445   2.114 -0.1551 -0.3969 -0.2413
   15SOL    HW1   44   0.145   1.517   2.129 -1.0883  0.9218  3.2287
   15SOL    HW2   45   0.269   1.430   2.199 -0.7148 -0.6347 -1.4620
   16SOL     OW   46   1.819   0.925   2.508  0.3564  0.3628  0.3803
   16SOL    HW1   47   1.884   0.854   2.470 -1.9929  0.1219  0.3978
   16SOL    HW2   48   1.824   1.001   2.445  0.7451 -0.8735 -0.8737
   17SOL     OW   49   0.036   2.259   1.899  0.1481  0.5529 -0.2838
   17SOL    HW1   50   0.008   2.259   1.998  0.7481 -1.9906  0.7620
   17SOL    HW2   51   0.133   2.245   1.876  0.8120 -1.4119 -0.9700
   18SOL     OW   52   1.625   1.349   1.042  0.8278 -0.3196  0.4669
   18SOL    HW1   53   1.619   1.250   1.071  1.3704 -1.4941  1.2036
   18SOL    HW2   54   1.552   1.374   0.979  1.0419 -1.6447  1.1242
   19SOL     OW   55   0.139   0.887   1.876 -0.2364 -0.2627 -0.3460
   19SOL    HW1   56   0.181   0.971   1.916 -0.0883 -0.1890  0.8083
   19SOL    HW2   57   0.092   0.836   1.949  1.2729 -1.1002 -0.4757
   20SOL     OW   58   1.854   2.124   2.524 -0.1646 -0.1054  0.0955
   20SOL    HW1   59   1.902   2.056   2.469  0.2618 -1.3630  0.3978
   20SOL    HW2   60   1.811   2.200   2.468  0.6638  0.4069 -0.1994
   21SOL     OW   61   1.605   1.980   1.324  0.6817 -0.3447 -0.4274
   21SOL    HW1   62   1.602   2.047   1.245 -1.1777  0.5315  0.4055
   21SOL    HW2   63   1.681   2.003   1.389  0.0743  1.9143 -3.7638
   22SOL     OW   64   1.235   0.060   1.892  0.4370  0.6942  0.2001
   22SOL    HW1   65   1.270  -0.027   1.936  1.2600  1.9409  2.4563
   22SOL    HW2   66   1.132   0.048   1.871 -2.7289  0.0690 -1.0016
   23SOL     OW   67   2.825   0.945   1.672 -0.6701  0.0174  0.0625
   23SOL    HW1   68   2.887   0.891   1.609 -0.4920  1.2997 -0.8827
   23SOL    HW2   69   2.732   0.939   1.636 -0.8286 -1.4159  0.1888
   24SOL     OW   70   1.670   0.885   1.737  0.0949 -0.5281 -0.2838
   24SOL    HW1   71   1.590   0.947   1.744 -1.1928 -1.0176  1.3145
   24SOL    HW2   72   1.746   0.942   1.769 -1.2433 -1.3813  0.9082
   25SOL     OW   73   1.988   2.859   2.606 -0.4521  0.0157 -0.1672
   25SOL    HW1   74   1.919   2.825   2.674 -1.1203 -0.8713  2.4931
   25SOL    HW2   75   2.069   2.898   2.651  0.6584  1.7089 -0.8684
   26SOL     OW   76   0.269   0.001   0.689 -0.1367 -0.1363  0.2411
   26SOL    HW1   77   0.256   0.100   0.717  0.7369  0.4900 -3.2182
   26SOL    HW2   78   0.367  -0.020   0.695  4.1279  1.3001 -0.0001
   27SOL     OW   79   1.040   1.447   0.576 -0.0020 -0.4959 -0.1178
   27SOL    HW1   80   1.039   1.383   0.661  2.6586  0.7474  0.3501
   27SOL    HW2   81   1.020   1.545   0.602  0.5341 -1.1605  0.4567
   28SOL     OW   82   2.106   2.831   1.187 -0.7306 -0.2558 -0.2304
   28SOL    HW1   83   2.191   2.875   1.226  0.1291 -0.9906  2.0418
   28SOL    HW2   84   2.067   2.763   1.252 -0.8484  1.8598  1.8666
   29SOL     OW   85   1.769   2.477   2.771  0.8834  0.6413 -0.0526
   29SOL    HW1   86   1.787   2.405   2.839  1.3991  0.5445 -1.1423
   29SOL    HW2   87   1.697   2.452   2.703  1.4730  0.5203  0.3775
   30SOL     OW   88   0.045   2.960   2.167  0.2453 -0.6959  0.4863
   30SOL    HW1   89   0.056   2.981   2.069  1.0448  1.9872 -0.1347
   30SOL    HW2   90  -0.052   2.959   2.193  0.1932 -0.9221 -1.6575
   31SOL     OW   91   2.984   1.988   1.710 -0.1374 -0.2764 -0.1454
   31SOL    HW1   92   2.970   2.059   1.639  3.3539  0.0445 -0.1709
   31SOL    HW2   93   2.959   2.021   1.805 -3.1425  0.4583  1.0373
   32SOL     OW   94   1.100   2.684   2.451  0.1216 -0.5318  0.3239
   32SOL    HW1   95   1.018   2.746   2.442  0.7462 -1.5458 -0.1140
   32SOL    HW2   96   1.073   2.618   2.520 -1.6200 -0.6189  1.1933
   33SOL     OW   97   2.729   0.443   2.438  0.1579  0.6164  0.0713
   33SOL    HW1   98   2.742   0.548   2.450 -1.0948  3.2761  3.3248
   33SOL    HW2   99   2.718   0.422   2.339  1.3770 -0.5830  3.6331
   34SOL     OW  100   2.598   0.101   0.056  0.0409 -0.2109  0.4749
   34SOL    HW1  101   2.613   0.079   0.154 -1.0862  2.4252 -2.0513
   34SOL    HW2  102   2.526   0.173   0.032 -1.0269  0.0272 -0.5052
   35SOL     OW  103   2.837   2.639   1.401 -0.0173 -0.1874 -0.5152
   35SOL    HW1  104   2.846   2.704   1.476 -1.5819 -0.4037  0.4185
   35SOL    HW2  105   2.741   2.639   1.375 -1.6118  1.2098 -0.9599
   36SOL     OW  106   1.830   0.109   2.848 -0.2595 -0.1804  0.3423
   36SOL    HW1  107   1.912   0.065   2.889  1.0469  1.4760 -0.3890
   36SOL    HW2  108   1.776   0.156   2.920  2.1585  0.8957 -0.9056
   37SOL     OW  109   1.184   2.603   3.085  0.5597 -0.6831  0.2069
   37SOL    HW1  110   1.162   2.573   3.180  0.8975 -1.3923 -1.1033
   37SOL    HW2  111   1.283   2.581   3.067 -0.1768  0.0829 -0.3137
   38SOL     OW  112   0.460   0.527   0.153  0.1779 -0.2777 -0.5214
   38SOL    HW1  113   0.487   0.433   0.184 -0.8646 -0.3464 -2.5747
   38SOL    HW2  114   0.540   0.590   0.166  1.7018 -2.3942 -0.7442
   39SOL     OW  115   1.173   1.788   2.052  0.0582  0.1155 -0.1021
   39SOL    HW1  116   1.149   1.776   1.953  0.4087 -0.8937  1.4345
   39SOL    HW2  117   1.184   1.698   2.093  2.4005 -2.2570  2.1906
   40SOL     OW  118   2.618   1.286   0.478  0.4869  0.1725  0.0983
   40SOL    HW1  119   2.571   1.373   0.502  2.9801 -0.3147  0.4307
   40SOL    HW2  120   2.688   1.266   0.552  0.6490  0.9749 -2.9199
   41SOL     OW  121   1.544   2.680   2.489  0.1661 -0.2560  0.3689
   41SOL    HW1  122   1.630   2.708   2.451 -0.7877 -0.0138 -2.1007
   41SOL    HW2  123   1.473   2.646   2.421 -1.6180  1.3811 -0.6299
   42SOL     OW  124   2.473   0.473   1.125 -0.4894 -0.5058  0.3322
   42SOL    HW1  125   2.501   0.438   1.034 -0.8927  1.2414  0.1791
   42SOL    HW2  126   2.476   0.400   1.194  0.4273  1.2990  0.4342
   43SOL     OW  127   2.097   0.122   0.840  0.5071 -0.7837  0.0566
   43SOL    HW1  128   2.048   0.066   0.914  4.1505 -0.3871 -2.4571
   43SOL    HW2  129   2.193   0.083   0.829 -0.3477 -2.0035  0.5339
   44SOL     OW  130   0.442   0.912   2.802  0.2970  0.2486  0.3029
   44SOL    HW1  131   0.435   0.970   2.721  0.2114  1.8084  0.5849
   44SOL    HW2  132   0.478   0.821   2.777 -0.6852  1.6117 -1.0025
   45SOL     OW  133   0.865   1.760   1.117 -0.2670 -0.2319  0.3229
   45SOL    HW1  134   0.802   1.833   1.151  1.6643 -0.6189 -1.0139
   45SOL    HW2  135   0.884   1.697   1.201  1.6672 -4.4774 -1.0077
   46SOL     OW  136   2.486   1.923   1.252  0.4644  0.5012  0.0103
   46SOL    HW1  137   2.489   2.022   1.279 -1.5452  0.8184 -2.1340
   46SOL    HW2  138   2.390   1.891   1.267 -1.8820 -1.0091  3.4042
   47SOL     OW  139   0.521   2.050   1.704 -0.2038 -0.1065  0.1982
   47SOL    HW1  140   0.555   2.000   1.788  2.2158 -2.3828  0.1484
   47SOL    HW2  141   0.426   2.090   1.710  0.6900  1.5608  2.0582
   48SOL     OW  142   1.137   0.081   2.697  0.6852 -0.0617 -0.0559
   48SOL    HW1  143   1.231   0.039   2.685  0.1017 -2.0516 -1.3139
   48SOL    HW2  144   1.076   0.062   2.615 -0.6236 -1.8109 -0.4277
   49SOL     OW  145   2.874   1.369   2.046 -0.2648 -0.2537  0.4133
   49SOL    HW1  146   2.798   1.376   2.119 -1.1582  1.6847  0.7190
   49SOL    HW2  147   2.875   1.447   1.987 -1.8870  2.4252 -0.1330
   50SOL     OW  148   0.812   0.311   0.590 -0.2780  0.4583 -0.1639
   50SOL    HW1  149   0.809   0.207   0.600  3.6791 -0.4490  0.5854
   50SOL    HW2  150   0.809   0.353   0.682  0.4405  0.6005  0.8064
   51SOL     OW  151   1.303   0.283   0.826 -0.1384  0.5124 -0.0663
   51SOL    HW1  152   1.289   0.277   0.729 -0.1783 -1.6319  0.9434
   51SOL    HW2  153   1.211   0.283   0.868  0.7077 -0.4758 -1.0243
   52SOL     OW  154   2.709   0.942   0.294  0.2170  0.6068 -0.2241
   52SOL    HW1  155   2.728   0.850   0.255  0.9225 -0.9107  1.5968
   52SOL    HW2  156   2.753   0.954   0.389  0.4179 -0.0155 -2.5210
   53SOL     OW  157   0.771   3.008   0.364  0.0979  0.5549  0.9074
   53SOL    HW1  158   0.841   2.947   0.321  0.4465 -0.9632 -2.4538
   53SOL    HW2  159   0.686   2.990   0.317 -1.8000  0.7289 -1.4624
   54SOL     OW  160   1.972   0.533   1.765 -0.2305  0.1106 -0.0563
   54SOL    HW1  161   1.982   0.536   1.868 -0.1164 -2.2699 -1.8123
   54SOL    HW2  162   1.875   0.525   1.737  0.1763 -0.3950  1.1031
   55SOL     OW  163   2.739   2.600   0.339 -0.0091 -0.0217 -0.1732
   55SOL    HW1  164   2.708   2.650   0.421  0.3100  0.3179 -0.7431
   55SOL    HW2  165   2.818   2.537   0.345 -0.1509  1.5894  1.4134
   56SOL     OW  166   1.192   0.038   2.305  0.1922  0.1789 -0.6640
   56SOL    HW1  167   1.107   0.028   2.252  1.5345 -1.0737  0.4584
   56SOL    HW2  168   1.270   0.038   2.238 -1.3380  0.1226 -0.3685
   57SOL     OW  169   1.571   0.707   2.186 -0.6387 -0.0927 -1.1236
   57SOL    HW1  170   1.605   0.722   2.284  1.9168 -1.2679 -0.6408
   57SOL    HW2  171   1.471   0.682   2.194 -1.0779  0.9705 -1.4229
   58SOL     OW  172   0.229   1.151   1.917  0.1856  0.6015  0.1702
   58SOL    HW1  173   0.289   1.202   1.848  0.2380  1.0133 -0.3697
   58SOL    HW2  174   0.156   1.209   1.960  2.4833  0.4423  2.8452
   59SOL     OW  175   0.907   2.845   2.331  0.0679  0.1949  0.6347
   59SOL    HW1  176   0.942   2.843   2.236  1.1071 -1.3595  1.6069
   59SOL    HW2  177   0.808   2.835   2.326 -1.9473 -0.6861 -2.3893
   60SOL     OW  178   2.259   2.605   0.316  0.5035  0.2955 -0.0570
   60SOL    HW1  179   2.295   2.528   0.254 -1.0395 -1.9500  0.1202
   60SOL    HW2  180   2.276   2.692   0.267  3.0862 -0.4196  3.2208
   61SOL     OW  181   1.464   2.723   0.415  0.2635 -0.1737 -0.1081
   61SOL    HW1  182   1.492   2.655   0.345  1.2025  1.9507 -1.3112
   61SOL    HW2  183   1.536   2.747   0.477  0.5753 -1.0420  1.3884
   62SOL     OW  184   1.864   2.466   0.108 -0.1032  0.1787 -0.4849
   62SOL    HW1  185   1.897   2.401   0.175  1.3349 -0.1200 -1.1181
   62SOL    HW2  186   1.815   2.417   0.028  0.3808  0.8380  0.8777
   63SOL     OW  187   2.518   1.134   0.916  0.2522  0.9000 -1.0013
   63SOL    HW1  188   2.486   1.083   0.834 -2.1914  1.0763 -2.7864
   63SOL    HW2  189   2.486   1.232   0.920 -2.0386 -2.2550 -0.9443
   64SOL     OW  190   1.599   1.210   0.455 -1.0276 -0.7008 -0.0653
   64SOL    HW1  191   1.554   1.128   0.498  0.1877 -0.6698  0.3050
   64SOL    HW2  192   1.591   1.289   0.516 -2.5501 -1.3411 -0.5631
   65SOL     OW  193   0.431   2.524   1.506  0.2798  0.8037  0.0802
   65SOL    HW1  194   0.393   2.542   1.411  1.6954  0.1318  5.1425
   65SOL    HW2  195   0.525   2.485   1.499 -0.7976 -1.9117  3.6843
   66SOL     OW  196   1.072   1.320   0.792  0.4358  0.2431 -0.4945
   66SOL    HW1  197   1.160   1.268   0.801 -0.0794 -0.5461  0.3802
   66SOL    HW2  198   1.050   1.356   0.888  3.2553  1.2748  0.5349
   67SOL     OW  199   2.307   1.757   2.044  0.4560 -0.1848  0.0050
   67SOL    HW1  200   2.259   1.682   1.994  0.3376  0.4373 -1.9840
   67SOL    HW2  201   2.373   1.807   1.986  2.2364  3.5874 -1.6905
   68SOL     OW  202   1.063   1.516   1.670 -0.5430  0.4034 -0.8004
   68SOL    HW1  203   1.108   1.509   1.578  1.1756  0.5437  3.5692
   68SOL    HW2  204   1.071   1.609   1.710 -1.4962 -0.0174 -0.6022
   69SOL     OW  205   2.758   0.402   0.022 -0.6679  0.4083 -0.3512
   69SOL    HW1  206   2.836   0.418   0.087  0.7596 -0.9367 -3.0738
   69SOL    HW2  207   2.675   0.392   0.082  2.6190  0.3921  0.3192
   70SOL     OW  208   2.291   1.129   2.537  0.3519 -0.1155  0.5027
   70SOL    HW1  209   2.240   1.136   2.447  1.2408  1.2489  0.4429
   70SOL    HW2  210   2.227   1.096   2.611 -1.8587  0.5074 -1.0033
   71SOL     OW  211   1.510   2.111   0.477  0.0797  0.1108  0.3816
   71SOL    HW1  212   1.429   2.174   0.456 -0.6069  1.2678  4.2080
   71SOL    HW2  213   1.543   2.111   0.573  1.6072 -0.0388 -1.8421
   72SOL     OW  214   2.311   1.775   0.829  0.2582 -0.4757  0.2715
   72SOL    HW1  215   2.319   1.734   0.919  3.0623 -4.0591 -1.1653
   72SOL    HW2  216   2.222   1.744   0.790  0.1585 -0.2722 -0.6859
   73SOL     OW  217   1.235   1.443   0.393 -0.9695 -0.2944 -0.2719
   73SOL    HW1  218   1.169   1.441   0.473  2.4043  0.0740  0.0363
   73SOL    HW2  219   1.243   1.353   0.358  0.7117  2.1549 -0.3137
   74SOL     OW  220   2.851   2.109   2.446  0.4521  0.3407 -0.0055
   74SOL    HW1  221   2.763   2.135   2.402 -1.1316  0.7894 -0.4780
   74SOL    HW2  222   2.896   2.041   2.390 -0.8912  0.3528  2.0881
   75SOL     OW  223   1.493   1.553   2.094  0.4422  0.3673  0.1545
   75SOL    HW1  224   1.562   1.483   2.089 -1.2222 -0.4014  4.6948
   75SOL    HW2  225   1.488   1.600   2.007 -1.6762 -1.0974  1.2355
   76SOL     OW  226   1.275   1.827   1.050 -0.6643 -0.0958  0.0700
   76SOL    HW1  227   1.283   1.737   1.095  1.7698  0.7405  1.9672
   76SOL    HW2  228   1.346   1.831   0.975 -0.6314 -1.8996 -0.1203
   77SOL     OW  229   2.964   0.591   1.790 -0.2846  0.7118 -0.3039
   77SOL    HW1  230   3.034   0.649   1.750 -1.8484 -1.6762 -0.9639
   77SOL    HW2  231   3.009   0.513   1.836 -2.3701 -2.1571 -1.9587
   78SOL     OW  232   1.139   1.012   0.230 -0.3971 -0.4704  0.2569
   78SOL    HW1  233   1.213   0.941   0.227  1.2617  1.0560 -0.6094
   78SOL    HW2  234   1.140   1.067   0.140  0.0249 -1.3123 -1.8241
   79SOL     OW  235   1.132   1.762   1.797  0.4061 -0.2629 -0.3275
   79SOL    HW1  236   1.039   1.806   1.772  1.1123 -1.0049 -0.1143
   79SOL    HW2  237   1.214   1.791   1.746  3.2433 -0.2516  0.0330
   80SOL     OW  238   1.274   0.916   1.182  0.0112  0.3243  0.7080
   80SOL    HW1  239   1.197   0.976   1.218 -0.0575 -4.2046 -3.0609
   80SOL    HW2  240   1.326   0.880   1.262 -1.2691 -2.3433 -2.7325
   81SOL     OW  241   0.337   2.869   3.020 -0.9187 -0.4708 -0.2567
   81SOL    HW1  242   0.300   2.891   3.109 -0.2037 -0.4881 -0.4994
   81SOL    HW2  243   0.398   2.945   2.977  2.3294 -1.5646  1.7266
   82SOL     OW  244   1.494   0.872   1.365  0.4111 -0.1144 -0.3371
   82SOL    HW1  245   1.532   0.851   1.272 -1.5209 -0.4273 -2.1036
   82SOL    HW2  246   1.480   0.785   1.411  0.1029 -2.6974  0.9631
   83SOL     OW  247   0.331   2.283   0.855  0.1008  0.2694  0.1370
   83SOL    HW1  248   0.239   2.314   0.831  1.0705 -2.6870  0.7493
   83SOL    HW2  249   0.379   2.234   0.774  1.0651  0.1209 -1.5051
   84SOL     OW  250   2.604   1.101   1.436  0.2529 -0.7382 -0.4996
   84SOL    HW1  251   2.665   1.027   1.395 -0.6664 -2.6443 -1.1716
   84SOL    HW2  252   2.537   1.120   1.363  2.8318 -2.9316 -2.5610
   85SOL     OW  253   1.972   2.027   1.282  0.1427  0.3510  0.2112
   85SOL    HW1  254   1.909   2.024   1.361 -1.3929  2.1184 -1.5544
   85SOL    HW2  255   1.934   1.977   1.199  0.9616  1.6967 -2.1795
   86SOL     OW  256   1.105   2.035   2.125 -0.3023  0.0607  0.0727
   86SOL    HW1  257   1.127   2.073   2.215 -2.1992  1.1158  1.0182
   86SOL    HW2  258   1.130   1.933   2.122  0.5801  0.4478  1.0823
   87SOL     OW  259   2.233   1.313   0.716 -0.3543  0.4345 -0.6174
   87SOL    HW1  260   2.203   1.390   0.653  1.6339 -0.8662  2.3155
   87SOL    HW2  261   2.314   1.342   0.771  1.1655  0.2603  1.4185
   88SOL     OW  262   0.015   2.759   0.952  0.2541 -0.2805  0.4628
   88SOL    HW1  263   0.049   2.842   0.898 -1.7424  0.3047  1.7373
   88SOL    HW2  264   0.029   2.682   0.887  0.4647 -2.1972  0.8918
   89SOL     OW  265   0.791   1.550   0.983  0.3251 -0.5618 -0.4347
   89SOL    HW1  266   0.837   1.635   1.018  0.2720  0.1458 -1.4389
   89SOL    HW2  267   0.721   1.521   1.054 -2.1064 -2.1826  0.7131
   90SOL     OW  268   2.453   2.138   0.422  0.3052 -0.0350 -0.1412
   90SOL    HW1  269   2.463   2.238   0.405 -0.4077  1.7912 -0.2664
   90SOL    HW2  270   2.466   2.088   0.336 -0.0580  3.5647 -1.1659
   91SOL     OW  271   0.955   1.683   0.672  0.9023  0.0363  0.0112
   91SOL    HW1  272   0.868   1.696   0.617 -4.2969  0.6157 -0.8345
   91SOL    HW2  273   0.941   1.737   0.757 -0.7569 -2.5848  2.6087
   92SOL     OW  274   1.933   0.169   1.977  0.2874  0.2978  0.1270
   92SOL    HW1  275   1.852   0.198   1.924 -1.3541 -1.8198 -0.8406
   92SOL    HW2  276   1.918   0.080   2.025 -1.0991 -0.7353 -2.4077
   93SOL     OW  277   2.998   1.560   2.823  0.3839  0.4939  0.2910
   93SOL    HW1  278   3.050   1.648   2.800 -0.7913 -1.9510  1.4203
   93SOL    HW2  279   3.051   1.475   2.805 -0.0573  1.7625 -1.1763
   94SOL     OW  280   2.497   0.011   2.085  0.2278  0.3156 -0.1857
   94SOL    HW1  281   2.531   0.089   2.136  2.9185  0.4186  0.2270
   94SOL    HW2  282   2.393   0.001   2.101 -0.6632  2.3524 -0.9695
   95SOL     OW  283   2.208   3.036   2.117 -0.2177  0.0974 -0.0587
   95SOL    HW1  284   2.236   3.030   2.019  1.9435 -0.1256 -3.0722
   95SOL    HW2  285   2.118   3.070   2.127 -0.9747 -0.8581 -0.8103
   96SOL     OW  286   0.844   0.650   2.207  0.3138 -0.4545  0.1790
   96SOL    HW1  287   0.815   0.730   2.263 -0.1032 -1.4679 -2.0913
   96SOL    HW2  288   0.867   0.670   2.111  0.8832 -2.4824 -0.2630
   97SOL     OW  289   2.161   0.087   1.295 -0.3200 -0.2924 -0.3957
   97SOL    HW1  290   2.224   0.013   1.332  2.9467  0.0176 -1.9380
   97SOL    HW2  291   2.215   0.174   1.284  0.8419  0.5473 -0.2615
   98SOL     OW  292   1.973   2.310   1.548 -0.1879  0.3318 -0.6515
   98SOL    HW1  293   2.009   2.229   1.605 -0.3870 -1.4986 -0.3377
   98SOL    HW2  294   2.041   2.364   1.492 -1.0411 -0.7882  1.2719
   99SOL     OW  295   0.696   0.706   1.074 -0.0273  0.5288  0.2506
   99SOL    HW1  296   0.703   0.808   1.081 -0.7015  1.3544 -2.1352
   99SOL    HW2  297   0.769   0.674   1.006 -1.1019  1.0521  0.7316
  100SOL     OW  298   2.883   2.001   2.001  1.3816  0.0902  0.4312
  100SOL    HW1  299   2.820   1.919   1.991  3.1662 -0.6246  0.0363
  100SOL    HW2  300   2.964   1.986   2.059 -0.0481  1.3889 -0.5595
  101SOL     OW  301   1.443   2.983   0.116 -0.4946 -0.0870 -0.1141
  101SOL    HW1  302   1.382   3.012   0.038 -1.2427 -1.9720 -0.1934
  101SOL    HW2  303   1.385   2.933   0.184 -0.0493 -2.7526  2.4613
  102SOL     OW  304   3.000   0.002   1.235 -0.6247 -0.2869  0.0500
  102SOL    HW1  305   3.002   0.098   1.189 -1.9114 -0.2205 -0.9455
  102SOL    HW2  306   2.967   0.010   1.329 -0.2745  1.7697  1.2840
  103SOL     OW  307   0.401   2.986   2.750  0.0717 -0.6633 -0.4182
  103SOL    HW1  308   0.469   2.974   2.675  2.8722 -0.0470 -1.2054
  103SOL    HW2  309   0.328   2.914   2.747 -0.8624 -2.1979  1.9287
  104SOL     OW  310   0.357   2.485   1.231 -0.2124 -0.0155 -0.0815
  104SOL    HW1  311   0.386   2.573   1.189 -0.3575  0.3888  1.4232
  104SOL    HW2  312   0.268   2.451   1.187  2.3301  0.0299 -2.3689
  105SOL     OW  313   0.387   1.112   2.135 -0.0022  0.0057 -0.0500
  105SOL    HW1  314   0.456   1.184   2.136  0.4457 -0.1649 -0.7404
  105SOL    HW2  315   0.337   1.110   2.046 -2.2700 -0.8743  1.1214
  106SOL     OW  316   2.927   2.422   0.394  0.6291  0.6191 -0.2484
  106SOL    HW1  317   2.903   2.345   0.455  0.8620  1.8159 -2.3954
  106SOL    HW2  318   2.973   2.496   0.447 -1.4669  0.6012  0.1426
  107SOL     OW  319   0.441   1.067   0.565  0.5678 -0.5510 -0.7471
  107SOL    HW1  320   0.513   1.104   0.624  3.2066 -1.7298  0.2579
  107SOL    HW2  321   0.465   1.091   0.468 -3.0691 -0.1781 -1.0737
  108SOL     OW  322   0.029   1.249   2.073  0.8077 -0.0529  0.1289
  108SOL    HW1  323  -0.059   1.282   2.041 -1.5654 -1.6171 -1.5009
  108SOL    HW2  324   0.096   1.320   2.102 -1.8552  0.4169 -0.7276
  109SOL     OW  325   1.877   2.931   0.127 -0.4722 -0.5958  0.1945
  109SOL    HW1  326   1.949   3.006   0.126 -0.3786  1.0593 -4.1033
  109SOL    HW2  327   1.915   2.845   0.097 -0.4477 -1.2799  1.0698
  110SOL     OW  328   0.067   2.573   0.063 -0.0550  0.3323  0.1209
  110SOL    HW1  329  -0.023   2.523   0.054  0.8626 -0.4275  1.2733
  110SOL    HW2  330   0.123   2.525   0.132  1.8990  2.7559 -1.2382
  111SOL     OW  331   3.053   1.007   2.178 -0.2920  0.3673 -0.0623
  111SOL    HW1  332   3.063   1.100   2.133 -2.0455 -1.4538  1.1062
  111SOL    HW2  333   3.131   0.947   2.150  2.5117 -0.3410  2.4746
  112SOL     OW  334   2.605   2.255   1.591 -0.4071 -0.6450  0.3539
  112SOL    HW1  335   2.620   2.255   1.490  0.9330 -0.5786  1.2914
  112SOL    HW2  336   2.633   2.343   1.637  0.9048 -2.8505  1.2023
  113SOL     OW  337   2.275   1.943   2.684 -0.2149  0.0693  0.4176
  113SOL    HW1  338   2.342   2.000   2.634  0.2106 -1.3315  0.8185
  113SOL    HW2  339   2.307   1.906   2.769  2.1386  1.5161 -0.9081
  114SOL     OW  340   0.560   3.038   0.688 -0.2964  0.4033 -0.4687
  114SOL    HW1  341   0.554   2.972   0.610 -0.3989 -0.8595 -0.8581
  114SOL    HW2  342   0.585   2.983   0.768  0.7273  1.1199  0.6260
  115SOL     OW  343   0.062   1.773   2.717 -0.2932 -0.1770 -0.1972
  115SOL    HW1  344   0.131   1.819   2.781  3.6199  2.8322  1.6045
  115SOL    HW2  345   0.108   1.690   2.676 -2.2644  0.2708  1.3022
  116SOL     OW  346   2.930   1.739   1.618 -0.1974 -0.2635  0.1700
  116SOL    HW1  347   2.981   1.814   1.668 -0.4738 -0.4874  0.4554
  116SOL    HW2  348   2.985   1.689   1.554  3.5779 -0.4268  0.7766
  117SOL     OW  349   2.310   0.114   1.756 -0.5704 -0.0877 -0.0812
  117SOL    HW1  350   2.304   0.172   1.842  1.1665 -2.1491 -3.4140
  117SOL    HW2  351   2.289   0.021   1.781  0.7294  3.9273  0.3020
  118SOL     OW  352   2.965   2.209   2.871 -0.0708  0.2334 -0.4588
  118SOL    HW1  353   2.927   2.162   2.956 -1.5978 -0.4074 -0.5580
  118SOL    HW2  354   2.884   2.260   2.828 -1.7374 -0.0407 -0.7370
  119SOL     OW  355   3.075   1.575   1.410  0.0253 -0.3408 -0.0713
  119SOL    HW1  356   2.992   1.531   1.375  0.9590  1.0708 -0.9724
  119SOL    HW2  357   3.143   1.513   1.451  5.2846  2.0756 -0.0758
  120SOL     OW  358   0.306   1.703   1.553 -0.8612 -0.2281 -0.1353
  120SOL    HW1  359   0.234   1.754   1.605  1.7525 -3.0047 -0.9855
  120SOL    HW2  360   0.264   1.618   1.525 -1.7235  0.6917  0.2202
  121SOL     OW  361   1.257   0.616   0.695 -0.2096  0.2833  0.7490
  121SOL    HW1  362   1.197   0.565   0.630  2.9278 -0.7630 -0.4787
  121SOL    HW2  363   1.223   0.707   0.703  0.4311 -0.6630  0.3620
  122SOL     OW  364   2.705   2.088   2.686  0.0014 -0.6007  0.2902
  122SOL    HW1  365   2.741   2.012   2.745 -0.7264  1.0602  3.7738
  122SOL    HW2  366   2.747   2.078   2.595 -1.0218 -1.4475 -2.0706
  123SOL     OW  367   2.409   0.606   0.607  0.2217  0.2142 -0.4930
  123SOL    HW1  368   2.335   0.587   0.678 -1.0033 -1.0156  0.2159
  123SOL    HW2  369   2.382   0.682   0.545  0.2317  2.0370 -2.3100
  124SOL     OW  370   1.823   0.874   2.812 -0.3129  0.0001  0.1545
  124SOL    HW1  371   1.875   0.883   2.723 -0.5024 -1.8449  0.0642
  124SOL    HW2  372   1.759   0.796   2.802 -2.6540  1.4441  0.7385
  125SOL     OW  373   3.095   0.345   1.943 -0.1827  0.1268  0.3078
  125SOL    HW1  374   3.075   0.347   2.040 -0.8675  0.7661 -0.6783
  125SOL    HW2  375   3.197   0.331   1.922 -0.8884  0.7897 -0.8175
  126SOL     OW  376   3.043   2.838   0.051 -0.2049 -0.1871 -0.1788
  126SOL    HW1  377   2.976   2.841  -0.025 -1.3502  1.4471 -0.1075
  126SOL    HW2  378   3.106   2.762   0.043 -1.4866 -0.8005  0.4152
  127SOL     OW  379   2.804   1.706   0.372  0.8081  0.7162  0.0234
  127SOL    HW1  380   2.858   1.679   0.456 -0.9968 -1.0170 -0.2985
  127SOL    HW2  381   2.866   1.700   0.289 -0.5435  0.7327  0.9210
  128SOL     OW  382   0.675   0.856   0.581 -0.6397 -0.0585  0.0259
  128SOL    HW1  383   0.712   0.895   0.495  1.1690  0.4706 -0.9654
  128SOL    HW2  384   0.578   0.823   0.567 -2.3724  0.2003  2.2831
  129SOL     OW  385   2.089   2.263   1.202 -0.0364  0.5233 -0.3016
  129SOL    HW1  386   2.032   2.184   1.230  1.5087 -1.4538  0.1224
  129SOL    HW2  387   2.134   2.242   1.114  1.6702  1.0624 -0.2137
  130SOL     OW  388   1.665   1.042   0.074  0.2874 -0.3524  0.2061
  130SOL    HW1  389   1.735   0.967   0.088 -1.0809  1.0515  1.4865
  130SOL    HW2  390   1.685   1.130   0.128  1.4826  1.8622  1.5046
  131SOL     OW  391   2.756   1.468   2.944 -0.0512 -0.2493 -0.2202
  131SOL    HW1  392   2.840   1.517   2.910 -1.4260 -0.6938 -4.3006
  131SOL    HW2  393   2.672   1.504   2.896  3.3094  0.2954 -0.6333
  132SOL     OW  394   0.944   1.149   1.945 -0.1587  0.2585 -0.4704
  132SOL    HW1  395   0.903   1.113   1.862  0.0837 -2.1583  0.6721
  132SOL    HW2  396   1.000   1.233   1.927  0.8947 -0.5129 -1.4594
  133SOL     OW  397   0.149   0.859   1.296  0.2318  0.0061  0.5850
  133SOL    HW1  398   0.238   0.880   1.336  2.4415 -0.7334 -3.4863
  133SOL    HW2  399   0.159   0.817   1.204  0.4875 -0.6722  2.0981
  134SOL     OW  400   3.016   1.416   0.473  0.1975 -0.4204 -0.0965
  134SOL    HW1  401   3.030   1.410   0.368  0.8849  0.2778 -0.0933
  134SOL    HW2  402   2.989   1.512   0.507 -1.5337 -3.6821 -2.6602
  135SOL     OW  403   1.225   1.181   0.028 -0.0089  0.3645 -0.1051
  135SOL    HW1  404   1.155   1.249   0.001  1.0392  1.7972  2.0190
  135SOL    HW2  405   1.275   1.137  -0.051 -0.4989 -0.1405 -2.4970
  136SOL     OW  406   2.230   1.809   1.661  0.3066  0.5664  0.3745
  136SOL    HW1  407   2.252   1.891   1.604  0.1101  1.3617  1.1304
  136SOL    HW2  408   2.312   1.747   1.672 -1.6447 -2.7459 -1.0932
  137SOL     OW  409   2.253   2.496   0.820 -0.1876  0.4690  0.1751
  137SOL    HW1  410   2.202   2.578   0.857  1.4044  1.4110  0.1195
  137SOL    HW2  411   2.255   2.497   0.719 -4.2178 -1.0017 -0.3724
  138SOL     OW  412   2.331   0.273   1.981  0.0626 -1.2810  0.1864
  138SOL    HW1  413   2.395   0.357   1.974 -0.7194  2.1586 -0.5549
  138SOL    HW2  414   2.253   0.288   2.043 -0.8540  1.9082  0.3170
  139SOL     OW  415   2.436   2.707   2.661 -0.2647  0.3264  0.6894
  139SOL    HW1  416   2.347   2.667   2.653  0.7196 -2.0232  0.3131
  139SOL    HW2  417   2.465   2.749   2.569  1.3257 -2.0161 -0.4634
  140SOL     OW  418   1.337   1.588   2.398  0.1069 -0.9488  0.2578
  140SOL    HW1  419   1.421   1.592   2.455 -2.0674  3.5246  1.9048
  140SOL    HW2  420   1.316   1.494   2.369 -0.3186  0.9563 -0.4347
  141SOL     OW  421   1.285   1.322   2.339  0.3324  0.1839 -0.4732
  141SOL    HW1  422   1.301   1.267   2.420  0.8309  1.1783 -0.3245
  141SOL    HW2  423   1.182   1.340   2.322 -1.2387  0.2163 -0.9200
  142SOL     OW  424   2.021   2.500   1.766 -0.2903  0.2305 -0.4589
  142SOL    HW1  425   1.925   2.495   1.809 -1.7285  1.8206 -0.8751
  142SOL    HW2  426   2.031   2.425   1.703 -1.0614 -3.3302 -0.1022
  143SOL     OW  427   1.140   2.551   0.303  0.5846  0.0448  0.0912
  143SOL    HW1  428   1.037   2.553   0.308 -0.8122  2.6856 -3.5390
  143SOL    HW2  429   1.173   2.458   0.290 -3.0657  2.9835 -2.0462
  144SOL     OW  430   0.809   2.906   3.011 -0.4330 -0.6466  0.5102
  144SOL    HW1  431   0.768   2.997   3.039  0.1212  0.7745  0.3329
  144SOL    HW2  432   0.857   2.923   2.920 -0.8884  3.9002  0.7480
  145SOL     OW  433   2.079   2.150   2.702  0.2687  0.2786  0.6931
  145SOL    HW1  434   2.019   2.127   2.622 -0.2887 -1.4697  1.9354
  145SOL    HW2  435   2.168   2.097   2.700 -0.4341  0.6872  1.2114
  146SOL     OW  436   1.476   2.321   0.127  0.0399  0.4205 -0.1072
  146SOL    HW1  437   1.379   2.304   0.156  0.0592  1.0246 -0.6364
  146SOL    HW2  438   1.523   2.233   0.120  0.5745 -0.4114  1.4692
  147SOL     OW  439   0.317   1.710   2.017  0.3278  0.5731  0.5756
  147SOL    HW1  440   0.291   1.630   1.954  0.5715 -2.5036  0.8816
  147SOL    HW2  441   0.282   1.799   1.981  0.9084  0.7041  0.6795
  148SOL     OW  442   0.671   2.874   0.905 -0.4650 -0.4984  0.4120
  148SOL    HW1  443   0.671   2.957   0.968 -0.0323 -1.7263 -1.1414
  148SOL    HW2  444   0.763   2.854   0.861  0.0508 -1.5176  0.3484
  149SOL     OW  445   0.244   2.141   0.026  0.0229  0.9025  0.1454
  149SOL    HW1  446   0.265   2.223  -0.034  0.1732  2.7470 -0.1943
  149SOL    HW2  447   0.329   2.093   0.046 -0.5253 -1.2823  1.4726
  150SOL     OW  448   0.669   2.657   1.260  0.4590  0.2191  0.2331
  150SOL    HW1  449   0.697   2.729   1.325  1.6971 -0.5227 -1.7207
  150SOL    HW2  450   0.587   2.689   1.217 -0.3326 -0.4565 -1.3061
  151SOL     OW  451   0.041   1.324   2.763 -0.2577  0.3916  0.3040
  151SOL    HW1  452   0.110   1.272   2.818  0.5305  0.6186  0.2952
  151SOL    HW2  453  -0.009   1.260   2.698  0.4450 -0.1555 -2.3787
  152SOL     OW  454   0.130   1.785   1.026 -0.5223 -0.0684 -0.2728
  152SOL    HW1  455   0.184   1.718   1.081 -0.3366  0.0159  0.8687
  152SOL    HW2  456   0.179   1.870   1.005 -0.0455  1.6170  0.5151
  153SOL     OW  457   1.669   2.526   0.538  0.3494 -0.2880 -0.5291
  153SOL    HW1  458   1.714   2.441   0.570  2.0652  1.2185 -0.6234
  153SOL    HW2  459   1.647   2.518   0.436  0.5620  1.2387  0.3221
  154SOL     OW  460   0.812   0.075   1.497 -0.0186 -0.0678 -0.4176
  154SOL    HW1  461   0.782   0.009   1.430 -0.7905  1.9362  0.3793
  154SOL    HW2  462   0.784   0.038   1.588 -0.2926  0.8367  2.0345
  155SOL     OW  463   2.375   2.053   0.872 -0.5698  0.3989  0.6429
  155SOL    HW1  464   2.471   2.074   0.907  0.2222  0.0666 -2.6036
  155SOL    HW2  465   2.359   1.953   0.882 -1.2173 -1.3912 -3.2772
  156SOL     OW  466   2.507   1.610   0.080 -0.3743  0.0880 -0.1471
  156SOL    HW1  467   2.541   1.512   0.072 -1.6325  2.1030 -0.4984
  156SOL    HW2  468   2.531   1.656   0.172 -1.5236  1.8715 -0.1803
  157SOL     OW  469   0.426   0.525   1.836  0.2052  0.1347  0.2312
  157SOL    HW1  470   0.523   0.495   1.812 -1.9891 -0.6927 -1.5396
  157SOL    HW2  471   0.364   0.453   1.871 -0.8086 -0.7544 -0.3668
  158SOL     OW  472   1.373   1.256   1.498  0.1282  0.2983 -0.1980
  158SOL    HW1  473   1.466   1.223   1.469 -1.9864 -0.7898  0.7102
  158SOL    HW2  474   1.306   1.182   1.516  3.6233  1.1713  0.1767
  159SOL     OW  475   1.619   1.020   2.689 -0.5895 -0.3587 -0.1012
  159SOL    HW1  476   1.599   1.086   2.615 -0.9726  3.0540 -0.8979
  159SOL    HW2  477   1.714   0.987   2.678  0.9562 -2.6374  1.0502
  160SOL     OW  478   1.488   1.623   0.681  0.4171  0.2551  0.5029
  160SOL    HW1  479   1.422   1.648   0.603  0.9330  2.7514  3.1690
  160SOL    HW2  480   1.577   1.581   0.648 -0.3721  1.3733 -1.2235
  161SOL     OW  481   2.792   1.876   2.834  0.3080 -0.6097  0.1171
  161SOL    HW1  482   2.708   1.834   2.879  0.1291  0.9264  0.9802
  161SOL    HW2  483   2.864   1.895   2.905 -1.3157 -1.2087 -1.5043
  162SOL     OW  484   0.092   2.260   1.394 -0.1738  0.1784 -0.0138
  162SOL    HW1  485   0.148   2.175   1.381 -2.0903  1.1593 -1.3978
  162SOL    HW2  486   0.092   2.319   1.316 -2.2337 -3.3724  1.8779
  163SOL     OW  487   0.943   0.916   2.507  0.8436  0.3319 -0.0493
  163SOL    HW1  488   0.918   0.836   2.559  3.2277 -1.7228 -0.5440
  163SOL    HW2  489   0.895   0.926   2.419  0.4527 -0.0926  0.4896
  164SOL     OW  490   0.102   2.726   2.492  0.9495  1.4202 -0.3088
  164SOL    HW1  491   0.149   2.740   2.581 -0.5640 -1.7524 -0.7353
  164SOL    HW2  492   0.009   2.770   2.498 -0.5039  3.1562 -0.5450
  165SOL     OW  493   2.438   1.405   1.817  0.3584 -0.2658 -0.8675
  165SOL    HW1  494   2.485   1.371   1.901  3.0284  0.0486 -2.3221
  165SOL    HW2  495   2.401   1.328   1.760  0.8687 -0.8142  0.6437
  166SOL     OW  496   1.827   1.482   1.824 -0.6158  0.3138 -0.3766
  166SOL    HW1  497   1.771   1.450   1.743 -1.8194  0.4593 -1.5661
  166SOL    HW2  498   1.890   1.558   1.796 -0.7095 -0.4385  0.0702
  167SOL     OW  499   0.057   0.528   3.072 -0.3741  0.6705  0.6311
  167SOL    HW1  500   0.097   0.619   3.088  1.1163 -0.0989  0.7810
  167SOL    HW2  501   0.009   0.526   2.981  1.8848 -1.0459 -1.0401
  168SOL     OW  502   2.144   2.931   2.795  0.5393 -0.5366 -0.7001
  168SOL    HW1  503   2.149   2.854   2.861  1.3896 -1.1984  0.9328
  168SOL    HW2  504   2.104   3.015   2.842  0.5932 -0.3370  0.6853
  169SOL     OW  505   0.471   1.286   3.027 -0.5050  0.3157  0.1117
  169SOL    HW1  506   0.478   1.312   3.126 -0.3090 -0.4555  0.7044
  169SOL    HW2  507   0.543   1.329   2.971 -1.4242  1.1593  3.1973
  170SOL     OW  508   1.636   1.114   1.171  0.3356 -0.1555 -0.0986
  170SOL    HW1  509   1.734   1.110   1.184  0.9191 -1.5376  2.5181
  170SOL    HW2  510   1.593   1.120   1.262  2.6948 -1.0870  0.7723
  171SOL     OW  511   1.373   2.892   1.051  0.3560  0.6125 -0.0507
  171SOL    HW1  512   1.393   2.807   0.999 -2.6811  2.5983  3.6582
  171SOL    HW2  513   1.376   2.869   1.151 -3.6265  0.9531  1.2355
  172SOL     OW  514   1.130   0.025   1.502  0.1367  0.2137  0.9309
  172SOL    HW1  515   1.189   0.108   1.502  1.8069  0.7348 -0.6030
  172SOL    HW2  516   1.030   0.039   1.499  0.9279  2.9632 -2.7624
  173SOL     OW  517   0.720   2.189   0.561 -0.4739  0.2805  0.6322
  173SOL    HW1  518   0.700   2.288   0.568  1.0944 -0.4360  1.0616
  173SOL    HW2  519   0.662   2.143   0.633  3.3314  0.4174  0.0188
  174SOL     OW  520   2.304   2.840   0.207 -0.0890  0.1259  0.3245
  174SOL    HW1  521   2.354   2.832   0.121 -1.5345  1.6698  3.7738
  174SOL    HW2  522   2.351   2.898   0.275  0.6806  1.2595 -3.0325
  175SOL     OW  523   0.784   1.349   0.570 -0.4565  0.3910 -0.5947
  175SOL    HW1  524   0.742   1.392   0.491  1.9568 -0.5227 -2.3271
  175SOL    HW2  525   0.883   1.371   0.562 -2.3724  0.0080  2.0217
  176SOL     OW  526   1.224   2.062   0.714  0.3269  0.1110  0.3730
  176SOL    HW1  527   1.301   2.110   0.756  0.3575 -0.1008  1.5739
  176SOL    HW2  528   1.137   2.097   0.753 -0.5846  0.0046  0.3565
  177SOL     OW  529   1.963   0.895   1.399  0.1364  0.5220  0.4552
  177SOL    HW1  530   1.903   0.808   1.399  2.6576 -0.2657  2.6440
  177SOL    HW2  531   1.980   0.924   1.303 -2.5070 -0.6319  2.2790
  178SOL     OW  532   2.564   1.705   0.709  0.8025 -0.2246  0.1805
  178SOL    HW1  533   2.626   1.787   0.684 -2.3076 -0.5938  0.6325
  178SOL    HW2  534   2.483   1.728   0.768  1.3538 -0.1092 -1.9556
  179SOL     OW  535   0.862   2.649   2.770  0.0445 -0.5211  0.2203
  179SOL    HW1  536   0.876   2.748   2.787 -0.3808  1.4175 -0.4837
  179SOL    HW2  537   0.872   2.597   2.857 -1.2357  4.0764  3.1802
  180SOL     OW  538   1.870   1.515   1.387  0.0324  0.6004 -0.1249
  180SOL    HW1  539   1.845   1.470   1.480 -1.8175  0.8709 -1.0169
  180SOL    HW2  540   1.781   1.535   1.339 -0.7366  2.9850 -1.8545
  181SOL     OW  541   0.694   0.273   2.032 -1.3184  0.4649  0.7941
  181SOL    HW1  542   0.730   0.311   1.941 -1.1610 -1.7781  0.6972
  181SOL    HW2  543   0.683   0.344   2.102 -1.8941  1.4132  2.8061
  182SOL     OW  544   2.366   1.234   0.003  0.9804  0.3714 -0.2482
  182SOL    HW1  545   2.335   1.237  -0.096 -1.0727  0.1561 -0.6786
  182SOL    HW2  546   2.458   1.269   0.021  2.3552 -1.1564  2.2741
  183SOL     OW  547   1.876   0.285   2.651  0.0272  0.4355 -0.3673
  183SOL    HW1  548   1.861   0.206   2.713 -0.1408  1.2788  1.6241
  183SOL    HW2  549   1.951   0.339   2.696 -1.8587 -0.9244 -1.1530
  184SOL     OW  550   0.862   1.146   0.890  0.1228  0.7494 -0.0180
  184SOL    HW1  551   0.876   1.180   0.988 -2.9988  4.0162 -3.2065
  184SOL    HW2  552   0.932   1.183   0.824 -0.1003  0.2851  1.3598
  185SOL     OW  553   1.821   1.103   2.957  0.4048 -0.6301 -0.0966
  185SOL    HW1  554   1.828   1.018   2.896  0.3163 -0.3339  2.7630
  185SOL    HW2  555   1.749   1.089   3.032  2.8573  0.3812 -0.7774
  186SOL     OW  556   0.464   2.464   0.378  0.1210  0.2123  0.6943
  186SOL    HW1  557   0.384   2.485   0.430  0.1414 -1.4066  2.6272
  186SOL    HW2  558   0.547   2.477   0.439  1.9069 -0.5558 -1.0593
  187SOL     OW  559   1.513   1.594   2.594 -0.3380 -0.0512 -0.2636
  187SOL    HW1  560   1.577   1.527   2.638  1.7582  1.4157 -1.2662
  187SOL    HW2  561   1.569   1.673   2.564 -1.1125 -1.0465 -1.3098
  188SOL     OW  562   1.272   2.887   1.558 -0.6560  0.2719  0.4910
  188SOL    HW1  563   1.223   2.975   1.546 -0.8391  1.3828  1.8779
  188SOL    HW2  564   1.258   2.852   1.654  1.8203 -1.4959 -1.1615
  189SOL     OW  565   2.589   1.740   2.967 -0.1111  0.4791 -0.6522
  189SOL    HW1  566   2.575   1.674   2.893  2.5219  1.7743 -3.7070
  189SOL    HW2  567   2.562   1.697   3.054  0.6396  0.1542 -0.6691
  190SOL     OW  568   0.661   2.432   2.420 -0.7034 -0.6308 -0.5262
  190SOL    HW1  569   0.677   2.501   2.492 -0.5906 -0.1603  1.2884
  190SOL    HW2  570   0.560   2.417   2.400  1.4369  1.4136 -1.2255
  191SOL     OW  571   2.542   0.980   1.668  0.0367  0.0335  0.4797
  191SOL    HW1  572   2.452   1.010   1.712 -1.8343  0.6814 -1.6073
  191SOL    HW2  573   2.559   1.017   1.572 -2.4204 -0.2004  0.0868
  192SOL     OW  574   2.230   0.727   1.251 -0.9433  0.0146 -0.0283
  192SOL    HW1  575   2.158   0.667   1.207 -0.1386  1.1949 -0.2571
  192SOL    HW2  576   2.278   0.682   1.330  1.9233 -2.7251  2.1309
  193SOL     OW  577   1.044   0.030   0.675  0.3955 -0.1948 -0.2737
  193SOL    HW1  578   0.952   0.042   0.631 -1.2423 -1.0182  0.6260
  193SOL    HW2  579   1.107  -0.016   0.602 -1.7564 -0.6787  2.4304
  194SOL     OW  580   1.462   2.657   0.937 -0.4170 -0.5285  0.0658
  194SOL    HW1  581   1.481   2.573   0.878  0.7138  1.3294  0.9377
  194SOL    HW2  582   1.539   2.666   0.998  1.6598  0.1272 -1.8564
  195SOL     OW  583   2.738   0.992   0.881  0.3194 -0.3623 -0.3909
  195SOL    HW1  584   2.658   1.045   0.913  2.8223 -0.1186 -0.7188
  195SOL    HW2  585   2.823   1.037   0.925 -0.6574  1.4251 -1.6138
  196SOL     OW  586   1.234   2.763   1.788 -0.4727  0.1667 -0.2259
  196SOL    HW1  587   1.134   2.763   1.812  1.7842  1.2672 -0.7825
  196SOL    HW2  588   1.258   2.667   1.767 -4.2462 -0.5512 -0.7469
  197SOL     OW  589   2.564   0.194   2.266 -0.2900  0.3281  0.3632
  197SOL    HW1  590   2.588   0.120   2.331 -0.5327  0.1318  1.2326
  197SOL    HW2  591   2.480   0.234   2.301 -1.2133  0.3015  1.5652
  198SOL     OW  592   1.842   1.513   0.355  0.1434 -0.2692 -0.1187
  198SOL    HW1  593   1.941   1.508   0.326  3.0830  0.5788 -1.1713
  198SOL    HW2  594   1.796   1.427   0.318 -0.5717 -3.0017 -1.0443
  199SOL     OW  595   2.508   0.692   1.696  0.5227 -0.2171 -0.2495
  199SOL    HW1  596   2.592   0.634   1.696 -0.9718 -0.6034  0.0853
  199SOL    HW2  597   2.527   0.794   1.701  1.1065 -1.2366  0.3011
  200SOL     OW  598   1.237   3.065   3.003  0.2649  0.0934  0.4622
  200SOL    HW1  599   1.258   3.143   2.943 -1.3612  2.3524 -0.4923
  200SOL    HW2  600   1.231   2.977   2.942  0.6326 -0.9655 -0.2961
  201SOL     OW  601   0.074   0.757   1.034  0.2766  0.4707  0.3130
  201SOL    HW1  602  -0.006   0.694   1.049 -0.3425  4.2654  0.6341
  201SOL    HW2  603   0.081   0.779   0.937 -2.5687  0.8994 -1.6441
  202SOL     OW  604   2.727   2.677   0.608  0.1342  0.1766 -0.5733
  202SOL    HW1  605   2.750   2.604   0.673  0.7749  0.1759  2.6430
  202SOL    HW2  606   2.664   2.744   0.649 -0.6675 -1.9981  0.6068
  203SOL     OW  607   1.723   1.491   0.612 -0.0585 -0.1788 -0.2566
  203SOL    HW1  608   1.781   1.481   0.697 -1.3893  1.0009 -1.8956
  203SOL    HW2  609   1.780   1.513   0.529 -1.8132 -1.5825  3.1635
  204SOL     OW  610   0.217   1.953   1.942 -0.5968  0.3974  0.2216
  204SOL    HW1  611   0.152   1.978   2.019 -0.0813  0.6751  3.4904
  204SOL    HW2  612   0.243   2.035   1.891  1.0862  0.9641 -3.2502
  205SOL     OW  613   1.101   0.448   0.534  0.0802 -0.0575 -0.2224
  205SOL    HW1  614   1.006   0.417   0.525  1.8432 -1.1558 -4.0818
  205SOL    HW2  615   1.166   0.374   0.565 -0.7312  1.7670 -1.6004
  206SOL     OW  616   3.004   1.168   2.582  0.1731 -0.5047 -0.4114
  206SOL    HW1  617   3.053   1.216   2.507  0.4266 -1.8593  1.5855
  206SOL    HW2  618   2.931   1.114   2.541  2.9132 -0.5002  1.3186
  207SOL     OW  619   1.749   3.010   1.351  0.1375  0.0991 -0.2285
  207SOL    HW1  620   1.831   3.029   1.411 -1.6146 -0.4487  0.5882
  207SOL    HW2  621   1.664   3.001   1.405 -1.7948  0.3118 -0.6686
  208SOL     OW  622   2.181   0.598   0.773  0.1009 -0.0655  0.6151
  208SOL    HW1  623   2.099   0.644   0.730  0.7507 -0.9090 -3.4038
  208SOL    HW2  624   2.144   0.522   0.831 -4.2271  0.2076 -0.7571
  209SOL     OW  625   2.184   1.082   0.604  0.3802  0.2537 -0.0110
  209SOL    HW1  626   2.215   1.161   0.658  0.1520  1.1530  0.3185
  209SOL    HW2  627   2.111   1.112   0.537  3.0391  0.8926 -0.6086
  210SOL     OW  628   2.124   1.404   1.055  0.0807 -0.0907  0.0442
  210SOL    HW1  629   2.205   1.382   1.112  0.3418  0.3464 -1.1713
  210SOL    HW2  630   2.108   1.337   0.980 -2.3332  0.5453  0.5431
  211SOL     OW  631   0.935   2.491   2.977  0.0326  0.1374 -0.7425
  211SOL    HW1  632   0.953   2.421   2.909 -0.9983 -0.4340 -0.2021
  211SOL    HW2  633   1.024   2.535   3.017  0.7582  0.0260  0.0299
  212SOL     OW  634   2.014   1.950   0.643 -0.3310 -0.2119  0.2635
  212SOL    HW1  635   2.111   1.980   0.636  0.7992 -1.1354 -3.3816
  212SOL    HW2  636   1.968   2.007   0.717 -0.7071 -0.2265  0.3531
  213SOL     OW  637   2.054   2.721   0.511 -0.1636 -0.2624  0.0979
  213SOL    HW1  638   2.116   2.659   0.461 -0.3277  0.4709  0.8116
  213SOL    HW2  639   1.998   2.788   0.448  1.3264  1.1376 -0.0614
  214SOL     OW  640   0.987   2.475   2.613  0.1501  0.1828 -0.7500
  214SOL    HW1  641   0.981   2.393   2.672  0.7497  0.2652  0.6325
  214SOL    HW2  642   0.934   2.551   2.660  0.0150 -0.0443 -1.3921
  215SOL     OW  643   0.403   1.430   0.859  0.1135  0.5120  0.0567
  215SOL    HW1  644   0.495   1.467   0.835 -0.3211  0.2040  0.8704
  215SOL    HW2  645   0.394   1.329   0.856  0.7558  2.1184  1.6406
  216SOL     OW  646   0.188   2.732   2.234  0.5755 -0.1990 -0.6558
  216SOL    HW1  647   0.162   2.719   2.332  4.0648  1.6597  1.7888
  216SOL    HW2  648   0.154   2.824   2.199 -2.3141  4.7896 -0.9585
  217SOL     OW  649   2.856   1.360   1.371  0.0714 -0.1676  0.2882
  217SOL    HW1  650   2.885   1.312   1.453  0.7668  0.9067 -0.5757
  217SOL    HW2  651   2.786   1.431   1.397 -1.5909 -1.3404 -1.1480
  218SOL     OW  652   0.567   2.080   0.976  0.7502  0.0431  0.0720
  218SOL    HW1  653   0.530   2.164   1.023 -0.0597 -0.9667 -0.0784
  218SOL    HW2  654   0.515   2.063   0.888  0.2715  1.3715  1.2467
  219SOL     OW  655   1.789   1.791   2.879 -0.5022 -1.1054  0.6733
  219SOL    HW1  656   1.713   1.752   2.929  1.3648  2.1536 -1.7796
  219SOL    HW2  657   1.760   1.862   2.811 -1.2423 -3.1328  2.6410
  220SOL     OW  658   1.572   0.581   0.207  1.0695 -0.2797 -0.1587
  220SOL    HW1  659   1.589   0.581   0.107  0.5722 -1.6046 -0.5277
  220SOL    HW2  660   1.533   0.665   0.248 -0.6134 -0.2591  1.1195
  221SOL     OW  661   2.483   1.077   0.381  0.2449  0.2065  0.7662
  221SOL    HW1  662   2.513   1.164   0.431 -2.1295  0.4102 -0.1607
  221SOL    HW2  663   2.556   1.020   0.340  0.1954 -0.4768  1.6294
  222SOL     OW  664   1.829   1.448   0.889 -0.1789 -0.2472  0.7438
  222SOL    HW1  665   1.759   1.406   0.949  0.3388  1.4820  1.7157
  222SOL    HW2  666   1.910   1.385   0.877  0.4734 -0.9050  0.8154
  223SOL     OW  667   1.029   0.270   0.225  0.2814 -0.0773  0.1248
  223SOL    HW1  668   1.109   0.329   0.214 -1.5158  0.2720  1.0553
  223SOL    HW2  669   1.054   0.175   0.196 -1.8338  0.5691  0.1716
  224SOL     OW  670   1.023   2.760   1.488  0.1825  0.1068 -0.0821
  224SOL    HW1  671   1.124   2.778   1.514  0.9613  0.0683 -0.5369
  224SOL    HW2  672   0.998   2.820   1.412 -1.0696  1.7779  0.6914
  225SOL     OW  673   0.941   2.801   1.851  0.1870  0.4686  0.1504
  225SOL    HW1  674   0.921   2.868   1.774  0.4142 -0.5515  0.1912
  225SOL    HW2  675   0.865   2.737   1.875 -0.7124  2.8409 -0.0880
  226SOL     OW  676   1.145   1.847   0.558  0.1392  0.4509 -0.0571
  226SOL    HW1  677   1.194   1.913   0.621 -1.4516 -0.6651 -0.0013
  226SOL    HW2  678   1.083   1.783   0.609 -1.4817  2.4008  1.0502
  227SOL     OW  679   0.496   2.256   1.163 -0.3280 -0.1752  0.2745
  227SOL    HW1  680   0.444   2.341   1.186 -1.0880  1.8705  0.4349
  227SOL    HW2  681   0.571   2.240   1.228 -0.7951  0.3886  2.1951
  228SOL     OW  682   3.076   1.821   0.412  0.2530 -0.3400 -0.2103
  228SOL    HW1  683   3.022   1.908   0.413  0.0301  1.0101 -0.4587
  228SOL    HW2  684   3.133   1.817   0.328 -2.4725  1.8828  3.6768
  229SOL     OW  685   2.160   0.307   0.117 -0.0158  1.1947 -0.3660
  229SOL    HW1  686   2.222   0.242   0.071 -0.2306 -0.0174 -0.9041
  229SOL    HW2  687   2.135   0.277   0.213 -1.4639  0.9930 -1.3324
  230SOL     OW  688   2.617   0.453   0.291 -0.7611 -0.4126 -0.0626
  230SOL    HW1  689   2.536   0.458   0.225 -0.9557  1.4749  0.1484
  230SOL    HW2  690   2.626   0.358   0.333  1.0690  0.2057  2.9387
  231SOL     OW  691   1.833   1.867   0.446  0.0731  0.4838  0.1420
  231SOL    HW1  692   1.894   1.882   0.525 -0.2696  1.4364 -2.7292
  231SOL    HW2  693   1.797   1.775   0.440  0.3526  0.8036 -1.4546
  232SOL     OW  694   1.791   2.002   1.521 -0.2598 -0.0067 -0.3841
  232SOL    HW1  695   1.729   2.061   1.577 -0.9959 -1.2041 -0.9329
  232SOL    HW2  696   1.818   1.915   1.562  0.0938 -0.0986 -0.5896
  233SOL     OW  697   0.238   2.570   1.847 -0.0737 -0.1514  0.1018
  233SOL    HW1  698   0.222   2.496   1.782  0.3048  2.6184 -0.4750
  233SOL    HW2  699   0.172   2.563   1.927 -2.8392  1.9466  0.0671
  234SOL     OW  700   0.967   0.031   2.154 -0.1976  0.3439 -0.6581
  234SOL    HW1  701   0.924   0.096   2.221 -1.0392 -0.5915  1.5875
  234SOL    HW2  702   0.891  -0.028   2.114 -1.1799  0.9124  0.7158
  235SOL     OW  703   0.131   0.768   2.105 -0.3360  0.5602  0.5185
  235SOL    HW1  704   0.067   0.695   2.149 -0.9624  0.1472  0.3894
  235SOL    HW2  705   0.229   0.742   2.109  1.5925 -1.7123 -0.7201
  236SOL     OW  706   2.108   2.721   1.626 -0.6515 -0.3658  0.3703
  236SOL    HW1  707   2.061   2.649   1.682 -0.7678 -0.7163 -2.4595
  236SOL    HW2  708   2.080   2.716   1.528 -0.3403 -2.1363  1.2613
  237SOL     OW  709   0.119   2.426   2.533 -0.4498 -0.0421 -0.4212
  237SOL    HW1  710   0.018   2.404   2.513  0.1368  1.2645  0.5459
  237SOL    HW2  711   0.146   2.513   2.488 -0.8128  1.8028  0.5802
  238SOL     OW  712   1.076   0.338   1.740 -0.7205  0.6121  0.2097
  238SOL    HW1  713   1.029   0.253   1.781  0.7414  1.8220 -1.5968
  238SOL    HW2  714   1.132   0.313   1.656 -3.1120 -2.0704  0.7420
  239SOL     OW  715   0.712   1.618   2.064  0.0868  0.2264  0.0296
  239SOL    HW1  716   0.625   1.634   2.113  0.5348 -0.1968 -2.5141
  239SOL    HW2  717   0.717   1.667   1.975  0.2210 -0.5668 -0.6659
  240SOL     OW  718   2.301   2.471   0.526 -0.2099 -0.4206  0.7056
  240SOL    HW1  719   2.279   2.537   0.454  0.8254 -1.2471  1.8819
  240SOL    HW2  720   2.399   2.446   0.516 -0.2594  2.6509 -3.1312
  241SOL     OW  721   0.509   1.092   0.325 -0.3659 -0.5045  0.2722
  241SOL    HW1  722   0.447   1.031   0.271 -0.1174  0.3000 -2.1953
  241SOL    HW2  723   0.598   1.049   0.338  0.6182 -0.2878  1.6540
  242SOL     OW  724   1.528   3.036   1.516  0.5523  0.3946 -0.4127
  242SOL    HW1  725   1.491   3.119   1.568 -0.6924  1.8084 -0.2229
  242SOL    HW2  726   1.469   2.953   1.527 -1.0398  1.5069  0.9700
  243SOL     OW  727   0.806   2.067   2.096 -0.1147 -0.0092 -0.2132
  243SOL    HW1  728   0.906   2.045   2.098 -0.8711  1.7308 -0.9200
  243SOL    HW2  729   0.770   2.080   2.194 -3.9599  1.0410 -0.7477
  244SOL     OW  730   2.616   0.323   2.640  0.2544 -0.5291 -0.2712
  244SOL    HW1  731   2.623   0.386   2.719 -0.6789 -3.2838 -1.0157
  244SOL    HW2  732   2.651   0.369   2.555  1.0380 -2.9943 -0.3206
  245SOL     OW  733   1.487   2.227   1.444  0.6074 -0.5416  0.3210
  245SOL    HW1  734   1.577   2.279   1.455  1.1026  0.5639  0.4479
  245SOL    HW2  735   1.469   2.221   1.344 -1.3969 -1.0694 -2.9758
  246SOL     OW  736   1.584   0.128   0.462 -0.1771  0.4240  0.3586
  246SOL    HW1  737   1.655   0.150   0.531  0.2205  0.6501 -3.6368
  246SOL    HW2  738   1.614   0.058   0.396 -0.5044 -0.2557 -0.2389
  247SOL     OW  739   1.911   3.053   2.135 -0.3539  0.1579  0.2038
  247SOL    HW1  740   1.939   2.956   2.123  0.7580 -0.6722 -1.5073
  247SOL    HW2  741   1.901   3.080   2.232  0.3496  0.2166 -0.1446
  248SOL     OW  742   0.689   2.241   1.359 -0.2783 -0.4304  0.1165
  248SOL    HW1  743   0.679   2.317   1.422 -1.5888 -2.5700  1.3230
  248SOL    HW2  744   0.681   2.150   1.404  0.3845 -0.5484 -0.5176
  249SOL     OW  745   0.799   0.039   0.590 -0.7526 -0.3028  0.6917
  249SOL    HW1  746   0.797  -0.022   0.506 -3.2135  1.5655 -1.3871
  249SOL    HW2  747   0.713   0.027   0.644 -2.5026  0.3511 -0.1994
  250SOL     OW  748   2.110   0.255   2.160 -0.3426 -0.4302 -0.3188
  250SOL    HW1  749   2.037   0.223   2.093  0.8482  1.3171  0.9023
  250SOL    HW2  750   2.068   0.258   2.251 -0.4723 -0.9053  2.2158
  251SOL     OW  751   1.445   0.333   0.339 -0.1147  0.9174  0.3890
  251SOL    HW1  752   1.505   0.262   0.378 -2.6928 -0.9350 -0.7660
  251SOL    HW2  753   1.505   0.411   0.306 -1.4475 -0.3641  2.7209
  252SOL     OW  754   1.089   2.211   2.349  0.6180  0.0253  0.3296
  252SOL    HW1  755   1.024   2.291   2.335  1.2689 -0.7412  2.5190
  252SOL    HW2  756   1.044   2.142   2.407 -1.7343  2.3786 -0.8698
  253SOL     OW  757   2.742   2.097   0.493 -0.0417  0.2917 -0.1103
  253SOL    HW1  758   2.645   2.114   0.469 -2.2357 -1.0573 -0.0808
  253SOL    HW2  759   2.784   2.179   0.535  2.2721  2.1208 -1.5169
  254SOL     OW  760   2.226   1.309   1.651  0.8801 -0.4697  0.2050
  254SOL    HW1  761   2.206   1.268   1.555  2.7389  0.9424  1.8069
  254SOL    HW2  762   2.142   1.302   1.706 -1.2600  0.0560  1.1492
  255SOL     OW  763   0.743   2.214   1.734 -0.1120 -0.1734  0.3947
  255SOL    HW1  764   0.775   2.256   1.820  0.8815 -3.7208 -2.6837
  255SOL    HW2  765   0.650   2.177   1.743 -0.0621  4.2752 -0.6110
  256SOL     OW  766   2.803   1.585   1.831 -0.0521 -0.9332  0.2666
  256SOL    HW1  767   2.809   1.480   1.816  0.6534  0.8292  1.3668
  256SOL    HW2  768   2.860   1.639   1.764 -2.4733 -0.5956  0.5996
  257SOL     OW  769   2.921   2.723   2.740 -0.3389  0.0388 -0.2612
  257SOL    HW1  770   2.878   2.646   2.682  2.2952  0.5110 -0.9027
  257SOL    HW2  771   3.009   2.692   2.782 -0.9009  0.6996 -2.9460
  258SOL     OW  772   0.557   2.450   0.861  0.5846 -0.1680 -0.0920
  258SOL    HW1  773   0.476   2.393   0.883 -2.4350  0.1277  1.9473
  258SOL    HW2  774   0.631   2.449   0.932 -1.2941  0.0318  1.7592
  259SOL     OW  775   1.730   0.626   2.829  0.7202 -0.3836  0.3620
  259SOL    HW1  776   1.653   0.597   2.890  0.9665 -0.2620 -0.8084
  259SOL    HW2  777   1.719   0.567   2.745  0.7749  0.7330  0.8856
  260SOL     OW  778   0.642   0.474   1.456 -0.5820  0.3012 -0.0762
  260SOL    HW1  779   0.681   0.406   1.389  1.3274  1.2546 -1.7138
  260SOL    HW2  780   0.598   0.553   1.406 -0.4324 -0.1186  1.0031
  261SOL     OW  781   1.340   0.222   2.119  0.3326 -0.3249  0.0229
  261SOL    HW1  782   1.292   0.157   2.055 -1.2778 -2.0692  0.4481
  261SOL    HW2  783   1.436   0.193   2.131  1.1955  0.6546  0.4322
  262SOL     OW  784   1.381   3.032   2.673  0.2552  0.4034 -0.6152
  262SOL    HW1  785   1.343   2.964   2.607  0.4744  1.2052 -1.2304
  262SOL    HW2  786   1.437   2.984   2.745 -0.1729  1.3096 -0.8450
  263SOL     OW  787   0.510   1.837   2.654 -0.4426  0.4281  0.5146
  263SOL    HW1  788   0.527   1.754   2.709  2.2668 -1.4619  0.1598
  263SOL    HW2  789   0.587   1.905   2.657  1.2476 -0.9661 -0.5813
  264SOL     OW  790   1.639   1.529   1.238  0.0775  0.2199 -0.0270
  264SOL    HW1  791   1.640   1.452   1.170 -2.4565  1.1975 -0.6200
  264SOL    HW2  792   1.641   1.615   1.190  0.3754  1.7756 -0.5618
  265SOL     OW  793   0.659   2.012   3.020 -0.3590 -0.2663  0.4052
  265SOL    HW1  794   0.685   2.068   3.105  1.4528  0.4229  2.1906
  265SOL    HW2  795   0.657   2.077   2.939 -0.0304  2.1071 -0.9366
  266SOL     OW  796   0.433   1.044   1.209  0.5989 -0.6538 -0.8949
  266SOL    HW1  797   0.402   0.991   1.126 -0.1391  2.5096  0.9911
  266SOL    HW2  798   0.385   1.134   1.206  0.6422  0.5313  0.3924
  267SOL     OW  799   0.251   1.517   2.924 -0.1290 -0.1289 -0.3828
  267SOL    HW1  800   0.163   1.466   2.904 -0.2496 -1.3428  4.0271
  267SOL    HW2  801   0.326   1.474   2.868  3.0047  0.7354 -1.1175
  268SOL     OW  802   0.953   0.915   2.956  0.4663  0.0034 -0.2099
  268SOL    HW1  803   0.884   0.889   2.885  1.3390 -1.5203 -0.5447
  268SOL    HW2  804   1.032   0.961   2.908 -0.4766 -0.1839  0.8179
  269SOL     OW  805   2.835   0.254   1.984 -0.2846 -0.2054 -0.2492
  269SOL    HW1  806   2.762   0.269   1.910  1.5977 -1.1785 -1.9729
  269SOL    HW2  807   2.927   0.289   1.950  0.0803  0.7791  1.0442
  270SOL     OW  808   2.423   1.122   1.210 -0.1490 -0.2175 -0.4368
  270SOL    HW1  809   2.445   1.118   1.110 -2.2777 -1.2994  0.2263
  270SOL    HW2  810   2.331   1.085   1.225  0.6767  2.2522 -0.7747
  271SOL     OW  811   2.568   1.560   2.509  0.5633  0.0090  0.6535
  271SOL    HW1  812   2.503   1.491   2.471  2.0342  0.2676  1.2526
  271SOL    HW2  813   2.594   1.634   2.440  2.0731  1.3405  0.6182
  272SOL     OW  814   2.250   2.239   1.909 -0.0696  0.3563 -0.4834
  272SOL    HW1  815   2.332   2.201   1.955  2.9702 -0.9332  2.0565
  272SOL    HW2  816   2.180   2.283   1.969 -0.7350  2.5973 -0.5313
  273SOL     OW  817   0.061   2.626   2.884  0.6131  0.4936  0.2028
  273SOL    HW1  818   0.058   2.632   2.987  0.2788 -1.5238 -0.1649
  273SOL    HW2  819   0.072   2.530   2.851  0.5526  0.6227 -0.7233
  274SOL     OW  820   1.283   2.259   0.481 -0.0455  0.2472 -0.3752
  274SOL    HW1  821   1.274   2.358   0.504  2.0725  2.8286  2.3851
  274SOL    HW2  822   1.247   2.190   0.550  1.2911  0.8569  4.0403
  275SOL     OW  823   1.344   2.292   2.384  0.5381  0.0754 -0.5443
  275SOL    HW1  824   1.361   2.275   2.486  1.4108 -0.3779 -1.8911
  275SOL    HW2  825   1.249   2.250   2.359  1.5166 -0.3863  1.4925
  276SOL     OW  826   2.715   2.202   2.054 -0.0067  0.0977  1.2275
  276SOL    HW1  827   2.730   2.293   2.008 -0.8949  0.2895  0.8547
  276SOL    HW2  828   2.785   2.134   2.023  1.7009  0.2401  3.1101
  277SOL     OW  829   2.082   3.086   0.143 -0.2568 -0.2003  0.0518
  277SOL    HW1  830   2.174   3.054   0.175 -0.1838  1.0870  0.4886
  277SOL    HW2  831   2.036   3.140   0.214  0.4927  1.2768  0.5898
  278SOL     OW  832   1.361   0.277   2.940 -0.1626  0.2178  0.4410
  278SOL    HW1  833   1.273   0.333   2.956 -2.0189 -0.2135 -0.1687
  278SOL    HW2  834   1.392   0.237   3.028  0.4614  2.0895 -0.7755
  279SOL     OW  835   0.959   2.903   1.279  0.4408  0.4602 -0.1804
  279SOL    HW1  836   1.014   2.981   1.247 -0.9814  0.5986 -0.3626
  279SOL    HW2  837   0.857   2.922   1.281 -0.0820  1.4125 -0.6224
  280SOL     OW  838   1.202   1.018   0.600  0.2719 -0.0084 -0.1146
  280SOL    HW1  839   1.151   0.929   0.585  1.3627  0.9661 -1.9001
  280SOL    HW2  840   1.299   0.989   0.592  0.1039 -2.7810  1.1028
  281SOL     OW  841   2.182   1.536   0.550 -0.5959 -1.0363  0.2628
  281SOL    HW1  842   2.162   1.563   0.455 -1.2570  0.8704  1.0933
  281SOL    HW2  843   2.139   1.600   0.618  0.9697  0.4895  0.7555
  282SOL     OW  844   2.974   1.651   0.586  0.3177 -0.3647 -0.3086
  282SOL    HW1  845   3.000   1.667   0.683  1.6660  1.8434  0.0385
  282SOL    HW2  846   3.021   1.721   0.527 -0.3942  2.3428 -1.5376
  283SOL     OW  847   1.435   2.547   3.076  0.2102 -0.7752 -0.0439
  283SOL    HW1  848   1.468   2.460   3.119 -0.1198 -2.2257 -0.6770
  283SOL    HW2  849   1.504   2.620   3.078  0.5697  0.9690 -1.0550
  284SOL     OW  850   0.642   0.018   2.506 -0.4225  0.4939 -0.2105
  284SOL    HW1  851   0.716   0.059   2.446 -1.3502  3.1154 -0.5542
  284SOL    HW2  852   0.554   0.061   2.489 -0.0296 -1.9960  3.2368
  285SOL     OW  853   1.974   1.797   0.202 -0.4575 -0.2798 -0.6664
  285SOL    HW1  854   1.959   1.853   0.118  0.7318  1.9497  0.1409
  285SOL    HW2  855   1.904   1.820   0.275  0.3435  1.8803 -3.6916
  286SOL     OW  856   1.833   2.214   1.849  0.2127  0.9298 -0.2007
  286SOL    HW1  857   1.751   2.173   1.802  0.4226  1.6425  0.3165
  286SOL    HW2  858   1.908   2.167   1.805 -1.2088 -2.7306  1.5374
  287SOL     OW  859   1.496   0.207   1.195 -0.1120  0.4517 -0.0225
  287SOL    HW1  860   1.439   0.137   1.141  0.0030 -1.5474 -0.6079
  287SOL    HW2  861   1.590   0.193   1.177 -0.4938  2.0253  0.4705
  288SOL     OW  862   0.707   2.616   1.853 -0.1060 -0.5794  0.2972
  288SOL    HW1  863   0.682   2.565   1.765 -1.2822  0.2991 -1.1782
  288SOL    HW2  864   0.678   2.560   1.933  1.4065  0.6282 -1.8397
  289SOL     OW  865   3.063   1.670   0.831  0.1255 -0.2287  0.3482
  289SOL    HW1  866   2.987   1.628   0.879  0.5837 -0.3710  0.5164
  289SOL    HW2  867   3.127   1.719   0.896 -0.9950  1.3530  3.6958
  290SOL     OW  868   0.904   2.111   1.552  0.3458 -0.2841 -0.5992
  290SOL    HW1  869   0.848   2.138   1.631  2.4966 -1.4490 -0.2428
  290SOL    HW2  870   0.971   2.183   1.531 -0.5540 -0.9932  0.2766
  291SOL     OW  871   2.065   0.044   2.970 -0.4085  0.1455 -0.1528
  291SOL    HW1  872   2.146   0.108   2.957  0.9484 -0.9244  0.9732
  291SOL    HW2  873   2.066  -0.006   3.060  0.7876  1.9435  2.2028
  292SOL     OW  874   0.518   0.170   1.711 -0.0413 -0.2240 -0.3542
  292SOL    HW1  875   0.493   0.194   1.617 -1.9389  0.6480  1.9318
  292SOL    HW2  876   0.578   0.248   1.749  3.2903  0.2229 -0.8850
  293SOL     OW  877   2.339   1.396   1.233  0.0446  0.1635 -0.1534
  293SOL    HW1  878   2.364   1.443   1.317  0.5407 -0.2993  1.6607
  293SOL    HW2  879   2.376   1.301   1.236  0.4040  2.3290  0.0882
  294SOL     OW  880   0.407   0.125   2.425 -0.1035 -0.3826  0.3812
  294SOL    HW1  881   0.316   0.112   2.382 -1.2255  0.8810 -1.7883
  294SOL    HW2  882   0.399   0.186   2.509 -0.9472 -0.3518  0.7850
  295SOL     OW  883   1.046   1.523   0.196  0.3622 -0.0753  0.3360
  295SOL    HW1  884   0.984   1.440   0.194 -0.0609 -1.1072 -1.1386
  295SOL    HW2  885   1.111   1.518   0.275 -2.0604  1.3191  1.3497
  296SOL     OW  886   1.924   1.113   1.091 -0.0822  0.6616 -0.1209
  296SOL    HW1  887   1.976   1.151   1.009 -1.4271  1.0074  0.3696
  296SOL    HW2  888   1.952   1.168   1.171  1.1493  3.0381  1.6616
  297SOL     OW  889   1.695   0.482   2.585 -0.1962 -0.0135 -0.4450
  297SOL    HW1  890   1.755   0.406   2.615  0.1756  0.4523 -0.9738
  297SOL    HW2  891   1.606   0.444   2.547  1.4125 -0.1605 -0.9286
  298SOL     OW  892   0.907   0.672   2.629  0.2934  0.3266  0.7586
  298SOL    HW1  893   0.908   0.606   2.554  1.6205  2.8673 -0.2993
  298SOL    HW2  894   0.993   0.664   2.685  1.9253  3.0750 -2.2766
  299SOL     OW  895   1.425   0.131   1.717  0.0009 -0.2796  0.6813
  299SOL    HW1  896   1.507   0.148   1.774  1.1391 -0.1316 -0.8092
  299SOL    HW2  897   1.355   0.099   1.782  0.9319 -0.0285  0.3894
  300SOL     OW  898   2.505   0.348   1.372 -0.8491  0.0282 -0.0492
  300SOL    HW1  899   2.441   0.325   1.449  0.0513 -0.1318  3.5197
  300SOL    HW2  900   2.597   0.376   1.410 -0.0719 -1.7040 -0.5280
  301SOL     OW  901   2.292   1.051   1.713 -0.0235  0.1844  0.3402
  301SOL    HW1  902   2.258   1.147   1.683  0.4030  0.8003 -3.0450
  301SOL    HW2  903   2.251   0.977   1.661  0.8620  0.9292 -0.0165
  302SOL     OW  904   0.032   2.607   2.051 -0.1839 -0.3321 -0.1708
  302SOL    HW1  905   0.087   2.663   2.122  1.6449  1.8759 -0.5575
  302SOL    HW2  906  -0.064   2.598   2.088 -0.3152 -0.5964  1.0433
  303SOL     OW  907   2.377   2.385   1.691  0.0648  0.6057 -0.3817
  303SOL    HW1  908   2.444   2.310   1.662 -0.4991 -0.7174 -0.5166
  303SOL    HW2  909   2.327   2.358   1.770 -0.2589  0.2455  2.2243
  304SOL     OW  910   0.056   2.837   0.498  0.3853  0.5085 -0.0706
  304SOL    HW1  911   0.082   2.922   0.449  0.3161 -0.3928 -0.4938
  304SOL    HW2  912   0.139   2.787   0.537  0.9544 -0.3543  0.3954
  305SOL     OW  913   0.997   1.122   0.433 -0.7173 -0.3481  0.3133
  305SOL    HW1  914   1.056   1.069   0.366 -1.3265 -1.6779  1.5119
  305SOL    HW2  915   1.051   1.155   0.510 -0.2076 -1.2093  2.9671
  306SOL     OW  916   0.182   1.558   2.621  0.3215 -0.0090  0.1621
  306SOL    HW1  917   0.280   1.552   2.650 -2.0341  0.7348  0.3428
  306SOL    HW2  918   0.144   1.464   2.632  0.3212 -1.1075 -1.1675
  307SOL     OW  919   0.671   0.439   2.237  0.1405 -0.1939  0.0509
  307SOL    HW1  920   0.611   0.455   2.317 -1.9777  3.2428  1.3241
  307SOL    HW2  921   0.737   0.520   2.217 -1.2822 -1.6229 -2.0873
  308SOL     OW  922   1.313   0.549   0.991 -0.1407  0.1095  0.2498
  308SOL    HW1  923   1.307   0.535   0.892  3.4980 -2.3302  2.2769
  308SOL    HW2  924   1.237   0.606   1.027  0.4043  0.4166 -0.1789
  309SOL     OW  925   2.393   0.810   0.920 -0.0947  0.3605 -0.1282
  309SOL    HW1  926   2.418   0.816   1.021 -1.3647  1.8715 -0.5004
  309SOL    HW2  927   2.357   0.717   0.896  0.2817 -2.9357  1.6012
  310SOL     OW  928   0.808   1.161   2.706 -0.0768  0.1706  0.6057
  310SOL    HW1  929   0.830   1.060   2.707 -2.4325 -2.7593  0.7804
  310SOL    HW2  930   0.889   1.220   2.682 -0.2013 -0.9771 -0.1248
  311SOL     OW  931   2.177   1.819   2.470  0.4039 -0.1607  0.1318
  311SOL    HW1  932   2.107   1.887   2.437 -0.8244  1.0977 -2.7613
  311SOL    HW2  933   2.207   1.854   2.558 -0.7927  0.3285  0.9518
  312SOL     OW  934   1.456   0.182   0.100 -0.1596  0.1432  0.1383
  312SOL    HW1  935   1.477   0.088   0.127 -0.2738 -0.9833  3.1453
  312SOL    HW2  936   1.411   0.229   0.181 -0.1367  1.9701  0.5159
  313SOL     OW  937   0.223   0.412   0.164 -0.0977 -0.5864  0.1965
  313SOL    HW1  938   0.178   0.424   0.073 -2.1437 -3.4486 -2.0180
  313SOL    HW2  939   0.298   0.476   0.177  0.0177  2.6068  2.1395
  314SOL     OW  940   2.093   1.571   2.546  0.4984 -0.3671  0.0998
  314SOL    HW1  941   1.994   1.574   2.537 -0.3275  1.2542  1.9230
  314SOL    HW2  942   2.126   1.666   2.527  3.1227  0.8411  0.3877
  315SOL     OW  943   1.936   0.494   2.026  0.3730  0.4170  0.5643
  315SOL    HW1  944   1.837   0.477   2.026 -1.5065  1.1501 -2.1431
  315SOL    HW2  945   1.992   0.411   2.046 -0.4244 -0.6896 -3.8169
  316SOL     OW  946   0.516   0.415   0.659 -0.7074 -1.0236  0.2298
  316SOL    HW1  947   0.569   0.420   0.571 -1.4568 -0.4487  1.2111
  316SOL    HW2  948   0.455   0.491   0.685 -0.2584  0.6917 -1.2225
  317SOL     OW  949   0.789   0.151   0.250 -0.5752  0.2837  0.2334
  317SOL    HW1  950   0.793   0.074   0.312  1.3575  2.6982 -0.0309
  317SOL    HW2  951   0.883   0.196   0.244 -0.6691  0.3841  1.7865
  318SOL     OW  952   2.560   2.757   1.060  0.0041  0.2235  0.3548
  318SOL    HW1  953   2.637   2.757   0.993 -2.0903 -0.4245 -1.7282
  318SOL    HW2  954   2.503   2.672   1.051 -0.9276 -3.2795 -1.9131
  319SOL     OW  955   0.769   1.764   2.972  0.1794  0.2137  0.9535
  319SOL    HW1  956   0.718   1.850   3.000 -0.0640  1.0169  1.3303
  319SOL    HW2  957   0.863   1.783   2.944 -1.9258  1.4273 -0.6680
  320SOL     OW  958   0.756   2.465   1.069  0.0979  0.1510 -0.0104
  320SOL    HW1  959   0.739   2.526   1.150  1.0036 -1.3432  1.9993
  320SOL    HW2  960   0.786   2.375   1.102 -1.9536  0.4749 -0.4953
  321SOL     OW  961   1.576   2.427   2.578  0.1057  0.0235  0.4109
  321SOL    HW1  962   1.551   2.528   2.564  0.9876 -3.1206 -0.3321
  321SOL    HW2  963   1.616   2.384   2.495 -1.2734 -1.2649 -1.8847
  322SOL     OW  964   2.793   2.513   2.619  0.1870 -0.0927  0.1380
  322SOL    HW1  965   2.763   2.440   2.683  0.6722  1.9707 -2.5765
  322SOL    HW2  966   2.722   2.515   2.545  1.5701 -1.6204  2.3321
  323SOL     OW  967   2.738   0.622   0.558 -0.4052  0.2007  0.1402
  323SOL    HW1  968   2.700   0.707   0.596 -1.4249  1.1965 -2.6512
  323SOL    HW2  969   2.686   0.596   0.474  2.0282  2.2685  0.4687
  324SOL     OW  970   2.323   1.521   2.396  0.7505  0.1041 -0.3659
  324SOL    HW1  971   2.349   1.612   2.361  2.1652  0.8522  2.7005
  324SOL    HW2  972   2.263   1.530   2.476 -1.1944  1.2712 -0.1398
  325SOL     OW  973   1.712   0.242   2.285  0.3588 -0.1150  0.0921
  325SOL    HW1  974   1.638   0.266   2.353  2.5674 -1.8593  2.7362
  325SOL    HW2  975   1.806   0.245   2.329  1.1047 -2.1260  0.5212
  326SOL     OW  976   0.094   2.233   0.728  0.4016  0.0797  0.4025
  326SOL    HW1  977   0.033   2.179   0.793  4.1428  0.3147 -1.1955
  326SOL    HW2  978   0.157   2.178   0.668  0.7478 -0.0100  2.5841
  327SOL     OW  979   2.321   0.143   3.056  0.4254 -0.1254  0.0834
  327SOL    HW1  980   2.323   0.201   2.973  0.1250  1.6019  0.1147
  327SOL    HW2  981   2.391   0.071   3.049  0.8668 -1.7691  1.0123
  328SOL     OW  982   0.870   0.907   0.754 -0.4037  0.3003  0.0560
  328SOL    HW1  983   0.795   0.877   0.687  0.1164  1.5514  0.8929
  328SOL    HW2  984   0.852   0.996   0.797  0.1250 -1.8843 -1.4218
  329SOL     OW  985   2.660   1.113   1.912 -0.4515  0.3488  0.1884
  329SOL    HW1  986   2.621   1.052   1.835 -1.2934 -1.2141 -0.3444
  329SOL    HW2  987   2.593   1.173   1.960 -2.7794 -1.4094 -0.1564
  330SOL     OW  988   1.613   0.786   1.125 -0.4544  0.2116 -0.0476
  330SOL    HW1  989   1.707   0.808   1.087 -1.9739 -0.4738 -1.0783
  330SOL    HW2  990   1.623   0.697   1.170  1.5878 -1.0023  2.5384
  331SOL     OW  991   0.760   1.746   1.465  0.0916  0.2343 -0.2726
  331SOL    HW1  992   0.827   1.698   1.403  1.9650  1.9270 -0.2192
  331SOL    HW2  993   0.676   1.698   1.491  0.0273  1.1704  0.5106
  332SOL     OW  994   2.082   1.977   2.081  0.3682 -0.0887 -0.3552
  332SOL    HW1  995   2.180   1.947   2.078  2.3640 -2.2891 -2.8675
  332SOL    HW2  996   2.084   2.075   2.096  1.5023  0.6308  1.4374
  333SOL     OW  997   2.757   3.018   0.864 -0.0971 -0.0738 -0.3771
  333SOL    HW1  998   2.687   3.079   0.907  0.4147  1.1103  0.3721
  333SOL    HW2  999   2.832   3.059   0.800  1.5273 -0.8774  2.3134
  334SOL     OW 1000   2.848   1.602   0.984  0.3546 -0.0671  0.3116
  334SOL    HW1 1001   2.757   1.621   1.024  0.6151  0.1224 -0.3878
  334SOL    HW2 1002   2.904   1.546   1.044 -3.8917  0.8836 -1.0107
  335SOL     OW 1003   0.961   2.903   2.796  0.3488  0.4916  0.0293
  335SOL    HW1 1004   1.038   2.879   2.857  1.7415  1.3754  0.2888
  335SOL    HW2 1005   0.989   2.962   2.720 -2.5105  2.2368 -1.1342
  336SOL     OW 1006   0.433   3.020   1.423  0.0713  0.3264 -0.5287
  336SOL    HW1 1007   0.417   2.956   1.502  1.9208  0.6059  1.8315
  336SOL    HW2 1008   0.362   3.006   1.349  0.1985  0.9778  1.4440
  337SOL     OW 1009   0.787   2.334   1.970 -0.4572 -0.8130  0.2217
  337SOL    HW1 1010   0.845   2.409   2.005 -1.2440  0.8325  0.5283
  337SOL    HW2 1011   0.814   2.252   2.021  1.9780  2.0192  0.6063
  338SOL     OW 1012   1.340   2.563   2.354 -0.3526  0.2500  0.8763
  338SOL    HW1 1013   1.250   2.605   2.372 -3.2155 -1.1980  0.6367
  338SOL    HW2 1014   1.338   2.462   2.374  4.4560 -0.9739  1.3323
  339SOL     OW 1015   2.774   1.234   0.251  0.2091 -0.3705  0.2196
  339SOL    HW1 1016   2.772   1.132   0.239  1.1020  2.7035  0.0786
  339SOL    HW2 1017   2.721   1.254   0.331  0.4819 -1.1057 -1.0762
  340SOL     OW 1018   2.023   0.613   1.119 -0.0141 -0.2942 -0.6596
  340SOL    HW1 1019   1.973   0.524   1.133  1.7219  0.9871 -2.9600
  340SOL    HW2 1020   1.960   0.694   1.108 -0.5862 -2.3551 -3.6368
  341SOL     OW 1021   2.030   1.236   0.866  0.3219  0.1170  0.0421
  341SOL    HW1 1022   2.104   1.261   0.803 -0.2845 -0.2309 -2.5012
  341SOL    HW2 1023   2.002   1.140   0.840 -0.4665  0.6656 -2.6633
  342SOL     OW 1024   1.694   1.998   2.721 -0.7581  0.3281 -0.5184
  342SOL    HW1 1025   1.634   2.051   2.790 -0.9244  2.0083  1.6490
  342SOL    HW2 1026   1.736   2.058   2.657  2.0585  2.0403 -0.5942
  343SOL     OW 1027   0.001   2.621   1.354  0.7197 -0.1361 -0.1610
  343SOL    HW1 1028  -0.097   2.623   1.381  1.1178  1.1536 -2.0649
  343SOL    HW2 1029   0.017   2.703   1.293  1.6359 -0.4675 -1.1580
  344SOL     OW 1030   0.059   2.981   0.806 -0.0476  0.3715  0.3180
  344SOL    HW1 1031   0.141   2.995   0.746  2.6645 -2.8271  1.8229
  344SOL    HW2 1032  -0.023   3.014   0.753  3.3138  1.2738 -1.6798
  345SOL     OW 1033   2.601   2.121   3.075 -0.0935 -0.7193 -0.3283
  345SOL    HW1 1034   2.517   2.175   3.047  1.8460  1.2960  0.3805
  345SOL    HW2 1035   2.575   2.068   3.161  0.1385  0.1694  1.3608
  346SOL     OW 1036   1.129   2.153   1.861 -0.7879 -0.1754 -0.0506
  346SOL    HW1 1037   1.104   2.251   1.857 -1.2907  0.6687  0.1873
  346SOL    HW2 1038   1.115   2.121   1.956 -2.0386  1.0733 -0.7899
  347SOL     OW 1039   1.472   2.255   2.141 -0.6275  0.0230 -0.1635
  347SOL    HW1 1040   1.450   2.162   2.105 -2.0307  1.3743  0.8909
  347SOL    HW2 1041   1.416   2.273   2.225 -3.4075 -0.8729  0.2491
  348SOL     OW 1042   1.066   2.306   1.425  0.0259 -0.2072 -0.1418
  348SOL    HW1 1043   1.157   2.350   1.442  0.5579  1.7006  0.4539
  348SOL    HW2 1044   1.049   2.294   1.326 -1.3829  0.6173 -1.0469
  349SOL     OW 1045   1.510   1.652   1.810 -0.1229 -0.3781  0.3253
  349SOL    HW1 1046   1.468   1.707   1.733  0.8706  1.1348  1.1615
  349SOL    HW2 1047   1.505   1.556   1.790 -0.4366 -2.1448  0.4944
  350SOL     OW 1048   2.068   2.302   0.610  0.9485 -0.7133 -0.4128
  350SOL    HW1 1049   2.129   2.221   0.623  1.3301 -1.6958  1.8637
  350SOL    HW2 1050   2.123   2.383   0.581 -3.2940  1.2322  1.5696
  351SOL     OW 1051   0.448   0.189   1.450 -0.5386 -0.4543  0.3108
  351SOL    HW1 1052   0.442   0.090   1.436 -0.9484  0.1513  1.3912
  351SOL    HW2 1053   0.467   0.243   1.369 -1.6089 -1.4472 -1.3149
  352SOL     OW 1054   0.770   0.993   0.354  0.4932 -0.2760 -0.5203
  352SOL    HW1 1055   0.856   1.030   0.394 -0.6661 -2.8223  1.3124
  352SOL    HW2 1056   0.778   0.975   0.255  0.8210  0.9488 -0.4837
  353SOL     OW 1057   0.172   1.755   2.377  0.5148 -0.1381  0.0579
  353SOL    HW1 1058   0.137   1.711   2.465  1.4634 -1.8030 -1.9324
  353SOL    HW2 1059   0.106   1.753   2.304  1.0820 -0.6486 -0.4775
  354SOL     OW 1060   1.615   2.761   1.279 -0.1647 -0.2347  0.1009
  354SOL    HW1 1061   1.675   2.843   1.287  0.0174  0.2399  1.6020
  354SOL    HW2 1062   1.521   2.787   1.277 -0.3565 -0.4786 -2.3307
  355SOL     OW 1063   2.136   0.524   3.031  0.0576  0.9625 -0.2863
  355SOL    HW1 1064   2.148   0.489   3.128  1.2587  1.2503  0.4509
  355SOL    HW2 1065   2.057   0.579   3.018 -1.6728  0.0416  0.9371
  356SOL     OW 1066   1.280   2.497   1.717  0.2755 -0.8282 -0.0132
  356SOL    HW1 1067   1.202   2.442   1.753 -0.1558 -0.0206 -0.8768
  356SOL    HW2 1068   1.288   2.496   1.616 -1.5896 -1.1561 -0.1104
  357SOL     OW 1069   0.607   2.860   1.864  0.5203  0.3825  0.0933
  357SOL    HW1 1070   0.643   2.766   1.866  0.0349  0.8143  1.2659
  357SOL    HW2 1071   0.505   2.863   1.875  2.8622  0.1287  0.7739
  358SOL     OW 1072   1.882   1.811   1.944 -0.0428 -0.2862  0.0563
  358SOL    HW1 1073   1.942   1.750   1.890 -1.3310  0.3199 -1.8981
  358SOL    HW2 1074   1.933   1.893   1.981 -0.5666 -1.0355 -0.0184
  359SOL     OW 1075   1.635   1.905   1.906  0.3298  0.4637  0.0325
  359SOL    HW1 1076   1.583   1.818   1.889 -0.6422 -2.7961 -0.8525
  359SOL    HW2 1077   1.735   1.876   1.912  1.2772  2.3862 -0.2557
  360SOL     OW 1078   1.125   2.645   0.870 -0.3681  0.1813 -0.0049
  360SOL    HW1 1079   1.222   2.644   0.890 -0.8236  3.0636  1.7466
  360SOL    HW2 1080   1.072   2.669   0.952  1.0392  0.0582 -1.3576
  361SOL     OW 1081   2.446   2.777   3.087 -0.2751  0.3724 -0.2139
  361SOL    HW1 1082   2.519   2.710   3.112  0.4995 -1.3951 -2.0196
  361SOL    HW2 1083   2.472   2.829   3.000 -3.2422 -0.2508  2.0934
  362SOL     OW 1084   1.655   0.554   1.230 -0.2795 -0.1703  0.2010
  362SOL    HW1 1085   1.609   0.475   1.276  1.0502  0.0467  0.3388
  362SOL    HW2 1086   1.740   0.571   1.287  2.3259  0.7437 -1.0027
  363SOL     OW 1087   1.642   1.156   2.180 -0.5318  0.4401 -0.0450
  363SOL    HW1 1088   1.544   1.149   2.170 -1.1325  0.7881 -1.3510
  363SOL    HW2 1089   1.685   1.232   2.129 -1.3569 -1.7271 -2.9213
  364SOL     OW 1090   0.467   0.805   1.676  0.3265 -0.4185  0.0615
  364SOL    HW1 1091   0.518   0.798   1.766 -0.8748  4.8722  1.3121
  364SOL    HW2 1092   0.406   0.730   1.656  0.9544  0.7410 -0.5870
  365SOL     OW 1093   0.814   0.404   0.092 -0.0417  0.3281 -0.1709
  365SOL    HW1 1094   0.824   0.490   0.150  0.6233 -2.0772  0.0519
  365SOL    HW2 1095   0.892   0.343   0.109  1.6552  0.0536  0.5118
  366SOL     OW 1096   2.260   0.709   2.839  0.0577 -0.0174 -0.1268
  366SOL    HW1 1097   2.256   0.624   2.897  0.0986 -0.7332 -2.8206
  366SOL    HW2 1098   2.192   0.777   2.866 -0.8144 -1.2271  0.8876
  367SOL     OW 1099   2.517   2.833   2.421  0.0087  0.1172  0.3116
  367SOL    HW1 1100   2.425   2.817   2.384 -1.3847  0.0947 -1.0356
  367SOL    HW2 1101   2.537   2.932   2.400  2.3329 -1.9274  0.1714
  368SOL     OW 1102   0.529   0.687   1.291  0.3475  0.1004  0.3560
  368SOL    HW1 1103   0.594   0.698   1.221 -1.7240 -1.9147  0.3457
  368SOL    HW2 1104   0.444   0.632   1.265  2.3146 -1.1008 -1.7746
  369SOL     OW 1105   0.623   2.820   2.345  0.1952 -0.1349 -0.5065
  369SOL    HW1 1106   0.557   2.786   2.277 -1.6997 -0.5093  0.5705
  369SOL    HW2 1107   0.611   2.916   2.374  1.8565  0.2569 -2.6714
  370SOL     OW 1108   2.605   3.066   0.305 -0.6327  0.1118 -0.4051
  370SOL    HW1 1109   2.520   3.026   0.348 -1.9648  0.2207  0.8634
  370SOL    HW2 1110   2.691   3.013   0.321  0.3641 -2.7879 -0.9132
  371SOL     OW 1111   1.067   2.426   1.871  0.3045  0.0130 -0.2526
  371SOL    HW1 1112   1.010   2.457   1.798  0.9160 -0.2710  2.6931
  371SOL    HW2 1113   1.046   2.463   1.963 -0.1845 -0.4313 -2.7771
  372SOL     OW 1114   1.976   0.251   2.400 -0.6823  0.2030 -0.2212
  372SOL    HW1 1115   1.977   0.155   2.393  2.5340  2.3741 -2.5167
  372SOL    HW2 1116   1.941   0.289   2.488 -1.3629 -0.1217  1.7967
  373SOL     OW 1117   0.251   2.024   0.999  0.1034  0.4065  0.0238
  373SOL    HW1 1118   0.292   1.994   1.090 -0.3459  0.2287 -1.6760
  373SOL    HW2 1119   0.289   2.111   0.970 -0.1531 -1.0564 -0.9590
  374SOL     OW 1120   0.005   0.397   2.229 -0.0068  0.5113 -0.1732
  374SOL    HW1 1121  -0.037   0.317   2.281 -2.0523 -1.2171  0.0042
  374SOL    HW2 1122  -0.028   0.493   2.253  1.4322  2.6271  1.4041
  375SOL     OW 1123   1.139   0.415   2.984 -0.3349 -0.5563  0.3713
  375SOL    HW1 1124   1.130   0.437   3.086 -2.3701 -0.6327 -0.0655
  375SOL    HW2 1125   1.069   0.344   2.956  0.6407  3.2761 -0.2379
  376SOL     OW 1126   2.996   2.224   1.562 -0.6312 -0.5115 -0.3600
  376SOL    HW1 1127   3.078   2.245   1.504 -2.3251 -1.0993 -1.6879
  376SOL    HW2 1128   2.979   2.297   1.631  3.2473  1.5142  0.2336
  377SOL     OW 1129   1.503   0.332   2.452  0.0744 -0.1341 -0.3572
  377SOL    HW1 1130   1.478   0.251   2.510  0.5633 -2.1023 -0.5226
  377SOL    HW2 1131   1.433   0.410   2.460 -0.6895 -2.5857  3.3340
  378SOL     OW 1132   2.786   1.214   2.797 -0.3459 -0.1052  0.5874
  378SOL    HW1 1133   2.803   1.298   2.850 -3.6373  1.0621  1.6692
  378SOL    HW2 1134   2.835   1.210   2.708  0.9285 -1.9152  0.0911
  379SOL     OW 1135   1.395   0.775   2.602  0.1626  0.1840  0.0088
  379SOL    HW1 1136   1.403   0.843   2.680 -3.5024  1.3935 -1.1436
  379SOL    HW2 1137   1.481   0.766   2.545 -0.6100  0.1878 -2.7379
  380SOL     OW 1138   0.155   1.995   1.418  0.3150 -0.3959  0.3206
  380SOL    HW1 1139   0.177   1.952   1.505 -1.8023  1.7294  0.1320
  380SOL    HW2 1140   0.089   1.935   1.367 -0.0662  0.4239  0.7359
  381SOL     OW 1141   3.080   1.003   0.126 -0.4127  0.0609 -0.2974
  381SOL    HW1 1142   2.990   0.996   0.079  0.2863 -1.4850  0.7375
  381SOL    HW2 1143   3.142   1.080   0.099 -0.6124 -0.2122 -0.9561
  382SOL     OW 1144   2.175   2.422   1.400 -0.0256  0.0384  0.1623
  382SOL    HW1 1145   2.154   2.380   1.311 -2.7112  0.5550  0.0798
  382SOL    HW2 1146   2.277   2.410   1.410 -1.5567 -0.8701  0.8783
  383SOL     OW 1147   0.652   1.666   0.108 -0.3134  0.0088  0.1464
  383SOL    HW1 1148   0.674   1.568   0.120  1.6618 -2.1577  0.9006
  383SOL    HW2 1149   0.703   1.708   0.033 -0.5388  3.5679 -0.7458
  384SOL     OW 1150   0.676   2.623   2.588 -0.0691  0.0272 -0.0353
  384SOL    HW1 1151   0.649   2.697   2.518  3.0421  0.9381 -0.3095
  384SOL    HW2 1152   0.744   2.643   2.663  0.8260  0.6033  0.2815
  385SOL     OW 1153   2.254   2.112   0.623  0.4560  0.4827  0.2053
  385SOL    HW1 1154   2.317   2.128   0.545 -0.4507 -2.9884 -2.1083
  385SOL    HW2 1155   2.314   2.076   0.698  3.0718 -2.3782  0.3961
  386SOL     OW 1156   2.494   0.742   1.167 -0.0503 -0.0713  0.4000
  386SOL    HW1 1157   2.523   0.644   1.174  0.5139 -2.2692 -2.6403
  386SOL    HW2 1158   2.392   0.746   1.192 -0.4226  1.6396  0.2862
  387SOL     OW 1159   0.625   1.270   2.151  0.0095 -0.7037 -0.3121
  387SOL    HW1 1160   0.716   1.235   2.186  0.6929  0.0901  0.3882
  387SOL    HW2 1161   0.643   1.299   2.059 -2.0512  1.8164 -1.4798
  388SOL     OW 1162   0.943   1.579   2.219  0.1513  0.0477 -0.0321
  388SOL    HW1 1163   0.858   1.602   2.162 -1.0831 -0.3030 -1.3214
  388SOL    HW2 1164   1.030   1.564   2.161 -0.1862  1.9909 -0.1099
  389SOL     OW 1165   0.859   1.348   1.645  0.0318  0.4683  0.5338
  389SOL    HW1 1166   0.900   1.252   1.648  0.8014  0.4047  0.7193
  389SOL    HW2 1167   0.932   1.418   1.640 -2.3451 -0.1311 -1.2559
  390SOL     OW 1168   3.087   2.851   1.211 -0.1800  0.9369  0.1073
  390SOL    HW1 1169   3.097   2.814   1.114  0.4137 -0.5843  0.5060
  390SOL    HW2 1170   3.050   2.948   1.211  2.0055  0.4473 -0.1275
  391SOL     OW 1171   2.007   1.312   1.272 -0.1332  0.0711 -0.5429
  391SOL    HW1 1172   2.047   1.353   1.183  0.0897 -0.1813 -0.3100
  391SOL    HW2 1173   1.958   1.386   1.317  0.4050 -1.7049 -1.0219
  392SOL     OW 1174   2.752   3.069   2.962 -0.3659 -0.1298 -0.2544
  392SOL    HW1 1175   2.761   2.969   2.976 -0.6166 -0.4615  0.9290
  392SOL    HW2 1176   2.707   3.124   3.042  0.1602 -0.8503 -0.6923
  393SOL     OW 1177   1.355   1.894   0.141  0.5438  0.5831 -0.3471
  393SOL    HW1 1178   1.411   1.875   0.225 -1.7200  2.7163  2.7756
  393SOL    HW2 1179   1.267   1.841   0.136 -2.2337  2.5096 -0.2768
  394SOL     OW 1180   2.796   2.809   3.006  0.1757 -0.0285 -0.2618
  394SOL    HW1 1181   2.805   2.769   2.912  0.8334 -1.6225 -1.2438
  394SOL    HW2 1182   2.746   2.740   3.061 -1.4056 -1.2586  0.4359
  395SOL     OW 1183   3.091   0.228   1.116  0.0289  0.1141  0.4041
  395SOL    HW1 1184   3.037   0.291   1.056  0.4789 -1.2706  0.7137
  395SOL    HW2 1185   3.140   0.274   1.192  2.6021  0.3113 -0.4509
  396SOL     OW 1186   2.433   0.979   0.698 -0.2314  0.0205  0.6209
  396SOL    HW1 1187   2.356   1.005   0.641 -1.6962  1.0500  0.8419
  396SOL    HW2 1188   2.408   0.907   0.768 -1.9525  0.2617  1.8868
  397SOL     OW 1189   0.452   0.480   2.418 -0.0894  0.5728  0.2360
  397SOL    HW1 1190   0.433   0.575   2.450  0.8169 -1.2886 -1.7642
  397SOL    HW2 1191   0.428   0.413   2.488  1.5650  2.0132  1.1548
  398SOL     OW 1192   0.732   0.053   3.081  0.7936 -0.6103  0.0431
  398SOL    HW1 1193   0.738   0.083   3.175  1.5334  1.0497  0.5518
  398SOL    HW2 1194   0.702   0.128   3.020 -0.2865 -1.9625  0.3042
  399SOL     OW 1195   2.313   0.698   1.907 -0.2158 -0.1494  0.1043
  399SOL    HW1 1196   2.223   0.734   1.881  0.6529 -2.1645 -0.9292
  399SOL    HW2 1197   2.364   0.678   1.822  2.6576  0.1803  0.9411
  400SOL     OW 1198   1.074   1.991   2.751  0.0741 -0.0649  0.5275
  400SOL    HW1 1199   1.157   1.977   2.691  2.1333 -0.9935  0.3849
  400SOL    HW2 1200   1.080   2.076   2.804 -1.9462 -0.9638 -0.7445
  401SOL     OW 1201   0.311   1.456   2.364  0.1385  0.1459  0.2672
  401SOL    HW1 1202   0.411   1.459   2.353 -1.5420  2.4942  0.8983
  401SOL    HW2 1203   0.275   1.545   2.395 -0.7847 -0.6935  0.0796
  402SOL     OW 1204   2.964   0.203   0.525  0.8081 -0.0860 -0.2015
  402SOL    HW1 1205   3.038   0.176   0.463 -0.9310 -0.4191  0.4489
  402SOL    HW2 1206   2.967   0.303   0.548  2.2980 -1.0999 -3.2261
  403SOL     OW 1207   0.488   1.344   1.375  0.0547 -0.1575 -0.3898
  403SOL    HW1 1208   0.494   1.267   1.443 -0.7132 -0.7868 -1.8632
  403SOL    HW2 1209   0.406   1.332   1.316 -0.8238 -0.5853  0.0251
  404SOL     OW 1210   2.017   2.161   2.999 -0.4950 -0.9342 -0.5655
  404SOL    HW1 1211   1.990   2.066   3.013  0.9786  1.2198 -1.2869
  404SOL    HW2 1212   2.045   2.173   2.899 -1.1215  0.1299  0.6758
  405SOL     OW 1213   0.544   0.085   2.130 -0.2420 -0.0496  0.6399
  405SOL    HW1 1214   0.515   0.103   2.226 -0.0457 -1.8956  1.3671
  405SOL    HW2 1215   0.610   0.154   2.101  1.0200 -1.7201  1.7578
  406SOL     OW 1216   0.656   1.599   2.774 -0.0806  0.1560 -0.2439
  406SOL    HW1 1217   0.713   1.595   2.690 -1.5840 -2.3346 -0.8575
  406SOL    HW2 1218   0.700   1.672   2.833 -0.5978 -0.8016  1.7435
  407SOL     OW 1219   2.078   0.430   2.768 -0.6621 -0.3029 -0.8750
  407SOL    HW1 1220   2.079   0.444   2.870  1.8092  3.8846  3.6226
  407SOL    HW2 1221   2.112   0.514   2.718 -0.2951 -1.4997 -0.1559
  408SOL     OW 1222   0.615   2.543   2.094 -0.4343 -0.5253 -0.1433
  408SOL    HW1 1223   0.564   2.630   2.127 -0.7296  0.5054 -2.0445
  408SOL    HW2 1224   0.669   2.493   2.168 -1.1902 -1.9459  1.4341
  409SOL     OW 1225   0.122   2.782   1.585 -0.2920  0.2104 -0.0143
  409SOL    HW1 1226   0.224   2.776   1.598 -0.2207  1.1078 -0.1328
  409SOL    HW2 1227   0.094   2.720   1.508 -1.6604 -0.9713  2.9542
  410SOL     OW 1228   0.129   1.796   0.182  0.0944  0.4698  0.5961
  410SOL    HW1 1229   0.193   1.731   0.144 -2.5009  2.4055  0.9509
  410SOL    HW2 1230   0.088   1.856   0.110 -1.2433  2.6992  2.2422
  411SOL     OW 1231   2.723   3.019   1.738 -0.2247 -0.4621 -0.1378
  411SOL    HW1 1232   2.656   3.090   1.695  0.6290  2.2145 -0.9217
  411SOL    HW2 1233   2.747   3.044   1.831  0.6641 -0.1220 -2.2062
  412SOL     OW 1234   2.732   0.529   1.679  0.1058 -0.6886 -0.1042
  412SOL    HW1 1235   2.822   0.558   1.721  0.5356  0.0755  0.4705
  412SOL    HW2 1236   2.687   0.453   1.731  1.5526  0.4918  2.1855
  413SOL     OW 1237   0.033   0.548   2.779 -0.0335 -0.2397  0.0518
  413SOL    HW1 1238   0.046   0.641   2.735  0.2089 -0.6288  0.9867
  413SOL    HW2 1239  -0.058   0.511   2.752  0.5432 -1.0280  0.7533
  414SOL     OW 1240   2.466   1.519   0.546  0.2063  0.1355  0.3472
  414SOL    HW1 1241   2.509   1.589   0.600 -0.7691 -1.1792  1.3549
  414SOL    HW2 1242   2.367   1.532   0.539  0.6043 -0.0621  0.4449
  415SOL     OW 1243   0.540   2.448   0.110 -0.2489  0.6599 -0.3038
  415SOL    HW1 1244   0.526   2.465   0.210 -3.5815 -0.8673  1.0391
  415SOL    HW2 1245   0.504   2.526   0.059  1.8310 -0.4007  0.9225
  416SOL     OW 1246   1.366   2.344   2.901 -0.0240  0.2065  0.0855
  416SOL    HW1 1247   1.382   2.424   2.964 -1.7962 -0.3206 -0.5639
  416SOL    HW2 1248   1.277   2.298   2.921 -0.5568  0.2903  0.8769
  417SOL     OW 1249   1.047   1.033   1.296 -0.0204  0.1568  0.1038
  417SOL    HW1 1250   0.983   1.095   1.246  0.3410 -1.3658 -2.1770
  417SOL    HW2 1251   0.989   0.960   1.340  1.9671 -0.1656  3.7694
  418SOL     OW 1252   2.565   0.345   0.862  0.3443 -0.0759  0.7775
  418SOL    HW1 1253   2.525   0.327   0.773  1.1053 -0.2127 -3.6229
  418SOL    HW2 1254   2.645   0.406   0.849 -0.6656 -1.6102 -2.3029
  419SOL     OW 1255   0.429   2.609   2.994  0.5713 -0.2353 -0.4558
  419SOL    HW1 1256   0.381   2.701   2.993  1.4631  2.2997 -3.6728
  419SOL    HW2 1257   0.435   2.568   2.899  0.5597 -2.3521  1.4618
  420SOL     OW 1258   0.265   1.262   1.189 -0.1218 -0.1389  1.2541
  420SOL    HW1 1259   0.173   1.235   1.227 -1.6080 -1.0846 -0.1078
  420SOL    HW2 1260   0.263   1.320   1.107 -0.7089 -2.5002 -0.6539
  421SOL     OW 1261   1.667   2.786   0.560  0.0586 -0.2803  0.1932
  421SOL    HW1 1262   1.671   2.682   0.568 -1.9300 -0.3898  0.1793
  421SOL    HW2 1263   1.663   2.819   0.653 -2.3716  2.6691  1.5280
  422SOL     OW 1264   0.026   0.233   1.663 -0.7348 -0.2564 -0.0354
  422SOL    HW1 1265   0.011   0.287   1.743 -0.1550  1.8803 -3.7596
  422SOL    HW2 1266  -0.034   0.262   1.581 -0.2718  0.1448 -0.6557
  423SOL     OW 1267   0.700   1.379   1.879 -0.0107  0.0145 -0.2709
  423SOL    HW1 1268   0.771   1.378   1.805  0.7564  0.6872 -0.7308
  423SOL    HW2 1269   0.699   1.468   1.928  0.8441 -1.7219  1.6290
  424SOL     OW 1270   1.756   2.542   0.826 -0.1480  0.2605 -0.2716
  424SOL    HW1 1271   1.747   2.559   0.927  0.4779  1.4379  1.7293
  424SOL    HW2 1272   1.826   2.604   0.787  1.2243  1.2906 -0.2610
  425SOL     OW 1273   2.555   2.840   2.112  0.2978 -0.2414 -0.1043
  425SOL    HW1 1274   2.538   2.941   2.106 -2.2190 -0.2964  0.2876
  425SOL    HW2 1275   2.638   2.822   2.056  0.2870  2.3384  3.0457
  426SOL     OW 1276   0.348   0.088   2.922 -0.5413 -0.0650 -0.3663
  426SOL    HW1 1277   0.382   0.014   2.857  1.7892  3.3267  0.3553
  426SOL    HW2 1278   0.361   0.184   2.890 -0.8771 -0.2800  1.0156
  427SOL     OW 1279   0.960   2.504   0.707  0.4972  0.1011 -0.3051
  427SOL    HW1 1280   0.871   2.542   0.686 -0.4620  2.7729 -0.0655
  427SOL    HW2 1281   1.020   2.568   0.756 -3.1554  1.4816 -2.7749
  428SOL     OW 1282   2.888   0.678   1.313 -0.1752 -0.4745  0.0831
  428SOL    HW1 1283   2.948   0.726   1.381 -0.8613  0.4699 -2.6796
  428SOL    HW2 1284   2.936   0.644   1.234 -1.0562  2.4773 -1.0801
  429SOL     OW 1285   2.329   0.008   0.746 -0.2212 -0.2055  0.0730
  429SOL    HW1 1286   2.334   0.067   0.665  0.4674  1.2266  1.0866
  429SOL    HW2 1287   2.276  -0.078   0.724 -0.6812  0.6012  1.0783
  430SOL     OW 1288   1.325   1.178   2.564  0.7378 -0.0037  0.0299
  430SOL    HW1 1289   1.287   1.088   2.526  1.4656  2.1469  0.1231
  430SOL    HW2 1290   1.274   1.201   2.650  1.4867 -1.1445 -1.0344
  431SOL     OW 1291   3.017   2.351   1.009 -0.0690  0.8582 -0.3430
  431SOL    HW1 1292   2.947   2.353   1.085 -2.2714  1.1118  2.2831
  431SOL    HW2 1293   3.017   2.255   0.968  2.3209 -2.3603  0.7506
  432SOL     OW 1294   1.301   1.968   2.622 -0.0276 -0.0917  0.0563
  432SOL    HW1 1295   1.330   2.066   2.614 -1.5349  0.4824  2.8414
  432SOL    HW2 1296   1.353   1.916   2.689 -0.2826  0.5768  2.3974
  433SOL     OW 1297   1.495   2.943   2.367  0.5131  0.1570  0.2687
  433SOL    HW1 1298   1.397   2.932   2.402  1.2568  0.7655 -2.1364
  433SOL    HW2 1299   1.555   2.991   2.435  1.6656 -0.4260 -1.3071
  434SOL     OW 1300   1.069   2.820   2.103  0.4668  0.5149 -0.1211
  434SOL    HW1 1301   1.027   2.811   2.009 -1.0126 -2.8518 -1.4531
  434SOL    HW2 1302   1.155   2.876   2.108  0.0205 -0.1851  1.2130
  435SOL     OW 1303   0.540   0.269   0.196 -0.4833  0.1067  0.9259
  435SOL    HW1 1304   0.491   0.196   0.144 -0.8194  0.2323  0.1311
  435SOL    HW2 1305   0.633   0.233   0.224  1.2343  0.8494  0.3662
  436SOL     OW 1306   0.582   1.484   2.361 -0.5818 -0.1476  0.5024
  436SOL    HW1 1307   0.540   1.568   2.315  2.8810  1.7972 -3.6093
  436SOL    HW2 1308   0.625   1.426   2.288  0.4594 -0.9278  0.5126
  437SOL     OW 1309   1.574   2.166   2.907 -0.1349  0.3474  0.5057
  437SOL    HW1 1310   1.486   2.212   2.918 -0.3435 -0.0174  0.8220
  437SOL    HW2 1311   1.599   2.115   2.998  1.5795 -1.1382 -1.3660
  438SOL     OW 1312   0.665   0.423   0.400 -0.2289 -0.2776  0.1975
  438SOL    HW1 1313   0.737   0.367   0.450 -1.8123  2.7370 -1.5760
  438SOL    HW2 1314   0.618   0.361   0.333  2.7740 -3.6599 -0.5626
  439SOL     OW 1315   2.867   0.869   2.293 -0.0774 -0.0332  0.0077
  439SOL    HW1 1316   2.794   0.883   2.227  1.6739  2.8750 -0.6244
  439SOL    HW2 1317   2.950   0.913   2.250  0.0222 -0.6308 -1.1903
  440SOL     OW 1318   2.755   0.719   2.489  1.1020  0.3967 -0.5504
  440SOL    HW1 1319   2.802   0.758   2.410  1.2558  0.1046  0.8729
  440SOL    HW2 1320   2.804   0.750   2.573  1.4734 -1.0579  4.1993
  441SOL     OW 1321   0.167   1.449   1.569  0.0749  0.4690  0.2074
  441SOL    HW1 1322   0.150   1.349   1.558 -1.2150 -4.0133 -0.7706
  441SOL    HW2 1323   0.205   1.470   1.659  2.4150  0.1779 -2.3885
  442SOL     OW 1324   1.965   1.644   1.023  0.4526 -0.3999 -0.3531
  442SOL    HW1 1325   1.890   1.598   0.969 -0.2504 -1.4601  0.7222
  442SOL    HW2 1326   2.026   1.574   1.066 -1.4341 -1.4873 -0.6549
  443SOL     OW 1327   1.570   1.732   3.042 -0.1435  0.4788 -0.3075
  443SOL    HW1 1328   1.620   1.732   3.133  1.7133  1.1738  1.1025
  443SOL    HW2 1329   1.527   1.642   3.027 -1.2738 -3.6455 -0.8606
  444SOL     OW 1330   1.935   1.539   2.834 -0.5311  0.1589 -0.3802
  444SOL    HW1 1331   1.900   1.634   2.845 -2.2031 -2.4294  0.9978
  444SOL    HW2 1332   2.027   1.535   2.871 -1.1796 -0.0525 -0.3284
  445SOL     OW 1333   0.450   2.086   2.116  0.7283  0.1913  0.0419
  445SOL    HW1 1334   0.485   2.009   2.058 -1.7298  0.3035  0.1024
  445SOL    HW2 1335   0.460   2.171   2.063  0.2620 -0.6666 -1.0999
  446SOL     OW 1336   0.967   1.104   1.643 -0.0483 -0.3683  0.0282
  446SOL    HW1 1337   0.906   1.022   1.669  1.9374 -2.0343  1.2606
  446SOL    HW2 1338   1.059   1.075   1.612  0.0950  2.9661 -2.0603
  447SOL     OW 1339   0.881   0.647   0.214 -0.5561 -0.0439  0.0298
  447SOL    HW1 1340   0.789   0.693   0.191  1.0141 -2.0221  1.8362
  447SOL    HW2 1341   0.890   0.637   0.315 -0.8197 -2.6160 -1.7008
  448SOL     OW 1342   1.246   0.769   1.829  0.3858  0.0113 -0.1286
  448SOL    HW1 1343   1.189   0.828   1.890 -0.2740  0.9367  0.6053
  448SOL    HW2 1344   1.258   0.677   1.861  1.0001 -1.3359 -0.6814
  449SOL     OW 1345   0.294   1.451   1.856  0.0573 -0.9181  0.1631
  449SOL    HW1 1346   0.367   1.380   1.827 -0.1422  1.2552 -0.2275
  449SOL    HW2 1347   0.252   1.428   1.947  3.2966  2.8546  0.9159
  450SOL     OW 1348   1.960   0.744   2.120  0.0355  0.0666 -0.5773
  450SOL    HW1 1349   1.875   0.802   2.141 -3.1480  1.9042  3.6656
  450SOL    HW2 1350   1.935   0.658   2.073 -0.6260 -1.5134  1.3465
  451SOL     OW 1351   2.436   1.653   1.700  0.1324  0.0305 -0.2080
  451SOL    HW1 1352   2.449   1.571   1.753  0.2259 -0.6708  1.3969
  451SOL    HW2 1353   2.533   1.690   1.677  1.7969 -1.2223  0.3437
  452SOL     OW 1354   0.617   1.488   1.174  0.0349  0.5871  0.2623
  452SOL    HW1 1355   0.565   1.429   1.234 -0.1630  0.7620 -0.2035
  452SOL    HW2 1356   0.581   1.582   1.191 -1.7469  4.8722 -2.6806
  453SOL     OW 1357   0.442   2.113   0.698  0.3492 -0.3160  0.3234
  453SOL    HW1 1358   0.369   2.107   0.623 -1.0132  0.8240  0.3686
  453SOL    HW2 1359   0.501   2.030   0.691 -0.8509 -1.1373 -3.1763
  454SOL     OW 1360   0.918   1.259   0.177 -0.0389  0.0914 -0.3666
  454SOL    HW1 1361   0.884   1.173   0.133  0.4764 -1.6070  2.3579
  454SOL    HW2 1362   0.941   1.245   0.277  0.9276 -1.3215  1.1796
  455SOL     OW 1363   1.758   0.445   0.562 -0.0109  0.3003  0.1952
  455SOL    HW1 1364   1.787   0.444   0.462 -2.9776  0.7127 -0.3648
  455SOL    HW2 1365   1.761   0.352   0.601  0.4298  0.2197 -1.8906
  456SOL     OW 1366   1.663   3.058   0.257  0.5445  0.0881  0.0524
  456SOL    HW1 1367   1.727   2.993   0.215  0.7682  2.8546  2.5907
  456SOL    HW2 1368   1.577   3.054   0.198  2.1452  0.1193 -1.4414
  457SOL     OW 1369   2.219   0.621   2.559 -0.1728  0.7645  0.0577
  457SOL    HW1 1370   2.290   0.563   2.510 -0.6709 -0.1808 -1.6077
  457SOL    HW2 1371   2.259   0.688   2.620 -0.3612  0.7677 -1.6363
  458SOL     OW 1372   2.359   0.344   2.322  0.1032  0.1096 -1.0059
  458SOL    HW1 1373   2.282   0.347   2.258  0.7016 -1.4959 -2.9586
  458SOL    HW2 1374   2.405   0.436   2.318  2.7476  1.3754  2.3120
  459SOL     OW 1375   2.539   1.540   2.791  0.0528 -0.3432  0.0396
  459SOL    HW1 1376   2.553   1.574   2.694 -1.6254  0.5742 -0.8417
  459SOL    HW2 1377   2.442   1.508   2.803 -0.1468 -0.0434  1.4880
  460SOL     OW 1378   0.852   1.159   2.237 -0.4953  0.1271 -0.4674
  460SOL    HW1 1379   0.921   1.207   2.296  0.0085 -0.8828  0.1470
  460SOL    HW2 1380   0.878   1.156   2.139  0.2438  0.3555 -1.9623
  461SOL     OW 1381   2.958   2.380   0.126 -0.5226  0.1836 -0.6803
  461SOL    HW1 1382   2.965   2.283   0.107  0.8449 -2.6674 -0.7860
  461SOL    HW2 1383   2.960   2.392   0.225 -1.0562  3.1154  1.7026
  462SOL     OW 1384   0.947   2.284   2.797 -0.5223  0.1026 -1.0326
  462SOL    HW1 1385   0.862   2.236   2.793 -2.0915  1.5870  2.1076
  462SOL    HW2 1386   1.005   2.246   2.873  0.5187 -0.7942  1.8051
  463SOL     OW 1387   1.749   2.244   2.118 -0.0425  0.5644 -0.1457
  463SOL    HW1 1388   1.766   2.229   2.021 -3.2216  3.1103 -1.2722
  463SOL    HW2 1389   1.646   2.248   2.131 -2.0587  3.2070  2.4821
  464SOL     OW 1390   2.704   2.319   0.987  0.1822 -0.0271 -0.2611
  464SOL    HW1 1391   2.670   2.224   0.980  2.7530  2.2624 -0.0431
  464SOL    HW2 1392   2.729   2.342   1.083 -0.5006 -0.9147  0.6154
  465SOL     OW 1393   0.399   2.788   1.600  0.4580  0.5710 -0.2733
  465SOL    HW1 1394   0.429   2.693   1.579 -0.3088 -1.4384 -0.2698
  465SOL    HW2 1395   0.420   2.811   1.695  1.0362 -1.4817  1.8550
  466SOL     OW 1396   1.039   1.804   2.928 -0.0679 -0.0330 -0.0880
  466SOL    HW1 1397   1.058   1.865   2.847  2.1410  0.7469 -0.9866
  466SOL    HW2 1398   1.097   1.836   3.005  0.9319  0.5524  0.1260
  467SOL     OW 1399   2.959   2.064   0.295 -0.0292 -0.2145 -0.0317
  467SOL    HW1 1400   2.918   2.053   0.203  3.3051 -0.7549  0.7951
  467SOL    HW2 1401   2.886   2.084   0.362 -3.9970 -1.3267  1.6033
  468SOL     OW 1402   1.793   2.313   2.977  0.2375 -0.5043  0.4688
  468SOL    HW1 1403   1.874   2.259   2.997  2.6785  1.1094  0.9855
  468SOL    HW2 1404   1.712   2.258   2.944 -0.5174 -1.2116 -0.8442
  469SOL     OW 1405   0.849   2.074   0.938  0.6476  0.1552 -0.2074
  469SOL    HW1 1406   0.747   2.075   0.937  2.1943  1.2745 -0.4855
  469SOL    HW2 1407   0.893   1.989   0.898  3.1227 -1.1517 -0.3618
  470SOL     OW 1408   1.973   0.276   1.136 -0.3453  0.2649  0.6543
  470SOL    HW1 1409   2.062   0.259   1.183  0.5901  0.9898  0.7458
  470SOL    HW2 1410   1.982   0.295   1.037 -0.0861  3.1508 -0.5970
  471SOL     OW 1411   0.227   1.777   0.615 -0.0112  0.2516  0.0675
  471SOL    HW1 1412   0.286   1.810   0.689 -1.1919  0.4812  4.9012
  471SOL    HW2 1413   0.215   1.676   0.624 -0.4632  1.4850  0.3327
  472SOL     OW 1414   1.950   2.257   0.346 -0.5107 -0.2224 -0.2994
  472SOL    HW1 1415   1.990   2.257   0.434 -0.3366  0.5624 -0.9090
  472SOL    HW2 1416   1.879   2.185   0.337  0.4122 -0.3816 -0.2425
  473SOL     OW 1417   1.622   1.770   1.120 -0.3645  0.4480  0.2069
  473SOL    HW1 1418   1.568   1.840   1.174  0.8446 -3.3700 -0.8690
  473SOL    HW2 1419   1.590   1.772   1.022 -0.2430 -2.0624  0.2910
  474SOL     OW 1420   0.056   0.903   0.800 -0.0236  0.0079  0.2726
  474SOL    HW1 1421  -0.033   0.947   0.829 -1.0272  1.5096  1.1988
  474SOL    HW2 1422   0.088   0.941   0.711 -1.0143  3.9109  1.4883
  475SOL     OW 1423   3.047   2.691   1.781  0.0325  0.1697 -0.0901
  475SOL    HW1 1424   3.095   2.662   1.862  2.8760 -1.7079  0.5146
  475SOL    HW2 1425   3.114   2.730   1.711  0.1344  0.6795  0.0558
  476SOL     OW 1426   0.852   0.430   0.842 -0.3989  0.0449 -0.6106
  476SOL    HW1 1427   0.894   0.524   0.851  1.5646 -1.5127  0.8075
  476SOL    HW2 1428   0.761   0.429   0.887 -2.5963  2.2132 -3.0953
  477SOL     OW 1429   1.302   2.443   1.446  0.3727 -0.2321  0.5799
  477SOL    HW1 1430   1.375   2.373   1.446 -1.9165 -4.2313  2.3639
  477SOL    HW2 1431   1.294   2.489   1.355 -0.3845  1.4529  1.6961
  478SOL     OW 1432   1.121   2.191   2.987  0.2320 -0.1560  0.0278
  478SOL    HW1 1433   1.075   2.207   3.075  0.5868 -1.0435 -1.4605
  478SOL    HW2 1434   1.188   2.111   2.993  1.6441 -0.3079 -0.2924
  479SOL     OW 1435   2.677   0.887   2.074  0.0615 -0.2977  0.3214
  479SOL    HW1 1436   2.648   0.978   2.048  0.8618  0.8077 -0.1323
  479SOL    HW2 1437   2.750   0.856   2.012  1.4172  1.2309 -0.8707
  480SOL     OW 1438   2.705   2.324   2.809 -0.2207  0.2851  0.0938
  480SOL    HW1 1439   2.697   2.225   2.781  0.5932  1.0383 -1.6849
  480SOL    HW2 1440   2.610   2.371   2.809 -2.3258  0.9546  1.1895
  481SOL     OW 1441   1.751   0.139   1.175 -0.3201  0.2506  0.1727
  481SOL    HW1 1442   1.744   0.071   1.248  0.7061 -2.0073 -0.8420
  481SOL    HW2 1443   1.842   0.174   1.161 -0.9038  0.2139  1.3448
  482SOL     OW 1444   1.484   2.523   2.129 -0.0618 -0.3142  0.8981
  482SOL    HW1 1445   1.447   2.568   2.212 -0.3972  0.4333  0.7268
  482SOL    HW2 1446   1.466   2.424   2.121 -1.1613  0.5257 -0.2625
  483SOL     OW 1447   0.443   2.554   2.728 -0.1960 -0.2550  0.3462
  483SOL    HW1 1448   0.526   2.569   2.679 -0.9797  1.0891  2.9443
  483SOL    HW2 1449   0.410   2.457   2.734  1.2214  1.9969 -0.4262
  484SOL     OW 1450   2.542   0.094   1.625 -0.3215 -0.1722 -0.3743
  484SOL    HW1 1451   2.451   0.100   1.669 -0.9354 -0.3737  3.2031
  484SOL    HW2 1452   2.529   0.100   1.522 -1.8901 -0.5691 -2.1388
  485SOL     OW 1453   1.924   1.008   0.743  0.1117 -0.2938 -0.0289
  485SOL    HW1 1454   1.887   1.046   0.662 -0.9420  3.1224  0.6364
  485SOL    HW2 1455   1.862   0.942   0.784  1.0165 -0.4054 -0.3732
  486SOL     OW 1456   2.162   2.599   2.602 -1.1584 -0.4775  0.5372
  486SOL    HW1 1457   2.109   2.650   2.535 -2.9957 -2.5131 -0.2846
  486SOL    HW2 1458   2.102   2.532   2.655 -2.7112 -2.2933  0.4542
  487SOL     OW 1459   1.050   0.788   0.596 -0.2540  0.6047  0.5308
  487SOL    HW1 1460   0.984   0.840   0.652 -1.7883 -0.5566  2.5429
  487SOL    HW2 1461   1.016   0.699   0.560 -1.5739  2.0607 -1.2902
  488SOL     OW 1462   2.643   0.036   2.459 -0.2276 -0.0989 -0.5938
  488SOL    HW1 1463   2.741   0.067   2.470 -0.4887  4.4740  2.5051
  488SOL    HW2 1464   2.595   0.012   2.547  2.1579  1.7347 -0.2912
  489SOL     OW 1465   0.716   2.721   0.589  0.1096 -0.0663  0.1747
  489SOL    HW1 1466   0.787   2.782   0.628 -2.2357  1.1726 -2.6276
  489SOL    HW2 1467   0.642   2.779   0.545  1.4019  2.2603 -2.5098
  490SOL     OW 1468   1.404   0.915   2.828  0.6088  0.0728 -0.2347
  490SOL    HW1 1469   1.478   0.977   2.789 -2.3709 -1.0292 -3.1525
  490SOL    HW2 1470   1.423   0.896   2.928 -0.0092 -0.8587 -0.5593
  491SOL     OW 1471   0.904   0.159   1.104  0.3140 -0.2949  0.2704
  491SOL    HW1 1472   0.950   0.193   1.022  1.6794  0.4035 -1.1580
  491SOL    HW2 1473   0.975   0.114   1.163 -0.5735 -0.9147 -1.3139
  492SOL     OW 1474   0.890   2.659   0.318  0.3381  0.3380  0.4230
  492SOL    HW1 1475   0.845   2.591   0.256  1.5399  1.4696 -0.5829
  492SOL    HW2 1476   0.829   2.672   0.399 -1.7925 -1.0861  2.3227
  493SOL     OW 1477   0.801   1.577   2.537 -0.5573  0.3268 -0.0476
  493SOL    HW1 1478   0.856   1.648   2.483  2.7082 -0.4017 -2.8868
  493SOL    HW2 1479   0.751   1.516   2.469  0.1713  1.9770  0.2720
  494SOL     OW 1480   1.134   0.603   1.356  0.1989  0.6664  0.0724
  494SOL    HW1 1481   1.184   0.652   1.427  0.8952  0.1024  4.4863
  494SOL    HW2 1482   1.199   0.550   1.296 -1.0714 -0.3370  0.3610
  495SOL     OW 1483   2.751   2.792   1.959 -1.0081  0.3441 -0.3046
  495SOL    HW1 1484   2.789   2.873   1.908 -0.6252 -2.2303  2.3056
  495SOL    HW2 1485   2.827   2.742   2.005 -3.0928 -0.2725 -0.6851
  496SOL     OW 1486   2.386   1.757   2.294  0.4374 -0.1959  0.3160
  496SOL    HW1 1487   2.314   1.794   2.349 -1.2274  0.8782  1.6970
  496SOL    HW2 1488   2.362   1.759   2.198 -1.0001  0.3155  1.3158
  497SOL     OW 1489   1.101   0.939   2.002  0.2949  0.1355 -0.1720
  497SOL    HW1 1490   1.170   0.929   2.079  2.5479  1.5088 -1.7525
  497SOL    HW2 1491   1.064   1.033   1.987 -0.7762  0.5716  3.6805
  498SOL     OW 1492   0.457   0.139   0.981  0.0324  0.2951 -0.1930
  498SOL    HW1 1493   0.462   0.166   0.884  1.0886  0.2200 -0.4158
  498SOL    HW2 1494   0.359   0.109   1.004 -1.6608 -0.4054 -2.8364
  499SOL     OW 1495   0.364   1.963   1.248 -0.0717 -0.1786 -0.5560
  499SOL    HW1 1496   0.408   2.054   1.249 -0.5202 -0.8593  0.0051
  499SOL    HW2 1497   0.306   1.948   1.329 -0.6129  1.5830  0.0104
  500SOL     OW 1498   0.246   2.732   2.706  0.0030 -0.4355  0.1883
  500SOL    HW1 1499   0.325   2.666   2.685 -1.3366 -0.7374  0.6681
  500SOL    HW2 1500   0.187   2.698   2.778 -1.4680  0.0008 -0.4865
  501SOL     OW 1501   1.812   0.467   0.297 -0.4272  0.5494  0.1014
  501SOL    HW1 1502   1.721   0.489   0.262  1.4108 -0.2635 -1.1789
  501SOL    HW2 1503   1.859   0.410   0.228  1.3011  2.6804  1.3521
  502SOL     OW 1504   2.954   3.089   0.673  0.5219 -0.3655  0.0863
  502SOL    HW1 1505   2.958   3.177   0.621  0.3996  0.5297  1.6687
  502SOL    HW2 1506   2.889   3.028   0.627  0.4400  0.0284 -1.9298
  503SOL     OW 1507   1.905   3.053   2.414 -0.2845  0.2685  0.2709
  503SOL    HW1 1508   1.943   2.986   2.483  2.9959  2.0738 -1.2470
  503SOL    HW2 1509   1.817   3.089   2.454  3.3008 -0.5311 -1.9344
  504SOL     OW 1510   2.276   1.111   1.975  0.9888 -0.4534 -0.4428
  504SOL    HW1 1511   2.225   1.041   2.026  0.2419 -0.3373  0.4304
  504SOL    HW2 1512   2.277   1.087   1.875  0.9017 -1.7618  0.6566
  505SOL     OW 1513   1.455   2.757   2.781  0.5451  0.2837  0.0845
  505SOL    HW1 1514   1.510   2.713   2.857  3.6034  0.0911 -0.3206
  505SOL    HW2 1515   1.476   2.717   2.686  0.8748  1.6326 -0.4572
  506SOL     OW 1516   0.301   0.429   2.202 -0.1122  0.3152 -0.6975
  506SOL    HW1 1517   0.204   0.418   2.242  0.4050 -1.2389 -0.7850
  506SOL    HW2 1518   0.369   0.448   2.275 -3.1517  2.5693  0.2874
  507SOL     OW 1519   1.836   0.870   0.415  0.2121 -0.3799 -0.2870
  507SOL    HW1 1520   1.840   0.969   0.448 -1.4647 -0.7814 -2.3307
  507SOL    HW2 1521   1.895   0.812   0.475  0.0614  1.7562  0.5197
  508SOL     OW 1522   2.341   0.636   1.474  0.2152 -0.1205 -0.8988
  508SOL    HW1 1523   2.261   0.582   1.501  1.4781 -0.0287  1.9826
  508SOL    HW2 1524   2.415   0.636   1.540 -1.4231  0.7688  0.8986
  509SOL     OW 1525   0.289   1.893   2.807 -0.1424  0.6139 -0.0998
  509SOL    HW1 1526   0.338   1.900   2.895  1.7932  0.0217  1.2619
  509SOL    HW2 1527   0.359   1.882   2.730  2.7830 -2.4925  1.8814
  510SOL     OW 1528   0.700   0.971   1.128 -0.5017 -1.0482 -0.2652
  510SOL    HW1 1529   0.762   1.040   1.083  0.2516  0.7108 -3.4373
  510SOL    HW2 1530   0.617   1.017   1.163 -0.8785  0.1972  1.4536
  511SOL     OW 1531   1.429   1.039   1.000  0.2935 -0.8724  0.0385
  511SOL    HW1 1532   1.506   1.063   1.061  2.1506  2.7810  1.4793
  511SOL    HW2 1533   1.361   0.989   1.061 -1.2048  1.0769 -3.3119
  512SOL     OW 1534   0.228   2.403   0.221  0.0776 -0.3401 -0.6022
  512SOL    HW1 1535   0.197   2.304   0.223  0.5081 -0.6680 -1.3166
  512SOL    HW2 1536   0.329   2.419   0.226 -1.5112  0.9778  1.3584
  513SOL     OW 1537   3.041   2.594   0.544 -0.5853 -0.2745 -0.2024
  513SOL    HW1 1538   3.058   2.690   0.513 -1.2993 -2.2891 -1.5555
  513SOL    HW2 1539   3.010   2.600   0.635 -1.0632 -2.8381  2.0806
  514SOL     OW 1540   0.358   1.792   0.379  0.4808  0.6562 -0.0217
  514SOL    HW1 1541   0.319   1.778   0.469  0.8224  0.1979 -0.4727
  514SOL    HW2 1542   0.284   1.805   0.309 -0.4366  2.0692  0.1212
  515SOL     OW 1543   0.276   0.394   2.824  0.1651  0.5210  0.1339
  515SOL    HW1 1544   0.293   0.435   2.917  1.9981  0.0844 -0.8575
  515SOL    HW2 1545   0.185   0.422   2.792 -1.8348 -1.4604 -2.1646
  516SOL     OW 1546   2.353   2.739   1.927 -0.1443  0.2692 -0.2132
  516SOL    HW1 1547   2.437   2.765   1.975 -0.0323 -2.2733  1.9139
  516SOL    HW2 1548   2.377   2.694   1.841 -3.0300  3.4215  0.3800
  517SOL     OW 1549   1.870   1.883   1.065  0.6730  0.0604 -0.3175
  517SOL    HW1 1550   1.780   1.853   1.114  0.6115 -0.0780 -0.0304
  517SOL    HW2 1551   1.921   1.800   1.039  1.5565 -1.3113  0.6284
  518SOL     OW 1552   1.598   2.882   0.796  0.6107 -0.5008  0.1411
  518SOL    HW1 1553   1.530   2.815   0.833  0.2208 -0.5541  2.1561
  518SOL    HW2 1554   1.556   2.968   0.757 -0.6480 -1.9901  1.8696
  519SOL     OW 1555   0.194   2.957   0.167 -0.0019 -0.3822  0.0863
  519SOL    HW1 1556   0.098   2.932   0.148 -2.8954 -0.5408  0.5433
  519SOL    HW2 1557   0.199   2.982   0.266  1.9625 -0.7463 -0.2729
  520SOL     OW 1558   1.948   1.285   2.599 -0.1317 -0.2671  0.5157
  520SOL    HW1 1559   1.933   1.238   2.513  1.3227 -0.8889  0.1723
  520SOL    HW2 1560   1.998   1.373   2.583  0.6738  0.8578 -0.7103
  521SOL     OW 1561   1.804   2.875   1.898 -0.0333  0.5625 -0.4318
  521SOL    HW1 1562   1.869   2.848   1.970  3.3891  1.9654  0.3649
  521SOL    HW2 1563   1.743   2.953   1.927 -0.4354 -0.6988  1.7733
  522SOL     OW 1564   0.220   2.396   1.641 -0.6444  0.1032  0.4189
  522SOL    HW1 1565   0.298   2.445   1.593  1.1068  0.9025  1.4640
  522SOL    HW2 1566   0.142   2.395   1.573 -0.8433 -1.2913 -0.1032
  523SOL     OW 1567   0.462   2.325   1.972  0.2422 -0.2112  0.4423
  523SOL    HW1 1568   0.378   2.364   2.019 -1.8966 -1.8025  1.2303
  523SOL    HW2 1569   0.547   2.384   1.985  2.4320 -0.1338  1.0683
  524SOL     OW 1570   2.330   2.189   3.014  0.3231 -0.1115  0.0424
  524SOL    HW1 1571   2.339   2.091   2.987 -1.3126  0.8292  2.0725
  524SOL    HW2 1572   2.260   2.205   3.084 -0.5818 -0.9906 -2.3430
  525SOL     OW 1573   2.660   0.565   2.814 -0.1515  0.4156 -0.2993
  525SOL    HW1 1574   2.627   0.626   2.887 -2.8204  1.8982 -0.1275
  525SOL    HW2 1575   2.757   0.541   2.826 -0.5011  3.4215 -2.2650
  526SOL     OW 1576   2.892   2.878   0.489 -0.1710 -0.7863 -0.3037
  526SOL    HW1 1577   2.991   2.864   0.506  0.0858 -2.1972  0.2808
  526SOL    HW2 1578   2.839   2.804   0.537  2.2196 -0.8032  0.7880
  527SOL     OW 1579   2.961   1.106   0.980 -0.4265 -0.0350 -0.5479
  527SOL    HW1 1580   2.918   1.096   1.070  0.3075  2.0209 -2.5961
  527SOL    HW2 1581   3.031   1.179   0.966 -3.5329 -1.2846 -1.0139
  528SOL     OW 1582   1.115   1.360   1.889  0.0229 -0.7732  0.0527
  528SOL    HW1 1583   1.106   1.430   1.814 -1.7019  2.3457  1.3131
  528SOL    HW2 1584   1.206   1.308   1.882 -1.7191  0.0603 -2.0620
  529SOL     OW 1585   1.350   1.674   0.465  0.5532 -0.6286 -0.1403
  529SOL    HW1 1586   1.266   1.734   0.477 -0.3967 -0.3366  0.1041
  529SOL    HW2 1587   1.326   1.579   0.424 -0.2547 -1.7302 -0.0198
  530SOL     OW 1588   2.109   0.487   1.522 -0.3125  0.3560 -0.1983
  530SOL    HW1 1589   2.059   0.493   1.613  1.2156 -1.6518  0.8270
  530SOL    HW2 1590   2.046   0.442   1.448  1.1958 -0.9459 -1.8749
  531SOL     OW 1591   0.630   1.805   0.326  0.4104 -0.1189 -0.4947
  531SOL    HW1 1592   0.642   1.742   0.249  0.1877 -1.9526 -2.5502
  531SOL    HW2 1593   0.531   1.822   0.351  0.7612 -2.6807  0.3949
  532SOL     OW 1594   2.505   0.464   1.996 -0.2761  0.0688  0.4042
  532SOL    HW1 1595   2.467   0.555   1.967 -1.2324 -1.4869 -2.3257
  532SOL    HW2 1596   2.563   0.482   2.082  0.0515  2.3443  1.3077
  533SOL     OW 1597   0.740   2.998   2.070 -0.1595  0.1568 -0.4714
  533SOL    HW1 1598   0.714   2.941   1.994 -1.9129  2.3824 -1.3197
  533SOL    HW2 1599   0.655   3.050   2.096  2.5568 -3.1725 -0.8420
  534SOL     OW 1600   2.830   0.277   2.879  0.5165  0.5844 -0.4429
  534SOL    HW1 1601   2.800   0.311   2.966  0.7043  0.2304 -1.5058
  534SOL    HW2 1602   2.897   0.204   2.901 -0.9435  2.9604 -0.0522
  535SOL     OW 1603   0.568   0.672   2.767  0.5370 -0.3165 -0.0698
  535SOL    HW1 1604   0.529   0.619   2.841 -0.4116  1.4288 -2.3214
  535SOL    HW2 1605   0.614   0.609   2.701 -1.9119  1.3772  1.3650
  536SOL     OW 1606   1.007   2.224   0.778  0.4642 -0.0442  0.5543
  536SOL    HW1 1607   0.975   2.305   0.723  0.2431  5.1995  1.7742
  536SOL    HW2 1608   0.934   2.193   0.843  0.9350  1.4566 -0.3764
  537SOL     OW 1609   2.828   2.373   1.231  0.4985 -0.1736  0.1949
  537SOL    HW1 1610   2.810   2.297   1.298 -0.5774  1.5226  1.7187
  537SOL    HW2 1611   2.848   2.456   1.284  2.5984  0.8793 -1.1089
  538SOL     OW 1612   0.515   2.854   0.496 -0.5257 -0.1531  0.8595
  538SOL    HW1 1613   0.504   2.874   0.395  0.0621 -0.5987 -1.0565
  538SOL    HW2 1614   0.432   2.813   0.539  1.4993  1.6338  1.9390
  539SOL     OW 1615   1.691   1.409   2.654  0.3463  0.4106  0.4470
  539SOL    HW1 1616   1.660   1.341   2.585  0.0486  0.9335 -0.6699
  539SOL    HW2 1617   1.760   1.372   2.717  1.7380  2.4428  1.0942
  540SOL     OW 1618   2.333   0.831   0.414  0.6778 -0.1933 -0.4028
  540SOL    HW1 1619   2.345   0.804   0.314  2.7229 -0.7031 -2.1522
  540SOL    HW2 1620   2.375   0.922   0.430  0.0541 -0.4725 -1.0526
  541SOL     OW 1621   0.889   0.781   1.962  0.2089  0.5635 -0.5219
  541SOL    HW1 1622   0.908   0.709   1.890  1.2709 -1.1836 -0.8920
  541SOL    HW2 1623   0.962   0.854   1.973 -1.3206 -0.9347  0.4304
  542SOL     OW 1624   0.949   2.541   2.088  0.9804  0.2428  0.3123
  542SOL    HW1 1625   1.005   2.624   2.101  0.9251 -1.4116  0.0668
  542SOL    HW2 1626   0.946   2.492   2.175 -0.8191  1.1186 -1.2268
  543SOL     OW 1627   0.622   2.745   0.049 -0.3473  0.0721  0.0347
  543SOL    HW1 1628   0.559   2.695  -0.018 -1.2563 -0.5561  0.0880
  543SOL    HW2 1629   0.709   2.769   0.007  1.8282 -2.0432 -0.5991
  544SOL     OW 1630   0.127   1.857   1.675  0.3202  0.3526  0.0537
  544SOL    HW1 1631   0.163   1.875   1.768  1.1977  0.9624 -0.7593
  544SOL    HW2 1632   0.051   1.926   1.660  0.0210 -1.2373  1.3745
  545SOL     OW 1633   1.339   2.100   1.670 -0.1494  0.2326 -0.0981
  545SOL    HW1 1634   1.257   2.124   1.721 -2.1594  0.1380 -0.2357
  545SOL    HW2 1635   1.357   2.151   1.585  0.8260 -0.9947 -2.9012
  546SOL     OW 1636   0.024   3.086   2.645 -0.1227 -0.0244  0.4284
  546SOL    HW1 1637   0.100   3.117   2.582  1.6760  0.0142  0.4534
  546SOL    HW2 1638   0.051   3.058   2.736 -1.1225  1.9052  2.9919
  547SOL     OW 1639   1.880   2.968   0.849  0.3784 -0.2524  0.1737
  547SOL    HW1 1640   1.911   3.012   0.939  0.1802 -1.2317 -0.0520
  547SOL    HW2 1641   1.780   2.962   0.847 -2.6079 -0.3410 -0.5578
  548SOL     OW 1642   1.305   1.999   2.973 -1.2584  0.3627 -0.5682
  548SOL    HW1 1643   1.317   1.967   3.067  1.2627  0.2501  0.3541
  548SOL    HW2 1644   1.361   1.937   2.912  0.6282 -1.5753 -0.4294
  549SOL     OW 1645   2.078   0.276   0.398  0.3339  0.7266  0.1134
  549SOL    HW1 1646   2.048   0.374   0.407  2.9002 -0.5207 -2.2596
  549SOL    HW2 1647   1.998   0.212   0.388  1.7159 -1.8912 -2.3474
  550SOL     OW 1648   2.405   1.608   1.041  0.2058 -0.5619  0.2466
  550SOL    HW1 1649   2.360   1.545   1.111 -0.0522 -1.1069  0.4016
  550SOL    HW2 1650   2.499   1.638   1.074 -0.8975  1.4445  0.3721
  551SOL     OW 1651   0.831   0.621   0.490  0.0336 -0.5771 -0.1141
  551SOL    HW1 1652   0.775   0.550   0.457  0.4393 -0.5523 -1.1599
  551SOL    HW2 1653   0.777   0.700   0.524  0.1330  2.3680 -0.4287
  552SOL     OW 1654   2.966   1.471   2.374  0.2907 -0.5522  0.3916
  552SOL    HW1 1655   2.926   1.472   2.469  0.5119  0.8179  0.2674
  552SOL    HW2 1656   2.903   1.463   2.298 -1.6997  2.0281  1.2642
  553SOL     OW 1657   2.534   2.383   0.350 -0.1696 -0.2832 -0.2319
  553SOL    HW1 1658   2.473   2.393   0.267  0.9844  0.8558  2.0284
  553SOL    HW2 1659   2.611   2.449   0.349 -1.2410  0.3879  3.0130
  554SOL     OW 1660   1.998   1.270   1.783  0.2584  0.3880 -0.0832
  554SOL    HW1 1661   1.929   1.339   1.822  1.0235 -1.4798 -0.5849
  554SOL    HW2 1662   2.012   1.197   1.852 -1.0233 -4.3522  0.4798
  555SOL     OW 1663   0.443   2.748   2.160 -0.4325 -0.1037  0.0596
  555SOL    HW1 1664   0.446   2.785   2.066 -3.1014 -2.4683  2.3669
  555SOL    HW2 1665   0.342   2.745   2.184  1.9405 -3.3969 -1.4620
  556SOL     OW 1666   1.171   1.457   1.429 -0.7585  0.4447  1.0388
  556SOL    HW1 1667   1.242   1.517   1.387  0.6334  0.4711  0.5172
  556SOL    HW2 1668   1.216   1.368   1.442  1.3627 -1.4948 -1.1786
  557SOL     OW 1669   1.009   2.660   1.121  0.1373 -0.2874  0.0071
  557SOL    HW1 1670   0.928   2.601   1.092 -1.3583  1.5522 -2.9586
  557SOL    HW2 1671   0.985   2.722   1.200  1.4770 -1.5749 -2.1449
  558SOL     OW 1672   0.798   0.178   2.357 -0.1171 -0.8861  0.1467
  558SOL    HW1 1673   0.893   0.209   2.382  0.1848 -2.1776  0.0303
  558SOL    HW2 1674   0.748   0.253   2.309  1.6270  0.3703  1.2244
  559SOL     OW 1675   0.554   2.931   0.230  0.6590  0.1472 -0.1620
  559SOL    HW1 1676   0.499   3.008   0.191  1.3455 -2.4732  0.3780
  559SOL    HW2 1677   0.573   2.857   0.157  1.2591  1.5671 -0.8087
  560SOL     OW 1678   1.733   2.082   0.331 -0.7659 -0.2478 -0.3248
  560SOL    HW1 1679   1.643   2.117   0.364  0.6906 -1.0993  1.3303
  560SOL    HW2 1680   1.760   2.004   0.395  1.3370 -2.5122 -0.9212
  561SOL     OW 1681   0.935   2.847   0.764 -0.5059  0.6973  0.1653
  561SOL    HW1 1682   0.984   2.934   0.740  2.2063 -1.2330  0.3635
  561SOL    HW2 1683   1.002   2.784   0.812 -0.1071 -0.4922 -0.6343
  562SOL     OW 1684   0.761   0.904   2.292  0.3219  0.4624 -0.3397
  562SOL    HW1 1685   0.655   0.897   2.286 -1.0018 -1.9066 -0.5453
  562SOL    HW2 1686   0.791   0.996   2.257 -3.0758 -2.4160 -0.7402
  563SOL     OW 1687   0.973   1.766   2.436  0.2897  0.5952  0.0431
  563SOL    HW1 1688   1.049   1.744   2.494  0.3474 -1.2643  0.1063
  563SOL    HW2 1689   0.982   1.726   2.341  0.6022  1.0818 -1.2516
  564SOL     OW 1690   2.174   0.985   1.183  0.2992 -0.0575  0.1451
  564SOL    HW1 1691   2.175   0.886   1.210 -1.4737  2.4607  0.2823
  564SOL    HW2 1692   2.167   0.989   1.081 -1.3102  4.3601  0.3180
  565SOL     OW 1693   1.462   0.987   0.588  0.2989 -0.2063 -0.1512
  565SOL    HW1 1694   1.506   0.922   0.530  1.0505  1.0470  0.5243
  565SOL    HW2 1695   1.461   0.951   0.682  0.3320  1.3052  0.1171
  566SOL     OW 1696   2.492   2.899   2.847 -0.0165 -0.2941  0.3790
  566SOL    HW1 1697   2.537   2.980   2.795  2.5993 -1.2686  1.7319
  566SOL    HW2 1698   2.466   2.824   2.774  0.4447 -0.6567 -0.0938
  567SOL     OW 1699   2.180   0.864   1.558 -0.4932 -0.5008 -0.1979
  567SOL    HW1 1700   2.094   0.868   1.507 -0.7792 -1.8302  3.4379
  567SOL    HW2 1701   2.245   0.805   1.509  2.0821  4.2558 -0.7593
  568SOL     OW 1702   1.120   0.610   2.778 -0.1371  0.1007 -0.0522
  568SOL    HW1 1703   1.186   0.688   2.798  1.6714 -0.2321  0.2972
  568SOL    HW2 1704   1.111   0.559   2.866  0.3939 -1.0718  1.7475
  569SOL     OW 1705   2.210   1.892   1.296  0.4559 -0.3666  0.5329
  569SOL    HW1 1706   2.123   1.936   1.261 -3.0928  0.8550 -1.7423
  569SOL    HW2 1707   2.189   1.790   1.307 -2.0150 -0.0100  1.5668
  570SOL     OW 1708   2.490   2.577   2.198  0.1422  0.0705 -0.4500
  570SOL    HW1 1709   2.494   2.679   2.202  0.7156 -0.7958  0.2766
  570SOL    HW2 1710   2.394   2.541   2.208 -1.7546 -0.5884 -0.7942
  571SOL     OW 1711   2.643   2.225   2.324  0.0601 -0.3019  0.1295
  571SOL    HW1 1712   2.690   2.236   2.236 -3.1554  0.4865  0.6737
  571SOL    HW2 1713   2.545   2.212   2.309  0.5394  3.0588 -0.9495
  572SOL     OW 1714   1.387   2.235   2.646 -0.2730 -0.0032  0.0247
  572SOL    HW1 1715   1.469   2.284   2.622 -1.7720  1.8061 -0.6369
  572SOL    HW2 1716   1.344   2.283   2.726 -0.1783  1.1885  0.9541
  573SOL     OW 1717   1.705   2.610   1.078 -0.1295 -0.1526 -0.2906
  573SOL    HW1 1718   1.740   2.519   1.112 -0.7084  0.3644  0.7625
  573SOL    HW2 1719   1.702   2.679   1.153  0.1978  1.1395 -4.5386
  574SOL     OW 1720   0.967   2.517   1.602  0.0726  0.4017  0.3912
  574SOL    HW1 1721   0.998   2.440   1.541  0.8899  3.3787  0.8822
  574SOL    HW2 1722   0.978   2.608   1.559 -1.4271 -1.1827 -1.3653
  575SOL     OW 1723   0.321   0.614   0.750 -0.3994 -0.2633  0.5343
  575SOL    HW1 1724   0.318   0.701   0.696 -0.4900  3.2448 -0.7904
  575SOL    HW2 1725   0.353   0.639   0.842 -0.8503 -3.4433 -1.9963
  576SOL     OW 1726   2.293   0.255   1.526 -0.1196  0.4156  0.1154
  576SOL    HW1 1727   2.223   0.327   1.534 -1.6167 -2.0882  0.1762
  576SOL    HW2 1728   2.280   0.193   1.609 -2.5762 -2.8271 -1.9390
  577SOL     OW 1729   1.901   0.370   0.073  0.0588 -0.1607  0.5153
  577SOL    HW1 1730   1.909   0.466   0.040 -0.1853  2.2754 -0.6211
  577SOL    HW2 1731   1.997   0.329   0.070  1.1255 -2.5654  2.4083
  578SOL     OW 1732   1.348   1.836   1.646 -0.3321  0.2942  0.2213
  578SOL    HW1 1733   1.342   1.936   1.671 -1.0644  3.4838  1.3241
  578SOL    HW2 1734   1.362   1.834   1.544 -1.1496 -2.1076 -1.7773
  579SOL     OW 1735   0.995   1.851   0.906 -0.0172  0.1143  0.3582
  579SOL    HW1 1736   1.088   1.876   0.939  0.9333 -0.5441  2.9514
  579SOL    HW2 1737   0.942   1.817   0.987 -0.6959  1.2655 -0.2544
  580SOL     OW 1738   1.222   3.023   0.513 -0.4438  0.1316 -0.0809
  580SOL    HW1 1739   1.244   2.970   0.425  3.0315  0.2246  0.0447
  580SOL    HW2 1740   1.306   3.044   0.562 -0.1729 -1.7364  1.1127
  581SOL     OW 1741   1.262   0.740   1.567 -0.2394  0.1782  0.2683
  581SOL    HW1 1742   1.226   0.765   1.657  0.3526 -1.2200 -2.4810
  581SOL    HW2 1743   1.328   0.662   1.571  1.5349  0.6043 -1.5396
  582SOL     OW 1744   0.319   0.517   1.188 -0.0980 -0.6061 -0.0510
  582SOL    HW1 1745   0.398   0.457   1.198  2.5033  1.1742  0.6922
  582SOL    HW2 1746   0.228   0.474   1.209 -0.6789  2.0767  0.9573
  583SOL     OW 1747   1.504   2.539   1.862 -0.1266 -0.0060  0.3444
  583SOL    HW1 1748   1.468   2.530   1.951 -0.9501 -0.7329 -2.6074
  583SOL    HW2 1749   1.433   2.525   1.790  0.2295 -2.4799 -2.5107
  584SOL     OW 1750   2.658   2.631   0.064 -0.6560 -0.5182 -0.2120
  584SOL    HW1 1751   2.710   2.557   0.011 -2.3778  0.4784 -1.6491
  584SOL    HW2 1752   2.673   2.635   0.160 -0.3575 -1.1779 -2.8587
  585SOL     OW 1753   2.391   0.486   0.123 -0.4598 -0.1030  0.0329
  585SOL    HW1 1754   2.410   0.458   0.026  4.9586 -0.1835  1.8444
  585SOL    HW2 1755   2.307   0.441   0.161  1.2627 -0.1407 -0.1772
  586SOL     OW 1756   0.367   1.517   0.391  0.4681 -0.0621  0.1780
  586SOL    HW1 1757   0.361   1.617   0.372  0.7825  1.1840 -0.0198
  586SOL    HW2 1758   0.314   1.495   0.473 -2.2005 -1.4012  0.0342
  587SOL     OW 1759   1.712   2.377   1.456  0.1176 -0.5201  0.3576
  587SOL    HW1 1760   1.718   2.477   1.451  0.7366 -0.7738  0.5083
  587SOL    HW2 1761   1.790   2.328   1.507 -1.3380 -1.2900 -0.7525
  588SOL     OW 1762   0.884   0.868   1.425  0.5224 -0.3393  0.1647
  588SOL    HW1 1763   0.785   0.874   1.401 -1.2013 -2.0807  0.1361
  588SOL    HW2 1764   0.907   0.775   1.459  1.3766  2.1500 -0.1263
  589SOL     OW 1765   1.941   2.728   0.751 -0.5229  0.3171 -0.7153
  589SOL    HW1 1766   1.975   2.716   0.654  2.5956 -1.3873 -0.9972
  589SOL    HW2 1767   1.918   2.824   0.781  1.6254 -1.9223 -2.7195
  590SOL     OW 1768   1.858   1.137   0.490 -0.0748 -0.7544 -0.0420
  590SOL    HW1 1769   1.940   1.187   0.448  0.2588  0.9396  1.6311
  590SOL    HW2 1770   1.770   1.186   0.464 -2.2520  0.5173  1.6179
  591SOL     OW 1771   2.083   2.127   1.699  0.4910  0.2763  0.2463
  591SOL    HW1 1772   2.125   2.061   1.634  4.2152  2.0454  0.4177
  591SOL    HW2 1773   2.143   2.174   1.769 -0.3289  0.3846  3.3991
  592SOL     OW 1774   1.464   2.202   0.807  0.0058  0.0303  0.1710
  592SOL    HW1 1775   1.490   2.297   0.787  0.0899 -1.3630 -1.0010
  592SOL    HW2 1776   1.540   2.133   0.795  0.8698  0.2927 -1.3461
  593SOL     OW 1777   0.690   0.003   1.056  0.5683  0.5552  0.4831
  593SOL    HW1 1778   0.614   0.059   1.024 -2.8636 -0.9868 -0.7327
  593SOL    HW2 1779   0.775   0.058   1.070  1.0835  0.3792 -1.2048
  594SOL     OW 1780   3.035   0.646   2.286 -0.2558  0.2272  0.3606
  594SOL    HW1 1781   3.091   0.692   2.357 -2.1721 -0.5781  0.5569
  594SOL    HW2 1782   2.945   0.696   2.274 -2.8143 -0.8783 -0.7402
  595SOL     OW 1783   2.564   2.865   0.705 -0.1028 -0.0649  0.3904
  595SOL    HW1 1784   2.616   2.917   0.775 -1.9924  0.2790 -0.5493
  595SOL    HW2 1785   2.478   2.920   0.679  1.3159  0.4266  1.9880
  596SOL     OW 1786   0.095   0.397   1.304  0.4690 -0.4888 -0.8080
  596SOL    HW1 1787   0.002   0.402   1.343 -1.3665  1.8339  0.7998
  596SOL    HW2 1788   0.167   0.397   1.376 -0.7477 -2.1052  0.4177
  597SOL     OW 1789   2.444   1.397   0.865  0.3742 -0.6550 -0.5284
  597SOL    HW1 1790   2.537   1.404   0.814 -1.2453 -0.4495  3.0268
  597SOL    HW2 1791   2.426   1.473   0.932  0.7593 -0.7945  0.9567
  598SOL     OW 1792   0.369   0.088   1.924 -0.1267  1.0237  0.2154
  598SOL    HW1 1793   0.433   0.105   1.843  0.5336 -2.0813 -0.6936
  598SOL    HW2 1794   0.418   0.101   2.013 -0.0179 -0.9950  3.2958
  599SOL     OW 1795   2.460   1.962   0.186  0.3389  0.0987  0.2847
  599SOL    HW1 1796   2.364   1.964   0.214  1.6627  0.4321 -0.7609
  599SOL    HW2 1797   2.507   1.881   0.226 -2.6178 -1.6593 -0.5988
  600SOL     OW 1798   0.568   1.022   3.034  0.3855 -0.0297  0.3276
  600SOL    HW1 1799   0.530   1.118   3.039  1.8489  1.1732 -1.5685
  600SOL    HW2 1800   0.525   0.964   2.959 -0.3085  0.8695 -0.3680
  601SOL     OW 1801   1.145   1.028   2.814 -0.0133  0.2218 -0.2415
  601SOL    HW1 1802   1.169   1.122   2.785 -0.0407 -0.9390  0.8017
  601SOL    HW2 1803   1.226   0.966   2.815 -1.0030  0.5034 -0.5338
  602SOL     OW 1804   0.899   0.591   1.517 -0.4789 -0.2702 -0.3345
  602SOL    HW1 1805   0.812   0.546   1.493  1.8166 -0.6719 -0.9292
  602SOL    HW2 1806   0.980   0.556   1.460  0.1200 -0.6824  0.2569
  603SOL     OW 1807   0.927   2.426   2.328 -0.7992  0.9025 -0.4586
  603SOL    HW1 1808   0.976   2.460   2.413  0.1498 -0.4298 -1.8175
  603SOL    HW2 1809   0.824   2.426   2.350 -0.1604  0.2596 -1.2946
  604SOL     OW 1810   0.350   2.831   1.875 -0.2234 -0.1683  0.6248
  604SOL    HW1 1811   0.300   2.743   1.854  1.1487 -3.4406  0.6330
  604SOL    HW2 1812   0.280   2.904   1.897 -3.0842  0.6904  0.7870
  605SOL     OW 1813   2.709   2.487   1.713 -0.2247  0.3744  0.0033
  605SOL    HW1 1814   2.806   2.462   1.720 -1.1284  2.7206 -1.2093
  605SOL    HW2 1815   2.699   2.583   1.683 -1.2456  2.2850  0.4249
  606SOL     OW 1816   2.955   1.789   2.361  0.0161 -0.2376  0.0570
  606SOL    HW1 1817   2.875   1.735   2.332  0.0318  1.7885 -0.7461
  606SOL    HW2 1818   2.950   1.805   2.464 -0.4610 -1.1395  1.5184
  607SOL     OW 1819   1.481   0.018   0.695  0.4517  0.2309 -0.0997
  607SOL    HW1 1820   1.416   0.086   0.731  3.5654  1.2569  1.4970
  607SOL    HW2 1821   1.512   0.053   0.607 -0.6145  0.6753 -2.0082
  608SOL     OW 1822   1.665   1.790   2.489 -0.6718  0.0903 -0.2637
  608SOL    HW1 1823   1.608   1.812   2.405  2.2390  0.1137 -4.3430
  608SOL    HW2 1824   1.674   1.871   2.545 -0.9175 -0.8565 -0.9805
  609SOL     OW 1825   2.945   0.599   1.059 -0.2209  0.0665  0.4056
  609SOL    HW1 1826   2.930   0.526   0.991 -2.3369  0.9261 -1.3555
  609SOL    HW2 1827   2.876   0.670   1.055  1.0977  2.8213 -3.0513
  610SOL     OW 1828   0.408   2.258   2.743  0.1599 -0.7740 -0.0438
  610SOL    HW1 1829   0.340   2.250   2.815  0.0433  0.2630  0.0762
  610SOL    HW2 1830   0.390   2.191   2.673 -1.3446  1.5951  2.2510
  611SOL     OW 1831   2.070   1.685   0.737  0.4812  0.0320 -0.3983
  611SOL    HW1 1832   2.017   1.769   0.702 -1.1053 -1.0852 -0.2023
  611SOL    HW2 1833   2.045   1.653   0.829 -0.0275 -1.9944  0.7185
  612SOL     OW 1834   0.946   3.039   2.537 -0.2047 -0.4768  0.5796
  612SOL    HW1 1835   0.959   2.960   2.471 -2.0639  0.1646 -2.2442
  612SOL    HW2 1836   0.855   3.080   2.527 -5.0758 -0.5096 -0.3895
  613SOL     OW 1837   0.970   2.144   0.124 -0.6687 -0.4772 -0.2522
  613SOL    HW1 1838   0.874   2.176   0.119  0.1075 -0.0621  1.2894
  613SOL    HW2 1839   0.983   2.076   0.200  2.1555 -1.6886 -1.3354
  614SOL     OW 1840   2.452   2.142   2.060  0.7591  0.5135 -0.0809
  614SOL    HW1 1841   2.417   2.162   2.154  0.3693 -0.1784 -2.2643
  614SOL    HW2 1842   2.548   2.163   2.047  0.3998 -0.5263  0.1344
  615SOL     OW 1843   2.604   1.014   2.841  0.4158 -0.1760 -0.1461
  615SOL    HW1 1844   2.666   1.094   2.825  3.3608 -0.8844 -1.4806
  615SOL    HW2 1845   2.574   0.983   2.752 -0.8397  2.9105 -2.3242
  616SOL     OW 1846   1.954   3.053   0.584 -0.5545 -0.2503  0.3538
  616SOL    HW1 1847   1.955   3.026   0.685  2.7685 -0.7377 -0.1731
  616SOL    HW2 1848   1.953   2.966   0.530 -2.6633 -3.0494 -0.8514
  617SOL     OW 1849   0.223   1.208   2.918 -0.2483 -0.3212  0.0406
  617SOL    HW1 1850   0.314   1.246   2.948  0.8353  0.8653  0.4229
  617SOL    HW2 1851   0.221   1.107   2.910 -0.3216  4.3717  0.7512
  618SOL     OW 1852   0.390   0.663   2.079 -0.2491  0.1360 -0.1282
  618SOL    HW1 1853   0.368   0.571   2.127 -1.7428  3.0783  1.9164
  618SOL    HW2 1854   0.401   0.644   1.979  0.2958 -2.8694 -3.4641
  619SOL     OW 1855   0.053   0.740   1.681  0.1999 -0.6947 -0.1976
  619SOL    HW1 1856   0.136   0.688   1.651 -2.3473  1.9296 -1.1283
  619SOL    HW2 1857   0.079   0.807   1.759  0.0453  0.8256  0.8389
  620SOL     OW 1858   2.128   0.933   0.118  0.1512  0.8732 -0.9312
  620SOL    HW1 1859   2.188   0.858   0.146  4.2415 -0.8038 -0.0237
  620SOL    HW2 1860   2.160   1.016   0.173 -4.1483 -0.0506 -2.4031
  621SOL     OW 1861   2.570   2.707   1.356 -0.4550  0.2165  0.5027
  621SOL    HW1 1862   2.586   2.761   1.271  0.2987 -1.7919 -3.5960
  621SOL    HW2 1863   2.540   2.762   1.435  0.6584  1.3568 -0.3311
  622SOL     OW 1864   1.583   0.104   2.094  0.4803  0.2989  0.6218
  622SOL    HW1 1865   1.573   0.003   2.098  1.0660 -1.2646 -1.3807
  622SOL    HW2 1866   1.653   0.137   2.166 -0.4776  4.4079  1.2490
  623SOL     OW 1867   1.256   0.911   2.221  0.2643 -0.1180 -0.5743
  623SOL    HW1 1868   1.226   0.937   2.315  2.8573  0.5527 -1.3482
  623SOL    HW2 1869   1.271   0.812   2.222 -0.1548  0.7976 -1.5832
  624SOL     OW 1870   1.776   0.178   0.643  0.1557 -0.2572 -0.0638
  624SOL    HW1 1871   1.757   0.186   0.742  0.5784  1.5703  0.7823
  624SOL    HW2 1872   1.848   0.113   0.626  0.5298  1.3842  0.4461
  625SOL     OW 1873   0.625   1.461   0.378 -0.4448  0.1228 -0.4730
  625SOL    HW1 1874   0.642   1.383   0.311 -0.2721  0.3770  0.3265
  625SOL    HW2 1875   0.531   1.490   0.374 -0.5609  1.4737 -1.5776
  626SOL     OW 1876   1.570   1.223   2.497 -0.6515 -0.5035  0.4354
  626SOL    HW1 1877   1.469   1.217   2.522  2.3315  1.3219  1.1602
  626SOL    HW2 1878   1.597   1.226   2.397 -0.2340 -3.1762 -0.2739
  627SOL     OW 1879   0.905   0.596   1.785  0.0827  0.0796  0.1016
  627SOL    HW1 1880   0.887   0.625   1.685  0.9949  0.3064  2.4280
  627SOL    HW2 1881   0.980   0.529   1.795  1.4351 -1.2077 -1.5028
  628SOL     OW 1882   2.471   0.720   2.687  0.6619 -0.0224 -0.1285
  628SOL    HW1 1883   2.542   0.650   2.709  0.4747 -2.1883 -1.1621
  628SOL    HW2 1884   2.398   0.724   2.759  0.4328  1.9481 -2.4369
  629SOL     OW 1885   0.572   1.269   2.584 -0.7477  0.0273 -0.3720
  629SOL    HW1 1886   0.646   1.228   2.640 -0.7347 -2.9166  0.2452
  629SOL    HW2 1887   0.606   1.338   2.515 -0.1345 -0.5941  0.7544
  630SOL     OW 1888   1.180   0.421   2.129 -0.3494 -0.3173 -1.0074
  630SOL    HW1 1889   1.243   0.346   2.150  0.9533  1.3613 -1.0698
  630SOL    HW2 1890   1.084   0.392   2.149  2.7476  0.0474 -2.9322
  631SOL     OW 1891   2.678   0.867   0.657 -0.1231  0.4099  0.2300
  631SOL    HW1 1892   2.723   0.896   0.744 -0.1952 -0.0290 -1.0984
  631SOL    HW2 1893   2.588   0.912   0.643 -0.3240 -0.6803 -0.4895
  632SOL     OW 1894   2.846   1.903   0.912 -0.1597  0.7524 -0.0808
  632SOL    HW1 1895   2.889   1.815   0.939  0.5906  1.7250  0.3339
  632SOL    HW2 1896   2.815   1.898   0.813  2.3899 -3.0850 -0.2130
  633SOL     OW 1897   0.307   1.166   0.889  0.0407  0.1785 -0.0548
  633SOL    HW1 1898   0.300   1.083   0.951 -1.3450  1.1044  1.1812
  633SOL    HW2 1899   0.284   1.136   0.794 -1.0149  1.3871  1.4986
  634SOL     OW 1900   1.894   0.092   0.347  0.0249  0.6418  0.2827
  634SOL    HW1 1901   1.821   0.045   0.297  0.5671  2.6174 -0.9061
  634SOL    HW2 1902   1.904   0.050   0.439 -0.1770  0.1243 -2.4694
  635SOL     OW 1903   1.991   2.800   2.089 -0.0359  0.0298 -0.0236
  635SOL    HW1 1904   2.059   2.737   2.046 -2.8714  1.5188  1.2375
  635SOL    HW2 1905   1.982   2.771   2.187  0.3271  1.4219 -2.4995
  636SOL     OW 1906   1.511   0.573   0.550 -0.7329  0.6664  0.1721
  636SOL    HW1 1907   1.442   0.519   0.602  1.4616  2.0901 -3.1579
  636SOL    HW2 1908   1.607   0.545   0.578  0.3462 -0.2839 -0.0064
  637SOL     OW 1909   1.827   1.584   2.501  0.2464  0.0010  0.3217
  637SOL    HW1 1910   1.783   1.671   2.482  1.3105  0.1446  1.4095
  637SOL    HW2 1911   1.771   1.531   2.566  3.0878  0.4428  0.8381
  638SOL     OW 1912   1.193   0.388   2.635 -0.0299 -0.4405  0.2316
  638SOL    HW1 1913   1.151   0.463   2.692  0.4422  0.7935 -0.6599
  638SOL    HW2 1914   1.220   0.319   2.698 -0.2916 -0.8008  2.1249
  639SOL     OW 1915   1.748   2.647   1.480 -0.1978  0.0099  0.6461
  639SOL    HW1 1916   1.692   2.691   1.408  2.9844  1.3568  1.8501
  639SOL    HW2 1917   1.721   2.672   1.574  2.1713  1.6580 -1.9055
  640SOL     OW 1918   0.965   0.214   2.893 -0.3605  0.3195 -0.1931
  640SOL    HW1 1919   0.931   0.125   2.926 -1.5185 -0.9230  1.9762
  640SOL    HW2 1920   1.008   0.188   2.804 -0.8542  0.5158 -1.2388
  641SOL     OW 1921   2.956   0.516   0.184 -0.2426 -0.1289  0.5344
  641SOL    HW1 1922   3.016   0.519   0.267  1.8956 -1.2487 -2.3029
  641SOL    HW2 1923   3.016   0.505   0.103 -2.8304  2.3246 -0.4757
  642SOL     OW 1924   0.678   1.947   1.181 -0.0761 -0.0390  0.8223
  642SOL    HW1 1925   0.633   1.967   1.269  0.7990 -0.6342  0.7123
  642SOL    HW2 1926   0.626   2.000   1.107  1.4154 -0.8805 -2.7088
  643SOL     OW 1927   0.429   1.448   2.751  0.2123  0.6002 -0.2869
  643SOL    HW1 1928   0.514   1.504   2.759  1.9198  0.5358  1.0580
  643SOL    HW2 1929   0.445   1.370   2.691 -0.9832  2.3125 -0.6474
  644SOL     OW 1930   1.605   2.518   0.279  0.0072 -0.2395  0.1616
  644SOL    HW1 1931   1.542   2.461   0.233  0.5333 -0.7185  0.9738
  644SOL    HW2 1932   1.694   2.527   0.229  2.9318 -0.8923 -2.5029
  645SOL     OW 1933   1.632   2.735   1.709  0.3624  0.4793  0.4346
  645SOL    HW1 1934   1.695   2.802   1.755  0.8115  0.4598 -0.1220
  645SOL    HW2 1935   1.584   2.679   1.780  0.6407  0.4533 -0.4029
  646SOL     OW 1936   0.827   2.493   0.124  0.6427 -0.5685 -0.7678
  646SOL    HW1 1937   0.869   2.480   0.027  0.7876  0.8303 -0.6296
  646SOL    HW2 1938   0.728   2.509   0.121  2.9674 -0.0232 -2.1232
  647SOL     OW 1939   2.874   2.606   2.154  0.4061  0.1272  0.3958
  647SOL    HW1 1940   2.848   2.662   2.238 -0.5991  1.3874  1.4651
  647SOL    HW2 1941   2.797   2.550   2.121  0.6701 -0.3074 -2.8537
  648SOL     OW 1942   2.705   0.888   1.314  0.3244 -0.2521  0.2494
  648SOL    HW1 1943   2.766   0.807   1.321  1.7424 -1.9091 -1.0914
  648SOL    HW2 1944   2.610   0.860   1.287 -1.8170  1.8897  0.4519
  649SOL     OW 1945   1.820   2.737   2.789  1.1673  0.1129 -0.5094
  649SOL    HW1 1946   1.780   2.643   2.771 -0.1075 -2.6583 -0.4091
  649SOL    HW2 1947   1.879   2.734   2.872 -0.2401 -1.2164  1.4192
  650SOL     OW 1948   2.590   2.470   2.425  0.3081  0.1779 -1.0481
  650SOL    HW1 1949   2.622   2.382   2.385  0.2075  3.0476  0.2166
  650SOL    HW2 1950   2.544   2.523   2.354 -0.8731  1.8070 -0.4009
  651SOL     OW 1951   1.193   1.728   2.573 -0.4177 -0.5721  0.1598
  651SOL    HW1 1952   1.231   1.827   2.585 -2.2044 -0.7353 -0.7029
  651SOL    HW2 1953   1.235   1.680   2.495 -1.3955  1.3103  2.6510
  652SOL     OW 1954   1.246   2.922   2.477  0.1131  0.4968  0.1525
  652SOL    HW1 1955   1.198   2.832   2.470 -0.2219  0.2691  0.7701
  652SOL    HW2 1956   1.196   3.000   2.437  0.3219  2.6691  1.1310
  653SOL     OW 1957   1.941   2.071   0.890 -0.1886 -0.5325  0.2528
  653SOL    HW1 1958   1.921   2.008   0.972 -0.9609 -0.4793  2.2276
  653SOL    HW2 1959   2.031   2.112   0.906  2.0468 -1.1577  2.3453
  654SOL     OW 1960   2.031   2.749   2.371 -0.9598 -0.2420  0.5665
  654SOL    HW1 1961   2.124   2.792   2.344 -1.7757  1.1078  0.0914
  654SOL    HW2 1962   2.007   2.788   2.465 -2.9556 -0.0062  0.5479
  655SOL     OW 1963   2.164   2.218   0.920  0.2110  0.2899  0.4385
  655SOL    HW1 1964   2.235   2.162   0.879 -1.1915  1.7414 -1.9278
  655SOL    HW2 1965   2.152   2.316   0.877 -0.2941  0.5272  4.5636
  656SOL     OW 1966   2.999   1.366   0.164 -0.4821  0.1781  0.1256
  656SOL    HW1 1967   2.904   1.319   0.176 -2.1985 -0.7635  0.2976
  656SOL    HW2 1968   3.067   1.297   0.130 -0.9971  0.7169 -0.4772
  657SOL     OW 1969   2.864   1.016   0.539  0.3471 -0.0573 -0.2846
  657SOL    HW1 1970   2.879   1.117   0.558 -0.2518 -0.8819 -2.5368
  657SOL    HW2 1971   2.800   0.976   0.602  1.4409  2.0045  0.1776
  658SOL     OW 1972   1.333   2.230   1.204 -0.6724 -0.3396 -0.9045
  658SOL    HW1 1973   1.284   2.156   1.244 -0.5235 -1.4235  1.6200
  658SOL    HW2 1974   1.297   2.251   1.109 -0.7580  0.3484  1.3777
  659SOL     OW 1975   1.121   0.010   1.224  0.3841  0.8562 -0.2898
  659SOL    HW1 1976   1.151   0.020   1.319 -0.6988 -2.0704  1.7284
  659SOL    HW2 1977   1.199   0.019   1.155  1.3731 -0.1068 -1.1376
  660SOL     OW 1978   2.729   0.748   1.011 -0.5943  0.0043  0.4405
  660SOL    HW1 1979   2.735   0.834   0.956 -0.5388 -1.9192 -0.0210
  660SOL    HW2 1980   2.640   0.750   1.072  0.8430  0.3361 -1.4272
  661SOL     OW 1981   0.323   1.634   0.067 -0.2143 -0.4867 -0.0811
  661SOL    HW1 1982   0.303   1.601  -0.028 -0.6231  0.2137 -1.4189
  661SOL    HW2 1983   0.420   1.616   0.083  1.8134  1.0169  0.8645
  662SOL     OW 1984   2.421   0.791   2.149  0.3300  0.4221  0.3033
  662SOL    HW1 1985   2.515   0.829   2.154  1.1191  0.3373 -1.8058
  662SOL    HW2 1986   2.390   0.780   2.051  0.0453  3.6108  1.3984
  663SOL     OW 1987   1.745   1.376   1.587 -0.0888 -0.2791 -0.3115
  663SOL    HW1 1988   1.756   1.277   1.566  1.2473 -0.6672  0.4207
  663SOL    HW2 1989   1.644   1.394   1.594  0.7655 -0.4826 -0.7496
  664SOL     OW 1990   0.436   2.746   1.171  0.1505  0.0037  0.5746
  664SOL    HW1 1991   0.387   2.831   1.192 -0.0505  0.5231  2.8514
  664SOL    HW2 1992   0.458   2.744   1.070  0.1570  0.4741  0.3160
  665SOL     OW 1993   1.306   0.675   3.029  0.1912 -0.5182  0.3308
  665SOL    HW1 1994   1.207   0.676   3.057  0.4500  0.4968 -0.6359
  665SOL    HW2 1995   1.351   0.770   3.039 -1.6363 -0.9393 -1.0605
  666SOL     OW 1996   1.076   0.241   2.439  0.6532  0.0297 -0.1640
  666SOL    HW1 1997   1.122   0.155   2.411  0.5666  0.9769 -0.3056
  666SOL    HW2 1998   1.122   0.287   2.518  0.3602  0.2357 -0.0647
  667SOL     OW 1999   1.280   1.545   1.085 -0.0416 -0.2593 -0.2389
  667SOL    HW1 2000   1.346   1.511   1.013 -2.7068 -0.3356 -1.4528
  667SOL    HW2 2001   1.326   1.540   1.176 -1.2513  1.3171  0.7391
  668SOL     OW 2002   0.499   0.868   2.224 -0.1007 -0.3276 -0.3000
  668SOL    HW1 2003   0.457   0.789   2.174 -1.8646  0.3715 -1.9025
  668SOL    HW2 2004   0.478   0.958   2.176 -0.6929 -1.3994 -2.0440
  669SOL     OW 2005   2.019   2.401   2.715 -0.4274 -0.1585  0.5279
  669SOL    HW1 2006   1.931   2.441   2.746  1.4993 -1.3870 -0.9152
  669SOL    HW2 2007   2.016   2.299   2.712 -1.6762 -0.6269 -1.0553
  670SOL     OW 2008   2.917   1.203   1.572 -0.6449  0.0356 -0.5624
  670SOL    HW1 2009   3.017   1.191   1.584  1.2656 -0.0494 -2.5193
  670SOL    HW2 2010   2.885   1.111   1.594 -2.2883  1.2572  0.0878
  671SOL     OW 2011   2.762   1.884   0.662  0.0232  0.0900 -0.3301
  671SOL    HW1 2012   2.816   1.812   0.618  0.6306 -1.2689  0.5684
  671SOL    HW2 2013   2.757   1.966   0.598 -2.3663 -5.2654 -1.2885
  672SOL     OW 2014   1.707   0.624   1.672  0.2932  1.1673  0.9630
  672SOL    HW1 2015   1.706   0.724   1.703 -0.4877 -1.6078 -0.5975
  672SOL    HW2 2016   1.644   0.569   1.732 -1.8646 -0.7383  1.3278
  673SOL     OW 2017   2.781   2.146   1.392  0.1824  0.2141 -0.1518
  673SOL    HW1 2018   2.854   2.163   1.463 -1.1693  1.0897  0.1003
  673SOL    HW2 2019   2.779   2.051   1.365  1.5756  0.8793  0.3118
  674SOL     OW 2020   1.257   2.329   0.958  0.4083  0.2320 -0.4988
  674SOL    HW1 2021   1.167   2.332   0.910 -2.6664  1.3164 -1.4612
  674SOL    HW2 2022   1.327   2.301   0.891  0.9180  1.6400 -2.1089
  675SOL     OW 2023   0.176   1.065   0.612 -0.2168 -0.7514  0.1908
  675SOL    HW1 2024   0.127   1.040   0.526  1.1378  1.8516  0.9843
  675SOL    HW2 2025   0.280   1.064   0.592 -0.8344 -1.3191 -2.3629
  676SOL     OW 2026   2.865   0.811   1.923 -1.1097 -0.4146  0.2787
  676SOL    HW1 2027   2.856   0.886   1.854  0.8107 -1.0185  4.6539
  676SOL    HW2 2028   2.884   0.723   1.879  0.0004  1.6475 -0.6001
  677SOL     OW 2029   2.010   0.744   2.421  0.0982  0.3391 -0.3246
  677SOL    HW1 2030   2.092   0.705   2.468  0.0628 -1.8710 -0.1200
  677SOL    HW2 2031   2.005   0.710   2.326  0.6365  2.1262 -0.4747
  678SOL     OW 2032   2.608   1.359   1.544  0.2939 -0.0753 -0.1194
  678SOL    HW1 2033   2.623   1.265   1.507  2.5462  1.6186 -0.3520
  678SOL    HW2 2034   2.657   1.373   1.634  0.6014 -0.1888 -0.6505
  679SOL     OW 2035   2.813   2.479   3.004 -0.3278  1.2465  0.1541
  679SOL    HW1 2036   2.873   2.429   3.070 -0.6364  0.8392 -1.1751
  679SOL    HW2 2037   2.779   2.413   2.934 -0.5194 -1.1605 -1.7021
  680SOL     OW 2038   0.458   1.710   1.291  0.2374 -0.0437 -0.4884
  680SOL    HW1 2039   0.438   1.809   1.268  0.4562 -1.9279  0.2998
  680SOL    HW2 2040   0.434   1.694   1.391 -1.8666  1.8448 -1.1156
  681SOL     OW 2041   1.039   0.231   0.856  0.5507 -0.0627 -0.2510
  681SOL    HW1 2042   1.031   0.160   0.783  1.4101 -0.7374  0.4449
  681SOL    HW2 2043   0.978   0.309   0.833  1.0868 -2.5923  2.4880
  682SOL     OW 2044   2.366   2.647   1.660 -0.0148  0.1752 -0.5816
  682SOL    HW1 2045   2.371   2.548   1.677  0.9504 -0.5288  1.5432
  682SOL    HW2 2046   2.274   2.676   1.636 -2.2103 -2.0499  0.9466
  683SOL     OW 2047   2.218   1.519   1.910 -0.0127  0.4669 -0.4198
  683SOL    HW1 2048   2.294   1.479   1.853 -2.5772 -0.7945  2.8181
  683SOL    HW2 2049   2.205   1.470   1.999  0.5068 -0.8783 -0.5557
  684SOL     OW 2050   0.108   1.182   1.544  0.1208 -0.6342  0.3301
  684SOL    HW1 2051   0.075   1.154   1.451 -2.5292 -0.9641  1.1034
  684SOL    HW2 2052   0.153   1.098   1.585  1.2434 -1.4779 -0.6395
  685SOL     OW 2053   1.468   1.292   0.203  0.4011 -0.1901  0.3607
  685SOL    HW1 2054   1.475   1.238   0.286  1.1549 -2.3375  0.8281
  685SOL    HW2 2055   1.401   1.255   0.134 -0.4311 -0.5441  3.1049
  686SOL     OW 2056   0.270   0.602   1.625  0.1804  0.0933 -0.5062
  686SOL    HW1 2057   0.275   0.518   1.569 -2.7003 -0.6772 -1.3878
  686SOL    HW2 2058   0.318   0.577   1.708  0.4055  1.4222  3.0425
  687SOL     OW 2059   1.542   0.517   3.007 -0.4102 -0.0751 -0.3307
  687SOL    HW1 2060   1.546   0.426   2.967 -0.9809 -2.0556  0.6924
  687SOL    HW2 2061   1.448   0.557   3.005  3.7897  0.9036 -1.4561
  688SOL     OW 2062   1.118   1.567   2.780 -0.3026 -0.7620  0.2146
  688SOL    HW1 2063   1.085   1.645   2.835  0.9888  0.8344  0.4324
  688SOL    HW2 2064   1.160   1.607   2.696  0.0294  2.5814 -0.3449
  689SOL     OW 2065   2.029   1.651   1.767 -0.2787 -0.2274 -0.0440
  689SOL    HW1 2066   2.084   1.731   1.738 -2.4896 -0.2886 -1.3095
  689SOL    HW2 2067   2.094   1.581   1.812 -2.1798  1.7963 -0.5468
  690SOL     OW 2068   1.809   2.344   1.194 -0.5843 -0.6905  0.3206
  690SOL    HW1 2069   1.822   2.356   1.294 -1.8611  0.8289  2.8769
  690SOL    HW2 2070   1.888   2.293   1.153 -2.2791 -0.8581  0.5156
  691SOL     OW 2071   0.230   2.064   0.539 -0.1435 -0.3180  0.1981
  691SOL    HW1 2072   0.186   2.101   0.456 -0.9563  1.3620  0.5372
  691SOL    HW2 2073   0.226   1.962   0.550 -1.3552  1.8798 -0.7079
  692SOL     OW 2074   2.710   0.394   2.166 -0.3149  0.0346 -0.1659
  692SOL    HW1 2075   2.777   0.370   2.093  0.6672  1.1273 -1.3892
  692SOL    HW2 2076   2.664   0.311   2.198  1.7883 -0.4648 -0.0779
  693SOL     OW 2077   0.217   1.067   2.353 -0.2766 -0.3968  0.5521
  693SOL    HW1 2078   0.282   1.079   2.278  1.6205 -0.2108 -1.0917
  693SOL    HW2 2079   0.143   1.141   2.357 -0.5159 -2.6286  0.7131
  694SOL     OW 2080   2.771   3.091   2.000  0.1807 -0.2357  0.3062
  694SOL    HW1 2081   2.798   3.192   1.983  0.4023 -0.0659 -1.3825
  694SOL    HW2 2082   2.672   3.094   2.025  0.5197  2.1951  0.5854
  695SOL     OW 2083   1.671   0.485   2.104  0.1266 -0.2904 -0.0963
  695SOL    HW1 2084   1.645   0.414   2.173 -0.5968 -0.7714 -2.2101
  695SOL    HW2 2085   1.640   0.575   2.136  1.5035  3.4293 -0.7412
  696SOL     OW 2086   2.217   2.973   1.850 -0.4478 -0.2633  0.2470
  696SOL    HW1 2087   2.135   2.950   1.792 -0.5248  3.3043 -1.0632
  696SOL    HW2 2088   2.270   2.892   1.877 -2.5934  1.4925  0.8461
  697SOL     OW 2089   1.663   0.227   1.866 -0.4908 -0.7206  0.3699
  697SOL    HW1 2090   1.641   0.327   1.865  0.1296 -0.9938  2.0946
  697SOL    HW2 2091   1.613   0.183   1.940  1.7529 -0.5912  1.8458
  698SOL     OW 2092   2.370   1.920   2.985 -0.2191  0.3014  0.1119
  698SOL    HW1 2093   2.466   1.893   3.017  0.1691 -1.1482  0.1154
  698SOL    HW2 2094   2.301   1.866   3.036  0.0981 -0.0038 -1.4193
  699SOL     OW 2095   2.108   1.588   0.295 -0.5959 -0.2815 -0.0280
  699SOL    HW1 2096   2.056   1.674   0.270 -3.4287 -1.7315  1.6957
  699SOL    HW2 2097   2.153   1.545   0.213 -1.9053 -0.2101  0.3941
  700SOL     OW 2098   1.733   0.212   0.905  0.3250  0.4114 -0.0197
  700SOL    HW1 2099   1.676   0.298   0.928  0.9382 -0.0105 -1.0786
  700SOL    HW2 2100   1.742   0.154   0.987  1.3589  2.1673 -0.2712
  701SOL     OW 2101   2.987   0.498   0.579 -0.9272  0.2632  0.6190
  701SOL    HW1 2102   3.042   0.529   0.493 -3.7742 -1.0625 -1.1246
  701SOL    HW2 2103   2.898   0.549   0.575 -1.1790 -0.9707 -0.1234
  702SOL     OW 2104   1.989   2.671   1.383  0.4353 -0.4078 -0.0709
  702SOL    HW1 2105   1.889   2.658   1.403  0.1650 -1.1725  0.0131
  702SOL    HW2 2106   2.028   2.576   1.378 -1.7633 -2.4925 -1.3102
  703SOL     OW 2107   0.486   1.110   1.532 -0.1978 -0.4542  0.6637
  703SOL    HW1 2108   0.539   1.023   1.511 -0.2219 -2.5709 -1.2061
  703SOL    HW2 2109   0.405   1.091   1.592  0.6097 -0.7140 -0.0876
  704SOL     OW 2110   1.257   0.291   1.560 -0.0765 -0.1003  0.4333
  704SOL    HW1 2111   1.302   0.355   1.497  1.5296 -0.7409  0.5833
  704SOL    HW2 2112   1.326   0.251   1.623 -2.2176  1.1423 -0.2021
  705SOL     OW 2113   2.956   1.867   3.071 -0.0055  0.1275  0.0857
  705SOL    HW1 2114   3.045   1.895   3.026 -0.2226 -0.9835  1.0945
  705SOL    HW2 2115   2.956   1.772   3.102  2.6665  0.8757 -1.9634
  706SOL     OW 2116   0.064   0.546   0.389 -0.0157 -0.3137 -0.3367
  706SOL    HW1 2117   0.111   0.640   0.383  1.1172 -1.6147  0.6945
  706SOL    HW2 2118   0.117   0.479   0.337 -1.0462  0.4746  0.7383
  707SOL     OW 2119   1.791   2.618   2.371 -0.2434 -0.1088 -0.0393
  707SOL    HW1 2120   1.732   2.630   2.297  0.2392  3.7295  3.0284
  707SOL    HW2 2121   1.886   2.648   2.354  0.3720 -0.7150 -0.9240
  708SOL     OW 2122   0.746   0.270   1.286 -0.0447 -0.0762 -0.3561
  708SOL    HW1 2123   0.805   0.239   1.207 -0.4299  2.3132 -0.9175
  708SOL    HW2 2124   0.758   0.206   1.366 -0.0488 -0.0124  0.1912
  709SOL     OW 2125   0.263   0.995   1.653 -0.3244  0.0781  0.4101
  709SOL    HW1 2126   0.338   0.932   1.628 -0.9888  0.9592  0.0311
  709SOL    HW2 2127   0.213   0.956   1.732  1.2894  2.8188 -0.2430
  710SOL     OW 2128   0.303   0.267   0.729 -0.0805  0.6495 -0.2986
  710SOL    HW1 2129   0.373   0.323   0.685  1.0422 -0.3299 -1.4103
  710SOL    HW2 2130   0.218   0.326   0.738  2.7651 -1.4479 -0.3419
  711SOL     OW 2131   2.365   2.205   2.319 -0.4873 -0.2386 -0.1352
  711SOL    HW1 2132   2.390   2.180   2.412  0.7803  0.5999  1.0713
  711SOL    HW2 2133   2.284   2.263   2.307 -1.3436 -2.3484  0.8581
  712SOL     OW 2134   3.021   2.358   2.186  0.1403  0.0048 -0.2795
  712SOL    HW1 2135   2.977   2.336   2.275  0.6231  2.9618 -0.4128
  712SOL    HW2 2136   3.000   2.452   2.159 -1.2130  2.2138  0.7367
  713SOL     OW 2137   2.147   0.577   0.433  0.5811  0.7923  0.8133
  713SOL    HW1 2138   2.233   0.607   0.383 -2.0375  2.4228  1.9323
  713SOL    HW2 2139   2.123   0.648   0.508 -1.9788 -2.1947  1.5211
  714SOL     OW 2140   2.108   1.105   2.756  0.3278  0.2575 -0.0849
  714SOL    HW1 2141   2.031   1.164   2.731 -0.6009  2.1518 -0.3942
  714SOL    HW2 2142   2.083   1.028   2.819  0.5720  1.6297  1.7095
  715SOL     OW 2143   0.426   0.682   1.007  0.2620  0.0245 -0.2499
  715SOL    HW1 2144   0.528   0.669   1.009  3.8205  0.9161  3.0024
  715SOL    HW2 2145   0.375   0.621   1.075  2.6237  2.2816 -0.1934
  716SOL     OW 2146   0.707   0.411   1.742 -0.1209 -0.3055  0.1519
  716SOL    HW1 2147   0.677   0.433   1.646 -1.6762  1.4493 -0.4958
  716SOL    HW2 2148   0.791   0.463   1.762  1.7712  0.9267  2.5945
  717SOL     OW 2149   1.305   0.641   2.224  0.5633  0.4827 -0.2199
  717SOL    HW1 2150   1.318   0.585   2.313 -1.9352 -0.4823  1.9714
  717SOL    HW2 2151   1.245   0.595   2.156  3.0750  0.2134 -0.3779
  718SOL     OW 2152   1.326   0.067   1.032 -0.3085  0.1444 -0.2441
  718SOL    HW1 2153   1.341  -0.026   0.997  0.9859  0.0166 -1.5411
  718SOL    HW2 2154   1.319   0.137   0.957  1.6302  0.7273  2.0934
  719SOL     OW 2155   2.966   2.892   2.533 -0.4853 -0.4871 -0.7425
  719SOL    HW1 2156   3.035   2.969   2.557  0.3806 -1.8862  0.2168
  719SOL    HW2 2157   2.918   2.843   2.611 -1.7665 -1.0236  1.1189
  720SOL     OW 2158   1.977   2.956   1.697  0.6952 -0.4391 -0.0485
  720SOL    HW1 2159   1.909   2.945   1.770 -0.6409  1.5304 -1.7606
  720SOL    HW2 2160   2.010   2.861   1.668 -0.3669 -0.6970  0.4717
  721SOL     OW 2161   0.092   2.427   1.185 -0.4836  0.8959 -0.6059
  721SOL    HW1 2162   0.035   2.407   1.103  0.7736 -1.1805 -2.6084
  721SOL    HW2 2163   0.047   2.493   1.251  0.6929  1.2549 -2.8625
  722SOL     OW 2164   0.761   0.860   2.771  0.1328  0.4079 -0.0029
  722SOL    HW1 2165   0.821   0.793   2.727  2.2608 -0.3346 -2.1602
  722SOL    HW2 2166   0.668   0.820   2.778  3.5149 -0.5753 -0.2025
  723SOL     OW 2167   2.099   1.654   1.328  0.3189 -0.4506 -0.3522
  723SOL    HW1 2168   2.172   1.601   1.374  0.6357  1.1637 -1.6815
  723SOL    HW2 2169   2.005   1.617   1.351  3.6683 -1.8454  0.3189
  724SOL     OW 2170   1.095   1.795   0.133 -0.0785 -0.0523 -0.8996
  724SOL    HW1 2171   1.066   1.862   0.202 -0.1184 -0.4004 -3.1634
  724SOL    HW2 2172   1.056   1.706   0.145  1.5557  0.9775 -0.3262
  725SOL     OW 2173   0.604   0.881   1.453 -0.7084  0.0381  0.0115
  725SOL    HW1 2174   0.550   0.854   1.535  0.6368 -1.1662  1.4670
  725SOL    HW2 2175   0.576   0.827   1.369  0.6012  1.3457  1.5546
  726SOL     OW 2176   2.457   0.958   3.056  0.1556  0.1915 -0.0890
  726SOL    HW1 2177   2.503   0.978   2.971 -0.0239  0.7316 -0.5062
  726SOL    HW2 2178   2.395   1.033   3.082 -0.5322 -0.9731  0.1409
  727SOL     OW 2179   2.456   0.603   2.355  0.4414  0.4123  0.5502
  727SOL    HW1 2180   2.507   0.664   2.418 -0.5888 -0.1970  1.3798
  727SOL    HW2 2181   2.425   0.661   2.276  2.4582  1.0479  0.3001
  728SOL     OW 2182   1.606   2.091   1.717  0.3413 -0.1041  0.7077
  728SOL    HW1 2183   1.506   2.116   1.700  0.2307 -1.3301  0.6393
  728SOL    HW2 2184   1.614   2.008   1.779 -0.1879 -0.3762 -0.1104
  729SOL     OW 2185   1.733   0.908   2.117  0.3376 -0.7953 -0.3235
  729SOL    HW1 2186   1.693   1.002   2.134 -0.6226 -0.0026  1.3524
  729SOL    HW2 2187   1.670   0.832   2.135 -0.6314  0.6972 -0.3727
  730SOL     OW 2188   1.114   0.706   1.076  0.4104  0.2443  0.0984
  730SOL    HW1 2189   1.061   0.674   1.154  0.5171  1.1044 -3.1020
  730SOL    HW2 2190   1.163   0.796   1.103 -0.8793  0.9422 -0.3095
  731SOL     OW 2191   0.409   1.056   2.574 -0.3568 -0.2012 -0.0286
  731SOL    HW1 2192   0.463   1.147   2.564 -0.3139 -0.9862  2.2119
  731SOL    HW2 2193   0.331   1.054   2.511 -0.0652  0.1948  0.4369
  732SOL     OW 2194   0.187   0.781   0.342  0.2280 -0.0727 -0.0553
  732SOL    HW1 2195   0.213   0.781   0.241  0.4186  0.1320 -0.0410
  732SOL    HW2 2196   0.135   0.865   0.367 -1.8175 -0.5187 -1.5035
  733SOL     OW 2197   1.202   1.512   2.108  0.1404  0.1485 -0.2365
  733SOL    HW1 2198   1.187   1.456   2.025  0.0325 -0.9116 -0.5944
  733SOL    HW2 2199   1.297   1.508   2.139  0.4490 -0.3221 -1.8492
  734SOL     OW 2200   0.298   2.349   2.984 -0.2754  0.3011  0.2316
  734SOL    HW1 2201   0.212   2.390   2.946 -0.2970 -1.8749 -0.2527
  734SOL    HW2 2202   0.353   2.420   3.033  2.6190  3.9109  0.0491
  735SOL     OW 2203   2.756   0.534   0.818  0.0881  0.2993 -1.3644
  735SOL    HW1 2204   2.777   0.551   0.720 -0.8103 -0.6176 -1.1342
  735SOL    HW2 2205   2.741   0.626   0.864  0.0441 -1.4005 -0.5752
  736SOL     OW 2206   1.934   1.487   2.248 -0.2209 -0.8930 -0.6444
  736SOL    HW1 2207   1.926   1.590   2.253 -0.4301 -0.3503  2.2316
  736SOL    HW2 2208   1.893   1.448   2.333  0.9484 -2.8223 -0.0816
  737SOL     OW 2209   0.026   1.017   0.395 -0.1214  0.4017  0.2561
  737SOL    HW1 2210  -0.058   0.983   0.448  1.2156 -1.4109  0.8259
  737SOL    HW2 2211   0.005   1.013   0.294 -0.5022 -2.7984  1.8715
  738SOL     OW 2212   0.902   1.580   1.299  0.3448 -0.4027 -0.2814
  738SOL    HW1 2213   1.005   1.567   1.317 -1.3597  0.2571 -1.4553
  738SOL    HW2 2214   0.849   1.496   1.320  2.5993  0.9737  0.2593
  739SOL     OW 2215   1.980   2.703   0.007  0.4044 -0.2649 -0.0092
  739SOL    HW1 2216   1.953   2.608   0.041  0.2474 -1.6451  0.3003
  739SOL    HW2 2217   2.071   2.707  -0.035 -1.2714  1.7089 -0.0167
  740SOL     OW 2218   2.292   2.043   1.526  0.0141  0.0503 -0.1361
  740SOL    HW1 2219   2.275   1.983   1.448  1.6806  0.6729  0.3946
  740SOL    HW2 2220   2.321   2.135   1.495  1.1775 -2.3067  0.4825
  741SOL     OW 2221   2.071   0.798   0.594  1.1632 -0.5885 -0.4593
  741SOL    HW1 2222   2.018   0.838   0.672  2.2829 -2.2211  0.8662
  741SOL    HW2 2223   2.134   0.862   0.550  1.6044 -0.5630  0.8300
  742SOL     OW 2224   0.692   2.197   2.793 -0.6929 -0.4274 -0.3458
  742SOL    HW1 2225   0.695   2.139   2.708  0.5204 -0.0371 -0.4574
  742SOL    HW2 2226   0.611   2.260   2.779 -1.1886 -2.1701  1.4066
  743SOL     OW 2227   2.489   1.277   2.058 -0.3994  0.4979 -0.2054
  743SOL    HW1 2228   2.397   1.230   2.038 -1.0516  1.4816 -0.9878
  743SOL    HW2 2229   2.497   1.311   2.153 -0.0851  2.6961  1.1634
  744SOL     OW 2230   2.702   0.214   0.419 -0.5519  0.0242  0.4960
  744SOL    HW1 2231   2.659   0.136   0.380  0.5778  0.7151  2.6550
  744SOL    HW2 2232   2.799   0.194   0.447 -0.3279 -0.5776  2.9140
  745SOL     OW 2233   2.514   2.015   1.674  0.3380 -0.5746 -0.2012
  745SOL    HW1 2234   2.567   2.101   1.651  1.1917 -1.3998 -3.0127
  745SOL    HW2 2235   2.431   2.004   1.616 -0.1013 -1.5238 -1.8292
  746SOL     OW 2236   1.105   1.436   3.035  0.9268 -0.0837 -0.0504
  746SOL    HW1 2237   1.088   1.485   2.947 -0.4622 -0.8087 -1.0538
  746SOL    HW2 2238   1.060   1.479   3.116 -0.7648  0.7049  2.1022
  747SOL     OW 2239   1.381   1.581   1.334 -0.1509 -0.3414  0.4520
  747SOL    HW1 2240   1.472   1.534   1.342 -1.9642  0.5302  1.0747
  747SOL    HW2 2241   1.394   1.671   1.378  1.6676 -0.6546  3.3271
  748SOL     OW 2242   0.387   0.022   0.095  0.3469  0.1580 -0.1860
  748SOL    HW1 2243   0.357   0.043  -0.002 -1.8090 -0.9381  0.6066
  748SOL    HW2 2244   0.305  -0.010   0.151 -0.0421 -2.6345 -0.7321
  749SOL     OW 2245   0.180   0.917   2.890  0.7637 -0.0745  0.1788
  749SOL    HW1 2246   0.279   0.928   2.875 -3.1014 -1.1329  0.2122
  749SOL    HW2 2247   0.127   0.887   2.805  1.8603  0.7413  3.3916
  750SOL     OW 2248   1.291   0.487   1.876 -0.0551 -0.2741 -0.2381
  750SOL    HW1 2249   1.265   0.453   1.967  0.8784  0.1258  1.3399
  750SOL    HW2 2250   1.244   0.427   1.812  0.8099 -0.2783  0.4142
  751SOL     OW 2251   0.037   1.292   0.694  0.3461  0.2476 -0.1600
  751SOL    HW1 2252  -0.014   1.344   0.622  0.0237 -1.1156  3.4170
  751SOL    HW2 2253   0.088   1.213   0.659  0.9404  0.3425 -0.2340
  752SOL     OW 2254   2.824   2.767   0.948 -0.4621 -0.0624 -0.0761
  752SOL    HW1 2255   2.797   2.865   0.943  0.6370  1.2762  2.5068
  752SOL    HW2 2256   2.928   2.761   0.957 -1.0123 -0.2467  2.7450
  753SOL     OW 2257   1.270   2.538   1.189  0.3751  0.1025 -0.1767
  753SOL    HW1 2258   1.172   2.567   1.189  1.3092 -0.2574 -1.1271
  753SOL    HW2 2259   1.283   2.473   1.116 -1.8247  0.7340 -0.3520
  754SOL     OW 2260   2.988   2.420   1.739 -0.3610 -0.0835  0.7099
  754SOL    HW1 2261   3.024   2.512   1.748  1.1369  1.1326 -2.0131
  754SOL    HW2 2262   3.043   2.354   1.797  0.6824  0.1759 -0.0933
  755SOL     OW 2263   2.280   1.140   0.236  0.1607  0.0101  0.1493
  755SOL    HW1 2264   2.355   1.105   0.296  0.9407  0.1352 -1.9603
  755SOL    HW2 2265   2.312   1.162   0.142 -0.0304  1.9296  2.1450
  756SOL     OW 2266   1.588   2.075   0.080 -0.2247  0.1644 -0.1045
  756SOL    HW1 2267   1.668   2.060   0.141 -0.9383 -0.2869 -1.8744
  756SOL    HW2 2268   1.517   1.995   0.090 -0.9270  3.7889  1.3717
  757SOL     OW 2269   2.248   1.491   0.096 -0.1542 -0.0630  0.8807
  757SOL    HW1 2270   2.257   1.406   0.041  3.1261  0.7356 -0.5004
  757SOL    HW2 2271   2.345   1.524   0.115 -0.8017 -0.6447  1.5389
  758SOL     OW 2272   2.062   0.794   1.816  0.0884  0.1866  0.0134
  758SOL    HW1 2273   2.025   0.701   1.800 -1.2120 -1.0438 -2.0306
  758SOL    HW2 2274   2.093   0.828   1.725  1.2646  2.8409 -0.4205
  759SOL     OW 2275   2.745   0.469   1.436  0.2170 -0.1244  0.5029
  759SOL    HW1 2276   2.792   0.544   1.384  0.3058 -1.0531 -0.7871
  759SOL    HW2 2277   2.744   0.494   1.536 -1.3471 -0.9301  0.8464
  760SOL     OW 2278   0.553   1.585   1.553  0.0305  0.3140 -0.1292
  760SOL    HW1 2279   0.532   1.488   1.525  2.5134 -0.9574  0.3177
  760SOL    HW2 2280   0.475   1.641   1.587 -0.7229  1.4021  0.7461
  761SOL     OW 2281   0.382   0.946   0.122  0.2261 -0.5050 -0.4311
  761SOL    HW1 2282   0.288   0.910   0.094  0.5331 -0.9413 -0.0912
  761SOL    HW2 2283   0.438   0.982   0.042  3.3247  0.3535  1.0049
  762SOL     OW 2284   0.931   1.968   1.317 -0.7255  0.8648  0.4305
  762SOL    HW1 2285   0.908   2.008   1.412  1.6785  0.0887  0.5671
  762SOL    HW2 2286   0.852   1.975   1.248 -1.2383 -0.7015  0.4644
  763SOL     OW 2287   1.824   0.656   1.414 -0.4087 -0.0227  0.0670
  763SOL    HW1 2288   1.867   0.562   1.397 -0.8782  1.4767 -0.3880
  763SOL    HW2 2289   1.779   0.666   1.507  0.0568 -1.2451  0.8721
  764SOL     OW 2290   3.016   0.170   2.365  0.1415 -0.3655 -0.2048
  764SOL    HW1 2291   2.976   0.096   2.312  1.6133 -1.0126  0.3553
  764SOL    HW2 2292   2.966   0.177   2.456  0.4812 -0.2861 -0.2822
  765SOL     OW 2293   0.723   3.075   1.764  0.2520 -0.3983  0.3205
  765SOL    HW1 2294   0.639   3.135   1.760 -4.7704  0.9865 -0.7153
  765SOL    HW2 2295   0.702   2.984   1.802 -1.0051  2.7927 -3.2793
  766SOL     OW 2296   0.003   1.917   2.174 -0.1577 -0.8282 -0.4646
  766SOL    HW1 2297   0.089   1.960   2.216  0.7310  0.9019  1.7209
  766SOL    HW2 2298  -0.050   1.872   2.244  0.6832 -2.9427 -0.4820
  767SOL     OW 2299   1.402   0.997   1.744  0.0075 -0.5304 -0.1448
  767SOL    HW1 2300   1.336   1.014   1.667  1.3407  0.9161  1.4055
  767SOL    HW2 2301   1.369   0.922   1.803  0.8537  3.9384  0.5702
  768SOL     OW 2302   1.508   1.849   0.369 -0.0607  0.2848  0.1078
  768SOL    HW1 2303   1.519   1.944   0.402 -1.1016  2.5297 -1.2692
  768SOL    HW2 2304   1.439   1.795   0.423  2.2410  3.4952 -1.3580
  769SOL     OW 2305   0.578   1.898   0.717  0.7766 -0.1846  0.1105
  769SOL    HW1 2306   0.646   1.842   0.667  0.3949 -0.2098  2.7529
  769SOL    HW2 2307   0.518   1.836   0.768  3.0437 -0.8679 -0.9954
  770SOL     OW 2308   1.631   0.732   2.457 -0.1116 -0.6310  0.4356
  770SOL    HW1 2309   1.696   0.803   2.484 -2.7401 -1.0834  2.1729
  770SOL    HW2 2310   1.669   0.638   2.478 -1.6749  0.1583 -1.5369
  771SOL     OW 2311   2.227   2.462   2.232  0.2628  0.3715  0.6538
  771SOL    HW1 2312   2.163   2.433   2.306 -3.0911 -2.4993  0.9431
  771SOL    HW2 2313   2.175   2.494   2.150 -1.3068  1.6911 -4.4654
  772SOL     OW 2314   2.764   1.328   1.771  0.3822 -0.4796  0.9083
  772SOL    HW1 2315   2.821   1.294   1.695 -0.4670 -1.1426 -2.3394
  772SOL    HW2 2316   2.744   1.256   1.843 -2.4861  0.9084 -2.3719
  773SOL     OW 2317   0.884   1.233   1.163  0.1834  0.0680  0.8900
  773SOL    HW1 2318   0.937   1.312   1.127  2.0152  1.4103 -1.6633
  773SOL    HW2 2319   0.845   1.260   1.256 -2.3244 -0.9079 -1.6330
  774SOL     OW 2320   0.738   0.368   2.930  0.3656  0.4508 -0.0354
  774SOL    HW1 2321   0.755   0.404   3.023  0.7995 -2.7926 -2.5574
  774SOL    HW2 2322   0.830   0.328   2.899 -0.4529 -1.6208  2.3669
  775SOL     OW 2323   1.220   2.281   0.222  0.2562  0.3065  0.3647
  775SOL    HW1 2324   1.258   2.267   0.314  3.4086  1.4823 -1.1980
  775SOL    HW2 2325   1.143   2.218   0.196 -0.6961 -0.6212 -1.9697
  776SOL     OW 2326   0.031   1.118   1.280  0.0716 -0.2848  0.1451
  776SOL    HW1 2327  -0.068   1.110   1.260 -0.1991  0.8419  2.5592
  776SOL    HW2 2328   0.080   1.029   1.279 -0.1225  0.1034 -0.0705
  777SOL     OW 2329   2.444   2.127   2.574 -0.3714 -0.5235  0.2225
  777SOL    HW1 2330   2.434   2.220   2.609  2.2037 -0.4390 -2.4000
  777SOL    HW2 2331   2.537   2.089   2.593  2.1185 -1.9589 -4.2153
  778SOL     OW 2332   1.949   1.007   1.929 -0.4774  0.1172  0.0142
  778SOL    HW1 2333   1.876   0.984   1.995 -0.0683  0.8278 -1.9958
  778SOL    HW2 2334   1.990   0.913   1.910  0.7746 -1.7887  0.1880
  779SOL     OW 2335   2.839   1.278   0.632  0.1085  0.4903 -0.5252
  779SOL    HW1 2336   2.793   1.328   0.711 -0.3117 -0.3459  1.1248
  779SOL    HW2 2337   2.902   1.339   0.585  0.0844  0.7715 -1.3825
  780SOL     OW 2338   1.695   0.228   3.054 -0.0216  0.2926  0.3210
  780SOL    HW1 2339   1.608   0.221   3.109 -1.9078 -0.3518 -0.5880
  780SOL    HW2 2340   1.766   0.267   3.115 -0.5419  0.1933 -1.3783
  781SOL     OW 2341   2.664   1.780   1.592 -0.6353  0.5747 -0.0292
  781SOL    HW1 2342   2.766   1.773   1.603  1.7206  0.1972 -2.7635
  781SOL    HW2 2343   2.621   1.872   1.603  1.5885  0.1137  3.4092
  782SOL     OW 2344   2.867   2.107   0.037  0.0751  0.3462  0.4624
  782SOL    HW1 2345   2.896   2.009   0.013 -2.3105  1.9980  1.5561
  782SOL    HW2 2346   2.766   2.118   0.028 -0.2258 -0.1427  0.5543
  783SOL     OW 2347   0.640   1.167   0.705  0.1108 -0.2623 -0.6090
  783SOL    HW1 2348   0.688   1.218   0.630 -1.1828  0.3457  2.2322
  783SOL    HW2 2349   0.698   1.170   0.788 -2.0587 -1.2829  0.8276
  784SOL     OW 2350   2.184   1.715   3.050  0.3595 -0.0928  0.6975
  784SOL    HW1 2351   2.182   1.627   3.106 -0.0544  2.4165  1.9452
  784SOL    HW2 2352   2.191   1.683   2.953  1.2308  2.3487  0.6097
  785SOL     OW 2353   1.869   2.859   0.400 -0.4021  0.2798  0.1896
  785SOL    HW1 2354   1.877   2.860   0.300  2.3559  0.9839  0.5446
  785SOL    HW2 2355   1.781   2.829   0.442  1.5592 -1.1789  1.8868
  786SOL     OW 2356   0.704   2.037   2.578 -0.2563  0.4531  0.1773
  786SOL    HW1 2357   0.802   2.028   2.562  1.9314  2.7559  0.7924
  786SOL    HW2 2358   0.659   2.060   2.492 -0.2596  1.0551  2.6889
  787SOL     OW 2359   1.580   0.442   0.972  0.3197 -0.0437  0.1043
  787SOL    HW1 2360   1.619   0.491   1.047  0.2436  1.1242  1.6069
  787SOL    HW2 2361   1.482   0.468   0.958  0.8637  1.3835 -1.4316
  788SOL     OW 2362   0.706   1.348   2.902  0.3328 -0.4015 -0.4944
  788SOL    HW1 2363   0.748   1.280   2.842  0.4008 -0.4796 -2.0643
  788SOL    HW2 2364   0.712   1.447   2.875 -1.0007  2.7492  1.5027
  789SOL     OW 2365   2.624   1.700   1.169  0.3091 -0.0708  0.1743
  789SOL    HW1 2366   2.648   1.650   1.256 -1.2443 -1.0724 -1.2599
  789SOL    HW2 2367   2.579   1.787   1.192 -1.6109  0.8625  1.8482
  790SOL     OW 2368   1.331   2.930   2.010 -0.2398  0.6343 -0.0623
  790SOL    HW1 2369   1.324   2.858   1.933 -0.9856 -1.8203  0.6723
  790SOL    HW2 2370   1.421   2.931   2.052  0.3702  0.3950 -1.3486
  791SOL     OW 2371   1.051   0.724   0.015 -0.2734  0.1990 -0.6036
  791SOL    HW1 2372   1.016   0.798  -0.046 -1.4169 -1.2048 -0.1046
  791SOL    HW2 2373   0.990   0.707   0.099  3.1608 -1.7368  3.1240
  792SOL     OW 2374   1.322   0.423   1.239  0.1075  0.6117 -0.6650
  792SOL    HW1 2375   1.306   0.458   1.142 -0.1198 -0.8542 -0.7528
  792SOL    HW2 2376   1.370   0.336   1.242 -0.6184 -2.9357  0.7353
  793SOL     OW 2377   0.657   2.457   0.614 -0.1158 -0.2594 -0.5895
  793SOL    HW1 2378   0.670   2.561   0.600 -1.9520 -0.2396  0.2613
  793SOL    HW2 2379   0.612   2.443   0.704 -2.0523 -0.6653  2.4146
  794SOL     OW 2380   0.490   1.280   1.760 -0.2223  0.0672  0.1692
  794SOL    HW1 2381   0.511   1.221   1.681  0.2557 -1.4604 -0.9898
  794SOL    HW2 2382   0.577   1.322   1.800  2.0562  0.3572  0.6705
  795SOL     OW 2383   0.145   0.812   2.420  0.0145 -0.0779 -0.2185
  795SOL    HW1 2384   0.239   0.777   2.422  1.9959  0.7055 -3.5005
  795SOL    HW2 2385   0.137   0.912   2.391  1.8245  2.1887  1.0120
  796SOL     OW 2386   1.739   1.394   2.063 -0.2248  0.2507  0.1873
  796SOL    HW1 2387   1.779   1.439   1.982 -1.4969 -2.1657  2.1309
  796SOL    HW2 2388   1.806   1.410   2.138  3.2840 -2.0646  0.7334
  797SOL     OW 2389   0.145   0.042   2.397 -0.3518 -0.3471 -1.0154
  797SOL    HW1 2390   0.131  -0.038   2.334 -2.4457  1.5043 -0.8359
  797SOL    HW2 2391   0.068   0.111   2.382 -0.1797  0.0962 -3.2143
  798SOL     OW 2392   0.307   2.181   1.794  0.0117 -0.5474  0.4783
  798SOL    HW1 2393   0.289   2.258   1.727 -0.8748  0.7938 -0.1212
  798SOL    HW2 2394   0.367   2.216   1.871  0.8871 -2.8418 -4.4793
  799SOL     OW 2395   2.245   2.446   2.895 -0.1833 -0.5998  0.0684
  799SOL    HW1 2396   2.255   2.354   2.936  0.1474  1.1844  2.5155
  799SOL    HW2 2397   2.157   2.455   2.852 -1.7316  0.5039 -0.2401
  800SOL     OW 2398   1.039   1.981   0.330 -0.4189  0.0540 -1.3092
  800SOL    HW1 2399   0.941   1.993   0.354 -2.6612 -0.1750  0.9552
  800SOL    HW2 2400   1.090   1.943   0.409  1.2470  1.3652  2.6001
  801SOL     OW 2401   2.957   0.357   0.922  0.2352 -0.0868 -0.3454
  801SOL    HW1 2402   2.879   0.395   0.871  0.7249  0.8344 -1.4389
  801SOL    HW2 2403   3.037   0.335   0.862  0.4125  2.3487 -1.7038
  802SOL     OW 2404   2.690   1.463   0.773  0.0086  0.5100 -0.1456
  802SOL    HW1 2405   2.657   1.548   0.729  0.7930 -1.0889 -0.0703
  802SOL    HW2 2406   2.750   1.492   0.849  0.5909  0.2479 -0.0033
  803SOL     OW 2407   1.805   1.362   3.003 -0.1967 -0.0192 -0.0344
  803SOL    HW1 2408   1.813   1.266   2.967  1.3397  1.5561  0.0748
  803SOL    HW2 2409   1.839   1.434   2.938  1.1740 -2.4430 -3.5733
  804SOL     OW 2410   2.209   1.976   0.246  0.2240 -0.1004 -1.0901
  804SOL    HW1 2411   2.153   1.891   0.226  1.5042 -0.1102  0.7628
  804SOL    HW2 2412   2.159   2.060   0.222 -2.2819 -0.9344 -0.2209
  805SOL     OW 2413   2.667   1.683   2.237 -1.0683 -0.9647 -0.4315
  805SOL    HW1 2414   2.583   1.741   2.248 -0.3076 -0.9158  0.2428
  805SOL    HW2 2415   2.703   1.694   2.142  1.0874  0.0215 -0.1639
  806SOL     OW 2416   2.990   0.119   0.155  0.0136 -0.6567 -1.0203
  806SOL    HW1 2417   2.932   0.036   0.178  1.3332  0.9419 -2.0809
  806SOL    HW2 2418   2.994   0.140   0.056 -2.4407  0.6420  1.5498
  807SOL     OW 2419   2.212   1.522   2.836  0.5108 -0.4078  0.1018
  807SOL    HW1 2420   2.240   1.434   2.876  1.2878 -2.1701 -0.8906
  807SOL    HW2 2421   2.175   1.500   2.747  0.3344  0.4117  0.7423
  808SOL     OW 2422   0.243   1.504   0.653 -0.3312 -0.0649  0.0720
  808SOL    HW1 2423   0.327   1.494   0.711 -0.7361 -0.2910 -0.0606
  808SOL    HW2 2424   0.176   1.426   0.672  2.2762  1.9628  0.4501
  809SOL     OW 2425   2.356   0.767   0.149 -0.2165 -0.0032 -0.7453
  809SOL    HW1 2426   2.402   0.836   0.088  1.6735  0.2112  0.1499
  809SOL    HW2 2427   2.383   0.673   0.127  1.7363  2.4824  0.8245
  810SOL     OW 2428   0.814   1.045   0.066  0.1784 -0.5685 -1.2270
  810SOL    HW1 2429   0.723   1.041   0.025  1.9885  0.0635 -0.8210
  810SOL    HW2 2430   0.878   0.997   0.003 -1.2009 -1.0111 -0.6110
  811SOL     OW 2431   1.466   2.474   0.710  0.0634  0.0915  0.1923
  811SOL    HW1 2432   1.545   2.515   0.657  0.6456 -0.1412 -1.1637
  811SOL    HW2 2433   1.382   2.476   0.653 -0.6794  0.0990  1.8372
  812SOL     OW 2434   0.651   2.107   2.316  0.3640 -0.4205  0.0743
  812SOL    HW1 2435   0.634   2.199   2.356  0.7838 -1.0191  0.9014
  812SOL    HW2 2436   0.582   2.091   2.243 -4.0572  0.4734 -0.0237
  813SOL     OW 2437   0.945   0.113   1.852  0.7241  0.2578  0.1436
  813SOL    HW1 2438   0.928   0.099   1.949 -1.2958  0.9158 -0.1092
  813SOL    HW2 2439   0.871   0.067   1.791 -1.9589 -0.8235 -0.0837
  814SOL     OW 2440   1.211   2.810   2.884 -0.5585  0.2109 -0.4953
  814SOL    HW1 2441   1.176   2.734   2.941 -1.5123 -0.3685  1.8662
  814SOL    HW2 2442   1.298   2.786   2.844 -1.1572 -0.8654 -1.6558
  815SOL     OW 2443   0.627   0.786   1.903 -0.1525  0.0689  0.6252
  815SOL    HW1 2444   0.726   0.775   1.926 -1.6694 -0.4522  0.8146
  815SOL    HW2 2445   0.564   0.767   1.980  1.9527  1.4805 -0.9729
  816SOL     OW 2446   2.365   0.215   2.546  0.0377 -0.5331 -0.1793
  816SOL    HW1 2447   2.345   0.266   2.456  0.4609 -0.8515  0.6847
  816SOL    HW2 2448   2.461   0.228   2.575  2.0941 -2.2864 -1.2148
  817SOL     OW 2449   1.850   0.868   0.140  0.1788 -0.6269 -0.2311
  817SOL    HW1 2450   1.836   0.868   0.237  1.2243 -0.3486 -0.9041
  817SOL    HW2 2451   1.948   0.887   0.117 -0.6362  0.9261  1.4595
  818SOL     OW 2452   2.307   0.161   0.528 -0.2054 -0.3732 -0.2132
  818SOL    HW1 2453   2.226   0.205   0.490 -1.1325 -1.4839 -0.9272
  818SOL    HW2 2454   2.368   0.228   0.568 -1.7160 -1.7520  0.9020
  819SOL     OW 2455   2.546   1.720   0.338 -0.1834  0.7570 -0.7620
  819SOL    HW1 2456   2.505   1.668   0.418  0.3183 -1.7919  2.2734
  819SOL    HW2 2457   2.649   1.731   0.342 -2.0832 -0.1369  1.4529
  820SOL     OW 2458   2.995   1.647   0.169  0.2844  0.0074  0.6138
  820SOL    HW1 2459   3.088   1.685   0.188  1.5767 -0.2299  3.2308
  820SOL    HW2 2460   2.996   1.545   0.164 -1.1964 -0.7485  0.1212
  821SOL     OW 2461   0.708   2.457   1.608 -0.0386 -0.3694 -0.7682
  821SOL    HW1 2462   0.715   2.379   1.674 -1.5127  0.8824 -0.0388
  821SOL    HW2 2463   0.792   2.513   1.603 -1.5491  0.0599  0.7894
  822SOL     OW 2464   2.362   2.397   2.564 -0.9653  0.4100  0.2131
  822SOL    HW1 2465   2.448   2.439   2.522 -0.2669 -2.0641  2.8352
  822SOL    HW2 2466   2.290   2.468   2.576  0.9053 -0.8802  1.9083
  823SOL     OW 2467   1.685   2.975   2.788  0.7200 -0.1429  0.0144
  823SOL    HW1 2468   1.750   3.039   2.835 -0.9052 -0.3111  2.4948
  823SOL    HW2 2469   1.718   2.881   2.799  3.6402  0.4756 -0.7509
  824SOL     OW 2470   2.498   1.909   1.922 -0.3481 -0.2849 -0.2172
  824SOL    HW1 2471   2.490   1.919   1.819  1.7224 -0.1781  1.3176
  824SOL    HW2 2472   2.476   2.001   1.962 -0.5522 -0.8646  0.8581
  825SOL     OW 2473   2.926   1.830   2.620  0.9447 -0.3677  0.4917
  825SOL    HW1 2474   2.860   1.844   2.698  0.5651 -3.0574  1.3056
  825SOL    HW2 2475   3.017   1.811   2.659 -2.4068 -0.8819 -1.3385
  826SOL     OW 2476   2.712   1.421   2.242 -0.0937  0.3186 -0.1445
  826SOL    HW1 2477   2.665   1.363   2.310 -2.3062  1.8598  2.6847
  826SOL    HW2 2478   2.677   1.518   2.247 -1.5345  0.4097  3.4596
  827SOL     OW 2479   2.805   2.764   1.656  0.4984 -0.1252 -0.2272
  827SOL    HW1 2480   2.795   2.864   1.672  1.0792 -0.3745  2.2138
  827SOL    HW2 2481   2.866   2.719   1.728  0.2126  2.1780  3.0315
  828SOL     OW 2482   0.009   3.054   1.694  0.5254  0.4997 -0.6238
  828SOL    HW1 2483   0.029   2.989   1.614 -0.5164  0.0901 -0.6720
  828SOL    HW2 2484   0.022   3.157   1.679 -0.7079  1.9239 -0.1723
  829SOL     OW 2485   2.189   1.408   2.168 -0.0207 -0.1609  0.3117
  829SOL    HW1 2486   2.091   1.428   2.192 -2.0296 -2.5174  2.9046
  829SOL    HW2 2487   2.252   1.424   2.251 -2.0313 -0.5959  0.8656
  830SOL     OW 2488   1.878   0.849   1.061  0.3515  0.0268  0.2329
  830SOL    HW1 2489   1.843   0.821   0.969 -0.7689  0.6530  4.1574
  830SOL    HW2 2490   1.898   0.948   1.068  1.9198 -0.0479 -3.0264
  831SOL     OW 2491   0.077   1.302   0.969  0.2641 -0.7470  0.5836
  831SOL    HW1 2492   0.048   1.344   0.883 -1.1684  1.0172 -1.1049
  831SOL    HW2 2493   0.171   1.261   0.956  0.7201  1.9533  1.3650
  832SOL     OW 2494   1.770   2.474   1.866 -0.3946  0.3938  0.3330
  832SOL    HW1 2495   1.785   2.374   1.875 -1.5271 -1.5829 -0.0914
  832SOL    HW2 2496   1.672   2.493   1.856 -0.9817 -0.3589  1.0316
  833SOL     OW 2497   2.895   3.061   2.240 -0.0729  0.3722  0.1616
  833SOL    HW1 2498   2.845   2.991   2.299 -1.8190  0.4603 -1.0030
  833SOL    HW2 2499   2.846   3.070   2.148  0.6202 -0.8774  2.6400
  834SOL     OW 2500   0.795   0.920   1.709 -0.2504  0.2699  0.0186
  834SOL    HW1 2501   0.777   0.889   1.609 -2.0195 -4.6793  1.6130
  834SOL    HW2 2502   0.727   0.892   1.775 -1.5353  3.9109  2.5181
  835SOL     OW 2503   2.913   0.430   2.674  0.2575 -0.4247 -0.2109
  835SOL    HW1 2504   2.902   0.356   2.746  2.4196 -0.4387  0.4752
  835SOL    HW2 2505   2.877   0.396   2.586 -0.2287 -2.4691 -0.7021
  836SOL     OW 2506   1.217   2.500   0.575 -0.4273  0.0580 -0.2194
  836SOL    HW1 2507   1.117   2.482   0.578  0.5536  1.5620 -0.2093
  836SOL    HW2 2508   1.235   2.590   0.528 -1.2301  0.1667 -1.2356
  837SOL     OW 2509   2.178   1.175   1.432  1.0343 -0.6501  0.5343
  837SOL    HW1 2510   2.119   1.230   1.366  2.3160 -0.4325  2.3056
  837SOL    HW2 2511   2.170   1.073   1.420  2.2721 -0.5467  3.5534
  838SOL     OW 2512   1.508   1.221   2.888  0.3434  0.2091 -0.3688
  838SOL    HW1 2513   1.576   1.157   2.844  0.2754 -1.8579 -1.6049
  838SOL    HW2 2514   1.552   1.307   2.910  1.1965 -0.2329  0.4035
  839SOL     OW 2515   0.233   2.177   2.512 -0.3541  0.1531  0.7539
  839SOL    HW1 2516   0.220   2.277   2.527  0.4855 -2.2114 -1.6718
  839SOL    HW2 2517   0.155   2.130   2.561 -0.3568 -1.2580  0.4359
  840SOL     OW 2518   0.077   2.360   2.813  0.3793  0.5291 -0.5031
  840SOL    HW1 2519   0.080   2.357   2.709 -0.6967 -0.3730 -0.7690
  840SOL    HW2 2520   0.007   2.296   2.845 -0.2061  1.5545  0.0979
  841SOL     OW 2521   1.419   1.783   2.812  0.1493  0.0130  0.5512
  841SOL    HW1 2522   1.426   1.707   2.742 -0.4784  0.4857 -0.0220
  841SOL    HW2 2523   1.469   1.765   2.897 -2.9912 -1.3460 -1.7710
  842SOL     OW 2524   1.383   1.136   2.154 -0.9374  1.3195  0.5043
  842SOL    HW1 2525   1.342   1.209   2.208  0.3803 -2.9581  0.5192
  842SOL    HW2 2526   1.341   1.046   2.176  0.7798  0.0486  0.9213
  843SOL     OW 2527   1.271   2.870   0.280 -0.1409 -0.1209 -0.2232
  843SOL    HW1 2528   1.325   2.801   0.338 -0.6585 -2.7787 -0.0244
  843SOL    HW2 2529   1.181   2.830   0.264 -0.9924 -0.4735 -1.1539
  844SOL     OW 2530   2.579   0.047   2.740 -1.0297  0.1488  0.0496
  844SOL    HW1 2531   2.588   0.146   2.724  0.1513 -0.5390 -0.1470
  844SOL    HW2 2532   2.637   0.009   2.814  1.2768 -0.2993  2.5860
  845SOL     OW 2533   2.583   0.046   1.370 -0.1906  0.5674 -0.0007
  845SOL    HW1 2534   2.583   0.136   1.325 -1.5290  0.7531  0.4065
  845SOL    HW2 2535   2.534  -0.016   1.305  0.4955  0.5816  1.6344
  846SOL     OW 2536   0.222   2.062   2.253  0.5189 -0.0037  0.6570
  846SOL    HW1 2537   0.318   2.054   2.213 -0.9507  1.0524 -0.4840
  846SOL    HW2 2538   0.230   2.082   2.355  1.1490  0.7281 -0.1357
  847SOL     OW 2539   1.772   0.210   1.519  0.3173 -0.1373 -0.1836
  847SOL    HW1 2540   1.743   0.216   1.614 -1.2430  0.8681 -0.0021
  847SOL    HW2 2541   1.847   0.139   1.508 -0.7060 -1.9248 -2.1492
  848SOL     OW 2542   2.855   1.024   3.070 -0.0770 -0.4244  0.3763
  848SOL    HW1 2543   2.897   0.994   2.984  1.4800 -1.4764 -0.1970
  848SOL    HW2 2544   2.755   1.048   3.062  0.0378 -1.0212  2.1945
  849SOL     OW 2545   0.510   0.522   2.993 -0.4650 -0.2196 -0.0087
  849SOL    HW1 2546   0.580   0.451   2.983 -3.1262 -1.6551  0.7799
  849SOL    HW2 2547   0.484   0.529   3.095  3.1312  0.0911 -2.4538
  850SOL     OW 2548   0.307   2.707   0.624 -0.3939 -0.1499  0.1148
  850SOL    HW1 2549   0.278   2.627   0.567 -1.9589  1.4118 -1.8330
  850SOL    HW2 2550   0.322   2.676   0.718  0.4353  0.0704  2.5060
  851SOL     OW 2551   1.686   0.009   2.547 -0.1429  0.3078 -0.3676
  851SOL    HW1 2552   1.678  -0.056   2.632  0.0964  0.0010  0.5705
  851SOL    HW2 2553   1.683   0.103   2.583  0.1959 -0.6959 -0.4036
  852SOL     OW 2554   1.510   1.789   2.241  0.4827  0.0623  0.1037
  852SOL    HW1 2555   1.482   1.880   2.214 -1.6052 -0.1992  0.3807
  852SOL    HW2 2556   1.463   1.706   2.199  0.6628  0.0498 -3.6691
  853SOL     OW 2557   0.096   0.198   0.306 -0.4195  0.0520  0.2085
  853SOL    HW1 2558   0.156   0.271   0.259  1.8839 -2.3700  2.1729
  853SOL    HW2 2559   0.021   0.173   0.242 -2.1100 -0.2168  2.1316
  854SOL     OW 2560   2.502   0.330   0.602  0.4328 -0.4373 -0.3170
  854SOL    HW1 2561   2.573   0.288   0.543 -1.6655 -0.4753 -0.5636
  854SOL    HW2 2562   2.487   0.429   0.585  0.9610 -2.7775 -0.8833
  855SOL     OW 2563   1.608   2.177   1.153 -0.1413 -0.4934  1.0081
  855SOL    HW1 2564   1.514   2.214   1.151  1.9059 -2.3237 -1.6667
  855SOL    HW2 2565   1.684   2.242   1.143 -2.3663  1.0062 -1.1030
  856SOL     OW 2566   2.736   0.692   0.197 -0.0426  0.0277  0.5343
  856SOL    HW1 2567   2.677   0.615   0.224 -0.2095  1.0497 -1.2258
  856SOL    HW2 2568   2.833   0.662   0.200  0.6091 -1.4508  1.2642
  857SOL     OW 2569   2.137   2.571   2.014  0.4899 -0.3703  0.6274
  857SOL    HW1 2570   2.210   2.645   2.008 -3.2277  2.2795 -1.0719
  857SOL    HW2 2571   2.107   2.542   1.920 -0.8467 -1.6192  0.7230
  858SOL     OW 2572   2.523   2.190   1.310 -0.0630 -0.1879 -0.1878
  858SOL    HW1 2573   2.500   2.288   1.290 -0.4549  2.3635 -0.3547
  858SOL    HW2 2574   2.623   2.175   1.327  0.0148  1.9824  1.5495
  859SOL     OW 2575   0.687   2.171   0.139  0.0712 -0.1514  0.3125
  859SOL    HW1 2576   0.639   2.259   0.136 -1.3929 -1.8502  1.5142
  859SOL    HW2 2577   0.699   2.140   0.237 -1.8981  1.8632  1.3361
  860SOL     OW 2578   2.389   2.443   0.107  0.1002  0.2985  0.5394
  860SOL    HW1 2579   2.304   2.390   0.083 -0.1691 -1.7232  0.6159
  860SOL    HW2 2580   2.463   2.413   0.042  1.5913 -1.0405 -2.5021
  861SOL     OW 2581   2.316   2.964   1.334  0.9746 -0.3545  0.3546
  861SOL    HW1 2582   2.380   2.975   1.253 -1.5650  0.2367 -1.0641
  861SOL    HW2 2583   2.368   2.943   1.417 -0.1500  1.9786 -0.4019
  862SOL     OW 2584   1.434   0.189   2.677 -0.1957  0.1926  0.0481
  862SOL    HW1 2585   1.440   0.085   2.667 -1.2006  0.9127  1.0325
  862SOL    HW2 2586   1.428   0.221   2.771  1.5961 -1.2606 -0.1798
  863SOL     OW 2587   2.998   0.072   2.972  0.0142  0.3620 -0.7578
  863SOL    HW1 2588   3.078   0.020   2.940 -0.7661 -2.7006 -0.4542
  863SOL    HW2 2589   2.917   0.012   2.963  0.3263  0.1902  1.8041
  864SOL     OW 2590   2.687   2.462   1.982  0.7831 -0.3459  0.2044
  864SOL    HW1 2591   2.675   2.477   1.880  1.5561  1.1054  2.6692
  864SOL    HW2 2592   2.600   2.483   2.026  0.7906 -1.5115  0.1803
  865SOL     OW 2593   0.128   2.161   0.272 -0.0501 -0.1359  0.2912
  865SOL    HW1 2594   0.027   2.153   0.286  3.0284  0.8957  0.9460
  865SOL    HW2 2595   0.158   2.118   0.187 -0.3607 -0.2649  1.1115
  866SOL     OW 2596   2.440   0.428   2.948 -0.1006  0.1386  0.1995
  866SOL    HW1 2597   2.397   0.374   2.874  3.2777  1.5735 -1.0332
  866SOL    HW2 2598   2.528   0.469   2.926 -2.1314 -0.3287  1.5389
  867SOL     OW 2599   2.802   2.776   2.367 -0.4174 -0.1986  0.0734
  867SOL    HW1 2600   2.705   2.779   2.405  1.0615  2.5466 -0.9622
  867SOL    HW2 2601   2.865   2.816   2.429 -1.1974  0.4082  0.9958
  868SOL     OW 2602   0.471   2.709   0.880 -0.8239  0.3758 -0.0557
  868SOL    HW1 2603   0.550   2.768   0.883 -1.1677  0.1390 -1.2875
  868SOL    HW2 2604   0.498   2.610   0.874 -1.5275 -0.7284  0.6877
  869SOL     OW 2605   1.405   1.403   0.869  0.5498  1.2377  0.0821
  869SOL    HW1 2606   1.425   1.462   0.790  0.2525  0.7585 -0.4309
  869SOL    HW2 2607   1.352   1.323   0.845 -0.2919 -0.9330 -1.7751
  870SOL     OW 2608   1.859   1.756   1.577  1.1186 -0.3150 -0.1055
  870SOL    HW1 2609   1.859   1.719   1.484  1.6569  0.2459 -0.3431
  870SOL    HW2 2610   1.936   1.714   1.636 -1.3516 -2.5554  1.3396
  871SOL     OW 2611   0.912   2.251   1.172 -0.1918  0.2658 -0.5284
  871SOL    HW1 2612   0.848   2.239   1.249 -1.5341  0.3471  0.8023
  871SOL    HW2 2613   0.905   2.183   1.097  3.6647 -0.7662 -1.3790
  872SOL     OW 2614   1.217   0.669   0.351 -0.2448  0.2149 -0.0173
  872SOL    HW1 2615   1.129   0.704   0.314  2.8848 -2.0900  0.9446
  872SOL    HW2 2616   1.233   0.702   0.446 -0.5113 -0.5045 -0.9458
  873SOL     OW 2617   2.068   0.882   2.954  0.0120  0.8468  0.1149
  873SOL    HW1 2618   2.081   0.920   3.049 -3.1388  0.9569  1.3841
  873SOL    HW2 2619   1.969   0.862   2.940  0.1212  2.6135 -0.6970
  874SOL     OW 2620   0.404   1.774   0.885 -0.0869  0.0804 -0.1829
  874SOL    HW1 2621   0.371   1.697   0.931 -2.2084 -1.6920 -1.6032
  874SOL    HW2 2622   0.450   1.838   0.946  0.0256  0.3351 -3.4140
  875SOL     OW 2623   2.489   2.490   2.811  0.2780  0.1431  0.4768
  875SOL    HW1 2624   2.506   2.568   2.747 -2.6367  1.9234  1.7842
  875SOL    HW2 2625   2.396   2.491   2.844  1.4532  1.7875 -2.6714
  876SOL     OW 2626   1.241   0.444   0.193 -0.6565 -0.0797  0.0563
  876SOL    HW1 2627   1.333   0.422   0.228 -1.1877  0.7297 -0.3715
  876SOL    HW2 2628   1.222   0.540   0.228 -2.4515 -2.7695 -0.0407
  877SOL     OW 2629   0.263   2.953   1.224  0.5279 -0.3892 -0.0958
  877SOL    HW1 2630   0.256   3.034   1.165  1.2831 -1.6661  1.3029
  877SOL    HW2 2631   0.171   2.921   1.252 -0.7156  1.1988 -0.5376
  878SOL     OW 2632   2.025   2.218   2.169  0.0609  0.5815  0.2997
  878SOL    HW1 2633   1.929   2.242   2.144 -3.9136  0.5737 -0.6615
  878SOL    HW2 2634   2.056   2.260   2.256  0.5516  0.6574  0.9096
  879SOL     OW 2635   2.139   1.138   2.295 -0.2253  0.2978  0.0410
  879SOL    HW1 2636   2.170   1.220   2.249 -0.9791  1.1211  0.5243
  879SOL    HW2 2637   2.153   1.056   2.233  0.1662 -2.1369  1.7288
  880SOL     OW 2638   1.293   1.176   0.795 -0.4420  0.2714 -0.2833
  880SOL    HW1 2639   1.315   1.117   0.876 -0.5932 -0.4964  1.3080
  880SOL    HW2 2640   1.266   1.122   0.713 -0.1509  0.0356  0.1624
  881SOL     OW 2641   1.389   1.508   3.048  0.8507 -0.0141 -0.1640
  881SOL    HW1 2642   1.422   1.482   3.138  1.3179  1.6326  0.4662
  881SOL    HW2 2643   1.287   1.492   3.039  0.7069 -4.5689  2.2516
  882SOL     OW 2644   2.262   0.331   1.236  0.1009 -0.0859 -0.0340
  882SOL    HW1 2645   2.336   0.344   1.304  1.1286 -1.5134  1.7507
  882SOL    HW2 2646   2.276   0.387   1.151  0.2307 -0.6186  2.8514
  883SOL     OW 2647   1.889   0.640   3.059 -0.3384 -0.0427 -0.3380
  883SOL    HW1 2648   1.854   0.720   3.117 -0.0193  1.1508 -1.8926
  883SOL    HW2 2649   1.826   0.619   2.983  1.5418  0.6147  0.9270
  884SOL     OW 2650   0.033   0.785   2.667 -0.2066 -0.2671 -0.0845
  884SOL    HW1 2651  -0.065   0.822   2.662 -1.5349  0.3903 -3.6840
  884SOL    HW2 2652   0.081   0.793   2.576  1.7797 -3.6455 -0.4587
  885SOL     OW 2653   0.781   2.035   0.353 -0.0634 -0.2116  0.3894
  885SOL    HW1 2654   0.724   1.954   0.350 -1.4939  0.4832 -0.7159
  885SOL    HW2 2655   0.763   2.090   0.434  0.6740 -1.5897  0.4107
  886SOL     OW 2656   1.326   0.541   2.475  0.0499 -0.0387  0.4364
  886SOL    HW1 2657   1.262   0.477   2.524 -1.4889  2.9533 -1.9968
  886SOL    HW2 2658   1.355   0.623   2.530 -2.1113  0.6144  0.3610
  887SOL     OW 2659   1.873   0.408   1.345  0.2905  0.1614 -0.4558
  887SOL    HW1 2660   1.897   0.356   1.259  0.5643  1.2950  1.5676
  887SOL    HW2 2661   1.804   0.359   1.403 -0.0601 -1.7827 -0.4587
  888SOL     OW 2662   2.738   1.783   1.992  0.4731 -0.1305 -0.2609
  888SOL    HW1 2663   2.753   1.707   1.923 -3.1049  1.3412  1.8735
  888SOL    HW2 2664   2.646   1.827   1.972 -0.7237 -1.0236  0.2362
  889SOL     OW 2665   2.822   2.533   0.813  0.2348 -0.0220  0.1621
  889SOL    HW1 2666   2.827   2.617   0.870 -2.1708 -1.0858 -0.2008
  889SOL    HW2 2667   2.774   2.456   0.859  0.0618  2.1862  0.2404
  890SOL     OW 2668   0.872   1.868   1.698  0.2372  0.1548  0.1562
  890SOL    HW1 2669   0.904   1.962   1.677 -1.1094 -1.5729  0.7992
  890SOL    HW2 2670   0.833   1.830   1.611  2.3287 -1.3346 -1.4609
  891SOL     OW 2671   0.707   1.705   0.562 -0.5391  0.0860  0.4338
  891SOL    HW1 2672   0.653   1.627   0.597 -1.7028 -1.3606  0.5370
  891SOL    HW2 2673   0.675   1.726   0.465 -0.6582 -0.4512 -0.0844
  892SOL     OW 2674   2.457   2.484   1.004 -0.8264 -0.2798 -0.1500
  892SOL    HW1 2675   2.516   2.417   0.955 -0.6453 -0.2686 -1.0237
  892SOL    HW2 2676   2.363   2.494   0.962  2.2254  0.3854  1.7100
  893SOL     OW 2677   0.264   0.353   1.545  0.2348  0.0935 -0.3452
  893SOL    HW1 2678   0.183   0.304   1.586  0.6492  0.5435  0.7886
  893SOL    HW2 2679   0.338   0.285   1.510  1.0339  1.9260 -0.6799
  894SOL     OW 2680   3.060   2.082   0.902 -0.2214 -0.0515 -0.4478
  894SOL    HW1 2681   2.971   2.036   0.916 -2.9256  2.1089 -0.8144
  894SOL    HW2 2682   3.134   2.040   0.958  3.0239 -1.4813 -0.4317
  895SOL     OW 2683   1.354   2.775   1.301  0.0539 -0.1107  0.0397
  895SOL    HW1 2684   1.297   2.814   1.381  0.6357  2.8140  1.1326
  895SOL    HW2 2685   1.321   2.688   1.258 -0.6619  1.5810 -0.1846
  896SOL     OW 2686   0.495   0.306   1.194  0.2034 -0.1969  0.3416
  896SOL    HW1 2687   0.597   0.310   1.217 -1.5941 -1.8818 -1.0841
  896SOL    HW2 2688   0.479   0.230   1.125 -2.4913 -0.8943 -0.3626
  897SOL     OW 2689   1.587   1.109   1.457  0.5947 -0.2391  0.7909
  897SOL    HW1 2690   1.676   1.096   1.507 -0.3974  1.3842  1.6340
  897SOL    HW2 2691   1.548   1.018   1.433  1.6117  1.8710 -0.7844
  898SOL     OW 2692   1.207   1.008   1.536 -0.4429 -0.2236 -0.2741
  898SOL    HW1 2693   1.221   0.906   1.542 -2.2170  1.8248  0.5367
  898SOL    HW2 2694   1.170   1.029   1.442 -0.3967 -2.2597  3.4962
  899SOL     OW 2695   1.357   0.854   0.245 -0.6570 -0.4064  0.7989
  899SOL    HW1 2696   1.434   0.861   0.313 -0.2725  0.6478 -2.6785
  899SOL    HW2 2697   1.292   0.774   0.267  0.0498 -0.8323  1.0421
  900SOL     OW 2698   0.941   0.488   2.451 -0.4637 -0.3064  0.0786
  900SOL    HW1 2699   0.922   0.531   2.363 -1.5900  0.1137  0.1142
  900SOL    HW2 2700   1.001   0.405   2.450 -0.9782 -1.2255 -4.3770
  901SOL     OW 2701   0.401   1.906   3.077  0.0652 -0.2842 -0.5011
  901SOL    HW1 2702   0.375   1.817   3.113  0.2712  1.9123  0.7393
  901SOL    HW2 2703   0.501   1.913   3.076 -0.4557 -2.0194  0.3546
  902SOL     OW 2704   1.802   0.546   0.804  0.6321  0.0711  0.0717
  902SOL    HW1 2705   1.779   0.522   0.706  0.3801  2.4640 -1.1990
  902SOL    HW2 2706   1.735   0.499   0.863  0.0297 -0.6217  2.0993
  903SOL     OW 2707   2.816   1.477   2.600 -0.1347  0.3724 -0.2953
  903SOL    HW1 2708   2.724   1.507   2.579 -0.4369  1.8496  1.7258
  903SOL    HW2 2709   2.850   1.515   2.685 -0.8225  0.8209 -0.4654
  904SOL     OW 2710   1.566   0.812   0.416 -0.3973  0.0756 -0.2939
  904SOL    HW1 2711   1.545   0.724   0.459  0.0974  2.0409  0.3109
  904SOL    HW2 2712   1.667   0.833   0.411  1.5372 -0.5825 -0.1094
  905SOL     OW 2713   2.492   2.879   1.538  0.0997  0.6773 -0.1321
  905SOL    HW1 2714   2.456   2.808   1.602 -3.2985  0.2066 -0.2732
  905SOL    HW2 2715   2.570   2.922   1.588 -1.6993  3.0783 -1.4045
  906SOL     OW 2716   2.162   2.741   0.939  0.2888 -0.2610  0.0698
  906SOL    HW1 2717   2.073   2.729   0.893 -1.7785  2.7775  0.0315
  906SOL    HW2 2718   2.147   2.772   1.036  0.0923  3.1954  4.6948
  907SOL     OW 2719   2.102   1.258   0.392  0.0102 -0.5806 -0.1518
  907SOL    HW1 2720   2.122   1.358   0.401 -0.3309  0.8375 -1.3211
  907SOL    HW2 2721   2.168   1.211   0.330  2.6725  1.0876 -0.9392
  908SOL     OW 2722   1.555   0.342   1.405  0.4759 -0.2012 -0.1816
  908SOL    HW1 2723   1.534   0.287   1.321 -0.6693  2.0488 -1.0122
  908SOL    HW2 2724   1.610   0.280   1.465 -0.1899  1.4071 -2.4109
  909SOL     OW 2725   2.494   2.998   1.143  0.4449  0.1139 -0.6707
  909SOL    HW1 2726   2.513   3.067   1.069  0.6017  0.0952  1.5487
  909SOL    HW2 2727   2.527   2.906   1.109 -1.3373  2.4748  2.1957
  910SOL     OW 2728   2.629   0.299   1.795  0.2654  0.2613  0.0965
  910SOL    HW1 2729   2.560   0.332   1.865 -2.6297  0.9904 -1.3569
  910SOL    HW2 2730   2.596   0.229   1.730 -2.4878 -0.8626  0.3388
  911SOL     OW 2731   2.273   0.239   2.791 -0.6121  0.2910  0.6562
  911SOL    HW1 2732   2.297   0.216   2.694  1.3318 -1.2836  0.1904
  911SOL    HW2 2733   2.185   0.292   2.796  2.3750  0.9731 -0.1480
  912SOL     OW 2734   0.794   1.338   1.389  0.1132 -0.3423 -0.3254
  912SOL    HW1 2735   0.823   1.336   1.489  0.9984  0.7777  0.4873
  912SOL    HW2 2736   0.690   1.347   1.385  0.4799  2.0017 -2.5021
  913SOL     OW 2737   2.446   2.454   1.270  0.0295 -0.5762 -0.5006
  913SOL    HW1 2738   2.474   2.542   1.310  0.2092  0.3086  1.3820
  913SOL    HW2 2739   2.451   2.462   1.167 -0.9548 -0.8567 -0.8079
  914SOL     OW 2740   0.916   0.686   0.889 -0.6518  0.0854 -0.2757
  914SOL    HW1 2741   0.889   0.776   0.850  0.7053 -0.9352 -1.2855
  914SOL    HW2 2742   0.997   0.697   0.949  2.0375  1.0300 -0.2454
  915SOL     OW 2743   0.614   1.996   1.452 -0.0987 -0.4641 -0.5103
  915SOL    HW1 2744   0.567   2.011   1.537  0.2479 -1.5583  0.8182
  915SOL    HW2 2745   0.667   1.912   1.453  2.5719  2.3304 -0.2656
  916SOL     OW 2746   2.026   3.074   1.072  0.0206 -0.4196  0.5233
  916SOL    HW1 2747   2.062   2.980   1.099  1.4693  0.0248  0.2701
  916SOL    HW2 2748   2.051   3.140   1.143  0.2220 -2.6777 -1.0089
  917SOL     OW 2749   1.772   2.352   2.378  0.1280 -0.3386  0.0732
  917SOL    HW1 2750   1.778   2.455   2.379 -1.6455  2.2569 -0.0215
  917SOL    HW2 2751   1.767   2.319   2.282 -0.1148  0.7663  0.8375
  918SOL     OW 2752   1.956   1.957   2.326  0.3240 -0.4331 -0.0336
  918SOL    HW1 2753   2.005   1.989   2.241 -1.9238 -0.6158 -1.4370
  918SOL    HW2 2754   1.893   1.878   2.303 -0.9359  0.6656 -0.6364
  919SOL     OW 2755   0.097   0.443   0.748 -0.5668 -0.2629  0.0012
  919SOL    HW1 2756   0.011   0.467   0.697 -0.5653 -3.8529  2.2483
  919SOL    HW2 2757   0.161   0.530   0.744  0.1135 -2.3045 -3.9904
  920SOL     OW 2758   0.280   0.342   1.945  0.2284 -0.3438  0.3139
  920SOL    HW1 2759   0.292   0.363   2.044 -0.0027  0.2732  0.6346
  920SOL    HW2 2760   0.308   0.249   1.913  1.7176 -2.3514  0.2940
  921SOL     OW 2761   2.855   1.087   1.225  0.2338 -0.5490 -0.4145
  921SOL    HW1 2762   2.818   1.166   1.282 -2.1252  1.3253 -1.0216
  921SOL    HW2 2763   2.806   1.000   1.245  1.1942 -0.0114 -2.6592
  922SOL     OW 2764   2.829   1.877   1.292  0.5734  0.4995  0.2067
  922SOL    HW1 2765   2.931   1.883   1.278  0.9590  2.4550  2.1773
  922SOL    HW2 2766   2.786   1.811   1.226 -0.0825 -2.3981 -0.2501
  923SOL     OW 2767   0.199   2.512   0.459 -0.4080  0.3935 -0.0091
  923SOL    HW1 2768   0.202   2.473   0.364  0.8579 -0.5969 -0.3660
  923SOL    HW2 2769   0.104   2.532   0.494  1.9828  0.2635 -1.7277
  924SOL     OW 2770   1.253   1.290   2.798  0.2242 -1.1440  1.0724
  924SOL    HW1 2771   1.349   1.278   2.833 -1.3926  0.9011 -0.4442
  924SOL    HW2 2772   1.216   1.384   2.811  0.9322  2.7014 -0.2717
  925SOL     OW 2773   2.961   1.423   1.142  0.1940 -0.8343  0.6276
  925SOL    HW1 2774   2.945   1.377   1.229 -0.0998 -0.9568 -1.9227
  925SOL    HW2 2775   3.036   1.370   1.100 -0.7534 -2.5411  0.7163
  926SOL     OW 2776   0.191   0.044   1.030  0.5370  0.5873 -0.0669
  926SOL    HW1 2777   0.154  -0.008   0.951  1.1292 -0.5612 -0.0227
  926SOL    HW2 2778   0.121   0.114   1.066 -0.2022  4.1593  0.4461
  927SOL     OW 2779   3.090   1.600   2.185  0.2916  0.1180 -0.2563
  927SOL    HW1 2780   3.032   1.659   2.125 -0.6396  2.2151 -1.2842
  927SOL    HW2 2781   3.035   1.564   2.268  0.9402  0.5629  1.1037
  928SOL     OW 2782   0.415   0.307   2.618 -0.1421 -0.8207  0.1893
  928SOL    HW1 2783   0.351   0.342   2.689 -1.4996 -0.6005 -0.8999
  928SOL    HW2 2784   0.514   0.339   2.635  1.6861 -3.6859 -0.0592
  929SOL     OW 2785   2.638   2.053   0.984 -0.4341  0.2731 -0.1669
  929SOL    HW1 2786   2.578   2.031   1.065  0.5587  1.9813 -2.6889
  929SOL    HW2 2787   2.715   1.986   0.991  1.5050 -1.3948  0.9333
  930SOL     OW 2788   1.588   2.914   2.118  0.2861  0.2287 -0.1902
  930SOL    HW1 2789   1.654   2.838   2.116 -1.8885  1.4042  0.6755
  930SOL    HW2 2790   1.557   2.928   2.213 -1.5622 -0.1066 -0.1774
  931SOL     OW 2791   2.787   1.037   2.503  0.1821 -0.3129 -0.0428
  931SOL    HW1 2792   2.834   0.978   2.433  1.3234  1.8798  0.7531
  931SOL    HW2 2793   2.690   1.008   2.520  0.1537 -0.9812 -1.4757
  932SOL     OW 2794   2.047   0.382   0.877 -0.5737 -0.2795  0.4700
  932SOL    HW1 2795   1.959   0.413   0.834  0.4003  0.5683 -0.0965
  932SOL    HW2 2796   2.066   0.287   0.851  2.0799 -1.4768  0.6167
  933SOL     OW 2797   2.180   0.982   0.902 -0.2680 -0.0111 -0.2263
  933SOL    HW1 2798   2.264   0.927   0.907 -0.1804  0.1327  1.7824
  933SOL    HW2 2799   2.161   0.991   0.804  1.9723 -1.0685  0.7078
  934SOL     OW 2800   2.538   0.962   2.578  0.2920 -0.4997  1.0033
  934SOL    HW1 2801   2.511   0.865   2.592  0.2567  0.2939 -1.4370
  934SOL    HW2 2802   2.458   1.012   2.538  1.9765  0.2815  0.2830
  935SOL     OW 2803   0.306   1.574   1.092 -0.4022 -0.7257  0.8663
  935SOL    HW1 2804   0.381   1.594   1.155  0.1291 -2.3632 -1.3726
  935SOL    HW2 2805   0.332   1.511   1.014  0.3432  1.5894  3.3527
  936SOL     OW 2806   0.120   3.028   2.901  0.1991 -0.0960 -0.2876
  936SOL    HW1 2807   0.152   2.936   2.933  1.3346 -3.9197 -0.6086
  936SOL    HW2 2808   0.194   3.097   2.908  2.5559 -0.2742 -0.5618
  937SOL     OW 2809   2.964   2.359   2.477 -0.3496 -0.0717 -0.3907
  937SOL    HW1 2810   2.914   2.428   2.535  0.2482  0.4541 -1.4624
  937SOL    HW2 2811   2.935   2.268   2.500  2.0551 -2.2107  0.2864
  938SOL     OW 2812   2.130   2.222   0.129 -0.5607 -0.5265 -0.1079
  938SOL    HW1 2813   2.077   2.238   0.215  0.8279  1.4306 -3.3963
  938SOL    HW2 2814   2.072   2.202   0.050 -0.2835 -1.2866  0.4951
  939SOL     OW 2815   1.490   0.581   1.540  0.6949 -0.1374 -0.3359
  939SOL    HW1 2816   1.573   0.593   1.591 -1.1209 -0.5423  2.3881
  939SOL    HW2 2817   1.495   0.494   1.483  0.9076  1.2503 -0.3922
  940SOL     OW 2818   2.210   2.714   2.968 -0.3186  0.0462 -0.1495
  940SOL    HW1 2819   2.281   2.739   3.037 -0.4156 -0.2343  0.1142
  940SOL    HW2 2820   2.214   2.615   2.943 -2.6138 -2.0848 -1.6458
  941SOL     OW 2821   2.250   2.894   2.350  0.5371 -0.1644 -0.9004
  941SOL    HW1 2822   2.230   2.954   2.269 -0.1565  0.2535 -1.0160
  941SOL    HW2 2823   2.271   2.956   2.424  0.3971  2.2719  0.4429
  942SOL     OW 2824   1.960   0.028   1.490  0.6621 -0.0732  0.1205
  942SOL    HW1 2825   2.032   0.040   1.413  0.0594  1.5731 -0.1581
  942SOL    HW2 2826   1.994  -0.037   1.562 -3.1839 -0.3108  0.5276
  943SOL     OW 2827   0.952   1.384   2.632 -0.1603  0.9443  0.2331
  943SOL    HW1 2828   1.033   1.413   2.678  1.2995 -0.2091 -1.7326
  943SOL    HW2 2829   0.886   1.462   2.612 -3.0127 -3.9307 -1.3712
  944SOL     OW 2830   3.029   0.854   1.464 -0.2239  0.0867 -0.0035
  944SOL    HW1 2831   3.096   0.868   1.387 -2.5585  0.0976 -0.4125
  944SOL    HW2 2832   3.083   0.806   1.540  1.3028  1.0033 -0.0957
  945SOL     OW 2833   2.262   3.048   2.570 -0.1808  0.0598 -0.2712
  945SOL    HW1 2834   2.294   3.145   2.586 -0.0986 -2.0079  1.5502
  945SOL    HW2 2835   2.252   2.988   2.651 -2.6128 -0.1873  0.7099
  946SOL     OW 2836   2.668   1.581   1.422 -0.3951 -0.1838 -0.0182
  946SOL    HW1 2837   2.620   1.502   1.474 -1.1291  3.7295 -2.2224
  946SOL    HW2 2838   2.667   1.664   1.480  1.9415 -1.6013  1.7231
  947SOL     OW 2839   0.656   0.396   2.667 -0.4384 -0.2084  0.1495
  947SOL    HW1 2840   0.673   0.363   2.764 -0.7079 -2.8271 -0.0506
  947SOL    HW2 2841   0.747   0.406   2.622  0.3378 -1.2262  0.7259
  948SOL     OW 2842   2.322   1.533   1.477  0.0340 -0.6338 -0.2782
  948SOL    HW1 2843   2.298   1.443   1.521  0.9189  2.4016  0.8659
  948SOL    HW2 2844   2.364   1.595   1.548 -0.7982 -1.3425 -1.1311
  949SOL     OW 2845   0.142   0.791   0.051 -0.0728  0.0017  0.1076
  949SOL    HW1 2846   0.069   0.859   0.089  1.6598 -2.7058 -3.1242
  949SOL    HW2 2847   0.158   0.818  -0.046 -1.9589  0.0171  0.4599
  950SOL     OW 2848   0.678   3.003   1.310  0.1677 -0.1153  0.0845
  950SOL    HW1 2849   0.669   3.040   1.214 -1.0592  1.8220  0.0731
  950SOL    HW2 2850   0.590   3.009   1.358 -0.0618  1.6186 -3.3791
  951SOL     OW 2851   0.490   1.698   2.217  0.1753  0.1498  0.4614
  951SOL    HW1 2852   0.420   1.694   2.146  2.3000 -0.6062 -1.0526
  951SOL    HW2 2853   0.469   1.780   2.280  0.2802  0.3590  2.3699
  952SOL     OW 2854   0.389   0.814   0.516  0.3290  0.5695 -0.4632
  952SOL    HW1 2855   0.319   0.792   0.446  2.3982 -1.6493 -1.6500
  952SOL    HW2 2856   0.394   0.916   0.532  0.6412  1.4445  0.5633
  953SOL     OW 2857   1.986   1.897   3.042 -0.6051 -0.0772 -0.1456
  953SOL    HW1 2858   1.923   1.846   2.980  0.0808 -1.8676 -0.1061
  953SOL    HW2 2859   2.066   1.839   3.057 -0.1971  3.2825  0.9425
  954SOL     OW 2860   1.762   0.809   0.821  0.0268  0.5031  0.3005
  954SOL    HW1 2861   1.791   0.710   0.816  0.2948 -2.6777 -0.6434
  954SOL    HW2 2862   1.656   0.811   0.806 -2.0500 -2.5367  3.0797
  955SOL     OW 2863   0.727   1.406   0.066  0.8215 -0.8459  0.1957
  955SOL    HW1 2864   0.719   1.388  -0.031  3.6199 -1.4177 -0.9372
  955SOL    HW2 2865   0.794   1.342   0.114  0.2518  1.2146  2.1243
  956SOL     OW 2866   0.155   3.013   1.903 -0.2996  0.2279 -0.5514
  956SOL    HW1 2867   0.106   3.027   1.819  1.7215  0.7590 -1.6659
  956SOL    HW2 2868   0.212   3.090   1.923 -1.2022  2.6671  1.5169
  957SOL     OW 2869   1.432   1.996   2.072 -0.4265  0.0482 -0.1227
  957SOL    HW1 2870   1.510   1.986   2.009 -0.3171 -0.0561  1.0427
  957SOL    HW2 2871   1.345   1.972   2.022 -1.5799  0.4501  0.3136
  958SOL     OW 2872   1.842   1.092   1.560  0.6243  0.2789 -0.6351
  958SOL    HW1 2873   1.915   1.055   1.496 -0.8881  1.6459  0.9170
  958SOL    HW2 2874   1.891   1.150   1.626  0.5963 -0.1883 -0.0369
  959SOL     OW 2875   1.802   1.757   2.226 -0.2034  0.4017 -0.2102
  959SOL    HW1 2876   1.703   1.746   2.219  0.4112 -2.4004 -0.1677
  959SOL    HW2 2877   1.839   1.740   2.130  0.0594 -2.3790  2.6490
  960SOL     OW 2878   1.004   1.348   2.359 -0.7114 -0.5539  0.5360
  960SOL    HW1 2879   0.991   1.357   2.459  2.0496 -0.4490 -1.0228
  960SOL    HW2 2880   0.960   1.426   2.310 -0.9325 -0.6311 -3.2300
  961SOL     OW 2881   2.618   0.719   3.030  0.3511  0.4621 -0.5312
  961SOL    HW1 2882   2.668   0.719   3.123 -1.7564 -0.8873 -2.9267
  961SOL    HW2 2883   2.553   0.793   3.040 -0.2804  1.5127 -1.3361
  962SOL     OW 2884   0.405   1.894   2.401 -0.6823 -0.2196 -0.2898
  962SOL    HW1 2885   0.310   1.855   2.380  0.6500 -0.2644 -1.9395
  962SOL    HW2 2886   0.439   1.869   2.494 -3.2035 -0.4725 -0.2440
  963SOL     OW 2887   2.619   1.365   0.060  0.5212  0.0039 -0.2271
  963SOL    HW1 2888   2.666   1.400  -0.027 -1.3230  0.5036  0.4737
  963SOL    HW2 2889   2.691   1.330   0.124 -1.6472 -0.1157  2.0168
  964SOL     OW 2890   0.968   2.007   2.509 -0.4546 -0.6019 -0.0223
  964SOL    HW1 2891   0.999   2.009   2.605 -0.4259 -0.9798 -1.3963
  964SOL    HW2 2892   0.971   1.914   2.470  1.2683 -1.9294 -1.5693
  965SOL     OW 2893   1.371   1.870   1.379 -0.3100  0.5272  0.3176
  965SOL    HW1 2894   1.298   1.930   1.342  2.6294  1.3167 -3.8848
  965SOL    HW2 2895   1.463   1.910   1.360 -0.9484 -0.6782  2.2845
  966SOL     OW 2896   0.357   1.299   0.221 -0.1046 -0.4889 -0.0976
  966SOL    HW1 2897   0.359   1.392   0.259  1.6614 -0.1224 -0.1318
  966SOL    HW2 2898   0.393   1.234   0.291  0.6249 -0.0592 -0.4031
  967SOL     OW 2899   1.594   2.761   3.080 -0.8345 -0.4935  0.0374
  967SOL    HW1 2900   1.547   2.838   3.126 -0.8389 -0.4104  0.6953
  967SOL    HW2 2901   1.695   2.774   3.075 -0.7493 -0.6874 -0.6954
  968SOL     OW 2902   1.208   0.935   2.476 -0.7280  0.0116  0.1358
  968SOL    HW1 2903   1.106   0.926   2.501  2.8512  0.2871 -0.6825
  968SOL    HW2 2904   1.265   0.866   2.520 -0.7119  1.2312  3.2594
  969SOL     OW 2905   0.069   1.307   2.407 -0.3898  0.8804  0.3108
  969SOL    HW1 2906   0.165   1.347   2.409 -1.2897  0.4641  0.2776
  969SOL    HW2 2907  -0.002   1.376   2.380  0.2421 -0.6999  4.8138
  970SOL     OW 2908   2.356   3.011   0.443 -1.2846 -0.2904 -0.6667
  970SOL    HW1 2909   2.302   2.954   0.513  0.1320  0.3938 -1.2177
  970SOL    HW2 2910   2.340   3.110   0.464  0.6646 -1.0567 -0.6570
  971SOL     OW 2911   1.710   2.081   0.728  0.5236  0.1571  0.5410
  971SOL    HW1 2912   1.784   2.052   0.785 -1.4114  1.2085  1.2467
  971SOL    HW2 2913   1.734   2.176   0.694  0.3234  0.0464 -0.4016
  972SOL     OW 2914   0.058   2.084   2.701 -0.4157  0.0305  0.0312
  972SOL    HW1 2915  -0.009   2.124   2.765 -1.2660 -3.0108 -0.0230
  972SOL    HW2 2916   0.046   1.985   2.686  2.1080 -4.5367  1.4098
  973SOL     OW 2917   0.181   3.062   0.434  0.3513 -1.0855  0.6026
  973SOL    HW1 2918   0.171   3.162   0.401 -0.5286  1.3014 -3.5862
  973SOL    HW2 2919   0.193   3.063   0.537  0.1229 -1.6989  2.7562
  974SOL     OW 2920   2.953   0.292   1.465  0.0586  0.3357 -0.0431
  974SOL    HW1 2921   2.910   0.200   1.440 -1.6544  1.2195 -1.7508
  974SOL    HW2 2922   2.881   0.363   1.455  0.9922 -1.0274  0.8553
  975SOL     OW 2923   0.596   0.436   0.918 -0.5114  0.5788  0.1607
  975SOL    HW1 2924   0.520   0.408   0.978 -1.7222  0.2698  1.5867
  975SOL    HW2 2925   0.566   0.452   0.824 -1.4707 -2.6942 -0.0763
  976SOL     OW 2926   1.032   1.426   1.033  0.1404 -0.5493  0.1947
  976SOL    HW1 2927   1.120   1.471   1.054 -0.9175  0.0042  1.2583
  976SOL    HW2 2928   0.959   1.492   1.015 -1.9793  0.4998 -1.5928
  977SOL     OW 2929   1.489   1.842   0.884  0.2304  0.2073 -0.7529
  977SOL    HW1 2930   1.574   1.888   0.861 -1.2650 -0.4039 -1.3389
  977SOL    HW2 2931   1.474   1.763   0.819 -2.6489  1.0681 -0.9893
  978SOL     OW 2932   0.142   1.210   0.076 -0.1463  0.0531 -0.0759
  978SOL    HW1 2933   0.178   1.229  -0.017  1.3489  0.6064  1.0364
  978SOL    HW2 2934   0.207   1.252   0.143 -1.3665  1.4857  0.5268
  979SOL     OW 2935   1.747   1.323   0.189 -0.4090 -0.6097  0.2444
  979SOL    HW1 2936   1.645   1.324   0.195 -3.1407  2.8176  1.0076
  979SOL    HW2 2937   1.774   1.342   0.092  1.2835  1.7242 -1.5567
  980SOL     OW 2938   1.190   2.007   1.239  0.4561  0.4723 -0.4173
  980SOL    HW1 2939   1.211   1.937   1.163  0.8810 -0.4668 -1.8593
  980SOL    HW2 2940   1.090   2.003   1.257  0.9141  0.8322  3.4904
  981SOL     OW 2941   2.556   1.259   2.417  0.0736  0.1741 -0.2651
  981SOL    HW1 2942   2.469   1.223   2.458 -0.2110  0.7927  0.2076
  981SOL    HW2 2943   2.632   1.214   2.467  0.8353 -1.2547 -2.4313
  982SOL     OW 2944   0.622   1.960   1.935 -0.4549 -0.2474  0.1461
  982SOL    HW1 2945   0.641   1.860   1.935 -0.1203  2.0264  1.4685
  982SOL    HW2 2946   0.689   2.008   1.993 -1.2146 -1.0613  5.2600
  983SOL     OW 2947   1.723   2.654   2.116 -0.1127 -0.1307 -0.5176
  983SOL    HW1 2948   1.782   2.641   2.036 -0.3570  1.7816  0.0724
  983SOL    HW2 2949   1.646   2.589   2.118 -2.1283  0.4782  0.9457
  984SOL     OW 2950   2.878   0.136   2.597 -0.3367  0.2963 -0.2838
  984SOL    HW1 2951   2.962   0.082   2.617  2.7808 -0.9606 -0.6437
  984SOL    HW2 2952   2.829   0.141   2.686 -2.9369  2.1900  0.2093
  985SOL     OW 2953   1.476   1.406   1.699  0.1253 -0.9246 -0.0604
  985SOL    HW1 2954   1.444   1.351   1.621  0.1771 -1.1094 -2.5811
  985SOL    HW2 2955   1.436   1.361   1.782  0.7526 -1.3263 -1.7915
  986SOL     OW 2956   1.443   0.906   0.002  0.1735  0.0593  0.7516
  986SOL    HW1 2957   1.536   0.951   0.019  0.0073  1.3474  0.0157
  986SOL    HW2 2958   1.397   0.880   0.084  0.9827 -1.2103 -2.0792
  987SOL     OW 2959   0.432   2.292   2.354  0.1246 -0.4948 -0.2706
  987SOL    HW1 2960   0.358   2.236   2.388  2.7662 -0.4363 -0.1569
  987SOL    HW2 2961   0.421   2.315   2.254 -1.3140  1.7958  0.8682
  988SOL     OW 2962   2.849   0.046   1.455  0.0649  0.3271  0.0408
  988SOL    HW1 2963   2.860   0.002   1.546 -1.8042 -1.2041 -3.7810
  988SOL    HW2 2964   2.760   0.023   1.409  0.4298 -2.5465 -0.9608
  989SOL     OW 2965   2.532   0.082   0.922 -0.3181 -0.5150 -0.3402
  989SOL    HW1 2966   2.458   0.050   0.863  2.5314  0.6069 -0.8164
  989SOL    HW2 2967   2.528   0.184   0.918  0.0311 -0.2513  0.2328
  990SOL     OW 2968   2.860   0.873   2.698 -0.3434 -0.1800 -0.2538
  990SOL    HW1 2969   2.797   0.853   2.776 -0.7907 -0.7735  0.9122
  990SOL    HW2 2970   2.823   0.948   2.642 -1.1116 -0.9370 -1.4839
  991SOL     OW 2971   0.295   0.926   1.000 -0.6084  0.2427  0.0779
  991SOL    HW1 2972   0.353   0.840   0.985 -1.0308 -0.5887  0.5027
  991SOL    HW2 2973   0.199   0.896   0.997  1.1431  1.5130 -1.4888
  992SOL     OW 2974   1.886   1.154   2.347  0.0563 -0.1604  0.3634
  992SOL    HW1 2975   1.815   1.163   2.278 -2.1843  1.5774  1.2998
  992SOL    HW2 2976   1.981   1.144   2.310 -1.3436 -2.6424 -0.1875
  993SOL     OW 2977   0.036   2.510   0.794  0.0376  0.0374 -0.2924
  993SOL    HW1 2978   0.094   2.451   0.731 -1.5259  0.7644 -0.9423
  993SOL    HW2 2979  -0.012   2.443   0.860  1.0327  0.8838  0.9068
  994SOL     OW 2980   3.094   1.819   1.289  0.2798  0.8760  0.5042
  994SOL    HW1 2981   3.069   1.726   1.326 -0.5499 -2.2699 -0.3628
  994SOL    HW2 2982   3.119   1.806   1.191 -2.1506  0.2788  0.4269
  995SOL     OW 2983   2.302   1.255   2.832 -0.1390  0.2822  0.1357
  995SOL    HW1 2984   2.218   1.210   2.804  0.1419  1.5490  0.4994
  995SOL    HW2 2985   2.378   1.233   2.767  0.0616  0.0092 -2.1541
  996SOL     OW 2986   1.784   2.323   0.670  0.1340 -0.1214 -0.4211
  996SOL    HW1 2987   1.883   2.327   0.648  0.6448  0.3973 -3.9382
  996SOL    HW2 2988   1.762   2.395   0.743 -1.1480  1.5699 -1.2523
  997SOL     OW 2989   1.343   1.228   1.901  0.5344  1.0329 -0.2458
  997SOL    HW1 2990   1.383   1.214   1.995  3.9781  1.8907 -1.2317
  997SOL    HW2 2991   1.358   1.156   1.836 -0.8765 -0.0859 -2.2814
  998SOL     OW 2992   2.914   2.292   0.659  0.1792 -0.4857  0.4331
  998SOL    HW1 2993   3.010   2.262   0.657 -1.6481 -3.1633  0.6385
  998SOL    HW2 2994   2.904   2.383   0.697  0.0609 -0.5235  0.6393
  999SOL     OW 2995   0.952   2.885   0.176  0.2939  0.0312 -0.0679
  999SOL    HW1 2996   0.906   2.900   0.084 -1.2630  0.9062 -1.7952
  999SOL    HW2 2997   0.952   2.782   0.209  2.3545 -0.1294 -1.4312
 1000SOL     OW 2998   0.640   0.740   0.102  0.1192  0.1336  0.2151
 1000SOL    HW1 2999   0.677   0.735   0.008  2.3892 -1.7855  2.1099
 1000SOL    HW2 3000   0.573   0.809   0.109 -0.6385 -1.9397 -0.5341
   3.09554   3.09554   3.09554
