1000 SPC/Fw water molecules
 3000
    1SOL     OW    1   1.415   2.835   0.166  0.2908 -0.7329 -0.3423
    1SOL    HW1    2   1.354   2.910   0.135  2.6775  2.8999 -1.3601
    1SOL    HW2    3   1.385   2.793   0.255  3.8213  1.2527 -1.8829
    2SOL     OW    4   1.376   0.638   1.534 -0.5175 -0.6989 -0.6325
    2SOL    HW1    5   1.466   0.644   1.491  1.4705  1.5406  0.2231
    2SOL    HW2    6   1.314   0.715   1.508 -0.3491  0.9020  0.7982
    3SOL     OW    7   0.313   0.190   2.519 -0.4972 -0.8556  0.2209
    3SOL    HW1    8   0.363   0.278   2.497  0.6511  2.1937 -1.3065
    3SOL    HW2    9   0.375   0.125   2.568  2.0407  1.6781 -1.6702
    4SOL     OW   10   1.503   1.732   2.977  0.0214 -0.5036 -0.1275
    4SOL    HW1   11   1.588   1.774   2.956 -0.1388 -1.5880  1.5491
    4SOL    HW2   12   1.494   1.731   3.080 -1.6729 -2.1384  0.2890
    5SOL     OW   13   0.704   1.267   2.292 -0.2629  0.1943  0.1828
    5SOL    HW1   14   0.775   1.196   2.269 -0.8352  4.2496 -0.2876
    5SOL    HW2   15   0.647   1.282   2.210 -3.0403  2.1329  0.8371
    6SOL     OW   16   2.413   1.154   2.265 -0.7421  0.6366  0.5224
    6SOL    HW1   17   2.496   1.128   2.309  0.4779 -0.5504 -0.1846
    6SOL    HW2   18   2.329   1.108   2.300  1.8686  3.9331 -1.9878
    7SOL     OW   19   2.988   0.794   1.226  0.2289 -0.3964  0.0040
    7SOL    HW1   20   2.994   0.769   1.323  1.2792  2.0637 -1.9772
    7SOL    HW2   21   3.004   0.897   1.209 -2.1523  0.4149 -0.8984
    8SOL     OW   22   2.185   2.533   1.825 -0.2451 -0.6839  0.0243
    8SOL    HW1   23   2.124   2.616   1.810  3.5314 -1.0667  0.7645
    8SOL    HW2   24   2.274   2.559   1.868 -4.9347 -2.9538  1.9683
    9SOL     OW   25   0.062   2.810   0.274  0.5778 -0.5721 -0.0017
    9SOL    HW1   26  -0.035   2.766   0.277  0.3195  0.0204  0.8723
    9SOL    HW2   27   0.132   2.751   0.316  0.5544 -3.0620  0.2646
   10SOL     OW   28   0.060   2.591   2.481  0.0334 -0.0889  0.2406
   10SOL    HW1   29   0.051   2.685   2.444 -0.8040 -0.1490 -0.9951
   10SOL    HW2   30   0.151   2.550   2.456  2.3686 -2.5118 -1.5602
   11SOL     OW   31   0.396   1.712   3.053 -0.0216 -0.3263  0.2020
   11SOL    HW1   32   0.420   1.724   3.150  0.8339  0.4452  0.9780
   11SOL    HW2   33   0.309   1.655   3.044  2.0664  0.9009  1.5033
   12SOL     OW   34   1.993   3.017   3.044 -0.1232 -0.2802  0.8545
   12SOL    HW1   35   2.074   2.957   3.055 -1.9506  1.1685  0.1975
   12SOL    HW2   36   1.988   3.087   3.117  1.7527  0.7158 -0.0808
   13SOL     OW   37   0.206   0.548   2.523 -0.3147  0.8271 -0.0320
   13SOL    HW1   38   0.185   0.469   2.585  1.5822  1.0928  0.7889
   13SOL    HW2   39   0.156   0.633   2.549  3.0603  0.5711 -0.5524
   14SOL     OW   40   1.250   0.181   1.556 -0.5433 -0.7636 -0.0701
   14SOL    HW1   41   1.305   0.256   1.596  0.4202 -1.3467 -2.7591
   14SOL    HW2   42   1.209   0.123   1.630 -0.7513 -0.6288  0.7369
   15SOL     OW   43   0.645   1.469   2.483  0.1077  0.1816  0.4989
   15SOL    HW1   44   0.668   1.562   2.448 -0.3435  0.2819 -1.5763
   15SOL    HW2   45   0.655   1.396   2.410 -1.2872 -0.5371 -1.1936
   16SOL     OW   46   1.811   0.782   3.053  0.4856  0.4933  0.1695
   16SOL    HW1   47   1.774   0.765   2.960  0.8839  1.6840 -3.5640
   16SOL    HW2   48   1.764   0.863   3.097  0.0663 -0.8312  0.5510
   17SOL     OW   49   3.074   2.656   1.981  0.0183 -0.6322  0.0430
   17SOL    HW1   50   3.029   2.725   2.043  0.2157  2.0261 -1.5934
   17SOL    HW2   51   3.083   2.560   2.019  1.9096 -1.0450  0.4339
   18SOL     OW   52   1.352   1.338   0.558 -0.1565 -0.2659 -0.1837
   18SOL    HW1   53   1.281   1.272   0.592  0.0258  2.1804 -0.0291
   18SOL    HW2   54   1.368   1.322   0.458 -1.6273 -0.6978  0.1048
   19SOL     OW   55   3.033   0.999   1.811 -0.1215 -0.3335  0.3158
   19SOL    HW1   56   2.970   1.077   1.798 -0.1542  1.5054  0.2152
   19SOL    HW2   57   3.113   1.029   1.874 -2.9133  0.0226  3.5932
   20SOL     OW   58   1.812   1.942   2.575  0.0081  0.3073  0.4224
   20SOL    HW1   59   1.789   2.034   2.535  1.7450  1.0184  0.5949
   20SOL    HW2   60   1.829   1.957   2.672  0.0948 -0.4211 -0.2445
   21SOL     OW   61   1.476   1.816   0.944  0.2105 -0.5329  0.0660
   21SOL    HW1   62   1.516   1.884   0.879 -0.3207 -0.4468  2.8508
   21SOL    HW2   63   1.547   1.758   0.985  1.7468  0.8835 -0.1670
   22SOL     OW   64   1.648   2.229   1.358 -0.6520 -0.0626  0.3512
   22SOL    HW1   65   1.640   2.331   1.382  0.2455 -2.1017 -0.3751
   22SOL    HW2   66   1.655   2.178   1.447  3.0033 -0.2451  3.0171
   23SOL     OW   67   2.855   0.809   1.465 -0.4441 -0.3198 -0.2010
   23SOL    HW1   68   2.785   0.761   1.412 -0.6331  0.6647  3.2539
   23SOL    HW2   69   2.815   0.900   1.486 -0.2222 -1.2117  0.0887
   24SOL     OW   70   1.479   1.227   1.617  0.8273  0.3409  0.1131
   24SOL    HW1   71   1.527   1.289   1.553 -1.8056  0.1957 -1.2685
   24SOL    HW2   72   1.413   1.272   1.682  0.2661 -0.0586 -0.0023
   25SOL     OW   73   1.853   2.947   2.382 -0.0869  0.3483 -0.2801
   25SOL    HW1   74   1.773   2.902   2.434 -0.1773 -3.9153  0.7447
   25SOL    HW2   75   1.851   3.050   2.392 -0.0813 -1.1628 -1.4784
   26SOL     OW   76   0.250   2.645   0.378  0.0913 -0.2855  0.9473
   26SOL    HW1   77   0.330   2.660   0.313 -0.7145 -0.2911 -2.5620
   26SOL    HW2   78   0.278   2.644   0.474 -0.9739  0.5235  1.6522
   27SOL     OW   79   1.191   1.021   0.888  0.3770  0.3227 -0.8249
   27SOL    HW1   80   1.187   0.921   0.909 -1.6204 -1.1433  1.6968
   27SOL    HW2   81   1.150   1.067   0.968 -1.3328  2.0328  0.3090
   28SOL     OW   82   1.894   2.424   1.239  0.9616  0.5183 -0.5959
   28SOL    HW1   83   1.968   2.433   1.167  2.5803 -1.9342  2.0603
   28SOL    HW2   84   1.836   2.511   1.242  1.2840 -1.2447 -1.8116
   29SOL     OW   85   2.284   2.791   2.168 -0.1865 -0.1106 -0.1990
   29SOL    HW1   86   2.339   2.783   2.251 -1.2508  0.1535 -1.1901
   29SOL    HW2   87   2.186   2.801   2.192 -0.6698  0.8249 -1.0457
   30SOL     OW   88   2.923   2.692   1.746 -0.3793 -0.2609 -0.1970
   30SOL    HW1   89   2.977   2.683   1.835 -0.7310  0.3616 -1.7363
   30SOL    HW2   90   2.919   2.605   1.696  1.4349  0.2528  0.5556
   31SOL     OW   91   0.027   1.676   2.361 -0.2385  0.2047 -0.1557
   31SOL    HW1   92   0.047   1.767   2.402 -1.0946  2.6733 -0.3862
   31SOL    HW2   93  -0.007   1.687   2.263  1.3304 -0.8642 -0.1831
   32SOL     OW   94   0.822   2.524   2.147 -0.2210 -0.5240 -0.2094
   32SOL    HW1   95   0.806   2.551   2.244  0.2664  0.5836  2.7485
   32SOL    HW2   96   0.746   2.462   2.123 -2.0039  1.0281  3.4382
   33SOL     OW   97   0.157   0.770   2.937  0.3853  0.4552 -0.3837
   33SOL    HW1   98   0.194   0.832   3.010 -2.0893 -1.6786 -1.9590
   33SOL    HW2   99   0.232   0.709   2.909  0.4060  3.9444 -0.2515
   34SOL     OW  100   2.908   0.366   0.213  0.4523  0.5261 -0.0666
   34SOL    HW1  101   2.956   0.277   0.228 -1.2070 -3.9914  0.0444
   34SOL    HW2  102   2.876   0.364   0.112  3.7531  1.0949 -0.5159
   35SOL     OW  103   2.771   2.327   1.545  0.1234 -0.3710 -0.0048
   35SOL    HW1  104   2.696   2.394   1.549  0.7267 -2.2913  1.3498
   35SOL    HW2  105   2.850   2.355   1.604 -1.1907  3.3073  0.8329
   36SOL     OW  106   2.269   2.882   2.811 -0.2125  0.7477  0.5333
   36SOL    HW1  107   2.234   2.904   2.714  0.7924  0.8158 -0.0076
   36SOL    HW2  108   2.346   2.817   2.821 -0.5342  0.7564 -0.6061
   37SOL     OW  109   1.751   2.538   3.056 -0.3936  0.3392 -0.1749
   37SOL    HW1  110   1.772   2.449   3.004 -1.7490  1.5543 -1.8708
   37SOL    HW2  111   1.651   2.535   3.071  1.9301  0.3788 -1.9507
   38SOL     OW  112   0.662   3.046   0.685  0.2363  0.2181  0.2779
   38SOL    HW1  113   0.619   2.953   0.685 -0.1100  0.0657 -0.5164
   38SOL    HW2  114   0.764   3.047   0.688  0.0536  0.6357  0.0147
   39SOL     OW  115   0.877   1.723   2.201  0.1099 -0.3269 -0.2608
   39SOL    HW1  116   0.964   1.691   2.239  0.4536 -1.1914  1.0793
   39SOL    HW2  117   0.880   1.823   2.191 -2.3978 -0.8268  1.4190
   40SOL     OW  118   0.117   1.001   0.229 -0.1949 -0.1642  0.3200
   40SOL    HW1  119   0.186   0.970   0.160  0.8850 -1.2849 -2.4133
   40SOL    HW2  120   0.153   1.092   0.263 -0.9482 -0.0660  1.1552
   41SOL     OW  121   1.757   0.133   2.024 -0.2883 -0.3415 -1.2261
   41SOL    HW1  122   1.700   0.050   2.022  2.1778  0.6891  2.5771
   41SOL    HW2  123   1.803   0.156   1.935  2.4600 -0.4258 -0.3047
   42SOL     OW  124   2.655   0.109   0.906  0.0803 -0.6577 -0.0211
   42SOL    HW1  125   2.751   0.142   0.891  0.2343 -1.1496  1.2673
   42SOL    HW2  126   2.646   0.050   0.987 -0.8376 -1.8326 -0.3948
   43SOL     OW  127   1.651   0.232   1.266 -0.0643 -0.0442  0.0001
   43SOL    HW1  128   1.673   0.265   1.360 -2.9281 -2.2857 -0.0849
   43SOL    HW2  129   1.642   0.310   1.201  1.1229  1.1898 -1.1343
   44SOL     OW  130   0.556   1.060   3.071 -0.1147  0.4708 -0.1279
   44SOL    HW1  131   0.596   0.989   3.016 -1.2122  1.7225  0.2746
   44SOL    HW2  132   0.609   1.063   3.162  0.1568  2.2889 -1.6577
   45SOL     OW  133   0.518   1.498   1.636  0.3355  0.0065  0.0428
   45SOL    HW1  134   0.444   1.534   1.569 -0.4412  1.1161 -2.2346
   45SOL    HW2  135   0.495   1.402   1.659 -0.0061  1.1192 -0.3391
   46SOL     OW  136   2.207   2.272   1.718  0.3868  0.0543 -0.0865
   46SOL    HW1  137   2.229   2.360   1.764  3.9603  1.0767  0.9110
   46SOL    HW2  138   2.234   2.198   1.784 -2.1168 -1.6495 -1.0957
   47SOL     OW  139   0.433   2.172   1.423 -0.3944 -0.8603  0.1506
   47SOL    HW1  140   0.391   2.202   1.336  1.6542  2.5741 -2.6245
   47SOL    HW2  141   0.505   2.235   1.460  0.5782 -0.0432  0.3012
   48SOL     OW  142   1.075   3.054   2.523 -1.2549 -0.6702  0.7349
   48SOL    HW1  143   1.103   3.039   2.426  3.4607 -0.9753 -3.1738
   48SOL    HW2  144   1.033   2.975   2.568  1.1934 -0.6146  1.6620
   49SOL     OW  145   2.582   1.733   2.219  0.3484 -0.5732 -0.6342
   49SOL    HW1  146   2.593   1.745   2.118 -1.3151  0.6389  3.0473
   49SOL    HW2  147   2.656   1.671   2.258  0.4568 -1.1625  1.4480
   50SOL     OW  148   1.110   2.937   0.218  0.0188  0.1764  0.2256
   50SOL    HW1  149   1.148   2.974   0.306 -2.6213 -1.5852  0.5077
   50SOL    HW2  150   1.069   3.014   0.161  1.4015 -3.2896  1.2162
   51SOL     OW  151   1.398   0.225   0.946 -0.3303 -0.2643 -0.3939
   51SOL    HW1  152   1.366   0.226   0.851 -0.6333 -0.7762 -1.4937
   51SOL    HW2  153   1.486   0.276   0.959  2.1183 -2.5870  1.8381
   52SOL     OW  154   0.279   0.955   0.728  0.4939  0.0717 -0.5197
   52SOL    HW1  155   0.235   0.956   0.636  0.0011 -0.6050  0.0298
   52SOL    HW2  156   0.361   1.019   0.720 -0.5872  2.5974  0.4697
   53SOL     OW  157   1.123   0.135   2.731  0.0644 -0.2591 -0.0331
   53SOL    HW1  158   1.067   0.136   2.816 -3.4920 -0.6239 -0.5715
   53SOL    HW2  159   1.114   0.057   2.667 -2.0568 -0.3419 -1.7433
   54SOL     OW  160   2.180   0.594   2.246 -0.0401  0.5477  0.1463
   54SOL    HW1  161   2.201   0.694   2.256 -0.0451  2.0135  1.0072
   54SOL    HW2  162   2.078   0.581   2.264  1.2390  1.7352  3.2007
   55SOL     OW  163   2.716   0.030   0.215  0.0503 -0.6062  0.2603
   55SOL    HW1  164   2.712  -0.056   0.273 -1.4266  0.6949 -0.9167
   55SOL    HW2  165   2.674   0.017   0.124  0.5089  0.2090 -3.4646
   56SOL     OW  166   0.570   0.156   2.273  0.6275  0.3755  0.0079
   56SOL    HW1  167   0.664   0.192   2.270  1.7531  0.1137 -3.4222
   56SOL    HW2  168   0.505   0.234   2.275 -2.2139  2.8153  1.2035
   57SOL     OW  169   1.733   1.189   2.562  0.4999 -1.0074  0.0140
   57SOL    HW1  170   1.743   1.280   2.518  0.2477 -0.0135 -1.7535
   57SOL    HW2  171   1.651   1.180   2.621  0.4020  1.3034  0.6797
   58SOL     OW  172   0.156   1.060   1.953  0.2445 -0.4378  0.2196
   58SOL    HW1  173   0.182   1.150   1.989  2.5917 -1.9414  1.3234
   58SOL    HW2  174   0.157   0.989   2.025 -1.5547  1.1787 -0.9916
   59SOL     OW  175   0.526   2.616   2.030 -0.4609  0.5263 -0.6186
   59SOL    HW1  176   0.426   2.639   2.019  0.0004 -1.1355  0.1731
   59SOL    HW2  177   0.534   2.531   2.082 -1.7415  0.0676  1.3272
   60SOL     OW  178   2.078   2.761   0.665 -0.2813 -0.1096 -0.1695
   60SOL    HW1  179   2.110   2.675   0.619 -1.3888  1.5391 -1.1042
   60SOL    HW2  180   1.971   2.748   0.673  1.6073  2.1499 -1.3449
   61SOL     OW  181   1.511   2.468   0.361  0.1526  0.3477 -0.4468
   61SOL    HW1  182   1.466   2.560   0.373  0.4573  0.1127 -3.4839
   61SOL    HW2  183   1.610   2.478   0.335 -0.8412 -2.0457 -0.1658
   62SOL     OW  184   2.120   2.482   3.022  0.1069  0.6200 -0.2688
   62SOL    HW1  185   2.179   2.411   2.997  1.1825  2.7014 -4.2408
   62SOL    HW2  186   2.062   2.501   2.942  2.1508 -0.5864 -1.8223
   63SOL     OW  187   2.671   1.029   0.484  0.1072 -0.1423 -0.2567
   63SOL    HW1  188   2.712   1.093   0.419  1.2809  0.0890  1.2697
   63SOL    HW2  189   2.718   0.943   0.465 -3.4320 -1.1327 -0.2437
   64SOL     OW  190   1.327   0.936   2.968 -0.2381  0.5448 -0.7583
   64SOL    HW1  191   1.316   0.844   2.931 -0.1131  1.6092  0.6945
   64SOL    HW2  192   1.359   0.931   3.063  0.2839  0.7669 -0.0521
   65SOL     OW  193   0.284   2.281   1.670 -0.2264  0.0565  0.8184
   65SOL    HW1  194   0.228   2.350   1.618  0.0301  1.1075  1.0766
   65SOL    HW2  195   0.325   2.216   1.609 -0.6839 -1.3547 -0.4096
   66SOL     OW  196   1.271   1.177   1.441 -0.2503  0.1773 -1.0206
   66SOL    HW1  197   1.291   1.160   1.344 -0.1280  1.0436  0.5131
   66SOL    HW2  198   1.356   1.178   1.500  0.4663  1.7414 -1.0835
   67SOL     OW  199   2.320   1.800   2.262 -0.0991  0.3016 -0.4342
   67SOL    HW1  200   2.418   1.784   2.243  0.7361 -1.4738  3.1132
   67SOL    HW2  201   2.293   1.742   2.342 -0.5780  2.6292 -0.8320
   68SOL     OW  202   0.775   1.535   1.680  0.3845  0.0939  0.2280
   68SOL    HW1  203   0.673   1.529   1.652 -2.2702 -1.8284  0.0748
   68SOL    HW2  204   0.790   1.582   1.771  0.2639  2.5984 -2.1053
   69SOL     OW  205   2.676   0.454   0.352 -0.2849 -0.1891 -0.2257
   69SOL    HW1  206   2.633   0.366   0.370 -1.7539  1.6113  1.4550
   69SOL    HW2  207   2.765   0.442   0.303  0.9634 -1.1879 -2.5145
   70SOL     OW  208   2.311   0.976   2.517 -0.5242  0.0599 -0.8254
   70SOL    HW1  209   2.376   1.055   2.535  4.4681  2.8165  1.8580
   70SOL    HW2  210   2.316   0.905   2.591  0.6937 -1.0993  3.6175
   71SOL     OW  211   1.028   2.074   0.724 -0.1504 -0.0474 -0.0240
   71SOL    HW1  212   1.063   1.982   0.763  0.3571  0.2242 -1.8251
   71SOL    HW2  213   1.059   2.091   0.630 -0.0602  0.8622 -0.9863
   72SOL     OW  214   2.370   1.685   0.432 -0.1440  0.4837 -0.1625
   72SOL    HW1  215   2.391   1.597   0.481 -1.5166  0.0576 -1.2951
   72SOL    HW2  216   2.383   1.766   0.493 -0.4856  1.4031  3.1492
   73SOL     OW  217   1.244   0.804   0.578 -0.5059  0.3334 -0.4058
   73SOL    HW1  218   1.256   0.721   0.645 -0.2473 -2.0123 -0.1545
   73SOL    HW2  219   1.139   0.805   0.560 -0.6575  0.2571 -2.8683
   74SOL     OW  220   2.676   2.400   2.384  0.8893  0.3313 -0.1384
   74SOL    HW1  221   2.620   2.448   2.314 -0.7866  0.7110  1.8043
   74SOL    HW2  222   2.767   2.445   2.387  1.3491 -1.6735 -0.4220
   75SOL     OW  223   1.369   1.425   1.762 -0.1050 -0.0188 -0.3124
   75SOL    HW1  224   1.278   1.473   1.764 -1.7014 -1.1653  0.5566
   75SOL    HW2  225   1.433   1.474   1.827 -0.3683 -0.0392  0.1539
   76SOL     OW  226   0.767   1.576   1.218  0.2193  0.5215 -0.1613
   76SOL    HW1  227   0.702   1.653   1.219  2.0566 -1.7176 -1.3014
   76SOL    HW2  228   0.863   1.609   1.204 -1.5696  0.3192  1.3192
   77SOL     OW  229   2.294   0.783   1.846  0.0244 -0.1979 -0.2556
   77SOL    HW1  230   2.284   0.778   1.744  1.4619  0.8428 -1.3685
   77SOL    HW2  231   2.289   0.692   1.886 -1.0106 -0.2369 -2.5702
   78SOL     OW  232   1.736   0.654   0.436 -0.3795 -0.1761 -0.0057
   78SOL    HW1  233   1.809   0.706   0.390  0.0785 -2.4299 -0.5225
   78SOL    HW2  234   1.680   0.716   0.492 -2.7503  0.1923 -0.4456
   79SOL     OW  235   0.921   1.572   1.962 -0.1911 -0.6072  0.3336
   79SOL    HW1  236   0.943   1.478   1.993 -0.3457 -1.7317  0.1154
   79SOL    HW2  237   0.905   1.632   2.042  2.6640 -0.4475 -1.2967
   80SOL     OW  238   1.124   0.114   1.325  0.2887 -0.1035 -0.2891
   80SOL    HW1  239   1.173   0.137   1.410 -0.0171  1.6789  0.4016
   80SOL    HW2  240   1.154   0.183   1.259  1.6147 -0.1053 -0.0825
   81SOL     OW  241   0.412   2.723   0.171  0.4135  0.3445  0.0775
   81SOL    HW1  242   0.511   2.722   0.160 -0.5482  1.5863 -0.3168
   81SOL    HW2  243   0.375   2.751   0.082  1.4087  0.6000  0.6132
   82SOL     OW  244   1.377   2.995   1.452 -0.1593 -0.4920  0.4061
   82SOL    HW1  245   1.425   3.041   1.527  0.5582  1.2333  1.2690
   82SOL    HW2  246   1.383   3.051   1.366 -1.0873 -0.9427  0.9492
   83SOL     OW  247   0.407   2.181   0.700  0.2571  0.0789 -0.1961
   83SOL    HW1  248   0.435   2.134   0.612  3.8166  1.1831 -1.5309
   83SOL    HW2  249   0.380   2.114   0.769  0.8091 -2.1903  0.1392
   84SOL     OW  250   2.854   1.381   1.212  0.4222 -0.4063  0.7089
   84SOL    HW1  251   2.857   1.314   1.289  1.0712 -1.9555 -2.7886
   84SOL    HW2  252   2.803   1.338   1.138  1.0374  2.9160  1.5582
   85SOL     OW  253   2.246   1.833   1.069  0.3476  0.2173  0.9718
   85SOL    HW1  254   2.222   1.760   1.135  1.9050 -0.4445 -0.3256
   85SOL    HW2  255   2.344   1.829   1.045  2.1602  0.5015 -1.3377
   86SOL     OW  256   1.272   2.285   2.258 -0.3494 -0.2294  0.2555
   86SOL    HW1  257   1.252   2.190   2.228 -1.5966 -0.2767  0.0914
   86SOL    HW2  258   1.188   2.337   2.224 -1.8455 -0.1029 -0.5506
   87SOL     OW  259   2.281   1.409   1.125 -0.2985 -0.1689 -0.2284
   87SOL    HW1  260   2.229   1.490   1.162  0.3830  0.5769 -0.2386
   87SOL    HW2  261   2.355   1.446   1.066  0.2280  3.0120 -0.4803
   88SOL     OW  262   0.383   2.776   1.294 -0.0126  0.6366  0.0172
   88SOL    HW1  263   0.352   2.769   1.197  0.8102 -0.3343  3.9279
   88SOL    HW2  264   0.401   2.877   1.315 -2.3404  0.3197 -1.9815
   89SOL     OW  265   0.129   1.336   1.377 -0.0036 -0.0470 -0.2154
   89SOL    HW1  266   0.118   1.251   1.325  3.7932  0.3258 -0.3181
   89SOL    HW2  267   0.090   1.415   1.323 -1.5704  1.1758  0.3704
   90SOL     OW  268   2.566   1.557   3.067 -0.0595  0.1119  0.0469
   90SOL    HW1  269   2.651   1.615   3.068  0.5434  1.1783  1.9577
   90SOL    HW2  270   2.504   1.584   3.151  0.5534 -0.6353 -2.1041
   91SOL     OW  271   0.301   1.809   0.690 -0.5734  0.3866  0.5000
   91SOL    HW1  272   0.334   1.865   0.764  0.9926  2.9477  1.7081
   91SOL    HW2  273   0.309   1.859   0.604  1.0142  0.3119  3.5129
   92SOL     OW  274   2.124   0.013   1.868 -0.0912 -0.2200 -0.2131
   92SOL    HW1  275   2.194   0.055   1.927 -0.0530 -1.6453  0.6236
   92SOL    HW2  276   2.058  -0.034   1.933 -2.3425  0.7390  1.4099
   93SOL     OW  277   0.718   1.893   2.808 -0.1108  0.0662  0.1309
   93SOL    HW1  278   0.814   1.883   2.847  1.1755 -0.7049 -2.0560
   93SOL    HW2  279   0.661   1.811   2.825  1.3498  0.1981 -1.1939
   94SOL     OW  280   2.250   0.163   2.092  0.0457  0.2151 -0.4167
   94SOL    HW1  281   2.321   0.229   2.063  1.3773 -1.0819  0.1029
   94SOL    HW2  282   2.291   0.086   2.147 -1.8861 -0.3561 -0.2815
   95SOL     OW  283   1.948   0.213   1.843 -0.0741  0.0079  0.4518
   95SOL    HW1  284   1.998   0.298   1.833 -0.4653 -2.5188 -3.1413
   95SOL    HW2  285   2.007   0.129   1.847  1.5750  1.1244  2.4753
   96SOL     OW  286   0.816   0.976   2.552  0.2711 -0.7201  0.0055
   96SOL    HW1  287   0.743   0.922   2.503 -2.4901  3.3896  0.0959
   96SOL    HW2  288   0.772   1.022   2.631  0.3384  2.2053  1.9920
   97SOL     OW  289   1.907   2.983   1.499  0.0582  0.0147  0.3986
   97SOL    HW1  290   1.864   3.002   1.408 -1.0112  1.1707  3.4010
   97SOL    HW2  291   1.960   2.895   1.483  2.0300  1.0184 -0.2859
   98SOL     OW  292   1.654   2.180   1.676  0.4013 -0.5924 -0.1212
   98SOL    HW1  293   1.735   2.226   1.723 -0.3683 -0.7584  1.5468
   98SOL    HW2  294   1.654   2.081   1.684 -2.8292  2.9822 -1.4574
   99SOL     OW  295   0.507   0.832   0.995 -0.8157  0.1255 -0.2310
   99SOL    HW1  296   0.407   0.833   1.001  2.3153 -0.2760  1.7436
   99SOL    HW2  297   0.552   0.823   1.087 -0.6173 -1.1480  2.6019
  100SOL     OW  298   2.946   1.989   2.212  0.4070 -0.2395  0.0044
  100SOL    HW1  299   2.858   1.997   2.269  0.4606  0.9899  1.6756
  100SOL    HW2  300   3.029   1.996   2.264  0.5769  1.4835 -0.8538
  101SOL     OW  301   1.038   0.527   2.886 -0.5470  0.1438 -0.0880
  101SOL    HW1  302   1.023   0.628   2.889  0.6988 -1.1005  2.7880
  101SOL    HW2  303   1.137   0.496   2.901 -1.2209 -1.5941  0.6361
  102SOL     OW  304   2.958   0.154   1.188  0.4784  0.3469 -0.2217
  102SOL    HW1  305   3.037   0.205   1.226 -2.5947  0.6386 -1.2546
  102SOL    HW2  306   2.870   0.180   1.237 -0.4636 -1.4660 -2.9368
  103SOL     OW  307   0.012   2.969   2.713  0.7870  0.3920  0.8189
  103SOL    HW1  308  -0.016   3.001   2.619  0.8494  0.0501  0.6312
  103SOL    HW2  309  -0.066   2.921   2.762 -2.1821  1.2461 -0.9340
  104SOL     OW  310   0.316   2.254   1.197  0.3909  0.5589  0.4863
  104SOL    HW1  311   0.231   2.276   1.249  0.3699  1.0855  2.6435
  104SOL    HW2  312   0.323   2.322   1.121 -1.1386 -1.6246 -0.9122
  105SOL     OW  313   0.269   1.733   2.097  0.1213 -0.7677  0.8117
  105SOL    HW1  314   0.193   1.674   2.072 -1.4306 -1.8586 -1.4086
  105SOL    HW2  315   0.308   1.706   2.185 -1.2115 -0.2558  1.0772
  106SOL     OW  316   2.768   2.882   0.355 -0.4621 -0.0617  0.2249
  106SOL    HW1  317   2.837   2.806   0.345  3.0424 -0.4816  1.9689
  106SOL    HW2  318   2.795   2.931   0.441  1.6237 -0.0238  1.8998
  107SOL     OW  319   0.699   1.226   0.888 -0.3101 -0.2996 -0.2270
  107SOL    HW1  320   0.675   1.269   0.980  1.1950  1.0350 -0.2660
  107SOL    HW2  321   0.721   1.126   0.890  0.4955 -0.4602 -1.0639
  108SOL     OW  322   2.744   1.449   2.079 -0.3876 -0.3667  0.2470
  108SOL    HW1  323   2.695   1.359   2.090  1.2632  1.1994 -1.8083
  108SOL    HW2  324   2.776   1.455   1.982  3.3713 -0.0924  1.4502
  109SOL     OW  325   1.941   2.593   2.842 -0.0570 -0.2135 -0.4425
  109SOL    HW1  326   1.874   2.549   2.781  2.8153  0.2307 -0.4855
  109SOL    HW2  327   1.900   2.625   2.929 -1.2829  2.2287 -2.1355
  110SOL     OW  328   0.443   2.275   2.950 -0.4605  0.3487 -0.2248
  110SOL    HW1  329   0.458   2.200   2.882 -0.9884 -0.4102  1.4048
  110SOL    HW2  330   0.393   2.349   2.904  1.5910  0.7403 -1.6515
  111SOL     OW  331   2.813   0.875   2.802 -0.6595 -0.1351  0.0802
  111SOL    HW1  332   2.802   0.926   2.716  0.5289  0.8539 -1.3031
  111SOL    HW2  333   2.869   0.936   2.862  2.1299 -0.3803  0.3355
  112SOL     OW  334   2.083   2.496   1.564  0.6622  0.1172 -0.1049
  112SOL    HW1  335   2.111   2.488   1.660  1.3224 -2.7686  0.5255
  112SOL    HW2  336   2.155   2.448   1.502 -1.3867  1.3576 -0.0066
  113SOL     OW  337   2.387   1.799   2.673 -0.7947 -0.0894  0.2446
  113SOL    HW1  338   2.463   1.733   2.647  3.1844  0.4799 -1.3377
  113SOL    HW2  339   2.298   1.771   2.632  0.3159 -2.7293  1.0641
  114SOL     OW  340   0.664   2.766   0.644  0.2315  0.6111 -0.3584
  114SOL    HW1  341   0.636   2.665   0.644  0.2678  1.6346 -0.2757
  114SOL    HW2  342   0.703   2.786   0.553  1.7299  0.2809 -0.4561
  115SOL     OW  343   3.084   1.602   2.853 -0.1018  0.5906 -0.2239
  115SOL    HW1  344   3.146   1.673   2.807  1.7034 -0.2228 -1.1520
  115SOL    HW2  345   3.093   1.511   2.807  1.5618 -0.0291  0.5573
  116SOL     OW  346   2.808   1.182   1.807 -0.0288  0.2583  0.0259
  116SOL    HW1  347   2.740   1.162   1.875 -0.2784  1.0992 -0.3005
  116SOL    HW2  348   2.834   1.281   1.809  1.1376 -0.0492  0.4416
  117SOL     OW  349   2.066   0.443   1.761 -0.1620  0.0556 -0.0424
  117SOL    HW1  350   2.146   0.382   1.725 -0.6427  0.2307 -1.2089
  117SOL    HW2  351   2.017   0.496   1.689 -3.1651 -0.6585 -2.2918
  118SOL     OW  352   2.806   2.237   2.557  0.4424  0.6107  0.8511
  118SOL    HW1  353   2.789   2.134   2.559 -0.6847 -2.2984 -2.6361
  118SOL    HW2  354   2.745   2.289   2.494  0.2642  1.1971  3.8945
  119SOL     OW  355   0.203   1.646   1.669  1.0535 -0.0457  0.0310
  119SOL    HW1  356   0.250   1.601   1.587  0.5950  1.9158  1.0983
  119SOL    HW2  357   0.256   1.724   1.712 -1.3318 -1.8269  0.8051
  120SOL     OW  358   0.059   1.456   1.789  0.4623 -0.2249  0.5658
  120SOL    HW1  359   0.092   1.380   1.730 -1.9475  0.5785  0.8787
  120SOL    HW2  360   0.096   1.546   1.748 -1.4299  1.9918 -3.0868
  121SOL     OW  361   1.953   0.886   0.720  0.1443  0.2338  0.5041
  121SOL    HW1  362   2.007   0.927   0.644  1.1672 -2.8801 -1.2891
  121SOL    HW2  363   1.860   0.929   0.737 -1.8720  2.0746  0.4901
  122SOL     OW  364   2.545   2.536   2.673  0.3080 -0.0588 -0.0122
  122SOL    HW1  365   2.454   2.536   2.624 -1.4693 -2.4576 -1.0565
  122SOL    HW2  366   2.580   2.440   2.685 -0.4561  1.0347  2.7172
  123SOL     OW  367   0.086   0.431   0.574  0.1820 -0.4048  0.2715
  123SOL    HW1  368   0.182   0.455   0.601  1.4353  0.7140  0.7566
  123SOL    HW2  369   0.080   0.345   0.524  4.3757 -0.5453  2.8981
  124SOL     OW  370   1.674   1.099   0.467  0.1208 -0.4132  0.4772
  124SOL    HW1  371   1.584   1.065   0.492 -1.1370 -1.0173 -1.0481
  124SOL    HW2  372   1.733   1.119   0.545  1.3115 -3.8676 -0.8964
  125SOL     OW  373   2.818   0.996   2.222  0.5154 -0.0538  0.5287
  125SOL    HW1  374   2.894   1.042   2.275  1.4970 -1.2967  0.2246
  125SOL    HW2  375   2.852   0.968   2.130 -1.2613  0.2375  0.8310
  126SOL     OW  376   2.716   2.726   3.049  0.4267 -0.0239 -0.2564
  126SOL    HW1  377   2.697   2.654   3.119  1.7677 -1.7241 -0.8080
  126SOL    HW2  378   2.792   2.792   3.079  0.2304 -0.0157  1.9074
  127SOL     OW  379   0.089   1.833   0.109  0.3572 -0.0620 -0.0498
  127SOL    HW1  380   0.034   1.820   0.196 -2.5844  1.3751  0.2248
  127SOL    HW2  381   0.117   1.749   0.059  1.8264  3.4175  0.2824
  128SOL     OW  382   0.960   0.829   0.761  0.7734 -0.7669  0.2045
  128SOL    HW1  383   1.048   0.828   0.818 -0.2181  0.3943  1.2012
  128SOL    HW2  384   0.886   0.884   0.812  0.1243 -0.9030 -2.4266
  129SOL     OW  385   2.141   1.633   0.757 -0.0899  0.1225 -0.3263
  129SOL    HW1  386   2.209   1.703   0.783  1.8307 -0.9727 -0.2716
  129SOL    HW2  387   2.056   1.652   0.803  3.4359  0.9884  0.9582
  130SOL     OW  388   1.963   0.795   0.358 -0.3999 -0.1488 -0.3117
  130SOL    HW1  389   2.004   0.745   0.284 -2.0213 -1.9954  1.1787
  130SOL    HW2  390   1.916   0.879   0.320 -1.2309 -1.6566 -0.8219
  131SOL     OW  391   0.256   1.410   2.653 -0.1738 -0.1602  0.6406
  131SOL    HW1  392   0.167   1.380   2.689  0.5986  0.7618 -1.5167
  131SOL    HW2  393   0.237   1.442   2.558 -3.1874 -1.7414 -0.1519
  132SOL     OW  394   1.013   0.964   1.581 -0.0154 -0.3698 -0.9773
  132SOL    HW1  395   0.918   0.957   1.615  1.8461  0.9307 -0.8521
  132SOL    HW2  396   1.030   1.060   1.557 -1.3531 -2.2507 -0.0897
  133SOL     OW  397   0.361   1.320   1.131  0.1967 -0.3907 -0.2481
  133SOL    HW1  398   0.464   1.319   1.121 -1.0408 -0.1644 -2.0885
  133SOL    HW2  399   0.322   1.416   1.141  2.1977 -1.9513  0.2612
  134SOL     OW  400   0.330   1.373   0.251 -0.4471  0.3589 -0.0817
  134SOL    HW1  401   0.353   1.364   0.152 -0.6750 -3.5537 -0.3281
  134SOL    HW2  402   0.421   1.379   0.302  0.0184 -2.4843  0.0391
  135SOL     OW  403   1.659   1.007   0.030 -0.1816 -0.2868 -0.5324
  135SOL    HW1  404   1.571   0.964   0.066 -0.7553 -0.8461 -0.3432
  135SOL    HW2  405   1.640   1.102  -0.013 -0.2789  0.6013  0.3034
  136SOL     OW  406   2.075   2.210   1.287 -0.4043  0.1792 -0.1785
  136SOL    HW1  407   2.076   2.212   1.389 -1.0446  0.2702  0.0537
  136SOL    HW2  408   2.010   2.284   1.256 -0.4588 -3.4674  0.3485
  137SOL     OW  409   2.154   2.528   0.559  0.4572 -0.4677 -0.2381
  137SOL    HW1  410   2.122   2.439   0.605 -2.2486  0.4293  0.2612
  137SOL    HW2  411   2.143   2.532   0.459 -0.5454  0.6251  0.7217
  138SOL     OW  412   2.223   0.251   1.648  0.1688 -0.3315 -0.3917
  138SOL    HW1  413   2.281   0.189   1.706 -0.4939 -0.9335 -1.2961
  138SOL    HW2  414   2.149   0.193   1.606  1.4243 -1.0155  0.1876
  139SOL     OW  415   2.749   2.692   2.615 -0.0894 -0.0613 -0.1095
  139SOL    HW1  416   2.669   2.635   2.635  1.1379 -1.2572 -2.0954
  139SOL    HW2  417   2.819   2.636   2.562 -0.0884 -1.6383  1.3035
  140SOL     OW  418   1.414   1.958   2.538  0.0253  0.8260 -0.1809
  140SOL    HW1  419   1.460   2.048   2.548 -2.3940  3.6097  1.2984
  140SOL    HW2  420   1.476   1.887   2.491 -0.3039 -1.1631 -1.4144
  141SOL     OW  421   1.590   1.414   2.285 -0.5966  0.5061 -0.6713
  141SOL    HW1  422   1.534   1.330   2.272 -1.8042 -2.9829  0.0240
  141SOL    HW2  423   1.650   1.431   2.205  1.3638  0.7142 -0.3766
  142SOL     OW  424   1.897   2.235   1.922  0.5688  0.4758 -0.7254
  142SOL    HW1  425   1.961   2.303   1.962 -2.5401  0.9318  2.4273
  142SOL    HW2  426   1.924   2.139   1.924 -2.0383  0.6628  0.7674
  143SOL     OW  427   1.012   2.428   0.426  0.2719  0.2230  0.3636
  143SOL    HW1  428   1.015   2.459   0.525  0.9765  4.5264  0.1719
  143SOL    HW2  429   1.074   2.488   0.376  3.2549  1.1581 -0.2005
  144SOL     OW  430   0.894   2.797   0.488 -0.2344  0.0798 -0.1066
  144SOL    HW1  431   0.948   2.793   0.579  2.4956  3.0030 -0.6334
  144SOL    HW2  432   0.947   2.743   0.420  1.1136 -0.4114  2.4137
  145SOL     OW  433   1.778   2.312   2.912 -0.1129 -0.0180  0.4048
  145SOL    HW1  434   1.728   2.225   2.931  1.5258  1.4225  0.6911
  145SOL    HW2  435   1.874   2.289   2.875 -0.4766 -1.0715 -0.3565
  146SOL     OW  436   1.863   2.668   0.171 -0.1151 -0.3468 -0.2245
  146SOL    HW1  437   1.815   2.626   0.089  0.3230  1.9234 -3.1085
  146SOL    HW2  438   1.958   2.690   0.148  1.0798 -1.4028  1.9614
  147SOL     OW  439   0.348   1.990   2.048 -0.6635  0.0670  0.8981
  147SOL    HW1  440   0.300   1.902   2.070  2.2380 -0.6980 -1.2638
  147SOL    HW2  441   0.292   2.049   1.991  0.0708  1.5508  1.5527
  148SOL     OW  442   1.313   3.082   0.045  0.1977 -0.2910  0.6590
  148SOL    HW1  443   1.358   3.150   0.106  0.0780  3.1279  1.0857
  148SOL    HW2  444   1.214   3.108   0.048 -1.9990 -1.5547 -0.1331
  149SOL     OW  445   0.897   2.111   0.010  0.2912  0.2153 -0.1547
  149SOL    HW1  446   0.976   2.163   0.047 -0.2706 -0.5496  0.7985
  149SOL    HW2  447   0.812   2.168  -0.010  0.9921  0.0226  0.5131
  150SOL     OW  448   0.505   2.527   1.109 -0.6342 -0.5239  0.4503
  150SOL    HW1  449   0.511   2.476   1.197 -0.9254  1.2123 -2.0588
  150SOL    HW2  450   0.420   2.499   1.059 -3.0869 -2.3380 -0.2171
  151SOL     OW  451   0.108   1.818   2.745 -0.1213  0.0916  0.3170
  151SOL    HW1  452   0.030   1.878   2.735 -0.1557  2.0108 -2.2113
  151SOL    HW2  453   0.174   1.854   2.814  0.8275  0.2744  1.8659
  152SOL     OW  454   0.037   2.062   0.439  0.3478 -0.2819  0.1745
  152SOL    HW1  455   0.001   2.075   0.537  1.2015 -1.0673 -1.1421
  152SOL    HW2  456   0.131   2.106   0.429 -1.5704  0.5573  0.0212
  153SOL     OW  457   1.454   2.323   0.597  0.9458  0.6282  0.4358
  153SOL    HW1  458   1.454   2.245   0.534  1.9280  0.3635 -2.5468
  153SOL    HW2  459   1.481   2.409   0.551 -2.8292  1.2702  3.2863
  154SOL     OW  460   0.758   3.072   1.560  0.2561 -0.2646 -0.0891
  154SOL    HW1  461   0.776   2.981   1.509 -1.9418  0.4008  0.3564
  154SOL    HW2  462   0.663   3.073   1.603 -2.0602  0.7910  1.2690
  155SOL     OW  463   2.531   2.161   0.187  0.4076 -0.0632  0.2222
  155SOL    HW1  464   2.485   2.240   0.233 -0.1865  0.4629  0.6982
  155SOL    HW2  465   2.474   2.079   0.179  2.4208  1.7168 -0.9391
  156SOL     OW  466   2.425   1.638   0.179  0.6910 -0.1730  0.9819
  156SOL    HW1  467   2.335   1.633   0.129  0.5618 -2.0206  0.4001
  156SOL    HW2  468   2.415   1.635   0.281 -0.5085  0.4275 -2.4464
  157SOL     OW  469   0.508   0.114   1.894  0.5729  0.2301 -0.1948
  157SOL    HW1  470   0.529   0.215   1.888 -2.0951  0.8684  0.6106
  157SOL    HW2  471   0.467   0.079   1.980 -0.7283  2.6380 -3.5454
  158SOL     OW  472   1.031   0.665   1.162 -0.3898  0.2454  0.0504
  158SOL    HW1  473   0.993   0.571   1.160  1.3940 -0.8284  1.2194
  158SOL    HW2  474   1.122   0.671   1.199 -1.1876 -0.5739  0.0573
  159SOL     OW  475   1.971   0.993   2.998  0.1899  0.2744  0.8566
  159SOL    HW1  476   1.920   0.912   3.034 -0.3344  0.4784 -2.3567
  159SOL    HW2  477   1.928   1.031   2.911 -0.3978  0.8700 -3.6128
  160SOL     OW  478   1.477   1.845   0.516  0.3042  0.1578 -0.4105
  160SOL    HW1  479   1.566   1.820   0.482  1.5057 -1.7616  1.4614
  160SOL    HW2  480   1.423   1.766   0.535  0.2944 -0.4266 -0.3956
  161SOL     OW  481   2.701   2.109   2.891 -0.0597 -0.5003 -0.5981
  161SOL    HW1  482   2.659   2.173   2.957 -0.7607 -0.6520  0.1601
  161SOL    HW2  483   2.638   2.087   2.814 -2.6506 -0.7023 -0.0155
  162SOL     OW  484   0.216   2.385   0.754 -0.3473 -0.5173 -0.2961
  162SOL    HW1  485   0.157   2.395   0.672 -0.3163 -1.0489 -2.0332
  162SOL    HW2  486   0.291   2.316   0.741  0.9678 -0.4929  2.0296
  163SOL     OW  487   0.654   0.867   2.917 -0.5086 -0.3197  0.0220
  163SOL    HW1  488   0.644   0.961   2.873 -1.7070  2.8484  1.3168
  163SOL    HW2  489   0.676   0.796   2.843  0.3470  1.5839  0.2727
  164SOL     OW  490   0.445   2.680   2.775  0.0677  0.2971  0.3022
  164SOL    HW1  491   0.396   2.596   2.803 -2.3440 -0.6661 -0.2682
  164SOL    HW2  492   0.383   2.750   2.734 -0.3486 -1.7127 -3.0158
  165SOL     OW  493   2.201   1.043   1.530  0.3178  0.3403  0.6598
  165SOL    HW1  494   2.301   1.053   1.551  1.2067 -1.7361  2.4395
  165SOL    HW2  495   2.158   1.131   1.559  0.0500  2.9691  0.1702
  166SOL     OW  496   1.995   1.942   1.299 -0.6074 -0.3998 -0.2975
  166SOL    HW1  497   2.016   2.040   1.276  0.6307  1.9275  0.9760
  166SOL    HW2  498   1.993   1.930   1.400 -2.6031  0.7411  0.3986
  167SOL     OW  499   0.313   0.893   0.037  0.3023  0.0027  0.7867
  167SOL    HW1  500   0.351   0.798   0.063 -0.5456  2.3714 -2.6312
  167SOL    HW2  501   0.386   0.957   0.002 -1.1765  1.4578  0.7531
  168SOL     OW  502   2.143   0.300   2.790  0.0823 -0.2162 -0.1566
  168SOL    HW1  503   2.046   0.338   2.797  2.0300 -0.4901 -1.9176
  168SOL    HW2  504   2.214   0.367   2.775  1.1857  1.3970  0.5436
  169SOL     OW  505   0.811   1.410   0.154  0.2457  0.0445 -0.7205
  169SOL    HW1  506   0.793   1.312   0.167  1.7232 -1.4007 -1.1841
  169SOL    HW2  507   0.741   1.440   0.083 -1.2115 -0.8692  0.6286
  170SOL     OW  508   1.051   0.574   1.505  0.2211  0.1759  0.2699
  170SOL    HW1  509   1.058   0.539   1.598  0.8721  2.0433  0.5630
  170SOL    HW2  510   1.117   0.644   1.481 -0.2874  2.2393 -1.9841
  171SOL     OW  511   1.681   2.622   1.200 -0.4337  0.3012 -0.1892
  171SOL    HW1  512   1.593   2.601   1.148  0.9733 -0.1878 -2.7155
  171SOL    HW2  513   1.675   2.595   1.300 -1.9714 -1.4151  1.8497
  172SOL     OW  514   0.886   2.894   2.015 -0.2709  0.2226 -0.5455
  172SOL    HW1  515   0.852   2.962   1.941 -2.2763  1.0770 -0.5018
  172SOL    HW2  516   0.939   2.819   1.970 -1.4404  0.6757 -1.7319
  173SOL     OW  517   0.859   2.449   0.870 -0.5076  0.1071  0.2608
  173SOL    HW1  518   0.844   2.520   0.941 -0.2219 -3.8937  0.6112
  173SOL    HW2  519   0.790   2.372   0.862 -1.0976 -1.6545  0.1421
  174SOL     OW  520   2.289   2.838   0.298 -0.6671 -0.5358 -0.8546
  174SOL    HW1  521   2.381   2.811   0.322  0.9827  2.6560 -1.4777
  174SOL    HW2  522   2.250   2.803   0.212  0.3382  0.0080 -0.9977
  175SOL     OW  523   1.009   1.505   0.968 -0.3471  0.1366 -0.3214
  175SOL    HW1  524   1.076   1.564   0.924 -0.1261  1.6227 -0.7350
  175SOL    HW2  525   1.040   1.458   1.049  1.2128  2.5290  2.0449
  176SOL     OW  526   1.035   1.886   1.137 -0.4688  0.6208  0.1081
  176SOL    HW1  527   1.024   1.794   1.183 -0.7828 -1.0858 -2.5459
  176SOL    HW2  528   0.960   1.952   1.171 -2.8268 -0.2699 -0.2425
  177SOL     OW  529   1.310   0.925   1.202 -0.0084 -0.8856  0.2655
  177SOL    HW1  530   1.360   0.851   1.144  1.5343 -2.0994  0.0664
  177SOL    HW2  531   1.355   1.013   1.194 -0.7860  2.3329 -0.3847
  178SOL     OW  532   2.353   1.407   0.477 -0.4086  0.3169  0.3580
  178SOL    HW1  533   2.283   1.360   0.535 -2.4676 -0.0792  0.2783
  178SOL    HW2  534   2.374   1.346   0.398 -1.2299  2.6570  1.3716
  179SOL     OW  535   0.796   2.941   2.927 -0.4578 -0.3199  0.5403
  179SOL    HW1  536   0.701   2.922   2.953 -0.1016 -0.2187 -3.2351
  179SOL    HW2  537   0.846   2.858   2.965 -2.4968 -0.1310  0.2454
  180SOL     OW  538   1.641   1.349   1.431  0.6077  0.3693 -0.2686
  180SOL    HW1  539   1.676   1.300   1.345 -0.7758 -0.2777 -4.4237
  180SOL    HW2  540   1.615   1.442   1.399  0.8339  1.4388  0.0056
  181SOL     OW  541   0.604   0.844   1.256 -0.6959  0.1926  0.0745
  181SOL    HW1  542   0.583   0.757   1.300  1.2709 -1.4645 -2.4907
  181SOL    HW2  543   0.537   0.913   1.288 -3.0952 -0.4750 -0.2524
  182SOL     OW  544   2.944   1.056   2.967 -0.7811  0.2790  0.4221
  182SOL    HW1  545   2.965   1.038   3.064 -0.9788 -2.1281  2.0592
  182SOL    HW2  546   2.912   1.153   2.956 -0.5032 -1.3946  1.2083
  183SOL     OW  547   2.005   0.235   2.177 -0.5721  0.8105 -0.1882
  183SOL    HW1  548   2.102   0.222   2.154 -0.2728 -1.0892 -0.0169
  183SOL    HW2  549   1.943   0.184   2.115 -0.7196  2.3804  0.2219
  184SOL     OW  550   1.307   0.614   0.759  0.3101  0.0447 -0.0724
  184SOL    HW1  551   1.236   0.544   0.750  1.4931  0.8147 -1.9527
  184SOL    HW2  552   1.399   0.570   0.752 -2.0835 -1.9270 -1.6268
  185SOL     OW  553   2.383   1.045   0.435 -0.1854  0.3031  0.2287
  185SOL    HW1  554   2.477   1.031   0.470  0.3541 -1.9388  2.8941
  185SOL    HW2  555   2.382   1.116   0.363  0.1530  0.7658  0.0154
  186SOL     OW  556   0.463   2.168   0.111 -0.8322  0.0686  0.0276
  186SOL    HW1  557   0.510   2.089   0.061  0.8808  2.3337  0.3315
  186SOL    HW2  558   0.435   2.240   0.044 -2.0158 -3.2106 -0.6745
  187SOL     OW  559   1.693   1.508   2.500 -0.1216 -0.2683  0.0966
  187SOL    HW1  560   1.777   1.561   2.478 -1.6911  1.8677  3.0505
  187SOL    HW2  561   1.640   1.469   2.424  0.6151  0.5291  0.8700
  188SOL     OW  562   1.458   2.698   1.470  0.0710 -0.3243 -0.0392
  188SOL    HW1  563   1.458   2.801   1.466 -1.8051 -0.5521 -0.4277
  188SOL    HW2  564   1.365   2.661   1.493 -0.1576 -0.9736  1.4092
  189SOL     OW  565   2.819   1.721   2.683 -0.0216 -0.2087  0.0864
  189SOL    HW1  566   2.879   1.645   2.649  0.2251  0.5051 -0.0440
  189SOL    HW2  567   2.837   1.744   2.778  0.6351  0.5276 -0.4434
  190SOL     OW  568   1.113   2.553   2.165 -0.0209  0.3665 -0.3364
  190SOL    HW1  569   1.012   2.531   2.179  0.0893  1.1882 -2.2281
  190SOL    HW2  570   1.142   2.638   2.216  1.2782  1.4330 -0.8693
  191SOL     OW  571   2.441   1.126   1.415 -0.3392 -0.4177  0.1373
  191SOL    HW1  572   2.349   1.122   1.365 -0.1785 -0.3571  0.1500
  191SOL    HW2  573   2.488   1.214   1.387  0.3473  2.4708 -0.4319
  192SOL     OW  574   2.247   0.191   0.971  0.0845 -0.3553 -0.1867
  192SOL    HW1  575   2.339   0.221   0.939  3.7488  0.5598 -1.7553
  192SOL    HW2  576   2.194   0.153   0.894 -2.7241 -0.0777  0.9070
  193SOL     OW  577   1.036   0.066   0.077  0.0555 -0.3183  0.5600
  193SOL    HW1  578   1.008   0.107  -0.011 -2.0998  1.7388  1.7894
  193SOL    HW2  579   0.965   0.072   0.148  0.7078 -0.7185  1.6193
  194SOL     OW  580   1.426   2.146   1.039  0.3204 -0.2603  0.0945
  194SOL    HW1  581   1.380   2.192   0.964  1.0951 -0.6288 -0.5758
  194SOL    HW2  582   1.383   2.060   1.077 -0.7329 -0.8701 -0.0193
  195SOL     OW  583   2.460   0.931   0.747 -0.1228 -0.6580  0.0367
  195SOL    HW1  584   2.446   0.854   0.680  2.5130  0.7262 -0.8345
  195SOL    HW2  585   2.382   0.995   0.756  2.2233  1.9621  0.6615
  196SOL     OW  586   1.072   2.247   1.747  0.2860 -0.5466  0.1388
  196SOL    HW1  587   1.076   2.219   1.648  2.0647  3.2252  1.6582
  196SOL    HW2  588   0.979   2.252   1.785  2.1900  1.5202 -2.3234
  197SOL     OW  589   2.318   0.498   2.656 -0.2876  0.0779  0.2226
  197SOL    HW1  590   2.350   0.479   2.560 -2.4660 -0.2762 -0.6756
  197SOL    HW2  591   2.238   0.560   2.651  0.6966 -1.0301  2.4568
  198SOL     OW  592   2.175   1.341   0.114  0.0390 -0.0333  0.1425
  198SOL    HW1  593   2.190   1.385   0.025  2.6148 -1.8317 -2.4258
  198SOL    HW2  594   2.098   1.275   0.114 -0.7050 -1.6267 -0.6542
  199SOL     OW  595   2.409   0.401   1.531 -0.0402  0.7496 -0.8121
  199SOL    HW1  596   2.335   0.361   1.578  0.2426 -0.1320 -1.3839
  199SOL    HW2  597   2.386   0.406   1.429 -0.6711 -0.0416  0.7761
  200SOL     OW  598   1.675   2.900   2.901  0.3885 -0.3841 -0.8006
  200SOL    HW1  599   1.669   2.901   3.005 -1.3229  1.5570 -2.4799
  200SOL    HW2  600   1.751   2.955   2.869 -1.1376  0.4233  0.2372
  201SOL     OW  601   2.652   0.227   1.273  0.1595 -0.7271  0.3187
  201SOL    HW1  602   2.578   0.160   1.274 -0.6476 -2.5066  0.5884
  201SOL    HW2  603   2.632   0.301   1.206 -0.2844 -3.2449 -0.2952
  202SOL     OW  604   2.846   2.971   0.610 -0.1802 -0.7326 -0.5179
  202SOL    HW1  605   2.837   3.073   0.620  0.3431 -0.5338 -1.7067
  202SOL    HW2  606   2.945   2.953   0.592  1.0504  2.9393 -0.1262
  203SOL     OW  607   1.716   1.473   0.305 -0.1957  0.1844 -0.0768
  203SOL    HW1  608   1.761   1.461   0.215 -0.5862 -0.0823  1.6090
  203SOL    HW2  609   1.781   1.454   0.387 -0.1985  0.1228 -0.1875
  204SOL     OW  610   2.622   1.735   1.954  0.1640  0.1062 -0.2705
  204SOL    HW1  611   2.662   1.710   1.868 -1.2570  1.6827 -2.2981
  204SOL    HW2  612   2.604   1.835   1.943 -0.5052 -0.4353  0.2064
  205SOL     OW  613   0.641   0.346   0.798 -0.5846 -0.1889 -0.2725
  205SOL    HW1  614   0.726   0.347   0.860  1.5492 -0.6187 -0.5725
  205SOL    HW2  615   0.587   0.429   0.815  1.2833 -0.5473 -1.1505
  206SOL     OW  616   0.290   1.008   2.613 -0.2043  0.1492 -0.2607
  206SOL    HW1  617   0.277   1.018   2.511  1.3812 -1.6701 -0.9884
  206SOL    HW2  618   0.366   1.060   2.650  1.2506 -0.6814  0.6518
  207SOL     OW  619   1.264   2.478   1.706  0.8053 -0.4389  0.5442
  207SOL    HW1  620   1.232   2.384   1.737 -0.0314  1.2862  0.9892
  207SOL    HW2  621   1.236   2.493   1.608  0.2241  0.7718 -0.7045
  208SOL     OW  622   2.485   0.314   0.890 -0.2533  0.1291  0.1891
  208SOL    HW1  623   2.552   0.233   0.871  0.0148 -0.3341 -2.3450
  208SOL    HW2  624   2.445   0.340   0.804 -0.2304 -1.6453  2.4502
  209SOL     OW  625   2.056   1.044   0.928  0.1832  0.0532 -0.5584
  209SOL    HW1  626   2.111   0.983   0.989  0.2438 -3.1283  0.9116
  209SOL    HW2  627   2.014   0.997   0.848  2.1608  1.0385  0.0329
  210SOL     OW  628   2.276   1.134   0.812  0.4014 -0.2036  0.5077
  210SOL    HW1  629   2.197   1.088   0.854 -0.5352 -2.1414  1.6769
  210SOL    HW2  630   2.251   1.214   0.757  0.4107 -0.0859  0.6794
  211SOL     OW  631   0.904   2.868   2.692 -0.4935  0.0163 -0.1944
  211SOL    HW1  632   0.815   2.848   2.648 -1.2946  0.3687  0.9661
  211SOL    HW2  633   0.887   2.912   2.779 -2.6667 -1.4750  1.2474
  212SOL     OW  634   1.923   1.829   0.323  0.3475  0.2659 -0.0043
  212SOL    HW1  635   2.001   1.804   0.380  0.3832 -0.9452  0.9865
  212SOL    HW2  636   1.922   1.932   0.314  0.7978 -0.0049  2.6891
  213SOL     OW  637   2.128   2.692   0.102  0.4278  0.2245  0.3199
  213SOL    HW1  638   2.168   2.774   0.057  1.7339  0.0458 -2.4716
  213SOL    HW2  639   2.135   2.614   0.039 -0.9858 -2.0800  3.0062
  214SOL     OW  640   1.362   2.458   2.444  0.2900  0.4518  0.0631
  214SOL    HW1  641   1.338   2.385   2.377  2.3824  1.2242  0.3591
  214SOL    HW2  642   1.430   2.522   2.401  1.8255  0.5504 -0.9178
  215SOL     OW  643   0.179   1.580   1.073  0.1422 -0.1181 -0.7688
  215SOL    HW1  644   0.141   1.592   1.165  1.9980 -0.5386 -1.4799
  215SOL    HW2  645   0.133   1.637   1.002 -0.8600 -2.4030  0.7070
  216SOL     OW  646   3.048   3.079   2.456 -0.3715 -0.4731 -0.0408
  216SOL    HW1  647   3.106   3.152   2.409  1.1934  0.3062  0.0595
  216SOL    HW2  648   2.952   3.080   2.416  0.1838 -0.1616 -1.9287
  217SOL     OW  649   2.846   1.504   1.513  0.4324  0.2697 -0.1101
  217SOL    HW1  650   2.936   1.553   1.522  2.2279 -1.8132  1.5630
  217SOL    HW2  651   2.844   1.401   1.521 -1.8070  0.4504 -0.2959
  218SOL     OW  652   0.568   2.255   1.819 -0.2435  0.1061 -0.0906
  218SOL    HW1  653   0.485   2.292   1.770  1.8529  0.1454 -0.5124
  218SOL    HW2  654   0.566   2.152   1.814  0.7399 -0.8931 -0.7868
  219SOL     OW  655   2.186   1.834   2.874 -0.3556 -0.0709  0.7096
  219SOL    HW1  656   2.273   1.829   2.821 -0.0080  0.7661  2.6010
  219SOL    HW2  657   2.181   1.759   2.945 -0.6850 -2.4235 -0.5881
  220SOL     OW  658   1.778   0.347   0.159 -0.3065  0.0765 -0.2872
  220SOL    HW1  659   1.736   0.265   0.113 -0.0597  1.3396  0.9693
  220SOL    HW2  660   1.840   0.406   0.101  1.7842 -0.9192  2.9804
  221SOL     OW  661   0.034   1.329   0.088 -0.0688  0.1204  0.2831
  221SOL    HW1  662   0.030   1.339   0.193  1.3624  0.4637  1.7954
  221SOL    HW2  663  -0.057   1.348   0.046 -1.7357  1.0971  0.4195
  222SOL     OW  664   1.777   1.388   0.760  0.0360  0.2420  0.3113
  222SOL    HW1  665   1.822   1.328   0.689  1.1341 -2.2116 -1.9741
  222SOL    HW2  666   1.739   1.475   0.717  1.0389  1.0326 -2.9111
  223SOL     OW  667   0.826   0.447   2.724 -0.2473  0.5073 -0.7826
  223SOL    HW1  668   0.778   0.358   2.736 -1.7087 -3.5381 -1.9553
  223SOL    HW2  669   0.912   0.457   2.779  0.0783 -0.2962 -1.7588
  224SOL     OW  670   1.128   2.710   1.239  0.2292  0.4189  0.9017
  224SOL    HW1  671   1.087   2.803   1.250 -0.4055 -1.5359  3.2732
  224SOL    HW2  672   1.050   2.643   1.237  1.8974  1.7383 -0.0255
  225SOL     OW  673   0.472   3.032   2.135 -0.0025 -0.0011 -0.0473
  225SOL    HW1  674   0.543   2.955   2.122  3.5566 -1.3298  1.0155
  225SOL    HW2  675   0.508   3.104   2.203 -0.8349 -2.3183  2.5799
  226SOL     OW  676   1.475   1.330   0.827  0.2529  0.4271  0.1248
  226SOL    HW1  677   1.456   1.352   0.732  0.0768  0.1331  1.0818
  226SOL    HW2  678   1.577   1.339   0.845  2.0561 -2.5258  0.0312
  227SOL     OW  679   0.022   2.076   1.571  0.1712  0.1932  0.9139
  227SOL    HW1  680  -0.030   2.148   1.618  1.2525  0.5013  2.1651
  227SOL    HW2  681   0.043   2.000   1.632  2.1159  0.7441  0.8889
  228SOL     OW  682   2.785   1.804   0.385 -0.0065  0.0470 -0.0022
  228SOL    HW1  683   2.886   1.794   0.384 -1.6937  0.7230  0.6956
  228SOL    HW2  684   2.760   1.901   0.367  2.2313  0.2646  2.9354
  229SOL     OW  685   2.616   0.322   3.031  0.0944  0.2030 -0.0594
  229SOL    HW1  686   2.699   0.382   3.037 -0.8437  0.1687  0.4564
  229SOL    HW2  687   2.644   0.223   3.048  0.9950  0.8035  0.8454
  230SOL     OW  688   2.759   1.143   0.258 -0.4285 -0.1627  0.1334
  230SOL    HW1  689   2.845   1.115   0.217 -1.2189  1.0001  1.0295
  230SOL    HW2  690   2.692   1.074   0.231 -1.8632  0.6109 -0.3904
  231SOL     OW  691   1.658   1.749   0.325 -0.5095 -0.0115  0.2506
  231SOL    HW1  692   1.668   1.647   0.329  0.7017 -1.9198  1.0193
  231SOL    HW2  693   1.747   1.791   0.306 -1.7401 -2.4502  0.3783
  232SOL     OW  694   1.874   1.941   1.007  0.5522 -0.0079  0.5998
  232SOL    HW1  695   1.795   1.993   1.039 -2.5606  4.4960  0.1454
  232SOL    HW2  696   1.927   1.919   1.090  2.9302 -0.4826 -0.9051
  233SOL     OW  697   0.648   2.774   1.665 -0.3893 -0.0899  0.1638
  233SOL    HW1  698   0.695   2.702   1.726  0.0516 -0.6962 -1.4461
  233SOL    HW2  699   0.653   2.748   1.565 -2.2674  1.3040  0.0166
  234SOL     OW  700   0.586   0.416   2.467  0.5070  0.0451 -0.7254
  234SOL    HW1  701   0.530   0.406   2.379  0.3311  0.6422 -2.8683
  234SOL    HW2  702   0.686   0.399   2.443  0.1737 -1.2562 -1.1287
  235SOL     OW  703   2.492   0.951   1.640  0.0527 -0.3863  0.0081
  235SOL    HW1  704   2.506   1.000   1.554 -2.7683  0.8776 -1.0935
  235SOL    HW2  705   2.499   0.849   1.636 -1.3846 -1.9162 -3.1502
  236SOL     OW  706   1.710   2.878   1.691 -0.0900  0.3047 -0.8998
  236SOL    HW1  707   1.632   2.929   1.674  0.9397  0.3072 -1.3187
  236SOL    HW2  708   1.792   2.902   1.637  0.1766 -0.4693  1.1488
  237SOL     OW  709   0.465   1.592   2.649  0.1122  0.1738 -0.5972
  237SOL    HW1  710   0.535   1.557   2.586  0.1368  1.2865 -0.4488
  237SOL    HW2  711   0.389   1.523   2.656  2.3971 -0.6408 -1.0150
  238SOL     OW  712   0.840   1.063   2.145  0.2868  0.1278 -0.0514
  238SOL    HW1  713   0.929   1.043   2.196  1.9187  1.3534 -0.7816
  238SOL    HW2  714   0.822   0.988   2.079 -0.0085 -0.1142  0.8255
  239SOL     OW  715   0.992   1.841   2.484 -0.0249 -0.2893 -0.4192
  239SOL    HW1  716   0.894   1.880   2.489 -1.2989  1.3413 -1.4600
  239SOL    HW2  717   1.051   1.923   2.493  0.2805  2.0328  5.3937
  240SOL     OW  718   2.526   2.775   0.427 -0.2404  0.4247 -0.6622
  240SOL    HW1  719   2.555   2.677   0.445  0.8856 -0.4959  1.4413
  240SOL    HW2  720   2.605   2.836   0.396 -0.3865 -0.3788 -0.6009
  241SOL     OW  721   0.830   0.720   0.220 -0.4135 -0.0289  0.0752
  241SOL    HW1  722   0.817   0.640   0.154  1.0679 -0.0250 -1.0182
  241SOL    HW2  723   0.761   0.719   0.294 -0.0154 -1.6333  0.0425
  242SOL     OW  724   1.297   2.726   1.803 -0.1521  0.1789  0.1960
  242SOL    HW1  725   1.344   2.751   1.890  0.3571  1.4671  1.3113
  242SOL    HW2  726   1.311   2.624   1.788 -0.2096  2.6530 -1.4305
  243SOL     OW  727   1.098   2.318   2.035  0.3916 -0.2061  0.6010
  243SOL    HW1  728   1.092   2.401   2.089 -1.5435  0.8711 -2.0873
  243SOL    HW2  729   1.139   2.326   1.944 -0.7276 -1.1822  1.2882
  244SOL     OW  730   2.579   0.797   2.522 -0.5519  0.1887 -0.3961
  244SOL    HW1  731   2.614   0.740   2.447  0.9148 -1.4259 -1.3874
  244SOL    HW2  732   2.563   0.752   2.612 -0.3606  0.9436 -0.4988
  245SOL     OW  733   1.374   2.050   1.381  0.2317 -0.4017  0.5176
  245SOL    HW1  734   1.421   2.139   1.367  1.0920  0.5501  0.3618
  245SOL    HW2  735   1.375   1.995   1.295  1.3145  0.2748  2.1823
  246SOL     OW  736   1.443   0.113   0.435 -0.0433 -0.2963  0.2008
  246SOL    HW1  737   1.480   0.191   0.494 -1.2083 -2.0742  1.4277
  246SOL    HW2  738   1.462   0.132   0.335  0.2317 -0.9585 -2.1230
  247SOL     OW  739   1.628   0.361   2.115 -0.7934  0.3462 -0.1079
  247SOL    HW1  740   1.673   0.432   2.062 -0.4332 -1.1876 -0.3535
  247SOL    HW2  741   1.671   0.274   2.091  3.1524 -0.2730 -0.9480
  248SOL     OW  742   2.993   2.428   1.679 -0.3169  1.0924  0.0633
  248SOL    HW1  743   3.085   2.451   1.633 -1.5994  1.0400  4.4102
  248SOL    HW2  744   3.006   2.425   1.781  1.6458 -1.6362 -1.5424
  249SOL     OW  745   0.836   0.091   0.263 -0.4612  0.3313  0.6457
  249SOL    HW1  746   0.799  -0.002   0.283  0.5536  1.3754 -0.9919
  249SOL    HW2  747   0.773   0.162   0.227 -0.2825  2.4842  1.5014
  250SOL     OW  748   2.378   0.174   2.431  0.2566  0.2231  0.4854
  250SOL    HW1  749   2.285   0.168   2.483 -0.8815 -1.2270  0.2224
  250SOL    HW2  750   2.403   0.270   2.402  1.7307 -0.1859 -1.6862
  251SOL     OW  751   1.155   0.540   0.188  0.1301  0.0621 -0.1252
  251SOL    HW1  752   1.064   0.504   0.181  3.2873  1.2589  0.7699
  251SOL    HW2  753   1.158   0.634   0.143  0.9918 -0.2308 -0.2794
  252SOL     OW  754   1.576   2.589   2.332 -0.8427 -0.2174 -0.2106
  252SOL    HW1  755   1.623   2.674   2.371  0.0572  0.4117  3.1185
  252SOL    HW2  756   1.611   2.567   2.239  0.0917 -1.3993 -0.9922
  253SOL     OW  757   2.623   2.492   0.406 -0.3826  0.7200 -0.1888
  253SOL    HW1  758   2.625   2.515   0.504  1.6797 -0.4420 -1.0589
  253SOL    HW2  759   2.714   2.459   0.384  2.8932  0.2097 -0.2007
  254SOL     OW  760   2.087   1.272   1.598 -0.2920 -0.5931 -0.2874
  254SOL    HW1  761   2.004   1.336   1.611 -1.5994 -0.2915 -0.7175
  254SOL    HW2  762   2.147   1.327   1.534 -2.5286 -0.4700 -0.6987
  255SOL     OW  763   0.861   2.865   1.398  0.1299 -0.3097  0.3044
  255SOL    HW1  764   0.927   2.918   1.344 -1.0295  0.4754 -2.0833
  255SOL    HW2  765   0.908   2.785   1.445 -1.1557  0.7289 -1.1210
  256SOL     OW  766   2.414   1.688   1.427  0.5529 -0.0830  0.2230
  256SOL    HW1  767   2.483   1.637   1.371  1.2897  2.1487  0.8034
  256SOL    HW2  768   2.429   1.791   1.428 -1.7494 -0.0562  0.5913
  257SOL     OW  769   0.699   2.458   2.660 -0.1455 -0.8943 -0.0752
  257SOL    HW1  770   0.772   2.392   2.702 -0.3242  0.5698 -2.6499
  257SOL    HW2  771   0.641   2.497   2.738  1.5092  0.6029  0.7599
  258SOL     OW  772   0.337   2.604   0.635 -0.4068 -0.0017  0.1633
  258SOL    HW1  773   0.355   2.687   0.697 -0.4606  3.8846 -0.2053
  258SOL    HW2  774   0.287   2.535   0.692 -0.7516  1.8883 -1.8829
  259SOL     OW  775   1.205   0.735   2.653  0.1090  0.1688  0.5103
  259SOL    HW1  776   1.267   0.725   2.736  1.6677 -3.0301 -2.6016
  259SOL    HW2  777   1.143   0.816   2.667 -0.9053 -1.0489 -1.1949
  260SOL     OW  778   0.299   0.398   1.439 -0.2483 -0.3286 -0.0422
  260SOL    HW1  779   0.328   0.387   1.535  3.1469  0.1507  1.0454
  260SOL    HW2  780   0.373   0.407   1.376 -2.2804  2.7025 -1.2797
  261SOL     OW  781   1.041   0.175   2.250 -0.5990  0.5608 -0.0290
  261SOL    HW1  782   1.024   0.078   2.235  1.3812 -2.3328 -5.6633
  261SOL    HW2  783   1.073   0.190   2.347 -2.3955  0.2460 -1.5183
  262SOL     OW  784   1.054   2.684   1.922 -0.0025  0.2429 -0.7178
  262SOL    HW1  785   1.084   2.629   2.003  0.3660  0.0149  0.5090
  262SOL    HW2  786   1.136   2.693   1.856 -1.3948  0.1161 -0.6420
  263SOL     OW  787   1.106   2.229   0.154 -0.3097  0.0031  0.5180
  263SOL    HW1  788   1.190   2.279   0.176  2.4065  1.4490 -0.7580
  263SOL    HW2  789   1.123   2.129   0.154  0.6874  1.5406 -0.2077
  264SOL     OW  790   1.576   1.958   0.751  0.1121 -0.2450  0.1901
  264SOL    HW1  791   1.533   1.945   0.662  0.6123 -3.8232  0.0439
  264SOL    HW2  792   1.604   2.053   0.766 -1.6188  2.4961  0.4755
  265SOL     OW  793   0.747   2.490   0.396  0.1158  0.1619  0.5922
  265SOL    HW1  794   0.847   2.468   0.408 -0.9045 -2.1268 -1.0932
  265SOL    HW2  795   0.700   2.481   0.487  1.3808 -1.8307 -0.0775
  266SOL     OW  796   2.750   0.938   1.079  0.1174 -0.0056  0.2578
  266SOL    HW1  797   2.663   0.891   1.053  4.6552 -2.8801 -0.6950
  266SOL    HW2  798   2.815   0.870   1.117 -2.3917 -0.8381  1.7351
  267SOL     OW  799   0.420   1.749   0.237 -0.1638  0.5317 -0.3159
  267SOL    HW1  800   0.513   1.715   0.257  2.7864 -1.8547 -0.7993
  267SOL    HW2  801   0.346   1.699   0.285  0.1785 -0.2718  0.5290
  268SOL     OW  802   1.196   0.293   0.384  0.1292 -0.3346  0.7566
  268SOL    HW1  803   1.168   0.323   0.292  0.1802 -0.4901  1.8902
  268SOL    HW2  804   1.266   0.353   0.422  3.1007 -0.3665  0.4833
  269SOL     OW  805   2.669   0.716   1.808 -0.4893  0.2616  0.0026
  269SOL    HW1  806   2.669   0.631   1.856  0.8091  0.7791 -2.0157
  269SOL    HW2  807   2.604   0.706   1.734 -1.5783 -0.4092 -1.8411
  270SOL     OW  808   2.512   1.271   0.883 -0.2806 -0.1461 -0.4351
  270SOL    HW1  809   2.576   1.236   0.806 -0.0149  0.0365  1.9445
  270SOL    HW2  810   2.427   1.214   0.882  1.7930 -1.0953 -3.1849
  271SOL     OW  811   0.107   1.283   2.289 -0.4284  0.5023  0.2022
  271SOL    HW1  812   0.146   1.280   2.197 -2.1536 -1.4460 -3.5154
  271SOL    HW2  813   0.129   1.370   2.340  0.9054 -0.9298 -0.6298
  272SOL     OW  814   2.611   2.184   2.190 -0.1959 -0.1615  0.1240
  272SOL    HW1  815   2.621   2.265   2.251  1.0877  0.4255  1.1054
  272SOL    HW2  816   2.631   2.101   2.245 -0.1557  0.8961  2.0008
  273SOL     OW  817   0.287   2.482   2.852 -0.0029  0.0852  0.5158
  273SOL    HW1  818   0.282   2.491   2.954  1.3142  0.3363  2.0889
  273SOL    HW2  819   0.193   2.486   2.811 -1.8488 -0.6751  1.6994
  274SOL     OW  820   0.745   2.046   0.654 -0.1274 -0.3921 -0.0821
  274SOL    HW1  821   0.700   2.127   0.685 -0.9569  0.5131  1.0659
  274SOL    HW2  822   0.843   2.039   0.688 -2.9146 -1.3993  0.3181
  275SOL     OW  823   1.499   2.247   2.594  0.4660 -0.4201  0.0555
  275SOL    HW1  824   1.478   2.273   2.688 -0.7026 -1.8441 -1.5335
  275SOL    HW2  825   1.484   2.332   2.537  1.7604 -0.0119  1.6688
  276SOL     OW  826   2.693   1.969   2.325  0.6044 -0.5332  0.5715
  276SOL    HW1  827   2.666   1.876   2.289  0.6540  1.6952 -2.4369
  276SOL    HW2  828   2.698   1.970   2.426  0.0476 -2.4156 -1.6926
  277SOL     OW  829   2.316   0.275   0.651  0.2049 -0.0509 -0.0481
  277SOL    HW1  830   2.357   0.184   0.668  0.6125 -0.9152 -1.7110
  277SOL    HW2  831   2.244   0.271   0.577  0.5962 -0.4934 -0.2682
  278SOL     OW  832   1.365   0.127   2.408  0.2977 -0.5252  0.7076
  278SOL    HW1  833   1.273   0.162   2.435  3.8712  0.6016 -0.6698
  278SOL    HW2  834   1.436   0.190   2.438  1.4943 -0.4338 -1.8923
  279SOL     OW  835   1.374   2.691   1.140 -0.1167 -0.1193  0.2644
  279SOL    HW1  836   1.435   2.721   1.217  1.2410  0.7580  1.0611
  279SOL    HW2  837   1.279   2.673   1.173  1.5441  0.8614  0.4302
  280SOL     OW  838   1.137   1.195   0.657  0.5962  0.0779  0.0776
  280SOL    HW1  839   1.065   1.263   0.686 -0.1566 -1.5228  0.3058
  280SOL    HW2  840   1.154   1.130   0.734 -6.4104  2.4342 -1.0457
  281SOL     OW  841   1.910   1.707   0.097 -0.0793  0.4486  0.7234
  281SOL    HW1  842   1.920   1.746   0.190 -1.5477  1.3465  0.0770
  281SOL    HW2  843   1.875   1.614   0.113 -0.0952 -2.3983 -3.2451
  282SOL     OW  844   2.688   1.230   0.693 -0.0538 -0.4110  0.0478
  282SOL    HW1  845   2.656   1.304   0.630  1.1460 -0.2704  1.8323
  282SOL    HW2  846   2.695   1.140   0.643 -0.3926  1.0879 -1.3449
  283SOL     OW  847   1.967   2.307   2.513  0.2127  0.0531  0.1798
  283SOL    HW1  848   1.895   2.244   2.476 -0.2401 -0.9409 -2.5388
  283SOL    HW2  849   1.921   2.400   2.520 -1.1898 -0.8478 -0.6607
  284SOL     OW  850   0.460   0.650   2.494 -0.2030  0.4637  0.4464
  284SOL    HW1  851   0.514   0.565   2.482  3.5696 -1.5594  1.9899
  284SOL    HW2  852   0.363   0.625   2.505  1.5084  0.8583 -1.7945
  285SOL     OW  853   1.957   1.176   0.106 -0.2716 -0.3312 -0.3502
  285SOL    HW1  854   1.992   1.136   0.019 -0.3239  0.2024  2.3838
  285SOL    HW2  855   1.898   1.108   0.159 -1.0557  4.0235  0.2416
  286SOL     OW  856   0.927   1.672   1.514 -0.7515  0.6909 -0.2966
  286SOL    HW1  857   0.884   1.606   1.582  0.3889 -2.9653  1.7016
  286SOL    HW2  858   0.856   1.728   1.471  0.3338  2.7046 -1.9216
  287SOL     OW  859   2.141   2.756   1.214 -0.7970 -0.0546  0.0830
  287SOL    HW1  860   2.111   2.671   1.164 -1.1376  0.9551 -1.2638
  287SOL    HW2  861   2.095   2.838   1.169 -3.0869 -1.4292  3.2645
  288SOL     OW  862   0.369   2.785   1.725  0.3018  0.6159 -0.7436
  288SOL    HW1  863   0.471   2.771   1.720 -0.3437  1.1844 -0.4865
  288SOL    HW2  864   0.337   2.764   1.632  1.9050  0.0595 -0.2915
  289SOL     OW  865   2.906   1.657   0.720 -0.3235 -0.3249  0.1177
  289SOL    HW1  866   2.871   1.577   0.770 -4.4206 -0.1428 -0.1882
  289SOL    HW2  867   2.834   1.703   0.671 -0.9762 -0.2684  1.2650
  290SOL     OW  868   1.005   2.059   2.033  0.2062  0.2273 -0.1457
  290SOL    HW1  869   1.034   2.158   2.032 -1.5547  1.7975  0.3505
  290SOL    HW2  870   0.941   2.044   2.113  1.6969 -1.8966  1.8942
  291SOL     OW  871   1.833   0.242   0.431  0.0129  0.2181 -0.8872
  291SOL    HW1  872   1.883   0.304   0.494 -0.6057  0.7981  2.1365
  291SOL    HW2  873   1.836   0.276   0.337 -1.4509 -0.6107 -1.7402
  292SOL     OW  874   0.355   0.429   1.700 -0.7341 -0.5599 -0.0802
  292SOL    HW1  875   0.269   0.398   1.739 -2.1068 -0.2752 -0.6664
  292SOL    HW2  876   0.427   0.402   1.767 -1.2765 -0.3184  0.6024
  293SOL     OW  877   2.263   1.142   1.214 -0.1953  0.3820 -0.2569
  293SOL    HW1  878   2.277   1.236   1.176  2.9911 -0.5295  0.8923
  293SOL    HW2  879   2.252   1.073   1.139  2.2108 -1.4014 -1.9348
  294SOL     OW  880   0.144   0.457   2.268  0.2317 -0.3585  0.2306
  294SOL    HW1  881   0.082   0.513   2.207  0.5772 -1.3506 -2.0421
  294SOL    HW2  882   0.146   0.502   2.364  0.7682 -0.5022  1.3151
  295SOL     OW  883   0.861   1.283   0.516 -0.1188 -0.1576 -0.0086
  295SOL    HW1  884   0.859   1.284   0.617 -0.3066  0.2116 -0.7214
  295SOL    HW2  885   0.934   1.218   0.479 -1.2029  0.6631  1.2404
  296SOL     OW  886   1.717   1.207   1.223  0.1068  0.1209  0.1219
  296SOL    HW1  887   1.760   1.240   1.136 -0.4003  0.2746 -0.1949
  296SOL    HW2  888   1.783   1.147   1.270 -0.4869 -1.0096  1.2464
  297SOL     OW  889   1.674   0.694   2.825  0.4279 -0.5447  0.1947
  297SOL    HW1  890   1.745   0.737   2.769 -0.6479  0.8739  1.1736
  297SOL    HW2  891   1.686   0.595   2.806 -2.4409 -3.6452 -3.3083
  298SOL     OW  892   0.855   0.608   2.484 -0.7001  0.2895  0.2968
  298SOL    HW1  893   0.877   0.554   2.570  0.6834  2.2917  0.9501
  298SOL    HW2  894   0.795   0.686   2.508  0.9701 -1.7132 -0.9667
  299SOL     OW  895   1.104   0.338   1.993  0.2973 -0.3719  0.7316
  299SOL    HW1  896   1.048   0.286   1.928 -0.4596  0.1603 -0.6511
  299SOL    HW2  897   1.085   0.301   2.082 -1.6002 -2.9595  1.3096
  300SOL     OW  898   2.459   0.148   1.836 -0.0541  0.1398 -0.5193
  300SOL    HW1  899   2.478   0.067   1.893 -0.3017  0.4549  0.0703
  300SOL    HW2  900   2.446   0.234   1.889  0.0430 -0.1510  2.7294
  301SOL     OW  901   1.633   1.001   1.586 -0.4013 -0.0390  0.2369
  301SOL    HW1  902   1.579   1.088   1.591  0.7834  0.2339  1.9503
  301SOL    HW2  903   1.725   1.008   1.623  0.7536 -0.5199  2.2076
  302SOL     OW  904   0.552   2.735   2.366 -0.7046  0.2496 -0.5900
  302SOL    HW1  905   0.453   2.717   2.343  1.0210  0.4186 -0.6007
  302SOL    HW2  906   0.597   2.749   2.276  1.3252 -0.5072 -1.5482
  303SOL     OW  907   1.460   1.920   1.868  0.6662 -0.1610 -0.2661
  303SOL    HW1  908   1.403   1.902   1.783 -2.2790 -1.7890  1.3955
  303SOL    HW2  909   1.419   1.899   1.952 -1.1670 -1.8757 -0.4968
  304SOL     OW  910   0.378   2.798   0.826 -0.4495  0.6395 -0.2020
  304SOL    HW1  911   0.479   2.811   0.849 -1.7900  0.9219  0.8379
  304SOL    HW2  912   0.316   2.801   0.911  1.0871  0.7379  2.8194
  305SOL     OW  913   1.445   0.991   0.560  0.5778  0.1858  0.3613
  305SOL    HW1  914   1.376   0.915   0.557 -0.3695  2.1754 -2.3320
  305SOL    HW2  915   1.448   1.041   0.653 -2.1909 -0.6756  1.0122
  306SOL     OW  916   0.542   1.444   0.414  0.1119  0.3030  0.1294
  306SOL    HW1  917   0.596   1.511   0.355  2.0733  0.3238  1.2670
  306SOL    HW2  918   0.480   1.489   0.480 -1.8469  2.6331 -1.5826
  307SOL     OW  919   0.290   1.038   1.692  0.2771  0.0503  0.6654
  307SOL    HW1  920   0.326   0.952   1.652  0.6506  1.2916  1.3705
  307SOL    HW2  921   0.256   1.030   1.789  2.5803  2.0195 -1.0594
  308SOL     OW  922   0.649   0.127   1.247  0.4357  0.2774  0.6268
  308SOL    HW1  923   0.681   0.061   1.176  0.2958 -0.8508  1.3578
  308SOL    HW2  924   0.731   0.145   1.307 -0.2512 -0.8965 -2.8421
  309SOL     OW  925   2.143   0.665   0.201  0.1113  0.8465 -0.0514
  309SOL    HW1  926   2.211   0.724   0.153  0.1277 -1.7127 -0.7122
  309SOL    HW2  927   2.099   0.607   0.133  0.5575 -1.4641 -0.2106
  310SOL     OW  928   1.427   0.920   0.125  0.3697 -0.0481  0.1232
  310SOL    HW1  929   1.399   0.829   0.166  0.3071 -0.4550  0.2479
  310SOL    HW2  930   1.414   0.988   0.202  0.3000 -2.2823 -1.1396
  311SOL     OW  931   1.720   2.170   2.435 -0.0743 -0.3465 -0.2736
  311SOL    HW1  932   1.716   2.208   2.336  0.7315 -0.3135  0.2632
  311SOL    HW2  933   1.647   2.213   2.492 -1.0617  2.9792  0.8594
  312SOL     OW  934   1.912   3.036   2.781 -0.1344  0.3759 -0.3404
  312SOL    HW1  935   1.838   3.109   2.788  2.4751 -0.0164  0.6773
  312SOL    HW2  936   1.964   3.034   2.871 -0.0173 -1.1634  0.4336
  313SOL     OW  937   0.311   0.552   0.700 -0.7559 -0.0263 -0.5771
  313SOL    HW1  938   0.396   0.575   0.750 -2.2742 -0.4065  0.8177
  313SOL    HW2  939   0.310   0.598   0.608 -2.1246  2.1143 -0.8771
  314SOL     OW  940   2.840   1.304   2.844 -0.0976  0.2469  0.5821
  314SOL    HW1  941   2.790   1.246   2.778 -0.0039  0.3717  0.4717
  314SOL    HW2  942   2.926   1.337   2.808  0.5836  1.1081 -0.0279
  315SOL     OW  943   1.643   0.798   1.981 -0.9005  0.0833 -0.4257
  315SOL    HW1  944   1.580   0.819   2.058  0.7369  2.6400  1.4045
  315SOL    HW2  945   1.596   0.820   1.895  1.2063  0.3522  0.6581
  316SOL     OW  946   3.007   1.084   0.961 -0.7512  0.7438  0.1673
  316SOL    HW1  947   2.922   1.035   0.966 -2.7230  2.0711  0.6166
  316SOL    HW2  948   3.082   1.028   0.914 -0.8198 -0.4989  3.4114
  317SOL     OW  949   0.664   0.349   0.289  1.3735 -0.7288  0.3423
  317SOL    HW1  950   0.664   0.311   0.385 -0.0123 -1.5235  0.1676
  317SOL    HW2  951   0.593   0.421   0.275  4.6552  0.0473  2.4602
  318SOL     OW  952   2.763   2.825   1.273 -0.3974 -0.8582  0.5574
  318SOL    HW1  953   2.699   2.743   1.272 -0.2415  0.0056  0.1051
  318SOL    HW2  954   2.738   2.893   1.343  2.2055  1.1331 -1.8645
  319SOL     OW  955   1.101   1.693   0.481 -0.0785  0.0168 -0.4356
  319SOL    HW1  956   1.017   1.636   0.500 -2.7762  0.6078 -2.0622
  319SOL    HW2  957   1.186   1.649   0.521  1.4486  2.4446 -2.2700
  320SOL     OW  958   0.650   2.260   0.775  0.1297 -0.6251 -0.0311
  320SOL    HW1  959   0.681   2.226   0.864 -1.2962  0.8495 -1.3439
  320SOL    HW2  960   0.554   2.236   0.751 -0.5749 -0.1553  0.5962
  321SOL     OW  961   2.443   2.253   2.458  0.5322  0.3069 -0.3490
  321SOL    HW1  962   2.363   2.302   2.417 -2.7912  0.6796  0.2002
  321SOL    HW2  963   2.525   2.311   2.455 -1.2577 -1.4442  2.6537
  322SOL     OW  964   2.886   2.553   2.422  0.1038 -0.0146  0.6697
  322SOL    HW1  965   2.985   2.544   2.449  1.6969  0.0695  1.5401
  322SOL    HW2  966   2.874   2.638   2.363  1.2525 -0.3724  4.0757
  323SOL     OW  967   2.930   0.369   0.737 -0.1943 -0.5128  0.5887
  323SOL    HW1  968   3.006   0.402   0.674  0.0224  1.3846 -0.2563
  323SOL    HW2  969   2.866   0.435   0.767  2.2266  0.1101  2.9008
  324SOL     OW  970   2.576   1.590   2.636  0.0837  0.3758 -0.7157
  324SOL    HW1  971   2.656   1.651   2.646 -1.9741 -0.2514 -0.1786
  324SOL    HW2  972   2.576   1.537   2.549 -1.4943  0.6407  0.4294
  325SOL     OW  973   1.473   0.362   2.568  0.1683 -0.2874  0.2032
  325SOL    HW1  974   1.435   0.315   2.651 -1.3428 -1.7259 -3.0280
  325SOL    HW2  975   1.413   0.446   2.543  1.3987  0.0453 -3.3194
  326SOL     OW  976   2.756   2.082   0.333 -0.3251 -0.4170  0.5608
  326SOL    HW1  977   2.673   2.107   0.282  0.5302 -1.5653 -0.9494
  326SOL    HW2  978   2.837   2.108   0.282  0.1626 -0.3670 -0.2971
  327SOL     OW  979   2.617   0.054   3.051  0.5153 -0.7805  0.0551
  327SOL    HW1  980   2.515   0.051   3.073  0.4704 -1.8856  2.2963
  327SOL    HW2  981   2.633   0.000   2.968  0.4817 -2.7572 -0.7776
  328SOL     OW  982   1.122   0.397   0.752 -0.6736 -0.5150  0.6476
  328SOL    HW1  983   1.051   0.430   0.687 -0.7252  2.0300  0.2190
  328SOL    HW2  984   1.158   0.304   0.721  0.3532  1.4693 -0.0626
  329SOL     OW  985   1.883   1.073   1.681 -0.2372 -0.2603 -0.1004
  329SOL    HW1  986   1.936   0.995   1.653  0.9088 -0.5055 -1.2652
  329SOL    HW2  987   1.918   1.161   1.635  0.6784  0.6047  1.8367
  330SOL     OW  988   1.302   0.138   0.703  0.3500 -0.3320 -0.1161
  330SOL    HW1  989   1.324   0.147   0.606  0.5145 -0.9186 -1.1318
  330SOL    HW2  990   1.360   0.061   0.734  4.6160 -0.4843  1.3628
  331SOL     OW  991   0.398   1.816   1.796 -0.8593 -0.4999  0.4005
  331SOL    HW1  992   0.487   1.865   1.813 -4.0845 -0.6442 -0.4918
  331SOL    HW2  993   0.328   1.854   1.859  0.6375  1.8697 -2.3805
  332SOL     OW  994   2.276   2.058   1.888  0.3910 -0.6744  0.3068
  332SOL    HW1  995   2.265   1.997   1.807  4.4401  3.4385 -0.3335
  332SOL    HW2  996   2.197   2.044   1.959  1.7325 -0.2151  1.3296
  333SOL     OW  997   3.053   2.997   0.889 -0.1751  0.3177 -0.3274
  333SOL    HW1  998   3.002   3.087   0.874  1.3207 -0.3534  1.1672
  333SOL    HW2  999   3.121   3.016   0.959  0.3012 -2.2739 -2.0821
  334SOL     OW 1000   2.721   1.655   1.048 -0.4155  0.3232  0.4818
  334SOL    HW1 1001   2.791   1.721   1.065 -1.9537 -0.2762 -0.3810
  334SOL    HW2 1002   2.748   1.599   0.966  0.7739 -2.2440 -0.9252
  335SOL     OW 1003   0.474   3.083   2.671  0.0400 -0.1075  0.0455
  335SOL    HW1 1004   0.400   3.014   2.662 -1.6712 -1.6136 -0.8886
  335SOL    HW2 1005   0.559   3.054   2.627 -0.1242 -2.6225 -0.4369
  336SOL     OW 1006   0.245   2.699   1.497 -0.3362 -0.7600  0.1558
  336SOL    HW1 1007   0.290   2.737   1.411 -1.0180  0.9931 -0.8802
  336SOL    HW2 1008   0.150   2.737   1.508  2.4224  2.1048 -1.2279
  337SOL     OW 1009   0.819   1.990   2.221  0.6318  0.1977  0.3958
  337SOL    HW1 1010   0.786   2.059   2.293  0.2336 -1.2789  1.8615
  337SOL    HW2 1011   0.744   1.943   2.181 -2.5096 -0.3832 -1.3085
  338SOL     OW 1012   1.026   3.005   2.222 -0.3936  1.1273  0.2021
  338SOL    HW1 1013   1.088   2.928   2.242  0.7636  0.7823 -0.5034
  338SOL    HW2 1014   0.962   2.977   2.148  1.5011 -1.3645 -0.9713
  339SOL     OW 1015   0.162   1.583   3.066  0.3540 -0.0210  0.0129
  339SOL    HW1 1016   0.138   1.500   3.119  0.8444  1.9658 -0.1375
  339SOL    HW2 1017   0.097   1.588   2.989  1.0047  1.4831 -1.8288
  340SOL     OW 1018   2.145   0.422   1.070  0.0563 -0.1290  0.0589
  340SOL    HW1 1019   2.047   0.414   1.103  1.0728  0.9733 -1.4582
  340SOL    HW2 1020   2.170   0.335   1.018  2.0078  1.6566  3.2497
  341SOL     OW 1021   1.836   1.231   0.980  0.0153 -0.1714 -0.7876
  341SOL    HW1 1022   1.801   1.280   0.897  2.8986  1.2520  1.5094
  341SOL    HW2 1023   1.929   1.193   0.971  0.4018  0.4842 -2.9804
  342SOL     OW 1024   2.288   2.178   2.663  0.6442 -0.4052  0.2051
  342SOL    HW1 1025   2.239   2.089   2.643  2.7983  0.6830  0.9025
  342SOL    HW2 1026   2.322   2.218   2.576  2.3291  1.7948 -1.5874
  343SOL     OW 1027   0.056   2.605   1.106  0.7207 -0.2960  0.3889
  343SOL    HW1 1028   0.003   2.607   1.020  1.1244 -1.3096 -1.0024
  343SOL    HW2 1029  -0.004   2.635   1.180  1.4456  1.7557 -0.9948
  344SOL     OW 1030   2.684   2.837   0.778  0.6928  0.3598 -0.3038
  344SOL    HW1 1031   2.755   2.858   0.704  0.3357  0.6235  0.6327
  344SOL    HW2 1032   2.734   2.838   0.867  1.3734  0.0027 -2.7176
  345SOL     OW 1033   2.309   2.164   0.483 -0.2913 -0.0977  0.3865
  345SOL    HW1 1034   2.305   2.239   0.415  0.4937  0.5438 -0.4805
  345SOL    HW2 1035   2.217   2.139   0.505 -3.4586  0.2409 -1.8162
  346SOL     OW 1036   0.875   1.977   1.793  0.3497  0.4827  0.1683
  346SOL    HW1 1037   0.924   1.960   1.707 -1.1592  0.3633  1.2451
  346SOL    HW2 1038   0.947   1.995   1.872  1.9990  2.4626 -0.4996
  347SOL     OW 1039   2.114   2.001   2.534 -1.4282 -0.1977 -0.5009
  347SOL    HW1 1040   2.017   1.982   2.554  0.0411 -0.0021  1.5686
  347SOL    HW2 1041   2.134   2.003   2.434  0.5249 -2.5720 -1.0781
  348SOL     OW 1042   0.271   1.994   1.145  0.2650  0.2826  0.4437
  348SOL    HW1 1043   0.191   2.001   1.089 -0.4931  2.7315 -1.2121
  348SOL    HW2 1044   0.300   2.088   1.169  0.0723 -0.2074  0.1859
  349SOL     OW 1045   1.349   1.624   1.530  0.2845 -0.2461 -0.5426
  349SOL    HW1 1046   1.303   1.568   1.456  0.9466  0.3439  0.5418
  349SOL    HW2 1047   1.369   1.573   1.610 -0.9431 -0.2760  1.9524
  350SOL     OW 1048   2.205   1.910   0.798 -0.4402  0.2248 -0.6100
  350SOL    HW1 1049   2.208   1.904   0.901  0.6162 -1.8625  1.1928
  350SOL    HW2 1050   2.136   1.975   0.765  0.5934  2.5485 -1.2186
  351SOL     OW 1051   0.172   0.060   1.750  0.4635 -0.1158  0.1475
  351SOL    HW1 1052   0.198   0.001   1.821 -2.2295 -0.1507  0.0955
  351SOL    HW2 1053   0.182   0.160   1.772 -3.5996 -1.6799 -0.7773
  352SOL     OW 1054   0.721   1.012   0.430 -0.9152 -0.1159 -0.1472
  352SOL    HW1 1055   0.815   1.040   0.461  1.5794  1.8706  1.1941
  352SOL    HW2 1056   0.644   1.074   0.460 -0.0932  1.3132  0.5951
  353SOL     OW 1057   1.298   1.530   2.958 -0.0898 -0.9831 -0.3570
  353SOL    HW1 1058   1.335   1.448   3.005  0.2905  2.0908  0.8720
  353SOL    HW2 1059   1.371   1.593   2.928  2.0868  3.0352  1.4558
  354SOL     OW 1060   2.002   2.215   1.553  0.1556 -0.4919  0.0691
  354SOL    HW1 1061   1.934   2.288   1.542 -0.1302 -1.1761 -0.4698
  354SOL    HW2 1062   2.062   2.243   1.633 -0.2396  0.5192  1.1076
  355SOL     OW 1063   2.118   0.661   2.730 -0.3748  0.0375 -1.0190
  355SOL    HW1 1064   2.200   0.724   2.733  0.4819  3.8395  0.8697
  355SOL    HW2 1065   2.032   0.704   2.714  3.0505  1.2699  2.0135
  356SOL     OW 1066   0.626   2.418   1.364  0.3791 -0.0301  0.2054
  356SOL    HW1 1067   0.721   2.375   1.390  1.1828  1.5609  1.5300
  356SOL    HW2 1068   0.639   2.516   1.363  0.2880 -0.7004 -1.7918
  357SOL     OW 1069   0.114   0.338   1.786  0.2586 -0.0026 -0.0903
  357SOL    HW1 1070   0.054   0.299   1.857  3.9484 -1.7145  0.3328
  357SOL    HW2 1071   0.076   0.351   1.692  2.2735 -3.5018 -0.2952
  358SOL     OW 1072   2.418   1.955   1.447  0.1540  0.0397 -0.2251
  358SOL    HW1 1073   2.374   2.007   1.371  0.3926  0.9267 -2.4063
  358SOL    HW2 1074   2.519   1.966   1.445 -0.7323 -0.9232  3.0872
  359SOL     OW 1075   2.094   1.669   2.070 -0.0368  1.0296 -0.1706
  359SOL    HW1 1076   2.185   1.704   2.094 -1.3556  3.7206  1.7636
  359SOL    HW2 1077   2.098   1.620   1.981  1.2354 -1.2407 -0.0912
  360SOL     OW 1078   1.359   2.315   0.849 -0.3035  0.3794 -0.1082
  360SOL    HW1 1079   1.256   2.308   0.858  0.8609  1.3885  0.7936
  360SOL    HW2 1080   1.390   2.332   0.754  2.0150  2.3616 -0.7323
  361SOL     OW 1081   1.678   2.892   0.080  0.2994  0.2026  0.1796
  361SOL    HW1 1082   1.589   2.852   0.099 -1.0001  1.6683 -1.1508
  361SOL    HW2 1083   1.755   2.835   0.113 -0.3405 -1.5445  1.2289
  362SOL     OW 1084   1.605   0.736   1.411 -0.1406 -0.0780 -0.6494
  362SOL    HW1 1085   1.610   0.829   1.455 -0.8404  1.5598 -1.8167
  362SOL    HW2 1086   1.695   0.688   1.424 -0.3308  1.1462  0.5364
  363SOL     OW 1087   1.533   1.537   1.951 -0.3319 -0.0569 -0.4425
  363SOL    HW1 1088   1.475   1.544   2.036 -2.9962  0.2044 -1.4450
  363SOL    HW2 1089   1.611   1.473   1.968  3.5696 -0.1440 -1.2474
  364SOL     OW 1090   0.501   0.630   1.596 -0.1043 -0.3221 -0.1131
  364SOL    HW1 1091   0.450   0.561   1.652  0.7512  2.9940  1.3812
  364SOL    HW2 1092   0.539   0.594   1.507  1.1297 -0.8359 -0.4401
  365SOL     OW 1093   1.073   1.233   0.019 -0.4482 -0.3927 -0.8802
  365SOL    HW1 1094   1.071   1.187  -0.073  0.0646  1.0955  1.0684
  365SOL    HW2 1095   0.992   1.296   0.024  0.9909 -0.9158 -0.5521
  366SOL     OW 1096   2.319   0.840   2.748  0.4341  0.2644 -0.1728
  366SOL    HW1 1097   2.408   0.791   2.754  0.0603 -2.5092 -1.3804
  366SOL    HW2 1098   2.297   0.883   2.834 -1.2416  2.8262  0.5057
  367SOL     OW 1099   2.959   2.908   2.072 -0.6182  0.1523 -1.1894
  367SOL    HW1 1100   2.870   2.940   2.041 -2.6041 -0.4460 -1.2154
  367SOL    HW2 1101   3.027   2.987   2.079  0.2423 -0.1481  0.0430
  368SOL     OW 1102   2.741   1.030   1.567 -0.8212  0.0368 -0.1724
  368SOL    HW1 1103   2.657   0.986   1.609 -1.8407 -0.7001 -1.3584
  368SOL    HW2 1104   2.790   1.082   1.638 -2.9516  2.0780  3.2952
  369SOL     OW 1105   0.261   3.014   1.969 -0.2079 -0.0413  0.8032
  369SOL    HW1 1106   0.261   2.913   1.963 -2.1396 -0.2884  0.9533
  369SOL    HW2 1107   0.334   3.041   2.033  0.4698  2.9039 -1.4922
  370SOL     OW 1108   2.805   0.159   0.597 -0.0972 -1.0776 -0.0499
  370SOL    HW1 1109   2.717   0.178   0.549  3.3888 -1.5247  0.8136
  370SOL    HW2 1110   2.834   0.246   0.644  2.6548  0.4799 -2.7081
  371SOL     OW 1111   0.864   2.338   1.469  0.0752  0.2100  0.1809
  371SOL    HW1 1112   0.943   2.275   1.453  0.0145 -0.5898  1.1628
  371SOL    HW2 1113   0.838   2.332   1.570 -1.5323  0.4131  1.2784
  372SOL     OW 1114   2.147   0.159   2.563  0.3511 -0.0672  0.7455
  372SOL    HW1 1115   2.156   0.220   2.644  0.2133 -0.7819  2.6526
  372SOL    HW2 1116   2.060   0.164   2.511 -0.8611  0.4380  1.4756
  373SOL     OW 1117   3.066   2.179   0.682 -0.0810 -0.1971  0.2161
  373SOL    HW1 1118   3.081   2.268   0.634 -1.6171  0.5619 -1.4666
  373SOL    HW2 1119   3.088   2.195   0.781  1.6647  0.2598  1.7723
  374SOL     OW 1120   2.835   0.338   2.392 -0.2376  0.0838  0.3679
  374SOL    HW1 1121   2.843   0.244   2.367  0.5444  0.9846 -2.2171
  374SOL    HW2 1122   2.904   0.358   2.460 -3.6586 -1.1953  0.4652
  375SOL     OW 1123   0.669   0.664   2.749 -0.2648 -0.4541 -0.1426
  375SOL    HW1 1124   0.578   0.658   2.708 -0.3276  1.8336  0.0384
  375SOL    HW2 1125   0.734   0.588   2.733 -0.1807  0.2741  0.0688
  376SOL     OW 1126   2.742   2.004   1.836 -0.0069 -0.0604  0.1095
  376SOL    HW1 1127   2.801   2.061   1.893 -3.0387 -3.6711  0.7881
  376SOL    HW2 1128   2.646   1.998   1.875  0.1886  0.3623  0.1260
  377SOL     OW 1129   1.143   0.252   2.491 -0.2123  0.1083  0.7474
  377SOL    HW1 1130   1.120   0.215   2.584 -0.9448 -0.7551  0.8432
  377SOL    HW2 1131   1.171   0.350   2.498  3.1961 -2.3012 -2.7284
  378SOL     OW 1132   2.986   1.157   2.637 -0.7140  0.0838 -0.4145
  378SOL    HW1 1133   3.038   1.101   2.700  0.5942  1.9553 -1.8947
  378SOL    HW2 1134   2.884   1.144   2.648  3.6171  0.2068 -2.6381
  379SOL     OW 1135   1.050   0.948   2.685  0.0270  0.1274 -0.2197
  379SOL    HW1 1136   1.059   1.029   2.746 -0.6240  2.7142  0.1789
  379SOL    HW2 1137   0.971   0.962   2.619  1.6762 -1.9016 -0.6063
  380SOL     OW 1138   0.062   1.921   1.792 -0.8197 -0.2864  0.1172
  380SOL    HW1 1139   0.111   2.002   1.824  2.7712 -1.8846 -0.0823
  380SOL    HW2 1140  -0.011   1.893   1.856  1.0228  1.3112 -1.9569
  381SOL     OW 1141   0.177   1.215   2.986  0.1712  0.6957  0.5040
  381SOL    HW1 1142   0.123   1.251   3.065 -0.1024 -1.8951  1.7059
  381SOL    HW2 1143   0.139   1.125   2.971  1.4262  2.4775  0.2744
  382SOL     OW 1144   2.001   2.319   0.674  0.2851 -0.0961  0.1278
  382SOL    HW1 1145   1.945   2.385   0.735  0.7275  3.2212 -1.2150
  382SOL    HW2 1146   1.987   2.224   0.705  1.4171 -0.0301  1.3557
  383SOL     OW 1147   0.673   1.649   0.268 -0.2701  0.5667  0.1912
  383SOL    HW1 1148   0.735   1.578   0.230  0.6908  2.0960  0.3857
  383SOL    HW2 1149   0.726   1.724   0.312  0.9666 -0.9369 -0.8660
  384SOL     OW 1150   0.788   2.592   2.406 -0.0320 -0.6284 -0.3265
  384SOL    HW1 1151   0.701   2.648   2.386  0.3874  2.8081 -2.1555
  384SOL    HW2 1152   0.768   2.542   2.493  0.3549  1.8716  0.5273
  385SOL     OW 1153   2.422   1.899   0.595  0.7471 -0.8678  0.1005
  385SOL    HW1 1154   2.341   1.903   0.656 -2.8501 -2.0882  0.4873
  385SOL    HW2 1155   2.415   1.981   0.534  1.0252 -2.1845  0.0808
  386SOL     OW 1156   2.292   0.646   0.957  0.2273  0.6192  0.0797
  386SOL    HW1 1157   2.252   0.574   1.010 -2.3411  0.5184 -3.3702
  386SOL    HW2 1158   2.321   0.608   0.865  0.2070 -0.3958  2.8572
  387SOL     OW 1159   0.798   0.863   1.977  0.0687 -0.1834 -0.2801
  387SOL    HW1 1160   0.723   0.826   1.919 -1.1077 -1.5985 -2.3633
  387SOL    HW2 1161   0.886   0.820   1.941 -1.6877 -0.9473 -3.0786
  388SOL     OW 1162   1.110   1.469   2.610  0.1580 -0.1200 -0.8823
  388SOL    HW1 1163   1.120   1.528   2.693  0.4468 -0.1375 -0.4733
  388SOL    HW2 1164   1.022   1.417   2.618 -0.5484 -2.2247  1.1954
  389SOL     OW 1165   0.686   1.171   1.866 -0.2939  0.6375  0.3055
  389SOL    HW1 1166   0.685   1.070   1.852 -4.3164 -0.4713 -1.6346
  389SOL    HW2 1167   0.776   1.211   1.825 -1.2096 -0.8406  1.5191
  390SOL     OW 1168   0.159   3.062   1.076  0.0922  0.2930 -0.1681
  390SOL    HW1 1169   0.190   3.110   1.162  0.3264  0.4774 -0.2150
  390SOL    HW2 1170   0.212   3.101   0.992  4.1819  1.1904 -3.3443
  391SOL     OW 1171   1.438   1.059   0.820 -0.0171 -0.2101  0.0569
  391SOL    HW1 1172   1.347   1.026   0.843 -1.1809 -0.7097  1.0499
  391SOL    HW2 1173   1.445   1.160   0.845 -0.7661 -2.7482 -1.9600
  392SOL     OW 1174   2.980   0.103   0.248  0.1617  0.0448  0.4032
  392SOL    HW1 1175   3.054   0.057   0.202  0.5026 -1.2381 -0.2311
  392SOL    HW2 1176   2.889   0.081   0.212 -0.6487 -0.2777  1.2497
  393SOL     OW 1177   1.622   2.099   2.950  0.4321  0.4366  0.0950
  393SOL    HW1 1178   1.643   1.999   2.950  1.0225 -0.3579 -1.4406
  393SOL    HW2 1179   1.531   2.118   2.999  1.5065 -2.4227 -2.7806
  394SOL     OW 1180   0.055   2.516   2.742 -0.5902 -0.0803 -0.1328
  394SOL    HW1 1181   0.078   2.557   2.650 -1.0307 -2.4299 -1.2435
  394SOL    HW2 1182  -0.036   2.470   2.725  3.4951  0.1485  2.1055
  395SOL     OW 1183   0.558   0.110   0.869 -0.0894 -0.0622  0.0721
  395SOL    HW1 1184   0.596   0.053   0.795  2.8413  0.0133 -0.0976
  395SOL    HW2 1185   0.582   0.210   0.858  0.8442 -0.9332 -2.0087
  396SOL     OW 1186   2.426   0.744   0.560  0.3863  0.5770  0.1443
  396SOL    HW1 1187   2.425   0.774   0.462  0.1443  2.0053 -1.5842
  396SOL    HW2 1188   2.521   0.715   0.583 -0.8859  1.4081  0.9262
  397SOL     OW 1189   0.082   0.791   2.542 -0.0522 -0.4934  0.3461
  397SOL    HW1 1190   0.044   0.817   2.452 -0.4070 -0.7179 -3.3630
  397SOL    HW2 1191   0.161   0.848   2.559  1.1698  0.9034 -0.9678
  398SOL     OW 1192   0.721   0.199   2.759  0.2352  0.1714  0.5852
  398SOL    HW1 1193   0.625   0.194   2.797  0.4668 -0.7041  0.4611
  398SOL    HW2 1194   0.738   0.156   2.667 -1.0298 -0.0789  2.1091
  399SOL     OW 1195   1.910   0.505   2.234 -0.5006 -0.0651  0.7839
  399SOL    HW1 1196   1.944   0.408   2.217 -1.9413  1.5688 -0.2256
  399SOL    HW2 1197   1.855   0.538   2.156 -0.4263 -0.2779  0.2345
  400SOL     OW 1198   1.029   2.109   2.740  0.3864  0.5276  0.0367
  400SOL    HW1 1199   1.085   2.088   2.659 -1.1642  1.1143 -0.1031
  400SOL    HW2 1200   1.011   2.025   2.797  0.7380 -0.3480 -0.1699
  401SOL     OW 1201   0.271   1.038   2.344 -0.0020  0.2690  0.6509
  401SOL    HW1 1202   0.218   1.126   2.332  0.7611 -1.2030 -1.1517
  401SOL    HW2 1203   0.373   1.050   2.357  1.7428  0.0959 -2.1506
  402SOL     OW 1204   0.201   0.119   0.627  0.4238  0.4343  0.4492
  402SOL    HW1 1205   0.228   0.022   0.615 -0.8294 -4.1549 -0.8202
  402SOL    HW2 1206   0.108   0.139   0.593  0.2304  0.9820  0.7639
  403SOL     OW 1207   0.132   1.250   1.637  0.7013  0.3984 -0.1871
  403SOL    HW1 1208   0.180   1.162   1.644  0.8020  0.2111  1.3286
  403SOL    HW2 1209   0.141   1.297   1.548  0.4326  0.4557  0.9216
  404SOL     OW 1210   2.283   2.538   2.585  0.5884  0.4306 -0.6972
  404SOL    HW1 1211   2.213   2.609   2.610 -1.0638 -0.1159  2.1766
  404SOL    HW2 1212   2.241   2.472   2.523  1.6978 -0.2337 -1.8416
  405SOL     OW 1213   3.080   0.615   2.129  0.0171  0.1916  0.6667
  405SOL    HW1 1214   2.986   0.565   2.134 -0.7034  0.0322  0.3419
  405SOL    HW2 1215   3.115   0.623   2.032  1.3649 -2.1335  0.6826
  406SOL     OW 1216   1.976   1.349   2.846 -0.1615  0.1980 -0.4237
  406SOL    HW1 1217   1.884   1.379   2.869  1.0112 -0.8942  0.2019
  406SOL    HW2 1218   1.981   1.244   2.838 -1.0608 -1.5893  1.9731
  407SOL     OW 1219   1.894   0.393   2.808 -0.1132  0.1108 -0.2728
  407SOL    HW1 1220   1.833   0.439   2.737  0.5046 -1.8738  0.7464
  407SOL    HW2 1221   1.877   0.431   2.903  0.9994  0.6553  1.0292
  408SOL     OW 1222   0.286   2.733   2.227  0.0007  0.7939 -0.0127
  408SOL    HW1 1223   0.208   2.790   2.260  2.5289 -1.4329 -0.5162
  408SOL    HW2 1224   0.273   2.731   2.123  4.7203 -1.7014 -0.6277
  409SOL     OW 1225   0.065   2.290   1.308 -0.1872 -0.0191 -0.1190
  409SOL    HW1 1226  -0.037   2.316   1.299 -0.6669 -1.3192  2.8941
  409SOL    HW2 1227   0.080   2.194   1.340  1.4701 -0.5659 -1.0630
  410SOL     OW 1228   3.068   1.818   0.359  0.2190 -0.3843  0.6311
  410SOL    HW1 1229   3.100   1.909   0.395  2.1366 -1.7495 -0.3867
  410SOL    HW2 1230   3.134   1.742   0.384  0.8963 -2.6748  1.7940
  411SOL     OW 1231   2.442   0.047   1.297 -0.1345  0.3827  0.4346
  411SOL    HW1 1232   2.344   0.058   1.267 -2.4385  2.4568  1.3449
  411SOL    HW2 1233   2.450   0.056   1.394  0.5751  2.2353  1.7081
  412SOL     OW 1234   2.354   0.395   1.264  0.0061  0.3906 -0.6290
  412SOL    HW1 1235   2.435   0.416   1.201  0.8469  0.1297  1.1098
  412SOL    HW2 1236   2.267   0.422   1.220  1.1761  0.8770 -1.3302
  413SOL     OW 1237   3.058   0.814   2.299 -0.1100 -0.7749 -0.2146
  413SOL    HW1 1238   3.054   0.738   2.229  0.3411  0.9427 -1.1825
  413SOL    HW2 1239   2.972   0.851   2.328 -1.9321  0.2503 -0.5260
  414SOL     OW 1240   2.794   1.618   0.155 -0.2578 -0.1147 -0.9545
  414SOL    HW1 1241   2.769   1.546   0.223  0.7514  2.2254  3.1511
  414SOL    HW2 1242   2.774   1.707   0.204 -2.2546  2.0896 -0.4119
  415SOL     OW 1243   0.760   2.505   0.130  0.1284 -0.0457 -0.0353
  415SOL    HW1 1244   0.852   2.475   0.106 -1.5497  0.6852  0.6458
  415SOL    HW2 1245   0.742   2.507   0.233 -1.3923  0.8093  0.5311
  416SOL     OW 1246   1.591   2.716   2.719  0.4666  0.0126 -0.6061
  416SOL    HW1 1247   1.492   2.692   2.733 -2.2249  1.9748  0.9432
  416SOL    HW2 1248   1.617   2.787   2.787 -1.3559  1.5054 -1.6420
  417SOL     OW 1249   3.049   1.074   1.239  0.1579 -0.0396 -0.4378
  417SOL    HW1 1250   3.028   1.092   1.143  1.4890 -2.4634 -0.3943
  417SOL    HW2 1251   3.154   1.062   1.253  2.4065  0.0121  0.2734
  418SOL     OW 1252   2.309   2.904   0.604  0.0871 -0.0031 -0.7095
  418SOL    HW1 1253   2.222   2.849   0.604 -1.1386 -0.7570  1.1312
  418SOL    HW2 1254   2.379   2.852   0.554 -1.0378 -0.2556 -1.6510
  419SOL     OW 1255   0.317   0.113   0.219  0.4294 -0.1772  0.2894
  419SOL    HW1 1256   0.339   0.187   0.287  1.4769 -1.9681  1.5079
  419SOL    HW2 1257   0.347   0.025   0.257 -0.8010  1.7051 -0.1430
  420SOL     OW 1258   2.882   1.208   1.418 -0.0210  0.5884 -0.4485
  420SOL    HW1 1259   2.947   1.165   1.354  2.3625  2.4042 -0.8566
  420SOL    HW2 1260   2.824   1.135   1.460 -0.1384  3.3532 -2.1740
  421SOL     OW 1261   1.809   2.715   0.659 -0.6363 -0.0961 -0.1077
  421SOL    HW1 1262   1.802   2.717   0.555  0.7214 -0.6387 -0.3278
  421SOL    HW2 1263   1.734   2.776   0.698  2.2812 -0.8993  1.3376
  422SOL     OW 1264   0.195   0.639   1.326 -0.2704  0.1348 -0.2222
  422SOL    HW1 1265   0.256   0.576   1.384  0.0703 -2.0999 -0.1108
  422SOL    HW2 1266   0.123   0.589   1.272 -1.2916  1.3392  0.5566
  423SOL     OW 1267   0.559   1.343   2.064  0.6295  0.1206 -0.2842
  423SOL    HW1 1268   0.611   1.278   2.004 -2.3795 -1.4881  1.6213
  423SOL    HW2 1269   0.560   1.434   2.024  0.7807 -0.8609 -2.6986
  424SOL     OW 1270   2.079   2.007   0.567 -0.4820  0.0106  0.1833
  424SOL    HW1 1271   2.099   1.908   0.544  2.0481  0.1918  0.8413
  424SOL    HW2 1272   2.000   2.016   0.635  1.7837  0.1302  1.7077
  425SOL     OW 1273   2.487   3.021   2.002  0.4229  0.1159 -0.3937
  425SOL    HW1 1274   2.453   2.940   1.956  0.6175  3.6892  3.1079
  425SOL    HW2 1275   2.477   3.022   2.104  0.4321 -0.8830 -0.0387
  426SOL     OW 1276   0.272   2.891   2.719  0.3228  0.1582 -0.0301
  426SOL    HW1 1277   0.291   2.919   2.816  1.1126  0.3766  0.9845
  426SOL    HW2 1278   0.173   2.894   2.708 -2.9391  1.5111  2.4552
  427SOL     OW 1279   0.910   0.094   2.936  0.6770 -0.4946  0.5480
  427SOL    HW1 1280   0.860   0.141   2.863  0.7877 -1.1027  2.2942
  427SOL    HW2 1281   0.877  -0.004   2.946  0.2934  2.1823  1.8792
  428SOL     OW 1282   2.869   0.279   1.459  0.4380  0.3256  0.1066
  428SOL    HW1 1283   2.878   0.179   1.489 -0.9320 -0.1320  0.8070
  428SOL    HW2 1284   2.783   0.293   1.406  1.0330  1.0296  1.1085
  429SOL     OW 1285   1.988   0.084   0.161 -0.2745 -0.0844  0.5078
  429SOL    HW1 1286   2.059   0.156   0.167  1.0225  0.0990 -0.9411
  429SOL    HW2 1287   2.014   0.016   0.235 -2.2573 -1.2906  1.1338
  430SOL     OW 1288   1.265   1.224   2.640 -0.3041  0.4413 -0.4423
  430SOL    HW1 1289   1.219   1.312   2.650 -1.5446  2.8360  0.3112
  430SOL    HW2 1290   1.262   1.187   2.545  3.1414 -0.5654  1.9839
  431SOL     OW 1291   2.632   2.429   1.070  0.7105 -0.2397  0.3233
  431SOL    HW1 1292   2.722   2.408   1.025  0.1616  1.9254  0.9748
  431SOL    HW2 1293   2.564   2.357   1.050 -2.0060  0.1305  3.2476
  432SOL     OW 1294   1.488   2.337   2.858  0.1338 -0.1713  0.1519
  432SOL    HW1 1295   1.420   2.260   2.875 -2.0573 -1.1082  0.6135
  432SOL    HW2 1296   1.572   2.326   2.907  3.2634 -1.5120  1.1925
  433SOL     OW 1297   1.249   0.512   2.496  0.1332  0.2431  0.5395
  433SOL    HW1 1298   1.233   0.594   2.557  2.6257  1.0821  4.2237
  433SOL    HW2 1299   1.233   0.539   2.402  0.3213 -0.0588 -0.5114
  434SOL     OW 1300   1.164   2.775   2.311 -0.4559  0.1616 -0.1674
  434SOL    HW1 1301   1.128   2.746   2.399  0.4940  2.0305  1.1429
  434SOL    HW2 1302   1.263   2.801   2.313 -3.3252  1.9388 -0.6932
  435SOL     OW 1303   0.259   0.141   3.060 -0.2062  0.1614  0.1416
  435SOL    HW1 1304   0.278   0.145   3.160  2.5936  2.6540  0.5060
  435SOL    HW2 1305   0.212   0.226   3.028 -0.4240 -1.9734  1.1088
  436SOL     OW 1306   0.459   1.226   2.687 -0.6902  0.1189 -0.2730
  436SOL    HW1 1307   0.504   1.219   2.596  2.7106  1.4812  2.2745
  436SOL    HW2 1308   0.385   1.297   2.694 -1.5377  0.9800 -1.0484
  437SOL     OW 1309   1.164   2.474   2.625 -0.0687  0.1223 -0.2935
  437SOL    HW1 1310   1.255   2.480   2.583 -1.1604  1.5294  0.9839
  437SOL    HW2 1311   1.098   2.549   2.597 -0.7793  2.4935  0.4379
  438SOL     OW 1312   0.777   0.659   0.656  0.1230 -0.3392 -0.2003
  438SOL    HW1 1313   0.843   0.717   0.707 -0.3815  2.0943  3.2539
  438SOL    HW2 1314   0.814   0.570   0.630  0.5480 -2.5347 -1.1724
  439SOL     OW 1315   2.955   1.626   2.142 -0.4297  0.3399  0.0553
  439SOL    HW1 1316   2.897   1.546   2.131  4.6760 -1.9825  0.8490
  439SOL    HW2 1317   2.943   1.687   2.064  2.0396 -0.7449 -0.7358
  440SOL     OW 1318   2.977   0.657   2.686 -0.1995 -0.3367  0.1074
  440SOL    HW1 1319   3.030   0.724   2.628 -1.5400  1.1397 -1.3139
  440SOL    HW2 1320   2.895   0.697   2.722  0.6234 -1.2879  1.0824
  441SOL     OW 1321   0.768   1.872   1.401 -0.6200 -0.0105  0.2401
  441SOL    HW1 1322   0.685   1.898   1.453  1.5551  0.6142  2.1570
  441SOL    HW2 1323   0.737   1.828   1.316  2.6032  1.4608 -0.4074
  442SOL     OW 1324   1.904   1.449   0.501 -0.1779  0.0183  0.5725
  442SOL    HW1 1325   1.977   1.480   0.434 -0.1918  1.3835 -2.3227
  442SOL    HW2 1326   1.867   1.531   0.549 -1.3952  0.4283 -2.4010
  443SOL     OW 1327   2.441   1.908   0.114 -0.4471  0.3777  0.4748
  443SOL    HW1 1328   2.415   1.821   0.159  2.8879  1.4156  0.7526
  443SOL    HW2 1329   2.520   1.890   0.049 -0.0547 -1.5500 -1.1054
  444SOL     OW 1330   1.828   1.435   0.065 -0.4542  0.8282 -0.4485
  444SOL    HW1 1331   1.891   1.351   0.076  1.5390  2.4011  0.5257
  444SOL    HW2 1332   1.773   1.431  -0.019  0.9608 -0.5524  0.8965
  445SOL     OW 1333   0.394   2.212   2.210 -0.0661 -0.1889  0.1217
  445SOL    HW1 1334   0.391   2.131   2.146  1.2226 -1.1688  0.1108
  445SOL    HW2 1335   0.385   2.184   2.305 -0.8190 -0.5723 -3.1413
  446SOL     OW 1336   0.736   0.975   1.622 -0.4521 -0.1109 -0.1935
  446SOL    HW1 1337   0.697   1.035   1.549 -0.6643  2.2500  3.5407
  446SOL    HW2 1338   0.661   0.917   1.657  2.5926 -1.3202 -3.3871
  447SOL     OW 1339   0.998   0.488   0.530 -0.3093 -0.1063  0.5892
  447SOL    HW1 1340   1.029   0.418   0.462  0.2203  3.3846 -1.4666
  447SOL    HW2 1341   1.014   0.586   0.505 -1.7257  1.5476  0.2525
  448SOL     OW 1342   1.070   0.841   1.829  0.0014 -0.2727 -0.1923
  448SOL    HW1 1343   1.055   0.894   1.744 -0.1424  1.6268 -0.3929
  448SOL    HW2 1344   1.143   0.881   1.890  1.0258 -1.5014  1.2342
  449SOL     OW 1345   0.404   1.694   2.317  0.2889 -0.1714  0.0611
  449SOL    HW1 1346   0.506   1.687   2.324 -1.5688 -2.4659  1.2484
  449SOL    HW2 1347   0.361   1.743   2.394  2.6467 -1.3495 -2.3341
  450SOL     OW 1348   2.092   1.586   1.812  0.0481  0.4834  0.8079
  450SOL    HW1 1349   2.183   1.591   1.770 -2.9053 -1.8365  2.7880
  450SOL    HW2 1350   2.020   1.627   1.756  1.6711  0.7737 -0.8640
  451SOL     OW 1351   2.251   1.413   1.449 -0.3846 -0.9583 -0.3023
  451SOL    HW1 1352   2.292   1.478   1.515  0.9322  2.1760  0.2323
  451SOL    HW2 1353   2.323   1.372   1.389 -1.5998  1.6853 -0.2600
  452SOL     OW 1354   0.413   1.005   1.345  0.6720 -0.7111  0.4806
  452SOL    HW1 1355   0.329   1.037   1.293  0.1395 -1.3457  3.0171
  452SOL    HW2 1356   0.386   0.934   1.417 -1.1714 -0.8968  2.2668
  453SOL     OW 1357   0.043   1.967   0.993 -0.5279  0.4381  0.1242
  453SOL    HW1 1358   0.046   1.892   0.928 -0.7390  3.5668  2.6405
  453SOL    HW2 1359   0.006   2.054   0.952 -0.3764  0.1084 -1.0787
  454SOL     OW 1360   1.372   1.081   0.315  0.2664  0.3735 -0.1641
  454SOL    HW1 1361   1.397   1.181   0.297 -3.5064 -1.6018  0.6958
  454SOL    HW2 1362   1.392   1.052   0.411  2.0345  1.6583 -0.0159
  455SOL     OW 1363   1.815   0.488   0.881 -0.0229 -0.5083  0.1752
  455SOL    HW1 1364   1.823   0.387   0.893 -0.2464 -2.5410  0.0293
  455SOL    HW2 1365   1.907   0.520   0.867  0.5569 -1.0144 -1.9374
  456SOL     OW 1366   1.831   2.812   0.400 -0.6676 -0.6702  0.4095
  456SOL    HW1 1367   1.840   2.755   0.316  0.5071  0.1863  1.0784
  456SOL    HW2 1368   1.767   2.889   0.394 -0.6390  0.0564  0.3200
  457SOL     OW 1369   2.072   1.177   2.059 -0.4508  0.0643 -0.2284
  457SOL    HW1 1370   2.121   1.240   1.992 -0.6442 -1.1024 -1.5874
  457SOL    HW2 1371   2.093   1.080   2.042 -0.2161  2.4003 -2.5611
  458SOL     OW 1372   2.635   1.058   2.434  0.7686  0.0466 -0.3993
  458SOL    HW1 1373   2.592   0.973   2.466  1.7267 -0.9660 -0.0468
  458SOL    HW2 1374   2.705   1.040   2.359 -3.9454  1.4827 -1.1297
  459SOL     OW 1375   2.418   1.229   2.568  0.0159  0.5756  0.3647
  459SOL    HW1 1376   2.475   1.311   2.549 -0.2316  0.2924 -0.9380
  459SOL    HW2 1377   2.381   1.221   2.663 -0.2140 -1.9409  1.7495
  460SOL     OW 1378   0.688   1.099   2.770 -0.0281 -0.3126 -0.0512
  460SOL    HW1 1379   0.594   1.141   2.756 -1.5822  1.9460 -0.3828
  460SOL    HW2 1380   0.740   1.168   2.822 -1.5094 -1.1321  0.1096
  461SOL     OW 1381   0.266   2.478   0.039 -0.1398 -0.0230 -0.0847
  461SOL    HW1 1382   0.308   2.452   0.127 -2.4643  2.7414 -0.4941
  461SOL    HW2 1383   0.229   2.575   0.031  0.2729 -0.7901  5.3937
  462SOL     OW 1384   1.417   2.842   2.307  0.3447  0.1309 -0.0901
  462SOL    HW1 1385   1.439   2.933   2.271 -1.2531  0.1615  1.6998
  462SOL    HW2 1386   1.488   2.808   2.367  0.5926 -0.5821 -1.2784
  463SOL     OW 1387   2.038   2.018   2.029  0.1669 -0.1561  0.2632
  463SOL    HW1 1388   1.986   1.929   2.020  2.1514 -1.7634 -0.0193
  463SOL    HW2 1389   2.065   2.035   2.130 -0.9995 -1.4486  0.7057
  464SOL     OW 1390   2.626   2.594   0.669 -0.0698  0.0085 -0.3889
  464SOL    HW1 1391   2.527   2.563   0.671  0.9625 -1.0444  2.5809
  464SOL    HW2 1392   2.634   2.693   0.691 -2.6687  0.4882 -1.2834
  465SOL     OW 1393   0.052   3.087   1.508 -0.1466  0.5012 -0.3687
  465SOL    HW1 1394   0.100   3.109   1.423  1.3435  0.7387  0.3692
  465SOL    HW2 1395   0.100   3.122   1.591 -1.3104 -0.8125 -0.3609
  466SOL     OW 1396   1.352   2.582   2.775 -0.3156 -0.4532  0.4439
  466SOL    HW1 1397   1.407   2.497   2.778  0.4681 -0.9424  0.4486
  466SOL    HW2 1398   1.260   2.553   2.747 -0.0113 -3.4134  2.2545
  467SOL     OW 1399   2.988   2.159   0.232 -0.1396  0.4670  0.3229
  467SOL    HW1 1400   3.045   2.204   0.155 -1.2303  3.1368 -0.3687
  467SOL    HW2 1401   3.045   2.121   0.309 -1.0773 -1.3433 -0.3281
  468SOL     OW 1402   1.999   2.247   2.773 -0.0697  0.2609  0.2078
  468SOL    HW1 1403   2.093   2.249   2.810 -1.0218 -0.3694 -1.7110
  468SOL    HW2 1404   2.001   2.270   2.675  0.6362  3.3345 -0.4411
  469SOL     OW 1405   1.030   1.826   0.873  0.8590 -0.1233  0.2783
  469SOL    HW1 1406   0.959   1.753   0.875  1.8553 -0.1661 -0.1685
  469SOL    HW2 1407   1.024   1.871   0.966  2.0538  0.7065 -0.3164
  470SOL     OW 1408   2.037   0.614   0.775  0.2791 -0.0483 -0.1376
  470SOL    HW1 1409   2.030   0.719   0.780  0.2150 -1.3586 -0.1154
  470SOL    HW2 1410   2.134   0.583   0.779  1.0606 -0.3944  2.7576
  471SOL     OW 1411   0.284   2.020   0.225  0.0173 -0.4319 -0.1674
  471SOL    HW1 1412   0.355   2.074   0.174 -3.0689 -1.1477 -2.1106
  471SOL    HW2 1413   0.275   1.928   0.185  0.3369 -0.4331 -0.4501
  472SOL     OW 1414   2.642   1.875   3.048 -0.0402 -0.5003 -0.3505
  472SOL    HW1 1415   2.726   1.815   3.053  0.0799 -0.0964 -1.2289
  472SOL    HW2 1416   2.669   1.962   2.998  5.3117  0.2503 -0.0289
  473SOL     OW 1417   1.742   1.652   0.664  0.5239 -0.8316  0.1650
  473SOL    HW1 1418   1.674   1.726   0.660 -0.0176  0.5253 -1.4212
  473SOL    HW2 1419   1.799   1.661   0.750  0.7951 -0.8556 -2.2151
  474SOL     OW 1420   2.785   0.604   1.097 -0.2218  0.4970 -0.6223
  474SOL    HW1 1421   2.796   0.600   0.995  2.9586  0.9051 -3.0038
  474SOL    HW2 1422   2.872   0.608   1.149  1.0639  1.7490 -1.8972
  475SOL     OW 1423   2.806   0.146   1.803  0.6411  0.2036  1.1684
  475SOL    HW1 1424   2.831   0.093   1.719  0.3919 -0.9115  1.7663
  475SOL    HW2 1425   2.743   0.225   1.781 -1.7291 -3.8280 -1.3360
  476SOL     OW 1426   0.966   0.051   0.984 -0.1804  0.1424 -0.8354
  476SOL    HW1 1427   0.957   0.139   0.932 -0.0492 -0.2869  1.2687
  476SOL    HW2 1428   0.874   0.009   0.995 -0.5213  2.7326 -2.0696
  477SOL     OW 1429   1.345   2.310   1.243  0.7538  0.1975  0.2706
  477SOL    HW1 1430   1.380   2.264   1.163  1.3111  0.0784 -0.2743
  477SOL    HW2 1431   1.415   2.356   1.298 -1.2600 -3.5381 -2.3100
  478SOL     OW 1432   1.183   2.842   3.001 -0.6034  0.1584  0.5165
  478SOL    HW1 1433   1.211   2.930   3.033 -1.2189 -0.4798 -1.2927
  478SOL    HW2 1434   1.214   2.832   2.906 -1.0599  1.5275  1.1088
  479SOL     OW 1435   2.138   0.923   2.016 -0.2704  0.1786 -0.0201
  479SOL    HW1 1436   2.162   0.907   2.116  2.0396 -2.1858 -1.4226
  479SOL    HW2 1437   2.215   0.896   1.953 -1.3646  2.0563  2.5383
  480SOL     OW 1438   2.923   2.378   2.746  0.3931 -0.6185 -0.2491
  480SOL    HW1 1439   2.891   2.325   2.664  0.1392  0.4402  2.9775
  480SOL    HW2 1440   2.848   2.416   2.806 -0.7961  2.5176 -1.4388
  481SOL     OW 1441   1.714   2.625   1.789 -0.5975  0.0339  0.2935
  481SOL    HW1 1442   1.632   2.574   1.763  0.9489  3.0414 -1.0053
  481SOL    HW2 1443   1.692   2.723   1.776 -0.2304  1.6064  1.9161
  482SOL     OW 1444   1.894   2.565   2.211 -0.0616 -0.1267 -0.0360
  482SOL    HW1 1445   1.882   2.551   2.312  1.6635  0.1658  0.5181
  482SOL    HW2 1446   1.810   2.543   2.155 -0.1658  1.8508 -0.5382
  483SOL     OW 1447   0.921   2.720   3.004  0.1402 -0.0737  0.6670
  483SOL    HW1 1448   0.996   2.759   3.061  0.2130 -0.7597  1.0493
  483SOL    HW2 1449   0.953   2.656   2.934  0.5310  2.0546 -1.6150
  484SOL     OW 1450   2.466   0.024   1.580 -0.0407  0.1782 -0.2038
  484SOL    HW1 1451   2.389  -0.038   1.598 -3.6586  1.1210 -2.3589
  484SOL    HW2 1452   2.478   0.085   1.663 -1.7148 -0.2018 -2.0971
  485SOL     OW 1453   2.186   0.429   0.383  0.0459  0.0193 -0.3729
  485SOL    HW1 1454   2.190   0.506   0.316 -1.2254 -0.8010 -2.3775
  485SOL    HW2 1455   2.110   0.438   0.453  2.2515  0.4804  0.5174
  486SOL     OW 1456   2.417   2.710   2.393 -0.0936  0.0258 -0.0918
  486SOL    HW1 1457   2.489   2.769   2.429  0.1877  0.8213  0.1317
  486SOL    HW2 1458   2.373   2.654   2.468  0.2688 -1.3457  3.3088
  487SOL     OW 1459   1.020   1.054   0.456 -0.2861  0.1647 -0.6150
  487SOL    HW1 1460   1.062   1.033   0.367  1.1752 -3.1647 -0.4948
  487SOL    HW2 1461   1.079   1.089   0.528  0.2462  1.7064  0.3342
  488SOL     OW 1462   2.591   2.894   2.486 -0.0637 -0.2014  0.1296
  488SOL    HW1 1463   2.577   2.992   2.513  1.5975 -0.0869 -2.7658
  488SOL    HW2 1464   2.655   2.838   2.543  0.2217 -0.4898 -2.0515
  489SOL     OW 1465   1.343   2.703   0.401  0.4185  0.0209  0.8566
  489SOL    HW1 1466   1.340   2.731   0.499  0.1263  0.3043  2.1414
  489SOL    HW2 1467   1.246   2.688   0.374  1.2702 -1.5808 -1.2638
  490SOL     OW 1468   1.382   0.891   2.491  0.2676  0.3862 -0.0589
  490SOL    HW1 1469   1.320   0.975   2.477  1.4534 -0.9548 -4.7209
  490SOL    HW2 1470   1.332   0.815   2.537 -0.9736  1.0907  0.7442
  491SOL     OW 1471   1.038   2.978   1.224  0.3682  0.2960  0.0511
  491SOL    HW1 1472   1.013   3.022   1.136  0.0387  0.7761  1.3244
  491SOL    HW2 1473   1.100   3.042   1.275 -1.9362 -0.8298 -0.7273
  492SOL     OW 1474   1.424   2.593   3.047  0.2902  0.3504  0.1911
  492SOL    HW1 1475   1.402   2.582   2.951  0.5097  0.0288 -0.2229
  492SOL    HW2 1476   1.386   2.682   3.081  1.3342  0.9657  1.3944
  493SOL     OW 1477   1.274   2.159   2.858  0.6248 -0.2580 -0.3608
  493SOL    HW1 1478   1.295   2.063   2.845  1.6525  0.8134 -1.9247
  493SOL    HW2 1479   1.188   2.179   2.807  0.6398  1.4479 -1.0309
  494SOL     OW 1480   1.049   0.063   0.455  0.3895  0.1043 -0.4885
  494SOL    HW1 1481   0.970   0.078   0.399 -0.2551 -0.6099 -2.7007
  494SOL    HW2 1482   1.113   0.138   0.436 -1.7397  0.1711  3.2007
  495SOL     OW 1483   2.430   0.367   1.998 -0.1487  0.4911  0.2478
  495SOL    HW1 1484   2.359   0.440   1.999  0.6409 -1.6275 -3.6546
  495SOL    HW2 1485   2.523   0.407   1.986 -1.6687 -2.7437 -1.5435
  496SOL     OW 1486   2.508   2.023   2.731 -0.3109 -0.5115  0.2219
  496SOL    HW1 1487   2.442   2.093   2.705 -2.5928  1.7678 -1.7385
  496SOL    HW2 1488   2.461   1.928   2.722 -2.7762  0.6441  0.6974
  497SOL     OW 1489   1.914   1.093   2.753 -0.2476 -0.1396 -0.0021
  497SOL    HW1 1490   1.981   1.040   2.694 -0.8346  0.2027 -0.8813
  497SOL    HW2 1491   1.851   1.134   2.688  0.6884  3.4547 -1.0523
  498SOL     OW 1492   0.758   2.606   1.079 -1.0275 -0.0297 -0.5299
  498SOL    HW1 1493   0.654   2.609   1.083 -0.2275 -3.5474 -0.4863
  498SOL    HW2 1494   0.799   2.580   1.168 -1.7950  2.7503 -2.2598
  499SOL     OW 1495   0.033   2.250   0.946  0.4907 -0.1245 -0.3057
  499SOL    HW1 1496   0.120   2.301   0.948  1.2269  1.2762 -0.6565
  499SOL    HW2 1497  -0.047   2.301   0.982  1.1867 -0.5532 -0.2558
  500SOL     OW 1498   0.663   2.818   2.602  0.1422  0.1539  0.0733
  500SOL    HW1 1499   0.605   2.773   2.669 -0.0676  1.0051 -0.7564
  500SOL    HW2 1500   0.625   2.802   2.509  0.6813 -0.5864  1.8738
  501SOL     OW 1501   1.733   0.092   0.086 -0.0167 -0.2761  0.6893
  501SOL    HW1 1502   1.832   0.104   0.113  1.4346 -0.5726 -3.1102
  501SOL    HW2 1503   1.710  -0.011   0.083  3.1288  0.6324 -0.0430
  502SOL     OW 1504   0.289   0.110   0.883  0.2328 -0.7823 -0.1398
  502SOL    HW1 1505   0.255   0.108   0.784 -0.2120 -3.0099 -0.9309
  502SOL    HW2 1506   0.393   0.113   0.885 -0.6261  1.9817  0.0988
  503SOL     OW 1507   1.939   2.954   2.000 -0.2971  0.0005 -0.1179
  503SOL    HW1 1508   1.975   2.903   2.081 -2.6126 -2.0525  1.7432
  503SOL    HW2 1509   1.843   2.970   2.013 -0.7690 -0.3781 -3.6128
  504SOL     OW 1510   2.355   1.606   1.704  0.4158  0.1619  0.3159
  504SOL    HW1 1511   2.394   1.624   1.608  2.1639  3.1566  3.5251
  504SOL    HW2 1512   2.421   1.580   1.774 -0.1980  1.9491  3.2107
  505SOL     OW 1513   1.660   2.979   2.054 -0.1697 -0.6697  0.5875
  505SOL    HW1 1514   1.603   3.039   2.112  0.7487 -0.4209 -0.4531
  505SOL    HW2 1515   1.613   2.927   1.980  1.0175 -0.1044 -1.7522
  506SOL     OW 1516   0.350   0.749   1.940  0.0528  0.0767 -0.4245
  506SOL    HW1 1517   0.269   0.692   1.907  0.8606  1.6688 -0.7433
  506SOL    HW2 1518   0.331   0.804   2.021 -0.1055 -3.4031  1.0054
  507SOL     OW 1519   1.922   0.479   0.540  0.2934  0.2877  0.1144
  507SOL    HW1 1520   1.863   0.549   0.490  1.6044  1.4902  0.0226
  507SOL    HW2 1521   1.970   0.519   0.617  0.2927 -1.1153 -1.0630
  508SOL     OW 1522   1.956   0.689   1.648  0.2891 -0.1470 -0.0927
  508SOL    HW1 1523   1.928   0.740   1.732 -1.0485  0.6091  1.4980
  508SOL    HW2 1524   2.047   0.712   1.615 -2.6329 -2.9120 -1.6732
  509SOL     OW 1525   0.958   1.918   2.927  0.0388  0.6129 -0.0785
  509SOL    HW1 1526   1.035   1.858   2.958  1.0315 -0.3223 -0.5036
  509SOL    HW2 1527   0.931   1.991   2.992 -0.2852  0.0305  0.8711
  510SOL     OW 1528   0.230   0.831   1.112 -0.8360  0.0650  0.0523
  510SOL    HW1 1529   0.161   0.829   1.036 -0.6419 -1.1389  0.2973
  510SOL    HW2 1530   0.221   0.744   1.166  0.6558 -2.5040 -0.3003
  511SOL     OW 1531   1.456   1.192   1.204  0.5842 -0.3185  0.0622
  511SOL    HW1 1532   1.553   1.201   1.212  0.9097  0.5324  0.4682
  511SOL    HW2 1533   1.430   1.267   1.139 -1.7923  0.8877 -0.6911
  512SOL     OW 1534   0.406   1.948   0.469  0.4142  0.0199 -0.1950
  512SOL    HW1 1535   0.358   1.960   0.379  1.9352 -1.8664 -0.1800
  512SOL    HW2 1536   0.503   1.932   0.452 -0.5657 -3.0459 -2.8582
  513SOL     OW 1537   0.077   2.382   0.517 -0.2477  0.5585 -0.5489
  513SOL    HW1 1538   0.047   2.475   0.492  2.2563 -0.9516  0.8175
  513SOL    HW2 1539   0.138   2.336   0.451  1.1552  1.5422  0.7674
  514SOL     OW 1540   0.680   1.914   0.437  0.1665 -0.2375  0.2136
  514SOL    HW1 1541   0.716   1.972   0.517 -2.0744  1.7238  1.9233
  514SOL    HW2 1542   0.723   1.929   0.342  1.0752 -0.4914 -1.2731
  515SOL     OW 1543   0.159   0.385   2.947 -0.3262  0.0697  0.2335
  515SOL    HW1 1544   0.088   0.459   2.973  1.6110 -1.4435  1.2090
  515SOL    HW2 1545   0.245   0.438   2.931 -1.4165 -0.4685  0.1992
  516SOL     OW 1546   2.061   0.117   1.443  0.3101 -0.2294  0.6547
  516SOL    HW1 1547   2.017   0.026   1.443 -2.0818 -1.5418 -0.7414
  516SOL    HW2 1548   2.120   0.120   1.362 -0.6370  0.8367  0.3217
  517SOL     OW 1549   1.899   1.698   0.881  0.1047  0.2385 -0.1230
  517SOL    HW1 1550   1.904   1.628   0.953 -0.8921  2.3373 -0.7027
  517SOL    HW2 1551   1.898   1.790   0.918 -0.4811  0.1382 -0.6197
  518SOL     OW 1552   1.778   2.852   1.107  0.2273  0.2149  1.1182
  518SOL    HW1 1553   1.758   2.755   1.146 -0.6492 -0.6348  2.0096
  518SOL    HW2 1554   1.695   2.882   1.054  0.5921  0.8367 -2.7726
  519SOL     OW 1555   2.925   2.670   0.342  0.4644 -0.0933 -0.1671
  519SOL    HW1 1556   2.972   2.647   0.430 -0.5563 -0.8122 -1.6138
  519SOL    HW2 1557   2.908   2.584   0.299  1.8466  2.2182 -0.3295
  520SOL     OW 1558   2.205   1.306   1.855 -0.6604  0.6042  0.3572
  520SOL    HW1 1559   2.176   1.401   1.857 -0.8523  2.1573 -0.5438
  520SOL    HW2 1560   2.179   1.268   1.761 -0.3176  2.0671 -2.1248
  521SOL     OW 1561   1.460   2.744   2.044 -0.3339  0.2712  0.6852
  521SOL    HW1 1562   1.539   2.677   2.048 -3.1743 -0.4954  0.4001
  521SOL    HW2 1563   1.447   2.782   2.142  4.3179 -0.0083  0.0504
  522SOL     OW 1564   0.252   2.729   1.954  0.2805 -0.0211  0.3723
  522SOL    HW1 1565   0.296   2.726   1.859 -2.2573  1.1984 -2.7102
  522SOL    HW2 1566   0.151   2.719   1.940  0.0948  0.2440 -1.4435
  523SOL     OW 1567   0.290   2.520   2.380 -0.6240 -0.4832  0.2327
  523SOL    HW1 1568   0.385   2.479   2.385  1.5918 -1.8981 -0.0203
  523SOL    HW2 1569   0.288   2.599   2.314  0.7976  2.7799  1.4961
  524SOL     OW 1570   1.946   2.321   0.422 -0.8491  0.2855  0.1258
  524SOL    HW1 1571   1.925   2.227   0.386  0.3682 -1.7576  0.7761
  524SOL    HW2 1572   1.954   2.312   0.523 -1.8093  0.8854  0.0660
  525SOL     OW 1573   2.978   0.397   2.625  0.1418  0.1286 -0.3894
  525SOL    HW1 1574   2.986   0.498   2.640  0.3509  0.9119  0.2983
  525SOL    HW2 1575   3.066   0.354   2.667 -0.9428 -0.0749  2.0777
  526SOL     OW 1576   0.485   2.354   0.315  0.3351 -0.3089 -0.0520
  526SOL    HW1 1577   0.576   2.385   0.351 -0.4213  0.1312  0.5763
  526SOL    HW2 1578   0.495   2.273   0.253 -0.6476 -1.3174  3.9110
  527SOL     OW 1579   2.737   0.956   0.786 -0.2345  0.4772  0.0391
  527SOL    HW1 1580   2.638   0.970   0.757  1.4608 -0.0399  1.4953
  527SOL    HW2 1581   2.732   0.927   0.886  1.7406 -2.2864 -0.5197
  528SOL     OW 1582   1.145   1.388   2.199  0.0710 -0.4932  0.2051
  528SOL    HW1 1583   1.114   1.453   2.274 -0.5289 -0.2942  0.1517
  528SOL    HW2 1584   1.063   1.350   2.149 -0.1653 -2.8775  1.3585
  529SOL     OW 1585   0.462   1.216   0.765 -0.2750  0.0145 -0.1704
  529SOL    HW1 1586   0.557   1.225   0.801 -0.5752 -0.2117  2.3099
  529SOL    HW2 1587   0.407   1.297   0.786 -1.2338  2.7425 -0.5341
  530SOL     OW 1588   1.434   0.391   1.642 -0.0294 -0.1652  0.4781
  530SOL    HW1 1589   1.401   0.483   1.611  1.5914 -0.9867  3.5038
  530SOL    HW2 1590   1.434   0.385   1.743  0.8508  0.9085 -0.6094
  531SOL     OW 1591   1.112   2.156   0.438  0.4772 -0.3070 -0.7429
  531SOL    HW1 1592   1.211   2.160   0.416  1.4675 -1.1138 -2.4991
  531SOL    HW2 1593   1.068   2.247   0.417  0.3926  0.3011 -0.7822
  532SOL     OW 1594   2.448   0.796   2.098 -0.4034  0.2444 -0.3849
  532SOL    HW1 1595   2.430   0.810   1.999  1.0902 -1.0737 -0.1831
  532SOL    HW2 1596   2.546   0.767   2.105 -1.0387  2.9807 -0.4161
  533SOL     OW 1597   2.873   0.405   2.127 -0.2720  0.1696 -0.3044
  533SOL    HW1 1598   2.852   0.375   2.225 -0.7024  0.5357  0.6070
  533SOL    HW2 1599   2.955   0.357   2.088  2.0379  2.0467  1.4354
  534SOL     OW 1600   2.237   0.075   2.914  0.3089 -0.1920 -0.2619
  534SOL    HW1 1601   2.194   0.161   2.870 -3.5331 -0.8906  0.4394
  534SOL    HW2 1602   2.235  -0.005   2.852 -1.1246  0.5339 -0.3741
  535SOL     OW 1603   0.357   0.570   2.927  0.3732 -0.2098  0.3206
  535SOL    HW1 1604   0.398   0.584   3.023  1.7736 -2.2732 -0.3961
  535SOL    HW2 1605   0.417   0.509   2.869 -1.0554 -0.6667  1.4002
  536SOL     OW 1606   0.896   2.097   1.222  0.0717 -0.2266  0.1692
  536SOL    HW1 1607   0.888   2.064   1.320 -2.4094  1.0104 -0.2205
  536SOL    HW2 1608   0.961   2.170   1.220 -0.6271  3.2578  0.8421
  537SOL     OW 1609   2.905   2.396   1.319 -0.6888 -0.1549  0.4276
  537SOL    HW1 1610   2.871   2.369   1.415  0.5983 -0.4360  0.5835
  537SOL    HW2 1611   2.933   2.492   1.314  0.2486  0.1422 -1.2344
  538SOL     OW 1612   0.600   2.499   0.629  0.0284 -0.2251 -0.3303
  538SOL    HW1 1613   0.630   2.422   0.689 -0.2682 -2.6990 -1.7245
  538SOL    HW2 1614   0.499   2.514   0.634 -2.9013  2.1931 -0.4027
  539SOL     OW 1615   1.832   1.089   2.351  0.1267  0.0246 -0.3058
  539SOL    HW1 1616   1.779   1.119   2.439 -0.7273  0.0501  2.2836
  539SOL    HW2 1617   1.902   1.159   2.322  1.0341  1.9538 -1.3460
  540SOL     OW 1618   1.903   0.519   3.073  0.2685 -0.0648  0.0031
  540SOL    HW1 1619   2.004   0.517   3.054  0.4038 -2.1005 -2.6111
  540SOL    HW2 1620   1.863   0.615   3.082  2.3095 -0.4018 -2.0228
  541SOL     OW 1621   0.961   1.284   2.014 -0.5433  0.3191  0.4509
  541SOL    HW1 1622   0.889   1.226   2.063 -1.2270 -3.5763 -0.7911
  541SOL    HW2 1623   0.938   1.296   1.917  1.3111  1.7207 -0.5722
  542SOL     OW 1624   1.469   2.312   2.067  0.2468 -0.1339 -0.5713
  542SOL    HW1 1625   1.408   2.331   2.144  0.2089  0.0655 -0.0569
  542SOL    HW2 1626   1.416   2.266   1.993 -2.0766 -0.8774  2.4924
  543SOL     OW 1627   0.547   2.829   2.996 -0.2024  0.2438  0.4727
  543SOL    HW1 1628   0.537   2.734   2.953 -0.3185  2.2072  0.1339
  543SOL    HW2 1629   0.470   2.890   2.979 -1.5319 -1.9949 -0.3047
  544SOL     OW 1630   3.041   2.322   2.312 -0.3293  0.0767 -0.6805
  544SOL    HW1 1631   2.956   2.364   2.339  0.9906  0.8186 -0.5164
  544SOL    HW2 1632   3.086   2.283   2.393  0.4095  0.6581 -2.6371
  545SOL     OW 1633   1.350   2.178   1.854  0.5054  0.0592  0.4321
  545SOL    HW1 1634   1.397   2.088   1.860 -0.3494  0.8268  2.1200
  545SOL    HW2 1635   1.250   2.168   1.838  0.6027 -2.0748  0.3969
  546SOL     OW 1636   2.759   0.264   2.683 -0.0326  0.0593  0.3672
  546SOL    HW1 1637   2.683   0.321   2.717 -0.7183 -0.8732  0.3927
  546SOL    HW2 1638   2.842   0.324   2.663 -0.8672  0.4764 -1.8511
  547SOL     OW 1639   1.832   0.202   0.924 -0.0880  0.3859  0.6045
  547SOL    HW1 1640   1.766   0.155   0.864 -1.1071  0.1005 -3.2492
  547SOL    HW2 1641   1.924   0.164   0.902  2.3283  0.1728 -1.8439
  548SOL     OW 1642   1.395   2.131   0.046 -0.6426 -0.3559 -0.1164
  548SOL    HW1 1643   1.320   2.076   0.081  0.4751 -0.8384  0.0140
  548SOL    HW2 1644   1.360   2.227   0.024  0.0212 -0.7070 -1.5293
  549SOL     OW 1645   2.171   0.556   2.999 -0.2045  0.0665 -0.3108
  549SOL    HW1 1646   2.239   0.485   3.032  0.2169 -1.2503  0.6961
  549SOL    HW2 1647   2.168   0.572   2.897  3.1093  0.6241  1.4945
  550SOL     OW 1648   2.570   2.050   0.840 -0.6308  0.1230  0.4730
  550SOL    HW1 1649   2.524   2.111   0.778 -0.4676 -0.2422 -1.4144
  550SOL    HW2 1650   2.670   2.044   0.821  3.4523 -3.0411  2.2004
  551SOL     OW 1651   1.260   0.315   1.178  0.6633 -0.7481 -1.1485
  551SOL    HW1 1652   1.303   0.315   1.079  1.3272 -1.5614 -2.0212
  551SOL    HW2 1653   1.267   0.402   1.223  1.2125 -0.1608 -0.7607
  552SOL     OW 1654   0.324   1.811   2.552 -0.2359  0.0243  0.3488
  552SOL    HW1 1655   0.390   1.754   2.602 -1.2696 -1.4630 -4.0334
  552SOL    HW2 1656   0.234   1.819   2.600 -1.7628 -1.9127  0.0042
  553SOL     OW 1657   2.555   2.298   3.063  0.8338  0.2350 -0.7019
  553SOL    HW1 1658   2.463   2.307   3.014 -0.3100 -2.0068  1.5385
  553SOL    HW2 1659   2.547   2.234   3.140 -2.6996 -2.0882  0.1404
  554SOL     OW 1660   1.885   1.441   1.616 -0.5911 -0.1761 -0.2565
  554SOL    HW1 1661   1.878   1.539   1.629 -0.7435 -0.1478 -0.7941
  554SOL    HW2 1662   1.793   1.401   1.593 -1.0746  0.3402  0.6621
  555SOL     OW 1663   0.544   2.379   2.461 -0.4465  0.7790  0.0032
  555SOL    HW1 1664   0.456   2.361   2.508 -0.7591  0.0142 -0.1293
  555SOL    HW2 1665   0.619   2.414   2.523 -0.1828 -0.3608 -2.9562
  556SOL     OW 1666   1.213   0.819   1.453  0.3070 -0.0373 -0.4118
  556SOL    HW1 1667   1.241   0.872   1.372 -1.6541  1.6562  0.2147
  556SOL    HW2 1668   1.147   0.874   1.509  1.2344 -1.0138  1.9726
  557SOL     OW 1669   1.532   2.911   1.011  0.7204  0.1514  0.0267
  557SOL    HW1 1670   1.505   3.010   1.017 -1.0310 -0.8982 -0.1041
  557SOL    HW2 1671   1.464   2.846   1.043  1.6118  0.4597  1.6855
  558SOL     OW 1672   0.641   0.815   2.398  0.4394 -0.4127 -0.0695
  558SOL    HW1 1673   0.670   0.769   2.313 -1.9678 -0.5204  2.8715
  558SOL    HW2 1674   0.569   0.760   2.448  2.8514 -1.2378 -0.6911
  559SOL     OW 1675   1.039   2.691   0.286 -0.0082  0.7639  0.0274
  559SOL    HW1 1676   1.060   2.781   0.246 -2.1294  1.8532 -0.2476
  559SOL    HW2 1677   1.039   2.621   0.214 -0.2964  0.1596 -0.8928
  560SOL     OW 1678   1.887   2.099   0.268  0.3034 -0.0297  0.1506
  560SOL    HW1 1679   1.951   2.136   0.194 -1.2643 -3.4563  0.9909
  560SOL    HW2 1680   1.788   2.115   0.243 -0.4621 -1.6222 -1.3653
  561SOL     OW 1681   1.353   2.791   0.665  0.1171 -0.1679 -0.6093
  561SOL    HW1 1682   1.315   2.865   0.601 -0.1735 -0.5514 -0.1425
  561SOL    HW2 1683   1.324   2.799   0.763  1.9969 -0.0619  0.6534
  562SOL     OW 1684   0.524   1.061   2.374  0.0889 -0.1106 -0.3696
  562SOL    HW1 1685   0.603   1.126   2.365  2.2707 -1.7890  0.5964
  562SOL    HW2 1686   0.556   0.967   2.381 -0.0971  0.0135  1.6812
  563SOL     OW 1687   1.224   2.029   2.197 -0.5433 -0.0664 -0.4608
  563SOL    HW1 1688   1.278   1.946   2.175  1.1182  2.2730  0.1719
  563SOL    HW2 1689   1.144   2.039   2.135  2.5095  1.6137 -1.4979
  564SOL     OW 1690   2.409   0.850   1.316  0.2815 -0.3447  0.2659
  564SOL    HW1 1691   2.340   0.851   1.236 -1.8351 -1.8901 -0.3164
  564SOL    HW2 1692   2.443   0.945   1.333 -0.1838 -2.5955  0.7669
  565SOL     OW 1693   1.627   0.799   0.614 -0.3535  0.3839  0.3074
  565SOL    HW1 1694   1.547   0.855   0.601  2.1906  0.8759  0.3776
  565SOL    HW2 1695   1.690   0.834   0.687 -1.5037 -1.0737  1.5405
  566SOL     OW 1696   2.631   2.525   0.113 -0.1673  0.0053  0.7237
  566SOL    HW1 1697   2.621   2.435   0.070 -0.7685  3.6447  0.7353
  566SOL    HW2 1698   2.608   2.515   0.211 -0.1143 -0.8062  1.1666
  567SOL     OW 1699   2.200   0.873   1.078  0.0139 -0.6592 -0.1085
  567SOL    HW1 1700   2.130   0.819   1.123 -1.1895 -0.3867  0.6356
  567SOL    HW2 1701   2.244   0.818   1.002 -1.4158 -1.1011 -1.2988
  568SOL     OW 1702   0.952   1.169   2.403  0.2502 -0.3498 -1.0509
  568SOL    HW1 1703   0.910   1.242   2.466  0.8958  1.8208  0.1151
  568SOL    HW2 1704   0.915   1.076   2.426  1.0485  3.9275  2.6650
  569SOL     OW 1705   2.183   1.347   0.684  0.1972 -0.0987  0.3940
  569SOL    HW1 1706   2.092   1.314   0.660 -0.4516 -1.5468 -1.7007
  569SOL    HW2 1707   2.180   1.431   0.738  0.7265 -0.2772  1.7677
  570SOL     OW 1708   2.409   2.625   1.991 -0.0952  0.3138 -0.3414
  570SOL    HW1 1709   2.366   2.676   2.063 -0.3722 -1.3072  0.3186
  570SOL    HW2 1710   2.448   2.693   1.924  1.6835 -2.4420 -0.3565
  571SOL     OW 1711   2.946   1.846   1.961 -0.0772 -0.4890  0.4001
  571SOL    HW1 1712   2.865   1.859   1.902  1.1816 -0.1606 -1.3608
  571SOL    HW2 1713   2.923   1.885   2.052 -0.6139 -1.0034 -2.0426
  572SOL     OW 1714   0.977   2.270   2.493  0.2495  0.0655  0.5161
  572SOL    HW1 1715   1.018   2.349   2.543  2.5236  1.4016  0.4284
  572SOL    HW2 1716   1.044   2.191   2.488  0.7717 -0.4780  0.8012
  573SOL     OW 1717   1.535   2.422   1.701 -0.3703 -0.2626 -0.1665
  573SOL    HW1 1718   1.435   2.426   1.714 -0.2674  0.0334 -0.3695
  573SOL    HW2 1719   1.564   2.325   1.704  0.3372 -1.1339 -1.9751
  574SOL     OW 1720   0.985   2.746   1.626 -0.6807  0.3064 -0.9109
  574SOL    HW1 1721   0.932   2.738   1.712  1.8202  0.0329  1.2434
  574SOL    HW2 1722   1.055   2.818   1.633 -1.1249  1.7255  0.0049
  575SOL     OW 1723   0.903   0.306   0.911  0.3369  0.3946 -0.0085
  575SOL    HW1 1724   0.984   0.341   0.855  2.1069  1.0691 -0.1259
  575SOL    HW2 1725   0.910   0.339   1.010  0.0411  0.0985 -0.4518
  576SOL     OW 1726   1.840   0.628   1.414 -0.3155 -0.7686 -0.4541
  576SOL    HW1 1727   1.871   0.642   1.512 -3.0935 -1.2579  0.0061
  576SOL    HW2 1728   1.891   0.551   1.382 -0.8266 -0.8833  0.3254
  577SOL     OW 1729   2.371   0.041   0.051 -0.7364  0.9911 -0.1647
  577SOL    HW1 1730   2.329   0.108   0.117 -0.2995  0.3370 -0.6143
  577SOL    HW2 1731   2.326   0.044  -0.040 -1.0876 -0.1582 -1.3563
  578SOL     OW 1732   1.678   1.749   1.839  0.3738  0.0925  0.1930
  578SOL    HW1 1733   1.622   1.677   1.883 -2.4834  0.6545 -0.1928
  578SOL    HW2 1734   1.624   1.834   1.835 -0.9629  0.4637 -1.5470
  579SOL     OW 1735   0.668   1.907   0.926  0.0108 -0.0998  0.1143
  579SOL    HW1 1736   0.713   1.991   0.957 -1.9964  2.1377 -4.5362
  579SOL    HW2 1737   0.731   1.835   0.896  1.8341 -3.0443 -0.9400
  580SOL     OW 1738   1.489   0.031   2.936 -0.2213  0.0267  0.2826
  580SOL    HW1 1739   1.422   0.009   3.014  2.1614  0.9057 -1.9736
  580SOL    HW2 1740   1.546  -0.054   2.911  3.0472 -1.2185 -1.1623
  581SOL     OW 1741   0.772   0.435   1.740  0.5893 -0.6630  0.5469
  581SOL    HW1 1742   0.841   0.503   1.764 -0.7741  0.3133 -0.4603
  581SOL    HW2 1743   0.753   0.431   1.638 -0.4924  0.0866 -2.3820
  582SOL     OW 1744   0.497   0.361   1.242 -0.0005 -0.3368 -0.5660
  582SOL    HW1 1745   0.426   0.333   1.177 -0.0439 -0.1452  2.2752
  582SOL    HW2 1746   0.567   0.288   1.257 -1.7642  2.2313 -1.3350
  583SOL     OW 1747   0.597   1.985   1.835 -0.3652 -0.2423 -0.3515
  583SOL    HW1 1748   0.691   1.985   1.790 -1.3359 -1.0673 -0.8676
  583SOL    HW2 1749   0.614   1.965   1.930  0.9299  1.6870 -1.5874
  584SOL     OW 1750   2.406   2.371   0.277 -0.3972 -0.3912  0.2497
  584SOL    HW1 1751   2.464   2.430   0.337 -0.6520 -1.0664  1.5622
  584SOL    HW2 1752   2.319   2.418   0.252  2.9457  0.5385 -1.2048
  585SOL     OW 1753   2.535   0.426   2.794 -0.3126 -0.0184  0.3937
  585SOL    HW1 1754   2.445   0.452   2.757  2.2193 -2.4852 -1.2321
  585SOL    HW2 1755   2.531   0.366   2.875  0.3149 -0.8897 -0.7334
  586SOL     OW 1756   0.540   1.184   0.520  0.0143  0.1790 -0.3036
  586SOL    HW1 1757   0.557   1.278   0.474  0.4882  2.3857 -0.6425
  586SOL    HW2 1758   0.515   1.185   0.620  1.8255 -1.1402  0.1000
  587SOL     OW 1759   1.683   2.070   1.148  0.0988  0.3181  0.3806
  587SOL    HW1 1760   1.685   2.137   1.228 -0.0427  0.6308  1.0910
  587SOL    HW2 1761   1.591   2.079   1.092  1.3758 -2.0305 -2.0195
  588SOL     OW 1762   0.595   0.576   1.362 -0.0639 -0.0934  0.6146
  588SOL    HW1 1763   0.686   0.542   1.387 -1.7061  1.8087  0.1445
  588SOL    HW2 1764   0.541   0.505   1.307  1.5402  2.5211 -1.8111
  589SOL     OW 1765   2.011   2.981   1.089  0.0077  0.0340  0.0631
  589SOL    HW1 1766   2.063   2.972   0.997 -2.4943 -1.0405  0.6057
  589SOL    HW2 1767   1.934   2.923   1.098  0.6626  0.2763 -0.1101
  590SOL     OW 1768   2.102   0.959   0.513  0.4584 -0.1050  0.2752
  590SOL    HW1 1769   2.051   0.886   0.455  0.8094  1.3659  3.6501
  590SOL    HW2 1770   2.201   0.956   0.491 -0.1472  1.1936 -2.3100
  591SOL     OW 1771   2.162   2.030   2.272 -0.2707 -0.1882  0.1381
  591SOL    HW1 1772   2.223   1.947   2.272 -0.1915 -0.6050 -1.2393
  591SOL    HW2 1773   2.209   2.110   2.227  1.6991 -2.6463 -2.7284
  592SOL     OW 1774   1.301   1.934   1.127 -0.0948 -0.7234  0.3062
  592SOL    HW1 1775   1.340   1.876   1.059 -0.5261  0.0509  0.1512
  592SOL    HW2 1776   1.199   1.927   1.134  0.7407 -1.8227  1.0729
  593SOL     OW 1777   0.666   2.812   0.922  0.1084 -0.5442  0.0254
  593SOL    HW1 1778   0.727   2.752   0.982 -0.0527 -0.3894  0.2576
  593SOL    HW2 1779   0.675   2.784   0.823 -0.2277 -0.5867 -0.4743
  594SOL     OW 1780   2.821   1.351   2.362 -0.3617 -0.2461  0.2614
  594SOL    HW1 1781   2.817   1.393   2.269  0.2783 -1.2146 -1.6850
  594SOL    HW2 1782   2.870   1.263   2.364 -0.4164 -0.1445  1.1526
  595SOL     OW 1783   0.004   2.896   0.650  0.0463 -0.4130 -0.5641
  595SOL    HW1 1784   0.101   2.907   0.624  1.6853 -0.7257 -4.2138
  595SOL    HW2 1785  -0.021   2.943   0.739 -1.5938 -2.1992  0.4050
  596SOL     OW 1786   3.053   0.411   1.573  0.6089  1.0029  0.2074
  596SOL    HW1 1787   3.006   0.495   1.615  1.0012  1.2872  2.2030
  596SOL    HW2 1788   2.988   0.349   1.529 -0.8589  2.8201  0.7731
  597SOL     OW 1789   2.754   1.410   0.330 -0.4231 -0.0612  0.2246
  597SOL    HW1 1790   2.715   1.443   0.421  1.5456  2.2248  1.7351
  597SOL    HW2 1791   2.739   1.308   0.325  1.9763  1.3173 -0.7027
  598SOL     OW 1792   0.409   0.388   2.271  0.0534  0.7608  0.2629
  598SOL    HW1 1793   0.453   0.455   2.206 -0.1569 -0.9269 -0.8905
  598SOL    HW2 1794   0.319   0.428   2.292  1.1899 -1.0381 -0.9105
  599SOL     OW 1795   2.436   1.476   2.846 -1.2095  0.2427 -0.3086
  599SOL    HW1 1796   2.495   1.507   2.921  0.3166 -0.0715 -1.3983
  599SOL    HW2 1797   2.478   1.518   2.763 -0.6515  0.7772  1.8114
  600SOL     OW 1798   1.113   1.007   0.188  0.4143  0.1885 -0.1961
  600SOL    HW1 1799   1.204   1.040   0.227  0.3127 -0.6107  0.8900
  600SOL    HW2 1800   1.075   1.081   0.129  2.1051 -3.2659  3.0637
  601SOL     OW 1801   1.327   0.720   0.317  0.4192  0.2186  0.1183
  601SOL    HW1 1802   1.292   0.767   0.401  0.4236 -0.1828 -1.1857
  601SOL    HW2 1803   1.263   0.649   0.283 -0.6367  1.6604 -0.9930
  602SOL     OW 1804   1.197   2.911   1.637  0.2241 -0.2377 -0.1322
  602SOL    HW1 1805   1.243   2.858   1.710 -0.1747  1.8379 -0.1863
  602SOL    HW2 1806   1.259   2.928   1.555 -2.1282  0.1574 -0.7193
  603SOL     OW 1807   0.646   2.816   2.133 -0.4798  0.3121  0.3043
  603SOL    HW1 1808   0.740   2.833   2.100  3.5070  0.5721 -2.1337
  603SOL    HW2 1809   0.595   2.744   2.077  0.0100 -1.1317  0.0825
  604SOL     OW 1810   3.033   0.233   1.955  1.0819 -0.0621 -0.6482
  604SOL    HW1 1811   3.070   0.153   2.010  0.4648 -1.1144 -0.8115
  604SOL    HW2 1812   2.965   0.198   1.885 -0.5042  0.2099 -2.3255
  605SOL     OW 1813   2.675   2.969   1.488 -0.4476 -0.1445  0.1366
  605SOL    HW1 1814   2.623   3.048   1.523  0.1968 -0.7468  3.9000
  605SOL    HW2 1815   2.671   2.893   1.559 -0.4974 -0.8199  0.3934
  606SOL     OW 1816   0.065   1.970   2.400 -0.3536 -0.3810 -0.1520
  606SOL    HW1 1817   0.030   2.047   2.465  0.2169  0.1979 -0.7441
  606SOL    HW2 1818   0.152   1.996   2.357 -1.6704  0.2782  1.8718
  607SOL     OW 1819   0.932   3.083   0.697 -0.4089 -0.3846  0.9497
  607SOL    HW1 1820   0.973   3.134   0.619 -2.7145 -1.0947  1.1659
  607SOL    HW2 1821   0.970   3.116   0.782 -1.3656 -0.4600 -1.1362
  608SOL     OW 1822   1.403   1.846   2.118  0.2156 -0.0413  0.4132
  608SOL    HW1 1823   1.383   1.748   2.148 -0.4235 -2.6738 -1.7227
  608SOL    HW2 1824   1.495   1.876   2.143  1.7272  0.2186 -0.4148
  609SOL     OW 1825   0.089   0.313   1.276 -0.0603 -0.5144  0.0425
  609SOL    HW1 1826   0.037   0.395   1.236  1.4716 -1.0655 -0.1024
  609SOL    HW2 1827   0.102   0.327   1.374  1.5559  1.8489  0.3672
  610SOL     OW 1828   1.036   2.497   0.044 -0.1119  0.0336  0.7462
  610SOL    HW1 1829   1.044   2.537  -0.051  1.4251  2.0507 -0.9509
  610SOL    HW2 1830   1.074   2.403   0.048  0.7217  0.3123 -0.1841
  611SOL     OW 1831   2.114   1.483   0.340 -0.2449 -0.0340  0.0858
  611SOL    HW1 1832   2.131   1.442   0.253 -3.5799 -2.5813  1.1816
  611SOL    HW2 1833   2.203   1.498   0.394  0.1942 -1.8067  0.2931
  612SOL     OW 1834   1.003   2.686   2.533 -0.6046  0.6214 -0.0004
  612SOL    HW1 1835   0.975   2.758   2.605  1.3844 -3.9730 -2.4203
  612SOL    HW2 1836   0.928   2.664   2.465  1.0133  1.3863 -0.3283
  613SOL     OW 1837   1.205   1.956   0.129 -0.0545  0.6851  0.3846
  613SOL    HW1 1838   1.143   1.938   0.210  1.6097 -1.2923  0.7246
  613SOL    HW2 1839   1.196   1.879   0.059  0.5297 -3.3955  1.6288
  614SOL     OW 1840   2.528   2.021   1.983  0.1857 -0.6289  0.2119
  614SOL    HW1 1841   2.430   2.030   1.953  0.1908 -2.5536  2.0760
  614SOL    HW2 1842   2.535   2.065   2.074 -0.9655 -0.0943  1.8797
  615SOL     OW 1843   2.568   1.090   2.898 -0.2778 -0.2272 -0.3372
  615SOL    HW1 1844   2.575   1.163   2.963 -1.5763  1.3885 -1.4836
  615SOL    HW2 1845   2.580   1.002   2.944 -1.3842  0.5382  1.7468
  616SOL     OW 1846   1.593   0.282   0.594  0.1452 -0.7400  0.6476
  616SOL    HW1 1847   1.569   0.379   0.621  2.3002  0.0794 -1.2718
  616SOL    HW2 1848   1.656   0.287   0.520  1.5870 -0.2050  0.5464
  617SOL     OW 1849   0.583   1.677   2.868  0.0056 -0.7779 -0.1159
  617SOL    HW1 1850   0.541   1.641   2.782  0.2707  1.7365 -2.1355
  617SOL    HW2 1851   0.511   1.695   2.936  2.2326 -2.9624 -1.2857
  618SOL     OW 1852   0.301   0.814   1.507 -0.1347  0.5562  0.4068
  618SOL    HW1 1853   0.240   0.761   1.447  0.1118  0.7831 -1.9166
  618SOL    HW2 1854   0.375   0.754   1.548  1.9925  1.5306  1.4688
  619SOL     OW 1855   2.655   1.174   2.066 -0.2470 -0.9513  0.0696
  619SOL    HW1 1856   2.575   1.125   2.023  1.9657  0.8594  1.2896
  619SOL    HW2 1857   2.701   1.109   2.126  1.0401 -0.4268  0.5874
  620SOL     OW 1858   2.331   0.754   3.070  0.0143  0.4712 -0.0703
  620SOL    HW1 1859   2.275   0.675   3.042 -0.1751  0.2846  2.5548
  620SOL    HW2 1860   2.291   0.845   3.047  0.5383 -0.5386 -0.4466
  621SOL     OW 1861   2.594   3.013   1.120  0.3823  0.3217 -0.1159
  621SOL    HW1 1862   2.634   2.937   1.179  0.4628  1.5103 -0.8629
  621SOL    HW2 1863   2.522   3.068   1.174 -1.7182 -2.3768 -0.8469
  622SOL     OW 1864   1.481   0.608   2.196  0.3559  0.1590 -0.0234
  622SOL    HW1 1865   1.525   0.517   2.191 -1.8346  1.9705  1.4270
  622SOL    HW2 1866   1.529   0.675   2.253  2.7841 -2.3512  2.3753
  623SOL     OW 1867   1.231   1.097   2.395  0.7594  0.2659  0.8681
  623SOL    HW1 1868   1.140   1.138   2.381 -1.8374  0.9565 -0.7326
  623SOL    HW2 1869   1.311   1.155   2.357 -0.6427 -1.2605 -0.6795
  624SOL     OW 1870   2.043   0.091   0.539 -0.3498  0.2843 -0.3255
  624SOL    HW1 1871   1.959   0.141   0.514 -1.1154 -1.1780  1.3487
  624SOL    HW2 1872   2.070   0.009   0.481 -1.3930 -0.3879  3.0958
  625SOL     OW 1873   0.884   1.551   0.509  0.1687  0.1948  0.2616
  625SOL    HW1 1874   0.884   1.447   0.509  0.1037  4.0569  1.0907
  625SOL    HW2 1875   0.809   1.586   0.567  0.6498 -2.7032  1.8086
  626SOL     OW 1876   1.430   1.195   2.235 -0.1906 -0.2433 -0.1563
  626SOL    HW1 1877   1.513   1.141   2.218 -0.5556 -0.7557  0.8946
  626SOL    HW2 1878   1.381   1.195   2.149  3.1378 -0.6575  1.5626
  627SOL     OW 1879   0.491   0.554   2.078 -0.2533  0.4391 -0.0270
  627SOL    HW1 1880   0.574   0.600   2.115 -0.5612  1.2682 -1.3755
  627SOL    HW2 1881   0.415   0.620   2.052 -0.4099 -0.7495  0.1751
  628SOL     OW 1882   1.875   0.782   2.666 -0.3105  0.1693  0.6622
  628SOL    HW1 1883   1.845   0.745   2.575 -0.5561 -0.3050  4.5098
  628SOL    HW2 1884   1.937   0.862   2.660 -0.5345  1.4850 -2.8215
  629SOL     OW 1885   1.040   1.503   2.901  0.5600 -0.0466  0.2368
  629SOL    HW1 1886   1.028   1.594   2.859 -0.9739  2.7217  0.0489
  629SOL    HW2 1887   1.137   1.493   2.933 -1.3563 -2.4283 -0.9443
  630SOL     OW 1888   1.223   0.607   2.238  0.1217 -0.0765 -0.3001
  630SOL    HW1 1889   1.197   0.696   2.191 -1.7750 -0.5133 -1.2599
  630SOL    HW2 1890   1.320   0.589   2.230 -2.1444 -0.9209  2.0068
  631SOL     OW 1891   2.515   0.843   0.997  0.4801 -0.2472 -0.1053
  631SOL    HW1 1892   2.458   0.759   1.020 -1.2789 -0.9617 -1.7451
  631SOL    HW2 1893   2.508   0.877   0.901 -1.3987  2.6651  1.6288
  632SOL     OW 1894   2.831   2.081   0.828  0.3626  0.1476 -0.5347
  632SOL    HW1 1895   2.890   2.097   0.743  0.7788 -0.6470  1.0845
  632SOL    HW2 1896   2.846   2.152   0.905  2.1069 -3.0769 -2.0081
  633SOL     OW 1897   0.933   1.323   0.786 -0.5973 -0.2069  0.5774
  633SOL    HW1 1898   0.987   1.382   0.850 -2.6748 -3.5829 -1.0214
  633SOL    HW2 1899   0.842   1.295   0.827  0.3431 -2.8244  1.6577
  634SOL     OW 1900   1.683   3.073   0.377 -0.1781  0.2611  0.1777
  634SOL    HW1 1901   1.741   3.145   0.336  1.4291 -0.8861  0.8813
  634SOL    HW2 1902   1.587   3.110   0.394  0.3232 -1.3939 -0.0428
  635SOL     OW 1903   1.769   0.563   2.019  0.6789 -0.1791 -0.0020
  635SOL    HW1 1904   1.842   0.562   1.953  0.4511 -0.8553  0.4232
  635SOL    HW2 1905   1.732   0.657   2.021 -0.5087 -1.2195  0.0240
  636SOL     OW 1906   1.175   0.760   0.942  0.1006  0.0101  0.5171
  636SOL    HW1 1907   1.237   0.703   0.887  2.3862 -4.0434 -0.8353
  636SOL    HW2 1908   1.115   0.703   0.998  2.3160 -0.5537  0.0662
  637SOL     OW 1909   2.185   1.484   2.963  0.1867  0.1738 -0.1412
  637SOL    HW1 1910   2.265   1.501   2.902  2.4726 -1.4915  1.7759
  637SOL    HW2 1911   2.118   1.422   2.919  0.6766 -1.9321 -1.7385
  638SOL     OW 1912   0.760   0.083   2.525  0.2988 -0.1481 -0.6154
  638SOL    HW1 1913   0.838   0.036   2.488 -2.4717 -0.0097  2.3034
  638SOL    HW2 1914   0.716   0.137   2.450  0.3252 -3.9610  1.1378
  639SOL     OW 1915   1.044   1.910   1.604  0.2777 -0.1286  0.7262
  639SOL    HW1 1916   1.149   1.920   1.595 -1.0250  1.1060  1.1107
  639SOL    HW2 1917   1.010   1.819   1.572 -0.8798  0.8692  2.9368
  640SOL     OW 1918   0.462   0.170   2.873 -0.5406 -0.5608 -0.4886
  640SOL    HW1 1919   0.400   0.141   2.952 -1.6006 -0.3926 -3.1484
  640SOL    HW2 1920   0.459   0.094   2.804 -2.2600  1.9088 -2.6914
  641SOL     OW 1921   0.367   0.699   0.464  0.1101  0.0614 -0.4504
  641SOL    HW1 1922   0.297   0.778   0.457 -0.9609  2.2104 -0.0392
  641SOL    HW2 1923   0.461   0.733   0.467 -2.2914 -0.1989 -2.0821
  642SOL     OW 1924   0.371   1.800   1.301  0.1498 -0.1487  0.0353
  642SOL    HW1 1925   0.316   1.857   1.240 -0.1427  0.4937  2.2355
  642SOL    HW2 1926   0.416   1.850   1.375 -0.3700 -0.4370 -1.9056
  643SOL     OW 1927   1.097   1.734   2.747  0.0538 -0.0499 -0.4823
  643SOL    HW1 1928   1.058   1.775   2.665  1.0062 -0.7716  2.1849
  643SOL    HW2 1929   1.187   1.778   2.772 -0.1614  0.2172 -1.1636
  644SOL     OW 1930   1.756   2.419   0.258  0.0914 -0.2237  0.2618
  644SOL    HW1 1931   1.803   2.499   0.212 -2.7017  0.1478 -1.3498
  644SOL    HW2 1932   1.822   2.373   0.327 -0.6513  0.5359  3.1623
  645SOL     OW 1933   1.074   2.145   1.483  0.6584 -0.1291 -1.3309
  645SOL    HW1 1934   1.059   2.054   1.523  0.4948 -1.3069  0.9397
  645SOL    HW2 1935   1.135   2.135   1.404  1.0053 -0.5603 -1.1386
  646SOL     OW 1936   0.690   2.811   0.111 -0.3139 -0.7918 -0.7383
  646SOL    HW1 1937   0.738   2.727   0.101  1.2344  0.4449  0.0082
  646SOL    HW2 1938   0.644   2.836   0.025  2.8906 -0.0365 -1.6134
  647SOL     OW 1939   0.032   0.018   2.092 -0.1312 -0.2023 -0.1858
  647SOL    HW1 1940   0.120  -0.001   2.041  0.4638 -0.2422 -0.3071
  647SOL    HW2 1941   0.047   0.067   2.180  2.1696  1.1201  1.9694
  648SOL     OW 1942   2.664   1.226   1.092 -0.1256  0.5014 -0.1355
  648SOL    HW1 1943   2.596   1.254   1.018  2.2299 -0.5019  0.4297
  648SOL    HW2 1944   2.676   1.126   1.092 -1.0852 -0.7163  2.3639
  649SOL     OW 1945   2.062   2.694   2.619 -0.3991  0.1876 -0.0536
  649SOL    HW1 1946   2.012   2.662   2.701 -1.0162 -0.6959  1.2404
  649SOL    HW2 1947   2.054   2.794   2.612 -0.0671 -0.3645  1.3220
  650SOL     OW 1948   2.855   2.170   2.028 -0.1077  0.3995 -0.3579
  650SOL    HW1 1949   2.904   2.115   2.093  2.1721  0.2690  0.5668
  650SOL    HW2 1950   2.764   2.194   2.069  2.3276  1.2481 -2.6235
  651SOL     OW 1951   1.322   1.896   2.807 -0.1084  0.5715  0.2856
  651SOL    HW1 1952   1.357   1.916   2.708  0.8453 -1.1144 -0.4600
  651SOL    HW2 1953   1.384   1.834   2.858  0.6616 -0.7409 -0.6104
  652SOL     OW 1954   0.121   0.171   2.303 -0.7840 -0.8029 -0.2166
  652SOL    HW1 1955   0.113   0.271   2.284  1.7741  3.4279 -2.4782
  652SOL    HW2 1956   0.195   0.152   2.370 -0.4327  1.4857  0.7324
  653SOL     OW 1957   2.099   1.763   0.502 -0.3238  1.0060 -0.0683
  653SOL    HW1 1958   2.185   1.740   0.454  0.2479  0.6217  1.6582
  653SOL    HW2 1959   2.087   1.700   0.579 -0.8075  0.9945 -0.6459
  654SOL     OW 1960   2.081   2.435   2.063 -0.4720 -0.1002 -0.1932
  654SOL    HW1 1961   2.013   2.485   2.122 -0.1422  1.1506  1.1460
  654SOL    HW2 1962   2.104   2.491   1.983 -2.2921  0.1480  2.1836
  655SOL     OW 1963   2.375   2.496   0.703 -0.7683 -0.4592 -0.2150
  655SOL    HW1 1964   2.344   2.485   0.800 -0.3958  0.6773  0.5047
  655SOL    HW2 1965   2.292   2.524   0.648 -1.9641 -0.5785 -0.2263
  656SOL     OW 1966   2.929   1.961   2.822  0.2437  0.3117  0.0585
  656SOL    HW1 1967   2.858   2.031   2.801 -2.4179 -0.2852 -2.0228
  656SOL    HW2 1968   2.935   1.941   2.917  0.0009 -1.0064 -0.0509
  657SOL     OW 1969   0.090   1.332   0.755  0.0934 -0.2333  0.5978
  657SOL    HW1 1970   0.029   1.281   0.691  0.4048 -0.2393 -0.3100
  657SOL    HW2 1971   0.040   1.351   0.836  1.0053  2.1090 -0.4257
  658SOL     OW 1972   1.048   1.649   1.271 -0.5341  0.2650 -0.7547
  658SOL    HW1 1973   1.120   1.580   1.250  0.7913  1.1850  0.8155
  658SOL    HW2 1974   1.028   1.658   1.374 -0.2132 -0.9791  0.3085
  659SOL     OW 1975   1.438   0.046   1.220  0.0956 -0.0075  0.1394
  659SOL    HW1 1976   1.353   0.104   1.224  0.4338 -0.4385  0.6998
  659SOL    HW2 1977   1.525   0.103   1.227 -0.6989 -1.1812 -2.3191
  660SOL     OW 1978   2.787   0.611   0.824 -0.0826  0.3576 -0.1684
  660SOL    HW1 1979   2.717   0.619   0.746 -2.2308  1.8031 -0.7459
  660SOL    HW2 1980   2.875   0.652   0.798  0.1368  1.2020  4.0684
  661SOL     OW 1981   0.609   1.938   0.023  0.3712  0.4942  0.2727
  661SOL    HW1 1982   0.613   1.892  -0.071  1.4475 -0.9487 -1.0247
  661SOL    HW2 1983   0.681   1.896   0.087 -1.7987 -1.4582 -0.4928
  662SOL     OW 1984   2.241   0.859   2.265 -0.1289 -0.1618  0.1648
  662SOL    HW1 1985   2.322   0.842   2.207 -0.9939 -0.9355 -0.4793
  662SOL    HW2 1986   2.263   0.879   2.362  2.0693  0.9054  1.1736
  663SOL     OW 1987   1.576   1.538   1.132  0.7259  0.2330 -0.5129
  663SOL    HW1 1988   1.672   1.522   1.104  0.0282  2.0422 -1.3941
  663SOL    HW2 1989   1.583   1.562   1.227 -1.0500 -0.5867 -0.9644
  664SOL     OW 1990   0.462   3.042   1.371  0.1576 -0.4641  0.2937
  664SOL    HW1 1991   0.536   3.091   1.326  0.0284 -0.5481  1.1020
  664SOL    HW2 1992   0.475   3.047   1.473 -1.9867  0.9577 -0.6701
  665SOL     OW 1993   1.369   0.224   2.819 -0.1483  0.2084 -0.2315
  665SOL    HW1 1994   1.425   0.147   2.861  1.2525  0.6352 -2.3641
  665SOL    HW2 1995   1.276   0.188   2.787  1.8403  3.5863  0.7300
  666SOL     OW 1996   0.808   0.320   2.276  0.2650  0.2730 -0.6068
  666SOL    HW1 1997   0.830   0.418   2.256 -0.1920  0.5313 -1.6598
  666SOL    HW2 1998   0.892   0.268   2.248  1.0015  1.1584 -0.3582
  667SOL     OW 1999   1.278   1.451   1.330 -0.0868 -0.1371 -0.0358
  667SOL    HW1 2000   1.248   1.356   1.345 -0.7645 -2.2732 -1.6358
  667SOL    HW2 2001   1.307   1.465   1.232 -2.6388 -0.3588  1.3522
  668SOL     OW 2002   0.266   1.309   2.064  0.1596 -0.0256  0.3286
  668SOL    HW1 2003   0.368   1.302   2.051  1.1710 -1.4604 -1.5649
  668SOL    HW2 2004   0.236   1.407   2.067 -1.8186 -3.7140 -5.2630
  669SOL     OW 2005   2.725   2.471   2.920 -0.3364 -0.2860 -0.0691
  669SOL    HW1 2006   2.724   2.573   2.929  1.7681  1.1014 -0.1499
  669SOL    HW2 2007   2.648   2.425   2.968  2.4208  0.6762  1.2794
  670SOL     OW 2008   2.474   1.450   1.901  0.2529  0.9603 -0.0909
  670SOL    HW1 2009   2.415   1.372   1.920  1.3915  1.3088 -0.8216
  670SOL    HW2 2010   2.513   1.466   1.993 -4.2659 -1.6205 -1.1501
  671SOL     OW 2011   2.647   1.716   0.585 -0.5789  0.1279 -0.7386
  671SOL    HW1 2012   2.577   1.769   0.632  0.1347 -3.1108  1.9726
  671SOL    HW2 2013   2.700   1.762   0.512  1.3997  1.3807  1.7549
  672SOL     OW 2014   1.268   0.977   1.952 -0.2451 -0.0323  0.6858
  672SOL    HW1 2015   1.269   1.077   1.965 -0.6834 -1.7268  1.2504
  672SOL    HW2 2016   1.347   0.947   1.890 -0.3356  0.1875  1.5087
  673SOL     OW 2017   2.848   2.227   1.069 -0.3451 -0.6271 -0.5500
  673SOL    HW1 2018   2.874   2.275   1.156 -2.7017 -2.8293 -1.9414
  673SOL    HW2 2019   2.790   2.148   1.095  2.2127 -1.2503  2.2043
  674SOL     OW 2020   0.506   1.914   1.512  0.1852 -0.1754 -0.2430
  674SOL    HW1 2021   0.461   1.894   1.600  0.1171 -2.4937  0.2106
  674SOL    HW2 2022   0.474   2.010   1.483 -1.5273  0.2826  3.3831
  675SOL     OW 2023   0.007   0.546   1.144  0.3736 -0.1606  0.3063
  675SOL    HW1 2024   0.045   0.519   1.056  0.2885  1.6528  1.5480
  675SOL    HW2 2025  -0.053   0.628   1.138  0.8212  0.5934  1.2358
  676SOL     OW 2026   2.522   0.655   1.580  0.2026 -0.1739  0.4707
  676SOL    HW1 2027   2.456   0.578   1.568  1.1909  0.1430 -0.0435
  676SOL    HW2 2028   2.568   0.660   1.487 -0.4178  0.5291 -1.5412
  677SOL     OW 2029   2.042   0.972   2.535 -0.2389  0.1750 -0.2138
  677SOL    HW1 2030   1.992   0.971   2.443  0.3566 -1.4086 -2.0616
  677SOL    HW2 2031   2.142   0.965   2.516  0.3438 -1.1809  2.3347
  678SOL     OW 2032   2.472   1.538   0.976  0.2189 -0.6187 -0.2931
  678SOL    HW1 2033   2.485   1.446   0.927 -0.1951  1.2922 -1.0318
  678SOL    HW2 2034   2.552   1.559   1.027  0.0363 -2.3468 -2.3745
  679SOL     OW 2035   0.181   2.750   3.090  0.6740  0.0620  0.2160
  679SOL    HW1 2036   0.135   2.768   3.184 -0.1819 -1.3495  0.7531
  679SOL    HW2 2037   0.113   2.733   3.015 -1.0345  1.6503  0.7099
  680SOL     OW 2038   2.929   1.844   1.137 -0.1646  0.3954  0.0194
  680SOL    HW1 2039   2.995   1.890   1.071 -1.4119 -1.5212 -1.8284
  680SOL    HW2 2040   2.952   1.876   1.232 -2.0196 -0.6273  2.2871
  681SOL     OW 2041   1.233   3.076   0.950 -0.0074 -0.1413 -0.3463
  681SOL    HW1 2042   1.136   3.102   0.954 -1.4623  2.1499  0.6998
  681SOL    HW2 2043   1.295   3.157   0.971  0.0759  0.4342  2.0063
  682SOL     OW 2044   2.318   2.352   1.481 -0.4504  0.5192 -0.1900
  682SOL    HW1 2045   2.378   2.297   1.421  0.9657  1.6793  2.2288
  682SOL    HW2 2046   2.291   2.294   1.561 -1.9424  0.3065  0.0638
  683SOL     OW 2047   2.240   1.879   1.664 -0.0746  0.5411 -1.1409
  683SOL    HW1 2048   2.303   1.911   1.592 -2.1499  0.7978  0.7693
  683SOL    HW2 2049   2.246   1.778   1.684  0.7477 -0.1635 -0.0112
  684SOL     OW 2050   2.869   1.452   1.841 -0.3470  0.0431  0.3601
  684SOL    HW1 2051   2.808   1.514   1.791  1.5238 -0.7833 -0.2757
  684SOL    HW2 2052   2.970   1.469   1.822 -1.4389  2.4952  1.2035
  685SOL     OW 2053   1.455   1.353   0.295  0.8199  1.1104 -0.5751
  685SOL    HW1 2054   1.404   1.439   0.282  0.2304 -0.1161 -2.5495
  685SOL    HW2 2055   1.554   1.376   0.304 -1.2531 -0.1329 -1.3092
  686SOL     OW 2056   2.675   0.465   1.942 -0.1594 -0.4275  0.7774
  686SOL    HW1 2057   2.738   0.423   2.007 -0.6287  2.1931  0.8613
  686SOL    HW2 2058   2.698   0.424   1.849  0.0814 -0.4318 -0.2253
  687SOL     OW 2059   1.475   0.160   0.178 -0.2272  0.5654  0.1947
  687SOL    HW1 2060   1.566   0.146   0.140 -0.9745 -2.8632  0.2171
  687SOL    HW2 2061   1.441   0.253   0.161 -0.6769  0.6264 -1.4571
  688SOL     OW 2062   1.171   2.078   2.498  0.4728  0.2102  0.0669
  688SOL    HW1 2063   1.252   2.022   2.506 -0.1468 -0.4982  1.7659
  688SOL    HW2 2064   1.191   2.144   2.423  0.8732  0.5895 -1.8060
  689SOL     OW 2065   1.971   1.428   1.323  0.4088  0.0991  0.1401
  689SOL    HW1 2066   1.911   1.437   1.407  0.3122  0.5068  0.3522
  689SOL    HW2 2067   2.070   1.448   1.339  2.4073  1.3642  1.5342
  690SOL     OW 2068   2.296   2.075   1.218  0.3458  0.5202 -0.4470
  690SOL    HW1 2069   2.221   2.139   1.239  1.9409  0.0437  1.1986
  690SOL    HW2 2070   2.260   1.996   1.162  2.2173 -2.0547  0.6060
  691SOL     OW 2071   0.407   1.584   0.612 -0.0857  0.0392 -0.1131
  691SOL    HW1 2072   0.380   1.516   0.685  0.5299 -1.7303 -0.0528
  691SOL    HW2 2073   0.350   1.671   0.631  1.8346  1.6391 -1.9569
  692SOL     OW 2074   2.872   2.912   0.056 -0.2714  0.5271 -0.1645
  692SOL    HW1 2075   2.899   2.917   0.152  0.1438 -1.8025 -0.5046
  692SOL    HW2 2076   2.936   2.968   0.001  0.5264 -0.7116  1.7627
  693SOL     OW 2077   0.107   1.540   2.053  0.0716  0.5117  0.1198
  693SOL    HW1 2078   0.101   1.503   1.956  0.3428  0.7726 -1.0094
  693SOL    HW2 2079   0.012   1.547   2.077  1.2638 -1.8891  0.1575
  694SOL     OW 2080   2.400   0.450   2.375 -0.4985 -0.3768  0.4699
  694SOL    HW1 2081   2.487   0.496   2.358  0.0946  0.6228 -0.0258
  694SOL    HW2 2082   2.327   0.502   2.330  0.8140  1.7683  0.7963
  695SOL     OW 2083   1.587   0.811   2.318 -0.2894 -0.0621 -0.5091
  695SOL    HW1 2084   1.520   0.838   2.390  1.7096 -2.2956  1.0857
  695SOL    HW2 2085   1.624   0.895   2.276 -0.3276  0.1663  2.0719
  696SOL     OW 2086   2.265   2.953   1.657 -0.2545  0.2489  0.2382
  696SOL    HW1 2087   2.205   3.010   1.718  1.5480 -0.7730  0.2331
  696SOL    HW2 2088   2.210   2.886   1.603 -0.3117 -1.2632 -0.1118
  697SOL     OW 2089   0.708   0.673   2.169 -0.3815  0.5791  0.8276
  697SOL    HW1 2090   0.793   0.620   2.195  0.3884 -1.3793  1.7307
  697SOL    HW2 2091   0.736   0.753   2.111 -0.6370  0.6451 -0.7914
  698SOL     OW 2092   1.937   1.715   2.512 -0.1314 -0.5820 -0.5590
  698SOL    HW1 2093   1.892   1.806   2.508  4.0233  1.3385  0.1724
  698SOL    HW2 2094   1.935   1.678   2.609  0.9040  1.9854  0.2858
  699SOL     OW 2095   2.565   1.287   0.054  0.5604  0.4713  0.0118
  699SOL    HW1 2096   2.556   1.378   0.004  1.3016 -1.0301  0.8324
  699SOL    HW2 2097   2.666   1.283   0.077 -0.9209  2.6440  3.3984
  700SOL     OW 2098   1.569   0.418   1.055  0.2209 -0.3205  0.0109
  700SOL    HW1 2099   1.662   0.426   1.012 -0.4072 -1.0058  2.3861
  700SOL    HW2 2100   1.544   0.508   1.090  1.3314  0.1043  1.0352
  701SOL     OW 2101   0.172   0.493   0.931 -0.0317  0.2490 -0.7007
  701SOL    HW1 2102   0.217   0.531   0.845  0.3583 -0.1113  0.1768
  701SOL    HW2 2103   0.236   0.429   0.977  3.5407  0.9085 -0.2524
  702SOL     OW 2104   1.625   2.489   1.437  0.2664  0.6523 -0.6559
  702SOL    HW1 2105   1.556   2.558   1.471 -0.6119  0.7454  1.7590
  702SOL    HW2 2106   1.689   2.457   1.517  0.8830  0.2880  2.3310
  703SOL     OW 2107   0.291   0.296   1.089  0.0968 -0.2617 -0.1940
  703SOL    HW1 2108   0.264   0.231   1.014 -0.1439 -1.6906  2.6629
  703SOL    HW2 2109   0.215   0.307   1.157 -3.0969 -0.2291 -0.3727
  704SOL     OW 2110   0.760   2.625   1.875  0.4562  0.6000  0.1290
  704SOL    HW1 2111   0.853   2.635   1.919  0.0493  1.1923 -2.0217
  704SOL    HW2 2112   0.691   2.607   1.946 -0.9172 -0.1291  1.5292
  705SOL     OW 2113   0.301   1.923   2.904 -0.0352  1.0371 -0.3015
  705SOL    HW1 2114   0.344   1.850   2.957 -1.2061  0.4412 -0.4134
  705SOL    HW2 2115   0.245   1.974   2.971  1.3544 -0.9249 -1.7345
  706SOL     OW 2116   0.014   0.665   0.478 -0.2053  0.3015 -0.0458
  706SOL    HW1 2117  -0.033   0.652   0.387 -1.6441 -0.6151  0.4224
  706SOL    HW2 2118   0.053   0.581   0.513 -2.2055 -1.7648 -0.4062
  707SOL     OW 2119   2.003   2.717   1.838  0.1648 -0.1386 -0.1264
  707SOL    HW1 2120   1.990   2.804   1.884 -0.8456 -0.4906 -0.7671
  707SOL    HW2 2121   1.910   2.692   1.803  2.4879 -2.8919  1.0541
  708SOL     OW 2122   0.479   3.051   1.651  0.1207 -0.0873  0.6293
  708SOL    HW1 2123   0.447   2.959   1.671 -4.4080  3.3773  1.3592
  708SOL    HW2 2124   0.468   3.111   1.731 -1.3789 -0.0238  1.0259
  709SOL     OW 2125   0.076   0.781   1.667  0.1169  0.5053 -0.3291
  709SOL    HW1 2126   0.135   0.819   1.592 -1.2019 -0.5677 -1.8397
  709SOL    HW2 2127   0.030   0.855   1.719  2.1836 -0.2323  2.7999
  710SOL     OW 2128   0.579   0.603   0.861  0.1730 -0.2713  0.0353
  710SOL    HW1 2129   0.562   0.675   0.932 -0.5163 -0.9553  2.3296
  710SOL    HW2 2130   0.653   0.626   0.792  0.2363 -1.3045  1.9378
  711SOL     OW 2131   2.279   2.266   2.152 -0.3867  0.2632  0.6744
  711SOL    HW1 2132   2.365   2.273   2.102 -0.7961 -0.1912  0.5825
  711SOL    HW2 2133   2.210   2.331   2.118 -0.7283 -0.0533 -2.6063
  712SOL     OW 2134   0.038   2.840   2.372  0.1559  0.7781  0.1319
  712SOL    HW1 2135   0.025   2.927   2.422 -0.0664 -0.9283 -3.6162
  712SOL    HW2 2136  -0.053   2.827   2.321  0.5656  0.0535  0.0734
  713SOL     OW 2137   2.363   0.024   0.406 -0.0700 -0.0541 -0.4943
  713SOL    HW1 2138   2.365  -0.007   0.503  1.1198  2.3351 -1.8321
  713SOL    HW2 2139   2.350  -0.063   0.349 -1.4223 -1.4926  1.7973
  714SOL     OW 2140   1.892   1.651   2.764 -0.4988  0.5466 -0.3451
  714SOL    HW1 2141   1.904   1.552   2.797 -0.1523 -0.0672 -2.0611
  714SOL    HW2 2142   1.833   1.705   2.825 -3.2359 -1.1908  0.6377
  715SOL     OW 2143   0.066   0.865   0.886 -0.0937  0.5438  0.1710
  715SOL    HW1 2144  -0.002   0.798   0.847  1.3684  1.7939 -2.2081
  715SOL    HW2 2145   0.137   0.890   0.824 -1.1971  1.3475 -3.7146
  716SOL     OW 2146   0.545   0.368   1.876  0.3887  0.1578  0.1686
  716SOL    HW1 2147   0.529   0.438   1.943 -1.4026  0.2196  2.3027
  716SOL    HW2 2148   0.630   0.391   1.828  0.1879  0.9951  1.2447
  717SOL     OW 2149   1.154   0.907   2.193 -0.3077 -0.0061 -0.2426
  717SOL    HW1 2150   1.202   0.949   2.274 -0.1263  0.0789 -1.6556
  717SOL    HW2 2151   1.192   0.930   2.102 -0.2258 -1.4690 -0.6714
  718SOL     OW 2152   1.276   3.003   0.488 -0.5280 -0.2155 -0.1294
  718SOL    HW1 2153   1.182   3.046   0.491 -0.4823  0.6037 -2.6197
  718SOL    HW2 2154   1.340   3.072   0.442 -2.5798  1.1876 -0.4168
  719SOL     OW 2155   0.002   2.708   2.925 -0.4994  0.0854 -1.0767
  719SOL    HW1 2156  -0.086   2.758   2.911 -0.5811  0.9878 -0.9085
  719SOL    HW2 2157   0.017   2.637   2.851 -1.7804  2.5759 -1.0032
  720SOL     OW 2158   1.368   0.368   1.911 -0.2113 -0.1816 -0.0137
  720SOL    HW1 2159   1.270   0.365   1.940  0.8746  1.0281  1.6259
  720SOL    HW2 2160   1.427   0.389   1.990  0.7415 -0.0291  0.6377
  721SOL     OW 2161   0.247   2.803   1.065 -0.5763 -0.2520  0.3668
  721SOL    HW1 2162   0.211   2.890   1.094  1.6917  0.5616  0.8291
  721SOL    HW2 2163   0.170   2.735   1.054 -1.7561 -1.1863  1.7477
  722SOL     OW 2164   0.834   1.330   2.891  0.0475  0.5213  0.3047
  722SOL    HW1 2165   0.920   1.381   2.905 -0.5528 -0.3155 -1.1324
  722SOL    HW2 2166   0.768   1.366   2.962  3.6495  0.4549 -0.7035
  723SOL     OW 2167   1.986   1.065   1.324  0.2985  0.4862 -0.4304
  723SOL    HW1 2168   2.029   1.146   1.287  1.3408  0.2751 -1.1740
  723SOL    HW2 2169   2.044   1.029   1.400  1.3926 -3.4006  0.5007
  724SOL     OW 2170   1.037   1.905   0.341 -0.3466  0.1506  0.0686
  724SOL    HW1 2171   1.046   1.819   0.402  0.4551  1.7290  1.0415
  724SOL    HW2 2172   1.065   1.988   0.391  0.4458  0.3094 -1.5571
  725SOL     OW 2173   2.902   0.610   1.686  0.3645  0.7687  0.2057
  725SOL    HW1 2174   2.955   0.683   1.644  1.1733 -0.8754  0.2697
  725SOL    HW2 2175   2.815   0.648   1.712 -2.1456 -0.8422  0.1394
  726SOL     OW 2176   2.592   0.855   3.048  0.3767  0.4250  0.8457
  726SOL    HW1 2177   2.574   0.919   3.126  1.6118  0.0703  1.1739
  726SOL    HW2 2178   2.504   0.802   3.029  1.3702  0.8453  0.8611
  727SOL     OW 2179   1.693   0.480   2.641 -0.3266 -0.7681  0.3750
  727SOL    HW1 2180   1.611   0.425   2.611 -0.6562  0.0739  0.0902
  727SOL    HW2 2181   1.734   0.528   2.561  0.3044 -1.2215  0.8471
  728SOL     OW 2182   1.737   1.849   1.303 -0.0731 -0.0340 -0.9621
  728SOL    HW1 2183   1.834   1.871   1.317 -0.4994  0.0521 -0.2043
  728SOL    HW2 2184   1.696   1.912   1.232  0.4020  2.7868  1.5145
  729SOL     OW 2185   2.021   1.300   2.300  0.4871  0.4968 -0.0194
  729SOL    HW1 2186   1.982   1.389   2.277  0.1248 -0.3872  0.2605
  729SOL    HW2 2187   2.036   1.252   2.214  1.2958  1.6305 -3.2909
  730SOL     OW 2188   1.531   0.674   1.165  0.7035 -0.4011 -0.5420
  730SOL    HW1 2189   1.575   0.698   1.254  1.7695  0.6794 -1.7804
  730SOL    HW2 2190   1.590   0.705   1.088 -1.6835  0.6324 -0.1605
  731SOL     OW 2191   0.463   0.634   0.067  0.6262  0.0275 -0.0944
  731SOL    HW1 2192   0.562   0.633   0.032  0.0878 -1.9825  2.0235
  731SOL    HW2 2193   0.450   0.580   0.152 -0.7923  1.2722  3.4492
  732SOL     OW 2194   0.635   0.765   0.435  0.2356 -0.1734 -0.6795
  732SOL    HW1 2195   0.687   0.740   0.520  0.3076 -0.3441  1.4259
  732SOL    HW2 2196   0.645   0.866   0.420 -0.8407 -0.0859 -2.0844
  733SOL     OW 2197   1.065   1.597   2.374  0.2806 -0.9536 -0.6357
  733SOL    HW1 2198   1.028   1.684   2.416 -0.8343  1.4077 -0.1046
  733SOL    HW2 2199   1.059   1.528   2.449 -1.3243  0.4179 -0.8752
  734SOL     OW 2200   0.690   2.308   3.032 -0.2298 -0.4139 -0.0127
  734SOL    HW1 2201   0.697   2.380   3.103  1.0997 -1.8523  1.4274
  734SOL    HW2 2202   0.592   2.310   2.994  0.4266  0.6019 -0.6269
  735SOL     OW 2203   2.927   0.137   0.901  0.1539 -0.0868  0.5080
  735SOL    HW1 2204   2.935   0.147   1.004 -0.1990 -0.0212  1.5052
  735SOL    HW2 2205   2.947   0.226   0.854  2.0334 -0.0751  1.5638
  736SOL     OW 2206   1.828   1.206   1.923 -0.3885 -0.2842 -0.3590
  736SOL    HW1 2207   1.920   1.188   1.963  1.4552 -0.2984  2.6324
  736SOL    HW2 2208   1.812   1.158   1.838  0.9672  1.3344 -1.6461
  737SOL     OW 2209   0.178   0.885   0.465 -0.1103 -0.0619 -0.9667
  737SOL    HW1 2210   0.159   0.937   0.383 -0.8559  0.9585 -1.0751
  737SOL    HW2 2211   0.103   0.810   0.477 -2.0071  1.7290 -0.2348
  738SOL     OW 2212   0.728   2.164   1.017 -0.0234  0.5035 -0.1692
  738SOL    HW1 2213   0.683   2.239   1.075  1.2492 -2.3475 -0.4663
  738SOL    HW2 2214   0.804   2.122   1.073 -0.7785 -1.1268 -1.7918
  739SOL     OW 2215   2.011   2.817   2.222 -0.4168 -0.4962  0.2346
  739SOL    HW1 2216   1.977   2.721   2.223  0.4251  0.7859  1.9404
  739SOL    HW2 2217   1.958   2.878   2.294 -0.4554  2.5334 -0.7494
  740SOL     OW 2218   2.324   2.449   0.980  0.4091 -0.2771 -0.1608
  740SOL    HW1 2219   2.347   2.348   0.994  0.8110 -1.1736 -0.3528
  740SOL    HW2 2220   2.395   2.509   1.013 -1.2157  1.8711  0.6573
  741SOL     OW 2221   2.516   0.680   0.290  0.4104 -0.0069 -0.3661
  741SOL    HW1 2222   2.447   0.614   0.253 -4.4206 -0.1274  0.6317
  741SOL    HW2 2223   2.611   0.644   0.298 -1.5342 -0.3069 -1.0926
  742SOL     OW 2224   1.336   2.393   0.135 -0.3741  0.4482  0.6304
  742SOL    HW1 2225   1.382   2.388   0.224  1.8760  0.2353 -1.1517
  742SOL    HW2 2226   1.368   2.476   0.079  2.2042  0.2164 -3.5096
  743SOL     OW 2227   2.449   1.072   1.908 -0.2084 -0.1490 -0.2618
  743SOL    HW1 2228   2.440   1.038   1.811  2.2434 -1.8365 -1.8111
  743SOL    HW2 2229   2.366   1.130   1.930 -2.2641 -0.9806  0.1007
  744SOL     OW 2230   3.062   0.166   0.495  0.2075  0.6433  0.4781
  744SOL    HW1 2231   2.973   0.162   0.543 -0.9178 -0.9132 -0.5641
  744SOL    HW2 2232   3.048   0.155   0.395  0.4070  0.3424  0.7764
  745SOL     OW 2233   2.708   2.002   1.142  0.2516  0.2149 -0.0789
  745SOL    HW1 2234   2.795   1.946   1.134  1.4001  0.0200  1.1209
  745SOL    HW2 2235   2.632   1.950   1.102 -0.0070 -0.9605 -2.5504
  746SOL     OW 2236   1.326   1.611   0.597  0.3836 -0.6405 -0.0450
  746SOL    HW1 2237   1.293   1.644   0.689  0.0231 -3.6749  1.8020
  746SOL    HW2 2238   1.350   1.511   0.598  0.4892  1.1063 -1.5665
  747SOL     OW 2239   0.855   1.366   1.386  0.1974 -0.2087 -0.3926
  747SOL    HW1 2240   0.832   1.457   1.344 -0.3981  1.4824  3.0281
  747SOL    HW2 2241   0.772   1.305   1.395 -0.1920  0.2855 -2.1941
  748SOL     OW 2242   0.315   2.959   2.977  0.1919  0.0567  0.4206
  748SOL    HW1 2243   0.263   2.885   3.025 -0.2514  0.9353 -2.7817
  748SOL    HW2 2244   0.296   3.047   3.026  0.1368  1.6650 -1.1965
  749SOL     OW 2245   0.424   1.316   3.066  0.1914  0.4465  0.0376
  749SOL    HW1 2246   0.480   1.230   3.071 -0.2609  1.3956  1.0376
  749SOL    HW2 2247   0.337   1.298   3.017  0.0485 -2.8710  3.3390
  750SOL     OW 2248   1.451   0.866   1.769  0.2036 -0.2902  0.0879
  750SOL    HW1 2249   1.393   0.786   1.746 -2.8613 -1.3871 -0.7572
  750SOL    HW2 2250   1.502   0.906   1.688 -0.1371  0.7190  1.7253
  751SOL     OW 2251   3.089   1.193   0.519 -0.5148  0.2160  0.0078
  751SOL    HW1 2252   3.188   1.178   0.500 -2.6657  1.8322 -0.5207
  751SOL    HW2 2253   3.051   1.250   0.449  1.2985 -0.6358  1.9346
  752SOL     OW 2254   2.972   2.586   0.913  0.1016  0.3055 -0.4339
  752SOL    HW1 2255   2.924   2.530   0.843 -0.0757  0.2126  0.2668
  752SOL    HW2 2256   2.909   2.659   0.945 -0.6667  0.8773  1.4421
  753SOL     OW 2257   0.957   2.501   1.255 -0.0954  0.0901  0.3793
  753SOL    HW1 2258   0.957   2.489   1.357 -1.7087  2.7707 -1.1396
  753SOL    HW2 2259   0.982   2.413   1.211 -0.0858  0.1045  1.7509
  754SOL     OW 2260   2.754   3.087   2.027 -0.2623  0.0220  0.1453
  754SOL    HW1 2261   2.787   3.138   1.947  0.0200 -0.1536 -1.0721
  754SOL    HW2 2262   2.653   3.055   2.025 -0.0310  0.2193  3.3367
  755SOL     OW 2263   2.948   0.995   0.139  0.4815  0.0339  0.3711
  755SOL    HW1 2264   3.036   0.984   0.186 -1.5958 -1.3305 -2.0971
  755SOL    HW2 2265   2.901   0.905   0.128 -0.9471  2.1143  0.8855
  756SOL     OW 2266   2.065   2.206   0.089 -0.4207 -0.4717  0.6210
  756SOL    HW1 2267   2.063   2.299   0.048  3.0752 -0.4343  2.1014
  756SOL    HW2 2268   2.147   2.147   0.064  0.9527  0.5792  0.4108
  757SOL     OW 2269   3.003   0.711   0.727 -0.6398 -0.7159 -0.7830
  757SOL    HW1 2270   3.060   0.655   0.661 -1.0277 -1.0250  6.3872
  757SOL    HW2 2271   2.990   0.801   0.686  1.5004 -2.3336  0.2328
  758SOL     OW 2272   1.910   0.799   1.892  0.8509 -0.0134  0.0403
  758SOL    HW1 2273   1.823   0.802   1.941 -1.0764  0.7615  0.7837
  758SOL    HW2 2274   1.979   0.863   1.930 -2.3978 -1.8312  0.5650
  759SOL     OW 2275   2.567   0.434   1.104 -0.2071  0.2551  0.1362
  759SOL    HW1 2276   2.532   0.401   1.019  1.1279  0.7599 -0.9849
  759SOL    HW2 2277   2.656   0.485   1.097 -0.4791 -1.8198  1.2096
  760SOL     OW 2278   0.626   1.190   1.416  0.2499 -0.1348  0.1083
  760SOL    HW1 2279   0.608   1.222   1.511 -2.1157 -2.1378 -0.7701
  760SOL    HW2 2280   0.550   1.133   1.388 -2.0500  0.6626  1.2145
  761SOL     OW 2281   1.019   0.756   0.436 -0.2809 -0.5029  0.2118
  761SOL    HW1 2282   0.980   0.736   0.344  0.5710  1.1923  0.3655
  761SOL    HW2 2283   0.978   0.841   0.475  0.0593  0.7586 -0.3042
  762SOL     OW 2284   0.413   1.980   0.892 -0.5624 -0.1667 -0.3546
  762SOL    HW1 2285   0.360   1.982   0.979 -0.0211 -2.2366 -0.8552
  762SOL    HW2 2286   0.509   1.950   0.899  3.8024  1.2639 -2.4708
  763SOL     OW 2287   1.013   0.574   1.797  0.0802  0.1403  0.6638
  763SOL    HW1 2288   1.045   0.516   1.874  1.3670  0.3680 -1.3959
  763SOL    HW2 2289   1.039   0.672   1.812 -0.0470 -0.3106  0.9139
  764SOL     OW 2290   3.069   3.072   2.975 -0.3242 -0.2093 -0.7467
  764SOL    HW1 2291   3.121   3.089   3.061  1.2722 -1.3673 -0.2169
  764SOL    HW2 2292   3.127   3.057   2.891 -0.1896  0.1129 -0.5643
  765SOL     OW 2293   0.751   3.070   1.829  0.1603  0.3238 -0.1610
  765SOL    HW1 2294   0.661   3.114   1.844  2.0833  0.2244 -1.4703
  765SOL    HW2 2295   0.766   3.050   1.732 -4.1287 -0.2207 -0.7976
  766SOL     OW 2296   2.738   1.967   2.589  0.8483  0.1426  0.7810
  766SOL    HW1 2297   2.648   1.983   2.642  0.1186  0.7209 -2.9964
  766SOL    HW2 2298   2.775   1.875   2.620  0.0224 -0.3625  2.2082
  767SOL     OW 2299   1.307   1.245   1.984 -0.2493  0.5616 -0.6145
  767SOL    HW1 2300   1.350   1.293   1.906 -0.8179 -0.7329 -1.6110
  767SOL    HW2 2301   1.214   1.285   2.004 -1.6814  0.9361  1.2906
  768SOL     OW 2302   1.463   1.790   0.146  1.1376 -0.0201 -0.1552
  768SOL    HW1 2303   1.436   1.886   0.135 -0.1153 -1.3681  0.2980
  768SOL    HW2 2304   1.526   1.776   0.225  1.4015 -2.2025 -0.0974
  769SOL     OW 2305   0.058   1.744   0.849  0.0688 -0.3876  0.0241
  769SOL    HW1 2306  -0.033   1.710   0.811  2.1664 -1.0721 -1.0327
  769SOL    HW2 2307   0.127   1.754   0.772  0.6879 -1.3440  0.0652
  770SOL     OW 2308   1.367   0.677   2.854 -0.3613  0.3189 -0.3596
  770SOL    HW1 2309   1.357   0.584   2.895 -0.9172  2.4003  0.2387
  770SOL    HW2 2310   1.465   0.699   2.846  1.4174  2.3789 -1.0203
  771SOL     OW 2311   2.585   0.072   2.582 -0.1894 -0.3228  0.0916
  771SOL    HW1 2312   2.508   0.115   2.533 -6.4104 -1.0070 -0.4921
  771SOL    HW2 2313   2.662   0.132   2.604 -2.3803 -1.4194  1.3833
  772SOL     OW 2314   2.219   1.670   2.485 -0.4792 -0.0235  0.0004
  772SOL    HW1 2315   2.234   1.569   2.486 -0.4758  0.4950  0.1166
  772SOL    HW2 2316   2.119   1.696   2.487 -0.1448 -0.7654  2.8847
  773SOL     OW 2317   1.032   1.224   1.531  0.1920 -0.5773 -0.9701
  773SOL    HW1 2318   1.125   1.194   1.511  1.4807 -1.3460 -0.2138
  773SOL    HW2 2319   1.003   1.304   1.477 -0.7502  2.1233  1.3944
  774SOL     OW 2320   1.025   0.785   2.910  0.1326  0.0931  0.3072
  774SOL    HW1 2321   1.035   0.827   2.817  2.1342  0.2724 -0.3264
  774SOL    HW2 2322   0.975   0.850   2.967  1.1602 -3.6168  1.1197
  775SOL     OW 2323   1.622   2.189   0.224  0.2535  0.3999  0.0283
  775SOL    HW1 2324   1.662   2.285   0.243 -0.7947  1.9260 -0.5129
  775SOL    HW2 2325   1.575   2.194   0.135  0.7801  0.6363 -3.2038
  776SOL     OW 2326   2.815   0.890   1.953 -0.1387  0.3742  1.0060
  776SOL    HW1 2327   2.881   0.952   1.904  0.7337  0.1043 -1.8703
  776SOL    HW2 2328   2.758   0.834   1.889 -0.4248  0.2933 -1.6664
  777SOL     OW 2329   2.506   2.510   2.222  0.8676  0.1403 -0.5892
  777SOL    HW1 2330   2.489   2.526   2.122  2.3145  2.6262  1.6803
  777SOL    HW2 2331   2.474   2.589   2.277 -0.7042  0.4917  1.6946
  778SOL     OW 2332   1.660   1.062   2.149 -0.2031  0.5611  0.4714
  778SOL    HW1 2333   1.738   1.062   2.217  1.6878  1.3712  1.1590
  778SOL    HW2 2334   1.685   1.111   2.064 -1.1386  0.8880  1.9593
  779SOL     OW 2335   3.042   1.400   0.354  0.6286 -0.4646 -0.1290
  779SOL    HW1 2336   3.074   1.480   0.412  1.2592  1.1654 -1.7380
  779SOL    HW2 2337   2.945   1.406   0.330  0.8094  0.4519 -2.1367
  780SOL     OW 2338   2.110   2.977   2.609  0.1668  0.3268 -0.3894
  780SOL    HW1 2339   2.140   3.064   2.567 -0.5788 -0.5229 -0.7323
  780SOL    HW2 2340   2.026   2.989   2.666 -1.1429  0.2312 -1.4490
  781SOL     OW 2341   2.642   1.587   1.314 -0.7134  0.0905  0.0880
  781SOL    HW1 2342   2.689   1.607   1.227  0.3674  2.3988 -1.3990
  781SOL    HW2 2343   2.710   1.556   1.383 -0.1792 -3.5018 -2.1355
  782SOL     OW 2344   0.095   2.198   2.798  0.1861 -0.2514  0.1399
  782SOL    HW1 2345   0.085   2.109   2.850  1.0889 -0.3471  1.2781
  782SOL    HW2 2346   0.022   2.266   2.829 -0.8225  2.0184 -0.2808
  783SOL     OW 2347   0.800   1.675   0.854 -0.0120  0.1092 -0.2644
  783SOL    HW1 2348   0.810   1.581   0.901  0.7315 -0.4380 -0.3435
  783SOL    HW2 2349   0.761   1.665   0.762 -1.0659 -2.0841 -2.1684
  784SOL     OW 2350   2.398   1.249   0.264 -0.0897 -0.0798  0.7510
  784SOL    HW1 2351   2.484   1.269   0.209 -1.8856  1.1415 -2.6206
  784SOL    HW2 2352   2.312   1.266   0.212 -1.5882  0.5688  1.7599
  785SOL     OW 2353   2.046   2.983   0.339 -0.0699 -0.1533 -0.4002
  785SOL    HW1 2354   1.968   2.917   0.351 -0.7736  0.8227  0.1606
  785SOL    HW2 2355   2.130   2.929   0.336  0.0596  0.2775  1.1163
  786SOL     OW 2356   0.716   1.918   2.537 -0.2698  0.0786 -0.6934
  786SOL    HW1 2357   0.700   2.012   2.501  1.4724 -2.5984  0.2936
  786SOL    HW2 2358   0.710   1.918   2.641  1.6991 -0.4843 -2.8409
  787SOL     OW 2359   1.292   0.580   1.259 -0.1377  0.3085  0.0698
  787SOL    HW1 2360   1.380   0.623   1.225  1.1307  2.3534  2.4153
  787SOL    HW2 2361   1.298   0.557   1.357  2.3490  1.3737 -0.1247
  788SOL     OW 2362   0.862   0.906   0.002 -0.1100  0.2878  0.0705
  788SOL    HW1 2363   0.870   0.836   0.073 -0.8291  3.3162  0.6083
  788SOL    HW2 2364   0.779   0.891  -0.058  2.0745 -0.0602  1.1403
  789SOL     OW 2365   2.745   1.921   1.583  0.9896  0.5632  0.0998
  789SOL    HW1 2366   2.750   1.946   1.682 -1.7305 -0.3902 -1.5183
  789SOL    HW2 2367   2.714   2.004   1.532 -1.6050  0.1334 -0.8211
  790SOL     OW 2368   1.364   0.078   1.920  0.0158 -0.3865  0.3718
  790SOL    HW1 2369   1.276   0.060   1.869  3.3863  0.9267 -0.5270
  790SOL    HW2 2370   1.391   0.177   1.907  0.0322  0.1149  0.6715
  791SOL     OW 2371   0.904   0.431   0.195  0.3139 -0.2662  0.2756
  791SOL    HW1 2372   0.884   0.411   0.092  0.9054 -0.9979  0.2985
  791SOL    HW2 2373   0.825   0.407   0.252 -1.4230 -0.5537  0.9576
  792SOL     OW 2374   1.507   3.079   1.680 -0.5660  0.3469  0.5345
  792SOL    HW1 2375   1.574   3.150   1.665  3.4172  1.2852  0.4835
  792SOL    HW2 2376   1.446   3.105   1.757 -3.6302 -0.2889  0.8488
  793SOL     OW 2377   1.265   2.824   0.913  0.2132 -0.2135  0.8425
  793SOL    HW1 2378   1.257   2.927   0.935 -1.1623  0.2092  0.0657
  793SOL    HW2 2379   1.285   2.776   1.001 -0.6698 -1.4310  0.7623
  794SOL     OW 2380   0.514   1.226   1.657 -0.2488 -0.1107  0.6442
  794SOL    HW1 2381   0.420   1.183   1.663 -0.5770  1.3406  0.8507
  794SOL    HW2 2382   0.568   1.207   1.737 -0.3744  2.8153 -0.2212
  795SOL     OW 2383   0.221   1.506   2.398 -0.0961  0.3809  0.0081
  795SOL    HW1 2384   0.143   1.569   2.380  1.2397  0.3694 -0.8356
  795SOL    HW2 2385   0.308   1.548   2.361  0.0991  1.1544  2.1677
  796SOL     OW 2386   1.885   1.712   1.668  0.1147  0.0467 -0.0156
  796SOL    HW1 2387   1.899   1.794   1.607 -0.6090  0.4562 -1.4450
  796SOL    HW2 2388   1.799   1.722   1.720  0.4628 -2.4015 -0.0303
  797SOL     OW 2389   0.145   0.336   2.686 -0.6886 -0.3116  0.1570
  797SOL    HW1 2390   0.166   0.326   2.784  0.0830 -2.8050  2.7338
  797SOL    HW2 2391   0.208   0.273   2.628  1.0868  0.7406  0.1183
  798SOL     OW 2392   3.009   2.381   1.956 -0.1290 -0.3684 -0.5956
  798SOL    HW1 2393   3.092   2.369   2.019 -2.2210 -0.8973 -1.3014
  798SOL    HW2 2394   2.948   2.298   1.959  0.7126  0.7401 -0.6871
  799SOL     OW 2395   0.056   2.286   0.058 -0.2521 -0.0521 -0.2915
  799SOL    HW1 2396   0.137   2.345   0.076  2.0267  1.0824  0.2244
  799SOL    HW2 2397  -0.025   2.340   0.028  2.1446  1.0919  0.9643
  800SOL     OW 2398   1.259   1.695   0.839  0.7514 -0.8243  0.1982
  800SOL    HW1 2399   1.175   1.758   0.843  0.4656  1.1704  1.2590
  800SOL    HW2 2400   1.336   1.743   0.889  1.5846 -0.3228  2.7868
  801SOL     OW 2401   2.956   0.958   0.642  0.5025 -0.0027  0.6316
  801SOL    HW1 2402   3.011   1.041   0.626  2.3839  1.5152 -1.2517
  801SOL    HW2 2403   2.867   0.978   0.688 -2.6165  1.4501  0.4961
  802SOL     OW 2404   2.617   1.438   0.565  0.0155 -0.0061 -0.1024
  802SOL    HW1 2405   2.635   1.536   0.574  1.1800  1.1850  0.5602
  802SOL    HW2 2406   2.527   1.415   0.528 -1.7406 -2.9481  0.0998
  803SOL     OW 2407   1.751   1.821   2.962  0.0508 -0.4047 -0.2529
  803SOL    HW1 2408   1.819   1.870   2.904  1.5394  0.3339  1.1113
  803SOL    HW2 2409   1.801   1.790   3.047  1.2387 -0.0193 -0.7719
  804SOL     OW 2410   2.255   2.052   3.071 -0.3021  0.0583 -0.0672
  804SOL    HW1 2411   2.316   2.008   3.141  1.4138 -0.2806 -1.1539
  804SOL    HW2 2412   2.207   1.976   3.025  0.6385 -0.6510  0.5596
  805SOL     OW 2413   2.966   1.515   2.552 -0.2756 -0.0700 -0.3852
  805SOL    HW1 2414   3.007   1.575   2.481  1.9152 -0.2013 -1.0766
  805SOL    HW2 2415   2.906   1.447   2.505  1.0103 -1.1008  0.0070
  806SOL     OW 2416   0.373   0.264   0.449 -0.2037 -0.1800  0.1393
  806SOL    HW1 2417   0.466   0.260   0.485  2.6775 -2.9313  0.4100
  806SOL    HW2 2418   0.311   0.217   0.513 -2.6596  1.5566  0.2493
  807SOL     OW 2419   2.720   1.133   2.671  0.2215 -0.4606 -0.4161
  807SOL    HW1 2420   2.662   1.090   2.746 -0.3840  0.6615  1.4621
  807SOL    HW2 2421   2.665   1.130   2.584  1.4258 -0.0198 -2.1118
  808SOL     OW 2422   0.027   1.568   0.585 -0.5344  0.3135  0.3179
  808SOL    HW1 2423   0.058   1.493   0.651 -0.7623  1.7485  1.7121
  808SOL    HW2 2424  -0.059   1.612   0.619  0.8969 -0.9464 -0.5919
  809SOL     OW 2425   2.834   0.767   0.038 -0.3188  0.0821  0.1503
  809SOL    HW1 2426   2.739   0.785   0.005 -1.7074 -2.2885  0.2676
  809SOL    HW2 2427   2.888   0.717  -0.032 -4.6552  0.1728  0.2188
  810SOL     OW 2428   1.148   0.781   0.053 -0.1443 -0.3907 -0.0897
  810SOL    HW1 2429   1.097   0.765  -0.037  0.3480  1.6764  0.5617
  810SOL    HW2 2430   1.125   0.863   0.106  0.0066 -0.1943  0.8697
  811SOL     OW 2431   1.495   2.518   0.974 -0.6061  0.1500 -0.4990
  811SOL    HW1 2432   1.431   2.583   1.016 -0.2096  4.4013 -2.0583
  811SOL    HW2 2433   1.447   2.444   0.923 -0.5816  1.0213  1.4696
  812SOL     OW 2434   0.813   2.376   1.734  0.0210  0.2676 -0.3055
  812SOL    HW1 2435   0.728   2.326   1.779  1.6416  2.5796  1.0481
  812SOL    HW2 2436   0.821   2.462   1.785  1.0862 -0.3155 -1.3762
  813SOL     OW 2437   1.147   0.044   1.787  0.0294  0.5581 -0.2987
  813SOL    HW1 2438   1.127  -0.039   1.734 -0.3533  0.9108  2.5284
  813SOL    HW2 2439   1.063   0.099   1.806 -0.8409  1.0818 -0.8449
  814SOL     OW 2440   1.646   2.815   2.480 -0.1741  0.0778  0.3569
  814SOL    HW1 2441   1.640   2.751   2.559 -1.1780  0.5212  0.2026
  814SOL    HW2 2442   1.607   2.904   2.509 -0.0396  3.1940 -1.4172
  815SOL     OW 2443   0.584   0.795   1.808 -0.4822  0.2637 -0.5339
  815SOL    HW1 2444   0.574   0.723   1.731  1.9136  2.4809  0.5755
  815SOL    HW2 2445   0.517   0.769   1.879 -1.9347  0.6746  0.8374
  816SOL     OW 2446   2.347   0.377   0.008 -0.0332 -0.2009  0.2166
  816SOL    HW1 2447   2.318   0.318   0.086  0.7070  2.5038 -2.5034
  816SOL    HW2 2448   2.451   0.357  -0.007  1.4746 -1.0691 -0.2092
  817SOL     OW 2449   1.732   0.121   2.847 -0.6196 -0.1063 -0.0115
  817SOL    HW1 2450   1.771   0.214   2.851 -0.6515  2.8559 -0.4966
  817SOL    HW2 2451   1.662   0.104   2.923  1.6605 -0.6909 -1.6457
  818SOL     OW 2452   2.265   0.214   0.241 -0.0665 -0.2701  0.0557
  818SOL    HW1 2453   2.306   0.138   0.298 -0.7034 -0.4545 -0.4728
  818SOL    HW2 2454   2.240   0.296   0.296 -1.3155 -2.0731 -0.9549
  819SOL     OW 2455   2.337   1.224   2.852  0.0527  0.0064  0.6914
  819SOL    HW1 2456   2.358   1.319   2.871  0.6260 -0.3677 -4.2051
  819SOL    HW2 2457   2.416   1.164   2.871  1.6737  0.8035 -1.2831
  820SOL     OW 2458   0.079   2.028   3.020  0.3755  0.0718  0.2646
  820SOL    HW1 2459   0.085   2.121   3.068 -2.0812 -2.8455  0.3894
  820SOL    HW2 2460   0.078   1.955   3.090 -1.0080  1.4824 -1.9096
  821SOL     OW 2461   0.140   2.444   1.526  0.2687  0.1790  0.5403
  821SOL    HW1 2462   0.189   2.535   1.513  1.8641  0.2399 -1.3336
  821SOL    HW2 2463   0.117   2.414   1.428  0.3205 -0.9958  4.4944
  822SOL     OW 2464   2.866   2.775   2.297  0.0459 -0.3581  0.8068
  822SOL    HW1 2465   2.797   2.836   2.338  2.4065 -0.4565 -0.3208
  822SOL    HW2 2466   2.882   2.809   2.204  0.5981 -0.4924 -3.0560
  823SOL     OW 2467   1.443   3.094   2.189  0.4773 -0.7492 -0.3255
  823SOL    HW1 2468   1.423   3.121   2.091 -1.6937 -3.3164  0.8396
  823SOL    HW2 2469   1.396   3.151   2.262 -3.7233 -0.6089 -2.5008
  824SOL     OW 2470   2.490   1.839   1.009  0.3278 -0.4934 -0.2800
  824SOL    HW1 2471   2.498   1.891   0.921 -0.3073  0.0489  1.9556
  824SOL    HW2 2472   2.540   1.747   1.003 -1.2726  1.2875 -1.9455
  825SOL     OW 2473   3.085   2.175   2.544 -0.6121 -0.4791 -0.0931
  825SOL    HW1 2474   2.985   2.172   2.566 -2.1921 -1.0268 -2.0305
  825SOL    HW2 2475   3.138   2.187   2.628  1.2357  0.1211  0.2149
  826SOL     OW 2476   2.389   1.401   2.165 -0.3329  0.6402 -0.2640
  826SOL    HW1 2477   2.329   1.451   2.231 -0.9294 -3.4674 -0.8810
  826SOL    HW2 2478   2.391   1.302   2.190  2.6955 -1.2927 -0.3953
  827SOL     OW 2479   2.573   2.507   1.532 -0.0464 -0.6282 -0.2934
  827SOL    HW1 2480   2.478   2.475   1.549 -0.7008 -0.6102 -1.4465
  827SOL    HW2 2481   2.576   2.531   1.432  1.7559  0.7323 -0.8350
  828SOL     OW 2482   3.076   2.809   1.544 -0.1664 -0.0158  0.1269
  828SOL    HW1 2483   3.014   2.787   1.620 -2.6606  0.3835  0.0382
  828SOL    HW2 2484   3.085   2.908   1.536  1.6887 -2.2090 -1.9232
  829SOL     OW 2485   1.967   1.552   2.285  0.3617 -0.1055  0.0594
  829SOL    HW1 2486   2.019   1.611   2.219  0.1925 -0.2803 -0.0492
  829SOL    HW2 2487   1.959   1.603   2.369  0.2494  2.3178 -1.1885
  830SOL     OW 2488   1.750   0.772   1.033 -0.2079 -0.0126  0.2082
  830SOL    HW1 2489   1.780   0.685   0.982  0.5536  0.6415 -1.4381
  830SOL    HW2 2490   1.819   0.799   1.106 -1.0304 -1.2228  1.6455
  831SOL     OW 2491   2.811   1.452   0.865  0.3960 -0.1967 -0.0212
  831SOL    HW1 2492   2.895   1.419   0.914 -0.1057  0.5149  2.8914
  831SOL    HW2 2493   2.755   1.384   0.812 -0.2171  2.3402 -0.4384
  832SOL     OW 2494   1.711   2.243   2.176 -0.5753 -0.1410 -0.0675
  832SOL    HW1 2495   1.616   2.261   2.142  0.8231  0.1795 -1.2714
  832SOL    HW2 2496   1.775   2.251   2.097  0.5867  0.1427 -1.0926
  833SOL     OW 2497   2.816   0.050   2.331 -0.6455 -0.3708  0.0907
  833SOL    HW1 2498   2.808   0.064   2.231  1.3702  0.6142  0.6668
  833SOL    HW2 2499   2.717   0.048   2.375 -0.3675 -0.9987  0.1539
  834SOL     OW 2500   0.858   0.874   1.132 -0.0185 -0.7985  0.0709
  834SOL    HW1 2501   0.771   0.857   1.190  0.7593  0.7859  0.6734
  834SOL    HW2 2502   0.925   0.795   1.147 -1.6971 -1.6924  1.2149
  835SOL     OW 2503   0.088   1.010   2.795  0.6910 -0.2659  0.0580
  835SOL    HW1 2504   0.166   1.023   2.730  0.0579  0.1329 -2.5223
  835SOL    HW2 2505   0.091   0.923   2.847 -0.2964  0.7211 -0.6774
  836SOL     OW 2506   1.096   2.276   1.174 -0.5060  0.7765  0.0359
  836SOL    HW1 2507   1.109   2.281   1.075  3.6136 -0.0739 -0.3308
  836SOL    HW2 2508   1.190   2.285   1.213  0.2958  1.7521  1.3599
  837SOL     OW 2509   2.207   0.752   1.578  0.0506  0.4565  0.1973
  837SOL    HW1 2510   2.284   0.714   1.523  1.3621  1.2281 -1.3491
  837SOL    HW2 2511   2.213   0.855   1.568 -1.4270 -1.1321  1.3158
  838SOL     OW 2512   1.714   1.438   2.906  0.2914 -0.9670 -0.5008
  838SOL    HW1 2513   1.676   1.499   2.830  1.7504  1.5708 -1.4222
  838SOL    HW2 2514   1.648   1.364   2.928  0.0775 -1.2739 -2.7436
  839SOL     OW 2515   0.851   2.302   2.812  0.3328 -0.2185  0.5739
  839SOL    HW1 2516   0.908   2.217   2.800 -0.1499 -0.9838  1.0343
  839SOL    HW2 2517   0.787   2.295   2.894 -0.7912  4.1069 -1.3058
  840SOL     OW 2518   1.044   2.499   2.852  0.3009  0.2814  0.3320
  840SOL    HW1 2519   0.960   2.446   2.860 -2.8664 -0.9637  0.5278
  840SOL    HW2 2520   1.084   2.477   2.760  3.0735 -1.2137 -3.2077
  841SOL     OW 2521   1.938   1.978   2.820 -0.1985 -0.3559  0.3873
  841SOL    HW1 2522   2.023   1.928   2.829  0.6053  0.4330  1.2994
  841SOL    HW2 2523   1.959   2.075   2.794 -0.6266 -0.4134 -0.3879
  842SOL     OW 2524   1.502   1.117   2.731  0.5084  0.1750 -0.1214
  842SOL    HW1 2525   1.527   1.017   2.726 -0.7422  1.5441 -0.7518
  842SOL    HW2 2526   1.404   1.133   2.718 -2.3683  1.2603 -0.2307
  843SOL     OW 2527   1.592   2.877   0.727  0.4012 -0.4137  0.4585
  843SOL    HW1 2528   1.586   2.881   0.831 -1.5212 -1.0743 -0.3186
  843SOL    HW2 2529   1.506   2.841   0.689  1.3516  0.8536 -1.0859
  844SOL     OW 2530   2.483   2.722   2.870 -0.5110 -0.3474  0.0112
  844SOL    HW1 2531   2.555   2.735   2.938 -0.6824  1.1876  2.5098
  844SOL    HW2 2532   2.494   2.636   2.816 -0.8119  1.5000 -0.9051
  845SOL     OW 2533   2.865   2.810   1.007  0.3790 -0.1984 -0.9761
  845SOL    HW1 2534   2.933   2.883   0.992  0.9202  0.6815  2.0212
  845SOL    HW2 2535   2.822   2.808   1.099 -2.2446 -0.0717  1.1615
  846SOL     OW 2536   0.128   2.289   2.123  0.1190  0.0351 -0.5143
  846SOL    HW1 2537   0.224   2.272   2.148  1.0859 -2.3945  0.8849
  846SOL    HW2 2538   0.070   2.312   2.201  1.9641 -0.9332 -2.5932
  847SOL     OW 2539   1.691   0.340   1.526  0.7326 -0.0951  0.1650
  847SOL    HW1 2540   1.605   0.387   1.560  2.9246 -0.4612 -0.2747
  847SOL    HW2 2541   1.721   0.259   1.582  0.0931 -0.4637 -3.2803
  848SOL     OW 2542   2.967   0.630   0.258 -0.5569  0.2869  0.2628
  848SOL    HW1 2543   2.956   0.671   0.162  3.0265 -3.4213  0.6228
  848SOL    HW2 2544   2.952   0.531   0.260  0.0011  1.4612  2.8650
  849SOL     OW 2545   0.442   0.500   0.303  1.0337 -0.1736  0.6442
  849SOL    HW1 2546   0.414   0.590   0.341 -0.6390  0.7748  0.5594
  849SOL    HW2 2547   0.413   0.425   0.360 -3.5831  1.6383 -1.5708
  850SOL     OW 2548   0.265   2.445   1.012 -0.1961 -0.2185  0.0108
  850SOL    HW1 2549   0.268   2.430   0.911 -0.5340 -0.8268 -2.6371
  850SOL    HW2 2550   0.194   2.515   1.034 -1.4517 -1.5953  0.6897
  851SOL     OW 2551   1.920   0.144   2.429 -0.3587 -0.4643 -0.8174
  851SOL    HW1 2552   1.826   0.174   2.435 -2.3631 -0.8163 -0.2716
  851SOL    HW2 2553   1.963   0.181   2.344  0.0109 -0.6622 -0.1733
  852SOL     OW 2554   1.368   1.553   2.163  0.2389 -0.0556  0.3675
  852SOL    HW1 2555   1.271   1.512   2.164  1.2102  2.7673  0.1821
  852SOL    HW2 2556   1.431   1.528   2.242 -2.6319 -1.4817  3.2127
  853SOL     OW 2557   0.265   2.959   0.589  0.0255  0.0192 -0.0926
  853SOL    HW1 2558   0.307   2.933   0.497  2.4836 -2.0536  0.8835
  853SOL    HW2 2559   0.317   2.910   0.660  2.3138  3.8204  0.0748
  854SOL     OW 2560   2.441   0.041   0.689 -0.2028  0.3132  0.1200
  854SOL    HW1 2561   2.515   0.041   0.761  1.9373  0.6712 -0.4466
  854SOL    HW2 2562   2.400  -0.052   0.684 -2.1721 -0.3968 -0.0753
  855SOL     OW 2563   1.692   2.227   0.763 -0.1880 -0.2757 -0.5043
  855SOL    HW1 2564   1.620   2.268   0.709  1.7455  2.1561  0.8597
  855SOL    HW2 2565   1.716   2.284   0.847  1.4360  0.8414 -1.1545
  856SOL     OW 2566   2.679   0.636   0.564  0.7463  0.5567 -0.6038
  856SOL    HW1 2567   2.665   0.567   0.491 -2.0692 -0.7249 -0.9161
  856SOL    HW2 2568   2.732   0.716   0.529 -1.8285  0.8636 -1.4777
  857SOL     OW 2569   1.832   2.437   1.630 -0.0619 -0.0987 -0.5066
  857SOL    HW1 2570   1.792   2.502   1.701  1.9657 -1.8931  0.2892
  857SOL    HW2 2571   1.927   2.460   1.599 -2.1934 -2.2892 -0.9241
  858SOL     OW 2572   2.660   2.112   1.416 -0.1750  0.5383 -0.0903
  858SOL    HW1 2573   2.716   2.193   1.444  1.5398 -0.0612 -4.8179
  858SOL    HW2 2574   2.690   2.078   1.324  0.4666  2.4034  1.7954
  859SOL     OW 2575   1.007   2.547   0.660 -0.2180 -0.3642 -0.0625
  859SOL    HW1 2576   1.038   2.638   0.689 -0.9189  2.7776 -1.2013
  859SOL    HW2 2577   0.953   2.502   0.737  0.1684  4.2789 -2.8772
  860SOL     OW 2578   2.146   2.465   0.296  0.4824 -0.2531 -0.3769
  860SOL    HW1 2579   2.067   2.406   0.332  1.4449 -2.5692 -0.4257
  860SOL    HW2 2580   2.120   2.532   0.227  1.8730  1.1146  0.3924
  861SOL     OW 2581   2.078   2.546   1.049 -0.0307 -0.2987  0.1367
  861SOL    HW1 2582   2.017   2.550   0.966 -0.9220 -0.6877  1.2781
  861SOL    HW2 2583   2.164   2.496   1.024 -2.3810 -2.0777 -0.4575
  862SOL     OW 2584   1.727   2.477   2.704  0.2270 -0.1049 -0.0649
  862SOL    HW1 2585   1.732   2.414   2.787 -2.3131 -2.2885 -0.4324
  862SOL    HW2 2586   1.669   2.558   2.724 -0.8949  0.3192 -3.1291
  863SOL     OW 2587   0.453   2.988   0.301  0.4093  0.5301  0.2307
  863SOL    HW1 2588   0.429   2.905   0.246  0.6110  2.2730 -0.1173
  863SOL    HW2 2589   0.550   2.989   0.321  0.4832  0.9324  0.5186
  864SOL     OW 2590   2.453   2.813   1.801  0.0608  0.5434 -0.5537
  864SOL    HW1 2591   2.542   2.802   1.745 -3.7478 -0.2650 -1.1414
  864SOL    HW2 2592   2.382   2.861   1.746  0.6708 -0.6756 -0.1331
  865SOL     OW 2593   0.492   2.062   2.772 -0.2482  0.0007 -0.5483
  865SOL    HW1 2594   0.574   2.004   2.781 -2.3572  2.1155  1.9577
  865SOL    HW2 2595   0.407   2.019   2.812  0.4072  0.0784  0.2268
  866SOL     OW 2596   2.861   0.416   3.050  0.1759  0.2443 -0.0512
  866SOL    HW1 2597   2.862   0.351   2.971 -0.8955 -1.6275 -0.1882
  866SOL    HW2 2598   2.924   0.490   3.023 -2.8563  1.0077  0.9707
  867SOL     OW 2599   2.887   2.831   2.811  0.3098  0.1704 -0.3981
  867SOL    HW1 2600   2.819   2.884   2.861  0.0646  1.7665 -1.3193
  867SOL    HW2 2601   2.844   2.765   2.742 -0.4112  0.4647  3.1474
  868SOL     OW 2602   1.020   2.804   0.744 -0.5482 -0.3752 -0.3569
  868SOL    HW1 2603   1.095   2.833   0.805  1.5207 -0.3596  1.9357
  868SOL    HW2 2604   0.935   2.861   0.749 -0.7252  1.2593  0.8293
  869SOL     OW 2605   1.346   1.433   1.070 -0.7523  0.5696  0.1207
  869SOL    HW1 2606   1.353   1.399   0.977 -0.5885 -1.2987  2.9745
  869SOL    HW2 2607   1.432   1.484   1.099  0.8665  1.5629 -0.4833
  870SOL     OW 2608   2.191   1.663   1.261  0.1948 -0.2172  0.5334
  870SOL    HW1 2609   2.123   1.729   1.298 -0.5939 -0.1128  2.1913
  870SOL    HW2 2610   2.275   1.654   1.326 -1.4524 -2.7919  1.0805
  871SOL     OW 2611   1.051   1.320   1.211 -0.5678  0.2360 -0.1190
  871SOL    HW1 2612   1.057   1.226   1.178  1.0831  2.4867  0.5004
  871SOL    HW2 2613   0.979   1.331   1.285 -0.0949 -1.2937 -2.3086
  872SOL     OW 2614   1.588   0.531   0.729 -0.0115 -0.2230 -0.3683
  872SOL    HW1 2615   1.674   0.507   0.773  0.3709 -0.6403 -0.9417
  872SOL    HW2 2616   1.601   0.619   0.681  4.5794  2.5150 -2.0398
  873SOL     OW 2617   1.306   0.434   2.957  0.2356 -0.2095 -0.0908
  873SOL    HW1 2618   1.366   0.423   3.044  0.7380  0.4955  0.0748
  873SOL    HW2 2619   1.326   0.354   2.898  2.4700  0.3277 -0.5210
  874SOL     OW 2620   0.631   1.338   1.154  0.5829  0.4080  0.2434
  874SOL    HW1 2621   0.623   1.277   1.234 -1.1423  0.9327  1.9362
  874SOL    HW2 2622   0.685   1.420   1.176  0.9472 -3.0555  1.4673
  875SOL     OW 2623   2.959   2.476   3.093  0.5119  0.3434 -0.0569
  875SOL    HW1 2624   2.867   2.441   3.062  1.6512  0.0554 -0.7339
  875SOL    HW2 2625   2.972   2.570   3.063 -0.9747 -3.4590 -0.5802
  876SOL     OW 2626   0.711   0.592   3.052 -0.5112 -0.1840 -0.0505
  876SOL    HW1 2627   0.755   0.499   3.053 -3.3670  0.9768  0.5815
  876SOL    HW2 2628   0.687   0.631   2.961 -1.5974  0.9551  0.8119
  877SOL     OW 2629   2.983   2.666   1.303  0.5713  0.0826  0.1317
  877SOL    HW1 2630   2.904   2.715   1.264  1.7021 -1.0670  0.3098
  877SOL    HW2 2631   3.016   2.717   1.388 -1.4072 -0.7131  4.7655
  878SOL     OW 2632   1.607   1.808   2.435 -0.5027 -0.4297  0.1079
  878SOL    HW1 2633   1.636   1.846   2.343  0.1611 -0.3226  1.8100
  878SOL    HW2 2634   1.677   1.828   2.507  0.1289 -0.5736  2.6068
  879SOL     OW 2635   1.986   1.946   1.567  0.8106  0.4115 -0.0060
  879SOL    HW1 2636   1.971   2.046   1.561  1.2515 -1.4165 -0.8950
  879SOL    HW2 2637   2.073   1.927   1.612 -0.2405 -2.4592  1.2801
  880SOL     OW 2638   0.752   0.949   0.895  0.8901 -0.8549 -0.7818
  880SOL    HW1 2639   0.799   0.936   0.979  1.4777  0.3717 -0.8964
  880SOL    HW2 2640   0.657   0.924   0.906  0.3502  0.6712 -3.7107
  881SOL     OW 2641   1.299   1.572   0.267  0.7004  0.2427  0.0709
  881SOL    HW1 2642   1.349   1.652   0.227  2.9703  1.4297 -0.1387
  881SOL    HW2 2643   1.198   1.595   0.277  0.4097  0.8567  1.9980
  882SOL     OW 2644   1.887   0.397   1.147  0.2049  0.4751 -0.8265
  882SOL    HW1 2645   1.901   0.386   1.248 -2.1511  0.7140 -0.2244
  882SOL    HW2 2646   1.884   0.303   1.106 -2.6184  2.0654  0.9213
  883SOL     OW 2647   1.783   0.642   2.435  0.5637  0.3767  0.0982
  883SOL    HW1 2648   1.835   0.589   2.366 -2.7843  1.5391 -0.0150
  883SOL    HW2 2649   1.722   0.706   2.385 -2.5499  1.8561 -0.0447
  884SOL     OW 2650   3.035   0.602   2.956  0.1849 -0.4511  0.3492
  884SOL    HW1 2651   3.011   0.592   2.857  2.8165  0.4900 -0.9486
  884SOL    HW2 2652   3.122   0.657   2.960 -0.1643  2.0873  2.3700
  885SOL     OW 2653   1.093   2.283   0.886  0.4203 -0.0787  0.0249
  885SOL    HW1 2654   1.070   2.198   0.839  0.0811  0.6019 -1.3563
  885SOL    HW2 2655   1.020   2.354   0.874  1.9947 -1.6300  1.3642
  886SOL     OW 2656   1.148   1.127   2.881 -0.8479  0.1250  0.1766
  886SOL    HW1 2657   1.189   1.177   2.799 -0.0535 -1.3185 -2.6479
  886SOL    HW2 2658   1.214   1.060   2.921 -1.6228  0.5005 -0.9887
  887SOL     OW 2659   1.779   0.114   1.629  0.0139 -0.1255 -0.1422
  887SOL    HW1 2660   1.832   0.167   1.700 -1.4133  0.2853 -0.9243
  887SOL    HW2 2661   1.841   0.044   1.588 -2.6487  1.2016  4.4507
  888SOL     OW 2662   2.746   1.675   1.688 -0.1992  0.1802 -0.2703
  888SOL    HW1 2663   2.725   1.762   1.638  0.4072 -1.1061  0.2227
  888SOL    HW2 2664   2.771   1.604   1.620 -1.0236 -0.3889  0.7190
  889SOL     OW 2665   3.027   2.598   0.573 -0.5397 -0.0682 -0.1530
  889SOL    HW1 2666   2.975   2.539   0.638  0.3921  0.2795  0.9889
  889SOL    HW2 2667   3.062   2.680   0.625 -0.9678  0.6008  1.0385
  890SOL     OW 2668   0.597   1.885   2.087 -0.3207  0.1695  0.1359
  890SOL    HW1 2669   0.504   1.924   2.083  1.9446 -0.2379 -1.1355
  890SOL    HW2 2670   0.605   1.787   2.061  3.9197  0.0607 -1.1917
  891SOL     OW 2671   0.679   1.682   0.618  0.3747 -0.6890  0.1322
  891SOL    HW1 2672   0.670   1.762   0.557 -0.2951 -0.1837 -2.1106
  891SOL    HW2 2673   0.590   1.632   0.623 -1.2969 -0.7182  1.4244
  892SOL     OW 2674   2.600   2.595   1.279 -0.0158 -0.1174  0.2263
  892SOL    HW1 2675   2.614   2.523   1.209  1.2719  0.2133 -1.5815
  892SOL    HW2 2676   2.516   2.642   1.247 -1.1642  1.1657 -0.1497
  893SOL     OW 2677   0.104   0.597   1.871 -0.5839 -0.0389  0.4490
  893SOL    HW1 2678   0.100   0.502   1.831  0.0787  0.2162 -0.8466
  893SOL    HW2 2679   0.082   0.667   1.801 -0.0099 -0.8550  1.4461
  894SOL     OW 2680   2.457   2.210   1.054 -0.1632 -1.1037  0.0276
  894SOL    HW1 2681   2.492   2.140   0.988  1.3421 -0.2563  1.2737
  894SOL    HW2 2682   2.402   2.170   1.130  0.1164 -2.8543  1.1129
  895SOL     OW 2683   1.181   2.599   1.472 -0.4667  0.7140  0.0267
  895SOL    HW1 2684   1.121   2.645   1.543 -0.7934 -0.9623  1.1787
  895SOL    HW2 2685   1.167   2.649   1.385 -0.8500  0.3204 -0.3798
  896SOL     OW 2686   0.860   0.191   1.408 -0.8075 -0.5197  0.1828
  896SOL    HW1 2687   0.951   0.156   1.366  1.2873 -1.1452 -1.0550
  896SOL    HW2 2688   0.821   0.124   1.476 -1.5427 -2.2201 -0.9426
  897SOL     OW 2689   1.067   1.053   1.129  0.2387 -0.0323  0.0305
  897SOL    HW1 2690   1.141   0.999   1.176  1.5386 -0.7310  0.6652
  897SOL    HW2 2691   0.984   0.991   1.137  2.7471  0.6912 -2.4840
  898SOL     OW 2692   0.906   0.201   1.815  0.0991  0.2038 -0.6918
  898SOL    HW1 2693   0.846   0.276   1.778  0.2414 -1.7045  0.4654
  898SOL    HW2 2694   0.851   0.118   1.832  2.8043  0.5182  1.2818
  899SOL     OW 2695   1.404   0.415   0.122 -0.4545 -0.4020  0.5333
  899SOL    HW1 2696   1.473   0.445   0.190  1.5269 -0.8807  1.5129
  899SOL    HW2 2697   1.317   0.464   0.134 -0.2466  3.8641  0.5262
  900SOL     OW 2698   0.952   0.547   2.246  0.6402 -0.3056 -0.1770
  900SOL    HW1 2699   0.932   0.564   2.344  0.0255 -0.2050  2.6838
  900SOL    HW2 2700   1.052   0.541   2.228 -0.0161  2.2228 -0.3110
  901SOL     OW 2701   0.821   1.904   0.188 -0.0339  0.1949 -0.2115
  901SOL    HW1 2702   0.905   1.879   0.242 -0.1235 -0.3909  0.6340
  901SOL    HW2 2703   0.837   1.987   0.128 -0.6427  0.4892  4.3974
  902SOL     OW 2704   2.064   0.084   0.801  0.5816 -1.1729  0.0254
  902SOL    HW1 2705   2.046   0.095   0.701  3.3142 -2.1172 -0.6012
  902SOL    HW2 2706   2.108  -0.009   0.822 -1.1981  0.1979  1.1024
  903SOL     OW 2707   0.028   1.339   2.776  0.4480 -0.6565 -0.0697
  903SOL    HW1 2708   0.068   1.284   2.851 -0.8143 -1.1631  2.0285
  903SOL    HW2 2709  -0.024   1.282   2.710 -1.5018 -1.1508 -2.5102
  904SOL     OW 2710   1.929   1.178   0.582 -0.0744 -0.6859  0.5052
  904SOL    HW1 2711   1.911   1.254   0.523 -0.7135 -1.5090  0.1385
  904SOL    HW2 2712   1.994   1.112   0.537  2.4776  1.8770  0.8199
  905SOL     OW 2713   2.102   2.775   1.503  0.5032  0.0135 -0.4611
  905SOL    HW1 2714   2.145   2.778   1.406  0.2720  2.0631  0.5400
  905SOL    HW2 2715   2.060   2.682   1.521 -1.0551  0.0226  1.5145
  906SOL     OW 2716   2.166   2.925   0.873  0.0608 -0.0436 -0.1181
  906SOL    HW1 2717   2.139   2.882   0.785  0.6752 -0.1216  0.2292
  906SOL    HW2 2718   2.265   2.908   0.893 -2.3917  0.1257 -1.9420
  907SOL     OW 2719   2.546   0.955   0.191  0.7787  0.0185  0.8150
  907SOL    HW1 2720   2.533   0.854   0.207 -0.4773 -2.9624  0.4699
  907SOL    HW2 2721   2.484   0.998   0.263  1.4044  0.2220 -0.1627
  908SOL     OW 2722   1.940   0.367   1.403 -1.0832 -0.4940 -0.3315
  908SOL    HW1 2723   1.982   0.273   1.417 -0.7860  3.4797  1.9791
  908SOL    HW2 2724   1.850   0.376   1.453 -1.9454 -1.8645 -1.7660
  909SOL     OW 2725   2.433   2.891   0.919  0.0660  0.4645 -0.4534
  909SOL    HW1 2726   2.514   2.852   0.868 -0.1698 -0.1464  0.6721
  909SOL    HW2 2727   2.470   2.961   0.978  2.0430 -0.3235 -2.4634
  910SOL     OW 2728   2.213   0.548   1.968  0.1195  0.2839 -0.1161
  910SOL    HW1 2729   2.177   0.574   2.060  1.3695 -0.7573 -1.5408
  910SOL    HW2 2730   2.138   0.520   1.902 -2.7155  3.2192 -1.0724
  911SOL     OW 2731   1.525   3.055   2.559 -0.2743  0.1504  0.0511
  911SOL    HW1 2732   1.560   3.124   2.623 -0.7366  0.3077 -0.3899
  911SOL    HW2 2733   1.449   3.097   2.498 -0.8536  2.9734  0.4272
  912SOL     OW 2734   0.213   1.091   1.184 -0.3145 -0.3456  1.1433
  912SOL    HW1 2735   0.223   1.002   1.138  2.7392  1.2599 -0.3614
  912SOL    HW2 2736   0.259   1.167   1.124 -0.0693 -1.7703  0.1370
  913SOL     OW 2737   2.402   2.693   1.120  0.4766  0.1845  0.4490
  913SOL    HW1 2738   2.421   2.761   1.044 -0.6638 -0.2986  0.7699
  913SOL    HW2 2739   2.312   2.712   1.162 -0.8564 -1.2195 -0.8849
  914SOL     OW 2740   1.665   0.071   0.769 -0.1077 -0.1808  0.6541
  914SOL    HW1 2741   1.640   0.141   0.702 -1.0548  0.9890 -3.4457
  914SOL    HW2 2742   1.637  -0.022   0.734 -0.3459  0.9168 -1.6867
  915SOL     OW 2743   0.321   1.549   1.448  0.0977 -0.0012 -0.0086
  915SOL    HW1 2744   0.322   1.629   1.384  0.8506  4.1781 -1.5744
  915SOL    HW2 2745   0.291   1.464   1.405  1.7144  0.7307  0.7316
  916SOL     OW 2746   1.726   2.354   0.997 -0.2087 -0.5507  0.0661
  916SOL    HW1 2747   1.768   2.322   1.083 -0.2840  0.3356  1.0131
  916SOL    HW2 2748   1.641   2.408   1.012  1.9779 -0.5229  0.4989
  917SOL     OW 2749   2.208   2.358   2.411  0.2016  0.3384 -0.0150
  917SOL    HW1 2750   2.112   2.346   2.450 -2.4537 -0.1286 -1.8051
  917SOL    HW2 2751   2.215   2.330   2.312 -1.3677  0.9785  0.8563
  918SOL     OW 2752   1.757   1.431   2.079  0.2250  0.2724 -0.3254
  918SOL    HW1 2753   1.790   1.358   2.016 -1.8351  1.7715  1.2677
  918SOL    HW2 2754   1.837   1.474   2.121 -1.0491  2.1299 -0.0976
  919SOL     OW 2755   0.979   0.391   1.147  0.5104  0.4975 -0.3529
  919SOL    HW1 2756   0.910   0.367   1.222 -1.5645 -0.8062  1.4157
  919SOL    HW2 2757   1.074   0.368   1.177  0.5439  1.0673  3.1567
  920SOL     OW 2758   2.713   0.691   2.103 -0.5760  0.4299 -0.0355
  920SOL    HW1 2759   2.717   0.601   2.054 -1.3376  0.7481  2.6764
  920SOL    HW2 2760   2.768   0.765   2.057 -0.2609 -2.4750  0.0027
  921SOL     OW 2761   2.542   1.330   1.308  0.0032  0.0314 -0.2045
  921SOL    HW1 2762   2.569   1.282   1.222  1.6840 -0.2071 -0.1471
  921SOL    HW2 2763   2.591   1.419   1.319 -1.1815 -0.1907  1.6929
  922SOL     OW 2764   2.755   2.227   0.567  0.0846  0.4479  0.1891
  922SOL    HW1 2765   2.754   2.178   0.478  0.2314 -0.1922  1.9305
  922SOL    HW2 2766   2.660   2.242   0.593  0.0493 -0.0368  0.9948
  923SOL     OW 2767   0.245   2.249   0.368  0.4683 -0.5118 -0.3098
  923SOL    HW1 2768   0.329   2.302   0.354  1.9373 -1.8921 -1.9096
  923SOL    HW2 2769   0.239   2.163   0.307  1.4549  1.8537 -1.6163
  924SOL     OW 2770   1.339   1.314   0.008 -1.2747 -0.3833  0.6580
  924SOL    HW1 2771   1.359   1.335   0.107 -0.7172  3.8347 -2.9423
  924SOL    HW2 2772   1.248   1.272   0.004 -0.6489  1.1130  2.3838
  925SOL     OW 2773   3.014   1.348   0.967 -0.0780  0.6725 -0.0393
  925SOL    HW1 2774   3.038   1.385   1.056 -1.3587 -1.8132  1.2680
  925SOL    HW2 2775   3.006   1.245   0.969  0.1587 -3.3301  1.4009
  926SOL     OW 2776   0.237   0.060   1.307 -0.3565  0.2962 -0.1755
  926SOL    HW1 2777   0.226   0.158   1.320  0.4378 -0.0804  1.1082
  926SOL    HW2 2778   0.327   0.024   1.331 -0.8603  0.2305 -0.9800
  927SOL     OW 2779   0.690   1.702   2.375 -0.2298  0.0058 -0.1436
  927SOL    HW1 2780   0.701   1.787   2.438  1.0791 -0.3485  2.0603
  927SOL    HW2 2781   0.762   1.711   2.302  0.6050  1.7476 -0.1077
  928SOL     OW 2782   0.220   0.866   2.150  0.5568 -0.3560  0.3574
  928SOL    HW1 2783   0.249   0.922   2.230 -2.7912  1.3555 -1.4600
  928SOL    HW2 2784   0.136   0.817   2.178 -0.6687  2.4986 -1.9121
  929SOL     OW 2785   2.479   2.243   0.669  0.6548  0.3696 -0.2935
  929SOL    HW1 2786   2.454   2.338   0.689 -0.5075 -0.9507 -1.4926
  929SOL    HW2 2787   2.413   2.204   0.603 -3.2319 -4.4201  1.7627
  930SOL     OW 2788   1.661   0.227   2.392 -0.8099  0.0289 -0.2039
  930SOL    HW1 2789   1.593   0.250   2.463 -0.4608  0.7615 -0.1661
  930SOL    HW2 2790   1.633   0.267   2.303  0.3716 -3.5665  0.2627
  931SOL     OW 2791   2.559   0.694   2.789  0.2169  0.2247 -0.9556
  931SOL    HW1 2792   2.560   0.600   2.824  2.0362 -1.0334 -1.4079
  931SOL    HW2 2793   2.631   0.754   2.832 -1.3867 -0.7787  3.0218
  932SOL     OW 2794   1.703   0.964   0.825  0.6471 -0.1498 -0.4064
  932SOL    HW1 2795   1.739   0.929   0.911 -1.1541 -0.1524 -1.9553
  932SOL    HW2 2796   1.600   0.965   0.825 -0.0868 -1.8996 -2.3114
  933SOL     OW 2797   2.286   0.537   0.708  0.2448  0.0460  0.2702
  933SOL    HW1 2798   2.296   0.439   0.675 -0.2070 -0.8337 -1.1828
  933SOL    HW2 2799   2.329   0.593   0.635  0.6998 -2.3234  0.1828
  934SOL     OW 2800   2.571   1.447   2.394  0.3225  0.1591  0.3692
  934SOL    HW1 2801   2.666   1.407   2.394  0.1517 -0.8553  2.2142
  934SOL    HW2 2802   2.530   1.423   2.307  1.7898  0.4649 -2.1006
  935SOL     OW 2803   3.094   1.558   1.274  0.6553 -0.6478 -0.2142
  935SOL    HW1 2804   3.095   1.608   1.367  1.6728 -2.7943 -0.0227
  935SOL    HW2 2805   3.001   1.538   1.249 -0.7583 -0.6675  1.3014
  936SOL     OW 2806   0.086   3.067   0.160  0.2497  0.9426  0.1612
  936SOL    HW1 2807   0.089   2.971   0.188 -2.1665  1.0685  1.5284
  936SOL    HW2 2808   0.172   3.120   0.182 -0.8773 -0.4637  0.9196
  937SOL     OW 2809   2.663   2.749   1.660 -0.1576  0.0069 -0.4205
  937SOL    HW1 2810   2.742   2.731   1.721 -0.7782  0.1029  0.8748
  937SOL    HW2 2811   2.619   2.665   1.623 -1.4065 -2.9784 -1.6719
  938SOL     OW 2812   2.295   2.271   2.935 -0.0927 -0.0100  0.0743
  938SOL    HW1 2813   2.285   2.190   2.998  1.2682  0.4629 -0.9108
  938SOL    HW2 2814   2.313   2.242   2.840  0.3692  3.9857  1.1104
  939SOL     OW 2815   0.818   0.446   1.430 -0.1574  0.2058  0.1399
  939SOL    HW1 2816   0.907   0.499   1.438 -1.4309 -2.7860  0.0255
  939SOL    HW2 2817   0.837   0.350   1.449 -3.4088  0.5639 -0.1778
  940SOL     OW 2818   2.241   2.890   3.075 -0.2808  0.3918 -0.4790
  940SOL    HW1 2819   2.242   2.889   2.975  0.4709  1.6325  4.6128
  940SOL    HW2 2820   2.311   2.960   3.119 -0.3029  1.0359  0.4840
  941SOL     OW 2821   2.382   3.066   2.265  0.1122  0.1330  0.1761
  941SOL    HW1 2822   2.395   3.145   2.330  2.4675  0.4330  1.5866
  941SOL    HW2 2823   2.298   3.010   2.280  2.2763  1.3475  0.0537
  942SOL     OW 2824   1.737   3.050   1.292 -0.1659 -0.0220 -0.2978
  942SOL    HW1 2825   1.736   2.987   1.211 -1.4072 -1.2355 -0.8646
  942SOL    HW2 2826   1.702   3.139   1.272 -1.0363 -0.2580  0.7933
  943SOL     OW 2827   1.523   1.529   2.698  0.3752  0.0642 -0.2907
  943SOL    HW1 2828   1.578   1.516   2.614 -1.2128  0.0475 -0.8170
  943SOL    HW2 2829   1.427   1.510   2.688  2.2036  0.6430 -2.2558
  944SOL     OW 2830   2.643   0.690   1.318  0.9469  0.7715 -0.4057
  944SOL    HW1 2831   2.679   0.645   1.231 -1.4487 -3.0115  1.2191
  944SOL    HW2 2832   2.552   0.738   1.296 -0.7736 -0.2901 -2.5611
  945SOL     OW 2833   2.634   3.004   2.794  0.2561 -0.6867  0.0458
  945SOL    HW1 2834   2.625   3.066   2.715 -1.4738  0.8536 -1.3319
  945SOL    HW2 2835   2.563   2.929   2.788  0.6344 -1.6030 -1.5990
  946SOL     OW 2836   0.002   1.687   1.495 -0.1920 -0.2145 -0.3078
  946SOL    HW1 2837  -0.047   1.778   1.473  0.3232 -0.4863 -3.3172
  946SOL    HW2 2838   0.074   1.696   1.564  3.6914  1.3754 -0.9457
  947SOL     OW 2839   0.495   0.411   2.771 -0.9213 -0.4541 -0.4752
  947SOL    HW1 2840   0.471   0.325   2.814  1.3439 -2.2609 -1.2354
  947SOL    HW2 2841   0.568   0.394   2.708 -2.1802  0.1259 -0.4252
  948SOL     OW 2842   1.863   1.502   1.091 -0.3635 -0.5208  0.9391
  948SOL    HW1 2843   1.902   1.478   1.181  1.8141  0.0360  1.6649
  948SOL    HW2 2844   1.886   1.424   1.026 -0.9005  2.3344  1.5519
  949SOL     OW 2845   0.649   1.478   3.035 -0.4797 -0.0031  0.0446
  949SOL    HW1 2846   0.636   1.566   2.985 -1.8671 -0.4971  0.7674
  949SOL    HW2 2847   0.560   1.432   3.051 -0.9214  2.0355 -1.0279
  950SOL     OW 2848   0.634   2.698   1.375  0.5821  0.2288  0.3490
  950SOL    HW1 2849   0.542   2.724   1.343 -0.1398 -0.4448 -0.2041
  950SOL    HW2 2850   0.702   2.769   1.352 -1.6920  0.9896 -3.2252
  951SOL     OW 2851   0.728   2.168   2.400 -0.7961 -0.0270 -0.1908
  951SOL    HW1 2852   0.655   2.237   2.393  0.7337 -0.9686  0.6502
  951SOL    HW2 2853   0.806   2.192   2.458 -0.2592  3.4740 -0.4401
  952SOL     OW 2854   0.270   1.180   0.414 -0.0982  0.2174  0.4008
  952SOL    HW1 2855   0.356   1.151   0.459  1.3972 -1.3737 -0.6433
  952SOL    HW2 2856   0.281   1.263   0.359  0.6545 -0.2641 -0.5379
  953SOL     OW 2857   2.174   1.674   0.046 -0.1739 -0.1620 -0.0868
  953SOL    HW1 2858   2.074   1.680   0.079  0.4601 -0.4420  1.5555
  953SOL    HW2 2859   2.187   1.589  -0.012  0.5279 -0.6014  1.8357
  954SOL     OW 2860   1.381   0.483   0.470  0.6248  0.2036  0.4958
  954SOL    HW1 2861   1.356   0.583   0.444  0.8738 -0.0607  1.7360
  954SOL    HW2 2862   1.471   0.464   0.423  0.9576 -0.0502 -0.8219
  955SOL     OW 2863   1.004   1.604   0.203 -0.1745 -0.1344  0.5541
  955SOL    HW1 2864   0.946   1.530   0.170 -0.2910 -1.4776 -2.0902
  955SOL    HW2 2865   0.983   1.628   0.299  0.2050  0.7699  0.5385
  956SOL     OW 2866   2.670   0.560   2.354 -0.4830  0.1437  0.0420
  956SOL    HW1 2867   2.703   0.598   2.269  1.6225  2.0428  1.1488
  956SOL    HW2 2868   2.721   0.480   2.390  1.2288  1.5256  1.2061
  957SOL     OW 2869   1.872   1.814   2.001 -0.3866  0.2777 -0.3635
  957SOL    HW1 2870   1.803   1.788   1.930  0.1679  0.6936 -0.2075
  957SOL    HW2 2871   1.933   1.736   2.026  2.3153  2.6794  0.8706
  958SOL     OW 2872   1.952   0.812   1.214 -0.6267  0.0480  0.1844
  958SOL    HW1 2873   1.957   0.914   1.236  0.7380  0.3963  1.6907
  958SOL    HW2 2874   1.922   0.754   1.296  0.2401 -0.7036  2.0960
  959SOL     OW 2875   1.680   1.942   2.209 -0.4571 -0.5186 -0.1824
  959SOL    HW1 2876   1.747   1.892   2.148  0.5942  1.2415 -1.7968
  959SOL    HW2 2877   1.689   2.039   2.186  0.1582  1.0263 -1.2576
  960SOL     OW 2878   0.833   1.316   2.623  0.7007  0.2261 -0.5958
  960SOL    HW1 2879   0.767   1.381   2.585  1.0148 -2.8026  0.2110
  960SOL    HW2 2880   0.817   1.304   2.724 -0.7459  1.9331 -0.0001
  961SOL     OW 2881   2.867   1.368   0.004 -0.3770 -0.3122  0.0860
  961SOL    HW1 2882   2.847   1.376  -0.098 -3.2771  3.6703  0.6307
  961SOL    HW2 2883   2.840   1.459   0.047 -1.2584  2.8249  0.2924
  962SOL     OW 2884   1.136   1.741   3.089 -0.0758 -0.1983 -0.3285
  962SOL    HW1 2885   1.086   1.705   3.167 -0.1115  0.0504 -0.6979
  962SOL    HW2 2886   1.193   1.669   3.042 -0.8266 -1.9862 -0.4096
  963SOL     OW 2887   2.877   1.698   3.008  0.2242  0.0508  0.3012
  963SOL    HW1 2888   2.858   1.662   3.105  0.3264 -4.7754  0.0343
  963SOL    HW2 2889   2.957   1.655   2.963  3.0652 -0.6978 -2.2802
  964SOL     OW 2890   0.588   2.362   2.092  0.6890  0.1216  0.7162
  964SOL    HW1 2891   0.528   2.305   2.150  0.5442  1.5907 -1.0865
  964SOL    HW2 2892   0.574   2.333   1.996  0.9245 -1.3120 -0.1880
  965SOL     OW 2893   1.316   1.891   1.588  0.3164 -0.6862  0.3429
  965SOL    HW1 2894   1.329   1.963   1.516 -2.0545 -1.4223 -0.1634
  965SOL    HW2 2895   1.343   1.800   1.562  3.0265 -3.1108  0.8980
  966SOL     OW 2896   0.195   1.627   0.378  0.6607  0.5938  0.1092
  966SOL    HW1 2897   0.142   1.604   0.462 -0.7604 -0.5186  1.0571
  966SOL    HW2 2898   0.227   1.547   0.322 -2.3124  1.3913 -0.7684
  967SOL     OW 2899   1.868   2.556   2.491  0.0462  0.4127  0.4840
  967SOL    HW1 2900   1.944   2.614   2.533  0.6734 -1.2625 -1.7673
  967SOL    HW2 2901   1.798   2.537   2.561 -2.2722 -0.4368  1.1510
  968SOL     OW 2902   1.565   1.229   2.982  0.0840  0.0237 -0.1388
  968SOL    HW1 2903   1.534   1.183   2.898  1.1508  0.2987  2.3215
  968SOL    HW2 2904   1.484   1.260   3.044 -1.9899 -0.1332 -0.2735
  969SOL     OW 2905   2.995   1.132   2.377  0.1710  0.0636 -0.1745
  969SOL    HW1 2906   3.072   1.194   2.348 -2.5002 -1.3896  0.9507
  969SOL    HW2 2907   2.988   1.137   2.478 -0.0504  1.2226  0.0013
  970SOL     OW 2908   2.590   0.204   0.421  0.2155  0.3802 -0.4354
  970SOL    HW1 2909   2.515   0.141   0.451 -0.6625  1.7046 -1.5190
  970SOL    HW2 2910   2.641   0.163   0.343 -0.2007  0.1163  0.9605
  971SOL     OW 2911   1.924   2.074   0.789  0.2190 -0.1925 -0.1203
  971SOL    HW1 2912   1.928   2.025   0.877  0.2125 -2.6564  1.1650
  971SOL    HW2 2913   1.829   2.107   0.777  1.3488  0.7888 -0.2437
  972SOL     OW 2914   0.336   2.057   2.419  0.1784 -0.0706 -0.1075
  972SOL    HW1 2915   0.351   2.118   2.501  0.3142  2.1804  0.1447
  972SOL    HW2 2916   0.350   1.961   2.458  2.6881  1.6072 -3.1256
  973SOL     OW 2917   0.623   0.218   0.544  0.5147  0.2709 -0.2831
  973SOL    HW1 2918   0.627   0.118   0.563  0.7611  0.4439  0.4800
  973SOL    HW2 2919   0.647   0.271   0.627 -0.4139 -3.1391 -1.6395
  974SOL     OW 2920   2.665   0.363   1.678  0.3065 -0.8435  0.4963
  974SOL    HW1 2921   2.735   0.394   1.611  0.2176  2.2228  1.4972
  974SOL    HW2 2922   2.571   0.374   1.638  2.0699  0.8085 -1.7154
  975SOL     OW 2923   0.710   3.055   1.048 -0.3131  0.1949  0.2389
  975SOL    HW1 2924   0.691   2.957   1.032  1.7008  0.2015 -0.0607
  975SOL    HW2 2925   0.644   3.108   0.993  0.7641 -3.0459 -1.5970
  976SOL     OW 2926   0.608   1.792   1.181 -0.1523  0.3090  0.3230
  976SOL    HW1 2927   0.600   1.824   1.082  0.1436  0.3825 -2.6274
  976SOL    HW2 2928   0.518   1.779   1.223  1.3663 -0.1476  0.9053
  977SOL     OW 2929   1.436   2.117   0.422 -0.2227  0.3921 -0.0092
  977SOL    HW1 2930   1.505   2.139   0.351  1.5734  0.1348 -0.5351
  977SOL    HW2 2931   1.426   2.017   0.442 -2.0098 -2.3550  1.3748
  978SOL     OW 2932   0.765   1.134   0.175  0.0855  0.0309 -0.1547
  978SOL    HW1 2933   0.817   1.080   0.107  0.2256  0.7095  0.3078
  978SOL    HW2 2934   0.759   1.079   0.263 -0.1321 -1.3315 -1.5320
  979SOL     OW 2935   1.801   1.000   0.251  0.0246 -0.2275 -0.9761
  979SOL    HW1 2936   1.752   0.997   0.165  0.6824 -0.2777 -1.1408
  979SOL    HW2 2937   1.749   1.049   0.323  1.8283  0.6199  1.3279
  980SOL     OW 2938   0.488   1.594   1.958 -0.1663  0.0349  0.0291
  980SOL    HW1 2939   0.512   1.587   1.861  0.6879  1.5449 -0.9701
  980SOL    HW2 2940   0.412   1.660   1.977  1.0401  0.7597  0.9079
  981SOL     OW 2941   2.218   1.379   2.459  0.3524  0.4294  0.2747
  981SOL    HW1 2942   2.130   1.338   2.429  1.8442  1.3024  0.0909
  981SOL    HW2 2943   2.279   1.309   2.492  0.2700 -0.3130  0.0133
  982SOL     OW 2944   0.186   2.142   1.884 -0.0938 -0.7411 -0.5464
  982SOL    HW1 2945   0.216   2.204   1.805  1.3526  1.6900  0.6247
  982SOL    HW2 2946   0.154   2.198   1.962 -2.1764  0.9893 -1.4399
  983SOL     OW 2947   1.668   2.532   2.047  0.1335  0.2922 -0.5247
  983SOL    HW1 2948   1.691   2.547   1.949  2.8826  1.5919  0.9397
  983SOL    HW2 2949   1.603   2.453   2.052 -0.8831  1.4966 -0.2365
  984SOL     OW 2950   2.852   0.182   2.920 -0.1542  0.2152  0.4732
  984SOL    HW1 2951   2.818   0.192   2.826  0.6705 -1.9782 -4.7209
  984SOL    HW2 2952   2.896   0.093   2.936  0.5360  1.3527  0.8929
  985SOL     OW 2953   0.907   1.306   1.764  0.2433  0.2012 -0.6066
  985SOL    HW1 2954   0.885   1.403   1.733 -1.5473  0.3126 -1.4971
  985SOL    HW2 2955   0.967   1.264   1.690 -0.0911 -0.0200 -1.2273
  986SOL     OW 2956   1.601   0.473   0.306 -0.2718  0.0398 -0.0611
  986SOL    HW1 2957   1.639   0.556   0.351 -3.5671  1.0559  3.7854
  986SOL    HW2 2958   1.676   0.425   0.254  0.0651  1.3091  1.0472
  987SOL     OW 2959   0.323   2.247   2.619 -0.3678  0.3265  0.3294
  987SOL    HW1 2960   0.238   2.272   2.669  2.9529  1.7633  0.0501
  987SOL    HW2 2961   0.400   2.209   2.679  2.4289 -0.6777 -2.7944
  988SOL     OW 2962   2.884   0.034   1.563  0.0138  0.1566  0.2083
  988SOL    HW1 2963   2.982   0.022   1.530 -2.0618  1.2912  1.3969
  988SOL    HW2 2964   2.822  -0.036   1.518 -1.5101 -2.0999  1.1609
  989SOL     OW 2965   2.169   0.075   1.204 -0.4993 -0.2480  0.4350
  989SOL    HW1 2966   2.101   0.011   1.164  0.1044  1.4861  0.7756
  989SOL    HW2 2967   2.200   0.127   1.117  0.2851  2.9352 -1.1464
  990SOL     OW 2968   2.825   0.816   0.414 -0.6822  0.2308  0.6252
  990SOL    HW1 2969   2.874   0.738   0.363  0.2644 -0.3483  0.9956
  990SOL    HW2 2970   2.888   0.866   0.478  0.2545 -0.1029 -0.3108
  991SOL     OW 2971   0.310   1.434   0.829  0.1151  0.2270  0.6997
  991SOL    HW1 2972   0.231   1.375   0.791  0.5411  0.2329 -0.2563
  991SOL    HW2 2973   0.275   1.487   0.903 -1.9937 -1.4285 -0.7132
  992SOL     OW 2974   1.622   1.628   1.417  0.2264  0.3856  0.2117
  992SOL    HW1 2975   1.670   1.714   1.393 -0.7326 -2.1071 -1.1057
  992SOL    HW2 2976   1.531   1.647   1.458 -1.3976 -0.4400 -1.5696
  993SOL     OW 2977   2.843   2.443   0.712 -0.1160  0.4763  0.2580
  993SOL    HW1 2978   2.827   2.349   0.673 -1.2151  0.8027 -2.6608
  993SOL    HW2 2979   2.762   2.505   0.704 -0.4581 -1.0052  3.7586
  994SOL     OW 2980   2.945   1.926   1.387  0.3409  0.0181 -0.4609
  994SOL    HW1 2981   2.853   1.916   1.430  0.2469 -0.2981  0.3401
  994SOL    HW2 2982   2.999   2.002   1.431  4.4827  2.9052  1.3688
  995SOL     OW 2983   2.235   0.981   2.978 -0.1661 -0.4903  0.0899
  995SOL    HW1 2984   2.258   1.066   2.927  1.9635  0.3444 -0.7529
  995SOL    HW2 2985   2.132   0.978   2.979 -1.5319 -0.4425 -0.3445
  996SOL     OW 2986   1.893   2.519   0.837  0.1145  0.2337  0.5225
  996SOL    HW1 2987   1.841   2.591   0.786 -1.9296 -1.6549 -1.6313
  996SOL    HW2 2988   1.837   2.497   0.922 -0.8553  0.6859 -1.3633
  997SOL     OW 2989   1.155   1.590   1.798  0.1091  0.7427  0.7054
  997SOL    HW1 2990   1.137   1.683   1.756 -2.3068  1.2242  0.8563
  997SOL    HW2 2991   1.077   1.568   1.865 -1.5288  1.7020 -2.1337
  998SOL     OW 2992   2.871   2.393   0.364 -0.2053  0.0965 -0.1138
  998SOL    HW1 2993   2.903   2.320   0.304 -0.1932 -0.9435  1.9845
  998SOL    HW2 2994   2.887   2.381   0.460  0.0485  0.9948 -1.2186
  999SOL     OW 2995   0.726   2.945   0.328  0.2308 -0.7937 -0.5992
  999SOL    HW1 2996   0.714   2.881   0.251  1.9737  1.3451 -0.4362
  999SOL    HW2 2997   0.797   2.906   0.394  2.6296  0.0408  0.4491
 1000SOL     OW 2998   0.861   0.371   3.029 -0.1569 -0.5143 -0.0338
 1000SOL    HW1 2999   0.853   0.278   2.990 -1.3500 -2.5813 -4.0269
 1000SOL    HW2 3000   0.929   0.433   2.981 -0.8868 -1.2062 -1.5886
   3.09554   3.09554   3.09554
