1000 SPC/Fw water molecules
3000
    1SOL  OW       1   1.275   2.583   0.382 -0.3824  0.1331  0.0911
    1SOL  HW1      2   1.200   2.528   0.341 -1.1752  2.7281 -0.1719
    1SOL  HW2      3   1.325   2.531   0.450  2.2878 -0.7929  1.1613
    2SOL  OW       4   1.262   0.896   1.727 -0.2201  0.0125 -0.2099
    2SOL  HW1      5   1.170   0.857   1.707 -0.9284  1.2490 -0.4478
    2SOL  HW2      6   1.329   0.821   1.727 -0.1824  0.0493 -1.2322
    3SOL  OW       7   0.915   2.229   2.814 -0.6147 -0.1778 -0.1188
    3SOL  HW1      8   0.971   2.305   2.856  4.1817  2.9503  1.3339
    3SOL  HW2      9   0.825   2.269   2.791 -0.3415 -0.5715  0.0146
    4SOL  OW      10   1.928   1.527   2.639 -0.1061 -0.3496  0.2729
    4SOL  HW1     11   1.895   1.434   2.670 -1.4258 -0.2871  1.1543
    4SOL  HW2     12   1.997   1.566   2.703 -1.2067  1.8623  1.2066
    5SOL  OW      13   0.916   1.330   2.225  0.3512  0.1804 -0.1299
    5SOL  HW1     14   0.844   1.340   2.299  0.2684 -1.5994  2.7163
    5SOL  HW2     15   0.870   1.299   2.138  1.2499  0.5929 -1.6342
    6SOL  OW      16   2.705   0.917   2.073  0.4021  0.3597  1.0025
    6SOL  HW1     17   2.758   0.832   2.055  0.5334 -1.1308 -2.2493
    6SOL  HW2     18   2.769   0.998   2.087 -1.2513 -2.9735  1.5308
    7SOL  OW      19   0.407   1.008   1.302  0.5630  0.5007 -0.0482
    7SOL  HW1     20   0.361   0.975   1.216  1.3864 -0.5138  1.7405
    7SOL  HW2     21   0.341   1.015   1.376 -0.7800 -2.3013 -0.0664
    8SOL  OW      22   1.781   2.865   2.472  0.1755  0.0064 -0.2256
    8SOL  HW1     23   1.762   2.955   2.439 -0.3393  0.3130 -0.0308
    8SOL  HW2     24   1.693   2.820   2.498  0.8620  4.4632  2.3169
    9SOL  OW      25   0.423   2.694   0.967 -0.2289 -0.3535 -0.0716
    9SOL  HW1     26   0.378   2.642   0.893  2.8729 -0.6493 -1.3591
    9SOL  HW2     27   0.368   2.771   0.987 -2.9878  1.3114 -1.9819
   10SOL  OW      28   0.275   1.815   2.669  0.1393 -0.2723  0.3760
   10SOL  HW1     29   0.235   1.912   2.663 -1.9218  0.3340 -1.2847
   10SOL  HW2     30   0.355   1.808   2.733 -1.2457  1.2286  0.7847
   11SOL  OW      31   0.500   2.289   0.052 -0.2357  0.8357 -0.5733
   11SOL  HW1     32   0.408   2.340   0.069  1.0911 -0.0304  1.4805
   11SOL  HW2     33   0.498   2.262   3.052  3.1783 -3.0851  0.9183
   12SOL  OW      34   2.616   0.321   0.661 -0.8463 -0.6344 -0.1477
   12SOL  HW1     35   2.517   0.301   0.657 -0.8605  1.4169  0.5783
   12SOL  HW2     36   2.663   0.281   0.578  0.7553 -0.0854 -1.4524
   13SOL  OW      37   0.483   0.014   2.793  0.0337  0.3791 -0.2020
   13SOL  HW1     38   0.525   0.079   2.854 -2.9954  1.7620 -1.0257
   13SOL  HW2     39   0.547   3.081   2.717  0.6812  0.2889 -1.5130
   14SOL  OW      40   1.828   0.125   0.032 -0.1437  0.1803 -0.6146
   14SOL  HW1     41   1.747   0.168   0.075 -0.8443 -1.9364  0.7080
   14SOL  HW2     42   1.847   0.169   3.035 -0.2627  1.5926  2.8782
   15SOL  OW      43   1.053   1.701   2.523 -0.1840  0.5522 -0.4313
   15SOL  HW1     44   1.102   1.609   2.523  2.2498  0.7303 -0.8574
   15SOL  HW2     45   1.004   1.721   2.436 -0.3910  1.7992 -0.9371
   16SOL  OW      46   1.916   1.208   2.935  0.2189  0.5492  0.1506
   16SOL  HW1     47   2.018   1.238   2.936  0.3688  0.6092 -0.7769
   16SOL  HW2     48   1.859   1.252   3.007 -0.1175 -0.2764 -0.5797
   17SOL  OW      49   3.015   2.177   1.797 -0.3442 -0.1588  0.0334
   17SOL  HW1     50   0.016   2.196   1.777 -0.8627  0.1053  0.9627
   17SOL  HW2     51   3.002   2.186   1.899 -1.6984  1.0013  0.4006
   18SOL  OW      52   2.024   0.890   1.119 -0.2191  0.6308 -0.8871
   18SOL  HW1     53   2.043   0.916   1.213  0.7798 -0.7343  0.6763
   18SOL  HW2     54   2.003   0.968   1.057  0.7406 -0.8459  0.4993
   19SOL  OW      55   0.488   1.585   1.906 -0.1452 -0.1296 -0.0225
   19SOL  HW1     56   0.583   1.552   1.918  1.0454  1.1416  0.6763
   19SOL  HW2     57   0.433   1.572   1.993  0.4809 -0.7845  1.3942
   20SOL  OW      58   1.782   2.235   2.704  0.7759  0.2419  0.0951
   20SOL  HW1     59   1.786   2.281   2.795  1.0923 -1.6367 -1.7861
   20SOL  HW2     60   1.702   2.258   2.650  0.9424 -1.0625 -1.2863
   21SOL  OW      61   2.209   2.235   0.566 -0.6431 -0.4361  0.6105
   21SOL  HW1     62   2.117   2.234   0.609  0.0890 -2.7104 -0.4414
   21SOL  HW2     63   2.202   2.250   0.462 -0.5342 -2.6779 -1.4926
   22SOL  OW      64   2.323   1.681   1.061  0.6458 -0.4351  0.4701
   22SOL  HW1     65   2.304   1.758   0.995 -0.1889 -1.5503  2.1666
   22SOL  HW2     66   2.411   1.633   1.048  1.9093 -0.0968  1.7409
   23SOL  OW      67   2.567   0.463   1.425 -0.7019  0.0402 -0.1782
   23SOL  HW1     68   2.607   0.377   1.392  0.2109  1.9322 -1.8994
   23SOL  HW2     69   2.482   0.484   1.369 -1.1800  1.7992 -2.4532
   24SOL  OW      70   1.214   1.475   1.373  0.4742 -0.5038 -0.3628
   24SOL  HW1     71   1.291   1.418   1.343  1.5002 -0.0404  0.5003
   24SOL  HW2     72   1.152   1.511   1.304  1.3967  0.2918  0.4231
   25SOL  OW      73   1.515   2.474   2.175 -0.5802  0.0933 -0.3887
   25SOL  HW1     74   1.504   2.394   2.112 -0.2695 -0.6046  1.1781
   25SOL  HW2     75   1.562   2.550   2.128 -0.1437 -0.3005 -3.6215
   26SOL  OW      76   2.915   2.890   0.193  0.6680 -0.2978  0.4538
   26SOL  HW1     77   2.940   2.841   0.106 -0.4224 -0.7479  0.8703
   26SOL  HW2     78   2.815   2.895   0.200  0.8634 -0.0933 -0.9908
   27SOL  OW      79   1.325   1.010   0.379  0.3951  0.3792  0.1740
   27SOL  HW1     80   1.427   0.993   0.352 -0.4075 -1.1191 -0.7766
   27SOL  HW2     81   1.299   0.950   0.458 -0.3060  0.5770 -0.0009
   28SOL  OW      82   2.163   2.474   1.143 -0.0559 -0.2350 -0.2328
   28SOL  HW1     83   2.059   2.477   1.159 -1.5877 -0.1381 -2.7112
   28SOL  HW2     84   2.201   2.564   1.155 -2.7533 -0.0957  0.3870
   29SOL  OW      85   2.275   2.707   2.313 -0.1309  0.5704  0.2811
   29SOL  HW1     86   2.282   2.755   2.220  0.6788 -0.2491  0.2190
   29SOL  HW2     87   2.341   2.629   2.314  0.9875  0.1600  0.6348
   30SOL  OW      88   1.350   0.111   1.620  0.6127 -0.1845 -0.1885
   30SOL  HW1     89   1.402   0.195   1.581 -0.2999  2.8142 -0.0643
   30SOL  HW2     90   1.408   0.076   1.694  2.2816  1.6232  0.4760
   31SOL  OW      91   2.520   1.575   2.321 -0.4068 -0.1936  0.3916
   31SOL  HW1     92   2.528   1.579   2.219 -1.6097 -1.2856  0.0015
   31SOL  HW2     93   2.427   1.565   2.357 -1.3309 -0.5677  1.0602
   32SOL  OW      94   0.554   1.997   3.000  0.1267 -0.1209  0.1958
   32SOL  HW1     95   0.543   1.913   2.940 -0.7199  1.8124  0.1875
   32SOL  HW2     96   0.655   2.012   3.023 -0.2505 -0.2908 -2.5000
   33SOL  OW      97   0.060   0.887   2.709 -0.0195  0.4929 -0.1596
   33SOL  HW1     98   3.086   0.816   2.681 -1.3354 -0.1912  2.7184
   33SOL  HW2     99   0.110   0.859   2.791  0.8556  0.3551  0.3614
   34SOL  OW     100   2.527   0.156   0.037  0.4781  0.2373  0.0086
   34SOL  HW1    101   2.625   0.126   0.040  1.2075 -1.1314  2.2358
   34SOL  HW2    102   2.498   0.136   3.040 -2.7396 -1.4221 -0.4966
   35SOL  OW     103   2.748   2.240   1.506 -0.0393  0.1273  0.0370
   35SOL  HW1    104   2.711   2.286   1.417 -1.0748 -0.0107 -1.6425
   35SOL  HW2    105   2.846   2.255   1.515  1.3317 -0.0660 -0.0023
   36SOL  OW     106   1.812   0.116   2.532 -0.5892 -0.1090 -0.2585
   36SOL  HW1    107   1.792   0.121   2.431 -0.1530 -1.5306  0.9191
   36SOL  HW2    108   1.728   0.082   2.575  1.6034 -1.6187 -1.6604
   37SOL  OW     109   2.149   2.901   3.018  0.2033 -0.0152  0.1407
   37SOL  HW1    110   2.169   2.936   0.016 -0.4666 -0.3669  0.4130
   37SOL  HW2    111   2.233   2.913   2.958  0.5858 -1.4941  1.1553
   38SOL  OW     112   2.889   0.110   0.241  0.1189  0.5075  0.3933
   38SOL  HW1    113   2.986   0.076   0.258  0.6220  1.2378 -0.0274
   38SOL  HW2    114   2.853   0.063   0.155  0.3414 -1.9405  2.4838
   39SOL  OW     115   1.563   2.056   0.152  0.0911  0.8933  0.2580
   39SOL  HW1    116   1.548   2.147   0.193  0.2133  0.5319  0.3054
   39SOL  HW2    117   1.633   2.005   0.202  1.1324 -0.4791 -1.1299
   40SOL  OW     118   0.695   1.702   2.147  0.0963  0.5777 -0.0268
   40SOL  HW1    119   0.609   1.673   2.194 -0.4633 -1.6878  0.1483
   40SOL  HW2    120   0.721   1.633   2.072 -0.8784 -2.7849 -1.4783
   41SOL  OW     121   1.388   0.210   2.734 -0.4136 -0.3530 -0.3985
   41SOL  HW1    122   1.330   0.218   2.650 -2.5959 -1.5762  1.0493
   41SOL  HW2    123   1.407   0.299   2.783 -2.4773  1.3473  1.6490
   42SOL  OW     124   1.605   0.120   1.217  0.4528  0.0579  0.7766
   42SOL  HW1    125   1.664   0.102   1.295  0.3470 -0.1282  1.0113
   42SOL  HW2    126   1.608   0.213   1.191 -0.1617  0.4696 -0.5751
   43SOL  OW     127   1.338   0.122   1.333  0.2827  0.3700 -0.1502
   43SOL  HW1    128   1.348   0.138   1.433  3.0723  0.2217 -1.1890
   43SOL  HW2    129   1.429   0.120   1.282 -0.5635  1.6532  0.2708
   44SOL  OW     130   2.998   1.228   0.300  0.3076 -0.1104 -0.9187
   44SOL  HW1    131   2.965   1.230   0.203 -1.9657 -1.9913 -0.2866
   44SOL  HW2    132   3.003   1.130   0.334  2.9148 -0.4876  0.3305
   45SOL  OW     133   0.847   1.283   1.966  0.3347  0.4125 -0.2967
   45SOL  HW1    134   0.938   1.324   1.950 -0.1605  1.1098 -0.0681
   45SOL  HW2    135   0.842   1.186   1.937 -0.0650  0.3573  0.7413
   46SOL  OW     136   2.744   2.490   1.726 -0.0775  0.2552 -0.3310
   46SOL  HW1    137   2.724   2.424   1.651  1.2647  0.2186 -1.6961
   46SOL  HW2    138   2.663   2.496   1.787  0.9281  0.8563  1.0347
   47SOL  OW     139   0.093   1.720   1.375 -0.0811 -0.0061 -0.2063
   47SOL  HW1    140   0.117   1.700   1.277 -2.9436 -0.5196  3.7627
   47SOL  HW2    141   0.169   1.778   1.418  0.7811  0.3671  2.4712
   48SOL  OW     142   0.186   2.684   3.084  0.0109  0.4638  0.5973
   48SOL  HW1    143   0.200   2.760   0.056 -0.3944  1.7597 -1.8601
   48SOL  HW2    144   0.137   2.712   3.000  2.6100  1.3932 -0.6085
   49SOL  OW     145   2.908   1.951   1.688 -0.5281 -0.0470  0.0527
   49SOL  HW1    146   2.995   1.904   1.673 -0.2641  0.9311 -1.6541
   49SOL  HW2    147   2.916   2.045   1.732  1.3358  1.6885 -0.3694
   50SOL  OW     148   1.763   2.660   1.048  0.1410  0.2458 -0.3644
   50SOL  HW1    149   1.839   2.665   0.980 -0.2702  2.0111  0.4428
   50SOL  HW2    150   1.790   2.644   1.146 -1.1040  0.5185 -2.9280
   51SOL  OW     151   0.851   2.993   0.802  0.1110 -0.4609 -0.7368
   51SOL  HW1    152   0.822   2.935   0.879  2.0363  1.2004 -3.4387
   51SOL  HW2    153   0.785   2.977   0.722  3.3393 -0.1770 -0.9748
   52SOL  OW     154   2.835   0.821   0.556  0.1764 -0.2707  0.5132
   52SOL  HW1    155   2.879   0.872   0.633  1.9545  0.2314  0.2181
   52SOL  HW2    156   2.781   0.741   0.594  2.7628 -1.2699 -0.4578
   53SOL  OW     157   0.773   2.659   0.033  0.2667 -0.3642  0.5065
   53SOL  HW1    158   0.871   2.640   0.046 -1.6266 -2.2479  2.3815
   53SOL  HW2    159   0.758   2.759   0.033 -1.2807  2.1027 -0.1919
   54SOL  OW     160   2.040   0.296   2.278 -0.5395 -0.6890 -0.2606
   54SOL  HW1    161   2.106   0.320   2.354  2.0882 -0.1657 -2.7642
   54SOL  HW2    162   2.016   0.380   2.222  1.0962  2.0189 -0.3955
   55SOL  OW     163   2.136   0.331   3.095 -0.2271  0.0206  0.5192
   55SOL  HW1    164   2.097   0.254   0.061 -1.2044 -1.7276  1.5644
   55SOL  HW2    165   2.169   0.290   3.008  1.1426 -0.6969 -1.6558
   56SOL  OW     166   0.044   0.153   1.744  0.1497  0.0384  0.1400
   56SOL  HW1    167   0.109   0.117   1.677 -0.8956 -0.1256  2.0785
   56SOL  HW2    168   3.059   0.087   1.755  2.1039  0.5443 -0.3032
   57SOL  OW     169   1.756   1.444   1.894  0.0688  0.5847  0.2687
   57SOL  HW1    170   1.729   1.355   1.855  1.1207 -0.1902 -0.1885
   57SOL  HW2    171   1.853   1.456   1.888 -3.0490 -1.2189  0.5773
   58SOL  OW     172   0.753   1.542   1.942  0.1769  0.3765  0.2380
   58SOL  HW1    173   0.816   1.594   1.874 -0.4486  3.1207 -0.0525
   58SOL  HW2    174   0.772   1.441   1.945 -0.0330  0.6984  0.8821
   59SOL  OW     175   0.358   0.018   2.014  0.2105  0.1017  0.1242
   59SOL  HW1    176   0.307   3.066   2.084  1.1852  2.8314  2.2628
   59SOL  HW2    177   0.303   0.091   1.966 -0.0052  0.8463 -1.6939
   60SOL  OW     178   1.899   0.514   3.089 -0.0116 -0.0919  0.3642
   60SOL  HW1    179   1.980   0.448   0.003  2.7319 -0.3187 -2.0110
   60SOL  HW2    180   1.809   0.469   3.073  2.9015  0.5632 -0.9522
   61SOL  OW     181   1.298   2.306   2.997 -0.4129  0.2157  0.5180
   61SOL  HW1    182   1.248   2.217   3.008 -0.4571  0.2120 -0.2930
   61SOL  HW2    183   1.386   2.300   3.050  0.7096  3.5218  0.2046
   62SOL  OW     184   1.976   1.825   0.003 -0.2614 -0.5214  0.6515
   62SOL  HW1    185   1.939   1.839   3.003  0.2191 -0.2273  0.7766
   62SOL  HW2    186   1.936   1.896   0.064 -1.3811  0.1336  1.3949
   63SOL  OW     187   0.029   1.664   0.198  0.1421  0.5984 -0.2758
   63SOL  HW1    188   3.033   1.702   0.203  2.9351  3.5096 -2.0657
   63SOL  HW2    189   0.082   1.718   0.131 -0.7980 -1.5953  1.7987
   64SOL  OW     190   2.442   1.142   0.155 -0.3254 -0.2986  0.1533
   64SOL  HW1    191   2.364   1.189   0.110 -2.3325  0.7421 -0.4057
   64SOL  HW2    192   2.442   1.155   0.257  0.4664 -0.0119  0.8838
   65SOL  OW     193   3.089   2.822   1.642 -0.6450 -0.0551 -0.8406
   65SOL  HW1    194   3.080   2.722   1.652 -0.6630  1.5250  1.0015
   65SOL  HW2    195   0.090   2.842   1.667  2.9121 -0.0854  2.3255
   66SOL  OW     196   1.016   0.900   1.246  0.3307  0.0066 -0.1051
   66SOL  HW1    197   0.945   0.971   1.272 -0.7255  0.7796 -0.8802
   66SOL  HW2    198   1.023   0.888   1.145  1.0541  0.0572 -1.7517
   67SOL  OW     199   2.052   1.594   2.183 -0.0555 -0.2958  0.1905
   67SOL  HW1    200   1.965   1.576   2.234  1.9843  0.7812  0.4607
   67SOL  HW2    201   2.032   1.581   2.081 -2.5978 -3.0935 -1.3650
   68SOL  OW     202   1.945   1.633   1.337 -0.2646  0.3003 -0.3958
   68SOL  HW1    203   1.922   1.578   1.256  1.2024 -1.6891 -1.2140
   68SOL  HW2    204   1.881   1.619   1.411  0.0792 -1.2443 -0.1856
   69SOL  OW     205   2.945   0.365   2.829  0.0184  0.7926 -0.7470
   69SOL  HW1    206   2.889   0.433   2.775 -0.4877 -0.7818  1.7276
   69SOL  HW2    207   2.961   0.406   2.920 -0.2717 -1.0767 -0.5446
   70SOL  OW     208   2.940   1.705   2.444  0.2895  0.1084 -0.0838
   70SOL  HW1    209   3.008   1.682   2.523 -1.2148 -0.9382  0.3015
   70SOL  HW2    210   2.941   1.801   2.416 -0.5751 -2.9015  2.1572
   71SOL  OW     211   1.478   1.778   0.821 -0.5017  0.5584 -0.4175
   71SOL  HW1    212   1.447   1.685   0.796 -0.3251 -0.9698  2.3807
   71SOL  HW2    213   1.533   1.775   0.904  1.2492  1.5277  0.6262
   72SOL  OW     214   1.999   0.910   0.412 -0.0652  0.1234  0.0914
   72SOL  HW1    215   2.034   0.962   0.488 -1.3634 -0.9132  0.8470
   72SOL  HW2    216   2.044   0.815   0.407 -0.1194 -0.0567 -1.1330
   73SOL  OW     217   0.740   0.370   0.293  0.4609  0.0043 -0.4668
   73SOL  HW1    218   0.638   0.352   0.317 -0.6873  0.8969  1.2303
   73SOL  HW2    219   0.782   0.281   0.263  3.5842 -1.6294  1.2008
   74SOL  OW     220   2.571   1.664   2.068  0.4848 -0.2650  0.4584
   74SOL  HW1    221   2.513   1.751   2.069 -1.1858 -2.3020 -1.1339
   74SOL  HW2    222   2.668   1.684   2.055  0.5370  0.8189  2.0955
   75SOL  OW     223   1.890   1.860   1.697  0.0668 -0.0343  0.1162
   75SOL  HW1    224   1.958   1.905   1.755 -2.0780  1.1257  1.5896
   75SOL  HW2    225   1.814   1.923   1.670  0.2812 -0.2573  1.4215
   76SOL  OW     226   1.022   1.563   0.575  0.7402 -0.0293  0.1784
   76SOL  HW1    227   1.021   1.543   0.673  1.7443 -0.3507 -2.4881
   76SOL  HW2    228   1.027   1.666   0.560  1.4422 -2.4767  2.6800
   77SOL  OW     229   2.476   0.808   1.476 -0.1416  0.6606 -0.4412
   77SOL  HW1    230   2.574   0.788   1.503  0.6658 -1.6351  1.2008
   77SOL  HW2    231   2.462   0.819   1.377 -0.2953 -0.7327  0.3086
   78SOL  OW     232   1.086   0.825   2.875  0.6259  0.2237  0.2274
   78SOL  HW1    233   1.014   0.775   2.829  3.2775  1.2120 -1.7666
   78SOL  HW2    234   1.159   0.862   2.805 -1.7888  1.1129 -1.8495
   79SOL  OW     235   1.321   1.595   2.039  0.1744  0.1431 -0.1319
   79SOL  HW1    236   1.219   1.604   2.053  0.0371 -1.4131 -1.3038
   79SOL  HW2    237   1.362   1.515   2.093 -0.6418  0.1372 -0.5501
   80SOL  OW     238   1.588   1.051   1.976  0.1170 -0.3592  0.1637
   80SOL  HW1    239   1.621   1.032   2.071 -1.5013 -0.1842 -1.4956
   80SOL  HW2    240   1.489   1.038   1.962 -0.0643 -0.7745  0.2190
   81SOL  OW     241   2.929   2.222   0.213  0.1590  0.1092 -0.1290
   81SOL  HW1    242   2.901   2.322   0.220 -2.4051  1.4483  1.4074
   81SOL  HW2    243   3.034   2.215   0.217  1.4436 -0.5565 -0.3307
   82SOL  OW     244   0.753   0.427   1.969 -0.1658 -0.3554 -0.1665
   82SOL  HW1    245   0.802   0.359   1.908 -0.3155 -1.7245 -0.2119
   82SOL  HW2    246   0.654   0.436   1.943  1.9432 -0.0012  1.4629
   83SOL  OW     247   0.917   1.964   1.129 -0.0055  0.8661  0.0884
   83SOL  HW1    248   1.010   1.990   1.098 -0.9648  2.0549 -0.6572
   83SOL  HW2    249   0.879   1.907   1.052 -0.0332 -0.5948 -0.7404
   84SOL  OW     250   0.213   1.547   0.683 -0.2651 -0.9197 -0.3380
   84SOL  HW1    251   0.237   1.643   0.705 -1.0506  2.1620 -0.8008
   84SOL  HW2    252   0.115   1.546   0.667 -2.9141  2.4741 -0.6721
   85SOL  OW     253   2.887   1.765   0.712 -0.1794 -0.3877 -0.8684
   85SOL  HW1    254   2.941   1.808   0.633  1.4516 -1.2643  2.2519
   85SOL  HW2    255   2.924   1.779   0.807 -3.2637 -1.8237  1.9842
   86SOL  OW     256   0.663   1.951   1.837 -0.1730 -0.0264  0.2431
   86SOL  HW1    257   0.742   1.935   1.777  0.1553  0.8899 -0.5972
   86SOL  HW2    258   0.692   2.007   1.918  0.9728 -2.1562  0.0522
   87SOL  OW     259   2.554   1.382   1.176  0.9032  0.3175  0.8788
   87SOL  HW1    260   2.530   1.334   1.087 -1.9342  2.0239 -1.5054
   87SOL  HW2    261   2.592   1.477   1.160 -2.4521  1.8584 -0.1967
   88SOL  OW     262   0.520   3.055   1.035  0.1279  0.8618  0.5993
   88SOL  HW1    263   0.468   3.028   1.119 -1.0239  0.0067  0.2415
   88SOL  HW2    264   0.585   0.034   1.059  2.4436  2.0641  1.3498
   89SOL  OW     265   0.093   1.331   1.762 -0.0388 -0.1512 -0.2380
   89SOL  HW1    266   0.045   1.239   1.737  0.3526  0.8910 -0.5585
   89SOL  HW2    267   0.058   1.409   1.703 -0.4844  1.2803 -0.1861
   90SOL  OW     268   2.400   2.953   2.897  0.3692  0.7950  0.7846
   90SOL  HW1    269   2.396   3.052   2.875  0.6836 -1.8541 -2.3641
   90SOL  HW2    270   2.491   2.924   2.931  0.4884  3.0592 -1.4359
   91SOL  OW     271   0.588   2.309   2.463 -0.0286 -0.5724  0.0723
   91SOL  HW1    272   0.540   2.217   2.470 -0.6817 -0.0024  0.5443
   91SOL  HW2    273   0.623   2.329   2.557  0.0990  2.8265 -0.3364
   92SOL  OW     274   1.442   0.702   1.707  0.4233 -0.8242 -0.2323
   92SOL  HW1    275   1.434   0.617   1.759  0.6943  0.4789 -0.9922
   92SOL  HW2    276   1.526   0.749   1.733 -0.8840  1.7160  1.2234
   93SOL  OW     277   0.378   1.901   0.087 -0.4504 -0.1753  0.5190
   93SOL  HW1    278   0.439   1.944   0.015 -0.3584 -0.2621  0.3122
   93SOL  HW2    279   0.426   1.910   0.170 -2.2577 -1.8956  1.1231
   94SOL  OW     280   2.968   2.435   0.917  0.9399 -0.4850 -0.5638
   94SOL  HW1    281   2.981   2.445   1.019 -1.6534  0.4769 -3.3434
   94SOL  HW2    282   2.887   2.382   0.891 -1.2420 -1.5226 -2.4014
   95SOL  OW     283   1.870   0.638   1.845  0.0283 -0.5008  0.8503
   95SOL  HW1    284   1.869   0.550   1.800 -2.6313  2.0222 -0.0688
   95SOL  HW2    285   1.949   0.696   1.810 -3.4606 -1.4031 -0.2825
   96SOL  OW     286   1.297   0.686   2.360 -0.4624 -0.2775  0.0042
   96SOL  HW1    287   1.342   0.641   2.438 -0.4673 -1.0577  1.9534
   96SOL  HW2    288   1.227   0.624   2.320  0.8399 -1.0289 -0.5182
   97SOL  OW     289   1.032   0.257   0.640 -0.4501  0.0822  0.6446
   97SOL  HW1    290   1.074   0.277   0.734  0.0868  1.2586  2.2049
   97SOL  HW2    291   0.940   0.305   0.634 -2.5191 -1.5127  0.2755
   98SOL  OW     292   1.953   2.236   1.976  0.0181  0.6513 -0.4120
   98SOL  HW1    293   1.945   2.239   2.078 -0.0614 -1.0221 -1.2607
   98SOL  HW2    294   1.872   2.279   1.932  1.8642  0.9961  0.2781
   99SOL  OW     295   0.395   0.036   0.821  0.0272 -0.1819 -0.1544
   99SOL  HW1    296   0.455   0.007   0.901 -0.0409 -0.4266 -0.7497
   99SOL  HW2    297   0.302   0.001   0.832 -2.8412 -0.2411 -2.3937
  100SOL  OW     298   2.833   1.740   2.023  0.0626 -0.3029 -0.2238
  100SOL  HW1    299   2.823   1.748   1.920  0.3267 -0.5377 -0.7834
  100SOL  HW2    300   2.861   1.826   2.067 -1.5388  0.4260  0.8029
  101SOL  OW     301   0.614   2.499   0.180  0.3858  0.9406  0.7784
  101SOL  HW1    302   0.683   2.547   0.117  0.0825 -1.3525  1.1950
  101SOL  HW2    303   0.573   2.424   0.124  1.1032  0.6056 -0.6800
  102SOL  OW     304   2.827   0.008   1.182  0.7235 -0.3194  0.5022
  102SOL  HW1    305   2.855   0.053   1.267  2.0236 -0.6783 -1.4458
  102SOL  HW2    306   2.730   3.075   1.180 -0.6796  0.7316  1.7571
  103SOL  OW     307   2.952   0.085   2.417 -0.0863  0.3389  0.2191
  103SOL  HW1    308   2.990   0.024   2.347  0.0380 -1.1135 -2.8759
  103SOL  HW2    309   2.990   0.178   2.404 -1.2926 -0.5563 -1.0290
  104SOL  OW     310   2.631   2.199   1.753 -0.0808 -0.0158 -0.6024
  104SOL  HW1    311   2.670   2.201   1.662 -0.2314 -0.0122  1.6658
  104SOL  HW2    312   2.615   2.103   1.777 -1.2875 -0.3126 -0.8399
  105SOL  OW     313   0.058   1.653   2.105 -0.4208  0.0744 -0.2164
  105SOL  HW1    314   3.070   1.597   2.085 -1.8753 -0.8231 -1.8313
  105SOL  HW2    315   0.067   1.733   2.041  1.8043 -0.9045  1.6151
  106SOL  OW     316   1.926   2.817   0.748  0.8197  0.3398  0.3876
  106SOL  HW1    317   1.960   2.735   0.795  0.6445  1.3641 -1.1618
  106SOL  HW2    318   1.830   2.809   0.717  1.4123 -0.1820 -1.2587
  107SOL  OW     319   0.390   0.516   1.253 -0.0679 -0.2716  0.0429
  107SOL  HW1    320   0.299   0.540   1.210 -1.0999  1.0997 -0.1769
  107SOL  HW2    321   0.387   0.554   1.351  1.0123  1.3874  1.1337
  108SOL  OW     322   2.893   0.699   2.074  0.3152  0.2864  0.1121
  108SOL  HW1    323   2.909   0.701   2.177 -1.5271  0.4910  1.8179
  108SOL  HW2    324   2.980   0.724   2.023 -1.6217  1.7679 -1.2374
  109SOL  OW     325   1.618   1.876   2.522  0.3202  0.1332  0.5722
  109SOL  HW1    326   1.627   1.940   2.444 -1.2797  1.2198 -0.8488
  109SOL  HW2    327   1.521   1.848   2.534  0.2902  0.4561 -0.2503
  110SOL  OW     328   1.138   2.184   0.219  0.1024  0.5988  0.3596
  110SOL  HW1    329   1.170   2.152   0.124 -1.9786  0.1139  0.7636
  110SOL  HW2    330   1.213   2.165   0.286  1.7443 -0.4874 -0.6692
  111SOL  OW     331   3.018   1.137   2.379 -0.1403  0.1907 -0.1009
  111SOL  HW1    332   0.014   1.118   2.418  1.6648 -1.0961  0.9420
  111SOL  HW2    333   2.990   1.227   2.419 -1.2259 -0.4113 -1.8984
  112SOL  OW     334   2.713   2.668   1.003  0.0781 -0.0345 -0.2226
  112SOL  HW1    335   2.759   2.634   1.090  0.8158 -1.3717 -1.6367
  112SOL  HW2    336   2.780   2.722   0.951 -1.6967 -0.1599 -1.0516
  113SOL  OW     337   2.705   2.254   2.024 -0.2602 -0.2755  0.0687
  113SOL  HW1    338   2.647   2.189   2.078 -2.2716 -2.8375 -0.2230
  113SOL  HW2    339   2.682   2.233   1.929  2.0580 -1.2839  0.9492
  114SOL  OW     340   0.485   0.273   0.350 -0.4998 -0.1032  0.7328
  114SOL  HW1    341   0.475   0.201   0.422  0.5364  0.3127  2.3358
  114SOL  HW2    342   0.395   0.308   0.320  1.0454  0.6728 -2.4305
  115SOL  OW     343   0.779   1.661   0.010  0.2034  0.0563  0.3410
  115SOL  HW1    344   0.681   1.650   0.024  1.1591 -1.5750 -1.8134
  115SOL  HW2    345   0.799   1.756   0.043  0.2114  0.8465  1.3119
  116SOL  OW     346   2.342   1.145   1.240  0.3771  0.2469 -0.4453
  116SOL  HW1    347   2.392   1.229   1.264 -1.6962  1.0218  0.6582
  116SOL  HW2    348   2.299   1.102   1.323  0.2778 -1.6844 -0.4833
  117SOL  OW     349   1.689   2.352   1.187 -0.1595  0.4097  0.1277
  117SOL  HW1    350   1.735   2.264   1.168  0.6930 -0.5958  0.3154
  117SOL  HW2    351   1.609   2.362   1.128  1.0159  2.3594 -0.8147
  118SOL  OW     352   2.758   0.021   2.591  0.0762 -0.3263  0.2851
  118SOL  HW1    353   2.827   0.046   2.519 -1.2993 -1.3091 -1.7607
  118SOL  HW2    354   2.705   3.032   2.566 -0.0349 -1.7680 -2.2827
  119SOL  OW     355   0.351   2.040   1.921 -0.4312  0.1297 -0.5693
  119SOL  HW1    356   0.396   1.986   1.846 -0.4568  2.7472 -1.2002
  119SOL  HW2    357   0.406   2.024   2.009  0.2783 -1.2206  2.6452
  120SOL  OW     358   2.881   1.124   2.146  0.3203 -0.0687 -0.9955
  120SOL  HW1    359   2.927   1.106   2.233 -0.9893  0.6045  1.6709
  120SOL  HW2    360   2.943   1.183   2.090  1.9849 -1.4282 -1.6048
  121SOL  OW     361   1.601   0.083   0.382  0.2525  0.0788  0.3447
  121SOL  HW1    362   1.590   0.155   0.313 -0.0466 -0.5304  1.5131
  121SOL  HW2    363   1.522   0.074   0.451 -3.0605  1.5602 -2.6097
  122SOL  OW     364   3.090   2.339   2.271 -0.0367 -0.5336 -0.3087
  122SOL  HW1    365   0.095   2.327   2.263 -0.1019  1.2921 -0.5069
  122SOL  HW2    366   3.058   2.341   2.370 -0.3579 -1.0791 -1.8890
  123SOL  OW     367   2.880   1.022   0.806  0.1646 -0.7303  0.3278
  123SOL  HW1    368   2.845   1.121   0.793 -2.2667 -0.7130  1.0926
  123SOL  HW2    369   2.894   1.009   0.902 -1.3130 -1.6747  3.0068
  124SOL  OW     370   1.127   1.172   0.290  0.2481  0.1787  0.6890
  124SOL  HW1    371   1.142   1.268   0.322  1.9633 -1.5535 -1.0839
  124SOL  HW2    372   1.193   1.104   0.330  0.8147 -0.0873 -0.6278
  125SOL  OW     373   0.464   0.731   1.833 -0.2063  0.0366 -0.2547
  125SOL  HW1    374   0.501   0.739   1.928  1.4693 -1.0547 -1.0263
  125SOL  HW2    375   0.409   0.817   1.814 -0.0734 -0.2167  1.7476
  126SOL  OW     376   2.498   0.300   0.351 -0.0471  0.6250 -0.8331
  126SOL  HW1    377   2.507   0.387   0.402  1.0206 -1.5002 -1.7021
  126SOL  HW2    378   2.474   0.315   0.254 -0.7713  0.7880 -0.9626
  127SOL  OW     379   0.131   1.808   3.074 -0.1436  0.1847 -0.3994
  127SOL  HW1    380   0.225   1.835   3.094 -2.8224 -0.8465 -0.3337
  127SOL  HW2    381   0.095   1.860   2.993 -0.8515 -3.3047  0.6032
  128SOL  OW     382   0.805   0.739   0.586 -0.1446 -0.3344  0.4430
  128SOL  HW1    383   0.718   0.768   0.536 -0.9384  1.4483 -0.0968
  128SOL  HW2    384   0.891   0.766   0.541  0.0713  0.6323 -2.0824
  129SOL  OW     385   3.000   2.110   0.650 -0.5213 -0.0022  0.1853
  129SOL  HW1    386   2.990   2.097   0.751  2.5663 -2.5972 -1.2806
  129SOL  HW2    387   2.953   2.033   0.614  1.8565 -0.1868  2.4729
  130SOL  OW     388   2.541   0.683   3.006  0.5763 -0.1324 -0.4876
  130SOL  HW1    389   2.501   0.755   3.069 -2.5085  0.9764  0.8835
  130SOL  HW2    390   2.622   0.724   2.961  0.8262  2.6080  1.1396
  131SOL  OW     391   0.501   1.611   2.290  0.3247 -0.2285 -0.7280
  131SOL  HW1    392   0.435   1.582   2.216  0.2900 -0.2723  0.2708
  131SOL  HW2    393   0.442   1.627   2.374  0.7170  2.1822  0.5704
  132SOL  OW     394   1.641   1.227   1.777 -0.0539 -0.6227 -0.8259
  132SOL  HW1    395   1.606   1.162   1.845  1.4465  0.6678  0.3496
  132SOL  HW2    396   1.571   1.271   1.718  1.8332 -0.5698  1.6536
  133SOL  OW     397   0.803   1.037   1.892  0.4856 -0.2982  0.7335
  133SOL  HW1    398   0.712   1.076   1.887 -0.7578  1.6007 -3.3387
  133SOL  HW2    399   0.821   0.979   1.808  0.3668  0.3369  2.1492
  134SOL  OW     400   0.145   1.618   1.102 -0.2292 -0.5924  0.0789
  134SOL  HW1    401   0.231   1.562   1.094  0.6251  0.4379  0.6017
  134SOL  HW2    402   0.153   1.705   1.048 -0.7465  0.0682  0.4400
  135SOL  OW     403   2.365   0.602   0.217 -0.2599  0.1059  0.3893
  135SOL  HW1    404   2.445   0.599   0.281 -0.7497 -1.8632 -0.9064
  135SOL  HW2    405   2.371   0.520   0.151 -0.2646 -0.0069  2.2088
  136SOL  OW     406   2.083   1.911   1.075  0.1740 -0.5738 -0.2051
  136SOL  HW1    407   2.167   1.919   1.019  0.6109  0.4872  1.9762
  136SOL  HW2    408   2.000   1.905   1.011 -1.2536  1.0247  1.8080
  137SOL  OW     409   2.599   1.849   0.967 -0.6114  0.0895  0.4998
  137SOL  HW1    410   2.606   1.945   0.999 -2.0762  1.8044 -1.1530
  137SOL  HW2    411   2.593   1.851   0.866 -0.2084 -1.1853 -0.4730
  138SOL  OW     412   0.097   2.206   1.316  0.0031 -0.6818 -0.6783
  138SOL  HW1    413   0.157   2.251   1.247  0.4687 -1.2502 -0.1842
  138SOL  HW2    414   0.029   2.142   1.276  1.3988  1.0126  0.2007
  139SOL  OW     415   2.904   0.369   2.264 -0.6716  0.2437  0.0186
  139SOL  HW1    416   2.949   0.390   2.177  2.2326  1.3289  1.6888
  139SOL  HW2    417   2.969   0.362   2.341 -0.8363 -2.4529  2.9295
  140SOL  OW     418   2.173   1.899   0.656  0.6525 -0.3494 -0.1797
  140SOL  HW1    419   2.175   1.946   0.571  2.7297  2.7551  2.7935
  140SOL  HW2    420   2.167   1.798   0.647 -0.4299 -1.1639  0.4194
  141SOL  OW     421   1.659   1.643   1.738 -0.2077  0.0829 -1.0995
  141SOL  HW1    422   1.687   1.572   1.809  1.4069 -3.3695  2.8018
  141SOL  HW2    423   1.716   1.727   1.741 -1.3438  0.9870 -5.0342
  142SOL  OW     424   2.027   2.354   2.588  0.2267  0.4582  0.2900
  142SOL  HW1    425   1.937   2.307   2.570  2.5618  1.8266  0.5601
  142SOL  HW2    426   2.030   2.425   2.658 -2.3399 -1.3210  0.6582
  143SOL  OW     427   1.424   2.453   0.589  0.2330 -0.4174 -0.9955
  143SOL  HW1    428   1.521   2.481   0.613 -2.4422 -2.2221 -1.9200
  143SOL  HW2    429   1.353   2.481   0.658  3.4676 -0.6820 -0.2029
  144SOL  OW     430   1.497   2.253   0.407  0.4519 -0.0977 -0.5592
  144SOL  HW1    431   1.557   2.286   0.332 -1.9467 -0.1373  2.4102
  144SOL  HW2    432   1.478   2.320   0.480  1.0947  0.9498 -0.7672
  145SOL  OW     433   1.735   1.711   2.745  0.1376  0.4591 -0.3438
  145SOL  HW1    434   1.785   1.629   2.710  0.7897 -0.1337  1.0466
  145SOL  HW2    435   1.701   1.765   2.667 -2.0681 -0.0210  0.8497
  146SOL  OW     436   2.046   2.906   0.409 -0.1972  0.0076 -0.6204
  146SOL  HW1    437   2.071   2.979   0.479 -0.9952  0.9160 -0.3015
  146SOL  HW2    438   1.942   2.912   0.394  1.4659 -0.7133 -1.3584
  147SOL  OW     439   0.174   2.215   1.770  0.3401 -0.3407  0.0221
  147SOL  HW1    440   0.239   2.146   1.804  1.3269  0.0796  0.1221
  147SOL  HW2    441   0.205   2.308   1.795 -0.1259 -0.7583  0.1108
  148SOL  OW     442   1.515   2.989   1.122 -0.2467 -0.1136  0.5022
  148SOL  HW1    443   1.558   3.078   1.160 -1.4804  1.8110  0.7978
  148SOL  HW2    444   1.434   3.009   1.065 -0.5350  0.8713  1.1934
  149SOL  OW     445   0.708   2.255   0.369  0.0500 -0.5320  0.6243
  149SOL  HW1    446   0.776   2.186   0.334  0.6608 -1.6550 -0.3488
  149SOL  HW2    447   0.686   2.333   0.309 -0.6364 -0.6848 -0.4946
  150SOL  OW     448   0.272   2.155   1.523 -0.1787 -0.1636  0.4583
  150SOL  HW1    449   0.224   2.178   1.609  0.6186 -0.2114  2.6462
  150SOL  HW2    450   0.218   2.189   1.443 -1.9120  1.1297 -0.7079
  151SOL  OW     451   0.609   0.755   3.077 -0.2540 -0.0341 -0.0225
  151SOL  HW1    452   0.648   0.851   3.076 -0.3895 -1.6236 -0.1801
  151SOL  HW2    453   0.671   0.692   0.034  2.4895  0.8837  0.4209
  152SOL  OW     454   0.303   2.533   0.780 -0.4432  0.0215 -0.1974
  152SOL  HW1    455   0.206   2.542   0.757 -2.0891 -1.6671 -0.3037
  152SOL  HW2    456   0.330   2.435   0.760 -4.9389  2.7889  1.0252
  153SOL  OW     457   1.454   2.388   1.072  0.1073  0.1764  0.2765
  153SOL  HW1    458   1.442   2.473   1.123 -1.5954  0.3743 -4.1976
  153SOL  HW2    459   1.371   2.330   1.099  1.9555  0.8454 -0.6682
  154SOL  OW     460   0.956   2.646   1.674 -0.2718  0.8464 -0.0199
  154SOL  HW1    461   0.969   2.577   1.599 -0.1055  1.6557  2.1875
  154SOL  HW2    462   1.012   2.728   1.664 -0.3329  1.2836  1.9394
  155SOL  OW     463   2.999   1.835   0.472 -0.3259  0.0512 -0.1791
  155SOL  HW1    464   0.001   1.816   0.453  0.2727  0.6675 -0.1815
  155SOL  HW2    465   2.962   1.904   0.411  0.2975  2.0441  0.6384
  156SOL  OW     466   1.909   1.620   0.175  0.3403 -0.6823  0.4067
  156SOL  HW1    467   1.830   1.559   0.140  2.0987 -0.3022  1.9703
  156SOL  HW2    468   1.935   1.693   0.111 -0.0705 -1.1479 -0.8262
  157SOL  OW     469   0.593   0.674   2.218  0.3860  0.0951 -0.1275
  157SOL  HW1    470   0.564   0.748   2.152  2.3444  0.9174  0.1843
  157SOL  HW2    471   0.694   0.670   2.220  1.4579 -2.7288  0.6340
  158SOL  OW     472   1.042   0.760   1.663 -0.6037 -0.1202 -0.0172
  158SOL  HW1    473   0.996   0.698   1.736  2.8090 -1.8171  3.3022
  158SOL  HW2    474   1.031   0.720   1.569 -0.8607 -0.2925 -1.1611
  159SOL  OW     475   1.869   0.173   1.992 -0.0707 -0.1344  0.2024
  159SOL  HW1    476   1.915   0.084   1.973  1.3967  0.7598  0.6782
  159SOL  HW2    477   1.920   0.245   1.940 -0.0021  2.2068 -1.0502
  160SOL  OW     478   1.030   2.319   0.865 -0.5787 -0.4550 -0.8114
  160SOL  HW1    479   0.981   2.348   0.952  1.0953  4.5744  0.3855
  160SOL  HW2    480   1.068   2.404   0.820  0.7181  1.3063  1.0095
  161SOL  OW     481   2.517   2.108   2.192  0.1234 -0.1317  0.4048
  161SOL  HW1    482   2.580   2.072   2.268 -1.4084 -3.4144  0.3848
  161SOL  HW2    483   2.423   2.136   2.230 -0.9922 -0.6890  1.6828
  162SOL  OW     484   0.040   1.380   0.902 -0.2465 -0.8242 -0.5514
  162SOL  HW1    485   0.109   1.452   0.888  2.6110 -0.0832  0.3641
  162SOL  HW2    486   3.041   1.411   0.884 -0.5556 -1.9706 -0.3154
  163SOL  OW     487   3.046   0.397   2.039  0.4619  0.1195  0.7215
  163SOL  HW1    488   0.048   0.372   2.034  0.0115 -1.4442 -0.7358
  163SOL  HW2    489   3.005   0.389   1.947 -1.8463  1.0370  2.1199
  164SOL  OW     490   0.367   3.091   2.420 -0.0032 -0.2017  0.2077
  164SOL  HW1    491   0.346   3.013   2.480 -1.7544  1.3445 -0.7273
  164SOL  HW2    492   0.466   0.018   2.437  2.1789  3.1207  1.4518
  165SOL  OW     493   2.043   0.978   1.381 -0.4379  0.4084  0.3576
  165SOL  HW1    494   2.141   0.989   1.410 -0.5807 -2.4545 -1.6101
  165SOL  HW2    495   1.987   0.911   1.436  3.1437  0.2299  3.0022
  166SOL  OW     496   1.602   1.269   1.383  0.5479 -0.1014 -0.1372
  166SOL  HW1    497   1.651   1.356   1.414  0.3431 -0.2399  1.4266
  166SOL  HW2    498   1.672   1.197   1.362 -1.4838  1.0462  0.2534
  167SOL  OW     499   0.085   1.255   2.977  0.1822 -0.2230 -0.1146
  167SOL  HW1    500   0.115   1.338   2.929 -2.6785  1.2185 -1.1912
  167SOL  HW2    501   0.171   1.212   3.013 -1.0763 -0.4447 -1.1530
  168SOL  OW     502   1.501   0.983   2.379  0.6692 -0.4380 -0.0793
  168SOL  HW1    503   1.450   0.943   2.305  1.5294  0.1048 -1.9024
  168SOL  HW2    504   1.502   0.923   2.463  0.1175 -0.3542 -0.8855
  169SOL  OW     505   0.371   0.678   0.015 -0.4191 -0.5866 -0.1747
  169SOL  HW1    506   0.465   0.715   0.011  2.0297  0.8524 -0.3251
  169SOL  HW2    507   0.346   0.652   0.109 -3.8885  0.8432  2.5820
  170SOL  OW     508   1.744   1.201   1.039 -0.0891 -0.0284  0.2100
  170SOL  HW1    509   1.672   1.138   0.995  0.7452 -0.2462 -0.4558
  170SOL  HW2    510   1.755   1.172   1.136 -0.0461 -0.8930 -0.8847
  171SOL  OW     511   1.909   2.951   1.482 -0.6390 -0.2630 -0.1349
  171SOL  HW1    512   2.000   2.914   1.460 -0.8147 -0.0514  1.6118
  171SOL  HW2    513   1.839   2.879   1.456 -0.3006 -0.3410 -1.3120
  172SOL  OW     514   0.635   0.001   2.085  0.3258 -0.5121 -0.0283
  172SOL  HW1    515   0.721   0.044   2.054 -2.0600  1.4010 -1.3885
  172SOL  HW2    516   0.561   0.023   2.018 -1.3772 -0.1686 -0.6871
  173SOL  OW     517   0.662   2.817   0.957  0.0648  0.0204  0.1622
  173SOL  HW1    518   0.585   2.752   0.963 -2.0175  0.2323  1.5507
  173SOL  HW2    519   0.625   2.912   0.976 -1.2253  0.9120 -0.9820
  174SOL  OW     520   1.817   0.601   0.623 -0.3513  0.4650  0.5193
  174SOL  HW1    521   1.882   0.563   0.551  1.2430 -1.0212  1.0395
  174SOL  HW2    522   1.758   0.680   0.589 -1.9141 -3.2829  0.3425
  175SOL  OW     523   1.372   1.287   1.259 -0.1425  0.0997  0.2008
  175SOL  HW1    524   1.332   1.191   1.243  3.1175  1.5563  0.4423
  175SOL  HW2    525   1.467   1.289   1.302  0.4378  0.1122  0.2476
  176SOL  OW     526   1.129   1.731   0.983  0.4676 -0.2382  0.5258
  176SOL  HW1    527   1.116   1.789   0.899  0.4391  1.7475  4.0042
  176SOL  HW2    528   1.224   1.691   0.986  1.3392  1.0173  0.2871
  177SOL  OW     529   1.023   1.670   1.248  0.3114  0.3017 -0.5289
  177SOL  HW1    530   0.956   1.737   1.281  0.2133 -0.6350  0.0527
  177SOL  HW2    531   1.050   1.695   1.153 -0.7835 -1.1623 -0.0678
  178SOL  OW     532   2.519   1.497   0.730  0.2179 -0.3832 -0.4697
  178SOL  HW1    533   2.528   1.427   0.802 -1.1213 -1.8237  2.7911
  178SOL  HW2    534   2.432   1.476   0.679 -1.1070 -1.1373 -0.6470
  179SOL  OW     535   0.245   2.544   0.379  0.2487 -0.2998 -0.0251
  179SOL  HW1    536   0.288   2.609   0.442  1.9665  0.0945  3.0253
  179SOL  HW2    537   0.258   2.449   0.418  1.5934  1.7766  0.8285
  180SOL  OW     538   1.483   0.610   1.448 -0.5080 -0.5434 -0.1399
  180SOL  HW1    539   1.390   0.608   1.410 -1.9599  0.0706  0.6001
  180SOL  HW2    540   1.484   0.652   1.542  2.3150  2.6527 -1.8032
  181SOL  OW     541   0.815   0.884   1.660  0.2025  0.3030 -0.0167
  181SOL  HW1    542   0.811   0.983   1.631 -0.8125 -0.3063  0.5494
  181SOL  HW2    543   0.911   0.851   1.656  0.1155 -0.5558 -1.7212
  182SOL  OW     544   2.616   1.610   0.270  0.3311  0.1649  0.6798
  182SOL  HW1    545   2.684   1.685   0.252 -0.8773  1.1191  0.5937
  182SOL  HW2    546   2.583   1.577   0.181 -1.6391 -1.8288  1.7405
  183SOL  OW     547   1.135   2.257   2.164  0.3966 -0.0321 -0.2243
  183SOL  HW1    548   1.079   2.188   2.115  2.2320 -0.4744  2.0268
  183SOL  HW2    549   1.160   2.338   2.109  0.2268 -1.6046  0.7416
  184SOL  OW     550   0.547   0.127   0.132 -0.2751 -0.0801  0.5684
  184SOL  HW1    551   0.573   0.034   0.164  1.4520 -1.1926  0.1250
  184SOL  HW2    552   0.523   0.186   0.212  1.5141 -0.0617  0.3115
  185SOL  OW     553   2.104   1.516   1.018 -0.2356 -0.0582 -0.1816
  185SOL  HW1    554   2.155   1.429   0.998  0.6846 -0.0170 -1.1271
  185SOL  HW2    555   2.172   1.591   1.026 -0.1928  0.2940  1.6612
  186SOL  OW     556   0.339   2.267   0.749 -0.2760  0.0039  0.3911
  186SOL  HW1    557   0.433   2.227   0.763  0.3321  2.0111  0.9228
  186SOL  HW2    558   0.272   2.198   0.783 -0.8580 -0.5037 -2.1646
  187SOL  OW     559   1.683   1.500   2.153  0.2721  0.4871 -0.3758
  187SOL  HW1    560   1.736   1.469   2.073 -2.0225  1.4673 -3.6798
  187SOL  HW2    561   1.739   1.491   2.237  0.2781  3.3181 -0.1567
  188SOL  OW     562   1.243   2.979   0.174  1.1356  0.0979  0.0264
  188SOL  HW1    563   1.341   2.975   0.202 -0.5702 -1.5862  0.6987
  188SOL  HW2    564   1.222   2.911   0.102 -0.1283  0.4489 -0.7302
  189SOL  OW     565   2.654   1.773   2.733  0.3098 -0.1702  0.7549
  189SOL  HW1    566   2.625   1.776   2.639  1.7688 -2.4185 -1.4937
  189SOL  HW2    567   2.754   1.776   2.746  0.6313 -1.2832  0.9653
  190SOL  OW     568   1.364   2.545   2.630 -0.0044 -0.2632 -0.0505
  190SOL  HW1    569   1.360   2.590   2.540 -2.1124  1.3673 -3.8944
  190SOL  HW2    570   1.265   2.527   2.644  1.1919  0.2154 -0.3154
  191SOL  OW     571   1.929   0.791   1.543  0.1293 -0.4159  0.3449
  191SOL  HW1    572   1.991   0.780   1.622  0.3973 -1.0129 -0.2898
  191SOL  HW2    573   1.839   0.836   1.564 -2.9743 -2.5484  0.7464
  192SOL  OW     574   1.896   0.663   1.049 -0.6592 -0.0906 -0.4583
  192SOL  HW1    575   1.814   0.638   1.104 -0.9255 -0.6545  0.7812
  192SOL  HW2    576   1.951   0.729   1.102  2.5700 -0.2949 -2.6942
  193SOL  OW     577   0.518   2.896   2.961 -0.3150 -0.1153  0.0312
  193SOL  HW1    578   0.468   2.973   2.913  0.9564  2.1514  2.9694
  193SOL  HW2    579   0.471   2.809   2.942 -0.8092 -3.6959 -0.5726
  194SOL  OW     580   1.566   2.215   0.872 -0.3732 -0.0631  0.1154
  194SOL  HW1    581   1.524   2.270   0.945 -2.5969 -0.5774  0.9840
  194SOL  HW2    582   1.618   2.270   0.809 -1.7576 -2.3815 -0.2309
  195SOL  OW     583   2.322   1.168   0.802  0.4006  0.2089 -0.2046
  195SOL  HW1    584   2.280   1.195   0.709  3.1746 -0.3283  2.1145
  195SOL  HW2    585   2.347   1.070   0.802  0.5380 -1.1209 -0.0619
  196SOL  OW     586   1.307   2.055   1.379 -0.1240 -0.5091 -0.4427
  196SOL  HW1    587   1.311   2.006   1.290 -0.3038  0.1542  1.2286
  196SOL  HW2    588   1.383   2.025   1.437  0.0352  0.7279  0.4542
  197SOL  OW     589   2.745   0.838   2.940  0.1256  0.2368  0.7628
  197SOL  HW1    590   2.771   0.888   2.854 -0.3961 -1.2274 -1.6487
  197SOL  HW2    591   2.766   0.893   3.023 -2.0354  1.4413 -2.2373
  198SOL  OW     592   2.480   1.502   0.064 -0.0680 -0.1234  0.6142
  198SOL  HW1    593   2.404   1.443   0.086  0.0184 -1.2122 -1.1999
  198SOL  HW2    594   2.531   1.471   3.079  3.0008  1.1006  0.6966
  199SOL  OW     595   2.491   0.505   1.907  0.1408 -1.0061  0.4431
  199SOL  HW1    596   2.527   0.496   1.810 -0.3744 -0.7136 -0.0597
  199SOL  HW2    597   2.568   0.489   1.972  0.2237  1.3878 -1.3780
  200SOL  OW     598   1.511   2.643   2.834  0.0639 -0.2615 -0.5608
  200SOL  HW1    599   1.459   2.597   2.757 -1.8639 -0.1275  0.3027
  200SOL  HW2    600   1.476   2.613   2.927  2.8628  0.4626 -0.9949
  201SOL  OW     601   1.620   0.394   1.077  0.1437  0.5603  0.1871
  201SOL  HW1    602   1.535   0.443   1.091 -0.4194  0.5814  2.2391
  201SOL  HW2    603   1.600   0.343   0.990  3.0389  0.6594 -0.8931
  202SOL  OW     604   2.709   2.802   0.547 -0.5744  0.0295  0.5096
  202SOL  HW1    605   2.790   2.807   0.605  0.7957  2.1183 -1.2763
  202SOL  HW2    606   2.629   2.845   0.580 -1.4361 -1.4885  2.0419
  203SOL  OW     607   0.865   1.103   0.268  0.0068  0.0224 -0.1393
  203SOL  HW1    608   0.800   1.181   0.266  0.1016 -2.6718  1.0427
  203SOL  HW2    609   0.958   1.143   0.268 -0.2022  1.7164  0.6990
  204SOL  OW     610   1.097   1.536   2.241 -0.0004 -0.2398 -0.1179
  204SOL  HW1    611   1.029   1.466   2.211  0.0497  2.2113  1.6624
  204SOL  HW2    612   1.143   1.512   2.330  0.8355  0.5028 -1.7834
  205SOL  OW     613   0.805   2.548   0.663 -0.0306  0.0963 -0.4841
  205SOL  HW1    614   0.844   2.577   0.751  2.5519  2.6099 -0.9905
  205SOL  HW2    615   0.883   2.549   0.601 -2.2166  3.1404 -0.7602
  206SOL  OW     616   0.258   1.012   2.266  0.5785  0.3715 -0.2075
  206SOL  HW1    617   0.212   1.031   2.357  0.1921 -0.5065 -1.1687
  206SOL  HW2    618   0.284   0.913   2.258  2.2093 -0.0260  0.4249
  207SOL  OW     619   1.440   1.326   1.624  0.7613 -0.2278  0.1165
  207SOL  HW1    620   1.427   1.409   1.680 -0.0421  0.9555  0.7641
  207SOL  HW2    621   1.472   1.346   1.532 -0.5329  1.7904 -1.3352
  208SOL  OW     622   1.757   0.080   1.418 -0.5961  0.2990  0.1359
  208SOL  HW1    623   1.775   0.160   1.479 -0.7974  0.6294  0.5157
  208SOL  HW2    624   1.829   0.012   1.424 -0.6525 -0.7030 -0.4101
  209SOL  OW     625   2.234   1.265   1.028  0.4789 -0.3072 -0.0390
  209SOL  HW1    626   2.279   1.210   1.100 -0.9584 -1.2022  0.9282
  209SOL  HW2    627   2.261   1.219   0.946 -0.5569  0.0198 -0.8909
  210SOL  OW     628   1.649   1.379   0.855 -0.0899  0.3519 -0.8965
  210SOL  HW1    629   1.670   1.310   0.930 -0.9881  2.2113  1.3082
  210SOL  HW2    630   1.705   1.377   0.767  0.2919 -1.2610  0.9426
  211SOL  OW     631   0.464   2.146   0.305 -0.2083  0.4586  0.3748
  211SOL  HW1    632   0.461   2.165   0.205 -0.7580  1.9142  0.0725
  211SOL  HW2    633   0.556   2.171   0.338  0.6109 -1.3179 -0.1428
  212SOL  OW     634   1.724   1.204   0.074  0.2299 -0.0479  0.5995
  212SOL  HW1    635   1.810   1.155   0.099 -0.9720 -1.8488 -2.1640
  212SOL  HW2    636   1.656   1.147   0.027 -1.4207  2.6713  1.1632
  213SOL  OW     637   1.832   0.159   0.911 -0.3177 -0.1999 -0.1042
  213SOL  HW1    638   1.735   0.181   0.897 -0.9290 -0.2735  0.7566
  213SOL  HW2    639   1.839   0.064   0.941  0.6333 -1.3664  0.6084
  214SOL  OW     640   0.697   2.112   2.268 -0.1934 -0.6928 -0.1434
  214SOL  HW1    641   0.733   2.039   2.324 -1.2282  0.5003  3.2076
  214SOL  HW2    642   0.688   2.191   2.332  0.1472 -2.1599  0.1070
  215SOL  OW     643   0.959   0.674   0.813  0.1982  0.0635  1.0988
  215SOL  HW1    644   0.889   0.713   0.754  3.3012  0.3001 -0.8048
  215SOL  HW2    645   0.919   0.608   0.884  0.0502  2.6426  2.3147
  216SOL  OW     646   2.925   2.536   0.100 -0.0868 -0.3912  0.0352
  216SOL  HW1    647   2.820   2.537   0.092  0.4153 -0.6956  1.3291
  216SOL  HW2    648   2.951   2.523   0.197 -0.4937 -0.6801  2.2465
  217SOL  OW     649   3.029   1.143   1.658 -0.0404 -0.4895  0.3356
  217SOL  HW1    650   2.951   1.206   1.630 -0.3683  0.6628 -1.6429
  217SOL  HW2    651   2.996   1.048   1.663 -0.7497  0.7188 -0.1952
  218SOL  OW     652   1.379   2.449   1.468  0.0751 -0.0951  0.0045
  218SOL  HW1    653   1.348   2.489   1.378  0.1762  0.5301  2.0246
  218SOL  HW2    654   1.401   2.527   1.534 -0.2370 -0.1417  1.0902
  219SOL  OW     655   0.242   2.023   0.395  0.3464  0.6217  0.0513
  219SOL  HW1    656   0.338   2.043   0.362 -0.5327  0.6976 -0.3533
  219SOL  HW2    657   0.228   1.918   0.389  3.5249  1.5805  1.5047
  220SOL  OW     658   2.186   0.760   0.915 -0.2018  0.4278  0.3268
  220SOL  HW1    659   2.118   0.721   0.849  1.2349 -0.4224 -0.6768
  220SOL  HW2    660   2.136   0.791   1.000  0.3617  2.7483 -0.1810
  221SOL  OW     661   0.198   1.306   0.501 -0.2076  0.5771 -0.1196
  221SOL  HW1    662   0.178   1.373   0.574 -2.2448 -1.9591  1.3754
  221SOL  HW2    663   0.159   1.335   0.411 -2.3541  1.1222  0.1068
  222SOL  OW     664   1.383   1.586   1.040  0.0796  0.0330  0.0874
  222SOL  HW1    665   1.350   1.502   1.001 -1.3521  0.0509  0.1128
  222SOL  HW2    666   1.484   1.596   1.034  0.7843  0.3610 -1.2361
  223SOL  OW     667   0.286   0.287   2.376 -0.3856 -0.0797  0.7736
  223SOL  HW1    668   0.313   0.208   2.438  0.5022 -3.3158 -2.7757
  223SOL  HW2    669   0.361   0.358   2.374 -0.0643 -0.3780 -0.0351
  224SOL  OW     670   1.050   0.207   1.051 -0.6380  0.2640  0.2494
  224SOL  HW1    671   0.982   0.194   0.976  0.5722 -0.6563  0.9328
  224SOL  HW2    672   1.133   0.246   1.006 -0.1345  0.0619 -1.5539
  225SOL  OW     673   0.852   2.510   2.221 -0.0385 -0.2940 -0.0583
  225SOL  HW1    674   0.760   2.468   2.238  0.0036  1.8795 -2.5349
  225SOL  HW2    675   0.921   2.466   2.286 -0.7223  1.4804  0.8417
  226SOL  OW     676   1.230   1.871   0.282 -0.8103  0.5466 -0.2449
  226SOL  HW1    677   1.251   1.951   0.339 -0.1441 -0.3561 -0.0992
  226SOL  HW2    678   1.271   1.878   0.191 -0.2106  0.7709  2.4881
  227SOL  OW     679   0.441   2.337   2.062  0.0325 -0.2925 -0.1499
  227SOL  HW1    680   0.386   2.379   1.986  2.7505  2.9070 -1.8195
  227SOL  HW2    681   0.482   2.254   2.018  1.1136  0.3062 -0.5784
  228SOL  OW     682   2.821   1.985   0.325  0.9735 -1.0364 -0.2059
  228SOL  HW1    683   2.725   2.006   0.359 -0.9653  0.9715 -2.0165
  228SOL  HW2    684   2.873   2.069   0.293 -2.0004  2.0915  1.4132
  229SOL  OW     685   2.431   0.116   2.877 -0.2324 -0.3803  0.5991
  229SOL  HW1    686   2.478   0.148   2.794  1.5047  1.4140 -2.7518
  229SOL  HW2    687   2.347   0.173   2.884  0.9191 -0.0562  0.2297
  230SOL  OW     688   2.831   1.502   0.041 -0.5084 -0.3983 -0.4409
  230SOL  HW1    689   2.763   1.513   3.064  0.4582  0.3164  1.8015
  230SOL  HW2    690   2.828   1.581   0.108 -0.5447 -1.1376  2.7261
  231SOL  OW     691   1.693   1.888   0.317 -0.4860 -0.3621 -0.1829
  231SOL  HW1    692   1.638   1.806   0.293 -0.7953 -0.0139  1.1256
  231SOL  HW2    693   1.775   1.851   0.364 -1.5514  0.2585  0.6969
  232SOL  OW     694   2.242   1.662   1.321 -0.5489  0.7980 -0.6662
  232SOL  HW1    695   2.144   1.641   1.341 -1.6183 -0.7244  0.9225
  232SOL  HW2    696   2.257   1.680   1.221 -0.2588  0.7714 -1.0391
  233SOL  OW     697   0.735   2.171   2.000  0.1599  0.3235  0.0764
  233SOL  HW1    698   0.717   2.133   2.093  0.9934 -0.5624 -3.5908
  233SOL  HW2    699   0.836   2.200   1.994 -0.4889 -0.2039  0.2993
  234SOL  OW     700   0.189   0.086   2.786  0.1176  0.9138 -0.1731
  234SOL  HW1    701   0.169   0.061   2.882 -2.8775  2.2153 -0.4840
  234SOL  HW2    702   0.281   0.045   2.751 -1.0239  0.9547 -0.0887
  235SOL  OW     703   2.938   0.897   1.700 -0.0516 -0.6045  0.4507
  235SOL  HW1    704   2.994   0.850   1.771 -1.5625  0.2111  2.8499
  235SOL  HW2    705   2.855   0.842   1.680  0.4428 -2.2472  0.6721
  236SOL  OW     706   1.121   0.250   1.729  0.2299 -0.6062  0.5270
  236SOL  HW1    707   1.210   0.209   1.713 -0.7202  0.7899  0.8835
  236SOL  HW2    708   1.089   0.310   1.650  0.4460  2.8921  0.4622
  237SOL  OW     709   1.099   1.395   1.882  0.3296  0.0737 -0.0033
  237SOL  HW1    710   1.162   1.336   1.940  0.8820 -0.0715  0.3274
  237SOL  HW2    711   1.122   1.379   1.783  1.3551 -0.8823  2.3263
  238SOL  OW     712   1.130   1.172   2.296  0.5523  0.5137  0.6086
  238SOL  HW1    713   1.042   1.223   2.271  0.6867 -0.7683 -0.6504
  238SOL  HW2    714   1.193   1.186   2.215 -1.3606  1.2169 -1.3011
  239SOL  OW     715   0.890   1.878   1.686  0.4914  0.3468  0.1875
  239SOL  HW1    716   0.906   1.786   1.729  0.5547  2.1421  0.0917
  239SOL  HW2    717   0.986   1.905   1.660  2.3747 -0.5286  1.8393
  240SOL  OW     718   2.382   2.081   1.346  0.9048 -0.7050 -0.0790
  240SOL  HW1    719   2.337   2.170   1.339 -0.2128 -0.2541  1.6456
  240SOL  HW2    720   2.386   2.050   1.444  1.0135 -0.7774 -1.9292
  241SOL  OW     721   0.248   0.726   2.536  0.5937 -0.1791 -0.1734
  241SOL  HW1    722   0.225   0.652   2.607  1.5823 -0.9736 -0.3741
  241SOL  HW2    723   0.234   0.812   2.586  0.2994 -2.5925  3.4648
  242SOL  OW     724   1.427   0.497   1.898  0.3508 -0.0055  0.2451
  242SOL  HW1    725   1.464   0.531   1.988 -0.3456  2.4582  0.9526
  242SOL  HW2    726   1.485   0.423   1.863  1.3513  2.4699  0.7641
  243SOL  OW     727   1.162   2.667   1.966  0.6660 -0.4798  0.0535
  243SOL  HW1    728   1.182   2.565   1.968 -0.0605 -2.2957 -1.2853
  243SOL  HW2    729   1.073   2.685   1.913 -1.9295 -0.6459  1.8767
  244SOL  OW     730   2.729   0.151   2.195 -0.2890 -0.3441  0.4846
  244SOL  HW1    731   2.656   0.087   2.235 -0.2043  0.2670 -0.8199
  244SOL  HW2    732   2.803   0.180   2.254  1.5498  2.7095  2.2976
  245SOL  OW     733   1.362   2.016   0.852  0.0919  0.1895  0.6712
  245SOL  HW1    734   1.413   1.928   0.834  0.3179  1.4271 -0.2160
  245SOL  HW2    735   1.433   2.095   0.859  2.0335 -1.4714 -0.1950
  246SOL  OW     736   1.236   2.783   3.069  0.2712 -0.3595  0.2550
  246SOL  HW1    737   1.229   2.826   2.975  0.7138 -3.4847  0.7362
  246SOL  HW2    738   1.295   2.700   3.062 -2.9833 -1.2332 -0.3212
  247SOL  OW     739   1.607   0.226   1.924  0.1377  0.5832  0.0955
  247SOL  HW1    740   1.575   0.131   1.901  0.2068 -0.5583  1.0792
  247SOL  HW2    741   1.702   0.209   1.960  1.8642 -0.5329 -2.6530
  248SOL  OW     742   0.540   2.157   1.439  0.0227 -0.6823  0.1954
  248SOL  HW1    743   0.454   2.164   1.493  3.2504  0.3578  0.0249
  248SOL  HW2    744   0.564   2.066   1.400  0.2379 -0.2612  0.3056
  249SOL  OW     745   1.365   0.331   2.999  0.1412  0.3504 -0.3237
  249SOL  HW1    746   1.281   0.391   2.986 -1.3212 -3.1402 -1.2449
  249SOL  HW2    747   1.343   0.247   3.052 -1.3786 -2.0483 -0.7077
  250SOL  OW     748   1.575   0.015   2.371 -0.1401  0.1316  0.3874
  250SOL  HW1    749   1.613   0.097   2.325 -1.1825 -0.5830 -1.7313
  250SOL  HW2    750   1.488   0.041   2.424  2.5220  3.4463  0.7287
  251SOL  OW     751   0.553   2.904   2.284 -0.2656  0.2307  0.6024
  251SOL  HW1    752   0.615   2.921   2.362  2.8173 -0.4330  2.0285
  251SOL  HW2    753   0.573   2.967   2.209 -2.1989 -1.1939  1.0838
  252SOL  OW     754   0.987   1.561   0.144  0.0800  0.1353 -0.3550
  252SOL  HW1    755   0.908   1.594   0.088 -0.0153 -2.1761 -0.7382
  252SOL  HW2    756   1.064   1.547   0.079 -0.9937  3.9806 -0.3283
  253SOL  OW     757   2.342   2.758   0.732 -0.5249 -0.2507 -0.3281
  253SOL  HW1    758   2.402   2.691   0.781 -1.7445  3.1404  2.4521
  253SOL  HW2    759   2.280   2.710   0.669 -0.8566  3.3535  0.5762
  254SOL  OW     760   1.862   0.529   1.458 -0.8221  0.2950  0.0133
  254SOL  HW1    761   1.890   0.623   1.492  2.0280  0.6807  0.5898
  254SOL  HW2    762   1.785   0.529   1.392 -0.4563 -1.4347  1.4615
  255SOL  OW     763   0.897   2.885   1.918  0.0495  0.1740 -0.9883
  255SOL  HW1    764   0.884   2.798   1.965  2.2326  1.2803  2.2499
  255SOL  HW2    765   0.967   2.878   1.843 -0.2249  0.2166 -1.0652
  256SOL  OW     766   2.271   2.032   2.532  0.1839 -0.1886  0.0274
  256SOL  HW1    767   2.322   2.058   2.615 -3.0689 -0.8062  0.0594
  256SOL  HW2    768   2.235   1.936   2.542 -0.0545 -0.7006 -0.6577
  257SOL  OW     769   0.229   2.493   2.722  0.1515  0.1163  0.2862
  257SOL  HW1    770   0.279   2.509   2.639 -1.1269  0.2750 -0.0121
  257SOL  HW2    771   0.244   2.407   2.768 -0.0167 -0.5433 -2.0270
  258SOL  OW     772   3.056   2.551   1.172  0.0340 -0.0803  0.8332
  258SOL  HW1    773   2.961   2.560   1.208 -0.8773  0.2444 -1.3794
  258SOL  HW2    774   3.081   2.639   1.136 -1.4948  2.8215  0.4206
  259SOL  OW     775   0.822   0.077   3.010  0.2653  0.2256  0.2797
  259SOL  HW1    776   0.733   0.128   2.986 -1.6742  1.1272  1.1509
  259SOL  HW2    777   0.856   0.021   2.932  0.2367 -1.2956  0.5688
  260SOL  OW     778   0.689   0.120   1.155  0.1175  0.0976  0.0799
  260SOL  HW1    779   0.762   0.149   1.087  2.2164  2.2186  0.3222
  260SOL  HW2    780   0.615   0.192   1.160 -0.4804 -0.1861 -0.8331
  261SOL  OW     781   0.641   0.050   2.542 -1.0921 -0.2899 -0.3477
  261SOL  HW1    782   0.732   0.093   2.566 -2.7107 -2.1301  0.3151
  261SOL  HW2    783   0.657   3.049   2.546 -1.7221 -0.9158  0.3411
  262SOL  OW     784   1.152   0.331   2.397 -0.1786 -0.2268 -0.0786
  262SOL  HW1    785   1.254   0.322   2.405 -0.6786  3.0559 -0.5034
  262SOL  HW2    786   1.101   0.320   2.488  2.3792  0.5456  1.3736
  263SOL  OW     787   2.962   2.512   0.366  0.1172 -0.1783 -1.1088
  263SOL  HW1    788   3.010   2.440   0.427 -0.5003 -0.2988 -0.9044
  263SOL  HW2    789   3.017   2.598   0.379  2.2612 -2.2124  1.7634
  264SOL  OW     790   1.483   1.658   1.302 -0.8637 -0.0264 -0.2986
  264SOL  HW1    791   1.412   1.629   1.227  1.5811 -0.5377 -1.1408
  264SOL  HW2    792   1.582   1.635   1.279  0.1119 -2.2479  1.2329
  265SOL  OW     793   0.729   2.303   0.641 -0.1476  0.1840  0.0610
  265SOL  HW1    794   0.742   2.402   0.663  0.5975 -2.4375  1.3638
  265SOL  HW2    795   0.711   2.281   0.544 -0.8133  0.5804  0.2779
  266SOL  OW     796   2.715   0.611   0.689  0.0027  0.4322 -0.2116
  266SOL  HW1    797   2.666   0.659   0.764  0.9259  0.8307 -0.4765
  266SOL  HW2    798   2.675   0.517   0.676 -0.5033  0.7736 -0.8254
  267SOL  OW     799   1.118   0.257   0.232  0.2575  0.5376 -0.0163
  267SOL  HW1    800   1.027   0.211   0.223  1.5313 -0.6444 -1.5851
  267SOL  HW2    801   1.149   0.259   0.327 -1.1416 -1.7608 -0.1519
  268SOL  OW     802   1.524   0.822   2.604 -0.1886 -0.1336  0.7584
  268SOL  HW1    803   1.615   0.791   2.568 -1.0407 -3.2872 -1.2577
  268SOL  HW2    804   1.529   0.863   2.696 -1.1803  0.8632  1.5254
  269SOL  OW     805   2.817   1.545   1.590  0.1551 -0.5132 -0.2354
  269SOL  HW1    806   2.826   1.442   1.593 -0.7516 -3.2764 -5.2452
  269SOL  HW2    807   2.745   1.577   1.522  0.5301  2.1790  0.6343
  270SOL  OW     808   0.227   1.039   0.606  0.5306 -0.3864  0.1782
  270SOL  HW1    809   0.277   1.038   0.693 -1.2727  0.3649 -1.1139
  270SOL  HW2    810   0.212   1.140   0.584 -0.8677 -0.9640 -0.8811
  271SOL  OW     811   0.199   0.934   0.320  0.2748 -0.1638 -0.8002
  271SOL  HW1    812   0.219   0.956   0.419 -0.1122 -1.7926  0.7515
  271SOL  HW2    813   0.101   0.954   0.298  0.4932 -1.6930  1.1883
  272SOL  OW     814   2.455   2.489   2.628  0.6507 -0.6018  0.4536
  272SOL  HW1    815   2.397   2.567   2.666  1.3269  1.1716  1.5839
  272SOL  HW2    816   2.388   2.416   2.598  1.3413 -0.5825  1.4208
  273SOL  OW     817   2.767   2.750   2.827 -0.5474  0.1390  0.1203
  273SOL  HW1    818   2.744   2.652   2.823  4.6921  0.3556 -0.6939
  273SOL  HW2    819   2.815   2.779   2.747 -0.2780  1.2306  0.7048
  274SOL  OW     820   0.159   2.544   1.432 -0.6230 -0.0271  0.4257
  274SOL  HW1    821   0.226   2.471   1.430 -0.6947  1.9483  1.3140
  274SOL  HW2    822   0.091   2.531   1.360  0.0473  0.6923  0.8743
  275SOL  OW     823   1.870   1.891   2.227  0.2002 -0.1408 -0.4234
  275SOL  HW1    824   1.787   1.836   2.198 -1.7754  1.3992  0.2808
  275SOL  HW2    825   1.864   1.990   2.202 -0.6573 -2.2660  1.0252
  276SOL  OW     826   0.302   1.877   1.508  0.1673  0.0521  0.4314
  276SOL  HW1    827   0.360   1.862   1.591 -0.7346  0.3113 -0.3852
  276SOL  HW2    828   0.310   1.978   1.487  1.2130 -0.3672 -0.7972
  277SOL  OW     829   2.780   0.599   0.384  0.3729 -0.0008 -0.4102
  277SOL  HW1    830   2.762   0.587   0.283  1.2949  0.5162 -1.1318
  277SOL  HW2    831   2.818   0.691   0.399 -0.5378 -1.3560 -1.4469
  278SOL  OW     832   1.422   0.288   2.411 -0.4670  0.4399 -0.3521
  278SOL  HW1    833   1.476   0.336   2.481  1.2114  0.6809  1.3547
  278SOL  HW2    834   1.442   0.307   2.314 -0.2266  1.9163  1.3810
  279SOL  OW     835   1.329   0.139   0.079 -0.1297  0.0275 -0.0169
  279SOL  HW1    836   1.313   0.041   0.051 -1.4105 -1.4365  0.8202
  279SOL  HW2    837   1.250   0.176   0.137  0.7358 -2.0343  1.2856
  280SOL  OW     838   1.653   1.713   1.007 -0.4151  0.0724 -0.6440
  280SOL  HW1    839   1.689   1.761   1.090  0.6073 -0.4974 -2.9560
  280SOL  HW2    840   1.734   1.684   0.953  0.2510 -2.4668  3.0114
  281SOL  OW     841   2.302   1.471   0.558  0.1263  0.2181  0.1392
  281SOL  HW1    842   2.267   1.377   0.556 -1.2643 -2.5422 -1.6743
  281SOL  HW2    843   2.302   1.510   0.469 -2.9003  1.6608 -2.2594
  282SOL  OW     844   2.417   2.059   2.764 -0.4646  0.5301 -0.2417
  282SOL  HW1    845   2.504   2.088   2.714  2.4509  2.7517  1.6369
  282SOL  HW2    846   2.437   1.969   2.810 -0.1269  0.4027  0.7024
  283SOL  OW     847   1.980   2.070   2.669  0.0726 -0.8150  0.7850
  283SOL  HW1    848   1.900   2.133   2.692  0.5322  0.3580  2.1424
  283SOL  HW2    849   1.959   1.997   2.598 -1.7503  1.5406  1.5534
  284SOL  OW     850   0.217   2.997   2.222  0.3750  0.7072 -0.4726
  284SOL  HW1    851   0.212   2.898   2.251  0.9584  1.0948  2.9723
  284SOL  HW2    852   0.276   3.053   2.285 -1.3775 -1.0121  0.9544
  285SOL  OW     853   1.584   1.263   0.382 -0.2794 -0.5372  0.1169
  285SOL  HW1    854   1.636   1.257   0.469  1.5994  1.4289  0.1298
  285SOL  HW2    855   1.636   1.307   0.304  1.2123 -0.3088  0.2976
  286SOL  OW     856   1.403   1.852   2.025  0.0408  0.5500  0.1799
  286SOL  HW1    857   1.353   1.923   2.087 -2.1448 -1.3477  0.7330
  286SOL  HW2    858   1.360   1.761   2.042  0.1199 -0.2886 -0.6598
  287SOL  OW     859   1.320   2.941   1.528 -0.1764  0.0339 -0.8761
  287SOL  HW1    860   1.325   3.033   1.571  3.1672  0.7668  1.1194
  287SOL  HW2    861   1.264   2.942   1.445  0.9098  1.2296 -1.5575
  288SOL  OW     862   0.320   2.685   1.985  0.4226 -0.2787  0.0173
  288SOL  HW1    863   0.356   2.693   2.081 -0.9552 -1.6793  1.2480
  288SOL  HW2    864   0.364   2.761   1.931 -0.6306  0.7074 -1.6587
  289SOL  OW     865   0.409   1.371   0.783 -0.3605 -0.1038 -0.3045
  289SOL  HW1    866   0.344   1.440   0.738 -1.8010 -0.3017 -0.5044
  289SOL  HW2    867   0.504   1.389   0.754 -0.7694 -1.6823  1.9260
  290SOL  OW     868   1.146   2.116   1.752 -0.2051  0.4410 -0.5820
  290SOL  HW1    869   1.162   2.212   1.723  1.6532  0.1168 -0.9870
  290SOL  HW2    870   1.133   2.057   1.669 -0.2923  0.5960  2.3019
  291SOL  OW     871   2.408   0.835   0.496 -0.6235 -0.1246  0.3608
  291SOL  HW1    872   2.407   0.862   0.594  0.0794 -0.2177  1.0210
  291SOL  HW2    873   2.317   0.808   0.465  1.0484  0.2128 -1.6000
  292SOL  OW     874   0.195   0.561   1.081  0.2226 -0.3105  0.1467
  292SOL  HW1    875   0.156   0.473   1.044  1.6619 -0.6358 -2.2897
  292SOL  HW2    876   0.141   0.637   1.042  1.5615  1.1907  2.2808
  293SOL  OW     877   1.898   1.415   1.156 -0.4997 -0.6237 -0.0505
  293SOL  HW1    878   1.974   1.452   1.093 -1.3961 -1.1724  1.0296
  293SOL  HW2    879   1.829   1.356   1.104 -0.6628  0.3684  1.4412
  294SOL  OW     880   0.663   2.893   2.616 -0.5135 -0.6551 -0.1046
  294SOL  HW1    881   0.598   2.816   2.592  2.6781 -0.6827  1.5613
  294SOL  HW2    882   0.753   2.862   2.645  2.6293  2.4064 -1.3410
  295SOL  OW     883   1.284   1.608   0.235 -0.1250 -0.0714  0.4119
  295SOL  HW1    884   1.259   1.585   0.137 -2.3332 -0.0423  0.2828
  295SOL  HW2    885   1.257   1.701   0.259  3.7090 -0.1755 -0.6258
  296SOL  OW     886   1.568   1.632   0.276  0.3247 -0.0677 -0.1740
  296SOL  HW1    887   1.611   1.571   0.202  0.6354 -1.0112 -1.3120
  296SOL  HW2    888   1.466   1.622   0.272  2.0418  0.0521  2.2621
  297SOL  OW     889   1.793   1.148   2.464 -0.2567  0.1815 -0.2175
  297SOL  HW1    890   1.801   1.194   2.561 -2.3693  1.0170 -0.6325
  297SOL  HW2    891   1.853   1.193   2.394  0.3243  1.6599  0.2602
  298SOL  OW     892   1.187   1.460   2.508 -0.2083  0.2094  0.3775
  298SOL  HW1    893   1.148   1.389   2.567  0.3933 -0.6738  0.0405
  298SOL  HW2    894   1.284   1.479   2.527 -0.0521 -0.6589  2.6087
  299SOL  OW     895   1.923   0.951   2.600  0.4355  0.3822  0.4943
  299SOL  HW1    896   1.873   1.032   2.563  0.6117 -3.4706  0.3922
  299SOL  HW2    897   1.894   0.941   2.700  1.2049  3.7848 -2.0018
  300SOL  OW     898   2.209   0.176   1.625 -0.2332 -0.2237  0.3617
  300SOL  HW1    899   2.237   0.106   1.555 -1.8390 -1.7197  0.2050
  300SOL  HW2    900   2.177   0.264   1.584 -1.3202  0.9555  3.5142
  301SOL  OW     901   2.093   0.421   1.578 -0.7952 -0.0111  0.2877
  301SOL  HW1    902   2.174   0.478   1.547  2.9448  3.8992 -0.3163
  301SOL  HW2    903   2.000   0.456   1.543  0.6624  1.1272  1.2916
  302SOL  OW     904   0.444   2.659   2.232  0.4563  0.3647  0.2043
  302SOL  HW1    905   0.506   2.579   2.217  1.7372 -0.0945 -0.3872
  302SOL  HW2    906   0.499   2.744   2.238  1.4819 -1.1323  1.8024
  303SOL  OW     907   2.047   2.005   1.871 -0.2299 -0.3647 -0.9055
  303SOL  HW1    908   1.992   2.075   1.920  1.3875 -0.6041 -0.8076
  303SOL  HW2    909   2.103   1.955   1.941  0.3233  0.7785 -0.1642
  304SOL  OW     910   0.229   2.885   1.023  0.4268 -0.2367  0.2771
  304SOL  HW1    911   0.134   2.846   1.048 -0.7173 -0.4776  0.0187
  304SOL  HW2    912   0.286   2.909   1.107 -0.1350 -0.5453 -0.2266
  305SOL  OW     913   1.295   1.278   2.982  0.1025  0.1136 -0.2625
  305SOL  HW1    914   1.221   1.233   3.039  1.0350 -1.1280  0.4802
  305SOL  HW2    915   1.292   1.239   2.887 -0.0253  1.7489  0.2728
  306SOL  OW     916   0.727   1.545   2.853 -0.2071 -0.3166  0.1154
  306SOL  HW1    917   0.753   1.563   2.949  0.7043 -1.1188  1.5319
  306SOL  HW2    918   0.624   1.535   2.849 -3.1388 -0.1477 -0.8430
  307SOL  OW     919   0.694   1.254   1.174 -0.2505 -0.8372  0.1112
  307SOL  HW1    920   0.749   1.335   1.185 -1.8927 -0.1129  1.5436
  307SOL  HW2    921   0.592   1.266   1.195  1.0212 -0.5754  0.7274
  308SOL  OW     922   1.172   0.425   1.928  0.2278  0.0803 -0.0675
  308SOL  HW1    923   1.148   0.363   1.849 -0.7562  0.9114  2.1290
  308SOL  HW2    924   1.270   0.449   1.918 -1.8151 -0.3955 -1.1333
  309SOL  OW     925   1.226   1.523   3.066 -0.1871  0.1336  0.0001
  309SOL  HW1    926   1.264   1.438   3.027 -1.4482 -4.6869  0.3147
  309SOL  HW2    927   1.269   1.601   3.021  1.0024  3.3535  2.2445
  310SOL  OW     928   1.060   1.193   0.012  0.3493  0.1253  0.0280
  310SOL  HW1    929   1.049   1.092   0.011  1.5827 -2.1247  2.9089
  310SOL  HW2    930   1.080   1.219   0.109 -1.5777 -0.0457  1.9198
  311SOL  OW     931   2.001   3.064   2.850 -0.3365  0.0425  0.5817
  311SOL  HW1    932   2.044   3.029   2.936 -0.5089  0.3252 -2.2799
  311SOL  HW2    933   1.920   0.028   2.866  0.9157 -1.8862  0.2908
  312SOL  OW     934   1.587   2.916   2.873  0.5738  0.8788 -0.1180
  312SOL  HW1    935   1.543   2.830   2.853  2.9392 -0.9768 -0.1059
  312SOL  HW2    936   1.633   2.915   2.967 -1.9135  0.4874  0.2922
  313SOL  OW     937   3.004   0.473   0.491 -0.3901  0.2102  0.1009
  313SOL  HW1    938   2.922   0.519   0.451 -2.4538 -0.6273 -0.4788
  313SOL  HW2    939   3.069   0.544   0.529 -1.3616  0.2021 -0.9385
  314SOL  OW     940   0.498   1.133   2.077  0.3489 -0.4085 -0.3728
  314SOL  HW1    941   0.506   1.125   1.974  1.1463 -0.8534 -0.9563
  314SOL  HW2    942   0.440   1.208   2.108 -0.4334 -0.0301 -1.1163
  315SOL  OW     943   2.300   1.028   1.471  0.1520 -0.4378 -0.1120
  315SOL  HW1    944   2.307   1.105   1.541 -2.0108  0.7276 -1.4153
  315SOL  HW2    945   2.361   0.949   1.490  0.5168 -0.2837 -1.5461
  316SOL  OW     946   0.612   0.812   0.969  0.6677  0.4427 -0.2173
  316SOL  HW1    947   0.689   0.766   1.015 -0.7478  2.0681  0.5988
  316SOL  HW2    948   0.523   0.807   1.017 -3.8366 -1.5360 -0.7772
  317SOL  OW     949   3.047   0.718   3.087 -0.3250 -0.0187  0.0643
  317SOL  HW1    950   2.975   0.763   0.048 -0.7713  0.1007 -0.0148
  317SOL  HW2    951   3.028   0.616   3.086 -0.8426 -0.9317 -1.0160
  318SOL  OW     952   3.083   2.813   1.110  0.4794 -0.3071  0.2593
  318SOL  HW1    953   3.083   2.835   1.209  1.9365  3.6171 -0.6747
  318SOL  HW2    954   3.001   2.836   1.051 -1.4906 -1.8951 -1.2640
  319SOL  OW     955   1.114   1.498   2.802  0.2170 -0.2116  0.3281
  319SOL  HW1    956   1.081   1.593   2.803  2.0762  1.6440 -0.7465
  319SOL  HW2    957   1.096   1.461   2.892  2.3837 -1.0176  1.2872
  320SOL  OW     958   0.993   2.444   1.502 -0.2461 -0.0360  0.0185
  320SOL  HW1    959   1.032   2.459   1.410 -0.3287 -0.9744 -0.3766
  320SOL  HW2    960   0.901   2.398   1.491  0.9647  1.3982  1.3779
  321SOL  OW     961   2.464   2.426   3.034 -0.2822 -0.1934  0.1222
  321SOL  HW1    962   2.540   2.459   2.975 -0.0863 -1.2859  1.4153
  321SOL  HW2    963   2.373   2.409   2.979 -0.2220 -0.0643 -3.3112
  322SOL  OW     964   3.008   2.794   2.636 -0.1486 -0.4202 -0.3743
  322SOL  HW1    965   2.957   2.783   2.550 -0.3165  1.5394  1.2257
  322SOL  HW2    966   3.043   2.888   2.645  0.2643  0.6631  2.3754
  323SOL  OW     967   2.378   0.362   0.099 -0.7442 -0.0719 -0.0685
  323SOL  HW1    968   2.440   0.287   0.059  0.6124 -0.0521  1.5070
  323SOL  HW2    969   2.289   0.354   0.056  0.2766  0.2648  0.0761
  324SOL  OW     970   2.523   1.159   2.519 -0.1899 -0.5562 -0.7054
  324SOL  HW1    971   2.507   1.176   2.421 -0.4613 -0.6203  0.8634
  324SOL  HW2    972   2.545   1.059   2.526  1.7434  0.1050  0.8186
  325SOL  OW     973   2.695   0.517   2.118 -0.4872  0.1523 -0.2797
  325SOL  HW1    974   2.753   0.451   2.170 -2.2529 -0.5879 -2.0292
  325SOL  HW2    975   2.751   0.596   2.080 -0.7789  2.3297  1.9988
  326SOL  OW     976   2.674   2.630   0.108  0.7153 -0.1500 -0.1773
  326SOL  HW1    977   2.587   2.575   0.101 -0.2092  0.9383 -0.0054
  326SOL  HW2    978   2.672   2.699   0.185  0.4742 -1.1089 -1.2492
  327SOL  OW     979   2.505   2.959   0.666  0.0707  0.4137  0.0368
  327SOL  HW1    980   2.456   3.028   0.607  0.7297 -3.5596  4.0042
  327SOL  HW2    981   2.441   2.896   0.714  3.1314 -0.3979 -0.4715
  328SOL  OW     982   0.783   0.604   0.155 -0.1734  0.8529 -0.6051
  328SOL  HW1    983   0.759   0.520   0.208  4.4171 -3.0321 -2.0270
  328SOL  HW2    984   0.877   0.594   0.118  2.1004 -0.1798  2.5811
  329SOL  OW     985   2.349   0.744   1.860 -0.0858  0.0811  0.4359
  329SOL  HW1    986   2.314   0.740   1.953  3.0871  0.6027  0.4316
  329SOL  HW2    987   2.416   0.667   1.839 -2.5236  0.5932 -0.3891
  330SOL  OW     988   1.615   0.527   3.008  0.0163  0.5081 -0.2217
  330SOL  HW1    989   1.542   0.459   3.011 -1.0818 -0.2097 -2.1803
  330SOL  HW2    990   1.584   0.604   3.067 -2.1776  1.1160 -2.7373
  331SOL  OW     991   0.496   2.062   2.550 -0.7103  0.3584  0.2531
  331SOL  HW1    992   0.524   1.966   2.560 -0.3747 -0.8941 -4.0646
  331SOL  HW2    993   0.410   2.080   2.597  1.2975 -1.4855 -1.3878
  332SOL  OW     994   2.007   2.312   0.940 -0.2550 -0.1317  0.2151
  332SOL  HW1    995   2.023   2.229   0.997 -0.3045  0.7207  0.7303
  332SOL  HW2    996   2.004   2.288   0.844 -2.2272 -0.0901 -0.1399
  333SOL  OW     997   2.238   0.139   0.867 -0.4833  0.0007 -0.1262
  333SOL  HW1    998   2.229   0.037   0.882  0.5778  0.4409  0.5393
  333SOL  HW2    999   2.159   0.189   0.905 -0.3280  1.6232 -1.0507
  334SOL  OW    1000   0.013   1.557   1.573  0.0298 -0.0661  0.5722
  334SOL  HW1   1001   0.062   1.606   1.497 -2.1917  1.5958  0.0582
  334SOL  HW2   1002   3.004   1.560   1.555  0.7125  1.3711  2.2094
  335SOL  OW    1003   0.586   2.702   0.573  0.4015  0.3558  0.1072
  335SOL  HW1   1004   0.658   2.641   0.616 -1.4516 -0.2406 -1.3942
  335SOL  HW2   1005   0.586   2.698   0.473  0.3820 -0.5721  0.1769
  336SOL  OW    1006   3.061   0.092   1.418  0.2868  0.2680  0.6776
  336SOL  HW1   1007   0.016   0.121   1.335 -0.4950  1.3435 -2.1358
  336SOL  HW2   1008   0.037   0.083   1.493  2.2639  0.4113  2.8042
  337SOL  OW    1009   0.544   2.224   2.868  0.1470  0.1019  0.0189
  337SOL  HW1   1010   0.557   2.134   2.904  1.8360  0.4641 -2.1866
  337SOL  HW2   1011   0.447   2.228   2.834 -0.1699  1.0200  0.0462
  338SOL  OW    1012   1.092   2.887   1.697 -0.0092  0.3183  1.2308
  338SOL  HW1   1013   1.063   2.972   1.646  1.0410 -0.7197 -0.6556
  338SOL  HW2   1014   1.192   2.880   1.678 -0.5296 -0.5100 -0.5912
  339SOL  OW    1015   0.459   1.515   2.837  0.2858  0.4812  0.1761
  339SOL  HW1   1016   0.408   1.478   2.757 -1.0183  1.5150 -1.9410
  339SOL  HW2   1017   0.437   1.459   2.918  3.0312  0.0308  1.2221
  340SOL  OW    1018   1.687   0.590   1.246  0.0590 -0.5849  0.0026
  340SOL  HW1   1019   1.610   0.577   1.315 -1.2871  2.8252  1.4563
  340SOL  HW2   1020   1.685   0.507   1.188  0.0849 -0.5979 -0.9635
  341SOL  OW    1021   1.104   0.711   0.234 -0.1892  0.2057 -0.6871
  341SOL  HW1   1022   1.163   0.683   0.314 -0.7106 -1.3776  1.0145
  341SOL  HW2   1023   1.066   0.628   0.189 -0.1747  1.4513  0.9492
  342SOL  OW    1024   2.112   1.971   0.393  0.0564  0.2953 -0.5470
  342SOL  HW1   1025   2.101   2.073   0.385  0.3374  1.2407 -2.1703
  342SOL  HW2   1026   2.198   1.930   0.349 -1.0785  1.2411 -1.1618
  343SOL  OW    1027   0.366   2.064   1.114 -0.2503  0.3450 -0.0013
  343SOL  HW1   1028   0.426   2.143   1.118  0.1873 -1.2903  0.5274
  343SOL  HW2   1029   0.275   2.091   1.075  1.9950  0.3191  0.3203
  344SOL  OW    1030   2.172   2.967   0.798 -0.0805  0.1678  0.7112
  344SOL  HW1   1031   2.081   2.921   0.788 -0.2479  2.2665  3.7454
  344SOL  HW2   1032   2.243   2.899   0.821 -1.0023 -0.1047  0.6499
  345SOL  OW    1033   2.584   1.968   0.466  0.0173  0.1303  0.4495
  345SOL  HW1   1034   2.608   1.887   0.523 -3.5642 -0.6880  0.6942
  345SOL  HW2   1035   2.540   2.039   0.524  2.4340  1.3687 -1.8752
  346SOL  OW    1036   1.456   1.501   2.569  0.1737 -0.1906 -0.5076
  346SOL  HW1   1037   1.494   1.485   2.477 -0.9887 -0.9560  0.0106
  346SOL  HW2   1038   1.483   1.432   2.636  0.6694 -0.9197 -3.1778
  347SOL  OW    1039   1.722   2.177   1.641 -0.5661 -1.0239  0.2307
  347SOL  HW1   1040   1.677   2.097   1.679  3.0405 -1.8180 -1.0252
  347SOL  HW2   1041   1.675   2.218   1.559  2.5090  0.5732 -1.5871
  348SOL  OW    1042   0.861   1.981   0.498 -0.4727 -0.4533  0.1441
  348SOL  HW1   1043   0.776   1.930   0.496 -1.6126 -0.5097  0.2277
  348SOL  HW2   1044   0.869   2.025   0.587 -1.6073 -0.0277  1.3140
  349SOL  OW    1045   1.150   1.098   0.894  0.0668  0.9351  0.1239
  349SOL  HW1   1046   1.093   1.133   0.815 -0.8396 -0.5122 -0.1172
  349SOL  HW2   1047   1.124   1.002   0.923  0.2630 -0.2145 -0.9881
  350SOL  OW    1048   0.007   2.334   0.532  1.1726 -0.1817  0.0715
  350SOL  HW1   1049   0.112   2.307   0.525  0.1525 -0.5208 -1.5477
  350SOL  HW2   1050   3.057   2.257   0.583  1.5576  3.4435 -2.4780
  351SOL  OW    1051   0.054   0.427   1.408  0.1247 -0.2889  0.7137
  351SOL  HW1   1052   0.129   0.436   1.473  3.0420  3.3681  1.4629
  351SOL  HW2   1053   0.044   0.334   1.366 -3.2812 -2.0483  0.4268
  352SOL  OW    1054   3.038   1.105   2.812  0.0740 -0.6495 -0.3382
  352SOL  HW1   1055   3.081   1.014   2.786  2.6936  0.5612  0.3103
  352SOL  HW2   1056   3.082   1.144   2.894  0.8929  3.1136 -2.3529
  353SOL  OW    1057   0.787   0.701   2.504 -0.4099 -0.6532 -0.2195
  353SOL  HW1   1058   0.803   0.801   2.522 -1.6179  1.7426 -0.1683
  353SOL  HW2   1059   0.826   0.677   2.409 -0.6070  0.9925  0.4830
  354SOL  OW    1060   1.549   2.919   2.166  0.3610  0.0850  0.3411
  354SOL  HW1   1061   1.446   2.909   2.169 -0.5977  0.6544  0.7893
  354SOL  HW2   1062   1.571   2.989   2.240 -0.4272 -0.5077 -3.7272
  355SOL  OW    1063   2.600   0.899   2.559  0.1244 -0.3172 -0.1276
  355SOL  HW1   1064   2.680   0.904   2.621  0.1573 -1.9812  2.3446
  355SOL  HW2   1065   2.616   0.832   2.485 -1.6291  1.9716  0.0751
  356SOL  OW    1066   0.783   2.251   1.519 -0.1604 -0.4397 -0.2185
  356SOL  HW1   1067   0.683   2.230   1.490 -0.7575 -1.1635  0.3205
  356SOL  HW2   1068   0.786   2.292   1.612  0.5725  1.1095  1.4704
  357SOL  OW    1069   2.684   0.271   1.290  0.3915 -0.0273 -0.0342
  357SOL  HW1   1070   2.636   0.192   1.247  2.1984 -0.3999  0.6528
  357SOL  HW2   1071   2.763   0.293   1.232 -2.5749 -2.4918 -3.2676
  358SOL  OW    1072   1.987   2.416   1.478 -0.2544 -0.1251 -0.3462
  358SOL  HW1   1073   1.984   2.466   1.567 -0.5352 -3.1070 -0.7457
  358SOL  HW2   1074   1.972   2.314   1.493  1.9780 -0.4567  0.3071
  359SOL  OW    1075   2.920   1.965   2.365 -0.1474  0.0611  0.4689
  359SOL  HW1   1076   2.938   1.978   2.265  2.5168  0.0885 -0.9276
  359SOL  HW2   1077   2.825   1.997   2.388 -1.1774  1.3331 -1.7326
  360SOL  OW    1078   1.749   2.733   1.435  0.3600  0.0260  0.5878
  360SOL  HW1   1079   1.783   2.646   1.390 -1.7160 -0.9132  1.4708
  360SOL  HW2   1080   1.662   2.752   1.386  1.0738 -1.7599  1.9815
  361SOL  OW    1081   1.947   2.261   0.646  0.3740 -0.3541 -0.1138
  361SOL  HW1   1082   1.921   2.359   0.653  0.0108 -0.2266  1.6764
  361SOL  HW2   1083   1.872   2.202   0.613 -0.9925 -0.9797 -3.1482
  362SOL  OW    1084   1.378   0.715   0.941  0.1788  0.0344  0.1706
  362SOL  HW1   1085   1.408   0.786   1.012 -1.4375 -2.6028  1.0145
  362SOL  HW2   1086   1.398   0.748   0.845  2.5448 -1.3539  0.2937
  363SOL  OW    1087   2.172   2.688   1.555 -0.3359  0.0925  0.2764
  363SOL  HW1   1088   2.091   2.658   1.603 -0.0547  0.3529 -1.3434
  363SOL  HW2   1089   2.152   2.748   1.476 -0.3398  0.3556 -2.2419
  364SOL  OW    1090   0.958   0.602   1.882 -0.3933 -0.3718 -0.3394
  364SOL  HW1   1091   1.041   0.549   1.904 -0.5124 -2.7266 -1.2897
  364SOL  HW2   1092   0.871   0.553   1.891  0.6351  2.3746  2.4071
  365SOL  OW    1093   1.003   0.319   2.629  0.5124  0.0339  0.1297
  365SOL  HW1   1094   0.974   0.220   2.617 -0.4799 -0.7791  2.0009
  365SOL  HW2   1095   0.937   0.361   2.696  1.5795 -0.9635 -0.0580
  366SOL  OW    1096   2.209   0.969   3.089  0.4678 -0.6890 -0.4239
  366SOL  HW1   1097   2.228   0.986   2.990  0.2788 -3.9097  2.4366
  366SOL  HW2   1098   2.288   0.939   0.047 -1.4287 -0.2570  0.1776
  367SOL  OW    1099   0.369   2.478   2.499 -0.9493 -0.1997 -0.3150
  367SOL  HW1   1100   0.327   2.429   2.414 -0.9972 -1.1746  3.2017
  367SOL  HW2   1101   0.449   2.419   2.529  2.0580 -2.3442 -2.8050
  368SOL  OW    1102   2.959   0.582   1.104  0.2029  0.2101  0.1537
  368SOL  HW1   1103   3.025   0.659   1.109 -0.0677  0.3316  0.4620
  368SOL  HW2   1104   2.898   0.580   1.180 -1.6850 -0.9000 -0.8452
  369SOL  OW    1105   1.076   2.483   2.634  0.6684  0.6744  0.1983
  369SOL  HW1   1106   1.072   2.416   2.558 -0.0564 -1.5538 -2.0375
  369SOL  HW2   1107   1.073   2.581   2.603 -0.5725  1.1353  0.6582
  370SOL  OW    1108   2.041   0.304   0.976 -0.1100  0.2055  0.1955
  370SOL  HW1   1109   2.050   0.401   0.950 -0.2268  1.3466  1.9730
  370SOL  HW2   1110   1.962   0.260   0.931  0.0696 -0.3544  0.9109
  371SOL  OW    1111   0.329   2.452   1.847 -0.5266 -0.7329 -1.0995
  371SOL  HW1   1112   0.396   2.444   1.773  0.5451 -0.6066  0.9807
  371SOL  HW2   1113   0.333   2.540   1.892  2.7583 -0.7412 -0.9849
  372SOL  OW    1114   1.998   0.551   2.161 -0.0961  0.1789 -0.3972
  372SOL  HW1   1115   2.089   0.594   2.159 -1.7208  1.0734 -0.1121
  372SOL  HW2   1116   1.951   0.552   2.071 -0.6455  1.7015 -1.3424
  373SOL  OW    1117   0.168   2.036   0.654  0.4377  1.2030  0.2469
  373SOL  HW1   1118   0.195   2.043   0.554 -1.5298 -0.8829 -0.3146
  373SOL  HW2   1119   0.078   2.083   0.664  0.2522  0.7812 -0.4441
  374SOL  OW    1120   2.654   2.816   2.291 -0.0495 -0.1768 -0.2883
  374SOL  HW1   1121   2.624   2.764   2.202 -1.3659  1.4815  0.1586
  374SOL  HW2   1122   2.753   2.807   2.313  2.4484  0.6984 -1.8688
  375SOL  OW    1123   0.444   2.724   2.566 -1.2050  0.1273 -0.9089
  375SOL  HW1   1124   0.423   2.636   2.518 -0.1894  0.1187  0.0235
  375SOL  HW2   1125   0.365   2.774   2.604 -0.5508  1.3043  2.0413
  376SOL  OW    1126   2.513   2.578   0.840 -0.0146 -0.1776 -0.1732
  376SOL  HW1   1127   2.592   2.599   0.898  1.8598  3.6207 -2.3396
  376SOL  HW2   1128   2.446   2.530   0.894  1.2242 -4.2671 -0.9106
  377SOL  OW    1129   1.256   3.081   2.135  0.0948 -0.4433  0.1913
  377SOL  HW1   1130   1.199   0.066   2.114 -0.2831 -3.4170 -0.3420
  377SOL  HW2   1131   1.286   3.028   2.053  0.9427  1.3814  0.4966
  378SOL  OW    1132   0.097   0.264   0.521  0.0958 -0.1698  0.0410
  378SOL  HW1   1133   0.017   0.327   0.494  0.5504  0.9054  2.6432
  378SOL  HW2   1134   0.060   0.173   0.540  4.1734  1.8545  0.1329
  379SOL  OW    1135   0.603   0.175   2.296 -0.6441 -0.4103  0.2789
  379SOL  HW1   1136   0.617   0.115   2.383  2.1228  2.1177 -1.1890
  379SOL  HW2   1137   0.586   0.122   2.216  0.9446 -3.1384  1.5724
  380SOL  OW    1138   0.468   1.663   1.410 -0.4636  0.3383 -0.4286
  380SOL  HW1   1139   0.460   1.761   1.441 -0.8288  0.6429 -1.5891
  380SOL  HW2   1140   0.547   1.622   1.453 -0.0698  2.1280 -0.6463
  381SOL  OW    1141   0.415   1.011   2.784  0.0538 -0.1290  0.1150
  381SOL  HW1   1142   0.370   1.052   2.864 -2.6733  0.7685 -1.1287
  381SOL  HW2   1143   0.418   0.908   2.791  1.5036 -0.3478  3.1253
  382SOL  OW    1144   1.671   2.519   0.641 -0.2390 -0.0796  0.4769
  382SOL  HW1   1145   1.693   2.476   0.726 -0.2094  1.1696  0.4685
  382SOL  HW2   1146   1.752   2.530   0.580 -0.9212 -0.4395  2.6432
  383SOL  OW    1147   0.630   1.849   0.543 -0.2591 -0.1763 -0.0342
  383SOL  HW1   1148   0.640   1.747   0.549 -0.2692 -1.7474  0.1911
  383SOL  HW2   1149   0.623   1.889   0.634 -1.1207  0.5131 -2.3807
  384SOL  OW    1150   0.860   2.779   2.767 -0.3714 -0.2156  0.2325
  384SOL  HW1   1151   0.946   2.763   2.715 -1.0230 -0.6293  2.0555
  384SOL  HW2   1152   0.810   2.692   2.783 -0.4531 -2.9203  2.1314
  385SOL  OW    1153   2.610   1.746   0.661 -0.0444 -0.1367  0.3216
  385SOL  HW1   1154   2.708   1.738   0.653 -1.4717  1.1031 -2.3309
  385SOL  HW2   1155   2.571   1.658   0.695 -0.3060  2.1021  2.1055
  386SOL  OW    1156   2.891   0.320   1.089  0.2685 -0.1904  0.0551
  386SOL  HW1   1157   2.959   0.245   1.092 -1.8362 -0.9534  1.7688
  386SOL  HW2   1158   2.929   0.416   1.103  2.0220 -0.8070 -0.8510
  387SOL  OW    1159   0.924   1.725   2.284  0.1999  0.2881 -0.2094
  387SOL  HW1   1160   0.997   1.659   2.254  2.0171 -0.9609 -1.2215
  387SOL  HW2   1161   0.836   1.719   2.226  0.5763  1.1907 -0.8565
  388SOL  OW    1162   1.550   1.258   2.653 -0.1213  0.6146 -0.1775
  388SOL  HW1   1163   1.522   1.233   2.559 -1.2015 -0.1031 -1.0472
  388SOL  HW2   1164   1.480   1.222   2.716 -0.8602  1.1366  3.3390
  389SOL  OW    1165   0.973   0.856   2.054 -0.0932 -0.6136 -0.3129
  389SOL  HW1   1166   0.984   0.776   1.989  0.3825 -0.9609 -0.2256
  389SOL  HW2   1167   0.919   0.926   2.011  0.4408  0.6115 -0.3547
  390SOL  OW    1168   2.713   0.160   0.441 -0.0671  0.2935 -0.4934
  390SOL  HW1   1169   2.624   0.185   0.397 -0.0782  0.2152  0.8715
  390SOL  HW2   1170   2.790   0.142   0.375 -0.0363 -1.9246  1.1550
  391SOL  OW    1171   2.377   0.636   1.064  0.0611 -0.3762  0.1315
  391SOL  HW1   1172   2.307   0.665   0.999 -3.2467  0.6736  1.1736
  391SOL  HW2   1173   2.466   0.626   1.017 -0.3764 -1.4971 -1.4403
  392SOL  OW    1174   2.244   2.651   0.038 -0.2086 -0.2616 -0.4548
  392SOL  HW1   1175   2.220   2.735   3.087 -0.6447 -1.3626  0.0756
  392SOL  HW2   1176   2.333   2.611   3.095  0.6538 -2.3619  0.6004
  393SOL  OW    1177   1.951   2.106   3.029 -0.2518 -0.2340  0.1438
  393SOL  HW1   1178   2.034   2.097   2.968  0.3688 -1.2131  0.1471
  393SOL  HW2   1179   1.971   2.167   0.011 -0.6751 -0.9135 -0.4299
  394SOL  OW    1180   0.280   2.211   2.817 -0.2454  0.1792  0.0327
  394SOL  HW1   1181   0.242   2.184   2.727 -0.7529  2.8290 -2.1975
  394SOL  HW2   1182   0.219   2.185   2.898  2.9310  0.8250  2.5708
  395SOL  OW    1183   1.081   2.790   0.940  0.1639 -0.5034 -0.6433
  395SOL  HW1   1184   1.140   2.778   0.854  0.6341 -1.3442 -0.0729
  395SOL  HW2   1185   1.001   2.727   0.944  2.7200 -0.3723 -2.0088
  396SOL  OW    1186   2.627   0.840   0.880 -0.4762  0.5624  0.7128
  396SOL  HW1   1187   2.704   0.902   0.853 -3.6904  0.6518  2.5027
  396SOL  HW2   1188   2.663   0.769   0.946  0.4747 -0.1647 -0.4086
  397SOL  OW    1189   3.010   0.455   3.073 -0.1528  0.0878  0.3058
  397SOL  HW1   1190   0.002   0.401   3.088 -0.8460  1.6195  2.4923
  397SOL  HW2   1191   2.951   0.446   0.058 -1.7699  1.1359  2.6853
  398SOL  OW    1192   2.941   2.765   3.057 -0.3822 -0.4959  0.6992
  398SOL  HW1   1193   2.954   2.679   0.012  1.1951  0.2546 -0.3025
  398SOL  HW2   1194   2.884   2.758   2.973  1.1420 -0.5795 -0.8383
  399SOL  OW    1195   1.987   0.363   1.853  0.2935 -1.0630  0.1784
  399SOL  HW1   1196   2.079   0.379   1.883 -1.6283 -0.7530  0.3757
  399SOL  HW2   1197   1.991   0.387   1.753 -0.6749 -2.9823 -1.3900
  400SOL  OW    1198   1.071   2.450   0.258 -0.1012  0.5474 -0.3393
  400SOL  HW1   1199   1.082   2.350   0.243  0.8634 -0.9348 -2.1671
  400SOL  HW2   1200   1.055   2.506   0.174  0.4249 -1.3291 -1.2102
  401SOL  OW    1201   2.725   1.079   0.041 -0.4468 -0.2807 -0.3587
  401SOL  HW1   1202   2.655   1.134   0.092  0.3126 -0.3854 -0.5879
  401SOL  HW2   1203   2.805   1.138   0.031 -1.4394  1.0616 -0.8931
  402SOL  OW    1204   0.345   0.632   0.552 -0.6160  0.4272  0.0852
  402SOL  HW1   1205   0.339   0.545   0.599 -0.4272 -1.4574 -0.4765
  402SOL  HW2   1206   0.402   0.693   0.607 -2.1834 -1.6764 -0.7369
  403SOL  OW    1207   0.335   1.419   1.712  0.0492  0.3551  0.4259
  403SOL  HW1   1208   0.239   1.388   1.731 -0.5625  0.7303  2.2445
  403SOL  HW2   1209   0.378   1.473   1.788  0.0481 -1.7342 -1.4272
  404SOL  OW    1210   1.885   2.550   0.474 -0.2340 -0.3143  0.8397
  404SOL  HW1   1211   1.834   2.594   0.397  0.9395 -1.7852  0.5018
  404SOL  HW2   1212   1.983   2.544   0.459  1.1588  2.0555 -0.8646
  405SOL  OW    1213   0.078   0.596   1.744 -0.0626  0.2356  0.1539
  405SOL  HW1   1214   0.076   0.650   1.829  0.2776 -4.1517  0.9018
  405SOL  HW2   1215   0.068   0.647   1.655 -0.7432  0.2323  0.1010
  406SOL  OW    1216   1.301   1.141   2.740 -0.1580  0.0242 -0.8657
  406SOL  HW1   1217   1.295   1.038   2.732  0.3155  0.2502 -1.8845
  406SOL  HW2   1218   1.220   1.179   2.694  0.4126  1.1272 -0.9143
  407SOL  OW    1219   1.764   0.750   2.544  0.3191 -0.0715 -0.2304
  407SOL  HW1   1220   1.839   0.818   2.543  0.3167  1.2198 -1.1728
  407SOL  HW2   1221   1.770   0.677   2.616 -0.4694 -1.7595  0.6273
  408SOL  OW    1222   0.223   2.864   2.586 -0.1504 -0.2874  0.1726
  408SOL  HW1   1223   0.210   2.814   2.496  0.9815 -0.9445  0.0716
  408SOL  HW2   1224   0.153   2.938   2.596 -1.1201  2.0664  0.0166
  409SOL  OW    1225   3.069   2.907   1.388 -0.0670  0.7140 -0.0033
  409SOL  HW1   1226   3.062   3.012   1.391 -2.5380 -3.0336  0.7464
  409SOL  HW2   1227   3.093   2.878   1.486 -1.3854  2.3877  1.5847
  410SOL  OW    1228   1.788   2.370   2.927  0.0902  0.1220 -0.0626
  410SOL  HW1   1229   1.863   2.371   2.997  1.2245  1.6348  0.8271
  410SOL  HW2   1230   1.776   2.463   2.899  2.9379 -0.5749 -0.4441
  411SOL  OW    1231   1.688   2.683   2.102  0.1875 -1.1496  0.4276
  411SOL  HW1   1232   1.792   2.678   2.097  3.0358  0.5768  1.1796
  411SOL  HW2   1233   1.671   2.763   2.155  0.0256 -1.7171  0.2101
  412SOL  OW    1234   1.997   0.183   1.217 -0.2258  0.3724  0.3008
  412SOL  HW1   1235   1.900   0.202   1.241  0.2672  0.7281 -0.6923
  412SOL  HW2   1236   2.015   0.244   1.139  4.2724  1.1779 -1.1596
  413SOL  OW    1237   2.670   1.339   2.279 -0.0465 -0.4782 -0.4302
  413SOL  HW1   1238   2.774   1.349   2.267 -0.7462 -1.9472  0.4715
  413SOL  HW2   1239   2.619   1.424   2.300 -2.5572 -2.8870 -2.5190
  414SOL  OW    1240   0.514   1.804   2.824  0.1283  0.0449  0.3934
  414SOL  HW1   1241   0.491   1.712   2.860 -0.3476  1.0375 -1.0066
  414SOL  HW2   1242   0.569   1.801   2.738  0.0430  1.4997  1.6053
  415SOL  OW    1243   1.001   2.586   0.472  0.6221  0.4197 -0.0677
  415SOL  HW1   1244   0.975   2.680   0.446  0.9464 -1.0713 -0.8886
  415SOL  HW2   1245   0.996   2.537   0.384  0.1364 -0.1194  0.3386
  416SOL  OW    1246   0.959   2.788   2.289 -0.3899 -0.2618  0.2730
  416SOL  HW1   1247   1.061   2.770   2.280  1.5867 -0.2929 -1.1845
  416SOL  HW2   1248   0.909   2.700   2.261  3.0740  1.5516  1.4328
  417SOL  OW    1249   0.164   1.016   1.997 -0.5272 -0.3648  0.4993
  417SOL  HW1   1250   0.181   0.998   2.091  0.3624  0.3873  0.5352
  417SOL  HW2   1251   0.106   1.097   1.982 -0.3006  1.8185 -1.3201
  418SOL  OW    1252   2.581   3.034   1.472 -0.1053  0.1182 -0.1801
  418SOL  HW1   1253   2.554   3.031   1.371  1.7333  0.8490  1.3509
  418SOL  HW2   1254   2.672   3.078   1.475 -0.0990 -0.8980 -0.2034
  419SOL  OW    1255   0.111   3.047   0.855 -0.1993  0.7189  0.5598
  419SOL  HW1   1256   0.162   2.978   0.910 -1.8639 -0.8319  1.2450
  419SOL  HW2   1257   0.023   3.077   0.901 -0.9107  1.8692  1.6803
  420SOL  OW    1258   2.584   0.914   1.832 -0.1362  0.5108  0.1153
  420SOL  HW1   1259   2.627   0.919   1.927 -0.0454  1.8110  1.9677
  420SOL  HW2   1260   2.484   0.903   1.840  2.6905  2.0606  0.4266
  421SOL  OW    1261   1.912   1.794   0.407 -0.4046 -0.0253 -0.4548
  421SOL  HW1   1262   1.996   1.857   0.406  0.4502 -3.8937 -0.3010
  421SOL  HW2   1263   1.919   1.716   0.341  0.8673  0.8101  2.2553
  422SOL  OW    1264   0.377   0.695   1.474  0.2578 -0.4453  0.2348
  422SOL  HW1   1265   0.476   0.687   1.493  0.3423  1.7656  0.7475
  422SOL  HW2   1266   0.344   0.789   1.490 -0.3732 -3.8383 -2.1455
  423SOL  OW    1267   1.043   1.757   2.008  0.1025  0.6324 -0.6930
  423SOL  HW1   1268   1.026   1.720   1.918  2.4121 -0.1532  1.7825
  423SOL  HW2   1269   0.977   1.728   2.078 -1.8958  1.0289 -2.5860
  424SOL  OW    1270   1.774   1.802   0.653 -0.3594  0.1512  0.4011
  424SOL  HW1   1271   1.840   1.784   0.574 -2.0399  0.6151  3.0671
  424SOL  HW2   1272   1.689   1.743   0.645 -0.1675  3.1971 -0.5667
  425SOL  OW    1273   2.491   3.063   1.928 -0.0058  0.2336 -0.1234
  425SOL  HW1   1274   2.507   2.997   1.854  2.2884 -0.7901 -1.0069
  425SOL  HW2   1275   2.421   0.042   1.903  0.3443  1.2094  1.5577
  426SOL  OW    1276   0.060   0.290   2.663 -0.2177  0.0463 -0.6041
  426SOL  HW1   1277   3.077   0.313   2.721  1.5145 -0.3605 -1.5859
  426SOL  HW2   1278   0.119   0.215   2.708  0.9177 -2.2098  2.9253
  427SOL  OW    1279   0.883   2.871   0.423  0.1720  0.3283  0.5555
  427SOL  HW1   1280   0.813   2.885   0.351  1.2643  2.1458 -0.3879
  427SOL  HW2   1281   0.838   2.884   0.513 -0.5490 -1.3692  1.2815
  428SOL  OW    1282   2.821   0.067   1.513 -0.9926  0.3926  0.2902
  428SOL  HW1   1283   2.795   0.145   1.570  1.0030 -1.2521  1.0656
  428SOL  HW2   1284   2.907   0.080   1.464 -2.3579  1.4528  0.2961
  429SOL  OW    1285   2.196   2.784   1.047  0.0039  0.3182  0.2630
  429SOL  HW1   1286   2.149   2.858   1.098 -1.8817  2.7643 -2.1273
  429SOL  HW2   1287   2.297   2.792   1.045  0.2773 -2.4635  1.0192
  430SOL  OW    1288   1.328   1.767   2.555 -0.5673 -0.0579 -0.1602
  430SOL  HW1   1289   1.229   1.737   2.553 -1.5365 -3.7442 -2.0286
  430SOL  HW2   1290   1.388   1.686   2.559 -0.2828 -2.9271  1.4816
  431SOL  OW    1291   2.751   2.259   0.883  0.0244  0.1060  0.2446
  431SOL  HW1   1292   2.688   2.254   0.958  1.5673 -3.0383  0.8959
  431SOL  HW2   1293   2.701   2.298   0.798 -2.2523 -0.6033  0.5388
  432SOL  OW    1294   1.921   2.184   2.232  0.2329  0.2120 -0.2474
  432SOL  HW1   1295   1.996   2.140   2.279 -0.5299 -0.7785  0.5898
  432SOL  HW2   1296   1.860   2.232   2.298  1.8066 -0.1741  0.5993
  433SOL  OW    1297   1.432   3.073   0.566 -0.2485 -0.3621 -0.1663
  433SOL  HW1   1298   1.404   2.976   0.553  1.0532  1.4021 -2.5601
  433SOL  HW2   1299   1.390   0.013   0.651 -3.5383 -3.0719 -1.8830
  434SOL  OW    1300   1.767   0.619   2.288  0.0026  0.3633  0.0005
  434SOL  HW1   1301   1.846   0.571   2.249  0.5160  0.2452 -2.4738
  434SOL  HW2   1302   1.788   0.669   2.378 -1.1160 -0.6825 -0.6795
  435SOL  OW    1303   0.511   0.818   0.714  0.1667  0.5367  0.3652
  435SOL  HW1   1304   0.549   0.892   0.656 -1.7644 -1.9461 -0.6421
  435SOL  HW2   1305   0.560   0.807   0.804  0.6357 -2.9985 -0.9774
  436SOL  OW    1306   0.982   2.129   2.557 -0.4232  0.5196 -0.6468
  436SOL  HW1   1307   0.969   2.160   2.657 -1.9900 -2.4248 -1.3709
  436SOL  HW2   1308   1.070   2.080   2.537 -1.3936  0.0108 -1.7103
  437SOL  OW    1309   1.079   2.737   2.550  0.1863  0.1427 -0.1648
  437SOL  HW1   1310   1.162   2.796   2.537 -1.2246  3.3706 -0.3073
  437SOL  HW2   1311   1.006   2.763   2.481 -1.3965  1.3761  0.1036
  438SOL  OW    1312   0.369   0.154   1.273  0.6142  0.7186  0.9719
  438SOL  HW1   1313   0.376   0.190   1.367 -1.4386 -0.2847  0.2757
  438SOL  HW2   1314   0.420   0.213   1.207 -1.0308  0.4059 -0.4084
  439SOL  OW    1315   0.292   1.442   1.440  0.4212 -0.3950 -0.2025
  439SOL  HW1   1316   0.313   1.415   1.538  0.9418 -2.7688  1.2755
  439SOL  HW2   1317   0.318   1.540   1.425 -2.0663 -1.5073 -0.0669
  440SOL  OW    1318   2.224   0.278   2.850 -0.4994  0.3399  0.3533
  440SOL  HW1   1319   2.175   0.262   2.760  0.2756  3.3881 -0.4673
  440SOL  HW2   1320   2.275   0.369   2.853 -0.7087  1.6735  0.6721
  441SOL  OW    1321   0.983   1.625   1.788  0.5131 -0.4277 -0.3459
  441SOL  HW1   1322   1.037   1.551   1.840 -1.1260  0.6886  0.3042
  441SOL  HW2   1323   0.990   1.611   1.688 -2.4004  1.1025 -3.4944
  442SOL  OW    1324   1.030   1.428   0.820  0.0113 -0.4390  0.1317
  442SOL  HW1   1325   1.030   1.351   0.755 -0.4359  2.2965 -0.9282
  442SOL  HW2   1326   1.082   1.409   0.905  3.3747  1.8845  0.5436
  443SOL  OW    1327   3.004   2.413   2.954 -0.5515 -0.2937  0.6439
  443SOL  HW1   1328   2.983   2.474   3.034 -0.3729  0.1125 -0.0772
  443SOL  HW2   1329   3.045   2.469   2.880  1.3634  1.1447  1.6411
  444SOL  OW    1330   2.169   1.319   2.888  0.3167 -0.0962 -0.2287
  444SOL  HW1   1331   2.164   1.416   2.866  1.2323  1.7274  1.0436
  444SOL  HW2   1332   2.225   1.266   2.821  1.7701 -1.6413  1.2050
  445SOL  OW    1333   1.338   2.071   2.267  0.0122  0.3770 -0.4306
  445SOL  HW1   1334   1.330   2.054   2.368 -2.7521  1.1725  1.8222
  445SOL  HW2   1335   1.279   2.154   2.246 -1.7722  3.1404  0.2944
  446SOL  OW    1336   0.621   0.698   1.624 -0.0348  0.0595  0.5654
  446SOL  HW1   1337   0.556   0.702   1.704 -0.5485 -0.9497 -2.8529
  446SOL  HW2   1338   0.688   0.770   1.626 -1.0788  1.5449  0.1058
  447SOL  OW    1339   0.221   0.926   1.504  0.7580 -0.2079 -0.1537
  447SOL  HW1   1340   0.164   0.839   1.503  2.9256  3.7713 -1.0125
  447SOL  HW2   1341   0.165   1.004   1.491  0.6554 -0.6848 -1.8606
  448SOL  OW    1342   1.298   1.090   1.551 -0.2007 -0.1575  0.2003
  448SOL  HW1   1343   1.286   1.021   1.618 -1.0663  2.1595  0.8522
  448SOL  HW2   1344   1.367   1.158   1.584 -0.6083  1.6942  0.0766
  449SOL  OW    1345   0.551   1.103   1.817 -0.1675 -0.3216  0.3190
  449SOL  HW1   1346   0.459   1.059   1.805  0.1093  3.0430 -0.2881
  449SOL  HW2   1347   0.569   1.154   1.731  0.8873 -0.0875  0.2524
  450SOL  OW    1348   1.851   2.144   1.206 -0.0366 -0.1296 -0.0916
  450SOL  HW1   1349   1.931   2.090   1.241 -0.0418 -1.4024 -2.6621
  450SOL  HW2   1350   1.810   2.106   1.119 -0.1151 -2.4091 -0.2471
  451SOL  OW    1351   2.295   1.719   1.594 -0.0233  0.4235 -0.5092
  451SOL  HW1   1352   2.303   1.821   1.611  1.0088 -3.0321  1.3359
  451SOL  HW2   1353   2.291   1.701   1.491 -1.2600  0.5149 -0.5895
  452SOL  OW    1354   0.649   0.854   1.305 -0.3897 -0.2846  0.6701
  452SOL  HW1   1355   0.562   0.905   1.307 -1.8052 -1.9201 -0.0150
  452SOL  HW2   1356   0.729   0.918   1.313 -0.3660  1.9056  0.7234
  453SOL  OW    1357   0.559   2.180   0.865  0.6834 -0.0155 -0.0010
  453SOL  HW1   1358   0.527   2.218   0.954 -0.2113 -1.6921 -2.3769
  453SOL  HW2   1359   0.650   2.225   0.848  0.8413 -0.2404  0.9001
  454SOL  OW    1360   1.299   2.086   0.415  0.2766 -0.3944  0.4162
  454SOL  HW1   1361   1.389   2.136   0.397 -1.0097 -3.4406 -0.6325
  454SOL  HW2   1362   1.249   2.132   0.490 -1.0431 -0.2355  0.8514
  455SOL  OW    1363   1.986   0.574   0.830  0.6876 -0.6998  0.0366
  455SOL  HW1   1364   1.933   0.607   0.913 -1.1176 -0.3950  1.0430
  455SOL  HW2   1365   1.920   0.584   0.752  2.1870 -2.0698 -0.1351
  456SOL  OW    1366   2.133   2.665   0.528  0.0545  0.5154  0.3414
  456SOL  HW1   1367   2.186   2.626   0.447 -1.5881  0.6286  0.4172
  456SOL  HW2   1368   2.077   2.742   0.499 -0.5648  2.5597  1.6845
  457SOL  OW    1369   2.040   1.504   1.926 -0.5878  0.3461 -0.0154
  457SOL  HW1   1370   2.065   1.542   1.837  0.7599 -2.7849  0.6172
  457SOL  HW2   1371   2.116   1.435   1.954 -1.1640 -2.0205  0.4928
  458SOL  OW    1372   2.132   0.052   2.325 -0.0127  0.1356 -0.3227
  458SOL  HW1   1373   2.073   3.063   2.335 -0.8122 -1.0315  4.6547
  458SOL  HW2   1374   2.076   0.133   2.294 -2.4389 -1.9801 -1.6537
  459SOL  OW    1375   2.916   1.780   2.794  0.4419  0.6952  0.2952
  459SOL  HW1   1376   2.994   1.731   2.750  2.0297 -0.9889  0.3252
  459SOL  HW2   1377   2.950   1.875   2.825 -0.9158  1.1475  2.3595
  460SOL  OW    1378   0.391   2.994   0.087  0.5500  0.4267 -0.5692
  460SOL  HW1   1379   0.430   3.088   0.105 -0.1658  0.5632 -0.0822
  460SOL  HW2   1380   0.429   2.953   3.092  4.8670  0.4203  2.5478
  461SOL  OW    1381   2.700   2.539   0.466 -0.1788  0.4684  0.2988
  461SOL  HW1   1382   2.797   2.520   0.436  0.7591  0.5013  1.1854
  461SOL  HW2   1383   2.692   2.638   0.499 -0.3390  2.1117  1.5819
  462SOL  OW    1384   1.648   0.367   2.558 -0.1515  0.2205  0.5950
  462SOL  HW1   1385   1.706   0.381   2.640 -0.2080 -2.0091  4.5969
  462SOL  HW2   1386   1.678   0.290   2.505 -0.5122 -0.5211  2.5379
  463SOL  OW    1387   2.174   2.065   2.285  0.3879 -0.1157  0.4166
  463SOL  HW1   1388   2.208   2.152   2.246 -1.1485  0.5727  0.1644
  463SOL  HW2   1389   2.191   2.055   2.386  1.6224 -0.2801  3.2017
  464SOL  OW    1390   0.121   2.158   0.982 -0.6168  0.3640  0.3109
  464SOL  HW1   1391   0.149   2.247   1.020 -0.4376 -1.9913  2.8994
  464SOL  HW2   1392   0.019   2.147   0.973  2.1246 -1.2829 -0.8350
  465SOL  OW    1393   2.913   3.053   1.984 -0.5221  0.1273  0.1040
  465SOL  HW1   1394   2.956   3.052   1.891 -0.2423 -0.3964  0.5099
  465SOL  HW2   1395   2.824   0.005   1.977 -1.8902 -1.5043 -0.2213
  466SOL  OW    1396   1.395   2.643   2.372  0.4224  0.0707 -0.8775
  466SOL  HW1   1397   1.444   2.567   2.320  1.9738 -1.3999  0.3093
  466SOL  HW2   1398   1.355   2.712   2.312 -0.0631  2.0956  2.3869
  467SOL  OW    1399   2.429   2.163   0.898 -0.4525  0.2981 -0.6393
  467SOL  HW1   1400   2.467   2.138   0.807  1.8219  1.0610  0.5955
  467SOL  HW2   1401   2.374   2.250   0.895 -0.9195  0.9893 -2.7395
  468SOL  OW    1402   2.225   2.420   2.896  0.3234 -0.2867  0.5893
  468SOL  HW1   1403   2.170   2.493   2.848 -0.7580  1.4140  0.6509
  468SOL  HW2   1404   2.209   2.328   2.858  2.2592 -1.4975 -4.1718
  469SOL  OW    1405   0.492   1.831   1.064  0.6796 -0.0794 -0.0566
  469SOL  HW1   1406   0.456   1.745   1.107 -0.9454  1.2576 -0.4101
  469SOL  HW2   1407   0.438   1.914   1.085 -1.0147  1.1416  1.9472
  470SOL  OW    1408   2.030   1.039   0.667 -0.0724  0.5690  0.7986
  470SOL  HW1   1409   1.935   1.025   0.698  1.5428 -2.5520  1.8043
  470SOL  HW2   1410   2.085   1.042   0.754  0.3145  1.8781  2.2976
  471SOL  OW    1411   0.577   1.843   0.289 -0.2737 -0.6047 -0.3884
  471SOL  HW1   1412   0.646   1.881   0.226 -1.7333 -1.7020 -1.3587
  471SOL  HW2   1413   0.591   1.865   0.385  0.5246 -0.8983  1.7013
  472SOL  OW    1414   2.645   2.871   3.040  0.3432  0.2707 -0.5445
  472SOL  HW1   1415   2.639   2.792   0.007 -3.1705  0.9234 -0.0026
  472SOL  HW2   1416   2.690   2.841   2.955 -3.1667 -0.6389 -1.5214
  473SOL  OW    1417   1.273   2.258   1.200  0.2667 -0.8723 -0.5195
  473SOL  HW1   1418   1.213   2.198   1.143 -0.7732  1.2682  1.4031
  473SOL  HW2   1419   1.302   2.223   1.294  3.7970  0.3406  0.5071
  474SOL  OW    1420   2.838   0.020   0.640  0.7920  0.0244 -0.2111
  474SOL  HW1   1421   2.776   0.074   0.582 -0.6857 -0.1453  1.2732
  474SOL  HW2   1422   2.785   3.085   0.724  2.0407  0.0952  1.3540
  475SOL  OW    1423   2.781   0.274   1.702  0.2479 -0.2529 -0.2815
  475SOL  HW1   1424   2.732   0.204   1.759 -0.4078 -0.8695  0.2750
  475SOL  HW2   1425   2.862   0.315   1.748 -0.9092  1.0438  0.7547
  476SOL  OW    1426   0.689   2.957   0.587  0.2695  0.2920  0.2488
  476SOL  HW1   1427   0.646   2.868   0.611  2.2080 -0.7122  1.9306
  476SOL  HW2   1428   0.632   3.015   0.528  0.2771 -2.3341  0.6567
  477SOL  OW    1429   1.574   2.706   1.859  0.3598  0.4815  0.4355
  477SOL  HW1   1430   1.657   2.745   1.808  1.0780  1.4509  2.3838
  477SOL  HW2   1431   1.602   2.680   1.954  1.0053 -2.6367  1.2182
  478SOL  OW    1432   1.034   2.590   0.024 -0.0739 -0.3473 -0.0989
  478SOL  HW1   1433   1.097   2.669   0.032 -1.0425  0.6631  1.9815
  478SOL  HW2   1434   1.047   2.538   3.031  0.7281  1.6769  1.1638
  479SOL  OW    1435   2.626   1.183   1.735  0.4428 -0.2431  0.5478
  479SOL  HW1   1436   2.537   1.222   1.700  0.3683 -1.6396  1.5748
  479SOL  HW2   1437   2.609   1.085   1.750 -0.4957 -1.5806 -1.1324
  480SOL  OW    1438   2.570   2.925   2.512 -0.2117 -0.2830 -0.1684
  480SOL  HW1   1439   2.591   2.869   2.427 -3.0345  1.7116  0.0386
  480SOL  HW2   1440   2.472   2.904   2.534  3.3675 -2.8587 -0.7297
  481SOL  OW    1441   1.887   2.543   1.260 -0.0173  0.2573  0.5658
  481SOL  HW1   1442   1.945   2.487   1.324 -0.2884 -0.3750  4.0939
  481SOL  HW2   1443   1.803   2.487   1.225  0.9742  2.2980  0.8279
  482SOL  OW    1444   1.240   2.800   2.200  0.0171  1.0341 -0.5902
  482SOL  HW1   1445   1.204   2.757   2.115 -0.6200  1.0140  1.6957
  482SOL  HW2   1446   1.207   2.897   2.203  1.0481  3.0691 -1.2703
  483SOL  OW    1447   0.891   0.027   2.024 -0.5540  0.2803 -0.0689
  483SOL  HW1   1448   0.905   3.025   1.996 -0.9744  3.0559  0.8345
  483SOL  HW2   1449   0.977   0.082   2.036 -0.9758 -0.9325 -0.2995
  484SOL  OW    1450   2.165   2.886   1.359  0.0143 -0.0697  0.5355
  484SOL  HW1   1451   2.242   2.949   1.383  0.9318 -1.1623  1.5142
  484SOL  HW2   1452   2.113   2.927   1.283  0.0167  0.4476  1.2401
  485SOL  OW    1453   1.173   1.424   0.389  0.5494  0.2201  0.4806
  485SOL  HW1   1454   1.120   1.472   0.460  1.0627 -2.3530 -3.3529
  485SOL  HW2   1455   1.217   1.491   0.327 -1.4538 -1.2561  1.0030
  486SOL  OW    1456   1.619   0.053   2.722 -0.0701 -0.2593 -1.0015
  486SOL  HW1   1457   1.614   3.056   2.760 -0.9491  1.0209  0.0689
  486SOL  HW2   1458   1.531   0.101   2.733 -1.8156  1.5563  0.0302
  487SOL  OW    1459   1.069   0.927   0.028  0.2347 -0.3084 -0.2242
  487SOL  HW1   1460   1.036   0.860   0.098 -0.8857  0.1468  0.2145
  487SOL  HW2   1461   1.057   0.891   3.026  0.8673 -0.9591  1.0496
  488SOL  OW    1462   2.309   0.153   1.879 -0.1005  0.0121  0.4630
  488SOL  HW1   1463   2.264   0.151   1.790 -0.4048 -1.6827  0.5635
  488SOL  HW2   1464   2.287   0.246   1.914 -1.1688 -0.5935  1.7387
  489SOL  OW    1465   1.290   2.717   0.775  0.0692 -0.4375 -0.4619
  489SOL  HW1   1466   1.292   2.771   0.685 -2.6144  0.9495 -1.7806
  489SOL  HW2   1467   1.385   2.713   0.818  1.3228 -0.6600  0.5482
  490SOL  OW    1468   1.758   0.431   2.806 -0.0178 -0.5378 -0.1077
  490SOL  HW1   1469   1.828   0.501   2.776 -1.3337  0.4334  0.4647
  490SOL  HW2   1470   1.700   0.478   2.873 -1.6542 -0.0751 -0.2944
  491SOL  OW    1471   0.628   2.742   1.371 -0.2527 -0.1559 -0.1511
  491SOL  HW1   1472   0.673   2.832   1.347  0.4463  1.7839  2.0080
  491SOL  HW2   1473   0.669   2.707   1.459  1.4841 -0.5145 -2.2104
  492SOL  OW    1474   1.439   2.560   0.025 -0.3234  0.6087  0.7784
  492SOL  HW1   1475   1.476   2.605   0.110 -0.7491 -0.2420  1.7096
  492SOL  HW2   1476   1.496   2.475   0.010 -1.0061  0.1377 -0.0195
  493SOL  OW    1477   1.081   2.439   2.902 -0.2659  0.2497  0.3702
  493SOL  HW1   1478   1.095   2.463   2.803  2.3264 -0.8239  1.0198
  493SOL  HW2   1479   1.164   2.400   2.940 -0.3094 -1.6454  1.4320
  494SOL  OW    1480   0.666   2.922   0.252 -0.3847  0.1973 -0.0112
  494SOL  HW1   1481   0.600   2.845   0.272 -0.1122 -0.8609 -1.9566
  494SOL  HW2   1482   0.688   2.933   0.154 -0.7279  0.1564 -0.0427
  495SOL  OW    1483   2.931   2.802   2.340  0.2629  0.0290  0.7099
  495SOL  HW1   1484   2.979   2.888   2.312 -1.6052 -1.6533  1.7734
  495SOL  HW2   1485   2.983   2.722   2.298  2.4837  2.7019 -0.4958
  496SOL  OW    1486   0.027   1.660   2.664 -0.1874 -0.0978  0.3387
  496SOL  HW1   1487   0.114   1.708   2.644 -0.6957  1.0504 -1.3297
  496SOL  HW2   1488   0.046   1.584   2.730  0.3252  0.0184  0.1706
  497SOL  OW    1489   2.264   1.206   2.652 -0.4009  0.3966 -0.3037
  497SOL  HW1   1490   2.204   1.189   2.576  1.1342 -0.0957 -1.4214
  497SOL  HW2   1491   2.366   1.198   2.624  0.0988 -2.5080 -1.0290
  498SOL  OW    1492   0.352   2.765   1.430 -0.1442 -0.1786 -0.2222
  498SOL  HW1   1493   0.297   2.677   1.421  0.0624 -0.9129  3.4265
  498SOL  HW2   1494   0.450   2.749   1.410 -3.0345  1.7063 -1.3751
  499SOL  OW    1495   2.958   1.802   1.267 -0.6754  0.2213  0.2395
  499SOL  HW1   1496   3.034   1.774   1.327  0.1215  1.7208  1.8528
  499SOL  HW2   1497   2.874   1.764   1.308 -0.4847 -1.7359 -0.8752
  500SOL  OW    1498   0.260   2.440   0.128 -0.0558  0.5600  0.1769
  500SOL  HW1   1499   0.234   2.510   0.058  0.6538 -0.3297  2.1729
  500SOL  HW2   1500   0.242   2.482   0.220 -0.1314 -1.1588 -4.1313
  501SOL  OW    1501   1.498   2.678   0.266  0.1001 -0.5353  0.2463
  501SOL  HW1   1502   1.504   2.779   0.276 -1.5725 -2.2241 -1.5199
  501SOL  HW2   1503   1.418   2.642   0.319  2.0739  1.1507  2.1139
  502SOL  OW    1504   2.527   0.554   0.450 -0.3877 -0.0842 -0.7813
  502SOL  HW1   1505   2.626   0.568   0.451 -1.3904 -2.2059 -0.1236
  502SOL  HW2   1506   2.478   0.634   0.488  0.2868  0.4691  0.2000
  503SOL  OW    1507   1.115   0.220   2.111  1.0039  0.9110  0.6803
  503SOL  HW1   1508   1.126   0.298   2.044 -0.9454 -0.2124  1.0920
  503SOL  HW2   1509   1.046   0.246   2.180 -2.5147  1.9337  0.7207
  504SOL  OW    1510   2.181   2.191   1.688  0.9653 -0.5091 -0.2617
  504SOL  HW1   1511   2.126   2.132   1.747 -1.0539 -1.1686  1.1405
  504SOL  HW2   1512   2.123   2.232   1.612 -1.4627  1.6765 -0.0686
  505SOL  OW    1513   1.353   2.876   1.889  0.6138  0.1304  0.0228
  505SOL  HW1   1514   1.275   2.817   1.904 -2.5959 -0.2092  1.3757
  505SOL  HW2   1515   1.436   2.816   1.877 -1.8922  0.6952  1.0939
  506SOL  OW    1516   2.905   0.907   2.481 -0.5825  0.4233  0.0928
  506SOL  HW1   1517   2.874   0.902   2.577  1.8651 -1.9394 -0.1045
  506SOL  HW2   1518   2.932   1.002   2.452  1.9566 -0.7207 -0.8568
  507SOL  OW    1519   1.777   1.030   0.730  0.3536 -0.2830 -0.3573
  507SOL  HW1   1520   1.713   1.032   0.808 -0.0935  0.1624 -0.9809
  507SOL  HW2   1521   1.782   1.113   0.668 -0.5023  1.4718 -0.0966
  508SOL  OW    1522   2.084   0.780   1.779  0.1748 -0.2616  0.9272
  508SOL  HW1   1523   2.041   0.873   1.786  0.6645  0.7364  2.5886
  508SOL  HW2   1524   2.174   0.775   1.833  0.3693  0.0969 -2.1159
  509SOL  OW    1525   0.368   1.458   0.197 -0.0321 -0.1496  0.7472
  509SOL  HW1   1526   0.408   1.518   0.272 -2.2723  0.0756 -0.8507
  509SOL  HW2   1527   0.270   1.439   0.220 -1.8199  1.9678  2.5290
  510SOL  OW    1528   0.428   1.336   3.040 -0.2374  0.2127 -0.1340
  510SOL  HW1   1529   0.384   1.245   3.036  0.9472 -3.5348 -1.4407
  510SOL  HW2   1530   0.404   1.392   0.028  1.7081 -1.8857  2.2927
  511SOL  OW    1531   1.264   1.028   1.267  0.0938 -0.1103  0.0607
  511SOL  HW1   1532   1.181   0.970   1.248 -0.3349 -1.5233  0.7677
  511SOL  HW2   1533   1.283   1.053   1.365  0.5070 -0.1220 -0.4067
  512SOL  OW    1534   0.330   1.439   1.033  0.1002 -0.1096  0.7137
  512SOL  HW1   1535   0.378   1.426   0.941 -0.8666 -1.0852  0.2369
  512SOL  HW2   1536   0.359   1.368   1.096  0.0347 -1.4142  2.3784
  513SOL  OW    1537   0.517   2.537   1.181  0.1585 -0.1137  0.4079
  513SOL  HW1   1538   0.573   2.589   1.248 -0.2215 -2.2346  2.5560
  513SOL  HW2   1539   0.488   2.593   1.100  2.0906  3.1423  2.0515
  514SOL  OW    1540   0.306   2.306   0.491  0.0729 -0.8242 -0.3064
  514SOL  HW1   1541   0.350   2.248   0.421  0.4582  0.8992  1.8753
  514SOL  HW2   1542   0.332   2.282   0.589  1.7896  2.6177  1.0896
  515SOL  OW    1543   2.386   0.494   2.836  0.3344  0.7133 -0.5323
  515SOL  HW1   1544   2.422   0.567   2.897  2.0155 -1.2170 -2.7734
  515SOL  HW2   1545   2.460   0.469   2.775  0.6333  2.4666  0.3112
  516SOL  OW    1546   1.413   2.689   1.614  0.0325 -0.2852 -0.1570
  516SOL  HW1   1547   1.379   2.785   1.593 -0.8985  2.4104 -1.1627
  516SOL  HW2   1548   1.461   2.684   1.702 -1.6687  1.3097  2.3285
  517SOL  OW    1549   1.859   1.484   0.668  0.1183  0.4222 -0.6222
  517SOL  HW1   1550   1.849   1.533   0.759 -2.0015  3.2909  0.0598
  517SOL  HW2   1551   1.808   1.536   0.599  0.1827  1.2702  0.0790
  518SOL  OW    1552   2.475   0.139   1.003 -0.0949 -0.1872 -0.4868
  518SOL  HW1   1553   2.530   0.225   1.003 -0.2559 -0.6636  0.3789
  518SOL  HW2   1554   2.388   0.154   0.956  1.8098  2.6754  0.4147
  519SOL  OW    1555   2.168   3.079   0.570  0.0926 -0.2846  0.5107
  519SOL  HW1   1556   2.182   3.033   0.659  1.7094 -1.1686  0.2017
  519SOL  HW2   1557   2.256   3.095   0.519  1.2024  0.6563 -2.3382
  520SOL  OW    1558   2.250   1.581   2.382  0.5467  0.0676  0.3953
  520SOL  HW1   1559   2.183   1.575   2.305 -0.4458 -1.8531  2.7829
  520SOL  HW2   1560   2.225   1.657   2.449 -1.1996 -2.5254 -0.6632
  521SOL  OW    1561   0.895   3.038   2.336 -0.2616 -0.1616 -0.0114
  521SOL  HW1   1562   0.883   3.094   2.253  0.2941 -0.0308 -1.7388
  521SOL  HW2   1563   0.910   2.941   2.309  1.3164  0.8030  1.3842
  522SOL  OW    1564   0.524   2.492   1.662  0.6719 -0.1454  0.8303
  522SOL  HW1   1565   0.470   2.490   1.576 -0.2634 -2.8450  1.6000
  522SOL  HW2   1566   0.584   2.576   1.663 -1.1803  0.6380  1.5499
  523SOL  OW    1567   0.689   2.381   2.717 -0.0522  0.0084  0.1258
  523SOL  HW1   1568   0.634   2.324   2.785  1.7828 -0.4167 -0.8847
  523SOL  HW2   1569   0.716   2.470   2.762 -2.2259  0.5433  0.5988
  524SOL  OW    1570   2.220   2.288   0.303 -0.0855 -0.3862  0.7338
  524SOL  HW1   1571   2.301   2.256   0.254  0.8131 -1.3223 -0.4369
  524SOL  HW2   1572   2.218   2.389   0.295 -2.4521  0.9893  1.2728
  525SOL  OW    1573   2.367   0.117   2.390  0.3410 -0.9600 -0.2499
  525SOL  HW1   1574   2.269   0.092   2.380 -2.3399  1.7116 -0.6842
  525SOL  HW2   1575   2.418   0.059   2.325  1.2802  0.6110  3.4400
  526SOL  OW    1576   0.228   2.374   1.126  1.0327  0.2365 -0.8021
  526SOL  HW1   1577   0.161   2.445   1.150 -0.7397  0.8030  0.4940
  526SOL  HW2   1578   0.323   2.412   1.120 -0.0227 -2.2492 -0.9893
  527SOL  OW    1579   0.241   0.421   0.688 -0.1303 -0.1030 -0.1708
  527SOL  HW1   1580   0.206   0.517   0.672 -1.6283 -0.3068  0.3924
  527SOL  HW2   1581   0.180   0.359   0.631 -0.0851 -3.2850  1.2556
  528SOL  OW    1582   0.121   1.875   1.929 -0.3806 -0.1041 -0.1169
  528SOL  HW1   1583   0.201   1.938   1.947 -0.8183 -1.2070  0.2738
  528SOL  HW2   1584   0.090   1.885   1.833  0.1414  1.0883 -0.2716
  529SOL  OW    1585   1.262   2.033   2.533  0.2221  0.9870  0.5624
  529SOL  HW1   1586   1.303   2.079   2.616  0.1645  0.8744  0.6491
  529SOL  HW2   1587   1.299   1.938   2.525  2.1820  0.4446  1.4956
  530SOL  OW    1588   0.882   0.678   2.250 -0.2553 -0.5600 -0.2064
  530SOL  HW1   1589   0.943   0.594   2.237 -0.8691  1.3878  0.5665
  530SOL  HW2   1590   0.916   0.762   2.204 -1.2463  0.6815  0.9758
  531SOL  OW    1591   0.896   2.086   0.260 -0.2458  0.3628  0.5097
  531SOL  HW1   1592   0.990   2.128   0.245 -0.5846  0.2813  0.2798
  531SOL  HW2   1593   0.892   2.044   0.349  0.8667 -2.1343 -0.9339
  532SOL  OW    1594   2.591   0.760   2.342  0.4491  0.3831 -0.1694
  532SOL  HW1   1595   2.501   0.720   2.346  1.4878 -0.3613  0.1125
  532SOL  HW2   1596   2.614   0.799   2.254  3.5014 -2.6728  1.2434
  533SOL  OW    1597   2.987   0.705   2.333  0.5533 -0.6430 -0.2064
  533SOL  HW1   1598   2.946   0.781   2.380  2.1426  0.4188 -0.1618
  533SOL  HW2   1599   3.021   0.642   2.406 -1.6876  0.1964 -0.1774
  534SOL  OW    1600   2.060   0.125   0.178 -0.1493  0.7846 -0.4485
  534SOL  HW1   1601   1.970   0.116   0.140  2.7179  0.4771 -3.7917
  534SOL  HW2   1602   2.071   0.155   0.274 -3.4009 -1.2846 -4.2724
  535SOL  OW    1603   0.152   0.549   2.713 -0.0742 -0.0071 -0.8917
  535SOL  HW1   1604   0.128   0.462   2.664  0.1206  1.7457 -1.0308
  535SOL  HW2   1605   0.230   0.538   2.778  0.7906  2.1153 -1.1996
  536SOL  OW    1606   0.884   2.118   0.758 -0.1614 -0.4225 -0.8074
  536SOL  HW1   1607   0.953   2.169   0.813 -0.5794  0.5502  1.7835
  536SOL  HW2   1608   0.836   2.186   0.700  0.1885 -1.8710  0.3474
  537SOL  OW    1609   2.414   1.894   2.058 -0.4844 -0.7617  0.7929
  537SOL  HW1   1610   2.444   1.974   2.119 -1.4058  0.4937  0.1696
  537SOL  HW2   1611   2.314   1.878   2.077 -1.2596 -2.7666 -2.1100
  538SOL  OW    1612   0.797   2.176   1.223  0.0879  0.2786  0.0435
  538SOL  HW1   1613   0.840   2.186   1.317 -0.2811 -0.5372  1.7334
  538SOL  HW2   1614   0.836   2.094   1.181 -1.2720  1.4778 -0.1069
  539SOL  OW    1615   2.480   1.455   1.939  0.0208  0.4926  0.0971
  539SOL  HW1   1616   2.566   1.396   1.937 -0.7277  0.0124  0.7709
  539SOL  HW2   1617   2.494   1.541   1.987  1.0971  0.7625 -0.0788
  540SOL  OW    1618   2.299   1.002   2.828 -0.1288  0.3899 -0.1494
  540SOL  HW1   1619   2.264   1.062   2.756  2.2029 -4.0622  0.9217
  540SOL  HW2   1620   2.308   0.903   2.790 -0.7865  2.3101  1.5565
  541SOL  OW    1621   1.623   1.789   2.157  0.1793 -0.2574  0.9759
  541SOL  HW1   1622   1.544   1.808   2.090  1.4487 -2.3125  0.0414
  541SOL  HW2   1623   1.647   1.691   2.175 -0.3014  2.6128 -2.9475
  542SOL  OW    1624   2.046   1.643   1.699  0.5345 -0.6093  0.0540
  542SOL  HW1   1625   2.132   1.661   1.654  2.6946 -3.2617  0.7421
  542SOL  HW2   1626   1.987   1.728   1.696 -2.7284 -1.0449  2.2238
  543SOL  OW    1627   2.960   2.092   0.924  0.0812 -0.0790  0.4379
  543SOL  HW1   1628   2.948   2.024   0.999  1.2021 -2.6476 -0.6421
  543SOL  HW2   1629   2.877   2.148   0.914  0.7711  1.3828 -2.6301
  544SOL  OW    1630   0.265   2.043   2.316 -0.1216  0.5052  0.4395
  544SOL  HW1   1631   0.341   2.023   2.252  0.2386  2.6902 -2.2981
  544SOL  HW2   1632   0.200   1.969   2.321  0.9875  0.2677 -1.5176
  545SOL  OW    1633   1.755   0.191   2.270 -0.0783 -0.6170 -0.7036
  545SOL  HW1   1634   1.735   0.147   2.181 -0.8773 -3.0415  0.6564
  545SOL  HW2   1635   1.836   0.255   2.267  2.4183  0.8296  0.2072
  546SOL  OW    1636   0.164   0.323   0.024 -0.1906 -0.0536  0.0277
  546SOL  HW1   1637   0.187   0.351   0.116  1.7081 -0.0512 -1.4731
  546SOL  HW2   1638   0.154   0.221   0.012 -0.5347  0.4794 -0.7989
  547SOL  OW    1639   1.754   2.621   0.236  0.0925  0.2282 -0.5799
  547SOL  HW1   1640   1.804   2.670   0.163 -2.2074  2.8975  0.1641
  547SOL  HW2   1641   1.652   2.633   0.227  0.7709 -3.2937 -4.5041
  548SOL  OW    1642   1.173   2.079   3.058 -0.4581 -0.0884  0.2463
  548SOL  HW1   1643   1.245   2.014   3.092 -0.8787 -0.8972  0.0311
  548SOL  HW2   1644   1.094   2.027   3.018 -1.4952 -0.3378  0.1733
  549SOL  OW    1645   1.801   0.877   0.256  0.6071  0.0073  0.2675
  549SOL  HW1   1646   1.855   0.889   0.343  2.3628 -0.9203 -0.9228
  549SOL  HW2   1647   1.790   0.776   0.238  3.4486  1.4010  1.3397
  550SOL  OW    1648   2.663   2.831   0.291 -0.3007  0.2346 -0.3856
  550SOL  HW1   1649   2.591   2.905   0.288  0.4348 -0.8584 -0.4069
  550SOL  HW2   1650   2.671   2.803   0.390 -1.0754 -2.5831 -0.1361
  551SOL  OW    1651   1.099   3.038   0.405 -0.4075  0.5671 -0.3019
  551SOL  HW1   1652   1.148   3.035   0.316 -2.0663  1.7054  0.5059
  551SOL  HW2   1653   1.021   2.969   0.398 -1.0221  0.4584 -2.3998
  552SOL  OW    1654   1.084   0.980   2.487  0.5086  0.0820 -0.4851
  552SOL  HW1   1655   0.986   0.990   2.501  2.6400 -1.2699  0.0653
  552SOL  HW2   1656   1.114   1.030   2.409 -0.6382 -0.4095  0.6102
  553SOL  OW    1657   2.312   2.403   0.931 -0.0604  0.2456  0.0880
  553SOL  HW1   1658   2.260   2.420   1.017  0.6569 -0.8432  2.6583
  553SOL  HW2   1659   2.254   2.442   0.854 -0.6510 -2.2539 -1.4712
  554SOL  OW    1660   2.023   1.918   1.338  0.5844  0.4943 -0.2279
  554SOL  HW1   1661   2.057   1.918   1.242 -1.3406  1.1281 -1.5376
  554SOL  HW2   1662   2.017   1.822   1.371 -1.6712  2.2365  1.3477
  555SOL  OW    1663   0.085   2.162   3.001  0.0543 -1.1627 -0.1366
  555SOL  HW1   1664   0.102   2.147   0.006 -0.2329 -3.2575 -0.2752
  555SOL  HW2   1665   0.007   2.226   2.985 -2.7430  1.9609  1.9046
  556SOL  OW    1666   0.993   0.369   1.505  0.1912 -0.3499 -0.3510
  556SOL  HW1   1667   1.044   0.377   1.415  0.2333 -1.5268  3.3556
  556SOL  HW2   1668   0.912   0.435   1.501 -0.3038  0.4706 -0.4453
  557SOL  OW    1669   1.935   0.101   1.626 -0.4439  0.3758  0.0093
  557SOL  HW1   1670   2.023   0.145   1.648  1.7211 -3.3091 -0.1294
  557SOL  HW2   1671   1.952   0.019   1.563  2.8007 -0.6361 -2.5851
  558SOL  OW    1672   0.121   0.618   2.177 -0.1517  0.2453 -0.0790
  558SOL  HW1   1673   0.204   0.665   2.216 -0.4098 -0.8731 -1.8337
  558SOL  HW2   1674   0.036   0.638   2.237 -0.4180 -1.2404 -0.4094
  559SOL  OW    1675   1.101   2.532   0.719 -0.8323 -0.4394  0.0287
  559SOL  HW1   1676   1.160   2.608   0.745  1.2343  0.3450 -1.6965
  559SOL  HW2   1677   1.063   2.543   0.626  1.4349 -0.4241 -1.5832
  560SOL  OW    1678   1.981   2.274   0.151  0.2567 -0.1589 -0.7382
  560SOL  HW1   1679   2.001   2.351   0.085 -0.5725  0.7260 -2.7677
  560SOL  HW2   1680   2.065   2.252   0.205 -0.7165  0.0012  1.0514
  561SOL  OW    1681   2.054   3.008   1.135 -0.0751  0.1076  0.4394
  561SOL  HW1   1682   2.053   0.010   1.157  0.8199 -0.9968 -2.2091
  561SOL  HW2   1683   1.982   2.983   1.065  1.0570 -2.9956 -2.3968
  562SOL  OW    1684   0.613   1.107   2.350 -0.3931  0.0289 -0.0488
  562SOL  HW1   1685   0.556   1.109   2.262 -0.1355 -0.6368  1.9077
  562SOL  HW2   1686   0.682   1.178   2.349 -0.1773 -0.0947 -0.5142
  563SOL  OW    1687   0.817   1.929   2.410  0.7704  0.1569  0.1289
  563SOL  HW1   1688   0.877   1.861   2.363  0.2759  0.0232 -0.2374
  563SOL  HW2   1689   0.869   1.999   2.463 -3.6556 -2.3739 -0.8724
  564SOL  OW    1690   2.321   0.515   1.300 -0.5244 -0.4967 -0.6262
  564SOL  HW1   1691   2.351   0.554   1.210 -0.5510  2.6619 -1.8601
  564SOL  HW2   1692   2.277   0.579   1.363  1.3100 -1.4163 -0.1967
  565SOL  OW    1693   1.367   1.310   0.542  0.3435 -0.6239  0.4750
  565SOL  HW1   1694   1.439   1.275   0.479  0.2500  1.9668 -0.8721
  565SOL  HW2   1695   1.285   1.330   0.486  0.2343 -0.1806 -0.0324
  566SOL  OW    1696   1.705   2.966   0.023  0.1216  0.1266  0.1802
  566SOL  HW1   1697   1.762   2.886   0.045 -2.9863  1.6477 -0.0019
  566SOL  HW2   1698   1.757   3.054   0.026 -1.9504 -2.1343 -0.7755
  567SOL  OW    1699   1.655   0.861   1.310 -0.0280  0.3589 -0.5316
  567SOL  HW1   1700   1.654   0.884   1.411 -2.9954  1.4216  0.5996
  567SOL  HW2   1701   1.654   0.759   1.298  0.2239  1.8662  0.0333
  568SOL  OW    1702   1.831   1.279   2.688  0.5993 -0.5027 -0.0493
  568SOL  HW1   1703   1.873   1.240   2.771  1.2356 -0.0418 -0.5690
  568SOL  HW2   1704   1.728   1.259   2.687 -0.8081  2.5588  0.2599
  569SOL  OW    1705   2.016   1.113   0.986 -0.2641 -0.2931 -0.0888
  569SOL  HW1   1706   1.925   1.155   0.982 -0.4641  1.9158  3.1164
  569SOL  HW2   1707   2.086   1.190   1.003 -2.0439 -2.1799 -2.8903
  570SOL  OW    1708   2.516   0.168   2.611  0.1601 -0.1078 -0.0123
  570SOL  HW1   1709   2.609   0.134   2.592 -0.8787  0.5248  3.2566
  570SOL  HW2   1710   2.460   0.154   2.530  0.9069 -1.5743 -1.3692
  571SOL  OW    1711   3.009   2.285   1.541  0.3412 -0.2709 -0.0678
  571SOL  HW1   1712   3.072   2.246   1.481 -1.4026  1.9483 -0.6729
  571SOL  HW2   1713   3.009   2.246   1.637  1.7137  0.5622  1.8015
  572SOL  OW    1714   1.563   2.321   2.576 -0.1335 -1.2510 -0.1414
  572SOL  HW1   1715   1.593   2.314   2.478  0.2778 -3.4734  1.3892
  572SOL  HW2   1716   1.496   2.394   2.586 -0.0521  0.6500  0.3413
  573SOL  OW    1717   1.596   1.952   1.694  0.0142  0.1143  0.2254
  573SOL  HW1   1718   1.523   1.991   1.755 -3.3174  0.6390  1.6828
  573SOL  HW2   1719   1.553   1.901   1.612  1.7311 -2.1331  1.5744
  574SOL  OW    1720   1.036   0.001   1.559  0.3496  0.0318  0.7121
  574SOL  HW1   1721   0.932   0.005   1.557  1.6183 -0.0165 -1.0936
  574SOL  HW2   1722   1.076   0.092   1.562 -0.6351 -0.5150  1.5503
  575SOL  OW    1723   0.454   0.044   0.516 -0.1565 -0.1116 -0.4112
  575SOL  HW1   1724   0.474   0.031   0.615  0.4163 -0.5997  1.7223
  575SOL  HW2   1725   0.371   3.082   0.490 -0.7430  0.3721  1.1222
  576SOL  OW    1726   2.368   1.222   1.644  0.4040  0.1684  0.3217
  576SOL  HW1   1727   2.328   1.182   1.727  0.4687 -0.1693  1.1037
  576SOL  HW2   1728   2.374   1.327   1.652 -1.3655 -0.4278 -1.5812
  577SOL  OW    1729   1.812   0.600   0.243  0.5403  0.3008  0.6078
  577SOL  HW1   1730   1.717   0.570   0.244  1.6582 -1.3981  0.5362
  577SOL  HW2   1731   1.858   0.579   0.153  0.5082 -1.9711 -2.2737
  578SOL  OW    1732   1.604   2.300   1.438 -0.6769  0.2711 -0.1699
  578SOL  HW1   1733   1.647   2.329   1.356 -0.8482  0.4066  0.1870
  578SOL  HW2   1734   1.529   2.364   1.460  3.2690 -2.3530 -1.1646
  579SOL  OW    1735   0.584   1.906   1.366  0.6382 -0.3011  0.4591
  579SOL  HW1   1736   0.676   1.859   1.373 -0.4766  2.1045 -0.8839
  579SOL  HW2   1737   0.548   1.901   1.268  0.5284  1.9646 -0.3879
  580SOL  OW    1738   1.768   2.947   0.428 -0.5354  0.0395 -0.1408
  580SOL  HW1   1739   1.727   2.903   0.506  1.3461 -2.3442 -0.8691
  580SOL  HW2   1740   1.708   3.017   0.385 -0.1372  1.3810 -0.9681
  581SOL  OW    1741   1.327   1.002   1.964  0.6298 -0.7628  0.1742
  581SOL  HW1   1742   1.278   0.965   1.885 -0.5625  0.5596  2.8398
  581SOL  HW2   1743   1.302   0.950   2.049 -0.3648 -1.2852  0.7261
  582SOL  OW    1744   0.092   0.329   0.960  0.1265 -0.5070 -0.0379
  582SOL  HW1   1745   0.174   0.339   0.899  2.9242 -1.4099 -0.6185
  582SOL  HW2   1746   0.009   0.312   0.904  2.2385  1.0049 -1.4157
  583SOL  OW    1747   0.748   2.358   1.791  0.4012 -0.2334 -0.2751
  583SOL  HW1   1748   0.665   2.410   1.769  0.4834 -0.0201 -0.6868
  583SOL  HW2   1749   0.728   2.271   1.843 -1.6479 -2.5868  0.9863
  584SOL  OW    1750   2.672   3.053   0.859  0.1928  0.2906 -0.5383
  584SOL  HW1   1751   2.628   0.037   0.912  0.8484  2.3861 -0.0425
  584SOL  HW2   1752   2.602   3.016   0.799  2.4696  0.2398  2.5114
  585SOL  OW    1753   2.456   0.858   0.119  0.2787 -0.1482  0.0492
  585SOL  HW1   1754   2.421   0.802   0.196 -0.7792  0.7499 -1.3452
  585SOL  HW2   1755   2.478   0.952   0.153 -3.3506  0.1689 -3.5841
  586SOL  OW    1756   0.477   0.726   2.810 -0.3625  0.4970  0.2927
  586SOL  HW1   1757   0.544   0.696   2.883  1.6749 -0.4931  0.7146
  586SOL  HW2   1758   0.477   0.671   2.723 -0.6021 -0.6621  0.0084
  587SOL  OW    1759   1.155   2.102   1.015  0.1607 -0.0589  0.3893
  587SOL  HW1   1760   1.112   2.175   0.956 -3.5289 -0.9003 -0.3273
  587SOL  HW2   1761   1.228   2.057   0.960 -2.4765 -0.4469 -1.3762
  588SOL  OW    1762   0.398   0.235   1.516  0.3526  0.0497 -0.8084
  588SOL  HW1   1763   0.498   0.236   1.539  0.6263 -0.2725  0.5385
  588SOL  HW2   1764   0.354   0.323   1.546 -0.8035  0.4287 -2.6652
  589SOL  OW    1765   1.574   0.256   0.128  0.6879 -0.6834 -0.0866
  589SOL  HW1   1766   1.570   0.353   0.153  1.6918  0.8652 -1.4594
  589SOL  HW2   1767   1.485   0.214   0.090 -2.8553  0.5316 -0.4195
  590SOL  OW    1768   1.576   0.952   2.834  0.2957 -0.1483  0.0273
  590SOL  HW1   1769   1.554   1.002   2.920  0.3157 -0.3368  2.0213
  590SOL  HW2   1770   1.674   0.939   2.824 -2.3481 -0.1570 -1.1108
  591SOL  OW    1771   2.890   2.792   1.981 -0.4615 -0.1230 -0.8558
  591SOL  HW1   1772   2.887   2.893   2.003 -0.1257 -0.8421  0.4802
  591SOL  HW2   1773   2.980   2.748   2.015  1.7733 -0.0746 -1.1884
  592SOL  OW    1774   1.332   1.862   1.184  0.0728  0.3738  0.3536
  592SOL  HW1   1775   1.422   1.817   1.176  0.3438 -1.7180 -0.2049
  592SOL  HW2   1776   1.268   1.834   1.112  0.2285 -0.8745 -0.0889
  593SOL  OW    1777   0.896   2.396   1.089  0.2308  0.0439  0.0734
  593SOL  HW1   1778   0.968   2.410   1.167 -2.4195  0.6547  0.1891
  593SOL  HW2   1779   0.822   2.339   1.129 -3.0773 -1.2872  1.0189
  594SOL  OW    1780   0.047   1.354   2.685  0.0103 -0.1711 -0.0424
  594SOL  HW1   1781   3.046   1.394   2.692 -1.5971 -0.7181  2.0943
  594SOL  HW2   1782   0.037   1.252   2.698  1.6281  2.0447 -2.9748
  595SOL  OW    1783   2.401   0.027   0.473  0.6516 -0.1373 -0.0874
  595SOL  HW1   1784   2.414   0.131   0.468  1.0457 -2.6998 -2.6078
  595SOL  HW2   1785   2.456   3.083   0.399  0.3396  3.0792  1.8480
  596SOL  OW    1786   3.014   0.956   0.341  0.8917 -0.0485  0.5726
  596SOL  HW1   1787   2.968   0.944   0.432  1.6204 -2.9808 -2.1924
  596SOL  HW2   1788   2.953   0.917   0.270  0.0404  1.6868 -1.1139
  597SOL  OW    1789   2.255   1.680   3.028 -0.0403  0.0916 -0.7640
  597SOL  HW1   1790   2.262   1.611   0.008 -1.0329 -0.7101  1.6700
  597SOL  HW2   1791   2.182   1.745   3.048 -0.1636 -0.5062 -0.6915
  598SOL  OW    1792   0.410   2.624   2.922  0.3220  0.6578  0.5189
  598SOL  HW1   1793   0.341   2.654   2.991  1.1435 -1.5897 -0.6374
  598SOL  HW2   1794   0.349   2.582   2.847  1.9891 -1.7599 -1.2202
  599SOL  OW    1795   2.127   1.630   0.668  0.3125  0.1148 -0.3354
  599SOL  HW1   1796   2.205   1.578   0.632 -0.2649 -0.7953 -0.8557
  599SOL  HW2   1797   2.036   1.587   0.666 -1.5365  2.9475 -0.2370
  600SOL  OW    1798   0.838   1.193   2.888 -0.0192  0.1318 -0.3675
  600SOL  HW1   1799   0.759   1.227   2.946 -0.0607  1.6894 -0.1009
  600SOL  HW2   1800   0.918   1.172   2.948  1.9254 -4.2478 -1.9185
  601SOL  OW    1801   0.702   0.996   0.050  0.1310 -0.8542 -0.6229
  601SOL  HW1   1802   0.765   0.997   0.130 -1.9321  4.2131 -1.6008
  601SOL  HW2   1803   0.688   1.093   0.023  0.5980 -2.0096 -2.2399
  602SOL  OW    1804   1.321   0.127   0.769  0.1242  0.0036  0.0267
  602SOL  HW1   1805   1.236   0.087   0.735 -0.6894  1.7363 -1.9550
  602SOL  HW2   1806   1.307   0.212   0.826 -1.7544 -2.3111  1.1178
  603SOL  OW    1807   0.703   2.692   1.641 -0.0920  0.2529 -0.8099
  603SOL  HW1   1808   0.796   2.657   1.655 -0.4621 -0.1328  1.7013
  603SOL  HW2   1809   0.692   2.784   1.685 -0.1744  0.6804  1.2668
  604SOL  OW    1810   2.800   2.550   1.254  0.2140  0.3760  0.6701
  604SOL  HW1   1811   2.765   2.455   1.264 -0.7000  0.7558 -1.6085
  604SOL  HW2   1812   2.789   2.602   1.343 -1.0017  0.7185 -0.5046
  605SOL  OW    1813   1.975   2.587   1.702  0.4946  0.4531  0.1445
  605SOL  HW1   1814   1.891   2.646   1.721  1.3582  0.9561 -3.2223
  605SOL  HW2   1815   2.014   2.557   1.790 -0.5774 -0.7490 -0.3859
  606SOL  OW    1816   0.315   1.631   2.492 -0.1841 -0.1439 -0.0118
  606SOL  HW1   1817   0.301   1.712   2.549  2.2598  0.0703 -1.3011
  606SOL  HW2   1818   0.307   1.544   2.546 -1.0599  0.1648 -0.1644
  607SOL  OW    1819   1.235   2.928   2.821  0.1450 -0.4896 -0.5551
  607SOL  HW1   1820   1.249   3.030   2.835 -1.9420 -0.2976  1.8113
  607SOL  HW2   1821   1.235   2.901   2.719  0.4570 -1.0556  2.2759
  608SOL  OW    1822   2.294   2.302   2.524  0.4365 -0.4745  0.1710
  608SOL  HW1   1823   2.194   2.310   2.525  2.0095  2.0239 -0.8438
  608SOL  HW2   1824   2.316   2.201   2.511 -1.3113 -1.6684  2.2704
  609SOL  OW    1825   0.345   0.878   1.051 -0.0835  0.0897 -0.3183
  609SOL  HW1   1826   0.328   0.940   0.973 -3.2724  2.4981  1.4906
  609SOL  HW2   1827   0.290   0.790   1.049  1.5843  0.5850  1.7490
  610SOL  OW    1828   0.503   2.713   0.312 -0.6939  0.3529  0.9262
  610SOL  HW1   1829   0.524   2.640   0.246 -3.0507 -0.4849  0.2089
  610SOL  HW2   1830   0.404   2.743   0.299 -1.7805 -1.1212 -1.3822
  611SOL  OW    1831   2.217   1.208   0.562  0.0492 -0.1131 -0.5811
  611SOL  HW1   1832   2.139   1.145   0.594 -1.2959  0.9896 -1.2663
  611SOL  HW2   1833   2.265   1.172   0.479 -2.6587  0.9108 -0.4084
  612SOL  OW    1834   0.876   2.625   1.979 -0.6331 -0.0343 -0.1954
  612SOL  HW1   1835   0.841   2.578   1.897 -2.6474 -0.3478 -1.5469
  612SOL  HW2   1836   0.869   2.566   2.065  0.3897 -0.6200 -3.7313
  613SOL  OW    1837   1.133   1.908   0.758 -0.0510  0.2900 -0.0259
  613SOL  HW1   1838   1.134   1.881   0.663  2.1971  0.2222  1.9783
  613SOL  HW2   1839   1.224   1.943   0.784 -1.9290 -2.7643 -1.1549
  614SOL  OW    1840   2.669   2.324   1.270 -0.3290  0.1676 -0.4068
  614SOL  HW1   1841   2.591   2.393   1.280  0.0414  0.8189 -2.8916
  614SOL  HW2   1842   2.633   2.244   1.219 -1.4442 -2.7542 -0.8306
  615SOL  OW    1843   2.797   1.814   3.024 -0.2141 -0.8723 -0.0019
  615SOL  HW1   1844   2.706   1.766   3.023  0.5692  1.2706 -0.9551
  615SOL  HW2   1845   2.852   1.795   2.938  0.7838  2.6765 -0.7417
  616SOL  OW    1846   1.540   0.520   0.246  0.0482 -0.8493 -1.0077
  616SOL  HW1   1847   1.480   0.585   0.197  1.2949  2.2399 -0.8081
  616SOL  HW2   1848   1.495   0.487   0.335  2.9934 -0.7583  1.8179
  617SOL  OW    1849   0.408   1.146   2.547 -0.5200  0.3939 -0.1862
  617SOL  HW1   1850   0.419   1.105   2.639  3.5842  0.5030 -1.6412
  617SOL  HW2   1851   0.489   1.130   2.487 -1.6919  0.2580  0.4582
  618SOL  OW    1852   2.809   1.265   1.552  0.0145  0.5740  0.3186
  618SOL  HW1   1853   2.789   1.251   1.456 -0.7341 -1.9313 -1.1539
  618SOL  HW2   1854   2.741   1.222   1.616  1.8748  0.2060  1.2638
  619SOL  OW    1855   0.122   1.386   1.252  0.0158 -0.1379  0.2772
  619SOL  HW1   1856   0.115   1.467   1.189 -0.3241  0.1956  1.6747
  619SOL  HW2   1857   0.192   1.401   1.321  1.5962 -2.2492  2.0335
  620SOL  OW    1858   2.945   1.402   2.441 -0.1361 -0.1033  0.0438
  620SOL  HW1   1859   2.969   1.495   2.418 -2.9351 -1.6972 -1.1801
  620SOL  HW2   1860   2.909   1.395   2.538  1.0327 -0.9907 -1.5330
  621SOL  OW    1861   2.648   0.353   0.922  0.2089 -0.0961 -0.6417
  621SOL  HW1   1862   2.638   0.336   0.820  1.7978 -0.3300 -3.2324
  621SOL  HW2   1863   2.733   0.316   0.961  0.0060  1.0749  0.5289
  622SOL  OW    1864   1.479   0.320   2.153  0.1069 -0.1525  0.2065
  622SOL  HW1   1865   1.481   0.416   2.169 -2.0571 -0.2742 -0.9716
  622SOL  HW2   1866   1.519   0.291   2.063  0.6369 -0.2604  1.3239
  623SOL  OW    1867   2.130   0.947   2.241 -0.7537 -0.1916  0.5608
  623SOL  HW1   1868   2.152   0.964   2.337 -3.5352 -0.4571  0.8919
  623SOL  HW2   1869   2.046   0.997   2.204  1.6030  1.5453 -2.0493
  624SOL  OW    1870   1.788   0.153   0.649  0.1732 -0.1445 -0.3227
  624SOL  HW1   1871   1.758   0.058   0.625  1.0004  3.1083 -0.7950
  624SOL  HW2   1872   1.808   0.154   0.752  2.8552  1.7734  2.8981
  625SOL  OW    1873   0.302   1.076   3.015 -0.2117  0.4731 -0.5423
  625SOL  HW1   1874   0.252   0.994   2.987  1.7598 -0.0421  1.6278
  625SOL  HW2   1875   0.342   1.063   0.012  0.7870 -1.9727 -1.5214
  626SOL  OW    1876   2.230   1.307   2.291 -0.5425  0.0482  0.9408
  626SOL  HW1   1877   2.243   1.393   2.346 -0.9682 -2.3990  1.1739
  626SOL  HW2   1878   2.312   1.249   2.290  1.9791  0.3418  1.2195
  627SOL  OW    1879   1.131   0.526   2.215  0.4103 -0.2205 -1.0966
  627SOL  HW1   1880   1.129   0.451   2.282  2.3101  0.3635 -2.8391
  627SOL  HW2   1881   1.154   0.497   2.121  1.2310 -1.8783  1.0006
  628SOL  OW    1882   2.243   0.550   2.597  0.6606  0.1832  0.4151
  628SOL  HW1   1883   2.294   0.541   2.687  0.1721 -0.3527  2.8499
  628SOL  HW2   1884   2.237   0.462   2.550  2.0127  0.7658  0.8279
  629SOL  OW    1885   0.454   1.212   0.382 -0.5373 -0.3516 -0.3138
  629SOL  HW1   1886   0.371   1.249   0.430  0.3089  0.7480  0.2432
  629SOL  HW2   1887   0.436   1.169   0.288  0.3698  3.6722 -3.5711
  630SOL  OW    1888   0.846   0.299   2.200 -1.1020  0.3216 -0.2750
  630SOL  HW1   1889   0.781   0.245   2.260  2.4074 -3.2850  1.7373
  630SOL  HW2   1890   0.791   0.359   2.138 -0.2967  0.9457 -1.7473
  631SOL  OW    1891   2.643   0.598   1.007  0.3389 -0.0415  0.1893
  631SOL  HW1   1892   2.681   0.610   1.100 -2.7521 -1.4253 -1.7797
  631SOL  HW2   1893   2.638   0.497   0.987 -1.7111 -2.6308  0.9151
  632SOL  OW    1894   2.025   2.456   3.059 -0.6132  0.4050  0.8041
  632SOL  HW1   1895   2.018   2.546   0.002  1.0947 -1.7084  3.3902
  632SOL  HW2   1896   2.100   2.459   2.991  3.0626  2.4191  0.2372
  633SOL  OW    1897   0.811   0.524   0.995 -0.0917  0.0220  0.1107
  633SOL  HW1   1898   0.741   0.526   1.067 -1.1216  0.0320 -0.2930
  633SOL  HW2   1899   0.780   0.459   0.919  2.0952 -1.0955 -0.7492
  634SOL  OW    1900   1.765   2.431   0.889 -0.7642 -0.1711 -0.1775
  634SOL  HW1   1901   1.764   2.500   0.965  1.2456 -0.7141  0.6045
  634SOL  HW2   1902   1.845   2.368   0.917  3.3604  0.0120 -3.1162
  635SOL  OW    1903   2.564   2.882   1.694 -0.0785  0.4668 -0.5403
  635SOL  HW1   1904   2.651   2.828   1.708 -0.9823 -1.0129  1.6515
  635SOL  HW2   1905   2.575   2.940   1.610  1.8441 -2.3642 -2.7597
  636SOL  OW    1906   0.876   0.246   1.824 -0.2513 -0.4985 -0.2627
  636SOL  HW1   1907   0.972   0.246   1.795  0.1450 -0.9571  0.9288
  636SOL  HW2   1908   0.848   0.161   1.871  3.2282 -1.2990 -0.0915
  637SOL  OW    1909   1.698   1.471   0.097 -0.1943  0.6121 -0.3838
  637SOL  HW1   1910   1.652   1.512   0.014  1.3917  0.3225 -0.4538
  637SOL  HW2   1911   1.691   1.369   0.096 -0.4217 -1.3319 -0.2908
  638SOL  OW    1912   1.271   2.831   0.492  0.0368 -0.6624 -0.0721
  638SOL  HW1   1913   1.212   2.897   0.445  1.6363  0.6045 -0.2053
  638SOL  HW2   1914   1.256   2.740   0.453 -0.0571  0.6398  3.1579
  639SOL  OW    1915   1.618   2.054   1.307  0.1718  0.2189  0.1939
  639SOL  HW1   1916   1.571   2.131   1.350 -2.0180 -0.6537 -0.7406
  639SOL  HW2   1917   1.713   2.092   1.286 -2.0147  0.3985  1.0954
  640SOL  OW    1918   0.297   0.493   2.937 -0.0736 -0.3584 -0.0444
  640SOL  HW1   1919   0.318   0.578   2.994  0.6349 -1.2577  0.0118
  640SOL  HW2   1920   0.243   0.424   2.996  0.7006  2.7315  0.0649
  641SOL  OW    1921   2.637   0.961   0.424 -0.0629  0.2859 -0.2967
  641SOL  HW1   1922   2.730   0.937   0.455 -0.9278  1.0695  1.5644
  641SOL  HW2   1923   2.566   0.888   0.446  2.1677 -0.4876 -0.6805
  642SOL  OW    1924   0.595   0.785   0.348  0.3840  0.0099 -0.0347
  642SOL  HW1   1925   0.496   0.762   0.334  0.8706  0.7902 -0.1299
  642SOL  HW2   1926   0.652   0.760   0.270 -0.9373 -1.7793  0.0728
  643SOL  OW    1927   0.675   1.260   3.085 -0.0053 -0.7964  0.0494
  643SOL  HW1   1928   0.594   1.311   3.045 -0.8255 -1.4134  1.3079
  643SOL  HW2   1929   0.695   1.297   0.082  0.9621 -1.6891 -0.4371
  644SOL  OW    1930   1.496   1.918   2.839 -0.8148 -0.7996 -0.1159
  644SOL  HW1   1931   1.467   1.993   2.779 -3.1957  0.3480  2.7416
  644SOL  HW2   1932   1.581   1.935   2.894  0.1462  0.3967  1.7602
  645SOL  OW    1933   1.046   2.050   2.016 -0.7177  0.3965 -1.0228
  645SOL  HW1   1934   1.101   2.086   1.941 -0.4651 -0.8717 -1.2920
  645SOL  HW2   1935   1.044   1.947   2.029 -0.4975 -0.4019 -2.0431
  646SOL  OW    1936   2.597   2.381   0.664  0.3283 -0.2485  0.0759
  646SOL  HW1   1937   2.581   2.455   0.737 -1.1867 -2.8740 -0.3869
  646SOL  HW2   1938   2.630   2.429   0.579  0.7324 -3.0352  0.4645
  647SOL  OW    1939   0.226   0.379   2.113 -0.3848  0.1128 -0.3489
  647SOL  HW1   1940   0.269   0.333   2.196  1.9223 -0.2273  3.0145
  647SOL  HW2   1941   0.171   0.462   2.137  2.9054 -0.6516 -1.2228
  648SOL  OW    1942   2.979   1.798   0.979  0.4450  0.5006  0.4040
  648SOL  HW1   1943   2.945   1.806   1.076  1.0273 -0.5550  1.4801
  648SOL  HW2   1944   3.078   1.786   0.973  1.3526  0.2454  0.0874
  649SOL  OW    1945   2.350   2.720   2.741 -0.5547  0.5740 -0.0503
  649SOL  HW1   1946   2.371   2.765   2.829  0.1486  0.3686 -3.1232
  649SOL  HW2   1947   2.340   2.783   2.663 -1.4265  0.8736  0.0574
  650SOL  OW    1948   2.290   2.775   2.053 -1.4027 -0.5966  0.3475
  650SOL  HW1   1949   2.324   2.725   1.972 -1.0374 -0.8280  0.5155
  650SOL  HW2   1950   2.302   2.874   2.033  2.8819 -0.4929  1.8533
  651SOL  OW    1951   1.080   1.240   2.601  0.7857 -0.4027  0.2129
  651SOL  HW1   1952   0.984   1.264   2.616  1.1795 -1.3664  0.8531
  651SOL  HW2   1953   1.085   1.171   2.531  0.5610 -0.0724  0.3022
  652SOL  OW    1954   0.022   0.320   2.402  0.1218  0.5095 -0.3181
  652SOL  HW1   1955   0.118   0.322   2.362  0.1007  1.1598  1.4566
  652SOL  HW2   1956   0.034   0.307   2.502  0.9455  0.7894 -1.7017
  653SOL  OW    1957   2.973   2.071   1.221  0.1307  0.0248 -0.0953
  653SOL  HW1   1958   2.913   2.127   1.280  0.7577 -0.6332  0.6151
  653SOL  HW2   1959   2.949   1.970   1.223  0.4992 -0.1397  2.5662
  654SOL  OW    1960   2.954   2.386   2.527  0.4521  0.8178 -0.1457
  654SOL  HW1   1961   2.863   2.424   2.513  1.3372  0.4190  1.5863
  654SOL  HW2   1962   3.010   2.451   2.576 -1.5526 -1.1686  2.8967
  655SOL  OW    1963   2.566   2.113   1.129  0.5966 -0.0566 -0.2883
  655SOL  HW1   1964   2.505   2.082   1.205  1.2872  1.8030 -1.3992
  655SOL  HW2   1965   2.511   2.126   1.042  0.2215 -5.4067 -0.6645
  656SOL  OW    1966   2.777   2.097   0.008  0.4926  0.0528  0.2107
  656SOL  HW1   1967   2.819   2.128   0.100 -1.5645 -0.6247 -2.4540
  656SOL  HW2   1968   2.829   2.017   3.073 -0.7645  1.1936 -1.0403
  657SOL  OW    1969   0.796   0.443   0.566  0.6709  0.8020  0.6792
  657SOL  HW1   1970   0.793   0.424   0.467 -0.8277 -2.0864 -0.5240
  657SOL  HW2   1971   0.841   0.533   0.582  0.9033  0.2483 -0.6152
  658SOL  OW    1972   1.227   1.327   1.009 -0.6675 -0.4610  0.4595
  658SOL  HW1   1973   1.272   1.320   1.099  0.7141 -1.5766  4.7196
  658SOL  HW2   1974   1.198   1.235   0.973 -1.5190 -0.2486 -2.1892
  659SOL  OW    1975   0.653   0.310   1.571  0.1572  0.6674  0.1506
  659SOL  HW1   1976   0.653   0.359   1.660 -1.6433 -0.3095 -0.1270
  659SOL  HW2   1977   0.707   0.360   1.502 -0.9344 -0.1210 -1.6790
  660SOL  OW    1978   2.388   0.893   0.781  0.2594  0.4297 -0.2014
  660SOL  HW1   1979   2.481   0.882   0.813  0.5529 -0.8714 -2.4688
  660SOL  HW2   1980   2.324   0.841   0.844  1.7643 -0.0784 -3.1628
  661SOL  OW    1981   0.683   1.409   0.757 -0.0842  0.2736  0.3387
  661SOL  HW1   1982   0.743   1.442   0.833  0.7846 -0.9574 -2.5565
  661SOL  HW2   1983   0.699   1.307   0.744  0.1153 -1.1749 -3.0136
  662SOL  OW    1984   2.324   0.010   1.438  0.1784  0.6388 -0.0823
  662SOL  HW1   1985   2.407   3.087   1.487  3.3100  2.1329  2.6980
  662SOL  HW2   1986   2.326   0.101   1.393 -1.2135 -0.4048  1.5319
  663SOL  OW    1987   1.801   1.088   1.276 -1.1611 -0.1947  0.0835
  663SOL  HW1   1988   1.887   1.062   1.319 -2.9788  1.7164  1.4382
  663SOL  HW2   1989   1.736   1.010   1.273 -1.1564 -1.7559 -1.0875
  664SOL  OW    1990   1.131   2.712   1.199  0.7232  0.2084 -0.3598
  664SOL  HW1   1991   1.106   2.731   1.104  0.2703 -0.0504  0.5857
  664SOL  HW2   1992   1.168   2.790   1.239 -2.4324  0.0517  3.0922
  665SOL  OW    1993   1.005   0.259   2.954  0.3764  0.7623 -0.0560
  665SOL  HW1   1994   0.943   0.182   2.982  2.4059 -2.9001 -2.3009
  665SOL  HW2   1995   0.956   0.337   2.917  1.7670  0.7858 -1.7770
  666SOL  OW    1996   0.190   2.744   2.303 -0.7268  0.1738 -0.2902
  666SOL  HW1   1997   0.114   2.687   2.261 -0.3732  0.4411 -0.5157
  666SOL  HW2   1998   0.279   2.694   2.283 -1.8659  1.3282 -1.8380
  667SOL  OW    1999   2.149   1.842   2.099 -1.0986  0.2607 -0.1676
  667SOL  HW1   2000   2.106   1.755   2.129  1.5607  1.1738 -0.2522
  667SOL  HW2   2001   2.132   1.916   2.164  1.5721 -0.0323 -2.5340
  668SOL  OW    2002   0.585   0.879   2.044 -0.2737 -0.7013  0.4813
  668SOL  HW1   2003   0.559   0.964   2.098  1.5298 -0.8773  0.8395
  668SOL  HW2   2004   0.650   0.913   1.973  0.3128 -1.8618  1.3729
  669SOL  OW    2005   2.233   2.567   0.299 -0.9493 -0.9396 -0.5872
  669SOL  HW1   2006   2.207   2.607   0.210  0.0921 -2.7943 -3.3112
  669SOL  HW2   2007   2.337   2.565   0.310 -0.2017  0.1506  2.1338
  670SOL  OW    2008   2.241   1.345   2.010 -0.3074 -0.5911 -0.5740
  670SOL  HW1   2009   2.234   1.328   2.111  1.0018  0.0485  2.2405
  670SOL  HW2   2010   2.331   1.391   1.983 -0.6896  2.4385 -4.2154
  671SOL  OW    2011   2.493   2.484   0.303  0.1736 -0.3037 -0.2918
  671SOL  HW1   2012   2.579   2.492   0.358 -0.5980 -0.7428 -0.5802
  671SOL  HW2   2013   2.501   2.416   0.231 -0.1326 -1.1946  1.6049
  672SOL  OW    2014   1.849   1.161   1.625 -0.1278  0.6506  0.4038
  672SOL  HW1   2015   1.870   1.239   1.566 -0.2089  1.0942 -1.6545
  672SOL  HW2   2016   1.784   1.190   1.700  2.1814 -0.1965  0.6231
  673SOL  OW    2017   2.543   2.765   1.374 -0.6741  0.2310 -0.0291
  673SOL  HW1   2018   2.514   2.834   1.446 -0.6641  0.2280 -0.1702
  673SOL  HW2   2019   2.637   2.755   1.364  1.1947 -1.1761 -1.3996
  674SOL  OW    2020   0.697   1.473   1.450 -0.3599  0.4352  0.1125
  674SOL  HW1   2021   0.775   1.524   1.492  0.7878 -0.0366 -0.9035
  674SOL  HW2   2022   0.712   1.468   1.350  2.1739  1.1532 -2.2676
  675SOL  OW    2023   2.468   0.868   1.211 -0.4171  0.4245 -0.3385
  675SOL  HW1   2024   2.447   0.785   1.153 -0.2816  1.0571 -3.3673
  675SOL  HW2   2025   2.424   0.949   1.163 -0.3542  0.1785 -0.0382
  676SOL  OW    2026   2.335   0.292   0.676  0.2945  0.0549 -0.9433
  676SOL  HW1   2027   2.270   0.371   0.659  3.0659  0.5855 -0.6643
  676SOL  HW2   2028   2.289   0.215   0.726 -2.6174 -0.1640  3.1112
  677SOL  OW    2029   2.184   0.979   2.511 -0.2308  0.0007 -0.4394
  677SOL  HW1   2030   2.089   0.990   2.536 -0.0428 -0.4919  0.8425
  677SOL  HW2   2031   2.221   0.903   2.565  1.2294 -0.7369 -2.2227
  678SOL  OW    2032   2.832   1.275   0.761  0.4038 -0.3034 -0.1145
  678SOL  HW1   2033   2.839   1.363   0.805  0.6627  0.2952 -0.1594
  678SOL  HW2   2034   2.833   1.282   0.659  0.8047  0.5489 -2.3929
  679SOL  OW    2035   3.042   3.002   2.919 -0.4433  0.0269 -0.1114
  679SOL  HW1   2036   2.987   3.080   2.886 -0.5228 -0.5087  0.4415
  679SOL  HW2   2037   2.990   2.941   2.982 -0.6491 -1.6819 -1.4352
  680SOL  OW    2038   0.144   1.135   0.945 -0.2274 -0.0922  0.4319
  680SOL  HW1   2039   0.244   1.133   0.914 -0.0902 -0.3925 -0.6774
  680SOL  HW2   2040   0.104   1.229   0.930  1.1293  1.6298 -0.1875
  681SOL  OW    2041   1.241   0.207   0.469 -0.6515  0.1042  0.0069
  681SOL  HW1   2042   1.170   0.239   0.535 -1.8797  1.2716 -0.2420
  681SOL  HW2   2043   1.271   0.109   0.485 -2.1561  1.4104 -1.3120
  682SOL  OW    2044   2.219   2.293   2.127 -0.0605 -0.0864  0.1960
  682SOL  HW1   2045   2.263   2.375   2.175  0.6006  0.5827 -1.6121
  682SOL  HW2   2046   2.261   2.279   2.036 -0.5162 -0.3608 -0.8488
  683SOL  OW    2047   2.763   1.743   1.761  0.1833 -0.0694  0.1930
  683SOL  HW1   2048   2.793   1.661   1.706 -0.9610 -1.6187  0.1588
  683SOL  HW2   2049   2.817   1.829   1.739 -0.8412 -1.0900 -0.3577
  684SOL  OW    2050   0.067   1.827   1.669  0.0096  0.9046  0.2486
  684SOL  HW1   2051   0.049   1.727   1.660  0.5286  0.7324  0.7536
  684SOL  HW2   2052   0.143   1.841   1.599  0.3791 -3.6921  1.8713
  685SOL  OW    2053   1.242   0.646   0.456 -0.3454  0.1347  0.4142
  685SOL  HW1   2054   1.291   0.553   0.448  0.2829 -0.8642  1.9472
  685SOL  HW2   2055   1.283   0.699   0.535  1.6070 -1.9690  0.2789
  686SOL  OW    2056   2.709   0.127   1.925 -0.5571 -0.2549 -0.6096
  686SOL  HW1   2057   2.634   0.060   1.914  1.4259  0.9794  1.1685
  686SOL  HW2   2058   2.716   0.155   2.023 -0.7432  0.4696 -0.4491
  687SOL  OW    2059   1.571   2.320   3.092 -0.0845  0.1653 -0.3471
  687SOL  HW1   2060   1.608   2.322   0.093  1.1240  3.8621  2.1685
  687SOL  HW2   2061   1.648   2.318   3.022 -0.6024 -3.0818  2.7724
  688SOL  OW    2062   1.953   1.854   2.822 -0.4154  0.0812  0.7192
  688SOL  HW1   2063   1.865   1.810   2.793 -1.2666  0.0921 -0.5122
  688SOL  HW2   2064   1.971   1.946   2.780 -2.7206 -1.9313  0.5906
  689SOL  OW    2065   2.037   1.067   1.808 -0.7201 -0.6443  0.0277
  689SOL  HW1   2066   2.135   1.087   1.820 -3.1705 -0.5375 -1.8567
  689SOL  HW2   2067   1.999   1.106   1.723  0.5501 -1.8502  2.0108
  690SOL  OW    2068   2.649   1.973   1.490  0.2557 -0.2303 -0.0356
  690SOL  HW1   2069   2.699   2.060   1.502 -1.7662 -2.3370  0.1355
  690SOL  HW2   2070   2.566   1.988   1.440 -1.3295  1.4223  3.1710
  691SOL  OW    2071   0.158   1.835   0.954 -0.2376  0.5408 -0.4595
  691SOL  HW1   2072   0.164   1.936   0.972  1.9304 -1.4333  0.7120
  691SOL  HW2   2073   0.190   1.812   0.862  0.2652  1.5809  1.1437
  692SOL  OW    2074   2.859   0.071   2.838 -0.1930  0.0969 -0.2116
  692SOL  HW1   2075   2.812   0.060   2.748 -3.1977 -0.4669 -0.2321
  692SOL  HW2   2076   2.869   0.174   2.854  0.1151 -1.9617 -1.0525
  693SOL  OW    2077   0.250   1.276   2.191  0.2570 -0.1479 -0.6952
  693SOL  HW1   2078   0.269   1.185   2.236  1.3578 -0.8308  1.0356
  693SOL  HW2   2079   0.158   1.289   2.147 -0.0962  1.9188  0.0924
  694SOL  OW    2080   3.016   0.396   1.773 -0.2366 -0.2660  0.2635
  694SOL  HW1   2081   3.067   0.309   1.753  2.0969  1.4439  1.2695
  694SOL  HW2   2082   3.067   0.481   1.751 -1.1282  2.4767  2.0693
  695SOL  OW    2083   1.963   1.260   2.283 -0.5070  0.0630 -0.0262
  695SOL  HW1   2084   2.064   1.270   2.284 -1.7440 -2.0332  0.4993
  695SOL  HW2   2085   1.940   1.194   2.203  0.2890  1.7597  3.5173
  696SOL  OW    2086   1.743   3.046   1.790 -0.5354  0.0973  0.1358
  696SOL  HW1   2087   1.805   3.084   1.718  1.0999  1.3864  0.7747
  696SOL  HW2   2088   1.796   3.032   1.879  0.4724  0.1646  1.1200
  697SOL  OW    2089   1.483   0.586   2.154  0.6239  0.1149  0.4629
  697SOL  HW1   2090   1.418   0.636   2.216  1.0907  0.9987  0.7122
  697SOL  HW2   2091   1.573   0.588   2.203  0.0801  0.0163 -1.3734
  698SOL  OW    2092   2.179   2.165   2.836 -1.0660  0.7066 -0.1919
  698SOL  HW1   2093   2.271   2.116   2.816  0.5032  0.7750  2.0436
  698SOL  HW2   2094   2.111   2.145   2.761 -0.4110  0.8761  0.7593
  699SOL  OW    2095   2.608   1.438   0.474 -0.2823 -0.4705  0.1893
  699SOL  HW1   2096   2.592   1.508   0.401  0.3756  3.3415 -1.1477
  699SOL  HW2   2097   2.570   1.458   0.567  0.2754  0.2314 -0.1169
  700SOL  OW    2098   1.109   3.036   0.692  0.3921 -0.3913 -0.5878
  700SOL  HW1   2099   1.010   3.031   0.722  2.8780  0.3945  0.3860
  700SOL  HW2   2100   1.109   3.043   0.590 -0.6405 -2.0992  2.0768
  701SOL  OW    2101   2.953   0.550   0.822  0.3350 -0.3329 -0.1733
  701SOL  HW1   2102   2.863   0.576   0.780 -1.7002 -0.6967  1.9306
  701SOL  HW2   2103   2.956   0.563   0.923 -1.5534  2.5050  0.4732
  702SOL  OW    2104   1.194   2.968   1.290 -0.1989  0.3545  0.0783
  702SOL  HW1   2105   1.251   3.048   1.265 -0.1769 -2.2405 -0.7276
  702SOL  HW2   2106   1.099   2.989   1.260 -2.2093 -1.9780 -1.5318
  703SOL  OW    2107   0.052   0.774   1.018  0.3264 -0.2032  0.6738
  703SOL  HW1   2108   0.030   0.811   0.924  0.6325  0.0481 -0.5258
  703SOL  HW2   2109   0.071   0.853   1.080  5.3268  0.4584 -1.4738
  704SOL  OW    2110   0.445   2.906   1.848  0.0866  0.1037  0.0068
  704SOL  HW1   2111   0.414   2.984   1.904  2.9905  2.4434  1.0847
  704SOL  HW2   2112   0.543   2.915   1.817  0.8692  1.4997  1.4663
  705SOL  OW    2113   3.093   1.584   2.946  0.0107  0.4250  0.9759
  705SOL  HW1   2114   3.028   1.535   3.012 -0.6455  2.9915  0.8914
  705SOL  HW2   2115   0.049   1.662   2.993 -0.7205 -1.3189  3.6252
  706SOL  OW    2116   2.932   1.247   0.030  0.2272 -0.6349 -0.2276
  706SOL  HW1   2117   2.896   1.342   0.039 -1.8057  0.3318  2.1672
  706SOL  HW2   2118   3.018   1.247   3.065 -0.6024 -0.0870 -0.0248
  707SOL  OW    2119   2.652   2.463   2.223 -0.0099 -0.2164  0.2751
  707SOL  HW1   2120   2.682   2.397   2.151  0.0641 -0.5951  1.6427
  707SOL  HW2   2121   2.655   2.559   2.182 -1.0858 -2.7873  2.7947
  708SOL  OW    2122   0.506   0.329   1.118 -0.0178 -0.1397 -0.3308
  708SOL  HW1   2123   0.480   0.329   1.017  1.9013 -0.4809  0.2689
  708SOL  HW2   2124   0.462   0.401   1.173 -4.9039  0.0337 -1.4839
  709SOL  OW    2125   2.696   0.773   1.646 -0.5125  0.7554  0.3217
  709SOL  HW1   2126   2.666   0.680   1.666 -0.2719 -1.0755  1.4485
  709SOL  HW2   2127   2.663   0.837   1.723  0.4704  1.2726  0.1259
  710SOL  OW    2128   2.549   1.301   0.919 -0.1904 -0.0834  0.0879
  710SOL  HW1   2129   2.642   1.264   0.890  1.8168  0.8588  0.3464
  710SOL  HW2   2130   2.478   1.250   0.870  1.4059 -0.9846  1.1092
  711SOL  OW    2131   2.798   2.242   2.871  0.1870 -0.4751 -0.0952
  711SOL  HW1   2132   2.875   2.304   2.892  0.5117  1.9127 -1.6566
  711SOL  HW2   2133   2.771   2.194   2.958  0.4744 -1.7563 -1.1166
  712SOL  OW    2134   2.792   0.615   2.779  0.0871  0.2354 -0.7403
  712SOL  HW1   2135   2.783   0.680   2.857  0.7366  0.0459  0.1672
  712SOL  HW2   2136   2.707   0.606   2.726  0.4654  0.0122  0.2742
  713SOL  OW    2137   2.342   0.807   2.634 -0.2524  0.7760  0.2184
  713SOL  HW1   2138   2.435   0.832   2.602 -1.3378 -0.0122 -0.8182
  713SOL  HW2   2139   2.310   0.715   2.598  0.5332 -0.0674 -4.3358
  714SOL  OW    2140   2.107   1.440   0.221  0.7632  0.0240  0.3010
  714SOL  HW1   2141   2.035   1.504   0.188 -1.3096 -2.1235 -1.7675
  714SOL  HW2   2142   2.188   1.486   0.262 -0.0045 -0.3790 -4.4892
  715SOL  OW    2143   2.737   0.588   1.266  0.2095 -0.3249  0.5715
  715SOL  HW1   2144   2.780   0.657   1.327  2.4525 -3.1105 -0.6658
  715SOL  HW2   2145   2.669   0.535   1.323 -2.1744  1.5674 -0.4885
  716SOL  OW    2146   0.284   0.471   1.595  0.2271  0.0193 -0.0859
  716SOL  HW1   2147   0.325   0.556   1.563 -2.9523 -3.2807 -0.5550
  716SOL  HW2   2148   0.210   0.495   1.665 -0.3285 -0.7009 -2.0830
  717SOL  OW    2149   1.723   0.955   2.198  0.8243 -0.2495  0.2177
  717SOL  HW1   2150   1.723   0.856   2.210 -2.9494  0.2067 -1.0054
  717SOL  HW2   2151   1.688   1.001   2.283  0.2737 -3.9044 -1.7558
  718SOL  OW    2152   1.978   0.472   0.440  0.8582  0.0842  0.0374
  718SOL  HW1   2153   1.992   0.374   0.409 -0.0897 -0.6431  0.6890
  718SOL  HW2   2154   1.942   0.530   0.364  2.2538  0.9131 -0.5172
  719SOL  OW    2155   0.037   2.643   1.948 -0.1993  0.6131  0.0575
  719SOL  HW1   2156   0.138   2.663   1.940  1.2149 -0.2672  3.0129
  719SOL  HW2   2157   0.006   2.599   1.863 -1.4902  0.9114 -0.7731
  720SOL  OW    2158   1.675   0.823   1.805  0.2700 -0.1579 -0.6175
  720SOL  HW1   2159   1.744   0.753   1.834 -0.2520 -0.7675 -0.6118
  720SOL  HW2   2160   1.661   0.891   1.879  0.5758  0.8781  0.2852
  721SOL  OW    2161   2.952   3.039   1.720 -0.5525  0.4885  0.0399
  721SOL  HW1   2162   2.890   3.081   1.648 -0.8282 -1.3706 -0.2271
  721SOL  HW2   2163   3.006   2.956   1.694 -0.7040  0.3448 -0.2273
  722SOL  OW    2164   1.040   0.493   0.088 -0.1158  0.1283  0.7219
  722SOL  HW1   2165   1.098   0.520   0.005  0.3084 -0.9084 -1.6642
  722SOL  HW2   2166   1.073   0.405   0.129  2.0079 -0.4192  1.2476
  723SOL  OW    2167   1.702   0.938   1.561 -0.4969 -0.4628 -0.1596
  723SOL  HW1   2168   1.738   1.034   1.571  0.6522  0.9873  0.8542
  723SOL  HW2   2169   1.672   0.903   1.652  1.4942  1.4509  1.7449
  724SOL  OW    2170   0.988   0.889   0.414 -0.4787  0.0126 -0.3587
  724SOL  HW1   2171   0.931   0.950   0.357 -1.7865  2.8697 -0.0944
  724SOL  HW2   2172   1.042   0.828   0.356 -0.7330  0.2198  2.4695
  725SOL  OW    2173   0.112   0.211   1.220 -0.0061  0.2162  0.0450
  725SOL  HW1   2174   0.100   0.250   1.129  2.2823  0.6783 -1.8577
  725SOL  HW2   2175   0.204   0.174   1.233  1.6519  0.6733 -3.8633
  726SOL  OW    2176   2.889   1.417   2.698 -0.2661  0.1018  0.4140
  726SOL  HW1   2177   2.797   1.368   2.706 -0.4063  2.9333  1.8703
  726SOL  HW2   2178   2.886   1.502   2.754  0.3092  0.2828  2.9961
  727SOL  OW    2179   1.855   1.496   2.366 -0.0868  0.2395  0.4205
  727SOL  HW1   2180   1.904   1.410   2.331  0.0397  1.5523  0.5714
  727SOL  HW2   2181   1.866   1.512   2.466  0.6720 -1.1289 -1.4776
  728SOL  OW    2182   0.937   1.607   1.526  0.0551  0.2440  0.1673
  728SOL  HW1   2183   1.028   1.594   1.483  1.3763 -1.3602  0.8142
  728SOL  HW2   2184   0.890   1.692   1.499 -0.1257 -0.8056  2.4398
  729SOL  OW    2185   2.254   0.751   2.104  0.0717 -0.3052  0.2157
  729SOL  HW1   2186   2.207   0.837   2.142 -0.4699 -1.9015 -0.3663
  729SOL  HW2   2187   2.308   0.697   2.177 -1.8728 -2.3168 -1.1618
  730SOL  OW    2188   1.576   0.250   0.844  0.0663 -0.1269 -0.0903
  730SOL  HW1   2189   1.488   0.205   0.819 -0.6200  2.5597 -2.0709
  730SOL  HW2   2190   1.601   0.311   0.767  0.9092  0.5829 -3.1891
  731SOL  OW    2191   0.520   0.428   2.340  0.5247 -0.6693 -0.4555
  731SOL  HW1   2192   0.565   0.337   2.321  0.4202  0.5994 -0.3488
  731SOL  HW2   2193   0.557   0.505   2.283 -4.1897  1.7978 -0.5769
  732SOL  OW    2194   0.589   0.189   2.967 -0.2811  0.0571 -0.0832
  732SOL  HW1   2195   0.566   0.281   2.928  4.1651  0.7354 -0.0143
  732SOL  HW2   2196   0.567   0.188   3.068 -2.2173 -0.9214  1.1191
  733SOL  OW    2197   1.676   2.295   2.330  0.2889  0.0534  0.1142
  733SOL  HW1   2198   1.655   2.197   2.310  2.4803  1.5181  1.0365
  733SOL  HW2   2199   1.631   2.361   2.265  0.6762  2.8215  3.7894
  734SOL  OW    2200   0.600   1.810   2.536  0.4745 -0.3196  0.1363
  734SOL  HW1   2201   0.677   1.845   2.477  1.7055  1.1608 -0.4111
  734SOL  HW2   2202   0.556   1.734   2.489  2.0220 -1.3115 -3.7962
  735SOL  OW    2203   1.490   0.316   1.527 -0.0054 -0.1629  0.1552
  735SOL  HW1   2204   1.582   0.305   1.570 -1.9674 -0.5062  3.0145
  735SOL  HW2   2205   1.487   0.404   1.473  4.4991 -1.5870 -2.7462
  736SOL  OW    2206   2.268   1.316   0.038  0.3031  0.2700 -0.7540
  736SOL  HW1   2207   2.192   1.331   0.109 -2.4439  2.5396 -1.2423
  736SOL  HW2   2208   2.229   1.305   3.040 -1.9878  1.2159  1.1377
  737SOL  OW    2209   0.192   0.838   2.969 -0.0685  0.0698  0.5973
  737SOL  HW1   2210   0.272   0.790   3.006  4.2531  0.9631  1.3322
  737SOL  HW2   2211   0.107   0.792   3.008  0.6445 -0.1996 -1.0263
  738SOL  OW    2212   0.815   1.493   1.182 -0.5158  0.4058 -0.1056
  738SOL  HW1   2213   0.793   1.521   1.090 -0.6664 -0.0148  0.0331
  738SOL  HW2   2214   0.894   1.551   1.212  0.4062  4.0819  0.8010
  739SOL  OW    2215   2.381   2.242   1.862  0.1897 -0.3444 -0.2101
  739SOL  HW1   2216   2.305   2.234   1.792  3.8682  0.9182  2.2101
  739SOL  HW2   2217   2.474   2.220   1.821 -0.8208 -3.2151 -3.0592
  740SOL  OW    2218   1.771   2.773   1.701  0.3424 -0.9110  0.1808
  740SOL  HW1   2219   1.744   2.866   1.731 -1.0791 -1.5111 -3.6250
  740SOL  HW2   2220   1.755   2.760   1.597 -3.3803  0.7617 -0.5603
  741SOL  OW    2221   2.488   1.203   0.412  0.3461 -0.0289  0.1364
  741SOL  HW1   2222   2.555   1.127   0.410  3.4566 -0.1194  2.3090
  741SOL  HW2   2223   2.531   1.293   0.436 -1.7310 -0.2718 -0.6491
  742SOL  OW    2224   0.969   1.970   2.927 -0.4800  0.9609  0.7090
  742SOL  HW1   2225   0.943   1.894   2.866  1.1345  0.7493 -2.1659
  742SOL  HW2   2226   0.967   2.060   2.875  1.6192 -1.6810 -1.2800
  743SOL  OW    2227   2.532   1.946   1.801 -0.4910  0.3827  0.3084
  743SOL  HW1   2228   2.495   1.935   1.894  1.6445 -1.8627 -0.5514
  743SOL  HW2   2229   2.574   1.863   1.764 -2.3474 -1.1389  2.7817
  744SOL  OW    2230   2.821   0.837   0.176 -0.1673  0.1683 -0.1568
  744SOL  HW1   2231   2.770   0.751   0.166  0.9696  1.2753 -1.4657
  744SOL  HW2   2232   2.773   0.921   0.142 -0.2751 -0.5951  0.9509
  745SOL  OW    2233   2.916   0.982   1.076  0.5863  0.3254  0.1313
  745SOL  HW1   2234   2.826   0.974   1.127  0.2560  1.3771  0.3042
  745SOL  HW2   2235   2.991   0.987   1.143  0.1839 -0.2242 -0.3525
  746SOL  OW    2236   0.800   1.871   0.898  0.0736  0.3719 -0.1631
  746SOL  HW1   2237   0.848   1.947   0.851 -1.1429  3.6722  0.5965
  746SOL  HW2   2238   0.699   1.870   0.882  0.5107 -0.9765  5.1213
  747SOL  OW    2239   0.831   1.587   0.919  0.6948  0.1059  0.2779
  747SOL  HW1   2240   0.835   1.687   0.913 -2.7053  2.4733  1.7135
  747SOL  HW2   2241   0.915   1.548   0.878 -1.4579 -0.3436 -0.0422
  748SOL  OW    2242   2.774   3.095   0.006 -0.1315 -0.0967  0.1846
  748SOL  HW1   2243   2.722   3.008   3.082 -3.7105  0.7247  0.8528
  748SOL  HW2   2244   2.820   0.021   3.018 -1.0536 -0.5254 -2.3701
  749SOL  OW    2245   2.911   1.480   2.066 -0.8470  0.3536 -0.1453
  749SOL  HW1   2246   2.840   1.418   2.028  2.8871  2.8377  0.6622
  749SOL  HW2   2247   2.882   1.579   2.042  0.8144 -0.1306 -0.2570
  750SOL  OW    2248   1.926   1.092   2.085 -0.1396 -0.1056 -0.0229
  750SOL  HW1   2249   1.959   1.103   1.988 -0.3961  1.8294  0.7011
  750SOL  HW2   2250   1.843   1.038   2.090 -2.1100  1.0334 -0.7874
  751SOL  OW    2251   2.880   1.366   0.499 -0.0019 -0.3067 -0.2752
  751SOL  HW1   2252   2.921   1.308   0.427  0.5618 -0.4236 -2.6754
  751SOL  HW2   2253   2.787   1.394   0.467  0.4480  1.1497  0.6439
  752SOL  OW    2254   2.485   2.807   1.111 -0.5574 -0.6062 -0.8180
  752SOL  HW1   2255   2.567   2.764   1.063  1.6515 -1.0413  0.1209
  752SOL  HW2   2256   2.490   2.792   1.214  1.9993 -0.0461 -2.5226
  753SOL  OW    2257   0.697   2.954   1.743  1.6173  0.6303  0.8309
  753SOL  HW1   2258   0.712   3.026   1.670 -0.9047 -1.5535 -1.6219
  753SOL  HW2   2259   0.772   2.935   1.810  2.6669 -0.7083  2.1572
  754SOL  OW    2260   2.979   2.226   2.047 -0.9134 -0.2602  0.0139
  754SOL  HW1   2261   2.882   2.257   2.022 -1.4804  0.2925  0.9498
  754SOL  HW2   2262   3.015   2.276   2.132 -0.1043 -2.9326  0.2650
  755SOL  OW    2263   0.180   1.761   0.417  0.0131 -0.0931 -0.7287
  755SOL  HW1   2264   0.261   1.712   0.460  1.2915  1.3850 -1.0083
  755SOL  HW2   2265   0.128   1.701   0.355 -0.1233  2.4064 -0.0564
  756SOL  OW    2266   1.670   2.802   0.675  0.0752 -0.4573 -0.1076
  756SOL  HW1   2267   1.662   2.707   0.640 -0.6379  0.3086 -0.6708
  756SOL  HW2   2268   1.621   2.809   0.762  0.8609  0.3497 -0.1270
  757SOL  OW    2269   2.445   0.964   2.074  0.0812 -0.2600  1.1710
  757SOL  HW1   2270   2.376   0.911   2.127  1.6429 -0.0928 -0.7691
  757SOL  HW2   2271   2.542   0.933   2.100 -3.6631  0.1513 -0.2621
  758SOL  OW    2272   2.463   1.176   2.246  0.4534  0.6096  0.4870
  758SOL  HW1   2273   2.552   1.223   2.247 -0.3150  0.1862  0.3415
  758SOL  HW2   2274   2.461   1.094   2.185  1.9902 -2.7954  1.1046
  759SOL  OW    2275   2.162   0.485   0.640  0.1273  0.8167  0.5053
  759SOL  HW1   2276   2.084   0.464   0.575  2.1727 -0.9933 -1.2195
  759SOL  HW2   2277   2.124   0.490   0.736  1.5867  1.0844 -0.2806
  760SOL  OW    2278   0.796   1.062   1.327  0.1055  0.0212  0.1684
  760SOL  HW1   2279   0.806   1.081   1.427 -0.6387  1.5638  1.4046
  760SOL  HW2   2280   0.744   1.137   1.280  2.5194  0.2277  0.5839
  761SOL  OW    2281   0.843   0.441   2.820  0.2565  0.0374  0.0863
  761SOL  HW1   2282   0.865   0.542   2.804 -0.9659  1.0911  2.2759
  761SOL  HW2   2283   0.747   0.416   2.840  1.8584  0.3276  0.0689
  762SOL  OW    2284   1.114   1.920   1.527 -0.7045  0.2381 -0.4497
  762SOL  HW1   2285   1.178   1.981   1.471 -0.4837  2.9900  3.1147
  762SOL  HW2   2286   1.166   1.837   1.551 -1.7921 -1.5652 -0.6229
  763SOL  OW    2287   1.980   1.397   1.555 -0.0759 -0.4682 -0.3980
  763SOL  HW1   2288   2.048   1.363   1.487 -0.5528  3.0022 -1.5395
  763SOL  HW2   2289   2.010   1.480   1.601 -0.0921  0.7445 -1.5788
  764SOL  OW    2290   2.986   0.275   0.782  0.1129 -0.2955 -0.0626
  764SOL  HW1   2291   2.945   0.242   0.696  1.3808 -0.5206  0.1257
  764SOL  HW2   2292   2.977   0.378   0.786  0.0086  0.6033 -1.2860
  765SOL  OW    2293   0.034   0.775   1.959  0.2649 -0.5651 -0.3673
  765SOL  HW1   2294   0.076   0.868   1.968  1.0850  2.9056 -0.0616
  765SOL  HW2   2295   0.069   0.705   2.018 -1.6760  1.7164  2.2219
  766SOL  OW    2296   3.003   2.098   2.592 -0.5258  0.0179 -0.3095
  766SOL  HW1   2297   2.976   2.049   2.501  0.8473  0.1976 -1.2253
  766SOL  HW2   2298   2.969   2.196   2.590  1.7801 -1.5287  0.5324
  767SOL  OW    2299   0.864   0.706   2.767  0.2966  0.9010  0.4099
  767SOL  HW1   2300   0.859   0.680   2.669  3.1491 -0.9626  2.3595
  767SOL  HW2   2301   0.810   0.785   2.786 -0.8734 -0.5800 -1.4425
  768SOL  OW    2302   1.401   1.579   1.772  0.0863 -0.4461 -0.0051
  768SOL  HW1   2303   1.494   1.623   1.755  0.0385 -1.1806  1.2114
  768SOL  HW2   2304   1.369   1.596   1.871 -2.2373  0.0450  1.6419
  769SOL  OW    2305   0.077   0.996   1.172  0.3729 -0.3075  0.2752
  769SOL  HW1   2306   0.076   1.058   1.252 -0.7063  2.0045  0.6653
  769SOL  HW2   2307   0.111   1.054   1.093 -0.8111  1.2198 -0.4252
  770SOL  OW    2308   2.288   1.112   1.895  0.2853  0.0184  0.3463
  770SOL  HW1   2309   2.265   1.202   1.943  1.2483 -1.2554 -1.2800
  770SOL  HW2   2310   2.343   1.054   1.961 -0.3653  0.0852 -1.5357
  771SOL  OW    2311   2.721   0.503   2.445 -0.4214 -0.5608 -0.6053
  771SOL  HW1   2312   2.784   0.458   2.380 -0.4726 -2.4961 -0.1045
  771SOL  HW2   2313   2.691   0.590   2.399  1.6511 -0.5322  0.2881
  772SOL  OW    2314   2.352   2.008   1.600  0.0774 -0.2643 -0.3631
  772SOL  HW1   2315   2.430   1.994   1.667  1.5835 -1.6571 -0.2227
  772SOL  HW2   2316   2.277   2.068   1.637 -0.9235  0.0399 -0.8870
  773SOL  OW    2317   1.257   1.263   2.053  0.0476 -0.6874  0.1289
  773SOL  HW1   2318   1.328   1.313   2.107  0.1820  0.4849 -3.2571
  773SOL  HW2   2319   1.296   1.186   1.996  0.5299 -0.7939  0.4665
  774SOL  OW    2320   0.159   2.807   2.852 -0.4545  0.1466  0.5264
  774SOL  HW1   2321   0.194   2.795   2.758  0.2102 -4.4938 -1.4720
  774SOL  HW2   2322   0.096   2.890   2.862 -1.8165 -1.1904 -1.0412
  775SOL  OW    2323   1.358   1.896   0.035  0.9899 -0.4817  0.1448
  775SOL  HW1   2324   1.446   1.937   0.073  0.9131 -3.0654  0.2563
  775SOL  HW2   2325   1.383   1.849   3.046  1.8469 -0.6221 -2.9719
  776SOL  OW    2326   2.249   0.387   1.991 -0.9204 -0.1949 -0.5053
  776SOL  HW1   2327   2.321   0.454   1.962  0.9509 -0.9779 -0.5375
  776SOL  HW2   2328   2.259   0.373   2.090 -1.2188  2.3647 -1.8979
  777SOL  OW    2329   2.034   2.870   2.348  1.1320  0.3122  0.0837
  777SOL  HW1   2330   2.102   2.800   2.360 -0.7448  1.5100 -2.9022
  777SOL  HW2   2331   1.940   2.845   2.384 -1.5498  0.5914  2.2962
  778SOL  OW    2332   0.929   0.064   2.569  0.1270 -0.2995 -0.1140
  778SOL  HW1   2333   0.959   0.009   2.647  0.9826 -0.1623  0.7768
  778SOL  HW2   2334   0.897   0.012   2.491 -1.2358 -0.2087 -0.5190
  779SOL  OW    2335   0.824   0.150   0.895 -0.5724 -0.3783  0.6213
  779SOL  HW1   2336   0.766   0.228   0.863  1.9073  0.2748  2.0240
  779SOL  HW2   2337   0.807   0.067   0.835  0.4025 -1.3159 -2.8942
  780SOL  OW    2338   1.947   0.621   2.744  0.3105  0.1172 -0.3134
  780SOL  HW1   2339   1.963   0.662   2.837  0.4232  1.3372  0.3220
  780SOL  HW2   2340   2.033   0.608   2.692 -0.0583 -1.2115 -1.3646
  781SOL  OW    2341   0.428   1.637   0.405 -0.6548 -0.3200 -0.6245
  781SOL  HW1   2342   0.489   1.699   0.351  1.8870 -0.2762 -1.6730
  781SOL  HW2   2343   0.481   1.599   0.483 -0.0332 -0.3005  3.2845
  782SOL  OW    2344   3.073   2.753   0.369 -0.1087  0.6521 -0.3638
  782SOL  HW1   2345   3.005   2.803   0.317  1.5394 -1.7149 -1.6896
  782SOL  HW2   2346   0.069   2.726   0.329  1.6429 -1.6848  0.2338
  783SOL  OW    2347   1.633   0.389   0.612 -0.4664 -0.1219  0.0926
  783SOL  HW1   2348   1.696   0.467   0.623 -0.2617  0.8624  2.5053
  783SOL  HW2   2349   1.685   0.297   0.602  3.1709  1.8185 -0.3239
  784SOL  OW    2350   2.853   1.750   0.190  0.5007  0.5509  0.9344
  784SOL  HW1   2351   2.830   1.829   0.251  1.0039 -0.2343 -1.6701
  784SOL  HW2   2352   2.845   1.776   0.093  1.8608  2.0122  0.5624
  785SOL  OW    2353   1.516   2.815   1.331 -0.4088  0.1532 -0.1163
  785SOL  HW1   2354   1.524   2.883   1.253  1.2922 -0.8135  0.2796
  785SOL  HW2   2355   1.451   2.841   1.405  1.1355 -1.0846  0.7991
  786SOL  OW    2356   1.368   1.695   2.904  0.2881 -0.1577  0.3802
  786SOL  HW1   2357   1.434   1.771   2.878 -1.2233 -0.6185 -0.2913
  786SOL  HW2   2358   1.327   1.655   2.821  0.4841  3.5761 -0.2684
  787SOL  OW    2359   1.163   0.319   1.277  0.2628  0.6073 -0.1301
  787SOL  HW1   2360   1.243   0.262   1.304  3.5555  1.4609 -2.0078
  787SOL  HW2   2361   1.102   0.272   1.206  3.5279  0.5647  0.6601
  788SOL  OW    2362   0.565   0.540   2.587 -0.2725 -0.2655 -0.3514
  788SOL  HW1   2363   0.533   0.485   2.501 -1.2543  1.2276  1.3505
  788SOL  HW2   2364   0.642   0.602   2.559 -2.0130  0.0249  3.2650
  789SOL  OW    2365   2.653   1.640   1.128  0.1618  0.3293  0.0246
  789SOL  HW1   2366   2.654   1.681   1.220 -1.0551 -0.7412  2.4342
  789SOL  HW2   2367   2.634   1.713   1.059 -0.7013 -2.2735 -0.6771
  790SOL  OW    2368   1.450   0.563   2.565  0.0734 -0.3794  0.4310
  790SOL  HW1   2369   1.475   0.656   2.602 -0.1516 -0.0160 -0.0124
  790SOL  HW2   2370   1.530   0.500   2.564 -0.7548  0.3059  1.1847
  791SOL  OW    2371   1.317   0.952   0.124  0.0078  0.1101  0.1733
  791SOL  HW1   2372   1.316   0.952   0.223 -1.9269  2.8895 -0.2801
  791SOL  HW2   2373   1.222   0.972   0.086  0.9812  0.6881 -0.8125
  792SOL  OW    2374   0.989   0.694   1.413  0.1426  0.1591  0.3035
  792SOL  HW1   2375   0.988   0.778   1.353  0.9407  0.4729 -2.4297
  792SOL  HW2   2376   0.904   0.637   1.407 -0.5165 -0.7250 -1.5122
  793SOL  OW    2377   1.726   1.827   1.237 -0.1099 -0.0168  0.6036
  793SOL  HW1   2378   1.686   1.922   1.254 -0.1026 -0.7650 -0.2561
  793SOL  HW2   2379   1.821   1.822   1.269 -0.3287  0.3674 -1.9713
  794SOL  OW    2380   0.430   1.283   1.264  0.6069 -0.3689 -0.2809
  794SOL  HW1   2381   0.403   1.360   1.323  0.8515 -2.8779 -0.7799
  794SOL  HW2   2382   0.413   1.190   1.302 -2.7020 -1.7271 -0.3788
  795SOL  OW    2383   2.996   1.958   2.088 -0.0263 -0.3496 -0.0102
  795SOL  HW1   2384   2.988   2.058   2.079 -1.4113 -2.2647 -0.2650
  795SOL  HW2   2385   3.092   1.931   2.066  0.0246 -0.3180 -1.2156
  796SOL  OW    2386   1.436   1.390   2.195 -0.0001 -0.4767  0.0221
  796SOL  HW1   2387   1.529   1.418   2.166  2.9041 -2.9041  1.4049
  796SOL  HW2   2388   1.442   1.330   2.275 -3.1744  0.8775 -1.0457
  797SOL  OW    2389   2.588   0.424   2.665 -0.1824  0.6755 -0.1599
  797SOL  HW1   2390   2.557   0.328   2.644 -2.1969  0.6928 -1.2776
  797SOL  HW2   2391   2.643   0.462   2.585 -0.7040 -0.9863  0.7978
  798SOL  OW    2392   2.804   2.764   1.712  0.0853 -0.4674 -0.3509
  798SOL  HW1   2393   2.778   2.668   1.722 -0.1132 -1.9145 -1.0891
  798SOL  HW2   2394   2.851   2.799   1.793 -0.4809 -1.0849  1.5672
  799SOL  OW    2395   2.622   2.192   2.648  0.1881  0.0735 -0.1216
  799SOL  HW1   2396   2.679   2.186   2.731  2.3271 -2.1912 -1.1077
  799SOL  HW2   2397   2.657   2.268   2.591 -0.0292  1.2743  2.5114
  800SOL  OW    2398   1.082   1.819   0.508  0.8197  0.0332 -0.5350
  800SOL  HW1   2399   0.994   1.874   0.506  1.6026  1.8266 -0.1220
  800SOL  HW2   2400   1.147   1.840   0.429 -0.5923 -1.8407 -1.2367
  801SOL  OW    2401   0.063   0.623   0.656  0.1443  0.3422  0.4223
  801SOL  HW1   2402   0.096   0.714   0.681  0.9016 -0.2675  1.5119
  801SOL  HW2   2403   3.087   0.595   0.723 -0.6371 -0.0260  1.8465
  802SOL  OW    2404   3.031   1.532   0.652 -1.2127  0.1101  0.1765
  802SOL  HW1   2405   2.972   1.466   0.595  3.1820  0.9205 -1.3832
  802SOL  HW2   2406   2.969   1.612   0.679  3.5777 -0.1357 -1.4164
  803SOL  OW    2407   1.727   1.968   3.049 -0.2407 -0.2038 -0.5799
  803SOL  HW1   2408   1.810   2.031   3.039 -1.3864  1.9036  1.4749
  803SOL  HW2   2409   1.658   2.008   0.016  0.2174  0.2952  3.1077
  804SOL  OW    2410   2.501   3.030   0.223  0.0864  0.1157  0.3675
  804SOL  HW1   2411   2.406   2.993   0.207  2.6679 -1.2274  1.1641
  804SOL  HW2   2412   2.513   0.004   0.149  0.4744  1.3210  0.9799
  805SOL  OW    2413   2.443   1.830   2.916  0.8676 -0.0521  0.2751
  805SOL  HW1   2414   2.382   1.753   2.951  0.9977  3.2604  2.1461
  805SOL  HW2   2415   2.525   1.797   2.869  1.3093  2.1886  0.4996
  806SOL  OW    2416   0.253   0.377   0.287 -0.0945 -0.1586 -0.5636
  806SOL  HW1   2417   0.194   0.336   0.361  1.1182  1.0722  2.4966
  806SOL  HW2   2418   0.278   0.475   0.305 -0.4822 -0.3937  0.7386
  807SOL  OW    2419   2.472   0.389   2.212 -0.0498 -0.3336  0.5722
  807SOL  HW1   2420   2.540   0.451   2.167 -1.0362  1.6027  0.3698
  807SOL  HW2   2421   2.519   0.313   2.254 -0.1860  0.9219 -0.4143
  808SOL  OW    2422   1.366   1.078   0.733  0.0167 -0.5268  0.3055
  808SOL  HW1   2423   1.388   1.146   0.661  1.2812  0.4076 -0.5104
  808SOL  HW2   2424   1.296   1.108   0.803  1.0309  1.3914 -2.1041
  809SOL  OW    2425   0.227   2.854   0.251  0.0275 -0.6541 -0.5600
  809SOL  HW1   2426   0.246   2.881   0.347 -1.3507 -2.2273  0.7051
  809SOL  HW2   2427   0.284   2.909   0.187  2.3108  1.3522 -0.2374
  810SOL  OW    2428   0.884   0.128   0.186  0.7333  0.2691 -0.0293
  810SOL  HW1   2429   0.864   0.059   0.253  0.7364  1.3662  0.8274
  810SOL  HW2   2430   0.867   0.094   0.091  0.7441 -1.4260 -0.6499
  811SOL  OW    2431   2.014   2.617   0.908 -0.0811 -0.1541  0.0463
  811SOL  HW1   2432   2.038   2.518   0.910  0.0854  3.1350  0.2244
  811SOL  HW2   2433   2.086   2.670   0.958  1.2053 -2.8289 -1.8776
  812SOL  OW    2434   0.205   0.044   1.561 -0.1286 -0.1025 -0.4116
  812SOL  HW1   2435   0.296   0.092   1.539  0.7714 -0.2983 -0.2925
  812SOL  HW2   2436   0.225   3.041   1.589  0.3477 -1.2371  2.2238
  813SOL  OW    2437   0.973   2.997   1.114  0.6694  0.2778 -0.0129
  813SOL  HW1   2438   0.988   0.002   1.091  0.4804 -1.6438  2.5070
  813SOL  HW2   2439   0.997   2.933   1.040 -0.9229 -1.1629 -1.7177
  814SOL  OW    2440   1.200   0.096   2.870  0.3156 -0.0218  0.8213
  814SOL  HW1   2441   1.126   0.157   2.904 -0.2193  2.6661 -1.4106
  814SOL  HW2   2442   1.276   0.148   2.824 -0.4721 -1.8690  1.2043
  815SOL  OW    2443   0.085   1.143   1.399 -0.0190 -0.1067  0.3358
  815SOL  HW1   2444   3.087   1.143   1.441 -2.1399 -0.9522  0.3166
  815SOL  HW2   2445   0.112   1.234   1.358  0.3737 -1.0661  0.6826
  816SOL  OW    2446   2.708   0.584   0.123 -0.9926 -0.3596  0.5835
  816SOL  HW1   2447   2.711   0.484   0.144  2.2333 -1.1642  1.1203
  816SOL  HW2   2448   2.651   0.597   0.044  0.1782 -1.0849  2.9035
  817SOL  OW    2449   1.399   0.698   0.047 -0.3046  0.2600 -0.1757
  817SOL  HW1   2450   1.366   0.787   0.086 -0.6696  0.9254  0.9980
  817SOL  HW2   2451   1.321   0.644   0.012 -2.7020 -0.3429  1.9508
  818SOL  OW    2452   2.210   0.299   2.487 -0.0155  0.1424  0.6228
  818SOL  HW1   2453   2.159   0.246   2.558  1.4349 -0.7972  2.5237
  818SOL  HW2   2454   2.269   0.232   2.433  0.5552 -0.1561  2.0413
  819SOL  OW    2455   2.643   1.321   2.716 -0.6168 -0.1644  0.0607
  819SOL  HW1   2456   2.613   1.251   2.783  0.3901 -0.0961 -1.9787
  819SOL  HW2   2457   2.630   1.299   2.615  1.0021 -1.6070  1.4967
  820SOL  OW    2458   1.769   2.634   2.874 -1.2050 -0.1403 -0.3643
  820SOL  HW1   2459   1.822   2.698   2.815 -0.8111  1.6765 -1.4117
  820SOL  HW2   2460   1.667   2.626   2.852 -0.1949 -0.3696  0.7022
  821SOL  OW    2461   0.410   2.423   1.404  0.7968 -0.2681  0.2133
  821SOL  HW1   2462   0.445   2.326   1.404  0.8985  0.5742 -0.5129
  821SOL  HW2   2463   0.445   2.470   1.320  2.2241 -1.8793 -0.0105
  822SOL  OW    2464   2.379   2.452   2.282  0.4452  0.0036 -0.9577
  822SOL  HW1   2465   2.479   2.462   2.263 -0.8621 -3.1088  1.3113
  822SOL  HW2   2466   2.362   2.405   2.371 -0.9115  0.1838 -0.6162
  823SOL  OW    2467   2.006   0.746   2.984  0.4498  0.3694 -0.1561
  823SOL  HW1   2468   2.070   0.803   3.041  0.3585  0.3558  1.9321
  823SOL  HW2   2469   1.961   0.673   3.039 -0.3449  1.2669  1.7908
  824SOL  OW    2470   0.063   0.897   0.775  0.0452 -0.5345 -0.0944
  824SOL  HW1   2471   0.118   0.942   0.701  1.5321  0.7921 -0.8504
  824SOL  HW2   2472   0.039   0.970   0.843  1.8299  0.8424 -1.7770
  825SOL  OW    2473   0.201   2.093   2.591  0.0241 -0.4106 -0.0863
  825SOL  HW1   2474   0.102   2.087   2.574 -1.5561  1.7688  0.5248
  825SOL  HW2   2475   0.244   2.089   2.501 -0.6112 -1.1711  0.2852
  826SOL  OW    2476   2.665   1.756   2.452 -0.9124 -0.0338  0.9857
  826SOL  HW1   2477   2.763   1.727   2.447  0.2449  1.5316 -2.3914
  826SOL  HW2   2478   2.613   1.701   2.386  1.4645 -0.6717 -0.4568
  827SOL  OW    2479   2.683   2.402   2.499 -0.2723 -0.0243 -0.2446
  827SOL  HW1   2480   2.669   2.410   2.399 -1.5236  1.3536 -1.2644
  827SOL  HW2   2481   2.611   2.455   2.548 -0.1805 -2.2505  1.6616
  828SOL  OW    2482   0.042   0.697   1.500 -0.3938 -1.0222  0.0538
  828SOL  HW1   2483   3.041   0.720   1.483 -0.6601 -0.8468 -1.5804
  828SOL  HW2   2484   0.058   0.612   1.451  1.7492 -0.2774 -0.5200
  829SOL  OW    2485   1.909   1.886   2.489 -0.3157 -0.3874 -0.0628
  829SOL  HW1   2486   1.902   1.885   2.388 -0.2860 -1.3309  0.2147
  829SOL  HW2   2487   1.812   1.876   2.521  0.0708  0.3711 -1.7621
  830SOL  OW    2488   2.064   0.129   2.642 -0.0149  0.4342  0.2184
  830SOL  HW1   2489   2.056   0.069   2.722 -0.2304  1.5825  2.4301
  830SOL  HW2   2490   1.967   0.134   2.607  1.1002 -2.2936 -0.0250
  831SOL  OW    2491   0.407   1.033   0.161 -0.7816 -0.2941  0.3940
  831SOL  HW1   2492   0.492   0.975   0.162  0.3309 -0.2254  1.6229
  831SOL  HW2   2493   0.330   0.982   0.209  1.3157  1.0069  1.2202
  832SOL  OW    2494   1.507   2.271   1.992  0.0148 -0.7383  0.2705
  832SOL  HW1   2495   1.468   2.182   1.948  2.2578 -0.4460  0.4169
  832SOL  HW2   2496   1.591   2.303   1.944  1.3977 -2.0211 -0.7143
  833SOL  OW    2497   0.505   1.965   2.134  0.4731  0.5221 -0.2478
  833SOL  HW1   2498   0.577   2.022   2.178 -1.3528 -0.0921  2.0357
  833SOL  HW2   2499   0.546   1.878   2.114 -0.8985  0.6920 -1.3133
  834SOL  OW    2500   0.770   0.539   1.441 -0.2912  0.8092 -0.3292
  834SOL  HW1   2501   0.716   0.588   1.509  0.3590  4.2918  1.3353
  834SOL  HW2   2502   0.730   0.544   1.351 -1.8482  0.6788 -0.6273
  835SOL  OW    2503   0.793   0.978   2.501  0.2464 -0.3008 -0.6435
  835SOL  HW1   2504   0.757   0.979   2.594  0.0459  1.0731 -0.8182
  835SOL  HW2   2505   0.722   1.010   2.433  0.9535 -0.9014  0.1343
  836SOL  OW    2506   1.200   2.350   1.650  0.5672  0.5994 -0.0156
  836SOL  HW1   2507   1.109   2.381   1.633 -0.1228  0.2665  1.4467
  836SOL  HW2   2508   1.263   2.386   1.576 -0.3947  1.7444  1.9592
  837SOL  OW    2509   2.288   0.638   1.600  0.0247  0.5648 -0.7937
  837SOL  HW1   2510   2.366   0.690   1.558  0.9290  0.3362 -0.6131
  837SOL  HW2   2511   2.254   0.701   1.676  0.1753  3.5629  0.1773
  838SOL  OW    2512   1.591   1.583   2.954  0.2134 -0.1562  0.3316
  838SOL  HW1   2513   1.489   1.593   2.942 -2.5371  1.0244 -0.0800
  838SOL  HW2   2514   1.632   1.632   2.877  1.7956  1.0722  0.7112
  839SOL  OW    2515   3.069   2.552   2.717 -0.4266 -0.1310 -0.6899
  839SOL  HW1   2516   0.073   2.541   2.709 -1.5817  3.7451 -0.9844
  839SOL  HW2   2517   3.045   2.649   2.696  1.2955  3.6423 -0.5306
  840SOL  OW    2518   0.307   1.804   0.722 -0.3836  0.3037 -0.3664
  840SOL  HW1   2519   0.251   1.884   0.690 -3.0672  2.0323  2.2934
  840SOL  HW2   2520   0.402   1.840   0.746  0.3475 -4.0553  0.2142
  841SOL  OW    2521   2.472   2.262   0.141 -0.0656 -0.8821 -0.3405
  841SOL  HW1   2522   2.537   2.189   0.121  1.6553  0.8786 -0.0982
  841SOL  HW2   2523   2.457   2.327   0.064 -0.3533 -0.4601  0.9495
  842SOL  OW    2524   1.411   0.809   0.648  0.0129  0.3837 -0.4368
  842SOL  HW1   2525   1.508   0.821   0.602  1.9514 -1.1302  0.2956
  842SOL  HW2   2526   1.376   0.902   0.675 -0.5482  0.4185 -0.6302
  843SOL  OW    2527   1.870   2.738   0.016  0.0281  0.0732  0.4837
  843SOL  HW1   2528   1.847   2.707   3.018  2.1652 -0.4445 -0.7937
  843SOL  HW2   2529   1.962   2.786   0.019 -1.8832 -1.4714  1.6582
  844SOL  OW    2530   2.103   2.615   2.761  0.0866  0.0694  0.0679
  844SOL  HW1   2531   2.194   2.652   2.746  2.9659 -0.2491  1.0926
  844SOL  HW2   2532   2.035   2.689   2.745 -3.3244 -1.3152 -0.7390
  845SOL  OW    2533   3.046   2.568   1.696 -0.2688  0.1368  0.2376
  845SOL  HW1   2534   2.964   2.511   1.728  1.6569 -0.6514 -0.2435
  845SOL  HW2   2535   3.094   2.530   1.615  4.6514  0.6746  2.4737
  846SOL  OW    2536   0.604   2.449   2.248  0.1578  0.1836  0.2002
  846SOL  HW1   2537   0.601   2.401   2.338  1.2123  1.2867  0.6125
  846SOL  HW2   2538   0.540   2.414   2.175  1.4707  1.3779  1.3297
  847SOL  OW    2539   1.286   2.983   0.949  0.4561 -0.7686 -0.3329
  847SOL  HW1   2540   1.223   2.900   0.949  1.8020  1.0241  0.8858
  847SOL  HW2   2541   1.252   3.057   0.890 -0.0586 -3.2092 -1.4926
  848SOL  OW    2542   2.179   0.689   0.406  0.4773  1.2547 -0.3662
  848SOL  HW1   2543   2.223   0.649   0.326  0.4030 -0.1318 -0.8383
  848SOL  HW2   2544   2.183   0.618   0.477 -1.4490  1.4068  0.3379
  849SOL  OW    2545   0.556   0.430   2.833 -0.2965 -0.6043 -0.3303
  849SOL  HW1   2546   0.575   0.473   2.743  2.0193 -0.2592 -2.3433
  849SOL  HW2   2547   0.469   0.461   2.877  0.1825  1.4300 -0.1385
  850SOL  OW    2548   2.889   2.843   0.900 -0.0570 -0.4457  0.2006
  850SOL  HW1   2549   2.866   2.941   0.895  0.4017  0.5466 -1.4425
  850SOL  HW2   2550   2.944   2.814   0.815  1.3988 -0.6301  0.1509
  851SOL  OW    2551   2.363   2.711   1.753 -0.0022  0.4991  0.6527
  851SOL  HW1   2552   2.305   2.696   1.667 -0.0244  1.1400  0.1850
  851SOL  HW2   2553   2.425   2.791   1.746 -0.5702  1.3341  0.3291
  852SOL  OW    2554   1.247   1.673   1.571 -0.2737  0.2741  0.2477
  852SOL  HW1   2555   1.240   1.602   1.496 -4.2265 -0.1064  0.1713
  852SOL  HW2   2556   1.303   1.640   1.650  1.1050  0.0289  1.5751
  853SOL  OW    2557   0.366   2.966   1.250  0.0030  0.6059 -0.7905
  853SOL  HW1   2558   0.339   3.060   1.275  2.0068 -1.3706  1.1390
  853SOL  HW2   2559   0.381   2.911   1.331  0.6875  0.6513  1.2946
  854SOL  OW    2560   1.849   2.989   0.956 -0.5637  0.1468  0.9463
  854SOL  HW1   2561   1.773   2.941   1.003 -0.7189  2.3541 -0.8827
  854SOL  HW2   2562   1.878   2.934   0.874  0.4719  0.7695  0.6664
  855SOL  OW    2563   1.381   2.602   1.226  1.1468 -0.1885  0.1315
  855SOL  HW1   2564   1.289   2.639   1.210 -3.5352  0.6670 -0.7396
  855SOL  HW2   2565   1.439   2.675   1.268  1.3188  0.4829 -1.2977
  856SOL  OW    2566   1.962   1.052   0.099  0.2123  0.2009  0.0600
  856SOL  HW1   2567   2.057   1.036   0.055 -0.9706 -1.3654  1.8189
  856SOL  HW2   2568   1.929   0.977   0.161  0.1220  0.5053 -0.3395
  857SOL  OW    2569   2.199   3.064   2.053 -0.0347 -0.5420 -0.3190
  857SOL  HW1   2570   2.246   0.041   1.995  0.5817  1.0283  1.8981
  857SOL  HW2   2571   2.169   0.012   2.140  0.6632  1.3114  1.3391
  858SOL  OW    2572   2.688   1.731   1.380 -0.1060  0.3464 -0.2879
  858SOL  HW1   2573   2.614   1.662   1.391 -0.1048  1.8900  0.6614
  858SOL  HW2   2574   2.674   1.823   1.431 -0.4791  0.8820  1.7258
  859SOL  OW    2575   1.098   2.462   1.268 -0.1349 -0.6011  0.3315
  859SOL  HW1   2576   1.169   2.394   1.244 -0.7373  0.7937 -1.1967
  859SOL  HW2   2577   1.122   2.562   1.242 -1.4211 -2.4383 -0.0564
  860SOL  OW    2578   2.148   2.472   0.715  0.1955  0.3009  0.4609
  860SOL  HW1   2579   2.129   2.554   0.655  0.1400 -0.6959  1.4426
  860SOL  HW2   2580   2.188   2.393   0.664 -1.3483  1.0316  1.3952
  861SOL  OW    2581   2.284   1.917   0.900 -0.4921  0.6847  0.3065
  861SOL  HW1   2582   2.261   1.899   0.803 -0.9295  0.3817 -2.0946
  861SOL  HW2   2583   2.334   2.007   0.909 -1.1784  0.1000 -2.3426
  862SOL  OW    2584   1.569   2.753   2.573  0.5420  0.5384 -0.2329
  862SOL  HW1   2585   1.559   2.700   2.661  2.8125 -0.8904  1.4463
  862SOL  HW2   2586   1.521   2.710   2.495  0.7623  1.4898  1.0362
  863SOL  OW    2587   0.022   3.066   0.227  0.0930  0.3190 -1.2774
  863SOL  HW1   2588   3.040   2.999   0.225 -1.9120 -1.6642 -1.5434
  863SOL  HW2   2589   0.098   3.019   0.280  0.6354  0.8055  1.3007
  864SOL  OW    2590   2.658   2.664   2.055  0.1501 -0.0727 -0.2200
  864SOL  HW1   2591   2.604   2.603   1.992  1.0167  1.0960 -0.7907
  864SOL  HW2   2592   2.755   2.685   2.023 -1.7089  0.2913  0.2845
  865SOL  OW    2593   0.501   1.650   0.043 -0.0599 -0.2187  0.0793
  865SOL  HW1   2594   0.449   1.734   0.021  3.2525 -2.1824 -0.4838
  865SOL  HW2   2595   0.467   1.607   0.128 -1.7019  0.5734 -0.3564
  866SOL  OW    2596   0.115   1.398   0.275  0.5699 -0.6188 -0.4464
  866SOL  HW1   2597   0.089   1.491   0.250 -0.9038  0.1667 -2.3030
  866SOL  HW2   2598   0.035   1.338   0.282  0.9287 -0.9113  1.0911
  867SOL  OW    2599   2.538   3.058   2.222 -0.7325  0.1593  0.1011
  867SOL  HW1   2600   2.509   3.035   2.127  0.1976 -0.4504 -1.6545
  867SOL  HW2   2601   2.587   2.982   2.267 -2.9252 -3.4406 -0.0700
  868SOL  OW    2602   1.518   2.762   0.929 -0.2270  0.1005  0.3710
  868SOL  HW1   2603   1.505   2.846   0.986 -1.2152 -0.2273  1.8576
  868SOL  HW2   2604   1.593   2.701   0.966 -1.2450  0.9037 -1.1845
  869SOL  OW    2605   0.744   1.152   0.708 -0.5737 -0.1896 -0.1125
  869SOL  HW1   2606   0.700   1.093   0.630  2.0100 -2.6946  0.8815
  869SOL  HW2   2607   0.702   1.129   0.798 -0.0902 -1.2164  1.4880
  870SOL  OW    2608   1.943   1.906   0.823  0.3650  0.7950 -0.3061
  870SOL  HW1   2609   2.029   1.925   0.772 -1.8424  0.6390  0.3572
  870SOL  HW2   2610   1.869   1.872   0.759  1.3885  2.1195 -0.8276
  871SOL  OW    2611   1.228   0.589   1.333  0.5723  0.0061  0.1868
  871SOL  HW1   2612   1.195   0.503   1.303 -1.4218  1.1560 -0.7441
  871SOL  HW2   2613   1.152   0.649   1.363  1.4367  2.2958  1.2407
  872SOL  OW    2614   1.699   0.832   0.543 -0.1435  0.2327  0.3787
  872SOL  HW1   2615   1.740   0.914   0.587 -1.2364  2.7517 -0.0217
  872SOL  HW2   2616   1.634   0.865   0.469 -1.9373 -0.3180 -1.7225
  873SOL  OW    2617   1.420   1.230   2.420  0.2058 -0.0122 -0.2645
  873SOL  HW1   2618   1.315   1.231   2.426 -2.2633  2.1081 -1.4392
  873SOL  HW2   2619   1.453   1.137   2.396 -1.5443 -0.2379  2.3946
  874SOL  OW    2620   0.326   0.971   1.774 -0.4736 -0.3094  0.3145
  874SOL  HW1   2621   0.264   0.987   1.852 -3.0265 -2.5702 -4.9206
  874SOL  HW2   2622   0.279   0.970   1.684  5.3268  0.4739  1.9804
  875SOL  OW    2623   0.020   3.038   2.610  0.0463 -0.2660  0.0754
  875SOL  HW1   2624   0.045   0.012   2.682 -3.2362  0.5342 -2.3603
  875SOL  HW2   2625   3.056   3.095   2.547  2.3221  1.6994  0.6776
  876SOL  OW    2626   1.186   0.572   2.962  0.5150 -0.3768 -0.3411
  876SOL  HW1   2627   1.193   0.525   2.872 -2.3594  2.0078  0.5104
  876SOL  HW2   2628   1.157   0.666   2.954 -0.1795  1.9447  0.4263
  877SOL  OW    2629   0.236   2.971   0.498  0.3179  0.4246  0.3591
  877SOL  HW1   2630   0.139   2.991   0.527 -1.0293 -0.4219  3.6469
  877SOL  HW2   2631   0.261   2.890   0.551 -0.3562 -0.9465  0.8807
  878SOL  OW    2632   2.134   1.629   2.788  0.2597 -0.0699  0.0643
  878SOL  HW1   2633   2.089   1.707   2.834 -2.8592 -0.9640  1.7298
  878SOL  HW2   2634   2.221   1.609   2.838  1.6791 -2.3619 -0.8565
  879SOL  OW    2635   2.499   1.545   1.406  0.2981  0.0774 -0.7955
  879SOL  HW1   2636   2.490   1.502   1.497  1.5494 -1.9415  0.0371
  879SOL  HW2   2637   2.408   1.567   1.363  0.0985  1.3207  0.2481
  880SOL  OW    2638   1.095   0.829   1.002 -0.8424 -0.3187  0.1637
  880SOL  HW1   2639   1.025   0.784   0.946  2.1193  0.4766 -0.9756
  880SOL  HW2   2640   1.184   0.784   0.987 -2.0652 -1.5519  0.3764
  881SOL  OW    2641   1.703   2.332   0.230  0.5443 -0.0546  0.2531
  881SOL  HW1   2642   1.789   2.286   0.205  0.3781  3.6608  2.1067
  881SOL  HW2   2643   1.718   2.431   0.236 -3.1517 -1.1367  3.0622
  882SOL  OW    2644   1.270   0.334   0.913 -0.0032 -0.2677  0.6733
  882SOL  HW1   2645   1.315   0.383   0.996 -0.5385  0.3873  0.7245
  882SOL  HW2   2646   1.240   0.406   0.850  0.0741 -1.4152  0.1928
  883SOL  OW    2647   2.730   1.282   1.969  0.0037 -0.4067  0.3349
  883SOL  HW1   2648   2.725   1.221   2.052 -1.7342  0.3735 -0.8298
  883SOL  HW2   2649   2.705   1.237   1.879  0.1201  0.4155 -0.2694
  884SOL  OW    2650   2.678   1.523   2.893 -0.2421 -0.3787 -0.0826
  884SOL  HW1   2651   2.651   1.433   2.852 -0.2493  1.2978  2.6624
  884SOL  HW2   2652   2.663   1.595   2.823 -1.0416  0.5362  0.0178
  885SOL  OW    2653   0.869   1.853   1.378  0.5667  0.0474  0.1933
  885SOL  HW1   2654   0.908   1.902   1.462  0.7765  1.1037  1.1809
  885SOL  HW2   2655   0.894   1.901   1.292  0.7199 -0.0827 -3.4228
  886SOL  OW    2656   1.213   0.901   2.203 -0.0798 -0.0056 -0.4707
  886SOL  HW1   2657   1.121   0.886   2.168 -1.9759 -0.8553  1.7525
  886SOL  HW2   2658   1.240   0.823   2.268 -0.2989 -0.2213 -0.0377
  887SOL  OW    2659   1.480   3.090   1.811 -0.1755 -0.3059 -0.2159
  887SOL  HW1   2660   1.421   3.008   1.830 -3.2157  0.0612 -2.8219
  887SOL  HW2   2661   1.572   3.059   1.787  0.9033 -0.7197  1.8298
  888SOL  OW    2662   2.976   1.293   1.144  0.3135 -0.3107  0.3848
  888SOL  HW1   2663   3.055   1.340   1.181  2.2478 -0.0174 -1.0522
  888SOL  HW2   2664   2.985   1.250   1.054  0.0452  0.3096 -0.2922
  889SOL  OW    2665   0.025   2.540   0.724 -0.0509 -0.3575 -0.4163
  889SOL  HW1   2666   3.058   2.515   0.804 -1.1451 -0.3339 -0.0313
  889SOL  HW2   2667   0.036   2.459   0.661  1.4778 -0.2481  0.5436
  890SOL  OW    2668   1.009   2.346   2.399 -0.0660  0.5076 -0.3404
  890SOL  HW1   2669   1.058   2.313   2.317 -0.6986 -1.8232 -2.1578
  890SOL  HW2   2670   0.977   2.266   2.456 -3.3957  2.5680 -1.2924
  891SOL  OW    2671   1.002   1.191   0.681  0.1477 -0.4629  0.3116
  891SOL  HW1   2672   1.033   1.143   0.600  1.6441 -0.7983  0.4105
  891SOL  HW2   2673   0.902   1.185   0.692 -1.0739  1.9520  0.8765
  892SOL  OW    2674   3.065   2.614   2.212  0.4577  0.4540 -0.3410
  892SOL  HW1   2675   3.095   2.631   2.114  0.4178  1.2401  0.6120
  892SOL  HW2   2676   3.064   2.514   2.234 -0.3398  1.4673 -0.6839
  893SOL  OW    2677   0.520   0.431   1.803 -0.1489 -0.4661 -0.2512
  893SOL  HW1   2678   0.483   0.524   1.792  0.8022  1.9509 -1.3847
  893SOL  HW2   2679   0.442   0.368   1.788 -1.3564  0.9342  2.3930
  894SOL  OW    2680   0.123   2.175   0.199  0.4022  0.1000 -0.2037
  894SOL  HW1   2681   0.163   2.130   0.281 -0.1034  1.3985  0.8648
  894SOL  HW2   2682   0.169   2.259   0.176  0.6705 -0.0036  1.3143
  895SOL  OW    2683   1.954   2.702   2.104 -0.1387 -0.3907 -0.6179
  895SOL  HW1   2684   2.012   2.640   2.044 -0.0423  0.1465 -1.0078
  895SOL  HW2   2685   2.006   2.740   2.180 -0.0296  0.1752 -0.0719
  896SOL  OW    2686   0.262   0.278   1.864 -0.1474 -0.0994  0.4931
  896SOL  HW1   2687   0.174   0.239   1.834 -0.3685  1.2322  0.9965
  896SOL  HW2   2688   0.254   0.309   1.961 -1.0215  2.1664  0.8564
  897SOL  OW    2689   1.890   1.639   0.906  0.3102 -0.1124 -0.1969
  897SOL  HW1   2690   1.966   1.604   0.956  2.5828  0.3098  2.0163
  897SOL  HW2   2691   1.911   1.736   0.870 -1.4471 -0.6296 -1.6982
  898SOL  OW    2692   0.756   0.042   1.554  0.2014  0.0796 -0.5051
  898SOL  HW1   2693   0.713   0.134   1.557 -2.2366  0.2364 -0.7063
  898SOL  HW2   2694   0.752   0.002   1.461  1.0935  0.4484  1.1352
  899SOL  OW    2695   1.502   2.962   0.236 -0.1551 -0.4719 -0.0480
  899SOL  HW1   2696   1.539   3.037   0.291 -1.6283  1.0322  0.6874
  899SOL  HW2   2697   1.555   2.944   0.151  0.1957 -0.4313 -0.6543
  900SOL  OW    2698   1.221   0.490   2.708  0.3697 -0.2784 -0.3133
  900SOL  HW1   2699   1.286   0.539   2.647 -0.2617  1.6842  0.9314
  900SOL  HW2   2700   1.138   0.453   2.659  0.2529  2.6765  2.6645
  901SOL  OW    2701   0.674   1.340   0.274  0.2034  0.0583 -0.1089
  901SOL  HW1   2702   0.597   1.300   0.322  0.3536  0.7084  0.5924
  901SOL  HW2   2703   0.704   1.427   0.315 -0.3695 -1.8531 -1.7260
  902SOL  OW    2704   1.498   1.078   3.061  0.0346  0.3982  0.0689
  902SOL  HW1   2705   1.429   1.014   0.006 -0.2106 -0.4073  0.1147
  902SOL  HW2   2706   1.445   1.158   3.024 -3.2137  1.6011 -3.2324
  903SOL  OW    2707   0.744   1.365   2.418 -0.1308  0.2534  0.6870
  903SOL  HW1   2708   0.665   1.423   2.399 -0.3789  0.9026 -2.2313
  903SOL  HW2   2709   0.770   1.368   2.514  2.7527 -0.1503 -0.5954
  904SOL  OW    2710   1.201   2.195   0.640 -0.5794 -0.2536 -0.5778
  904SOL  HW1   2711   1.151   2.241   0.715  2.3694 -0.7729  4.3071
  904SOL  HW2   2712   1.272   2.136   0.677  1.0639  2.5887 -1.0766
  905SOL  OW    2713   2.515   2.519   1.880  0.6801 -0.7300 -0.2890
  905SOL  HW1   2714   2.458   2.584   1.822  1.1575  4.4218 -0.5481
  905SOL  HW2   2715   2.478   2.425   1.880 -2.8644  2.0503  0.7191
  906SOL  OW    2716   2.465   2.134   0.620 -0.0918 -0.3646 -0.0515
  906SOL  HW1   2717   2.370   2.164   0.584  1.3317 -0.6548  0.9498
  906SOL  HW2   2718   2.524   2.216   0.612 -1.1232  0.1101  1.7702
  907SOL  OW    2719   1.797   1.251   0.573 -0.6569  0.2590 -0.0878
  907SOL  HW1   2720   1.851   1.238   0.493  0.0244 -0.5327 -1.4824
  907SOL  HW2   2721   1.840   1.331   0.617 -0.0198 -2.1830 -1.8111
  908SOL  OW    2722   1.727   0.259   1.666 -0.2141  0.0891 -0.3366
  908SOL  HW1   2723   1.815   0.208   1.658  0.6749  1.6352  2.3190
  908SOL  HW2   2724   1.694   0.263   1.762 -0.5725 -2.6677 -1.0982
  909SOL  OW    2725   1.377   0.497   1.093 -0.2741 -0.1070 -0.1166
  909SOL  HW1   2726   1.384   0.580   1.030  0.4336  2.8815 -0.6351
  909SOL  HW2   2727   1.320   0.519   1.173 -0.9747 -0.7967 -0.5019
  910SOL  OW    2728   2.249   0.256   1.337 -0.3651  0.3972 -0.1774
  910SOL  HW1   2729   2.271   0.351   1.309 -0.2123  0.9999 -0.0477
  910SOL  HW2   2730   2.153   0.231   1.312  0.9797 -1.1013 -0.9617
  911SOL  OW    2731   1.299   0.027   2.402  0.2285  0.0558  0.2716
  911SOL  HW1   2732   1.257   0.113   2.435  1.0853 -0.3324  0.6776
  911SOL  HW2   2733   1.281   0.016   2.305  0.4774  1.0862  0.9331
  912SOL  OW    2734   2.873   0.768   1.418  0.4217  0.0110 -0.3424
  912SOL  HW1   2735   2.850   0.852   1.359  0.0792 -1.7830  0.6169
  912SOL  HW2   2736   2.816   0.766   1.510 -1.1266  2.0469  0.6866
  913SOL  OW    2737   2.819   2.778   1.436  0.4764  0.2704 -0.0937
  913SOL  HW1   2738   2.816   2.776   1.538  0.9395  0.5339 -2.5314
  913SOL  HW2   2739   2.905   2.819   1.401  0.6580  1.8242 -2.0617
  914SOL  OW    2740   1.407   0.427   0.471  0.0509 -0.3992  0.2516
  914SOL  HW1   2741   1.336   0.350   0.457 -0.9881 -2.1122  0.6376
  914SOL  HW2   2742   1.492   0.408   0.534  0.2464 -1.2215  0.0732
  915SOL  OW    2743   0.319   1.534   2.120 -0.0696 -0.2115  0.0998
  915SOL  HW1   2744   0.303   1.436   2.149 -2.1430  1.3327 -0.4329
  915SOL  HW2   2745   0.231   1.587   2.139  0.9208  2.4280 -1.2607
  916SOL  OW    2746   1.714   2.123   0.567  0.0929  0.7254 -0.0619
  916SOL  HW1   2747   1.724   2.026   0.584  3.0219 -2.1976 -2.8391
  916SOL  HW2   2748   1.640   2.140   0.497  2.9518  0.7132  3.1747
  917SOL  OW    2749   2.634   2.030   2.420  0.0591 -0.7013  0.3250
  917SOL  HW1   2750   2.618   1.928   2.435 -0.3855 -0.1484 -1.9851
  917SOL  HW2   2751   2.638   2.077   2.507  0.7738  1.7068 -0.7433
  918SOL  OW    2752   2.153   1.777   2.552 -0.0046 -0.4742  0.0094
  918SOL  HW1   2753   2.060   1.807   2.515  1.6293 -3.5565  1.1424
  918SOL  HW2   2754   2.148   1.704   2.626 -2.3215  0.1151 -0.5342
  919SOL  OW    2755   0.643   0.609   1.215  0.4951 -0.2440  0.5080
  919SOL  HW1   2756   0.660   0.702   1.249 -0.2220 -0.2061  0.3190
  919SOL  HW2   2757   0.542   0.595   1.215  3.4539  0.2459  1.6200
  920SOL  OW    2758   2.633   0.513   1.679  0.1626  0.8516 -0.2094
  920SOL  HW1   2759   2.699   0.434   1.698 -1.7521  3.3157 -0.4017
  920SOL  HW2   2760   2.598   0.495   1.584 -0.9485  0.8800 -0.9641
  921SOL  OW    2761   2.721   0.951   1.274 -0.7239  0.3618  0.7303
  921SOL  HW1   2762   2.624   0.923   1.256  0.1093 -1.8018 -2.8366
  921SOL  HW2   2763   2.724   1.051   1.291  1.6957 -0.7258  0.8648
  922SOL  OW    2764   2.550   3.058   1.188 -0.3164 -0.0381 -0.4007
  922SOL  HW1   2765   2.512   0.041   1.131 -2.0698  1.0899  0.9260
  922SOL  HW2   2766   2.533   2.966   1.143 -2.0219 -0.0368  0.8908
  923SOL  OW    2767   0.868   2.640   0.929  0.2297  0.6766  0.2424
  923SOL  HW1   2768   0.793   2.707   0.955 -2.5892 -2.7397 -0.2061
  923SOL  HW2   2769   0.863   2.562   0.991 -0.7341  2.5360 -0.5915
  924SOL  OW    2770   1.586   1.006   0.338 -0.8470  0.2033 -0.3987
  924SOL  HW1   2771   1.599   1.105   0.329 -0.5515 -0.7522  1.8996
  924SOL  HW2   2772   1.660   0.958   0.285 -2.1197  0.5811 -0.8166
  925SOL  OW    2773   0.419   1.109   0.874 -0.2427 -0.1536 -0.3354
  925SOL  HW1   2774   0.516   1.097   0.904 -0.9347  0.1434 -1.7340
  925SOL  HW2   2775   0.407   1.196   0.829 -1.6167 -0.5644 -1.0658
  926SOL  OW    2776   2.981   0.047   0.960  0.1364  0.9741  1.1468
  926SOL  HW1   2777   2.959   0.132   0.907 -0.4436 -4.1681  0.1908
  926SOL  HW2   2778   2.911   0.033   1.035  0.9117 -3.4221 -2.0442
  927SOL  OW    2779   0.792   1.336   2.681 -0.0850  0.4106 -0.0655
  927SOL  HW1   2780   0.805   1.269   2.753 -1.7266  1.5674  1.0475
  927SOL  HW2   2781   0.752   1.426   2.721  3.7881 -2.2412  2.8298
  928SOL  OW    2782   0.157   1.065   2.517  0.1175  0.1201  0.4084
  928SOL  HW1   2783   0.133   0.996   2.583 -1.7382  1.4583 -1.2024
  928SOL  HW2   2784   0.256   1.102   2.534 -0.1240 -0.7043  2.3111
  929SOL  OW    2785   2.453   2.478   1.319 -0.6713  0.2600 -0.4959
  929SOL  HW1   2786   2.367   2.430   1.344 -0.2092  1.1055  1.2179
  929SOL  HW2   2787   2.456   2.576   1.351 -2.0337 -0.8245  0.2925
  930SOL  OW    2788   1.950   2.982   1.966 -0.1996 -0.5384  0.0124
  930SOL  HW1   2789   2.052   2.994   1.976 -0.7306 -1.6836  2.5867
  930SOL  HW2   2790   1.915   2.894   1.997  3.1055 -0.9762 -2.5528
  931SOL  OW    2791   1.946   1.233   0.347  0.1620 -0.3467 -0.3069
  931SOL  HW1   2792   1.971   1.155   0.282 -1.5330  2.3915 -2.0002
  931SOL  HW2   2793   1.999   1.317   0.330  1.9623  1.7538  1.4063
  932SOL  OW    2794   1.630   1.589   0.542 -0.2462 -0.4661 -0.1826
  932SOL  HW1   2795   1.544   1.567   0.593 -1.3514  3.0318 -1.8954
  932SOL  HW2   2796   1.618   1.597   0.442 -2.0856 -1.0598  2.2621
  933SOL  OW    2797   0.324   0.689   0.280  0.1223 -0.0910 -0.6173
  933SOL  HW1   2798   0.259   0.769   0.271 -0.8936  2.2617  2.1609
  933SOL  HW2   2799   0.343   0.678   0.379  0.6849 -1.4192  0.7370
  934SOL  OW    2800   0.013   1.291   2.062 -0.2598  0.1174 -0.0953
  934SOL  HW1   2801   3.029   1.348   2.096  0.2543  0.3291 -1.6743
  934SOL  HW2   2802   0.044   1.325   1.971 -1.6446 -2.4717  1.2361
  935SOL  OW    2803   0.616   1.002   0.515 -0.1753  0.2999 -0.0271
  935SOL  HW1   2804   0.625   0.920   0.454  1.0265 -0.3930 -2.0420
  935SOL  HW2   2805   0.562   1.070   0.468 -0.8809  0.6547 -2.2918
  936SOL  OW    2806   3.094   0.019   0.606  0.5406  0.1224  0.6715
  936SOL  HW1   2807   0.052   0.004   0.689 -0.3939 -0.1916  0.8161
  936SOL  HW2   2808   2.990   0.011   0.621 -0.6270  1.6536 -0.3073
  937SOL  OW    2809   3.047   3.021   2.225  0.0059  0.5348 -0.6424
  937SOL  HW1   2810   0.052   3.006   2.212 -1.4091  1.7142 -0.4104
  937SOL  HW2   2811   3.004   3.045   2.136  2.4754  2.2867  0.2374
  938SOL  OW    2812   2.656   2.491   2.832  0.0603  0.0859  0.1327
  938SOL  HW1   2813   2.577   2.491   2.767 -3.7229 -1.8627  0.6133
  938SOL  HW2   2814   2.706   2.406   2.836 -0.6976  2.3195  1.3557
  939SOL  OW    2815   0.831   1.155   1.582  0.1230  0.5815 -0.1288
  939SOL  HW1   2816   0.753   1.221   1.576 -0.7906  0.6941  0.1725
  939SOL  HW2   2817   0.920   1.201   1.582  2.1511  0.1612 -0.4653
  940SOL  OW    2818   1.803   0.177   2.860  0.0166 -0.2155  0.6117
  940SOL  HW1   2819   1.721   0.139   2.814  2.6720 -1.1185  4.1567
  940SOL  HW2   2820   1.820   0.271   2.829  3.0659  1.3341 -0.9336
  941SOL  OW    2821   2.081   2.489   1.935  0.2424  0.1556 -0.0335
  941SOL  HW1   2822   2.177   2.495   1.914  2.7833  0.4559 -0.1172
  941SOL  HW2   2823   2.066   2.405   1.985  2.5159  2.4096  2.8954
  942SOL  OW    2824   1.171   0.502   0.724  0.5597  0.3941 -0.9169
  942SOL  HW1   2825   1.219   0.522   0.636 -1.5581 -1.8690 -0.7489
  942SOL  HW2   2826   1.085   0.554   0.735  1.1644 -0.3691  1.1459
  943SOL  OW    2827   1.461   1.838   1.494 -0.5421 -0.3545 -0.0448
  943SOL  HW1   2828   1.384   1.792   1.544  1.2633  0.3522  0.9254
  943SOL  HW2   2829   1.474   1.777   1.410  0.4894  1.7706  0.2430
  944SOL  OW    2830   2.762   1.233   1.284  0.3255  0.2796  0.1081
  944SOL  HW1   2831   2.685   1.297   1.266  0.5284  0.8775 -1.0958
  944SOL  HW2   2832   2.844   1.266   1.233  0.4458  0.9100 -0.4404
  945SOL  OW    2833   2.308   2.877   2.505 -0.6979  0.0065 -0.0106
  945SOL  HW1   2834   2.288   2.815   2.426  0.7924 -2.8037  1.1704
  945SOL  HW2   2835   2.267   2.970   2.495  0.2452 -1.3333  0.9796
  946SOL  OW    2836   2.089   1.299   1.319 -0.1576 -0.4635  0.2109
  946SOL  HW1   2837   2.031   1.343   1.248  1.4020 -1.1019 -0.8732
  946SOL  HW2   2838   2.154   1.240   1.271  1.1026 -0.9237 -1.5233
  947SOL  OW    2839   0.322   0.736   2.290  0.1658  0.1032  0.2464
  947SOL  HW1   2840   0.301   0.725   2.390 -0.4651 -0.8040  0.9503
  947SOL  HW2   2841   0.415   0.697   2.265 -1.0779  0.5078 -3.0592
  948SOL  OW    2842   2.423   1.495   1.661  0.8086  0.1417  0.3698
  948SOL  HW1   2843   2.450   1.486   1.758  0.2198  0.0531 -0.4272
  948SOL  HW2   2844   2.368   1.579   1.637 -0.1254  0.3903  1.2668
  949SOL  OW    2845   0.323   1.407   2.641  0.1653  0.1053 -0.3150
  949SOL  HW1   2846   0.374   1.326   2.600  2.3852  0.3404  0.8934
  949SOL  HW2   2847   0.227   1.382   2.670  1.1280  0.0031 -2.8171
  950SOL  OW    2848   0.767   3.002   1.310 -0.2039  0.1915 -0.5022
  950SOL  HW1   2849   0.851   2.978   1.255 -1.4952  2.2406 -0.8032
  950SOL  HW2   2850   0.712   3.066   1.253 -0.0275  1.2543 -2.2399
  951SOL  OW    2851   1.383   2.180   2.718 -0.1157  0.0827  0.1056
  951SOL  HW1   2852   1.464   2.226   2.674  1.6281  1.0798 -0.3692
  951SOL  HW2   2853   1.342   2.233   2.794 -0.0715 -1.1457 -0.8391
  952SOL  OW    2854   0.741   2.922   3.081 -0.4664  0.7159 -0.0330
  952SOL  HW1   2855   0.782   3.016   3.065  0.9532  3.1912 -0.4428
  952SOL  HW2   2856   0.661   2.919   3.020  2.3792  1.4703 -2.8280
  953SOL  OW    2857   2.363   1.902   0.296  0.0539 -0.4059 -0.1328
  953SOL  HW1   2858   2.433   1.929   0.362 -1.7499 -2.7158 -2.6282
  953SOL  HW2   2859   2.392   1.913   0.200  1.8149  0.5319  0.2607
  954SOL  OW    2860   2.219   2.984   0.205  0.0300  0.1296 -0.7817
  954SOL  HW1   2861   2.173   3.074   0.193 -0.4736 -0.7731 -1.8452
  954SOL  HW2   2862   2.167   2.939   0.278 -0.9058  0.5619 -0.7233
  955SOL  OW    2863   0.544   1.915   0.814 -0.0790  0.1894 -0.1721
  955SOL  HW1   2864   0.547   2.018   0.835  0.4841 -3.4195 -3.4577
  955SOL  HW2   2865   0.526   1.857   0.895  0.9806 -2.0669  1.5526
  956SOL  OW    2866   2.376   0.612   2.338  0.1636 -0.3309 -0.1971
  956SOL  HW1   2867   2.402   0.520   2.303 -1.0962  0.6128  1.4161
  956SOL  HW2   2868   2.304   0.605   2.411  0.6478  0.3098  1.3715
  957SOL  OW    2869   1.771   2.066   0.962 -0.3233  0.6110  0.5823
  957SOL  HW1   2870   1.706   2.102   0.890 -0.5959  0.2937  0.6262
  957SOL  HW2   2871   1.850   2.011   0.920  1.4048  0.2718 -0.4760
  958SOL  OW    2872   1.577   1.038   0.925 -0.0710 -0.1863  0.5515
  958SOL  HW1   2873   1.535   0.979   0.999 -0.9861 -0.8144 -0.6478
  958SOL  HW2   2874   1.503   1.056   0.862 -1.0545  2.0250 -4.1007
  959SOL  OW    2875   1.600   2.046   2.252 -0.2100 -0.0477 -0.6075
  959SOL  HW1   2876   1.631   1.963   2.208 -1.3147  0.0701 -1.8606
  959SOL  HW2   2877   1.497   2.057   2.241 -0.0146  0.3832 -1.2508
  960SOL  OW    2878   0.743   0.947   2.780 -0.1489 -0.0566 -0.2659
  960SOL  HW1   2879   0.642   0.954   2.802 -0.9121  0.0519 -2.9089
  960SOL  HW2   2880   0.784   1.034   2.808  0.3423  0.6888  1.1625
  961SOL  OW    2881   2.326   1.607   0.322  0.1756 -0.0601 -0.0718
  961SOL  HW1   2882   2.290   1.699   0.313  0.8848 -3.1105  0.2599
  961SOL  HW2   2883   2.430   1.605   0.311 -0.3584 -0.4771  0.4206
  962SOL  OW    2884   0.823   1.927   0.059  0.0508  0.5242  0.1798
  962SOL  HW1   2885   0.845   1.997   0.127 -0.4286 -0.9887  0.3120
  962SOL  HW2   2886   0.881   1.940   3.073 -0.4483 -0.6159 -0.2326
  963SOL  OW    2887   3.061   2.000   2.841 -0.0438  0.4582 -0.0823
  963SOL  HW1   2888   0.028   2.062   2.895  1.9038  2.5983  0.1437
  963SOL  HW2   2889   3.045   2.041   2.750 -0.7451  0.1156 -0.5342
  964SOL  OW    2890   0.265   2.316   2.280 -0.2495 -0.3846 -0.5316
  964SOL  HW1   2891   0.259   2.216   2.288  0.7374 -0.9260  1.0314
  964SOL  HW2   2892   0.339   2.340   2.216 -0.7980 -1.5676 -0.2828
  965SOL  OW    2893   1.723   2.365   1.854 -0.4549  0.3673 -0.6092
  965SOL  HW1   2894   1.728   2.297   1.780  1.4781  2.9931  1.3810
  965SOL  HW2   2895   1.729   2.461   1.825  1.6499  0.2173 -0.6237
  966SOL  OW    2896   0.647   1.584   0.568 -0.3566  0.6876 -0.2243
  966SOL  HW1   2897   0.717   1.568   0.490  2.2612 -1.1739  2.3402
  966SOL  HW2   2898   0.667   1.526   0.649  0.8284  1.5077 -0.2358
  967SOL  OW    2899   1.902   2.843   2.736 -0.1801 -0.1166 -0.3056
  967SOL  HW1   2900   1.955   2.923   2.767 -1.2309 -0.7463 -1.2018
  967SOL  HW2   2901   1.868   2.853   2.645 -1.7865 -3.0462  0.8533
  968SOL  OW    2902   1.267   0.885   2.675 -0.2001  0.6995 -0.1092
  968SOL  HW1   2903   1.359   0.858   2.642 -0.5597  1.5293 -0.7564
  968SOL  HW2   2904   1.202   0.909   2.594 -1.7954  1.7305  0.8265
  969SOL  OW    2905   2.793   0.992   2.728  0.4866  0.6133 -0.4166
  969SOL  HW1   2906   2.884   1.037   2.742 -1.0696 -0.6244 -1.3854
  969SOL  HW2   2907   2.710   1.052   2.745 -0.8501  1.6650  0.4507
  970SOL  OW    2908   2.001   0.185   0.460 -0.0821 -0.0494 -0.5389
  970SOL  HW1   2909   1.922   0.191   0.525  0.1960 -1.1469  2.2465
  970SOL  HW2   2910   2.072   0.119   0.483  1.9982 -2.3560 -1.4809
  971SOL  OW    2911   2.235   2.320   1.346  0.1245 -0.1356 -0.3508
  971SOL  HW1   2912   2.230   2.355   1.251 -1.4200  1.0072  0.8205
  971SOL  HW2   2913   2.156   2.356   1.401  0.9242  0.6976  0.8409
  972SOL  OW    2914   0.937   1.742   2.773 -0.6190  0.4961  0.0500
  972SOL  HW1   2915   0.868   1.665   2.775 -1.6559  3.0462 -0.7358
  972SOL  HW2   2916   0.990   1.753   2.683  1.2643 -0.9146 -0.7742
  973SOL  OW    2917   0.957   3.025   2.820 -0.3490 -0.2815  0.0601
  973SOL  HW1   2918   1.052   3.023   2.842  1.1710 -0.5433 -1.2153
  973SOL  HW2   2919   0.924   2.928   2.812 -2.5797 -1.4904 -0.2145
  974SOL  OW    2920   3.021   0.651   2.627 -0.5173 -0.1223 -0.4908
  974SOL  HW1   2921   0.010   0.617   2.679  1.3892  0.4674 -0.4753
  974SOL  HW2   2922   2.930   0.623   2.665 -0.8388 -0.5027  0.5367
  975SOL  OW    2923   0.431   0.333   0.855 -0.0253  0.5357 -0.1434
  975SOL  HW1   2924   0.442   0.234   0.831  1.5313  0.7872 -1.9798
  975SOL  HW2   2925   0.369   0.383   0.792  1.7647  0.8296  0.7410
  976SOL  OW    2926   0.655   1.083   0.970  0.2108  0.0536 -0.3621
  976SOL  HW1   2927   0.638   0.985   0.985 -1.7708 -0.8051  0.7141
  976SOL  HW2   2928   0.697   1.138   1.044 -1.2080  0.3443 -0.1875
  977SOL  OW    2929   0.850   1.533   0.369 -0.2242 -0.1585 -0.2970
  977SOL  HW1   2930   0.918   1.543   0.449  0.3031 -0.5570  0.7146
  977SOL  HW2   2931   0.903   1.517   0.282  1.9478  4.3244  3.2017
  978SOL  OW    2932   0.124   1.776   2.370 -0.0512  0.1623 -0.3134
  978SOL  HW1   2933   0.200   1.718   2.397 -0.9033  2.0716  1.5863
  978SOL  HW2   2934   0.076   1.740   2.286  0.3887  0.2696  0.0606
  979SOL  OW    2935   1.415   1.511   0.731 -0.3292  0.2831 -0.8704
  979SOL  HW1   2936   1.389   1.457   0.644 -2.2427 -1.3671 -2.2486
  979SOL  HW2   2937   1.481   1.453   0.783 -1.3281 -1.8124 -2.2946
  980SOL  OW    2938   1.091   1.284   1.584 -0.6014 -0.2132 -0.6187
  980SOL  HW1   2939   1.115   1.356   1.512  1.2049  1.7107 -4.4605
  980SOL  HW2   2940   1.150   1.199   1.573  1.3960 -0.7834 -0.1575
  981SOL  OW    2941   0.581   1.291   1.605 -0.0269  0.2845 -0.0362
  981SOL  HW1   2942   0.634   1.356   1.546  0.1100  0.1108 -2.0353
  981SOL  HW2   2943   0.480   1.323   1.621 -1.8560 -0.0911 -1.9915
  982SOL  OW    2944   0.438   1.846   1.746  0.9847  0.7940  0.1851
  982SOL  HW1   2945   0.427   1.755   1.790  0.6214  0.0677 -0.2512
  982SOL  HW2   2946   0.530   1.888   1.766  1.8772  0.4389  1.5803
  983SOL  OW    2947   1.225   2.400   1.931 -0.0648  0.3041 -0.1514
  983SOL  HW1   2948   1.319   2.371   1.957  0.4789 -1.6143 -1.0403
  983SOL  HW2   2949   1.214   2.387   1.828 -0.0442  1.1751 -4.3824
  984SOL  OW    2950   2.863   0.364   0.201  0.1474  0.5057  0.2034
  984SOL  HW1   2951   2.907   0.396   0.289 -2.4521  0.9972 -0.7910
  984SOL  HW2   2952   2.861   0.263   0.194 -1.0506  0.2205  0.3927
  985SOL  OW    2953   1.452   0.898   1.129 -0.4293 -0.4971 -0.1258
  985SOL  HW1   2954   1.530   0.882   1.195  0.9350 -2.1686 -1.7021
  985SOL  HW2   2955   1.371   0.937   1.173 -2.9280 -2.3125  0.7040
  986SOL  OW    2956   1.300   2.894   2.546  0.3320  0.8066 -0.6944
  986SOL  HW1   2957   1.392   2.856   2.544 -1.5221  0.7539  2.5122
  986SOL  HW2   2958   1.303   2.983   2.492  2.2131 -1.6930 -2.2214
  987SOL  OW    2959   0.682   2.591   2.886 -0.2020  0.6344  0.1324
  987SOL  HW1   2960   0.711   2.611   2.982 -0.7537 -1.3429  1.4437
  987SOL  HW2   2961   0.582   2.598   2.886 -0.1305  4.5744 -0.4384
  988SOL  OW    2962   0.259   2.886   1.644  0.2123  0.5038 -0.2007
  988SOL  HW1   2963   0.303   2.847   1.561 -0.2302  2.7865 -0.3403
  988SOL  HW2   2964   0.320   2.890   1.728 -0.7349  2.9796 -0.9730
  989SOL  OW    2965   1.957   2.162   1.524  0.0710  0.1651 -0.9133
  989SOL  HW1   2966   1.979   2.083   1.464  4.0745 -0.3964 -1.0655
  989SOL  HW2   2967   1.868   2.156   1.580  0.9716  1.7858  1.1937
  990SOL  OW    2968   2.554   1.105   2.869 -0.0142 -0.5282  0.1400
  990SOL  HW1   2969   2.456   1.075   2.873 -2.4251 -3.5565 -2.1772
  990SOL  HW2   2970   2.609   1.083   2.949  0.0301  1.7816 -0.1700
  991SOL  OW    2971   0.696   0.377   0.817  0.0603  0.6998  0.2053
  991SOL  HW1   2972   0.595   0.366   0.822 -1.3413 -1.1501  1.3082
  991SOL  HW2   2973   0.726   0.401   0.719 -2.3647  0.4064 -0.0267
  992SOL  OW    2974   1.399   2.059   1.847  0.0726  0.5547  0.0603
  992SOL  HW1   2975   1.411   1.981   1.911  2.2425 -1.4174 -1.0361
  992SOL  HW2   2976   1.304   2.077   1.815  2.7146 -1.4908 -1.4352
  993SOL  OW    2977   0.541   2.270   1.122  0.4036 -0.1097 -0.5976
  993SOL  HW1   2978   0.609   2.216   1.180  1.9833 -2.4952 -1.7112
  993SOL  HW2   2979   0.543   2.373   1.134 -2.3770  0.7872  0.5228
  994SOL  OW    2980   2.848   1.495   0.906 -0.0618 -0.0712 -0.1328
  994SOL  HW1   2981   2.853   1.590   0.875 -0.3084  2.8855  2.4737
  994SOL  HW2   2982   2.800   1.485   0.995 -0.2853  3.6722  2.2690
  995SOL  OW    2983   1.859   0.933   2.853  0.1926 -0.9781 -0.5263
  995SOL  HW1   2984   1.886   1.025   2.889 -0.0270  1.8482 -1.6363
  995SOL  HW2   2985   1.904   0.857   2.899  0.1587 -1.5846 -1.8630
  996SOL  OW    2986   2.513   2.001   0.046  0.7533 -0.2198 -0.1190
  996SOL  HW1   2987   2.587   2.052   0.002 -0.7748 -1.9529 -0.7436
  996SOL  HW2   2988   2.473   1.940   3.069 -1.6871 -1.9005 -1.2853
  997SOL  OW    2989   1.731   1.493   1.517 -0.0947 -0.6668  0.5337
  997SOL  HW1   2990   1.697   1.554   1.600 -0.8739 -0.4519  1.7904
  997SOL  HW2   2991   1.822   1.457   1.537 -2.3318 -1.1007  0.8567
  998SOL  OW    2992   2.994   2.776   0.658  0.0726 -0.9118  0.0461
  998SOL  HW1   2993   3.022   2.795   0.561  1.0077 -2.9176  2.3899
  998SOL  HW2   2994   3.051   2.699   0.693  2.0204  0.8261 -3.3625
  999SOL  OW    2995   0.321   2.719   0.579 -0.0046  0.1630  0.1053
  999SOL  HW1   2996   0.422   2.716   0.578 -0.9967  3.0318  1.2685
  999SOL  HW2   2997   0.287   2.654   0.650 -0.0830  2.1159  0.0878
 1000SOL  OW    2998   0.113   0.044   3.076 -0.4175  0.1021  0.0224
 1000SOL  HW1   2999   0.058   3.087   3.012  1.7554  2.1433  0.5220
 1000SOL  HW2   3000   0.089   0.006   0.069  1.2018 -1.6018 -2.5907
    3.095540047     3.095540047     3.095540047     0.000000000     0.000000000     0.000000000     0.000000000     0.000000000     0.000000000
