1000 SPC/Fw water molecules t=  31.00000 step= 31000
 3000
    1SOL     OW    1   1.939   2.780   0.375 -0.5354 -0.5058  0.4549
    1SOL    HW1    2   2.017   2.727   0.333  3.8157 -1.6002 -1.6135
    1SOL    HW2    3   1.856   2.715   0.384  0.3370 -0.0745  2.4994
    2SOL     OW    4   1.165   0.602   1.990  0.3763 -0.2446 -0.1588
    2SOL    HW1    5   1.254   0.644   2.025 -0.3708  2.7324  3.7060
    2SOL    HW2    6   1.107   0.607   2.076  0.0376  0.5861 -0.5124
    3SOL     OW    7   0.888   3.072   2.772 -0.1866  0.3592  0.3879
    3SOL    HW1    8   0.818   3.001   2.756 -1.9485  0.9146  1.2036
    3SOL    HW2    9   0.860   0.026   2.846  1.2634 -2.3081  0.3607
    4SOL     OW   10   1.344   1.432   3.003 -0.2504  0.5821  0.1913
    4SOL    HW1   11   1.342   1.368   2.921  1.2339 -0.3627  3.6096
    4SOL    HW2   12   1.343   1.524   2.966 -0.9595 -3.5118 -1.0073
    5SOL     OW   13   0.738   1.184   2.162 -0.5333 -0.4648 -0.0176
    5SOL    HW1   14   0.776   1.094   2.126 -2.7468  0.4413 -1.2266
    5SOL    HW2   15   0.810   1.256   2.181  4.1301 -0.8276 -0.0285
    6SOL     OW   16   2.014   0.784   2.511 -0.1986 -0.2659 -0.1427
    6SOL    HW1   17   1.978   0.710   2.572 -1.1020 -0.9994 -1.3524
    6SOL    HW2   18   2.099   0.757   2.459  2.4146 -1.3295  0.4350
    7SOL     OW   19   0.452   0.880   1.165 -0.4923  0.4149  0.5516
    7SOL    HW1   20   0.548   0.859   1.132  3.6007  1.9772 -1.3743
    7SOL    HW2   21   0.444   0.984   1.165  1.6492  1.0527 -0.4169
    8SOL     OW   22   2.098   2.804   1.908  0.0915 -0.1173  0.1426
    8SOL    HW1   23   1.996   2.792   1.912  0.1173 -1.1487  1.5553
    8SOL    HW2   24   2.123   2.895   1.863  0.6289  0.8924 -4.1275
    9SOL     OW   25   0.240   2.945   0.596 -0.0712 -0.0676 -0.0656
    9SOL    HW1   26   0.135   2.947   0.578 -0.9327 -2.8133  3.4916
    9SOL    HW2   27   0.290   2.925   0.507 -0.0696  1.1933  0.2115
   10SOL     OW   28   0.050   2.390   2.421 -0.1916 -0.2361 -0.0339
   10SOL    HW1   29   0.133   2.450   2.414 -1.2169  3.4504  1.5675
   10SOL    HW2   30   0.069   2.291   2.399 -3.0949 -1.5556 -0.3471
   11SOL     OW   31   0.836   1.710   3.070 -0.0056 -0.5472 -0.5860
   11SOL    HW1   32   0.875   1.630   0.016  2.2354 -1.9687  1.1970
   11SOL    HW2   33   0.881   1.795   3.102  0.8812  0.3457  0.4123
   12SOL     OW   34   2.222   2.737   1.250  0.1887 -0.3421 -0.0960
   12SOL    HW1   35   2.213   2.805   1.177  1.2756 -2.0355  1.4700
   12SOL    HW2   36   2.274   2.658   1.222 -2.0502  3.1946  0.1504
   13SOL     OW   37   0.314   0.131   2.736 -0.3543  0.5298 -0.2328
   13SOL    HW1   38   0.260   0.123   2.824  1.6318  1.3350 -0.0782
   13SOL    HW2   39   0.410   0.160   2.758  2.3319 -3.4335  0.2889
   14SOL     OW   40   1.396   1.291   1.545 -0.4049  0.2185  0.1539
   14SOL    HW1   41   1.361   1.306   1.639  2.1382 -0.7714 -3.2065
   14SOL    HW2   42   1.353   1.361   1.481 -2.2832 -0.1975 -1.5549
   15SOL     OW   43   0.401   1.465   2.090 -0.0586 -0.1551 -0.2764
   15SOL    HW1   44   0.303   1.462   2.111  1.9532 -0.8921  0.2920
   15SOL    HW2   45   0.425   1.374   2.045  0.0748 -1.7312 -0.3617
   16SOL     OW   46   1.567   0.774   2.696 -0.4209 -0.7990  0.2469
   16SOL    HW1   47   1.482   0.778   2.758  0.0028 -0.6736 -0.1775
   16SOL    HW2   48   1.626   0.858   2.706  1.3049  0.2839  0.9876
   17SOL     OW   49   0.025   2.481   2.076 -0.2794 -0.2039 -0.2152
   17SOL    HW1   50   0.028   2.565   2.127 -0.5455 -3.6807 -0.4654
   17SOL    HW2   51   0.063   2.500   1.985 -2.9525  2.9100  0.2912
   18SOL     OW   52   1.660   1.236   0.472  0.4464 -0.4542 -0.1519
   18SOL    HW1   53   1.730   1.300   0.505 -1.9516  1.6749 -0.8125
   18SOL    HW2   54   1.627   1.184   0.547  0.8157  1.9658  0.2143
   19SOL     OW   55   0.145   1.356   1.938  0.1767 -0.3684 -0.3391
   19SOL    HW1   56   0.124   1.257   1.919  0.5579  0.5008  0.0996
   19SOL    HW2   57   0.168   1.401   1.848 -0.2048  1.3097 -1.6658
   20SOL     OW   58   2.163   2.188   2.853 -0.1804 -0.1092 -0.1280
   20SOL    HW1   59   2.236   2.257   2.871  1.7059 -1.1004  3.3446
   20SOL    HW2   60   2.201   2.097   2.869 -0.7344 -1.9198  1.9642
   21SOL     OW   61   1.888   1.961   0.768  0.3716  0.0109  0.0302
   21SOL    HW1   62   1.921   2.041   0.714  0.4731 -1.8182  1.0218
   21SOL    HW2   63   1.886   1.985   0.867  1.1639 -2.0672 -0.5613
   22SOL     OW   64   2.166   2.131   1.167  0.0763 -0.0866  0.4158
   22SOL    HW1   65   2.199   2.154   1.072  0.7446  0.2515 -0.5540
   22SOL    HW2   66   2.105   2.203   1.210 -2.2838  0.2143  1.8590
   23SOL     OW   67   0.151   1.153   1.262 -1.0146 -0.2638  0.4066
   23SOL    HW1   68   0.138   1.220   1.337 -1.0739 -0.7567  0.4484
   23SOL    HW2   69   0.067   1.127   1.222  0.3289  0.9481  1.0099
   24SOL     OW   70   1.506   1.207   1.948  0.2442 -0.0230 -0.0934
   24SOL    HW1   71   1.561   1.123   1.935  0.1109 -0.9232 -0.5087
   24SOL    HW2   72   1.574   1.282   1.976  1.9963 -1.2066  0.8073
   25SOL     OW   73   1.827   0.088   2.158  0.8890  0.4553  0.1855
   25SOL    HW1   74   1.919   0.045   2.153 -0.1852  3.2073  2.2191
   25SOL    HW2   75   1.831   0.180   2.213  0.2886 -0.3638  0.5244
   26SOL     OW   76   0.844   0.119   0.830  0.1725  0.0369 -0.4559
   26SOL    HW1   77   0.848   0.221   0.814 -1.3387  0.9530 -1.6181
   26SOL    HW2   78   0.778   0.074   0.768  1.4834 -0.2271  2.0241
   27SOL     OW   79   1.513   1.371   0.820 -0.0007  0.1527  0.4211
   27SOL    HW1   80   1.455   1.437   0.768  0.4703 -1.9301 -0.2003
   27SOL    HW2   81   1.578   1.420   0.883 -1.3099  1.4323  0.3221
   28SOL     OW   82   2.414   2.337   1.152  0.5808  0.0321 -0.0556
   28SOL    HW1   83   2.368   2.355   1.240  1.3517  0.3574 -0.4179
   28SOL    HW2   84   2.392   2.419   1.090 -2.6740 -0.1985  0.6280
   29SOL     OW   85   1.981   0.005   2.403 -0.6769  0.1627  0.9898
   29SOL    HW1   86   1.975   3.013   2.398  1.1061 -1.0191  0.0271
   29SOL    HW2   87   1.935   0.044   2.487  2.0054 -1.0330  2.0460
   30SOL     OW   88   0.035   3.028   1.990 -0.1693 -0.0179  0.0421
   30SOL    HW1   89   3.078   3.109   1.995 -2.6813 -0.6986 -1.0497
   30SOL    HW2   90   0.038   2.992   1.896 -1.8109 -0.6415 -3.0271
   31SOL     OW   91   3.020   1.724   2.228  0.0485  0.1174  0.3252
   31SOL    HW1   92   3.008   1.825   2.242  1.0930 -0.9434 -0.2193
   31SOL    HW2   93   2.993   1.695   2.135 -1.4207  0.0167 -1.0280
   32SOL     OW   94   1.346   2.490   2.389  0.2485  0.5097 -0.3777
   32SOL    HW1   95   1.418   2.418   2.367  1.0345 -3.3088 -0.3960
   32SOL    HW2   96   1.339   2.500   2.490  2.4557 -2.6615  2.1201
   33SOL     OW   97   0.160   0.129   2.976  0.4745  0.4246  0.0025
   33SOL    HW1   98   0.163   0.062   3.046  2.6991  4.1982 -2.6994
   33SOL    HW2   99   0.081   0.193   2.986 -0.4392 -0.5980 -0.1792
   34SOL     OW  100   2.649   0.220   0.336  0.0446  0.0267  0.6327
   34SOL    HW1  101   2.673   0.169   0.416 -1.4820  4.7907 -2.1572
   34SOL    HW2  102   2.725   0.244   0.273 -1.1387 -1.3424  2.0992
   35SOL     OW  103   2.773   2.612   1.762 -0.4563  0.6553 -0.4605
   35SOL    HW1  104   2.732   2.525   1.805  0.6512  1.5477 -0.3711
   35SOL    HW2  105   2.716   2.645   1.683 -2.5791  2.1969 -0.5774
   36SOL     OW  106   2.418   3.014   2.306 -0.5379  0.8870 -0.6405
   36SOL    HW1  107   2.375   3.011   2.397  1.4184  0.5986 -2.0931
   36SOL    HW2  108   2.424   3.104   2.263 -0.5687  0.4326  1.3883
   37SOL     OW  109   1.521   0.027   0.081 -0.4770 -0.1700 -0.6617
   37SOL    HW1  110   1.489   0.036   0.176 -0.7708 -1.1758 -4.1323
   37SOL    HW2  111   1.462   3.067   0.040  0.1956 -1.8359 -0.5481
   38SOL     OW  112   0.276   0.482   0.105  0.1554 -0.0969  0.3078
   38SOL    HW1  113   0.269   0.552   0.179  2.2599 -0.3304  2.1431
   38SOL    HW2  114   0.248   0.520   0.016  0.8137 -0.7086  0.8135
   39SOL     OW  115   0.826   1.860   2.235  0.2774 -0.2184  0.4398
   39SOL    HW1  116   0.862   1.880   2.331  0.5982 -0.8448  2.1195
   39SOL    HW2  117   0.837   1.942   2.173  0.3015 -1.7052  0.6467
   40SOL     OW  118   3.087   0.507   2.632 -0.4787  0.0760  0.2417
   40SOL    HW1  119   3.082   0.564   2.548 -1.6411  1.6416  0.4887
   40SOL    HW2  120   0.073   0.509   2.672  0.5572  1.9617 -0.9332
   41SOL     OW  121   1.330   0.913   1.904  0.0802  0.0571  0.1736
   41SOL    HW1  122   1.389   0.921   1.821  2.1987  1.5525 -2.0112
   41SOL    HW2  123   1.358   0.844   1.971  0.9096 -0.1839  2.0771
   42SOL     OW  124   2.707   0.193   1.311 -0.2964 -0.8882  0.0391
   42SOL    HW1  125   2.708   0.145   1.403  2.2147  1.1640 -0.8950
   42SOL    HW2  126   2.613   0.220   1.280  0.4678  1.0737  2.3005
   43SOL     OW  127   1.460   0.914   1.666 -0.5377 -0.3506  0.3979
   43SOL    HW1  128   1.553   0.951   1.663 -1.8210 -1.7703 -1.3734
   43SOL    HW2  129   1.451   0.813   1.665 -0.9187 -1.1856  2.7554
   44SOL     OW  130   3.068   0.294   3.009 -0.8071 -0.1020  0.3612
   44SOL    HW1  131   3.083   0.337   3.101  0.0618  2.7635 -1.3698
   44SOL    HW2  132   2.999   0.225   3.017  4.4880  4.7323  1.1424
   45SOL     OW  133   0.245   1.961   1.673  0.3752  0.1063 -0.3069
   45SOL    HW1  134   0.312   1.972   1.750  1.3566 -1.7313 -0.9423
   45SOL    HW2  135   0.275   2.013   1.590 -0.5580 -0.2369  1.1913
   46SOL     OW  136   2.293   2.686   1.745 -0.0646  0.0058 -0.1722
   46SOL    HW1  137   2.215   2.699   1.810  1.1554  0.5584  1.1790
   46SOL    HW2  138   2.356   2.618   1.782  0.9417 -1.0821  1.3181
   47SOL     OW  139   0.305   1.888   1.322  0.0700  0.3152  0.3508
   47SOL    HW1  140   0.346   1.797   1.329 -1.3410  0.3080  0.5664
   47SOL    HW2  141   0.204   1.877   1.321 -0.6559 -0.3933 -0.6961
   48SOL     OW  142   0.715   2.849   2.706  0.4444 -0.2085 -0.2063
   48SOL    HW1  143   0.698   2.780   2.638  1.0247 -1.5267  0.2752
   48SOL    HW2  144   0.736   2.799   2.790 -0.0271  1.2013  1.3036
   49SOL     OW  145   2.860   1.443   1.780  0.0979  0.5315  0.0583
   49SOL    HW1  146   2.825   1.384   1.705  0.2684 -0.5180  1.1258
   49SOL    HW2  147   2.808   1.530   1.784 -0.4715 -2.2287 -0.6705
   50SOL     OW  148   1.308   2.759   0.549 -0.2234 -0.1974  1.1142
   50SOL    HW1  149   1.323   2.712   0.639  2.6146  2.5733  1.3438
   50SOL    HW2  150   1.210   2.789   0.549  0.0540 -0.9241  2.0744
   51SOL     OW  151   1.162   0.291   1.022 -0.0861  0.0661 -0.3910
   51SOL    HW1  152   1.171   0.381   0.975  1.0554  1.6956 -1.1942
   51SOL    HW2  153   1.236   0.227   0.994 -0.9807  0.2106  0.0721
   52SOL     OW  154   0.762   1.333   0.246 -0.3053  0.2479 -0.0554
   52SOL    HW1  155   0.773   1.232   0.272 -2.0253 -1.0985  0.7122
   52SOL    HW2  156   0.709   1.373   0.327  0.5981  1.5167  0.7045
   53SOL     OW  157   1.107   2.776   2.464 -0.1192 -0.5199 -0.2176
   53SOL    HW1  158   1.153   2.840   2.528  3.1061 -1.0219 -1.3461
   53SOL    HW2  159   1.168   2.754   2.385  1.2296 -0.5619  2.1104
   54SOL     OW  160   1.983   0.124   1.843  0.4931  0.7075  0.1943
   54SOL    HW1  161   1.917   0.167   1.784  1.6850 -0.4897 -2.4650
   54SOL    HW2  162   2.030   0.187   1.910 -0.8799  0.7129  0.1105
   55SOL     OW  163   2.873   2.360   0.238  0.1052 -0.1582 -0.2287
   55SOL    HW1  164   2.901   2.325   0.148  1.9485  1.4980  1.1812
   55SOL    HW2  165   2.884   2.462   0.248 -0.0687  1.7138 -0.6536
   56SOL     OW  166   0.977   2.895   1.742  0.5572  0.3183  0.0784
   56SOL    HW1  167   0.939   2.899   1.645 -2.0600 -0.8932 -1.1872
   56SOL    HW2  168   0.942   2.813   1.791 -1.1652 -2.6505 -0.5053
   57SOL     OW  169   1.919   1.032   2.508  0.1587 -0.8088 -0.2465
   57SOL    HW1  170   1.934   0.932   2.523 -0.3928 -1.8908  0.8703
   57SOL    HW2  171   1.840   1.053   2.448  1.7462  1.2747 -1.0647
   58SOL     OW  172   2.960   0.872   2.006  0.1325 -0.3638 -0.1370
   58SOL    HW1  173   2.936   0.823   2.094  2.1837 -2.6810  4.1284
   58SOL    HW2  174   3.056   0.891   2.005 -4.5091 -0.2015 -1.4368
   59SOL     OW  175   0.783   2.434   1.620  0.0715 -0.5001  0.2727
   59SOL    HW1  176   0.688   2.461   1.586  0.0065  1.6739  1.2167
   59SOL    HW2  177   0.849   2.418   1.542  0.4963  1.1098 -1.0491
   60SOL     OW  178   2.102   2.632   0.241  0.0418  0.0952 -0.0969
   60SOL    HW1  179   2.123   2.536   0.270  0.8561  0.4981 -1.4094
   60SOL    HW2  180   2.138   2.646   0.147 -1.0498 -1.9137 -1.5246
   61SOL     OW  181   1.598   2.476   0.600  0.1461  0.3429  0.3273
   61SOL    HW1  182   1.621   2.381   0.638 -1.1672  0.2914  2.2072
   61SOL    HW2  183   1.516   2.523   0.646  0.5118  0.2256  3.1496
   62SOL     OW  184   1.754   2.985   3.097 -0.1692 -0.2842  0.3508
   62SOL    HW1  185   1.683   3.044   0.026  1.8007 -2.2790  2.1558
   62SOL    HW2  186   1.773   2.911   0.054 -0.2197 -0.7125 -3.6418
   63SOL     OW  187   2.421   0.475   0.107  0.1360  0.4391  0.2228
   63SOL    HW1  188   2.340   0.532   0.108 -0.5220 -1.1528 -1.7018
   63SOL    HW2  189   2.480   0.502   0.029  2.3847  1.6857  2.6416
   64SOL     OW  190   1.438   1.077   2.842  0.3304  0.1717  0.4354
   64SOL    HW1  191   1.409   0.975   2.873  0.7117 -2.5320  2.3370
   64SOL    HW2  192   1.356   1.128   2.803  0.5311  1.7987 -0.0999
   65SOL     OW  193   0.600   2.421   1.181  0.0447  0.5276  0.4387
   65SOL    HW1  194   0.608   2.330   1.147  0.6449 -2.7678  1.2209
   65SOL    HW2  195   0.679   2.476   1.148  1.4716 -0.1340 -1.0380
   66SOL     OW  196   1.096   1.379   1.409 -0.4013  1.1794 -0.2801
   66SOL    HW1  197   1.097   1.285   1.454 -1.8693 -0.6837  0.8280
   66SOL    HW2  198   1.077   1.451   1.484  1.6837  0.6113 -0.2730
   67SOL     OW  199   2.292   1.895   1.888  0.0769 -0.2598  0.1370
   67SOL    HW1  200   2.364   1.956   1.842 -0.1069  0.8637 -1.8245
   67SOL    HW2  201   2.264   1.827   1.821 -2.5725  2.3272  0.4615
   68SOL     OW  202   0.715   1.243   1.906 -0.4056 -0.8262  0.2586
   68SOL    HW1  203   0.727   1.219   2.001 -1.1305  2.8074 -0.9869
   68SOL    HW2  204   0.730   1.344   1.891 -0.4368 -1.4241 -2.8988
   69SOL     OW  205   0.093   2.733   0.026 -0.1364 -0.0385  0.0724
   69SOL    HW1  206   0.190   2.757   3.101  0.1827  1.7389 -0.4508
   69SOL    HW2  207   0.060   2.801   0.097 -3.0084 -0.4629  0.0223
   70SOL     OW  208   2.248   0.718   2.352  0.0473 -0.4933 -0.1529
   70SOL    HW1  209   2.324   0.790   2.358  1.0291  2.7148 -1.3064
   70SOL    HW2  210   2.213   0.724   2.253 -0.9331  2.0781 -2.3139
   71SOL     OW  211   0.757   1.945   0.780 -0.4987  0.0092 -0.2174
   71SOL    HW1  212   0.824   1.907   0.849  1.4888 -0.9691  0.9519
   71SOL    HW2  213   0.684   1.878   0.759 -0.3723 -0.4747 -2.2493
   72SOL     OW  214   2.553   2.093   0.424  0.1777  0.2567  0.1366
   72SOL    HW1  215   2.574   2.192   0.417 -0.7527 -2.0209 -0.7315
   72SOL    HW2  216   2.576   2.063   0.520  0.9301 -0.5429  2.2248
   73SOL     OW  217   1.279   0.520   0.932 -0.0227 -0.0841 -0.0362
   73SOL    HW1  218   1.267   0.603   0.873  1.5648 -0.0643 -2.1324
   73SOL    HW2  219   1.375   0.505   0.958  0.3708 -0.0127  0.3638
   74SOL     OW  220   2.458   2.028   1.760 -0.1529 -0.0831 -0.0732
   74SOL    HW1  221   2.552   2.065   1.780  0.5904  2.5291  0.4895
   74SOL    HW2  222   2.411   2.080   1.682 -0.1728  0.5363  1.8356
   75SOL     OW  223   1.521   1.600   1.920 -0.0481  0.0208 -0.0943
   75SOL    HW1  224   1.420   1.595   1.948 -2.7749 -2.1480 -0.9197
   75SOL    HW2  225   1.573   1.519   1.954 -3.7592 -0.8084  2.4665
   76SOL     OW  226   1.336   2.008   1.101 -0.5230 -0.1111  0.0812
   76SOL    HW1  227   1.396   2.057   1.168 -0.0458 -1.3587 -0.3461
   76SOL    HW2  228   1.392   1.940   1.056 -0.8168 -0.5546  1.7935
   77SOL     OW  229   2.836   1.255   1.958 -0.4244 -0.0033 -0.0551
   77SOL    HW1  230   2.870   1.270   2.053 -0.8727 -1.5167  0.0369
   77SOL    HW2  231   2.842   1.344   1.905  0.5485  3.9032  1.3940
   78SOL     OW  232   1.661   0.771   0.318  0.2786 -0.3253 -0.0018
   78SOL    HW1  233   1.644   0.727   0.229  0.7577  2.2084  0.0859
   78SOL    HW2  234   1.706   0.711   0.388  2.1354  0.6258 -0.5993
   79SOL     OW  235   1.160   1.389   2.240 -0.6728 -0.2342  0.5629
   79SOL    HW1  236   1.204   1.301   2.214  1.5213  2.4024  1.8054
   79SOL    HW2  237   1.067   1.395   2.197  1.5741  0.0844 -0.0776
   80SOL     OW  238   1.002   0.313   1.580 -0.0135  0.2395 -0.3973
   80SOL    HW1  239   1.015   0.402   1.540 -1.6808  1.7106  1.9838
   80SOL    HW2  240   1.083   0.268   1.633  2.6377  1.7650 -1.3301
   81SOL     OW  241   0.515   2.600   0.209 -0.0701 -0.2679 -0.6505
   81SOL    HW1  242   0.470   2.584   0.120  2.6351  2.8677 -0.2485
   81SOL    HW2  243   0.569   2.516   0.229  0.0876  0.1788 -2.4234
   82SOL     OW  244   1.181   0.223   1.774  0.3137  0.5886  0.3250
   82SOL    HW1  245   1.217   0.132   1.735 -2.9025 -5.0063 -4.5382
   82SOL    HW2  246   1.188   0.221   1.874 -0.3325 -1.6949 -7.4967
   83SOL     OW  247   0.532   2.182   1.059  0.5839  0.2661  0.1604
   83SOL    HW1  248   0.539   2.183   0.956  0.7670 -0.9670  1.0691
   83SOL    HW2  249   0.435   2.171   1.091 -2.0133  0.7766 -2.2279
   84SOL     OW  250   2.865   1.584   0.694 -0.0871  0.3945  0.0078
   84SOL    HW1  251   2.829   1.485   0.685  1.0791  0.5342 -0.2942
   84SOL    HW2  252   2.962   1.589   0.706 -2.0200  1.8776 -3.3994
   85SOL     OW  253   2.146   1.971   1.397  0.0319  0.4625  0.1389
   85SOL    HW1  254   2.134   2.009   1.302 -0.9195  2.1135  0.4342
   85SOL    HW2  255   2.059   1.987   1.443  0.5374  0.6424 -2.1734
   86SOL     OW  256   1.579   2.364   1.769  0.1952 -0.7004 -0.0655
   86SOL    HW1  257   1.514   2.406   1.701 -2.0594 -0.4515 -0.9201
   86SOL    HW2  258   1.567   2.266   1.759  0.8121  1.0187 -0.8931
   87SOL     OW  259   2.261   1.437   0.436  0.0977 -0.1798 -0.0383
   87SOL    HW1  260   2.190   1.494   0.480  0.5346 -0.0236  2.0420
   87SOL    HW2  261   2.339   1.487   0.391 -1.8281 -2.2859  0.7471
   88SOL     OW  262   0.442   0.085   0.851  0.1020 -0.1202  0.3242
   88SOL    HW1  263   0.519   0.059   0.785  3.8066 -1.7623  0.9047
   88SOL    HW2  264   0.487   0.110   0.940  1.1229  0.5347  0.5754
   89SOL     OW  265   0.786   0.441   1.716  0.4253  0.5635 -0.7562
   89SOL    HW1  266   0.800   0.538   1.692 -0.0657 -1.1647 -1.1344
   89SOL    HW2  267   0.861   0.387   1.678 -0.1155  0.5037 -0.0404
   90SOL     OW  268   0.000   1.832   0.633 -0.0965 -0.1758  0.0733
   90SOL    HW1  269   0.078   1.898   0.618 -1.0385 -0.2896 -1.1978
   90SOL    HW2  270   3.018   1.883   0.635 -3.3015 -2.0804 -0.3501
   91SOL     OW  271   1.034   1.686   0.766  0.2663 -0.5532  0.6262
   91SOL    HW1  272   0.998   1.722   0.854  1.4617 -0.2136  2.3952
   91SOL    HW2  273   1.110   1.739   0.723  2.2003  0.7782  0.8650
   92SOL     OW  274   2.324   3.026   1.613 -0.0721  0.1084  0.4878
   92SOL    HW1  275   2.401   3.042   1.675 -1.1703 -1.9008  0.3629
   92SOL    HW2  276   2.342   2.945   1.554 -1.3161  1.6633  1.6486
   93SOL     OW  277   0.472   1.278   2.898  0.0770 -0.2233 -0.4324
   93SOL    HW1  278   0.535   1.329   2.960  0.5230 -0.1602  0.2460
   93SOL    HW2  279   0.497   1.304   2.802 -1.1481 -0.9198 -2.2395
   94SOL     OW  280   2.513   0.035   1.781  0.3125 -0.4042  0.2354
   94SOL    HW1  281   2.475   0.120   1.816 -2.5141 -0.5920 -1.8475
   94SOL    HW2  282   2.576   3.098   1.845 -1.5244  0.0087 -0.4362
   95SOL     OW  283   1.956   0.581   1.682  0.0271 -0.4123  0.2117
   95SOL    HW1  284   1.881   0.598   1.611  2.2749  2.4544 -0.8346
   95SOL    HW2  285   2.033   0.525   1.644 -1.2730 -0.8208 -0.5695
   96SOL     OW  286   2.921   0.384   1.828 -0.2662  0.0750 -0.2224
   96SOL    HW1  287   2.885   0.341   1.742  2.2892 -1.1126 -0.1451
   96SOL    HW2  288   2.849   0.438   1.874 -0.4966  2.6276  0.2610
   97SOL     OW  289   2.189   0.141   1.498  0.6617  0.5593 -1.0121
   97SOL    HW1  290   2.112   0.104   1.441 -1.5599  1.2204 -1.5171
   97SOL    HW2  291   2.239   0.056   1.535 -0.4734 -2.1149 -0.3382
   98SOL     OW  292   2.167   2.331   1.796  0.7111  0.6654  0.2098
   98SOL    HW1  293   2.144   2.258   1.862 -1.1616  1.2358  1.2310
   98SOL    HW2  294   2.252   2.377   1.820 -1.6071  1.7221 -0.3300
   99SOL     OW  295   0.805   0.845   0.903  0.1157 -0.1423  0.0783
   99SOL    HW1  296   0.823   0.948   0.893  0.3441  0.4984 -0.9229
   99SOL    HW2  297   0.732   0.827   0.837  1.5944  0.3683  1.5703
  100SOL     OW  298   2.678   1.674   1.887  0.3533  0.1900  0.2666
  100SOL    HW1  299   2.630   1.679   1.974  0.0348 -0.1950 -2.4730
  100SOL    HW2  300   2.621   1.704   1.811  2.7945 -3.6255  0.7228
  101SOL     OW  301   2.119   3.065   0.232 -0.5693  0.3152 -0.1721
  101SOL    HW1  302   2.193   0.019   0.199 -0.1532  2.5951  0.1074
  101SOL    HW2  303   2.106   2.995   0.159 -0.1099  0.6068  0.3633
  102SOL     OW  304   0.137   2.977   1.085 -0.1534  0.5594  0.3864
  102SOL    HW1  305   0.040   3.000   1.062 -0.0429  1.5283 -0.7520
  102SOL    HW2  306   0.189   2.953   1.003  0.6473 -1.6312 -1.6583
  103SOL     OW  307   0.076   3.091   2.323 -0.2640  0.0724 -0.3693
  103SOL    HW1  308   3.089   3.051   2.329 -2.2090  1.5449 -1.1385
  103SOL    HW2  309   0.143   3.023   2.288 -2.1614 -0.4328  0.9074
  104SOL     OW  310   0.328   2.112   1.461 -0.1905  0.4592  0.8639
  104SOL    HW1  311   0.335   2.031   1.401  2.6056  0.5828 -0.3036
  104SOL    HW2  312   0.281   2.186   1.402 -0.2913 -1.8258 -1.9818
  105SOL     OW  313   0.425   1.900   2.183 -0.0855  0.1651 -0.6313
  105SOL    HW1  314   0.503   1.939   2.235 -0.1737  0.2422  1.6438
  105SOL    HW2  315   0.405   1.952   2.100 -1.4043 -0.6229  2.4579
  106SOL     OW  316   2.165   0.251   0.574 -0.0474 -0.3222 -0.0062
  106SOL    HW1  317   2.066   0.222   0.576  0.6715 -0.8393  0.4772
  106SOL    HW2  318   2.188   0.271   0.475 -1.0974  1.5376  0.6984
  107SOL     OW  319   0.585   1.253   1.382 -0.1322 -0.2517 -0.0675
  107SOL    HW1  320   0.532   1.195   1.316 -2.6890 -1.1031 -0.1412
  107SOL    HW2  321   0.684   1.232   1.370 -3.9722 -0.7476 -2.0085
  108SOL     OW  322   2.943   1.088   2.522 -0.4363  0.0290  0.0803
  108SOL    HW1  323   2.977   1.183   2.510  3.3877 -0.4360  0.6929
  108SOL    HW2  324   2.894   1.052   2.438 -2.4610  0.9850  1.3491
  109SOL     OW  325   1.980   3.024   2.929 -0.9895 -0.3583  0.3483
  109SOL    HW1  326   2.012   0.013   2.905  2.4303  2.1180 -0.2038
  109SOL    HW2  327   1.896   3.022   2.984 -0.6409 -0.4801  0.2300
  110SOL     OW  328   0.272   2.114   0.190  0.1392 -0.1756  0.1056
  110SOL    HW1  329   0.187   2.102   0.133 -1.1238  0.3917  0.3944
  110SOL    HW2  330   0.360   2.068   0.148  2.1238  0.2162 -2.4596
  111SOL     OW  331   2.779   0.774   2.214  0.1099  0.2349 -0.7255
  111SOL    HW1  332   2.837   0.703   2.171 -2.0031  0.6991 -2.5832
  111SOL    HW2  333   2.747   0.750   2.309  0.3870  0.7818  0.7471
  112SOL     OW  334   2.023   2.589   1.386  0.4205 -0.0641 -0.5351
  112SOL    HW1  335   1.973   2.655   1.441 -0.8370  2.7201 -1.3241
  112SOL    HW2  336   2.101   2.638   1.348 -1.5037  1.2627  2.5562
  113SOL     OW  337   2.047   2.183   2.603 -0.4603 -0.1153 -0.4990
  113SOL    HW1  338   2.087   2.241   2.536 -0.4065 -1.1159  1.3680
  113SOL    HW2  339   2.104   2.188   2.691  0.8579 -1.1789 -0.3929
  114SOL     OW  340   0.543   0.273   0.502 -0.1174  0.4781 -0.0361
  114SOL    HW1  341   0.461   0.214   0.501 -0.4574 -1.2394 -0.8939
  114SOL    HW2  342   0.597   0.281   0.410 -1.4596 -1.1039 -4.9237
  115SOL     OW  343   2.988   1.370   3.033 -0.8862 -0.0318 -0.3242
  115SOL    HW1  344   3.083   1.366   3.016 -2.1741 -1.1767 -0.1570
  115SOL    HW2  345   2.949   1.280   3.054 -0.7653  1.9316  0.8486
  116SOL     OW  346   2.970   0.806   1.689  0.0794  0.0480  0.0396
  116SOL    HW1  347   2.997   0.881   1.625  1.6436  0.1029  0.8011
  116SOL    HW2  348   2.982   0.835   1.786 -1.1314  0.5682  0.3581
  117SOL     OW  349   2.365   0.248   1.317  0.0346 -0.1293  0.1594
  117SOL    HW1  350   2.393   0.344   1.345 -0.6243  0.5189 -0.4897
  117SOL    HW2  351   2.326   0.198   1.398 -0.3659  1.0867  1.0748
  118SOL     OW  352   2.822   2.134   2.102 -0.1948 -1.0963  0.3852
  118SOL    HW1  353   2.870   2.227   2.084 -1.2521  4.0231 -0.9971
  118SOL    HW2  354   2.858   2.065   2.035 -4.0056  2.6569  2.0112
  119SOL     OW  355   0.726   1.769   1.200  0.4474 -0.4976  0.1013
  119SOL    HW1  356   0.726   1.870   1.220  2.1140  1.3628  1.1683
  119SOL    HW2  357   0.718   1.708   1.287  0.7471 -2.5966  0.2161
  120SOL     OW  358   0.394   1.279   1.577  0.7891 -0.2171  0.1540
  120SOL    HW1  359   0.469   1.289   1.505  1.0013 -0.4029 -1.0642
  120SOL    HW2  360   0.421   1.218   1.654  0.8342 -1.2905  2.3599
  121SOL     OW  361   1.717   0.986   0.971 -0.2231 -0.0578  0.3289
  121SOL    HW1  362   1.672   1.023   1.057 -1.8717  1.4078  0.4623
  121SOL    HW2  363   1.714   1.052   0.899  0.8918 -0.9125  1.7720
  122SOL     OW  364   2.095   2.619   2.742 -0.3219 -0.2151  0.2746
  122SOL    HW1  365   1.992   2.599   2.730 -0.8765  3.6709 -1.3248
  122SOL    HW2  366   2.152   2.587   2.658  2.9547 -0.4838 -0.9840
  123SOL     OW  367   3.090   2.933   0.518 -0.0765  0.5873 -0.6375
  123SOL    HW1  368   3.023   2.853   0.528 -0.5202 -1.9169  2.4259
  123SOL    HW2  369   3.028   3.020   0.516 -5.1365  1.0149 -1.3333
  124SOL     OW  370   1.603   1.469   0.285 -0.3007 -0.8256  0.1274
  124SOL    HW1  371   1.536   1.406   0.248 -0.4990 -0.3085 -1.2484
  124SOL    HW2  372   1.682   1.418   0.313 -2.1988  0.9794 -1.3010
  125SOL     OW  373   0.133   0.847   2.229 -0.2236 -0.1520  0.2313
  125SOL    HW1  374   0.171   0.941   2.224  0.2158 -0.6835  0.6237
  125SOL    HW2  375   0.135   0.810   2.133  1.8013 -1.6510  0.5279
  126SOL     OW  376   0.040   2.469   0.013  0.2293 -0.1634  0.2604
  126SOL    HW1  377   0.048   2.448   0.113  0.3879  0.9498 -1.2012
  126SOL    HW2  378   0.077   2.563   0.004  1.3017  1.8126 -1.6600
  127SOL     OW  379   2.951   1.955   0.333 -0.0421  0.7604  0.4183
  127SOL    HW1  380   2.903   1.885   0.393 -0.1406 -0.8309 -2.2988
  127SOL    HW2  381   3.014   1.900   0.269  0.4686 -2.1170 -0.8684
  128SOL     OW  382   1.372   0.903   0.935  0.0391  0.1419 -0.6257
  128SOL    HW1  383   1.373   1.007   0.931  2.4916  2.5563  0.1601
  128SOL    HW2  384   1.384   0.867   0.840  2.3514  1.7937 -0.9016
  129SOL     OW  385   2.491   1.980   1.196  0.6362  0.4723 -0.3652
  129SOL    HW1  386   2.398   2.023   1.177 -1.4321  4.3721 -1.9837
  129SOL    HW2  387   2.557   2.014   1.126  1.1170  0.2928  1.5915
  130SOL     OW  388   1.932   0.934   0.180  0.6660 -0.1138 -0.2188
  130SOL    HW1  389   1.985   0.996   0.113 -2.7231  0.3517  0.8914
  130SOL    HW2  390   1.910   0.979   0.268 -0.4253 -0.2423  0.0866
  131SOL     OW  391   2.965   1.364   2.481  0.7154  0.5073  0.2676
  131SOL    HW1  392   2.891   1.419   2.433 -1.4217  3.8535 -0.5562
  131SOL    HW2  393   3.036   1.433   2.508  0.6928 -1.1146  0.7995
  132SOL     OW  394   0.933   1.393   2.122 -0.1155 -0.3524  0.2058
  132SOL    HW1  395   0.863   1.471   2.119 -2.4132 -0.4848  0.1450
  132SOL    HW2  396   0.964   1.363   2.032  1.3788 -0.2954 -1.6602
  133SOL     OW  397   0.295   1.324   0.417 -0.2114 -0.3273  0.4408
  133SOL    HW1  398   0.219   1.356   0.357  0.2157  1.0633 -0.5729
  133SOL    HW2  399   0.385   1.345   0.382 -0.9739  0.0242  2.2933
  134SOL     OW  400   2.546   1.024   0.106  0.0401 -0.3078  0.1249
  134SOL    HW1  401   2.583   1.087   0.177  0.7459  1.8013 -0.3339
  134SOL    HW2  402   2.577   1.055   0.016  1.3213  0.8533  2.2496
  135SOL     OW  403   1.649   0.699   0.027  0.5936  0.2493  0.3486
  135SOL    HW1  404   1.702   0.768   3.082  1.1740  1.2249  2.1417
  135SOL    HW2  405   1.707   0.614   0.047  2.3767 -1.1141  1.9326
  136SOL     OW  406   1.847   1.553   1.600 -0.2077 -1.0680 -0.0348
  136SOL    HW1  407   1.915   1.554   1.524 -1.7120  1.2102 -1.4409
  136SOL    HW2  408   1.885   1.521   1.689  0.1949  0.3341  0.4263
  137SOL     OW  409   2.361   2.521   0.965  0.4414  0.1400 -0.7660
  137SOL    HW1  410   2.407   2.608   0.976 -0.0062 -0.1483 -0.7342
  137SOL    HW2  411   2.317   2.522   0.874 -0.6856  2.4778  1.7047
  138SOL     OW  412   2.322   0.632   1.619  0.0973 -0.2928 -0.2811
  138SOL    HW1  413   2.286   0.680   1.702 -0.5181 -1.0519 -1.2413
  138SOL    HW2  414   2.247   0.567   1.589 -0.3579 -0.2313  0.3429
  139SOL     OW  415   2.446   2.828   2.838  0.5020 -0.5354  0.2256
  139SOL    HW1  416   2.345   2.849   2.838  1.1093  1.9366  2.0083
  139SOL    HW2  417   2.494   2.881   2.914 -1.2497 -1.1420  2.1027
  140SOL     OW  418   1.337   2.014   2.477  0.0399 -0.1417 -0.0842
  140SOL    HW1  419   1.303   2.034   2.385 -0.2209 -0.9716 -0.3577
  140SOL    HW2  420   1.342   1.910   2.492  0.3109  1.2777 -2.2458
  141SOL     OW  421   0.913   0.898   2.541  0.3404  0.2564  0.4824
  141SOL    HW1  422   0.851   0.960   2.590 -0.0794 -0.2095 -1.9299
  141SOL    HW2  423   1.004   0.894   2.585 -1.2347 -0.5371  0.6547
  142SOL     OW  424   2.625   2.555   2.184  0.1932 -0.2111  0.0559
  142SOL    HW1  425   2.636   2.659   2.182  0.4813  2.1206 -0.9031
  142SOL    HW2  426   2.528   2.526   2.164  0.9590 -2.2125 -0.9723
  143SOL     OW  427   1.129   2.436   0.260  0.4115 -0.4034 -0.0340
  143SOL    HW1  428   1.183   2.523   0.272  1.1199  2.5722  1.0961
  143SOL    HW2  429   1.092   2.407   0.349 -1.1641  1.4358  1.3177
  144SOL     OW  430   0.929   2.620   0.589  0.5191  0.0203  0.2138
  144SOL    HW1  431   0.975   2.708   0.569 -0.2599 -1.2196 -0.7880
  144SOL    HW2  432   0.857   2.607   0.519  0.1384 -2.5515 -0.3354
  145SOL     OW  433   1.678   2.652   2.375 -0.3015 -0.0138 -0.4199
  145SOL    HW1  434   1.637   2.585   2.439  2.5407 -0.4469  0.2615
  145SOL    HW2  435   1.650   2.740   2.422  0.8816 -0.0592 -2.5313
  146SOL     OW  436   2.211   2.992   3.088 -0.6851  0.1506 -0.1600
  146SOL    HW1  437   2.249   3.087   0.000  1.5196 -2.4501  1.0450
  146SOL    HW2  438   2.144   3.000   3.014  0.3692 -0.9372  2.5529
  147SOL     OW  439   0.067   1.611   1.264  0.1380  0.0023 -0.0705
  147SOL    HW1  440   0.103   1.572   1.177 -0.8317 -1.9150 -1.4249
  147SOL    HW2  441   0.004   1.545   1.314 -2.3907 -1.1026  1.5043
  148SOL     OW  442   1.946   3.035   0.446  0.0199  0.6398 -0.2772
  148SOL    HW1  443   1.930   2.936   0.429 -0.7494  0.3472  0.5185
  148SOL    HW2  444   2.025   3.063   0.381  2.1309 -0.9151 -3.6408
  149SOL     OW  445   0.589   1.803   3.027 -0.5349 -0.4193 -0.4827
  149SOL    HW1  446   0.687   1.774   3.022  1.4215  0.8123 -0.2150
  149SOL    HW2  447   0.543   1.788   2.939 -0.0840  2.2957 -2.1881
  150SOL     OW  448   0.410   2.742   1.056  0.2442  0.3901 -0.1294
  150SOL    HW1  449   0.344   2.667   1.083 -1.5627 -0.9694  3.6592
  150SOL    HW2  450   0.366   2.835   1.062  2.0166 -1.7087  1.4941
  151SOL     OW  451   0.359   1.076   3.043  0.8904 -0.0165 -0.0398
  151SOL    HW1  452   0.399   1.162   3.005 -0.1705 -1.5609  0.1647
  151SOL    HW2  453   0.261   1.086   3.081 -1.4063 -1.9258  2.2213
  152SOL     OW  454   2.976   1.949   0.990  0.5484  0.0260  0.1300
  152SOL    HW1  455   2.981   1.994   0.899 -2.6043  1.8821  3.3518
  152SOL    HW2  456   2.938   1.853   0.995  0.6275 -0.0583  0.3190
  153SOL     OW  457   1.657   2.229   0.679 -0.5915  0.3914 -0.2492
  153SOL    HW1  458   1.753   2.207   0.644  2.4699  0.7036  0.1002
  153SOL    HW2  459   1.642   2.194   0.774  2.3434  1.9577 -0.9094
  154SOL     OW  460   0.838   2.911   1.488 -0.0962 -0.3120 -0.4956
  154SOL    HW1  461   0.793   2.999   1.468 -0.8134  2.3884 -0.5787
  154SOL    HW2  462   0.870   2.865   1.405 -0.5296 -1.1459  0.8573
  155SOL     OW  463   2.882   1.982   0.704 -0.2288 -0.2318  0.3578
  155SOL    HW1  464   2.949   2.058   0.723  2.0614  0.9751  0.2553
  155SOL    HW2  465   2.788   2.021   0.681 -0.2019  1.7800  0.2630
  156SOL     OW  466   2.449   2.041   0.175  0.0292  0.0980 -0.2535
  156SOL    HW1  467   2.531   2.057   0.119 -1.5027  1.2048  0.8191
  156SOL    HW2  468   2.477   2.052   0.273 -0.3357 -0.4120  1.1911
  157SOL     OW  469   0.302   2.548   1.668 -0.2390 -0.0097  0.3394
  157SOL    HW1  470   0.216   2.490   1.669  2.4645  1.5274  2.6394
  157SOL    HW2  471   0.391   2.498   1.697  4.3327  2.6075  0.8491
  158SOL     OW  472   1.511   0.423   1.025 -0.2493  0.3900 -0.2589
  158SOL    HW1  473   1.525   0.322   1.044  0.7420 -0.5217  0.2369
  158SOL    HW2  474   1.599   0.476   1.021 -1.2991 -1.4836 -1.3677
  159SOL     OW  475   1.660   1.046   0.123 -0.0322  0.0946 -0.2739
  159SOL    HW1  476   1.742   0.986   0.130  2.4023  0.3510  0.1841
  159SOL    HW2  477   1.666   1.093   0.035  1.8981  0.4593  0.8983
  160SOL     OW  478   1.249   1.941   0.424  0.3345 -0.0300  0.0526
  160SOL    HW1  479   1.254   2.040   0.393  5.0085  0.2978 -3.6884
  160SOL    HW2  480   1.185   1.885   0.368  2.4344 -2.6107  1.3291
  161SOL     OW  481   2.386   2.091   2.630  0.3787 -0.3448 -0.3861
  161SOL    HW1  482   2.367   2.177   2.581  0.1276 -2.0891  1.0029
  161SOL    HW2  483   2.483   2.071   2.641 -1.8247  3.7547 -0.7612
  162SOL     OW  484   0.140   2.340   1.415 -0.3400  0.0285 -0.0276
  162SOL    HW1  485   0.040   2.352   1.392 -1.6855 -1.8317  0.4301
  162SOL    HW2  486   0.198   2.408   1.370 -0.4052 -0.3977 -2.0618
  163SOL     OW  487   0.238   0.443   2.725  0.4703  0.3375  0.2762
  163SOL    HW1  488   0.222   0.344   2.696  0.1681 -0.8574  0.2536
  163SOL    HW2  489   0.335   0.470   2.722  0.1504 -1.6074 -0.8542
  164SOL     OW  490   0.027   2.718   2.880 -0.0129 -0.6526  0.2356
  164SOL    HW1  491   0.028   2.814   2.843  2.2685  0.9711  0.1434
  164SOL    HW2  492   0.026   2.720   2.980  2.2614 -0.5895 -2.3641
  165SOL     OW  493   2.903   0.827   1.318  0.6946 -0.1049 -0.1450
  165SOL    HW1  494   2.808   0.808   1.285 -1.5552  0.5320  0.2265
  165SOL    HW2  495   2.967   0.751   1.292 -2.3515 -0.8732 -2.1854
  166SOL     OW  496   2.023   1.616   1.392 -0.3137  0.3346 -0.2189
  166SOL    HW1  497   2.100   1.556   1.407  0.0396  1.9917  0.0025
  166SOL    HW2  498   2.038   1.694   1.328 -1.5897 -0.1085 -1.4084
  167SOL     OW  499   0.394   0.578   2.427  0.2175 -0.2101  0.1136
  167SOL    HW1  500   0.394   0.601   2.329 -0.5028 -0.9515  1.9227
  167SOL    HW2  501   0.334   0.643   2.478 -3.8359 -0.8428  0.8002
  168SOL     OW  502   2.141   0.085   2.171  0.2036 -0.1316 -0.4236
  168SOL    HW1  503   2.107   0.064   2.264  1.5690 -0.9341 -0.1747
  168SOL    HW2  504   2.240   0.099   2.169 -0.5425  0.6950  1.5636
  169SOL     OW  505   0.632   0.998   0.056 -0.5768 -0.1084  0.1462
  169SOL    HW1  506   0.538   1.026   0.049  0.4624 -3.1212  1.2002
  169SOL    HW2  507   0.684   1.007   3.076  2.8233  0.8317 -1.7654
  170SOL     OW  508   0.885   1.117   1.727 -0.5172  0.6300 -0.4628
  170SOL    HW1  509   0.816   1.161   1.788  2.0720 -0.3158 -0.7155
  170SOL    HW2  510   0.974   1.146   1.765 -1.3948 -0.1553 -3.0404
  171SOL     OW  511   1.290   2.690   1.533  0.1444  0.1712 -0.1048
  171SOL    HW1  512   1.285   2.697   1.633 -1.1700 -3.1239 -0.0821
  171SOL    HW2  513   1.309   2.777   1.483  0.3772 -0.5086 -1.0209
  172SOL     OW  514   1.151   2.913   1.999 -0.4952 -0.5954 -0.0731
  172SOL    HW1  515   1.061   2.902   2.048  1.7545 -1.3199  0.2706
  172SOL    HW2  516   1.147   2.988   1.927  0.0054  1.4772 -1.3822
  173SOL     OW  517   1.194   2.467   0.918 -0.8458 -0.0405  0.7293
  173SOL    HW1  518   1.100   2.494   0.889  5.8675  1.3891 -2.1571
  173SOL    HW2  519   1.200   2.367   0.935 -2.0484 -0.2869  0.2071
  174SOL     OW  520   2.270   3.018   0.506 -0.0701  0.7005 -0.1734
  174SOL    HW1  521   2.257   3.102   0.557 -1.1143 -2.7548 -2.3469
  174SOL    HW2  522   2.318   3.024   0.418  0.0193 -0.8821 -0.5218
  175SOL     OW  523   1.636   1.130   0.747 -0.1916 -0.0544  0.1283
  175SOL    HW1  524   1.603   1.215   0.783 -0.4711 -1.9858 -1.4235
  175SOL    HW2  525   1.572   1.055   0.745 -1.6444 -1.4204 -1.6083
  176SOL     OW  526   0.897   1.681   0.413  0.1382 -0.4545 -0.4853
  176SOL    HW1  527   0.899   1.762   0.479 -0.9061 -0.2630  1.5586
  176SOL    HW2  528   0.934   1.599   0.467 -1.5982 -0.3909  1.0227
  177SOL     OW  529   1.697   1.603   0.913  0.6890 -0.0883 -0.0875
  177SOL    HW1  530   1.695   1.597   0.809  2.0457  0.2601 -3.1009
  177SOL    HW2  531   1.793   1.597   0.943  1.2582  1.6942 -0.2701
  178SOL     OW  532   2.225   1.623   0.118 -0.2507  0.2381  0.0955
  178SOL    HW1  533   2.253   1.714   0.077 -2.3578  0.0003  0.2637
  178SOL    HW2  534   2.301   1.597   0.181 -0.6845 -0.8058  0.5252
  179SOL     OW  535   1.331   2.952   3.077 -0.5929 -0.2334  0.8883
  179SOL    HW1  536   1.379   2.864   3.073 -2.1131  1.9717 -0.5182
  179SOL    HW2  537   1.269   2.961   3.002  3.5303  0.7859  2.9286
  180SOL     OW  538   2.018   1.251   1.470 -0.7981  0.0929 -0.2257
  180SOL    HW1  539   1.934   1.291   1.428  0.7659  1.5149  0.6848
  180SOL    HW2  540   2.103   1.306   1.441  2.8961  2.3524 -2.5792
  181SOL     OW  541   0.985   0.754   1.843 -0.9182  0.1474  0.5910
  181SOL    HW1  542   1.053   0.701   1.899  1.4320 -0.6093  1.8660
  181SOL    HW2  543   0.916   0.794   1.902  0.2759 -2.4922  0.1274
  182SOL     OW  544   0.149   1.163   2.455 -0.4773 -0.1654 -0.3480
  182SOL    HW1  545   0.115   1.093   2.521 -0.8718 -0.5616  0.3376
  182SOL    HW2  546   0.147   1.140   2.352  0.3173  1.4652 -2.6366
  183SOL     OW  547   1.427   0.698   2.353  0.2867 -0.4631 -0.5520
  183SOL    HW1  548   1.516   0.658   2.377  0.1816  1.0002 -1.3236
  183SOL    HW2  549   1.357   0.624   2.367  0.8294 -0.2296  1.3865
  184SOL     OW  550   0.534   0.397   1.202  0.5887  0.9247  0.7278
  184SOL    HW1  551   0.622   0.434   1.241 -0.3768  1.8195  1.4371
  184SOL    HW2  552   0.474   0.361   1.275  0.3827  1.6528  1.8493
  185SOL     OW  553   2.297   1.374   0.754 -0.0532  0.0500 -0.2547
  185SOL    HW1  554   2.393   1.377   0.741 -3.2063  1.4973  1.5926
  185SOL    HW2  555   2.241   1.383   0.674 -1.4422  1.7545  1.9535
  186SOL     OW  556   0.372   2.182   0.447  0.3492 -0.5930  0.2047
  186SOL    HW1  557   0.315   2.171   0.362  0.1755 -0.1086 -0.5139
  186SOL    HW2  558   0.315   2.194   0.532 -1.7980  1.4454  1.8973
  187SOL     OW  559   1.917   2.159   2.986  0.2448  0.5720  1.0927
  187SOL    HW1  560   1.925   2.059   3.004  1.1841  0.6354 -1.2167
  187SOL    HW2  561   1.993   2.185   2.930 -2.1473 -1.9722  1.3010
  188SOL     OW  562   1.367   2.005   1.641  0.1101  0.9162  0.0445
  188SOL    HW1  563   1.408   1.948   1.563  2.1111  3.3266 -2.0573
  188SOL    HW2  564   1.307   2.076   1.596 -0.8091  2.0633 -0.8718
  189SOL     OW  565   2.331   1.442   2.636  0.4782  0.2491  0.3090
  189SOL    HW1  566   2.261   1.403   2.703 -0.8263  0.0744 -1.0642
  189SOL    HW2  567   2.280   1.488   2.562 -0.5511  2.3782 -0.3678
  190SOL     OW  568   0.811   2.481   2.099 -0.4922 -0.3972  0.3027
  190SOL    HW1  569   0.906   2.518   2.103 -0.7609 -1.1912 -0.5980
  190SOL    HW2  570   0.748   2.560   2.119  1.9318  1.7648  2.4156
  191SOL     OW  571   2.703   1.048   1.169 -0.2346 -0.6809  0.4336
  191SOL    HW1  572   2.680   0.952   1.201 -2.1455  2.1853  1.4115
  191SOL    HW2  573   2.693   1.064   1.064  0.1472  2.0850 -3.5746
  192SOL     OW  574   2.539   0.776   1.529  0.1080 -0.3044 -0.1953
  192SOL    HW1  575   2.441   0.745   1.540 -2.9650 -1.8785  1.4003
  192SOL    HW2  576   2.594   0.716   1.587  0.5667  1.6117 -1.3048
  193SOL     OW  577   0.890   0.361   0.110  0.4836 -0.2425  0.9634
  193SOL    HW1  578   0.881   0.259   0.112  3.1369  0.0337  2.7255
  193SOL    HW2  579   0.858   0.402   0.023 -1.1016  1.4207 -2.3988
  194SOL     OW  580   1.172   2.555   1.312  0.3666  0.4769 -0.4640
  194SOL    HW1  581   1.212   2.617   1.386  0.0751  1.4629  1.4764
  194SOL    HW2  582   1.171   2.611   1.226 -2.2800 -0.4434 -0.3584
  195SOL     OW  583   2.649   1.107   0.575  0.4455  0.0788  0.0730
  195SOL    HW1  584   2.592   1.116   0.660  0.1254  2.2720  0.7548
  195SOL    HW2  585   2.627   1.026   0.515 -1.2968 -0.8524 -0.4177
  196SOL     OW  586   0.568   2.205   1.584 -0.4599 -0.4080  0.1471
  196SOL    HW1  587   0.486   2.161   1.551  1.1395 -1.3652  2.3331
  196SOL    HW2  588   0.580   2.297   1.549 -1.9138 -0.2746  2.3699
  197SOL     OW  589   2.959   0.572   2.137 -0.5945 -0.6689 -0.3603
  197SOL    HW1  590   3.058   0.538   2.137 -0.2517 -1.9668 -0.9113
  197SOL    HW2  591   2.886   0.507   2.169 -0.1534 -0.2548 -0.6773
  198SOL     OW  592   1.999   1.280   0.216 -0.2346 -0.4244  0.8065
  198SOL    HW1  593   1.954   1.262   0.125 -1.9189  0.3513 -2.8420
  198SOL    HW2  594   2.015   1.382   0.215  0.7016  2.6970  0.9261
  199SOL     OW  595   2.481   0.451   1.751  0.2599  0.3506 -0.5624
  199SOL    HW1  596   2.425   0.510   1.691 -1.2170 -0.8395 -1.6408
  199SOL    HW2  597   2.557   0.410   1.703  3.0684 -0.9349  0.2530
  200SOL     OW  598   2.282   0.126   0.032 -0.5512  0.1699 -0.3521
  200SOL    HW1  599   2.365   0.168   0.072  2.0988 -1.9690 -0.2420
  200SOL    HW2  600   2.257   0.175   3.056 -0.4082  1.5928 -0.0518
  201SOL     OW  601   2.564   0.165   0.920 -0.2383 -0.1594 -0.0559
  201SOL    HW1  602   2.659   0.204   0.910  2.8665  1.4596 -1.3641
  201SOL    HW2  603   2.498   0.241   0.937  1.8040  0.1123 -0.6457
  202SOL     OW  604   2.908   2.637   0.262  0.1022 -0.4183 -0.0607
  202SOL    HW1  605   2.979   2.699   0.223 -1.9025  0.0705 -0.2729
  202SOL    HW2  606   2.888   2.662   0.359  0.9879  3.9419  1.4366
  203SOL     OW  607   1.498   1.861   0.458 -0.3560 -0.6441  0.1451
  203SOL    HW1  608   1.402   1.900   0.444  0.4308  3.3355 -3.2782
  203SOL    HW2  609   1.535   1.875   0.553 -0.5970 -0.3979  3.0468
  204SOL     OW  610   0.265   1.915   2.405  0.1659 -0.4595  0.4262
  204SOL    HW1  611   0.323   1.894   2.326  0.1896 -3.2907  0.7568
  204SOL    HW2  612   0.198   1.837   2.419 -3.2449  0.2772 -1.8998
  205SOL     OW  613   0.849   0.409   0.768 -0.2964 -0.5456  0.3125
  205SOL    HW1  614   0.886   0.500   0.794  1.0224  0.7200 -2.1005
  205SOL    HW2  615   0.888   0.395   0.677  0.3969  1.9107 -1.9219
  206SOL     OW  616   0.193   0.586   2.965  0.5409 -0.7782 -0.1182
  206SOL    HW1  617   0.230   0.680   2.943  0.6465 -0.7473 -2.1889
  206SOL    HW2  618   0.193   0.531   2.875 -0.6986  0.4446 -0.7034
  207SOL     OW  619   1.196   2.489   1.933  0.3551  0.5174 -0.3197
  207SOL    HW1  620   1.154   2.404   1.892 -0.4980 -0.0862  0.0327
  207SOL    HW2  621   1.127   2.548   1.983  1.2926  0.8048 -0.9085
  208SOL     OW  622   2.709   0.010   1.562  0.0490  0.1592 -0.0599
  208SOL    HW1  623   2.640   3.108   1.630  3.9507  0.6914 -1.4401
  208SOL    HW2  624   2.708   3.038   1.500 -0.8243  1.7266 -0.1615
  209SOL     OW  625   1.869   0.920   0.672 -0.0640  0.4840 -0.1165
  209SOL    HW1  626   1.791   0.869   0.713  0.0207 -1.3462  0.2920
  209SOL    HW2  627   1.846   0.957   0.580  0.1063  0.2008 -1.0286
  210SOL     OW  628   2.540   0.860   0.323 -0.3856 -0.3710 -0.2590
  210SOL    HW1  629   2.457   0.894   0.373 -0.5716  0.5715 -2.1212
  210SOL    HW2  630   2.550   0.904   0.233  1.5236  0.7049 -0.6853
  211SOL     OW  631   1.193   0.017   0.144 -0.1111  0.3643  0.4389
  211SOL    HW1  632   1.243   0.102   0.166 -1.5736 -0.0066 -2.4179
  211SOL    HW2  633   1.240   3.071   0.071 -0.2410 -0.0514 -0.5475
  212SOL     OW  634   1.962   2.188   0.618 -0.0361  0.3433  0.0662
  212SOL    HW1  635   2.068   2.177   0.629 -0.7800 -3.7441  0.2952
  212SOL    HW2  636   1.934   2.170   0.523 -0.1702 -1.0120  0.0147
  213SOL     OW  637   2.525   0.226   0.090  0.3530  0.2582 -0.6766
  213SOL    HW1  638   2.583   0.207   0.169 -0.3540 -1.0995 -1.6965
  213SOL    HW2  639   2.495   0.327   0.095  0.8196 -1.8328  0.6828
  214SOL     OW  640   0.866   2.096   2.081 -0.3104 -0.3326 -0.0582
  214SOL    HW1  641   0.944   2.129   2.134 -2.4589 -3.3230  1.3253
  214SOL    HW2  642   0.786   2.160   2.067 -0.2789 -0.5714  0.8480
  215SOL     OW  643   0.488   1.244   0.952  0.3254  0.1319 -0.9586
  215SOL    HW1  644   0.435   1.330   0.958 -0.9392  0.9805  0.3302
  215SOL    HW2  645   0.589   1.267   0.934  2.3500 -1.3151 -1.3626
  216SOL     OW  646   0.205   2.538   2.714  0.8986  0.0375  0.3183
  216SOL    HW1  647   0.290   2.590   2.687  0.5366  1.0388 -2.4555
  216SOL    HW2  648   0.136   2.598   2.760 -1.5328  1.7408 -0.0060
  217SOL     OW  649   2.795   1.277   1.326  0.1387 -0.2265 -0.1493
  217SOL    HW1  650   2.776   1.359   1.268 -0.3045 -1.3943  0.7767
  217SOL    HW2  651   2.737   1.200   1.290 -0.9291 -2.8307 -1.2681
  218SOL     OW  652   0.798   2.345   1.867 -0.2462 -0.0210  0.3168
  218SOL    HW1  653   0.792   2.388   1.775  0.6028 -0.8236 -1.6901
  218SOL    HW2  654   0.815   2.421   1.931 -0.5160  1.6757  2.4911
  219SOL     OW  655   2.015   1.580   0.542 -0.2584 -0.3611 -0.1144
  219SOL    HW1  656   2.016   1.641   0.455  0.4254  3.0765 -3.4526
  219SOL    HW2  657   2.007   1.634   0.628  2.9571  0.5360 -0.3540
  220SOL     OW  658   1.980   0.682   0.269 -0.6957  0.2568 -0.3046
  220SOL    HW1  659   1.964   0.774   0.228 -2.6050  1.6099  1.2715
  220SOL    HW2  660   1.930   0.666   0.358 -1.3648  0.1867 -0.3343
  221SOL     OW  661   2.879   0.855   0.104  0.4619 -0.1729  0.2908
  221SOL    HW1  662   2.837   0.825   0.189  0.3824 -0.5658 -2.3780
  221SOL    HW2  663   2.943   0.787   0.069 -0.9778  0.3938 -0.5768
  222SOL     OW  664   1.653   1.606   0.637 -0.4674 -0.7683  0.5722
  222SOL    HW1  665   1.574   1.588   0.576 -0.8136  0.0952 -2.3877
  222SOL    HW2  666   1.652   1.707   0.643  0.5168 -1.1523  3.0913
  223SOL     OW  667   1.053   0.139   2.630 -0.5178 -0.4397  0.5108
  223SOL    HW1  668   1.132   0.091   2.591  0.2581  1.0376 -0.2943
  223SOL    HW2  669   0.985   0.081   2.683 -0.9056  1.9472  0.0425
  224SOL     OW  670   0.892   2.847   1.212 -0.2707  0.1113 -0.2041
  224SOL    HW1  671   0.794   2.877   1.224  1.1134  1.1349  0.5912
  224SOL    HW2  672   0.957   2.921   1.243  0.4331  0.4044  1.5797
  225SOL     OW  673   0.616   2.671   1.862 -0.0635 -0.3692  0.0185
  225SOL    HW1  674   0.545   2.598   1.873 -0.1923 -0.8847 -1.2899
  225SOL    HW2  675   0.584   2.767   1.883  1.4057 -1.3613 -0.5473
  226SOL     OW  676   1.419   1.658   0.309 -0.4368  0.0939 -0.3831
  226SOL    HW1  677   1.437   1.741   0.370 -0.2221 -0.4332 -2.1031
  226SOL    HW2  678   1.493   1.592   0.309 -1.7306  1.6869 -1.6990
  227SOL     OW  679   0.525   1.736   0.987  0.4470 -0.5458  0.1829
  227SOL    HW1  680   0.573   1.791   1.054 -1.7770 -1.7557 -2.9842
  227SOL    HW2  681   0.579   1.710   0.909  0.4610 -0.8118  1.7718
  228SOL     OW  682   0.263   1.933   0.678  0.4330 -0.5505 -0.6771
  228SOL    HW1  683   0.350   1.910   0.630 -1.8612  2.8804 -0.9474
  228SOL    HW2  684   0.251   2.033   0.686 -0.2419  2.5529 -0.5666
  229SOL     OW  685   2.880   0.105   3.074  0.3191  0.1647 -0.0705
  229SOL    HW1  686   2.791   0.092   3.024 -1.3737 -0.3513  0.1297
  229SOL    HW2  687   2.934   0.017   3.068  2.4951 -0.1348 -1.0532
  230SOL     OW  688   2.328   0.962   0.466 -0.1345 -0.1389  0.2549
  230SOL    HW1  689   2.282   1.039   0.413 -1.9239 -0.4415  0.7213
  230SOL    HW2  690   2.303   0.955   0.562  0.7453  1.4697 -1.0950
  231SOL     OW  691   1.850   1.510   2.957 -0.4325  0.5487 -0.2303
  231SOL    HW1  692   1.813   1.562   3.037  0.1692  2.9300 -0.5129
  231SOL    HW2  693   1.936   1.555   2.917  2.1605  2.6913 -0.2979
  232SOL     OW  694   2.261   1.864   1.023  0.6051  0.3702  0.5332
  232SOL    HW1  695   2.292   1.781   1.077  2.2405 -2.6481  1.1484
  232SOL    HW2  696   2.172   1.901   1.057 -1.0195  0.2210 -1.5800
  233SOL     OW  697   0.305   2.639   1.409  0.1826  0.0579  0.0538
  233SOL    HW1  698   0.290   2.617   1.507  0.6897  1.4456 -0.3305
  233SOL    HW2  699   0.317   2.737   1.404 -0.0251 -3.5781  0.8545
  234SOL     OW  700   0.846   0.230   2.485 -0.0055  0.1574 -0.1893
  234SOL    HW1  701   0.932   0.179   2.510  2.2694 -0.7752 -0.8946
  234SOL    HW2  702   0.757   0.191   2.515 -0.6565  0.0375 -1.4849
  235SOL     OW  703   2.824   1.041   2.287  0.6644  0.2275  0.2747
  235SOL    HW1  704   2.855   1.103   2.216  0.1373 -1.8672  1.1280
  235SOL    HW2  705   2.825   0.947   2.250 -2.2430  0.4338  1.8157
  236SOL     OW  706   1.286   2.727   1.809 -0.2724 -0.0413 -0.2624
  236SOL    HW1  707   1.235   2.806   1.855 -1.2719  2.2744 -0.4574
  236SOL    HW2  708   1.257   2.638   1.852 -0.2171 -0.2349  1.9069
  237SOL     OW  709   0.493   1.425   2.658 -0.8314 -0.5192  0.6966
  237SOL    HW1  710   0.437   1.388   2.584  1.7830 -0.8247  1.6055
  237SOL    HW2  711   0.570   1.468   2.604  1.5867 -0.8529  0.4505
  238SOL     OW  712   1.055   0.440   2.328  0.1834  0.5451 -1.0101
  238SOL    HW1  713   1.046   0.529   2.273 -1.0293 -0.6792 -1.3255
  238SOL    HW2  714   1.012   0.447   2.420  0.9577  1.4353 -0.4781
  239SOL     OW  715   0.341   2.210   1.894  0.3952 -0.2844 -0.0969
  239SOL    HW1  716   0.381   2.121   1.879  0.8001  0.1663  0.1351
  239SOL    HW2  717   0.334   2.222   1.994 -2.3118  1.0684 -0.8594
  240SOL     OW  718   2.625   2.863   0.502 -0.3252  0.0176 -0.8033
  240SOL    HW1  719   2.614   2.926   0.579 -1.3139 -2.6944 -1.7823
  240SOL    HW2  720   2.581   2.899   0.418 -2.2322 -0.2007 -0.3167
  241SOL     OW  721   0.086   0.874   0.135  0.1810  0.0663 -0.0772
  241SOL    HW1  722   0.049   0.788   0.087 -0.6678 -0.6619 -1.6980
  241SOL    HW2  723   0.113   0.947   0.071 -0.2901  0.9501 -0.7373
  242SOL     OW  724   1.760   2.591   1.728 -0.1199  0.2713 -0.2706
  242SOL    HW1  725   1.833   2.520   1.722  0.1148  2.2042 -1.6023
  242SOL    HW2  726   1.670   2.552   1.725  0.3729  2.7997 -0.2066
  243SOL     OW  727   0.523   2.405   1.797 -0.2234  0.3059  0.3982
  243SOL    HW1  728   0.621   2.363   1.798  2.5407 -3.9155  0.5687
  243SOL    HW2  729   0.460   2.339   1.841 -1.9856  1.8250  0.0889
  244SOL     OW  730   2.275   0.463   2.459 -0.0452  0.2298  0.3137
  244SOL    HW1  731   2.194   0.413   2.433  3.0692  0.3628  2.6972
  244SOL    HW2  732   2.279   0.557   2.424 -1.7088  0.6183  1.2304
  245SOL     OW  733   1.462   2.794   1.299  0.0298  0.3790 -0.3783
  245SOL    HW1  734   1.524   2.855   1.356  0.0459  0.7048  2.8287
  245SOL    HW2  735   1.423   2.841   1.214 -0.8077  1.1625 -3.5545
  246SOL     OW  736   1.453   2.972   0.632  0.2424  0.2753  0.0120
  246SOL    HW1  737   1.397   3.055   0.625 -0.8346  0.9479 -1.5749
  246SOL    HW2  738   1.421   2.907   0.566 -0.1311  1.6323 -0.8386
  247SOL     OW  739   1.799   0.530   1.887  0.3163 -0.1933 -0.3076
  247SOL    HW1  740   1.721   0.473   1.860 -0.7081 -0.3153 -0.8861
  247SOL    HW2  741   1.849   0.556   1.803 -2.0889  1.9612  2.1651
  248SOL     OW  742   2.903   1.952   1.912 -0.1765  0.3408 -0.6190
  248SOL    HW1  743   2.991   1.926   1.858  0.0486  1.2708 -1.2896
  248SOL    HW2  744   2.838   1.871   1.924 -5.8112 -1.1807 -0.4322
  249SOL     OW  745   0.069   0.162   0.407  0.1547  0.1310  0.0202
  249SOL    HW1  746   3.094   0.118   0.436  1.1024 -2.8380 -0.4318
  249SOL    HW2  747   0.093   0.245   0.465  1.3202 -0.9251 -0.6400
  250SOL     OW  748   2.547   0.058   2.574 -0.4188  0.1643 -0.5575
  250SOL    HW1  749   2.586   3.074   2.575  1.1671  1.7991  0.8644
  250SOL    HW2  750   2.451   0.060   2.564  4.0241  3.4548  1.5628
  251SOL     OW  751   1.356   0.718   0.009  0.3462  1.0648 -0.2654
  251SOL    HW1  752   1.299   0.632   3.100 -1.9820 -5.9511  1.4801
  251SOL    HW2  753   1.457   0.706   0.015  2.6669  0.9800 -0.8967
  252SOL     OW  754   1.051   2.636   2.109  0.8246 -0.0272 -0.4143
  252SOL    HW1  755   1.139   2.664   2.159 -0.7665  1.2205 -1.7408
  252SOL    HW2  756   0.997   2.716   2.084 -0.3159 -1.1608 -2.3210
  253SOL     OW  757   2.488   2.755   0.999 -0.3156 -0.0897 -0.6936
  253SOL    HW1  758   2.465   2.847   1.043  0.4732  2.6391 -0.3589
  253SOL    HW2  759   2.564   2.778   0.931  0.1810  1.6207 -1.9269
  254SOL     OW  760   2.446   1.274   1.241  0.2346  0.5554  0.3084
  254SOL    HW1  761   2.437   1.188   1.181  2.2709 -1.0842 -0.6456
  254SOL    HW2  762   2.456   1.258   1.340  2.0081 -0.0281 -3.3414
  255SOL     OW  763   0.838   2.554   1.143 -0.1186 -0.0516  0.8594
  255SOL    HW1  764   0.836   2.654   1.159 -0.5300 -1.4351  1.0932
  255SOL    HW2  765   0.904   2.528   1.070 -0.9761 -0.1107 -3.1369
  256SOL     OW  766   1.928   1.812   1.709  0.3391  0.1025 -0.4533
  256SOL    HW1  767   1.863   1.738   1.686  1.5738 -2.3743 -0.0064
  256SOL    HW2  768   2.024   1.772   1.704  0.2325 -2.7520 -0.9374
  257SOL     OW  769   0.313   2.521   2.421 -0.0335  0.8406  0.2815
  257SOL    HW1  770   0.377   2.437   2.415  0.3950 -0.2504  0.9764
  257SOL    HW2  771   0.362   2.592   2.477  1.9922  0.3778  2.0685
  258SOL     OW  772   0.734   2.813   0.832 -0.2318  0.0858 -0.3092
  258SOL    HW1  773   0.793   2.887   0.798 -2.3765 -0.4384 -2.0224
  258SOL    HW2  774   0.706   2.833   0.931  1.2308  0.9640  1.6693
  259SOL     OW  775   1.398   0.434   2.794  0.4398  0.3330  0.1669
  259SOL    HW1  776   1.452   0.399   2.874  0.4461 -0.9751 -1.2072
  259SOL    HW2  777   1.296   0.443   2.820 -2.8073 -0.6093  1.3186
  260SOL     OW  778   0.296   0.612   1.264  0.0639  0.6927 -0.4787
  260SOL    HW1  779   0.286   0.522   1.219 -0.2208  0.3929  2.1580
  260SOL    HW2  780   0.341   0.673   1.204 -1.8735 -1.7382  2.8920
  261SOL     OW  781   0.448   0.175   2.107 -0.1387 -0.1087 -0.2204
  261SOL    HW1  782   0.453   0.167   2.006 -3.6592  0.2230  0.5181
  261SOL    HW2  783   0.542   0.194   2.150  6.1615 -0.3418  0.3095
  262SOL     OW  784   0.875   2.663   1.839  1.1751 -0.5717  0.1191
  262SOL    HW1  785   0.904   2.584   1.782  2.9153 -2.2107 -2.4059
  262SOL    HW2  786   0.774   2.655   1.855 -3.5088 -1.5859 -0.4419
  263SOL     OW  787   0.770   2.285   3.005  0.1206 -0.2156  0.1804
  263SOL    HW1  788   0.849   2.310   3.059 -2.5524  1.3250  0.3096
  263SOL    HW2  789   0.704   2.232   3.060 -1.5664  0.7411 -0.9381
  264SOL     OW  790   1.488   1.740   1.020  0.2557  0.1180  0.5153
  264SOL    HW1  791   1.397   1.692   1.009 -1.0896 -0.5746  0.1273
  264SOL    HW2  792   1.565   1.697   0.972 -1.4361  0.9831  1.3854
  265SOL     OW  793   1.009   2.355   0.501 -0.2823  0.1529  0.4787
  265SOL    HW1  794   1.019   2.268   0.552  1.5641  0.9088 -0.8945
  265SOL    HW2  795   1.003   2.441   0.553 -1.0737  0.7092 -0.2508
  266SOL     OW  796   2.738   1.010   0.868 -0.3498  0.2532  0.3259
  266SOL    HW1  797   2.689   0.928   0.834 -1.5174 -0.9304 -0.7523
  266SOL    HW2  798   2.836   1.002   0.841  1.9337  2.2780 -0.8314
  267SOL     OW  799   0.135   1.372   0.002  0.0002 -0.4422 -0.0077
  267SOL    HW1  800   0.114   1.392   0.096  0.5728  2.2575 -2.8741
  267SOL    HW2  801   0.212   1.433   3.083 -1.0669 -1.0462 -0.6275
  268SOL     OW  802   1.704   0.241   0.247  0.4003  0.2668 -0.2921
  268SOL    HW1  803   1.692   0.142   0.224  2.5771  0.8251 -1.9156
  268SOL    HW2  804   1.671   0.259   0.342  0.8256  0.7101  3.1368
  269SOL     OW  805   3.098   0.650   2.380 -0.7951  0.1289 -0.3852
  269SOL    HW1  806   0.054   0.711   2.332  0.7187  1.2364  0.2933
  269SOL    HW2  807   3.016   0.623   2.326  0.9754  0.1653  2.2236
  270SOL     OW  808   0.009   1.103   0.343 -0.4174  0.0460 -0.0141
  270SOL    HW1  809   3.077   1.086   0.435 -0.1317  1.4350 -2.4334
  270SOL    HW2  810   0.009   1.017   0.284 -0.1407 -0.0154 -0.9895
  271SOL     OW  811   2.806   1.556   2.331  0.4318 -0.4070  0.5263
  271SOL    HW1  812   2.792   1.579   2.427 -0.5973  0.4756  0.4052
  271SOL    HW2  813   2.886   1.607   2.296 -2.1662  1.8655 -0.2841
  272SOL     OW  814   2.401   2.477   1.890  0.1411  0.3822  0.3282
  272SOL    HW1  815   2.497   2.445   1.875  1.3095  1.3017 -0.2585
  272SOL    HW2  816   2.376   2.495   1.988  2.2705  0.5814  0.5212
  273SOL     OW  817   0.092   2.428   0.284  0.4919 -0.1550 -0.0084
  273SOL    HW1  818   0.153   2.496   0.339  3.5839  1.1128  0.9722
  273SOL    HW2  819   0.064   2.351   0.346 -0.2721  1.9818  0.0733
  274SOL     OW  820   0.722   2.340   0.872  0.0554  0.2314 -0.1366
  274SOL    HW1  821   0.692   2.287   0.791 -0.0517  1.1565  1.9122
  274SOL    HW2  822   0.784   2.284   0.933 -0.6143  1.3255 -0.2856
  275SOL     OW  823   1.692   1.850   2.813 -0.4935 -0.1828  1.3846
  275SOL    HW1  824   1.780   1.887   2.779 -1.4186  0.5431  0.6122
  275SOL    HW2  825   1.620   1.871   2.736 -1.8880  0.8027 -2.8227
  276SOL     OW  826   2.278   1.497   1.839  0.5421  0.6468 -0.1673
  276SOL    HW1  827   2.292   1.398   1.833  0.0841 -0.9914 -0.0125
  276SOL    HW2  828   2.242   1.520   1.930  0.8613  3.2372  0.2667
  277SOL     OW  829   2.384   0.355   0.979 -0.2094  0.1419 -0.1910
  277SOL    HW1  830   2.406   0.432   0.917  0.4817 -0.9353  0.8391
  277SOL    HW2  831   2.298   0.381   1.030 -0.9232  1.2022 -0.4891
  278SOL     OW  832   1.575   0.511   2.611  0.1949  0.0960  0.4260
  278SOL    HW1  833   1.497   0.482   2.668 -1.5376  1.8556  1.3454
  278SOL    HW2  834   1.579   0.613   2.616 -1.4890  5.0407 -0.0635
  279SOL     OW  835   1.165   2.954   1.034 -0.3027  0.2564 -0.4125
  279SOL    HW1  836   1.191   2.858   1.045 -0.6769  0.1279 -1.7903
  279SOL    HW2  837   1.108   2.985   1.110  1.0674  0.7359 -0.3233
  280SOL     OW  838   1.399   1.243   0.403 -0.4397  0.0363  0.3213
  280SOL    HW1  839   1.495   1.242   0.439  3.6373 -1.6749 -1.1589
  280SOL    HW2  840   1.395   1.252   0.300 -0.5510 -1.3953  0.8705
  281SOL     OW  841   2.444   1.591   0.292 -0.0132 -0.2024 -0.3159
  281SOL    HW1  842   2.468   1.673   0.344 -0.6266  0.4990 -1.1490
  281SOL    HW2  843   2.530   1.545   0.266  0.0051  0.6642  1.4518
  282SOL     OW  844   2.655   1.223   0.303 -0.6067 -0.0219  0.0636
  282SOL    HW1  845   2.657   1.203   0.404  1.5589 -1.7826 -0.0823
  282SOL    HW2  846   2.684   1.317   0.272 -1.6682 -1.4344  0.0796
  283SOL     OW  847   1.757   2.817   2.875  0.0160  0.0386 -0.3105
  283SOL    HW1  848   1.819   2.859   2.805  2.2604  1.3177  0.1947
  283SOL    HW2  849   1.769   2.865   2.965 -2.2592  3.0519 -0.1714
  284SOL     OW  850   0.819   0.174   2.936 -0.6123  0.2715 -0.3013
  284SOL    HW1  851   0.796   0.272   2.928  0.3885 -1.5042 -0.2588
  284SOL    HW2  852   0.879   0.151   3.016  1.7861  0.4633  1.2054
  285SOL     OW  853   1.997   1.732   2.823  0.5800  0.7695 -0.7938
  285SOL    HW1  854   2.096   1.726   2.807 -3.7660 -1.7867  0.8571
  285SOL    HW2  855   1.961   1.814   2.775 -1.1641 -0.2513  0.4941
  286SOL     OW  856   1.489   2.081   1.318 -0.1227  0.0349  0.0615
  286SOL    HW1  857   1.533   2.012   1.375  1.4021  0.3553 -0.4794
  286SOL    HW2  858   1.465   2.165   1.367  0.1310  1.9983  0.0896
  287SOL     OW  859   1.657   0.330   1.440  0.4198  0.5310 -0.4954
  287SOL    HW1  860   1.616   0.292   1.521 -0.0544  2.5616 -1.3882
  287SOL    HW2  861   1.588   0.383   1.382  1.2976  0.3177 -0.0327
  288SOL     OW  862   0.568   2.591   2.201  0.1589 -0.1056  0.1344
  288SOL    HW1  863   0.583   2.683   2.238 -1.3773 -2.2206  1.0615
  288SOL    HW2  864   0.502   2.594   2.126 -2.0242 -0.3110 -1.4758
  289SOL     OW  865   0.402   1.570   0.695  0.3496  0.1386  0.4423
  289SOL    HW1  866   0.351   1.483   0.679  1.0698  0.9838 -1.5251
  289SOL    HW2  867   0.354   1.640   0.750  1.8619  1.0278 -1.1673
  290SOL     OW  868   1.005   1.893   1.957  0.1489  0.0549 -0.5330
  290SOL    HW1  869   1.092   1.932   1.938 -0.8985 -0.7218  1.2295
  290SOL    HW2  870   0.942   1.956   2.005  4.0557  0.7900  1.7726
  291SOL     OW  871   1.906   0.161   0.589 -0.1294  0.2842 -0.1137
  291SOL    HW1  872   1.872   0.137   0.683 -1.0828  0.6064  0.1131
  291SOL    HW2  873   1.908   0.071   0.535  0.5490 -0.8440  1.6590
  292SOL     OW  874   0.341   0.277   1.404 -0.3901 -0.0095 -0.0796
  292SOL    HW1  875   0.309   0.196   1.453  0.1541 -0.3467 -0.1898
  292SOL    HW2  876   0.280   0.349   1.434 -0.1410  0.5548  0.3124
  293SOL     OW  877   2.485   1.932   0.888 -0.3196 -0.2030  0.0809
  293SOL    HW1  878   2.560   1.865   0.868 -0.7528 -0.0310  0.8893
  293SOL    HW2  879   2.417   1.897   0.953  0.5058  1.9434 -3.2120
  294SOL     OW  880   0.233   0.189   2.259 -0.1858  0.1062  0.0063
  294SOL    HW1  881   0.179   0.103   2.265 -2.0336  0.9158  0.5330
  294SOL    HW2  882   0.299   0.179   2.181 -3.3191  2.5448  0.9419
  295SOL     OW  883   0.968   1.420   0.483 -0.7479  0.0053  0.5367
  295SOL    HW1  884   1.062   1.459   0.465 -3.1004  1.3244  0.9825
  295SOL    HW2  885   0.963   1.330   0.434 -0.9087 -0.3749 -2.5369
  296SOL     OW  886   1.994   1.811   1.168  0.0135 -0.1268  0.8344
  296SOL    HW1  887   1.969   1.731   1.107 -1.7264  0.4362 -1.1723
  296SOL    HW2  888   1.914   1.876   1.183 -1.7189  1.8339  0.4619
  297SOL     OW  889   1.747   0.628   2.860 -0.0600 -0.1798  0.0727
  297SOL    HW1  890   1.727   0.678   2.945  0.9223  0.1378  1.9363
  297SOL    HW2  891   1.685   0.658   2.788  0.6170  0.2942  1.3623
  298SOL     OW  892   1.265   3.042   2.473 -0.2227 -0.1640 -0.2358
  298SOL    HW1  893   1.279   2.988   2.561  2.7448 -3.0935  2.1533
  298SOL    HW2  894   1.341   3.106   2.451 -0.1544 -0.9458 -0.2841
  299SOL     OW  895   0.951   0.247   2.025 -0.1889 -0.4906  0.0645
  299SOL    HW1  896   1.046   0.266   2.057  0.3661 -2.2699  0.7150
  299SOL    HW2  897   0.937   0.174   1.957  1.1535  1.4031  0.2262
  300SOL     OW  898   2.867   0.231   1.596  0.2770 -0.2800 -0.6526
  300SOL    HW1  899   2.965   0.222   1.577 -1.2453  1.1069  0.8626
  300SOL    HW2  900   2.812   0.143   1.596  0.9467 -3.6877 -1.9122
  301SOL     OW  901   2.118   0.826   1.821 -0.3144  0.0630  0.5662
  301SOL    HW1  902   2.200   0.863   1.773  1.8015  1.1335  0.7851
  301SOL    HW2  903   2.057   0.773   1.758  0.0648 -0.8684  0.3661
  302SOL     OW  904   0.729   2.980   3.095 -0.2030 -0.0210  0.2486
  302SOL    HW1  905   0.676   3.063   3.103  0.2791 -0.1326  0.3900
  302SOL    HW2  906   0.711   2.910   0.062 -0.7938 -2.6425 -1.5599
  303SOL     OW  907   1.845   2.020   1.874 -0.5619  0.0448  0.1407
  303SOL    HW1  908   1.766   2.060   1.828  0.9512  0.2900  1.2598
  303SOL    HW2  909   1.886   1.942   1.826 -0.5644  2.3480  0.8221
  304SOL     OW  910   0.193   0.170   0.770 -0.1728 -0.2333  0.0438
  304SOL    HW1  911   0.253   0.144   0.693  1.1893  3.3406  1.5957
  304SOL    HW2  912   0.250   0.200   0.848 -1.0570 -2.1696  1.2905
  305SOL     OW  913   1.083   0.899   0.531 -0.1592 -0.4109 -0.4357
  305SOL    HW1  914   1.101   0.877   0.435 -1.4525  1.5184 -0.1141
  305SOL    HW2  915   0.993   0.857   0.566  0.3561 -0.2626  0.8983
  306SOL     OW  916   0.626   1.389   0.004 -0.4427 -0.0019  0.3052
  306SOL    HW1  917   0.651   1.321   0.077 -0.1693 -2.8740  2.2557
  306SOL    HW2  918   0.603   1.475   0.051 -0.5549 -1.8581 -0.0273
  307SOL     OW  919   0.800   0.494   1.975  0.4104 -0.4237 -0.2432
  307SOL    HW1  920   0.794   0.485   1.875 -1.4134 -0.5767 -0.0881
  307SOL    HW2  921   0.867   0.426   2.011 -2.7022  1.3878 -0.3863
  308SOL     OW  922   0.593   0.144   1.084 -0.4784 -0.2373 -0.0052
  308SOL    HW1  923   0.583   0.247   1.093 -1.2390 -1.1317 -1.2006
  308SOL    HW2  924   0.691   0.110   1.100  2.0533  0.1426 -1.2164
  309SOL     OW  925   2.217   1.177   0.332 -0.0091 -0.7317  0.0896
  309SOL    HW1  926   2.234   1.274   0.376  0.4626  1.0202  1.0370
  309SOL    HW2  927   2.124   1.182   0.290  3.9780  0.9882  0.2878
  310SOL     OW  928   1.092   1.384   0.020 -0.4430 -0.3023 -0.1653
  310SOL    HW1  929   1.172   1.434   3.091 -1.9897 -0.7400 -0.8267
  310SOL    HW2  930   1.047   1.442   0.091  0.7244  1.5484  0.5294
  311SOL     OW  931   1.957   2.454   2.141  0.9317 -0.1716  0.0425
  311SOL    HW1  932   1.959   2.356   2.119  3.2837  0.6115  1.9508
  311SOL    HW2  933   1.882   2.505   2.087 -3.2846 -0.0919 -1.9781
  312SOL     OW  934   2.509   3.019   0.183 -0.1214  0.4144  0.0245
  312SOL    HW1  935   2.474   3.105   0.230 -0.0691 -2.2895 -2.6045
  312SOL    HW2  936   2.452   2.940   0.208 -1.6750  0.4366 -0.1330
  313SOL     OW  937   0.585   0.589   3.041 -0.3727  0.2025  0.1816
  313SOL    HW1  938   0.626   0.654   3.108 -0.5277  0.8596 -0.4320
  313SOL    HW2  939   0.498   0.556   3.077 -0.2746 -0.5301 -0.4191
  314SOL     OW  940   2.749   1.399   2.715  0.1280  0.1455  0.0055
  314SOL    HW1  941   2.674   1.442   2.767 -0.0358 -0.1210 -1.3745
  314SOL    HW2  942   2.825   1.467   2.694  0.0469  2.0567 -2.5696
  315SOL     OW  943   1.671   0.751   2.015  0.1926 -0.2875 -0.4472
  315SOL    HW1  944   1.712   0.691   1.941  0.8425 -2.0373 -0.5595
  315SOL    HW2  945   1.722   0.740   2.102 -0.6850 -0.2014 -1.7876
  316SOL     OW  946   0.028   1.046   0.657  0.1544 -0.5693  0.0631
  316SOL    HW1  947   3.061   0.976   0.673 -3.1551  0.1334  0.9578
  316SOL    HW2  948   0.120   1.005   0.670 -1.0538 -0.0097  0.3029
  317SOL     OW  949   0.556   0.073   0.077 -0.3620  0.3310 -0.1144
  317SOL    HW1  950   0.485   0.144   0.051  0.5318  0.6129 -0.1046
  317SOL    HW2  951   0.609   0.110   0.156  0.9331  3.0157  1.6066
  318SOL     OW  952   1.821   2.628   0.929 -0.0087 -0.0074  0.4130
  318SOL    HW1  953   1.857   2.659   1.021 -0.8148 -0.0479 -3.1199
  318SOL    HW2  954   1.872   2.552   0.888  0.7583  0.6306  1.1570
  319SOL     OW  955   1.244   1.477   0.428 -0.4562  0.1771 -0.0407
  319SOL    HW1  956   1.281   1.380   0.437  2.3708  3.0508 -0.9753
  319SOL    HW2  957   1.288   1.524   0.350  3.7320  2.6514  1.9602
  320SOL     OW  958   0.718   2.035   1.207  0.8577  0.4393  0.3555
  320SOL    HW1  959   0.636   2.065   1.151 -0.8980 -1.5150 -1.2872
  320SOL    HW2  960   0.738   2.100   1.280 -0.9664 -0.4089 -0.9520
  321SOL     OW  961   2.366   2.482   2.167  0.7387 -0.2883  0.6355
  321SOL    HW1  962   2.350   2.382   2.185 -0.3785 -0.6944  0.0643
  321SOL    HW2  963   2.307   2.540   2.223  0.8134 -0.4738 -1.7112
  322SOL     OW  964   2.362   2.322   2.480 -1.0174  0.4574 -0.2858
  322SOL    HW1  965   2.455   2.354   2.448 -1.3489 -1.5568 -1.3492
  322SOL    HW2  966   2.305   2.405   2.497  2.7971  0.1439 -2.3695
  323SOL     OW  967   2.547   0.834   0.783 -0.7914 -0.1498 -0.1177
  323SOL    HW1  968   2.459   0.866   0.750  1.5044 -1.1517 -1.2599
  323SOL    HW2  969   2.568   0.753   0.730  1.4103  1.0263  1.3456
  324SOL     OW  970   2.353   2.197   2.233 -0.0480  0.6883  0.6607
  324SOL    HW1  971   2.336   2.229   2.330  0.8252  0.2425 -0.7822
  324SOL    HW2  972   2.436   2.142   2.235 -1.4785  1.2746  0.8775
  325SOL     OW  973   1.317   0.462   2.409 -0.2300  0.0147  0.0067
  325SOL    HW1  974   1.213   0.458   2.394  1.5898 -2.4008 -0.2750
  325SOL    HW2  975   1.349   0.375   2.447 -0.6504  0.5338  0.1369
  326SOL     OW  976   2.690   2.324   1.056  0.1381 -0.2431  0.1072
  326SOL    HW1  977   2.752   2.402   1.083  0.6022 -0.8181  0.5153
  326SOL    HW2  978   2.600   2.330   1.104 -0.6386 -1.1819 -1.6418
  327SOL     OW  979   2.826   2.916   0.158  0.6511  0.1201  0.1314
  327SOL    HW1  980   2.728   2.942   0.174 -0.2983  1.6362  0.5722
  327SOL    HW2  981   2.832   2.863   0.072 -0.9516 -0.3782 -2.2484
  328SOL     OW  982   0.857   0.769   0.619 -0.3461 -0.6861  0.3778
  328SOL    HW1  983   0.899   0.710   0.694  0.8115 -1.6134  1.2975
  328SOL    HW2  984   0.761   0.790   0.646  0.4750 -1.5265 -1.6413
  329SOL     OW  985   2.077   0.850   1.290  0.2979  0.1889  0.0648
  329SOL    HW1  986   2.050   0.868   1.194 -1.2277 -0.1403  3.7692
  329SOL    HW2  987   2.148   0.922   1.314  1.1676 -0.6168 -0.3051
  330SOL     OW  988   0.874   0.616   0.410  0.1142 -0.5248  0.1003
  330SOL    HW1  989   0.901   0.673   0.328  0.9885 -0.9014 -1.1664
  330SOL    HW2  990   0.869   0.677   0.488  1.0556 -2.7234 -1.8224
  331SOL     OW  991   0.439   1.692   1.839  0.3197 -0.4033 -0.3919
  331SOL    HW1  992   0.462   1.630   1.915 -2.0380  2.4337 -2.3827
  331SOL    HW2  993   0.512   1.682   1.763 -1.3108  1.1562  1.5404
  332SOL     OW  994   1.935   2.174   2.072  0.5171 -0.5153 -0.2546
  332SOL    HW1  995   2.032   2.143   2.080 -1.9140  0.1801 -2.8580
  332SOL    HW2  996   1.893   2.149   1.986  4.0615 -1.3193  3.5686
  333SOL     OW  997   2.983   3.046   1.036  0.5328 -0.0856  0.0146
  333SOL    HW1  998   2.947   0.024   1.087 -3.8653  2.0378  1.4503
  333SOL    HW2  999   2.941   2.957   1.062 -0.7054  0.4616 -0.9141
  334SOL     OW 1000   0.011   1.670   0.870 -0.1259  0.1288  0.5367
  334SOL    HW1 1001   3.084   1.730   0.796  0.2045 -0.5299 -0.4156
  334SOL    HW2 1002   0.104   1.702   0.895 -1.6713  2.0241 -2.5927
  335SOL     OW 1003   0.470   2.615   2.664  0.1713  0.0702  0.4484
  335SOL    HW1 1004   0.519   2.560   2.734 -0.7142 -2.4943 -0.4702
  335SOL    HW2 1005   0.453   2.709   2.693 -0.1716 -2.5564  0.6600
  336SOL     OW 1006   0.119   2.685   1.895 -0.2076 -0.0921  0.0372
  336SOL    HW1 1007   0.167   2.732   1.823 -1.1689 -1.1688  0.2427
  336SOL    HW2 1008   0.106   2.743   1.979  0.5949 -0.7405 -0.9472
  337SOL     OW 1009   1.348   2.141   2.125  0.1390 -0.1319 -0.0815
  337SOL    HW1 1010   1.388   2.217   2.182  1.1020 -1.9093  0.1930
  337SOL    HW2 1011   1.393   2.048   2.151  2.7531 -2.3098  1.5547
  338SOL     OW 1012   1.033   3.081   2.308 -0.1958 -0.1707  0.3285
  338SOL    HW1 1013   0.965   3.004   2.310  0.8684 -0.4620  2.0528
  338SOL    HW2 1014   1.123   3.049   2.348  0.6587  0.7537  1.2363
  339SOL     OW 1015   0.286   0.877   2.471 -0.4008 -0.3224  0.3322
  339SOL    HW1 1016   0.200   0.850   2.421 -1.1795  1.4184  1.7036
  339SOL    HW2 1017   0.259   0.902   2.567  2.0497 -1.3189  2.0783
  340SOL     OW 1018   2.247   0.536   1.309  0.5555  0.5007 -0.0553
  340SOL    HW1 1019   2.353   0.516   1.321  2.0888 -2.2982 -0.7446
  340SOL    HW2 1020   2.225   0.600   1.233 -1.2336  6.6222  0.1872
  341SOL     OW 1021   1.964   1.134   1.216 -0.3447 -0.6790  0.3242
  341SOL    HW1 1022   1.992   1.090   1.301  0.1029 -2.2247 -0.6780
  341SOL    HW2 1023   1.969   1.071   1.136  1.9843  1.2550  1.9107
  342SOL     OW 1024   2.166   2.879   2.808 -0.4025 -0.3707  0.0227
  342SOL    HW1 1025   2.084   2.929   2.848 -1.4452  3.3877 -1.2691
  342SOL    HW2 1026   2.144   2.779   2.799 -0.5515  2.2428  2.1847
  343SOL     OW 1027   2.985   2.533   1.108  0.0686  0.6372 -0.0120
  343SOL    HW1 1028   3.069   2.505   1.057  3.4304  0.6721  0.1423
  343SOL    HW2 1029   2.991   2.499   1.203  2.3121 -1.9976  1.0355
  344SOL     OW 1030   2.293   2.938   0.830 -0.4448  0.8436  0.4345
  344SOL    HW1 1031   2.291   3.038   0.816  1.5168  0.5748 -0.8659
  344SOL    HW2 1032   2.237   2.890   0.756  0.4240  1.5291 -1.1075
  345SOL     OW 1033   2.623   2.343   0.352 -0.4628 -0.1618  0.0597
  345SOL    HW1 1034   2.720   2.339   0.313  0.3254 -1.5747 -1.8112
  345SOL    HW2 1035   2.615   2.417   0.421  0.6291  2.1060 -1.4643
  346SOL     OW 1036   1.570   2.068   1.812  0.9915 -0.1231  0.1202
  346SOL    HW1 1037   1.561   1.994   1.879  0.6839  0.6444  0.8501
  346SOL    HW2 1038   1.501   2.050   1.736 -0.6285 -0.1589 -0.2687
  347SOL     OW 1039   1.242   2.021   1.910  0.2370 -0.1818  0.4502
  347SOL    HW1 1040   1.296   2.065   1.985  1.3154 -1.9373  1.4673
  347SOL    HW2 1041   1.298   1.999   1.824 -0.5630 -0.0615 -4.1407
  348SOL     OW 1042   0.645   1.666   1.665 -0.0223  0.2376  0.4105
  348SOL    HW1 1043   0.699   1.638   1.584 -1.5008 -1.7652 -0.1553
  348SOL    HW2 1044   0.703   1.736   1.714  0.5074  0.2377 -0.8078
  349SOL     OW 1045   1.690   1.290   1.548  0.7771  0.1972  0.4330
  349SOL    HW1 1046   1.728   1.369   1.591 -1.0867 -1.6194  1.0800
  349SOL    HW2 1047   1.587   1.301   1.530 -2.0989 -0.1245 -1.9703
  350SOL     OW 1048   2.323   2.422   0.529 -0.0271 -0.1774 -0.0888
  350SOL    HW1 1049   2.405   2.478   0.508 -1.7113  0.7000  0.7520
  350SOL    HW2 1050   2.273   2.411   0.443  0.3712  0.4850 -1.7398
  351SOL     OW 1051   0.079   2.971   1.729 -0.8078 -0.1038 -0.3481
  351SOL    HW1 1052   0.179   2.944   1.725 -1.1386 -0.9412 -1.0850
  351SOL    HW2 1053   0.023   2.917   1.664 -0.6663  1.1032  0.1182
  352SOL     OW 1054   0.649   1.099   0.577 -0.2759 -0.3506 -0.4825
  352SOL    HW1 1055   0.697   1.074   0.663  1.1997  0.4523  0.7069
  352SOL    HW2 1056   0.560   1.050   0.579 -2.0655  1.1027 -0.0846
  353SOL     OW 1057   1.134   1.828   2.735 -0.0685 -0.4072  0.0469
  353SOL    HW1 1058   1.116   1.916   2.786  1.5643 -0.4089 -2.0865
  353SOL    HW2 1059   1.048   1.769   2.747  0.6183 -0.2753 -0.8694
  354SOL     OW 1060   1.812   2.766   1.922  0.2361  0.3575 -0.1370
  354SOL    HW1 1061   1.763   2.726   2.000  0.6985  1.2256 -1.9578
  354SOL    HW2 1062   1.793   2.711   1.840  0.1785 -0.4684 -0.6254
  355SOL     OW 1063   2.117   1.075   3.104 -0.3906 -0.0843 -0.6398
  355SOL    HW1 1064   2.178   1.073   3.017  3.7226 -2.3341  0.1885
  355SOL    HW2 1065   2.067   1.163   0.015  0.6388  0.5790  0.7481
  356SOL     OW 1066   0.296   2.103   1.155 -0.3375  0.0376  0.4989
  356SOL    HW1 1067   0.203   2.123   1.119 -1.7075 -1.4288  1.1176
  356SOL    HW2 1068   0.294   2.015   1.199 -0.2666  3.5754  1.7321
  357SOL     OW 1069   2.855   2.876   1.752 -0.1015  0.3805  0.0232
  357SOL    HW1 1070   2.830   2.779   1.761  0.1081 -0.2534  2.0346
  357SOL    HW2 1071   2.920   2.894   1.675 -0.5288 -1.3794  1.5166
  358SOL     OW 1072   2.324   1.776   1.432  0.0286 -0.2517  0.1763
  358SOL    HW1 1073   2.260   1.856   1.425  0.2088 -2.1970  1.9563
  358SOL    HW2 1074   2.347   1.743   1.336 -1.1707 -0.8667 -0.5145
  359SOL     OW 1075   1.996   2.814   2.384  0.0702  0.3481 -0.4551
  359SOL    HW1 1076   1.959   2.726   2.416  4.7626 -1.2097 -1.1823
  359SOL    HW2 1077   2.035   2.803   2.294 -1.9450  1.4741  3.3028
  360SOL     OW 1078   1.002   2.998   0.814 -0.1518 -0.5964 -0.0661
  360SOL    HW1 1079   0.950   3.090   0.822 -1.3817  2.5280 -1.8827
  360SOL    HW2 1080   1.058   2.977   0.893 -3.6166 -0.2812  1.6885
  361SOL     OW 1081   1.956   0.451   0.663 -0.3079  0.3331  0.2751
  361SOL    HW1 1082   1.961   0.350   0.632 -1.6877 -1.7360 -3.2316
  361SOL    HW2 1083   1.913   0.460   0.755 -1.5706  1.1759  0.3546
  362SOL     OW 1084   1.528   0.828   1.170  0.2474  0.4346  0.0272
  362SOL    HW1 1085   1.536   0.907   1.233 -0.2060 -1.6421 -3.6643
  362SOL    HW2 1086   1.465   0.850   1.095  3.1688  1.1626  1.0291
  363SOL     OW 1087   1.962   1.595   2.041 -0.7264 -0.6185  0.1170
  363SOL    HW1 1088   1.900   1.539   2.100  1.8333  1.9790 -1.4421
  363SOL    HW2 1089   2.059   1.577   2.061 -0.3558  0.9872 -1.2092
  364SOL     OW 1090   0.713   0.764   1.142 -0.0181  0.1156  0.6011
  364SOL    HW1 1091   0.759   0.791   1.055  1.3955  0.3731  0.7765
  364SOL    HW2 1092   0.714   0.662   1.157 -0.4828  1.7382 -1.8161
  365SOL     OW 1093   0.374   0.295   2.485 -0.3764 -0.7661  0.1794
  365SOL    HW1 1094   0.390   0.393   2.465  2.6453  2.9223  1.7400
  365SOL    HW2 1095   0.329   0.246   2.410  2.2224  0.4918  2.5236
  366SOL     OW 1096   2.270   1.722   2.794  0.1514 -0.5079 -0.1072
  366SOL    HW1 1097   2.354   1.661   2.795 -0.5181  1.5672 -0.4764
  366SOL    HW2 1098   2.296   1.816   2.834 -0.5543  0.6897 -0.4459
  367SOL     OW 1099   2.731   2.492   2.873 -0.2075  0.4134 -0.3937
  367SOL    HW1 1100   2.726   2.527   2.969 -2.0720 -1.4249 -0.5963
  367SOL    HW2 1101   2.651   2.530   2.823  0.9207  1.3061 -1.2964
  368SOL     OW 1102   0.139   1.493   1.039 -0.2770 -0.4389  0.2971
  368SOL    HW1 1103   0.108   1.396   1.050  1.1103 -2.6710  0.7136
  368SOL    HW2 1104   0.077   1.554   0.984  1.5989  2.1059 -0.5025
  369SOL     OW 1105   0.582   2.878   2.265 -0.7453 -0.1021  0.6140
  369SOL    HW1 1106   0.564   2.912   2.358 -1.2941 -0.1863 -1.9041
  369SOL    HW2 1107   0.630   2.948   2.213 -1.1565  0.1489  0.4192
  370SOL     OW 1108   3.075   0.567   0.685 -0.5702  0.6553  0.3139
  370SOL    HW1 1109   3.063   0.627   0.603 -1.1553  0.3313 -0.8932
  370SOL    HW2 1110   2.983   0.559   0.726  0.6941  1.2968  2.3918
  371SOL     OW 1111   1.413   2.447   1.562  0.1898 -0.0038  0.9617
  371SOL    HW1 1112   1.367   2.535   1.551  2.0591 -1.6315  0.4277
  371SOL    HW2 1113   1.347   2.374   1.553  2.5318  2.4986 -0.7013
  372SOL     OW 1114   2.764   0.221   2.392  0.0326 -0.7875  0.5481
  372SOL    HW1 1115   2.663   0.204   2.403 -0.6426  1.5649  1.3939
  372SOL    HW2 1116   2.814   0.228   2.483  4.4690 -1.1674  3.5112
  373SOL     OW 1117   0.198   2.198   0.686 -0.1926  0.4302 -0.3117
  373SOL    HW1 1118   0.231   2.282   0.733  0.2381  0.1424  3.4506
  373SOL    HW2 1119   0.096   2.194   0.682  1.1467 -1.7008  0.0606
  374SOL     OW 1120   0.216   3.033   2.570  0.2932 -0.0701 -0.7457
  374SOL    HW1 1121   0.238   0.023   2.594 -1.1551 -0.2963 -0.3322
  374SOL    HW2 1122   0.255   3.001   2.480  1.8304  1.8676  1.8930
  375SOL     OW 1123   0.602   0.164   2.577 -0.4137  0.5753  0.6922
  375SOL    HW1 1124   0.598   0.158   2.678 -1.8341 -0.8210 -3.6773
  375SOL    HW2 1125   0.517   0.207   2.543 -1.4626  0.0919  0.7492
  376SOL     OW 1126   2.710   2.109   1.757  0.4478 -0.1457  0.3981
  376SOL    HW1 1127   2.787   2.057   1.809  1.1388 -0.9035  1.2225
  376SOL    HW2 1128   2.747   2.136   1.662  2.1221  0.5161 -2.9418
  377SOL     OW 1129   1.251   2.875   2.689 -0.3495 -0.1782 -0.2076
  377SOL    HW1 1130   1.186   2.876   2.772 -4.1209 -1.4665  2.4748
  377SOL    HW2 1131   1.349   2.857   2.718  2.4161  0.8227  1.8355
  378SOL     OW 1132   2.940   0.279   2.593 -0.0770 -0.1194  0.3113
  378SOL    HW1 1133   2.974   0.373   2.604 -1.5014 -3.4049 -2.9780
  378SOL    HW2 1134   3.024   0.216   2.577  2.6270 -2.1163  0.1123
  379SOL     OW 1135   0.767   1.065   0.330 -0.1256  0.1875  0.0539
  379SOL    HW1 1136   0.700   1.019   0.266  0.0445  0.6954  2.7000
  379SOL    HW2 1137   0.718   1.070   0.420 -0.0342 -0.4418 -3.3320
  380SOL     OW 1138   0.248   1.500   1.717  0.2743  0.2616  0.6386
  380SOL    HW1 1139   0.317   1.554   1.772  0.5755 -0.2131 -0.4091
  380SOL    HW2 1140   0.298   1.433   1.655  0.7966 -3.6214 -4.1797
  381SOL     OW 1141   0.197   1.098   2.184 -0.5441 -0.2493 -0.2984
  381SOL    HW1 1142   0.289   1.136   2.177 -0.3504  1.2833  0.3611
  381SOL    HW2 1143   0.147   1.106   2.096 -2.1785 -1.0744 -0.0640
  382SOL     OW 1144   2.257   1.799   0.469 -0.6169  0.1791 -0.5081
  382SOL    HW1 1145   2.342   1.818   0.421  0.7962 -0.1364  2.6822
  382SOL    HW2 1146   2.262   1.823   0.564 -0.0323 -3.1620 -3.0672
  383SOL     OW 1147   0.466   1.951   0.108  0.3901 -0.4435 -0.0221
  383SOL    HW1 1148   0.405   1.875   0.138 -1.4687 -2.5241 -1.1866
  383SOL    HW2 1149   0.532   1.915   0.039 -1.5303 -0.3165  0.1255
  384SOL     OW 1150   0.611   2.092   2.307 -0.2514  0.1675 -0.2823
  384SOL    HW1 1151   0.682   2.114   2.377  0.1231  2.5368  0.9221
  384SOL    HW2 1152   0.633   2.149   2.226  1.0522 -1.1108  1.5352
  385SOL     OW 1153   2.262   1.912   0.715 -0.9002 -0.2883 -0.3924
  385SOL    HW1 1154   2.329   1.909   0.796 -1.1712 -0.8556  0.3990
  385SOL    HW2 1155   2.227   2.005   0.703  1.7629  0.5681  1.1081
  386SOL     OW 1156   2.242   1.038   1.340 -0.0501  0.4268  0.4687
  386SOL    HW1 1157   2.296   1.025   1.249  0.2828  0.7594  0.1188
  386SOL    HW2 1158   2.305   1.088   1.400 -1.6137 -0.9473 -2.3013
  387SOL     OW 1159   2.942   1.301   2.201  0.0351  0.3279 -0.2833
  387SOL    HW1 1160   2.952   1.286   2.302  0.2676 -1.9062  1.7560
  387SOL    HW2 1161   3.015   1.362   2.170 -0.3426 -1.6669 -0.9440
  388SOL     OW 1162   0.539   1.622   2.267  0.3531 -0.0854 -0.3963
  388SOL    HW1 1163   0.492   1.713   2.257 -1.1060 -1.2852  0.3932
  388SOL    HW2 1164   0.496   1.548   2.211  2.9428  0.3885 -2.8171
  389SOL     OW 1165   0.849   0.959   2.024  0.2713  0.1722 -0.0733
  389SOL    HW1 1166   0.821   0.866   2.045  0.7246  3.4260  0.4049
  389SOL    HW2 1167   0.937   0.984   2.064 -0.5297 -1.9089 -0.4747
  390SOL     OW 1168   2.577   3.037   0.758 -0.6013 -0.0309 -0.5951
  390SOL    HW1 1169   2.483   2.996   0.758  1.7099 -2.6649 -1.1358
  390SOL    HW2 1170   2.581   0.014   0.816 -2.0326  0.0734  0.9344
  391SOL     OW 1171   1.626   1.736   1.258  0.1222 -0.0902  0.5658
  391SOL    HW1 1172   1.704   1.671   1.255 -0.0468 -1.3615 -1.4980
  391SOL    HW2 1173   1.585   1.746   1.167  2.0672 -1.8878  2.8961
  392SOL     OW 1174   2.744   2.582   0.035 -0.1592  0.3627 -0.4912
  392SOL    HW1 1175   2.769   2.661   3.084  1.6988 -2.8237 -0.7671
  392SOL    HW2 1176   2.785   2.578   0.127 -0.3330 -1.8447 -1.5169
  393SOL     OW 1177   1.729   2.380   2.990 -0.3105  0.8958 -0.0080
  393SOL    HW1 1178   1.746   2.445   2.916  1.0218  0.4009  0.3276
  393SOL    HW2 1179   1.792   2.302   2.983  4.1559  0.1879 -1.8472
  394SOL     OW 1180   2.907   2.515   2.450  0.0981 -0.8086  0.4617
  394SOL    HW1 1181   2.897   2.546   2.546  0.7424  1.4764  0.7640
  394SOL    HW2 1182   2.996   2.469   2.443  3.1951  1.5231 -0.1531
  395SOL     OW 1183   0.110   0.356   0.576  0.1344 -0.5504  0.3939
  395SOL    HW1 1184   0.043   0.426   0.614  0.2891 -1.4921  0.7599
  395SOL    HW2 1185   0.142   0.291   0.645  2.1488 -1.9823 -1.6751
  396SOL     OW 1186   1.821   0.654   0.518  0.4626 -0.0289 -0.2920
  396SOL    HW1 1187   1.785   0.717   0.590 -0.8957 -0.0473  0.4783
  396SOL    HW2 1188   1.879   0.584   0.561 -2.9468  4.5666  1.7207
  397SOL     OW 1189   0.341   0.611   2.152  0.0383  0.2052  0.5839
  397SOL    HW1 1190   0.383   0.541   2.088 -1.4119 -2.0050 -0.1009
  397SOL    HW2 1191   0.313   0.700   2.105  1.4744  1.0004 -1.8120
  398SOL     OW 1192   1.069   3.052   0.367  0.3539  0.6956 -0.4802
  398SOL    HW1 1193   1.109   3.083   0.277  2.2331  0.4722 -0.8135
  398SOL    HW2 1194   1.023   0.020   0.418 -1.1723 -0.1395  0.9263
  399SOL     OW 1195   2.098   0.327   1.991 -0.0167 -0.9178 -0.6537
  399SOL    HW1 1196   2.108   0.255   2.065 -1.1148 -0.9944 -0.3751
  399SOL    HW2 1197   2.071   0.417   2.029  1.9472 -1.2649  2.6094
  400SOL     OW 1198   0.797   2.189   2.499 -0.3043  0.1367 -0.0318
  400SOL    HW1 1199   0.752   2.187   2.593  0.9497  1.0542  3.2192
  400SOL    HW2 1200   0.818   2.285   2.474  0.2043 -2.4163 -2.1882
  401SOL     OW 1201   0.474   1.054   2.639 -0.0606  0.7540 -0.2399
  401SOL    HW1 1202   0.402   1.060   2.705 -0.2264 -1.1087  0.3348
  401SOL    HW2 1203   0.445   1.001   2.556  1.3466 -3.5766 -0.8075
  402SOL     OW 1204   0.309   2.600   0.398  0.5431 -0.7827  0.0377
  402SOL    HW1 1205   0.373   2.582   0.321 -0.9055  2.7423  0.7974
  402SOL    HW2 1206   0.364   2.608   0.483  0.3826 -0.0405 -0.9710
  403SOL     OW 1207   0.073   1.087   1.912  0.1918 -0.8009  0.1562
  403SOL    HW1 1208   0.146   1.057   1.850 -2.3951  3.0702 -0.1186
  403SOL    HW2 1209   3.094   1.105   1.859  0.1650  0.2547 -4.0568
  404SOL     OW 1210   2.612   2.403   2.404  0.1433  0.0011 -0.0746
  404SOL    HW1 1211   2.696   2.400   2.455 -1.9284 -2.2902 -1.0229
  404SOL    HW2 1212   2.624   2.457   2.318 -0.8751 -1.1383  0.1548
  405SOL     OW 1213   0.117   0.456   1.897  0.6001  0.2237  0.4996
  405SOL    HW1 1214   0.160   0.468   1.987 -0.6477 -1.1163  1.9395
  405SOL    HW2 1215   0.014   0.443   1.906 -0.3067  0.0967 -0.2500
  406SOL     OW 1216   1.303   1.459   2.687  0.1743  0.0253 -0.5609
  406SOL    HW1 1217   1.319   1.536   2.752  0.3643 -0.2485 -2.5615
  406SOL    HW2 1218   1.251   1.506   2.611 -4.1464 -1.3650 -1.4654
  407SOL     OW 1219   1.694   0.999   2.739 -0.1357  0.1866 -0.2516
  407SOL    HW1 1220   1.596   1.033   2.742 -3.1018  0.4104 -3.0209
  407SOL    HW2 1221   1.752   1.064   2.687  0.2042 -1.4921  1.5228
  408SOL     OW 1222   0.301   2.951   2.314  0.5620  0.3464  0.1590
  408SOL    HW1 1223   0.400   2.971   2.316  1.7137  0.5060  1.2212
  408SOL    HW2 1224   0.294   2.855   2.290  0.4715  2.8481  1.5540
  409SOL     OW 1225   0.007   2.158   1.106 -0.3829 -0.0590 -0.0313
  409SOL    HW1 1226   3.048   2.113   1.042 -1.0579 -0.1507 -1.9780
  409SOL    HW2 1227   3.088   2.148   1.203  0.0803  1.1608  0.2683
  410SOL     OW 1228   2.824   1.717   0.466  0.5293  0.1045  0.3286
  410SOL    HW1 1229   2.829   1.669   0.552  3.6335  0.8514  0.1848
  410SOL    HW2 1230   2.873   1.668   0.392  3.1981 -1.4580 -2.6615
  411SOL     OW 1231   2.910   0.181   1.132  0.2578 -0.1082 -0.3453
  411SOL    HW1 1232   2.846   0.188   1.214 -2.6825  1.1978  0.4843
  411SOL    HW2 1233   2.866   0.218   1.045 -0.3617  3.0613 -1.6743
  412SOL     OW 1234   2.151   0.433   1.546 -0.0988  0.1543 -0.6659
  412SOL    HW1 1235   2.132   0.334   1.553  1.4322  1.1084  1.0510
  412SOL    HW2 1236   2.179   0.456   1.448  0.5517  0.2079 -2.2758
  413SOL     OW 1237   0.500   0.477   1.995 -0.0466 -0.6708 -0.2229
  413SOL    HW1 1238   0.494   0.448   1.898  0.9711 -1.7013  0.7454
  413SOL    HW2 1239   0.596   0.478   2.026  0.6124 -1.8498  0.0148
  414SOL     OW 1240   0.048   1.216   2.742  0.2125 -0.2984  0.2897
  414SOL    HW1 1241   0.114   1.293   2.754  1.3300  0.1596  1.9297
  414SOL    HW2 1242   3.068   1.243   2.699 -1.5906  0.4079 -1.4624
  415SOL     OW 1243   0.780   2.707   2.957  0.3215 -0.5970  0.5442
  415SOL    HW1 1244   0.868   2.695   2.999  0.7279  0.2483  0.2294
  415SOL    HW2 1245   0.740   2.797   2.989 -0.9444 -0.6563  0.2367
  416SOL     OW 1246   1.437   0.161   2.424 -0.1737 -0.3350  0.8380
  416SOL    HW1 1247   1.494   0.107   2.358  0.1843 -1.7293 -2.2898
  416SOL    HW2 1248   1.347   0.187   2.378  0.6164  1.5456 -1.5811
  417SOL     OW 1249   0.386   0.625   0.649 -0.2403  0.3934 -0.1232
  417SOL    HW1 1250   0.461   0.550   0.654  2.0643 -1.4347  2.1802
  417SOL    HW2 1251   0.307   0.600   0.701 -0.7371 -0.1640 -3.5032
  418SOL     OW 1252   2.671   0.119   0.587 -0.3614  0.5582  0.0194
  418SOL    HW1 1253   2.643   0.044   0.649  0.1837 -1.6584 -0.0117
  418SOL    HW2 1254   2.613   0.199   0.587  0.3510 -2.4142  0.5142
  419SOL     OW 1255   0.322   2.861   0.364  0.0814  0.2755  0.1547
  419SOL    HW1 1256   0.346   2.890   0.269 -2.2284 -1.2125  0.6618
  419SOL    HW2 1257   0.307   2.762   0.363 -0.5170  1.0694 -0.0857
  420SOL     OW 1258   0.284   1.012   1.744 -0.0948  0.0565 -0.1217
  420SOL    HW1 1259   0.258   1.006   1.645  2.4131 -2.2758 -0.8483
  420SOL    HW2 1260   0.386   0.993   1.749 -0.2110  0.2312  0.6217
  421SOL     OW 1261   1.980   2.439   0.780  0.0923 -0.8609 -0.1069
  421SOL    HW1 1262   2.072   2.473   0.766 -2.7569 -0.7304 -0.0393
  421SOL    HW2 1263   1.954   2.378   0.705 -0.5561  0.1828  0.0192
  422SOL     OW 1264   0.190   0.490   1.475  0.5087  0.7184 -0.9562
  422SOL    HW1 1265   0.235   0.541   1.398  1.8568  3.2566  0.2242
  422SOL    HW2 1266   0.197   0.545   1.561  0.8829  1.5180 -2.4966
  423SOL     OW 1267   0.765   1.513   1.866 -0.0440 -0.2957  0.1509
  423SOL    HW1 1268   0.720   1.556   1.781  1.9319  0.0003  0.1110
  423SOL    HW2 1269   0.753   1.568   1.958  1.0626  0.3478  3.4980
  424SOL     OW 1270   1.899   2.160   0.352  0.3011 -0.0916 -0.4997
  424SOL    HW1 1271   1.904   2.210   0.263 -1.0005  0.8192 -2.1958
  424SOL    HW2 1272   1.818   2.097   0.351 -0.3252  0.2237 -0.4000
  425SOL     OW 1273   2.738   3.044   1.931  0.3777 -0.0270  0.2240
  425SOL    HW1 1274   2.789   0.002   1.989  1.9734 -1.3207 -3.2821
  425SOL    HW2 1275   2.802   3.007   1.862 -2.1405  0.8346  1.0883
  426SOL     OW 1276   2.919   2.595   2.720  0.2321  0.0551  0.1601
  426SOL    HW1 1277   3.001   2.621   2.766 -0.4414 -1.5609 -0.1442
  426SOL    HW2 1278   2.851   2.549   2.781  5.5918 -1.3178 -1.8671
  427SOL     OW 1279   1.112   0.511   0.121  0.1234  0.0710  0.6226
  427SOL    HW1 1280   1.030   0.455   0.146 -1.3539  1.5267  0.2729
  427SOL    HW2 1281   1.172   0.461   0.057  2.3418 -0.3741  1.4664
  428SOL     OW 1282   2.973   0.420   1.279 -0.3912  0.2311  0.6167
  428SOL    HW1 1283   3.008   0.334   1.232  1.6760 -1.8410 -1.3536
  428SOL    HW2 1284   2.918   0.399   1.358  1.4262 -1.5233 -0.5504
  429SOL     OW 1285   2.001   3.082   1.122  0.4446 -0.7540  0.1922
  429SOL    HW1 1286   1.960   3.018   1.053  0.2232  1.5998 -0.6306
  429SOL    HW2 1287   2.101   3.070   1.126 -0.3749 -0.1438  2.1714
  430SOL     OW 1288   0.934   1.520   2.595  0.8458 -0.0235 -0.0803
  430SOL    HW1 1289   0.946   1.586   2.674  0.0822 -0.5643  0.3519
  430SOL    HW2 1290   0.840   1.538   2.547 -3.8686 -1.7883 -0.9643
  431SOL     OW 1291   2.624   1.735   1.229  0.4899 -0.2135 -0.5096
  431SOL    HW1 1292   2.679   1.735   1.315 -1.0601  0.3398  1.5353
  431SOL    HW2 1293   2.577   1.824   1.213  0.6785 -1.5544  1.8191
  432SOL     OW 1294   1.259   2.716   2.244  0.1573 -0.2556 -0.2781
  432SOL    HW1 1295   1.318   2.800   2.232 -1.3784 -0.8588 -0.2290
  432SOL    HW2 1296   1.306   2.641   2.293 -1.0449  0.4880 -1.3411
  433SOL     OW 1297   1.611   0.461   2.330 -0.2330  0.5120 -0.1736
  433SOL    HW1 1298   1.651   0.470   2.424  0.3072  0.5495  0.4718
  433SOL    HW2 1299   1.511   0.446   2.336 -1.4744  0.8698  1.4504
  434SOL     OW 1300   0.372   2.315   2.143 -0.0168 -0.1735 -0.6483
  434SOL    HW1 1301   0.356   2.410   2.116  4.3936 -3.5193  1.2030
  434SOL    HW2 1302   0.393   2.309   2.243 -0.6672  1.1448  0.7830
  435SOL     OW 1303   0.329   0.096   0.541  0.0458 -0.3546 -0.5258
  435SOL    HW1 1304   0.249   0.099   0.475  0.6503  1.8240  0.3829
  435SOL    HW2 1305   0.346   0.001   0.573 -2.0833 -0.5965 -1.4597
  436SOL     OW 1306   0.514   0.900   2.293  0.3909  0.4640  0.3013
  436SOL    HW1 1307   0.605   0.861   2.326 -4.1583  0.3569  0.0609
  436SOL    HW2 1308   0.440   0.861   2.354 -1.6600 -0.6455  0.4001
  437SOL     OW 1309   0.702   2.636   2.515 -0.7850  0.1473 -0.4532
  437SOL    HW1 1310   0.751   2.578   2.447  0.2190 -0.9268  1.4620
  437SOL    HW2 1311   0.615   2.590   2.547 -0.5740 -0.3350 -1.6085
  438SOL     OW 1312   1.089   1.169   0.968 -0.3415 -0.2190 -0.4292
  438SOL    HW1 1313   1.188   1.154   0.973 -1.9369 -0.1754  0.6464
  438SOL    HW2 1314   1.054   1.174   0.874 -0.7192  0.8464  2.3576
  439SOL     OW 1315   2.579   1.440   2.259  0.5974 -0.3614  0.3767
  439SOL    HW1 1316   2.667   1.490   2.281  1.1828 -2.0750 -1.7670
  439SOL    HW2 1317   2.553   1.373   2.332 -2.5416 -2.3206 -0.1955
  440SOL     OW 1318   2.929   0.740   2.818 -0.0716  0.4733 -0.1068
  440SOL    HW1 1319   2.960   0.770   2.725 -1.4218  1.3022  1.8824
  440SOL    HW2 1320   2.923   0.636   2.829  1.9941 -0.1538  0.0053
  441SOL     OW 1321   1.232   2.222   1.554  0.3560  0.3694 -0.2607
  441SOL    HW1 1322   1.174   2.168   1.491  0.6321  0.2655  0.5060
  441SOL    HW2 1323   1.174   2.251   1.631 -0.0105  2.1544 -1.0815
  442SOL     OW 1324   2.011   1.350   1.040 -0.5400  0.1791 -0.4712
  442SOL    HW1 1325   2.011   1.277   1.111 -0.7711 -0.7263  0.9385
  442SOL    HW2 1326   2.006   1.302   0.951 -0.4750  1.0678 -1.3475
  443SOL     OW 1327   2.481   2.173   2.971 -0.2220 -0.0050  0.0503
  443SOL    HW1 1328   2.568   2.153   3.016  1.3443 -0.6694 -0.9097
  443SOL    HW2 1329   2.446   2.266   2.992 -3.0275 -0.3890 -0.4874
  444SOL     OW 1330   1.963   1.612   2.545 -0.2136 -0.4456 -0.1155
  444SOL    HW1 1331   2.064   1.614   2.524 -1.6210  2.0144 -0.7327
  444SOL    HW2 1332   1.946   1.652   2.637 -0.7136  1.9067  1.3466
  445SOL     OW 1333   0.046   2.222   2.130  0.1732 -0.0641 -0.1875
  445SOL    HW1 1334   0.032   2.187   2.035  3.0189  0.1998 -0.5709
  445SOL    HW2 1335   0.032   2.323   2.135 -0.1811 -0.3739  3.1721
  446SOL     OW 1336   1.164   0.937   1.697 -0.5607  0.3191  0.0554
  446SOL    HW1 1337   1.242   0.917   1.761  2.2809 -1.8221  0.4282
  446SOL    HW2 1338   1.081   0.909   1.746  3.7131  0.3409 -1.3825
  447SOL     OW 1339   1.027   1.194   0.674  0.3906 -0.3655 -0.1920
  447SOL    HW1 1340   1.060   1.113   0.627  1.6149  2.4114  0.4338
  447SOL    HW2 1341   1.032   1.279   0.618  0.0328  0.6339  0.0780
  448SOL     OW 1342   0.731   1.079   2.706  0.2653  0.0079  0.1084
  448SOL    HW1 1343   0.768   1.163   2.662  3.3337  0.0879 -1.4730
  448SOL    HW2 1344   0.630   1.073   2.686 -0.7341  0.9831 -0.7683
  449SOL     OW 1345   0.017   1.960   2.596 -0.0481  0.2728  0.1528
  449SOL    HW1 1346   0.006   2.039   2.528 -3.0425  0.5675  1.5612
  449SOL    HW2 1347   0.042   1.871   2.549 -0.8607  0.5724 -0.0396
  450SOL     OW 1348   2.212   1.528   2.100  0.0438  0.2253 -0.0286
  450SOL    HW1 1349   2.278   1.448   2.114  0.7679  0.8393  0.2312
  450SOL    HW2 1350   2.269   1.613   2.119  0.5620 -0.3611  1.6121
  451SOL     OW 1351   2.689   1.516   1.502 -0.1972  0.0708  0.1158
  451SOL    HW1 1352   2.698   1.616   1.491 -1.3608  0.5851  0.0810
  451SOL    HW2 1353   2.768   1.467   1.453 -0.0006 -1.0593 -0.7231
  452SOL     OW 1354   0.852   1.197   1.362 -0.1777  0.0948  0.1534
  452SOL    HW1 1355   0.842   1.099   1.338 -0.4668 -0.0424 -1.3427
  452SOL    HW2 1356   0.903   1.213   1.450  1.9987 -0.8094  0.1997
  453SOL     OW 1357   0.643   1.683   0.742 -0.0827  0.3360 -0.0930
  453SOL    HW1 1358   0.720   1.617   0.718  0.2259 -1.5099 -1.2760
  453SOL    HW2 1359   0.550   1.634   0.732 -1.8846 -0.7176  2.5550
  454SOL     OW 1360   1.093   1.815   0.268  0.8841 -0.1210 -0.1415
  454SOL    HW1 1361   1.155   1.759   0.215  1.1056  2.7482 -2.4046
  454SOL    HW2 1362   1.016   1.766   0.312 -0.0848  0.6951 -0.6493
  455SOL     OW 1363   1.705   0.634   1.036 -0.7141 -0.2325 -0.3341
  455SOL    HW1 1364   1.777   0.629   1.111  3.5031  0.3927 -2.2912
  455SOL    HW2 1365   1.642   0.711   1.052  0.0322 -0.9613 -1.7003
  456SOL     OW 1366   1.853   2.955   0.892 -0.4065  0.2563 -0.5944
  456SOL    HW1 1367   1.755   2.947   0.909 -1.4307 -0.3974  0.4880
  456SOL    HW2 1368   1.882   2.883   0.829 -1.7688  0.5280 -2.5283
  457SOL     OW 1369   1.999   0.604   2.751  0.1940 -0.2213  0.1486
  457SOL    HW1 1370   1.909   0.611   2.800 -2.2562 -0.3493 -1.9749
  457SOL    HW2 1371   2.052   0.518   2.761 -1.1094 -1.6333 -1.1858
  458SOL     OW 1372   2.749   0.749   2.484 -0.0746 -0.1478  0.7171
  458SOL    HW1 1373   2.675   0.814   2.465 -1.1053 -0.0975 -1.5800
  458SOL    HW2 1374   2.716   0.696   2.557  0.1011  1.0683  0.3899
  459SOL     OW 1375   2.582   1.323   2.018  0.5492 -0.8394 -0.2852
  459SOL    HW1 1376   2.672   1.286   1.988  1.5507 -2.8628 -1.6904
  459SOL    HW2 1377   2.587   1.382   2.103  2.7983  0.8837 -0.7501
  460SOL     OW 1378   0.732   0.753   0.092  0.2603 -0.3260 -0.1347
  460SOL    HW1 1379   0.702   0.850   0.102 -2.7052  0.6089  0.1352
  460SOL    HW2 1380   0.832   0.749   0.107 -1.6032 -1.5576  1.6936
  461SOL     OW 1381   0.250   2.337   3.067 -0.0861  0.2396  0.1781
  461SOL    HW1 1382   0.154   2.376   3.078 -0.3492  0.1314 -0.3055
  461SOL    HW2 1383   0.271   2.272   0.034  0.2216  3.0549  1.5761
  462SOL     OW 1384   0.533   2.936   1.916  0.1448 -0.3175 -0.1630
  462SOL    HW1 1385   0.435   2.966   1.907  1.6934 -0.5482 -0.7185
  462SOL    HW2 1386   0.581   2.973   1.998  3.0566  0.5004 -2.5330
  463SOL     OW 1387   1.526   2.323   2.262  0.0678  0.8841  0.0971
  463SOL    HW1 1388   1.609   2.259   2.257  0.7176  0.3002  1.5709
  463SOL    HW2 1389   1.517   2.386   2.185 -0.7505  1.3703  2.4943
  464SOL     OW 1390   2.607   2.591   1.187 -0.0073 -0.8108 -0.2879
  464SOL    HW1 1391   2.681   2.649   1.229 -3.3711 -2.8455  0.8627
  464SOL    HW2 1392   2.570   2.634   1.103 -0.5214 -1.3568  0.4371
  465SOL     OW 1393   0.258   0.037   1.507  0.3914  0.7233 -0.1726
  465SOL    HW1 1394   0.166   0.070   1.508  2.0544 -1.2840  1.5131
  465SOL    HW2 1395   0.299   0.023   1.603  3.2854  0.0018  2.5135
  466SOL     OW 1396   1.105   2.362   2.390  0.0657 -0.1536  0.4681
  466SOL    HW1 1397   1.188   2.412   2.366 -1.8698 -1.7327  0.3302
  466SOL    HW2 1398   1.114   2.304   2.472 -0.4799  2.5030 -0.6347
  467SOL     OW 1399   2.964   2.210   0.439 -0.4233  0.4530  0.1301
  467SOL    HW1 1400   2.926   2.280   0.373  0.0647 -2.1436  0.7945
  467SOL    HW2 1401   2.954   2.117   0.406  0.1994 -0.1348  1.8526
  468SOL     OW 1402   1.991   1.886   3.038 -0.5778  0.9088  0.0593
  468SOL    HW1 1403   1.984   1.816   2.963  0.5913 -2.6252  0.8675
  468SOL    HW2 1404   2.090   1.906   3.065 -2.0055 -0.0407  1.9642
  469SOL     OW 1405   1.090   2.116   0.685  0.4410  0.0465  0.4885
  469SOL    HW1 1406   1.073   2.103   0.781 -1.0045  0.1797 -2.6878
  469SOL    HW2 1407   1.192   2.136   0.666 -0.4110 -0.5279 -0.3533
  470SOL     OW 1408   1.972   0.909   1.052  0.2573  0.0594  0.1732
  470SOL    HW1 1409   1.880   0.952   1.040  0.8815  2.6523  1.0640
  470SOL    HW2 1410   2.010   0.868   0.967  0.3248 -0.5866  0.1882
  471SOL     OW 1411   0.596   2.194   0.078 -0.0625 -0.4606  0.2226
  471SOL    HW1 1412   0.599   2.243   0.170  0.7389  0.6197 -1.0889
  471SOL    HW2 1413   0.542   2.105   0.085 -0.7309  2.0652 -1.5269
  472SOL     OW 1414   2.519   1.598   2.759 -0.0993  0.2559 -0.2283
  472SOL    HW1 1415   2.544   1.674   2.692  1.2555  5.1847  0.0511
  472SOL    HW2 1416   2.449   1.539   2.714  0.8342 -0.8394  0.3505
  473SOL     OW 1417   1.375   2.044   0.808  0.2881 -0.1362  0.2364
  473SOL    HW1 1418   1.374   2.105   0.727 -1.4438 -1.3077 -1.5738
  473SOL    HW2 1419   1.421   2.091   0.888  0.8090  0.0980 -1.6902
  474SOL     OW 1420   2.831   0.272   0.882  0.6134 -0.0008 -0.0588
  474SOL    HW1 1421   2.906   0.217   0.846 -1.3226  0.7920  1.0921
  474SOL    HW2 1422   2.827   0.368   0.851 -0.1667  0.3592  0.3513
  475SOL     OW 1423   2.335   2.780   1.483  0.4573 -0.0317  0.1037
  475SOL    HW1 1424   2.273   2.752   1.562 -1.0573  0.5701  1.7628
  475SOL    HW2 1425   2.287   2.765   1.395  2.6068  2.5482  1.9944
  476SOL     OW 1426   0.571   0.425   0.723  0.4534 -0.1900  0.6978
  476SOL    HW1 1427   0.562   0.362   0.642 -1.9703 -2.2241 -1.6898
  476SOL    HW2 1428   0.670   0.426   0.744  0.0492 -0.7990  1.9178
  477SOL     OW 1429   1.260   2.306   1.267  0.0724  0.1481  0.1888
  477SOL    HW1 1430   1.227   2.397   1.299 -2.3018 -2.6225  0.1641
  477SOL    HW2 1431   1.222   2.236   1.323  2.6845  1.7501 -0.9167
  478SOL     OW 1432   1.155   2.517   2.844 -0.6174 -0.7063  0.8418
  478SOL    HW1 1433   1.082   2.552   2.783  0.1700 -1.0179  0.5553
  478SOL    HW2 1434   1.224   2.462   2.789 -0.6084 -3.9247  0.5764
  479SOL     OW 1435   2.770   0.994   1.857 -0.4004 -0.3873 -0.1957
  479SOL    HW1 1436   2.777   1.093   1.874 -0.1995 -0.8668  0.9840
  479SOL    HW2 1437   2.836   0.934   1.911 -1.3508 -0.3712 -1.2322
  480SOL     OW 1438   2.868   2.263   2.799  0.4308  0.0538  0.1872
  480SOL    HW1 1439   2.955   2.297   2.759  0.4797  0.4953  2.6487
  480SOL    HW2 1440   2.810   2.342   2.827 -2.9204  0.8307 -1.0259
  481SOL     OW 1441   1.618   0.152   1.981  0.0009  0.6636 -0.8534
  481SOL    HW1 1442   1.710   0.141   2.030  1.5944 -1.6285 -1.1231
  481SOL    HW2 1443   1.579   0.236   2.019  1.3177 -1.6545  0.7702
  482SOL     OW 1444   1.548   2.219   2.856 -0.0479 -0.2503  0.0307
  482SOL    HW1 1445   1.622   2.276   2.897 -0.7907 -1.8228  0.0460
  482SOL    HW2 1446   1.584   2.159   2.784 -0.2511 -0.3415 -0.4131
  483SOL     OW 1447   0.960   2.578   2.672 -0.1209 -0.0630 -0.4489
  483SOL    HW1 1448   0.867   2.540   2.671  2.0949 -0.9055 -0.2935
  483SOL    HW2 1449   0.996   2.594   2.578  0.2848  2.5509 -1.7233
  484SOL     OW 1450   3.071   2.824   1.546 -0.1979 -0.0966 -0.0320
  484SOL    HW1 1451   3.051   2.728   1.535 -0.0508 -0.1755 -1.3533
  484SOL    HW2 1452   0.039   2.852   1.487 -1.4048  0.0997  0.9683
  485SOL     OW 1453   2.246   0.693   0.402  0.0348  0.2475 -0.1371
  485SOL    HW1 1454   2.155   0.685   0.359  0.4565  1.5740 -1.3446
  485SOL    HW2 1455   2.278   0.792   0.404  1.5005  2.9892  0.0067
  486SOL     OW 1456   2.331   2.734   2.293 -0.1009  0.0027 -0.0041
  486SOL    HW1 1457   2.371   2.826   2.264  0.2621  1.4632  0.3651
  486SOL    HW2 1458   2.240   2.720   2.247  0.0744  1.1812  3.3333
  487SOL     OW 1459   1.251   0.703   0.722  0.2224  0.1412  0.1402
  487SOL    HW1 1460   1.229   0.783   0.668 -0.2158  0.1781  1.1859
  487SOL    HW2 1461   1.283   0.626   0.664  2.1203  2.7481  0.5707
  488SOL     OW 1462   2.622   2.886   2.618 -0.3454  0.2370  0.0601
  488SOL    HW1 1463   2.589   2.818   2.558  0.7581  1.5244  4.0918
  488SOL    HW2 1464   2.552   2.908   2.687  0.1064  0.2278 -0.0034
  489SOL     OW 1465   1.718   3.080   0.298  0.0969  0.4184  0.4715
  489SOL    HW1 1466   1.661   2.993   0.292 -2.9023 -1.4311 -2.1679
  489SOL    HW2 1467   1.794   3.064   0.363 -1.1092  0.0307 -2.0693
  490SOL     OW 1468   1.776   0.364   2.936  0.5005  0.2485  0.3147
  490SOL    HW1 1469   1.774   0.410   3.029 -0.4136 -0.3781 -0.1016
  490SOL    HW2 1470   1.782   0.426   2.858 -1.6411  1.6141 -2.7491
  491SOL     OW 1471   0.621   2.908   1.184  0.3166  0.1805  0.0158
  491SOL    HW1 1472   0.548   2.857   1.137  0.2746 -0.7535  0.3934
  491SOL    HW2 1473   0.581   2.990   1.232  0.2261 -1.7578 -1.3043
  492SOL     OW 1474   1.559   2.891   0.918 -0.7120  0.4810  0.0365
  492SOL    HW1 1475   1.584   2.795   0.938  0.5866 -0.8630 -0.9181
  492SOL    HW2 1476   1.523   2.904   0.829  2.6556  0.0217  0.8293
  493SOL     OW 1477   1.094   2.291   2.970  0.0435  0.7169  0.1117
  493SOL    HW1 1478   1.133   2.378   2.931 -1.8714 -0.0510 -1.6001
  493SOL    HW2 1479   1.099   2.278   3.070  1.2208 -0.6019 -1.7549
  494SOL     OW 1480   0.806   1.089   0.809 -0.0913 -0.0576 -0.0605
  494SOL    HW1 1481   0.776   1.177   0.852  1.8684 -1.0713 -1.9529
  494SOL    HW2 1482   0.891   1.120   0.766  1.1631 -0.5839  1.0347
  495SOL     OW 1483   2.676   0.426   1.548 -0.0408 -0.2703  0.0971
  495SOL    HW1 1484   2.741   0.349   1.560  1.4289 -1.2229 -0.4937
  495SOL    HW2 1485   2.715   0.514   1.580 -0.2907 -0.3791  0.7426
  496SOL     OW 1486   2.190   2.548   2.493  0.1442  0.4377  0.7278
  496SOL    HW1 1487   2.232   2.637   2.459 -0.5288  1.4952 -0.0296
  496SOL    HW2 1488   2.104   2.534   2.443 -0.3373  1.0039  0.5129
  497SOL     OW 1489   1.747   1.356   2.765 -0.2139  0.2360 -0.1473
  497SOL    HW1 1490   1.823   1.335   2.704 -2.2415  0.5288  2.1274
  497SOL    HW2 1491   1.777   1.434   2.820 -0.6665  0.0345 -0.1055
  498SOL     OW 1492   0.903   2.189   1.046  0.0801 -0.6521  0.0877
  498SOL    HW1 1493   0.997   2.221   1.067  1.8790  0.3728  0.4770
  498SOL    HW2 1494   0.870   2.117   1.105 -0.2591 -0.4435 -0.6070
  499SOL     OW 1495   0.276   1.760   0.898  0.3312 -0.3341  0.2105
  499SOL    HW1 1496   0.263   1.831   0.820 -0.9714 -1.1412 -2.7722
  499SOL    HW2 1497   0.369   1.764   0.943  0.7719 -0.1971  0.9643
  500SOL     OW 1498   1.243   2.684   0.284 -0.6820 -0.1197 -0.3826
  500SOL    HW1 1499   1.149   2.724   0.278  1.2064 -0.1187 -0.1934
  500SOL    HW2 1500   1.305   2.725   0.358 -0.7422  1.2326  0.8774
  501SOL     OW 1501   1.905   2.750   0.703  0.0282  0.2261  0.2996
  501SOL    HW1 1502   1.844   2.710   0.771  1.9542  1.6066 -2.7451
  501SOL    HW2 1503   1.878   2.719   0.609 -1.9717 -2.4110 -3.0264
  502SOL     OW 1504   0.176   0.394   1.065  0.2962 -0.1655  0.5760
  502SOL    HW1 1505   0.133   0.309   1.102 -1.4841 -4.8597 -1.8499
  502SOL    HW2 1506   0.264   0.367   1.024  1.3973 -1.4982  0.3563
  503SOL     OW 1507   2.046   3.007   1.709 -0.3435 -0.6328 -0.6142
  503SOL    HW1 1508   2.026   3.087   1.767 -1.5338 -1.6673  1.3081
  503SOL    HW2 1509   2.140   3.012   1.677 -1.8764  0.1845 -0.2648
  504SOL     OW 1510   1.952   1.024   1.967  0.0715 -0.3894 -0.2730
  504SOL    HW1 1511   1.996   0.950   1.910 -1.7808 -0.6638  1.7032
  504SOL    HW2 1512   1.849   1.019   1.970  0.9093  2.0968  2.0307
  505SOL     OW 1513   1.622   2.893   2.491 -0.4215  0.0221  0.0275
  505SOL    HW1 1514   1.706   2.915   2.545  0.1215 -0.5456 -2.3473
  505SOL    HW2 1515   1.604   2.973   2.431 -0.5580 -2.0162 -0.7277
  506SOL     OW 1516   0.431   0.694   1.630  0.5389 -0.2443 -0.1960
  506SOL    HW1 1517   0.331   0.685   1.650 -0.9798 -2.0717 -0.1824
  506SOL    HW2 1518   0.441   0.757   1.553  2.6081 -0.3277 -0.2361
  507SOL     OW 1519   1.788   0.474   0.093  0.2972  0.0420  0.2332
  507SOL    HW1 1520   1.750   0.391   0.133  1.0739  0.1016 -0.6464
  507SOL    HW2 1521   1.869   0.508   0.143 -0.9985 -0.7546 -0.9307
  508SOL     OW 1522   2.185   0.705   2.098  0.4648  0.5140  0.0509
  508SOL    HW1 1523   2.098   0.655   2.115 -2.2905  0.5695  1.5047
  508SOL    HW2 1524   2.178   0.767   2.016 -1.3796  2.4367 -0.7183
  509SOL     OW 1525   0.694   1.821   2.639  0.2019  0.1180 -0.2057
  509SOL    HW1 1526   0.607   1.865   2.666  0.4614  0.0250 -3.0564
  509SOL    HW2 1527   0.749   1.878   2.579  1.0389 -1.5486  1.7900
  510SOL     OW 1528   2.954   0.864   0.702  0.2658 -0.1971  0.1735
  510SOL    HW1 1529   2.957   0.809   0.612  0.7489  1.2910  0.0276
  510SOL    HW2 1530   2.975   0.808   0.786  0.5761  3.2011  0.4488
  511SOL     OW 1531   1.820   1.512   1.252  0.0670  0.3111  0.6687
  511SOL    HW1 1532   1.888   1.566   1.303  2.4992 -2.1326 -2.2613
  511SOL    HW2 1533   1.859   1.481   1.161 -0.7790 -2.3500  0.9743
  512SOL     OW 1534   0.505   1.939   0.524 -0.8267  0.0192 -0.2150
  512SOL    HW1 1535   0.474   2.037   0.499  2.1381  2.3566 -1.7312
  512SOL    HW2 1536   0.588   1.918   0.471 -0.2272 -0.1278  1.6236
  513SOL     OW 1537   0.513   2.504   0.876  0.0504  0.0297 -0.0883
  513SOL    HW1 1538   0.528   2.591   0.924 -0.6887 -0.4058 -1.6566
  513SOL    HW2 1539   0.590   2.440   0.893  0.7427  1.1919 -0.3834
  514SOL     OW 1540   0.661   2.189   0.654  0.2102  0.5999 -0.2918
  514SOL    HW1 1541   0.695   2.105   0.701 -0.6114  1.2022  0.6980
  514SOL    HW2 1542   0.705   2.210   0.566  0.9324 -0.6698  2.6961
  515SOL     OW 1543   0.137   3.079   0.096  0.5593  0.1478  0.3473
  515SOL    HW1 1544   0.235   3.050   0.117  1.9711 -1.0994  1.0314
  515SOL    HW2 1545   0.075   3.086   0.175 -0.5087  1.0824 -1.5487
  516SOL     OW 1546   1.952   0.097   1.366  0.1657 -0.0939 -0.1309
  516SOL    HW1 1547   1.925   0.198   1.369  0.4004  0.8827 -1.9892
  516SOL    HW2 1548   1.949   0.064   1.267 -0.7154  2.4087  0.0120
  517SOL     OW 1549   1.625   1.888   0.717 -0.4372  0.1501  0.2707
  517SOL    HW1 1550   1.568   1.944   0.781  0.2442 -1.6182  1.6096
  517SOL    HW2 1551   1.725   1.910   0.717  3.1954  0.3599 -0.8837
  518SOL     OW 1552   1.430   3.006   1.117  0.1100  0.4566  0.1335
  518SOL    HW1 1553   1.342   2.994   1.070  1.8739 -0.0830 -2.4222
  518SOL    HW2 1554   1.505   2.970   1.054  2.3959  2.5300 -1.7198
  519SOL     OW 1555   2.948   2.280   3.088 -0.2926  0.1092 -0.1425
  519SOL    HW1 1556   3.027   2.348   3.078 -0.8830  3.6785 -1.5492
  519SOL    HW2 1557   2.915   2.266   2.996  2.2976 -1.0712  1.4564
  520SOL     OW 1558   1.779   2.281   2.508 -0.6285  0.5575 -0.5607
  520SOL    HW1 1559   1.874   2.271   2.548  1.3952  1.0439  0.5226
  520SOL    HW2 1560   1.778   2.239   2.415 -1.4632 -1.8318  1.6442
  521SOL     OW 1561   0.908   2.853   2.135  0.3716  0.3095  0.1138
  521SOL    HW1 1562   0.833   2.909   2.103  0.8880  0.4655 -0.5633
  521SOL    HW2 1563   0.894   2.833   2.237 -2.5512  0.2469 -0.0377
  522SOL     OW 1564   0.359   2.583   2.025  0.1124 -0.8603  0.8902
  522SOL    HW1 1565   0.294   2.590   1.950  1.5668 -0.5850  3.2202
  522SOL    HW2 1566   0.329   2.634   2.110 -0.1138  1.5353  2.2268
  523SOL     OW 1567   1.078   2.266   1.823 -0.3275 -0.1832 -0.0466
  523SOL    HW1 1568   0.982   2.250   1.834  1.9581  3.5313  1.9110
  523SOL    HW2 1569   1.139   2.201   1.873  1.0246  0.4758  1.0189
  524SOL     OW 1570   2.414   2.305   0.177 -0.0513 -0.4686  0.1507
  524SOL    HW1 1571   2.416   2.207   0.145  2.3726 -0.3761  0.5811
  524SOL    HW2 1572   2.484   2.310   0.254  0.1267 -0.3188  2.3443
  525SOL     OW 1573   2.712   0.808   2.985  0.0937  0.3874 -0.0571
  525SOL    HW1 1574   2.745   0.847   3.076 -0.1878  3.1651  1.3786
  525SOL    HW2 1575   2.793   0.789   2.924 -0.9863  2.6473 -0.9100
  526SOL     OW 1576   0.285   2.957   0.859 -0.0123  0.2260 -0.2260
  526SOL    HW1 1577   0.279   2.953   0.755 -1.3490 -1.3384  1.5009
  526SOL    HW2 1578   0.336   3.042   0.888 -0.5552  0.9674  0.7688
  527SOL     OW 1579   3.056   1.296   0.770  0.0265  0.4487  0.5437
  527SOL    HW1 1580   3.085   1.219   0.715 -1.5674  0.3584  1.2789
  527SOL    HW2 1581   2.963   1.335   0.741 -0.0533  2.4558  0.8121
  528SOL     OW 1582   0.738   0.772   2.373 -0.1509 -0.4443 -0.0714
  528SOL    HW1 1583   0.702   0.696   2.428  2.0147  0.3965  1.3774
  528SOL    HW2 1584   0.800   0.830   2.430 -2.6237  1.0634 -0.7624
  529SOL     OW 1585   0.920   1.538   0.175 -0.1694  0.0796 -0.3041
  529SOL    HW1 1586   0.918   1.608   0.245  2.4078 -1.7487  0.3196
  529SOL    HW2 1587   0.865   1.457   0.206 -0.7143 -0.6760  1.5129
  530SOL     OW 1588   1.130   0.997   2.066  0.1847  0.2525  0.0522
  530SOL    HW1 1589   1.198   0.956   1.995 -0.3230 -1.3181 -1.3664
  530SOL    HW2 1590   1.133   0.956   2.159 -1.5476  0.2704 -1.2093
  531SOL     OW 1591   0.971   2.276   0.110 -0.7773 -0.3061  0.0412
  531SOL    HW1 1592   0.959   2.186   0.162 -1.6297 -0.0837  2.8303
  531SOL    HW2 1593   1.018   2.350   0.167  1.8040 -1.1319  0.8410
  532SOL     OW 1594   2.472   0.876   2.444 -0.4252  0.2439 -0.0204
  532SOL    HW1 1595   2.495   0.964   2.396 -3.3086 -3.4101 -0.0240
  532SOL    HW2 1596   2.479   0.901   2.543 -0.0752  2.1954  0.3522
  533SOL     OW 1597   2.976   0.149   1.970 -0.3629  0.2395 -0.0675
  533SOL    HW1 1598   2.929   0.132   2.060 -0.0654 -3.8666  0.0915
  533SOL    HW2 1599   2.975   0.246   1.947  4.6234 -1.5652  1.9528
  534SOL     OW 1600   2.375   0.109   0.329 -0.0297 -0.0801  0.2560
  534SOL    HW1 1601   2.461   0.160   0.351  0.0179  2.1689 -0.4446
  534SOL    HW2 1602   2.300   0.181   0.330  1.0023  0.3615 -0.7898
  535SOL     OW 1603   0.381   0.249   3.098 -0.1091 -0.4689  0.1305
  535SOL    HW1 1604   0.362   0.326   0.049  0.6215 -2.5987  3.3353
  535SOL    HW2 1605   0.301   0.223   3.034 -1.1007  0.2529 -3.3772
  536SOL     OW 1606   0.774   1.874   1.782 -0.0687 -0.1100 -0.9988
  536SOL    HW1 1607   0.846   1.870   1.853 -0.7915 -0.4429  0.0312
  536SOL    HW2 1608   0.726   1.963   1.789 -1.5584 -2.8472 -0.1283
  537SOL     OW 1609   3.002   2.551   1.603 -0.5179  0.0898  0.1066
  537SOL    HW1 1610   2.935   2.582   1.674  1.2634  0.5883 -0.8490
  537SOL    HW2 1611   3.065   2.476   1.637 -0.0929  1.6935 -0.0255
  538SOL     OW 1612   0.562   2.349   0.306  0.0063 -0.1619 -0.0681
  538SOL    HW1 1613   0.649   2.318   0.354 -0.2342  2.9152  0.3011
  538SOL    HW2 1614   0.485   2.307   0.354  1.8763  0.5202 -0.3859
  539SOL     OW 1615   2.142   1.092   2.326  0.0540 -0.7882  0.5181
  539SOL    HW1 1616   2.086   1.056   2.401  0.3915  3.9859 -2.7758
  539SOL    HW2 1617   2.181   1.014   2.275 -0.0830 -1.1215  1.1948
  540SOL     OW 1618   1.809   0.885   2.973  0.0643  0.2025  0.2389
  540SOL    HW1 1619   1.906   0.854   2.966 -0.2551 -0.3119  0.9362
  540SOL    HW2 1620   1.779   0.926   2.882 -1.0310  1.0062 -0.0468
  541SOL     OW 1621   0.624   0.593   2.578 -0.0673 -0.5133 -0.2509
  541SOL    HW1 1622   0.546   0.557   2.524 -0.3093 -1.2912  1.0170
  541SOL    HW2 1623   0.588   0.634   2.667  1.0688 -0.1475  0.8296
  542SOL     OW 1624   1.475   2.441   2.015  0.2598 -0.0475 -0.0405
  542SOL    HW1 1625   1.373   2.436   2.000 -3.1098  1.9652  0.4520
  542SOL    HW2 1626   1.526   2.414   1.931 -0.1079  0.8242  0.2131
  543SOL     OW 1627   0.720   2.781   0.224  0.3601 -0.0208 -0.5161
  543SOL    HW1 1628   0.657   2.703   0.208 -1.8207 -0.5409  0.5868
  543SOL    HW2 1629   0.676   2.840   0.296 -1.6608 -0.5500 -0.7720
  544SOL     OW 1630   2.713   1.883   2.368 -0.1424  0.3516  0.0810
  544SOL    HW1 1631   2.671   1.968   2.341  2.3756 -0.0929  1.1309
  544SOL    HW2 1632   2.815   1.892   2.350  2.3482  0.8698 -0.7173
  545SOL     OW 1633   1.258   1.547   2.009  0.4339 -0.2689 -0.0693
  545SOL    HW1 1634   1.231   1.507   2.103  0.2785  1.3603  2.5206
  545SOL    HW2 1635   1.176   1.593   1.962 -2.9827  2.8402 -1.0125
  546SOL     OW 1636   0.072   0.184   2.509  0.6683  0.6208  0.5865
  546SOL    HW1 1637   0.117   0.271   2.472  1.8269 -1.1337 -0.0048
  546SOL    HW2 1638   0.072   0.108   2.444 -0.2733  0.8818 -1.2723
  547SOL     OW 1639   1.354   0.244   0.818  0.1345 -0.2735  0.3003
  547SOL    HW1 1640   1.346   0.340   0.854 -2.0205  2.0913 -0.8042
  547SOL    HW2 1641   1.450   0.234   0.787 -1.0510  0.7517 -1.0650
  548SOL     OW 1642   1.421   2.065   3.011  0.1707 -0.1391 -0.3245
  548SOL    HW1 1643   1.455   2.098   3.104  0.7623 -2.7890  2.3523
  548SOL    HW2 1644   1.473   2.112   2.934  1.0217 -1.9335  0.3968
  549SOL     OW 1645   2.314   0.889   0.136 -0.4177 -0.2221 -0.4047
  549SOL    HW1 1646   2.237   0.958   0.135  0.0074 -0.3388  0.2422
  549SOL    HW2 1647   2.406   0.933   0.129  2.5948 -0.6295 -1.7448
  550SOL     OW 1648   2.615   2.057   0.687 -0.3993 -0.0945  0.5359
  550SOL    HW1 1649   2.631   2.156   0.703 -0.8960 -0.4027 -1.5127
  550SOL    HW2 1650   2.553   2.023   0.761 -0.1089  1.3446 -0.1881
  551SOL     OW 1651   0.813   0.498   1.255  0.0660  0.2224 -0.0086
  551SOL    HW1 1652   0.863   0.458   1.175  1.2573 -0.8036 -0.0439
  551SOL    HW2 1653   0.874   0.504   1.336 -0.8540  2.3210 -1.5373
  552SOL     OW 1654   3.038   1.546   2.736 -0.2628  0.5598  0.3206
  552SOL    HW1 1655   0.031   1.527   2.721  1.5729  1.2701  0.8974
  552SOL    HW2 1656   3.018   1.559   2.837 -1.8359 -2.2583 -0.6493
  553SOL     OW 1657   2.591   2.561   0.522  0.6548  0.8822  0.2522
  553SOL    HW1 1658   2.665   2.540   0.591 -2.4370 -1.3091  0.0915
  553SOL    HW2 1659   2.569   2.660   0.506 -1.3977  0.0022 -0.8537
  554SOL     OW 1660   2.116   1.097   1.674 -0.0801  0.2242 -0.1922
  554SOL    HW1 1661   2.086   1.135   1.586  0.4894  0.0594  1.1793
  554SOL    HW2 1662   2.127   1.171   1.740  2.2692  0.8151  0.0712
  555SOL     OW 1663   1.089   2.203   2.181  0.0085  0.0214  0.1346
  555SOL    HW1 1664   1.174   2.187   2.131  1.4085 -0.3268 -0.2382
  555SOL    HW2 1665   1.100   2.270   2.257  0.3941  0.3963  0.0683
  556SOL     OW 1666   1.045   1.215   1.916  0.2017  0.4309  0.4557
  556SOL    HW1 1667   1.127   1.252   1.866  0.4045 -1.6536 -0.8607
  556SOL    HW2 1668   1.068   1.137   1.982  0.8418  0.8320 -2.9967
  557SOL     OW 1669   1.324   0.192   1.338  0.0497  0.0015 -0.1005
  557SOL    HW1 1670   1.393   0.262   1.350 -0.3271 -0.8300 -0.7862
  557SOL    HW2 1671   1.248   0.222   1.270  0.4870  1.2054 -3.5978
  558SOL     OW 1672   0.736   0.203   2.196 -0.5217 -0.1431 -0.2040
  558SOL    HW1 1673   0.780   0.212   2.287 -1.4067 -1.0642 -3.6433
  558SOL    HW2 1674   0.799   0.235   2.122 -3.1155 -3.1345  1.1453
  559SOL     OW 1675   1.564   2.849   0.294  0.4338  0.9846 -0.2294
  559SOL    HW1 1676   1.550   2.782   0.212  0.4378 -2.2869 -1.8032
  559SOL    HW2 1677   1.613   2.801   0.368 -0.9269 -0.4146  3.1876
  560SOL     OW 1678   1.519   2.167   0.152 -0.5106  0.2067 -0.2214
  560SOL    HW1 1679   1.588   2.104   0.188  0.8923  4.1572 -2.3027
  560SOL    HW2 1680   1.563   2.256   0.144  1.4597  3.4844  0.0715
  561SOL     OW 1681   1.626   0.240   0.745  0.7685 -0.0582 -0.2494
  561SOL    HW1 1682   1.696   0.188   0.793 -0.7792  0.5262 -0.5755
  561SOL    HW2 1683   1.649   0.232   0.647 -1.4917 -0.8096 -1.1821
  562SOL     OW 1684   0.460   0.963   2.029  0.2550  0.1123 -0.7791
  562SOL    HW1 1685   0.519   0.988   1.951  1.8225 -1.8506  1.0589
  562SOL    HW2 1686   0.517   0.936   2.107 -3.4135  0.2100 -0.0770
  563SOL     OW 1687   1.338   2.338   2.717 -0.0789 -0.1347  0.2985
  563SOL    HW1 1688   1.276   2.264   2.688 -1.1227 -2.8308  1.3354
  563SOL    HW2 1689   1.407   2.295   2.788  1.0586 -0.4603  2.1125
  564SOL     OW 1690   2.870   0.630   1.060 -0.2511  0.3007  0.1173
  564SOL    HW1 1691   2.902   0.594   1.150  0.2925  0.3269 -1.2468
  564SOL    HW2 1692   2.950   0.671   1.007  0.7060 -3.5531 -0.6468
  565SOL     OW 1693   1.142   1.126   0.129 -0.7208 -0.8542 -0.4759
  565SOL    HW1 1694   1.134   1.222   0.090  1.7304  3.1718 -1.0588
  565SOL    HW2 1695   1.238   1.095   0.136  1.3234  0.5777 -1.2048
  566SOL     OW 1696   2.215   2.700   0.001  0.1161  0.0243 -0.2985
  566SOL    HW1 1697   2.317   2.692   0.022  3.2695  1.7864  3.4537
  566SOL    HW2 1698   2.194   2.799   3.094 -1.7242  2.6020  0.0783
  567SOL     OW 1699   1.481   1.022   1.377  1.2517 -0.2449  0.1811
  567SOL    HW1 1700   1.423   1.105   1.359  1.0824 -0.5777 -0.7490
  567SOL    HW2 1701   1.449   0.979   1.463  0.0902  0.0055 -0.3817
  568SOL     OW 1702   1.524   1.340   2.586  0.1378 -0.3537  0.3400
  568SOL    HW1 1703   1.432   1.375   2.605  0.8625  1.4264 -2.7316
  568SOL    HW2 1704   1.584   1.362   2.669  0.4610 -2.4027  1.1669
  569SOL     OW 1705   2.027   1.741   0.758  0.0813  0.2483  0.0288
  569SOL    HW1 1706   2.121   1.780   0.771  0.6137  3.3876  0.7058
  569SOL    HW2 1707   1.961   1.815   0.758  0.1701 -2.0755  1.6252
  570SOL     OW 1708   2.618   2.142   2.302 -0.4018 -0.1414 -0.1387
  570SOL    HW1 1709   2.692   2.158   2.233 -0.8111 -1.2430 -2.0027
  570SOL    HW2 1710   2.596   2.230   2.351 -0.3684 -0.2539  1.2654
  571SOL     OW 1711   2.526   1.775   1.652 -0.1646 -0.0739 -0.2448
  571SOL    HW1 1712   2.521   1.874   1.663  0.9758  0.5120  0.6389
  571SOL    HW2 1713   2.481   1.748   1.563 -2.4885  2.0862 -1.7440
  572SOL     OW 1714   1.418   2.656   0.085 -0.3106 -0.3370  0.7835
  572SOL    HW1 1715   1.344   2.670   0.152 -0.2062  1.6431 -3.3579
  572SOL    HW2 1716   1.380   2.668   3.097 -3.7095  0.9978  0.4588
  573SOL     OW 1717   1.784   1.974   1.293 -0.2444  0.2240 -0.3390
  573SOL    HW1 1718   1.820   1.978   1.389  0.2756 -0.2707  0.4630
  573SOL    HW2 1719   1.702   1.913   1.289 -1.4413 -0.6575  3.0306
  574SOL     OW 1720   1.086   3.025   1.298  0.6469  0.8331  0.4248
  574SOL    HW1 1721   1.018   3.080   1.355 -0.9202  1.7198  0.8876
  574SOL    HW2 1722   1.177   3.039   1.340  0.3219 -2.6579  2.2221
  575SOL     OW 1723   0.957   0.636   0.826  0.1626 -0.4359 -0.5223
  575SOL    HW1 1724   1.051   0.639   0.861 -1.0038 -2.4097  1.7987
  575SOL    HW2 1725   0.900   0.715   0.853 -2.0142 -0.4860 -3.2340
  576SOL     OW 1726   2.493   0.479   1.350 -0.8525 -0.3101 -0.0476
  576SOL    HW1 1727   2.542   0.482   1.259 -0.1574 -2.9095 -0.6127
  576SOL    HW2 1728   2.559   0.467   1.426 -3.4564 -3.2157 -1.4398
  577SOL     OW 1729   2.362   0.358   2.685 -0.0321  0.0043 -0.1302
  577SOL    HW1 1730   2.453   0.387   2.717 -1.9048  1.8764 -2.6460
  577SOL    HW2 1731   2.332   0.408   2.595 -3.0979 -0.8359 -0.0435
  578SOL     OW 1732   1.919   1.838   2.151 -0.1641  0.0198 -0.6205
  578SOL    HW1 1733   1.959   1.768   2.089  0.2141 -0.0787 -2.3659
  578SOL    HW2 1734   1.914   1.929   2.105  0.3155  2.0735  0.8926
  579SOL     OW 1735   1.015   1.623   1.241  0.1181  0.1114  0.6189
  579SOL    HW1 1736   0.955   1.610   1.158  0.8172 -0.2924 -0.8779
  579SOL    HW2 1737   1.057   1.536   1.266 -0.4889  0.0093  0.6520
  580SOL     OW 1738   1.372   2.698   2.940 -0.1918  0.2067  0.1149
  580SOL    HW1 1739   1.289   2.653   2.910 -1.2456 -1.0323  2.5713
  580SOL    HW2 1740   1.417   2.741   2.863 -1.1620  1.0097  1.3794
  581SOL     OW 1741   0.781   0.719   2.099 -0.2589 -0.0871 -0.3213
  581SOL    HW1 1742   0.713   0.706   2.176  1.5107 -3.1785  0.8905
  581SOL    HW2 1743   0.795   0.631   2.051  1.0361 -1.2668 -0.6971
  582SOL     OW 1744   0.605   0.800   0.702  0.3974 -0.4461 -0.0607
  582SOL    HW1 1745   0.534   0.728   0.679 -1.0783 -1.8722 -1.7756
  582SOL    HW2 1746   0.554   0.871   0.757  1.6027 -1.5278 -0.5291
  583SOL     OW 1747   0.770   1.619   2.117  0.0283 -0.4444  0.4248
  583SOL    HW1 1748   0.813   1.710   2.153 -0.9672  2.6435 -0.7734
  583SOL    HW2 1749   0.675   1.613   2.156 -0.0274 -1.1785 -2.3758
  584SOL     OW 1750   2.399   2.780   0.267  0.2950  0.1742 -0.1870
  584SOL    HW1 1751   2.302   2.765   0.302  2.6872  1.4155 -1.3866
  584SOL    HW2 1752   2.435   2.697   0.228 -0.6963  1.7293 -0.3263
  585SOL     OW 1753   2.173   0.528   2.994  0.4400  0.1960  0.3676
  585SOL    HW1 1754   2.147   0.609   2.932 -2.0932  1.1249 -0.0572
  585SOL    HW2 1755   2.183   0.562   3.090 -0.5206  0.6111 -1.1674
  586SOL     OW 1756   0.573   1.617   0.140 -0.2644 -0.2719 -0.3197
  586SOL    HW1 1757   0.536   1.642   0.231 -1.6442  0.7919 -1.6903
  586SOL    HW2 1758   0.586   1.702   0.081  0.3180  3.2400 -1.6932
  587SOL     OW 1759   1.596   2.170   0.954 -0.0512  0.8174 -0.0391
  587SOL    HW1 1760   1.698   2.161   0.968  1.9329  0.6416  2.7178
  587SOL    HW2 1761   1.565   2.250   1.008  0.5754  0.8512 -0.5883
  588SOL     OW 1762   0.428   0.396   0.954 -0.4906  0.9188 -0.1935
  588SOL    HW1 1763   0.481   0.412   1.042 -1.5579  1.3749 -0.5385
  588SOL    HW2 1764   0.486   0.409   0.874 -0.4361 -0.6994  0.6309
  589SOL     OW 1765   1.546   0.147   1.129 -0.3352  0.4148  0.4637
  589SOL    HW1 1766   1.487   0.076   1.086  2.7250 -1.1556  1.2653
  589SOL    HW2 1767   1.542   0.140   1.233  2.2222 -0.8724 -1.1802
  590SOL     OW 1768   1.307   0.701   0.411  0.1424 -0.2405 -0.1955
  590SOL    HW1 1769   1.364   0.780   0.384  1.5589 -0.5259  0.2197
  590SOL    HW2 1770   1.264   0.664   0.327  0.8469  0.4992  0.7859
  591SOL     OW 1771   2.196   2.133   2.016  0.3609  0.3478 -0.3082
  591SOL    HW1 1772   2.265   2.170   2.083 -0.8091 -1.9766  0.7292
  591SOL    HW2 1773   2.232   2.045   1.980 -1.4819 -0.9150  1.6745
  592SOL     OW 1774   1.508   1.847   1.475 -0.2142  0.2534  0.1552
  592SOL    HW1 1775   1.546   1.805   1.557 -1.1797  0.3972 -0.8642
  592SOL    HW2 1776   1.542   1.797   1.392  0.7799  1.9628 -1.7553
  593SOL     OW 1777   0.870   0.127   0.477  0.3321  0.3970 -0.1997
  593SOL    HW1 1778   0.811   0.088   0.550 -0.0518  1.0831  1.1250
  593SOL    HW2 1779   0.908   0.219   0.507  0.2811 -0.5092  2.9622
  594SOL     OW 1780   0.269   0.770   1.969  0.1866  0.3999  0.2812
  594SOL    HW1 1781   0.248   0.764   1.868  0.4570  3.3286 -1.9406
  594SOL    HW2 1782   0.342   0.837   1.986 -1.1819 -1.0459  0.4355
  595SOL     OW 1783   2.718   2.802   0.816  0.4604  0.2543 -0.2562
  595SOL    HW1 1784   2.664   2.881   0.780 -0.1601  0.2029 -0.5243
  595SOL    HW2 1785   2.800   2.828   0.866 -0.4512 -1.4738  0.3586
  596SOL     OW 1786   0.027   0.244   1.528 -0.6248 -0.2940 -0.2549
  596SOL    HW1 1787   0.084   0.323   1.489  1.5962  2.2457  0.0417
  596SOL    HW2 1788   0.068   0.220   1.619 -0.3830 -2.8054  2.7005
  597SOL     OW 1789   2.225   1.155   0.897 -0.1762 -0.2568  0.5197
  597SOL    HW1 1790   2.270   1.237   0.847  1.2773  2.0689 -2.4412
  597SOL    HW2 1791   2.130   1.132   0.862  0.0333  0.7841 -1.1163
  598SOL     OW 1792   0.641   0.049   1.732  0.3575  0.1278 -0.1372
  598SOL    HW1 1793   0.639   3.059   1.754  1.7263 -0.9256  1.2282
  598SOL    HW2 1794   0.562   0.097   1.776  0.5473 -0.9613 -1.7726
  599SOL     OW 1795   2.860   1.593   2.992  0.1435  0.2590  0.4149
  599SOL    HW1 1796   2.916   1.509   3.010 -0.0197  1.1017 -1.5751
  599SOL    HW2 1797   2.769   1.556   2.974  1.4328  0.6442  0.9322
  600SOL     OW 1798   1.021   0.946   3.074 -0.4848  0.2783 -0.0939
  600SOL    HW1 1799   0.939   0.981   3.027  0.6961 -0.6693  1.5944
  600SOL    HW2 1800   1.064   1.011   0.026  1.0859 -0.3403 -0.3914
  601SOL     OW 1801   1.184   1.239   2.798 -0.4031 -0.0591  0.3409
  601SOL    HW1 1802   1.213   1.327   2.750 -0.2931 -0.3252 -0.4761
  601SOL    HW2 1803   1.087   1.219   2.778  0.3983 -1.0649  0.0589
  602SOL     OW 1804   1.315   3.045   1.440  0.2542 -0.0523 -0.0974
  602SOL    HW1 1805   1.406   3.007   1.453 -0.5700 -0.1280 -1.5099
  602SOL    HW2 1806   1.323   0.031   1.403 -0.4739  0.5260 -0.2318
  603SOL     OW 1807   0.872   2.847   2.399 -0.0851  0.4207  0.1927
  603SOL    HW1 1808   0.789   2.798   2.417  2.5931 -0.5762 -1.8063
  603SOL    HW2 1809   0.960   2.810   2.439  2.6634  0.8594 -0.1096
  604SOL     OW 1810   2.869   0.047   2.210 -0.0739  0.0193 -0.1416
  604SOL    HW1 1811   2.830   0.118   2.271  0.0911 -0.4330 -0.9271
  604SOL    HW2 1812   2.902   3.078   2.272 -2.9302 -0.8787  0.2918
  605SOL     OW 1813   2.268   2.330   1.396  0.1135  0.4927  0.1276
  605SOL    HW1 1814   2.311   2.245   1.423 -2.9190  3.1906  0.0468
  605SOL    HW2 1815   2.175   2.310   1.356 -0.1638  0.0661 -1.1166
  606SOL     OW 1816   0.250   1.867   3.038  0.3284  0.5878 -0.6183
  606SOL    HW1 1817   0.271   1.911   2.949  1.2793 -0.1906  2.3639
  606SOL    HW2 1818   0.175   1.920   3.086  0.3439 -1.9100  1.7199
  607SOL     OW 1819   0.968   0.379   0.531  0.5427  0.2281 -0.4070
  607SOL    HW1 1820   1.066   0.384   0.504  0.6208  2.2561  0.1361
  607SOL    HW2 1821   0.916   0.461   0.491 -1.7790  1.2243  2.6428
  608SOL     OW 1822   1.737   1.511   2.443  0.0837  0.1283 -0.4870
  608SOL    HW1 1823   1.692   1.438   2.501 -0.6989 -2.0070 -1.8856
  608SOL    HW2 1824   1.816   1.557   2.489  0.8264 -1.0940 -1.3742
  609SOL     OW 1825   2.828   0.554   0.793  0.1420  0.3728  0.3104
  609SOL    HW1 1826   2.816   0.574   0.894  2.1120  1.4633  0.3211
  609SOL    HW2 1827   2.744   0.528   0.743 -1.3467 -1.2505  1.0087
  610SOL     OW 1828   0.641   2.500   2.875 -0.1018  0.4930  0.0768
  610SOL    HW1 1829   0.700   2.576   2.910  0.4394 -1.0791  3.0151
  610SOL    HW2 1830   0.690   2.415   2.911  1.7205 -2.1388 -1.8887
  611SOL     OW 1831   1.844   1.403   0.593 -0.1526 -0.2561 -0.5432
  611SOL    HW1 1832   1.929   1.454   0.560 -1.4165 -0.3571 -1.1746
  611SOL    HW2 1833   1.774   1.471   0.614  1.3481  0.1494 -1.8054
  612SOL     OW 1834   0.830   2.428   2.369  0.4814  0.0607  0.2286
  612SOL    HW1 1835   0.920   2.384   2.364 -2.1692 -0.4056 -1.6301
  612SOL    HW2 1836   0.798   2.455   2.273 -0.7633  0.1432 -1.7580
  613SOL     OW 1837   1.260   1.714   0.087  0.0379 -0.1064 -0.5566
  613SOL    HW1 1838   1.326   1.689   0.162  1.5368 -2.0724 -2.2943
  613SOL    HW2 1839   1.318   1.710   0.001  0.3251 -1.6594 -5.1138
  614SOL     OW 1840   2.667   2.368   1.844  1.1279 -0.0146  0.1589
  614SOL    HW1 1841   2.743   2.381   1.913 -0.2178  1.8749 -1.5206
  614SOL    HW2 1842   2.653   2.268   1.823  0.7029 -1.5529  1.1617
  615SOL     OW 1843   2.216   1.401   3.067  0.0427 -0.3494  0.2143
  615SOL    HW1 1844   2.193   1.488   0.004 -0.2717 -1.3689 -1.2992
  615SOL    HW2 1845   2.290   1.360   0.011 -0.7149 -0.9431 -0.1474
  616SOL     OW 1846   1.812   0.248   1.088 -0.3403 -0.1585 -0.2499
  616SOL    HW1 1847   1.852   0.259   1.181 -0.4829  1.0691  1.1179
  616SOL    HW2 1848   1.716   0.220   1.094 -2.6140  0.1319  0.5597
  617SOL     OW 1849   0.811   1.053   2.956  1.1540 -0.0977  0.0600
  617SOL    HW1 1850   0.781   1.039   2.858 -0.5891  2.4525 -1.1840
  617SOL    HW2 1851   0.842   1.150   2.960  2.6673 -0.4151 -1.9629
  618SOL     OW 1852   0.473   0.890   1.442 -0.1266  0.3349  0.2124
  618SOL    HW1 1853   0.475   0.847   1.348 -2.1955 -1.7722  0.3938
  618SOL    HW2 1854   0.562   0.930   1.467 -0.0223  1.5967 -1.5433
  619SOL     OW 1855   3.062   0.985   1.500  0.2197  0.4417 -0.0474
  619SOL    HW1 1856   0.055   0.968   1.492 -1.2605  1.4544 -0.0334
  619SOL    HW2 1857   3.011   0.937   1.425 -0.4601 -2.6912 -0.5935
  620SOL     OW 1858   1.888   1.259   3.089 -0.1020 -0.2726  0.0717
  620SOL    HW1 1859   1.786   1.240   3.085 -2.1343  1.2998  2.0241
  620SOL    HW2 1860   1.900   1.350   3.039 -1.1669  4.1345 -1.5214
  621SOL     OW 1861   2.436   0.037   1.137  0.1750 -0.2625  0.5193
  621SOL    HW1 1862   2.494   0.060   1.059 -1.4885  1.4994  2.3772
  621SOL    HW2 1863   2.427   0.121   1.195 -0.1173 -0.1783  3.1110
  622SOL     OW 1864   1.405   0.704   2.078  0.1504  0.4585 -0.6481
  622SOL    HW1 1865   1.500   0.726   2.042  0.0202  0.6849  1.3133
  622SOL    HW2 1866   1.409   0.715   2.182 -2.2313 -0.5051  1.4466
  623SOL     OW 1867   0.969   0.548   2.802  0.1247 -0.2559  0.3830
  623SOL    HW1 1868   0.939   0.544   2.705 -1.5888  1.5563  1.5941
  623SOL    HW2 1869   0.975   0.643   2.837 -1.3471 -0.7903  1.6661
  624SOL     OW 1870   1.658   0.311   0.500 -0.1332 -0.8959 -0.4219
  624SOL    HW1 1871   1.615   0.400   0.535 -1.3310  2.4018  1.2009
  624SOL    HW2 1872   1.761   0.326   0.505  0.6980 -0.6324 -3.7261
  625SOL     OW 1873   0.853   1.496   0.715  0.0712  0.5008  0.0500
  625SOL    HW1 1874   0.922   1.572   0.730  0.0609 -0.9432 -2.6314
  625SOL    HW2 1875   0.883   1.443   0.635 -0.7558  0.8883  0.5051
  626SOL     OW 1876   1.646   1.212   2.984  0.0130  0.0154  0.3247
  626SOL    HW1 1877   1.580   1.141   2.943  0.7360 -2.8436 -1.3408
  626SOL    HW2 1878   1.697   1.265   2.908 -0.1916 -0.9158 -2.7812
  627SOL     OW 1879   0.878   0.010   1.863  0.4865 -0.1845  0.6983
  627SOL    HW1 1880   0.931   3.039   1.829 -0.0930  1.1119 -0.1786
  627SOL    HW2 1881   0.807   0.046   1.801  0.0954 -0.2836  4.4328
  628SOL     OW 1882   2.467   0.423   2.298  0.1122  0.0865  0.1337
  628SOL    HW1 1883   2.469   0.497   2.224  0.7290  1.2510  3.2256
  628SOL    HW2 1884   2.390   0.426   2.367 -1.3383 -1.2761  3.5476
  629SOL     OW 1885   0.865   1.320   2.972 -0.2163 -0.5275 -0.1819
  629SOL    HW1 1886   0.939   1.337   3.040  0.0399 -0.5172  2.1356
  629SOL    HW2 1887   0.776   1.369   2.993 -3.7922  2.4899  0.8726
  630SOL     OW 1888   1.182   0.209   2.310 -0.0438  0.1008  0.1568
  630SOL    HW1 1889   1.125   0.290   2.309  2.0908  0.3434 -1.6332
  630SOL    HW2 1890   1.121   0.129   2.313  0.1610 -2.1741 -0.9825
  631SOL     OW 1891   2.572   1.407   1.000 -0.3008  0.0754 -0.2200
  631SOL    HW1 1892   2.670   1.408   1.031  0.5105  0.3857 -0.7109
  631SOL    HW2 1893   2.509   1.386   1.078  0.3350 -1.8235 -0.8972
  632SOL     OW 1894   2.555   1.507   0.739  0.1245  0.1372  0.0208
  632SOL    HW1 1895   2.535   1.505   0.841  0.5535 -0.0072  2.6673
  632SOL    HW2 1896   2.567   1.599   0.699  2.3767 -0.4967  0.6332
  633SOL     OW 1897   1.371   1.173   0.975 -0.2970 -0.3608  0.0416
  633SOL    HW1 1898   1.421   1.241   0.920  0.5491  2.8740 -1.9915
  633SOL    HW2 1899   1.344   1.216   1.065  1.8404  1.2482  0.7458
  634SOL     OW 1900   1.834   0.098   0.845  0.5682  0.0965  0.0409
  634SOL    HW1 1901   1.842   0.149   0.935 -0.6217 -1.1548 -0.1909
  634SOL    HW2 1902   1.836   3.103   0.862  0.1932 -1.9139 -0.3295
  635SOL     OW 1903   1.875   0.642   1.232 -0.1988  0.4783 -0.3515
  635SOL    HW1 1904   1.968   0.683   1.222 -0.9926 -0.0224 -1.7407
  635SOL    HW2 1905   1.825   0.668   1.316 -3.2252 -1.5052 -1.6472
  636SOL     OW 1906   1.323   1.041   0.606  0.1930 -0.0558 -0.7141
  636SOL    HW1 1907   1.342   1.134   0.569 -1.1000  0.8923  0.4998
  636SOL    HW2 1908   1.258   0.992   0.551  2.3331  3.5869  1.6970
  637SOL     OW 1909   1.667   2.497   0.160 -0.2406  0.1926 -0.1992
  637SOL    HW1 1910   1.576   2.537   0.149 -0.8313  0.8725  0.1138
  637SOL    HW2 1911   1.700   2.455   0.071 -2.3925 -0.1312 -0.7466
  638SOL     OW 1912   1.102   2.930   2.898 -0.1304  0.2343 -0.0337
  638SOL    HW1 1913   1.055   2.853   2.944 -1.1876  3.6212  2.3509
  638SOL    HW2 1914   1.039   2.999   2.871  1.6341  0.2392  2.0955
  639SOL     OW 1915   1.068   2.120   1.352 -0.3316 -0.5508 -0.3736
  639SOL    HW1 1916   1.098   2.032   1.314  1.1979 -0.1437  1.1898
  639SOL    HW2 1917   0.968   2.123   1.372  1.0343  0.3601  1.1114
  640SOL     OW 1918   0.423   2.943   0.119 -0.1605  0.2294  0.2794
  640SOL    HW1 1919   0.395   2.905   0.026  0.5304 -2.3231 -1.0287
  640SOL    HW2 1920   0.476   3.031   0.105 -0.0422 -0.9613 -0.5190
  641SOL     OW 1921   0.031   0.366   0.158  0.1413 -0.0518  0.7980
  641SOL    HW1 1922   0.038   0.319   0.245 -1.0731 -1.1344 -0.0541
  641SOL    HW2 1923   0.111   0.422   0.137  0.4001 -0.4231 -1.8864
  642SOL     OW 1924   0.419   1.487   1.041  0.0559  0.2084 -0.2354
  642SOL    HW1 1925   0.449   1.582   1.018 -0.7037  1.6232 -2.8775
  642SOL    HW2 1926   0.321   1.482   1.058  3.3362 -0.1580  0.1427
  643SOL     OW 1927   0.919   1.931   2.491 -0.1995 -0.2219  0.1240
  643SOL    HW1 1928   0.991   1.894   2.548 -0.0958 -1.3396 -0.1468
  643SOL    HW2 1929   0.898   2.034   2.495 -1.6199  3.1872 -0.5507
  644SOL     OW 1930   1.730   2.614   0.392  0.1591 -0.1701  0.4657
  644SOL    HW1 1931   1.705   2.565   0.304 -1.7909  0.0186 -2.1342
  644SOL    HW2 1932   1.680   2.568   0.471  1.3302 -0.3682 -0.2643
  645SOL     OW 1933   1.806   2.260   1.648 -0.1915 -0.0374 -0.5503
  645SOL    HW1 1934   1.736   2.309   1.707 -0.6979 -2.4876  0.4201
  645SOL    HW2 1935   1.878   2.329   1.625 -0.1402 -0.4041  1.3693
  646SOL     OW 1936   0.990   2.791   0.291  0.2577  0.4716 -0.0262
  646SOL    HW1 1937   1.009   2.891   0.300  2.1736  2.2414  2.4762
  646SOL    HW2 1938   0.888   2.774   0.276  1.5284 -3.8980 -0.3224
  647SOL     OW 1939   0.302   3.078   1.977 -0.8764  0.5349  0.2607
  647SOL    HW1 1940   0.211   3.058   2.005 -0.7665  0.2111  0.1353
  647SOL    HW2 1941   0.351   0.025   2.045 -0.0373 -0.4725  0.8357
  648SOL     OW 1942   2.517   1.186   0.825 -0.0427 -0.4073 -0.4463
  648SOL    HW1 1943   2.600   1.135   0.845  2.7261 -0.3043  0.0414
  648SOL    HW2 1944   2.512   1.265   0.898 -1.6233  2.5478  4.3235
  649SOL     OW 1945   1.782   2.558   2.788  0.2720  0.0942 -0.3498
  649SOL    HW1 1946   1.719   2.535   2.708  0.3665  0.2162  0.3164
  649SOL    HW2 1947   1.767   2.655   2.819 -1.4778 -2.0357  0.0698
  650SOL     OW 1948   2.405   1.229   1.803  0.4610 -0.0179 -0.6599
  650SOL    HW1 1949   2.479   1.270   1.864  3.2787  1.2217  1.3624
  650SOL    HW2 1950   2.420   1.130   1.784 -0.0493 -1.2631 -1.0700
  651SOL     OW 1951   1.336   1.661   2.857 -0.0050 -0.1442  0.3755
  651SOL    HW1 1952   1.264   1.724   2.815  0.4744  1.6286 -2.4269
  651SOL    HW2 1953   1.392   1.719   2.925 -2.2801 -2.5064  1.1027
  652SOL     OW 1954   0.562   3.003   2.506 -0.3705 -0.3054  0.2742
  652SOL    HW1 1955   0.630   2.975   2.573 -1.4632  1.7723 -1.6903
  652SOL    HW2 1956   0.556   3.103   2.514  3.0853 -0.7355 -1.4190
  653SOL     OW 1957   2.246   2.267   0.940  0.2548  0.1472 -0.2392
  653SOL    HW1 1958   2.322   2.314   0.977 -1.8114 -0.5428 -1.4783
  653SOL    HW2 1959   2.156   2.312   0.970  0.6863  2.9513  0.8924
  654SOL     OW 1960   2.657   2.871   2.173  0.2262  0.4550 -0.3468
  654SOL    HW1 1961   2.618   2.936   2.251  1.9688  2.4862  0.8499
  654SOL    HW2 1962   2.671   2.920   2.088 -3.3552  0.9604  1.3630
  655SOL     OW 1963   2.640   2.059   1.423 -0.0182  0.0957 -0.7463
  655SOL    HW1 1964   2.636   2.046   1.320  2.1409  0.2281  1.2346
  655SOL    HW2 1965   2.677   2.153   1.455 -2.4523  1.2315  0.0114
  656SOL     OW 1966   2.830   1.880   3.015 -0.4571 -0.0985  0.4063
  656SOL    HW1 1967   2.852   1.919   2.921  0.1161 -0.2447  1.4369
  656SOL    HW2 1968   2.837   1.775   3.017 -2.5521  1.7154  0.5557
  657SOL     OW 1969   0.370   1.052   0.474 -0.4286  0.2505 -0.0847
  657SOL    HW1 1970   0.328   1.145   0.458 -0.5616 -0.3511  1.9770
  657SOL    HW2 1971   0.347   0.989   0.397 -0.3563 -3.0204  1.5362
  658SOL     OW 1972   1.356   1.562   1.448  0.2661 -0.1401 -0.0083
  658SOL    HW1 1973   1.424   1.603   1.512  0.8138 -0.5204  1.8334
  658SOL    HW2 1974   1.261   1.564   1.486 -2.6099 -2.5714  0.5667
  659SOL     OW 1975   0.857   0.048   1.134  0.1246 -0.1881 -0.0581
  659SOL    HW1 1976   0.895   0.051   1.039 -0.7371 -0.9451 -3.7883
  659SOL    HW2 1977   0.917   0.088   1.210  3.1102  2.0512  1.8146
  660SOL     OW 1978   2.377   1.040   1.113 -0.1762  0.6126 -0.3235
  660SOL    HW1 1979   2.330   1.073   1.028  1.2970  0.7398 -1.6818
  660SOL    HW2 1980   2.429   0.954   1.092 -1.4482 -0.4007 -1.9611
  661SOL     OW 1981   0.325   1.610   3.052 -0.3133  0.1283  0.0707
  661SOL    HW1 1982   0.391   1.595   0.018 -2.0817  1.6179 -1.2212
  661SOL    HW2 1983   0.293   1.708   3.059  0.4966  1.8379 -0.4776
  662SOL     OW 1984   2.582   0.868   2.042 -0.3242  0.0836 -0.1465
  662SOL    HW1 1985   2.656   0.829   2.104 -0.1079 -0.0409  0.4474
  662SOL    HW2 1986   2.621   0.913   1.955  0.0043  0.6751 -1.9076
  663SOL     OW 1987   2.245   1.431   1.414 -0.2342 -0.3625  0.3315
  663SOL    HW1 1988   2.296   1.417   1.327  0.1236  0.3137  0.2109
  663SOL    HW2 1989   2.312   1.456   1.490  1.5193 -0.3717  3.0570
  664SOL     OW 1990   0.455   0.007   1.290 -0.1130  0.2804 -0.2524
  664SOL    HW1 1991   0.481   0.073   1.219  0.6399  0.9158  0.2211
  664SOL    HW2 1992   0.389   0.055   1.351  1.9950 -0.7826  0.2020
  665SOL     OW 1993   1.515   0.271   3.039 -0.2953 -0.0231  0.2832
  665SOL    HW1 1994   1.599   0.281   2.978 -1.3972  1.5691 -1.8525
  665SOL    HW2 1995   1.515   0.181   3.084 -1.5584  2.7633  1.7912
  666SOL     OW 1996   0.434   0.191   1.816  0.2596 -0.6096 -0.4326
  666SOL    HW1 1997   0.481   0.272   1.780 -2.1876 -0.3683  1.0134
  666SOL    HW2 1998   0.333   0.197   1.798 -0.2757 -2.0659  0.7446
  667SOL     OW 1999   1.710   1.398   1.966 -0.3023  0.0291 -0.1442
  667SOL    HW1 2000   1.782   1.382   1.898 -0.1392  1.3614  0.4543
  667SOL    HW2 2001   1.754   1.418   2.057  0.9138 -0.5613 -0.2238
  668SOL     OW 2002   0.143   1.463   2.418 -0.4456  0.5106 -0.0575
  668SOL    HW1 2003   0.232   1.413   2.423 -0.6956 -2.2424 -0.2907
  668SOL    HW2 2004   0.119   1.461   2.315 -0.2603  1.1614 -0.8229
  669SOL     OW 2005   2.592   2.948   3.031  0.1159 -0.5555  0.2845
  669SOL    HW1 2006   2.611   3.041   2.993 -1.6250 -1.3714 -0.0744
  669SOL    HW2 2007   2.548   2.958   0.013 -0.3564 -0.5665 -3.0255
  670SOL     OW 2008   2.569   1.103   2.352  0.0990 -0.3140  0.7432
  670SOL    HW1 2009   2.663   1.099   2.318  0.8160  0.4414  1.4246
  670SOL    HW2 2010   2.563   1.173   2.426  0.8480 -3.1084  1.8545
  671SOL     OW 2011   2.531   1.809   0.424  0.2382 -0.4638  0.2710
  671SOL    HW1 2012   2.621   1.766   0.426  0.6000  1.2380  2.0879
  671SOL    HW2 2013   2.544   1.907   0.422  0.0723 -0.8892  0.3651
  672SOL     OW 2014   1.314   1.185   2.132  0.1067  0.0664 -0.0284
  672SOL    HW1 2015   1.400   1.180   2.075  0.4099 -1.2884  0.8970
  672SOL    HW2 2016   1.241   1.116   2.101 -0.2219 -0.2595 -2.4811
  673SOL     OW 2017   3.005   1.891   1.512 -0.1628 -0.0859  0.0204
  673SOL    HW1 2018   3.068   1.873   1.436 -1.1464 -0.1271  0.4430
  673SOL    HW2 2019   3.050   1.925   1.598 -0.6328 -0.8807  1.9926
  674SOL     OW 2020   1.009   1.616   1.846  0.2107 -0.7885 -0.2213
  674SOL    HW1 2021   0.914   1.585   1.864  0.2726  1.2121  0.4458
  674SOL    HW2 2022   1.017   1.716   1.869  0.0760  0.2991  4.5436
  675SOL     OW 2023   3.077   0.767   0.940 -0.1839  0.1239 -0.1193
  675SOL    HW1 2024   3.091   0.863   0.980 -1.4981  2.4839 -2.3699
  675SOL    HW2 2025   0.058   0.730   0.909  0.8202  2.2366  0.4235
  676SOL     OW 2026   3.061   1.288   1.033  0.5798  0.0226 -0.1130
  676SOL    HW1 2027   3.059   1.302   0.932 -0.4160  1.4827  2.8065
  676SOL    HW2 2028   3.063   1.187   1.055  0.9007 -0.3417 -1.9738
  677SOL     OW 2029   1.766   1.919   2.382  0.3167 -0.1524 -0.5537
  677SOL    HW1 2030   1.822   1.892   2.304  1.1718 -1.8890  1.1027
  677SOL    HW2 2031   1.681   1.865   2.394 -1.1552 -0.7461  0.3054
  678SOL     OW 2032   2.824   1.728   1.038 -0.0718 -1.0373  0.5624
  678SOL    HW1 2033   2.756   1.742   0.961  0.3457  0.9360  1.2619
  678SOL    HW2 2034   2.772   1.730   1.127 -1.5311 -1.3020  1.7352
  679SOL     OW 2035   0.606   2.762   0.597 -0.0018  0.6629  0.2094
  679SOL    HW1 2036   0.563   2.671   0.602  1.8347  0.4883 -2.3390
  679SOL    HW2 2037   0.674   2.775   0.668 -0.7687 -0.6470 -1.6720
  680SOL     OW 2038   0.026   1.858   1.271  0.1600  0.1376 -0.0085
  680SOL    HW1 2039   3.108   1.887   1.177 -0.7803 -0.0002  1.5690
  680SOL    HW2 2040   0.045   1.762   1.273 -0.3870  3.6853  0.8437
  681SOL     OW 2041   0.919   0.396   1.039 -0.0495  0.3135 -0.0123
  681SOL    HW1 2042   1.004   0.343   1.061 -0.3681 -2.0831  1.8230
  681SOL    HW2 2043   0.894   0.398   0.941  1.6016  1.7553  2.4681
  682SOL     OW 2044   1.583   2.966   1.475  0.2532 -0.0787  0.1300
  682SOL    HW1 2045   1.552   2.897   1.545 -0.0274 -0.2858 -0.1463
  682SOL    HW2 2046   1.670   3.009   1.502 -1.0478  0.4840  0.0816
  683SOL     OW 2047   2.441   1.463   1.585  0.0290 -0.8912 -0.0703
  683SOL    HW1 2048   2.421   1.441   1.684 -2.0903  0.9038 -0.2798
  683SOL    HW2 2049   2.534   1.498   1.568  1.2455 -3.8936  1.2858
  684SOL     OW 2050   0.004   1.588   1.765  0.0947 -0.0181  0.3652
  684SOL    HW1 2051   3.044   1.516   1.736 -0.6843  0.3329  1.7304
  684SOL    HW2 2052   0.100   1.553   1.753  0.3787 -0.6522 -1.7475
  685SOL     OW 2053   2.044   1.734   0.309  0.4137 -0.0716  0.2668
  685SOL    HW1 2054   2.121   1.775   0.361  1.0796 -1.0364 -1.0121
  685SOL    HW2 2055   2.079   1.692   0.221 -0.1008 -0.4895 -0.9667
  686SOL     OW 2056   0.004   0.641   1.244  0.0408 -0.0639  0.4040
  686SOL    HW1 2057   0.103   0.631   1.219 -2.7101  2.0955  0.4067
  686SOL    HW2 2058   3.063   0.553   1.259  0.2599  3.9676 -0.3597
  687SOL     OW 2059   1.855   0.083   2.669  0.8654 -0.0407 -0.0770
  687SOL    HW1 2060   1.908   0.128   2.745  0.3437 -0.2151  1.9840
  687SOL    HW2 2061   1.759   0.125   2.663  0.8349 -2.6643 -0.1324
  688SOL     OW 2062   1.155   2.167   2.580  0.3162  0.0175  0.2976
  688SOL    HW1 2063   1.226   2.102   2.549 -1.7817  0.7718  0.5230
  688SOL    HW2 2064   1.099   2.123   2.648  1.8435  3.7856 -0.6858
  689SOL     OW 2065   2.120   1.239   1.906  0.0691  0.3414 -0.0951
  689SOL    HW1 2066   2.206   1.254   1.963  3.5024  2.0960 -0.7925
  689SOL    HW2 2067   2.064   1.161   1.937  0.5653  1.0174 -0.6277
  690SOL     OW 2068   1.897   2.007   1.535 -0.1224  0.1216  0.8246
  690SOL    HW1 2069   1.847   2.073   1.593 -0.2586 -0.2291  0.9401
  690SOL    HW2 2070   1.935   1.931   1.591  3.0970  1.2651 -3.9535
  691SOL     OW 2071   0.463   1.691   0.411 -0.2050 -0.6623  0.4252
  691SOL    HW1 2072   0.498   1.772   0.457  0.4632  0.3111  1.1497
  691SOL    HW2 2073   0.411   1.629   0.472 -0.6435 -0.5040 -0.5087
  692SOL     OW 2074   2.889   2.873   2.636  0.2004 -0.0738  0.5676
  692SOL    HW1 2075   2.792   2.893   2.637 -0.2962 -0.8423  0.7205
  692SOL    HW2 2076   2.899   2.773   2.653  0.4195 -0.1910  0.2926
  693SOL     OW 2077   0.100   1.502   2.165  0.0310  0.0653 -0.1982
  693SOL    HW1 2078   0.056   1.595   2.167  0.3821  2.3873  0.8824
  693SOL    HW2 2079   0.099   1.472   2.065 -1.2545 -0.7799 -0.4088
  694SOL     OW 2080   2.377   0.247   1.895  0.3046 -0.3501 -0.3345
  694SOL    HW1 2081   2.419   0.324   1.842 -1.9809 -0.3050  2.1472
  694SOL    HW2 2082   2.280   0.277   1.917 -0.6176 -1.2741  0.4724
  695SOL     OW 2083   1.032   0.673   2.203  0.2364  0.4032  0.1011
  695SOL    HW1 2084   0.930   0.676   2.197 -1.6453 -2.3334 -0.1439
  695SOL    HW2 2085   1.065   0.760   2.246  0.4468 -2.4145 -2.7411
  696SOL     OW 2086   1.955   2.769   1.579 -0.3835  0.8374  0.2611
  696SOL    HW1 2087   2.005   2.844   1.631 -0.4512  1.1543  1.8846
  696SOL    HW2 2088   1.905   2.707   1.645  0.0395 -0.2646  0.4624
  697SOL     OW 2089   1.413   0.413   2.009  0.0956 -0.2861  0.2423
  697SOL    HW1 2090   1.402   0.504   2.040  2.5610 -1.4262 -2.3532
  697SOL    HW2 2091   1.460   0.413   1.923 -1.9460  0.1072 -0.9171
  698SOL     OW 2092   2.217   1.667   2.521 -0.7062 -0.8307 -0.0196
  698SOL    HW1 2093   2.284   1.706   2.593  1.6607 -3.4560  1.9984
  698SOL    HW2 2094   2.200   1.739   2.447  0.1047  1.5001  1.7120
  699SOL     OW 2095   2.209   0.631   0.117  0.0222 -0.1247 -0.1434
  699SOL    HW1 2096   2.128   0.621   0.184  1.2062  0.8714  2.2917
  699SOL    HW2 2097   2.250   0.724   0.123 -1.0314  0.3353 -1.7337
  700SOL     OW 2098   1.241   0.063   0.645  0.3055  0.4014 -0.6859
  700SOL    HW1 2099   1.282   0.142   0.691  0.4419 -0.4855 -1.4010
  700SOL    HW2 2100   1.180   0.006   0.708 -0.2838 -0.4507 -2.6671
  701SOL     OW 2101   0.243   0.895   0.672  0.4568  0.3284 -0.2022
  701SOL    HW1 2102   0.273   0.798   0.687  0.9251  1.2137 -0.7993
  701SOL    HW2 2103   0.292   0.939   0.596  2.3744  0.1460 -0.6844
  702SOL     OW 2104   1.579   0.128   1.648  0.3985  0.0725  0.6244
  702SOL    HW1 2105   1.520   0.064   1.697  0.8859  2.2980  1.0973
  702SOL    HW2 2106   1.668   0.082   1.631 -2.3205  0.7070 -1.8453
  703SOL     OW 2107   3.004   1.023   1.129 -0.7015  0.0741 -0.3670
  703SOL    HW1 2108   2.920   1.073   1.132 -0.0612 -0.7189  2.9263
  703SOL    HW2 2109   3.004   0.948   1.197 -0.8413  1.4104 -0.1502
  704SOL     OW 2110   0.935   2.453   1.374  0.1703 -0.5744 -0.3323
  704SOL    HW1 2111   1.023   2.508   1.371  0.7205  0.6350  0.0559
  704SOL    HW2 2112   0.876   2.483   1.293 -0.1148  0.5443  1.0263
  705SOL     OW 2113   0.435   1.660   2.805  0.3343 -0.1960  0.3251
  705SOL    HW1 2114   0.456   1.575   2.751  0.0830 -2.5704  0.5706
  705SOL    HW2 2115   0.379   1.632   2.888 -0.7320 -1.1959 -1.7475
  706SOL     OW 2116   3.079   2.875   0.224 -0.4572  0.5096  0.3293
  706SOL    HW1 2117   2.982   2.902   0.211  2.5787 -1.0098 -1.1335
  706SOL    HW2 2118   3.104   2.897   0.321 -1.6422  1.2544  0.6586
  707SOL     OW 2119   1.606   3.097   2.284 -0.7861  0.1356  0.5127
  707SOL    HW1 2120   1.689   0.007   2.225 -0.2793 -0.7620 -1.1010
  707SOL    HW2 2121   1.536   3.037   2.232 -0.1515  0.3454 -0.1845
  708SOL     OW 2122   0.297   2.827   1.710 -0.1447 -0.2995  0.2774
  708SOL    HW1 2123   0.394   2.841   1.700  0.7800  0.7912 -0.1563
  708SOL    HW2 2124   0.289   2.725   1.682  2.5567 -1.9493 -0.3197
  709SOL     OW 2125   2.747   0.662   1.673  0.4637 -0.0756 -0.0379
  709SOL    HW1 2126   2.830   0.721   1.676 -1.2221 -1.6688 -2.0563
  709SOL    HW2 2127   2.756   0.593   1.747  1.9898  0.3303  3.2984
  710SOL     OW 2128   0.444   1.004   0.806 -0.0644 -0.4419 -0.0664
  710SOL    HW1 2129   0.471   1.081   0.870  2.3668 -1.0409 -0.5572
  710SOL    HW2 2130   0.344   0.978   0.808  1.0744 -0.2804  1.1774
  711SOL     OW 2131   2.555   2.947   1.370 -0.4416 -0.4832  0.0917
  711SOL    HW1 2132   2.481   2.886   1.398  2.4752  2.3708 -0.2369
  711SOL    HW2 2133   2.521   3.006   1.295 -2.4815 -0.2601  1.0890
  712SOL     OW 2134   0.253   2.696   2.229  0.0404 -0.6276  0.0943
  712SOL    HW1 2135   0.163   2.742   2.209 -0.4709  0.2492 -1.8750
  712SOL    HW2 2136   0.252   2.629   2.303  1.1180 -0.3976  0.5123
  713SOL     OW 2137   2.461   0.312   0.555 -0.0933 -0.1984 -0.2722
  713SOL    HW1 2138   2.364   0.311   0.582  1.7057  0.8032 -1.5873
  713SOL    HW2 2139   2.484   0.398   0.504 -0.6851 -1.2425 -0.4114
  714SOL     OW 2140   1.581   2.101   2.624 -0.0779 -0.1154 -0.0638
  714SOL    HW1 2141   1.519   2.079   2.548  2.7728 -0.9105  1.9548
  714SOL    HW2 2142   1.671   2.133   2.589 -0.4779 -2.6113  0.8674
  715SOL     OW 2143   0.185   0.588   0.841 -0.5066 -0.2097  0.1733
  715SOL    HW1 2144   0.176   0.534   0.923  2.1314  4.4937  0.3917
  715SOL    HW2 2145   0.109   0.570   0.780 -0.1259  1.3870  1.1958
  716SOL     OW 2146   0.863   0.724   1.614  0.6287  0.0928 -0.3938
  716SOL    HW1 2147   0.904   0.752   1.704 -5.4738 -0.0635  1.1139
  716SOL    HW2 2148   0.796   0.796   1.586 -0.4073  0.5450 -1.1614
  717SOL     OW 2149   0.898   0.477   2.544 -0.5083 -0.2914 -0.4878
  717SOL    HW1 2150   0.888   0.376   2.542  0.3743 -0.1945 -1.0432
  717SOL    HW2 2151   0.812   0.520   2.570  1.5088 -0.4316  0.5214
  718SOL     OW 2152   1.204   0.258   0.442  0.4734 -0.2399 -1.1766
  718SOL    HW1 2153   1.248   0.235   0.350 -0.7519 -1.7848  0.8920
  718SOL    HW2 2154   1.208   0.177   0.509 -0.3963 -1.2793  1.4264
  719SOL     OW 2155   3.097   2.346   2.691 -0.1185 -0.0486 -0.2297
  719SOL    HW1 2156   3.091   2.362   2.593  1.9109  1.7747 -0.0085
  719SOL    HW2 2157   0.073   2.387   2.729 -2.5510  0.2195  3.9328
  720SOL     OW 2158   1.013   0.568   1.446  0.2850  0.2240 -0.3072
  720SOL    HW1 2159   0.942   0.611   1.504  2.7277 -2.6637 -1.8923
  720SOL    HW2 2160   1.083   0.641   1.425  3.1702  1.5190 -5.4181
  721SOL     OW 2161   2.886   2.798   1.077  0.1378  0.7337  0.1634
  721SOL    HW1 2162   2.923   2.704   1.062  0.5968  0.1413  3.1706
  721SOL    HW2 2163   2.840   2.800   1.169 -1.2621  0.1210  1.5364
  722SOL     OW 2164   0.921   1.286   2.724  0.0766 -0.0970 -0.4523
  722SOL    HW1 2165   0.872   1.300   2.813 -1.2800  0.0771  2.0879
  722SOL    HW2 2166   0.942   1.376   2.682  1.7958 -1.6011  0.6874
  723SOL     OW 2167   2.608   0.799   1.268  0.2390 -0.1266 -0.3152
  723SOL    HW1 2168   2.537   0.778   1.199  0.1804 -0.8407  0.1894
  723SOL    HW2 2169   2.564   0.789   1.364 -0.0636  1.4623  2.4704
  724SOL     OW 2170   0.933   2.040   0.235 -0.1009 -0.5672  0.0357
  724SOL    HW1 2171   0.907   1.994   0.147 -0.5307 -0.2152 -1.3478
  724SOL    HW2 2172   1.006   1.988   0.279 -3.0523 -0.6033 -0.0953
  725SOL     OW 2173   0.216   0.974   1.470 -0.6316  0.0171  0.3291
  725SOL    HW1 2174   0.200   1.036   1.389 -1.2079 -0.0433 -1.5417
  725SOL    HW2 2175   0.302   0.924   1.450  1.2716  2.7466 -0.3081
  726SOL     OW 2176   2.513   1.144   2.938 -0.4540  0.7809 -0.0854
  726SOL    HW1 2177   2.581   1.151   2.862 -0.3027 -0.2050 -1.4222
  726SOL    HW2 2178   2.422   1.119   2.899  1.9912  2.5683 -1.6409
  727SOL     OW 2179   1.944   1.327   2.606  0.3349  0.0034  0.3259
  727SOL    HW1 2180   2.011   1.366   2.538  0.7606 -1.9254  1.6898
  727SOL    HW2 2181   1.917   1.235   2.568  1.6120 -1.0537  1.3153
  728SOL     OW 2182   1.580   2.531   1.322  0.0266 -0.6847  0.1053
  728SOL    HW1 2183   1.515   2.614   1.323 -1.7386  3.6940  1.9314
  728SOL    HW2 2184   1.567   2.477   1.405 -0.6139 -0.5307 -2.6327
  729SOL     OW 2185   1.802   0.764   2.246 -0.2256  0.3456 -0.0447
  729SOL    HW1 2186   1.852   0.732   2.326 -3.3888  3.8309 -2.4000
  729SOL    HW2 2187   1.762   0.855   2.254 -0.1639  1.4844 -0.9118
  730SOL     OW 2188   1.157   0.757   1.060 -0.2371 -0.1482 -0.2413
  730SOL    HW1 2189   1.225   0.807   1.001 -0.7819 -0.1787  0.4053
  730SOL    HW2 2190   1.189   0.683   1.117 -2.0673  3.0407 -1.5101
  731SOL     OW 2191   0.822   0.440   2.985  0.1647 -0.0913  0.4336
  731SOL    HW1 2192   0.876   0.482   2.908 -0.3733  3.5291  0.4324
  731SOL    HW2 2193   0.749   0.508   3.010  1.1726  1.2518 -0.6073
  732SOL     OW 2194   0.521   0.658   0.256 -0.1210  0.0697  0.3437
  732SOL    HW1 2195   0.541   0.558   0.269  1.3466 -0.2612  1.2995
  732SOL    HW2 2196   0.600   0.705   0.211 -2.0092 -0.4466 -0.3347
  733SOL     OW 2197   1.568   1.723   2.440  0.5197 -0.1437  0.0181
  733SOL    HW1 2198   1.474   1.732   2.482 -1.3244  0.0746  0.0544
  733SOL    HW2 2199   1.603   1.628   2.432  0.6553  2.5416 -1.8283
  734SOL     OW 2200   0.296   2.303   2.792 -0.1505  0.0314  0.1458
  734SOL    HW1 2201   0.303   2.300   2.895 -0.8247  0.2386 -1.1680
  734SOL    HW2 2202   0.259   2.396   2.760  1.3490  0.2531  0.9364
  735SOL     OW 2203   2.400   0.535   0.761  0.1411 -0.3435  0.4060
  735SOL    HW1 2204   2.480   0.562   0.705 -0.8471  1.0790 -2.4242
  735SOL    HW2 2205   2.310   0.558   0.719  2.0906 -0.5261  3.5528
  736SOL     OW 2206   2.147   1.369   2.403 -0.3866  0.1746 -0.2062
  736SOL    HW1 2207   2.188   1.278   2.369 -0.3751 -0.1109 -3.8059
  736SOL    HW2 2208   2.162   1.451   2.340  0.8962  2.1264 -0.3842
  737SOL     OW 2209   2.991   0.732   0.476 -0.1055 -0.6376 -0.6215
  737SOL    HW1 2210   2.907   0.719   0.416 -0.6466 -1.3692 -1.1362
  737SOL    HW2 2211   3.076   0.715   0.426  0.1831 -0.6412  1.9138
  738SOL     OW 2212   0.658   2.115   1.814 -0.0961  0.2657 -0.1799
  738SOL    HW1 2213   0.700   2.196   1.859 -1.6022  0.8821  1.1213
  738SOL    HW2 2214   0.622   2.153   1.730  0.9947 -0.7316  4.3429
  739SOL     OW 2215   1.395   2.939   2.110  0.7089 -0.1296  0.2827
  739SOL    HW1 2216   1.445   2.950   2.025 -0.4489 -0.5439 -0.1157
  739SOL    HW2 2217   1.296   2.945   2.082 -0.4458  0.0397 -0.6785
  740SOL     OW 2218   1.832   2.486   1.230  0.3137 -0.3048 -0.1311
  740SOL    HW1 2219   1.742   2.498   1.269  1.1441 -0.7892 -0.3525
  740SOL    HW2 2220   1.906   2.512   1.298 -2.3390 -3.1342 -1.5220
  741SOL     OW 2221   2.201   0.306   0.293  0.2814 -0.1235 -0.2424
  741SOL    HW1 2222   2.117   0.266   0.248 -0.6023 -0.9714  0.9089
  741SOL    HW2 2223   2.254   0.371   0.238 -0.3471 -1.0929  1.7417
  742SOL     OW 2224   1.026   2.676   3.069 -0.2790  0.0236  0.0550
  742SOL    HW1 2225   1.069   2.587   3.038 -3.0259 -0.3610 -2.2275
  742SOL    HW2 2226   1.041   2.688   0.059 -0.2393  0.2423  2.7378
  743SOL     OW 2227   2.367   0.998   2.153 -0.4310  0.2522 -0.1454
  743SOL    HW1 2228   2.429   1.044   2.218 -2.0151 -0.1084  0.1742
  743SOL    HW2 2229   2.426   0.940   2.093  1.1918 -2.1039 -1.4986
  744SOL     OW 2230   2.613   0.619   0.593  0.1204  0.1913 -1.1056
  744SOL    HW1 2231   2.560   0.618   0.507  1.8929  1.3198 -1.7112
  744SOL    HW2 2232   2.711   0.639   0.575 -2.5081  1.5945 -1.9318
  745SOL     OW 2233   2.425   1.169   1.509 -0.4450  0.0341  0.2632
  745SOL    HW1 2234   2.520   1.136   1.531  0.7780  0.3413 -0.2774
  745SOL    HW2 2235   2.396   1.257   1.558 -1.8499 -2.8277  2.5447
  746SOL     OW 2236   1.340   1.567   0.710  0.3906 -0.3223 -0.6414
  746SOL    HW1 2237   1.309   1.665   0.729 -2.5713  1.3822 -0.0236
  746SOL    HW2 2238   1.280   1.533   0.634 -0.6991  1.2078 -2.6252
  747SOL     OW 2239   1.083   1.580   1.588 -0.3151  0.0580  0.0853
  747SOL    HW1 2240   1.060   1.592   1.686  1.4681 -0.2263  1.3585
  747SOL    HW2 2241   1.033   1.642   1.527 -0.9601  0.3517  1.8637
  748SOL     OW 2242   0.332   2.787   3.003 -0.1512 -0.4943 -0.2355
  748SOL    HW1 2243   0.348   2.808   2.904  1.4851 -1.1738 -0.3777
  748SOL    HW2 2244   0.379   2.699   3.028 -0.1694  1.0289 -2.3197
  749SOL     OW 2245   0.159   0.972   2.713 -0.5957  0.6142 -0.1634
  749SOL    HW1 2246   0.141   1.069   2.739  1.0260 -1.3227  0.3121
  749SOL    HW2 2247   0.078   0.921   2.672 -0.6461 -0.7289 -1.3852
  750SOL     OW 2248   1.691   1.004   1.925 -0.0373 -0.3352  0.5878
  750SOL    HW1 2249   1.711   1.005   1.824 -1.4587 -2.9052 -1.4220
  750SOL    HW2 2250   1.680   0.909   1.963  1.5265  2.8068  0.2976
  751SOL     OW 2251   2.764   0.728   0.333  0.0151  0.1353 -0.2849
  751SOL    HW1 2252   2.757   0.657   0.262 -2.1074  2.2605  1.8335
  751SOL    HW2 2253   2.672   0.780   0.340 -0.0713 -1.3400 -0.3886
  752SOL     OW 2254   2.789   2.754   1.339  0.3236 -0.3366 -0.6806
  752SOL    HW1 2255   2.792   2.676   1.408  0.6622 -1.2279 -1.2628
  752SOL    HW2 2256   2.709   2.808   1.360  1.8237 -2.2955  0.3796
  753SOL     OW 2257   0.794   2.193   1.408 -0.3072 -0.1772 -0.0460
  753SOL    HW1 2258   0.840   2.278   1.434  1.4474 -2.2457 -0.2138
  753SOL    HW2 2259   0.724   2.163   1.475  1.7642 -0.0490  0.4086
  754SOL     OW 2260   0.021   2.799   2.140  0.3675 -0.2341  0.0065
  754SOL    HW1 2261   3.039   2.756   2.158  1.9465  2.1660  0.2567
  754SOL    HW2 2262   0.008   2.891   2.096  1.2783 -0.4078  1.3031
  755SOL     OW 2263   2.473   0.551   0.362  0.1568  0.1989  0.1092
  755SOL    HW1 2264   2.500   0.534   0.265 -3.4212 -2.9092  1.3077
  755SOL    HW2 2265   2.382   0.594   0.357  1.5832  0.5683  1.0020
  756SOL     OW 2266   2.326   2.397   2.940  0.1464 -0.0990 -0.3932
  756SOL    HW1 2267   2.377   2.483   2.899  0.9603  3.7798 -0.7131
  756SOL    HW2 2268   2.252   2.424   3.004 -3.9183 -1.1011 -0.0330
  757SOL     OW 2269   2.164   0.619   0.640  0.2610 -0.0592 -0.3989
  757SOL    HW1 2270   2.172   0.653   0.547 -0.8020  0.6408 -0.3439
  757SOL    HW2 2271   2.087   0.546   0.653  0.2860 -1.8422 -0.2161
  758SOL     OW 2272   2.336   0.929   1.698  0.0907  0.2557 -0.1618
  758SOL    HW1 2273   2.281   1.012   1.689 -1.1169 -1.3290  0.3002
  758SOL    HW2 2274   2.400   0.929   1.619 -2.8167  1.5470  3.6056
  759SOL     OW 2275   2.633   0.529   1.115  0.1124 -0.1149 -0.6583
  759SOL    HW1 2276   2.732   0.557   1.108 -1.8034 -3.4747 -0.3073
  759SOL    HW2 2277   2.562   0.596   1.098  1.6682  0.0620 -0.0155
  760SOL     OW 2278   3.002   1.442   1.395 -0.6807  0.0885 -0.2716
  760SOL    HW1 2279   3.092   1.394   1.408  3.8047 -0.5957 -1.3701
  760SOL    HW2 2280   2.935   1.375   1.361 -0.0153  0.2382  0.1540
  761SOL     OW 2281   0.995   0.746   0.186 -0.2923 -0.0386 -0.4736
  761SOL    HW1 2282   1.003   0.811   0.109 -0.6006 -0.6734 -0.4966
  761SOL    HW2 2283   1.035   0.659   0.156 -3.6255  0.9400  0.2034
  762SOL     OW 2284   0.909   1.826   0.983  0.2680  0.1933  0.7127
  762SOL    HW1 2285   0.996   1.850   1.029  1.4256 -0.8028 -1.7936
  762SOL    HW2 2286   0.834   1.801   1.055 -2.0962  2.5219  2.9172
  763SOL     OW 2287   1.190   0.804   1.429 -0.1308 -0.1481  0.0055
  763SOL    HW1 2288   1.194   0.842   1.523  2.0903  0.8489 -0.7736
  763SOL    HW2 2289   1.167   0.878   1.358 -0.0865  0.0155 -0.1257
  764SOL     OW 2290   0.470   2.152   2.657  0.5240 -0.1133  0.4183
  764SOL    HW1 2291   0.463   2.050   2.664  0.7232 -3.2303  0.1816
  764SOL    HW2 2292   0.397   2.201   2.715  1.4093  0.6227  0.8988
  765SOL     OW 2293   0.603   2.797   1.609  0.7443  0.7235  0.2559
  765SOL    HW1 2294   0.623   2.751   1.701  1.5989 -0.1668 -0.1178
  765SOL    HW2 2295   0.686   2.818   1.552  1.2099 -0.5873  0.2873
  766SOL     OW 2296   2.556   1.740   2.204 -0.0115  0.7464  0.3024
  766SOL    HW1 2297   2.601   1.797   2.276  2.4860 -1.1326  1.4106
  766SOL    HW2 2298   2.575   1.642   2.231  1.3425 -1.8747 -0.2077
  767SOL     OW 2299   1.481   1.161   2.374 -0.2632 -0.0127 -0.0179
  767SOL    HW1 2300   1.531   1.221   2.435  2.3621 -1.5041 -1.6303
  767SOL    HW2 2301   1.422   1.202   2.306 -2.3304 -0.7284 -2.8622
  768SOL     OW 2302   1.681   1.986   0.275 -0.4643  0.1654  0.0653
  768SOL    HW1 2303   1.612   1.943   0.340  1.4528  0.1765 -2.1333
  768SOL    HW2 2304   1.724   1.909   0.222 -0.6563 -0.0449 -1.4118
  769SOL     OW 2305   0.778   1.336   0.905 -0.5170 -0.1452  0.1985
  769SOL    HW1 2306   0.809   1.403   0.835  1.8784 -0.0988  0.7439
  769SOL    HW2 2307   0.831   1.350   0.992  0.3615  0.6542 -1.0089
  770SOL     OW 2308   1.364   0.934   2.460  0.2384  0.2928 -0.5247
  770SOL    HW1 2309   1.420   1.009   2.422 -1.5793 -0.6939 -2.0537
  770SOL    HW2 2310   1.399   0.844   2.434 -0.9179  1.5837 -0.3015
  771SOL     OW 2311   2.931   2.949   2.363 -0.3495 -0.2706 -0.0510
  771SOL    HW1 2312   2.921   2.942   2.466  1.9970  1.6997  0.1861
  771SOL    HW2 2313   2.949   2.853   2.322  0.3853 -1.4311 -0.2257
  772SOL     OW 2314   2.145   1.824   2.317  0.0324  0.1099  0.0982
  772SOL    HW1 2315   2.052   1.835   2.281  2.4935 -1.9579 -0.4042
  772SOL    HW2 2316   2.211   1.782   2.247  0.3856 -1.0244 -0.1977
  773SOL     OW 2317   0.599   1.486   1.256 -0.1722  0.3942 -0.3957
  773SOL    HW1 2318   0.535   1.486   1.176 -0.2269 -2.2042 -2.4713
  773SOL    HW2 2319   0.586   1.403   1.314 -1.8191 -0.6195  0.6925
  774SOL     OW 2320   1.344   0.803   2.864 -0.0589 -0.0632  0.7015
  774SOL    HW1 2321   1.251   0.775   2.832 -2.9345 -0.2035 -0.4928
  774SOL    HW2 2322   1.358   0.766   2.956 -1.3688  0.7555  1.2831
  775SOL     OW 2323   1.845   2.740   0.086  0.6107 -0.3863 -0.1333
  775SOL    HW1 2324   1.822   2.644   0.078 -0.0158  2.1178  0.2602
  775SOL    HW2 2325   1.894   2.756   0.168 -1.1721  0.9762 -0.3488
  776SOL     OW 2326   0.150   0.662   1.713 -0.1753  0.2847  0.6889
  776SOL    HW1 2327   0.148   0.581   1.775  1.0690 -0.0517 -0.6966
  776SOL    HW2 2328   0.057   0.694   1.700  2.1725  2.0919  2.8356
  777SOL     OW 2329   2.320   1.764   2.113  0.0176 -0.3536 -0.0429
  777SOL    HW1 2330   2.418   1.777   2.144 -0.4525 -2.1406 -3.0763
  777SOL    HW2 2331   2.301   1.822   2.035  0.1955 -1.0770  2.4259
  778SOL     OW 2332   1.711   1.016   2.320  0.3491 -0.5515  0.2681
  778SOL    HW1 2333   1.618   1.055   2.329 -3.5944 -2.9651 -2.6116
  778SOL    HW2 2334   1.772   1.075   2.271  0.6691 -0.6064  0.5041
  779SOL     OW 2335   2.922   1.117   0.055 -0.1457 -0.4672 -0.5144
  779SOL    HW1 2336   2.903   1.021   0.070 -1.1353  1.1581 -0.8618
  779SOL    HW2 2337   2.867   1.176   0.116  2.1774  0.9657 -0.8951
  780SOL     OW 2338   2.239   0.143   2.553  0.4273 -0.1664  0.0263
  780SOL    HW1 2339   2.150   0.185   2.541  1.9905 -0.6832 -1.2299
  780SOL    HW2 2340   2.305   0.210   2.592  0.1776  1.6278  1.8563
  781SOL     OW 2341   0.014   1.874   1.774 -0.3209 -0.1790  0.1177
  781SOL    HW1 2342   0.112   1.884   1.749  0.8856 -1.5816  0.2351
  781SOL    HW2 2343   3.103   1.776   1.775  2.7044  0.2764 -2.5093
  782SOL     OW 2344   2.673   2.034   2.711  0.5226 -0.5720  0.3318
  782SOL    HW1 2345   2.766   1.997   2.721 -0.6652 -0.6359 -0.9002
  782SOL    HW2 2346   2.645   2.108   2.774 -1.3172  0.5008 -1.0482
  783SOL     OW 2347   0.964   1.343   1.135 -0.1396  0.1219 -0.6139
  783SOL    HW1 2348   0.941   1.302   1.227 -1.9976 -3.6425  0.5977
  783SOL    HW2 2349   1.033   1.285   1.089  2.9037  0.2974  1.5357
  784SOL     OW 2350   2.330   0.795   2.964 -0.2327 -0.4870 -0.1639
  784SOL    HW1 2351   2.382   0.840   2.888 -2.2602  0.1434 -0.8104
  784SOL    HW2 2352   2.350   0.842   3.055 -0.1754 -0.0625  2.3429
  785SOL     OW 2353   2.222   2.550   0.738 -0.0064  0.2079  0.5153
  785SOL    HW1 2354   2.214   2.636   0.687  0.5625 -0.8104  0.5653
  785SOL    HW2 2355   2.266   2.480   0.676 -0.0739 -1.1453 -1.8972
  786SOL     OW 2356   0.444   2.285   2.421 -0.5829 -0.0716 -0.0801
  786SOL    HW1 2357   0.491   2.205   2.377  1.4699  0.4393  0.0623
  786SOL    HW2 2358   0.431   2.271   2.521 -2.3033 -3.5499  0.7173
  787SOL     OW 2359   1.436   0.697   1.374 -0.2828 -0.2464 -0.6019
  787SOL    HW1 2360   1.341   0.736   1.393 -3.1409 -0.4741  1.5909
  787SOL    HW2 2361   1.479   0.728   1.283  2.1863  2.4565  0.9797
  788SOL     OW 2362   0.306   0.843   0.314 -0.4556 -0.4603  0.5113
  788SOL    HW1 2363   0.372   0.769   0.297  2.3897 -0.7133  0.9836
  788SOL    HW2 2364   0.236   0.850   0.242  0.4920 -0.5539  1.6422
  789SOL     OW 2365   2.962   2.115   1.330  0.1111  0.4227 -0.4314
  789SOL    HW1 2366   2.966   2.049   1.407  0.7865 -1.8646  1.1222
  789SOL    HW2 2367   2.900   2.081   1.257  1.4600 -0.7075 -1.1078
  790SOL     OW 2368   1.273   0.470   1.764  0.4586  0.1896 -0.3411
  790SOL    HW1 2369   1.216   0.520   1.837 -0.7305  1.6957 -0.6265
  790SOL    HW2 2370   1.255   0.366   1.765 -1.0070 -2.3681 -0.8581
  791SOL     OW 2371   1.349   0.495   0.551  0.7840 -0.0755  0.0325
  791SOL    HW1 2372   1.325   0.581   0.493 -2.5776  2.5482  0.4982
  791SOL    HW2 2373   1.295   0.414   0.511 -1.7681  0.8083  0.6088
  792SOL     OW 2374   1.513   2.838   1.709 -0.1031 -0.0529  0.1929
  792SOL    HW1 2375   1.440   2.773   1.740  0.1387  1.2326 -0.7410
  792SOL    HW2 2376   1.544   2.904   1.781  1.2042  0.4684 -1.8339
  793SOL     OW 2377   0.639   0.048   0.642 -0.0480  0.1278 -0.0315
  793SOL    HW1 2378   0.598   0.135   0.606 -1.6876  0.9059  0.8261
  793SOL    HW2 2379   0.615   3.080   0.577 -1.6915  0.0550 -1.5301
  794SOL     OW 2380   0.492   1.170   2.240 -0.0540  0.1036  0.2861
  794SOL    HW1 2381   0.589   1.197   2.211  2.9257 -0.0619 -1.3288
  794SOL    HW2 2382   0.488   1.071   2.230  0.3582 -0.3134 -0.0483
  795SOL     OW 2383   0.062   1.731   2.467  0.3608  0.0979 -0.2428
  795SOL    HW1 2384   3.097   1.716   2.399  2.0646  0.5076 -0.9007
  795SOL    HW2 2385   0.103   1.640   2.486 -1.2174  0.0020 -0.3708
  796SOL     OW 2386   1.912   1.155   2.194  0.6905  0.4466  0.3436
  796SOL    HW1 2387   1.918   1.112   2.102  2.2035 -2.8441  0.2151
  796SOL    HW2 2388   2.004   1.161   2.230 -2.5596  0.8416 -3.0034
  797SOL     OW 2389   0.012   2.960   2.751  0.3721 -0.3076 -0.0946
  797SOL    HW1 2390   0.079   3.003   2.689 -1.4485 -0.7119 -1.7512
  797SOL    HW2 2391   3.032   2.950   2.700 -0.0151 -0.7973 -0.8643
  798SOL     OW 2392   2.957   1.989   2.271 -0.7764 -0.5478 -0.1778
  798SOL    HW1 2393   2.904   2.041   2.199  0.2188  1.9122 -0.5725
  798SOL    HW2 2394   3.029   2.052   2.314  0.5390  3.5289  1.6787
  799SOL     OW 2395   0.068   2.080   0.023  0.3452  0.2231  0.2015
  799SOL    HW1 2396   3.096   2.133   0.048  3.9000  0.0040 -0.9061
  799SOL    HW2 2397   0.081   2.080   3.034 -1.8362 -2.2715  2.2868
  800SOL     OW 2398   1.251   1.824   0.675  0.2842  0.0262  0.0580
  800SOL    HW1 2399   1.255   1.859   0.577  0.5593  0.7221 -2.5693
  800SOL    HW2 2400   1.285   1.900   0.735  0.8345 -1.4813  0.0790
  801SOL     OW 2401   2.070   0.821   0.802  0.0607 -0.1211 -0.2050
  801SOL    HW1 2402   1.998   0.868   0.751 -0.2183 -0.5909 -0.3073
  801SOL    HW2 2403   2.097   0.735   0.755  0.0814 -2.5734 -0.5810
  802SOL     OW 2404   2.693   1.494   0.222  0.4903  0.1926 -0.4227
  802SOL    HW1 2405   2.781   1.533   0.259  0.3290  1.9506  0.8926
  802SOL    HW2 2406   2.677   1.531   0.128 -0.7103 -2.1752 -0.2869
  803SOL     OW 2407   1.513   1.804   3.023 -0.9592 -0.2892  0.4686
  803SOL    HW1 2408   1.594   1.778   2.960  3.8033  0.1842 -1.2624
  803SOL    HW2 2409   1.483   1.900   3.021 -0.8069 -3.9166 -0.7728
  804SOL     OW 2410   1.839   1.813   0.134  0.0214  0.0544  0.1921
  804SOL    HW1 2411   1.903   1.800   0.215  1.2747  0.7204 -2.9677
  804SOL    HW2 2412   1.898   1.854   0.061  0.8609  2.6853  2.4774
  805SOL     OW 2413   2.599   1.511   3.002 -0.0291  0.3036 -0.3769
  805SOL    HW1 2414   2.550   1.549   2.922 -1.9676  1.0834  2.5675
  805SOL    HW2 2415   2.534   1.461   3.064  0.1840 -0.5782 -0.3798
  806SOL     OW 2416   0.682   0.155   0.296 -0.2512 -0.0125  0.2847
  806SOL    HW1 2417   0.706   0.253   0.302  3.8803 -1.2941 -0.4203
  806SOL    HW2 2418   0.755   0.095   0.338  2.0432 -0.5022  2.4420
  807SOL     OW 2419   2.153   1.325   2.805 -0.1826  0.3754 -0.1472
  807SOL    HW1 2420   2.161   1.350   2.901  1.1666 -1.2484 -5.7693
  807SOL    HW2 2421   2.059   1.335   2.774  0.1405 -2.5909  0.4005
  808SOL     OW 2422   0.028   1.580   0.535 -0.8532  0.1861  0.4209
  808SOL    HW1 2423   0.106   1.530   0.572 -0.6747  2.2816 -1.4289
  808SOL    HW2 2424   0.041   1.680   0.547 -1.0168  0.8137 -1.4152
  809SOL     OW 2425   2.590   0.863   2.751 -0.1666  0.0185  0.2969
  809SOL    HW1 2426   2.617   0.962   2.751 -1.1921  2.6073  0.3033
  809SOL    HW2 2427   2.633   0.820   2.833 -0.7653  0.0256  2.0994
  810SOL     OW 2428   1.007   1.169   0.368 -0.2095  0.0104 -0.3233
  810SOL    HW1 2429   1.034   1.158   0.272  1.0039 -0.3983 -1.3988
  810SOL    HW2 2430   0.926   1.111   0.392 -0.9566  1.2039  0.0747
  811SOL     OW 2431   1.254   2.685   1.089 -0.2810  0.1840 -0.5628
  811SOL    HW1 2432   1.229   2.605   1.034 -0.5408 -0.0854 -0.2760
  811SOL    HW2 2433   1.352   2.694   1.081 -1.4216  0.4549  2.3087
  812SOL     OW 2434   0.515   2.457   1.445 -0.3097 -0.3112  0.3569
  812SOL    HW1 2435   0.533   2.435   1.349 -0.5156 -0.6644 -1.7557
  812SOL    HW2 2436   0.434   2.524   1.443  0.0080 -1.3132 -0.5518
  813SOL     OW 2437   1.220   0.243   2.039 -0.2684  0.7287 -0.1183
  813SOL    HW1 2438   1.297   0.313   2.026  1.7731  1.0329  1.7220
  813SOL    HW2 2439   1.221   0.196   2.126 -2.7031  2.1438 -0.3253
  814SOL     OW 2440   1.509   2.824   2.719 -0.6950 -0.0508 -0.0278
  814SOL    HW1 2441   1.594   2.806   2.777  1.2150  1.3548 -0.2843
  814SOL    HW2 2442   1.534   2.849   2.621  1.3432 -1.0050 -2.4249
  815SOL     OW 2443   0.502   0.444   1.722  0.2153 -0.3787 -0.0540
  815SOL    HW1 2444   0.477   0.540   1.690 -0.7609  0.8626  0.5932
  815SOL    HW2 2445   0.605   0.428   1.703  3.8905 -2.0005  0.4479
  816SOL     OW 2446   2.231   0.283   2.932 -0.0741 -0.0459  0.2700
  816SOL    HW1 2447   2.301   0.300   2.858 -0.2602  1.3143 -2.6959
  816SOL    HW2 2448   2.201   0.373   2.968 -1.1953  2.3317 -3.1564
  817SOL     OW 2449   1.995   0.299   2.511 -0.0496 -0.0023  0.1939
  817SOL    HW1 2450   1.958   0.336   2.427  0.0113  1.3525  0.8485
  817SOL    HW2 2451   1.935   0.220   2.534  0.6374  0.4294  0.0294
  818SOL     OW 2452   1.980   0.203   0.190 -0.2207 -0.2217 -0.9128
  818SOL    HW1 2453   2.001   0.105   0.181 -1.9124  2.5364  2.1190
  818SOL    HW2 2454   1.884   0.219   0.223  0.3130  2.0587  0.8440
  819SOL     OW 2455   2.283   1.877   0.015 -0.1703  0.3633 -0.0065
  819SOL    HW1 2456   2.338   1.927   0.084 -0.8416 -1.1081 -2.5707
  819SOL    HW2 2457   2.316   1.904   3.031  0.0267 -0.1349  1.0251
  820SOL     OW 2458   0.253   1.810   0.302 -0.0789  0.2211  0.4510
  820SOL    HW1 2459   0.342   1.770   0.323 -1.8064  1.9014 -1.5884
  820SOL    HW2 2460   0.257   1.911   0.306 -1.1870 -4.2117 -1.2282
  821SOL     OW 2461   0.122   2.399   1.046 -0.2628  0.0853  0.5852
  821SOL    HW1 2462   0.090   2.304   1.081 -1.7549  0.3037  2.5415
  821SOL    HW2 2463   0.199   2.432   1.105  2.3275  1.9021 -0.2773
  822SOL     OW 2464   2.511   2.588   2.737 -0.4111 -0.1192  0.0744
  822SOL    HW1 2465   2.493   2.673   2.780  2.8607 -2.4248 -3.8062
  822SOL    HW2 2466   2.528   2.594   2.637  0.9613 -0.2857  0.2435
  823SOL     OW 2467   1.621   0.241   2.596  0.2765  0.2295  0.1932
  823SOL    HW1 2468   1.547   0.204   2.536 -0.5665 -0.6599 -0.6941
  823SOL    HW2 2469   1.613   0.340   2.613 -0.6341  1.1248 -1.1212
  824SOL     OW 2470   2.757   1.776   1.453 -0.4203  0.2286 -0.0478
  824SOL    HW1 2471   2.701   1.859   1.475 -1.3081  1.5931 -3.1335
  824SOL    HW2 2472   2.854   1.789   1.479  2.3962  0.0341 -0.5220
  825SOL     OW 2473   2.628   1.790   2.609 -0.1987 -0.3957 -0.2640
  825SOL    HW1 2474   2.627   1.880   2.660 -1.6553  1.6286 -0.1098
  825SOL    HW2 2475   2.655   1.819   2.513 -2.5292 -0.1086 -1.0731
  826SOL     OW 2476   2.321   1.275   2.084 -0.3867  0.1255  0.0010
  826SOL    HW1 2477   2.283   1.186   2.122  0.6582  1.6510  1.1760
  826SOL    HW2 2478   2.424   1.282   2.091  1.1176  2.3410  1.3483
  827SOL     OW 2479   1.970   2.244   1.363  0.2486 -0.4995 -0.2145
  827SOL    HW1 2480   1.901   2.315   1.343  1.3081 -1.3814 -1.8931
  827SOL    HW2 2481   1.951   2.196   1.451 -0.6731 -1.2996  0.8585
  828SOL     OW 2482   2.597   2.682   1.585  0.3178  0.4666  0.5168
  828SOL    HW1 2483   2.562   2.589   1.561 -0.3096  1.0009 -0.9883
  828SOL    HW2 2484   2.518   2.741   1.610 -1.7643  1.1752  1.7036
  829SOL     OW 2485   1.592   2.469   2.572  0.4721  0.0133  0.3824
  829SOL    HW1 2486   1.528   2.423   2.631  0.8287 -0.5580 -1.0690
  829SOL    HW2 2487   1.665   2.404   2.543 -0.1586  0.6040 -0.4508
  830SOL     OW 2488   1.563   0.510   0.722 -0.2736  0.1031  0.9453
  830SOL    HW1 2489   1.481   0.499   0.659  0.7596 -1.5196 -0.6911
  830SOL    HW2 2490   1.575   0.422   0.771  1.4926 -0.0854 -1.2808
  831SOL     OW 2491   2.449   1.314   0.048  0.1833 -0.4576  0.4438
  831SOL    HW1 2492   2.454   1.263   0.138  1.1607  0.5049  0.7345
  831SOL    HW2 2493   2.478   1.255   3.079  1.2175  2.2235 -1.4040
  832SOL     OW 2494   1.614   1.843   1.975 -0.0242 -0.0126 -0.7288
  832SOL    HW1 2495   1.581   1.747   1.965 -0.7245 -1.1530  3.3250
  832SOL    HW2 2496   1.713   1.853   1.960  1.7801  0.1515  1.7169
  833SOL     OW 2497   2.881   2.706   2.240  0.1237  0.4194 -0.3471
  833SOL    HW1 2498   2.857   2.632   2.311  1.3323  0.8902  0.1957
  833SOL    HW2 2499   2.798   2.768   2.222 -1.1872 -1.1088  0.7666
  834SOL     OW 2500   0.735   0.959   1.541  0.3002  0.1072  0.6509
  834SOL    HW1 2501   0.787   1.014   1.612  0.7295  0.9659  3.9940
  834SOL    HW2 2502   0.794   0.938   1.459  0.3277 -0.6756 -1.4671
  835SOL     OW 2503   3.079   0.852   2.575  0.0429  0.0618 -0.4668
  835SOL    HW1 2504   3.064   0.783   2.500 -0.9740  0.6389 -0.4144
  835SOL    HW2 2505   3.035   0.939   2.552 -0.8035 -0.6051 -1.4522
  836SOL     OW 2506   1.182   2.211   1.014 -0.0537  0.5120 -0.0182
  836SOL    HW1 2507   1.204   2.271   1.094 -1.1387  2.1478  2.4075
  836SOL    HW2 2508   1.220   2.117   1.039  0.4440 -2.3178  3.3759
  837SOL     OW 2509   1.676   1.119   1.195 -0.2142 -0.3821  0.2348
  837SOL    HW1 2510   1.763   1.173   1.212  0.7851 -0.1788  0.0446
  837SOL    HW2 2511   1.624   1.093   1.280  0.8246 -1.6617 -1.7172
  838SOL     OW 2512   1.303   1.751   2.537 -0.4014 -0.3822  0.0754
  838SOL    HW1 2513   1.258   1.685   2.478  2.2456 -0.3776  0.0393
  838SOL    HW2 2514   1.238   1.779   2.610  2.8402  1.0402 -0.4471
  839SOL     OW 2515   0.725   2.151   2.770  0.1035  0.2062  0.4233
  839SOL    HW1 2516   0.631   2.147   2.731 -1.8909 -0.9896 -2.6999
  839SOL    HW2 2517   0.738   2.218   2.843 -3.2070 -1.8046  0.3776
  840SOL     OW 2518   0.445   2.521   3.056  0.9378 -0.4127 -0.4090
  840SOL    HW1 2519   0.356   2.462   3.055  0.7351  0.9410 -0.4793
  840SOL    HW2 2520   0.514   2.496   2.990 -2.7850  2.2150  1.1733
  841SOL     OW 2521   1.940   2.291   0.118  0.1234  0.4551  0.6113
  841SOL    HW1 2522   1.931   2.219   0.039  1.6805 -1.3250 -0.2759
  841SOL    HW2 2523   1.950   2.387   0.080 -0.9431  1.5504  1.3440
  842SOL     OW 2524   1.031   0.796   2.845 -0.8144 -0.2226  0.1463
  842SOL    HW1 2525   1.035   0.843   2.937  2.7536 -1.5350  0.4063
  842SOL    HW2 2526   1.067   0.858   2.772  0.8771  2.3367 -3.3310
  843SOL     OW 2527   1.074   2.858   0.556 -0.5300  0.1806 -0.5249
  843SOL    HW1 2528   1.074   2.923   0.476 -1.4254  0.3893  0.6437
  843SOL    HW2 2529   1.060   2.913   0.642 -0.8250 -1.7773 -1.0687
  844SOL     OW 2530   2.304   2.958   2.563  0.1355  0.3344 -0.3894
  844SOL    HW1 2531   2.256   3.047   2.575 -2.1860 -2.7460 -0.6322
  844SOL    HW2 2532   2.275   2.893   2.632 -1.9786  0.2319 -1.8791
  845SOL     OW 2533   2.516   2.442   1.419  0.5907 -0.4167  0.4146
  845SOL    HW1 2534   2.415   2.417   1.414 -3.9589  1.1593 -0.7514
  845SOL    HW2 2535   2.553   2.492   1.341 -1.0870 -1.0204  3.0232
  846SOL     OW 2536   2.923   1.996   2.763 -0.0651  0.0105  0.5189
  846SOL    HW1 2537   2.923   2.098   2.772  1.3149  1.4899 -3.4836
  846SOL    HW2 2538   3.001   1.970   2.703 -0.7014  0.3327 -1.0381
  847SOL     OW 2539   1.440   0.641   1.645 -0.2263 -0.2583 -0.1558
  847SOL    HW1 2540   1.444   0.639   1.543  1.5248 -2.3237  2.1908
  847SOL    HW2 2541   1.362   0.583   1.681 -1.4776 -0.8594 -2.4347
  848SOL     OW 2542   2.843   0.304   0.167 -0.4269 -0.5742  0.0006
  848SOL    HW1 2543   2.825   0.237   0.096  0.7085  0.8936  1.1612
  848SOL    HW2 2544   2.940   0.326   0.164 -0.3813  0.0970 -0.3296
  849SOL     OW 2545   0.563   0.164   2.855  0.5128 -0.0474 -0.1286
  849SOL    HW1 2546   0.650   0.138   2.892  1.2472 -0.6095  0.4467
  849SOL    HW2 2547   0.501   0.171   2.936  0.0523  1.3467 -0.7570
  850SOL     OW 2548   0.947   2.507   0.849 -0.2258  0.0628  0.1210
  850SOL    HW1 2549   0.864   2.448   0.858  2.2780 -3.4487  1.6173
  850SOL    HW2 2550   0.938   2.572   0.769 -0.1649  0.6079 -0.6491
  851SOL     OW 2551   2.417   0.174   2.209 -0.2150  0.0545 -0.2270
  851SOL    HW1 2552   2.420   0.206   2.113  0.2607  1.3582 -2.9740
  851SOL    HW2 2553   2.435   0.244   2.278 -0.6900 -1.8219 -0.5766
  852SOL     OW 2554   1.815   1.432   2.199 -0.4422  0.1546  0.3284
  852SOL    HW1 2555   1.789   1.476   2.289  0.2564  1.7725  1.3528
  852SOL    HW2 2556   1.845   1.334   2.206  1.8135  0.0846  0.8958
  853SOL     OW 2557   2.785   2.545   0.715  0.1132 -0.3449  0.0299
  853SOL    HW1 2558   2.875   2.523   0.763  0.2610 -2.1268 -0.0291
  853SOL    HW2 2559   2.734   2.613   0.769  1.0427 -1.4396  1.3959
  854SOL     OW 2560   2.458   0.774   1.037 -0.1332 -0.0765  0.0193
  854SOL    HW1 2561   2.509   0.796   0.951 -0.9671 -0.1922  0.4875
  854SOL    HW2 2562   2.364   0.743   1.006  1.3664  2.0218 -0.3330
  855SOL     OW 2563   1.384   2.195   0.589  0.0772  0.7761 -0.3585
  855SOL    HW1 2564   1.344   2.218   0.496 -1.6310  0.5152  0.0013
  855SOL    HW2 2565   1.483   2.205   0.593 -0.3848 -2.3090  3.7448
  856SOL     OW 2566   2.918   0.483   2.867 -0.1079 -0.1131 -0.0629
  856SOL    HW1 2567   2.891   0.425   2.787  3.7391  0.9640 -0.0699
  856SOL    HW2 2568   2.997   0.440   2.916  1.4296  0.3644 -0.7275
  857SOL     OW 2569   1.587   2.985   1.925 -0.2268  0.3029 -0.0632
  857SOL    HW1 2570   1.670   2.925   1.900  1.8575 -0.8974 -1.4533
  857SOL    HW2 2571   1.605   3.088   1.945 -2.6891  0.3965  1.1355
  858SOL     OW 2572   2.382   2.103   1.505 -0.0833 -0.4708 -0.2615
  858SOL    HW1 2573   2.476   2.079   1.471  1.9402  0.0538 -1.2425
  858SOL    HW2 2574   2.316   2.032   1.482 -1.3105  0.2732  0.1574
  859SOL     OW 2575   1.507   2.373   1.127 -0.1315  0.2628  0.3066
  859SOL    HW1 2576   1.424   2.351   1.180 -0.1017  2.1270 -0.5251
  859SOL    HW2 2577   1.570   2.424   1.187 -1.1692 -2.4454  0.0058
  860SOL     OW 2578   2.492   2.570   0.108  0.7956  0.1913 -0.0239
  860SOL    HW1 2579   2.584   2.573   0.067  2.4279  2.4709  1.5223
  860SOL    HW2 2580   2.464   2.479   0.130  1.4648  1.8394  0.2497
  861SOL     OW 2581   1.542   2.599   0.967 -0.0153 -0.0217  0.3615
  861SOL    HW1 2582   1.514   2.521   1.023 -1.8334 -0.5346 -0.8103
  861SOL    HW2 2583   1.639   2.594   0.938 -0.7024  0.8570  0.4351
  862SOL     OW 2584   1.874   2.915   2.642 -0.1215 -0.1930 -0.1365
  862SOL    HW1 2585   1.966   2.875   2.613  1.1797  0.7566  1.0070
  862SOL    HW2 2586   1.876   3.018   2.642  1.2250 -2.0767 -4.0945
  863SOL     OW 2587   0.176   0.574   0.358 -0.0693  0.2208  0.3612
  863SOL    HW1 2588   0.172   0.499   0.426  1.3399  1.6055 -2.1688
  863SOL    HW2 2589   0.252   0.635   0.379 -0.2813 -3.1313 -0.6175
  864SOL     OW 2590   2.858   2.406   2.049  0.9353 -0.4257  0.4561
  864SOL    HW1 2591   2.940   2.454   2.025 -0.3301 -3.9394  1.4194
  864SOL    HW2 2592   2.800   2.461   2.116  0.4169  2.5220  0.7789
  865SOL     OW 2593   0.114   2.094   2.866  0.5169 -0.5720  0.4883
  865SOL    HW1 2594   0.078   2.047   2.783  1.3928 -3.1360 -0.3544
  865SOL    HW2 2595   0.169   2.172   2.836 -1.5851 -2.2834 -0.2107
  866SOL     OW 2596   2.598   0.463   2.767  0.1231  0.0480 -0.1470
  866SOL    HW1 2597   2.674   0.400   2.763 -1.1192  0.1322  1.9677
  866SOL    HW2 2598   2.613   0.512   2.854  2.4834 -0.6061  1.5442
  867SOL     OW 2599   0.383   2.857   2.737  0.4617  0.6151  0.2296
  867SOL    HW1 2600   0.470   2.909   2.729 -2.6027 -1.0568  0.5607
  867SOL    HW2 2601   0.308   2.915   2.701  1.0185 -1.8906 -0.3296
  868SOL     OW 2602   1.370   2.600   0.747  0.2189 -0.4159 -0.0394
  868SOL    HW1 2603   1.441   2.608   0.814 -2.6182 -0.3587 -0.8087
  868SOL    HW2 2604   1.289   2.549   0.785 -0.3016  1.0591 -0.0707
  869SOL     OW 2605   1.504   1.412   1.248  0.0331 -0.0493  0.2927
  869SOL    HW1 2606   1.600   1.423   1.214 -0.8384  1.2370 -1.2192
  869SOL    HW2 2607   1.475   1.484   1.315  0.1741 -0.1870 -2.1942
  870SOL     OW 2608   1.873   2.144   0.990  0.5116 -0.8300 -0.2326
  870SOL    HW1 2609   1.939   2.224   0.993 -1.4550 -1.9648  0.6400
  870SOL    HW2 2610   1.865   2.104   1.083 -0.2075  0.6938  1.0157
  871SOL     OW 2611   1.092   1.890   1.208  0.3054 -0.0772  1.2382
  871SOL    HW1 2612   1.077   1.792   1.238 -3.1562 -0.2191  1.3267
  871SOL    HW2 2613   1.186   1.905   1.178  2.0211 -0.9443 -0.2351
  872SOL     OW 2614   1.288   1.266   1.222 -0.4890  0.4824 -0.0261
  872SOL    HW1 2615   1.207   1.328   1.244 -1.2526  1.8774  1.7654
  872SOL    HW2 2616   1.379   1.322   1.230  4.1351 -0.8260 -0.8522
  873SOL     OW 2617   1.112   0.921   2.340  0.4487  0.2862 -0.4661
  873SOL    HW1 2618   1.037   0.921   2.411  0.2023 -0.9573  0.6252
  873SOL    HW2 2619   1.200   0.928   2.384  1.3267 -0.8946  0.3864
  874SOL     OW 2620   0.425   1.138   1.195 -0.3155  0.0512 -0.4839
  874SOL    HW1 2621   0.334   1.145   1.244  1.7129 -1.1651  0.2234
  874SOL    HW2 2622   0.427   1.188   1.105 -2.3292 -2.9915 -1.5993
  875SOL     OW 2623   2.882   2.769   0.530 -0.2157  0.1165 -0.8343
  875SOL    HW1 2624   2.859   2.704   0.600  1.2436  1.9816 -1.0781
  875SOL    HW2 2625   2.820   2.852   0.534  2.4933 -1.1078  1.7319
  876SOL     OW 2626   1.120   0.333   2.837  0.3602 -0.6098 -0.2492
  876SOL    HW1 2627   1.090   0.253   2.786  0.3766  0.9674  0.5070
  876SOL    HW2 2628   1.059   0.415   2.822  0.3483 -0.1733 -1.7273
  877SOL     OW 2629   0.181   2.926   1.388  0.3895  0.1750  0.0805
  877SOL    HW1 2630   0.225   2.995   1.445  0.2722 -0.6076 -1.0756
  877SOL    HW2 2631   0.185   2.965   1.293  0.3460  1.4822 -1.7616
  878SOL     OW 2632   2.030   2.504   3.052  0.2042  0.2556 -0.1257
  878SOL    HW1 2633   1.995   2.473   2.960 -2.3744  0.7133  0.3692
  878SOL    HW2 2634   2.107   2.576   3.049  2.5464 -0.7214 -0.9112
  879SOL     OW 2635   2.195   1.736   1.691 -0.2891 -0.1952  0.1492
  879SOL    HW1 2636   2.227   1.747   1.594 -1.2035  1.0912  1.1833
  879SOL    HW2 2637   2.228   1.638   1.719  1.8515 -4.2219  0.2733
  880SOL     OW 2638   0.835   0.944   1.291 -0.6696  0.6285 -0.0141
  880SOL    HW1 2639   0.930   0.943   1.250  0.4658 -2.6039  0.7278
  880SOL    HW2 2640   0.778   0.874   1.240  0.0437 -1.7278 -3.4122
  881SOL     OW 2641   1.165   1.980   3.077 -0.3369  0.1395 -0.7814
  881SOL    HW1 2642   1.245   2.020   3.030 -1.2407  0.1458 -0.2357
  881SOL    HW2 2643   1.194   1.939   0.057  1.7911  0.2643  2.4182
  882SOL     OW 2644   1.851   0.457   0.908  0.4027 -0.0441  0.3832
  882SOL    HW1 2645   1.809   0.542   0.943  3.5803 -0.0583  0.0675
  882SOL    HW2 2646   1.853   0.379   0.978  0.2939 -2.2143  0.1806
  883SOL     OW 2647   1.946   0.539   2.118  0.0786 -0.2559 -0.1780
  883SOL    HW1 2648   1.882   0.606   2.164 -0.6414  1.0977 -1.4436
  883SOL    HW2 2649   1.923   0.527   2.020 -0.5470 -0.3213  1.2081
  884SOL     OW 2650   2.728   0.552   0.134  0.0562  1.0884 -0.0881
  884SOL    HW1 2651   2.773   0.460   0.164  1.9034 -0.9619  3.7735
  884SOL    HW2 2652   2.692   0.547   0.042  1.2404  2.3341  1.1657
  885SOL     OW 2653   0.910   1.943   0.550  0.2252  0.0285  0.8773
  885SOL    HW1 2654   1.004   1.975   0.573  0.9025 -2.9880 -0.2715
  885SOL    HW2 2655   0.849   1.943   0.635 -0.8142 -0.3360  5.2276
  886SOL     OW 2656   1.744   1.582   0.079 -0.1662  0.2287 -0.1112
  886SOL    HW1 2657   1.675   1.552   0.154 -2.3195 -0.7124  2.8071
  886SOL    HW2 2658   1.782   1.674   0.108 -0.2044 -1.9495  0.9983
  887SOL     OW 2659   1.779   0.719   1.468 -0.3584 -0.5065  0.2909
  887SOL    HW1 2660   1.687   0.729   1.509  1.6757 -1.1719 -1.2912
  887SOL    HW2 2661   1.841   0.800   1.471  0.4940  0.9002 -0.1649
  888SOL     OW 2662   2.802   1.227   1.604 -0.2728 -0.4823 -0.3273
  888SOL    HW1 2663   2.785   1.241   1.505  0.1872 -1.4813 -0.4324
  888SOL    HW2 2664   2.749   1.146   1.636 -2.0644 -1.3466 -2.2250
  889SOL     OW 2665   3.024   2.488   0.820 -0.4251 -0.5792 -0.0335
  889SOL    HW1 2666   3.079   2.569   0.801 -1.5405 -1.7644 -0.0515
  889SOL    HW2 2667   3.040   2.449   0.912 -1.7854 -1.1388  1.4725
  890SOL     OW 2668   0.081   2.116   2.375  0.0868 -0.8040 -0.4253
  890SOL    HW1 2669   0.146   2.043   2.385 -0.0298  1.3715  0.7616
  890SOL    HW2 2670   0.096   2.156   2.282  3.7630 -0.4119 -1.2690
  891SOL     OW 2671   0.715   1.872   0.338  0.2511 -0.4099 -0.6108
  891SOL    HW1 2672   0.774   1.954   0.338 -0.2374  1.0289  0.9101
  891SOL    HW2 2673   0.766   1.782   0.332  3.6678  0.0723 -0.9478
  892SOL     OW 2674   2.992   2.403   1.366 -0.4676  0.3236  0.2271
  892SOL    HW1 2675   2.983   2.457   1.451  0.5293  0.1306 -3.4281
  892SOL    HW2 2676   2.974   2.303   1.377 -0.7850  1.4025  1.8942
  893SOL     OW 2677   0.111   0.171   1.763  0.3770 -0.2477 -0.3862
  893SOL    HW1 2678   0.076   0.233   1.837 -1.6129  3.5729 -1.6446
  893SOL    HW2 2679   0.055   0.083   1.768 -0.5099 -2.4564  1.2548
  894SOL     OW 2680   2.690   1.759   0.799  0.1037 -0.1647  0.3089
  894SOL    HW1 2681   2.745   1.679   0.772 -2.7630 -0.2687  2.7508
  894SOL    HW2 2682   2.733   1.840   0.754  3.9609  2.1199 -0.9247
  895SOL     OW 2683   1.981   2.455   1.654 -0.1499  0.0556 -0.1407
  895SOL    HW1 2684   2.056   2.403   1.700 -0.8065  0.8131 -4.2026
  895SOL    HW2 2685   2.017   2.499   1.569 -2.4228 -0.5487  2.6860
  896SOL     OW 2686   0.674   0.052   1.460 -0.1605  0.0595 -0.1453
  896SOL    HW1 2687   0.598   0.038   1.397 -0.5558  1.5801  1.3613
  896SOL    HW2 2688   0.645   0.066   1.556  2.1281  1.4369 -0.5286
  897SOL     OW 2689   1.142   1.162   1.555 -0.3950 -0.1235  0.6715
  897SOL    HW1 2690   1.132   1.066   1.588 -0.2658 -1.2568  0.0740
  897SOL    HW2 2691   1.236   1.198   1.565 -1.2175 -2.8045  2.9379
  898SOL     OW 2692   1.202   3.061   1.689 -0.1277 -0.3285  0.2369
  898SOL    HW1 2693   1.136   2.990   1.705  0.3761 -0.0190 -1.3130
  898SOL    HW2 2694   1.253   3.057   1.601 -0.0881  2.9754 -3.5736
  899SOL     OW 2695   1.259   0.347   3.083  0.2208  0.5461  0.2993
  899SOL    HW1 2696   1.357   0.320   3.065  3.8007 -2.2203  1.9940
  899SOL    HW2 2697   1.206   0.339   2.997  0.4309  1.0368  3.5760
  900SOL     OW 2698   0.722   3.042   2.077  0.3383 -0.3981  0.0902
  900SOL    HW1 2699   0.780   3.050   1.992 -2.0229 -1.0405 -3.0476
  900SOL    HW2 2700   0.717   0.024   2.130  0.5849  2.2239  1.8543
  901SOL     OW 2701   0.795   2.240   0.396  0.0833  0.3409  0.4203
  901SOL    HW1 2702   0.869   2.283   0.450  1.9913  0.3098 -0.7965
  901SOL    HW2 2703   0.839   2.171   0.338  0.9281  0.0298 -0.2003
  902SOL     OW 2704   2.171   0.660   1.022  0.0697  0.4079 -0.1593
  902SOL    HW1 2705   2.107   0.706   0.959  0.4446 -0.9857 -0.3043
  902SOL    HW2 2706   2.149   0.558   1.025 -0.0484  0.4921 -0.4406
  903SOL     OW 2707   2.730   1.129   2.726  0.1130  0.0365  0.2000
  903SOL    HW1 2708   2.753   1.229   2.722 -2.5709  2.3943 -2.1449
  903SOL    HW2 2709   2.786   1.076   2.656 -0.8636 -0.1560  0.3374
  904SOL     OW 2710   1.436   1.316   0.134  0.5212 -0.1691 -0.4130
  904SOL    HW1 2711   1.523   1.268   0.110  2.3653 -0.6235 -0.8882
  904SOL    HW2 2712   1.398   1.366   0.051  0.1727  0.4868 -1.0031
  905SOL     OW 2713   1.803   3.107   1.562 -0.1027  0.2573  0.1050
  905SOL    HW1 2714   1.866   3.053   1.627  3.8703 -4.9449  3.9367
  905SOL    HW2 2715   1.858   0.028   1.478  0.7845  1.3567 -1.0400
  906SOL     OW 2716   2.257   2.948   1.086  0.0990 -0.1115 -0.0711
  906SOL    HW1 2717   2.319   3.026   1.111 -0.7389  1.5968 -2.5285
  906SOL    HW2 2718   2.269   2.924   0.984 -0.6762 -0.3257 -0.4944
  907SOL     OW 2719   1.792   0.997   0.427  0.5788 -0.4034  0.0307
  907SOL    HW1 2720   1.745   0.936   0.359  0.0777  1.2309 -0.3801
  907SOL    HW2 2721   1.755   1.091   0.425  2.2828  1.3324 -3.4051
  908SOL     OW 2722   1.895   0.353   1.323 -0.7741 -0.1102 -0.1270
  908SOL    HW1 2723   1.799   0.345   1.355  2.8141  2.8831 -0.9842
  908SOL    HW2 2724   1.918   0.447   1.307  1.2184 -2.7878 -0.9687
  909SOL     OW 2725   2.295   0.111   0.791  0.0759  0.3126  0.0271
  909SOL    HW1 2726   2.229   0.153   0.726 -0.3986 -1.7544  1.3253
  909SOL    HW2 2727   2.348   0.180   0.843 -1.1042  2.3069 -1.6063
  910SOL     OW 2728   2.468   0.605   2.119 -0.0185 -0.2929 -0.3224
  910SOL    HW1 2729   2.519   0.680   2.078  0.4217  1.1626 -0.1131
  910SOL    HW2 2730   2.369   0.622   2.098  1.3439  1.5630 -0.4038
  911SOL     OW 2731   2.642   0.099   2.976  0.0495 -0.2917 -0.6297
  911SOL    HW1 2732   2.594   0.158   3.049 -0.6631 -0.9676  1.6714
  911SOL    HW2 2733   2.667   0.154   2.893 -0.0071 -0.0484  0.0455
  912SOL     OW 2734   0.570   1.054   1.783 -0.4146  0.4544  0.2637
  912SOL    HW1 2735   0.622   0.996   1.717  0.5623 -0.4629  2.2074
  912SOL    HW2 2736   0.633   1.121   1.826 -0.6280  1.5531  1.5490
  913SOL     OW 2737   2.707   2.309   1.548  0.1414  0.2246 -0.0833
  913SOL    HW1 2738   2.723   2.350   1.640  0.3562 -1.1360  0.1741
  913SOL    HW2 2739   2.637   2.360   1.486 -1.0272  1.5410 -0.8056
  914SOL     OW 2740   1.945   0.920   1.520 -0.2727 -0.1771  0.3386
  914SOL    HW1 2741   2.002   0.983   1.576  0.7835  0.1185  1.6666
  914SOL    HW2 2742   1.993   0.889   1.432 -1.6216 -0.9980 -2.0706
  915SOL     OW 2743   2.833   1.435   1.092 -0.4400  0.1368  0.1809
  915SOL    HW1 2744   2.832   1.532   1.064 -4.2774 -4.4575  3.4847
  915SOL    HW2 2745   2.924   1.391   1.075  1.1032 -2.2370 -1.4249
  916SOL     OW 2746   2.009   2.374   1.031  0.6379 -0.2963  0.5744
  916SOL    HW1 2747   1.968   2.431   1.111 -2.5698  1.4543  3.7875
  916SOL    HW2 2748   1.990   2.420   0.937 -0.4954  0.4774 -1.2250
  917SOL     OW 2749   1.702   2.602   2.118 -0.0308  0.5442  0.0248
  917SOL    HW1 2750   1.692   2.619   2.220  0.3567  0.6171  0.7061
  917SOL    HW2 2751   1.618   2.565   2.071 -0.6513 -1.1113  2.5689
  918SOL     OW 2752   1.934   2.544   2.390  0.3310 -0.5552 -0.2787
  918SOL    HW1 2753   1.959   2.517   2.293  0.5465  1.5759  0.8625
  918SOL    HW2 2754   1.832   2.569   2.394 -0.2833  0.1973  2.6927
  919SOL     OW 2755   0.918   0.140   1.395  0.4562  0.3128  0.3930
  919SOL    HW1 2756   0.816   0.133   1.419 -4.3426  2.5737  1.0831
  919SOL    HW2 2757   0.968   0.203   1.464  1.0923  1.6997  0.1904
  920SOL     OW 2758   2.740   0.455   2.254  0.1825  0.3311 -0.0629
  920SOL    HW1 2759   2.637   0.450   2.256  0.1348 -0.6703  0.1181
  920SOL    HW2 2760   2.777   0.377   2.309  2.4937 -2.7471  3.0201
  921SOL     OW 2761   3.063   1.202   1.650 -0.7049 -0.0442 -0.2483
  921SOL    HW1 2762   3.065   1.123   1.588  0.0399  0.4564  0.2529
  921SOL    HW2 2763   2.966   1.231   1.657  0.6689 -1.8053  1.5932
  922SOL     OW 2764   2.689   2.290   0.784  0.2828 -0.1877  0.5576
  922SOL    HW1 2765   2.720   2.379   0.742  1.9566 -0.1659  3.2229
  922SOL    HW2 2766   2.664   2.299   0.883 -3.4048 -0.4140 -0.0689
  923SOL     OW 2767   0.535   2.508   0.620 -0.0542  0.1436  0.3436
  923SOL    HW1 2768   0.553   2.412   0.600  0.5244 -0.5492  0.6502
  923SOL    HW2 2769   0.511   2.516   0.720  0.8620  0.3167  2.3552
  924SOL     OW 2770   1.165   0.961   2.660  0.2959  0.1729 -0.2826
  924SOL    HW1 2771   1.163   1.057   2.696 -2.8941  1.3267  0.1238
  924SOL    HW2 2772   1.247   0.949   2.598 -0.5804  1.3906  2.2677
  925SOL     OW 2773   2.774   1.340   0.687 -0.5272 -0.1996  0.1863
  925SOL    HW1 2774   2.700   1.409   0.709  0.8727  1.4451 -1.1836
  925SOL    HW2 2775   2.742   1.253   0.637 -2.4112 -3.9117 -1.7434
  926SOL     OW 2776   3.020   0.067   0.804 -0.0021  0.1318  0.3945
  926SOL    HW1 2777   0.010   0.098   0.805  3.3264 -0.8376  0.8780
  926SOL    HW2 2778   3.017   0.000   0.882  2.3065  0.7255  2.7341
  927SOL     OW 2779   0.440   1.893   2.670  0.4107  0.1600 -0.0333
  927SOL    HW1 2780   0.432   1.816   2.739 -0.1882  0.1296  1.1729
  927SOL    HW2 2781   0.373   1.887   2.596 -0.9255  0.9281  0.6101
  928SOL     OW 2782   0.113   0.452   2.202 -0.1846  0.6835  0.6059
  928SOL    HW1 2783   0.137   0.358   2.240 -1.7914  0.3638 -0.0375
  928SOL    HW2 2784   0.182   0.523   2.221  0.9208 -0.6784  0.1831
  929SOL     OW 2785   2.755   2.059   1.134  0.0624  0.2049 -0.4114
  929SOL    HW1 2786   2.797   1.990   1.069 -1.8628 -1.3869 -1.7318
  929SOL    HW2 2787   2.737   2.147   1.084 -0.9822  1.5054 -2.4419
  930SOL     OW 2788   1.853   0.330   2.260 -0.3546  0.2637  0.1064
  930SOL    HW1 2789   1.757   0.364   2.269  2.4211  0.9579 -0.6752
  930SOL    HW2 2790   1.907   0.390   2.194  0.0387  3.2277  0.4216
  931SOL     OW 2791   2.264   1.090   2.850 -0.1288  0.0114 -0.0712
  931SOL    HW1 2792   2.230   1.179   2.822  2.0855 -3.2993  0.6650
  931SOL    HW2 2793   2.213   1.020   2.804  1.7281  1.3482  0.8036
  932SOL     OW 2794   1.951   1.218   0.790 -0.2924  0.4501  0.0287
  932SOL    HW1 2795   1.892   1.134   0.790  1.7190  1.0150 -1.2992
  932SOL    HW2 2796   1.910   1.279   0.719 -1.4119 -0.1153  1.3220
  933SOL     OW 2797   2.250   1.500   1.002  0.0824  0.3325 -0.1217
  933SOL    HW1 2798   2.218   1.415   1.043  1.3741  3.4960 -0.7632
  933SOL    HW2 2799   2.264   1.487   0.901  1.4493  0.9422 -1.8261
  934SOL     OW 2800   2.096   0.838   2.839 -0.3645  0.3310  0.3285
  934SOL    HW1 2801   2.062   0.751   2.797 -1.1046 -0.3064  2.2031
  934SOL    HW2 2802   2.176   0.814   2.901 -0.9813 -1.1596  3.3416
  935SOL     OW 2803   0.206   1.390   0.667 -0.0304 -0.5936 -0.1643
  935SOL    HW1 2804   0.248   1.339   0.590  0.5319  1.1479 -0.7369
  935SOL    HW2 2805   0.124   1.346   0.701 -0.4492 -0.0689 -0.8205
  936SOL     OW 2806   0.090   2.676   0.762 -0.2048 -0.2144 -0.0596
  936SOL    HW1 2807   0.112   2.770   0.736 -0.6774  0.3216 -1.0186
  936SOL    HW2 2808   0.174   2.623   0.773 -3.7919  0.0490  0.3652
  937SOL     OW 2809   0.100   2.384   1.665  0.1456  0.6740 -0.5449
  937SOL    HW1 2810   0.101   2.348   1.567 -0.4665 -0.2705 -3.3082
  937SOL    HW2 2811   0.095   2.304   1.732 -2.2551 -1.1166 -0.8363
  938SOL     OW 2812   2.675   2.079   0.029  0.4668  0.0320  0.0321
  938SOL    HW1 2813   2.741   2.124   0.092 -1.5128  0.8639 -1.1461
  938SOL    HW2 2814   2.719   1.992   3.107  0.0776  3.1047 -0.4254
  939SOL     OW 2815   1.090   0.972   1.202  0.1653 -0.7892 -0.7022
  939SOL    HW1 2816   1.065   1.049   1.142  2.5572  1.5618 -1.0593
  939SOL    HW2 2817   1.127   0.895   1.149 -0.8583 -1.1776  0.9439
  940SOL     OW 2818   2.722   0.209   2.758  0.0964  0.5184 -0.3407
  940SOL    HW1 2819   2.673   0.133   2.712 -0.1873  1.0219  1.7005
  940SOL    HW2 2820   2.810   0.224   2.715 -1.4098 -0.4859  1.0980
  941SOL     OW 2821   2.534   2.687   2.451 -0.0437 -0.4198  0.2185
  941SOL    HW1 2822   2.579   2.599   2.429  0.6243  0.8777 -2.0713
  941SOL    HW2 2823   2.459   2.716   2.386 -0.9501  3.0840 -0.7867
  942SOL     OW 2824   1.474   0.435   1.297 -0.8131 -0.1500 -0.1132
  942SOL    HW1 2825   1.450   0.431   1.200  1.6513 -1.7974  1.2379
  942SOL    HW2 2826   1.453   0.526   1.335  0.1658 -0.7011  2.1687
  943SOL     OW 2827   0.679   1.582   2.505 -0.2408 -0.3615  0.3066
  943SOL    HW1 2828   0.659   1.608   2.410  3.0355  2.2712  0.3840
  943SOL    HW2 2829   0.687   1.670   2.562 -1.0655  0.8108 -0.0562
  944SOL     OW 2830   2.302   0.933   0.735 -0.4086 -0.2191  0.2984
  944SOL    HW1 2831   2.215   0.887   0.750  1.8955 -0.3733 -1.8209
  944SOL    HW2 2832   2.303   1.018   0.789  1.0592  0.5150  2.6149
  945SOL     OW 2833   3.026   2.992   3.010 -0.1455 -0.7052 -0.0528
  945SOL    HW1 2834   3.075   2.995   2.920 -1.7359 -3.7532  0.1414
  945SOL    HW2 2835   3.092   2.997   3.092  1.4521  1.8955  2.1023
  946SOL     OW 2836   0.133   1.288   1.473 -0.1750  0.0089 -0.3327
  946SOL    HW1 2837   0.228   1.321   1.496  3.0984  0.2026 -0.3371
  946SOL    HW2 2838   0.075   1.262   1.550  0.9697  0.5539  0.3264
  947SOL     OW 2839   0.924   0.069   0.050  0.5873  0.3984 -0.5687
  947SOL    HW1 2840   1.024   0.050   0.074 -1.6961  0.3359  2.0286
  947SOL    HW2 2841   0.879   3.087   0.030  1.1272 -3.4945  0.6179
  948SOL     OW 2842   2.347   1.663   1.181  0.3292 -0.0302  0.0955
  948SOL    HW1 2843   2.449   1.650   1.186  2.8597  0.7703 -0.7952
  948SOL    HW2 2844   2.300   1.597   1.116 -1.7932 -1.8847  1.7404
  949SOL     OW 2845   0.292   0.845   2.903 -0.2348  0.2638 -0.4058
  949SOL    HW1 2846   0.328   0.925   2.955  0.3536  0.9335 -0.7397
  949SOL    HW2 2847   0.231   0.881   2.829 -2.0360 -1.1155  0.1567
  950SOL     OW 2848   0.319   2.477   1.186  0.4085 -0.3137 -0.1355
  950SOL    HW1 2849   0.324   2.543   1.265  0.5658 -0.8025 -1.6699
  950SOL    HW2 2850   0.405   2.424   1.168  1.4887 -2.3451  0.2306
  951SOL     OW 2851   0.905   1.708   2.798 -0.2473  0.1789 -0.4993
  951SOL    HW1 2852   0.856   1.694   2.890  0.2756  1.4955 -1.1644
  951SOL    HW2 2853   0.854   1.776   2.740  2.8071  1.5603  1.2074
  952SOL     OW 2854   0.610   1.364   0.468 -0.3541  0.0233 -0.4235
  952SOL    HW1 2855   0.615   1.268   0.495 -1.4905  0.9153  2.7969
  952SOL    HW2 2856   0.571   1.431   0.535 -1.1703  1.5355 -0.4815
  953SOL     OW 2857   2.331   1.977   2.869  0.3300  0.2707  0.7929
  953SOL    HW1 2858   2.342   2.005   2.772 -0.4518  0.2616 -0.7380
  953SOL    HW2 2859   2.385   2.039   2.934  1.8388  0.7068  1.1750
  954SOL     OW 2860   1.655   0.752   0.747 -0.1678  0.0944  0.3520
  954SOL    HW1 2861   1.607   0.660   0.741  0.3412 -0.6978  1.9114
  954SOL    HW2 2862   1.684   0.762   0.849 -0.6269  0.8190 -1.4936
  955SOL     OW 2863   0.906   1.969   3.090 -0.5813  0.4756  0.4776
  955SOL    HW1 2864   0.868   2.057   3.055  0.2276 -0.0866  1.8883
  955SOL    HW2 2865   1.005   1.960   3.065  1.7766  1.4175 -0.4422
  956SOL     OW 2866   2.708   0.523   1.925 -0.1338 -0.9938  0.5633
  956SOL    HW1 2867   2.601   0.512   1.925 -1.7478 -0.9300  0.7486
  956SOL    HW2 2868   2.753   0.560   2.008  0.7279  1.6731 -0.8206
  957SOL     OW 2869   1.715   2.120   2.223 -0.1898  0.4231 -0.0057
  957SOL    HW1 2870   1.694   2.035   2.281 -2.1405 -0.4269 -1.8697
  957SOL    HW2 2871   1.800   2.120   2.169 -1.5466 -0.9777 -0.0470
  958SOL     OW 2872   1.718   1.039   1.663 -0.0752 -0.2964 -0.2918
  958SOL    HW1 2873   1.709   1.139   1.636  1.2635 -0.9418 -2.3719
  958SOL    HW2 2874   1.802   1.001   1.629 -2.1370  2.2511  1.1175
  959SOL     OW 2875   1.447   1.912   2.192  0.4085  0.6780  0.4364
  959SOL    HW1 2876   1.492   1.895   2.099  2.0325  0.9670 -2.1030
  959SOL    HW2 2877   1.431   1.825   2.239  0.3103 -3.0832 -1.2232
  960SOL     OW 2878   0.496   0.680   2.803  0.1812  0.2139 -0.3980
  960SOL    HW1 2879   0.422   0.747   2.829  0.8535 -0.5705 -0.2820
  960SOL    HW2 2880   0.539   0.639   2.887 -3.0671 -0.2153 -2.1116
  961SOL     OW 2881   0.085   1.107   3.086  0.5606 -0.7230 -0.0963
  961SOL    HW1 2882   3.091   1.093   0.003  0.6806 -1.8547  0.1124
  961SOL    HW2 2883   0.111   1.205   3.097 -1.8357 -1.1563 -0.4703
  962SOL     OW 2884   1.020   2.084   2.809 -0.0852 -0.0751  0.0154
  962SOL    HW1 2885   0.920   2.075   2.809 -1.7826  2.5925 -0.0161
  962SOL    HW2 2886   1.043   2.163   2.873 -2.5027 -0.0094 -0.5671
  963SOL     OW 2887   3.100   1.750   0.185 -0.2883  0.3452  0.2916
  963SOL    HW1 2888   3.072   1.773   0.092  1.5166  0.9748 -1.3829
  963SOL    HW2 2889   0.088   1.767   0.203 -0.0692 -1.2261 -2.0115
  964SOL     OW 2890   0.645   2.269   2.092 -0.3866  0.0167  0.0927
  964SOL    HW1 2891   0.548   2.289   2.087  3.9272 -1.5035  2.7846
  964SOL    HW2 2892   0.710   2.348   2.081  2.5615  0.6272 -1.5067
  965SOL     OW 2893   1.582   1.646   1.644 -0.3300 -0.3146  0.4077
  965SOL    HW1 2894   1.672   1.605   1.616 -2.4494 -1.9486  1.8880
  965SOL    HW2 2895   1.560   1.619   1.739  1.5645  0.1974 -2.8721
  966SOL     OW 2896   2.974   1.555   0.328  0.3252 -0.0682 -0.6953
  966SOL    HW1 2897   3.021   1.545   0.420  1.6065 -1.8794  1.0577
  966SOL    HW2 2898   3.024   1.620   0.267 -0.4686  2.9121  0.8965
  967SOL     OW 2899   2.102   2.687   2.152  0.4371 -0.0875  0.0786
  967SOL    HW1 2900   2.063   2.595   2.136  0.8355  0.5509 -0.8781
  967SOL    HW2 2901   2.115   2.733   2.059 -2.4026  0.0548 -1.4813
  968SOL     OW 2902   1.415   0.943   0.154 -0.2159 -0.1271  0.3950
  968SOL    HW1 2903   1.512   0.981   0.150 -1.2924  0.5756 -0.7707
  968SOL    HW2 2904   1.408   0.874   0.079  0.4949 -1.3801  0.4513
  969SOL     OW 2905   0.382   1.306   2.440 -0.6111  0.6415 -0.1384
  969SOL    HW1 2906   0.449   1.269   2.369  1.1279 -1.5506 -1.9661
  969SOL    HW2 2907   0.299   1.247   2.451 -1.5558  3.4639 -1.4425
  970SOL     OW 2908   2.183   2.789   0.621 -0.0278 -0.0292  0.0235
  970SOL    HW1 2909   2.215   2.856   0.555 -1.7495  0.2153  0.3797
  970SOL    HW2 2910   2.081   2.797   0.630  0.8386  0.4297  0.0137
  971SOL     OW 2911   2.239   2.193   0.663 -0.2603 -0.2431  0.3970
  971SOL    HW1 2912   2.249   2.217   0.759 -1.2252 -0.1996 -0.3345
  971SOL    HW2 2913   2.270   2.269   0.598  0.3640  1.8154 -0.7923
  972SOL     OW 2914   0.193   1.445   2.713  0.0749  0.0931 -0.5976
  972SOL    HW1 2915   0.184   1.433   2.608 -0.1394 -2.0709 -2.2854
  972SOL    HW2 2916   0.286   1.454   2.738 -1.8134 -0.5883 -0.1885
  973SOL     OW 2917   0.716   0.423   0.307 -0.1188 -0.1319  0.0765
  973SOL    HW1 2918   0.791   0.407   0.235 -1.5900  0.5633  1.5164
  973SOL    HW2 2919   0.752   0.500   0.367 -0.4272 -4.7074 -0.7714
  974SOL     OW 2920   2.629   1.012   1.622  0.2660  0.5389  0.0404
  974SOL    HW1 2921   2.597   0.916   1.590 -0.0648 -3.2479  3.3493
  974SOL    HW2 2922   2.691   0.994   1.702 -1.9624 -0.0020 -1.0005
  975SOL     OW 2923   2.940   0.048   0.551 -0.2969  0.2790 -0.3521
  975SOL    HW1 2924   2.971   0.040   0.650 -0.1897 -1.9449  0.2531
  975SOL    HW2 2925   2.840   0.076   0.555  0.0838 -1.6096 -1.1517
  976SOL     OW 2926   0.767   1.637   1.422 -0.2556  0.1553  0.2642
  976SOL    HW1 2927   0.722   1.566   1.365 -1.5341 -0.6408 -0.7007
  976SOL    HW2 2928   0.862   1.653   1.385 -0.8314 -0.3869 -3.0075
  977SOL     OW 2929   1.268   2.179   0.292  0.4371  0.0934 -0.0581
  977SOL    HW1 2930   1.364   2.179   0.253  4.2184 -0.4353  0.6644
  977SOL    HW2 2931   1.227   2.273   0.292  1.0495 -0.5963  1.8013
  978SOL     OW 2932   3.073   0.714   3.061 -0.4193  0.7187  0.4147
  978SOL    HW1 2933   3.016   0.725   2.980  0.2831 -1.0494 -0.9946
  978SOL    HW2 2934   0.049   0.668   3.033  0.4774  1.7285 -0.8747
  979SOL     OW 2935   1.954   1.622   0.990 -0.0381  0.1590 -0.1712
  979SOL    HW1 2936   1.992   1.528   1.015  1.5185 -4.1949  0.6535
  979SOL    HW2 2937   2.004   1.659   0.909 -0.0986 -2.7886 -0.8942
  980SOL     OW 2938   0.437   1.943   1.887  0.7535 -0.2055  0.7887
  980SOL    HW1 2939   0.429   1.848   1.858  1.8604 -0.1626  0.1088
  980SOL    HW2 2940   0.530   1.972   1.855 -0.2298 -0.0025 -1.7497
  981SOL     OW 2941   2.559   1.311   2.535  0.0080 -0.1307 -0.5524
  981SOL    HW1 2942   2.634   1.323   2.600 -0.7744 -0.4637 -0.9627
  981SOL    HW2 2943   2.477   1.360   2.569  0.2092  0.1329  2.9991
  982SOL     OW 2944   0.071   2.161   1.847  0.0206  0.2078 -0.0629
  982SOL    HW1 2945   0.050   2.059   1.848 -2.1763  0.2532  0.3652
  982SOL    HW2 2946   0.175   2.168   1.842  2.2741 -2.0085 -4.2109
  983SOL     OW 2947   1.587   0.384   1.783  0.2812  0.5175  0.0548
  983SOL    HW1 2948   1.528   0.432   1.709 -1.5862  2.8841 -0.0222
  983SOL    HW2 2949   1.591   0.281   1.778  1.2734 -0.5405  0.2238
  984SOL     OW 2950   2.817   2.804   3.019 -0.0661 -0.5701 -0.4745
  984SOL    HW1 2951   2.893   2.869   2.999  0.2826  0.7514 -1.8115
  984SOL    HW2 2952   2.725   2.850   3.024  0.5293 -0.0717 -2.6091
  985SOL     OW 2953   1.302   1.341   1.805  0.5306 -0.8436 -0.3579
  985SOL    HW1 2954   1.254   1.425   1.846 -0.1968  3.5248 -0.0606
  985SOL    HW2 2955   1.364   1.297   1.872 -0.9705  1.0445  1.1175
  986SOL     OW 2956   1.999   0.171   2.887  0.5868  0.2081  0.5228
  986SOL    HW1 2957   2.093   0.206   2.899 -1.1411  0.0517  2.1970
  986SOL    HW2 2958   1.932   0.237   2.933 -4.0739  1.4097  2.9747
  987SOL     OW 2959   2.854   1.635   2.580  0.1423 -0.2427  0.3610
  987SOL    HW1 2960   2.932   1.617   2.644  0.3406 -0.0931 -0.4824
  987SOL    HW2 2961   2.787   1.708   2.610  0.6486 -1.7764 -1.4776
  988SOL     OW 2962   0.057   0.146   1.191 -0.7851  0.2372  0.0860
  988SOL    HW1 2963   3.071   0.133   1.162  1.5793 -1.9692 -2.2330
  988SOL    HW2 2964   0.118   0.064   1.177  0.4013  1.0473  2.3313
  989SOL     OW 2965   2.121   0.406   1.105  0.1970 -0.0115 -0.0181
  989SOL    HW1 2966   2.162   0.428   1.194  0.2904 -0.1128 -1.3149
  989SOL    HW2 2967   2.067   0.321   1.098 -0.7742  0.2793 -2.9839
  990SOL     OW 2968   2.536   0.608   3.021  0.1341  0.2669  0.3797
  990SOL    HW1 2969   2.588   0.695   3.011 -0.3413  1.0478  0.5921
  990SOL    HW2 2970   2.437   0.627   3.014 -3.8965  0.2250  0.8230
  991SOL     OW 2971   0.080   1.361   0.272 -0.1271 -0.3485  0.4211
  991SOL    HW1 2972   0.054   1.263   0.282 -0.0495 -1.2167  0.3624
  991SOL    HW2 2973   0.000   1.415   0.302  1.2440 -0.0132 -0.4676
  992SOL     OW 2974   1.955   1.462   1.826  0.1340  0.4124  0.0520
  992SOL    HW1 2975   1.951   1.534   1.900  1.2863  1.3547 -2.7575
  992SOL    HW2 2976   2.032   1.402   1.842 -3.2489  2.2037 -0.7402
  993SOL     OW 2977   0.246   2.433   0.815  0.1149  0.0022 -0.2354
  993SOL    HW1 2978   0.182   2.446   0.894 -2.4410  0.2678  1.1677
  993SOL    HW2 2979   0.341   2.453   0.850  2.5132 -1.7299  1.6953
  994SOL     OW 2980   2.964   1.638   1.976  0.5959 -0.5549  0.2679
  994SOL    HW1 2981   2.867   1.611   1.950  0.4936 -2.9227  0.6185
  994SOL    HW2 2982   3.026   1.625   1.894 -0.1332 -1.6989 -1.8297
  995SOL     OW 2983   1.900   1.936   2.653 -0.3424 -0.1700 -0.2543
  995SOL    HW1 2984   1.965   2.013   2.645 -0.3721 -0.1280 -1.2078
  995SOL    HW2 2985   1.868   1.907   2.557 -1.3943 -1.5125  0.4822
  996SOL     OW 2986   2.172   2.379   0.287  0.2930 -0.8281 -0.7257
  996SOL    HW1 2987   2.082   2.332   0.271 -2.7891 -4.3722 -0.9780
  996SOL    HW2 2988   2.246   2.348   0.224  2.0186  0.1659 -1.7447
  997SOL     OW 2989   1.155   1.547   2.450 -0.6213 -0.4002 -0.6677
  997SOL    HW1 2990   1.067   1.526   2.499  1.3284 -0.2709  0.0651
  997SOL    HW2 2991   1.165   1.482   2.371 -1.2092  2.0018 -0.0559
  998SOL     OW 2992   3.035   2.223   0.694 -0.3717  0.3663  0.1042
  998SOL    HW1 2993   3.026   2.304   0.752  1.0871 -0.3967  1.7448
  998SOL    HW2 2994   3.011   2.235   0.595  1.7543  3.2333  4.5680
  999SOL     OW 2995   0.599   2.971   0.423 -0.0174 -0.0741 -0.7120
  999SOL    HW1 2996   0.514   2.954   0.368  0.2161  0.2526 -0.4129
  999SOL    HW2 2997   0.612   2.904   0.500 -0.4666 -2.9672  0.3375
 1000SOL     OW 2998   1.340   0.240   0.212  0.5046  0.2612 -0.3445
 1000SOL    HW1 2999   1.438   0.237   0.234 -0.3722 -0.4404  0.2480
 1000SOL    HW2 3000   1.308   0.294   0.128 -0.2811  2.3714 -1.5489
   3.10860   3.10860   3.10860
