1000 SPC/Fw water molecules t= 353.00000 step= 353000
 3000
    1SOL     OW    1   2.476   3.101   1.476 -0.0375  0.0356  0.1992
    1SOL    HW1    2   2.403   3.035   1.497  0.9344  2.7988 -1.7649
    1SOL    HW2    3   2.498   3.085   1.378 -0.3534 -1.7564 -0.9677
    2SOL     OW    4   2.758   2.399   1.138 -0.2571  0.4356 -0.1373
    2SOL    HW1    5   2.737   2.490   1.096  0.5600  0.2973 -1.4946
    2SOL    HW2    6   2.694   2.327   1.113  0.9118 -1.5328  0.8655
    3SOL     OW    7   1.311   2.993   3.017  0.3930  0.2328  0.2298
    3SOL    HW1    8   1.388   3.057   3.008  0.2987  0.5600 -0.0451
    3SOL    HW2    9   1.270   2.991   3.113  2.3198 -1.1372 -0.0845
    4SOL     OW   10   1.630   2.629   2.462  0.4616 -0.3189 -0.5405
    4SOL    HW1   11   1.560   2.562   2.459  2.2125  2.7065  0.7508
    4SOL    HW2   12   1.694   2.620   2.381  1.2181  1.3560  1.7562
    5SOL     OW   13   1.748   0.408   1.764 -0.7361 -0.1056 -0.2720
    5SOL    HW1   14   1.826   0.424   1.703 -0.1810 -2.2084  2.6613
    5SOL    HW2   15   1.723   0.501   1.801  3.6774  0.7824  0.5285
    6SOL     OW   16   2.303   2.678   0.655 -0.1822  0.1155  0.1033
    6SOL    HW1   17   2.232   2.737   0.617  0.8619 -1.0309 -1.0121
    6SOL    HW2   18   2.355   2.709   0.735 -0.3784 -3.5215 -1.5167
    7SOL     OW   19   1.566   1.254   1.054 -0.1319  0.1750  0.3515
    7SOL    HW1   20   1.579   1.301   1.138  1.3627 -1.8528 -3.7978
    7SOL    HW2   21   1.524   1.319   0.989 -2.4016 -2.0370 -0.0575
    8SOL     OW   22   0.667   1.849   1.332 -0.0447 -0.0534  0.2139
    8SOL    HW1   23   0.642   1.753   1.310  1.4079  0.4819 -0.6532
    8SOL    HW2   24   0.767   1.857   1.358 -0.9227 -0.0646  0.7510
    9SOL     OW   25   1.312   2.242   1.907  0.0177 -0.2957  0.5293
    9SOL    HW1   26   1.226   2.300   1.910  2.1022 -0.5071  0.1424
    9SOL    HW2   27   1.315   2.182   1.825  0.3313  0.9975 -0.4162
   10SOL     OW   28   0.617   2.088   0.688  0.2535  0.2681 -0.5302
   10SOL    HW1   29   0.702   2.099   0.743 -0.1943 -1.8513  1.9750
   10SOL    HW2   30   0.594   2.168   0.633  0.5431 -3.0909  0.8564
   11SOL     OW   31   1.564   1.982   1.559  0.5644  0.2668 -0.6981
   11SOL    HW1   32   1.581   2.078   1.533 -3.3403  1.2333  0.2371
   11SOL    HW2   33   1.486   1.946   1.510 -0.0961 -0.7093 -0.7075
   12SOL     OW   34   2.688   0.508   2.402 -0.6689  0.2748  0.1377
   12SOL    HW1   35   2.688   0.435   2.333 -0.4553  2.5638  4.1942
   12SOL    HW2   36   2.785   0.512   2.437  2.9301 -1.8059 -1.9217
   13SOL     OW   37   2.842   2.949   0.667 -0.4353  0.2826 -0.1001
   13SOL    HW1   38   2.860   2.886   0.745  0.9875 -2.4893 -0.7637
   13SOL    HW2   39   2.934   2.960   0.619  3.3171  0.4039 -0.9913
   14SOL     OW   40   1.393   1.546   2.906 -0.0322  0.2069  0.1608
   14SOL    HW1   41   1.491   1.565   2.872  1.4080 -0.4676 -0.8863
   14SOL    HW2   42   1.329   1.543   2.831 -0.5226  0.9074 -1.6575
   15SOL     OW   43   2.476   2.702   1.391 -0.2659 -0.6666  0.0501
   15SOL    HW1   44   2.553   2.739   1.333 -2.7070 -0.8705 -3.9939
   15SOL    HW2   45   2.515   2.645   1.465 -0.4963  1.2279 -1.9049
   16SOL     OW   46   2.695   2.941   0.398 -0.6176  0.4715 -0.3377
   16SOL    HW1   47   2.729   2.946   0.496  2.4666  1.4081  2.3371
   16SOL    HW2   48   2.743   3.017   0.342  1.2922  1.0839 -1.3920
   17SOL     OW   49   0.299   0.584   1.184  0.6107  0.3396  0.4411
   17SOL    HW1   50   0.399   0.592   1.209 -0.6987  1.3607  0.1689
   17SOL    HW2   51   0.282   0.483   1.181 -1.7611  1.0356  0.2972
   18SOL     OW   52   2.070   0.488   0.449  0.3928  0.7367 -0.5069
   18SOL    HW1   53   1.983   0.472   0.506 -2.9139  1.0524  1.9642
   18SOL    HW2   54   2.149   0.477   0.513 -1.8055  2.3446  2.5503
   19SOL     OW   55   1.852   1.648   2.950  0.5233  0.0040 -0.4356
   19SOL    HW1   56   1.755   1.685   2.958 -0.4237 -1.2479  0.8035
   19SOL    HW2   57   1.886   1.615   3.044  0.6763 -1.7883  0.0517
   20SOL     OW   58   2.400   1.744   2.294  0.8739 -0.0924  0.5025
   20SOL    HW1   59   2.458   1.664   2.316  0.9556 -4.2963 -2.3603
   20SOL    HW2   60   2.408   1.762   2.194  2.1669 -0.4728 -1.5921
   21SOL     OW   61   1.767   0.132   0.637 -0.6233  0.1908 -0.1282
   21SOL    HW1   62   1.814   0.131   0.725  0.5115  2.2306 -1.9033
   21SOL    HW2   63   1.787   0.044   0.592 -1.8942  0.0471 -0.5832
   22SOL     OW   64   2.738   0.468   1.511 -0.4259  0.3235  0.0208
   22SOL    HW1   65   2.699   0.375   1.500 -2.9183 -1.4757  0.5330
   22SOL    HW2   66   2.702   0.522   1.433  1.3577 -0.0639 -0.6334
   23SOL     OW   67   0.314   0.565   1.938  0.2539 -0.3559 -0.1360
   23SOL    HW1   68   0.252   0.604   2.014 -0.2766  1.6227  2.0009
   23SOL    HW2   69   0.329   0.462   1.950  1.7660  0.9936 -1.7835
   24SOL     OW   70   3.003   2.636   0.455 -0.2347 -0.2383 -0.7821
   24SOL    HW1   71   3.084   2.628   0.517  0.1183  0.5087  2.1584
   24SOL    HW2   72   3.014   2.729   0.425  0.3555  0.2598  0.6355
   25SOL     OW   73   0.889   2.773   2.852 -0.0837 -0.5571 -0.0548
   25SOL    HW1   74   0.814   2.819   2.899 -0.8997  2.3859 -0.8805
   25SOL    HW2   75   0.978   2.822   2.865  0.7460 -0.7480  0.4024
   26SOL     OW   76   1.301   2.724   0.474 -0.5044 -0.0326  0.0427
   26SOL    HW1   77   1.297   2.625   0.499 -0.4739  0.9007  0.1143
   26SOL    HW2   78   1.394   2.754   0.502  1.4924 -1.8111 -1.3996
   27SOL     OW   79   2.293   0.846   0.337 -0.3245  0.0301  0.3371
   27SOL    HW1   80   2.288   0.825   0.239  0.4625  1.1880  0.7881
   27SOL    HW2   81   2.218   0.910   0.362  0.8751  1.9665  1.1497
   28SOL     OW   82   0.877   1.659   1.021 -0.1425 -0.0998 -0.1375
   28SOL    HW1   83   0.847   1.572   1.062  0.6262  0.3070 -0.6777
   28SOL    HW2   84   0.963   1.642   0.972  2.8169  0.2010  0.2621
   29SOL     OW   85   3.041   2.957   1.648  0.3683 -0.0539  0.0515
   29SOL    HW1   86   0.004   2.910   1.604  0.6542  0.7821 -0.6292
   29SOL    HW2   87   2.971   2.969   1.574 -0.7690  1.6794  0.7266
   30SOL     OW   88   1.408   0.054   1.352  0.7078 -0.0598 -0.1801
   30SOL    HW1   89   1.342   0.042   1.275  1.1869  1.3111 -1.7206
   30SOL    HW2   90   1.452   3.081   1.375  1.5684 -0.7054  1.2873
   31SOL     OW   91   2.084   3.059   2.249  0.2899 -0.0531 -0.3778
   31SOL    HW1   92   2.117   3.045   2.346  1.8186 -1.0836  1.4693
   31SOL    HW2   93   1.981   3.030   2.239 -2.8432 -1.9415  2.9769
   32SOL     OW   94   0.905   1.423   0.183 -0.0459 -0.5673  0.4227
   32SOL    HW1   95   0.892   1.453   0.085  1.4892 -1.2377 -1.0472
   32SOL    HW2   96   0.822   1.438   0.243  1.0121  0.8687  0.7467
   33SOL     OW   97   3.078   0.813   2.487 -0.2494 -0.0175 -0.0161
   33SOL    HW1   98   3.012   0.771   2.418 -0.9555  2.6585  1.4126
   33SOL    HW2   99   0.018   0.745   2.538  1.9171  1.2840  1.2330
   34SOL     OW  100   2.545   0.235   0.649 -0.2983  0.1105 -0.0023
   34SOL    HW1  101   2.518   0.248   0.553 -1.2871 -2.7509  1.9431
   34SOL    HW2  102   2.490   0.165   0.693  2.8760  0.4459 -2.0791
   35SOL     OW  103   2.314   2.630   1.871 -0.4024  0.6484 -0.1069
   35SOL    HW1  104   2.323   2.563   1.949 -2.1692 -0.0952  0.2198
   35SOL    HW2  105   2.225   2.604   1.827  0.8754 -0.3474  0.3473
   36SOL     OW  106   2.305   1.942   0.059 -0.2174 -0.5447  0.0130
   36SOL    HW1  107   2.366   1.955   3.099 -0.0359  0.1482  0.8254
   36SOL    HW2  108   2.210   1.939   0.027  0.7024  1.5935  1.4429
   37SOL     OW  109   1.844   0.007   2.103 -0.5391 -0.3793  0.1198
   37SOL    HW1  110   1.848   0.107   2.079 -0.5201 -0.0261  0.5773
   37SOL    HW2  111   1.743   3.103   2.111 -1.8137 -0.2833 -0.8499
   38SOL     OW  112   0.297   0.479   2.868 -0.3990  0.0641  0.4995
   38SOL    HW1  113   0.225   0.444   2.804  0.4523 -1.1998 -1.1823
   38SOL    HW2  114   0.258   0.497   2.962  0.8555 -0.7816 -2.0704
   39SOL     OW  115   1.917   1.250   1.365 -0.1613  0.6601  0.1687
   39SOL    HW1  116   1.989   1.309   1.333 -1.9326  0.2527  0.3141
   39SOL    HW2  117   1.898   1.263   1.463 -1.6108  1.6322 -1.7563
   40SOL     OW  118   1.255   2.466   0.489  0.0440 -0.2469  0.2951
   40SOL    HW1  119   1.280   2.394   0.558  1.4444 -0.7816  0.1076
   40SOL    HW2  120   1.221   2.424   0.401  0.3999 -0.0516 -1.6234
   41SOL     OW  121   2.115   1.240   0.796 -0.1071  0.4533  0.0483
   41SOL    HW1  122   2.125   1.175   0.716 -1.9780  1.7894  0.9599
   41SOL    HW2  123   2.159   1.329   0.771 -0.7955  1.1201 -0.1359
   42SOL     OW  124   0.744   0.208   1.159  0.0669  0.5004 -0.2532
   42SOL    HW1  125   0.824   0.181   1.106 -0.6154  1.6925 -1.9165
   42SOL    HW2  126   0.758   0.198   1.258  1.5696  2.9778 -4.0707
   43SOL     OW  127   0.125   1.676   2.527 -0.4258  0.2321 -0.0300
   43SOL    HW1  128   0.140   1.595   2.586  1.7333  1.1449  1.5215
   43SOL    HW2  129   0.214   1.725   2.530 -0.7315  0.1014 -1.4293
   44SOL     OW  130   2.031   2.948   1.394 -0.4966 -0.0331  0.2769
   44SOL    HW1  131   1.997   2.920   1.486 -0.5619 -0.9752 -0.1765
   44SOL    HW2  132   2.130   2.940   1.396 -0.1054 -1.2451 -3.5444
   45SOL     OW  133   1.206   3.068   2.516  0.1204  0.2390  0.1912
   45SOL    HW1  134   1.291   3.072   2.572 -1.9813  2.5769  0.0362
   45SOL    HW2  135   1.170   2.972   2.519  2.0864 -2.0971 -0.4852
   46SOL     OW  136   1.132   2.342   2.271 -0.0451 -0.2275 -0.4503
   46SOL    HW1  137   1.187   2.262   2.304  2.5857  0.6305  0.1922
   46SOL    HW2  138   1.062   2.370   2.342 -1.0226 -0.7885  1.7341
   47SOL     OW  139   1.156   1.813   0.650  0.1339  0.9248  0.0367
   47SOL    HW1  140   1.256   1.818   0.641 -0.8810 -0.4186  0.1337
   47SOL    HW2  141   1.138   1.804   0.749  1.0682  1.8080  0.8571
   48SOL     OW  142   1.240   2.592   1.124 -0.0992 -0.0733  0.1851
   48SOL    HW1  143   1.245   2.606   1.024 -0.0926 -0.6477  0.9010
   48SOL    HW2  144   1.305   2.519   1.151  0.6501  2.2298  0.3826
   49SOL     OW  145   2.272   0.198   2.800  0.3073  0.1490 -0.1752
   49SOL    HW1  146   2.239   0.223   2.705 -0.6857  0.2840  0.0678
   49SOL    HW2  147   2.330   0.274   2.836  0.6492 -1.0342  1.4987
   50SOL     OW  148   1.678   0.138   0.062 -0.2453 -0.9369  0.3629
   50SOL    HW1  149   1.758   0.166   0.117  4.2911  1.7788  2.4163
   50SOL    HW2  150   1.601   0.206   0.063 -1.3128 -1.9045  0.5821
   51SOL     OW  151   2.232   0.578   1.285  0.3434 -0.2615 -0.0395
   51SOL    HW1  152   2.277   0.668   1.309 -0.4792  0.4618 -1.0388
   51SOL    HW2  153   2.266   0.501   1.347  1.3610  0.8945 -0.5327
   52SOL     OW  154   0.721   1.714   0.065 -0.0043  0.5095 -0.5915
   52SOL    HW1  155   0.788   1.659   0.010  1.7385  1.2962 -1.9098
   52SOL    HW2  156   0.764   1.738   0.161  0.7048  0.9992  2.2773
   53SOL     OW  157   0.142   1.482   2.708  0.4448  0.5938  0.3035
   53SOL    HW1  158   0.111   1.386   2.700  1.0201 -0.5141  0.8681
   53SOL    HW2  159   0.219   1.488   2.772 -0.8549  1.6878 -0.8248
   54SOL     OW  160   2.723   1.237   1.651  0.6225 -0.0650 -0.6144
   54SOL    HW1  161   2.770   1.152   1.684  0.4441  1.0154  1.1561
   54SOL    HW2  162   2.689   1.279   1.737 -1.9559  0.6523  4.5606
   55SOL     OW  163   2.261   2.050   0.507 -0.4106  0.2677 -0.0126
   55SOL    HW1  164   2.351   2.094   0.517  0.7656  2.4404 -0.0109
   55SOL    HW2  165   2.211   2.056   0.593  3.2596 -0.3205 -2.2434
   56SOL     OW  166   1.615   0.172   1.702  0.0192  0.6060  0.3657
   56SOL    HW1  167   1.668   0.260   1.720 -0.4362 -1.2687  2.1771
   56SOL    HW2  168   1.518   0.186   1.718  2.8725  1.0156 -2.7292
   57SOL     OW  169   1.409   1.196   2.539  0.3489  0.1474 -0.1851
   57SOL    HW1  170   1.422   1.109   2.486  3.0063  1.2677 -1.5311
   57SOL    HW2  171   1.465   1.191   2.623 -1.0894 -0.5213 -2.1360
   58SOL     OW  172   0.278   0.721   1.431  0.3238 -0.4717 -0.5161
   58SOL    HW1  173   0.269   0.671   1.517  1.6417  1.5195 -0.4469
   58SOL    HW2  174   0.263   0.660   1.346 -2.1500 -0.9981 -1.4399
   59SOL     OW  175   1.244   2.717   0.206  0.2047  0.5051 -0.8111
   59SOL    HW1  176   1.253   2.714   0.307  0.7893 -0.2210 -3.6353
   59SOL    HW2  177   1.217   2.811   0.169 -0.1813 -1.3345 -1.1526
   60SOL     OW  178   3.096   1.862   2.812  0.5777  0.1565 -0.1756
   60SOL    HW1  179   0.070   1.837   2.849 -0.1456  3.0781  1.6194
   60SOL    HW2  180   3.103   1.958   2.795  1.0929 -3.9603  0.8601
   61SOL     OW  181   0.613   2.576   1.132 -0.2709  0.2535 -0.3661
   61SOL    HW1  182   0.658   2.624   1.057  0.2421 -0.4408  0.3587
   61SOL    HW2  183   0.657   2.605   1.220  1.2414 -1.7298 -0.3278
   62SOL     OW  184   1.632   1.565   2.782  0.1720 -0.0040  0.7173
   62SOL    HW1  185   1.674   1.599   2.698  1.7294  0.1317 -2.8171
   62SOL    HW2  186   1.713   1.532   2.843  3.7212 -0.5742  2.3614
   63SOL     OW  187   2.354   1.861   0.304 -0.2488 -0.4565 -0.0701
   63SOL    HW1  188   2.353   1.881   0.207  0.7042 -0.1756  1.7520
   63SOL    HW2  189   2.318   1.944   0.354 -1.3042  0.8623 -2.9237
   64SOL     OW  190   1.785   0.979   0.061 -0.0790  0.6410  0.3648
   64SOL    HW1  191   1.737   0.886   0.062  0.1857 -1.6166 -0.8175
   64SOL    HW2  192   1.710   1.051   0.046 -2.8510  0.8377 -2.4193
   65SOL     OW  193   2.114   1.804   2.318  0.0934 -0.1742  0.3733
   65SOL    HW1  194   2.210   1.776   2.329 -0.4312 -3.5085 -0.4342
   65SOL    HW2  195   2.058   1.727   2.272 -1.9712 -1.6182 -1.5702
   66SOL     OW  196   0.404   1.251   1.422 -0.2827  0.5906  0.5295
   66SOL    HW1  197   0.330   1.324   1.410 -0.4665  1.1681  0.1053
   66SOL    HW2  198   0.367   1.161   1.401 -0.4826  0.2154  1.0949
   67SOL     OW  199   2.183   3.037   2.491 -0.0642 -0.3756 -0.2697
   67SOL    HW1  200   2.133   0.003   2.520 -1.1111 -0.3351  0.5322
   67SOL    HW2  201   2.180   2.967   2.564 -0.1008  1.8120  0.3634
   68SOL     OW  202   1.040   2.297   1.460  0.4168 -0.0824 -0.2243
   68SOL    HW1  203   1.093   2.385   1.456  0.2834  1.3088  1.1172
   68SOL    HW2  204   1.087   2.232   1.394  1.6385 -0.7629 -0.2683
   69SOL     OW  205   0.761   2.593   0.071  0.7407  0.1495 -0.3529
   69SOL    HW1  206   0.729   2.534   0.146  0.4276  2.8544 -1.9192
   69SOL    HW2  207   0.862   2.604   0.073 -2.9070 -1.3281  0.2537
   70SOL     OW  208   0.153   0.667   2.141  0.0539  0.2073  0.1019
   70SOL    HW1  209   0.080   0.727   2.103  1.0430  0.6442 -2.4265
   70SOL    HW2  210   0.215   0.726   2.190 -2.6088 -0.1581 -0.2099
   71SOL     OW  211   0.612   1.361   2.638 -0.7023  0.2375 -0.3792
   71SOL    HW1  212   0.708   1.383   2.606  1.0776  0.9956  0.1299
   71SOL    HW2  213   0.536   1.395   2.579  0.2332  0.4008  2.0396
   72SOL     OW  214   3.041   1.453   2.235 -0.5926  0.2432  0.2530
   72SOL    HW1  215   0.017   1.492   2.230 -1.0411 -1.9293  1.1733
   72SOL    HW2  216   2.973   1.518   2.189 -0.2682 -2.9838 -3.3808
   73SOL     OW  217   1.530   1.388   0.513 -0.0532  0.2984  0.0717
   73SOL    HW1  218   1.623   1.415   0.523 -0.3235  0.1551 -0.5498
   73SOL    HW2  219   1.523   1.291   0.538 -2.2415 -0.3608 -0.4602
   74SOL     OW  220   2.535   2.934   2.607 -0.3685 -0.3613  0.1389
   74SOL    HW1  221   2.460   2.940   2.679 -1.1437 -1.0216 -0.2706
   74SOL    HW2  222   2.490   2.899   2.524  1.6719 -1.8918 -2.5047
   75SOL     OW  223   1.833   2.270   0.959 -0.6012  0.2602  0.1347
   75SOL    HW1  224   1.829   2.320   1.051  0.5483 -0.3998 -0.2149
   75SOL    HW2  225   1.894   2.190   0.963 -0.1070  5.1783 -1.3355
   76SOL     OW  226   2.930   2.200   1.994  0.0778 -0.1634 -0.0010
   76SOL    HW1  227   2.954   2.105   2.011 -1.5779  1.1134 -0.3597
   76SOL    HW2  228   3.017   2.256   1.987  0.5872 -0.0972  0.7798
   77SOL     OW  229   0.046   0.074   2.077  0.1376  0.4106 -0.0002
   77SOL    HW1  230   0.039   0.013   1.997  1.6243  1.0492  1.7083
   77SOL    HW2  231   0.035   0.176   2.060 -0.7624  0.9389 -0.6952
   78SOL     OW  232   2.395   1.161   2.939 -0.3141 -0.1274  0.0120
   78SOL    HW1  233   2.479   1.215   2.955 -1.0059  0.5747  1.5981
   78SOL    HW2  234   2.317   1.226   2.918  0.5903 -0.5436 -0.4085
   79SOL     OW  235   2.919   1.282   2.423  0.0781  0.1439  0.2775
   79SOL    HW1  236   2.906   1.335   2.508  0.3596 -1.5013 -2.8277
   79SOL    HW2  237   2.961   1.344   2.355 -0.2475  1.0014  1.4011
   80SOL     OW  238   1.406   1.381   1.398  0.4088  0.2789 -0.6996
   80SOL    HW1  239   1.423   1.473   1.436  1.6908 -0.3638 -0.4723
   80SOL    HW2  240   1.388   1.310   1.472 -0.2371 -0.1190  0.1780
   81SOL     OW  241   2.155   0.873   1.746  0.4060  0.3456 -0.2589
   81SOL    HW1  242   2.134   0.784   1.789 -0.2975 -0.4379 -1.4355
   81SOL    HW2  243   2.259   0.884   1.730  3.5433 -0.1107 -1.2338
   82SOL     OW  244   1.690   1.505   1.615  0.3474  0.2776 -1.3178
   82SOL    HW1  245   1.711   1.474   1.708  2.4405 -3.6714  1.8111
   82SOL    HW2  246   1.741   1.586   1.592 -1.7895 -0.1969  0.4982
   83SOL     OW  247   0.258   0.197   0.403  0.5779 -0.3339  0.4887
   83SOL    HW1  248   0.162   0.230   0.399 -1.0830 -0.1953 -0.9877
   83SOL    HW2  249   0.324   0.265   0.351  1.7140  3.3204 -0.7415
   84SOL     OW  250   0.469   0.890   3.069 -0.2913 -0.2284  0.2358
   84SOL    HW1  251   0.422   0.851   2.986 -0.8454  1.1895  2.2122
   84SOL    HW2  252   0.436   0.838   0.034 -3.0224 -2.3700  1.2083
   85SOL     OW  253   2.274   2.008   1.200  0.2315 -0.2482 -0.0395
   85SOL    HW1  254   2.290   1.923   1.133  1.6460 -3.0124 -1.3481
   85SOL    HW2  255   2.365   2.034   1.235 -2.7613 -0.6378  0.8500
   86SOL     OW  256   0.369   2.511   1.384  0.6160 -0.6528  0.8173
   86SOL    HW1  257   0.419   2.429   1.415  2.1903 -1.0828  1.8125
   86SOL    HW2  258   0.346   2.503   1.286  0.5029  4.4458 -2.0554
   87SOL     OW  259   0.675   2.365   2.210  0.0868 -0.7494  0.2533
   87SOL    HW1  260   0.753   2.341   2.153 -0.0672 -0.7163 -0.9507
   87SOL    HW2  261   0.647   2.287   2.266  0.4404  0.6032 -1.4712
   88SOL     OW  262   0.002   1.943   0.169  0.6389  0.2757 -0.8205
   88SOL    HW1  263   3.064   2.022   0.202  0.0543 -0.5439  1.8733
   88SOL    HW2  264   3.106   1.927   0.072 -2.1053 -0.3710  2.5324
   89SOL     OW  265   0.920   1.035   0.785  0.1063 -0.7674  0.3594
   89SOL    HW1  266   0.989   1.030   0.859 -3.7504 -0.5659 -1.8367
   89SOL    HW2  267   0.840   0.976   0.810  0.0708 -1.4761  0.0368
   90SOL     OW  268   0.148   1.293   1.757  0.3530 -0.5753  0.0821
   90SOL    HW1  269   0.144   1.192   1.773  0.5390  4.4369  1.6445
   90SOL    HW2  270   0.052   1.330   1.770  0.5547 -4.0110  0.0611
   91SOL     OW  271   1.148   0.989   0.915 -0.0518  0.5387 -0.4768
   91SOL    HW1  272   1.204   0.909   0.902  0.6775  3.3671  0.2553
   91SOL    HW2  273   1.204   1.071   0.884 -1.3316  3.3415  0.3763
   92SOL     OW  274   1.794   1.092   0.946 -0.4404  0.7875  0.2138
   92SOL    HW1  275   1.719   1.152   0.982 -1.9097  0.9666  1.4797
   92SOL    HW2  276   1.882   1.132   0.967  0.7505 -1.1444 -1.5859
   93SOL     OW  277   2.661   0.840   2.370  0.0763  0.4079 -0.4832
   93SOL    HW1  278   2.590   0.776   2.338 -1.0652  0.9819 -0.3497
   93SOL    HW2  279   2.757   0.809   2.345  2.9989  0.1775 -2.1290
   94SOL     OW  280   2.230   1.808   2.748  0.3320 -0.3444  0.4442
   94SOL    HW1  281   2.306   1.842   2.691 -0.9877  1.6835 -1.5074
   94SOL    HW2  282   2.145   1.859   2.734  0.1034 -1.4236 -0.6524
   95SOL     OW  283   2.885   0.675   1.151  0.0032 -0.2111 -0.7971
   95SOL    HW1  284   2.868   0.777   1.152  2.2620  1.0995 -1.9375
   95SOL    HW2  285   2.918   0.649   1.058 -0.5305  0.1312  1.2573
   96SOL     OW  286   2.294   2.901   1.477  0.7808  0.0972 -0.2028
   96SOL    HW1  287   2.303   2.893   1.581 -0.4596 -2.4224 -0.2328
   96SOL    HW2  288   2.361   2.840   1.440 -1.5637  1.3349  4.1946
   97SOL     OW  289   2.497   1.182   1.482  0.1591 -0.9485  0.0112
   97SOL    HW1  290   2.560   1.168   1.402 -4.4146 -3.9633 -0.8420
   97SOL    HW2  291   2.546   1.218   1.561  0.7179 -0.4118 -0.7650
   98SOL     OW  292   1.604   2.664   2.010  0.0549 -0.9605  0.2595
   98SOL    HW1  293   1.643   2.679   2.102 -0.8410  0.1453  1.2881
   98SOL    HW2  294   1.551   2.575   2.007  0.5132 -2.7838 -1.4923
   99SOL     OW  295   0.178   2.553   1.584  0.1408 -0.2273 -0.2502
   99SOL    HW1  296   0.259   2.543   1.524  0.4502  1.4406  0.4217
   99SOL    HW2  297   0.201   2.592   1.677  0.6607 -0.2263  0.2211
  100SOL     OW  298   1.527   0.399   2.780  0.0197 -0.0012  0.2159
  100SOL    HW1  299   1.593   0.325   2.781  2.8874  0.9366 -1.2396
  100SOL    HW2  300   1.573   0.484   2.770 -1.5676 -1.0399 -1.2980
  101SOL     OW  301   2.532   0.278   2.575  0.3254 -0.2232 -0.2218
  101SOL    HW1  302   2.441   0.240   2.546  1.5375 -0.6117 -0.1109
  101SOL    HW2  303   2.562   0.343   2.501 -0.4957  0.8750 -2.6624
  102SOL     OW  304   0.373   0.966   1.488  0.0607  0.3201 -0.4073
  102SOL    HW1  305   0.328   0.996   1.573 -4.8632 -0.0694  1.3042
  102SOL    HW2  306   0.330   0.874   1.466 -1.7004 -1.6274 -2.2490
  103SOL     OW  307   0.573   0.921   2.465  0.2740  0.3569  0.2224
  103SOL    HW1  308   0.489   0.870   2.439 -1.6771 -0.7803  0.3350
  103SOL    HW2  309   0.564   0.960   2.563  1.1480  0.3740  0.3422
  104SOL     OW  310   0.301   0.833   2.588  0.2843  0.3553  0.3904
  104SOL    HW1  311   0.214   0.782   2.613 -2.6851 -1.6752  0.2868
  104SOL    HW2  312   0.280   0.928   2.611  0.5325 -1.7179 -0.0990
  105SOL     OW  313   1.912   2.165   1.650 -0.4293 -0.1606 -0.3369
  105SOL    HW1  314   1.956   2.075   1.681 -0.3213 -1.9681  0.3889
  105SOL    HW2  315   1.906   2.173   1.548  0.9554 -0.5024 -0.4819
  106SOL     OW  316   1.926   3.003   0.544 -0.0582  0.0179 -0.1140
  106SOL    HW1  317   1.904   2.903   0.548 -1.1430  2.7622  1.5596
  106SOL    HW2  318   1.949   3.032   0.457  0.9917  1.2596  0.9705
  107SOL     OW  319   2.109   2.071   0.962  0.5601 -0.5903  0.1826
  107SOL    HW1  320   2.151   2.065   1.051 -1.2651 -0.4067 -1.8058
  107SOL    HW2  321   2.082   1.977   0.936  0.5611 -0.7411  0.2384
  108SOL     OW  322   2.799   2.737   1.646 -0.6887 -0.0591  0.0698
  108SOL    HW1  323   2.814   2.667   1.719  2.4017 -0.0607  1.9326
  108SOL    HW2  324   2.734   2.810   1.679 -0.6272  0.5309  0.3077
  109SOL     OW  325   1.930   2.477   0.766 -0.2031  0.5156 -0.6468
  109SOL    HW1  326   1.892   2.404   0.823 -0.1766 -3.7445 -0.2143
  109SOL    HW2  327   2.031   2.455   0.741 -1.3982 -2.4571  1.4984
  110SOL     OW  328   1.120   1.831   2.109  0.0858  0.1063  0.2816
  110SOL    HW1  329   1.126   1.742   2.057  1.1177 -3.4084 -0.8541
  110SOL    HW2  330   1.140   1.912   2.045 -2.2540  0.0903  2.2621
  111SOL     OW  331   1.772   2.208   2.056 -0.3695  0.8054  0.2764
  111SOL    HW1  332   1.777   2.243   1.962 -1.0238 -1.6462  1.8527
  111SOL    HW2  333   1.696   2.255   2.101  1.1959  1.7175  2.0809
  112SOL     OW  334   1.755   1.656   2.567  0.2622 -0.2257 -0.6271
  112SOL    HW1  335   1.800   1.742   2.600 -1.6375  0.7496  1.4726
  112SOL    HW2  336   1.826   1.599   2.514 -0.0021 -1.1830 -2.9795
  113SOL     OW  337   1.719   1.715   1.933 -0.3435  0.1345 -0.2824
  113SOL    HW1  338   1.733   1.814   1.962  0.8908  1.5614  0.4968
  113SOL    HW2  339   1.624   1.680   1.960 -3.2696  1.2174  1.5405
  114SOL     OW  340   2.996   1.223   1.172 -0.3182  0.3731  0.1363
  114SOL    HW1  341   2.941   1.195   1.252  0.2283 -0.7017  0.7188
  114SOL    HW2  342   3.053   1.139   1.148  1.7697 -0.0262  1.6699
  115SOL     OW  343   0.773   0.676   0.118  0.6451 -0.5002  0.5632
  115SOL    HW1  344   0.683   0.637   0.154 -1.5461 -2.7234  0.3395
  115SOL    HW2  345   0.807   0.763   0.167  2.5356  3.4715  0.3281
  116SOL     OW  346   2.825   1.881   2.222 -0.3380  0.0931 -0.1499
  116SOL    HW1  347   2.735   1.921   2.190 -0.2967  0.6534 -1.1567
  116SOL    HW2  348   2.836   1.902   2.325  0.8660 -3.0732  2.0861
  117SOL     OW  349   0.042   2.738   0.897 -0.4582 -0.4459  0.2169
  117SOL    HW1  350   0.079   2.714   0.807 -1.3986  1.0925  1.7910
  117SOL    HW2  351   0.075   2.673   0.971 -0.9023 -1.0478  0.2911
  118SOL     OW  352   0.570   1.688   2.831  0.3131  0.2231  0.2063
  118SOL    HW1  353   0.566   1.778   2.877  2.1327 -3.4736 -0.6127
  118SOL    HW2  354   0.655   1.666   2.785 -0.6853  1.4242  0.5563
  119SOL     OW  355   0.669   1.940   0.453 -0.0663  0.2744 -1.1790
  119SOL    HW1  356   0.663   1.978   0.551  2.0471  0.8412  1.9464
  119SOL    HW2  357   0.664   2.018   0.394  3.1872 -1.7199  2.5527
  120SOL     OW  358   1.522   0.462   0.345 -0.1349  0.1479  0.1892
  120SOL    HW1  359   1.612   0.411   0.364 -0.4536  1.1728  0.6025
  120SOL    HW2  360   1.530   0.562   0.343  0.5662  0.9533 -0.2096
  121SOL     OW  361   1.516   2.529   0.736 -0.1389  0.0739 -0.1282
  121SOL    HW1  362   1.539   2.446   0.790 -1.4489 -0.6464  2.4377
  121SOL    HW2  363   1.582   2.555   0.660 -1.3300 -2.5277 -1.9634
  122SOL     OW  364   2.456   2.539   1.619  0.3385  0.2165  0.0297
  122SOL    HW1  365   2.376   2.550   1.681 -0.8076  0.6666  0.1436
  122SOL    HW2  366   2.534   2.498   1.673 -0.5309 -0.3845 -1.2349
  123SOL     OW  367   0.544   1.621   0.802 -0.2633  0.4458  0.2468
  123SOL    HW1  368   0.633   1.603   0.755 -0.2668 -1.4108 -1.8923
  123SOL    HW2  369   0.515   1.721   0.804  0.4998  2.7870 -0.6798
  124SOL     OW  370   2.997   0.867   0.219  0.4559 -0.3770  0.1813
  124SOL    HW1  371   2.995   0.778   0.271 -0.4133 -0.6031  2.5255
  124SOL    HW2  372   2.901   0.891   0.214 -1.5037 -0.0499  0.8105
  125SOL     OW  373   0.530   0.618   0.243 -0.1448  0.2810 -0.0698
  125SOL    HW1  374   0.449   0.672   0.214 -1.1681 -1.1098 -1.1532
  125SOL    HW2  375   0.572   0.650   0.333  0.6445  1.3096  0.3637
  126SOL     OW  376   3.003   1.947   0.530 -0.0942 -0.6189  0.2877
  126SOL    HW1  377   2.941   1.879   0.572 -0.9139  0.2492 -1.3756
  126SOL    HW2  378   2.965   1.990   0.448  0.3349 -0.6385 -1.1855
  127SOL     OW  379   1.505   2.421   1.909  0.4990 -0.2265  0.3622
  127SOL    HW1  380   1.426   2.353   1.903  1.3099 -2.8289  1.9770
  127SOL    HW2  381   1.587   2.379   1.862 -0.3241  1.5333  0.5132
  128SOL     OW  382   1.061   1.216   0.259  0.0012 -0.4273  0.4651
  128SOL    HW1  383   1.018   1.173   0.340  0.1775 -0.3708  0.4925
  128SOL    HW2  384   1.006   1.299   0.229  0.2255  2.3802  0.0020
  129SOL     OW  385   1.778   1.852   1.670 -0.3938 -0.1241  0.1995
  129SOL    HW1  386   1.706   1.913   1.645  1.7728  2.2728 -0.1834
  129SOL    HW2  387   1.750   1.783   1.742  2.1039 -2.8148 -0.6581
  130SOL     OW  388   2.010   1.538   1.571  0.3477 -0.3861 -0.0958
  130SOL    HW1  389   1.991   1.573   1.664  0.9620  0.6331 -1.6425
  130SOL    HW2  390   1.997   1.437   1.566  0.4020 -0.3309  2.3767
  131SOL     OW  391   2.974   3.012   0.029 -0.4898  0.3991 -0.0565
  131SOL    HW1  392   2.924   3.068   3.079 -1.1902 -1.0431  0.0556
  131SOL    HW2  393   2.954   2.912   0.018 -0.0804 -2.7663 -2.8938
  132SOL     OW  394   2.572   1.907   0.664  0.0209 -0.2708 -0.1383
  132SOL    HW1  395   2.578   1.969   0.585 -2.4829  1.2311  0.7198
  132SOL    HW2  396   2.645   1.841   0.664  1.2709  3.2211  3.4230
  133SOL     OW  397   0.408   0.125   2.158  0.5401 -0.0124 -0.6592
  133SOL    HW1  398   0.335   0.077   2.203  0.6787  3.1384 -2.5163
  133SOL    HW2  399   0.472   0.164   2.226  0.8571 -3.2777  0.0514
  134SOL     OW  400   2.898   2.144   3.034 -0.3843 -0.3981 -0.4233
  134SOL    HW1  401   2.931   2.053   3.064 -1.2169 -1.3152 -0.2203
  134SOL    HW2  402   2.799   2.145   3.051 -0.7451  1.1829  3.6012
  135SOL     OW  403   1.501   0.539   2.076 -0.3930 -0.0942  0.2058
  135SOL    HW1  404   1.464   0.590   1.993  1.9582  0.3029  1.9356
  135SOL    HW2  405   1.454   0.580   2.162 -1.4417  1.0069  3.1612
  136SOL     OW  406   2.527   1.545   0.629 -0.3594 -0.1580  0.0039
  136SOL    HW1  407   2.479   1.467   0.587  2.9182  1.6812 -0.9093
  136SOL    HW2  408   2.517   1.539   0.731 -0.7882 -4.3487 -0.5655
  137SOL     OW  409   2.866   1.754   0.675  0.0405  0.8544  0.2674
  137SOL    HW1  410   2.852   1.657   0.702  1.2893  0.1578 -0.5026
  137SOL    HW2  411   2.904   1.800   0.762 -2.4471  2.3243  2.7860
  138SOL     OW  412   2.547   0.881   1.103  0.0843  0.1464  0.7544
  138SOL    HW1  413   2.445   0.871   1.089  3.5995 -1.3839 -1.2559
  138SOL    HW2  414   2.590   0.822   1.036 -0.9489 -0.0225  0.6251
  139SOL     OW  415   0.634   2.482   2.950  0.1115 -0.7540 -0.3072
  139SOL    HW1  416   0.666   2.538   3.032 -2.2719  1.7887  2.2101
  139SOL    HW2  417   0.684   2.514   2.865  0.3147 -0.8870 -0.8699
  140SOL     OW  418   1.023   1.960   1.121 -0.2126  0.0304 -0.4120
  140SOL    HW1  419   1.082   1.968   1.041 -4.2894 -1.8133  1.2498
  140SOL    HW2  420   0.931   1.939   1.091  2.3542  0.0190  3.0755
  141SOL     OW  421   1.308   2.239   0.629  1.0500 -0.2472  0.4124
  141SOL    HW1  422   1.393   2.200   0.674  0.5806 -0.3141 -3.2654
  141SOL    HW2  423   1.228   2.186   0.654  2.4372  0.2165 -1.6671
  142SOL     OW  424   0.984   0.612   1.002 -0.2028 -0.0866 -0.2729
  142SOL    HW1  425   0.966   0.656   0.912  0.3522  1.4147  0.8074
  142SOL    HW2  426   0.894   0.591   1.047 -2.3851  1.4627  1.9749
  143SOL     OW  427   0.819   1.351   2.834 -0.1025  0.3333 -0.2394
  143SOL    HW1  428   0.726   1.357   2.791 -2.2001  1.5708 -0.7847
  143SOL    HW2  429   0.889   1.375   2.770 -0.9635 -0.8765  2.6306
  144SOL     OW  430   1.939   2.721   0.870  0.2859  0.5150  0.1709
  144SOL    HW1  431   1.837   2.737   0.879 -4.3835  1.3866 -1.3307
  144SOL    HW2  432   1.958   2.626   0.829 -3.3246 -2.4507 -3.6799
  145SOL     OW  433   1.933   0.666   2.711  0.2717  0.2852 -0.3105
  145SOL    HW1  434   1.956   0.740   2.644 -0.3484  1.2657 -1.3003
  145SOL    HW2  435   2.002   0.661   2.787  1.2222 -2.6601  1.4282
  146SOL     OW  436   0.256   2.882   0.579 -0.7071  0.9095  0.4399
  146SOL    HW1  437   0.306   2.913   0.663 -0.4794  1.8603  2.0750
  146SOL    HW2  438   0.227   2.786   0.589 -1.3544  0.5426  2.1623
  147SOL     OW  439   1.783   0.507   2.133  0.0705  0.2577 -0.0384
  147SOL    HW1  440   1.679   0.513   2.120  0.3017  3.4764  0.0157
  147SOL    HW2  441   1.827   0.601   2.143  0.0058  2.0867  1.2597
  148SOL     OW  442   1.454   0.286   2.081 -0.1956  0.1504 -0.2360
  148SOL    HW1  443   1.469   0.385   2.068  2.9756 -1.2476  0.9446
  148SOL    HW2  444   1.362   0.267   2.123 -0.1503  0.5712 -1.1615
  149SOL     OW  445   1.481   0.151   2.435  1.0772 -0.0152 -0.2538
  149SOL    HW1  446   1.498   0.104   2.349 -0.0495 -0.7779 -1.3452
  149SOL    HW2  447   1.472   0.078   2.502 -0.1009  2.1675 -2.6564
  150SOL     OW  448   2.795   0.010   0.238 -0.7834 -0.1296  0.0914
  150SOL    HW1  449   2.867   3.084   0.178 -1.0989  1.2840  0.5112
  150SOL    HW2  450   2.717   0.034   0.179  2.7058  0.2073 -1.2155
  151SOL     OW  451   0.544   1.147   3.099 -0.6800 -0.0814 -0.0439
  151SOL    HW1  452   0.524   1.043   3.093  0.3473  0.8296 -2.2987
  151SOL    HW2  453   0.641   1.177   3.083  2.4297 -1.7331  3.4657
  152SOL     OW  454   0.109   0.403   0.739  0.0748  0.2721  0.6036
  152SOL    HW1  455   0.072   0.396   0.835  1.0239 -0.0688  1.2606
  152SOL    HW2  456   0.200   0.356   0.730  0.0340 -2.8548 -1.8884
  153SOL     OW  457   2.581   0.222   1.506 -0.1836  0.0723 -0.1482
  153SOL    HW1  458   2.528   0.133   1.503  0.5860  0.0936  0.7189
  153SOL    HW2  459   2.676   0.204   1.533  0.9730 -1.7434  0.9816
  154SOL     OW  460   1.552   0.045   2.161 -0.0500  0.1136 -0.8462
  154SOL    HW1  461   1.519   3.089   2.096  2.7669  0.3728 -0.2303
  154SOL    HW2  462   1.543   0.136   2.122  1.1476 -1.1262  0.2288
  155SOL     OW  463   0.026   1.663   0.372  0.4413 -0.3537  0.4789
  155SOL    HW1  464   0.049   1.653   0.274  0.0873 -1.0601  1.6915
  155SOL    HW2  465   3.105   1.757   0.385 -0.2555  2.5031  2.1457
  156SOL     OW  466   2.679   1.772   2.907  0.6999 -0.0201 -0.0499
  156SOL    HW1  467   2.758   1.832   2.923  2.0800 -0.9433 -1.6335
  156SOL    HW2  468   2.677   1.704   2.987  0.6061 -1.9783  3.6418
  157SOL     OW  469   0.826   0.200   0.741 -0.4709 -0.5538  0.2191
  157SOL    HW1  470   0.832   0.272   0.666  0.2091  0.5402 -3.9159
  157SOL    HW2  471   0.870   0.117   0.702  1.8949  1.0867 -0.0465
  158SOL     OW  472   2.402   0.558   1.931  0.4191  0.6123  0.3435
  158SOL    HW1  473   2.329   0.500   1.880 -3.2295  0.2074 -2.3076
  158SOL    HW2  474   2.489   0.504   1.935  0.3228  1.3889 -0.3509
  159SOL     OW  475   0.349   0.293   0.653 -0.0034  0.4961  0.4939
  159SOL    HW1  476   0.323   0.242   0.569 -2.5966 -2.1172 -0.0944
  159SOL    HW2  477   0.431   0.350   0.640 -1.0523  0.1122  0.3385
  160SOL     OW  478   1.806   1.954   2.056 -0.0406 -0.1294 -0.2264
  160SOL    HW1  479   1.785   2.055   2.058 -0.0830  0.6994 -0.3373
  160SOL    HW2  480   1.759   1.898   2.127  0.0350 -0.1529  0.6230
  161SOL     OW  481   2.928   0.496   2.533  0.0653  0.2582  0.0292
  161SOL    HW1  482   2.959   0.464   2.619 -0.9646  1.3392 -4.5493
  161SOL    HW2  483   2.958   0.441   2.451 -1.2634  0.2870 -1.3925
  162SOL     OW  484   1.023   2.854   1.735 -0.6318 -0.3445 -0.1859
  162SOL    HW1  485   1.122   2.826   1.751 -1.5249 -3.1302 -0.4782
  162SOL    HW2  486   0.958   2.835   1.814  0.4631  0.4570  2.1128
  163SOL     OW  487   2.700   0.277   2.278  0.0849  0.2381  0.1623
  163SOL    HW1  488   2.651   0.224   2.204 -0.6620  1.1482 -0.4585
  163SOL    HW2  489   2.784   0.221   2.296  2.2587  0.8703 -0.6890
  164SOL     OW  490   2.252   1.636   0.431  0.6381 -0.0410 -0.0637
  164SOL    HW1  491   2.299   1.715   0.394 -0.2182  1.8372  1.0729
  164SOL    HW2  492   2.311   1.555   0.432 -2.4037  1.4736 -0.3173
  165SOL     OW  493   3.037   0.488   1.264  0.1074  0.1560  0.0200
  165SOL    HW1  494   3.076   0.464   1.171  0.0970 -1.1772  2.0319
  165SOL    HW2  495   2.979   0.573   1.248  2.3281  0.0499 -0.9959
  166SOL     OW  496   2.323   0.773   0.056  0.7230 -0.1941  0.0755
  166SOL    HW1  497   2.388   0.723   3.116 -1.1994 -0.0427  1.0137
  166SOL    HW2  498   2.284   0.845   0.001 -0.7231  0.5571 -0.8750
  167SOL     OW  499   2.744   0.754   3.058 -0.3824 -0.4500 -0.0119
  167SOL    HW1  500   2.768   0.796   2.968  0.8826 -1.7205 -1.2927
  167SOL    HW2  501   2.735   0.822   0.018  0.6838  1.8511  1.2195
  168SOL     OW  502   1.765   3.027   2.798 -0.2625 -0.5643  0.5181
  168SOL    HW1  503   1.709   2.960   2.749 -0.4624 -1.9487 -1.6448
  168SOL    HW2  504   1.751   0.004   2.764  0.3721 -0.0177 -0.7948
  169SOL     OW  505   3.098   1.537   0.893  0.0534  0.1635  0.1397
  169SOL    HW1  506   3.019   1.534   0.830  2.4369  0.9263  0.8721
  169SOL    HW2  507   0.025   1.443   0.910 -2.2974 -1.7600 -1.5008
  170SOL     OW  508   0.163   0.931   1.261  0.8188  0.3887 -0.3744
  170SOL    HW1  509   0.106   0.956   1.345 -1.1599 -2.6868  0.7258
  170SOL    HW2  510   0.231   0.861   1.284 -0.9750  3.0358 -2.4050
  171SOL     OW  511   2.387   2.143   1.974  0.5099 -0.1092  0.6066
  171SOL    HW1  512   2.467   2.141   1.913 -3.0945 -0.0002 -0.5269
  171SOL    HW2  513   2.321   2.072   1.948 -1.8664  0.2047 -0.7640
  172SOL     OW  514   0.218   2.270   1.608  0.2240  0.3799 -0.2004
  172SOL    HW1  515   0.184   2.221   1.524 -1.7721  0.3596 -2.6757
  172SOL    HW2  516   0.179   2.361   1.613 -0.1435 -4.5812  0.2489
  173SOL     OW  517   1.342   1.176   2.975 -0.3530  0.8914 -0.3681
  173SOL    HW1  518   1.408   1.209   2.902  3.0393 -0.8119  1.3141
  173SOL    HW2  519   1.353   1.250   3.037 -0.3524  0.4504 -0.5950
  174SOL     OW  520   1.212   0.644   2.888 -0.0710  0.2528  0.6387
  174SOL    HW1  521   1.221   0.694   2.979  2.1396  1.7131  0.9218
  174SOL    HW2  522   1.283   0.682   2.832 -2.2910 -0.6835  0.8066
  175SOL     OW  523   1.403   1.944   1.107 -0.1378  0.4585 -0.0317
  175SOL    HW1  524   1.499   1.903   1.111 -0.7124  0.9240 -0.1777
  175SOL    HW2  525   1.333   1.868   1.114 -0.0907  0.4001 -1.6058
  176SOL     OW  526   1.617   3.104   0.380 -0.3306  0.4862  0.5043
  176SOL    HW1  527   1.595   0.069   0.426  1.3183 -4.5033 -0.9557
  176SOL    HW2  528   1.669   0.003   0.292  2.2485 -1.1961 -0.3712
  177SOL     OW  529   0.486   1.150   2.808 -0.5154  0.1737  0.6152
  177SOL    HW1  530   0.523   1.226   2.751  0.0423  3.1896 -3.2527
  177SOL    HW2  531   0.489   1.162   2.910 -1.8685  1.7507  0.7811
  178SOL     OW  532   2.195   2.319   2.396  0.0637  0.8594  0.1390
  178SOL    HW1  533   2.300   2.320   2.406  2.7453  0.0257  2.0413
  178SOL    HW2  534   2.166   2.234   2.349 -0.1237 -0.8505 -2.1111
  179SOL     OW  535   3.078   0.073   2.699 -0.1853 -0.5304 -0.2771
  179SOL    HW1  536   3.028   0.034   2.779  2.1885  0.4943 -1.6982
  179SOL    HW2  537   3.028   0.060   2.612  1.1661 -0.8699 -1.2066
  180SOL     OW  538   1.918   0.950   0.727 -0.3741 -0.0493 -0.1464
  180SOL    HW1  539   2.001   0.902   0.757  0.1347 -1.7851 -0.3558
  180SOL    HW2  540   1.881   1.002   0.806 -0.6618 -1.1491 -3.4955
  181SOL     OW  541   2.192   1.228   2.542 -0.1369 -0.4739 -0.2498
  181SOL    HW1  542   2.178   1.328   2.549  1.2566 -0.3919 -2.7961
  181SOL    HW2  543   2.105   1.181   2.562  0.5594  1.5638 -2.0081
  182SOL     OW  544   2.610   2.511   2.168  0.5012 -0.3157 -0.2119
  182SOL    HW1  545   2.675   2.579   2.130  0.0936  0.1788  1.3612
  182SOL    HW2  546   2.660   2.432   2.208 -0.3789 -0.8587  1.2352
  183SOL     OW  547   2.038   0.623   1.845 -0.3839 -0.2012 -0.3878
  183SOL    HW1  548   1.964   0.648   1.783 -0.0187  0.4336  0.6255
  183SOL    HW2  549   2.052   0.525   1.838 -0.7775  1.6614 -0.6487
  184SOL     OW  550   0.020   1.711   1.339  0.4896 -0.0045 -0.5466
  184SOL    HW1  551   0.010   1.690   1.238 -2.2787  1.8382  1.1283
  184SOL    HW2  552   0.066   1.800   1.357  0.1144  0.1265  1.3463
  185SOL     OW  553   2.382   0.056   0.786 -0.0614  0.2436  0.5068
  185SOL    HW1  554   2.447   3.102   0.814  3.0485  1.0855 -0.7069
  185SOL    HW2  555   2.296   0.012   0.748  3.0972 -0.9789 -1.0100
  186SOL     OW  556   3.052   2.515   2.826  0.4089 -0.4044 -0.2962
  186SOL    HW1  557   2.996   2.455   2.766 -1.3577  1.5447 -0.4128
  186SOL    HW2  558   3.033   2.506   2.923  0.4321 -1.7661 -3.9665
  187SOL     OW  559   2.894   1.241   0.535 -0.0919 -0.2438 -0.4253
  187SOL    HW1  560   2.955   1.283   0.468 -0.4274  0.8163  1.6898
  187SOL    HW2  561   2.796   1.241   0.506 -1.6515 -1.8929  2.6245
  188SOL     OW  562   2.334   1.302   0.970  0.5498 -0.2420 -0.1777
  188SOL    HW1  563   2.348   1.263   1.062 -1.2357 -2.5027 -0.3017
  188SOL    HW2  564   2.241   1.276   0.936 -2.0035 -2.0972 -0.9809
  189SOL     OW  565   3.070   0.303   2.377 -0.3502 -0.7733  0.1479
  189SOL    HW1  566   3.027   0.210   2.379 -0.4831 -1.1353  2.5478
  189SOL    HW2  567   0.042   0.297   2.424  1.7846  1.3112  2.4751
  190SOL     OW  568   1.594   1.126   1.880  0.1435 -0.2405 -0.2517
  190SOL    HW1  569   1.499   1.116   1.914 -0.3641 -0.8687  1.8820
  190SOL    HW2  570   1.601   1.076   1.796 -0.1605 -2.1641  2.3996
  191SOL     OW  571   0.933   0.282   2.126 -0.1079  0.3068  0.2943
  191SOL    HW1  572   1.027   0.279   2.099 -1.6374  0.7070  1.6157
  191SOL    HW2  573   0.904   0.380   2.141  1.4579 -0.2365  0.4988
  192SOL     OW  574   1.592   2.072   1.804 -0.3121  0.3538 -0.0300
  192SOL    HW1  575   1.551   2.010   1.871  1.9129  0.7005  1.8013
  192SOL    HW2  576   1.577   2.049   1.705 -1.8568 -1.6685 -0.1739
  193SOL     OW  577   1.604   0.543   0.961 -0.4096  0.1605 -0.0503
  193SOL    HW1  578   1.571   0.556   0.866 -0.5961 -1.1102 -0.4766
  193SOL    HW2  579   1.578   0.621   1.021  1.8901  0.5739  1.4004
  194SOL     OW  580   0.512   2.021   1.461 -0.4752  0.2552  0.0825
  194SOL    HW1  581   0.427   1.966   1.465  1.0650  0.1711 -1.2240
  194SOL    HW2  582   0.585   1.965   1.420  1.7478 -0.1495 -1.3051
  195SOL     OW  583   1.769   0.369   0.380 -0.4670 -0.3175  0.0784
  195SOL    HW1  584   1.826   0.324   0.305 -2.2594  1.1610 -5.2782
  195SOL    HW2  585   1.779   0.322   0.473 -0.7290 -4.1235  3.5130
  196SOL     OW  586   0.217   1.460   1.357  0.4674 -0.2915  0.3028
  196SOL    HW1  587   0.261   1.544   1.383  0.5289 -2.8317  0.5767
  196SOL    HW2  588   0.117   1.467   1.349 -0.1751 -2.0921 -1.5495
  197SOL     OW  589   1.021   0.344   1.776 -0.0461 -0.0583 -0.4874
  197SOL    HW1  590   1.032   0.333   1.676  0.9461 -1.4149 -2.4148
  197SOL    HW2  591   1.047   0.435   1.807  1.2226 -1.5845 -1.3261
  198SOL     OW  592   0.759   1.342   1.071 -0.5202 -0.3561  0.3900
  198SOL    HW1  593   0.688   1.406   1.033  2.1165  0.3897 -0.6927
  198SOL    HW2  594   0.718   1.278   1.139  1.3151  0.9682  0.7968
  199SOL     OW  595   0.059   2.307   1.973 -0.1517  0.0802 -0.2716
  199SOL    HW1  596   0.121   2.375   2.021  0.5398  1.3956 -0.1536
  199SOL    HW2  597   0.105   2.258   1.900  0.3645 -1.0346  0.3978
  200SOL     OW  598   1.946   1.299   1.663 -0.2849 -0.2734 -0.0188
  200SOL    HW1  599   1.972   1.207   1.702 -0.1371  1.7540 -0.1838
  200SOL    HW2  600   1.913   1.366   1.736 -1.0886  2.3709 -0.6293
  201SOL     OW  601   0.659   1.814   2.097  0.0634  0.3423 -0.0488
  201SOL    HW1  602   0.690   1.717   2.116 -0.3935  0.0193  1.9268
  201SOL    HW2  603   0.604   1.815   2.009 -0.7923  2.3920  1.4475
  202SOL     OW  604   1.549   0.380   0.086  0.7271  0.2524 -0.1727
  202SOL    HW1  605   1.626   0.419   0.035  0.3870 -1.0182 -0.1791
  202SOL    HW2  606   1.546   0.412   0.181  2.6516 -1.4561 -1.4822
  203SOL     OW  607   1.312   2.777   2.439  0.4229  0.2523 -0.5836
  203SOL    HW1  608   1.269   2.794   2.347 -0.7739 -1.0690 -0.6346
  203SOL    HW2  609   1.411   2.805   2.430 -1.3037  0.0739  1.2356
  204SOL     OW  610   0.734   1.793   1.734  0.4001  0.0427  0.2292
  204SOL    HW1  611   0.806   1.822   1.667  0.2796 -2.3880 -0.2021
  204SOL    HW2  612   0.731   1.692   1.733  0.7442 -0.6492 -0.6965
  205SOL     OW  613   1.793   1.400   2.130 -0.1992  0.7753 -0.3236
  205SOL    HW1  614   1.775   1.411   2.031  1.6110  2.1365  3.0139
  205SOL    HW2  615   1.707   1.421   2.183 -1.9744 -0.9165 -0.5080
  206SOL     OW  616   0.135   1.626   2.244  0.2810  0.1477  1.0355
  206SOL    HW1  617   0.223   1.574   2.241  2.0484 -1.0425  1.9304
  206SOL    HW2  618   0.102   1.634   2.341 -0.0143  1.2765  2.7973
  207SOL     OW  619   0.873   2.793   1.934 -0.0320  0.3994  0.0963
  207SOL    HW1  620   0.776   2.819   1.947  0.4704 -0.6300 -0.1645
  207SOL    HW2  621   0.912   2.758   2.022 -0.0403 -2.1337 -0.4567
  208SOL     OW  622   0.445   2.539   2.020 -0.3112 -0.3374  0.1274
  208SOL    HW1  623   0.455   2.444   2.060  0.5045 -1.2748 -0.5454
  208SOL    HW2  624   0.518   2.559   1.951  1.6003 -0.8353 -1.2435
  209SOL     OW  625   1.553   2.895   0.523 -0.4252  0.1357  0.9688
  209SOL    HW1  626   1.565   2.924   0.618 -2.6880 -0.9231  0.1357
  209SOL    HW2  627   1.606   2.959   0.465  0.3976  0.5476 -1.4633
  210SOL     OW  628   2.678   0.743   0.917  0.1990 -0.0483  0.1957
  210SOL    HW1  629   2.777   0.720   0.911 -4.5924  1.6989  2.0753
  210SOL    HW2  630   2.637   0.787   0.839 -1.7221 -0.1651 -0.3740
  211SOL     OW  631   0.688   0.388   1.813 -0.2797 -0.4571 -0.3504
  211SOL    HW1  632   0.715   0.289   1.806  0.1886 -2.1565 -1.4541
  211SOL    HW2  633   0.632   0.411   1.728  0.4202  0.2857 -2.6962
  212SOL     OW  634   1.407   2.549   1.674 -0.3187  0.1226  0.2452
  212SOL    HW1  635   1.457   2.493   1.605 -0.0570 -0.6273  1.3839
  212SOL    HW2  636   1.437   2.528   1.768 -1.0036 -0.3779 -1.5695
  213SOL     OW  637   2.942   0.641   1.510 -0.0403 -0.3409 -0.6410
  213SOL    HW1  638   2.992   0.614   1.425 -1.2146 -1.5215 -1.3245
  213SOL    HW2  639   2.859   0.581   1.519 -0.6935  0.0928 -2.1941
  214SOL     OW  640   0.747   2.520   1.866 -0.0067 -0.0706  0.1630
  214SOL    HW1  641   0.827   2.560   1.812  0.9564  2.6037 -0.3601
  214SOL    HW2  642   0.741   2.561   1.957  2.2621 -1.4283 -1.5127
  215SOL     OW  643   2.535   1.600   1.802 -0.2280 -0.4689 -0.0402
  215SOL    HW1  644   2.490   1.519   1.837 -0.4216  0.5440 -0.0044
  215SOL    HW2  645   2.463   1.658   1.760 -1.7950  0.4421 -1.2833
  216SOL     OW  646   0.371   1.207   2.176  0.2813  0.3427 -0.1094
  216SOL    HW1  647   0.387   1.278   2.107 -0.7593 -3.0893 -1.9531
  216SOL    HW2  648   0.463   1.171   2.208  0.8843  0.6256 -1.5344
  217SOL     OW  649   2.818   3.022   1.527 -0.0311 -0.0291  0.7215
  217SOL    HW1  650   2.741   3.001   1.599 -0.6016 -2.6759  2.2014
  217SOL    HW2  651   2.790   2.994   1.437  0.3415 -1.3365  3.2095
  218SOL     OW  652   1.387   2.203   1.086  0.4366  0.2195  0.2677
  218SOL    HW1  653   1.376   2.099   1.087  1.7941 -2.5501 -0.9590
  218SOL    HW2  654   1.441   2.228   1.004 -0.2992 -1.4653  0.9704
  219SOL     OW  655   1.871   2.754   0.581 -0.0581  0.0906  0.3293
  219SOL    HW1  656   1.902   2.747   0.680  2.6580  0.3573  0.4799
  219SOL    HW2  657   1.780   2.705   0.572  1.4587 -3.1205 -2.3894
  220SOL     OW  658   1.672   2.547   0.210  0.2246  0.5246 -0.4107
  220SOL    HW1  659   1.597   2.591   0.159 -0.4112 -0.0749 -0.7520
  220SOL    HW2  660   1.760   2.560   0.165 -0.5562 -1.9750 -0.7287
  221SOL     OW  661   2.715   1.711   0.448  0.0161  0.0396  0.2664
  221SOL    HW1  662   2.784   1.728   0.522 -0.2097 -1.0706  0.9597
  221SOL    HW2  663   2.657   1.630   0.471  1.5854 -1.4940 -0.8713
  222SOL     OW  664   0.811   2.378   0.935 -0.4942  0.7579 -0.2989
  222SOL    HW1  665   0.776   2.461   0.893  3.8315 -1.7634  1.4060
  222SOL    HW2  666   0.871   2.389   1.018 -0.1891 -2.1732 -1.6258
  223SOL     OW  667   0.933   3.013   0.172  0.0868  0.8974  0.3839
  223SOL    HW1  668   0.905   3.071   0.094  0.6981 -2.6578  2.9359
  223SOL    HW2  669   0.856   2.945   0.193  1.4542  0.3765 -2.9795
  224SOL     OW  670   2.849   0.934   1.126 -0.2457 -0.1061  0.2731
  224SOL    HW1  671   2.770   0.979   1.075  2.8299 -1.6690  2.7373
  224SOL    HW2  672   2.851   0.956   1.225  1.2470 -0.2443 -0.5700
  225SOL     OW  673   2.941   1.846   0.921 -0.9962 -0.0631  0.0501
  225SOL    HW1  674   2.932   1.950   0.913  0.2209 -0.6032  1.8082
  225SOL    HW2  675   3.022   1.825   0.977 -1.6104  0.0988  0.2518
  226SOL     OW  676   0.795   2.937   1.225 -0.2054 -0.0043  0.7386
  226SOL    HW1  677   0.773   2.855   1.287 -3.0811 -1.7528  4.5607
  226SOL    HW2  678   0.717   2.985   1.172  0.0176  1.4048  0.0540
  227SOL     OW  679   1.031   1.501   1.379  0.0481 -0.7165  0.2134
  227SOL    HW1  680   1.058   1.442   1.299 -2.6661  0.9293 -3.6600
  227SOL    HW2  681   0.929   1.485   1.399 -3.8029  2.2403 -2.1427
  228SOL     OW  682   1.209   0.198   2.134  0.2094  0.1339  0.3833
  228SOL    HW1  683   1.210   0.094   2.126  3.4769 -2.3924  3.1256
  228SOL    HW2  684   1.200   0.224   2.230 -1.3200 -0.6862 -0.0770
  229SOL     OW  685   2.912   0.733   2.280 -0.0027 -0.6089 -0.2868
  229SOL    HW1  686   2.901   0.631   2.269  0.7202 -1.2797 -0.5459
  229SOL    HW2  687   2.957   0.766   2.196 -1.1526 -0.8732  4.4211
  230SOL     OW  688   3.108   0.955   1.031 -0.0763  0.1820  0.4249
  230SOL    HW1  689   0.050   0.941   1.113  2.6835 -1.1842  1.7707
  230SOL    HW2  690   3.008   0.943   1.061 -2.7151 -2.7962 -0.0515
  231SOL     OW  691   1.440   3.054   2.652 -0.2880  0.1472 -0.0857
  231SOL    HW1  692   1.497   2.971   2.660 -0.0558  3.0821  0.0321
  231SOL    HW2  693   1.431   3.097   2.744  0.8649 -1.7844  0.5935
  232SOL     OW  694   0.097   1.653   0.115 -0.5014  0.5588 -0.5639
  232SOL    HW1  695   0.139   1.739   0.085 -2.3146 -0.1233  2.2220
  232SOL    HW2  696   0.176   1.584   0.129  3.8295 -1.7013 -0.1059
  233SOL     OW  697   1.293   2.409   2.997 -0.1032  0.0702  0.4376
  233SOL    HW1  698   1.322   2.389   2.902  0.3353 -3.4294 -1.8120
  233SOL    HW2  699   1.195   2.442   3.000 -1.8964  1.0063  1.2021
  234SOL     OW  700   0.793   1.429   1.895  0.0864 -0.4073 -0.4320
  234SOL    HW1  701   0.847   1.351   1.871 -0.7395  3.3463  0.4820
  234SOL    HW2  702   0.809   1.456   1.994  2.5752 -0.8201 -2.4358
  235SOL     OW  703   0.400   2.266   2.134  0.0171 -0.3543  0.4273
  235SOL    HW1  704   0.379   2.182   2.084  0.1975 -2.5116  0.8685
  235SOL    HW2  705   0.478   2.250   2.199  1.3365  0.3133  1.3866
  236SOL     OW  706   1.731   1.981   2.864 -0.9571 -0.6996 -0.0515
  236SOL    HW1  707   1.681   1.924   2.929  0.2437  1.9902 -0.6877
  236SOL    HW2  708   1.717   2.077   2.890 -0.1758 -3.3098 -0.0741
  237SOL     OW  709   1.592   0.715   0.361 -0.0823  0.1713  0.4510
  237SOL    HW1  710   1.635   0.687   0.452 -0.0810  0.6131  1.7575
  237SOL    HW2  711   1.567   0.813   0.350  0.9277 -1.2734  0.7503
  238SOL     OW  712   1.043   2.783   2.154  0.7472 -0.2931  0.0446
  238SOL    HW1  713   1.119   2.738   2.106 -2.9643  1.3691  1.4685
  238SOL    HW2  714   0.981   2.715   2.199  1.6309  0.6797  1.8742
  239SOL     OW  715   1.190   2.650   1.976 -0.0337  0.1887 -0.0249
  239SOL    HW1  716   1.159   2.554   1.955  1.3944 -1.9819 -0.9323
  239SOL    HW2  717   1.208   2.704   1.889  0.3312 -1.1423 -0.6530
  240SOL     OW  718   2.015   2.980   0.935  1.1422 -0.1115  0.2620
  240SOL    HW1  719   1.987   2.883   0.935 -2.6414  1.4711  2.3448
  240SOL    HW2  720   2.087   2.992   1.007  2.9829  0.2127 -0.9185
  241SOL     OW  721   1.476   1.496   2.040 -0.8981  0.3918  0.2464
  241SOL    HW1  722   1.391   1.464   1.999  2.1443  0.2749  1.4298
  241SOL    HW2  723   1.458   1.551   2.127 -0.0756  0.6748  0.0382
  242SOL     OW  724   2.487   0.660   2.990 -0.1108 -0.3172  0.2049
  242SOL    HW1  725   2.588   0.668   3.010  2.3602 -2.5436 -1.3994
  242SOL    HW2  726   2.463   0.715   2.911  2.6435 -3.2772  0.7367
  243SOL     OW  727   1.011   0.877   1.144 -0.7120 -0.4055 -0.0955
  243SOL    HW1  728   1.042   0.926   1.059  0.8387  0.7532 -0.3313
  243SOL    HW2  729   1.043   0.781   1.144  1.5299 -2.5698  0.6008
  244SOL     OW  730   1.447   0.095   2.878 -0.3315  0.2659 -0.2739
  244SOL    HW1  731   1.404   0.154   2.947  5.1691 -2.1446 -1.1147
  244SOL    HW2  732   1.544   0.131   2.862 -0.9001 -0.5702  1.0680
  245SOL     OW  733   2.200   0.015   3.099 -0.0020  0.4772  0.0023
  245SOL    HW1  734   2.159   3.051   0.029 -0.4977 -0.1563  3.3351
  245SOL    HW2  735   2.268   3.105   3.031 -1.5841 -2.5666  2.2206
  246SOL     OW  736   1.009   0.959   1.516  0.0282  0.0223 -0.8278
  246SOL    HW1  737   1.070   0.889   1.470 -0.7233  3.4735 -2.8823
  246SOL    HW2  738   0.930   0.910   1.560 -2.2640 -1.7548 -0.1379
  247SOL     OW  739   0.309   0.288   1.962 -0.2613 -0.1673  0.6291
  247SOL    HW1  740   0.339   0.239   2.043 -1.0358 -0.7534 -1.2500
  247SOL    HW2  741   0.292   0.232   1.884  2.3654 -0.3004  0.7424
  248SOL     OW  742   3.038   1.948   2.038  0.3726 -0.2245 -0.1750
  248SOL    HW1  743   0.005   1.889   2.041 -1.4260  0.8904  1.0195
  248SOL    HW2  744   2.963   1.928   2.108  1.3227 -2.8353 -0.1200
  249SOL     OW  745   2.953   0.314   0.057  0.2120 -0.6811  0.5455
  249SOL    HW1  746   3.049   0.292   0.036 -1.0146  4.1105 -1.7186
  249SOL    HW2  747   2.923   0.270   0.142 -1.9065  2.0095 -0.2248
  250SOL     OW  748   2.950   0.176   0.400 -0.0862  0.2691  0.2516
  250SOL    HW1  749   2.888   0.094   0.388  1.9966 -2.5119 -2.0910
  250SOL    HW2  750   3.021   0.165   0.331 -0.5287  0.4220  1.0043
  251SOL     OW  751   0.763   1.453   1.392  0.5760 -0.0695  0.2507
  251SOL    HW1  752   0.698   1.522   1.357  0.1178 -0.4225 -1.7796
  251SOL    HW2  753   0.740   1.356   1.359  1.0380 -2.9242 -0.8729
  252SOL     OW  754   1.719   2.597   1.500 -0.0538 -0.6028  0.1314
  252SOL    HW1  755   1.811   2.562   1.498  1.2689  3.7851 -1.3413
  252SOL    HW2  756   1.721   2.683   1.447  0.0166 -0.9376 -2.2310
  253SOL     OW  757   2.374   1.933   2.533 -0.8557 -0.4780 -0.4530
  253SOL    HW1  758   2.442   2.009   2.546 -2.2735  0.4874 -2.0968
  253SOL    HW2  759   2.386   1.871   2.450 -2.3377  1.7460 -1.2706
  254SOL     OW  760   0.753   2.069   2.120  0.2905  0.1802  0.1643
  254SOL    HW1  761   0.725   1.969   2.126 -3.9990 -0.2788  0.0821
  254SOL    HW2  762   0.736   2.088   2.022 -1.2407 -1.4139 -1.3683
  255SOL     OW  763   1.102   0.293   1.510  0.0574 -0.1323 -0.2329
  255SOL    HW1  764   1.191   0.323   1.471 -1.9934  0.2069  2.0358
  255SOL    HW2  765   1.101   0.192   1.515 -1.0335  0.6075 -2.0238
  256SOL     OW  766   2.165   2.042   1.431 -0.3893  0.4826 -0.1391
  256SOL    HW1  767   2.095   1.971   1.439 -0.4988  1.9630  2.8505
  256SOL    HW2  768   2.205   2.039   1.338 -0.1596 -1.5762 -1.6865
  257SOL     OW  769   0.660   2.178   2.863 -0.5025  0.8303 -0.1005
  257SOL    HW1  770   0.759   2.197   2.830  1.1347 -0.7060 -1.4963
  257SOL    HW2  771   0.618   2.274   2.865  0.7065  2.0597  2.0267
  258SOL     OW  772   0.349   1.527   2.911 -0.0283  0.4639 -0.3154
  258SOL    HW1  773   0.436   1.570   2.895  0.3647 -0.2856 -2.4565
  258SOL    HW2  774   0.347   1.467   2.995 -2.6096  1.0484  1.8999
  259SOL     OW  775   0.873   1.397   2.563  0.7339  0.0063 -0.4322
  259SOL    HW1  776   0.924   1.311   2.546 -1.2166 -3.3555 -0.6328
  259SOL    HW2  777   0.855   1.452   2.480  1.3049  1.3253 -1.1687
  260SOL     OW  778   1.998   0.938   1.171 -0.2493  0.0488  0.1443
  260SOL    HW1  779   1.918   0.958   1.233 -2.1412 -1.3674  3.5232
  260SOL    HW2  780   2.014   1.011   1.099 -1.3965 -0.6996 -1.2795
  261SOL     OW  781   1.128   0.386   1.007 -0.2419  0.1264  0.3047
  261SOL    HW1  782   1.079   0.474   0.983 -0.6716 -0.9280  1.7343
  261SOL    HW2  783   1.144   0.381   1.104 -0.3771  2.4319 -2.1565
  262SOL     OW  784   2.146   2.059   2.581 -0.2083 -0.3539  0.0815
  262SOL    HW1  785   2.129   2.106   2.493 -2.3137  1.2989  1.9143
  262SOL    HW2  786   2.225   1.997   2.569 -0.6825  0.7039 -2.5717
  263SOL     OW  787   2.986   1.600   3.092 -0.0985 -0.1771  0.0811
  263SOL    HW1  788   2.999   1.538   3.012  0.2068 -0.7934 -0.0230
  263SOL    HW2  789   3.070   1.628   0.015 -6.3134  0.9484 -0.4002
  264SOL     OW  790   0.277   1.839   1.077 -0.0617 -0.3307 -0.6565
  264SOL    HW1  791   0.371   1.871   1.104  0.1162 -1.4214 -0.8402
  264SOL    HW2  792   0.285   1.813   0.981  1.2842  0.3091 -0.6007
  265SOL     OW  793   0.486   0.967   0.801  0.3137  0.3267 -0.5812
  265SOL    HW1  794   0.461   0.908   0.722  0.2609  0.7120 -0.5209
  265SOL    HW2  795   0.524   1.049   0.759  0.9571  0.3427 -0.8995
  266SOL     OW  796   1.434   1.719   3.097 -0.6181  0.8469  0.4199
  266SOL    HW1  797   1.409   1.647   3.028 -1.4018 -1.8687 -0.8527
  266SOL    HW2  798   1.353   1.770   0.014 -0.2811  1.4621  1.4218
  267SOL     OW  799   0.602   1.115   2.231  0.8022 -0.0341 -0.3083
  267SOL    HW1  800   0.675   1.096   2.161 -0.5087  0.5734  0.7524
  267SOL    HW2  801   0.603   1.044   2.305  0.5986  1.4054  0.3119
  268SOL     OW  802   0.699   0.727   2.917  0.0322  0.6124  0.1158
  268SOL    HW1  803   0.777   0.789   2.912 -1.3625 -2.9965 -0.6232
  268SOL    HW2  804   0.628   0.767   2.973  0.1353 -0.6432  1.3184
  269SOL     OW  805   1.832   2.892   2.539 -0.5614  0.4030 -0.2269
  269SOL    HW1  806   1.808   2.978   2.481  0.4611  1.2904 -0.8365
  269SOL    HW2  807   1.859   2.922   2.632 -2.9846 -1.6516 -0.7597
  270SOL     OW  808   1.183   1.317   2.429 -0.6325 -0.0638 -0.0359
  270SOL    HW1  809   1.271   1.271   2.460 -1.5170  0.8680  2.5298
  270SOL    HW2  810   1.103   1.249   2.431  0.3904  1.4786  0.9727
  271SOL     OW  811   0.134   0.222   3.105 -0.1200 -0.1869  0.0094
  271SOL    HW1  812   0.138   0.323   3.115  2.4110 -0.8113 -0.8174
  271SOL    HW2  813   0.206   0.185   3.037  1.7774  1.0827 -3.1122
  272SOL     OW  814   2.410   0.900   2.855 -0.6279  0.0405  0.3564
  272SOL    HW1  815   2.388   0.990   2.897 -0.5657 -3.2633 -0.1589
  272SOL    HW2  816   2.487   0.905   2.785  1.1297 -3.0670 -1.1731
  273SOL     OW  817   0.204   0.024   2.299  0.4577 -0.5169 -0.5612
  273SOL    HW1  818   0.151   0.054   2.214 -0.9905  0.9832 -1.4025
  273SOL    HW2  819   0.189   0.094   2.368 -0.1941  2.9903 -3.4873
  274SOL     OW  820   0.017   0.329   1.965 -0.3293 -0.0536 -0.4017
  274SOL    HW1  821   0.114   0.343   1.983  1.2860  0.5612  2.1191
  274SOL    HW2  822   3.098   0.389   1.894 -0.6391 -0.7389  2.2093
  275SOL     OW  823   1.451   1.730   0.577  0.0546  0.6240  0.5688
  275SOL    HW1  824   1.519   1.660   0.542  2.4568 -4.2682 -1.3612
  275SOL    HW2  825   1.466   1.819   0.534 -0.2666 -0.2850  3.1595
  276SOL     OW  826   0.602   1.388   2.297  0.3192  0.2073  0.4860
  276SOL    HW1  827   0.614   1.288   2.283  1.9014  2.5183  2.7749
  276SOL    HW2  828   0.543   1.409   2.378  0.2539  0.6795  0.1313
  277SOL     OW  829   2.003   2.688   2.433 -0.2845 -0.2105  0.0081
  277SOL    HW1  830   1.995   2.696   2.329  1.1820  0.0633 -0.6770
  277SOL    HW2  831   1.933   2.752   2.478 -0.8015 -0.0889 -0.0415
  278SOL     OW  832   2.149   3.088   1.743  0.2948 -0.2042  0.6372
  278SOL    HW1  833   2.082   3.015   1.767 -0.1751 -1.5094 -1.8448
  278SOL    HW2  834   2.141   0.052   1.802 -0.7138 -2.5128  0.2940
  279SOL     OW  835   1.724   1.369   3.057  0.2325 -0.5251 -0.5037
  279SOL    HW1  836   1.630   1.377   3.090 -1.4008  0.3488  1.5062
  279SOL    HW2  837   1.791   1.398   0.010 -1.0798 -1.3821 -3.1427
  280SOL     OW  838   0.795   1.162   3.018 -0.2979 -0.4715  0.5655
  280SOL    HW1  839   0.802   1.238   2.946 -1.6242  3.1249 -0.8552
  280SOL    HW2  840   0.838   1.075   2.986 -2.0640 -1.9967 -0.2319
  281SOL     OW  841   3.110   0.014   1.349  0.1320 -0.6363  1.2876
  281SOL    HW1  842   0.073   3.078   1.378  0.6320 -1.7041  0.1369
  281SOL    HW2  843   3.099   0.110   1.388 -1.4454 -0.0786  1.1283
  282SOL     OW  844   2.910   2.109   0.889 -0.0345  0.4782 -0.5611
  282SOL    HW1  845   2.963   2.141   0.970 -0.5639  0.2402  0.4996
  282SOL    HW2  846   2.886   2.185   0.829  1.0481 -0.2838  0.6151
  283SOL     OW  847   1.480   1.902   2.024 -0.3691 -0.2406  0.2270
  283SOL    HW1  848   1.533   1.841   2.087 -1.9756 -3.7015 -1.5125
  283SOL    HW2  849   1.454   1.995   2.066 -2.8217  0.2267  1.8359
  284SOL     OW  850   2.036   3.094   0.274  0.3878  0.2344 -0.3013
  284SOL    HW1  851   2.127   0.010   0.311  0.2693  2.8033  2.6760
  284SOL    HW2  852   2.045   3.012   0.215  0.5515  0.5895 -2.4582
  285SOL     OW  853   2.992   2.750   2.696  0.9102 -0.0806  0.5194
  285SOL    HW1  854   3.086   2.789   2.703  0.0997 -1.6589  1.6971
  285SOL    HW2  855   2.986   2.674   2.762 -0.1025 -1.5528 -1.1481
  286SOL     OW  856   2.038   2.518   1.386 -0.3120  0.4619  0.6014
  286SOL    HW1  857   2.020   2.585   1.461  1.1845 -3.2088 -2.2649
  286SOL    HW2  858   2.102   2.442   1.414 -0.6217  1.3581  0.8026
  287SOL     OW  859   0.333   1.482   0.681  0.9106  0.1572 -0.7147
  287SOL    HW1  860   0.278   1.424   0.742 -1.4117  1.5274 -0.9615
  287SOL    HW2  861   0.403   1.540   0.733 -2.0875 -0.0044  1.6497
  288SOL     OW  862   1.904   1.848   2.702  0.4248  0.2366 -0.1956
  288SOL    HW1  863   1.839   1.899   2.761  1.6977  0.3440 -0.8984
  288SOL    HW2  864   1.926   1.899   2.619  1.3154 -0.7512  2.0093
  289SOL     OW  865   0.398   1.721   2.567  0.6124 -0.8812  0.2753
  289SOL    HW1  866   0.448   1.758   2.487 -1.0809 -0.2103  1.1707
  289SOL    HW2  867   0.434   1.760   2.653  0.2810 -0.6780 -1.2578
  290SOL     OW  868   1.164   2.128   1.278  0.0318 -0.0709  0.0002
  290SOL    HW1  869   1.220   2.187   1.215 -0.4611  1.9063  0.3723
  290SOL    HW2  870   1.119   2.051   1.229  1.5095 -0.1559  1.2736
  291SOL     OW  871   1.774   1.305   2.811  0.5916  0.0978 -0.0472
  291SOL    HW1  872   1.832   1.225   2.799 -1.1203  3.1351  2.8096
  291SOL    HW2  873   1.766   1.325   2.913  0.9649  0.1486  0.3750
  292SOL     OW  874   0.762   1.519   0.631 -0.3023  0.2058  0.0140
  292SOL    HW1  875   0.725   1.495   0.539  1.0189 -2.4990 -1.9034
  292SOL    HW2  876   0.785   1.433   0.685 -0.8657  2.8658  1.0260
  293SOL     OW  877   1.726   3.024   1.121  0.0105  0.1022 -0.0501
  293SOL    HW1  878   1.816   3.058   1.138 -1.5014  0.8561  1.9059
  293SOL    HW2  879   1.675   3.094   1.065 -1.7524 -0.6281 -1.6055
  294SOL     OW  880   2.798   0.961   2.876 -0.5082  0.4604  0.4529
  294SOL    HW1  881   2.745   0.982   2.793  0.2052 -0.9695 -0.1834
  294SOL    HW2  882   2.898   0.959   2.843  2.2747 -0.7261 -1.5024
  295SOL     OW  883   1.631   2.072   2.630 -0.0170 -0.4716  0.0519
  295SOL    HW1  884   1.682   2.024   2.707 -0.9595 -3.3034 -0.4509
  295SOL    HW2  885   1.694   2.102   2.557 -1.7751  0.6437  0.8558
  296SOL     OW  886   1.848   0.787   2.169 -0.4540 -0.1378 -0.3400
  296SOL    HW1  887   1.801   0.873   2.128 -2.0672  1.0282  2.5383
  296SOL    HW2  888   1.943   0.812   2.205 -1.0674  0.3772  0.1442
  297SOL     OW  889   2.995   0.757   2.029  0.4924 -0.0675  0.5184
  297SOL    HW1  890   2.993   0.676   1.963 -2.5751  1.7531  0.3327
  297SOL    HW2  891   3.053   0.829   1.990  0.4621 -2.9591 -2.1825
  298SOL     OW  892   1.424   2.161   2.132 -0.5621 -0.3240  0.3120
  298SOL    HW1  893   1.370   2.201   2.054 -0.4386 -0.0974 -1.3488
  298SOL    HW2  894   1.362   2.144   2.212 -1.9720 -0.8994 -0.2049
  299SOL     OW  895   0.937   2.677   2.586  0.6749  0.2577  0.0354
  299SOL    HW1  896   0.910   2.710   2.681 -1.0022  0.1723 -0.8207
  299SOL    HW2  897   0.942   2.755   2.517  0.0816 -0.7512 -2.3131
  300SOL     OW  898   3.023   0.957   2.735  0.2155  0.6289  0.0695
  300SOL    HW1  899   3.050   0.895   2.813 -0.4679 -2.1721  1.8558
  300SOL    HW2  900   3.047   0.917   2.644  1.2364 -0.9449 -1.5060
  301SOL     OW  901   1.782   1.021   1.365 -0.2710 -0.1700  0.4294
  301SOL    HW1  902   1.755   0.998   1.458  2.9069  2.2891  0.7225
  301SOL    HW2  903   1.848   1.097   1.358  0.1979 -2.4577 -1.7042
  302SOL     OW  904   2.824   1.959   2.485  0.0780  0.1169  0.0539
  302SOL    HW1  905   2.822   1.879   2.546 -0.5604  0.0527  1.0210
  302SOL    HW2  906   2.731   1.999   2.467 -1.0221 -0.7219 -1.2066
  303SOL     OW  907   0.377   2.892   2.410 -0.0819  0.2955 -0.3756
  303SOL    HW1  908   0.418   2.890   2.504  2.3663  0.8668 -0.1947
  303SOL    HW2  909   0.347   2.984   2.381 -0.6146 -0.3274 -2.5026
  304SOL     OW  910   0.082   1.079   1.475 -0.0458  0.7065 -0.3176
  304SOL    HW1  911   0.014   1.155   1.484  0.1952 -2.1212  1.8400
  304SOL    HW2  912   0.135   1.067   1.559 -1.5190 -1.7863  0.4186
  305SOL     OW  913   3.047   0.276   1.435 -0.2740 -0.4213 -0.0566
  305SOL    HW1  914   3.034   0.353   1.370 -0.8002 -0.4066  2.0159
  305SOL    HW2  915   2.959   0.256   1.489  0.0034 -1.3061  1.6522
  306SOL     OW  916   2.357   1.180   1.209  0.4488  0.1061 -0.1695
  306SOL    HW1  917   2.302   1.104   1.246  1.4582  0.5557  0.2312
  306SOL    HW2  918   2.415   1.206   1.288 -1.5142 -1.0751 -1.3094
  307SOL     OW  919   2.222   2.997   1.132  0.2412  0.2351  0.4651
  307SOL    HW1  920   2.265   2.907   1.119  1.3193 -1.2166  0.6560
  307SOL    HW2  921   2.278   3.064   1.178 -1.1751 -1.9498 -1.5120
  308SOL     OW  922   2.547   2.078   1.265  0.0695  0.2422 -0.4156
  308SOL    HW1  923   2.581   2.115   1.176 -0.7230 -0.5791  1.6476
  308SOL    HW2  924   2.612   2.006   1.296 -0.2158  1.2007  1.2115
  309SOL     OW  925   1.978   1.955   1.847  0.1721  0.0458  0.0715
  309SOL    HW1  926   1.915   1.907   1.781 -1.8612  2.3365 -0.0424
  309SOL    HW2  927   1.933   1.965   1.941 -2.4450 -0.6109  0.5051
  310SOL     OW  928   2.475   1.448   2.831 -0.4260  0.1145 -0.2969
  310SOL    HW1  929   2.485   1.485   2.926  0.8372 -0.1221  1.3520
  310SOL    HW2  930   2.379   1.419   2.821 -2.0030  1.5462 -0.8747
  311SOL     OW  931   1.993   1.135   2.872 -0.3562  0.3642  0.2044
  311SOL    HW1  932   1.991   1.087   2.783 -1.1473 -2.5440  0.4436
  311SOL    HW2  933   1.979   1.070   2.946  0.3344 -0.1625 -0.4498
  312SOL     OW  934   1.599   2.295   2.297 -0.3638  0.4075 -0.2169
  312SOL    HW1  935   1.537   2.349   2.356 -0.5177 -0.1392  2.6052
  312SOL    HW2  936   1.536   2.236   2.238 -1.7077 -2.3119 -1.7819
  313SOL     OW  937   0.390   3.003   1.152 -0.2345  0.1539 -0.3942
  313SOL    HW1  938   0.311   2.987   1.090  0.7095 -2.3939  2.1838
  313SOL    HW2  939   0.402   2.924   1.209  0.5726  3.0515  2.2605
  314SOL     OW  940   0.569   1.600   1.273 -0.5746  0.1218  0.5120
  314SOL    HW1  941   0.483   1.614   1.325  1.7496  2.6625 -2.0212
  314SOL    HW2  942   0.547   1.555   1.177 -1.2405 -1.1649 -0.4192
  315SOL     OW  943   0.814   2.598   2.184 -0.3199  0.2937  0.2152
  315SOL    HW1  944   0.786   2.503   2.194 -0.2922  3.0547 -2.0425
  315SOL    HW2  945   0.756   2.667   2.230  1.8421 -1.1584 -0.6177
  316SOL     OW  946   3.052   2.190   1.085  0.1216  0.2113  0.2449
  316SOL    HW1  947   3.011   2.236   1.166 -1.6784  1.1775  0.7717
  316SOL    HW2  948   0.026   2.155   1.111  2.8099 -0.9034 -0.8786
  317SOL     OW  949   1.928   0.649   0.262  0.4647  0.0350  0.1922
  317SOL    HW1  950   1.832   0.616   0.260 -0.0001  1.1750  0.3236
  317SOL    HW2  951   1.978   0.591   0.327 -1.2417 -2.9629  1.4253
  318SOL     OW  952   2.926   2.752   0.027  0.5323  0.1511  0.0675
  318SOL    HW1  953   2.871   2.720   0.107  0.4833 -0.5382  0.1580
  318SOL    HW2  954   3.008   2.697   0.022 -0.2130  2.4587 -1.2296
  319SOL     OW  955   1.575   1.685   0.321 -0.1463 -0.3698  0.1970
  319SOL    HW1  956   1.523   1.764   0.287 -0.3501 -1.3406  1.3034
  319SOL    HW2  957   1.528   1.599   0.309  1.8396  2.1396 -1.4260
  320SOL     OW  958   0.800   2.213   2.540 -0.0279 -0.1596 -0.4508
  320SOL    HW1  959   0.702   2.210   2.533  2.1112  2.1039 -1.9104
  320SOL    HW2  960   0.837   2.244   2.628  0.0905 -2.5831 -1.1851
  321SOL     OW  961   1.038   2.557   0.108  0.8747  0.2126  0.0792
  321SOL    HW1  962   1.041   2.488   0.181 -0.1780  0.2369  0.9633
  321SOL    HW2  963   1.109   2.627   0.139  0.1638  3.9637 -0.7725
  322SOL     OW  964   2.213   0.423   2.154  0.0853  0.0400 -0.0610
  322SOL    HW1  965   2.263   0.335   2.140  1.4406 -1.2602  2.1464
  322SOL    HW2  966   2.220   0.482   2.073 -1.6110  2.6303 -3.2358
  323SOL     OW  967   2.874   1.040   0.731  0.9011 -0.1845  0.1147
  323SOL    HW1  968   2.951   0.971   0.743 -1.0958 -0.5176  2.0150
  323SOL    HW2  969   2.902   1.118   0.668 -1.3367 -1.1333 -3.6797
  324SOL     OW  970   0.270   0.461   2.341 -0.1914  0.5943 -0.3646
  324SOL    HW1  971   0.212   0.503   2.269 -1.2961 -0.7282  0.0258
  324SOL    HW2  972   0.360   0.510   2.348  0.4117  1.5084 -1.7404
  325SOL     OW  973   0.704   3.039   2.401  0.4902  0.0760  0.1173
  325SOL    HW1  974   0.748   0.015   2.395  0.4513  0.3522  0.8625
  325SOL    HW2  975   0.655   3.025   2.492  1.8434 -0.1751 -0.7191
  326SOL     OW  976   2.544   2.366   0.657 -0.5102  0.5455 -0.0781
  326SOL    HW1  977   2.488   2.370   0.743  0.0654  0.2245  0.5910
  326SOL    HW2  978   2.614   2.432   0.663 -0.9998 -2.5009  0.9147
  327SOL     OW  979   1.903   1.135   0.239  0.5345  0.0582 -0.0997
  327SOL    HW1  980   1.845   1.161   0.321  0.2449  1.2272  0.4604
  327SOL    HW2  981   1.850   1.070   0.176  0.6686 -1.5757 -1.3810
  328SOL     OW  982   0.417   1.970   2.252  0.2849 -0.1990  0.9516
  328SOL    HW1  983   0.460   1.882   2.278 -0.1257 -1.0269 -1.1773
  328SOL    HW2  984   0.336   2.004   2.305 -0.2084  0.4304 -0.5708
  329SOL     OW  985   2.669   2.446   1.806 -0.1275 -0.0096 -0.0968
  329SOL    HW1  986   2.709   2.353   1.776  0.4851 -1.0825 -0.1448
  329SOL    HW2  987   2.686   2.470   1.903 -1.2635  1.5908  1.9481
  330SOL     OW  988   2.434   1.312   1.763  0.3689  0.3305 -0.0923
  330SOL    HW1  989   2.337   1.325   1.794 -0.6904  2.1002 -0.9038
  330SOL    HW2  990   2.500   1.306   1.838  1.9050  1.4159 -1.8811
  331SOL     OW  991   2.655   2.148   1.024  0.5805 -0.2896 -0.4292
  331SOL    HW1  992   2.750   2.124   1.003 -0.0892 -0.4858  0.8937
  331SOL    HW2  993   2.588   2.105   0.959 -1.6981 -1.2667 -1.5784
  332SOL     OW  994   0.491   2.608   0.489  0.0538  0.5763 -0.3061
  332SOL    HW1  995   0.527   2.642   0.577 -0.2043 -1.9829 -1.4413
  332SOL    HW2  996   0.399   2.638   0.453 -3.4191  0.4934 -2.5599
  333SOL     OW  997   2.272   0.134   2.182  0.3826 -0.0714  0.3829
  333SOL    HW1  998   2.277   0.172   2.272 -1.1776 -2.2948 -1.4084
  333SOL    HW2  999   2.203   0.060   2.184  1.0091  0.0658 -1.3339
  334SOL     OW 1000   0.837   0.865   0.317  0.3033 -0.3207 -0.0572
  334SOL    HW1 1001   0.856   0.934   0.390 -1.7151 -0.1033  2.2977
  334SOL    HW2 1002   0.750   0.810   0.340  1.2449  0.5082  0.8853
  335SOL     OW 1003   0.498   2.503   2.418  0.0915  0.0085 -0.1071
  335SOL    HW1 1004   0.541   2.466   2.336  0.5688  0.1695  2.1841
  335SOL    HW2 1005   0.425   2.573   2.398  2.3229  1.9197  3.8096
  336SOL     OW 1006   2.684   0.050   2.576  0.3601 -0.0832  0.6108
  336SOL    HW1 1007   2.639   0.134   2.603  0.6358  0.6111  3.7306
  336SOL    HW2 1008   2.627   3.085   2.585  0.3543 -0.6980 -2.7000
  337SOL     OW 1009   1.138   1.667   0.905  0.3443 -0.4802 -0.3136
  337SOL    HW1 1010   1.178   1.672   1.000  0.0238 -0.9595 -0.4778
  337SOL    HW2 1011   1.178   1.599   0.837 -0.7358 -0.7401 -0.1379
  338SOL     OW 1012   0.786   1.922   0.982 -0.0256  0.1940 -0.7118
  338SOL    HW1 1013   0.828   1.828   0.989 -1.2966 -0.9406  0.1162
  338SOL    HW2 1014   0.692   1.915   1.022 -0.7221 -2.4732 -0.0062
  339SOL     OW 1015   3.033   1.283   1.520  0.5498  0.1088  0.3048
  339SOL    HW1 1016   3.066   1.376   1.495  0.1673 -3.0946  3.0265
  339SOL    HW2 1017   2.988   1.285   1.614 -2.1170 -1.8081 -0.3437
  340SOL     OW 1018   1.573   2.888   2.333 -0.1110  0.4840 -0.2756
  340SOL    HW1 1019   1.625   2.806   2.367  0.2044  1.0911  1.5010
  340SOL    HW2 1020   1.603   2.973   2.376 -2.4360 -0.2190 -3.8425
  341SOL     OW 1021   1.679   1.606   0.839 -0.2405  0.1493 -0.3901
  341SOL    HW1 1022   1.584   1.569   0.866 -0.4759  1.4195 -2.2960
  341SOL    HW2 1023   1.746   1.608   0.917 -0.7384 -0.0154 -1.2122
  342SOL     OW 1024   2.858   1.485   0.756 -0.2320 -0.0670 -0.0025
  342SOL    HW1 1025   2.858   1.415   0.688 -1.3313  3.3606  1.8900
  342SOL    HW2 1026   2.821   1.449   0.846 -1.2911 -0.0544  0.6560
  343SOL     OW 1027   2.842   1.028   1.372 -0.3263 -0.5231  1.1159
  343SOL    HW1 1028   2.895   1.080   1.439  0.8542  0.5378 -2.6833
  343SOL    HW2 1029   2.744   1.049   1.354 -0.0360  0.2919  0.0283
  344SOL     OW 1030   1.877   0.495   0.949  0.0115  0.1575 -0.2241
  344SOL    HW1 1031   1.781   0.526   0.967  1.1410  0.3240  1.9150
  344SOL    HW2 1032   1.941   0.561   0.995  0.1068  1.0006  1.7068
  345SOL     OW 1033   0.551   2.892   2.630  0.7145 -0.5184 -0.2119
  345SOL    HW1 1034   0.596   2.804   2.633 -1.5203  3.4771 -1.8070
  345SOL    HW2 1035   0.624   2.965   2.649  2.0387  1.1951 -1.0931
  346SOL     OW 1036   2.360   1.367   0.058 -0.0099  0.0407 -0.0360
  346SOL    HW1 1037   2.301   1.407   3.106 -1.5226 -0.7086  1.6445
  346SOL    HW2 1038   2.306   1.302   0.115 -0.9914  0.6495 -2.5112
  347SOL     OW 1039   1.963   2.937   1.923 -0.0507  0.1328  0.1902
  347SOL    HW1 1040   1.939   3.024   1.971 -0.3797 -2.6657  0.5476
  347SOL    HW2 1041   1.880   2.904   1.876 -0.9355 -0.9947  2.1278
  348SOL     OW 1042   1.049   1.105   1.293  0.5454 -0.2181  0.0783
  348SOL    HW1 1043   1.015   1.088   1.389 -2.2231  0.0102  1.1279
  348SOL    HW2 1044   1.050   1.017   1.241 -0.8021  0.3412  0.9543
  349SOL     OW 1045   2.665   0.801   1.787 -1.1311 -0.0216 -0.4056
  349SOL    HW1 1046   2.691   0.806   1.888 -1.3169 -0.8568  0.3931
  349SOL    HW2 1047   2.742   0.839   1.737  1.4953 -0.9241  0.3847
  350SOL     OW 1048   2.465   2.162   0.166  0.3374  0.0403 -0.2307
  350SOL    HW1 1049   2.395   2.096   0.157  1.4105  4.4201  0.8440
  350SOL    HW2 1050   2.423   2.250   0.190  2.2979  1.9196  1.1761
  351SOL     OW 1051   0.419   3.081   1.760 -0.4035  0.3483 -0.7255
  351SOL    HW1 1052   0.479   3.079   1.847  0.4668  0.1719  3.0202
  351SOL    HW2 1053   0.348   0.039   1.760 -0.9148  0.4783 -1.8814
  352SOL     OW 1054   1.913   2.440   2.115  0.7700 -0.1504  0.1994
  352SOL    HW1 1055   2.013   2.459   2.126 -0.0289 -1.5792 -1.1962
  352SOL    HW2 1056   1.891   2.340   2.120  0.1559 -1.2530  1.7523
  353SOL     OW 1057   0.727   1.567   2.158 -0.0091  0.4386  0.8618
  353SOL    HW1 1058   0.665   1.501   2.204 -1.1983  0.0065  0.2324
  353SOL    HW2 1059   0.803   1.597   2.222  0.7990 -0.1808  3.0902
  354SOL     OW 1060   1.276   1.846   0.257  0.3651 -0.0509 -0.5360
  354SOL    HW1 1061   1.263   1.750   0.289  0.8896  0.7416  0.7880
  354SOL    HW2 1062   1.189   1.896   0.242 -1.5583 -2.8534  1.3831
  355SOL     OW 1063   1.875   0.093   0.881 -0.0524 -0.2980  0.3414
  355SOL    HW1 1064   1.930   0.008   0.901 -1.8821  2.8912 -1.6928
  355SOL    HW2 1065   1.925   0.175   0.918  0.5121 -2.2072 -3.0148
  356SOL     OW 1066   2.760   1.095   3.111  0.0227  0.5106 -0.5279
  356SOL    HW1 1067   2.771   1.066   3.014 -1.5707  2.7696 -0.9423
  356SOL    HW2 1068   2.710   1.184   0.003 -0.0943  2.0095  0.0341
  357SOL     OW 1069   2.899   0.077   2.165  0.4368 -0.6467 -0.3052
  357SOL    HW1 1070   2.994   0.087   2.130 -0.3026  0.5822  0.5727
  357SOL    HW2 1071   2.825   0.067   2.092 -3.5039  1.2182 -2.1183
  358SOL     OW 1072   0.229   1.358   0.458 -0.1417 -0.3766  0.6488
  358SOL    HW1 1073   0.144   1.307   0.479  1.7699 -0.7884 -2.0545
  358SOL    HW2 1074   0.270   1.409   0.533 -0.1485 -3.5908 -3.3921
  359SOL     OW 1075   2.624   0.097   2.880 -0.5244 -0.1851  0.2462
  359SOL    HW1 1076   2.552   0.061   2.823  0.4775  0.3872  4.2236
  359SOL    HW2 1077   2.593   0.165   2.949 -0.6765  1.7055 -2.8334
  360SOL     OW 1078   1.322   1.036   1.282  0.9121 -0.0152  0.0122
  360SOL    HW1 1079   1.417   1.012   1.252  4.5687 -1.0535  0.6777
  360SOL    HW2 1080   1.282   1.106   1.214  0.0123  1.8648 -0.4255
  361SOL     OW 1081   2.426   2.431   1.134  0.0614 -0.1058 -0.2496
  361SOL    HW1 1082   2.431   2.390   1.226  0.1014  2.0785  1.9435
  361SOL    HW2 1083   2.386   2.527   1.141 -1.9172  2.7302  3.0200
  362SOL     OW 1084   1.293   0.371   1.232 -0.5830 -0.1080 -0.6539
  362SOL    HW1 1085   1.322   0.351   1.327  2.9137  2.1905  2.9014
  362SOL    HW2 1086   1.364   0.354   1.162  0.1234  0.0691  1.2750
  363SOL     OW 1087   2.100   2.195   0.299  0.1783  0.6419 -0.8503
  363SOL    HW1 1088   2.179   2.173   0.367  2.0884 -3.1288  1.2844
  363SOL    HW2 1089   2.017   2.228   0.356 -2.1318 -1.0959  0.4958
  364SOL     OW 1090   0.364   0.607   0.898  0.0170  0.1868  0.3569
  364SOL    HW1 1091   0.374   0.506   0.910 -1.0887  0.4754 -0.5426
  364SOL    HW2 1092   0.359   0.639   0.997 -0.1991 -1.4817  1.4908
  365SOL     OW 1093   0.382   2.953   0.806 -0.3568 -0.3158  0.2650
  365SOL    HW1 1094   0.314   2.948   0.882 -0.0133 -1.1703 -1.5901
  365SOL    HW2 1095   0.430   3.042   0.798  0.6568  0.1466 -0.2422
  366SOL     OW 1096   3.049   1.203   0.060 -0.4585  0.5192 -0.7287
  366SOL    HW1 1097   0.030   1.195   0.022  0.9471  0.1852 -1.2036
  366SOL    HW2 1098   2.987   1.211   3.101  2.3304 -1.0607 -0.5593
  367SOL     OW 1099   2.437   2.454   2.441  0.4647  0.7207 -0.2727
  367SOL    HW1 1100   2.401   2.542   2.474  0.7991 -0.0337 -0.0995
  367SOL    HW2 1101   2.487   2.461   2.354 -1.5512 -1.1110  1.6494
  368SOL     OW 1102   2.261   1.743   0.690  0.1021  0.2930  0.0516
  368SOL    HW1 1103   2.247   1.703   0.595  1.6554 -0.4835 -2.1341
  368SOL    HW2 1104   2.348   1.792   0.701 -1.7293  1.5398 -0.8864
  369SOL     OW 1105   1.451   0.900   3.090  0.0892 -0.2186  0.9346
  369SOL    HW1 1106   1.359   0.857   3.083  0.3483 -0.6870 -3.1544
  369SOL    HW2 1107   1.511   0.840   0.025  1.3519  0.7398  0.4682
  370SOL     OW 1108   0.616   3.093   1.079  0.0630  0.5887 -0.5488
  370SOL    HW1 1109   0.634   0.074   1.105  0.2717 -1.1445 -1.2247
  370SOL    HW2 1110   0.519   3.065   1.100  0.6584 -1.4321 -1.6581
  371SOL     OW 1111   2.893   1.431   2.651 -0.0952  0.0336 -0.1282
  371SOL    HW1 1112   2.948   1.498   2.707  1.8486  1.7037  1.5559
  371SOL    HW2 1113   2.897   1.333   2.688  1.3766 -4.2144 -0.5131
  372SOL     OW 1114   0.523   0.585   2.320  0.8348  0.1992 -0.5799
  372SOL    HW1 1115   0.594   0.596   2.396  3.3167  1.2117  2.5112
  372SOL    HW2 1116   0.571   0.545   2.238 -0.0347  1.2611 -2.7088
  373SOL     OW 1117   0.523   0.272   0.015 -0.0124  0.4831 -0.4142
  373SOL    HW1 1118   0.578   0.323   3.067 -0.9113 -0.2710  1.5563
  373SOL    HW2 1119   0.593   0.219   0.062  0.2635  0.5247 -0.0529
  374SOL     OW 1120   1.158   1.824   3.011  0.0693 -0.2512  0.2662
  374SOL    HW1 1121   1.249   1.871   2.992  1.2824  2.0017 -0.4274
  374SOL    HW2 1122   1.084   1.868   2.957  0.0879 -1.1272  1.6344
  375SOL     OW 1123   0.822   0.146   1.919  0.0962  0.4544  0.5175
  375SOL    HW1 1124   0.900   0.132   1.851  2.3333  1.2272 -2.6583
  375SOL    HW2 1125   0.851   0.191   2.003  0.5677 -0.4876 -2.9241
  376SOL     OW 1126   0.057   2.787   2.054  0.0744  0.0010 -0.3932
  376SOL    HW1 1127   0.025   2.692   2.088 -0.4943 -3.7528  3.5348
  376SOL    HW2 1128   0.067   2.847   2.135 -0.0537 -1.7086 -2.9549
  377SOL     OW 1129   2.683   2.330   2.859  0.1421  0.0932  0.4364
  377SOL    HW1 1130   2.620   2.408   2.876 -0.2410  0.3303  0.0730
  377SOL    HW2 1131   2.700   2.281   2.949 -2.8948 -0.1351 -0.3888
  378SOL     OW 1132   2.292   0.428   0.569  0.1531  0.0093  0.6363
  378SOL    HW1 1133   2.355   0.460   0.644  0.2801  0.5134 -1.1673
  378SOL    HW2 1134   2.330   0.340   0.536  1.9073 -1.4746  1.2509
  379SOL     OW 1135   1.361   0.803   0.519  0.2907  0.1206 -0.6115
  379SOL    HW1 1136   1.269   0.776   0.493  0.5637 -0.8651  1.0453
  379SOL    HW2 1137   1.406   0.830   0.437  0.3567 -0.5142  0.9176
  380SOL     OW 1138   2.570   2.115   1.801  0.0859  0.0655 -0.0374
  380SOL    HW1 1139   2.670   2.133   1.797  0.9701 -0.5501  0.2936
  380SOL    HW2 1140   2.530   2.103   1.705  3.2718  2.4588  1.1152
  381SOL     OW 1141   2.618   1.252   1.946 -0.1840 -0.6824 -0.4958
  381SOL    HW1 1142   2.675   1.331   1.982  0.3505  0.3375 -1.3976
  381SOL    HW2 1143   2.659   1.169   1.981 -0.8353 -2.0154 -2.1741
  382SOL     OW 1144   2.898   2.355   2.668 -0.3105  0.4597  0.4999
  382SOL    HW1 1145   2.818   2.320   2.719  3.1895  1.1611 -0.5054
  382SOL    HW2 1146   2.891   2.323   2.570 -3.3209 -0.5608 -2.6410
  383SOL     OW 1147   1.235   0.851   2.589  0.7683 -0.1911 -0.6141
  383SOL    HW1 1148   1.284   0.875   2.507 -0.3730 -0.8337  0.5220
  383SOL    HW2 1149   1.197   0.755   2.580  0.9263 -0.7342 -0.5854
  384SOL     OW 1150   1.878   1.910   2.407 -0.3497  0.3327 -0.3068
  384SOL    HW1 1151   1.868   2.010   2.401 -0.0183 -1.1540 -1.0385
  384SOL    HW2 1152   1.978   1.883   2.391  2.1047  0.8328 -0.5585
  385SOL     OW 1153   2.768   2.695   0.242  0.0308  0.0898  0.4677
  385SOL    HW1 1154   2.747   2.609   0.289  1.6539  1.0190 -0.3179
  385SOL    HW2 1155   2.750   2.774   0.305 -1.1027 -1.3396 -0.5604
  386SOL     OW 1156   1.808   1.199   0.518  0.4872 -0.0497  0.4225
  386SOL    HW1 1157   1.856   1.115   0.551  1.1390 -1.2716 -1.9624
  386SOL    HW2 1158   1.833   1.282   0.569 -0.3009 -1.5719 -1.4638
  387SOL     OW 1159   2.542   1.741   1.222 -0.1666 -0.1827 -0.3445
  387SOL    HW1 1160   2.577   1.732   1.320 -0.1113 -0.1277  1.7720
  387SOL    HW2 1161   2.624   1.720   1.171 -0.3809  1.6408  1.3395
  388SOL     OW 1162   0.613   1.116   1.791  0.1387 -0.0914 -0.0970
  388SOL    HW1 1163   0.542   1.177   1.754  2.0647 -1.8559 -0.0880
  388SOL    HW2 1164   0.697   1.124   1.737 -1.5267 -0.5033  3.6906
  389SOL     OW 1165   2.249   0.704   2.572  0.1262  0.0116  0.4902
  389SOL    HW1 1166   2.247   0.776   2.495 -1.6192  0.8368 -0.1786
  389SOL    HW2 1167   2.220   0.748   2.659 -1.2429  1.1658  0.2334
  390SOL     OW 1168   0.887   1.509   3.043 -0.2602  0.7784 -0.1638
  390SOL    HW1 1169   0.975   1.558   3.024  0.0431  1.0207 -1.0220
  390SOL    HW2 1170   0.863   1.445   2.968  1.0293  0.9155  1.3097
  391SOL     OW 1171   1.031   1.966   0.207 -0.0267  0.1620  0.3899
  391SOL    HW1 1172   1.043   1.976   0.107 -1.3702 -0.9401  1.0825
  391SOL    HW2 1173   0.956   1.903   0.231 -0.4366 -2.0818 -2.0251
  392SOL     OW 1174   2.794   2.787   2.245  0.1875 -0.1669  0.3514
  392SOL    HW1 1175   2.876   2.795   2.302 -0.9373 -1.0197 -3.4635
  392SOL    HW2 1176   2.811   2.714   2.176  0.1916  1.2124 -1.8452
  393SOL     OW 1177   1.641   2.281   0.274  0.1097  0.1609  0.1434
  393SOL    HW1 1178   1.659   2.379   0.274 -1.2332 -0.7762 -0.1574
  393SOL    HW2 1179   1.555   2.258   0.318 -1.3866  2.1862 -2.0522
  394SOL     OW 1180   0.861   0.160   2.344 -0.1835 -0.4615  0.0930
  394SOL    HW1 1181   0.902   0.200   2.426  0.7595  1.6222  1.4812
  394SOL    HW2 1182   0.891   0.223   2.267  2.4564  0.2711  0.6380
  395SOL     OW 1183   0.209   1.906   1.457  0.3093  0.2506  0.2172
  395SOL    HW1 1184   0.156   1.885   1.541 -1.8260 -0.3134  0.2335
  395SOL    HW2 1185   0.178   2.000   1.427 -2.6470  0.0280  1.8033
  396SOL     OW 1186   2.189   1.339   2.930 -0.5374  0.7887  0.2978
  396SOL    HW1 1187   2.133   1.254   2.926  0.1174  0.2095  0.2996
  396SOL    HW2 1188   2.127   1.418   2.897  0.0891  2.6944 -0.1248
  397SOL     OW 1189   0.186   0.504   0.215  0.2716 -0.4046  0.0220
  397SOL    HW1 1190   0.262   0.439   0.226 -1.1658  3.6353 -0.4253
  397SOL    HW2 1191   0.191   0.576   0.289  1.8606  1.6771  3.1453
  398SOL     OW 1192   0.991   2.605   0.492  0.3193  0.0613 -0.3098
  398SOL    HW1 1193   1.084   2.652   0.494  1.4445  0.6161 -0.0916
  398SOL    HW2 1194   0.921   2.662   0.448  2.3641 -1.7441  0.8430
  399SOL     OW 1195   1.983   2.374   2.781 -0.0697  0.4226 -0.1573
  399SOL    HW1 1196   1.959   2.460   2.830 -0.7344  1.7525 -1.4616
  399SOL    HW2 1197   1.978   2.375   2.682 -1.6751 -0.1457  0.3819
  400SOL     OW 1198   3.001   1.558   1.525 -0.6619  0.1203 -0.4988
  400SOL    HW1 1199   3.003   1.606   1.616  0.4810 -1.1303  0.0763
  400SOL    HW2 1200   3.047   1.612   1.454 -4.3795 -2.8328  1.3576
  401SOL     OW 1201   0.974   0.720   0.760 -0.0634 -0.7282  0.0045
  401SOL    HW1 1202   0.962   0.666   0.676 -2.1428  0.1619  3.7418
  401SOL    HW2 1203   0.962   0.819   0.741 -3.5675  2.0732  3.6702
  402SOL     OW 1204   0.694   3.110   2.679  0.1199  1.0425  0.2591
  402SOL    HW1 1205   0.766   3.099   2.754  0.0503  0.7227 -0.8461
  402SOL    HW2 1206   0.692   0.086   2.646 -2.1504 -0.3520 -0.9100
  403SOL     OW 1207   2.806   1.546   1.795  0.2158 -0.2495  0.1292
  403SOL    HW1 1208   2.704   1.525   1.806 -1.8278 -1.5487  2.2635
  403SOL    HW2 1209   2.829   1.644   1.807 -0.8413  0.1068 -0.9106
  404SOL     OW 1210   2.440   2.016   1.540  0.0289  0.1642  0.3367
  404SOL    HW1 1211   2.341   2.037   1.531  0.6439 -0.2853 -1.8397
  404SOL    HW2 1212   2.487   2.064   1.464 -1.5979  1.9999  0.5567
  405SOL     OW 1213   2.293   0.223   2.442 -0.2723 -0.4717  0.4270
  405SOL    HW1 1214   2.223   0.182   2.503  1.4819  2.7400  0.4959
  405SOL    HW2 1215   2.264   0.315   2.408  0.3728  0.1560 -2.2899
  406SOL     OW 1216   1.097   1.587   2.910  0.6869 -0.1504 -0.0914
  406SOL    HW1 1217   1.127   1.687   2.917 -3.0052  1.7804 -0.2685
  406SOL    HW2 1218   1.160   1.535   2.849  0.0952 -0.0989 -1.2713
  407SOL     OW 1219   1.695   1.863   0.798  0.6090 -0.3166  0.0417
  407SOL    HW1 1220   1.707   1.759   0.788 -0.1948 -5.1157 -0.6501
  407SOL    HW2 1221   1.758   1.920   0.738  1.3681  2.4531 -0.4865
  408SOL     OW 1222   3.098   0.311   0.982  0.5795 -0.1234  0.1974
  408SOL    HW1 1223   2.999   0.306   0.958  1.1722  0.1278  2.2482
  408SOL    HW2 1224   0.012   0.214   0.999 -1.3803 -4.2263  0.6385
  409SOL     OW 1225   1.786   1.461   0.572  0.2142  0.0203  0.1244
  409SOL    HW1 1226   1.773   1.506   0.665  0.2682  1.7513  2.0391
  409SOL    HW2 1227   1.853   1.510   0.513 -0.4824 -0.8180 -0.7832
  410SOL     OW 1228   2.323   2.392   0.227  0.2594 -0.1294  0.1580
  410SOL    HW1 1229   2.243   2.365   0.285 -1.4844  0.7722  1.3509
  410SOL    HW2 1230   2.372   2.472   0.270 -0.3893 -0.1704  2.1244
  411SOL     OW 1231   0.386   3.059   0.402  0.3289 -0.1328 -0.5908
  411SOL    HW1 1232   0.351   0.035   0.386  0.5500 -0.5671  0.8727
  411SOL    HW2 1233   0.325   2.997   0.452  1.0152 -0.2743  0.0341
  412SOL     OW 1234   1.532   2.952   0.786  0.2192 -0.6253 -0.5917
  412SOL    HW1 1235   1.430   2.952   0.794  0.6233  1.0180 -0.6143
  412SOL    HW2 1236   1.571   3.031   0.839  1.9820 -0.1576 -1.1051
  413SOL     OW 1237   1.719   0.279   2.516  0.2250 -0.2275  0.3852
  413SOL    HW1 1238   1.752   0.373   2.495 -1.2588 -1.3043  1.4932
  413SOL    HW2 1239   1.622   0.260   2.482  2.2908 -0.0465 -1.6537
  414SOL     OW 1240   0.261   0.704   0.412  0.0751  0.4430 -0.1407
  414SOL    HW1 1241   0.192   0.677   0.478  0.8804  0.9797 -3.4434
  414SOL    HW2 1242   0.327   0.770   0.450 -0.8287 -3.0501  2.2665
  415SOL     OW 1243   2.970   1.512   1.164  0.4617 -0.1969 -0.0223
  415SOL    HW1 1244   2.961   1.410   1.171 -1.1294  1.1809 -0.5656
  415SOL    HW2 1245   3.051   1.529   1.106  1.0795 -2.7209 -0.3071
  416SOL     OW 1246   0.392   0.756   2.857  0.2455 -0.7391  0.2046
  416SOL    HW1 1247   0.357   0.663   2.851 -1.7349  1.6733 -2.8053
  416SOL    HW2 1248   0.391   0.802   2.765  2.2385  1.7738  1.6516
  417SOL     OW 1249   2.518   0.516   0.758 -0.0965 -0.8338  0.2435
  417SOL    HW1 1250   2.571   0.439   0.723  0.5672  3.7166  0.1330
  417SOL    HW2 1251   2.553   0.546   0.850 -0.5427 -1.4943  1.4130
  418SOL     OW 1252   0.614   0.255   2.288 -0.3364  0.0280 -0.2668
  418SOL    HW1 1253   0.703   0.202   2.279  1.2832 -0.5764 -0.5545
  418SOL    HW2 1254   0.597   0.315   2.207 -1.2552 -0.6034 -1.6218
  419SOL     OW 1255   0.236   1.023   0.588 -0.9670 -0.1518  0.1409
  419SOL    HW1 1256   0.154   1.005   0.528  1.6649  0.7853  0.1806
  419SOL    HW2 1257   0.205   1.041   0.689 -0.1445 -0.7476 -0.7304
  420SOL     OW 1258   2.320   1.592   1.217  0.7714 -0.4100  0.5396
  420SOL    HW1 1259   2.261   1.595   1.134 -1.5690  1.2123  1.6650
  420SOL    HW2 1260   2.387   1.672   1.217  1.6417  0.6158  2.1451
  421SOL     OW 1261   1.090   2.127   2.722  0.3065 -0.3606 -0.0520
  421SOL    HW1 1262   1.060   2.033   2.705 -0.0050 -2.0309 -2.6620
  421SOL    HW2 1263   1.185   2.143   2.691  1.3820 -0.9682 -1.5073
  422SOL     OW 1264   2.436   0.434   2.848 -0.2388  0.6250  0.0463
  422SOL    HW1 1265   2.499   0.436   2.768 -0.4623  0.7393  0.3425
  422SOL    HW2 1266   2.437   0.518   2.903 -2.2574 -1.8090 -0.1393
  423SOL     OW 1267   1.848   1.564   0.128 -0.0996 -0.4558  0.0747
  423SOL    HW1 1268   1.918   1.497   0.163  0.6151 -0.7308  0.7826
  423SOL    HW2 1269   1.846   1.646   0.186 -2.3717 -2.1413 -2.6260
  424SOL     OW 1270   0.956   0.953   1.965 -0.2628 -0.6006 -0.5929
  424SOL    HW1 1271   0.855   0.957   1.959 -0.0882 -1.4732 -1.2555
  424SOL    HW2 1272   0.985   1.003   2.053  2.8069  1.9386  1.3622
  425SOL     OW 1273   3.005   2.752   2.390 -0.4543 -0.8044 -0.2092
  425SOL    HW1 1274   3.064   2.833   2.375 -2.6708 -2.6566  0.6830
  425SOL    HW2 1275   2.994   2.732   2.489  0.2593 -1.9571 -0.1021
  426SOL     OW 1276   1.994   2.609   0.368 -0.2771 -0.1356 -0.3574
  426SOL    HW1 1277   2.091   2.640   0.368  2.1304 -0.0149 -1.7103
  426SOL    HW2 1278   1.945   2.649   0.447  1.3722  1.0091 -0.3112
  427SOL     OW 1279   0.700   0.433   2.984  0.1788 -0.0394 -0.0000
  427SOL    HW1 1280   0.727   0.528   2.995 -0.0489 -0.3840 -0.2141
  427SOL    HW2 1281   0.648   0.423   2.896 -3.5529  0.6525  1.2599
  428SOL     OW 1282   2.486   1.208   2.625  0.4976 -0.1886  0.4704
  428SOL    HW1 1283   2.391   1.201   2.601  2.2066  1.1096  1.3264
  428SOL    HW2 1284   2.521   1.303   2.627 -3.4307  1.4946 -0.9666
  429SOL     OW 1285   2.567   0.423   0.225  0.0656 -0.2477 -0.1863
  429SOL    HW1 1286   2.518   0.500   0.272 -0.8199  0.9181  0.0956
  429SOL    HW2 1287   2.663   0.440   0.203  0.2210  2.5465  2.3308
  430SOL     OW 1288   1.327   2.514   2.199 -0.0716 -0.2126 -0.8759
  430SOL    HW1 1289   1.248   2.449   2.198 -1.2683  0.2485  1.1262
  430SOL    HW2 1290   1.329   2.575   2.115  2.4443 -1.4206 -2.3231
  431SOL     OW 1291   2.793   1.872   1.365 -0.1987 -0.1671 -0.3932
  431SOL    HW1 1292   2.738   1.820   1.431  2.4639  0.8994  0.1388
  431SOL    HW2 1293   2.801   1.826   1.277  1.2852  0.6824  0.5384
  432SOL     OW 1294   2.379   2.407   2.051 -0.2784  0.0973 -0.2654
  432SOL    HW1 1295   2.465   2.426   2.101  1.1514 -1.0632 -0.3552
  432SOL    HW2 1296   2.379   2.313   2.013  0.1779  0.9702  0.6987
  433SOL     OW 1297   1.437   2.052   0.166 -0.6427  0.0844 -0.3582
  433SOL    HW1 1298   1.384   1.967   0.187 -1.3256  0.5337  0.5164
  433SOL    HW2 1299   1.371   2.123   0.138 -0.2625 -1.3180  0.8800
  434SOL     OW 1300   0.201   2.155   2.802 -0.2419 -0.8294 -0.5338
  434SOL    HW1 1301   0.200   2.165   2.905 -0.2386  0.5478  0.7103
  434SOL    HW2 1302   0.104   2.163   2.773 -0.4629  1.9459  1.3678
  435SOL     OW 1303   0.030   1.019   0.397 -0.0524  0.0227 -0.2306
  435SOL    HW1 1304   3.118   1.114   0.375  2.0637  1.6422 -0.5880
  435SOL    HW2 1305   3.098   0.956   0.332 -2.6804 -2.1232  1.9323
  436SOL     OW 1306   0.593   2.620   1.581  0.0217 -0.0203 -0.2670
  436SOL    HW1 1307   0.584   2.542   1.643  0.2963  1.9288 -1.0151
  436SOL    HW2 1308   0.617   2.711   1.625  1.5407  0.6690  0.7600
  437SOL     OW 1309   0.948   2.757   1.085  0.0598 -0.7065 -0.0589
  437SOL    HW1 1310   0.900   2.833   1.135  0.7906 -0.2830 -0.5399
  437SOL    HW2 1311   1.032   2.792   1.035 -1.8464 -3.0223  0.9543
  438SOL     OW 1312   0.159   2.353   0.694 -0.6418  0.3548  0.2914
  438SOL    HW1 1313   0.172   2.258   0.673 -1.0763  1.0062 -1.4734
  438SOL    HW2 1314   0.097   2.362   0.773 -2.2143  0.9646 -1.3141
  439SOL     OW 1315   1.062   2.418   1.883 -0.0236 -0.3019  0.1997
  439SOL    HW1 1316   1.000   2.437   1.804  0.1672  0.0263 -0.6919
  439SOL    HW2 1317   0.995   2.386   1.951  1.7839 -0.5564 -1.6300
  440SOL     OW 1318   2.339   2.746   2.154 -0.0405  0.3902 -0.0239
  440SOL    HW1 1319   2.282   2.663   2.189 -1.3063 -0.4229  0.9905
  440SOL    HW2 1320   2.352   2.736   2.054 -1.8446 -0.6587 -1.1238
  441SOL     OW 1321   0.268   0.554   1.657  0.0928 -0.0928 -0.2938
  441SOL    HW1 1322   0.261   0.581   1.754  0.6421  2.3439  2.6086
  441SOL    HW2 1323   0.225   0.466   1.634  0.3643 -2.4436  1.4900
  442SOL     OW 1324   1.946   2.357   0.456 -0.5150 -0.6311 -0.1318
  442SOL    HW1 1325   1.963   2.451   0.420  1.1898 -3.0882 -0.3718
  442SOL    HW2 1326   1.854   2.349   0.500 -0.2198 -0.7960 -0.5552
  443SOL     OW 1327   0.090   0.665   2.653 -0.4984 -0.0406  0.3099
  443SOL    HW1 1328   0.103   0.563   2.654 -0.2280 -2.6424 -0.6581
  443SOL    HW2 1329   0.078   0.702   2.747 -2.3598 -2.2070 -0.1486
  444SOL     OW 1330   1.741   1.030   2.098  0.0397 -0.3396  0.0794
  444SOL    HW1 1331   1.836   1.066   2.097 -0.3819 -0.8582  1.5315
  444SOL    HW2 1332   1.692   1.072   2.017 -0.0666  0.2194 -1.0929
  445SOL     OW 1333   3.115   2.610   1.381 -0.1953  0.4561 -0.2849
  445SOL    HW1 1334   0.054   2.589   1.459 -2.8681  4.6038 -0.1553
  445SOL    HW2 1335   3.029   2.553   1.382 -1.2078 -0.7810 -0.0060
  446SOL     OW 1336   2.812   1.717   1.142 -0.4686 -0.3475 -0.1595
  446SOL    HW1 1337   2.871   1.635   1.153  2.0326 -0.2975  1.7276
  446SOL    HW2 1338   2.847   1.773   1.065  3.3266  0.8749  0.3018
  447SOL     OW 1339   0.445   0.927   0.441  0.0577 -0.4311 -0.6601
  447SOL    HW1 1340   0.373   0.957   0.509 -2.4268  1.7413 -0.6500
  447SOL    HW2 1341   0.475   1.010   0.386 -0.3770  2.4806  0.2720
  448SOL     OW 1342   1.369   1.821   1.792  0.3248 -0.2777 -0.5842
  448SOL    HW1 1343   1.338   1.910   1.755  1.1680  0.0233 -0.5216
  448SOL    HW2 1344   1.412   1.838   1.884  1.0688  1.3372 -0.7316
  449SOL     OW 1345   1.375   1.500   0.240 -0.1471 -0.1484 -0.3144
  449SOL    HW1 1346   1.398   1.443   0.321  0.4363  0.2746 -0.6596
  449SOL    HW2 1347   1.278   1.530   0.241  1.8042 -2.2856 -3.5730
  450SOL     OW 1348   2.755   3.031   1.976  0.6071 -0.1468 -0.6917
  450SOL    HW1 1349   2.829   2.966   1.946  4.6704  1.4736 -0.7837
  450SOL    HW2 1350   2.710   3.006   2.071 -2.5516 -2.8883  3.6464
  451SOL     OW 1351   2.177   0.460   2.652  0.6509  0.3814  0.4725
  451SOL    HW1 1352   2.210   0.553   2.623  0.0308  3.1293 -1.2444
  451SOL    HW2 1353   2.163   0.448   2.749  0.8976 -1.6435 -2.6731
  452SOL     OW 1354   1.458   0.587   0.734 -0.1613 -0.0960 -0.0308
  452SOL    HW1 1355   1.481   0.508   0.673 -0.9042  1.0416  0.5640
  452SOL    HW2 1356   1.442   0.668   0.673 -0.5874 -1.0210 -0.1542
  453SOL     OW 1357   1.852   0.794   1.605  0.1087  0.3247 -0.2158
  453SOL    HW1 1358   1.923   0.859   1.639 -0.4317 -1.6940  0.0869
  453SOL    HW2 1359   1.881   0.744   1.520 -1.5864 -0.9752  0.3246
  454SOL     OW 1360   3.060   1.290   0.304  0.3829  0.5420 -0.5507
  454SOL    HW1 1361   3.044   1.238   0.217  0.7816  0.0799 -1.1939
  454SOL    HW2 1362   3.095   1.388   0.297 -0.6030  2.4183 -1.2422
  455SOL     OW 1363   2.936   3.008   1.004  0.0315  0.0228  0.1438
  455SOL    HW1 1364   2.932   2.921   0.951  1.0055  1.2579 -1.4935
  455SOL    HW2 1365   2.893   3.084   0.948  2.0567 -0.2463 -0.5354
  456SOL     OW 1366   0.189   2.958   1.429 -0.7017 -0.0717  0.0067
  456SOL    HW1 1367   0.268   2.916   1.383  3.5785 -2.1065  0.6187
  456SOL    HW2 1368   0.201   2.956   1.532  1.7258 -0.1917 -1.2093
  457SOL     OW 1369   1.330   0.029   0.330 -0.2130  0.0020 -0.5929
  457SOL    HW1 1370   1.267   0.063   0.402 -0.8958  3.0621  0.9367
  457SOL    HW2 1371   1.410   3.093   0.372  2.5980 -2.1459  1.6374
  458SOL     OW 1372   2.464   2.758   0.909 -0.4050 -0.2647  0.0582
  458SOL    HW1 1373   2.400   2.760   0.987 -0.5643 -0.7220  0.8246
  458SOL    HW2 1374   2.518   2.845   0.904 -0.2072  1.5481  1.6733
  459SOL     OW 1375   2.073   0.477   2.929 -0.2597  0.0712 -0.2263
  459SOL    HW1 1376   2.084   0.408   3.007  0.1148 -0.4435  0.5387
  459SOL    HW2 1377   2.052   0.565   2.972  0.6238  0.0401 -0.2238
  460SOL     OW 1378   2.526   2.937   3.045 -0.2107 -0.2129 -0.6415
  460SOL    HW1 1379   2.480   2.985   2.968  0.8595  3.1151  1.5245
  460SOL    HW2 1380   2.593   2.868   3.007  1.3367 -1.8682 -0.3516
  461SOL     OW 1381   0.824   1.779   0.308  0.2476  0.4550  0.3916
  461SOL    HW1 1382   0.892   1.731   0.362 -2.6061  2.7751 -0.6114
  461SOL    HW2 1383   0.766   1.835   0.367 -0.2176 -1.0425 -1.9894
  462SOL     OW 1384   2.060   2.164   0.699 -0.3241 -0.4902  0.1256
  462SOL    HW1 1385   2.075   2.136   0.795 -0.2587  1.3675 -0.2858
  462SOL    HW2 1386   2.090   2.263   0.681  3.1384  0.9161 -3.2330
  463SOL     OW 1387   2.434   1.097   0.581  0.8257 -0.4659  0.5412
  463SOL    HW1 1388   2.479   1.115   0.668  2.5229 -0.7866  0.3704
  463SOL    HW2 1389   2.488   1.026   0.530  0.2995  0.8576  0.8201
  464SOL     OW 1390   0.477   0.050   1.343  0.1433 -0.0349  0.2282
  464SOL    HW1 1391   0.432   0.009   1.262 -2.1570 -0.1781  0.8365
  464SOL    HW2 1392   0.493   3.101   1.415  1.0875  1.7350 -1.4625
  465SOL     OW 1393   2.609   1.318   3.107 -0.4321 -0.2706  0.0310
  465SOL    HW1 1394   2.518   1.322   0.022 -0.3707 -0.7386  1.1321
  465SOL    HW2 1395   2.651   1.409   3.103 -1.4076 -3.5610 -0.3463
  466SOL     OW 1396   1.931   0.203   2.854  0.0250  0.2426 -0.3686
  466SOL    HW1 1397   1.954   0.156   2.943  0.9076  2.1812  2.7244
  466SOL    HW2 1398   1.944   0.304   2.857 -0.0622  0.9756  1.3281
  467SOL     OW 1399   1.011   0.560   1.514 -0.6955 -0.7845  0.4471
  467SOL    HW1 1400   1.021   0.462   1.482  1.3843 -0.4617 -2.5699
  467SOL    HW2 1401   1.101   0.608   1.524  1.3162  0.5986  1.0721
  468SOL     OW 1402   0.275   1.098   2.622 -0.2130  0.0269 -0.6459
  468SOL    HW1 1403   0.351   1.107   2.688  2.9228  0.5204  0.5245
  468SOL    HW2 1404   0.283   1.154   2.539  0.7141 -0.7441 -0.9245
  469SOL     OW 1405   0.602   2.182   0.316  0.1588 -0.6239 -0.0379
  469SOL    HW1 1406   0.517   2.186   0.372  3.1486  0.5134  0.5151
  469SOL    HW2 1407   0.611   2.280   0.271 -1.9155  1.3596  0.0337
  470SOL     OW 1408   2.527   1.443   2.354 -0.2150 -0.0711  0.1473
  470SOL    HW1 1409   2.580   1.430   2.438 -2.9280  1.6413 -0.5886
  470SOL    HW2 1410   2.467   1.361   2.337  2.1189 -1.3774  0.4887
  471SOL     OW 1411   2.781   1.086   2.077 -0.0852 -0.3518  0.4891
  471SOL    HW1 1412   2.752   0.994   2.052  1.9101  2.2245  1.2309
  471SOL    HW2 1413   2.779   1.093   2.179 -1.5322  1.8438  1.2256
  472SOL     OW 1414   0.530   2.733   0.751  0.1338 -0.0388  0.1496
  472SOL    HW1 1415   0.486   2.820   0.779  1.1158 -1.6123  5.2630
  472SOL    HW2 1416   0.618   2.731   0.798 -2.2936  0.8558  0.0708
  473SOL     OW 1417   0.699   0.100   0.120  0.0769  0.1428 -0.2417
  473SOL    HW1 1418   0.675   0.083   0.219 -1.7397  0.3385 -0.2344
  473SOL    HW2 1419   0.699   0.011   0.078  1.5567 -0.2580  1.2881
  474SOL     OW 1420   1.791   0.025   2.397  0.5854 -0.3035 -0.1203
  474SOL    HW1 1421   1.750   0.124   2.407 -0.6333  5.2515  1.8626
  474SOL    HW2 1422   1.813   0.005   2.300 -1.4401 -1.4619  1.0426
  475SOL     OW 1423   1.615   2.626   0.500  0.3079  0.1085  0.2689
  475SOL    HW1 1424   1.582   2.723   0.499 -2.4419 -0.5348  2.1573
  475SOL    HW2 1425   1.620   2.592   0.403 -0.8308 -1.9904  0.1932
  476SOL     OW 1426   0.216   1.051   0.850 -0.2891  0.1706 -0.1411
  476SOL    HW1 1427   0.156   1.045   0.934  1.1204  1.4144 -0.4837
  476SOL    HW2 1428   0.311   1.048   0.885 -1.6774 -1.7617  0.9072
  477SOL     OW 1429   1.460   2.469   1.194 -0.0226  0.5739  0.0171
  477SOL    HW1 1430   1.441   2.371   1.163  1.1373 -1.4358  1.1192
  477SOL    HW2 1431   1.552   2.505   1.168  1.1788 -1.8625  2.1569
  478SOL     OW 1432   0.546   1.763   2.345 -0.1129 -0.0937  0.0295
  478SOL    HW1 1433   0.589   1.746   2.257  0.5530  0.9162 -0.4870
  478SOL    HW2 1434   0.615   1.762   2.419 -2.0764 -1.8640 -2.0985
  479SOL     OW 1435   2.792   0.304   1.076 -0.1943  0.5555 -0.1604
  479SOL    HW1 1436   2.725   0.376   1.056  1.9555 -0.1643 -0.2239
  479SOL    HW2 1437   2.832   0.307   1.169 -1.4827  1.7206 -1.8298
  480SOL     OW 1438   3.087   2.974   0.557 -0.8294  0.1017 -0.3780
  480SOL    HW1 1439   0.057   2.939   0.593 -1.6520 -1.1497  1.7967
  480SOL    HW2 1440   3.088   2.997   0.458 -0.7355 -0.6779  2.5030
  481SOL     OW 1441   2.681   2.643   1.022 -0.0570 -0.0953  0.2243
  481SOL    HW1 1442   2.592   2.651   0.968 -2.5658 -0.1046  1.4929
  481SOL    HW2 1443   2.687   2.722   1.089  2.9844 -0.4168 -0.0116
  482SOL     OW 1444   1.361   2.137   2.639  0.2608  0.1751  0.2913
  482SOL    HW1 1445   1.457   2.114   2.650 -1.1849  1.4507  1.5351
  482SOL    HW2 1446   1.342   2.234   2.667 -0.6409  0.2337  0.2297
  483SOL     OW 1447   0.592   1.967   2.678 -0.1344 -0.1069  0.5095
  483SOL    HW1 1448   0.659   2.017   2.738  1.4198 -2.5172 -1.1908
  483SOL    HW2 1449   0.519   2.030   2.635 -1.8889 -0.1676  1.8480
  484SOL     OW 1450   1.006   1.217   1.869  0.6249  0.0810  0.5835
  484SOL    HW1 1451   0.995   1.128   1.911  0.8753  3.9677 -0.2872
  484SOL    HW2 1452   1.085   1.268   1.912  0.0059  0.2639  2.6645
  485SOL     OW 1453   2.443   0.615   0.406 -0.0447 -0.0913  1.0262
  485SOL    HW1 1454   2.396   0.544   0.458  1.1141 -0.8472 -2.4573
  485SOL    HW2 1455   2.377   0.671   0.355  2.6973 -0.4552  0.8912
  486SOL     OW 1456   1.607   0.067   0.936  0.3370  0.5224  0.2931
  486SOL    HW1 1457   1.604   0.166   0.964  0.2623 -0.5749  1.1122
  486SOL    HW2 1458   1.705   0.043   0.903  0.6321 -0.2341 -0.3587
  487SOL     OW 1459   0.439   2.211   1.130  0.8706  0.5219 -0.0028
  487SOL    HW1 1460   0.442   2.287   1.067  1.2347 -2.2005  1.2146
  487SOL    HW2 1461   0.470   2.232   1.226 -1.7065 -1.0439  0.6758
  488SOL     OW 1462   2.352   1.372   0.510  0.0600 -0.8081 -0.3939
  488SOL    HW1 1463   2.282   1.406   0.571  0.8602  1.0896 -1.4320
  488SOL    HW2 1464   2.342   1.272   0.493  1.2219  0.3150 -2.7010
  489SOL     OW 1465   1.522   0.307   1.070 -0.0595 -0.1983  0.1364
  489SOL    HW1 1466   1.552   0.275   1.162 -0.0695  0.7642 -0.4923
  489SOL    HW2 1467   1.570   0.387   1.032 -2.0588 -1.3705 -0.2776
  490SOL     OW 1468   1.176   0.368   0.554 -0.3276  0.9648  0.0856
  490SOL    HW1 1469   1.122   0.452   0.576 -0.9626  0.6927  0.7192
  490SOL    HW2 1470   1.189   0.349   0.451  0.6221  1.3310 -3.0892
  491SOL     OW 1471   0.566   2.331   0.573 -0.4005  0.5657 -0.3618
  491SOL    HW1 1472   0.667   2.343   0.577 -2.9233 -0.4377 -1.4824
  491SOL    HW2 1473   0.527   2.423   0.564  0.0408 -3.7473  1.2759
  492SOL     OW 1474   1.161   1.571   2.297  0.3159  0.2152  0.2176
  492SOL    HW1 1475   1.172   1.479   2.338 -3.8384  0.0573  0.4748
  492SOL    HW2 1476   1.130   1.574   2.198 -0.3566  1.9868  0.0431
  493SOL     OW 1477   3.103   2.398   0.910 -0.2583  0.2690  0.1900
  493SOL    HW1 1478   3.076   2.311   0.962  0.0258  1.2434  2.4660
  493SOL    HW2 1479   3.106   2.476   0.975  0.0444 -2.0059 -0.0379
  494SOL     OW 1480   2.642   2.151   3.062  1.0607  0.2624 -0.4246
  494SOL    HW1 1481   2.576   2.091   3.013 -2.6357 -1.2044 -1.2395
  494SOL    HW2 1482   2.601   2.177   0.034 -0.8546 -0.3347  1.2067
  495SOL     OW 1483   2.773   1.766   2.668  0.1344  0.5152  0.2484
  495SOL    HW1 1484   2.716   1.771   2.754 -2.7436 -0.2312  0.3375
  495SOL    HW2 1485   2.772   1.672   2.633  2.3863  2.8178 -0.0070
  496SOL     OW 1486   2.846   0.168   1.598  0.0603 -1.2024  0.0840
  496SOL    HW1 1487   2.859   0.072   1.566  0.1976  1.2256  0.1150
  496SOL    HW2 1488   2.833   0.178   1.696  0.8351  1.9443 -2.0881
  497SOL     OW 1489   2.547   0.945   0.401  0.3883 -0.3097  0.3742
  497SOL    HW1 1490   2.458   0.907   0.373  1.1926 -2.4139 -1.1772
  497SOL    HW2 1491   2.613   0.873   0.425 -3.4043  0.8336  1.6810
  498SOL     OW 1492   0.553   2.383   2.643 -0.2372  0.5887 -0.4802
  498SOL    HW1 1493   0.549   2.431   2.555 -0.3617 -3.3389  1.7080
  498SOL    HW2 1494   0.499   2.297   2.633 -0.5386  0.0207 -3.1402
  499SOL     OW 1495   1.087   2.341   0.258 -0.4488 -0.4127  0.2240
  499SOL    HW1 1496   1.029   2.270   0.295 -0.5350  0.4133  0.1379
  499SOL    HW2 1497   1.153   2.302   0.187  0.7000 -1.8874 -1.7969
  500SOL     OW 1498   1.194   2.980   0.154  0.1010  0.2949  0.6583
  500SOL    HW1 1499   1.260   3.040   0.202  0.6530 -2.8973 -2.5124
  500SOL    HW2 1500   1.095   3.006   0.162 -1.7261  0.7572  0.1796
  501SOL     OW 1501   1.659   3.059   1.828 -0.5786  0.3721 -0.2370
  501SOL    HW1 1502   1.594   3.005   1.772 -2.4800 -1.2096 -0.2412
  501SOL    HW2 1503   1.657   0.035   1.798 -0.7471 -1.1465 -0.8463
  502SOL     OW 1504   2.978   0.473   2.168 -0.9333 -0.2810 -0.2514
  502SOL    HW1 1505   3.008   0.413   2.246  2.0437  0.0393  0.2219
  502SOL    HW2 1506   3.009   0.434   2.081  1.2552 -1.1737  0.9993
  503SOL     OW 1507   2.563   2.102   2.465 -0.0871  0.4546  0.1656
  503SOL    HW1 1508   2.545   2.126   2.372  2.0025  0.6533  0.3506
  503SOL    HW2 1509   2.571   2.182   2.525 -0.9087 -1.2541 -4.0338
  504SOL     OW 1510   1.387   0.410   1.512  0.6076 -0.0018  0.4711
  504SOL    HW1 1511   1.463   0.449   1.449  0.7570  0.9867  0.5215
  504SOL    HW2 1512   1.421   0.374   1.595 -0.7310  1.8189 -5.3946
  505SOL     OW 1513   0.778   0.622   1.881 -0.0684 -0.0471  0.0152
  505SOL    HW1 1514   0.849   0.622   1.952 -3.3286  1.5822  0.3314
  505SOL    HW2 1515   0.770   0.527   1.842 -0.3468  0.3222 -1.4933
  506SOL     OW 1516   0.336   0.799   2.309  0.0066 -0.0951  0.2595
  506SOL    HW1 1517   0.310   0.834   2.400  0.2835  0.2729  2.7478
  506SOL    HW2 1518   0.394   0.718   2.325  2.8384  2.3167  3.5195
  507SOL     OW 1519   0.297   2.942   3.071 -0.3113 -0.4593 -0.2952
  507SOL    HW1 1520   0.213   2.982   3.029  0.9777 -0.0798  1.4790
  507SOL    HW2 1521   0.353   2.898   2.990  1.5764 -0.8844  2.1056
  508SOL     OW 1522   1.594   0.713   1.587  0.1125  0.0128  0.0887
  508SOL    HW1 1523   1.602   0.640   1.518 -1.0811 -0.9727 -3.6559
  508SOL    HW2 1524   1.685   0.756   1.592  0.4593 -2.7174 -0.7857
  509SOL     OW 1525   0.946   1.882   1.588  0.5253  0.5530 -0.4679
  509SOL    HW1 1526   0.962   1.981   1.612 -1.5113  0.3848 -0.0570
  509SOL    HW2 1527   0.954   1.854   1.495 -1.4350  1.0337  3.2391
  510SOL     OW 1528   2.251   1.142   2.112 -0.3319 -0.1358  0.9775
  510SOL    HW1 1529   2.324   1.170   2.173  0.4755  1.0491 -2.6749
  510SOL    HW2 1530   2.280   1.061   2.060 -0.1319  1.4610 -2.4097
  511SOL     OW 1531   0.521   1.943   1.102 -0.4364  0.5062  0.6124
  511SOL    HW1 1532   0.492   2.039   1.084 -0.0911 -1.9597  0.6261
  511SOL    HW2 1533   0.579   1.922   1.188  1.6026 -0.8310 -0.3293
  512SOL     OW 1534   2.665   2.440   0.300 -0.2362 -0.1140 -0.1181
  512SOL    HW1 1535   2.635   2.406   0.209 -1.9588  0.8344 -5.0629
  512SOL    HW2 1536   2.594   2.484   0.356 -0.8256 -0.3614  1.0922
  513SOL     OW 1537   0.018   1.933   2.501 -0.4135  0.2417 -0.0763
  513SOL    HW1 1538   0.045   1.841   2.540 -1.3014 -0.2611  3.0670
  513SOL    HW2 1539   3.037   1.946   2.506  2.9804 -1.2285  2.2295
  514SOL     OW 1540   0.376   2.565   2.771 -0.0486 -0.1602  0.4422
  514SOL    HW1 1541   0.293   2.536   2.717 -0.1661 -1.3559 -0.9697
  514SOL    HW2 1542   0.458   2.527   2.727  1.3562  0.1243 -1.6741
  515SOL     OW 1543   2.154   1.351   1.190 -0.7559  0.1529  0.2302
  515SOL    HW1 1544   2.247   1.317   1.188 -3.1541 -1.9965 -0.9310
  515SOL    HW2 1545   2.138   1.440   1.143  0.8161  1.1194  1.9581
  516SOL     OW 1546   2.516   2.290   2.644  0.1258 -0.0076 -0.4075
  516SOL    HW1 1547   2.494   2.369   2.590 -1.7406 -2.1659  3.7010
  516SOL    HW2 1548   2.592   2.301   2.710  0.4487  1.7808  1.7712
  517SOL     OW 1549   1.594   0.983   2.880  0.1359  0.4994 -0.0028
  517SOL    HW1 1550   1.588   1.077   2.856 -0.4817 -1.8083  0.9184
  517SOL    HW2 1551   1.544   0.961   2.968 -1.9355 -0.8291  1.3148
  518SOL     OW 1552   2.918   0.076   2.440  0.0659  0.1813  0.8930
  518SOL    HW1 1553   2.925   0.018   2.353 -0.5141 -1.5333  0.8904
  518SOL    HW2 1554   2.823   0.063   2.483 -2.9996 -1.4574 -0.7547
  519SOL     OW 1555   1.648   1.804   2.246  0.1026 -0.1185 -0.0399
  519SOL    HW1 1556   1.561   1.784   2.293 -0.7086 -0.3050  1.3992
  519SOL    HW2 1557   1.716   1.826   2.319  0.3761  1.0863 -1.9553
  520SOL     OW 1558   2.882   3.089   2.898  0.7819 -0.1475  0.3464
  520SOL    HW1 1559   2.803   0.033   2.878  0.6531 -2.0985  0.3148
  520SOL    HW2 1560   2.856   3.005   2.841 -1.3820  0.3922 -0.0808
  521SOL     OW 1561   0.443   1.663   1.681  0.3344 -0.1310  0.0375
  521SOL    HW1 1562   0.429   1.678   1.781 -0.1696 -1.9368  0.8423
  521SOL    HW2 1563   0.537   1.621   1.664 -0.8776  3.2914  0.1697
  522SOL     OW 1564   1.194   0.118   1.763  0.1419  0.2928  0.3999
  522SOL    HW1 1565   1.122   0.190   1.779 -0.6520  3.1674 -2.1292
  522SOL    HW2 1566   1.199   0.048   1.840 -2.1748 -3.3455  2.5886
  523SOL     OW 1567   0.090   2.546   1.110 -0.5444  0.3025 -0.5773
  523SOL    HW1 1568   0.079   2.583   1.204  0.8318 -1.6001 -0.5095
  523SOL    HW2 1569   0.185   2.516   1.094  1.3039 -0.7497  0.7488
  524SOL     OW 1570   1.669   2.737   0.857  0.0462 -0.4036 -0.1035
  524SOL    HW1 1571   1.621   2.654   0.824 -2.8457 -2.7765  1.2314
  524SOL    HW2 1572   1.623   2.823   0.822 -3.1560 -0.3037  1.1511
  525SOL     OW 1573   2.423   1.077   0.885  0.0288  0.0192  0.0458
  525SOL    HW1 1574   2.398   1.176   0.909 -0.3139  3.1904  2.7610
  525SOL    HW2 1575   2.392   1.013   0.955 -0.7789  1.6091 -1.6373
  526SOL     OW 1576   1.034   2.485   0.741  0.6698  0.1885 -0.3846
  526SOL    HW1 1577   0.978   2.400   0.759 -0.0649 -2.3708 -0.6857
  526SOL    HW2 1578   1.032   2.512   0.643 -0.2907  1.8592  0.1512
  527SOL     OW 1579   2.459   2.031   0.860  0.0727 -0.4392  0.1634
  527SOL    HW1 1580   2.482   1.993   0.770  0.4257  2.3486  2.0680
  527SOL    HW2 1581   2.452   1.959   0.927  1.8382  0.8157 -1.1754
  528SOL     OW 1582   2.203   0.473   0.200  0.1994 -0.0519 -0.4923
  528SOL    HW1 1583   2.283   0.534   0.178 -0.4789 -0.3012 -0.1911
  528SOL    HW2 1584   2.172   0.463   0.296  0.1791 -1.3439  0.7244
  529SOL     OW 1585   1.324   1.131   1.955 -0.0467 -0.0248  0.1111
  529SOL    HW1 1586   1.292   1.065   1.885  1.5094  1.2523 -1.5869
  529SOL    HW2 1587   1.296   1.101   2.051 -0.2246 -0.0299  3.3022
  530SOL     OW 1588   2.632   0.950   2.662  0.2074 -0.0454 -0.5913
  530SOL    HW1 1589   2.617   1.049   2.648 -0.9827  2.7127 -0.2440
  530SOL    HW2 1590   2.626   0.900   2.577  1.8021 -0.3945 -0.3058
  531SOL     OW 1591   1.129   1.040   0.045  0.3631  0.4413 -0.0397
  531SOL    HW1 1592   1.199   1.104   0.005  1.4322 -0.7768 -1.1259
  531SOL    HW2 1593   1.070   1.089   0.114 -1.3951  1.1492 -0.5617
  532SOL     OW 1594   2.346   0.289   0.939  0.2630 -0.2210  0.3820
  532SOL    HW1 1595   2.418   0.353   0.909 -0.6942 -1.5291  0.1353
  532SOL    HW2 1596   2.346   0.206   0.881  1.1635  1.4965 -0.9469
  533SOL     OW 1597   0.671   0.972   2.012  0.6120 -0.0735  0.1009
  533SOL    HW1 1598   0.640   1.047   1.952 -1.3380 -1.0618 -1.9918
  533SOL    HW2 1599   0.614   0.888   1.991 -4.0322  0.5951 -1.0832
  534SOL     OW 1600   1.695   0.176   2.758  0.4300 -0.6300  0.2476
  534SOL    HW1 1601   1.700   0.198   2.658 -0.6274  1.5858 -2.9869
  534SOL    HW2 1602   1.785   0.171   2.806  0.9435  0.0506  0.5189
  535SOL     OW 1603   0.641   0.020   0.400  0.3100 -0.4096 -0.4575
  535SOL    HW1 1604   0.549   3.105   0.371  2.9453  1.8430 -4.1744
  535SOL    HW2 1605   0.686   3.076   0.468  0.5768 -0.1184 -0.9474
  536SOL     OW 1606   1.036   2.786   1.459 -0.0668 -0.0035  0.3075
  536SOL    HW1 1607   1.124   2.786   1.415 -1.6699  0.5220  2.4072
  536SOL    HW2 1608   1.041   2.809   1.560  2.8007 -1.0013  0.9096
  537SOL     OW 1609   2.002   2.777   2.149 -0.2092  0.0919  0.0303
  537SOL    HW1 1610   1.962   2.815   2.064 -0.3893  1.8364 -0.4462
  537SOL    HW2 1611   2.103   2.790   2.147  1.4628  0.1031  0.1286
  538SOL     OW 1612   0.172   2.804   0.169 -0.7799 -0.2849  0.2081
  538SOL    HW1 1613   0.239   2.829   0.097 -2.5917  0.0130 -0.5065
  538SOL    HW2 1614   0.122   2.725   0.135  0.8371  0.9070  2.4732
  539SOL     OW 1615   2.874   1.816   1.827 -0.4266  0.2350  0.2188
  539SOL    HW1 1616   2.893   1.866   1.740  3.0522 -1.9223  1.0842
  539SOL    HW2 1617   2.925   1.859   1.903  0.7487  1.7089 -0.1676
  540SOL     OW 1618   2.849   2.604   2.055 -0.3745 -0.1444  0.1101
  540SOL    HW1 1619   2.938   2.564   2.095 -2.0390 -2.9893  0.7485
  540SOL    HW2 1620   2.875   2.672   1.987  0.1478  3.0498  0.4306
  541SOL     OW 1621   3.064   0.024   1.833  0.1441 -0.2988 -0.4563
  541SOL    HW1 1622   2.978   0.083   1.847 -0.5584 -0.0087  0.2979
  541SOL    HW2 1623   3.060   3.076   1.758 -2.2558  2.7005 -1.1775
  542SOL     OW 1624   3.029   0.578   1.812 -0.0177 -0.1701  0.4120
  542SOL    HW1 1625   2.936   0.546   1.792  1.1598  2.9964  0.3888
  542SOL    HW2 1626   3.070   0.612   1.726 -1.7475  1.1336 -1.4575
  543SOL     OW 1627   0.721   0.897   1.169  0.0429  0.1822 -0.3023
  543SOL    HW1 1628   0.825   0.896   1.156  3.2902 -1.3858  0.6684
  543SOL    HW2 1629   0.698   0.874   1.271 -2.6835 -1.7022  5.9452
  544SOL     OW 1630   2.109   1.661   1.043 -0.0611  0.4170 -0.2693
  544SOL    HW1 1631   2.061   1.702   1.121 -1.2805 -1.2274 -2.4067
  544SOL    HW2 1632   2.074   1.692   0.955 -0.4958  1.3720 -0.3531
  545SOL     OW 1633   0.957   1.637   0.492 -0.0328  0.4227 -0.0985
  545SOL    HW1 1634   1.002   1.699   0.555 -1.2776 -0.0759 -1.5455
  545SOL    HW2 1635   0.877   1.598   0.541  1.3566 -0.6914  1.8698
  546SOL     OW 1636   2.624   0.403   1.965 -0.3137  0.3962 -0.0756
  546SOL    HW1 1637   2.678   0.453   1.894 -0.5323 -0.7805 -2.1045
  546SOL    HW2 1638   2.664   0.399   2.056 -0.6905  1.3531 -4.4192
  547SOL     OW 1639   0.213   0.243   2.476 -0.1084 -0.5305  0.0505
  547SOL    HW1 1640   0.276   0.226   2.554 -0.9431 -0.6399 -0.1047
  547SOL    HW2 1641   0.248   0.308   2.405 -1.8786 -1.1652 -1.3801
  548SOL     OW 1642   2.315   2.154   2.809 -0.0205 -0.0251  0.1748
  548SOL    HW1 1643   2.388   2.213   2.773 -1.0265 -1.9412  1.6041
  548SOL    HW2 1644   2.241   2.147   2.744 -1.2840 -1.3448  0.4215
  549SOL     OW 1645   2.595   0.488   1.049 -0.5775 -0.3463 -0.2019
  549SOL    HW1 1646   2.555   0.472   1.140 -0.3186 -1.5607 -0.4183
  549SOL    HW2 1647   2.627   0.585   1.043  0.8309 -1.0925  2.6522
  550SOL     OW 1648   2.188   1.485   0.713  0.9182 -0.0804  0.6682
  550SOL    HW1 1649   2.099   1.487   0.664  1.1673  1.6979  2.4403
  550SOL    HW2 1650   2.224   1.581   0.727  0.1829 -0.8105  2.1764
  551SOL     OW 1651   1.015   3.093   1.569 -0.1295  0.0251  0.4747
  551SOL    HW1 1652   1.031   3.002   1.607 -0.4392  3.9328  0.4124
  551SOL    HW2 1653   1.033   3.097   1.468  2.8360 -0.2629  0.2753
  552SOL     OW 1654   1.976   2.404   2.504 -0.4076 -0.1355 -0.0650
  552SOL    HW1 1655   1.955   2.491   2.460 -0.5835 -1.9298  0.3789
  552SOL    HW2 1656   2.068   2.366   2.471  0.0249 -0.4245 -0.4484
  553SOL     OW 1657   0.756   2.983   0.641 -0.0851  0.5129 -0.0897
  553SOL    HW1 1658   0.854   2.973   0.665  0.2505 -0.7927 -0.6261
  553SOL    HW2 1659   0.710   3.045   0.712 -2.6393  1.1251  0.5445
  554SOL     OW 1660   1.770   2.645   2.213 -0.3507 -0.2135  0.1063
  554SOL    HW1 1661   1.807   2.555   2.186  1.4336  0.1552  0.4181
  554SOL    HW2 1662   1.843   2.718   2.193  2.5935  2.6698 -1.3077
  555SOL     OW 1663   2.180   2.509   2.175 -0.6043 -0.2887  0.2988
  555SOL    HW1 1664   2.255   2.463   2.122  2.3534 -3.0034 -2.8043
  555SOL    HW2 1665   2.174   2.476   2.273  1.2178 -1.3903 -0.0635
  556SOL     OW 1666   1.011   3.065   0.672  0.9012 -0.2179  0.2332
  556SOL    HW1 1667   1.096   3.042   0.721 -0.6664  0.1035 -2.0301
  556SOL    HW2 1668   1.022   3.077   0.572  0.8632 -1.7386 -2.7341
  557SOL     OW 1669   0.739   2.268   1.754  0.5652 -0.1921 -0.1472
  557SOL    HW1 1670   0.765   2.357   1.798 -0.1485  0.7580  1.0943
  557SOL    HW2 1671   0.641   2.275   1.736  0.0414 -1.1672 -0.6071
  558SOL     OW 1672   2.708   1.115   2.341 -0.5867  0.2685  0.2905
  558SOL    HW1 1673   2.710   1.025   2.382 -1.4496  0.0462 -1.0919
  558SOL    HW2 1674   2.779   1.178   2.372  1.5361 -4.3026 -2.3584
  559SOL     OW 1675   2.624   2.034   2.154  0.1537  0.2992 -0.0306
  559SOL    HW1 1676   2.538   2.038   2.099  0.0123 -0.3096 -0.6954
  559SOL    HW2 1677   2.667   2.124   2.162  0.3247 -0.9152  2.8308
  560SOL     OW 1678   0.651   0.483   2.091 -0.1343 -0.3138 -0.0334
  560SOL    HW1 1679   0.647   0.453   1.994 -2.9798  0.2294  1.1295
  560SOL    HW2 1680   0.747   0.504   2.119 -1.6490 -1.6137  0.9069
  561SOL     OW 1681   1.229   0.413   0.273 -0.0357  0.0934 -0.6724
  561SOL    HW1 1682   1.331   0.410   0.278  0.1333  0.2715 -0.3378
  561SOL    HW2 1683   1.192   0.410   0.179 -0.9578 -0.2563  0.1296
  562SOL     OW 1684   1.117   1.511   1.669  0.0812 -0.1695  0.0269
  562SOL    HW1 1685   1.112   1.600   1.714  0.0650 -2.4832  1.5561
  562SOL    HW2 1686   1.062   1.510   1.583 -2.6674  0.6956  1.1311
  563SOL     OW 1687   1.938   2.559   0.082 -0.3652 -0.0618  0.1004
  563SOL    HW1 1688   1.988   2.471   0.056  3.1083 -1.0127  0.0360
  563SOL    HW2 1689   1.953   2.579   0.177 -1.0129 -1.9589  0.2353
  564SOL     OW 1690   2.951   2.125   0.290  0.3560  0.8924 -0.3197
  564SOL    HW1 1691   2.957   2.227   0.301 -2.8526  0.9741  0.2658
  564SOL    HW2 1692   2.852   2.096   0.276 -2.0252 -2.1675 -0.1158
  565SOL     OW 1693   0.620   2.814   2.276 -0.6054 -0.4552 -0.1071
  565SOL    HW1 1694   0.678   2.899   2.287 -0.6241  2.1387  1.8062
  565SOL    HW2 1695   0.530   2.842   2.309  3.2517 -0.2478 -1.6006
  566SOL     OW 1696   1.598   2.452   2.708  0.0317  0.2868  0.1665
  566SOL    HW1 1697   1.642   2.369   2.755 -2.7266 -1.3570  0.1690
  566SOL    HW2 1698   1.651   2.492   2.629 -3.0013 -1.2456 -0.9654
  567SOL     OW 1699   1.917   1.939   1.433  0.3797 -0.0124 -0.3866
  567SOL    HW1 1700   1.881   2.033   1.407 -0.0135  4.4697 -0.1184
  567SOL    HW2 1701   1.878   1.899   1.517 -1.9898 -0.1102 -1.0203
  568SOL     OW 1702   2.169   0.782   2.838  0.7723  0.5507 -0.6038
  568SOL    HW1 1703   2.112   0.836   2.904 -1.2781  0.1422  1.8303
  568SOL    HW2 1704   2.263   0.810   2.858 -1.5119 -0.7497 -1.2994
  569SOL     OW 1705   2.694   1.428   2.125  0.1357 -0.7295 -0.1509
  569SOL    HW1 1706   2.769   1.501   2.139  1.9772 -1.3928  1.8595
  569SOL    HW2 1707   2.624   1.443   2.201 -1.9090  0.8738  0.4436
  570SOL     OW 1708   2.642   2.949   1.723  0.5452 -0.0866 -0.5701
  570SOL    HW1 1709   2.541   2.939   1.712 -0.8711  0.9058 -0.3446
  570SOL    HW2 1710   2.663   2.973   1.822 -2.6903  1.7567  2.7656
  571SOL     OW 1711   0.183   0.303   1.536  0.1743  0.5162  0.5150
  571SOL    HW1 1712   0.089   0.274   1.501  1.0969  2.3304  0.4896
  571SOL    HW2 1713   0.257   0.301   1.468 -1.4280  0.9962  2.1992
  572SOL     OW 1714   0.098   2.050   0.700 -0.0987  0.2263  0.5109
  572SOL    HW1 1715   0.003   2.038   0.663 -0.7824 -0.4645 -2.0772
  572SOL    HW2 1716   0.130   1.972   0.756 -1.3577 -2.3127  1.2533
  573SOL     OW 1717   1.010   0.625   3.110 -0.4813 -0.3753  0.2268
  573SOL    HW1 1718   0.918   0.630   0.030  2.0158 -1.4663 -1.6329
  573SOL    HW2 1719   1.055   0.534   0.011  0.3910 -1.9036 -2.1785
  574SOL     OW 1720   0.016   0.142   0.206  0.2883  0.3618 -0.0344
  574SOL    HW1 1721   0.066   0.167   0.117 -1.3531  0.2464  0.9151
  574SOL    HW2 1722   0.028   0.045   0.235  1.6586  0.5066 -1.0095
  575SOL     OW 1723   0.976   2.476   1.132  0.2932  0.0833  0.1310
  575SOL    HW1 1724   1.072   2.478   1.163  0.3790 -2.5938 -1.1946
  575SOL    HW2 1725   0.928   2.560   1.163 -1.0029  0.8891  0.7694
  576SOL     OW 1726   2.884   2.774   1.375  0.0779 -0.0307  0.2132
  576SOL    HW1 1727   2.860   2.769   1.472 -0.4032 -0.4668  1.6018
  576SOL    HW2 1728   2.980   2.755   1.351 -1.2443 -2.2553  0.1349
  577SOL     OW 1729   2.624   1.664   1.479  0.3180 -0.7777 -0.0451
  577SOL    HW1 1730   2.616   1.566   1.459 -1.6311  0.4729 -1.2047
  577SOL    HW2 1731   2.594   1.675   1.574  0.3520  0.8772 -1.1605
  578SOL     OW 1732   1.143   2.881   2.840  0.1761 -0.4029  0.1943
  578SOL    HW1 1733   1.199   2.809   2.797  0.4455 -1.5298 -1.1876
  578SOL    HW2 1734   1.193   2.926   2.914 -1.7207 -2.3749  1.0580
  579SOL     OW 1735   1.974   1.579   2.226 -0.0807 -0.7677  0.5627
  579SOL    HW1 1736   1.892   1.531   2.190  0.3470 -0.4872  1.0052
  579SOL    HW2 1737   2.045   1.562   2.155 -2.8905 -0.9358  2.3764
  580SOL     OW 1738   1.854   0.265   1.995 -0.0700  1.0172 -0.3127
  580SOL    HW1 1739   1.794   0.297   1.921  0.3878  0.2956  0.0745
  580SOL    HW2 1740   1.831   0.329   2.071  1.3480  0.1961 -0.2225
  581SOL     OW 1741   1.129   1.586   2.023  0.4558  0.6146 -0.7103
  581SOL    HW1 1742   1.044   1.597   1.976  2.7416 -3.0761 -0.8693
  581SOL    HW2 1743   1.186   1.522   1.969 -2.1468  0.0559 -1.7701
  582SOL     OW 1744   2.949   2.842   1.905 -0.4789 -0.0962 -0.0943
  582SOL    HW1 1745   3.036   2.855   1.957 -1.5844  1.3493  0.6833
  582SOL    HW2 1746   2.961   2.874   1.813 -2.4311 -0.0742 -2.3258
  583SOL     OW 1747   1.309   1.386   1.151 -0.4504 -0.1057 -0.1216
  583SOL    HW1 1748   1.339   1.374   1.245  2.0356  1.0625 -1.3706
  583SOL    HW2 1749   1.221   1.335   1.128 -1.9455 -2.4612 -0.8453
  584SOL     OW 1750   1.394   1.974   2.927  0.3194 -0.5136  0.1836
  584SOL    HW1 1751   1.475   1.944   2.988  2.8149  2.5945 -0.4138
  584SOL    HW2 1752   1.395   2.069   2.898 -0.6814  1.1209  0.1369
  585SOL     OW 1753   0.358   2.443   0.246 -0.0586 -0.4463 -0.1523
  585SOL    HW1 1754   0.368   2.360   0.301 -1.6407  1.1393  0.2077
  585SOL    HW2 1755   0.397   2.431   0.152  0.4263 -2.8413 -0.2485
  586SOL     OW 1756   2.050   2.313   0.053  0.3771 -0.5065 -0.3082
  586SOL    HW1 1757   2.068   2.247   0.129  0.4704 -0.5416  1.1648
  586SOL    HW2 1758   2.077   2.265   3.081  3.4981 -0.7605 -1.2252
  587SOL     OW 1759   2.529   2.149   0.510 -0.4101  0.0110 -0.5174
  587SOL    HW1 1760   2.529   2.218   0.585  0.6446  1.4561  0.3091
  587SOL    HW2 1761   2.620   2.147   0.458  3.9593 -2.8348 -1.9945
  588SOL     OW 1762   2.049   0.286   0.971 -0.2076  0.2016 -0.3767
  588SOL    HW1 1763   1.993   0.372   0.950  1.0663  1.0194 -0.8894
  588SOL    HW2 1764   2.149   0.304   0.966  1.9950  0.6173 -1.5774
  589SOL     OW 1765   0.737   0.896   0.891 -0.0375 -0.0750 -0.0461
  589SOL    HW1 1766   0.753   0.889   0.992  2.3986  2.7949 -1.7297
  589SOL    HW2 1767   0.649   0.946   0.877  1.5817  1.0176 -1.9230
  590SOL     OW 1768   2.923   2.385   0.361 -0.3289 -0.1636  0.3447
  590SOL    HW1 1769   2.826   2.400   0.347 -0.9747 -0.0831  0.1646
  590SOL    HW2 1770   2.976   2.466   0.392  2.2605 -1.5336 -0.9980
  591SOL     OW 1771   0.246   2.689   1.838  0.1005  0.1156 -0.5868
  591SOL    HW1 1772   0.310   2.629   1.898  3.0946 -3.8731 -0.4571
  591SOL    HW2 1773   0.178   2.739   1.895  0.0838 -2.7371 -0.1237
  592SOL     OW 1774   0.637   1.198   1.268 -0.6105 -0.2056  0.3149
  592SOL    HW1 1775   0.552   1.230   1.319 -4.7397 -0.5863  0.2359
  592SOL    HW2 1776   0.627   1.101   1.266 -0.7347  3.8985  2.2342
  593SOL     OW 1777   0.967   1.782   1.341  0.4685  0.0504  0.3890
  593SOL    HW1 1778   0.975   1.681   1.336 -0.7976  0.7544 -2.5879
  593SOL    HW2 1779   0.993   1.822   1.251  0.4040 -1.0553 -0.7998
  594SOL     OW 1780   0.222   1.765   2.912  0.3110 -0.0768  0.0437
  594SOL    HW1 1781   0.287   1.842   2.938  2.3857  0.2987  2.4952
  594SOL    HW2 1782   0.267   1.675   2.926 -0.5515  2.1156 -0.3957
  595SOL     OW 1783   1.266   0.694   0.921  0.1980  0.4127  0.2853
  595SOL    HW1 1784   1.334   0.662   0.847  0.6459  1.9226 -2.3417
  595SOL    HW2 1785   1.174   0.665   0.886  0.8752 -1.0438  1.2195
  596SOL     OW 1786   0.220   1.709   0.556  0.0738  0.1813 -0.1419
  596SOL    HW1 1787   0.142   1.689   0.494 -1.3879  2.3828 -0.9495
  596SOL    HW2 1788   0.266   1.622   0.589 -2.9312  0.4132 -1.7467
  597SOL     OW 1789   3.053   2.166   2.804  0.7187 -0.5747  0.0724
  597SOL    HW1 1790   3.006   2.221   2.734 -1.1678  3.8444 -0.9817
  597SOL    HW2 1791   3.006   2.166   2.897 -1.6112  1.9771 -1.0100
  598SOL     OW 1792   2.155   2.081   2.282 -0.3696 -0.3930 -0.2130
  598SOL    HW1 1793   2.170   2.087   2.180 -0.9410 -0.9911 -0.6589
  598SOL    HW2 1794   2.149   1.985   2.313 -0.9580 -2.6801  1.3468
  599SOL     OW 1795   1.588   0.324   0.635 -0.6884  0.4062  0.1234
  599SOL    HW1 1796   1.659   0.254   0.620  2.5506 -0.9492 -0.1855
  599SOL    HW2 1797   1.495   0.281   0.644  1.5284 -0.6880 -2.1272
  600SOL     OW 1798   0.772   2.771   0.437 -0.1662 -0.1374  0.5282
  600SOL    HW1 1799   0.733   2.828   0.516  1.5707  0.2617 -0.0759
  600SOL    HW2 1800   0.754   2.819   0.348 -0.7356  2.4155 -2.0300
  601SOL     OW 1801   0.654   0.800   1.409 -0.1531  0.2550 -0.3532
  601SOL    HW1 1802   0.589   0.866   1.449  2.5441 -1.8624  1.3418
  601SOL    HW2 1803   0.711   0.753   1.479  1.4031  2.1156 -0.6562
  602SOL     OW 1804   0.178   2.962   1.004  0.2098 -0.4329  0.2708
  602SOL    HW1 1805   0.127   2.882   0.962 -0.1613  0.1775 -1.4774
  602SOL    HW2 1806   0.122   3.048   1.014  0.0323  1.3597  0.9132
  603SOL     OW 1807   1.211   2.677   2.654  0.0823 -0.1779 -0.2002
  603SOL    HW1 1808   1.111   2.667   2.639 -0.1768  0.7187 -0.5010
  603SOL    HW2 1809   1.248   2.711   2.562  0.4648 -1.2983  0.1968
  604SOL     OW 1810   0.662   2.897   2.958 -0.1404  0.0637  0.2939
  604SOL    HW1 1811   0.680   2.862   3.056 -0.4422 -0.3172  2.6858
  604SOL    HW2 1812   0.571   2.878   2.919  3.6666  1.9061 -0.6107
  605SOL     OW 1813   1.062   0.706   2.012 -0.2490  0.0766  0.7865
  605SOL    HW1 1814   1.116   0.658   1.935  0.3639 -2.5971 -2.1617
  605SOL    HW2 1815   1.043   0.800   1.991 -1.9209 -0.0437 -1.1145
  606SOL     OW 1816   2.070   0.161   2.592 -0.1975 -0.0330 -0.1989
  606SOL    HW1 1817   2.038   0.153   2.688 -1.8317 -1.0982  0.4988
  606SOL    HW2 1818   1.998   0.205   2.540  0.8037 -0.6537  0.3748
  607SOL     OW 1819   0.297   1.331   1.116  0.8187  0.0268 -0.2393
  607SOL    HW1 1820   0.266   1.346   1.211 -0.2255 -3.0895 -0.4458
  607SOL    HW2 1821   0.334   1.236   1.107  1.1973 -1.0947 -0.8031
  608SOL     OW 1822   0.275   2.636   2.395  0.4602  0.3640 -0.9488
  608SOL    HW1 1823   0.332   2.721   2.414  1.3038 -2.4332 -0.5176
  608SOL    HW2 1824   0.250   2.594   2.488 -0.3296  0.7970  2.1695
  609SOL     OW 1825   1.631   0.741   0.093  0.2432  0.1684 -0.5239
  609SOL    HW1 1826   1.658   0.664   0.040  0.4196  1.3289  0.0659
  609SOL    HW2 1827   1.619   0.735   0.196 -0.7854  0.1700  1.9073
  610SOL     OW 1828   0.772   2.680   1.343 -0.4205 -0.2665 -0.1021
  610SOL    HW1 1829   0.865   2.705   1.371 -4.2446  0.0913 -0.7397
  610SOL    HW2 1830   0.712   2.676   1.425 -0.5338 -0.5789  3.4350
  611SOL     OW 1831   1.100   0.792   0.345 -0.0669  0.3059  0.4312
  611SOL    HW1 1832   1.001   0.814   0.322  0.2372  0.4861 -2.1370
  611SOL    HW2 1833   1.145   0.883   0.339 -0.0203  1.7341  0.5753
  612SOL     OW 1834   1.465   0.742   2.736 -0.2356 -0.0473 -0.1209
  612SOL    HW1 1835   1.449   0.771   2.642  0.2713 -1.9509  1.6789
  612SOL    HW2 1836   1.487   0.820   2.797 -0.3535 -1.5611  0.8223
  613SOL     OW 1837   2.016   0.904   0.394  0.1592 -0.3562 -0.6568
  613SOL    HW1 1838   1.994   0.981   0.331  2.7225 -2.9866  3.3148
  613SOL    HW2 1839   1.977   0.814   0.372 -2.2537  1.4233  0.4797
  614SOL     OW 1840   1.977   0.460   1.617  0.3035  0.1391 -0.5107
  614SOL    HW1 1841   1.965   0.363   1.579  0.1140 -1.7583 -0.3829
  614SOL    HW2 1842   1.966   0.530   1.544 -1.8445  2.2519  3.1039
  615SOL     OW 1843   0.868   2.118   0.832  0.6253  0.7985  0.1564
  615SOL    HW1 1844   0.839   2.042   0.890  3.1325  0.4117 -1.0838
  615SOL    HW2 1845   0.843   2.205   0.881 -0.3604 -0.1428  0.0614
  616SOL     OW 1846   1.544   1.125   2.254  0.4289 -0.2366 -0.2765
  616SOL    HW1 1847   1.561   1.223   2.277 -0.8621 -0.3093  0.7931
  616SOL    HW2 1848   1.623   1.081   2.200 -0.3460  1.1031  0.2532
  617SOL     OW 1849   1.824   3.032   3.066 -0.5874 -0.5279 -0.0391
  617SOL    HW1 1850   1.773   3.109   3.102  0.4825  1.2023  2.5931
  617SOL    HW2 1851   1.805   3.028   2.968  1.2101  3.5156  1.1591
  618SOL     OW 1852   1.000   1.160   2.541 -0.3626  0.0553  0.3371
  618SOL    HW1 1853   1.050   1.122   2.626  1.9950 -0.4579  2.9092
  618SOL    HW2 1854   0.941   1.082   2.502 -1.3073 -2.9752 -2.2173
  619SOL     OW 1855   2.491   1.559   0.898  0.1887  0.1339 -0.3423
  619SOL    HW1 1856   2.431   1.477   0.914 -2.2645  3.5781 -1.1168
  619SOL    HW2 1857   2.588   1.541   0.918 -0.9262  0.7646  0.1553
  620SOL     OW 1858   2.527   2.547   2.876  0.2351  0.2099  0.0418
  620SOL    HW1 1859   2.585   2.627   2.910 -0.9433  1.7394  0.8954
  620SOL    HW2 1860   2.423   2.566   2.876 -2.5548 -0.9760  0.1923
  621SOL     OW 1861   2.221   1.217   0.262 -0.6070  0.0829  0.0116
  621SOL    HW1 1862   2.166   1.294   0.227  0.6933 -2.2004  1.2799
  621SOL    HW2 1863   2.213   1.204   0.365  0.4945 -1.5930 -2.6085
  622SOL     OW 1864   1.332   2.438   2.691 -0.1622  0.0183  0.0195
  622SOL    HW1 1865   1.284   2.528   2.699 -1.9238  1.1158  0.4579
  622SOL    HW2 1866   1.432   2.446   2.703 -0.4317 -1.4111 -1.6784
  623SOL     OW 1867   0.186   2.130   3.081 -0.0965 -0.5207  0.1425
  623SOL    HW1 1868   0.237   2.062   0.018  0.9357  1.7900  1.9386
  623SOL    HW2 1869   0.159   2.209   0.023  0.7231  3.2477 -2.1171
  624SOL     OW 1870   0.351   0.099   2.986 -0.4567 -0.2237  0.1601
  624SOL    HW1 1871   0.401   0.162   3.047  0.5441 -2.5243 -0.0176
  624SOL    HW2 1872   0.376   0.009   3.012 -0.9612  1.2605 -0.2188
  625SOL     OW 1873   0.786   1.944   3.078  0.3844  1.0307  0.1870
  625SOL    HW1 1874   0.703   2.000   3.068  0.7399  0.9936 -0.3314
  625SOL    HW2 1875   0.754   1.847   3.104  0.3957 -3.5493 -0.2412
  626SOL     OW 1876   2.913   0.613   0.376  0.0859 -0.4472 -0.1838
  626SOL    HW1 1877   2.881   0.610   0.277  0.5497 -0.3910 -0.4739
  626SOL    HW2 1878   2.991   0.549   0.391 -2.3466  1.0910  1.1673
  627SOL     OW 1879   1.507   1.293   2.787 -0.2290  0.2088  0.4332
  627SOL    HW1 1880   1.604   1.289   2.750 -2.2973 -0.8963  1.9073
  627SOL    HW2 1881   1.480   1.390   2.791  0.9017 -0.1677 -0.8025
  628SOL     OW 1882   1.119   1.034   2.747 -0.4959  0.3741  1.2017
  628SOL    HW1 1883   1.175   1.077   2.816  1.5895  0.5127 -1.0925
  628SOL    HW2 1884   1.184   0.974   2.697  0.7941 -0.2424  1.9475
  629SOL     OW 1885   0.214   0.150   1.750  0.3447  0.2747  0.0744
  629SOL    HW1 1886   0.118   0.120   1.774 -3.6358 -3.1254  0.2421
  629SOL    HW2 1887   0.211   0.214   1.671 -2.1524  0.5080 -1.0988
  630SOL     OW 1888   2.476   0.698   2.134  0.3523  0.1731 -0.0861
  630SOL    HW1 1889   2.435   0.645   2.055 -1.3408  1.0359  0.2731
  630SOL    HW2 1890   2.444   0.654   2.221 -1.1341 -1.2861  0.3408
  631SOL     OW 1891   2.138   0.809   0.803  0.1172  0.0250 -0.2624
  631SOL    HW1 1892   2.135   0.727   0.861 -0.6510 -1.4316 -0.9742
  631SOL    HW2 1893   2.227   0.817   0.754 -0.2257 -0.8931  1.9130
  632SOL     OW 1894   3.046   0.864   1.624  0.5134 -0.4433  0.1380
  632SOL    HW1 1895   3.004   0.791   1.567 -0.6029 -3.6832 -1.3724
  632SOL    HW2 1896   0.007   0.904   1.575 -3.3940  2.5462 -1.6899
  633SOL     OW 1897   0.877   0.285   0.001  0.0624  0.0658 -0.2035
  633SOL    HW1 1898   0.815   0.355   3.077  0.7796 -2.5889  0.5448
  633SOL    HW2 1899   0.832   0.197   0.015 -0.0052  1.6707 -0.8078
  634SOL     OW 1900   0.993   2.486   2.958 -0.0597  0.6901 -0.0342
  634SOL    HW1 1901   0.980   2.493   3.056 -1.2404  1.7528 -3.4547
  634SOL    HW2 1902   0.992   2.581   2.920  1.5538  0.2493  1.3341
  635SOL     OW 1903   3.078   0.431   0.496  0.1834  0.2059  0.0291
  635SOL    HW1 1904   0.017   0.419   0.587  1.1313 -1.5043  3.9098
  635SOL    HW2 1905   3.058   0.337   0.457 -1.7453 -2.3670  1.0950
  636SOL     OW 1906   0.610   1.068   0.258 -0.4044  0.3550 -0.3478
  636SOL    HW1 1907   0.596   1.102   0.164  2.0780 -1.0635  0.3589
  636SOL    HW2 1908   0.704   1.030   0.253 -1.6324  1.1598 -3.4455
  637SOL     OW 1909   0.240   2.637   0.393 -0.6714 -0.3200 -0.5145
  637SOL    HW1 1910   0.284   2.559   0.344  1.2262  1.1961 -0.4555
  637SOL    HW2 1911   0.223   2.714   0.329 -0.5026  1.4842 -1.1042
  638SOL     OW 1912   0.111   2.612   0.632  0.3348 -0.2558  0.0047
  638SOL    HW1 1913   0.166   2.614   0.546 -2.4352  0.1555 -2.7510
  638SOL    HW2 1914   0.124   2.520   0.668  1.5815 -2.1214 -1.1257
  639SOL     OW 1915   1.560   1.128   0.076 -0.1901 -0.2763 -0.2387
  639SOL    HW1 1916   1.503   1.047   0.052  0.9852 -0.5495 -0.0234
  639SOL    HW2 1917   1.506   1.218   0.063 -0.1077  3.8028 -1.6826
  640SOL     OW 1918   1.547   2.163   1.360  0.5934  0.0693  0.6281
  640SOL    HW1 1919   1.523   2.240   1.414 -0.2272 -4.5162  0.8919
  640SOL    HW2 1920   1.468   2.121   1.310  0.1684 -0.8204 -2.7801
  641SOL     OW 1921   2.855   2.443   1.381 -0.1668 -0.3987 -0.7312
  641SOL    HW1 1922   2.794   2.497   1.442  0.3089 -0.5673  0.8069
  641SOL    HW2 1923   2.812   2.439   1.287  1.4189  1.9924  1.1279
  642SOL     OW 1924   0.687   2.845   1.707  0.5779 -0.3065 -0.0690
  642SOL    HW1 1925   0.787   2.861   1.704 -0.5516  0.0171 -0.5809
  642SOL    HW2 1926   0.650   2.835   1.803  0.4584 -0.3176  0.7229
  643SOL     OW 1927   0.899   2.285   2.795  0.1304 -0.5924 -0.0877
  643SOL    HW1 1928   0.931   2.358   2.861 -0.4542  2.1653 -0.3163
  643SOL    HW2 1929   0.981   2.230   2.764  0.2896  2.0670 -0.2361
  644SOL     OW 1930   1.262   2.629   0.832  0.3797  0.0013 -0.2467
  644SOL    HW1 1931   1.338   2.587   0.775  1.7105  1.7950 -0.6395
  644SOL    HW2 1932   1.171   2.582   0.829  1.6614 -0.4365  1.5481
  645SOL     OW 1933   1.257   1.385   1.885 -0.1322  0.5341  0.0133
  645SOL    HW1 1934   1.234   1.410   1.786  0.0074  0.1475 -0.7379
  645SOL    HW2 1935   1.304   1.296   1.891  1.2140  1.0707 -0.2089
  646SOL     OW 1936   0.320   0.769   0.146  0.6755 -0.4291  0.3089
  646SOL    HW1 1937   0.293   0.780   0.244  1.1089 -0.7998 -1.1448
  646SOL    HW2 1938   0.243   0.811   0.092  0.5947  1.3789 -1.0557
  647SOL     OW 1939   1.356   0.204   0.654 -0.3150 -0.2854  0.1313
  647SOL    HW1 1940   1.355   0.211   0.753  0.3229 -1.1149 -2.8111
  647SOL    HW2 1941   1.280   0.264   0.618 -0.4665  3.0873 -2.5886
  648SOL     OW 1942   2.133   2.569   1.097 -0.1741  0.1249 -0.0170
  648SOL    HW1 1943   2.093   2.550   1.189  2.2993  1.6649  1.6098
  648SOL    HW2 1944   2.089   2.509   1.027  0.9855 -1.3639 -1.8456
  649SOL     OW 1945   0.489   1.921   2.950  0.0256  0.1902  0.3227
  649SOL    HW1 1946   0.525   1.938   2.858  0.0263 -1.7688  1.3098
  649SOL    HW2 1947   0.497   1.993   3.024 -1.5810  2.3783 -0.5611
  650SOL     OW 1948   2.244   1.914   1.874 -0.1482  0.1839  0.1284
  650SOL    HW1 1949   2.149   1.952   1.857  0.0485  0.7432  0.9929
  650SOL    HW2 1950   2.280   1.869   1.789  0.5636 -1.2307  0.1740
  651SOL     OW 1951   0.095   3.035   2.922 -0.3380 -0.1836  0.6588
  651SOL    HW1 1952   0.011   3.056   2.975 -1.3205 -0.9633  0.9828
  651SOL    HW2 1953   0.098   3.086   2.833  2.4423  2.2039 -0.0161
  652SOL     OW 1954   2.609   1.751   0.215  0.0805  0.2403 -0.2711
  652SOL    HW1 1955   2.651   1.723   0.304 -1.1561  2.8515 -2.1827
  652SOL    HW2 1956   2.510   1.776   0.226 -3.3736 -2.6395  1.2550
  653SOL     OW 1957   0.243   0.308   1.147  0.2022  0.0789  0.2475
  653SOL    HW1 1958   0.306   0.296   1.068 -0.6584  1.0542 -1.0611
  653SOL    HW2 1959   0.147   0.315   1.112  0.9125  1.8586 -0.4979
  654SOL     OW 1960   1.014   0.024   0.420 -0.0192  0.0866 -0.0290
  654SOL    HW1 1961   0.975   3.081   0.346 -0.7298  0.5597  0.3144
  654SOL    HW2 1962   1.018   0.118   0.393 -1.0654  1.9908  1.5230
  655SOL     OW 1963   0.423   2.809   1.354  0.4447 -0.3722 -0.3714
  655SOL    HW1 1964   0.434   2.878   1.428  0.6398  1.0805  0.3753
  655SOL    HW2 1965   0.448   2.717   1.384  0.9811  0.7688 -1.4867
  656SOL     OW 1966   0.009   2.966   2.283  0.2899  0.1927 -0.2568
  656SOL    HW1 1967   0.082   3.025   2.328  1.8487 -2.0329  1.3262
  656SOL    HW2 1968   3.084   3.006   2.205 -1.9528 -3.0054  1.3884
  657SOL     OW 1969   1.834   0.528   2.498  0.1462 -0.0042 -0.0103
  657SOL    HW1 1970   1.877   0.567   2.582  0.8542  0.6126  1.8846
  657SOL    HW2 1971   1.910   0.486   2.442 -0.6549 -0.5868 -1.4331
  658SOL     OW 1972   1.768   1.597   1.135 -0.6839  0.7451  0.2652
  658SOL    HW1 1973   1.730   1.523   1.193  0.3683  2.0838  1.2013
  658SOL    HW2 1974   1.834   1.651   1.191  0.8827 -1.6289 -1.0967
  659SOL     OW 1975   2.706   2.744   2.968 -0.7014 -0.2856 -0.0577
  659SOL    HW1 1976   2.723   2.794   2.881  2.2074 -1.2777  2.8581
  659SOL    HW2 1977   2.791   2.743   3.024  2.2501 -0.4615  2.2441
  660SOL     OW 1978   1.218   0.785   0.018 -0.0178  0.1029 -0.3497
  660SOL    HW1 1979   1.140   0.735   0.054 -0.0958 -1.7499  0.4645
  660SOL    HW2 1980   1.199   0.886   0.032 -0.6829 -1.4183 -0.7883
  661SOL     OW 1981   2.617   3.015   0.843  0.0944  0.0212  0.1908
  661SOL    HW1 1982   2.690   2.995   0.776  2.0954 -1.4774  0.1003
  661SOL    HW2 1983   2.646   3.091   0.902 -0.6548 -0.4519 -2.1242
  662SOL     OW 1984   0.735   0.556   1.079 -0.4326 -0.1281  0.1504
  662SOL    HW1 1985   0.676   0.569   1.165  0.2664  1.7760  0.6375
  662SOL    HW2 1986   0.689   0.481   1.021 -3.5479 -0.0168  0.7005
  663SOL     OW 1987   1.421   2.434   2.442  0.0267 -0.4834  0.1302
  663SOL    HW1 1988   1.352   2.444   2.514  1.2836  0.4398  1.9326
  663SOL    HW2 1989   1.388   2.478   2.354  2.2568 -0.1477 -1.6342
  664SOL     OW 1990   0.526   2.294   1.362 -0.0606 -0.5932  0.9081
  664SOL    HW1 1991   0.616   2.333   1.339 -2.0609 -1.2262 -0.5015
  664SOL    HW2 1992   0.526   2.198   1.404 -1.0035 -2.1697 -0.4879
  665SOL     OW 1993   1.249   2.047   1.711  0.4710 -0.5910  0.3576
  665SOL    HW1 1994   1.149   2.067   1.714  0.9057  0.7472  2.1474
  665SOL    HW2 1995   1.267   2.017   1.617  1.4247  0.9590  0.0416
  666SOL     OW 1996   0.403   2.820   2.864  0.5130  0.3089 -0.1842
  666SOL    HW1 1997   0.437   2.862   2.778  0.4423 -2.3276  0.1147
  666SOL    HW2 1998   0.399   2.720   2.847  2.7019  0.8981  0.0853
  667SOL     OW 1999   1.266   1.669   1.160  0.3820  0.0395 -0.2748
  667SOL    HW1 2000   1.292   1.575   1.152  0.3856  5.4767  0.0983
  667SOL    HW2 2001   1.276   1.692   1.258  2.8981  1.9272  1.4185
  668SOL     OW 2002   1.170   0.224   2.387  0.6339 -0.1752  0.0823
  668SOL    HW1 2003   1.120   0.268   2.462  1.0415 -2.6899  1.1346
  668SOL    HW2 2004   1.174   0.122   2.409 -0.4373 -1.8026 -0.1925
  669SOL     OW 2005   2.087   2.346   1.742  0.3282  0.7303  0.1141
  669SOL    HW1 2006   2.026   2.266   1.742  3.5504  1.6858 -0.8468
  669SOL    HW2 2007   2.122   2.360   1.648  0.2559 -0.1295  1.3578
  670SOL     OW 2008   1.996   1.960   0.226 -0.0151  0.4841 -0.6076
  670SOL    HW1 2009   2.052   2.033   0.261 -2.3669 -2.4753 -0.8699
  670SOL    HW2 2010   2.008   1.949   0.128 -0.6916 -1.0859  0.2106
  671SOL     OW 2011   1.322   1.182   0.785 -0.1652 -0.0013 -0.2822
  671SOL    HW1 2012   1.389   1.105   0.759  0.4246  0.4471 -1.1495
  671SOL    HW2 2013   1.374   1.269   0.806  1.2268  0.6193 -1.6021
  672SOL     OW 2014   2.496   1.182   2.202 -0.0233  0.0149 -0.0728
  672SOL    HW1 2015   2.527   1.214   2.110 -1.0396 -3.5411 -0.2665
  672SOL    HW2 2016   2.581   1.154   2.253 -2.1514  0.5241  1.5483
  673SOL     OW 2017   2.880   1.625   2.100 -0.1319  0.1895  0.0237
  673SOL    HW1 2018   2.885   1.627   1.999  0.2768  0.5887 -0.9010
  673SOL    HW2 2019   2.857   1.720   2.135  1.0666  0.2458 -0.7019
  674SOL     OW 2020   1.019   2.428   2.508 -0.6967 -0.0220 -0.6352
  674SOL    HW1 2021   0.976   2.522   2.527 -1.8065 -2.5369  0.8709
  674SOL    HW2 2022   0.961   2.352   2.540  0.5667  0.9711 -0.1112
  675SOL     OW 2023   0.849   1.111   1.663  0.1041  0.3733  0.1961
  675SOL    HW1 2024   0.912   1.064   1.602  1.0599  2.3893 -0.5183
  675SOL    HW2 2025   0.901   1.169   1.725 -1.5822  1.1611 -0.9328
  676SOL     OW 2026   2.401   0.776   0.762  0.4677 -0.0495 -0.2405
  676SOL    HW1 2027   2.469   0.842   0.718  1.6132  0.7189  1.1046
  676SOL    HW2 2028   2.416   0.676   0.745  0.4416 -4.0354  1.6351
  677SOL     OW 2029   2.622   1.440   2.611 -0.0806 -0.6745  0.1090
  677SOL    HW1 2030   2.727   1.441   2.612  3.9705 -1.4267 -3.2019
  677SOL    HW2 2031   2.584   1.470   2.706  0.1926 -1.7806  0.2467
  678SOL     OW 2032   0.021   0.043   1.066 -0.0829  0.5497 -0.0724
  678SOL    HW1 2033   3.059   3.095   1.039 -3.3881  1.1419  2.1599
  678SOL    HW2 2034   0.035   0.043   1.169 -1.3296  3.6052 -3.9416
  679SOL     OW 2035   2.473   0.225   0.397 -0.4998  0.1724 -0.0499
  679SOL    HW1 2036   2.501   0.301   0.336  0.7488  0.5483  1.6528
  679SOL    HW2 2037   2.464   0.135   0.347 -0.5155 -0.2307 -1.7578
  680SOL     OW 2038   0.189   2.452   2.198  0.0310 -0.3888  0.2201
  680SOL    HW1 2039   0.271   2.412   2.148  2.7981  1.7783 -1.2945
  680SOL    HW2 2040   0.223   2.513   2.271  0.2976 -3.0453  1.9481
  681SOL     OW 2041   2.268   1.601   1.486  0.0433  0.3227 -0.6495
  681SOL    HW1 2042   2.167   1.582   1.494 -1.3701  1.6493 -0.6666
  681SOL    HW2 2043   2.300   1.598   1.390 -1.4969 -2.5981  0.9451
  682SOL     OW 2044   0.033   2.242   2.293 -0.2311  0.1283  0.0910
  682SOL    HW1 2045   0.021   2.172   2.219  2.3217 -0.8583 -0.1235
  682SOL    HW2 2046   0.095   2.317   2.262  2.7294  2.8428 -0.5277
  683SOL     OW 2047   2.957   2.082   1.368  0.0151 -0.3824 -0.2251
  683SOL    HW1 2048   2.907   1.991   1.369  1.8498 -2.8794  0.8555
  683SOL    HW2 2049   2.897   2.159   1.391 -2.3923 -2.1652  0.7597
  684SOL     OW 2050   2.310   0.949   2.417 -0.1023  0.3212 -0.4847
  684SOL    HW1 2051   2.272   1.015   2.483 -1.1864 -3.4256  0.2457
  684SOL    HW2 2052   2.394   0.976   2.363  0.1497  1.1994 -1.0005
  685SOL     OW 2053   1.542   1.115   0.550 -0.5387  0.4078  0.3762
  685SOL    HW1 2054   1.519   1.056   0.631  0.9530 -0.1963  1.9334
  685SOL    HW2 2055   1.643   1.126   0.546  0.7785  0.3619  1.6655
  686SOL     OW 2056   0.571   0.022   0.788 -0.3454  0.2848  0.1969
  686SOL    HW1 2057   0.610   3.111   0.876 -0.1507 -2.2282 -2.4113
  686SOL    HW2 2058   0.621   0.100   0.741  3.7018  0.6367 -0.2961
  687SOL     OW 2059   1.610   1.396   2.323  0.2391  0.5300  0.2078
  687SOL    HW1 2060   1.651   1.371   2.416  0.0795  0.2722  1.4926
  687SOL    HW2 2061   1.532   1.465   2.335 -0.3401 -0.0541  3.8532
  688SOL     OW 2062   1.238   1.694   1.431  0.5205  0.8210  0.2897
  688SOL    HW1 2063   1.162   1.626   1.419 -1.8195  0.9998  0.4456
  688SOL    HW2 2064   1.314   1.667   1.493 -0.1712  2.3785  2.8395
  689SOL     OW 2065   2.052   0.299   1.261  0.0447  0.4665  0.2712
  689SOL    HW1 2066   2.074   0.272   1.163 -1.8629 -0.0524  1.5454
  689SOL    HW2 2067   2.139   0.322   1.311  3.7484 -0.0703  0.9980
  690SOL     OW 2068   0.044   1.724   1.073  0.4963 -0.1301  0.0246
  690SOL    HW1 2069   0.140   1.747   1.090 -1.2251 -0.8607 -1.4796
  690SOL    HW2 2070   0.030   1.658   0.997  1.2617  2.2941 -0.3152
  691SOL     OW 2071   0.355   2.497   1.083  0.2787 -0.5073  0.9361
  691SOL    HW1 2072   0.452   2.523   1.101 -3.6235 -0.9490 -2.0203
  691SOL    HW2 2073   0.326   2.519   0.989 -1.0901 -4.4958  2.5884
  692SOL     OW 2074   2.219   0.390   1.795 -0.1835  0.5475  0.2387
  692SOL    HW1 2075   2.199   0.312   1.859  0.3594  0.1622  0.6156
  692SOL    HW2 2076   2.142   0.387   1.733  2.4979 -0.7661 -1.1312
  693SOL     OW 2077   0.408   2.042   1.976 -0.1204 -0.0839  0.3910
  693SOL    HW1 2078   0.504   2.049   1.937  0.9356  3.3006 -2.2198
  693SOL    HW2 2079   0.407   1.992   2.064 -1.1220  0.0925  0.9853
  694SOL     OW 2080   1.571   1.042   1.617  0.5515  0.1170 -0.1039
  694SOL    HW1 2081   1.569   0.944   1.628  0.8769  0.9800  1.2567
  694SOL    HW2 2082   1.477   1.082   1.591 -1.1077  3.7165  1.7729
  695SOL     OW 2083   0.634   1.152   0.634  0.4000 -0.8481 -0.5822
  695SOL    HW1 2084   0.690   1.212   0.693  0.3115 -0.5530  1.9155
  695SOL    HW2 2085   0.577   1.206   0.569 -0.5618 -1.6415  1.2182
  696SOL     OW 2086   1.260   3.071   0.808 -0.1580 -0.8302  0.1273
  696SOL    HW1 2087   1.268   0.014   0.729 -1.7336  0.8828  1.9653
  696SOL    HW2 2088   1.291   0.004   0.891 -0.7129 -1.0323  1.4577
  697SOL     OW 2089   1.367   0.331   1.792  0.1804 -0.2314  0.3894
  697SOL    HW1 2090   1.389   0.341   1.892 -0.6219 -1.6988  1.2966
  697SOL    HW2 2091   1.303   0.250   1.777  1.2253 -0.5468  1.6801
  698SOL     OW 2092   1.961   1.187   2.064 -0.2201  0.6759  0.1051
  698SOL    HW1 2093   2.041   1.193   2.127 -0.0913 -1.1640 -0.7908
  698SOL    HW2 2094   1.896   1.262   2.088  0.8277  1.4457  0.8875
  699SOL     OW 2095   2.257   0.356   1.437  0.3267  0.2739 -0.0758
  699SOL    HW1 2096   2.324   0.384   1.503 -2.3794 -0.2323  0.4109
  699SOL    HW2 2097   2.197   0.282   1.474  0.7679 -1.8250  0.6947
  700SOL     OW 2098   0.978   2.149   0.415 -0.2812  0.1053 -0.4520
  700SOL    HW1 2099   0.999   2.082   0.345 -0.7998  1.9602  1.1262
  700SOL    HW2 2100   1.049   2.152   0.487  0.5371  0.4975 -2.3025
  701SOL     OW 2101   2.225   2.842   2.685 -0.6152 -0.3880  0.4743
  701SOL    HW1 2102   2.244   2.768   2.612  0.3576 -0.0223 -0.7764
  701SOL    HW2 2103   2.177   2.803   2.766 -0.0312  1.2598 -0.8849
  702SOL     OW 2104   0.996   3.114   1.296  0.3214 -0.9886  0.1952
  702SOL    HW1 2105   0.908   3.068   1.280  0.8355  0.2317 -0.4349
  702SOL    HW2 2106   1.002   0.060   1.223 -2.0046 -2.5274  1.1293
  703SOL     OW 2107   2.546   0.110   2.124  0.5464 -0.6085  0.2479
  703SOL    HW1 2108   2.444   0.129   2.143  0.8989  0.0601  0.9787
  703SOL    HW2 2109   2.572   0.014   2.145  1.6751 -2.0279 -0.5975
  704SOL     OW 2110   0.125   2.288   0.180 -0.2443  0.1730  0.4823
  704SOL    HW1 2111   0.132   2.216   0.249  1.3002  0.2458 -0.8054
  704SOL    HW2 2112   0.167   2.374   0.215 -0.2314 -2.0176 -0.8894
  705SOL     OW 2113   2.619   2.989   2.228  0.9036 -0.1770 -0.3241
  705SOL    HW1 2114   2.531   2.971   2.274 -1.3404 -2.9885 -2.2385
  705SOL    HW2 2115   2.670   2.904   2.239 -1.5031  5.4740 -2.0506
  706SOL     OW 2116   2.328   2.742   1.136 -0.0645 -0.6272  0.5036
  706SOL    HW1 2117   2.245   2.686   1.119 -1.0599  2.6037  0.6327
  706SOL    HW2 2118   2.355   2.750   1.235  1.0417 -0.6812 -1.1415
  707SOL     OW 2119   0.941   2.866   2.416  0.1053 -0.8579 -0.7774
  707SOL    HW1 2120   0.989   2.883   2.332 -0.5602 -0.1278  0.0839
  707SOL    HW2 2121   0.877   2.942   2.429 -0.3754 -2.9906 -1.0187
  708SOL     OW 2122   2.816   2.188   1.758  0.5215 -0.1084  0.3179
  708SOL    HW1 2123   2.866   2.214   1.846 -0.0401  0.9159  1.9108
  708SOL    HW2 2124   2.871   2.116   1.711 -0.2712  0.6684 -2.1882
  709SOL     OW 2125   1.584   0.541   1.374  0.2402 -0.0458 -0.0712
  709SOL    HW1 2126   1.558   0.615   1.314 -1.2188 -2.8330 -1.2212
  709SOL    HW2 2127   1.667   0.494   1.337 -2.3119 -1.2853 -1.2366
  710SOL     OW 2128   1.003   3.105   2.800 -0.8584 -0.1068 -0.6634
  710SOL    HW1 2129   1.054   3.022   2.812 -1.1780 -0.5888  0.3429
  710SOL    HW2 2130   1.040   0.043   2.722 -0.9723  1.8422  1.0704
  711SOL     OW 2131   0.737   1.812   2.526  0.1171  0.0147 -0.0510
  711SOL    HW1 2132   0.670   1.873   2.581 -3.6777  1.9173  1.0491
  711SOL    HW2 2133   0.762   1.736   2.585  1.2222  2.8278  2.0633
  712SOL     OW 2134   0.993   2.105   3.029 -0.1195  0.0985 -0.4111
  712SOL    HW1 2135   0.915   2.056   3.073 -0.5604 -0.4725 -1.8387
  712SOL    HW2 2136   1.003   2.089   2.929 -0.4524  0.8975  0.5105
  713SOL     OW 2137   2.117   0.784   2.298 -0.3253 -0.3049  0.2097
  713SOL    HW1 2138   2.189   0.858   2.316  3.4570  1.2479  1.3062
  713SOL    HW2 2139   2.156   0.700   2.269  2.1768  3.4669 -1.2367
  714SOL     OW 2140   1.098   1.755   1.773 -0.2851  0.9665  0.5604
  714SOL    HW1 2141   1.185   1.801   1.782 -2.5246 -0.7164 -0.4672
  714SOL    HW2 2142   1.027   1.809   1.726 -0.5400 -2.5925 -1.1369
  715SOL     OW 2143   2.112   0.274   0.016  0.1263  0.3083  0.4861
  715SOL    HW1 2144   2.170   0.320   0.086 -3.1298  0.4557 -0.5292
  715SOL    HW2 2145   2.143   0.175   0.005 -0.9481 -0.9767 -0.4003
  716SOL     OW 2146   2.715   2.242   1.497  0.4930 -0.0907  0.0549
  716SOL    HW1 2147   2.741   2.233   1.592 -0.8463  1.3458 -0.1756
  716SOL    HW2 2148   2.765   2.317   1.452  2.5222  3.4389 -2.6113
  717SOL     OW 2149   2.698   1.096   0.951 -0.6594  0.3131  0.6535
  717SOL    HW1 2150   2.602   1.070   0.921  0.3567 -0.1475 -0.2192
  717SOL    HW2 2151   2.769   1.086   0.880  0.2668 -0.2947  0.7929
  718SOL     OW 2152   1.425   1.622   1.593  0.4850  0.0038 -0.5658
  718SOL    HW1 2153   1.522   1.586   1.601  0.9570  0.6336  1.0934
  718SOL    HW2 2154   1.397   1.694   1.662 -1.8180  0.8289  0.4300
  719SOL     OW 2155   2.783   0.542   0.129  0.2351 -0.4335 -0.6771
  719SOL    HW1 2156   2.768   0.621   0.069 -2.5631 -0.5086 -0.7473
  719SOL    HW2 2157   2.827   0.463   0.079 -1.8143  0.9156 -2.3116
  720SOL     OW 2158   0.948   0.155   0.997  0.0216 -0.2916 -0.1345
  720SOL    HW1 2159   0.992   0.246   0.989 -0.1517  0.8737  0.0685
  720SOL    HW2 2160   0.913   0.124   0.908 -0.2917  0.6030  0.0800
  721SOL     OW 2161   2.637   0.894   0.675 -0.4125 -0.0808 -0.6127
  721SOL    HW1 2162   2.678   0.832   0.606 -2.5341 -0.3600 -0.2414
  721SOL    HW2 2163   2.705   0.970   0.694  0.5088  0.6496 -0.2766
  722SOL     OW 2164   0.655   2.667   2.612 -0.7639  0.1633  0.0315
  722SOL    HW1 2165   0.754   2.654   2.614 -0.7443  0.3402 -1.3086
  722SOL    HW2 2166   0.614   2.601   2.542  2.5978  3.2654 -3.0771
  723SOL     OW 2167   1.832   0.481   0.664  0.4902 -0.0462  0.1956
  723SOL    HW1 2168   1.852   0.488   0.762  1.3887 -0.7882 -0.6680
  723SOL    HW2 2169   1.742   0.435   0.650  0.9194 -0.0686 -0.6581
  724SOL     OW 2170   1.112   1.885   2.379 -0.4893  0.2144  0.6739
  724SOL    HW1 2171   1.038   1.956   2.382  0.0178 -1.4487  1.6464
  724SOL    HW2 2172   1.128   1.850   2.283  1.7029 -0.9872 -0.1585
  725SOL     OW 2173   1.528   2.901   1.463 -0.4800  0.3956 -0.2926
  725SOL    HW1 2174   1.621   2.888   1.429  1.2814 -0.7751  0.6344
  725SOL    HW2 2175   1.463   2.837   1.415  0.1784 -2.9035 -0.1238
  726SOL     OW 2176   2.493   2.768   0.153 -0.1751  0.1462  0.0866
  726SOL    HW1 2177   2.517   2.824   0.069  0.0863  1.0910 -0.1438
  726SOL    HW2 2178   2.578   2.755   0.208 -0.8098  1.0490 -1.0001
  727SOL     OW 2179   1.205   2.001   0.904  0.2238 -0.4729  0.0418
  727SOL    HW1 2180   1.307   2.007   0.914  0.5515  1.0225  1.6125
  727SOL    HW2 2181   1.169   2.086   0.861 -0.2692 -0.8138 -1.3772
  728SOL     OW 2182   2.294   2.689   2.461  0.1075  0.5508  0.4114
  728SOL    HW1 2183   2.330   2.759   2.401 -2.1686  3.1491 -0.0483
  728SOL    HW2 2184   2.197   2.698   2.452  0.9639 -1.3019 -2.3373
  729SOL     OW 2185   1.820   2.193   1.392 -0.5978  0.1984  0.5126
  729SOL    HW1 2186   1.851   2.269   1.333  0.4675 -0.8792  1.2383
  729SOL    HW2 2187   1.720   2.178   1.377 -1.8539 -0.5228 -0.1346
  730SOL     OW 2188   1.695   0.615   2.797 -0.2254  0.5219 -0.2952
  730SOL    HW1 2189   1.629   0.687   2.761  1.0531  1.5096 -2.8722
  730SOL    HW2 2190   1.788   0.639   2.762 -2.2081  1.3645 -2.6112
  731SOL     OW 2191   0.786   0.178   1.425 -0.3242  0.3300 -0.1358
  731SOL    HW1 2192   0.870   0.118   1.448  1.7538 -3.8037 -0.9798
  731SOL    HW2 2193   0.735   0.202   1.510  1.8769  0.5904 -1.1618
  732SOL     OW 2194   1.317   0.217   0.914 -0.3642 -0.3213 -0.9742
  732SOL    HW1 2195   1.245   0.284   0.944 -2.2554  0.8652 -1.3884
  732SOL    HW2 2196   1.401   0.251   0.962  0.8226  0.5639 -0.0734
  733SOL     OW 2197   0.817   1.306   0.781 -0.6058  0.3844  0.0653
  733SOL    HW1 2198   0.863   1.213   0.783 -1.4046  0.3916 -1.8464
  733SOL    HW2 2199   0.800   1.342   0.872  1.1527  1.3989  2.0045
  734SOL     OW 2200   2.774   2.881   2.752  0.1568 -0.0213  0.0531
  734SOL    HW1 2201   2.695   2.906   2.691  0.3144  1.0998  1.1041
  734SOL    HW2 2202   2.850   2.830   2.709 -2.3784 -0.4672 -1.9388
  735SOL     OW 2203   0.545   2.996   1.552 -0.2089 -0.2645 -0.2810
  735SOL    HW1 2204   0.622   2.949   1.596 -2.5612  0.7327 -0.2657
  735SOL    HW2 2205   0.488   3.047   1.619  0.2797 -0.2685 -2.9175
  736SOL     OW 2206   1.601   1.927   3.107 -0.0172  0.4769 -0.7136
  736SOL    HW1 2207   1.580   1.830   0.010 -1.9646 -0.0501 -0.3267
  736SOL    HW2 2208   1.562   1.987   0.064 -1.3658  0.7675 -0.7956
  737SOL     OW 2209   0.100   2.137   1.398  0.0550  0.5320  0.0318
  737SOL    HW1 2210   0.149   2.140   1.304 -0.6390  0.0034 -2.1976
  737SOL    HW2 2211   3.117   2.119   1.386  1.3404 -2.5958 -0.4342
  738SOL     OW 2212   1.882   2.587   2.923 -0.3718  0.1742 -0.1990
  738SOL    HW1 2213   1.790   2.631   2.908 -4.5352  0.6707 -2.4620
  738SOL    HW2 2214   1.892   2.566   3.021  0.3572 -0.3579  3.3880
  739SOL     OW 2215   1.291   2.127   2.373 -0.1350 -0.8735 -0.1442
  739SOL    HW1 2216   1.339   2.145   2.461  2.7105 -1.9160  0.3875
  739SOL    HW2 2217   1.242   2.042   2.380  2.6312  2.3493  0.2702
  740SOL     OW 2218   1.330   2.753   1.341  0.3722  0.5722 -0.3417
  740SOL    HW1 2219   1.310   2.695   1.256 -1.3668  1.5710 -0.6332
  740SOL    HW2 2220   1.313   2.849   1.319 -3.2273 -3.9439 -4.2832
  741SOL     OW 2221   2.711   0.917   0.168 -0.1289  0.2282  0.1287
  741SOL    HW1 2222   2.664   0.958   0.245  0.7489  1.8733  2.7344
  741SOL    HW2 2223   2.714   0.991   0.095 -1.6041  2.0241  0.2253
  742SOL     OW 2224   0.899   1.671   2.354  0.4141 -0.0879  0.4047
  742SOL    HW1 2225   0.999   1.649   2.363  0.4896 -0.6497  0.3195
  742SOL    HW2 2226   0.875   1.765   2.380  1.2136 -1.5455 -1.0622
  743SOL     OW 2227   0.853   0.948   2.414 -0.0482  0.1387 -0.0772
  743SOL    HW1 2228   0.754   0.946   2.428  2.1867 -0.7404  2.2976
  743SOL    HW2 2229   0.893   0.854   2.407  0.4933 -2.2044  2.1409
  744SOL     OW 2230   1.984   2.692   1.589 -0.6589 -0.0234 -0.6345
  744SOL    HW1 2231   2.024   2.650   1.678  0.9378  0.0584  1.5196
  744SOL    HW2 2232   1.941   2.782   1.604  2.1897 -0.7084  0.5073
  745SOL     OW 2233   1.670   1.361   1.286  0.0509 -0.5265 -0.0418
  745SOL    HW1 2234   1.631   1.363   1.379  2.0663  0.0617  0.5014
  745SOL    HW2 2235   1.763   1.322   1.296 -0.2456  2.1236  2.8882
  746SOL     OW 2236   1.649   0.851   0.907 -0.3198  0.5353  0.5029
  746SOL    HW1 2237   1.703   0.933   0.934 -0.1064 -0.8525 -1.1710
  746SOL    HW2 2238   1.690   0.763   0.884 -1.8434 -1.4761 -0.3493
  747SOL     OW 2239   2.028   1.826   0.824 -0.6462  0.0888  0.1644
  747SOL    HW1 2240   2.126   1.808   0.795  1.1031 -1.1222 -0.6317
  747SOL    HW2 2241   1.975   1.845   0.737 -2.2725  0.2663  0.5625
  748SOL     OW 2242   0.523   1.647   0.245  0.4764  0.1713  0.9980
  748SOL    HW1 2243   0.476   1.719   0.297  0.9865 -1.1919 -3.4732
  748SOL    HW2 2244   0.583   1.689   0.174  0.5219  0.1084  0.7903
  749SOL     OW 2245   0.155   2.456   2.655  0.1593 -0.0232 -0.7527
  749SOL    HW1 2246   0.154   2.361   2.629 -1.5378  1.1298 -0.5230
  749SOL    HW2 2247   0.061   2.481   2.691  0.1449 -0.2812  1.8182
  750SOL     OW 2248   2.064   0.646   1.085  0.1035 -0.6053  0.0441
  750SOL    HW1 2249   2.133   0.605   1.149  0.5762 -0.5163 -1.0113
  750SOL    HW2 2250   2.021   0.731   1.122  0.3543  0.8300  1.5112
  751SOL     OW 2251   2.472   3.073   0.324  0.3818 -0.3342  0.0002
  751SOL    HW1 2252   2.503   3.106   0.232 -1.2553  0.0945  1.7917
  751SOL    HW2 2253   2.535   3.002   0.357  2.6399  0.3297 -0.0524
  752SOL     OW 2254   2.464   2.550   0.445  0.1203 -0.0587  0.5624
  752SOL    HW1 2255   2.428   2.626   0.501  0.4338  0.2954 -0.9393
  752SOL    HW2 2256   2.497   2.482   0.515  0.6737 -1.7511  2.2801
  753SOL     OW 2257   1.968   1.504   2.475  0.5640  0.1863 -0.2384
  753SOL    HW1 2258   2.065   1.510   2.507 -0.4940  0.6436  0.3928
  753SOL    HW2 2259   1.967   1.519   2.375 -3.8332 -1.4484  1.1677
  754SOL     OW 2260   2.188   2.312   1.490 -0.1348 -0.0224 -0.3257
  754SOL    HW1 2261   2.171   2.211   1.484  0.4203  0.2592 -1.9145
  754SOL    HW2 2262   2.284   2.335   1.468  0.5221  1.8230  1.1012
  755SOL     OW 2263   2.280   0.876   1.071  0.3958 -0.5091  0.4482
  755SOL    HW1 2264   2.188   0.911   1.099  0.1535  0.0553  0.3014
  755SOL    HW2 2265   2.274   0.821   0.983  0.0048 -2.5258  0.5453
  756SOL     OW 2266   1.265   1.514   2.666 -0.2246 -0.5108 -0.7448
  756SOL    HW1 2267   1.250   1.447   2.592 -2.0712  2.3921  1.2862
  756SOL    HW2 2268   1.238   1.611   2.629 -2.5525  0.2034 -0.9911
  757SOL     OW 2269   1.687   2.635   1.110 -0.3603 -0.1744 -0.2507
  757SOL    HW1 2270   1.707   2.714   1.173  0.1379 -0.2032 -0.0085
  757SOL    HW2 2271   1.683   2.666   1.012  1.1494 -0.8689  0.4954
  758SOL     OW 2272   0.784   2.342   1.334 -0.6645  0.3670  0.4712
  758SOL    HW1 2273   0.852   2.312   1.404  1.1604  2.2651  1.7637
  758SOL    HW2 2274   0.826   2.384   1.248 -0.6236  2.3867 -0.4993
  759SOL     OW 2275   2.056   1.155   1.044  0.0783 -0.0038  0.1824
  759SOL    HW1 2276   2.065   1.232   1.109 -0.8276  1.5204  0.9250
  759SOL    HW2 2277   2.075   1.176   0.943 -0.4909 -1.6446 -3.2896
  760SOL     OW 2278   2.190   1.006   1.385  0.0942  0.3633  0.1022
  760SOL    HW1 2279   2.102   0.995   1.341 -0.5587 -1.1496  0.8752
  760SOL    HW2 2280   2.191   1.055   1.473  0.5622 -0.9897 -0.1469
  761SOL     OW 2281   2.241   2.767   0.340 -0.0333 -0.7231 -0.3208
  761SOL    HW1 2282   2.218   2.868   0.348 -0.4857  1.8456 -0.1135
  761SOL    HW2 2283   2.320   2.750   0.281  1.0355 -0.3304 -0.2167
  762SOL     OW 2284   2.073   1.579   2.825 -0.5697 -0.6406 -0.0149
  762SOL    HW1 2285   2.111   1.669   2.789 -0.4412  0.1686 -4.1249
  762SOL    HW2 2286   1.980   1.599   2.870  1.4791  3.3892  1.4189
  763SOL     OW 2287   0.365   1.681   1.439  0.4155  0.4580 -0.0840
  763SOL    HW1 2288   0.302   1.760   1.430  0.8824  1.6862 -0.3526
  763SOL    HW2 2289   0.401   1.674   1.534 -2.2569 -0.8386 -0.3859
  764SOL     OW 2290   0.055   2.599   0.049  0.1025  0.0205  0.6827
  764SOL    HW1 2291   3.117   2.514   0.046 -0.2577  1.7993  0.3019
  764SOL    HW2 2292   0.139   2.600   3.107  0.2620 -1.5207  1.4485
  765SOL     OW 2293   0.575   0.005   1.979 -0.0081  0.3140 -0.7100
  765SOL    HW1 2294   0.653   0.063   1.943  0.8271  1.0771 -0.4226
  765SOL    HW2 2295   0.522   0.043   2.054 -1.8282 -0.7572  0.2403
  766SOL     OW 2296   0.214   2.085   2.421  0.3052 -0.1606  0.5101
  766SOL    HW1 2297   0.155   2.156   2.379  0.3767 -2.4083 -0.5947
  766SOL    HW2 2298   0.149   2.014   2.462  0.0113  0.0231  2.3090
  767SOL     OW 2299   3.010   1.363   1.780  0.1739  0.2958  0.0817
  767SOL    HW1 2300   2.986   1.306   1.863 -2.7126 -3.2301  1.3264
  767SOL    HW2 2301   2.936   1.435   1.768 -1.9865  1.2217 -0.1559
  768SOL     OW 2302   0.997   0.471   2.809 -0.3692  0.0330  0.1227
  768SOL    HW1 2303   0.989   0.406   2.881  0.4931 -0.5549  0.1775
  768SOL    HW2 2304   1.057   0.551   2.837  1.6650  2.0055  0.5788
  769SOL     OW 2305   2.183   2.433   0.757  0.5562  0.4449  0.4108
  769SOL    HW1 2306   2.243   2.375   0.819  0.5080  2.3204 -0.3484
  769SOL    HW2 2307   2.233   2.514   0.729 -4.4042 -0.4775 -1.7446
  770SOL     OW 2308   2.821   0.316   2.932  0.1776  0.3055  0.3405
  770SOL    HW1 2309   2.861   0.267   3.014 -1.3313 -0.1703  1.5701
  770SOL    HW2 2310   2.731   0.281   2.908  1.6327  1.8646  2.3336
  771SOL     OW 2311   1.721   2.299   1.783  0.1527  0.3222  0.3171
  771SOL    HW1 2312   1.791   2.281   1.713  0.9093  1.2157 -1.0086
  771SOL    HW2 2313   1.673   2.212   1.805  1.3554 -2.1115 -0.1916
  772SOL     OW 2314   0.970   0.274   2.588  0.3633 -0.0389 -0.3098
  772SOL    HW1 2315   0.868   0.266   2.598 -1.4969  1.2910 -0.1172
  772SOL    HW2 2316   1.011   0.339   2.661  1.2128  1.6911  0.4531
  773SOL     OW 2317   2.889   1.034   1.756  0.0058  0.3240  0.7086
  773SOL    HW1 2318   2.959   0.984   1.706 -1.3862 -0.9909 -0.8727
  773SOL    HW2 2319   2.903   1.021   1.854  0.1372 -3.9341 -1.3734
  774SOL     OW 2320   1.245   1.056   0.361 -0.1402 -0.5662 -0.3445
  774SOL    HW1 2321   1.190   1.126   0.316 -1.1993 -0.1983 -0.9449
  774SOL    HW2 2322   1.324   1.086   0.417  0.4802  3.6815 -0.5926
  775SOL     OW 2323   2.574   0.050   0.091 -0.0750 -0.4148  0.0498
  775SOL    HW1 2324   2.536   0.138   0.052 -0.9971  2.1266  0.8179
  775SOL    HW2 2325   2.568   3.093   0.020  1.6216 -0.0844  0.1614
  776SOL     OW 2326   2.371   0.923   1.994 -0.1931 -0.4653 -0.6005
  776SOL    HW1 2327   2.388   0.919   1.896  0.4833  1.1128  0.5946
  776SOL    HW2 2328   2.410   0.840   2.042  2.7859 -1.9953  1.2842
  777SOL     OW 2329   3.110   1.111   2.430  0.0681  0.1363  0.4058
  777SOL    HW1 2330   3.092   1.014   2.447  1.8992  3.4870  0.3883
  777SOL    HW2 2331   3.024   1.168   2.436  1.9987  0.7800  0.3985
  778SOL     OW 2332   0.813   0.319   0.459 -0.4532 -0.2944  0.7699
  778SOL    HW1 2333   0.876   0.294   0.383  2.6579 -1.4333 -0.5221
  778SOL    HW2 2334   0.721   0.278   0.455 -0.6207  1.6162  0.6731
  779SOL     OW 2335   0.537   0.399   2.761  0.1793 -0.3141  0.6490
  779SOL    HW1 2336   0.576   0.487   2.727 -0.5580  0.5948  1.1855
  779SOL    HW2 2337   0.450   0.420   2.811  0.3563  0.2735 -1.1418
  780SOL     OW 2338   1.926   0.835   2.487 -0.5065 -0.6356 -0.5526
  780SOL    HW1 2339   2.005   0.812   2.426  0.3833 -1.8638  2.7339
  780SOL    HW2 2340   1.840   0.794   2.450  0.2701 -1.8040  1.4361
  781SOL     OW 2341   0.186   1.011   1.756 -0.2600  0.2257  0.3312
  781SOL    HW1 2342   0.284   0.982   1.774  0.4621 -1.1418 -2.1301
  781SOL    HW2 2343   0.120   0.987   1.828  0.4142 -1.5237  1.2624
  782SOL     OW 2344   0.802   1.616   2.724 -0.4450 -0.7210 -0.1473
  782SOL    HW1 2345   0.839   1.544   2.666 -0.5172  2.5324  0.7558
  782SOL    HW2 2346   0.858   1.636   2.806 -0.8516  0.8038  0.4505
  783SOL     OW 2347   0.925   2.523   1.660  0.1190 -0.0089  0.2030
  783SOL    HW1 2348   0.850   2.495   1.596  0.7335 -2.6700 -2.5404
  783SOL    HW2 2349   1.010   2.551   1.604 -1.9323  2.6827  0.1995
  784SOL     OW 2350   1.354   0.345   3.020  0.0661 -0.3933  0.5439
  784SOL    HW1 2351   1.382   0.394   2.933  1.0926 -0.6365  0.3358
  784SOL    HW2 2352   1.427   0.354   3.090 -0.3324 -0.2654 -1.0581
  785SOL     OW 2353   1.167   0.577   2.581  0.4956 -0.7389 -0.2668
  785SOL    HW1 2354   1.156   0.555   2.679  0.8790 -1.0785  1.6388
  785SOL    HW2 2355   1.244   0.531   2.542 -0.4901  1.9280 -0.1284
  786SOL     OW 2356   0.409   1.843   0.407 -0.6501  0.3037  0.0912
  786SOL    HW1 2357   0.351   1.807   0.485 -1.1329  3.3076  4.2418
  786SOL    HW2 2358   0.506   1.875   0.443  1.3787 -0.5354  2.9198
  787SOL     OW 2359   1.528   0.973   0.308  0.0418 -0.7107 -0.2785
  787SOL    HW1 2360   1.536   1.048   0.240 -2.8349 -0.2230  2.7763
  787SOL    HW2 2361   1.525   1.015   0.402 -1.4952  0.0086  0.6824
  788SOL     OW 2362   1.975   1.689   1.310 -0.0969 -0.0973 -0.3166
  788SOL    HW1 2363   1.947   1.781   1.348 -1.1336  1.3007 -1.4258
  788SOL    HW2 2364   2.015   1.628   1.380 -0.5721 -0.2838 -2.7845
  789SOL     OW 2365   0.134   1.771   2.012  0.1946  0.3928 -0.1062
  789SOL    HW1 2366   0.127   1.706   1.937  0.7935 -0.2609  0.2891
  789SOL    HW2 2367   0.132   1.718   2.098 -0.5354 -0.5806  3.0107
  790SOL     OW 2368   0.719   2.834   0.173 -0.0978 -0.3872 -0.3259
  790SOL    HW1 2369   0.631   2.880   0.165 -1.9524  0.9279  2.0146
  790SOL    HW2 2370   0.724   2.737   0.140  1.5133 -0.1779 -0.1348
  791SOL     OW 2371   0.419   0.370   0.249 -0.2725  0.0466 -0.7280
  791SOL    HW1 2372   0.461   0.463   0.262  1.0881  2.3503  0.5674
  791SOL    HW2 2373   0.455   0.328   0.171  0.5883  0.9521  4.2686
  792SOL     OW 2374   1.702   0.732   2.397  0.6747  0.0858  0.5467
  792SOL    HW1 2375   1.738   0.640   2.425 -3.0581 -2.2110 -0.6280
  792SOL    HW2 2376   1.739   0.756   2.306 -1.0885 -3.8480  1.1252
  793SOL     OW 2377   0.182   0.671   0.714 -0.1963 -0.6407 -0.3944
  793SOL    HW1 2378   0.125   0.587   0.694 -3.9950 -3.4348  1.7804
  793SOL    HW2 2379   0.275   0.653   0.748 -0.5272 -1.7987 -3.3073
  794SOL     OW 2380   0.534   0.458   1.594 -0.2201 -0.3711 -1.1505
  794SOL    HW1 2381   0.442   0.468   1.638 -0.1686 -0.5827 -1.8086
  794SOL    HW2 2382   0.563   0.544   1.549 -0.2468  0.4569 -0.4456
  795SOL     OW 2383   0.142   1.188   3.004  0.4945 -0.5629  0.0416
  795SOL    HW1 2384   0.214   1.260   3.025  0.7153 -0.0321  2.7819
  795SOL    HW2 2385   0.111   1.194   2.908  1.0328  1.5262  2.3808
  796SOL     OW 2386   0.122   0.520   3.071  0.0210 -0.1382 -0.0548
  796SOL    HW1 2387   0.127   0.519   0.058  0.0278  1.6971  1.3675
  796SOL    HW2 2388   0.127   0.616   3.042  0.3261 -2.0668  1.9313
  797SOL     OW 2389   1.451   2.635   0.018 -0.1183 -0.1697  0.3381
  797SOL    HW1 2390   1.383   2.660   0.090  0.7260 -1.8747  1.8191
  797SOL    HW2 2391   1.403   2.576   3.071 -1.1585  1.7953  0.4278
  798SOL     OW 2392   2.951   0.634   0.888 -0.3031 -0.8629 -0.2861
  798SOL    HW1 2393   2.924   0.553   0.833 -0.1443  2.5108  0.4263
  798SOL    HW2 2394   3.004   0.698   0.835 -0.0542 -1.7768  1.1652
  799SOL     OW 2395   2.720   0.817   2.046  0.9609 -0.0064  0.0285
  799SOL    HW1 2396   2.652   0.749   2.085 -0.1552 -0.5434  0.8222
  799SOL    HW2 2397   2.813   0.787   2.071 -2.1967 -1.0168  0.3620
  800SOL     OW 2398   0.090   2.123   0.413 -0.1535 -0.0548  0.1629
  800SOL    HW1 2399   0.080   2.082   0.510  1.5332 -0.6292  2.4053
  800SOL    HW2 2400   0.010   2.096   0.354  0.7955 -0.4859 -0.5243
  801SOL     OW 2401   1.501   2.039   0.732  0.4689  0.4718 -0.0452
  801SOL    HW1 2402   1.504   2.056   0.631 -2.0371 -1.2295  0.3519
  801SOL    HW2 2403   1.558   1.955   0.759 -1.9107 -2.2705 -1.3417
  802SOL     OW 2404   1.019   1.873   2.723 -0.0346  0.8190 -0.6972
  802SOL    HW1 2405   0.933   1.818   2.696 -2.8812 -3.2312 -3.3385
  802SOL    HW2 2406   1.101   1.829   2.681 -2.1765 -0.1848  0.8985
  803SOL     OW 2407   2.974   1.996   1.641 -0.5537  0.2155 -0.4110
  803SOL    HW1 2408   2.956   2.004   1.543 -0.1134 -0.9899  1.6638
  803SOL    HW2 2409   3.067   1.953   1.661  3.5655 -0.4437 -1.5753
  804SOL     OW 2410   1.191   2.529   1.489 -0.1452 -0.0246 -0.5248
  804SOL    HW1 2411   1.287   2.534   1.530  1.1358  1.5557 -0.5454
  804SOL    HW2 2412   1.179   2.591   1.411  2.5121  0.3277 -0.4616
  805SOL     OW 2413   2.480   1.978   2.935 -0.3365 -0.6737 -0.5227
  805SOL    HW1 2414   2.413   2.021   2.869  0.0066  0.7597  0.6062
  805SOL    HW2 2415   2.522   1.891   2.903 -1.3029  1.3469 -0.3638
  806SOL     OW 2416   2.143   3.060   0.697  0.4472 -0.1604 -0.1057
  806SOL    HW1 2417   2.110   3.054   0.797  0.4469  0.0509  1.1497
  806SOL    HW2 2418   2.066   3.034   0.636  0.5923 -0.1393  0.0171
  807SOL     OW 2419   2.964   0.498   2.830  0.2353 -0.2003  0.2063
  807SOL    HW1 2420   2.922   0.421   2.884 -3.3208  0.6472 -3.2073
  807SOL    HW2 2421   2.891   0.569   2.822  2.4933 -1.9168 -1.0108
  808SOL     OW 2422   0.499   1.272   0.418  0.0685 -0.1662  1.0342
  808SOL    HW1 2423   0.525   1.214   0.337 -2.3276 -1.9804 -1.1075
  808SOL    HW2 2424   0.404   1.293   0.420  2.5295  0.5815 -1.2545
  809SOL     OW 2425   2.741   0.539   1.777 -0.2614  0.3969 -0.0328
  809SOL    HW1 2426   2.694   0.628   1.775  0.9815  1.6522  0.0147
  809SOL    HW2 2427   2.738   0.504   1.680 -1.5468 -1.1787 -0.1483
  810SOL     OW 2428   1.254   0.661   1.178  0.1444  0.3464  0.1718
  810SOL    HW1 2429   1.262   0.683   1.077  2.3234 -0.9757 -1.1724
  810SOL    HW2 2430   1.240   0.561   1.187  2.7208  2.9363 -2.3955
  811SOL     OW 2431   2.364   2.905   1.757 -0.8144 -0.4225  0.2350
  811SOL    HW1 2432   2.305   2.986   1.764  1.2886  1.9706 -2.2599
  811SOL    HW2 2433   2.327   2.819   1.798  0.1911 -1.2601 -0.2704
  812SOL     OW 2434   1.755   2.257   0.019  0.1471  0.2162 -0.0443
  812SOL    HW1 2435   1.681   2.254   0.092 -1.2201 -1.2210 -0.1665
  812SOL    HW2 2436   1.846   2.277   0.065  2.0549 -0.2700 -1.3767
  813SOL     OW 2437   1.326   0.742   1.615 -0.0881 -0.1198  0.4540
  813SOL    HW1 2438   1.294   0.778   1.524 -3.0196 -1.5807 -0.2820
  813SOL    HW2 2439   1.424   0.717   1.615 -0.1268  3.0710  0.0122
  814SOL     OW 2440   0.562   0.568   1.289  0.1721  0.6480  0.0316
  814SOL    HW1 2441   0.582   0.655   1.341  1.9658 -0.8328  4.5679
  814SOL    HW2 2442   0.543   0.492   1.355 -2.4192  1.1839 -2.2086
  815SOL     OW 2443   0.590   0.424   0.597  0.2508 -0.6111  0.1809
  815SOL    HW1 2444   0.675   0.417   0.545  0.3876 -0.0577  1.0003
  815SOL    HW2 2445   0.586   0.508   0.658 -1.0910 -2.7747 -2.9739
  816SOL     OW 2446   2.199   1.505   2.598 -0.7120 -0.3203 -0.4591
  816SOL    HW1 2447   2.149   1.527   2.681  0.0481  0.6696 -3.0345
  816SOL    HW2 2448   2.276   1.569   2.582  2.1798 -0.9823 -1.6235
  817SOL     OW 2449   1.149   2.860   0.943  0.7153  0.5614 -0.0674
  817SOL    HW1 2450   1.198   2.780   0.899 -2.5327 -0.0780 -2.3250
  817SOL    HW2 2451   1.195   2.942   0.899  1.1529  2.4523 -0.8416
  818SOL     OW 2452   1.748   0.545   3.056  0.3557  0.1693  0.4398
  818SOL    HW1 2453   1.832   0.590   3.088 -1.7415 -0.1504  1.8392
  818SOL    HW2 2454   1.722   0.571   2.953 -0.3889 -0.2138 -1.4462
  819SOL     OW 2455   1.915   0.238   0.196  0.2391 -0.2034  0.0439
  819SOL    HW1 2456   1.976   0.269   0.113  2.1572  0.4336 -4.7976
  819SOL    HW2 2457   1.958   0.157   0.229 -1.1167  1.8157  0.1158
  820SOL     OW 2458   1.984   0.662   3.097 -0.4130 -0.2024  0.7260
  820SOL    HW1 2459   1.985   0.760   3.070 -1.8753  1.6844 -2.9185
  820SOL    HW2 2460   1.997   0.654   0.080  0.6094 -1.5660 -0.0663
  821SOL     OW 2461   2.882   0.452   0.699 -0.1981  0.2673  0.2989
  821SOL    HW1 2462   2.909   0.473   0.606 -2.7861  3.3740  2.1694
  821SOL    HW2 2463   2.905   0.355   0.714 -0.4566 -0.6162 -1.7388
  822SOL     OW 2464   0.939   2.264   2.092  0.9981 -0.0679  0.2738
  822SOL    HW1 2465   1.024   2.294   2.138 -2.9010  0.1174  0.8202
  822SOL    HW2 2466   0.909   2.174   2.127  1.9999 -1.2287 -1.9530
  823SOL     OW 2467   0.177   1.615   1.767 -0.1050 -0.1721 -0.4567
  823SOL    HW1 2468   0.260   1.631   1.709  0.4119 -0.4762 -0.9002
  823SOL    HW2 2469   0.159   1.520   1.792 -1.6747  2.2873 -0.3267
  824SOL     OW 2470   1.581   2.810   2.673 -0.4407  0.0075 -0.4636
  824SOL    HW1 2471   1.605   2.747   2.595  1.1824  0.7454  2.6544
  824SOL    HW2 2472   1.580   2.754   2.760  0.4937 -0.2500  0.6699
  825SOL     OW 2473   1.777   0.752   0.596 -0.7294 -0.3695 -1.0324
  825SOL    HW1 2474   1.828   0.663   0.606  0.5421 -1.1803 -0.2519
  825SOL    HW2 2475   1.838   0.832   0.622 -2.0692  0.9506  2.3834
  826SOL     OW 2476   2.001   0.928   3.031  0.7067 -0.6021  0.0184
  826SOL    HW1 2477   2.081   0.970   3.076  0.7032 -0.0113  0.8231
  826SOL    HW2 2478   1.920   0.949   3.086  1.6188 -2.9778  2.1626
  827SOL     OW 2479   0.440   1.709   1.948  0.2781  0.0307  0.2329
  827SOL    HW1 2480   0.391   1.795   1.949  2.5219 -1.3902  1.9120
  827SOL    HW2 2481   0.419   1.663   2.035 -1.2850 -0.5751 -2.2014
  828SOL     OW 2482   2.222   1.241   1.544 -0.3368 -0.0454  0.2360
  828SOL    HW1 2483   2.324   1.232   1.566 -2.7669 -1.3534  2.5671
  828SOL    HW2 2484   2.188   1.339   1.559 -1.4572  0.1297  0.3213
  829SOL     OW 2485   0.269   1.926   0.179  0.1352  1.0937 -0.3474
  829SOL    HW1 2486   0.310   1.912   0.272  0.3032  1.6147  2.5575
  829SOL    HW2 2487   0.166   1.936   0.192 -2.3616 -0.7953  2.3233
  830SOL     OW 2488   1.462   0.960   0.752  0.1696  0.3636 -0.1451
  830SOL    HW1 2489   1.530   0.913   0.822  3.0254 -0.5435  1.2551
  830SOL    HW2 2490   1.428   0.895   0.683  0.8718 -0.1204  0.6068
  831SOL     OW 2491   2.959   1.865   3.054 -0.2943 -0.9730  0.3276
  831SOL    HW1 2492   3.004   1.875   2.963  0.3427  0.9692  3.0363
  831SOL    HW2 2493   2.967   1.770   3.091  3.1472  2.3620  0.0131
  832SOL     OW 2494   0.974   0.259   0.267 -0.1797  0.5202  0.1491
  832SOL    HW1 2495   1.047   0.326   0.262 -1.0035 -1.9481  0.9762
  832SOL    HW2 2496   0.922   0.253   0.179 -1.6882 -0.4635  0.2976
  833SOL     OW 2497   0.547   0.733   1.955  0.1205 -0.3041 -0.2123
  833SOL    HW1 2498   0.462   0.677   1.962 -1.3433 -0.7809 -2.6156
  833SOL    HW2 2499   0.630   0.678   1.938 -1.9091 -0.4909  2.0028
  834SOL     OW 2500   0.387   0.334   0.925  0.6682  0.4224  0.1778
  834SOL    HW1 2501   0.485   0.343   0.936 -3.6912  1.4078 -1.3086
  834SOL    HW2 2502   0.374   0.292   0.830 -1.1054 -1.2788 -1.1717
  835SOL     OW 2503   2.677   2.834   1.224  0.0103  0.0481 -0.3289
  835SOL    HW1 2504   2.765   2.797   1.257  0.2208  2.7515  1.4292
  835SOL    HW2 2505   2.671   2.936   1.227  0.5634  1.2141 -1.3030
  836SOL     OW 2506   0.512   2.096   0.061  0.4255  0.4934  0.3677
  836SOL    HW1 2507   0.575   2.124   0.137  2.7148  0.0978  1.5852
  836SOL    HW2 2508   0.433   2.053   0.103  1.5880 -0.9271 -1.9367
  837SOL     OW 2509   1.769   1.321   2.543 -0.3639  0.0328  0.0393
  837SOL    HW1 2510   1.752   1.330   2.643 -1.4507  0.5913  0.5488
  837SOL    HW2 2511   1.836   1.393   2.509  0.5683 -0.1741 -0.4838
  838SOL     OW 2512   0.484   1.386   1.965  0.4552 -0.0078  0.0482
  838SOL    HW1 2513   0.582   1.366   1.958 -0.8997  0.9526  2.0092
  838SOL    HW2 2514   0.431   1.351   1.886 -0.0172  2.2906 -2.5068
  839SOL     OW 2515   0.177   1.328   0.847 -0.0055  0.8604 -0.2015
  839SOL    HW1 2516   0.224   1.343   0.939 -1.0845 -0.6449  1.0411
  839SOL    HW2 2517   0.170   1.231   0.822 -1.5129  0.5713  0.6388
  840SOL     OW 2518   2.039   0.199   1.585  0.9276 -0.9308 -0.4728
  840SOL    HW1 2519   1.949   0.160   1.564 -1.0513  0.5770 -1.7923
  840SOL    HW2 2520   2.112   0.140   1.624  1.6378 -0.4988  2.9118
  841SOL     OW 2521   0.830   2.364   0.516 -0.5261  0.5054  0.1770
  841SOL    HW1 2522   0.899   2.436   0.526 -0.1151  1.6797 -0.2252
  841SOL    HW2 2523   0.869   2.279   0.475 -0.8177  0.1927  3.7630
  842SOL     OW 2524   0.657   0.323   0.947  0.4964  0.0385 -0.7104
  842SOL    HW1 2525   0.691   0.282   1.034 -1.4079 -2.1778 -0.8589
  842SOL    HW2 2526   0.702   0.278   0.867  0.0004 -3.2038  1.5098
  843SOL     OW 2527   0.343   1.336   3.105 -0.2358  0.2456 -0.3739
  843SOL    HW1 2528   0.412   1.258   3.116 -0.4796 -0.9482  2.3545
  843SOL    HW2 2529   0.339   1.387   0.076  3.7826 -1.6040 -0.0208
  844SOL     OW 2530   1.238   2.205   0.043  0.4132 -0.8108 -0.2874
  844SOL    HW1 2531   1.167   2.154   3.117  2.9156  1.8832  0.1015
  844SOL    HW2 2532   1.257   2.282   3.098 -0.7035 -1.5032  3.1752
  845SOL     OW 2533   2.398   2.915   2.344 -0.1072 -0.0774  0.7667
  845SOL    HW1 2534   2.388   2.859   2.263  1.4699  1.1212  4.0824
  845SOL    HW2 2535   2.317   2.972   2.356 -1.7639 -2.5038  0.0812
  846SOL     OW 2536   2.058   1.948   3.062  0.4615 -0.8791  0.2747
  846SOL    HW1 2537   2.071   2.043   3.015 -0.9986  2.2496  0.5064
  846SOL    HW2 2538   2.010   1.880   3.005  0.9913  2.6052  1.4859
  847SOL     OW 2539   2.545   0.304   3.083  0.2335 -0.4030  0.3392
  847SOL    HW1 2540   2.495   0.358   3.016  2.1056 -2.1732 -1.3326
  847SOL    HW2 2541   2.558   0.357   0.052 -0.2169  1.6225  1.6669
  848SOL     OW 2542   0.617   0.664   0.752 -0.4385  0.0305 -0.0141
  848SOL    HW1 2543   0.696   0.704   0.799 -1.7206 -0.7967 -0.7967
  848SOL    HW2 2544   0.544   0.650   0.820  1.7164 -0.0797 -0.7374
  849SOL     OW 2545   1.459   2.906   2.083  0.1298  0.4987  0.3415
  849SOL    HW1 2546   1.486   2.914   2.180  2.5223  1.4296 -2.7376
  849SOL    HW2 2547   1.483   2.815   2.042 -0.7170 -0.5888 -1.3819
  850SOL     OW 2548   0.689   1.445   0.342 -0.1424  0.4070 -0.2355
  850SOL    HW1 2549   0.634   1.361   0.353 -3.2658  1.7990  0.8040
  850SOL    HW2 2550   0.634   1.524   0.314 -1.7417 -1.1790 -0.2267
  851SOL     OW 2551   0.306   1.491   0.205  0.3169  0.3802  0.0988
  851SOL    HW1 2552   0.378   1.551   0.240 -0.7416 -1.0766 -0.0149
  851SOL    HW2 2553   0.261   1.442   0.280 -0.0814  0.6166 -1.0267
  852SOL     OW 2554   1.282   2.786   1.735  0.2944 -0.4617 -0.1382
  852SOL    HW1 2555   1.343   2.704   1.713  2.4607  0.7285  0.1707
  852SOL    HW2 2556   1.332   2.873   1.717 -1.3310 -2.6439 -1.8082
  853SOL     OW 2557   2.674   1.585   0.001 -0.4296  0.1155  0.6378
  853SOL    HW1 2558   2.778   1.577   0.010  3.8779 -1.5019  0.1832
  853SOL    HW2 2559   2.634   1.655   0.063 -5.5421 -0.4334  0.0965
  854SOL     OW 2560   1.675   1.383   1.876  0.4873 -0.3948  0.6558
  854SOL    HW1 2561   1.593   1.415   1.927 -1.0908 -0.3864 -0.4521
  854SOL    HW2 2562   1.667   1.284   1.861 -1.3711  0.4035 -0.0268
  855SOL     OW 2563   0.458   2.364   3.110 -0.5629 -0.0832 -0.7035
  855SOL    HW1 2564   0.478   2.266   3.102  0.2217  0.7505  1.4906
  855SOL    HW2 2565   0.521   2.424   3.052 -1.3712 -0.6960 -0.2476
  856SOL     OW 2566   0.424   0.925   1.803  0.0191 -0.8338 -0.2876
  856SOL    HW1 2567   0.435   0.846   1.868 -2.5831  0.6900  2.0934
  856SOL    HW2 2568   0.515   0.964   1.776 -0.0839 -0.0985 -1.0656
  857SOL     OW 2569   1.269   1.051   2.204  0.3504  0.3047 -0.0094
  857SOL    HW1 2570   1.266   0.949   2.202  0.7524 -0.3518 -1.0744
  857SOL    HW2 2571   1.361   1.086   2.231 -0.8031 -0.4116  0.3195
  858SOL     OW 2572   0.233   1.256   2.417  0.3385 -0.1157 -0.6792
  858SOL    HW1 2573   0.136   1.214   2.412 -1.9521  0.0975 -0.1742
  858SOL    HW2 2574   0.277   1.264   2.324  1.2957 -1.8058  2.6938
  859SOL     OW 2575   2.570   0.000   1.222 -0.0873  0.5529 -0.3758
  859SOL    HW1 2576   2.524   0.091   1.207 -0.6291 -0.1135  0.9976
  859SOL    HW2 2577   2.668   0.011   1.250 -1.6362 -1.1277 -1.2803
  860SOL     OW 2578   2.041   2.912   0.078 -0.0793  0.0938  0.1409
  860SOL    HW1 2579   2.069   2.816   0.072  0.3134 -0.2224  1.5231
  860SOL    HW2 2580   1.955   2.939   0.036  0.7413  0.4229  1.5035
  861SOL     OW 2581   0.969   0.612   0.508 -0.5367 -0.5515  0.4907
  861SOL    HW1 2582   0.921   0.543   0.452  1.2671  1.5042 -0.6579
  861SOL    HW2 2583   1.033   0.668   0.451  1.8997  0.2927 -1.8828
  862SOL     OW 2584   1.397   0.417   2.537 -0.7670  0.6122 -0.0664
  862SOL    HW1 2585   1.425   0.424   2.633 -1.1958  0.2245 -1.9712
  862SOL    HW2 2586   1.402   0.319   2.504 -1.0941 -0.1253 -0.1983
  863SOL     OW 2587   2.382   2.316   0.885 -0.7839 -0.4437  0.5495
  863SOL    HW1 2588   2.411   2.366   0.966 -0.6077  0.7101  1.4500
  863SOL    HW2 2589   2.408   2.220   0.875  0.2605 -1.7069 -0.1784
  864SOL     OW 2590   2.761   0.157   1.861 -0.1720 -0.6530  0.3531
  864SOL    HW1 2591   2.716   0.079   1.911 -2.9734 -0.3495  1.0344
  864SOL    HW2 2592   2.717   0.246   1.874 -0.8961 -0.7729  1.1671
  865SOL     OW 2593   1.184   0.563   1.801  0.0744  0.7285 -0.0138
  865SOL    HW1 2594   1.263   0.502   1.784  0.3207 -0.8536 -2.4592
  865SOL    HW2 2595   1.183   0.643   1.735 -0.3295  0.1266 -1.0324
  866SOL     OW 2596   1.734   2.841   1.321 -0.1522  0.0040  0.4231
  866SOL    HW1 2597   1.828   2.849   1.358  0.3990  2.5950  0.5726
  866SOL    HW2 2598   1.721   2.914   1.252 -0.0029  1.0437 -0.0821
  867SOL     OW 2599   2.759   2.533   0.642 -0.1797 -0.1142 -0.3532
  867SOL    HW1 2600   2.839   2.485   0.602 -3.0990  1.2037 -2.2808
  867SOL    HW2 2601   2.788   2.617   0.685 -1.0905 -3.7182 -2.0047
  868SOL     OW 2602   0.481   2.249   1.679 -0.4199  0.3924 -0.1901
  868SOL    HW1 2603   0.392   2.279   1.649  4.9356 -0.3259  2.0724
  868SOL    HW2 2604   0.506   2.168   1.625 -0.0415 -3.0069 -0.1082
  869SOL     OW 2605   2.084   2.189   2.942  0.2036  0.4719 -0.4230
  869SOL    HW1 2606   2.182   2.173   2.915  1.6296 -0.0107 -1.7212
  869SOL    HW2 2607   2.042   2.263   2.890  0.0535 -0.8309 -1.5823
  870SOL     OW 2608   1.647   1.853   1.066  0.0374  0.6353  0.4696
  870SOL    HW1 2609   1.667   1.877   0.970  0.5397  1.6582 -1.5776
  870SOL    HW2 2610   1.700   1.774   1.103 -0.1607 -0.2620  0.1356
  871SOL     OW 2611   0.078   1.843   1.680 -0.2156 -0.5389  0.1195
  871SOL    HW1 2612   0.103   1.749   1.699 -0.3925  2.6188 -1.4610
  871SOL    HW2 2613   0.143   1.907   1.726  1.5714  0.2040  1.0444
  872SOL     OW 2614   0.407   1.443   2.499 -0.0017  0.0649 -0.5360
  872SOL    HW1 2615   0.386   1.545   2.512  0.9923  3.9919  1.0813
  872SOL    HW2 2616   0.324   1.393   2.471  0.8295  2.9220 -2.0393
  873SOL     OW 2617   0.956   2.132   1.672 -0.3903  0.5382 -0.6244
  873SOL    HW1 2618   0.886   2.189   1.714  0.7873 -0.2740 -0.4582
  873SOL    HW2 2619   0.990   2.185   1.592 -0.0868 -1.7460 -2.8978
  874SOL     OW 2620   1.410   0.735   1.915 -0.3863 -0.1975  0.9079
  874SOL    HW1 2621   1.389   0.785   1.996  1.3972 -1.4180 -0.6140
  874SOL    HW2 2622   1.366   0.775   1.832  1.0216 -3.0451  2.7742
  875SOL     OW 2623   2.881   2.766   0.877  0.2235  0.0077  0.1619
  875SOL    HW1 2624   2.821   2.699   0.927 -1.1775  0.3591  0.1051
  875SOL    HW2 2625   2.975   2.732   0.867 -1.4185  1.2614  1.7166
  876SOL     OW 2626   1.123   1.583   0.266  0.7149  0.4145 -0.1840
  876SOL    HW1 2627   1.070   1.517   0.213 -0.0858 -1.0645 -0.6923
  876SOL    HW2 2628   1.075   1.626   0.345 -1.4627  3.8518 -1.1012
  877SOL     OW 2629   2.802   0.102   0.915 -0.0190 -0.6013 -0.5389
  877SOL    HW1 2630   2.808   0.134   0.817  2.0867 -0.8145 -3.3017
  877SOL    HW2 2631   2.806   0.186   0.972 -2.2340 -0.9962 -3.0178
  878SOL     OW 2632   1.998   1.590   0.493  0.6561 -0.3163  0.1761
  878SOL    HW1 2633   1.931   1.654   0.445 -1.6953 -2.1171 -1.9035
  878SOL    HW2 2634   2.096   1.619   0.479 -0.5985  0.6503 -2.4205
  879SOL     OW 2635   2.419   1.825   1.024  0.1060 -0.2102  0.1381
  879SOL    HW1 2636   2.464   1.793   1.111  1.4258 -0.5640  1.7183
  879SOL    HW2 2637   2.422   1.746   0.962  1.0822  1.7292 -0.7593
  880SOL     OW 2638   0.321   2.585   0.829  0.0604  0.0947 -0.5852
  880SOL    HW1 2639   0.308   2.517   0.757  0.2774 -0.0399  0.4727
  880SOL    HW2 2640   0.393   2.650   0.795 -0.1891  0.9187  1.2985
  881SOL     OW 2641   1.084   1.198   0.648 -0.0695  0.3756  0.3294
  881SOL    HW1 2642   1.016   1.148   0.702  0.4640  1.4519 -1.0598
  881SOL    HW2 2643   1.174   1.199   0.693 -2.4001  0.8966 -2.1952
  882SOL     OW 2644   2.231   1.055   0.005  0.0729  0.6563  0.3999
  882SOL    HW1 2645   2.287   1.106   3.056  1.0986 -1.3802 -2.2867
  882SOL    HW2 2646   2.248   1.090   0.102  0.7553  0.4183  1.1267
  883SOL     OW 2647   1.407   3.028   1.678  0.6450  0.6717 -0.0489
  883SOL    HW1 2648   1.337   3.101   1.664  0.1734  0.8140 -3.0720
  883SOL    HW2 2649   1.444   2.991   1.591 -0.7616 -1.5070  0.2060
  884SOL     OW 2650   2.831   3.078   1.248  0.3514  0.0870 -0.2251
  884SOL    HW1 2651   2.922   3.097   1.285 -0.6508 -1.0117  1.0606
  884SOL    HW2 2652   2.845   3.044   1.151 -2.9384 -1.2590 -2.1985
  885SOL     OW 2653   1.209   0.935   1.777 -0.0492  0.2779  0.0593
  885SOL    HW1 2654   1.113   0.940   1.813  3.4762  2.4949  0.3119
  885SOL    HW2 2655   1.228   0.869   1.701  1.2995  2.5843  1.7237
  886SOL     OW 2656   1.475   0.929   2.435 -0.0568 -0.4922 -0.6699
  886SOL    HW1 2657   1.504   1.007   2.375  2.1513  1.4908 -1.2591
  886SOL    HW2 2658   1.537   0.850   2.430 -1.0130 -4.4807 -0.2675
  887SOL     OW 2659   1.521   0.703   1.160  0.0117 -0.0520  0.2298
  887SOL    HW1 2660   1.424   0.681   1.181 -2.0982  0.2346 -0.9635
  887SOL    HW2 2661   1.536   0.799   1.135  3.3540 -1.4026  1.3232
  888SOL     OW 2662   2.177   1.545   2.015 -0.3403 -0.4932  0.2684
  888SOL    HW1 2663   2.200   1.459   1.967 -0.6441 -2.1993 -1.2677
  888SOL    HW2 2664   2.250   1.615   2.008 -3.3594  0.5462 -1.6770
  889SOL     OW 2665   1.869   1.984   0.628  0.0405  0.1307  0.1397
  889SOL    HW1 2666   1.948   2.045   0.645 -1.4503 -2.1572  2.7390
  889SOL    HW2 2667   1.837   1.982   0.531 -1.4258  0.3616  0.9128
  890SOL     OW 2668   1.080   2.116   0.656 -0.7787  0.0593  0.0959
  890SOL    HW1 2669   1.094   2.013   0.632  3.6559 -2.2648 -0.4983
  890SOL    HW2 2670   0.992   2.135   0.700  3.5722  0.2534 -0.5082
  891SOL     OW 2671   2.789   0.696   2.740 -0.4921 -0.2133 -0.4426
  891SOL    HW1 2672   2.791   0.632   2.660  0.2694  0.3755  2.3982
  891SOL    HW2 2673   2.777   0.795   2.707 -1.2401  2.8531  0.2335
  892SOL     OW 2674   0.935   0.673   2.447 -0.4237 -0.6008 -0.0121
  892SOL    HW1 2675   0.862   0.631   2.501  2.3044  0.5404 -1.5250
  892SOL    HW2 2676   1.022   0.656   2.495  0.3128 -2.6651 -3.1674
  893SOL     OW 2677   1.651   0.198   1.278  1.1154  0.1260  0.1686
  893SOL    HW1 2678   1.738   0.146   1.262 -0.7080 -0.6697 -0.8378
  893SOL    HW2 2679   1.576   0.138   1.315  2.7602 -0.0094 -1.3641
  894SOL     OW 2680   2.853   0.188   0.655 -0.5104  0.1387  0.1715
  894SOL    HW1 2681   2.751   0.200   0.637 -0.3828  1.2037  1.0136
  894SOL    HW2 2682   2.899   0.182   0.563  1.7863 -0.1755  1.6557
  895SOL     OW 2683   2.154   2.675   2.917 -0.3568 -0.5031  0.2160
  895SOL    HW1 2684   2.057   2.658   2.934  1.3957  1.2612  1.3286
  895SOL    HW2 2685   2.206   2.632   2.995  0.8577 -1.5835  0.7560
  896SOL     OW 2686   1.811   0.066   1.567  0.3935  0.0782 -0.1797
  896SOL    HW1 2687   1.736   0.121   1.609  0.1236  2.0105 -2.4720
  896SOL    HW2 2688   1.803   0.050   1.465  0.4632  0.0271 -1.7044
  897SOL     OW 2689   0.213   2.050   1.793  0.3707  0.3266  0.4590
  897SOL    HW1 2690   0.208   2.131   1.732 -2.0546 -0.6396  0.1646
  897SOL    HW2 2691   0.299   2.061   1.848 -1.0430 -1.5481  0.5365
  898SOL     OW 2692   2.388   1.724   2.023 -0.3830  0.3270 -0.1643
  898SOL    HW1 2693   2.475   1.722   1.977 -3.1017  0.8995  1.7304
  898SOL    HW2 2694   2.330   1.801   1.994  1.4885  0.6692  0.0606
  899SOL     OW 2695   1.570   2.276   0.868 -0.0813  0.0042  0.8514
  899SOL    HW1 2696   1.663   2.274   0.905 -2.9583  3.3473  0.3919
  899SOL    HW2 2697   1.550   2.182   0.830 -5.0588  0.0248 -1.2526
  900SOL     OW 2698   0.848   3.111   3.024 -0.2509  0.6298  0.1710
  900SOL    HW1 2699   0.783   3.035   3.002  1.7179 -1.3408 -1.0735
  900SOL    HW2 2700   0.921   3.100   2.954  2.0856 -2.2762  0.8805
  901SOL     OW 2701   1.229   1.773   2.590 -0.5524 -0.2731  0.4575
  901SOL    HW1 2702   1.330   1.792   2.596  0.1786 -0.3801 -0.2321
  901SOL    HW2 2703   1.186   1.812   2.507  0.1382  0.7547  0.6239
  902SOL     OW 2704   0.093   0.395   2.704 -0.1352 -0.2367 -0.3057
  902SOL    HW1 2705   0.007   0.410   2.759 -0.3319 -0.7536  1.5725
  902SOL    HW2 2706   0.085   0.314   2.647  0.9092  2.2437 -2.2839
  903SOL     OW 2707   2.075   0.457   2.395 -0.4561 -0.1482 -0.0540
  903SOL    HW1 2708   2.137   0.467   2.478 -0.3006  0.7223  0.3898
  903SOL    HW2 2709   2.121   0.447   2.306  1.1509 -0.1768  3.4778
  904SOL     OW 2710   1.437   0.586   2.325 -0.3929 -0.1898 -0.0543
  904SOL    HW1 2711   1.539   0.616   2.333  2.7938  1.3828  1.2591
  904SOL    HW2 2712   1.425   0.507   2.392 -0.4500 -2.5898 -1.1976
  905SOL     OW 2713   2.043   2.590   1.838 -0.2970 -0.1321 -0.4691
  905SOL    HW1 2714   1.988   2.595   1.925  0.1577  1.8511  3.3631
  905SOL    HW2 2715   2.059   2.493   1.804  0.3829 -3.0491  0.1101
  906SOL     OW 2716   1.792   2.056   0.380 -0.4331  0.2095 -0.4410
  906SOL    HW1 2717   1.877   2.044   0.329 -1.1257  1.2014 -1.7293
  906SOL    HW2 2718   1.739   2.139   0.349  0.3918  2.9936  0.5379
  907SOL     OW 2719   1.207   2.975   1.187 -0.0113 -0.2790  0.1731
  907SOL    HW1 2720   1.124   3.017   1.223  0.4703  1.6570 -0.8128
  907SOL    HW2 2721   1.188   2.917   1.109 -0.4750 -1.1141  2.2947
  908SOL     OW 2722   1.811   2.188   2.449 -0.0789  0.0531  0.0866
  908SOL    HW1 2723   1.861   2.274   2.464  1.6609 -2.5594 -1.4335
  908SOL    HW2 2724   1.741   2.207   2.374 -2.6760  0.6062 -2.5248
  909SOL     OW 2725   2.135   0.168   1.929  0.3162  0.6585  0.0569
  909SOL    HW1 2726   2.202   0.137   2.001 -0.4450 -0.1132  2.0677
  909SOL    HW2 2727   2.043   0.194   1.971  0.6518  1.4369  1.6438
  910SOL     OW 2728   0.925   0.872   2.863 -0.5816 -0.0540 -0.1977
  910SOL    HW1 2729   0.979   0.798   2.906 -1.8574  0.1700 -0.2142
  910SOL    HW2 2730   0.985   0.936   2.810  2.0183 -0.9304 -0.7131
  911SOL     OW 2731   0.079   0.907   3.115  0.0115 -0.0296 -0.0052
  911SOL    HW1 2732   0.115   0.987   3.063  1.9523  1.0249 -1.5209
  911SOL    HW2 2733   0.023   0.941   0.077  0.6491 -1.1959  0.3228
  912SOL     OW 2734   0.366   2.228   0.415 -0.3937  0.0256 -0.5029
  912SOL    HW1 2735   0.281   2.182   0.436 -0.2937  1.5904 -1.2818
  912SOL    HW2 2736   0.398   2.267   0.505  0.0032 -2.8020 -0.1482
  913SOL     OW 2737   2.776   2.253   2.221  0.1254 -0.5469 -0.1265
  913SOL    HW1 2738   2.837   2.262   2.304 -1.8371  0.7116  0.0135
  913SOL    HW2 2739   2.832   2.248   2.135 -1.3446 -2.0601 -1.4114
  914SOL     OW 2740   1.307   1.956   1.466  1.0436 -0.1408 -0.4188
  914SOL    HW1 2741   1.255   2.024   1.404 -1.8100  2.5291 -1.4887
  914SOL    HW2 2742   1.266   1.864   1.460 -1.5912  1.0622 -0.9369
  915SOL     OW 2743   0.626   2.865   1.993 -0.6239 -0.4249 -0.3157
  915SOL    HW1 2744   0.601   2.963   1.972  0.4477 -0.5090  1.9637
  915SOL    HW2 2745   0.604   2.836   2.089 -0.1868 -0.5833 -1.0153
  916SOL     OW 2746   0.827   0.726   1.620 -0.1492 -0.0731  0.0888
  916SOL    HW1 2747   0.894   0.667   1.570 -0.0512  1.2949  2.0495
  916SOL    HW2 2748   0.807   0.690   1.714 -0.3986 -0.3696  1.0230
  917SOL     OW 2749   2.698   0.742   0.471 -0.2725  0.3289 -0.4377
  917SOL    HW1 2750   2.790   0.697   0.458  1.8454  1.1147  0.0465
  917SOL    HW2 2751   2.623   0.696   0.422  1.0317  1.7415 -0.5434
  918SOL     OW 2752   1.734   2.268   2.880  0.1913 -0.1055  0.0455
  918SOL    HW1 2753   1.831   2.278   2.850 -0.0713 -1.4022 -1.4937
  918SOL    HW2 2754   1.734   2.286   2.982  0.6990 -0.1333 -0.7506
  919SOL     OW 2755   1.522   2.432   1.449  0.4774 -0.4731 -0.1558
  919SOL    HW1 2756   1.485   2.460   1.359  0.5838  2.3449  0.0078
  919SOL    HW2 2757   1.605   2.484   1.468 -0.7342  0.4965 -1.7205
  920SOL     OW 2758   0.771   0.562   2.692  0.8632 -0.3268  0.0367
  920SOL    HW1 2759   0.837   0.495   2.722 -0.1473 -0.8141 -2.3207
  920SOL    HW2 2760   0.754   0.637   2.757 -2.2864  1.8139  1.3739
  921SOL     OW 2761   0.002   0.760   2.910  0.0672 -0.0887 -0.1219
  921SOL    HW1 2762   3.062   0.684   2.934  3.4338  1.2721  0.6448
  921SOL    HW2 2763   0.027   0.812   2.996  0.8205 -1.9536  0.9610
  922SOL     OW 2764   0.189   2.093   1.153 -0.0041  0.7560  0.1377
  922SOL    HW1 2765   0.205   1.996   1.127  1.0785  1.0213  1.1662
  922SOL    HW2 2766   0.266   2.147   1.118 -0.1074 -2.8073 -0.8931
  923SOL     OW 2767   0.695   1.516   1.662 -0.6787 -0.2562  0.2540
  923SOL    HW1 2768   0.739   1.476   1.577 -0.0511 -1.1728 -1.3349
  923SOL    HW2 2769   0.738   1.486   1.750  0.0427  2.9485  0.2241
  924SOL     OW 2770   1.607   2.657   2.900  0.1038 -0.0505  0.2954
  924SOL    HW1 2771   1.594   2.568   2.851  1.0238 -0.6888  0.0155
  924SOL    HW2 2772   1.553   2.667   2.986 -0.3286 -1.5508  0.1013
  925SOL     OW 2773   2.702   1.366   0.948  0.6236 -0.3228  0.0148
  925SOL    HW1 2774   2.706   1.267   0.942 -1.1131 -0.9567 -1.5502
  925SOL    HW2 2775   2.693   1.393   1.047 -1.5983 -0.3966  2.0386
  926SOL     OW 2776   1.967   0.632   1.394 -0.0776  0.1044  0.4949
  926SOL    HW1 2777   2.067   0.625   1.379 -0.1904 -0.6426 -1.7498
  926SOL    HW2 2778   1.927   0.560   1.326  0.0205 -0.1444 -3.6598
  927SOL     OW 2779   1.914   0.069   1.283 -0.4396  0.8087  0.0744
  927SOL    HW1 2780   1.973   0.157   1.288 -0.5365  2.5252 -1.0008
  927SOL    HW2 2781   1.957   3.104   1.330 -1.2302 -0.9278  4.8574
  928SOL     OW 2782   0.261   0.970   2.115  0.2221  0.0862  0.5090
  928SOL    HW1 2783   0.301   1.063   2.117  0.1180  2.3742  2.5427
  928SOL    HW2 2784   0.298   0.924   2.197  0.8728  0.8941  1.1860
  929SOL     OW 2785   2.386   0.801   1.361  0.2334 -0.2310 -0.1265
  929SOL    HW1 2786   2.313   0.866   1.378  0.3201 -0.9749 -2.0482
  929SOL    HW2 2787   2.449   0.826   1.285  0.9315  0.6720 -0.7144
  930SOL     OW 2788   3.064   2.567   2.201 -0.0733 -0.0130 -0.2501
  930SOL    HW1 2789   3.049   2.626   2.284 -0.5506  2.8009  1.3944
  930SOL    HW2 2790   0.035   2.519   2.212 -0.5085 -1.5581 -0.8591
  931SOL     OW 2791   1.567   0.997   1.199  0.4606  0.3011  0.6356
  931SOL    HW1 2792   1.640   1.009   1.268  2.7367 -2.5049  0.5145
  931SOL    HW2 2793   1.574   1.068   1.124  1.2055  1.5300 -2.2344
  932SOL     OW 2794   0.401   1.269   1.710 -0.1840 -0.4621 -0.2169
  932SOL    HW1 2795   0.299   1.283   1.724  0.5446  3.1761 -0.9685
  932SOL    HW2 2796   0.414   1.262   1.612 -0.0569  0.7453  1.1135
  933SOL     OW 2797   2.375   1.772   1.636  0.8675  0.3400 -0.0320
  933SOL    HW1 2798   2.416   1.851   1.590 -0.7676 -0.5354 -0.1917
  933SOL    HW2 2799   2.317   1.706   1.580  0.6427 -1.1960  0.2475
  934SOL     OW 2800   0.657   2.033   1.861 -0.4515  0.1580 -0.1663
  934SOL    HW1 2801   0.679   1.943   1.806 -0.5914 -1.9734 -2.1546
  934SOL    HW2 2802   0.694   2.113   1.809  2.6676 -2.3170 -1.0261
  935SOL     OW 2803   2.630   1.416   1.213  0.2747 -0.0073  0.2540
  935SOL    HW1 2804   2.538   1.428   1.242  3.5626 -0.5560 -0.6744
  935SOL    HW2 2805   2.694   1.418   1.293 -2.0021  0.0239 -0.8891
  936SOL     OW 2806   2.767   1.423   1.448  0.2558  0.1758  0.4710
  936SOL    HW1 2807   2.773   1.347   1.515 -1.2119  5.2335  0.7146
  936SOL    HW2 2808   2.836   1.494   1.475  0.8377  1.8134 -0.9700
  937SOL     OW 2809   1.812   0.423   1.285  0.7367 -0.6599  0.0738
  937SOL    HW1 2810   1.902   0.389   1.257 -1.1596 -0.8758  1.6546
  937SOL    HW2 2811   1.742   0.350   1.276 -4.7242  0.5605 -0.3641
  938SOL     OW 2812   0.487   2.964   0.153 -0.0073 -0.0372  0.4044
  938SOL    HW1 2813   0.432   2.995   0.234 -2.5468  1.9522  0.6260
  938SOL    HW2 2814   0.423   2.941   0.074 -2.5073  0.9250 -2.6750
  939SOL     OW 2815   2.930   2.213   2.440  0.2637 -0.0895 -0.0339
  939SOL    HW1 2816   3.014   2.219   2.379 -0.9046  3.3434  0.1598
  939SOL    HW2 2817   2.904   2.116   2.451  1.8211 -0.6964 -0.7202
  940SOL     OW 2818   1.522   1.994   0.449 -0.0349 -0.2323 -0.0004
  940SOL    HW1 2819   1.479   2.018   0.361 -0.3871 -0.7280 -2.5231
  940SOL    HW2 2820   1.624   2.011   0.450  1.0595  2.0960  0.3518
  941SOL     OW 2821   2.300   2.605   0.026  0.1307  0.2770  0.3803
  941SOL    HW1 2822   2.288   2.513   0.070 -0.5687  3.0633  1.3388
  941SOL    HW2 2823   2.343   2.676   0.081  0.0682 -2.2864  1.7668
  942SOL     OW 2824   1.847   2.428   1.217 -0.5161 -0.1490 -0.3993
  942SOL    HW1 2825   1.767   2.493   1.200  2.1744 -0.1369 -1.6354
  942SOL    HW2 2826   1.912   2.474   1.281 -1.3541  0.8743  2.6884
  943SOL     OW 2827   2.424   0.893   1.704 -0.9463 -0.0057  0.0860
  943SOL    HW1 2828   2.445   0.976   1.647  0.7101  1.3457  3.7317
  943SOL    HW2 2829   2.507   0.838   1.723 -2.4323  2.3246  1.8924
  944SOL     OW 2830   1.271   0.764   2.184  0.0283 -0.2198  0.2402
  944SOL    HW1 2831   1.305   0.693   2.248 -2.1843  0.4584  1.0319
  944SOL    HW2 2832   1.173   0.744   2.151  2.5941  0.6816  0.4139
  945SOL     OW 2833   2.444   2.349   1.403 -0.3683 -0.4576 -0.3100
  945SOL    HW1 2834   2.537   2.300   1.402 -1.1949 -1.8969 -2.0660
  945SOL    HW2 2835   2.456   2.428   1.471  1.8076  0.9862 -0.1182
  946SOL     OW 2836   0.632   0.740   0.462 -0.3393  0.6351 -0.5690
  946SOL    HW1 2837   0.559   0.809   0.444  1.5151  0.8233  0.0842
  946SOL    HW2 2838   0.630   0.711   0.560  2.1047 -0.4344  0.0778
  947SOL     OW 2839   1.875   2.923   1.609 -0.1930 -0.1459 -0.8760
  947SOL    HW1 2840   1.808   2.881   1.668 -1.0731  2.5690  1.6979
  947SOL    HW2 2841   1.883   3.022   1.632  0.4293 -2.6232  0.6132
  948SOL     OW 2842   0.185   1.792   0.806 -0.4110 -0.2418 -0.5166
  948SOL    HW1 2843   0.221   1.794   0.710  0.4217  1.9816  0.8082
  948SOL    HW2 2844   0.129   1.710   0.824 -0.0674  0.1897 -2.2384
  949SOL     OW 2845   1.327   1.128   1.534  0.6152 -0.3230  0.2518
  949SOL    HW1 2846   1.335   1.084   1.444 -0.7136 -0.9782  0.3896
  949SOL    HW2 2847   1.254   1.093   1.595  0.5391  0.7933  0.7061
  950SOL     OW 2848   0.349   1.067   1.105 -0.2673 -0.6364  0.5298
  950SOL    HW1 2849   0.428   1.008   1.083  0.1499 -1.0796  0.5468
  950SOL    HW2 2850   0.271   1.017   1.147  0.6323  0.0018  1.1380
  951SOL     OW 2851   0.546   2.176   2.373 -0.7248  0.0633  0.3788
  951SOL    HW1 2852   0.522   2.185   2.472 -2.4569  2.1169  1.3313
  951SOL    HW2 2853   0.525   2.079   2.337  0.6377 -2.6809 -0.3871
  952SOL     OW 2854   1.441   1.378   3.116 -0.4929 -0.0769 -0.2981
  952SOL    HW1 2855   1.410   1.441   0.073  3.0729  2.3053  2.2727
  952SOL    HW2 2856   1.437   1.431   3.030 -1.9556  1.0852 -0.7175
  953SOL     OW 2857   1.119   0.386   0.041 -0.2880  1.0068 -0.0732
  953SOL    HW1 2858   1.197   0.347   3.104  0.1485 -0.1846  1.5198
  953SOL    HW2 2859   1.033   0.334   0.015  0.6159 -0.4444 -2.6842
  954SOL     OW 2860   2.018   1.374   0.235  0.3093 -0.1532  0.0062
  954SOL    HW1 2861   1.983   1.279   0.241 -2.2484  2.0232  2.5398
  954SOL    HW2 2862   2.018   1.426   0.325 -2.2995  0.8471  0.9487
  955SOL     OW 2863   3.115   2.973   0.267  0.3018  0.6151  0.6636
  955SOL    HW1 2864   3.048   2.994   0.192 -3.0230  1.8563  1.4673
  955SOL    HW2 2865   0.059   2.898   0.238 -1.1039 -1.8415  1.9645
  956SOL     OW 2866   1.204   0.819   1.389  0.0121 -0.0215 -0.7031
  956SOL    HW1 2867   1.215   0.911   1.347 -0.4604  1.7135  1.2005
  956SOL    HW2 2868   1.229   0.754   1.316  0.8100  0.5042  3.8751
  957SOL     OW 2869   1.036   1.314   1.141  0.1976 -0.0206 -0.0991
  957SOL    HW1 2870   1.044   1.233   1.210  2.2273 -0.3316  2.2381
  957SOL    HW2 2871   0.936   1.327   1.113  0.8054  0.2042  0.2071
  958SOL     OW 2872   0.502   1.877   0.840  0.1918 -0.2656  0.4765
  958SOL    HW1 2873   0.500   1.912   0.933 -1.6528  0.6489 -1.3680
  958SOL    HW2 2874   0.522   1.946   0.767  0.8446  0.5848 -2.2348
  959SOL     OW 2875   1.453   1.481   0.929  0.1190 -0.1019 -0.3854
  959SOL    HW1 2876   1.401   1.524   0.857  1.0043 -0.3281 -0.8773
  959SOL    HW2 2877   1.394   1.456   1.006 -0.3477  0.4053 -0.4533
  960SOL     OW 2878   0.045   1.205   2.734 -0.6297 -0.1130 -0.3053
  960SOL    HW1 2879   0.123   1.170   2.675 -0.3905 -0.1151  2.1495
  960SOL    HW2 2880   3.099   1.125   2.731  2.5527 -1.2779  3.1953
  961SOL     OW 2881   0.524   1.488   1.021  0.8163  0.6535  0.1151
  961SOL    HW1 2882   0.434   1.441   1.038  1.6481  0.0376 -3.1362
  961SOL    HW2 2883   0.530   1.529   0.927  0.9927  0.9800  0.1814
  962SOL     OW 2884   0.875   1.138   0.464 -0.4832 -0.4575 -0.3555
  962SOL    HW1 2885   0.932   1.198   0.519  0.5989  0.8271 -0.3017
  962SOL    HW2 2886   0.779   1.132   0.501 -3.2473 -2.7967  1.9777
  963SOL     OW 2887   1.493   1.813   2.565 -0.0207  0.1987  0.0481
  963SOL    HW1 2888   1.499   1.913   2.569 -0.6694 -2.1661 -0.3618
  963SOL    HW2 2889   1.573   1.758   2.597 -2.0906 -1.1781 -0.5282
  964SOL     OW 2890   0.257   2.542   3.005  1.0080  0.2198 -0.1050
  964SOL    HW1 2891   0.310   2.467   3.043 -2.0636 -0.3393 -2.2684
  964SOL    HW2 2892   0.284   2.560   2.909 -0.7237 -0.6492  1.2110
  965SOL     OW 2893   0.662   2.482   0.292 -0.9788 -0.2753 -0.3924
  965SOL    HW1 2894   0.589   2.545   0.327  3.7272  3.7113 -0.3843
  965SOL    HW2 2895   0.734   2.468   0.364  1.2936  0.3235  1.1058
  966SOL     OW 2896   3.024   1.595   2.810 -0.6654 -0.0387 -0.1552
  966SOL    HW1 2897   3.114   1.567   2.767  0.3162 -1.1263 -1.7795
  966SOL    HW2 2898   3.022   1.696   2.826  1.4412 -1.8362 -1.0320
  967SOL     OW 2899   2.381   3.059   2.837 -0.5323 -0.5966 -0.2634
  967SOL    HW1 2900   2.312   2.990   2.797 -2.0816  0.7588  0.8517
  967SOL    HW2 2901   2.333   0.030   2.841 -2.4802 -2.6616 -2.6596
  968SOL     OW 2902   2.239   3.028   0.432 -0.5915  0.1280 -0.3691
  968SOL    HW1 2903   2.243   3.027   0.536  1.2276 -0.6267  1.8515
  968SOL    HW2 2904   2.328   3.050   0.389 -1.3537 -0.3228  0.0229
  969SOL     OW 2905   0.387   1.548   2.154 -0.6295 -0.3745  0.3043
  969SOL    HW1 2906   0.454   1.521   2.226  0.6445  2.7776  0.7715
  969SOL    HW2 2907   0.405   1.498   2.069 -0.3803  1.3284 -0.1270
  970SOL     OW 2908   1.312   1.548   0.727  0.7073  0.6533  0.0697
  970SOL    HW1 2909   1.364   1.624   0.682  0.6961  2.0222  1.0430
  970SOL    HW2 2910   1.264   1.488   0.658 -0.9246  0.0055 -1.9642
  971SOL     OW 2911   2.405   0.225   1.235  0.2496  0.5187  0.4789
  971SOL    HW1 2912   2.367   0.273   1.316 -1.0096  1.4882  1.0574
  971SOL    HW2 2913   2.397   0.275   1.148 -0.8831 -1.8102 -0.5947
  972SOL     OW 2914   0.194   2.943   1.699  0.6724  0.4981 -0.3063
  972SOL    HW1 2915   0.214   2.844   1.727 -0.9229 -1.1131  1.5282
  972SOL    HW2 2916   0.273   3.006   1.708 -1.2495 -1.1044  0.8822
  973SOL     OW 2917   0.685   0.254   2.582  0.1667 -0.5305  0.4520
  973SOL    HW1 2918   0.663   0.288   2.489  2.4264  0.6667  1.0339
  973SOL    HW2 2919   0.630   0.302   2.653  0.6498 -1.7853 -0.0614
  974SOL     OW 2920   2.210   1.302   1.876 -0.0770  0.2295 -0.0482
  974SOL    HW1 2921   2.142   1.274   1.802 -0.5218  0.1710 -1.9103
  974SOL    HW2 2922   2.201   1.242   1.960  1.5979 -0.4313 -0.8115
  975SOL     OW 2923   0.382   0.317   1.357  0.0747 -0.1429 -0.2805
  975SOL    HW1 2924   0.430   0.229   1.368 -0.2239  0.3020  0.3499
  975SOL    HW2 2925   0.328   0.313   1.271 -0.4877  0.6685 -2.3168
  976SOL     OW 2926   0.938   2.093   2.338  0.0497 -0.0295  0.2910
  976SOL    HW1 2927   0.899   2.147   2.412 -0.6374  2.1260  0.1001
  976SOL    HW2 2928   0.868   2.071   2.266 -1.4419  2.4405  0.2579
  977SOL     OW 2929   0.772   2.698   0.881  0.6605  0.3923  0.1088
  977SOL    HW1 2930   0.831   2.720   0.961 -0.6505  0.2720 -0.9873
  977SOL    HW2 2931   0.821   2.641   0.814 -1.4516 -0.0054 -2.4843
  978SOL     OW 2932   2.991   1.213   2.014 -0.3671  0.4799  0.8925
  978SOL    HW1 2933   2.905   1.167   2.041  2.3701  1.1778 -2.3046
  978SOL    HW2 2934   3.004   1.289   2.077  0.8100 -0.8152 -1.0763
  979SOL     OW 2935   1.739   2.736   1.788  0.3039  0.2055 -0.2044
  979SOL    HW1 2936   1.723   2.661   1.724 -1.9436  1.9562 -1.7575
  979SOL    HW2 2937   1.691   2.711   1.879 -0.8764  1.4026  1.0977
  980SOL     OW 2938   1.408   1.646   2.357 -0.2680  0.1269 -0.2548
  980SOL    HW1 2939   1.308   1.635   2.357 -0.7518 -0.3892 -0.0320
  980SOL    HW2 2940   1.444   1.693   2.441 -1.4099  0.2713  1.3242
  981SOL     OW 2941   2.384   0.569   1.581  0.3408  0.0181  0.1629
  981SOL    HW1 2942   2.342   0.521   1.658 -1.1219 -3.1200 -0.5090
  981SOL    HW2 2943   2.404   0.669   1.602  1.9447  3.3751  1.3190
  982SOL     OW 2944   0.380   0.172   2.696  0.4458  0.8412 -0.1484
  982SOL    HW1 2945   0.394   0.098   2.764  0.0138 -1.6028  1.3321
  982SOL    HW2 2946   0.440   0.253   2.713 -0.1682  1.4846 -0.9255
  983SOL     OW 2947   2.427   0.626   2.387 -0.2438 -0.8369 -0.3365
  983SOL    HW1 2948   2.372   0.659   2.468 -0.6518 -1.7039 -0.1061
  983SOL    HW2 2949   2.502   0.565   2.412 -1.8175  2.4552 -2.0209
  984SOL     OW 2950   1.214   3.039   2.072 -0.2925  0.0335 -0.8268
  984SOL    HW1 2951   1.303   2.994   2.084 -0.1128 -0.8928 -2.1296
  984SOL    HW2 2952   1.135   2.975   2.091  1.2175  0.1838 -0.3281
  985SOL     OW 2953   1.938   1.581   1.851 -0.1796  0.0101  0.7178
  985SOL    HW1 2954   1.865   1.639   1.889 -0.6377 -2.4975 -0.9199
  985SOL    HW2 2955   2.017   1.588   1.912 -0.6185 -1.5022 -0.4412
  986SOL     OW 2956   2.620   0.631   1.319 -0.0331 -0.3737 -0.0972
  986SOL    HW1 2957   2.683   0.674   1.251 -0.3229 -0.3160  1.9503
  986SOL    HW2 2958   2.543   0.689   1.352 -0.3403  1.2389  1.5979
  987SOL     OW 2959   2.630   1.141   1.245 -0.1197  0.3176 -0.0373
  987SOL    HW1 2960   2.625   1.231   1.199  1.6570  0.5129 -3.6185
  987SOL    HW2 2961   2.560   1.078   1.200 -3.6823 -0.1305 -1.7221
  988SOL     OW 2962   0.017   0.995   1.967 -0.0102  0.3238  0.4662
  988SOL    HW1 2963   3.067   1.063   1.995  2.1411 -3.7970 -0.8543
  988SOL    HW2 2964   0.103   1.004   2.026  1.2767  1.3416  3.4422
  989SOL     OW 2965   1.853   1.753   0.329 -0.5662  0.1441 -0.1608
  989SOL    HW1 2966   1.883   1.848   0.311 -0.7999  0.1479  0.2015
  989SOL    HW2 2967   1.751   1.752   0.337  3.1985 -0.1554 -0.9307
  990SOL     OW 2968   0.917   0.551   2.182 -0.0967 -0.4279  0.3956
  990SOL    HW1 2969   0.927   0.575   2.278 -2.5210 -0.6004  1.3385
  990SOL    HW2 2970   0.978   0.610   2.120 -1.9837  0.5896  0.4483
  991SOL     OW 2971   1.148   1.442   0.548 -0.1558 -0.2044 -0.0170
  991SOL    HW1 2972   1.111   1.351   0.577  0.3222 -1.0742  0.0115
  991SOL    HW2 2973   1.075   1.492   0.501 -0.0068 -1.6256 -0.8613
  992SOL     OW 2974   2.172   1.110   0.527  0.1481 -0.0291  0.3092
  992SOL    HW1 2975   2.268   1.079   0.556  1.6545 -1.3813  1.8166
  992SOL    HW2 2976   2.117   1.025   0.520 -0.7180 -0.1490  1.5851
  993SOL     OW 2977   3.099   0.876   0.766  1.1370  0.8343 -0.3856
  993SOL    HW1 2978   0.000   0.928   0.850  0.3978 -1.8610 -1.6210
  993SOL    HW2 2979   0.060   0.810   0.759  2.7463  0.8595  0.8466
  994SOL     OW 2980   0.399   2.151   2.618 -0.3179  0.6149  0.5503
  994SOL    HW1 2981   0.346   2.114   2.537 -2.4975 -0.4170 -0.5886
  994SOL    HW2 2982   0.334   2.161   2.695  0.7536 -1.6805 -0.4825
  995SOL     OW 2983   1.955   1.105   2.583  0.8297  0.4083 -0.2424
  995SOL    HW1 2984   1.938   1.017   2.536 -1.4078  0.1658  1.2564
  995SOL    HW2 2985   1.873   1.164   2.573 -1.1995  2.0003 -0.2994
  996SOL     OW 2986   2.650   1.222   0.420  0.0701  0.0736  0.2892
  996SOL    HW1 2987   2.592   1.293   0.380 -0.2047  1.2252 -0.0889
  996SOL    HW2 2988   2.612   1.128   0.400  1.9238  0.7429 -2.1811
  997SOL     OW 2989   2.024   1.096   1.822 -0.4814  0.6952  0.3314
  997SOL    HW1 2990   2.073   1.007   1.815  0.0963 -1.3609  0.7388
  997SOL    HW2 2991   2.023   1.126   1.918  4.4091 -0.8375 -0.7032
  998SOL     OW 2992   2.703   2.016   0.257  0.0533 -0.3057 -0.5155
  998SOL    HW1 2993   2.615   2.053   0.223  0.8720  1.6856 -0.7376
  998SOL    HW2 2994   2.705   1.914   0.253  0.6263  1.5207  1.5739
  999SOL     OW 2995   2.981   2.416   0.046 -0.0625  0.2520  0.4250
  999SOL    HW1 2996   2.987   2.316   0.024 -2.0146  2.5538  2.0670
  999SOL    HW2 2997   2.976   2.432   0.141  0.4849 -1.3094 -2.8713
 1000SOL     OW 2998   1.012   1.086   2.206  0.0166 -0.5128  0.1363
 1000SOL    HW1 2999   0.962   1.050   2.282  2.9727  2.9631 -5.3591
 1000SOL    HW2 3000   1.115   1.079   2.215  1.2215  0.3000  2.1355
   3.11803   3.11803   3.11803
