1000 SPC/Fw water molecules t= 314.00000 step= 314000
 3000
    1SOL     OW    1   2.582   0.044   0.881 -0.4290 -0.3356 -0.6272
    1SOL    HW1    2   2.541   3.070   0.870  1.8620  1.7525  0.7581
    1SOL    HW2    3   2.684   0.036   0.901  2.1521  0.9543 -1.3065
    2SOL     OW    4   3.013   2.270   0.896  0.6532 -0.2583  0.0428
    2SOL    HW1    5   2.935   2.224   0.947 -1.6654 -0.2997  1.7258
    2SOL    HW2    6   3.017   2.235   0.800  0.4725 -1.7169 -0.3672
    3SOL     OW    7   0.718   2.926   2.959  0.1437  0.0782 -0.2883
    3SOL    HW1    8   0.773   2.843   2.979 -1.0358 -0.3684  1.3284
    3SOL    HW2    9   0.652   2.902   2.887  2.7468 -0.2298 -0.6412
    4SOL     OW   10   2.112   2.393   1.971 -0.0356  0.0662 -0.1237
    4SOL    HW1   11   2.008   2.382   1.982 -0.4505  0.3324 -1.3045
    4SOL    HW2   12   2.163   2.305   1.976  0.7154  0.4592  2.1162
    5SOL     OW   13   1.657   0.759   1.380 -0.5401 -0.1822 -0.0236
    5SOL    HW1   14   1.705   0.839   1.335 -0.8415  2.7151  0.7140
    5SOL    HW2   15   1.564   0.740   1.340  1.0887 -0.1200 -1.9500
    6SOL     OW   16   1.820   2.692   0.345 -0.3894  0.7664 -0.0001
    6SOL    HW1   17   1.798   2.783   0.311 -0.7000 -4.0756  0.9575
    6SOL    HW2   18   1.747   2.671   0.409  0.1650 -2.6471 -1.0464
    7SOL     OW   19   2.665   1.577   1.263  0.0600 -0.8229 -0.2875
    7SOL    HW1   20   2.737   1.598   1.195 -1.5777 -2.3381  3.6300
    7SOL    HW2   21   2.701   1.537   1.346 -0.6240  0.3084 -1.0251
    8SOL     OW   22   1.518   2.238   1.253 -0.6068  0.7236  0.6357
    8SOL    HW1   23   1.474   2.177   1.182  0.2743  0.1104 -0.9830
    8SOL    HW2   24   1.486   2.336   1.242 -0.8661  1.0511  0.1542
    9SOL     OW   25   1.467   2.775   2.299 -0.6131  0.3292 -0.4611
    9SOL    HW1   26   1.376   2.782   2.342 -1.3544 -1.5064 -0.3008
    9SOL    HW2   27   1.462   2.809   2.200 -0.2510  0.8007 -2.1044
   10SOL     OW   28   0.704   1.932   1.239 -0.0303  0.2801 -0.1925
   10SOL    HW1   29   0.797   1.950   1.200  1.4910 -1.0693 -0.8319
   10SOL    HW2   30   0.637   2.012   1.235 -1.1195 -1.2467  0.6209
   11SOL     OW   31   1.892   1.664   1.235  0.2853 -0.0839 -0.3186
   11SOL    HW1   32   1.979   1.683   1.289  1.6401  1.1757  2.6044
   11SOL    HW2   33   1.910   1.689   1.143 -0.3033 -1.3996  2.7437
   12SOL     OW   34   2.548   2.555   1.877  0.0111 -0.3127  0.1206
   12SOL    HW1   35   2.623   2.486   1.897  1.2853 -0.7681  0.5545
   12SOL    HW2   36   2.568   2.643   1.933 -2.2882  1.6832  1.8500
   13SOL     OW   37   2.267   0.005   0.474 -1.0346  0.2974 -0.0934
   13SOL    HW1   38   2.265   3.085   0.569 -1.3693 -0.0839  1.9388
   13SOL    HW2   39   2.360   3.105   0.429  0.4580 -1.0579  0.2533
   14SOL     OW   40   1.535   2.066   0.375 -0.1357  0.2816 -0.2859
   14SOL    HW1   41   1.512   1.966   0.386  2.2046 -1.6919  0.3522
   14SOL    HW2   42   1.623   2.078   0.321  3.9182  0.7016  0.1231
   15SOL     OW   43   2.944   2.218   1.979  0.1204  0.3710  1.0195
   15SOL    HW1   44   2.950   2.122   2.016 -1.1929 -0.9649  0.4171
   15SOL    HW2   45   3.027   2.266   2.006 -0.6637 -1.5664  0.7300
   16SOL     OW   46   2.027   2.733   0.537  0.5562 -0.0564  0.3566
   16SOL    HW1   47   1.951   2.736   0.468 -1.2058  0.5482  1.8739
   16SOL    HW2   48   1.997   2.784   0.616  0.5629 -0.1750 -1.4468
   17SOL     OW   49   0.465   0.282   1.256 -0.6776 -0.1059 -0.4922
   17SOL    HW1   50   0.506   0.343   1.326 -1.7705  1.6427  0.1533
   17SOL    HW2   51   0.519   0.297   1.174 -1.8803 -0.2744  2.4019
   18SOL     OW   52   2.214   0.866   0.231 -0.7117 -0.5264  0.1043
   18SOL    HW1   53   2.210   0.806   0.152  0.4412  2.3658  1.3084
   18SOL    HW2   54   2.281   0.941   0.218 -2.0610 -1.5149  1.9997
   19SOL     OW   55   1.807   1.857   0.593 -0.0732  0.4544  0.2812
   19SOL    HW1   56   1.885   1.833   0.654 -2.2917  0.0032  0.2662
   19SOL    HW2   57   1.834   1.910   0.508 -0.1497  0.5020  0.4973
   20SOL     OW   58   2.207   1.931   2.106  0.2751  0.0982  0.2381
   20SOL    HW1   59   2.171   1.926   2.201  0.7903 -0.3796  0.7949
   20SOL    HW2   60   2.237   2.028   2.086  1.0184 -0.2462  0.9108
   21SOL     OW   61   1.976   0.476   0.965 -0.6690 -0.5268  0.0540
   21SOL    HW1   62   1.930   0.437   0.880 -2.6470  0.3740 -0.1366
   21SOL    HW2   63   2.033   0.413   1.016 -1.3086  0.6189  0.5652
   22SOL     OW   64   2.529   0.172   1.499  0.1076  0.6919  0.0217
   22SOL    HW1   65   2.485   0.216   1.417 -0.4858  1.2066 -2.7363
   22SOL    HW2   66   2.485   0.195   1.589  2.4331 -2.8203  1.3190
   23SOL     OW   67   3.090   0.559   2.019 -0.8945 -0.2852 -0.0811
   23SOL    HW1   68   3.024   0.599   1.949 -1.9487 -0.0397 -0.7062
   23SOL    HW2   69   0.009   0.637   2.076  2.3250 -0.2736 -0.1165
   24SOL     OW   70   2.507   2.690   0.417 -0.1096 -0.2566  0.3396
   24SOL    HW1   71   2.434   2.736   0.471  0.9665 -1.3151  2.5219
   24SOL    HW2   72   2.593   2.736   0.437 -1.4345  3.5365 -1.8733
   25SOL     OW   73   1.558   0.014   2.192  0.4841 -0.0012 -0.1890
   25SOL    HW1   74   1.608   3.052   2.235  1.4171  0.8235  0.5018
   25SOL    HW2   75   1.586   0.104   2.232 -2.0936 -1.5565  1.2895
   26SOL     OW   76   1.330   2.206   0.237  0.1195 -0.0009  0.6379
   26SOL    HW1   77   1.408   2.160   0.286  0.2800 -0.3438  0.6910
   26SOL    HW2   78   1.326   2.307   0.265 -0.1976  1.6462  1.3477
   27SOL     OW   79   2.393   1.456   2.793  0.5020 -0.1795 -0.2204
   27SOL    HW1   80   2.302   1.483   2.761  0.0733 -0.8208  2.3955
   27SOL    HW2   81   2.428   1.397   2.720  0.6813  1.2700 -1.4374
   28SOL     OW   82   0.907   1.570   1.464 -0.4660 -0.2677  0.0232
   28SOL    HW1   83   1.003   1.539   1.466 -0.8999  1.1270 -0.1125
   28SOL    HW2   84   0.879   1.581   1.370 -0.0911 -1.4595  3.2428
   29SOL     OW   85   2.758   2.488   1.639  0.2067 -0.6051 -0.1173
   29SOL    HW1   86   2.797   2.564   1.585 -0.6223 -0.8063 -0.3375
   29SOL    HW2   87   2.664   2.513   1.672 -1.6362 -0.8620  0.9030
   30SOL     OW   88   1.234   0.548   1.267  0.3662 -0.7140  0.4196
   30SOL    HW1   89   1.156   0.558   1.200  0.4035 -0.2317 -0.0138
   30SOL    HW2   90   1.283   0.468   1.248 -1.8206 -1.2432  0.5033
   31SOL     OW   91   2.228   2.892   1.990 -0.3574  0.2609  0.1899
   31SOL    HW1   92   2.230   2.802   2.044 -1.3242 -3.5385  1.7155
   31SOL    HW2   93   2.217   2.870   1.890 -0.7010  3.5831 -1.2294
   32SOL     OW   94   1.255   1.480   0.618 -0.0789 -0.0049  0.2251
   32SOL    HW1   95   1.301   1.451   0.708  0.4537 -1.9244 -0.7405
   32SOL    HW2   96   1.210   1.405   0.575  0.3697 -0.5822  1.3736
   33SOL     OW   97   0.348   0.416   2.523  0.0145  0.0225 -0.4610
   33SOL    HW1   98   0.403   0.502   2.545  0.0152  3.3747 -0.3733
   33SOL    HW2   99   0.334   0.391   2.423 -1.0264 -3.6165 -4.6607
   34SOL     OW  100   1.750   2.938   0.542 -0.2016 -0.1755 -0.2051
   34SOL    HW1  101   1.733   2.918   0.641 -0.3582  1.7754 -1.4783
   34SOL    HW2  102   1.826   3.012   0.537 -1.4374  2.0798  1.0398
   35SOL     OW  103   2.118   2.565   1.331 -0.0953 -0.1394  0.5855
   35SOL    HW1  104   2.040   2.624   1.362  0.9007  0.4691  0.4234
   35SOL    HW2  105   2.168   2.518   1.409  0.9575  0.6312  3.8634
   36SOL     OW  106   1.939   2.385   2.836 -0.0699  0.0770  0.3757
   36SOL    HW1  107   2.032   2.395   2.874  4.2433  2.6199  2.4287
   36SOL    HW2  108   1.950   2.357   2.739  1.8533 -1.4547  0.8905
   37SOL     OW  109   1.262   0.426   2.378  0.2234  0.4399  0.8849
   37SOL    HW1  110   1.195   0.472   2.439  0.0206  0.7733 -0.2572
   37SOL    HW2  111   1.315   0.364   2.434 -3.7577  4.3528 -1.1819
   38SOL     OW  112   0.218   0.231   2.705  0.2508  0.3504 -0.3824
   38SOL    HW1  113   0.269   0.288   2.643  0.0620 -2.8696 -0.7687
   38SOL    HW2  114   0.232   0.134   2.675 -0.8633 -3.9453 -0.3230
   39SOL     OW  115   2.609   1.230   1.614  0.1356  0.0856 -0.2629
   39SOL    HW1  116   2.515   1.247   1.656  2.0528  1.9090  0.3622
   39SOL    HW2  117   2.667   1.165   1.664  0.5606  1.0726  0.1948
   40SOL     OW  118   1.252   3.061   0.437 -0.3551 -0.4110 -0.6323
   40SOL    HW1  119   1.204   0.030   0.467  0.2238  0.2571 -0.4530
   40SOL    HW2  120   1.182   3.000   0.394  1.1053  0.0284 -0.8559
   41SOL     OW  121   2.462   1.591   1.031  0.2548 -0.2091  0.3190
   41SOL    HW1  122   2.508   1.572   1.119  0.0907 -1.5851  1.7014
   41SOL    HW2  123   2.522   1.595   0.947  1.1608 -2.9681  1.8331
   42SOL     OW  124   0.859   0.420   1.346 -0.0096  0.8290 -0.0821
   42SOL    HW1  125   0.760   0.424   1.376  2.6871 -0.9203 -0.0843
   42SOL    HW2  126   0.923   0.473   1.400 -2.7453 -0.5918 -1.8700
   43SOL     OW  127   2.976   1.916   2.569 -0.1136  0.2922 -0.7314
   43SOL    HW1  128   2.948   1.865   2.650  1.3309  0.5789  0.5327
   43SOL    HW2  129   3.079   1.916   2.570  2.0070 -0.5958 -0.5491
   44SOL     OW  130   2.417   0.121   1.740 -0.6404 -0.3433  0.0519
   44SOL    HW1  131   2.343   0.092   1.804  0.7711 -2.3452 -1.7000
   44SOL    HW2  132   2.503   0.076   1.773  0.6051 -0.0385  2.6696
   45SOL     OW  133   1.176   0.126   2.028 -0.2335  0.3116  0.3973
   45SOL    HW1  134   1.184   0.222   1.990  0.7758  5.3837  3.0611
   45SOL    HW2  135   1.266   0.099   2.068 -0.5341  0.4078  1.2156
   46SOL     OW  136   1.150   2.938   2.610  0.4594  0.1745 -0.2831
   46SOL    HW1  137   1.052   2.923   2.643 -0.2160 -0.1398 -1.8856
   46SOL    HW2  138   1.200   2.987   2.681  1.2866  0.3599 -4.0021
   47SOL     OW  139   2.029   1.799   0.747  0.2988  0.5285  0.0340
   47SOL    HW1  140   2.022   1.795   0.846  0.3891 -0.6542 -2.6054
   47SOL    HW2  141   2.074   1.719   0.700  2.5660 -1.2341 -0.2500
   48SOL     OW  142   1.108   2.156   0.634 -0.4994  0.0877 -0.0480
   48SOL    HW1  143   1.091   2.143   0.535  1.1623 -1.4297  2.8554
   48SOL    HW2  144   1.099   2.065   0.677 -1.7333  2.1611  1.6195
   49SOL     OW  145   2.296   2.827   2.447  0.2647  0.1972  0.5387
   49SOL    HW1  146   2.277   2.920   2.413  0.8626 -0.4718  1.5086
   49SOL    HW2  147   2.351   2.825   2.530  2.3016 -0.4516 -2.1872
   50SOL     OW  148   1.504   2.900   0.134 -0.1562  0.2944 -0.2785
   50SOL    HW1  149   1.607   2.898   0.148 -0.6651  1.9334  0.1680
   50SOL    HW2  150   1.477   2.999   0.150  1.2074  1.2818  1.2329
   51SOL     OW  151   2.054   0.729   0.991  0.4262 -0.3062  0.1862
   51SOL    HW1  152   2.029   0.631   0.977  0.7348 -1.7019 -2.4415
   51SOL    HW2  153   2.120   0.737   1.065 -2.0436 -0.0085 -2.4327
   52SOL     OW  154   1.244   1.535   1.072  0.1690 -0.5562 -0.1171
   52SOL    HW1  155   1.326   1.471   1.079  2.8659 -1.1321  1.0286
   52SOL    HW2  156   1.249   1.607   1.143  1.8048  0.7701  1.1872
   53SOL     OW  157   0.616   1.678   2.587 -0.2491 -0.5121 -0.0267
   53SOL    HW1  158   0.537   1.622   2.615 -1.0381 -1.5148  0.1383
   53SOL    HW2  159   0.702   1.629   2.618  1.0740 -0.5347 -0.3082
   54SOL     OW  160   2.740   1.033   1.711  0.1951  0.3745  0.3376
   54SOL    HW1  161   2.834   1.037   1.682 -2.9337 -0.0032 -0.2419
   54SOL    HW2  162   2.739   0.972   1.794 -2.1083  1.5102 -1.0108
   55SOL     OW  163   2.670   1.997   0.504 -0.4750 -0.2303 -0.1965
   55SOL    HW1  164   2.570   2.010   0.481 -2.3532  0.2243  0.9412
   55SOL    HW2  165   2.700   1.905   0.477  0.5601  2.0138 -0.3560
   56SOL     OW  166   1.531   0.156   1.583  0.3876  0.1252 -0.3785
   56SOL    HW1  167   1.603   0.090   1.559 -1.9708 -0.2566 -0.4187
   56SOL    HW2  168   1.531   0.175   1.688  0.3752 -0.7464  0.7104
   57SOL     OW  169   1.357   1.442   2.894 -0.3408 -0.0506 -0.0829
   57SOL    HW1  170   1.380   1.478   2.801  3.9289  1.0804 -2.3657
   57SOL    HW2  171   1.431   1.375   2.925  1.6308 -0.1817  1.4271
   58SOL     OW  172   3.075   0.897   1.821 -0.0161  0.3659 -0.1307
   58SOL    HW1  173   0.053   0.857   1.801  2.2767 -3.6015  0.6128
   58SOL    HW2  174   3.040   0.965   1.749  1.2495 -2.3967 -2.0657
   59SOL     OW  175   1.513   2.619   0.158 -0.0066  0.0979  0.7114
   59SOL    HW1  176   1.536   2.554   0.083 -1.4619 -0.8345 -1.5339
   59SOL    HW2  177   1.532   2.719   0.132  3.0506 -0.1230 -1.8292
   60SOL     OW  178   2.939   1.824   0.123  0.0283  0.2108  0.4842
   60SOL    HW1  179   2.930   1.870   0.213  0.7382 -0.0796  0.4586
   60SOL    HW2  180   2.915   1.892   0.049 -1.6555 -0.2073  0.7213
   61SOL     OW  181   0.869   2.772   0.878 -0.0041 -0.1141  0.6404
   61SOL    HW1  182   0.891   2.850   0.813  1.6464  2.6056 -0.6630
   61SOL    HW2  183   0.790   2.724   0.842 -0.6109 -0.8052 -2.5295
   62SOL     OW  184   1.816   1.868   2.570  0.0939  0.1022 -0.9000
   62SOL    HW1  185   1.849   1.789   2.513 -0.8033 -3.1101 -0.8346
   62SOL    HW2  186   1.810   1.951   2.513 -2.6072  0.6921  2.0249
   63SOL     OW  187   2.118   2.463   0.514 -0.0010  0.5499 -0.0373
   63SOL    HW1  188   2.113   2.564   0.508  1.9221 -2.7955 -1.0425
   63SOL    HW2  189   2.200   2.436   0.570 -0.8768 -1.4982  0.5057
   64SOL     OW  190   1.536   0.856   2.606 -0.0194  0.7100 -0.0050
   64SOL    HW1  191   1.530   0.772   2.555  0.0126 -0.2990 -0.7480
   64SOL    HW2  192   1.522   0.840   2.704  0.9639  0.0943 -0.7914
   65SOL     OW  193   1.920   1.669   2.398 -0.2606 -0.0725  0.1896
   65SOL    HW1  194   1.866   1.588   2.426 -0.2418  0.4124 -1.7953
   65SOL    HW2  195   1.996   1.639   2.337  1.7274  1.9019 -0.2679
   66SOL     OW  196   0.359   1.075   1.691  0.1760  0.8105 -0.0941
   66SOL    HW1  197   0.287   1.143   1.692  1.6160 -0.5907 -0.5341
   66SOL    HW2  198   0.373   1.036   1.596  0.6675 -1.6840  1.4338
   67SOL     OW  199   2.401   2.937   2.677  0.5148 -0.7354  0.4440
   67SOL    HW1  200   2.371   2.997   2.756  1.6868  0.8598  0.5816
   67SOL    HW2  201   2.448   2.998   2.605  1.0391  2.0552 -2.8193
   68SOL     OW  202   1.220   2.682   1.160  0.5912  0.0925 -0.6820
   68SOL    HW1  203   1.241   2.774   1.122 -1.9174  1.7564  2.2642
   68SOL    HW2  204   1.220   2.613   1.083 -0.3693  0.7855 -2.9121
   69SOL     OW  205   0.584   2.457   0.126  0.2298  0.0129  0.2601
   69SOL    HW1  206   0.684   2.478   0.144  0.7875 -1.1990  0.2553
   69SOL    HW2  207   0.572   2.424   0.031 -1.1241 -0.6637  2.3562
   70SOL     OW  208   2.947   0.243   2.310 -0.3336 -0.0387 -0.5280
   70SOL    HW1  209   2.972   0.203   2.400 -0.7882 -2.0382 -0.7793
   70SOL    HW2  210   3.026   0.303   2.283 -1.7403 -2.4824 -1.2391
   71SOL     OW  211   0.233   1.334   2.501  0.0380  0.2325 -0.2612
   71SOL    HW1  212   0.169   1.271   2.456  1.3717  1.0268 -1.0687
   71SOL    HW2  213   0.186   1.418   2.531  0.7356 -2.9171 -2.7530
   72SOL     OW  214   2.871   2.051   3.095 -0.0283 -0.2165  0.6260
   72SOL    HW1  215   2.815   2.111   0.036 -0.7147  1.8191  1.0333
   72SOL    HW2  216   2.827   2.033   3.003 -0.9570 -2.5179 -1.9693
   73SOL     OW  217   1.402   1.017   0.336 -0.4716  0.2451 -0.0784
   73SOL    HW1  218   1.431   1.114   0.354  0.3445  2.0142 -2.5427
   73SOL    HW2  219   1.302   1.006   0.326 -3.4611  1.5237  1.8445
   74SOL     OW  220   2.111   2.797   2.909  0.1433 -0.2827 -0.1309
   74SOL    HW1  221   2.163   2.878   2.882 -0.0449 -1.0168  0.9202
   74SOL    HW2  222   2.082   2.795   3.010 -1.3141 -1.1674  1.6066
   75SOL     OW  223   2.204   2.044   1.010 -0.4336  0.4343  0.0497
   75SOL    HW1  224   2.251   1.950   1.022  3.4466  0.9474 -2.8706
   75SOL    HW2  225   2.126   2.043   0.943  1.3892  0.8771 -1.6635
   76SOL     OW  226   2.280   2.557   1.823 -0.5861 -0.2633  0.4156
   76SOL    HW1  227   2.371   2.541   1.866 -0.5852 -0.2350  1.8015
   76SOL    HW2  228   2.207   2.522   1.878  1.6288  0.5898  0.0017
   77SOL     OW  229   2.634   0.084   2.107 -0.0275 -0.6451 -0.0825
   77SOL    HW1  230   2.567   0.147   2.160  0.5686  1.3889  2.2223
   77SOL    HW2  231   2.596   3.108   2.087 -1.1480  1.4636  1.7984
   78SOL     OW  232   1.878   1.003   3.048 -0.3390  0.2576  0.3843
   78SOL    HW1  233   1.879   0.909   3.080  1.2043  1.9981 -0.1102
   78SOL    HW2  234   1.784   1.042   3.052 -1.6764  1.4719  0.0762
   79SOL     OW  235   2.504   1.469   2.451 -0.2989 -0.2414 -0.1429
   79SOL    HW1  236   2.554   1.551   2.488  3.2622  2.2358 -0.7265
   79SOL    HW2  237   2.409   1.503   2.433 -0.8005 -1.0130  0.2456
   80SOL     OW  238   1.984   1.696   1.598  1.0311 -0.1335  0.0261
   80SOL    HW1  239   1.904   1.677   1.657 -0.7360 -1.3540 -0.9433
   80SOL    HW2  240   2.056   1.746   1.648 -0.9713  1.9780  0.2326
   81SOL     OW  241   1.662   0.560   1.554 -0.0508  0.0031  0.0299
   81SOL    HW1  242   1.668   0.630   1.476  0.2317 -0.4697  1.0207
   81SOL    HW2  243   1.564   0.525   1.549 -1.4983  0.1192 -3.8194
   82SOL     OW  244   1.891   2.373   1.424 -0.6019 -0.2144  0.3582
   82SOL    HW1  245   1.909   2.424   1.338  0.4442  0.0236 -0.7104
   82SOL    HW2  246   1.903   2.276   1.412 -0.0786  1.9758 -2.6591
   83SOL     OW  247   2.979   3.069   0.387 -0.5811 -0.2061 -0.2893
   83SOL    HW1  248   2.995   0.033   0.445 -0.0535 -0.6924 -2.4091
   83SOL    HW2  249   2.948   3.107   0.300  1.9210  0.0247  0.1940
   84SOL     OW  250   0.576   1.035   3.094 -0.2395  0.6033  0.6290
   84SOL    HW1  251   0.625   1.033   0.062  1.7603  2.7962  0.1199
   84SOL    HW2  252   0.575   1.133   3.060 -2.6715  0.2935  1.2981
   85SOL     OW  253   2.759   2.057   1.568  0.0132 -0.3957  0.2372
   85SOL    HW1  254   2.832   2.060   1.639  3.0718  1.3348 -1.9766
   85SOL    HW2  255   2.681   2.007   1.607  1.4159  1.7058 -1.8176
   86SOL     OW  256   0.179   2.751   1.349  0.4001  0.6507  0.1950
   86SOL    HW1  257   0.231   2.664   1.351  1.2491  0.4809  1.7785
   86SOL    HW2  258   0.228   2.820   1.294 -2.9436 -1.5634 -2.2919
   87SOL     OW  259   0.399   2.880   2.560 -0.0241 -0.4245 -0.6684
   87SOL    HW1  260   0.369   2.922   2.472 -1.7212  0.3892 -0.2301
   87SOL    HW2  261   0.405   2.777   2.565 -0.7835 -0.9396  3.3354
   88SOL     OW  262   0.481   2.029   0.853  0.8397  0.1523  0.4447
   88SOL    HW1  263   0.574   2.063   0.850  1.7589 -2.0939  1.6425
   88SOL    HW2  264   0.438   2.026   0.761 -0.7419  2.1961 -1.2426
   89SOL     OW  265   0.946   0.779   1.612 -0.2077 -0.1600 -0.1060
   89SOL    HW1  266   1.023   0.841   1.639 -1.9810 -0.8249 -1.8032
   89SOL    HW2  267   0.971   0.699   1.548 -0.4326 -0.9221 -0.6598
   90SOL     OW  268   3.030   1.320   1.579  0.4169 -0.2753  0.2462
   90SOL    HW1  269   0.013   1.326   1.580 -2.9701  0.5789  1.9358
   90SOL    HW2  270   2.991   1.334   1.670  0.6266  0.5769 -0.6566
   91SOL     OW  271   1.155   1.033   1.030  0.9619  0.4018  0.0913
   91SOL    HW1  272   1.056   1.028   1.002 -2.3551  0.0398 -1.0147
   91SOL    HW2  273   1.219   1.011   0.949 -0.2639 -2.0178  0.1506
   92SOL     OW  274   2.376   1.325   0.675 -0.0623  0.1230  0.3767
   92SOL    HW1  275   2.386   1.228   0.700 -0.4914  0.2008  0.6987
   92SOL    HW2  276   2.326   1.370   0.756  0.0115  2.1385  2.5696
   93SOL     OW  277   2.264   0.877   2.585 -0.9423 -0.7197 -0.4128
   93SOL    HW1  278   2.305   0.798   2.540 -0.5792  0.6079 -1.6524
   93SOL    HW2  279   2.167   0.864   2.583  4.4775  0.2400  2.2406
   94SOL     OW  280   2.358   1.875   2.548  0.0636  0.4670  0.4095
   94SOL    HW1  281   2.287   1.837   2.484  2.2273  0.5171 -0.3060
   94SOL    HW2  282   2.324   1.925   2.634  1.6814  1.7374  1.1543
   95SOL     OW  283   2.246   0.749   1.185  0.3861 -0.0314 -0.0221
   95SOL    HW1  284   2.262   0.671   1.250  3.9053 -0.8030  0.0705
   95SOL    HW2  285   2.321   0.758   1.113 -0.7751  1.2897 -0.5573
   96SOL     OW  286   2.647   2.958   1.775  0.4710 -0.6126 -0.6962
   96SOL    HW1  287   2.597   2.957   1.866 -1.3923 -1.5994  0.9417
   96SOL    HW2  288   2.617   2.877   1.720  1.0788  0.2608  0.3955
   97SOL     OW  289   2.589   0.873   1.234  0.0842  0.6498  0.4881
   97SOL    HW1  290   2.638   0.958   1.218 -2.3932 -1.3081  2.1002
   97SOL    HW2  291   2.560   0.887   1.330 -1.5389  0.4866  1.6282
   98SOL     OW  292   1.515   1.897   1.504  0.5067  0.0200 -0.8385
   98SOL    HW1  293   1.454   1.891   1.583  0.6754  1.2576  0.4173
   98SOL    HW2  294   1.552   1.992   1.503 -0.3094  0.7618 -2.5581
   99SOL     OW  295   3.068   2.465   1.615  0.4729  0.1545  0.0415
   99SOL    HW1  296   2.966   2.471   1.636 -0.4263  1.5134  0.8770
   99SOL    HW2  297   0.013   2.540   1.645  3.1789 -1.4196 -1.3964
  100SOL     OW  298   1.151   0.777   3.024  0.1749 -0.1266  0.4289
  100SOL    HW1  299   1.106   0.787   2.929  0.2222 -0.6585 -1.4450
  100SOL    HW2  300   1.200   0.861   3.053  1.3042  1.9015 -1.3314
  101SOL     OW  301   2.078   0.085   2.843 -0.4058  0.2198 -0.4268
  101SOL    HW1  302   2.028   0.013   2.797  0.2291  3.6758  0.1441
  101SOL    HW2  303   2.035   0.177   2.826  1.8793  1.5211  3.4022
  102SOL     OW  304   0.524   0.630   1.711 -0.3038 -0.2359  0.0952
  102SOL    HW1  305   0.577   0.712   1.671  2.2438  1.1253 -0.7970
  102SOL    HW2  306   0.571   0.604   1.798 -0.3496 -0.8112  1.0200
  103SOL     OW  307   0.197   0.683   2.844 -0.3149 -0.2875  0.1253
  103SOL    HW1  308   0.246   0.772   2.854 -2.3133 -3.4100 -1.5418
  103SOL    HW2  309   0.254   0.607   2.874 -0.1343 -1.6081  1.7164
  104SOL     OW  310   1.044   0.558   2.448 -0.2990 -0.4804  0.4793
  104SOL    HW1  311   0.990   0.636   2.403 -1.7981  3.3178 -0.4890
  104SOL    HW2  312   0.987   0.480   2.485  0.6234 -2.2544 -2.1878
  105SOL     OW  313   2.151   1.911   1.721 -0.1618  0.0839 -0.1479
  105SOL    HW1  314   2.151   1.852   1.804  1.0532  2.8881 -1.8678
  105SOL    HW2  315   2.227   1.980   1.720 -0.3175 -1.7086 -0.3161
  106SOL     OW  316   1.784   0.361   0.792 -0.0265 -0.3554  0.3503
  106SOL    HW1  317   1.684   0.346   0.781  0.2112 -3.9685 -1.6387
  106SOL    HW2  318   1.828   0.374   0.703 -1.1652  0.5199 -0.6804
  107SOL     OW  319   2.771   2.188   1.008  0.2888 -0.3927  0.5666
  107SOL    HW1  320   2.714   2.217   1.087  0.1161 -1.1478  1.7862
  107SOL    HW2  321   2.789   2.091   1.018  1.6752  2.1657  0.3581
  108SOL     OW  322   2.825   2.705   1.463  0.1167 -0.6585  0.1055
  108SOL    HW1  323   2.869   2.778   1.520 -0.7943 -0.2048 -0.9461
  108SOL    HW2  324   2.873   2.702   1.377 -2.2199  1.8571  1.8763
  109SOL     OW  325   2.049   2.928   0.749  0.7981 -0.0422 -0.0779
  109SOL    HW1  326   1.980   2.986   0.801 -1.6844  0.2225  1.1038
  109SOL    HW2  327   2.132   2.985   0.728  1.2432 -1.7791 -0.3395
  110SOL     OW  328   0.658   1.968   2.541  0.1423 -0.1848  0.0931
  110SOL    HW1  329   0.617   1.879   2.568  0.3057 -1.9145  1.6675
  110SOL    HW2  330   0.716   2.001   2.621  1.0495 -0.4147  1.5061
  111SOL     OW  331   1.850   2.358   1.985  0.1751 -0.5435 -0.0415
  111SOL    HW1  332   1.760   2.396   2.020 -3.1737  1.8025  1.1781
  111SOL    HW2  333   1.840   2.334   1.887  0.0311  2.1732 -1.1276
  112SOL     OW  334   1.793   1.832   3.117 -0.3961  0.2318  0.0714
  112SOL    HW1  335   1.887   1.801   0.021 -4.5116 -1.9513  0.3493
  112SOL    HW2  336   1.787   1.859   3.020  0.7806  0.3473  1.2984
  113SOL     OW  337   1.931   2.121   1.405 -0.3033  0.3382  0.1752
  113SOL    HW1  338   2.025   2.113   1.377  1.7663 -0.6933  0.3308
  113SOL    HW2  339   1.880   2.036   1.408 -1.5195  2.1412  2.3772
  114SOL     OW  340   2.892   1.260   0.863 -0.1533  0.7669  0.0644
  114SOL    HW1  341   2.877   1.298   0.769 -2.6509  1.1495  1.1666
  114SOL    HW2  342   2.834   1.178   0.884  1.4253 -4.6705 -0.8376
  115SOL     OW  343   0.697   0.687   3.028 -0.2508  0.3452 -0.4230
  115SOL    HW1  344   0.607   0.719   3.064 -0.6053  2.7957  1.4580
  115SOL    HW2  345   0.684   0.610   2.960  0.3160  0.2274  0.2869
  116SOL     OW  346   2.638   1.726   2.526 -0.3817 -0.5530  0.5381
  116SOL    HW1  347   2.623   1.804   2.463  0.1074 -0.7207  1.4687
  116SOL    HW2  348   2.570   1.726   2.603  1.5740  0.7299 -0.3257
  117SOL     OW  349   0.068   2.853   0.702  0.1344  0.0789  0.2247
  117SOL    HW1  350   0.088   2.753   0.683  1.0875 -0.7340  0.8385
  117SOL    HW2  351   3.104   2.860   0.758 -0.2298  0.6090  0.9398
  118SOL     OW  352   0.978   1.789   2.857  0.1282  0.3224 -0.0914
  118SOL    HW1  353   0.902   1.784   2.926  3.5554  2.6852 -1.3453
  118SOL    HW2  354   1.051   1.727   2.891 -0.9606  0.3943  1.1968
  119SOL     OW  355   0.425   2.221   0.249  0.6718 -0.2000 -0.7758
  119SOL    HW1  356   0.477   2.213   0.161 -1.3265 -0.5651 -0.8507
  119SOL    HW2  357   0.397   2.320   0.269  1.8022  0.1277 -0.9572
  120SOL     OW  358   1.179   0.499   3.054 -0.3331 -0.2735  0.0511
  120SOL    HW1  359   1.250   0.471   0.004 -0.8532  0.1843  0.0387
  120SOL    HW2  360   1.168   0.598   3.045  2.7593 -1.1048 -0.6722
  121SOL     OW  361   1.233   2.542   0.501  0.0879  0.1456  0.1055
  121SOL    HW1  362   1.307   2.509   0.558  0.3781  1.4296 -0.7391
  121SOL    HW2  363   1.249   2.496   0.410  0.8507  0.7933 -0.8908
  122SOL     OW  364   2.448   2.596   1.424  0.1065  0.2127 -0.2604
  122SOL    HW1  365   2.510   2.650   1.484 -2.4285 -1.6444 -2.8242
  122SOL    HW2  366   2.377   2.547   1.482  1.4826  0.4200  0.6710
  123SOL     OW  367   0.762   2.001   0.620  0.3840  0.3603  0.2105
  123SOL    HW1  368   0.810   1.941   0.553  0.0990 -0.1399 -1.2578
  123SOL    HW2  369   0.715   2.085   0.579  2.5415  0.9962 -1.0398
  124SOL     OW  370   2.766   0.650   0.196 -0.0924 -0.2652 -0.2615
  124SOL    HW1  371   2.820   0.573   0.238  0.5911 -0.8107 -0.5088
  124SOL    HW2  372   2.702   0.685   0.267 -0.1483 -1.6632  0.1332
  125SOL     OW  373   0.588   0.924   0.423  0.1432 -0.4560 -0.2436
  125SOL    HW1  374   0.532   0.843   0.398 -1.6935  3.1119 -1.3157
  125SOL    HW2  375   0.524   0.989   0.460  0.0538 -1.9124 -3.2729
  126SOL     OW  376   0.083   1.930   1.013 -0.4066 -0.4510 -0.0049
  126SOL    HW1  377   0.113   1.839   1.052 -1.0923 -1.5374 -1.0021
  126SOL    HW2  378   0.022   1.985   1.072 -2.5042  1.6777  0.4191
  127SOL     OW  379   1.368   1.926   1.728 -0.0060 -0.1759 -0.4962
  127SOL    HW1  380   1.460   1.955   1.768  0.0328  0.7029  0.1019
  127SOL    HW2  381   1.301   1.993   1.761  2.5188 -0.4206 -0.3690
  128SOL     OW  382   1.124   0.993   0.353 -0.1614 -0.3009  0.3191
  128SOL    HW1  383   1.117   0.895   0.320  0.4116  0.5598  0.7778
  128SOL    HW2  384   1.112   1.066   0.280  1.7906  0.5011  2.8442
  129SOL     OW  385   2.086   1.125   0.768 -0.3814  0.1321 -0.1979
  129SOL    HW1  386   2.075   1.030   0.738 -0.1914 -0.5033 -0.3461
  129SOL    HW2  387   2.049   1.194   0.706  1.1327 -2.7664 -1.9312
  130SOL     OW  388   2.739   1.687   1.654  0.2126  0.0934  0.1132
  130SOL    HW1  389   2.700   1.764   1.601 -2.2549 -0.6536  0.9225
  130SOL    HW2  390   2.770   1.613   1.590  1.2825 -0.0038  0.5497
  131SOL     OW  391   3.060   2.744   3.002  0.0586 -0.1375  0.3103
  131SOL    HW1  392   2.972   2.735   3.052 -3.0226  3.7203 -0.0882
  131SOL    HW2  393   3.081   2.848   3.001  1.1274 -0.4712  1.3336
  132SOL     OW  394   0.039   1.326   0.632  0.0078 -0.5660  0.1614
  132SOL    HW1  395   3.090   1.315   0.554 -0.2717 -1.9579  0.6272
  132SOL    HW2  396   0.051   1.245   0.685 -2.1466  4.9531 -2.6854
  133SOL     OW  397   0.546   0.300   1.635  0.5754 -0.5215 -0.2075
  133SOL    HW1  398   0.472   0.285   1.708 -1.1457  0.0297 -0.6021
  133SOL    HW2  399   0.639   0.274   1.668 -1.5443  1.5873 -2.4822
  134SOL     OW  400   0.328   1.832   3.077  0.0869  0.1664  0.2675
  134SOL    HW1  401   0.304   1.870   0.053  0.2510 -0.6376  0.1977
  134SOL    HW2  402   0.268   1.873   3.008  1.4412  0.3788 -0.7534
  135SOL     OW  403   1.604   0.554   2.023 -0.0093 -0.2529  0.3712
  135SOL    HW1  404   1.647   0.635   2.069  3.0294  0.9632 -0.9247
  135SOL    HW2  405   1.508   0.550   2.036  1.2164  1.1072  0.6303
  136SOL     OW  406   3.100   0.830   0.272  0.3425 -0.4150 -0.0875
  136SOL    HW1  407   0.084   0.839   0.282 -3.3758  0.9687  1.4490
  136SOL    HW2  408   3.054   0.840   0.181 -1.0326 -2.2392  1.1261
  137SOL     OW  409   0.214   1.320   1.207  0.1145  0.1524 -0.0724
  137SOL    HW1  410   0.128   1.375   1.228 -4.5137  2.4755 -2.1038
  137SOL    HW2  411   0.237   1.327   1.107  0.0785  2.0676 -1.0572
  138SOL     OW  412   2.099   0.554   1.323 -0.1094  0.4381  0.4133
  138SOL    HW1  413   2.082   0.514   1.416  0.0920  0.8023  1.4553
  138SOL    HW2  414   2.063   0.650   1.311 -1.4521  0.1409 -0.4879
  139SOL     OW  415   1.308   2.473   0.258 -0.4075 -0.0430 -0.0469
  139SOL    HW1  416   1.391   2.513   0.213  1.1397  0.5651  0.1783
  139SOL    HW2  417   1.225   2.527   0.223 -1.2934  2.7468 -2.8312
  140SOL     OW  418   1.344   1.508   1.663  0.5534 -0.3258 -0.2252
  140SOL    HW1  419   1.249   1.539   1.662  0.5654 -1.8517 -2.5075
  140SOL    HW2  420   1.396   1.545   1.586 -0.1734  1.5356  2.7735
  141SOL     OW  421   1.453   1.822   0.428  0.4020 -0.6788  0.1768
  141SOL    HW1  422   1.360   1.791   0.453  1.6361  2.0536 -0.1142
  141SOL    HW2  423   1.521   1.756   0.469  4.4177  0.3422  0.7786
  142SOL     OW  424   1.066   0.447   0.311 -0.9235 -0.2361  0.1173
  142SOL    HW1  425   1.009   0.392   0.244 -1.5505 -2.5216  1.8020
  142SOL    HW2  426   1.028   0.535   0.347 -0.3325 -1.2282  2.5315
  143SOL     OW  427   0.173   1.920   2.874 -0.1677  0.0406  0.1168
  143SOL    HW1  428   0.233   1.993   2.911  0.1414  0.3882 -1.2122
  143SOL    HW2  429   0.158   1.944   2.773  1.9639  1.0833 -1.2512
  144SOL     OW  430   1.518   2.546   0.997  0.3371  0.3564  0.1703
  144SOL    HW1  431   1.561   2.453   0.991  0.1785 -2.1849  1.3615
  144SOL    HW2  432   1.570   2.610   0.945 -3.6280 -1.9482  2.7475
  145SOL     OW  433   2.014   1.095   2.823  0.4584  0.3846 -0.3122
  145SOL    HW1  434   2.100   1.074   2.870  2.1149  0.4982 -1.1338
  145SOL    HW2  435   1.933   1.082   2.892 -3.5054  0.9613  0.0304
  146SOL     OW  436   0.346   2.521   0.923  0.0736  0.1610 -0.2453
  146SOL    HW1  437   0.328   2.607   0.875 -0.7495 -0.0782 -0.1335
  146SOL    HW2  438   0.262   2.470   0.955 -1.4756 -1.7085 -1.1906
  147SOL     OW  439   2.226   0.057   1.914  0.1180  0.6881  0.3025
  147SOL    HW1  440   2.243   3.077   1.943 -0.4945 -2.1280  0.7491
  147SOL    HW2  441   2.125   0.067   1.901 -0.3543  0.7289  0.6639
  148SOL     OW  442   1.005   3.058   1.974 -0.2853  0.0165 -0.0640
  148SOL    HW1  443   1.075   0.012   1.976  0.2022 -1.2409 -0.6615
  148SOL    HW2  444   1.021   2.985   2.045  1.0717 -1.0087  1.3832
  149SOL     OW  445   1.610   0.274   2.265 -0.2607  0.1176 -0.7561
  149SOL    HW1  446   1.619   0.269   2.368 -0.6217  0.1057 -0.9958
  149SOL    HW2  447   1.629   0.370   2.235 -0.7080  2.7843 -2.3010
  150SOL     OW  448   2.933   0.116   0.143 -0.3226 -0.1528  0.4068
  150SOL    HW1  449   2.867   0.114   0.064  0.1425 -2.3176 -0.9196
  150SOL    HW2  450   2.988   0.205   0.138  0.3513  1.0727 -2.3606
  151SOL     OW  451   0.904   1.598   0.422 -0.2584 -0.1612 -0.1906
  151SOL    HW1  452   0.922   1.697   0.427 -0.9962  0.0851 -3.0509
  151SOL    HW2  453   0.864   1.569   0.333  0.6481 -2.3306  1.1803
  152SOL     OW  454   2.885   0.441   0.350 -0.4319  0.3135 -0.0787
  152SOL    HW1  455   2.810   0.408   0.409 -0.9140 -2.3079  2.2033
  152SOL    HW2  456   2.973   0.449   0.407  2.8020  1.7730  1.3456
  153SOL     OW  457   2.794   0.314   1.514  0.3510  0.0111 -0.0219
  153SOL    HW1  458   2.796   0.414   1.531  1.0493  0.7968  3.6816
  153SOL    HW2  459   2.698   0.276   1.519  0.0240 -2.4418  2.6177
  154SOL     OW  460   1.322   3.045   2.164 -0.0817 -0.0591  0.1724
  154SOL    HW1  461   1.412   3.087   2.196 -1.4745 -0.3964 -1.1327
  154SOL    HW2  462   1.339   2.974   2.089  0.3025 -2.4961 -3.3960
  155SOL     OW  463   0.555   1.817   1.030  0.3054  0.2124  0.1040
  155SOL    HW1  464   0.493   1.895   1.007  0.6490  3.9873 -0.4275
  155SOL    HW2  465   0.619   1.856   1.103 -0.6317 -1.6567 -1.6140
  156SOL     OW  466   2.192   2.112   3.012  0.0701  0.3439  0.3082
  156SOL    HW1  467   2.174   2.212   3.007 -1.8845 -2.9770 -0.4529
  156SOL    HW2  468   2.159   2.076   3.102  1.3319  0.5220  0.4494
  157SOL     OW  469   0.836   0.654   0.186  0.2281  0.1902 -0.3464
  157SOL    HW1  470   0.737   0.649   0.193 -0.2801  1.8970 -1.3510
  157SOL    HW2  471   0.869   0.610   0.099 -0.6013 -0.3276 -0.2686
  158SOL     OW  472   2.311   3.100   2.878  0.8077  0.2736 -0.0307
  158SOL    HW1  473   2.371   0.027   2.949  0.1917  1.7688  1.4197
  158SOL    HW2  474   2.214   0.015   2.879  0.6250 -1.4320 -1.0630
  159SOL     OW  475   3.037   0.150   0.605 -0.8549  0.6101 -0.1240
  159SOL    HW1  476   3.051   0.240   0.569 -0.9260 -1.4541  0.4805
  159SOL    HW2  477   0.004   0.097   0.635  2.2530  0.4917  0.3578
  160SOL     OW  478   1.486   1.707   2.332 -0.4232  0.1864  0.0351
  160SOL    HW1  479   1.421   1.695   2.411 -0.8143 -1.6575  2.2498
  160SOL    HW2  480   1.431   1.747   2.257 -0.9238  0.6351 -1.9559
  161SOL     OW  481   2.693   0.925   2.865  0.5009  0.3449  0.0706
  161SOL    HW1  482   2.716   0.829   2.853  2.9531 -1.5941 -1.3070
  161SOL    HW2  483   2.597   0.938   2.833  3.2372 -3.6693 -0.9214
  162SOL     OW  484   0.495   2.368   1.423  0.2423  0.6278 -0.1739
  162SOL    HW1  485   0.531   2.348   1.333  1.2636  2.0340  1.8457
  162SOL    HW2  486   0.496   2.288   1.487  0.0365  1.4814  0.0416
  163SOL     OW  487   1.935   0.234   2.425  0.1062  0.4011  1.2179
  163SOL    HW1  488   1.870   0.158   2.443 -1.2027 -0.9017 -0.1591
  163SOL    HW2  489   2.015   0.201   2.376 -1.7819 -0.5928 -0.9881
  164SOL     OW  490   2.037   1.764   0.185  0.5286 -0.0333  0.0686
  164SOL    HW1  491   2.118   1.732   0.135  2.6413  1.3899  0.6540
  164SOL    HW2  492   2.022   1.713   0.269  0.4250 -1.4502 -0.6323
  165SOL     OW  493   3.040   0.230   1.587  0.2741 -0.0651  0.6601
  165SOL    HW1  494   2.947   0.258   1.556  0.4518  2.1668 -1.2320
  165SOL    HW2  495   3.108   0.304   1.563  1.0315  2.8083 -1.7517
  166SOL     OW  496   2.297   1.052   3.050 -0.4360  0.1810  0.1203
  166SOL    HW1  497   2.383   1.068   3.105  3.0004 -2.4449  0.8431
  166SOL    HW2  498   2.223   1.095   3.102  2.6208 -2.0458 -0.5575
  167SOL     OW  499   2.961   0.762   0.046  0.5239 -0.2006  0.3124
  167SOL    HW1  500   2.902   0.700   0.102  0.3816 -2.5315  0.2068
  167SOL    HW2  501   3.010   0.708   3.092  1.8696  0.6038  1.9959
  168SOL     OW  502   1.549   2.724   2.692 -0.5713 -0.3879 -0.4397
  168SOL    HW1  503   1.648   2.709   2.721  1.4023 -3.4257  1.4361
  168SOL    HW2  504   1.514   2.638   2.641 -0.3134 -3.0253  0.8831
  169SOL     OW  505   0.182   1.537   0.688 -0.2941  0.5904  0.6254
  169SOL    HW1  506   0.280   1.520   0.711  0.5086 -0.6353 -2.2190
  169SOL    HW2  507   0.132   1.451   0.661 -0.5853  0.3578 -2.0813
  170SOL     OW  508   0.129   0.381   1.473  0.4201  0.4690 -0.5936
  170SOL    HW1  509   0.196   0.432   1.535  0.2047 -0.2308  1.0206
  170SOL    HW2  510   0.110   0.442   1.394 -0.5368 -2.2016  0.0913
  171SOL     OW  511   1.463   2.117   2.626 -0.6083 -0.5216  0.0925
  171SOL    HW1  512   1.520   2.128   2.537 -1.3258 -1.3996 -3.0731
  171SOL    HW2  513   1.519   2.104   2.711  0.7539  1.4306  0.4066
  172SOL     OW  514   3.041   2.737   1.281  0.1715  0.7422 -0.0645
  172SOL    HW1  515   3.055   2.707   1.185  0.4288 -2.3403 -0.4436
  172SOL    HW2  516   0.017   2.743   1.325  2.0644 -0.1187 -1.6772
  173SOL     OW  517   1.352   0.674   0.123 -0.1809  0.1942  0.3554
  173SOL    HW1  518   1.439   0.704   0.171  3.2691 -0.4512 -2.5943
  173SOL    HW2  519   1.348   0.701   0.028 -1.2507  1.0126  2.0533
  174SOL     OW  520   0.842   0.096   2.607  0.0823  0.1330  0.4847
  174SOL    HW1  521   0.746   0.079   2.644 -1.5450 -0.1310  2.2942
  174SOL    HW2  522   0.909   0.026   2.644 -0.6748 -1.3073 -1.1731
  175SOL     OW  523   2.221   1.980   0.681  0.1754 -0.2421 -0.1073
  175SOL    HW1  524   2.189   2.074   0.694 -1.7380  1.3615  0.1875
  175SOL    HW2  525   2.150   1.909   0.693  0.7605 -1.5754  2.9034
  176SOL     OW  526   1.191   0.110   3.114 -0.1297 -0.1442  0.2645
  176SOL    HW1  527   1.113   0.059   0.032  2.1650 -0.4397 -0.4946
  176SOL    HW2  528   1.169   0.134   3.018 -1.0066  0.3923 -0.1353
  177SOL     OW  529   1.080   1.370   0.420  0.2286  0.1000 -0.4112
  177SOL    HW1  530   1.018   1.452   0.418 -0.1687 -1.1911 -0.2630
  177SOL    HW2  531   1.143   1.366   0.339 -2.1282  1.2794  1.4960
  178SOL     OW  532   2.537   2.469   2.917  0.2358  0.1551 -0.3499
  178SOL    HW1  533   2.618   2.474   2.981 -0.2571  0.8362  0.4548
  178SOL    HW2  534   2.475   2.389   2.941  0.0916 -1.7746  0.2376
  179SOL     OW  535   2.655   2.880   3.003 -0.1643  0.4232  0.3166
  179SOL    HW1  536   2.612   2.823   2.935 -1.3303 -1.6094  1.2174
  179SOL    HW2  537   2.735   2.932   2.960 -0.3468  0.4762 -1.2753
  180SOL     OW  538   1.772   1.386   0.824  0.4015 -0.1448 -0.5106
  180SOL    HW1  539   1.679   1.384   0.779 -0.4787 -1.3867 -0.0193
  180SOL    HW2  540   1.776   1.309   0.890 -0.6814 -1.1262 -2.5965
  181SOL     OW  541   1.923   0.976   2.402 -0.0343 -0.2713  0.0085
  181SOL    HW1  542   1.831   1.009   2.426  0.8279 -0.1272  0.3215
  181SOL    HW2  543   1.915   0.890   2.341 -2.4994 -1.5400 -0.4029
  182SOL     OW  544   2.581   3.099   2.544  0.1177  0.4753  0.6061
  182SOL    HW1  545   2.539   0.076   2.528  0.1546  0.6267 -1.1279
  182SOL    HW2  546   2.656   3.075   2.482 -1.0227  3.2712  1.0915
  183SOL     OW  547   1.890   0.744   2.254 -0.0107 -0.2576  0.2566
  183SOL    HW1  548   1.940   0.710   2.171 -3.6367 -0.0365  0.1402
  183SOL    HW2  549   1.921   0.705   2.341 -0.1329  1.9777  1.2924
  184SOL     OW  550   3.083   1.455   1.294 -0.4877 -0.1007  0.3128
  184SOL    HW1  551   3.038   1.446   1.201  0.5201  0.6363 -1.8640
  184SOL    HW2  552   3.050   1.386   1.359 -0.4306  1.4771 -3.4295
  185SOL     OW  553   1.962   0.744   0.562 -0.7396  0.3521  0.3869
  185SOL    HW1  554   2.000   0.793   0.642 -2.6967 -1.5169  1.4294
  185SOL    HW2  555   2.014   0.655   0.544 -1.1494 -2.1625 -2.7509
  186SOL     OW  556   0.292   2.709   3.015 -0.3030  0.2787 -0.6306
  186SOL    HW1  557   0.291   2.737   3.113 -0.2198 -1.5614  1.0536
  186SOL    HW2  558   0.273   2.788   2.949 -2.0773 -0.6598  0.4379
  187SOL     OW  559   2.564   1.155   0.046 -0.3612 -0.1425  0.1146
  187SOL    HW1  560   2.651   1.116   0.004  0.0717 -1.8456  3.0427
  187SOL    HW2  561   2.528   1.233   3.108 -0.9177  3.3001  0.6257
  188SOL     OW  562   2.957   1.747   1.404 -0.1764 -0.3905  0.0588
  188SOL    HW1  563   3.009   1.660   1.420 -0.1491  1.7645  2.8874
  188SOL    HW2  564   3.026   1.824   1.392  0.7868  0.4507 -2.1729
  189SOL     OW  565   2.696   0.440   2.963  0.0827 -1.2306  0.1563
  189SOL    HW1  566   2.744   0.524   2.922 -0.9999  2.2175 -3.9799
  189SOL    HW2  567   2.637   0.466   3.043  1.6540  0.6165  1.0977
  190SOL     OW  568   1.461   1.071   1.827 -0.0784  0.4608  0.1811
  190SOL    HW1  569   1.510   1.015   1.765  0.2973  3.2618 -0.2218
  190SOL    HW2  570   1.461   1.029   1.920 -1.6044  1.6296 -1.2371
  191SOL     OW  571   0.622   0.237   2.051  0.9387 -0.5132  0.2336
  191SOL    HW1  572   0.672   0.177   1.982 -2.6575 -0.6646 -3.0105
  191SOL    HW2  573   0.523   0.242   2.042  2.1947 -2.9039  1.1531
  192SOL     OW  574   2.113   1.422   1.136 -0.0480 -0.0874  0.0277
  192SOL    HW1  575   2.055   1.470   1.066 -1.7058 -2.9834 -2.7470
  192SOL    HW2  576   2.086   1.444   1.231  2.1865 -2.4274 -2.8951
  193SOL     OW  577   1.721   0.750   1.034  0.2204 -0.3610  0.1750
  193SOL    HW1  578   1.764   0.823   1.088 -1.3562 -0.5202 -0.9995
  193SOL    HW2  579   1.745   0.761   0.935 -4.1413  0.8550 -0.8345
  194SOL     OW  580   0.968   2.340   1.720  0.0933  0.1973 -0.1940
  194SOL    HW1  581   1.059   2.375   1.679 -2.3316  0.5297  1.6305
  194SOL    HW2  582   0.914   2.285   1.653 -1.0615 -0.5293 -3.3425
  195SOL     OW  583   1.803   2.935   2.921  0.6592  0.6025  0.7624
  195SOL    HW1  584   1.864   2.946   2.999 -2.2215 -0.8090 -2.1039
  195SOL    HW2  585   1.853   2.968   2.841 -0.5759  0.1888  0.5297
  196SOL     OW  586   0.710   1.871   2.006 -0.2689 -0.0493 -0.1411
  196SOL    HW1  587   0.756   1.926   1.930  1.8951  0.5436 -0.1402
  196SOL    HW2  588   0.683   1.776   1.966  1.8895 -4.5500 -0.1973
  197SOL     OW  589   1.024   0.206   1.221  0.3912 -0.5450 -0.0563
  197SOL    HW1  590   1.124   0.233   1.223  0.2546  0.4340 -0.0937
  197SOL    HW2  591   0.965   0.281   1.263 -0.0733 -1.5768  0.6430
  198SOL     OW  592   0.683   1.005   1.130 -0.5818 -0.0845 -0.5932
  198SOL    HW1  593   0.706   0.932   1.200  1.0082 -0.4145  1.2525
  198SOL    HW2  594   0.762   1.023   1.066  1.3812 -2.8601 -1.8675
  199SOL     OW  595   0.144   2.663   1.642  0.0620 -0.4774  0.0893
  199SOL    HW1  596   0.216   2.605   1.685 -1.2226  1.2793  0.4626
  199SOL    HW2  597   0.183   2.721   1.570 -2.1262 -0.7975  1.9143
  200SOL     OW  598   1.836   1.608   2.100  0.4346 -0.1513  0.0261
  200SOL    HW1  599   1.739   1.580   2.102  1.4263  0.0625 -1.4968
  200SOL    HW2  600   1.883   1.559   2.023  0.5213 -1.4851 -0.1487
  201SOL     OW  601   0.418   1.631   2.271  0.3467 -0.5212  0.1698
  201SOL    HW1  602   0.489   1.560   2.295  1.1098 -1.9095 -2.3779
  201SOL    HW2  603   0.423   1.661   2.171 -0.9769 -3.0863 -0.4793
  202SOL     OW  604   1.710   0.535   0.095 -0.6799 -0.1083  0.1418
  202SOL    HW1  605   1.759   0.448   0.067 -1.6378  0.2454  1.7832
  202SOL    HW2  606   1.677   0.521   0.193  1.7665 -0.5191  2.6053
  203SOL     OW  607   1.124   2.451   2.196 -0.2993  0.2942  0.1279
  203SOL    HW1  608   1.076   2.472   2.285  0.4714 -3.0811  0.7278
  203SOL    HW2  609   1.067   2.395   2.134  0.4835  1.4275  0.4225
  204SOL     OW  610   1.089   2.102   1.591  0.3946  0.5728  0.1194
  204SOL    HW1  611   1.016   2.162   1.549 -0.4849  4.4743 -0.9833
  204SOL    HW2  612   1.123   2.145   1.678 -0.4244 -0.6879 -1.4291
  205SOL     OW  613   1.653   1.775   1.980 -0.4558  1.0420  0.1172
  205SOL    HW1  614   1.719   1.780   2.060  1.0755  0.1158  1.9341
  205SOL    HW2  615   1.561   1.740   2.006 -1.9550  0.5908 -1.6007
  206SOL     OW  616   0.027   1.023   2.370  0.1123  0.0916  0.4567
  206SOL    HW1  617   0.031   0.955   2.443  0.8724 -2.3015 -4.1460
  206SOL    HW2  618   0.119   1.048   2.342 -2.7560 -0.3690 -2.0071
  207SOL     OW  619   1.150   2.775   1.987 -0.0331 -0.0738 -0.2947
  207SOL    HW1  620   1.086   2.768   2.066  2.4552  1.5755  0.7493
  207SOL    HW2  621   1.099   2.750   1.901  0.4787 -0.0519  1.3348
  208SOL     OW  622   0.912   2.722   1.822  0.0557 -0.1095  0.0969
  208SOL    HW1  623   0.873   2.631   1.796 -1.8842 -1.0291 -0.8117
  208SOL    HW2  624   0.857   2.771   1.891  1.2022  2.0656  0.2276
  209SOL     OW  625   1.469   0.056   0.037 -0.0172  0.1363  0.1805
  209SOL    HW1  626   1.484   0.095   0.129 -0.8653  2.2442  0.9021
  209SOL    HW2  627   1.368   0.075   0.018 -3.5197 -0.9419 -3.1613
  210SOL     OW  628   2.815   0.769   0.949  0.0005  0.3346 -0.2798
  210SOL    HW1  629   2.795   0.676   0.984 -1.0234 -1.3556  0.4368
  210SOL    HW2  630   2.897   0.769   0.885  2.7907 -0.5536 -2.7727
  211SOL     OW  631   0.589   0.469   1.423 -0.2202  0.1614  0.4039
  211SOL    HW1  632   0.572   0.569   1.438 -1.7999  0.6036  1.6541
  211SOL    HW2  633   0.564   0.412   1.502  3.5214  2.0968 -1.2189
  212SOL     OW  634   1.683   1.856   1.167 -0.3378 -0.1903 -0.2721
  212SOL    HW1  635   1.738   1.783   1.218 -1.0327 -1.1636  1.3499
  212SOL    HW2  636   1.720   1.952   1.178 -2.3413  2.6569  1.1460
  213SOL     OW  637   2.271   0.367   1.729  0.6757 -0.1982 -0.5472
  213SOL    HW1  638   2.325   0.281   1.741  0.5899 -0.7371  0.5852
  213SOL    HW2  639   2.333   0.439   1.686 -0.0654  0.2958  4.0575
  214SOL     OW  640   0.834   2.651   2.568 -0.3689  0.4956 -0.2906
  214SOL    HW1  641   0.785   2.730   2.536 -0.6806 -4.2325  2.3577
  214SOL    HW2  642   0.765   2.575   2.571 -2.1641  1.8686  2.7142
  215SOL     OW  643   2.881   1.885   1.778  0.3117 -0.5685  0.2272
  215SOL    HW1  644   2.824   1.811   1.741 -0.4428 -0.5462  1.2771
  215SOL    HW2  645   2.954   1.903   1.710 -0.5822 -0.8871 -1.3648
  216SOL     OW  646   0.738   1.061   1.789  0.0406  0.0531 -0.1006
  216SOL    HW1  647   0.656   1.118   1.800  0.4845  1.2162  1.9018
  216SOL    HW2  648   0.809   1.110   1.742  0.9437  0.4431  0.5209
  217SOL     OW  649   2.682   0.353   0.503 -0.4153 -0.5619  0.5604
  217SOL    HW1  650   2.635   0.440   0.539 -0.6009  1.3801 -3.2381
  217SOL    HW2  651   2.712   0.294   0.581 -0.1347  0.2085  0.2039
  218SOL     OW  652   1.920   2.067   0.961  0.5565  0.2932 -0.1417
  218SOL    HW1  653   1.888   2.120   0.880 -1.7069  0.4767 -1.1805
  218SOL    HW2  654   1.880   2.105   1.046  0.0031 -1.7762  0.6871
  219SOL     OW  655   1.494   3.101   0.545 -0.6103  0.4055 -0.0099
  219SOL    HW1  656   1.571   3.040   0.519 -2.2201 -0.4854  2.0342
  219SOL    HW2  657   1.401   3.073   0.504 -2.0032 -1.9879 -0.3339
  220SOL     OW  658   1.559   1.985   0.798 -0.1733 -0.5004  0.2459
  220SOL    HW1  659   1.518   2.047   0.728  0.9192  0.5140 -2.2064
  220SOL    HW2  660   1.612   1.912   0.756 -1.3347  1.2079 -1.6570
  221SOL     OW  661   2.826   1.097   0.351 -0.2384  0.2257  0.0495
  221SOL    HW1  662   2.748   1.165   0.347 -2.6980  0.0023 -0.8914
  221SOL    HW2  663   2.854   1.080   0.256 -2.2753 -0.9607 -0.5983
  222SOL     OW  664   0.924   2.189   1.294  0.1950  0.9402  0.0037
  222SOL    HW1  665   0.919   2.291   1.280  1.4066  0.3252 -0.9519
  222SOL    HW2  666   0.991   2.147   1.234 -2.4018 -0.1050  2.9925
  223SOL     OW  667   1.366   0.375   0.566  0.0327 -0.3606 -0.2650
  223SOL    HW1  668   1.381   0.435   0.485  1.5120 -1.4147 -0.8972
  223SOL    HW2  669   1.287   0.312   0.545  0.6835  2.5737  1.5492
  224SOL     OW  670   2.816   1.262   1.239 -0.3918 -0.8545  0.7655
  224SOL    HW1  671   2.721   1.281   1.277 -1.9795 -0.5561 -1.1457
  224SOL    HW2  672   2.840   1.326   1.162 -1.6803 -1.0658 -2.3986
  225SOL     OW  673   0.589   1.606   1.573  0.2353 -0.4381  0.4003
  225SOL    HW1  674   0.594   1.508   1.604 -0.2740  2.3649 -0.1712
  225SOL    HW2  675   0.542   1.615   1.481 -1.6808  0.6878  1.2311
  226SOL     OW  676   0.681   2.611   0.765  0.1059  0.0130  0.0481
  226SOL    HW1  677   0.677   2.608   0.661  0.2085 -0.5662 -2.1772
  226SOL    HW2  678   0.655   2.520   0.806  0.3906 -3.0905  0.7547
  227SOL     OW  679   1.168   1.730   1.695  0.1110 -0.5860 -0.1746
  227SOL    HW1  680   1.118   1.788   1.625 -2.9605  0.9102 -0.5842
  227SOL    HW2  681   1.256   1.768   1.728  2.7904  0.3170 -0.5087
  228SOL     OW  682   0.806   0.262   1.697 -0.2644 -0.0111  0.1936
  228SOL    HW1  683   0.826   0.359   1.715  1.3959  0.8443 -1.3266
  228SOL    HW2  684   0.897   0.212   1.681  1.6566 -0.1129  0.4921
  229SOL     OW  685   2.802   0.651   2.816 -0.3736 -0.1266  0.6038
  229SOL    HW1  686   2.805   0.612   2.720 -1.3229 -1.6358 -0.0340
  229SOL    HW2  687   2.893   0.651   2.860 -1.4345 -0.9177 -0.8205
  230SOL     OW  688   0.333   0.964   1.446  0.1365  0.4311 -0.2104
  230SOL    HW1  689   0.321   0.985   1.345 -2.9236  0.4352 -1.2288
  230SOL    HW2  690   0.305   0.868   1.472 -2.0547  1.0928 -0.1335
  231SOL     OW  691   1.192   2.882   1.475  0.0494 -0.0385 -0.1561
  231SOL    HW1  692   1.101   2.873   1.518 -1.9402 -1.6184  1.1503
  231SOL    HW2  693   1.201   2.943   1.395  3.1256 -1.9629 -1.4150
  232SOL     OW  694   3.054   2.248   0.254 -0.0975 -0.1327 -0.0934
  232SOL    HW1  695   3.113   2.254   0.334  2.7506  1.9406 -2.2997
  232SOL    HW2  696   3.050   2.344   0.221 -0.7243  1.4221  0.5972
  233SOL     OW  697   1.157   2.647   2.977  0.2556 -0.3877  0.0228
  233SOL    HW1  698   1.111   2.650   2.888  2.3886 -1.2782  2.5505
  233SOL    HW2  699   1.255   2.670   2.968 -1.8559  0.7987 -1.3116
  234SOL     OW  700   0.606   1.309   1.870  0.5809 -0.2413 -0.0827
  234SOL    HW1  701   0.596   1.301   1.766  0.0109 -1.9694  1.2713
  234SOL    HW2  702   0.530   1.273   1.925 -0.1853  1.6128  0.4609
  235SOL     OW  703   0.000   2.495   2.467  0.2510 -0.2579 -0.2924
  235SOL    HW1  704   0.079   2.560   2.442  2.6978  0.7837 -2.1876
  235SOL    HW2  705   3.112   2.497   2.571 -0.5734 -0.6120  3.8851
  236SOL     OW  706   1.565   2.131   2.877 -0.0575  0.3597 -0.2926
  236SOL    HW1  707   1.586   2.224   2.841 -0.1232 -2.7295  1.7681
  236SOL    HW2  708   1.534   2.135   2.972 -0.3351 -0.8163 -2.5454
  237SOL     OW  709   1.981   1.002   1.030 -0.0852  0.0951  0.3983
  237SOL    HW1  710   1.996   0.908   0.998 -2.2641  1.7441 -2.1077
  237SOL    HW2  711   2.037   1.059   0.963 -0.5877  2.3079 -0.9324
  238SOL     OW  712   1.361   2.539   2.075 -0.3042  0.2891  0.3084
  238SOL    HW1  713   1.283   2.525   2.139  1.1289  3.0532  0.0065
  238SOL    HW2  714   1.336   2.604   1.997  0.5042  2.7455 -0.9628
  239SOL     OW  715   0.952   2.310   2.008 -0.6134  0.3466  0.0612
  239SOL    HW1  716   0.874   2.251   2.048  0.1121 -0.9348 -1.9670
  239SOL    HW2  717   0.941   2.314   1.909 -0.1004 -0.5823 -0.1839
  240SOL     OW  718   2.478   0.290   0.823  0.3182 -0.3069  0.0381
  240SOL    HW1  719   2.512   0.200   0.856  1.0086  0.0918 -1.5981
  240SOL    HW2  720   2.429   0.297   0.734  0.0603  0.0462  1.7826
  241SOL     OW  721   1.178   1.636   2.993 -0.3956 -0.0201 -0.0213
  241SOL    HW1  722   1.114   1.596   3.061  0.1766 -2.1005 -2.3061
  241SOL    HW2  723   1.245   1.571   2.952  0.0976  0.1711 -0.9735
  242SOL     OW  724   2.810   0.989   3.105  0.0315  0.3906  0.1014
  242SOL    HW1  725   2.848   0.903   0.021 -2.4038 -1.6083 -1.1043
  242SOL    HW2  726   2.765   0.972   3.015  0.1176 -0.7124  0.9032
  243SOL     OW  727   0.860   0.513   1.746 -0.4933 -0.0434  0.1245
  243SOL    HW1  728   0.831   0.526   1.845 -2.8617  3.0347  0.2604
  243SOL    HW2  729   0.900   0.601   1.717  2.0255  0.1605  0.3995
  244SOL     OW  730   1.322   2.892   3.055  0.3298  0.1694 -0.1909
  244SOL    HW1  731   1.370   2.846   2.979  0.2295 -0.2347 -0.7882
  244SOL    HW2  732   1.383   2.888   0.022 -0.9404  0.4710  2.3952
  245SOL     OW  733   1.537   2.448   3.061 -0.0265 -0.2953 -0.2887
  245SOL    HW1  734   1.504   2.354   3.073  0.0252  2.1972  2.2142
  245SOL    HW2  735   1.638   2.454   3.067 -1.7704  2.2627  0.4682
  246SOL     OW  736   0.697   0.990   2.379  0.0957  0.1951 -0.4535
  246SOL    HW1  737   0.651   0.961   2.291 -0.7424 -1.9268 -0.9914
  246SOL    HW2  738   0.633   1.034   2.442 -1.6278 -0.0191  0.1978
  247SOL     OW  739   3.068   0.618   2.397  0.0795  0.3470 -0.2626
  247SOL    HW1  740   3.096   0.543   2.332 -2.1107 -2.3302 -0.4074
  247SOL    HW2  741   0.001   0.613   2.484 -1.8688  0.4410 -3.4056
  248SOL     OW  742   0.182   1.373   2.042 -0.1091  0.4697 -0.5827
  248SOL    HW1  743   0.102   1.306   2.034 -0.6931 -2.3369  2.0916
  248SOL    HW2  744   0.271   1.326   2.064 -1.0262  2.2175 -0.8037
  249SOL     OW  745   3.069   0.362   0.144 -0.3471 -0.1989  0.0212
  249SOL    HW1  746   0.035   0.393   0.196  0.5082 -1.7310  0.8851
  249SOL    HW2  747   2.987   0.397   0.189 -0.2075  0.2457 -2.7066
  250SOL     OW  748   2.769   0.182   3.037 -0.0318  0.0798 -0.1214
  250SOL    HW1  749   2.765   0.121   2.955  1.1089 -0.0268  1.0692
  250SOL    HW2  750   2.744   0.284   3.018  0.2490  1.0641 -1.9987
  251SOL     OW  751   0.996   1.683   1.925  0.1005 -0.6980  0.4826
  251SOL    HW1  752   0.991   1.753   1.999  0.1982  0.0288  2.2711
  251SOL    HW2  753   1.068   1.707   1.857 -0.8856 -0.5773 -1.7635
  252SOL     OW  754   2.177   1.773   1.366  0.0927 -0.3282  0.9654
  252SOL    HW1  755   2.279   1.752   1.379  0.7415 -2.2367 -1.8629
  252SOL    HW2  756   2.120   1.757   1.447 -3.0594  1.3142 -3.4166
  253SOL     OW  757   1.935   2.251   2.208 -0.0155  0.5562 -0.1928
  253SOL    HW1  758   1.920   2.267   2.112  2.2618 -0.6617  0.9586
  253SOL    HW2  759   1.936   2.334   2.265  2.2833 -0.5696 -0.2071
  254SOL     OW  760   0.581   2.462   2.200  0.4119  0.1631  0.5812
  254SOL    HW1  761   0.557   2.399   2.125  2.2594  1.5240 -1.0850
  254SOL    HW2  762   0.658   2.522   2.171 -3.5475  0.1793 -0.6564
  255SOL     OW  763   1.282   0.405   0.944 -0.0104  0.2299 -0.1485
  255SOL    HW1  764   1.371   0.375   0.901  1.7889 -0.4692 -0.5732
  255SOL    HW2  765   1.256   0.499   0.910 -1.8428  2.5416  0.5072
  256SOL     OW  766   2.339   2.231   1.429 -0.3768  0.4435 -0.1774
  256SOL    HW1  767   2.366   2.314   1.373 -0.2216 -0.2039 -0.8908
  256SOL    HW2  768   2.294   2.167   1.367  0.0378  1.7535 -0.4057
  257SOL     OW  769   0.437   2.546   2.840 -0.0262  0.4910  0.8498
  257SOL    HW1  770   0.509   2.480   2.880 -0.1919 -0.6206  1.2783
  257SOL    HW2  771   0.402   2.605   2.915  1.2001  0.9134 -2.3465
  258SOL     OW  772   0.392   0.809   2.297 -1.0873  0.3037 -0.4467
  258SOL    HW1  773   0.424   0.751   2.373 -0.5805  2.8104 -1.0872
  258SOL    HW2  774   0.471   0.825   2.237 -1.7755  1.2757 -1.7373
  259SOL     OW  775   0.892   1.147   2.254 -0.4575 -0.1535  0.0266
  259SOL    HW1  776   0.844   1.211   2.192  1.7449 -2.8457 -0.6891
  259SOL    HW2  777   0.829   1.106   2.322 -4.2934 -0.1824 -0.0462
  260SOL     OW  778   2.084   0.854   0.758 -0.2987  1.2099  0.1590
  260SOL    HW1  779   2.075   0.815   0.851  1.5228  0.0564 -1.4023
  260SOL    HW2  780   2.183   0.867   0.729 -1.0623  1.7281 -1.9151
  261SOL     OW  781   0.853   0.267   0.749  0.0324  0.1487  0.2984
  261SOL    HW1  782   0.899   0.265   0.654 -0.5038 -0.4688 -1.5754
  261SOL    HW2  783   0.928   0.259   0.819 -0.3201 -1.8613  3.1261
  262SOL     OW  784   2.159   2.607   2.490 -0.0844  0.0444  0.0617
  262SOL    HW1  785   2.197   2.694   2.445  0.2276  1.8124  0.3461
  262SOL    HW2  786   2.228   2.531   2.482  0.1607 -0.3139  2.2919
  263SOL     OW  787   0.524   1.680   2.966  0.0771  0.4463  0.2856
  263SOL    HW1  788   0.494   1.615   2.894 -2.9539  0.4947 -0.4115
  263SOL    HW2  789   0.443   1.735   2.999 -1.4909 -0.0535 -1.5029
  264SOL     OW  790   0.281   1.798   1.457 -0.3418  0.0934  0.2956
  264SOL    HW1  791   0.215   1.726   1.482 -2.2837  4.0370 -1.3505
  264SOL    HW2  792   0.231   1.878   1.416 -1.1470  1.4105  1.4704
  265SOL     OW  793   1.000   0.800   0.677  0.5741  0.0058  0.6228
  265SOL    HW1  794   0.927   0.815   0.606 -1.2212  0.0966 -1.7989
  265SOL    HW2  795   0.965   0.736   0.752  1.2841  0.2568  1.1263
  266SOL     OW  796   1.267   1.893   0.027 -0.1257 -0.1693  0.4003
  266SOL    HW1  797   1.363   1.877   0.030 -1.9364  1.4537 -0.3600
  266SOL    HW2  798   1.216   1.827   3.086 -2.2124 -1.5664 -1.2650
  267SOL     OW  799   0.347   0.503   2.955  0.5246 -0.2588  0.3247
  267SOL    HW1  800   0.287   0.422   2.966 -2.5855 -1.8024  0.5635
  267SOL    HW2  801   0.439   0.469   2.924  4.5433  0.9924  0.1650
  268SOL     OW  802   0.874   0.498   2.791  0.5515 -0.3822 -0.6095
  268SOL    HW1  803   0.907   0.440   2.713 -0.5550 -2.2519 -1.2567
  268SOL    HW2  804   0.853   0.582   2.735 -2.6393  2.2734 -1.5755
  269SOL     OW  805   1.757   0.035   2.504  0.0420 -0.1197 -0.2146
  269SOL    HW1  806   1.741   3.085   2.427 -2.2948  4.3134  0.5868
  269SOL    HW2  807   1.681   0.104   2.513  0.4308 -0.0767 -2.2983
  270SOL     OW  808   0.794   0.709   2.614 -0.0889  0.5379 -0.0343
  270SOL    HW1  809   0.828   0.733   2.521 -2.9723 -1.7886 -1.5479
  270SOL    HW2  810   0.756   0.787   2.661  0.7438 -1.2016  1.6178
  271SOL     OW  811   0.259   0.859   0.223  0.4275 -1.1453 -0.0082
  271SOL    HW1  812   0.275   0.962   0.226 -1.7582 -0.1096  1.0956
  271SOL    HW2  813   0.332   0.806   0.272 -0.3981  1.5329  1.2688
  272SOL     OW  814   2.183   1.244   2.366 -0.1268  0.4359 -0.2303
  272SOL    HW1  815   2.135   1.183   2.300 -0.0467 -0.8414  1.2122
  272SOL    HW2  816   2.265   1.191   2.398 -2.1977 -1.4978 -1.5363
  273SOL     OW  817   0.039   0.405   2.239 -0.5906 -0.1734  0.3535
  273SOL    HW1  818   0.136   0.409   2.261  0.1783  0.2714 -0.6985
  273SOL    HW2  819   0.026   0.426   2.139 -1.3977  1.8984 -1.4993
  274SOL     OW  820   2.663   0.216   1.875 -0.2098  0.3423 -0.2839
  274SOL    HW1  821   2.631   0.161   1.959 -1.2089 -0.9979 -2.3373
  274SOL    HW2  822   2.704   0.154   1.805 -0.8871  0.3842  0.3675
  275SOL     OW  823   1.885   1.393   0.265  0.0800 -0.0490 -0.1423
  275SOL    HW1  824   1.894   1.397   0.163 -0.0528  0.8839  0.9613
  275SOL    HW2  825   1.793   1.376   0.298  0.4475  0.8318  1.0690
  276SOL     OW  826   0.140   1.268   2.872 -0.2976 -0.3485  0.4834
  276SOL    HW1  827   0.086   1.211   2.940  0.8935  1.2441 -1.5266
  276SOL    HW2  828   0.074   1.331   2.827 -2.2375  1.7396  2.4638
  277SOL     OW  829   1.907   2.776   2.108  0.3868 -0.4080  0.0018
  277SOL    HW1  830   1.999   2.738   2.100 -1.3826  0.6856  3.5891
  277SOL    HW2  831   1.877   2.778   2.206 -0.6488  0.4278  0.1480
  278SOL     OW  832   2.028   2.956   1.360 -0.3029 -0.1096 -0.7640
  278SOL    HW1  833   1.978   2.870   1.391  1.0024 -2.1549 -3.0952
  278SOL    HW2  834   2.002   3.041   1.413 -3.1284 -0.2689  0.9161
  279SOL     OW  835   1.095   1.297   2.884  0.6740  0.5020 -0.1597
  279SOL    HW1  836   1.171   1.358   2.902 -3.0880  0.7625 -1.2130
  279SOL    HW2  837   1.008   1.323   2.924  2.2607 -1.7913  1.2025
  280SOL     OW  838   0.828   1.241   0.430 -0.0787  0.7738 -0.1535
  280SOL    HW1  839   0.787   1.322   0.383 -0.4579 -1.4648 -1.1039
  280SOL    HW2  840   0.925   1.251   0.457  1.6459  1.1113  0.0304
  281SOL     OW  841   0.191   3.019   1.626  0.1029  0.9921 -0.2092
  281SOL    HW1  842   0.251   3.002   1.711  2.1609 -0.6185  1.0265
  281SOL    HW2  843   0.244   3.076   1.560 -0.0484 -0.1960 -3.0155
  282SOL     OW  844   0.273   2.151   1.024  0.0718  0.0955 -0.4580
  282SOL    HW1  845   0.363   2.130   0.980 -3.0567  2.7318 -0.3607
  282SOL    HW2  846   0.207   2.073   1.013 -1.4106  0.0599  1.9933
  283SOL     OW  847   1.332   2.243   2.207 -0.2124  0.3789 -0.3050
  283SOL    HW1  848   1.287   2.338   2.204  0.5044  2.0445 -0.8781
  283SOL    HW2  849   1.390   2.216   2.125 -0.4766 -0.0482 -1.0000
  284SOL     OW  850   2.416   1.035   0.232 -0.0512  0.2278  0.2813
  284SOL    HW1  851   2.454   1.043   0.330 -1.0547  0.3818  1.1819
  284SOL    HW2  852   2.475   1.080   0.162  0.0180 -1.0244  1.0908
  285SOL     OW  853   2.890   2.940   2.831 -0.0484 -0.4828  0.3684
  285SOL    HW1  854   2.905   2.861   2.761  0.3127 -3.0035 -0.8110
  285SOL    HW2  855   2.974   2.973   2.878  0.8342  0.5767 -0.0326
  286SOL     OW  856   1.922   2.852   1.013 -0.2622 -0.2289  0.0066
  286SOL    HW1  857   2.010   2.903   1.028 -0.5380 -0.9612 -2.7880
  286SOL    HW2  858   1.890   2.809   1.102 -0.6831  0.0406 -0.6599
  287SOL     OW  859   0.596   1.305   1.069  0.2772 -0.2798  0.1214
  287SOL    HW1  860   0.631   1.221   1.119 -1.6289  2.7784  0.7924
  287SOL    HW2  861   0.670   1.371   1.055 -0.2996 -0.5791 -1.0354
  288SOL     OW  862   1.475   2.189   0.009 -0.4656 -0.1439 -0.4519
  288SOL    HW1  863   1.406   2.192   0.081 -0.1905 -3.7412 -1.5504
  288SOL    HW2  864   1.536   2.111   0.036  0.5336 -0.4299  0.4942
  289SOL     OW  865   0.128   1.966   2.614  0.0336 -0.1229 -0.0532
  289SOL    HW1  866   0.186   2.051   2.614  0.9263 -1.8535  3.2363
  289SOL    HW2  867   0.160   1.906   2.540  0.9420  0.5031  3.8427
  290SOL     OW  868   1.436   2.157   1.005  0.0056 -0.1156 -0.1089
  290SOL    HW1  869   1.353   2.199   0.960  0.0798 -1.3900 -2.8875
  290SOL    HW2  870   1.476   2.092   0.934 -0.7223 -1.8613 -2.9599
  291SOL     OW  871   1.618   1.439   3.088 -0.7871 -0.3056  0.1711
  291SOL    HW1  872   1.631   1.513   3.017 -2.2049  0.3241  2.2007
  291SOL    HW2  873   1.555   1.469   0.044  0.5543 -1.1628 -0.3187
  292SOL     OW  874   1.447   1.634   1.438  0.3058  0.5568  0.6726
  292SOL    HW1  875   1.360   1.643   1.384  0.9239  1.7491  0.0898
  292SOL    HW2  876   1.477   1.729   1.456 -0.3513 -0.7280  2.1941
  293SOL     OW  877   1.736   2.843   0.817 -0.3287 -0.3239 -0.3988
  293SOL    HW1  878   1.798   2.849   0.898  0.7611  1.3799 -2.5412
  293SOL    HW2  879   1.686   2.757   0.799  2.9522  0.4554  0.0272
  294SOL     OW  880   3.060   1.384   2.644 -0.4898  0.8998  0.7327
  294SOL    HW1  881   2.983   1.447   2.667 -0.3341 -0.3139 -0.0824
  294SOL    HW2  882   3.029   1.326   2.566 -0.6215  0.1918  0.7571
  295SOL     OW  883   0.997   2.214   2.835  0.2298 -0.1915  0.3372
  295SOL    HW1  884   1.059   2.198   2.754  0.6838  1.8591 -0.3737
  295SOL    HW2  885   1.050   2.185   2.923 -0.0458  0.2275  3.7172
  296SOL     OW  886   1.594   1.469   2.135  0.2781 -0.1798 -0.0862
  296SOL    HW1  887   1.545   1.471   2.048  1.6194 -1.9179 -0.2272
  296SOL    HW2  888   1.534   1.495   2.213 -1.6931  1.2917 -1.2168
  297SOL     OW  889   2.824   0.583   2.551 -0.1357 -0.2131  0.1807
  297SOL    HW1  890   2.900   0.585   2.483  1.1485 -0.1131  1.6008
  297SOL    HW2  891   2.739   0.583   2.498 -0.7748 -0.0380  0.8777
  298SOL     OW  892   0.980   2.365   2.429  0.2360 -0.3946 -0.1962
  298SOL    HW1  893   0.979   2.434   2.508 -0.1194  0.9347  1.8366
  298SOL    HW2  894   0.887   2.330   2.405 -1.0249  0.5836  0.5871
  299SOL     OW  895   0.899   2.924   2.728  0.1834 -0.4361  0.0296
  299SOL    HW1  896   0.840   2.871   2.663 -0.2719  0.2315 -0.4287
  299SOL    HW2  897   0.847   2.965   2.803 -2.4949  0.1049  0.9445
  300SOL     OW  898   3.047   0.637   2.920  0.1228 -0.5300 -0.4571
  300SOL    HW1  899   3.059   0.535   2.938 -0.2940  0.2631 -1.4918
  300SOL    HW2  900   0.010   0.679   2.879  0.8797  1.0765  1.2533
  301SOL     OW  901   1.425   0.757   1.261  0.4417  0.5048 -0.7489
  301SOL    HW1  902   1.353   0.684   1.275 -0.4001 -0.1872  0.3443
  301SOL    HW2  903   1.416   0.783   1.162  0.4264 -0.3248 -0.4786
  302SOL     OW  904   2.787   2.005   2.799 -0.3725  0.5071  0.8286
  302SOL    HW1  905   2.838   2.037   2.716  0.1535 -2.3127  0.2196
  302SOL    HW2  906   2.827   1.915   2.826 -0.8036  1.0979  0.4757
  303SOL     OW  907   0.120   0.117   2.416  0.2125  0.0916 -0.4823
  303SOL    HW1  908   0.159   0.108   2.326 -0.2175 -0.2999  1.5059
  303SOL    HW2  909   0.106   0.216   2.435  1.9734 -0.8519  1.0883
  304SOL     OW  910   2.748   0.664   1.596  0.1831  0.1634 -0.4831
  304SOL    HW1  911   2.670   0.703   1.652  3.2269  0.8216  0.4940
  304SOL    HW2  912   2.745   0.700   1.503 -0.6708 -0.8874  1.0575
  305SOL     OW  913   0.106   0.092   2.007 -1.0099 -0.0142 -0.4537
  305SOL    HW1  914   0.029   0.140   1.958 -2.3195 -1.5507 -1.1220
  305SOL    HW2  915   0.093   3.109   2.000  0.6947  1.7797  0.0594
  306SOL     OW  916   2.753   1.435   1.508  0.4254  0.1637  0.7329
  306SOL    HW1  917   2.842   1.387   1.489  0.9097 -3.1311  2.0023
  306SOL    HW2  918   2.698   1.382   1.574  0.4270  1.0492  0.9554
  307SOL     OW  919   2.124   0.300   1.152  0.5883 -0.1208  0.4080
  307SOL    HW1  920   2.121   0.381   1.209 -0.6536 -0.8763 -3.7834
  307SOL    HW2  921   2.046   0.236   1.182 -3.1106  0.7941 -1.5815
  308SOL     OW  922   0.219   2.139   1.285  0.0799 -0.6148  0.3698
  308SOL    HW1  923   0.222   2.163   1.185 -2.0732 -1.9909 -1.2583
  308SOL    HW2  924   0.187   2.219   1.343 -0.6531 -1.2123  2.1691
  309SOL     OW  925   2.558   1.886   1.599 -0.2720 -0.0617  0.1522
  309SOL    HW1  926   2.534   1.869   1.500  2.2368  2.3507 -1.5968
  309SOL    HW2  927   2.475   1.911   1.648 -0.8462 -1.7859  2.0428
  310SOL     OW  928   2.764   1.618   0.098 -0.1799  0.4429 -0.5257
  310SOL    HW1  929   2.835   1.692   0.114  1.6487 -2.6616  0.4456
  310SOL    HW2  930   2.747   1.576   0.188 -0.5253 -1.3115  0.5607
  311SOL     OW  931   2.227   1.501   2.423  0.1480 -0.0823  0.2418
  311SOL    HW1  932   2.194   1.409   2.403 -1.0362 -0.1152  0.5071
  311SOL    HW2  933   2.197   1.529   2.518  1.9065  0.2411  1.1271
  312SOL     OW  934   2.247   2.343   0.974  0.1913 -0.7244 -0.3302
  312SOL    HW1  935   2.246   2.243   0.992  2.1867  1.0227 -1.4438
  312SOL    HW2  936   2.308   2.371   0.899 -0.9517  0.7983  0.0475
  313SOL     OW  937   3.065   2.618   1.008 -0.2712  0.0471  0.4559
  313SOL    HW1  938   0.016   2.546   0.981  1.5356  1.4285  1.7089
  313SOL    HW2  939   2.974   2.573   1.015  0.9747  1.4808  2.7942
  314SOL     OW  940   1.255   2.240   1.358  0.0206 -0.2613  0.5006
  314SOL    HW1  941   1.355   2.239   1.333  0.9749 -0.3868 -0.2229
  314SOL    HW2  942   1.230   2.183   1.435  2.8552  0.5574 -0.3173
  315SOL     OW  943   0.389   3.014   2.323  0.1621  0.1033  0.0173
  315SOL    HW1  944   0.447   3.082   2.373 -0.5657 -0.7613  1.2486
  315SOL    HW2  945   0.407   3.016   2.220 -0.4572 -2.5168 -3.2507
  316SOL     OW  946   2.867   1.919   0.921 -0.0139  0.3378 -0.1940
  316SOL    HW1  947   2.952   1.953   0.881 -0.0375  1.8555  3.2265
  316SOL    HW2  948   2.881   1.899   1.023 -0.1560  1.5629  2.6712
  317SOL     OW  949   1.788   0.162   0.280 -0.4321 -0.0541 -0.1053
  317SOL    HW1  950   1.692   0.185   0.290 -2.0554  0.4207 -2.7008
  317SOL    HW2  951   1.829   0.198   0.371 -0.8820  2.6526  0.6457
  318SOL     OW  952   2.856   2.666   0.301 -0.0984 -0.4898  0.0099
  318SOL    HW1  953   2.837   2.691   0.201  0.1533 -2.8435 -0.8855
  318SOL    HW2  954   2.844   2.748   0.363  1.8427 -2.4870 -0.6782
  319SOL     OW  955   1.431   1.547   0.131  0.2378  0.0492 -0.3515
  319SOL    HW1  956   1.452   1.546   0.230 -2.2670  2.6781  2.0571
  319SOL    HW2  957   1.463   1.638   0.091  1.6781  3.1023 -0.4960
  320SOL     OW  958   0.514   2.933   2.796  0.2331 -0.4123  0.3366
  320SOL    HW1  959   0.479   2.900   2.703  0.3157 -0.7399 -0.2610
  320SOL    HW2  960   0.430   2.968   2.846  0.6668  2.5963  3.3667
  321SOL     OW  961   0.987   3.105   0.101 -0.3644  0.8226 -0.1383
  321SOL    HW1  962   0.981   3.070   0.198  1.1752 -0.8916  0.8861
  321SOL    HW2  963   0.987   3.031   0.037  1.3866  1.2737  1.4086
  322SOL     OW  964   2.497   1.117   1.931 -0.1447 -0.3743  0.2695
  322SOL    HW1  965   2.432   1.125   2.009 -2.2494  2.8310 -0.2113
  322SOL    HW2  966   2.539   1.205   1.913  2.6972  0.8961 -0.8139
  323SOL     OW  967   2.575   0.988   0.464 -0.0144 -0.0790  0.0661
  323SOL    HW1  968   2.567   0.888   0.437 -0.1633 -1.9563  1.3225
  323SOL    HW2  969   2.663   1.022   0.431  2.3451 -1.1885  1.5851
  324SOL     OW  970   0.110   0.533   2.618  0.3697 -0.1934  0.5840
  324SOL    HW1  971   0.122   0.580   2.707 -0.2636 -1.2016 -0.5172
  324SOL    HW2  972   0.196   0.494   2.580 -0.3400  2.3477 -2.9770
  325SOL     OW  973   1.433   2.837   2.029 -0.6411 -0.5966 -0.0921
  325SOL    HW1  974   1.497   2.821   1.949  0.3125  1.8583 -1.0923
  325SOL    HW2  975   1.337   2.820   2.007  0.7015  3.4825 -0.7029
  326SOL     OW  976   2.518   2.966   1.376 -0.1829 -0.3731 -0.5087
  326SOL    HW1  977   2.534   3.069   1.365 -0.5634  1.2806 -0.2829
  326SOL    HW2  978   2.537   2.925   1.288 -1.1567  1.3402  0.6323
  327SOL     OW  979   1.896   0.753   0.043 -0.0818 -0.0735 -0.0520
  327SOL    HW1  980   1.847   0.667   0.060 -1.7274  1.0113 -0.6577
  327SOL    HW2  981   2.000   0.747   0.026  2.4707 -0.7479  0.6198
  328SOL     OW  982   2.875   1.593   2.152  0.3288 -0.3192  0.1346
  328SOL    HW1  983   2.941   1.646   2.094  0.9312 -0.8702  2.4634
  328SOL    HW2  984   2.913   1.504   2.176 -0.6996  2.2628 -2.1905
  329SOL     OW  985   1.628   2.488   1.718 -0.5656  0.1894  0.5864
  329SOL    HW1  986   1.677   2.396   1.729 -1.0075 -2.3512 -1.2831
  329SOL    HW2  987   1.630   2.513   1.616  1.1191  2.1083  1.4776
  330SOL     OW  988   2.575   1.596   1.847  0.1810  0.2834 -0.1634
  330SOL    HW1  989   2.639   1.614   1.766 -0.0927 -3.1975 -0.3313
  330SOL    HW2  990   2.604   1.652   1.926 -1.4017 -1.3249 -0.5549
  331SOL     OW  991   3.048   2.194   0.646  0.5404  0.1210  0.1654
  331SOL    HW1  992   3.086   2.109   0.690  0.8894  1.2307  1.2435
  331SOL    HW2  993   3.106   2.231   0.575  0.0345 -0.0836  1.8696
  332SOL     OW  994   0.393   0.138   0.568 -0.6917  0.0802  0.0096
  332SOL    HW1  995   0.301   0.102   0.532 -1.4687  2.4947 -0.4869
  332SOL    HW2  996   0.431   0.073   0.642  0.7301 -2.6134  0.3656
  333SOL     OW  997   2.166   3.005   2.278  0.1439  0.7721  0.0520
  333SOL    HW1  998   2.204   2.977   2.197 -2.3837  1.3321  5.1503
  333SOL    HW2  999   2.116   3.091   2.265 -0.3363  0.3126 -1.9192
  334SOL     OW 1000   1.024   1.374   1.038 -0.0412 -0.0446 -0.4654
  334SOL    HW1 1001   1.011   1.361   0.936  1.5013 -2.1061 -0.2214
  334SOL    HW2 1002   1.119   1.403   1.056 -1.4362  1.1103 -0.9880
  335SOL     OW 1003   3.075   2.839   2.396 -0.6021  0.0735  0.2188
  335SOL    HW1 1004   0.043   2.783   2.399  0.4485 -1.0848 -1.8667
  335SOL    HW2 1005   3.066   2.899   2.474  1.4112  0.4258 -0.5934
  336SOL     OW 1006   2.941   2.725   2.051  0.0006  0.1063 -0.1098
  336SOL    HW1 1007   2.983   2.806   2.094 -2.0767 -0.1225  1.0871
  336SOL    HW2 1008   2.983   2.718   1.960 -0.9192 -2.0821  4.3116
  337SOL     OW 1009   2.135   1.566   0.641 -0.6050  0.4414  0.6524
  337SOL    HW1 1010   2.203   1.547   0.712 -2.4778  0.4723  1.1171
  337SOL    HW2 1011   2.075   1.482   0.620  0.7847 -0.8966  0.9816
  338SOL     OW 1012   1.215   1.725   1.279  0.4727 -0.4165 -0.0636
  338SOL    HW1 1013   1.147   1.761   1.344 -0.7411  2.0416 -3.4268
  338SOL    HW2 1014   1.285   1.793   1.258  1.8251 -1.4700  0.0330
  339SOL     OW 1015   2.897   0.501   1.169  0.4534  0.3425 -0.6953
  339SOL    HW1 1016   2.997   0.526   1.182  2.2097  0.9032 -1.2977
  339SOL    HW2 1017   2.832   0.551   1.226 -2.5737 -4.6347 -0.3211
  340SOL     OW 1018   1.723   2.681   1.895  0.1054  0.3534 -0.2500
  340SOL    HW1 1019   1.702   2.613   1.820 -0.9905 -0.0029 -1.7527
  340SOL    HW2 1020   1.810   2.666   1.941  0.4882  1.6896 -1.5858
  341SOL     OW 1021   2.269   1.489   0.866  0.3249  0.3371 -0.3021
  341SOL    HW1 1022   2.337   1.542   0.919 -0.9649  0.4656 -1.1773
  341SOL    HW2 1023   2.176   1.489   0.906  4.1682  2.8571 -0.5061
  342SOL     OW 1024   3.110   1.963   0.767 -0.3944 -0.2509  0.0980
  342SOL    HW1 1025   0.032   1.974   0.857 -0.8838  1.6877 -2.9042
  342SOL    HW2 1026   3.114   1.865   0.741  0.8247  0.7660 -1.0726
  343SOL     OW 1027   2.570   0.907   1.503 -0.0367  0.0434  0.6242
  343SOL    HW1 1028   2.481   0.956   1.513 -0.7414 -1.6414 -0.4760
  343SOL    HW2 1029   2.644   0.962   1.551  2.5898  0.6516  1.1924
  344SOL     OW 1030   2.319   0.629   0.683 -0.2831 -0.1426 -0.1469
  344SOL    HW1 1031   2.323   0.732   0.696  1.2415 -0.6224 -0.3853
  344SOL    HW2 1032   2.278   0.583   0.759  0.2207 -0.2120 -2.9675
  345SOL     OW 1033   3.029   2.933   2.157 -0.3002 -0.3018  0.0639
  345SOL    HW1 1034   3.040   2.893   2.252  1.6805 -2.0097 -0.4522
  345SOL    HW2 1035   2.979   3.020   2.156  2.9219  0.7331 -0.6126
  346SOL     OW 1036   3.089   1.214   0.345  0.4655  0.8206 -0.3291
  346SOL    HW1 1037   3.022   1.156   0.298  0.8881  1.5522 -2.6074
  346SOL    HW2 1038   3.116   1.287   0.285 -0.4628 -0.8285  0.6741
  347SOL     OW 1039   1.888   2.740   1.510 -0.9288 -0.0968  0.4713
  347SOL    HW1 1040   1.905   2.802   1.589  0.3220  2.9256  1.3822
  347SOL    HW2 1041   1.800   2.691   1.520  0.2950  0.2747  0.2263
  348SOL     OW 1042   1.132   1.124   1.876  0.0691  0.0373  0.4136
  348SOL    HW1 1043   1.184   1.197   1.919  4.0579  0.4487 -1.4583
  348SOL    HW2 1044   1.056   1.158   1.818 -3.8642 -0.9746 -3.1119
  349SOL     OW 1045   2.272   1.546   2.148  0.5399 -0.4034 -0.1511
  349SOL    HW1 1046   2.260   1.530   2.246  0.5472  0.6762  2.9460
  349SOL    HW2 1047   2.298   1.646   2.151 -3.0660 -0.8668 -2.2124
  350SOL     OW 1048   2.777   2.261   0.629  0.2585  0.0996  0.2353
  350SOL    HW1 1049   2.714   2.186   0.612 -1.0542 -1.4409 -2.1308
  350SOL    HW2 1050   2.870   2.228   0.629 -1.6090 -2.8155  0.2593
  351SOL     OW 1051   0.373   0.226   1.831  0.3815  0.1853  0.0127
  351SOL    HW1 1052   0.302   0.162   1.801  0.8428  1.8813  0.4411
  351SOL    HW2 1053   0.329   0.311   1.867 -1.1130  1.6173 -1.1474
  352SOL     OW 1054   1.303   2.679   1.640  0.1806  0.3013 -0.1609
  352SOL    HW1 1055   1.269   2.759   1.594  4.0295 -4.1353 -1.5647
  352SOL    HW2 1056   1.386   2.714   1.693  1.0836 -0.9576  2.0502
  353SOL     OW 1057   0.687   1.196   2.637 -0.1105  0.3464 -0.1583
  353SOL    HW1 1058   0.787   1.220   2.644  2.9368 -0.7611  0.7190
  353SOL    HW2 1059   0.626   1.248   2.579  0.2756 -1.7955  3.0487
  354SOL     OW 1060   1.463   1.511   0.419 -0.3948 -0.4748  0.0700
  354SOL    HW1 1061   1.533   1.561   0.474 -3.1932 -3.0980 -0.4900
  354SOL    HW2 1062   1.380   1.502   0.476  0.1786  0.7200  1.9148
  355SOL     OW 1063   1.903   0.036   0.805  0.0327  0.2199 -0.2160
  355SOL    HW1 1064   1.849   3.117   0.885 -1.2673 -1.5073  0.1223
  355SOL    HW2 1065   1.900   0.135   0.821 -4.3175 -0.3942 -0.2555
  356SOL     OW 1066   0.031   1.380   0.115 -0.2588  0.3141  0.6348
  356SOL    HW1 1067   0.125   1.335   0.105  0.5309 -0.7053 -0.0443
  356SOL    HW2 1068   3.079   1.325   0.065  0.5759 -2.9721 -2.3963
  357SOL     OW 1069   0.324   2.956   1.856 -0.3039 -0.3872 -0.0837
  357SOL    HW1 1070   0.393   2.990   1.926  2.9735 -2.7356 -0.7292
  357SOL    HW2 1071   0.231   2.943   1.902  2.2010  0.0621  2.0706
  358SOL     OW 1072   0.376   1.320   2.998  0.9768  0.2379 -0.1300
  358SOL    HW1 1073   0.297   1.302   2.936  0.9194  0.6434 -2.3791
  358SOL    HW2 1074   0.352   1.337   3.097  0.9407  3.2232  0.9027
  359SOL     OW 1075   2.833   2.693   2.699  0.0725 -0.3163 -0.1921
  359SOL    HW1 1076   2.740   2.686   2.743 -0.1216 -1.7963 -2.5971
  359SOL    HW2 1077   2.821   2.714   2.600  3.1672 -1.5511  0.6203
  360SOL     OW 1078   1.764   1.165   0.980  0.0544 -0.4254 -0.6823
  360SOL    HW1 1079   1.675   1.114   0.979 -1.6213 -1.7978 -3.7440
  360SOL    HW2 1080   1.842   1.098   0.990 -0.8614  0.1423  0.5665
  361SOL     OW 1081   2.067   2.543   1.011  0.1929 -0.2852 -0.8207
  361SOL    HW1 1082   2.138   2.479   0.976 -1.1358 -0.1095 -2.5953
  361SOL    HW2 1083   2.105   2.607   1.083 -0.1118 -0.0364 -0.6092
  362SOL     OW 1084   1.986   1.538   0.938  0.2832 -0.3139 -0.7365
  362SOL    HW1 1085   1.971   1.639   0.943  2.6628  0.1365 -0.2778
  362SOL    HW2 1086   1.910   1.495   0.880 -3.4979  1.9008  2.3873
  363SOL     OW 1087   2.380   2.281   0.248  0.1285  0.2061  0.0393
  363SOL    HW1 1088   2.326   2.202   0.276  0.7673  0.1324  0.6961
  363SOL    HW2 1089   2.477   2.256   0.251 -0.7391 -2.2422  0.1562
  364SOL     OW 1090   2.768   0.053   1.327  0.1691 -0.0314  0.1822
  364SOL    HW1 1091   2.763   0.112   1.413 -0.6031 -0.6913  3.5396
  364SOL    HW2 1092   2.840   3.094   1.333  1.3934 -0.9313 -2.3405
  365SOL     OW 1093   0.848   2.874   1.126 -0.4216 -0.2178 -0.0975
  365SOL    HW1 1094   0.859   2.843   1.028 -1.8989 -0.0645 -1.3105
  365SOL    HW2 1095   0.890   2.806   1.192  1.4284  1.8365  3.7854
  366SOL     OW 1096   3.111   1.798   0.416  0.2078  0.1912  0.8288
  366SOL    HW1 1097   3.064   1.885   0.392 -0.7909 -0.9560 -1.1342
  366SOL    HW2 1098   0.033   1.755   0.331  0.9815  1.8646 -2.1504
  367SOL     OW 1099   2.585   2.727   2.796 -0.3490 -0.2907 -0.0474
  367SOL    HW1 1100   2.516   2.793   2.759  2.9620  1.1938 -0.3390
  367SOL    HW2 1101   2.542   2.641   2.822  3.3374 -0.0589 -3.2801
  368SOL     OW 1102   2.532   2.186   0.859  0.0688 -0.1054  0.0179
  368SOL    HW1 1103   2.536   2.097   0.811  2.8273  0.9886  1.4100
  368SOL    HW2 1104   2.611   2.194   0.923  2.0595 -2.9002 -0.6033
  369SOL     OW 1105   1.086   1.061   0.630 -0.2429 -0.1956  0.2648
  369SOL    HW1 1106   1.070   0.966   0.660  1.7712  1.0811 -2.2162
  369SOL    HW2 1107   1.117   1.057   0.535  0.7758 -2.1114 -1.3803
  370SOL     OW 1108   0.501   3.084   0.748 -0.2723 -0.5043 -0.2769
  370SOL    HW1 1109   0.600   3.111   0.767 -0.1962  0.3299 -0.2388
  370SOL    HW2 1110   0.501   2.982   0.759 -1.9642 -0.8665 -1.8678
  371SOL     OW 1111   2.635   1.307   2.641  0.2626 -0.6259 -0.3243
  371SOL    HW1 1112   2.602   1.373   2.570  0.2982 -1.5331  1.1800
  371SOL    HW2 1113   2.686   1.236   2.587  0.8532  1.7681  0.9646
  372SOL     OW 1114   0.670   0.586   2.259  0.1590  0.5124 -0.1631
  372SOL    HW1 1115   0.669   0.520   2.183 -0.3929  1.5883 -2.2692
  372SOL    HW2 1116   0.650   0.540   2.347 -2.3276 -2.8588 -0.9664
  373SOL     OW 1117   0.599   0.407   2.920  0.5288 -0.2605 -0.1255
  373SOL    HW1 1118   0.687   0.427   2.876  0.6381 -1.6332  0.3610
  373SOL    HW2 1119   0.609   0.322   2.973 -1.8348  0.9522 -0.1281
  374SOL     OW 1120   0.954   2.156   0.133  0.4228  0.5659 -0.3465
  374SOL    HW1 1121   1.024   2.170   0.067 -0.1847 -1.5877 -2.3181
  374SOL    HW2 1122   0.879   2.094   0.097  2.3287  1.3636  2.7369
  375SOL     OW 1123   0.774   0.029   0.839 -0.5209  0.6037  0.0471
  375SOL    HW1 1124   0.756   0.050   0.940 -0.0502  1.3272 -1.3691
  375SOL    HW2 1125   0.794   0.116   0.792 -0.1339  1.8208  0.4973
  376SOL     OW 1126   0.339   2.516   1.810 -0.1254  0.0331 -0.8732
  376SOL    HW1 1127   0.285   2.548   1.896 -0.1219  0.9698  0.5676
  376SOL    HW2 1128   0.397   2.599   1.790  1.8358  3.5886  0.2620
  377SOL     OW 1129   2.445   2.113   2.979 -0.1723  0.2519  0.0696
  377SOL    HW1 1130   2.343   2.100   2.999 -2.0724 -3.0886 -1.1612
  377SOL    HW2 1131   2.460   2.108   2.879 -1.2404  2.3916  2.0081
  378SOL     OW 1132   1.918   0.314   0.492  0.3660 -0.1765  0.1456
  378SOL    HW1 1133   1.987   0.389   0.516 -0.2393 -0.7962 -0.3488
  378SOL    HW2 1134   1.955   0.224   0.516 -0.3996  0.6289 -1.8099
  379SOL     OW 1135   1.300   1.057   0.795 -0.0455 -0.3770 -0.0825
  379SOL    HW1 1136   1.213   1.086   0.755  2.4397  1.8269 -0.4197
  379SOL    HW2 1137   1.343   0.995   0.730 -0.2112  1.5161  2.0394
  380SOL     OW 1138   2.536   2.137   1.889 -0.2157 -0.1023 -0.5032
  380SOL    HW1 1139   2.593   2.061   1.938  0.5552 -1.6027  0.8381
  380SOL    HW2 1140   2.588   2.224   1.890  0.9587  0.1390 -1.6400
  381SOL     OW 1141   2.961   1.337   2.210  0.1396  0.6619 -0.6741
  381SOL    HW1 1142   2.970   1.287   2.299 -0.2609 -1.1944 -0.0951
  381SOL    HW2 1143   3.008   1.290   2.135 -0.0271  0.3196 -0.8888
  382SOL     OW 1144   2.776   2.235   0.161  0.2772 -0.6770 -0.0723
  382SOL    HW1 1145   2.872   2.211   0.181  1.0401  2.1243 -2.4984
  382SOL    HW2 1146   2.745   2.297   0.235  0.4393 -1.1089 -0.2246
  383SOL     OW 1147   1.262   0.873   2.247  0.2664  0.2247  0.2173
  383SOL    HW1 1148   1.180   0.912   2.204  0.3239 -1.1871  1.3234
  383SOL    HW2 1149   1.254   0.850   2.345 -3.8602  0.2961 -0.9089
  384SOL     OW 1150   1.147   2.128   2.355  0.3291  0.4489 -0.1551
  384SOL    HW1 1151   1.228   2.156   2.298 -2.7063 -1.0156  1.6526
  384SOL    HW2 1152   1.078   2.200   2.362  1.1765 -2.1083 -2.6885
  385SOL     OW 1153   2.184   2.408   2.967 -0.6276 -0.4503  0.2171
  385SOL    HW1 1154   2.221   2.484   2.906 -0.7585 -0.7937  0.9007
  385SOL    HW2 1155   2.192   2.442   3.064  1.2625 -0.4841  0.8023
  386SOL     OW 1156   1.559   1.243   0.614  0.4622 -0.4652  0.4978
  386SOL    HW1 1157   1.534   1.305   0.685  2.2457 -1.6378 -1.6235
  386SOL    HW2 1158   1.525   1.151   0.646 -0.4780 -2.5474 -3.2359
  387SOL     OW 1159   0.097   1.615   1.479 -0.1676  0.7653  0.2954
  387SOL    HW1 1160   0.053   1.598   1.568 -1.6762 -1.1682  0.4220
  387SOL    HW2 1161   0.074   1.548   1.408  0.5450  0.2353 -0.7880
  388SOL     OW 1162   0.602   1.320   1.602  0.2981 -0.1664  1.0180
  388SOL    HW1 1163   0.688   1.320   1.538  2.8306  1.5400  0.0469
  388SOL    HW2 1164   0.526   1.279   1.542 -1.3575 -0.6381 -1.7947
  389SOL     OW 1165   2.322   1.079   2.138  0.0572  0.0338  0.4410
  389SOL    HW1 1166   2.370   1.078   2.226  2.1361 -2.1815 -0.8601
  389SOL    HW2 1167   2.222   1.103   2.148 -0.9634  0.4011 -0.8085
  390SOL     OW 1168   1.188   1.712   0.482  0.0417  0.1811 -0.0296
  390SOL    HW1 1169   1.149   1.775   0.549  1.6928 -1.7882 -0.0334
  390SOL    HW2 1170   1.195   1.617   0.519  0.1004 -0.9650 -0.5714
  391SOL     OW 1171   1.090   1.876   0.716 -0.5950 -0.3482  0.5285
  391SOL    HW1 1172   1.144   1.815   0.776  0.2571 -2.2360  1.2023
  391SOL    HW2 1173   0.990   1.869   0.730  1.3813 -0.5683  0.4348
  392SOL     OW 1174   2.665   2.744   2.080  0.2422 -0.2723 -0.3276
  392SOL    HW1 1175   2.639   2.735   2.179 -0.2890 -1.7320  1.8836
  392SOL    HW2 1176   2.764   2.720   2.072  2.5512  0.2097  1.2734
  393SOL     OW 1177   1.259   2.395   2.971  0.7262 -0.3169  0.1599
  393SOL    HW1 1178   1.343   2.437   3.005 -2.7304  0.3004 -0.3803
  393SOL    HW2 1179   1.190   2.469   2.971  2.4406 -1.2699  1.1494
  394SOL     OW 1180   0.317   0.397   2.237  0.2949 -0.0853  0.4147
  394SOL    HW1 1181   0.353   0.474   2.181 -0.2542 -0.5330 -1.3127
  394SOL    HW2 1182   0.332   0.302   2.204  0.4974  0.6599  1.5921
  395SOL     OW 1183   0.021   0.956   1.105 -0.6165 -0.2244 -0.4582
  395SOL    HW1 1184   0.106   0.973   1.162  1.8827 -0.5271  0.1575
  395SOL    HW2 1185   0.013   0.863   1.085  0.8727  2.5896 -0.3840
  396SOL     OW 1186   2.134   1.537   2.667 -0.0881 -0.5942 -0.1904
  396SOL    HW1 1187   2.060   1.473   2.701 -0.3366  1.3895  2.8954
  396SOL    HW2 1188   2.105   1.631   2.699 -0.6746 -0.5466  0.7230
  397SOL     OW 1189   0.327   0.954   2.967  0.1051  0.1005 -0.1320
  397SOL    HW1 1190   0.420   0.962   3.011  0.9752  1.9193  0.0088
  397SOL    HW2 1191   0.306   1.034   2.907 -1.0851  0.5058 -1.0969
  398SOL     OW 1192   0.981   2.626   0.512  0.2625 -0.0508  0.2393
  398SOL    HW1 1193   1.077   2.596   0.526  0.0714  3.8521  1.1922
  398SOL    HW2 1194   0.960   2.710   0.562  1.6398 -0.4747 -0.5103
  399SOL     OW 1195   2.147   2.619   2.128 -0.1605  0.5829  0.4751
  399SOL    HW1 1196   2.174   2.606   2.223  0.5325  0.2487  1.3324
  399SOL    HW2 1197   2.110   2.535   2.079  0.3511 -0.2399  0.6642
  400SOL     OW 1198   0.215   1.521   1.813  0.3825  0.3549  0.3136
  400SOL    HW1 1199   0.207   1.471   1.902  2.1099  1.1717 -1.7393
  400SOL    HW2 1200   0.292   1.589   1.814  0.7814  2.2723  0.6257
  401SOL     OW 1201   0.636   0.998   0.736 -0.6835 -0.0862 -0.6272
  401SOL    HW1 1202   0.641   0.909   0.788  0.7365  0.9684  2.8652
  401SOL    HW2 1203   0.655   0.984   0.637  3.0330 -0.5592  1.1832
  402SOL     OW 1204   0.839   3.043   2.320  0.1420  0.4273 -0.3786
  402SOL    HW1 1205   0.936   3.063   2.349 -2.2753  3.1852  1.3185
  402SOL    HW2 1206   0.789   0.010   2.297  0.2816  0.3857  0.2383
  403SOL     OW 1207   2.741   1.993   1.998 -0.2222  0.1628  0.2575
  403SOL    HW1 1208   2.714   1.897   2.023 -0.0393 -0.7868  2.0047
  403SOL    HW2 1209   2.792   1.981   1.910 -1.5345  1.1140  1.4108
  404SOL     OW 1210   2.715   2.339   1.877  0.1257 -0.5644  0.1296
  404SOL    HW1 1211   2.789   2.311   1.938 -0.9493  0.3527  0.4977
  404SOL    HW2 1212   2.757   2.389   1.799 -1.2012  0.5647 -1.5110
  405SOL     OW 1213   1.896   3.037   2.701 -0.6228  0.1511 -0.1301
  405SOL    HW1 1214   1.932   2.947   2.664 -0.1935  1.0129 -0.2542
  405SOL    HW2 1215   1.847   3.084   2.628  0.7792 -2.1670  2.5151
  406SOL     OW 1216   1.106   1.773   0.236 -0.1193  0.0557 -1.3820
  406SOL    HW1 1217   1.176   1.834   0.200  0.8359  1.4163 -1.9267
  406SOL    HW2 1218   1.135   1.732   0.328  2.9071 -1.7194 -0.4107
  407SOL     OW 1219   1.608   1.289   0.349 -0.8684 -0.1028 -0.0280
  407SOL    HW1 1220   1.549   1.367   0.333  0.8673 -1.1893 -0.4908
  407SOL    HW2 1221   1.602   1.266   0.454  0.6908  0.0560  2.3399
  408SOL     OW 1222   0.290   0.513   1.651 -0.0795  0.1568 -0.3292
  408SOL    HW1 1223   0.253   0.498   1.750 -0.5550  0.2591  2.8913
  408SOL    HW2 1224   0.383   0.553   1.672  1.1064  1.9602  1.9582
  409SOL     OW 1225   2.735   1.371   3.075  0.0532 -0.4035 -0.0934
  409SOL    HW1 1226   2.636   1.379   3.045 -0.9917  1.4752 -0.2562
  409SOL    HW2 1227   2.754   1.464   3.114 -0.4760  1.9830 -0.1808
  410SOL     OW 1228   2.761   2.827   0.735 -0.0639  0.5905  0.3368
  410SOL    HW1 1229   2.830   2.850   0.811  1.0629  0.0512  1.7045
  410SOL    HW2 1230   2.746   2.728   0.714 -1.0839 -2.5975  1.0730
  411SOL     OW 1231   0.425   0.413   0.408  0.0012  0.9221 -0.5564
  411SOL    HW1 1232   0.443   0.384   0.506  0.3585 -1.9159 -1.0909
  411SOL    HW2 1233   0.511   0.405   0.353 -0.5261  1.5644  0.3616
  412SOL     OW 1234   1.334   2.812   0.604 -0.1077 -0.2430  0.4265
  412SOL    HW1 1235   1.317   2.884   0.537  3.2112 -0.0708 -0.4433
  412SOL    HW2 1236   1.297   2.720   0.575  0.5146  2.5036  0.6945
  413SOL     OW 1237   1.932   0.562   2.034 -0.0271 -0.2969 -0.8847
  413SOL    HW1 1238   2.003   0.504   1.990 -2.9141  2.1578 -1.0113
  413SOL    HW2 1239   1.844   0.521   2.004 -3.3392  0.1507 -0.1556
  414SOL     OW 1240   0.125   0.788   0.847  0.0365  0.0804  0.1446
  414SOL    HW1 1241   0.095   0.730   0.770 -2.8907 -1.6067  1.9019
  414SOL    HW2 1242   0.146   0.881   0.818 -2.1085 -0.1874 -1.2328
  415SOL     OW 1243   2.927   0.812   0.462  0.1717  0.3013 -0.9529
  415SOL    HW1 1244   2.885   0.903   0.465  0.7453  1.2990  0.2388
  415SOL    HW2 1245   2.985   0.802   0.377 -1.6591  3.3080 -0.0851
  416SOL     OW 1246   2.522   0.566   2.712  0.3523 -0.2416 -0.2271
  416SOL    HW1 1247   2.497   0.611   2.623 -1.0391  2.0251 -1.4957
  416SOL    HW2 1248   2.615   0.590   2.735 -0.3367  2.0637 -0.3885
  417SOL     OW 1249   2.334   0.265   0.574  0.3453 -0.2512 -0.2359
  417SOL    HW1 1250   2.307   0.172   0.552  1.4815  2.2490 -0.7759
  417SOL    HW2 1251   2.323   0.325   0.495 -1.2984 -0.0300  2.2563
  418SOL     OW 1252   0.479   0.100   0.120  0.1287 -0.2111  0.2479
  418SOL    HW1 1253   0.522   0.168   0.177 -1.5802 -3.8051 -1.9583
  418SOL    HW2 1254   0.379   0.116   0.112  0.1850 -0.1142 -0.5200
  419SOL     OW 1255   0.524   0.683   1.154  0.7736 -0.1862  0.0904
  419SOL    HW1 1256   0.507   0.715   1.253 -0.9819 -0.1629 -0.9274
  419SOL    HW2 1257   0.573   0.596   1.153 -0.4668 -0.8561 -1.3620
  420SOL     OW 1258   2.966   1.038   1.319  0.7566  0.0557  0.4164
  420SOL    HW1 1259   3.012   1.002   1.240  0.6206  1.7676  1.3194
  420SOL    HW2 1260   2.916   1.123   1.293  0.0498 -0.0284 -2.3206
  421SOL     OW 1261   0.762   1.781   3.025 -0.0753 -0.2688 -0.1959
  421SOL    HW1 1262   0.669   1.754   2.996  1.0348 -3.2981 -1.7861
  421SOL    HW2 1263   0.758   1.874   3.078  0.0572  1.7598  1.2645
  422SOL     OW 1264   2.518   0.299   2.228  0.2083  0.0136 -0.0668
  422SOL    HW1 1265   2.581   0.368   2.201  0.5097 -2.8442  2.2955
  422SOL    HW2 1266   2.420   0.325   2.209  0.7684  2.5420 -0.8567
  423SOL     OW 1267   1.902   1.420   3.107  0.0639  0.5403 -0.2407
  423SOL    HW1 1268   1.955   1.504   3.084  2.2827 -0.4433  1.1969
  423SOL    HW2 1269   1.805   1.433   3.096 -0.6886 -1.0096  1.6815
  424SOL     OW 1270   1.261   1.355   2.046 -0.2738  0.4925  0.1425
  424SOL    HW1 1271   1.170   1.400   2.053  2.2841 -1.8508  0.2753
  424SOL    HW2 1272   1.298   1.331   2.139 -0.0327  0.7235  1.4284
  425SOL     OW 1273   0.189   2.588   2.021  0.3924 -0.3847  0.5915
  425SOL    HW1 1274   0.250   2.592   2.102  0.3927  0.1911  0.2287
  425SOL    HW2 1275   0.128   2.674   2.010 -0.7156  2.5052 -0.7549
  426SOL     OW 1276   2.312   2.776   0.589 -0.0228 -0.1876  1.2076
  426SOL    HW1 1277   2.211   2.773   0.570 -0.2417  1.0352  2.0565
  426SOL    HW2 1278   2.322   2.743   0.687  2.3850  0.6284  1.7811
  427SOL     OW 1279   0.410   0.891   2.663 -0.4430  0.2311 -0.1489
  427SOL    HW1 1280   0.374   0.988   2.683  0.7181 -0.9117 -0.1953
  427SOL    HW2 1281   0.506   0.892   2.695  0.3662  0.8423  2.2864
  428SOL     OW 1282   2.798   1.540   2.657  0.2980  0.1652  0.7837
  428SOL    HW1 1283   2.735   1.458   2.664 -1.4520  0.3822  1.5638
  428SOL    HW2 1284   2.751   1.619   2.612  1.1941  0.0556 -1.4731
  429SOL     OW 1285   2.255   0.351   0.316  0.4392 -0.9381 -0.2416
  429SOL    HW1 1286   2.197   0.337   0.236 -0.0713 -1.6746  0.7768
  429SOL    HW2 1287   2.343   0.298   0.302  1.0204 -2.6444 -1.9729
  430SOL     OW 1288   1.555   2.232   2.415 -0.0581 -0.4757  0.0518
  430SOL    HW1 1289   1.617   2.197   2.348  0.1897  2.3283 -1.7622
  430SOL    HW2 1290   1.461   2.227   2.370 -0.3891 -2.0803 -1.0294
  431SOL     OW 1291   0.137   1.836   1.830 -0.0534  0.0172  0.1819
  431SOL    HW1 1292   0.088   1.793   1.907 -1.9706 -1.2604 -0.3603
  431SOL    HW2 1293   0.218   1.784   1.819 -0.2280  0.9971 -0.9270
  432SOL     OW 1294   1.472   2.202   1.965  0.3743  0.4094 -0.1222
  432SOL    HW1 1295   1.546   2.137   1.927 -0.1793  1.1365 -1.4311
  432SOL    HW2 1296   1.449   2.262   1.887  1.3911  0.4273 -2.3272
  433SOL     OW 1297   1.107   2.127   0.361  0.1610 -0.0146 -0.0982
  433SOL    HW1 1298   1.196   2.130   0.309  1.2711 -1.3193  1.3128
  433SOL    HW2 1299   1.022   2.124   0.301 -1.9677  1.6713  1.5100
  434SOL     OW 1300   0.301   2.170   2.612  0.6761  0.2518  0.0039
  434SOL    HW1 1301   0.356   2.202   2.532  0.1581 -0.3278  0.3903
  434SOL    HW2 1302   0.292   2.237   2.690  0.2285  1.6195  0.4864
  435SOL     OW 1303   0.237   1.129   0.340  0.0562 -0.1949  0.0087
  435SOL    HW1 1304   0.137   1.141   0.344 -1.0588  0.0934 -0.0441
  435SOL    HW2 1305   0.283   1.124   0.427 -0.6103 -1.0672 -3.3185
  436SOL     OW 1306   0.467   2.732   1.777  0.5158  0.1695 -0.2662
  436SOL    HW1 1307   0.419   2.809   1.813 -0.6097 -0.7725  0.3862
  436SOL    HW2 1308   0.519   2.753   1.689  0.2250 -0.4121 -0.7901
  437SOL     OW 1309   0.928   0.235   0.482 -0.2528 -0.4334 -0.3016
  437SOL    HW1 1310   0.927   0.325   0.439  1.7273 -0.1511  0.4583
  437SOL    HW2 1311   0.843   0.186   0.464  0.7789 -0.2190 -1.5534
  438SOL     OW 1312   0.664   2.209   0.507  0.3813 -0.2926  0.3230
  438SOL    HW1 1313   0.736   2.279   0.489  1.8992  2.8863 -0.9696
  438SOL    HW2 1314   0.583   2.251   0.557 -1.7463 -0.7762  0.7764
  439SOL     OW 1315   0.643   2.581   1.573  0.1430  0.0125  0.5086
  439SOL    HW1 1316   0.593   2.517   1.506 -0.3804 -0.9015 -2.2072
  439SOL    HW2 1317   0.702   2.645   1.524 -0.2647 -0.3245 -0.0344
  440SOL     OW 1318   1.988   2.940   1.699 -0.1461  0.0123 -0.0077
  440SOL    HW1 1319   1.927   2.940   1.781 -0.0930  3.9943 -0.6648
  440SOL    HW2 1320   2.078   2.897   1.718  0.8721 -0.6928 -3.6297
  441SOL     OW 1321   2.651   0.504   1.869  0.7240 -0.6606  0.2755
  441SOL    HW1 1322   2.665   0.405   1.870  0.5974  3.0655  0.4194
  441SOL    HW2 1323   2.743   0.551   1.860  0.6471  4.8324 -2.9452
  442SOL     OW 1324   1.817   2.261   0.786  0.6095 -0.6136 -0.2452
  442SOL    HW1 1325   1.879   2.339   0.766  0.4296 -0.2305  0.4944
  442SOL    HW2 1326   1.748   2.254   0.711 -0.2721 -0.2506 -0.5524
  443SOL     OW 1327   2.696   0.643   2.319 -0.4296 -0.4102 -0.5245
  443SOL    HW1 1328   2.718   0.566   2.253 -0.2563  0.7469  1.5436
  443SOL    HW2 1329   2.760   0.721   2.303 -0.3604  0.5064  0.5851
  444SOL     OW 1330   1.917   1.034   1.947 -0.3496  0.4782  0.6489
  444SOL    HW1 1331   1.845   1.090   1.905  1.1392  1.3105  2.3579
  444SOL    HW2 1332   1.927   0.938   1.909 -2.2077  0.4476 -1.2366
  445SOL     OW 1333   2.989   2.333   1.256 -0.0408  0.0408  0.1349
  445SOL    HW1 1334   2.914   2.335   1.326 -0.6897 -0.5718 -1.9123
  445SOL    HW2 1335   2.969   2.384   1.172  0.5368 -0.3565  1.4634
  446SOL     OW 1336   2.865   1.581   0.742 -0.3111 -0.1965 -0.2118
  446SOL    HW1 1337   2.889   1.494   0.700 -0.6977 -0.1262 -2.2797
  446SOL    HW2 1338   2.943   1.625   0.789 -0.4553 -1.3348 -1.5531
  447SOL     OW 1339   0.436   0.981   1.006  0.6555 -0.5208 -0.0269
  447SOL    HW1 1340   0.518   0.981   1.065 -0.5548  0.2940 -0.4741
  447SOL    HW2 1341   0.455   0.933   0.922 -0.2200 -0.5727  0.8683
  448SOL     OW 1342   1.403   1.240   1.616 -0.6184 -0.1694  0.0314
  448SOL    HW1 1343   1.424   1.174   1.691 -1.1557  1.4896 -2.0906
  448SOL    HW2 1344   1.390   1.336   1.644  0.3986 -2.9406  1.6206
  449SOL     OW 1345   1.138   1.133   0.110  0.4507  0.2954 -0.1649
  449SOL    HW1 1346   1.205   1.076   0.055  0.3291 -1.1400  1.5679
  449SOL    HW2 1347   1.044   1.133   0.071  0.3311  0.6478  0.0734
  450SOL     OW 1348   2.493   2.366   2.231 -0.1364 -0.5716  0.3795
  450SOL    HW1 1349   2.552   2.442   2.266 -1.0914  0.5669  0.3497
  450SOL    HW2 1350   2.549   2.295   2.187 -3.3611  1.2936 -0.2082
  451SOL     OW 1351   1.932   2.838   2.389 -0.1288 -0.2952 -0.8214
  451SOL    HW1 1352   1.930   2.798   2.485  1.0775  4.1170  1.9392
  451SOL    HW2 1353   2.025   2.877   2.368  1.7776  2.9995  1.9283
  452SOL     OW 1354   1.515   2.825   1.397 -0.2135 -0.5603  0.4546
  452SOL    HW1 1355   1.424   2.851   1.430 -1.2247 -2.2551  0.6292
  452SOL    HW2 1356   1.529   2.726   1.417  1.3109  1.4947  0.9677
  453SOL     OW 1357   1.805   0.958   1.216  0.5467  0.2478 -0.7996
  453SOL    HW1 1358   1.880   0.975   1.151  1.9088  1.5555 -1.0462
  453SOL    HW2 1359   1.741   1.038   1.227 -1.4040  0.7688  0.3072
  454SOL     OW 1360   0.351   1.322   0.950  0.4503 -0.4376 -0.0503
  454SOL    HW1 1361   0.439   1.314   1.010  0.0400 -1.0992  1.5205
  454SOL    HW2 1362   0.380   1.337   0.853  0.1487 -2.0798  1.2127
  455SOL     OW 1363   2.539   3.034   0.339  0.4958 -1.2408  0.6102
  455SOL    HW1 1364   2.511   2.995   0.247  1.8982  1.0217 -2.9202
  455SOL    HW2 1365   2.616   2.986   0.382 -1.4006 -0.1735 -0.8454
  456SOL     OW 1366   2.822   2.480   1.061 -0.4162 -0.2497  0.5894
  456SOL    HW1 1367   2.760   2.536   1.117 -2.9363  1.0173  1.0613
  456SOL    HW2 1368   2.779   2.392   1.035 -0.0662  2.2512  1.3167
  457SOL     OW 1369   1.179   0.193   0.543 -0.3492  0.4218 -0.1672
  457SOL    HW1 1370   1.180   0.151   0.637 -1.5203 -0.3447 -1.4331
  457SOL    HW2 1371   1.085   0.214   0.511 -2.8518 -0.9021 -1.4905
  458SOL     OW 1372   2.578   0.704   0.397  0.2257  0.4757  0.0435
  458SOL    HW1 1373   2.599   0.677   0.493 -0.4960 -0.1309  0.5124
  458SOL    HW2 1374   2.494   0.652   0.363 -0.6563  0.4646 -0.4491
  459SOL     OW 1375   2.038   0.320   2.654  0.0625  0.1296  0.4487
  459SOL    HW1 1376   1.989   0.294   2.566 -0.6165 -0.6260 -1.2214
  459SOL    HW2 1377   2.138   0.303   2.647 -0.1707  0.0621  0.8698
  460SOL     OW 1378   2.686   0.037   2.836 -0.2420  0.1230  0.2371
  460SOL    HW1 1379   2.736   3.073   2.796  0.0509 -1.4015 -0.2130
  460SOL    HW2 1380   2.591   0.036   2.804  1.5464  0.5582 -1.5817
  461SOL     OW 1381   1.215   1.664   0.832 -0.7587  0.3073 -0.1403
  461SOL    HW1 1382   1.226   1.635   0.927 -0.6435 -0.5631  0.3043
  461SOL    HW2 1383   1.157   1.603   0.776 -1.5179 -0.5138  0.4849
  462SOL     OW 1384   2.584   2.777   1.553 -0.1649 -0.2046  0.4581
  462SOL    HW1 1385   2.684   2.761   1.527  1.9003 -0.3395 -0.8270
  462SOL    HW2 1386   2.536   2.847   1.489  1.9049  0.6042 -2.2009
  463SOL     OW 1387   2.524   1.081   0.698  0.4730 -0.1313  0.1313
  463SOL    HW1 1388   2.533   1.052   0.600  0.9063  0.2951  1.5980
  463SOL    HW2 1389   2.616   1.063   0.744  0.2671 -2.5790  0.9295
  464SOL     OW 1390   0.478   2.628   1.154 -0.0237 -0.1374  0.5173
  464SOL    HW1 1391   0.420   2.621   1.067  0.4709 -0.3670 -1.3663
  464SOL    HW2 1392   0.423   2.598   1.235  1.6878 -2.5964  0.7005
  465SOL     OW 1393   0.018   1.649   0.143 -0.2154 -0.3451 -0.2624
  465SOL    HW1 1394   0.022   1.549   0.133 -0.9405  0.6642  1.4112
  465SOL    HW2 1395   3.041   1.687   0.127 -2.4107 -2.2932 -0.7196
  466SOL     OW 1396   1.585   0.265   2.793 -0.0289  0.1707  0.2578
  466SOL    HW1 1397   1.529   0.332   2.846  1.5566  0.5352 -0.1820
  466SOL    HW2 1398   1.618   0.186   2.850 -0.0071  2.3409  0.0594
  467SOL     OW 1399   1.004   0.752   2.029 -0.1417 -0.5043  0.7606
  467SOL    HW1 1400   1.082   0.715   1.977  1.0757  1.9437 -1.9406
  467SOL    HW2 1401   1.039   0.834   2.081 -0.1115 -1.6713 -1.3052
  468SOL     OW 1402   0.298   1.067   2.321 -1.0837 -0.1561  0.3846
  468SOL    HW1 1403   0.325   0.970   2.336  0.0611  0.2352  1.5527
  468SOL    HW2 1404   0.367   1.120   2.368 -4.7810 -3.8057  3.2230
  469SOL     OW 1405   0.070   2.081   0.040  0.2548 -0.2474 -0.4998
  469SOL    HW1 1406   3.104   2.054   3.102  1.0714  0.1600  2.7821
  469SOL    HW2 1407   0.037   2.150   0.109 -0.2423 -0.1693  4.3474
  470SOL     OW 1408   2.492   1.696   2.752 -0.2939  0.7034  0.0656
  470SOL    HW1 1409   2.438   1.615   2.779  0.9907 -0.0912 -0.2202
  470SOL    HW2 1410   2.540   1.732   2.839  2.1271  2.0825 -0.3394
  471SOL     OW 1411   2.242   0.660   2.338 -0.2279  0.3805 -0.1538
  471SOL    HW1 1412   2.243   0.712   2.249 -0.1563  2.1108 -0.0594
  471SOL    HW2 1413   2.155   0.639   2.381  5.1337 -1.8880 -2.3207
  472SOL     OW 1414   0.614   2.375   1.152 -0.1345 -0.0343 -0.1713
  472SOL    HW1 1415   0.712   2.394   1.177 -0.4521 -1.0562  0.6073
  472SOL    HW2 1416   0.560   2.459   1.133  0.4296 -0.2963  1.4377
  473SOL     OW 1417   0.551   0.052   2.474  0.0611 -0.0282 -0.3721
  473SOL    HW1 1418   0.577   0.056   2.571  1.7209 -0.0631 -0.7446
  473SOL    HW2 1419   0.619   0.102   2.414 -2.2138 -2.6416 -2.2857
  474SOL     OW 1420   1.605   3.057   1.905  0.7748  0.0808 -0.4178
  474SOL    HW1 1421   1.600   0.034   1.868 -2.4142 -0.0958 -0.0537
  474SOL    HW2 1422   1.600   3.066   2.010  0.1735  1.5219  4.8509
  475SOL     OW 1423   1.675   2.580   0.715  0.3201  0.1208  0.2771
  475SOL    HW1 1424   1.778   2.566   0.731  0.7820  0.3629  1.3961
  475SOL    HW2 1425   1.658   2.613   0.619 -2.6604  1.3572  1.9249
  476SOL     OW 1426   0.225   0.744   1.096  0.2114  0.6072  0.0671
  476SOL    HW1 1427   0.204   0.758   0.998  0.7793 -0.1328  0.5028
  476SOL    HW2 1428   0.320   0.769   1.117 -3.4582 -0.3022 -2.4180
  477SOL     OW 1429   1.418   2.141   0.609 -0.2331  0.5997  0.2424
  477SOL    HW1 1430   1.458   2.104   0.522 -2.2213  0.4051  2.2433
  477SOL    HW2 1431   1.316   2.139   0.604  1.2751 -2.2446 -0.0345
  478SOL     OW 1432   0.186   2.686   2.406 -0.0846  0.3466  0.2295
  478SOL    HW1 1433   0.233   2.683   2.493 -1.1321  1.4929 -2.1930
  478SOL    HW2 1434   0.253   2.666   2.333 -2.4933  2.1797  3.7251
  479SOL     OW 1435   2.512   0.522   0.936  0.2428 -0.1167 -0.5062
  479SOL    HW1 1436   2.609   0.505   0.964  2.3713  2.9252  3.6432
  479SOL    HW2 1437   2.468   0.444   0.886 -1.1671  0.6986 -2.0131
  480SOL     OW 1438   0.020   3.043   0.105  0.0769 -0.0997  0.6355
  480SOL    HW1 1439   0.075   2.986   0.161 -2.4343  1.4824 -0.2001
  480SOL    HW2 1440   3.070   3.101   0.158  1.9075  1.0994  0.0555
  481SOL     OW 1441   2.768   2.294   1.452 -0.4577  0.0684 -0.2489
  481SOL    HW1 1442   2.774   2.202   1.488  0.3016  1.0519  0.9618
  481SOL    HW2 1443   2.777   2.360   1.525  0.8616 -3.2624  3.0738
  482SOL     OW 1444   1.055   2.606   2.720 -0.0592  0.4640 -0.2094
  482SOL    HW1 1445   1.137   2.576   2.663 -0.6589 -1.4133 -1.5427
  482SOL    HW2 1446   0.971   2.627   2.661 -0.3406 -0.2802 -0.0037
  483SOL     OW 1447   0.689   2.427   2.575 -0.6327 -0.1617 -0.1205
  483SOL    HW1 1448   0.703   2.365   2.654  0.0443 -0.0940  0.3118
  483SOL    HW2 1449   0.699   2.374   2.488  0.3823 -0.2999 -2.1021
  484SOL     OW 1450   1.201   0.912   1.703  0.2298  0.5763 -0.4773
  484SOL    HW1 1451   1.207   0.970   1.784 -2.2391 -1.7372 -2.8226
  484SOL    HW2 1452   1.259   0.832   1.718  0.1175  0.6080 -2.3370
  485SOL     OW 1453   2.417   0.947   2.809 -0.5750  0.0285  0.7013
  485SOL    HW1 1454   2.353   0.922   2.730 -0.9887  0.3247 -0.8358
  485SOL    HW2 1455   2.362   0.997   2.881 -1.1201  0.8664  1.3707
  486SOL     OW 1456   2.549   2.840   1.146  0.2350 -0.0965  0.0454
  486SOL    HW1 1457   2.462   2.790   1.163 -1.9081 -2.2064 -0.9911
  486SOL    HW2 1458   2.565   2.854   1.043  2.6486 -0.8606 -3.1228
  487SOL     OW 1459   0.496   1.878   1.612 -0.0934  0.6112 -0.4009
  487SOL    HW1 1460   0.563   1.807   1.589 -0.8363  0.7813  0.1345
  487SOL    HW2 1461   0.430   1.871   1.540  3.2357 -0.6827  2.7680
  488SOL     OW 1462   2.463   1.368   3.039 -0.1607 -0.0694 -0.2215
  488SOL    HW1 1463   2.389   1.386   3.109  0.8628  1.1400 -0.1176
  488SOL    HW2 1464   2.437   1.412   2.952 -0.1834 -1.0818  0.0221
  489SOL     OW 1465   1.731   0.040   1.098  0.6806 -0.6031 -0.2096
  489SOL    HW1 1466   1.768   0.042   1.193  0.6603  1.0330  0.2247
  489SOL    HW2 1467   1.693   0.136   1.074  0.7921  1.3824 -0.4660
  490SOL     OW 1468   0.803   0.742   0.448  0.0280 -0.2598  0.0032
  490SOL    HW1 1469   0.726   0.802   0.463  2.3021 -1.2250 -0.3587
  490SOL    HW2 1470   0.832   0.730   0.350 -0.4906  0.5728  0.4842
  491SOL     OW 1471   0.689   2.297   0.875 -0.2401  0.2265 -0.4860
  491SOL    HW1 1472   0.775   2.298   0.821 -0.9462  3.2328  1.4026
  491SOL    HW2 1473   0.704   2.304   0.974  0.2646 -0.1345 -1.5087
  492SOL     OW 1474   1.357   1.802   2.105  0.1024  0.1816 -0.6804
  492SOL    HW1 1475   1.318   1.888   2.069 -1.3289 -3.8685 -1.6217
  492SOL    HW2 1476   1.346   1.720   2.039  1.1306  0.1269 -1.1478
  493SOL     OW 1477   2.713   2.510   0.672  0.1938  0.0596 -0.1779
  493SOL    HW1 1478   2.753   2.417   0.659  2.3891  2.3881 -0.5467
  493SOL    HW2 1479   2.612   2.505   0.680  1.0585  0.5780 -0.7874
  494SOL     OW 1480   2.578   2.055   0.095  0.1892 -0.3320 -0.7560
  494SOL    HW1 1481   2.544   2.074   3.115 -1.8873 -2.0315 -1.5569
  494SOL    HW2 1482   2.633   2.126   0.141 -0.5369 -2.4564 -0.2950
  495SOL     OW 1483   2.805   2.461   3.029 -0.5389 -0.1737 -0.0350
  495SOL    HW1 1484   2.832   2.422   2.943 -2.3380  1.2465  2.6756
  495SOL    HW2 1485   2.806   2.384   3.097  0.1745 -3.6351  0.3439
  496SOL     OW 1486   2.727   0.055   1.649  1.2359 -0.3712 -0.3829
  496SOL    HW1 1487   2.652   0.087   1.590  1.3054  1.5354  0.3754
  496SOL    HW2 1488   2.699   3.084   1.689  1.9013  0.0936  2.4104
  497SOL     OW 1489   2.936   1.219   0.057 -0.4916 -0.1622 -0.1267
  497SOL    HW1 1490   2.893   1.128   0.026 -0.3709 -3.1168 -0.1777
  497SOL    HW2 1491   2.876   1.296   0.029 -0.6076 -4.6948  0.7292
  498SOL     OW 1492   3.089   1.734   2.030  0.1926 -0.3387 -0.6005
  498SOL    HW1 1493   3.069   1.834   2.051  0.8357  0.7696 -2.7931
  498SOL    HW2 1494   0.010   1.689   2.111  0.3156  0.4571  1.6860
  499SOL     OW 1495   0.624   2.402   2.960  0.1198 -0.3533  0.3206
  499SOL    HW1 1496   0.714   2.435   2.934  0.1136  0.2070  3.3373
  499SOL    HW2 1497   0.629   2.300   2.976  1.4462 -1.3818  2.2227
  500SOL     OW 1498   1.651   0.053   2.976 -0.1723 -0.0912  0.7154
  500SOL    HW1 1499   1.591   0.048   3.058  1.6200 -1.6906 -0.2448
  500SOL    HW2 1500   1.667   3.076   2.944  0.2242  0.7968  0.5148
  501SOL     OW 1501   1.251   0.136   1.538 -0.0990 -0.5206 -0.1829
  501SOL    HW1 1502   1.352   0.154   1.551  3.4429  1.8703  1.3831
  501SOL    HW2 1503   1.237   0.072   1.459  0.1394  1.2937 -1.0664
  502SOL     OW 1504   2.639   0.893   1.946 -0.8394 -0.4614  0.4792
  502SOL    HW1 1505   2.601   0.986   1.941 -0.8206  1.6719 -0.7953
  502SOL    HW2 1506   2.575   0.817   1.948  1.7274  0.9894  0.6784
  503SOL     OW 1507   2.123   1.967   2.366 -0.3848  0.3819 -0.4284
  503SOL    HW1 1508   2.168   2.033   2.427 -1.0499  1.1895 -0.6411
  503SOL    HW2 1509   2.025   1.983   2.353  0.1387 -1.4509 -2.5701
  504SOL     OW 1510   1.395   0.515   1.528  0.1774 -0.3487 -0.4381
  504SOL    HW1 1511   1.373   0.515   1.427 -0.9374 -0.3123  1.8771
  504SOL    HW2 1512   1.324   0.457   1.579 -0.1955  0.6502 -0.4354
  505SOL     OW 1513   0.772   0.837   1.954 -0.2126  0.1882 -0.0694
  505SOL    HW1 1514   0.743   0.912   1.888  0.4963  0.2215 -0.9043
  505SOL    HW2 1515   0.873   0.822   1.969 -1.0982  1.7740  1.9192
  506SOL     OW 1516   0.476   0.650   2.557  0.0873 -0.0355 -0.2746
  506SOL    HW1 1517   0.429   0.731   2.591 -0.1358 -2.1836  4.1746
  506SOL    HW2 1518   0.574   0.648   2.578 -2.5662 -1.3484 -2.9100
  507SOL     OW 1519   0.219   0.139   0.078  0.2955 -0.3314 -0.5929
  507SOL    HW1 1520   0.141   0.080   0.064  1.9739  1.6169  2.8594
  507SOL    HW2 1521   0.226   0.192   3.107 -2.2535  0.2938  2.7628
  508SOL     OW 1522   1.242   1.063   1.489  0.2310 -0.3129 -0.4976
  508SOL    HW1 1523   1.221   1.007   1.568  1.1322  2.2659 -1.7378
  508SOL    HW2 1524   1.306   1.133   1.522 -0.4855  1.5022 -0.1677
  509SOL     OW 1525   1.769   2.127   1.172 -0.2513  0.6080  0.0811
  509SOL    HW1 1526   1.685   2.183   1.180  1.0494 -2.7199 -1.3347
  509SOL    HW2 1527   1.842   2.156   1.238 -1.2806 -0.8145 -1.3111
  510SOL     OW 1528   2.663   1.358   1.956 -0.6201 -0.0471  0.0373
  510SOL    HW1 1529   2.632   1.444   1.906 -0.0270 -0.1432  0.2796
  510SOL    HW2 1530   2.627   1.366   2.047  2.5388  0.4458 -1.3551
  511SOL     OW 1531   0.795   2.207   1.527  0.2513 -0.6095  0.1960
  511SOL    HW1 1532   0.827   2.192   1.430  0.5318  1.2919 -1.8727
  511SOL    HW2 1533   0.701   2.178   1.545  2.7271 -1.0420 -1.4084
  512SOL     OW 1534   2.627   1.921   0.786  0.3149  0.4755  0.1451
  512SOL    HW1 1535   2.643   1.965   0.696 -0.8056 -1.2454  3.3154
  512SOL    HW2 1536   2.714   1.907   0.841 -0.5940  2.5936 -0.5740
  513SOL     OW 1537   3.102   1.733   2.925  0.3202  0.2391 -0.1351
  513SOL    HW1 1538   0.048   1.806   2.898  1.4203  1.3849 -1.8124
  513SOL    HW2 1539   0.019   1.690   3.010  0.3874  0.3704  0.2147
  514SOL     OW 1540   2.910   2.521   2.258 -0.4151  0.9140  0.3463
  514SOL    HW1 1541   2.979   2.511   2.331  2.3344  1.1608 -1.3336
  514SOL    HW2 1542   2.948   2.574   2.175 -0.1840 -0.4720 -2.4042
  515SOL     OW 1543   2.251   1.195   0.976  0.5024  0.1097 -0.0180
  515SOL    HW1 1544   2.205   1.158   0.893  4.0798 -1.2348  1.9418
  515SOL    HW2 1545   2.201   1.275   1.013 -1.6218 -0.1810  0.5260
  516SOL     OW 1546   2.101   2.044   0.139 -0.7741  0.0831  0.3618
  516SOL    HW1 1547   2.156   2.067   0.218  0.9515  0.7533 -2.6721
  516SOL    HW2 1548   2.060   1.949   0.148 -1.1252 -1.9086 -0.6321
  517SOL     OW 1549   0.884   1.126   0.032 -0.1418  0.0361  0.4182
  517SOL    HW1 1550   0.903   1.219   3.106  0.9430  4.1422 -1.7496
  517SOL    HW2 1551   0.818   1.131   0.108  0.9789 -0.0088 -0.1611
  518SOL     OW 1552   0.074   2.926   1.940 -0.4331 -0.2150 -0.7503
  518SOL    HW1 1553   0.027   2.922   2.030  3.4603 -0.0192 -3.1918
  518SOL    HW2 1554   0.015   2.885   1.873 -0.2989  0.5786  1.1207
  519SOL     OW 1555   1.267   1.639   2.521 -0.2215 -0.3661 -0.1273
  519SOL    HW1 1556   1.238   1.712   2.583  0.7911  0.4006  0.1996
  519SOL    HW2 1557   1.332   1.572   2.573  3.4196  1.2718  1.3142
  520SOL     OW 1558   2.819   3.051   2.409 -0.0416 -0.1445 -0.1973
  520SOL    HW1 1559   2.835   3.091   2.317 -0.5649  2.0029  0.4365
  520SOL    HW2 1560   2.903   3.047   2.465  1.7375  1.2761 -0.5848
  521SOL     OW 1561   0.128   1.994   2.272  0.2697 -0.2663 -0.0220
  521SOL    HW1 1562   0.133   2.076   2.330  0.4071  1.4888 -1.2950
  521SOL    HW2 1563   0.172   1.909   2.317  0.7147  0.4057  3.1780
  522SOL     OW 1564   0.747   2.485   1.785  0.2955 -0.2542  0.0848
  522SOL    HW1 1565   0.690   2.528   1.711  0.5276  0.9836 -0.7416
  522SOL    HW2 1566   0.817   2.424   1.744 -1.1600  0.0016  0.3027
  523SOL     OW 1567   0.099   2.354   1.405 -0.3497 -0.3199 -0.0175
  523SOL    HW1 1568   0.066   2.396   1.493 -2.4446  2.4526 -1.2554
  523SOL    HW2 1569   0.013   2.347   1.349  1.7520 -0.3848  0.3695
  524SOL     OW 1570   1.434   2.416   0.650 -0.0129  0.5625  0.1541
  524SOL    HW1 1571   1.437   2.316   0.649 -0.7309  2.0789 -0.3190
  524SOL    HW2 1572   1.510   2.449   0.706  2.1524  0.7523 -1.5685
  525SOL     OW 1573   2.530   1.166   1.075 -0.2372 -0.1054 -0.1245
  525SOL    HW1 1574   2.540   1.199   1.170 -0.9493  2.0984 -1.4913
  525SOL    HW2 1575   2.434   1.187   1.048  0.8051  0.1266 -0.1861
  526SOL     OW 1576   0.904   2.336   0.714 -0.1960  0.3761 -0.7651
  526SOL    HW1 1577   0.911   2.422   0.659 -1.6372  0.4667  0.2283
  526SOL    HW2 1578   0.970   2.271   0.677  0.2078  1.3020 -1.1701
  527SOL     OW 1579   2.031   2.184   0.520  0.4798  0.3202  0.1274
  527SOL    HW1 1580   1.933   2.157   0.532 -0.0148  0.6871  1.0322
  527SOL    HW2 1581   2.044   2.280   0.500  0.7721 -2.6331  1.1289
  528SOL     OW 1582   2.090   0.250   0.118 -0.3803  0.2006  0.2900
  528SOL    HW1 1583   2.013   0.287   0.069  1.6093 -1.4680  0.2513
  528SOL    HW2 1584   2.064   0.154   0.153 -1.2913 -5.6621 -3.5754
  529SOL     OW 1585   1.010   1.471   2.067  0.7588 -0.2779 -0.2328
  529SOL    HW1 1586   1.039   1.507   2.159 -0.1094  1.3082  3.0620
  529SOL    HW2 1587   1.000   1.548   1.996  0.5935 -0.3118  0.7587
  530SOL     OW 1588   2.369   1.071   2.415  0.3218  0.6766  0.0123
  530SOL    HW1 1589   2.467   1.060   2.390  1.9429 -2.9611  0.3441
  530SOL    HW2 1590   2.337   1.003   2.489 -0.8962 -0.0488  2.5559
  531SOL     OW 1591   0.833   0.890   2.936  0.1171 -0.3238  0.9162
  531SOL    HW1 1592   0.842   0.956   3.011  1.4719 -0.2718 -0.8445
  531SOL    HW2 1593   0.805   0.799   2.972 -2.5801  2.7035 -0.0453
  532SOL     OW 1594   1.427   0.901   0.603 -0.3344 -0.3151  0.4748
  532SOL    HW1 1595   1.456   0.807   0.631  1.3339 -2.0056  0.3372
  532SOL    HW2 1596   1.435   0.919   0.501  2.7669  1.7797  0.7242
  533SOL     OW 1597   0.383   0.602   2.052 -0.1764  0.7847 -0.5196
  533SOL    HW1 1598   0.363   0.698   2.044  3.4422 -1.5646  1.5100
  533SOL    HW2 1599   0.465   0.580   1.999 -0.7839  0.5537 -2.0038
  534SOL     OW 1600   1.575   0.217   2.531  0.0844  0.3234 -0.0878
  534SOL    HW1 1601   1.588   0.234   2.633  1.9949  3.2775 -1.7294
  534SOL    HW2 1602   1.476   0.203   2.512  2.4313 -0.8539  0.2832
  535SOL     OW 1603   0.675   0.109   0.481 -0.1102 -0.3248  0.0779
  535SOL    HW1 1604   0.658   0.008   0.475 -1.7554 -1.0843 -1.2871
  535SOL    HW2 1605   0.586   0.158   0.499  1.5607  0.3500 -3.0778
  536SOL     OW 1606   1.332   0.427   0.252  0.6841  0.7944 -0.0417
  536SOL    HW1 1607   1.345   0.500   0.183 -0.9136  0.9907  2.4913
  536SOL    HW2 1608   1.234   0.411   0.281 -0.1153 -3.1381  1.7755
  537SOL     OW 1609   1.527   2.809   1.761  0.4807  0.1114 -0.3574
  537SOL    HW1 1610   1.592   2.771   1.832  0.6930 -0.7510 -1.6531
  537SOL    HW2 1611   1.538   2.908   1.744 -0.3964 -1.0241  0.2747
  538SOL     OW 1612   0.345   2.795   0.149 -0.0527 -0.3870  0.1788
  538SOL    HW1 1613   0.263   2.842   0.195  0.9466 -0.2833  2.3100
  538SOL    HW2 1614   0.408   2.867   0.115 -0.3985 -1.8162  2.1783
  539SOL     OW 1615   2.937   1.369   1.826  0.5060  0.2216 -0.6555
  539SOL    HW1 1616   2.956   1.462   1.802  1.5016 -1.8887  2.9629
  539SOL    HW2 1617   2.847   1.355   1.870 -1.1811  1.1791  0.5540
  540SOL     OW 1618   2.317   2.194   2.029 -0.3064  0.0104  0.1794
  540SOL    HW1 1619   2.347   2.274   2.087 -0.9828  3.2427  2.3455
  540SOL    HW2 1620   2.398   2.157   1.976  2.0486  0.5002  3.9304
  541SOL     OW 1621   0.648   2.800   1.313  0.0681  1.0714 -0.3257
  541SOL    HW1 1622   0.599   2.734   1.255 -0.8003  1.6390  1.1086
  541SOL    HW2 1623   0.721   2.849   1.265 -0.4447 -0.6373 -0.3473
  542SOL     OW 1624   2.757   0.445   2.161  0.2701  0.2851  0.3064
  542SOL    HW1 1625   2.796   0.397   2.241 -0.4216 -1.7954 -0.3710
  542SOL    HW2 1626   2.809   0.408   2.083 -1.1490  0.7023 -0.2584
  543SOL     OW 1627   0.995   0.610   1.180 -0.1102 -0.7083 -0.1286
  543SOL    HW1 1628   0.963   0.709   1.187 -0.5827  1.1558 -0.1929
  543SOL    HW2 1629   0.940   0.549   1.235  1.3877  2.1477  0.3063
  544SOL     OW 1630   2.387   2.397   1.195 -0.1961 -0.4544  0.0143
  544SOL    HW1 1631   2.335   2.370   1.110 -0.2392 -0.7036 -0.3295
  544SOL    HW2 1632   2.375   2.497   1.209  0.5819  0.7218  0.9288
  545SOL     OW 1633   1.437   1.359   1.093 -0.1179 -0.4235  0.1590
  545SOL    HW1 1634   1.516   1.409   1.139  1.5818 -0.5669 -0.3918
  545SOL    HW2 1635   1.437   1.260   1.127  0.9491 -3.0041 -0.5384
  546SOL     OW 1636   2.822   0.218   2.657  0.1325 -0.3858 -0.2438
  546SOL    HW1 1637   2.787   0.291   2.721  0.7984  2.9727  1.1221
  546SOL    HW2 1638   2.746   0.190   2.596  0.0284 -1.1868  0.8898
  547SOL     OW 1639   2.384   0.337   2.731 -0.0073  0.5822 -0.7256
  547SOL    HW1 1640   2.338   0.314   2.821 -3.7045  2.4620  1.5489
  547SOL    HW2 1641   2.449   0.419   2.737  2.0765  0.5214 -3.6692
  548SOL     OW 1642   2.546   2.054   2.720 -0.8398 -0.3442 -0.1483
  548SOL    HW1 1643   2.493   1.973   2.693 -0.4292  0.5668 -0.1610
  548SOL    HW2 1644   2.622   2.024   2.779 -2.7164 -0.8024  0.6152
  549SOL     OW 1645   2.134   0.506   0.507  0.4685  0.1460  0.1542
  549SOL    HW1 1646   2.216   0.545   0.557 -0.8407 -0.0367 -0.1506
  549SOL    HW2 1647   2.161   0.433   0.442  1.7179 -1.4753 -3.4311
  550SOL     OW 1648   2.620   1.255   0.298  0.4977 -0.0239 -0.6046
  550SOL    HW1 1649   2.589   1.347   0.327  1.0694  0.3779 -2.3805
  550SOL    HW2 1650   2.591   1.236   0.200 -2.7613 -1.8180  0.2140
  551SOL     OW 1651   1.450   2.513   1.272  0.1687  0.3277 -0.6101
  551SOL    HW1 1652   1.351   2.535   1.278  1.0728  0.3627 -2.1866
  551SOL    HW2 1653   1.476   2.536   1.176  0.7407  1.3655  0.4149
  552SOL     OW 1654   2.874   2.373   2.793  0.3265 -0.5087 -0.2940
  552SOL    HW1 1655   2.878   2.279   2.756 -0.9027  3.9798 -2.5446
  552SOL    HW2 1656   2.880   2.441   2.716 -0.9200 -0.1837 -2.4742
  553SOL     OW 1657   0.330   2.917   0.541 -0.0614 -0.1918  0.1440
  553SOL    HW1 1658   0.243   2.957   0.574  1.1280  0.1257 -0.4401
  553SOL    HW2 1659   0.375   2.868   0.615 -0.9962  1.6464  0.1646
  554SOL     OW 1660   1.803   1.899   1.496  0.4446  0.2376 -0.0153
  554SOL    HW1 1661   1.715   1.858   1.465 -1.9884 -0.9063  0.6303
  554SOL    HW2 1662   1.861   1.828   1.540 -0.9849  3.5688  0.6772
  555SOL     OW 1663   1.615   2.407   2.109  0.0634 -0.1461  0.5804
  555SOL    HW1 1664   1.562   2.325   2.090 -0.8312  1.7570 -2.3240
  555SOL    HW2 1665   1.554   2.485   2.101  0.0809  3.4101  0.6933
  556SOL     OW 1666   1.772   0.704   0.760 -0.0786  0.4585  0.3180
  556SOL    HW1 1667   1.836   0.718   0.681  1.2395  0.1474  0.5286
  556SOL    HW2 1668   1.686   0.656   0.733 -0.6501 -4.3387 -0.5599
  557SOL     OW 1669   1.596   2.161   1.493 -0.0133 -0.3952 -0.4940
  557SOL    HW1 1670   1.579   2.205   1.399  2.5437 -3.3164 -0.8808
  557SOL    HW2 1671   1.677   2.200   1.542 -1.3817 -1.5118  1.6771
  558SOL     OW 1672   2.981   1.218   2.454  0.0249  0.5541  0.3414
  558SOL    HW1 1673   2.905   1.181   2.519 -2.2753  0.6221  1.5302
  558SOL    HW2 1674   3.028   1.133   2.426 -1.4280 -0.1614  0.1071
  559SOL     OW 1675   2.642   2.602   2.320  0.1143 -0.3252 -0.0956
  559SOL    HW1 1676   2.734   2.566   2.302 -1.8957 -0.4359  1.0393
  559SOL    HW2 1677   2.646   2.666   2.399 -1.4504  0.9235 -1.2544
  560SOL     OW 1678   0.269   3.104   2.630  0.4942  0.0084  0.0113
  560SOL    HW1 1679   0.238   0.029   2.546  1.6132 -0.3607  0.0441
  560SOL    HW2 1680   0.317   3.020   2.615 -2.4852 -0.6721  0.8928
  561SOL     OW 1681   1.521   0.656   0.624  0.1029  0.6552 -0.5452
  561SOL    HW1 1682   1.441   0.688   0.570  2.2388 -3.1861 -1.6245
  561SOL    HW2 1683   1.585   0.596   0.567  1.4333  0.2718  0.8714
  562SOL     OW 1684   0.625   1.459   2.265 -0.2304  0.2326  0.2105
  562SOL    HW1 1685   0.676   1.438   2.181 -4.2438 -1.3490  1.2742
  562SOL    HW2 1686   0.684   1.519   2.326  0.8346  1.2242  2.2784
  563SOL     OW 1687   1.690   2.049   0.148  0.0631  0.2088 -0.3985
  563SOL    HW1 1688   1.734   1.961   0.123 -4.5646 -1.4279 -0.2334
  563SOL    HW2 1689   1.755   2.130   0.158  0.6862 -1.1832  3.2143
  564SOL     OW 1690   0.309   2.058   0.554  0.2670  0.3390 -0.1214
  564SOL    HW1 1691   0.392   2.058   0.501 -1.7418  0.2011  2.0988
  564SOL    HW2 1692   0.270   1.969   0.577  3.0249  0.8555  0.1744
  565SOL     OW 1693   0.522   2.969   0.056  0.1612 -0.4571 -0.0452
  565SOL    HW1 1694   0.611   2.965   0.002  1.5209 -0.7594  0.2423
  565SOL    HW2 1695   0.510   3.070   0.089 -1.3071  1.3158  0.8698
  566SOL     OW 1696   1.429   2.668   2.934  0.4566  0.9848  0.3307
  566SOL    HW1 1697   1.474   2.591   2.983  0.1641 -0.0392  1.2578
  566SOL    HW2 1698   1.453   2.663   2.837 -0.6836 -0.8321 -1.6517
  567SOL     OW 1699   2.466   1.769   1.310 -0.2852  0.5626 -0.3904
  567SOL    HW1 1700   2.531   1.846   1.290  2.3944  0.5433  2.1053
  567SOL    HW2 1701   2.516   1.680   1.310  0.9495 -1.1101 -0.5476
  568SOL     OW 1702   1.673   1.080   2.534  0.2981  0.2742 -0.5521
  568SOL    HW1 1703   1.635   0.996   2.572  1.6445  1.3213 -0.8289
  568SOL    HW2 1704   1.696   1.138   2.614  0.8090  0.2680  0.1436
  569SOL     OW 1705   2.158   1.676   1.858 -0.5092  0.2431  0.1750
  569SOL    HW1 1706   2.212   1.615   1.795  2.9184 -2.5467 -0.7928
  569SOL    HW2 1707   2.137   1.632   1.949 -0.6484 -1.3355  0.0888
  570SOL     OW 1708   3.039   2.732   1.801  0.5333  0.6037  0.0846
  570SOL    HW1 1709   3.112   2.698   1.741 -1.4366  1.4397  2.1054
  570SOL    HW2 1710   2.984   2.796   1.747 -0.6832  0.6125 -1.8163
  571SOL     OW 1711   0.241   0.698   1.439 -0.7938  0.1207 -0.1183
  571SOL    HW1 1712   0.192   0.667   1.358 -0.5180 -1.9317 -2.0978
  571SOL    HW2 1713   0.245   0.633   1.523  3.4297 -1.2679  2.5476
  572SOL     OW 1714   0.458   1.448   0.726 -0.4051  0.0212  0.3808
  572SOL    HW1 1715   0.534   1.499   0.774  3.8308 -1.8315 -0.0324
  572SOL    HW2 1716   0.505   1.375   0.674 -0.2160 -0.1207  2.1453
  573SOL     OW 1717   1.084   0.722   0.255 -0.0374 -0.1147 -0.1090
  573SOL    HW1 1718   0.995   0.710   0.215  4.3764  1.7293  2.5962
  573SOL    HW2 1719   1.160   0.710   0.185  3.5749  0.0330  1.4676
  574SOL     OW 1720   0.203   0.386   0.258 -0.0405  0.3489  0.1046
  574SOL    HW1 1721   0.216   0.317   0.184  1.0825 -1.2023  2.3883
  574SOL    HW2 1722   0.293   0.395   0.313  0.7917  0.0847  2.7088
  575SOL     OW 1723   0.930   1.942   1.076 -0.3103  0.3803 -0.3808
  575SOL    HW1 1724   0.900   1.932   0.979  0.1311 -1.3963 -4.2000
  575SOL    HW2 1725   1.025   1.977   1.067 -1.1458  0.9526 -0.4274
  576SOL     OW 1726   3.032   0.199   1.863 -0.4119 -0.7867  0.5078
  576SOL    HW1 1727   3.028   0.185   1.764  1.6660  0.7612  0.5880
  576SOL    HW2 1728   2.942   0.213   1.907  0.6451 -3.5640 -2.0572
  577SOL     OW 1729   2.684   1.738   2.058 -1.0935  0.0902 -0.0736
  577SOL    HW1 1730   2.598   1.735   2.117  0.7137 -3.2874 -1.1446
  577SOL    HW2 1731   2.748   1.670   2.100 -2.8937  0.1353 -1.4188
  578SOL     OW 1732   1.127   3.053   2.334  0.2920 -0.0467  0.3971
  578SOL    HW1 1733   1.196   3.056   2.257  0.1203 -1.8286 -2.7805
  578SOL    HW2 1734   1.168   3.055   2.425  0.1145 -1.9899 -3.3172
  579SOL     OW 1735   1.732   1.830   2.283  0.4998 -0.0214  0.6191
  579SOL    HW1 1736   1.795   1.748   2.271  0.0745 -2.9990 -1.6039
  579SOL    HW2 1737   1.641   1.799   2.326 -0.0427 -0.3409  1.7102
  580SOL     OW 1738   1.704   0.810   2.067 -0.0999 -0.2633 -0.1141
  580SOL    HW1 1739   1.767   0.820   2.147  1.2341 -0.1458  0.9305
  580SOL    HW2 1740   1.627   0.876   2.063  0.1407 -1.3811  1.2234
  581SOL     OW 1741   1.068   1.281   2.425 -0.1077  0.1980  0.0294
  581SOL    HW1 1742   1.151   1.314   2.374  2.4500 -2.1990 -2.0100
  581SOL    HW2 1743   1.017   1.216   2.367  0.5978 -1.6094  1.9197
  582SOL     OW 1744   0.077   2.309   2.069  0.3295  0.7697  0.0526
  582SOL    HW1 1745   0.078   2.286   2.167  0.0416 -3.6957  0.6839
  582SOL    HW2 1746   0.120   2.396   2.050 -1.9554  0.6435 -2.2786
  583SOL     OW 1747   1.814   1.302   1.251  0.1547  0.1095  0.2449
  583SOL    HW1 1748   1.784   1.288   1.153 -0.3029  0.5198 -0.9466
  583SOL    HW2 1749   1.763   1.386   1.289 -1.2464  0.0772  2.7195
  584SOL     OW 1750   0.877   2.495   2.884  0.1331  0.2684  0.4159
  584SOL    HW1 1751   0.944   2.429   2.913 -1.0451  1.5410 -0.3019
  584SOL    HW2 1752   0.915   2.560   2.812  0.9719  1.4261  1.5781
  585SOL     OW 1753   0.185   2.492   0.432 -0.1740 -0.2307 -0.2307
  585SOL    HW1 1754   0.111   2.525   0.370 -0.9573  1.3180 -0.1630
  585SOL    HW2 1755   0.278   2.509   0.396  1.1847 -0.9380  0.0265
  586SOL     OW 1756   1.972   1.624   0.392 -0.0483 -0.3960  0.4378
  586SOL    HW1 1757   1.945   1.533   0.351  2.7994  0.2421 -0.9764
  586SOL    HW2 1758   1.967   1.626   0.494 -1.9998  0.4683  1.0578
  587SOL     OW 1759   2.937   2.009   0.352  0.2858 -0.0591  0.3976
  587SOL    HW1 1760   2.983   2.092   0.314  4.2666  1.9990  0.6207
  587SOL    HW2 1761   2.852   2.035   0.391  2.2739  1.0218 -1.8215
  588SOL     OW 1762   2.760   0.440   0.920 -0.7663 -0.0435  0.1873
  588SOL    HW1 1763   2.820   0.433   1.003  0.8621  1.5251 -0.5028
  588SOL    HW2 1764   2.796   0.390   0.839  0.7771 -1.7079 -0.1920
  589SOL     OW 1765   0.969   0.625   0.903 -0.0714  0.0100 -0.3205
  589SOL    HW1 1766   1.060   0.651   0.871 -1.1300 -0.0280  1.3450
  589SOL    HW2 1767   0.979   0.610   1.003  1.0470 -0.8883  1.4242
  590SOL     OW 1768   2.210   2.475   0.164  0.7445 -0.0582  0.7207
  590SOL    HW1 1769   2.272   2.402   0.202  1.0764  3.2165 -1.1835
  590SOL    HW2 1770   2.258   2.563   0.159 -0.7686 -3.5235 -1.2000
  591SOL     OW 1771   0.605   2.306   1.934  0.2156 -0.5385 -0.4977
  591SOL    HW1 1772   0.642   2.373   1.868 -1.5635 -2.3179 -1.5059
  591SOL    HW2 1773   0.521   2.265   1.904  0.9857  3.6123 -0.9314
  592SOL     OW 1774   0.674   1.657   1.853 -0.0586 -0.3871  0.0941
  592SOL    HW1 1775   0.680   1.698   1.761 -0.1340  0.2816  1.4680
  592SOL    HW2 1776   0.740   1.581   1.860  0.0330 -0.0147  0.0630
  593SOL     OW 1777   1.425   1.884   1.249 -0.4763  0.0481 -0.4554
  593SOL    HW1 1778   1.516   1.861   1.211 -0.1358  2.0125  1.4332
  593SOL    HW2 1779   1.434   1.947   1.333  0.8564  0.0736 -1.0391
  594SOL     OW 1780   0.309   1.138   2.714  0.3437  0.0355 -0.1081
  594SOL    HW1 1781   0.340   1.206   2.647 -1.5953 -2.3314 -0.0788
  594SOL    HW2 1782   0.230   1.183   2.761  1.7956 -1.2456 -2.5040
  595SOL     OW 1783   1.633   0.295   1.048 -0.1550 -0.1255 -0.3678
  595SOL    HW1 1784   1.667   0.382   1.084  0.7810  0.6145 -2.4905
  595SOL    HW2 1785   1.574   0.312   0.968  0.2943  0.5884 -0.1056
  596SOL     OW 1786   0.281   1.052   1.208  0.4702 -0.2402  0.4266
  596SOL    HW1 1787   0.338   1.020   1.130  2.3269 -1.9705  2.1257
  596SOL    HW2 1788   0.246   1.150   1.191 -2.1433  3.0076  0.3320
  597SOL     OW 1789   0.234   2.380   2.812 -0.2782  0.4493  0.6828
  597SOL    HW1 1790   0.316   2.446   2.811  1.4693 -1.1529  1.1312
  597SOL    HW2 1791   0.155   2.422   2.760 -1.8351 -0.7255 -3.3204
  598SOL     OW 1792   2.217   1.996   2.753 -0.0588  0.0707  0.7965
  598SOL    HW1 1793   2.191   2.083   2.702 -0.7070  1.2271 -0.9424
  598SOL    HW2 1794   2.225   2.015   2.850  2.1500  0.6385 -1.0624
  599SOL     OW 1795   1.557   0.529   0.335 -0.6669  0.3637  0.1814
  599SOL    HW1 1796   1.552   0.632   0.338  1.8049 -0.6463  2.1949
  599SOL    HW2 1797   1.478   0.480   0.294 -1.0322 -0.7830 -0.6286
  600SOL     OW 1798   0.905   0.252   0.131  0.2590  0.5684  0.5231
  600SOL    HW1 1799   0.958   0.170   0.121 -3.5050  0.7923 -1.4880
  600SOL    HW2 1800   0.910   0.311   0.048 -1.0280 -0.4280  0.1596
  601SOL     OW 1801   0.589   0.051   1.518 -0.1402 -0.2770  0.1794
  601SOL    HW1 1802   0.564   0.144   1.550 -1.3707  1.1874  1.7753
  601SOL    HW2 1803   0.591   0.050   1.415 -0.1809  2.9066 -2.2668
  602SOL     OW 1804   0.233   2.823   0.910  0.2643 -0.5473  0.3566
  602SOL    HW1 1805   0.172   2.820   0.828  1.3270 -0.2638  0.7583
  602SOL    HW2 1806   0.186   2.865   0.992 -0.7815  0.4653  2.3945
  603SOL     OW 1807   0.696   2.884   2.491 -0.0785  0.5651 -0.0450
  603SOL    HW1 1808   0.748   2.947   2.428  0.2018 -2.1957 -0.4625
  603SOL    HW2 1809   0.601   2.910   2.507  4.0629  3.0268 -1.7386
  604SOL     OW 1810   1.102   2.578   0.122 -0.3242  0.2478 -0.1259
  604SOL    HW1 1811   1.048   2.496   0.140  2.0251 -0.7199  0.1134
  604SOL    HW2 1812   1.109   2.601   0.022 -1.0991  1.3334 -2.1131
  605SOL     OW 1813   1.399   0.740   1.744 -0.0019 -0.4634 -0.3618
  605SOL    HW1 1814   1.389   0.708   1.647  1.0628  1.0339 -0.0775
  605SOL    HW2 1815   1.480   0.797   1.768 -0.5790  0.3090 -0.4375
  606SOL     OW 1816   1.316   0.431   2.801 -0.1070 -0.3389  0.5874
  606SOL    HW1 1817   1.342   0.518   2.749  2.0268  0.9305 -0.3403
  606SOL    HW2 1818   1.262   0.447   2.888 -1.8795  1.6013  1.9835
  607SOL     OW 1819   0.385   1.261   1.431  0.4172 -0.3753  0.1254
  607SOL    HW1 1820   0.368   1.162   1.411  2.7782 -1.4150  0.4707
  607SOL    HW2 1821   0.355   1.323   1.357 -1.9942  0.1090 -1.8411
  608SOL     OW 1822   2.665   2.183   2.436 -0.7823  0.9408 -0.2812
  608SOL    HW1 1823   2.586   2.239   2.461  0.0159  1.6934 -2.8071
  608SOL    HW2 1824   2.695   2.194   2.338  3.3580 -1.6389 -0.8916
  609SOL     OW 1825   2.082   3.090   0.229 -0.2785  0.0212 -0.2500
  609SOL    HW1 1826   2.031   3.049   0.307 -1.9807 -0.3847  0.7235
  609SOL    HW2 1827   2.173   0.005   0.259 -0.8700 -0.6726  0.6077
  610SOL     OW 1828   0.886   2.448   1.209 -0.5780 -0.6139 -0.4171
  610SOL    HW1 1829   0.933   2.463   1.122 -1.9853 -0.3299  2.6039
  610SOL    HW2 1830   0.881   2.535   1.268 -1.3165  1.7004  2.0571
  611SOL     OW 1831   0.806   1.503   0.689 -0.4274 -0.7511  0.2480
  611SOL    HW1 1832   0.821   1.536   0.594 -0.2742 -0.1201  0.9447
  611SOL    HW2 1833   0.756   1.574   0.745 -0.0955 -1.1181 -0.9873
  612SOL     OW 1834   0.731   0.188   2.297  0.1716 -0.0971 -0.0933
  612SOL    HW1 1835   0.683   0.203   2.206  0.9545  2.1611  0.5008
  612SOL    HW2 1836   0.831   0.209   2.280  3.0954  0.9568  0.3007
  613SOL     OW 1837   2.712   1.542   0.373 -0.2303 -0.4955 -0.7808
  613SOL    HW1 1838   2.675   1.485   0.448 -0.8169  0.6718 -0.9995
  613SOL    HW2 1839   2.765   1.624   0.409 -1.0868  0.9834 -0.8060
  614SOL     OW 1840   1.716   0.424   1.807 -0.8742  0.6414 -0.3515
  614SOL    HW1 1841   1.668   0.464   1.887  1.7959 -0.1381 -1.1209
  614SOL    HW2 1842   1.694   0.473   1.721 -0.9043  1.4171 -0.1990
  615SOL     OW 1843   0.917   1.690   1.195  0.4044  0.1443 -0.5592
  615SOL    HW1 1844   1.017   1.673   1.189  0.8652 -1.2859 -0.5255
  615SOL    HW2 1845   0.893   1.782   1.170  2.2695  0.3926  0.2391
  616SOL     OW 1846   1.439   1.496   2.642  0.1523  0.3206 -0.6662
  616SOL    HW1 1847   1.482   1.417   2.589  0.0284 -3.0620 -0.7236
  616SOL    HW2 1848   1.498   1.576   2.649  1.2890 -0.8120  3.4181
  617SOL     OW 1849   1.576   2.651   0.472 -0.3197 -0.3233  0.2247
  617SOL    HW1 1850   1.516   2.623   0.389 -1.4903  0.0769 -2.0025
  617SOL    HW2 1851   1.542   2.738   0.508 -1.7146 -1.9031 -0.1467
  618SOL     OW 1852   0.671   0.952   2.737 -0.4860  0.0955  0.7688
  618SOL    HW1 1853   0.728   0.917   2.817 -3.0167  0.4059  2.1118
  618SOL    HW2 1854   0.678   1.051   2.712 -0.3925  3.0144 -0.2210
  619SOL     OW 1855   2.853   1.337   0.598  0.2077 -0.6001 -0.0396
  619SOL    HW1 1856   2.864   1.281   0.511 -2.7557 -0.3031 -0.9884
  619SOL    HW2 1857   2.755   1.366   0.607 -0.3233  0.1527  1.3651
  620SOL     OW 1858   2.139   2.798   0.074  0.4435  0.0503 -0.3592
  620SOL    HW1 1859   2.210   2.729   0.089 -0.1052 -0.7291  0.9286
  620SOL    HW2 1860   2.160   2.883   0.125  1.3386  0.1341  2.0926
  621SOL     OW 1861   2.272   1.354   0.143 -0.6035 -0.3279 -0.0923
  621SOL    HW1 1862   2.285   1.386   0.241  0.1740 -1.7768 -0.9387
  621SOL    HW2 1863   2.203   1.278   0.140  1.5114  1.4355 -1.8985
  622SOL     OW 1864   1.250   2.504   2.563 -0.2910  0.0144 -0.9704
  622SOL    HW1 1865   1.250   2.404   2.595 -0.6877 -2.3542  2.9391
  622SOL    HW2 1866   1.340   2.530   2.524 -2.0797  2.7848  5.1787
  623SOL     OW 1867   0.710   1.405   0.216  0.0850  0.0394 -0.6657
  623SOL    HW1 1868   0.766   1.395   0.136 -3.0047 -0.8292  3.1074
  623SOL    HW2 1869   0.617   1.450   0.198  0.0979 -1.0944 -1.4346
  624SOL     OW 1870   0.587   0.068   2.752 -0.1379  0.4887  0.5435
  624SOL    HW1 1871   0.589   0.133   2.827  1.0163  1.2471  1.2329
  624SOL    HW2 1872   0.556   3.094   2.778 -2.1020 -2.2777  2.0824
  625SOL     OW 1873   0.863   1.882   0.404 -0.1767  0.4591 -0.3023
  625SOL    HW1 1874   0.775   1.906   0.366 -1.0805  0.9062  0.8051
  625SOL    HW2 1875   0.930   1.920   0.344 -3.8169 -0.6880  1.9948
  626SOL     OW 1876   2.454   0.080   3.078  0.6517 -0.2517 -0.1006
  626SOL    HW1 1877   2.388   0.153   3.060  0.8999 -2.2269 -2.2607
  626SOL    HW2 1878   2.545   0.123   3.090 -3.4641  1.3093 -0.9132
  627SOL     OW 1879   1.311   1.396   2.303  0.1288 -0.1276 -0.3582
  627SOL    HW1 1880   1.390   1.375   2.359  1.9971 -0.1582 -1.5077
  627SOL    HW2 1881   1.296   1.494   2.281 -1.0152 -1.5198  0.8541
  628SOL     OW 1882   0.845   0.755   2.349 -0.4813  0.7784 -0.4819
  628SOL    HW1 1883   0.818   0.852   2.329 -0.4304 -1.5802  1.5515
  628SOL    HW2 1884   0.770   0.687   2.323  1.1884 -0.4148  1.7538
  629SOL     OW 1885   0.536   3.057   2.017  0.0408  0.0974  1.0741
  629SOL    HW1 1886   0.553   2.958   2.035 -1.7339 -1.7207 -1.3283
  629SOL    HW2 1887   0.621   3.086   1.969 -1.7620  0.9035 -1.5777
  630SOL     OW 1888   2.262   0.704   1.744 -0.3128  0.2904 -0.1422
  630SOL    HW1 1889   2.279   0.804   1.738 -1.5193 -1.5352  0.5067
  630SOL    HW2 1890   2.170   0.679   1.779 -0.6908 -2.4764  0.3214
  631SOL     OW 1891   2.284   1.468   0.425 -0.7533  0.2954  0.4204
  631SOL    HW1 1892   2.319   1.423   0.507  1.3785  1.1317  0.4674
  631SOL    HW2 1893   2.201   1.528   0.445 -0.0792 -0.3783  2.7203
  632SOL     OW 1894   2.118   0.352   1.956  0.4703  0.2018  0.3149
  632SOL    HW1 1895   2.178   0.359   1.872  0.7724  1.5979  0.8812
  632SOL    HW2 1896   2.060   0.270   1.951 -1.7338  0.6416  1.1784
  633SOL     OW 1897   0.852   2.865   0.534 -0.4401 -0.1345 -0.2769
  633SOL    HW1 1898   0.760   2.897   0.501 -2.6589 -0.0913  0.4970
  633SOL    HW2 1899   0.881   2.937   0.603  1.8162  0.8302 -2.5685
  634SOL     OW 1900   1.296   0.012   2.806 -0.9793 -0.0814  1.0220
  634SOL    HW1 1901   1.383   3.109   2.758 -0.5316 -0.2894  0.3721
  634SOL    HW2 1902   1.309   3.112   2.906  0.5635 -2.0878 -1.5431
  635SOL     OW 1903   2.551   0.533   0.067 -0.4707  0.4352 -0.3913
  635SOL    HW1 1904   2.637   0.570   0.109  0.9995  1.3328 -2.3180
  635SOL    HW2 1905   2.477   0.542   0.138  1.3135 -1.6221  1.9470
  636SOL     OW 1906   0.804   1.497   1.039  0.0791 -0.3394  0.4159
  636SOL    HW1 1907   0.826   1.583   1.089 -1.5483 -0.7173  0.1119
  636SOL    HW2 1908   0.890   1.439   1.035 -0.9081  1.5524 -1.6897
  637SOL     OW 1909   0.119   2.594   0.676 -0.5077  0.1366 -0.0841
  637SOL    HW1 1910   0.026   2.557   0.704  2.6292  1.4619 -0.8017
  637SOL    HW2 1911   0.150   2.544   0.591 -2.1403 -1.6373  1.9293
  638SOL     OW 1912   0.176   2.939   0.312  0.1006 -0.1712  0.3075
  638SOL    HW1 1913   0.085   2.936   0.353 -0.2698  0.3964 -1.0837
  638SOL    HW2 1914   0.250   2.912   0.376 -1.1125 -1.1152 -0.7188
  639SOL     OW 1915   1.189   1.397   0.168 -0.0115  0.3793 -0.0374
  639SOL    HW1 1916   1.171   1.307   0.120  0.9622 -0.3383 -2.4154
  639SOL    HW2 1917   1.275   1.442   0.138  0.5797 -0.9167  2.9754
  640SOL     OW 1918   1.252   2.538   0.925  0.4740 -0.0963  0.1965
  640SOL    HW1 1919   1.352   2.553   0.941 -0.0332 -1.1314 -0.2885
  640SOL    HW2 1920   1.210   2.621   0.880 -1.1676 -0.2978 -0.3396
  641SOL     OW 1921   2.998   2.504   0.746 -0.2249  0.1987  0.1433
  641SOL    HW1 1922   2.903   2.523   0.717  1.2341 -1.7521  1.7947
  641SOL    HW2 1923   3.011   2.421   0.806 -1.7773  0.5073  2.0006
  642SOL     OW 1924   1.007   0.090   1.685  0.1380  0.0793 -0.0060
  642SOL    HW1 1925   1.108   0.078   1.657  0.0241 -0.4258  1.0114
  642SOL    HW2 1926   0.985   0.039   1.768  0.2140  2.8831 -1.0512
  643SOL     OW 1927   0.722   2.250   2.377  0.2472  0.3858 -0.7948
  643SOL    HW1 1928   0.707   2.230   2.278  0.4127 -0.1996  0.2768
  643SOL    HW2 1929   0.695   2.168   2.432  0.5291  0.7668 -2.5789
  644SOL     OW 1930   0.970   2.998   0.738  0.4319 -0.0076 -0.3651
  644SOL    HW1 1931   1.055   3.057   0.726  0.8969  0.6742  1.8443
  644SOL    HW2 1932   0.902   3.052   0.790  1.1752 -1.8311 -2.7327
  645SOL     OW 1933   1.117   1.576   2.284 -0.2356 -0.0574 -0.4465
  645SOL    HW1 1934   1.026   1.561   2.314  5.9491  2.4385 -0.6676
  645SOL    HW2 1935   1.171   1.603   2.368 -0.8874  0.1877  1.0854
  646SOL     OW 1936   0.727   1.079   0.234  0.2809 -0.4059  0.0845
  646SOL    HW1 1937   0.662   1.016   0.279 -0.2215 -1.0113  0.7720
  646SOL    HW2 1938   0.785   1.132   0.296  2.3396 -1.1767  0.2098
  647SOL     OW 1939   1.055   0.240   0.914 -0.1000 -0.0475 -0.0140
  647SOL    HW1 1940   1.132   0.308   0.909  0.5067  0.9015  0.1946
  647SOL    HW2 1941   1.049   0.223   1.012  0.9688  0.1962  2.1304
  648SOL     OW 1942   2.915   2.918   1.667  0.1675 -0.0088  0.5029
  648SOL    HW1 1943   2.841   2.976   1.713 -1.5172  1.7192 -1.0319
  648SOL    HW2 1944   2.976   2.978   1.615 -3.3904 -0.3251  0.6006
  649SOL     OW 1945   0.732   2.001   0.039  0.0444  0.2970 -0.0496
  649SOL    HW1 1946   0.681   2.063   3.091 -0.6277 -0.5299  0.4229
  649SOL    HW2 1947   0.687   1.991   0.132 -0.5395  0.6806 -1.2629
  650SOL     OW 1948   0.029   1.947   1.378 -0.2078 -0.1231 -0.1363
  650SOL    HW1 1949   0.007   1.953   1.477 -0.3200  2.5035 -1.4779
  650SOL    HW2 1950   0.090   2.019   1.340 -0.1793  0.7581 -2.7895
  651SOL     OW 1951   0.001   3.020   2.954  0.3856  0.4980  0.1401
  651SOL    HW1 1952   0.008   3.039   3.052 -1.1782 -0.3604 -1.2847
  651SOL    HW2 1953   3.087   3.099   2.903 -0.5558 -2.0001  1.9384
  652SOL     OW 1954   2.440   1.786   0.112 -0.1576 -0.5651  0.4892
  652SOL    HW1 1955   2.474   1.880   0.136 -2.6226  0.3466 -0.7877
  652SOL    HW2 1956   2.453   1.723   0.192  0.2567 -1.3113  2.5166
  653SOL     OW 1957   0.217   0.336   1.094  0.4613 -0.3667 -0.3739
  653SOL    HW1 1958   0.251   0.318   1.002  1.4463 -0.6990 -0.9870
  653SOL    HW2 1959   0.291   0.333   1.166  0.7635  0.5893  0.9092
  654SOL     OW 1960   1.510   3.002   2.670  0.4075 -0.0130 -0.2408
  654SOL    HW1 1961   1.528   2.909   2.713  0.7184 -2.9259 -0.0658
  654SOL    HW2 1962   1.575   3.014   2.595 -1.1168  3.0140 -1.6985
  655SOL     OW 1963   0.917   2.511   0.942  0.0238  0.5246  0.0264
  655SOL    HW1 1964   0.902   2.611   0.942 -1.6516 -1.0440  1.2176
  655SOL    HW2 1965   0.919   2.464   0.852  0.3694 -1.1323  0.2862
  656SOL     OW 1966   0.588   2.733   2.018 -0.2832  0.4125 -0.2007
  656SOL    HW1 1967   0.676   2.676   2.033  1.8523  0.6184  1.5699
  656SOL    HW2 1968   0.545   2.710   1.927  1.1360  0.4258 -1.5033
  657SOL     OW 1969   2.025   0.789   1.932 -0.2909  0.0669  0.2772
  657SOL    HW1 1970   2.102   0.816   1.993  1.7981  2.2031 -0.9477
  657SOL    HW2 1971   1.982   0.708   1.967  0.3216 -0.2497  0.1691
  658SOL     OW 1972   2.251   1.786   1.090  0.6252  0.0787  0.1730
  658SOL    HW1 1973   2.242   1.775   1.189  1.7408 -1.0125 -0.9724
  658SOL    HW2 1974   2.323   1.721   1.060  0.8088 -0.6802  0.3607
  659SOL     OW 1975   2.390   2.682   0.173  0.1799 -0.6555 -0.2156
  659SOL    HW1 1976   2.411   2.765   0.122 -1.2338 -0.8469 -1.5799
  659SOL    HW2 1977   2.435   2.679   0.266  1.5222 -0.8472  0.4838
  660SOL     OW 1978   1.099   0.829   2.758 -0.5799  0.0628  0.0382
  660SOL    HW1 1979   1.148   0.913   2.794  0.9828  1.0197 -1.6513
  660SOL    HW2 1980   0.999   0.844   2.743  1.9153 -2.4430  1.6401
  661SOL     OW 1981   2.348   2.675   0.850  0.1612  0.3146 -0.1211
  661SOL    HW1 1982   2.290   2.676   0.935 -0.6191 -0.5545  0.1068
  661SOL    HW2 1983   2.373   2.582   0.820  0.3419  0.7347 -4.1039
  662SOL     OW 1984   0.537   0.554   0.180 -0.0233 -0.3456 -0.4365
  662SOL    HW1 1985   0.571   0.466   0.142  1.6199 -1.2209 -1.8789
  662SOL    HW2 1986   0.502   0.612   0.107 -0.3513  1.4938  2.1381
  663SOL     OW 1987   1.187   2.186   2.630  0.2903 -0.4431  0.0893
  663SOL    HW1 1988   1.283   2.157   2.650 -1.6180 -0.8567 -0.7318
  663SOL    HW2 1989   1.172   2.171   2.526 -0.2657 -0.1169 -3.6685
  664SOL     OW 1990   0.984   2.711   1.296  0.5595 -0.1360  0.4467
  664SOL    HW1 1991   0.995   2.746   1.394  0.8394 -2.6601  0.5680
  664SOL    HW2 1992   1.075   2.706   1.246 -0.3009  0.8289  1.0118
  665SOL     OW 1993   1.743   1.619   1.750  0.2807 -0.3820 -0.0939
  665SOL    HW1 1994   1.774   1.534   1.798 -3.2465  0.5969  1.2936
  665SOL    HW2 1995   1.699   1.679   1.816  3.1648 -0.1249  0.4010
  666SOL     OW 1996   0.424   2.569   0.298  0.1399 -0.2545  0.5534
  666SOL    HW1 1997   0.494   2.523   0.240 -2.6676 -0.4348 -1.1928
  666SOL    HW2 1998   0.385   2.651   0.248  0.1099  2.7443  0.2639
  667SOL     OW 1999   2.048   1.454   1.437 -0.4378 -0.3183 -0.0131
  667SOL    HW1 2000   2.018   1.356   1.446  1.0146  2.5477 -1.8297
  667SOL    HW2 2001   1.994   1.518   1.494 -0.1994  0.7102  0.8130
  668SOL     OW 2002   0.353   0.138   2.132 -0.3157  0.0933 -0.2482
  668SOL    HW1 2003   0.416   0.069   2.097  0.9419 -2.2520 -0.2415
  668SOL    HW2 2004   0.266   0.130   2.078 -0.1120  0.2865  1.9656
  669SOL     OW 2005   1.847   2.051   2.374  0.4393 -0.0728 -0.0031
  669SOL    HW1 2006   1.888   2.121   2.309  1.4339  2.3860 -1.2300
  669SOL    HW2 2007   1.812   1.966   2.328  0.7973 -0.8067  1.9968
  670SOL     OW 2008   2.229   2.087   0.364  0.4274  0.4089 -0.4697
  670SOL    HW1 2009   2.275   2.004   0.401  0.7059  1.2579 -2.3490
  670SOL    HW2 2010   2.172   2.129   0.434  0.9867 -0.0196 -2.2797
  671SOL     OW 2011   0.801   1.319   1.440  0.3314 -0.3366 -0.0561
  671SOL    HW1 2012   0.879   1.268   1.401  0.9344  0.5714  0.4248
  671SOL    HW2 2013   0.839   1.413   1.457  3.0988  4.4512  1.4454
  672SOL     OW 2014   2.656   1.319   2.237 -0.0515 -0.4837  0.0494
  672SOL    HW1 2015   2.632   1.365   2.324  0.7814 -2.3197  2.1721
  672SOL    HW2 2016   2.753   1.316   2.209  4.6330 -2.5849  0.0268
  673SOL     OW 2017   2.870   1.905   2.320  0.4123 -0.0929 -0.0264
  673SOL    HW1 2018   2.802   1.834   2.294 -2.7361 -2.4061 -1.0831
  673SOL    HW2 2019   2.882   1.920   2.421 -0.5870  1.4425  0.0322
  674SOL     OW 2020   0.989   2.794   2.204  0.3100  0.2991  0.3652
  674SOL    HW1 2021   1.071   2.766   2.252 -5.3678  0.8076  1.0331
  674SOL    HW2 2022   0.947   2.872   2.254  2.0021 -0.0931 -1.1762
  675SOL     OW 2023   0.676   0.855   1.630 -0.2218 -0.6346 -0.1858
  675SOL    HW1 2024   0.764   0.805   1.636  1.7944  0.0937 -0.4606
  675SOL    HW2 2025   0.685   0.947   1.670 -2.8491  1.6047 -0.8795
  676SOL     OW 2026   1.992   0.933   0.358  0.3175  0.2896  0.4183
  676SOL    HW1 2027   1.964   0.866   0.426  2.7217 -0.7739  0.3606
  676SOL    HW2 2028   2.079   0.906   0.312 -0.3845  0.9185  1.0595
  677SOL     OW 2029   2.883   1.747   2.782 -0.2227 -0.3260 -0.0649
  677SOL    HW1 2030   2.851   1.659   2.742  0.9294  0.8048  1.1199
  677SOL    HW2 2031   2.961   1.737   2.849 -0.6417  0.7004 -0.7259
  678SOL     OW 2032   2.967   3.001   1.283 -0.0385 -0.0050  0.8197
  678SOL    HW1 2033   3.006   3.040   1.368 -3.0626 -0.6543 -2.2235
  678SOL    HW2 2034   2.977   2.903   1.284 -1.3286  0.9396 -0.7280
  679SOL     OW 2035   1.954   0.022   0.526  0.7641  0.2593 -0.2099
  679SOL    HW1 2036   1.926   0.016   0.630  1.8335  2.5570 -0.1886
  679SOL    HW2 2037   2.051   0.046   0.525 -1.6625  0.3705  0.3454
  680SOL     OW 2038   0.382   2.244   2.347 -0.4232 -0.1491  0.1502
  680SOL    HW1 2039   0.371   2.205   2.254 -0.4518  0.9915  0.3324
  680SOL    HW2 2040   0.470   2.297   2.349 -0.7661 -0.0000 -0.0424
  681SOL     OW 2041   0.460   1.633   1.337 -0.3817  0.7168 -0.2248
  681SOL    HW1 2042   0.460   1.614   1.238  0.4186 -0.0869  1.6946
  681SOL    HW2 2043   0.384   1.696   1.365 -0.3997  2.2441 -1.6843
  682SOL     OW 2044   0.378   2.254   1.764  0.1916  0.0415 -0.2600
  682SOL    HW1 2045   0.286   2.208   1.777  0.0388  0.0108 -0.5291
  682SOL    HW2 2046   0.364   2.355   1.775  0.8705 -3.2047 -0.5182
  683SOL     OW 2047   3.109   1.969   1.649 -0.0872  0.0486  1.2196
  683SOL    HW1 2048   3.088   2.062   1.685  1.4514  1.3303  1.8407
  683SOL    HW2 2049   0.043   1.918   1.716 -3.2592 -1.5714  1.3304
  684SOL     OW 2050   2.592   1.766   2.997  0.0378 -0.4384 -0.3559
  684SOL    HW1 2051   2.542   1.829   3.057 -0.1062 -2.1595  0.6456
  684SOL    HW2 2052   2.671   1.721   3.035  0.0579 -2.5662 -0.1037
  685SOL     OW 2053   1.549   0.795   0.292  0.5013 -0.0900  0.3800
  685SOL    HW1 2054   1.640   0.836   0.284 -1.9683  1.6397 -2.9670
  685SOL    HW2 2055   1.487   0.880   0.292  3.1354  3.2559 -2.1431
  686SOL     OW 2056   0.204   0.122   0.873 -0.1253  0.0041  0.1241
  686SOL    HW1 2057   0.218   0.076   0.959  0.2029 -0.2472 -1.7403
  686SOL    HW2 2058   0.117   0.171   0.883 -1.1727  1.0301 -0.9685
  687SOL     OW 2059   0.942   1.275   2.659 -0.0960 -0.0312  0.1108
  687SOL    HW1 2060   1.006   1.289   2.579  2.2486  1.9635  0.0434
  687SOL    HW2 2061   0.983   1.272   2.750 -1.7474 -0.3810 -1.1753
  688SOL     OW 2062   1.051   1.853   1.481  0.5205 -0.5118  0.4117
  688SOL    HW1 2063   0.948   1.848   1.472 -0.9750  1.4310  1.7720
  688SOL    HW2 2064   1.084   1.946   1.504  2.3999  1.9795  1.1970
  689SOL     OW 2065   2.398   0.301   1.271  0.1340  0.2664 -0.1991
  689SOL    HW1 2066   2.458   0.250   1.206  0.0516  1.6171  0.1784
  689SOL    HW2 2067   2.314   0.334   1.226  1.5784 -1.7216  1.2005
  690SOL     OW 2068   3.105   1.656   0.827  0.1864  0.2498  0.4443
  690SOL    HW1 2069   0.017   1.691   0.918 -0.7926 -1.5109 -2.8102
  690SOL    HW2 2070   0.060   1.618   0.771  1.2123  2.1987  0.0845
  691SOL     OW 2071   0.297   2.520   1.331  0.3632 -0.2805  0.0292
  691SOL    HW1 2072   0.373   2.474   1.379 -1.2899 -1.3659 -1.1305
  691SOL    HW2 2073   0.211   2.467   1.353 -1.6374 -0.2492  3.2841
  692SOL     OW 2074   2.137   2.991   1.111  0.4404  0.9911 -0.0346
  692SOL    HW1 2075   2.188   3.076   1.085  2.4187  0.2864 -0.1171
  692SOL    HW2 2076   2.084   2.999   1.199 -0.0709  0.8902 -0.8882
  693SOL     OW 2077   0.227   1.792   2.410 -0.3645  0.0600 -0.4158
  693SOL    HW1 2078   0.306   1.730   2.401  0.2371 -2.9836 -0.3140
  693SOL    HW2 2079   0.137   1.746   2.411  2.1536 -0.4648 -0.0312
  694SOL     OW 2080   1.792   1.026   1.550 -0.3820  0.0818 -0.1742
  694SOL    HW1 2081   1.880   1.061   1.516  0.2377 -2.2566  1.2743
  694SOL    HW2 2082   1.718   1.044   1.489  2.2034  0.6078  1.0382
  695SOL     OW 2083   0.852   0.841   1.314  0.3706 -0.4949 -0.0450
  695SOL    HW1 2084   0.820   0.862   1.404 -1.0374 -1.5153 -0.5853
  695SOL    HW2 2085   0.943   0.886   1.294 -1.1181  2.9356  0.1092
  696SOL     OW 2086   1.472   0.039   0.807  0.0797  0.0524 -0.2344
  696SOL    HW1 2087   1.504   3.074   0.866 -0.7150 -3.3248 -1.4577
  696SOL    HW2 2088   1.483   0.019   0.710 -2.4579  0.4348  1.9157
  697SOL     OW 2089   1.053   0.573   1.483  0.3182 -0.3440 -0.0845
  697SOL    HW1 2090   1.090   0.497   1.540  0.4937 -3.3840  0.1637
  697SOL    HW2 2091   1.117   0.580   1.403 -0.4281 -1.3610  0.6910
  698SOL     OW 2092   1.456   0.956   2.072  0.2131 -0.1420 -0.2402
  698SOL    HW1 2093   1.382   0.919   2.136  1.4135  0.2723  2.4553
  698SOL    HW2 2094   1.497   1.033   2.123 -0.7259 -3.3349  1.1407
  699SOL     OW 2095   1.763   0.513   1.135 -0.3634  0.1439 -0.5929
  699SOL    HW1 2096   1.843   0.484   1.076  0.3968 -1.3403  0.5087
  699SOL    HW2 2097   1.729   0.610   1.112  1.4080  0.0388 -1.1579
  700SOL     OW 2098   0.857   2.399   0.160 -0.3263  0.0040 -0.3804
  700SOL    HW1 2099   0.846   2.419   0.262  1.7039  0.8920 -0.2861
  700SOL    HW2 2100   0.906   2.309   0.152  0.9048 -0.4103  0.2831
  701SOL     OW 2101   2.246   2.609   2.798  0.6007 -0.7445 -0.1392
  701SOL    HW1 2102   2.198   2.697   2.835 -1.7553 -0.7806  2.6589
  701SOL    HW2 2103   2.201   2.604   2.708 -1.2422  2.8090  0.2140
  702SOL     OW 2104   0.737   0.501   0.847 -0.4285 -0.6894  0.7071
  702SOL    HW1 2105   0.803   0.570   0.882  1.9474  1.4121 -0.9895
  702SOL    HW2 2106   0.792   0.426   0.797 -0.3414 -1.7122 -3.7906
  703SOL     OW 2107   2.523   0.236   2.504 -0.2018  0.4399  0.1881
  703SOL    HW1 2108   2.493   0.301   2.574  2.6332  1.7876 -1.1043
  703SOL    HW2 2109   2.519   0.274   2.413  1.3879 -2.8124  3.0058
  704SOL     OW 2110   0.128   2.232   0.475 -0.8677  0.0654  0.4082
  704SOL    HW1 2111   0.161   2.324   0.483 -2.0105 -2.7193 -0.5635
  704SOL    HW2 2112   0.200   2.166   0.513 -1.7553  0.1573 -0.8247
  705SOL     OW 2113   2.803   2.786   2.450  0.5056  0.0447  0.1387
  705SOL    HW1 2114   2.893   2.769   2.414 -0.7586 -0.7183  0.1501
  705SOL    HW2 2115   2.785   2.887   2.442  0.6743  0.9245 -0.5304
  706SOL     OW 2116   2.242   2.720   1.142 -0.2053 -0.4950 -0.1350
  706SOL    HW1 2117   2.199   2.669   1.223 -1.1808 -0.9678 -1.4123
  706SOL    HW2 2118   2.208   2.819   1.137  1.6155  1.2486 -4.4136
  707SOL     OW 2119   0.801   2.573   2.089  0.1311 -0.3403 -0.7177
  707SOL    HW1 2120   0.868   2.638   2.124  0.9531 -1.0509  1.0325
  707SOL    HW2 2121   0.851   2.493   2.044  2.2167 -2.1550  1.8641
  708SOL     OW 2122   0.110   2.254   2.364  0.1242 -0.2314 -0.4041
  708SOL    HW1 2123   0.050   2.333   2.383 -0.3615 -1.0345  1.7599
  708SOL    HW2 2124   0.203   2.272   2.396 -0.3910  1.0584 -2.5759
  709SOL     OW 2125   1.953   0.118   1.898  0.1883 -0.2778 -0.4645
  709SOL    HW1 2126   1.916   0.142   1.803 -3.6337 -2.6090 -0.2089
  709SOL    HW2 2127   1.930   0.021   1.920  3.4720 -0.1728  0.3383
  710SOL     OW 2128   1.565   0.586   2.771 -0.3966 -0.3159  0.1695
  710SOL    HW1 2129   1.660   0.556   2.748 -0.3661  0.3766 -0.0645
  710SOL    HW2 2130   1.518   0.585   2.680  0.1367  1.5116  1.8753
  711SOL     OW 2131   0.793   2.008   2.767  0.7338  0.1555 -0.7744
  711SOL    HW1 2132   0.857   2.086   2.767  0.0199 -1.5259 -0.7671
  711SOL    HW2 2133   0.834   1.927   2.813  0.6354  0.4346 -3.9603
  712SOL     OW 2134   0.409   2.606   2.571 -0.2009 -0.3077  0.0243
  712SOL    HW1 2135   0.426   2.579   2.668 -0.8491  3.7727 -1.1971
  712SOL    HW2 2136   0.459   2.552   2.505  0.4793 -1.0944  0.4845
  713SOL     OW 2137   1.564   1.331   2.463  0.0235 -0.0687 -0.0283
  713SOL    HW1 2138   1.580   1.232   2.492 -1.7507  0.1676  1.5231
  713SOL    HW2 2139   1.659   1.376   2.469 -0.0750 -0.1204  0.8064
  714SOL     OW 2140   1.400   1.569   1.963  0.2200 -0.2013  0.4753
  714SOL    HW1 2141   1.406   1.590   1.860 -0.4281 -1.2415 -1.7239
  714SOL    HW2 2142   1.353   1.479   1.973  0.3710 -1.3613 -0.8043
  715SOL     OW 2143   1.993   0.626   2.465  0.1704 -0.4328  0.3194
  715SOL    HW1 2144   1.964   0.535   2.445  0.7304  2.1502  1.0495
  715SOL    HW2 2145   1.978   0.655   2.559  0.0503  1.6533 -2.6285
  716SOL     OW 2146   2.988   2.192   1.706  0.0366 -0.2542  0.6120
  716SOL    HW1 2147   2.974   2.177   1.805  2.1639 -2.1409 -1.1856
  716SOL    HW2 2148   3.050   2.268   1.684 -2.8602 -1.4184  1.2731
  717SOL     OW 2149   2.597   1.438   0.608  0.0996  0.1260  0.1167
  717SOL    HW1 2150   2.576   1.508   0.683 -1.5274  1.7661  2.2165
  717SOL    HW2 2151   2.515   1.377   0.605 -0.1541  2.0378  0.0443
  718SOL     OW 2152   1.173   2.012   2.058  0.2684 -0.1215  0.2064
  718SOL    HW1 2153   1.146   2.099   2.108 -3.6698  0.6753 -0.0955
  718SOL    HW2 2154   1.117   1.937   2.087 -0.7040  0.5840 -3.9010
  719SOL     OW 2155   1.980   0.869   2.649 -0.0181  0.0380 -0.4955
  719SOL    HW1 2156   1.953   0.919   2.563  1.8596  1.3715  0.7896
  719SOL    HW2 2157   1.973   0.928   2.731  0.2763 -0.8100  0.9071
  720SOL     OW 2158   0.573   0.361   1.025 -0.1704 -0.3466 -0.5721
  720SOL    HW1 2159   0.642   0.408   0.966 -0.8363 -0.6111 -0.9068
  720SOL    HW2 2160   0.487   0.351   0.972 -1.4345 -1.4813 -0.1423
  721SOL     OW 2161   2.954   0.666   0.683  0.0481  0.0483  0.1384
  721SOL    HW1 2162   3.024   0.592   0.664  0.0778  1.7509  0.7610
  721SOL    HW2 2163   2.935   0.719   0.594 -3.3711 -1.4452 -2.8188
  722SOL     OW 2164   3.055   0.311   2.555 -0.2590 -0.0956 -0.1316
  722SOL    HW1 2165   2.968   0.305   2.606  0.7946  2.1509 -0.0402
  722SOL    HW2 2166   3.099   0.401   2.570  2.2597  0.2550  0.6447
  723SOL     OW 2167   1.514   0.188   0.296  0.4717 -0.6314 -0.2212
  723SOL    HW1 2168   1.470   0.280   0.289 -0.9053 -0.0824  1.5653
  723SOL    HW2 2169   1.507   0.166   0.399  1.9376 -0.7970  1.3356
  724SOL     OW 2170   0.790   1.864   2.320 -0.4262 -0.1846 -0.3144
  724SOL    HW1 2171   0.741   1.866   2.234  2.5252 -0.4202  0.0226
  724SOL    HW2 2172   0.744   1.917   2.394 -1.6753 -2.5437 -0.8707
  725SOL     OW 2173   1.547   2.960   0.983 -0.3632  0.2057 -0.1009
  725SOL    HW1 2174   1.615   2.919   0.920 -1.8402 -0.7487 -1.6719
  725SOL    HW2 2175   1.588   3.029   1.044 -2.7208 -1.7367  1.5854
  726SOL     OW 2176   1.794   2.429   3.110  0.6189  0.3869  0.2944
  726SOL    HW1 2177   1.841   2.364   3.052 -0.8459 -1.4924 -1.4433
  726SOL    HW2 2178   1.847   2.437   0.080  2.2988 -0.1545 -1.9119
  727SOL     OW 2179   1.617   1.513   1.202 -0.3940 -0.4721 -0.1665
  727SOL    HW1 2180   1.575   1.554   1.287 -1.3153  1.4028 -2.9848
  727SOL    HW2 2181   1.706   1.562   1.194 -2.6860 -1.3659  0.2975
  728SOL     OW 2182   2.211   2.811   1.730 -0.1570  0.0459  0.7402
  728SOL    HW1 2183   2.230   2.843   1.636 -1.1078 -0.6481  2.8329
  728SOL    HW2 2184   2.227   2.712   1.739 -1.0001  0.8111  0.4962
  729SOL     OW 2185   2.175   2.054   1.280 -0.4447  0.2992  0.8880
  729SOL    HW1 2186   2.184   1.953   1.306  1.3750 -4.8289  1.0947
  729SOL    HW2 2187   2.181   2.061   1.184 -0.3611  0.3829  0.5869
  730SOL     OW 2188   1.595   0.673   3.016 -0.8107  0.3258 -0.3959
  730SOL    HW1 2189   1.588   0.643   2.919 -0.5992  1.8239  1.4586
  730SOL    HW2 2190   1.663   0.617   3.068 -1.3577  0.2599 -1.2521
  731SOL     OW 2191   0.370   0.331   0.853 -0.0550 -0.1147  0.5046
  731SOL    HW1 2192   0.431   0.354   0.770  2.7121 -1.1441  0.9706
  731SOL    HW2 2193   0.307   0.258   0.828  1.4302 -0.4299 -1.8585
  732SOL     OW 2194   1.498   0.307   0.804 -0.3205  0.1890 -0.2178
  732SOL    HW1 2195   1.455   0.343   0.718 -1.0864 -0.5487  0.4682
  732SOL    HW2 2196   1.508   0.206   0.803 -0.6684 -0.4255 -4.1973
  733SOL     OW 2197   0.772   1.837   1.489 -0.3249  0.6733 -0.1530
  733SOL    HW1 2198   0.763   1.735   1.477  1.5721  2.3234 -1.6491
  733SOL    HW2 2199   0.754   1.884   1.399  0.1176 -1.0663  1.1498
  734SOL     OW 2200   2.818   2.717   0.029  0.0298  0.1233 -0.3993
  734SOL    HW1 2201   2.746   2.787   3.117 -0.5536  0.1979 -2.0122
  734SOL    HW2 2202   2.799   2.620   3.116  0.1253 -0.5978 -0.9650
  735SOL     OW 2203   1.175   3.092   1.269 -0.2833 -0.2507 -0.6543
  735SOL    HW1 2204   1.107   0.043   1.264  0.8742  0.8646  1.3674
  735SOL    HW2 2205   1.200   3.039   1.185  2.5458 -0.5942 -1.7165
  736SOL     OW 2206   1.898   1.959   0.371  0.4538  0.3095  0.6911
  736SOL    HW1 2207   1.929   1.888   0.303 -0.7580  1.7738  2.5835
  736SOL    HW2 2208   1.929   2.052   0.344  1.1936  0.2228  1.3810
  737SOL     OW 2209   0.114   1.677   1.101 -0.1334 -0.5186  0.0987
  737SOL    HW1 2210   0.215   1.645   1.096  1.6627  1.1013  3.3184
  737SOL    HW2 2211   0.076   1.640   1.189 -1.7870 -0.5346  0.2645
  738SOL     OW 2212   2.177   2.182   2.569  0.3912  0.4699 -0.1262
  738SOL    HW1 2213   2.236   2.243   2.522 -2.3831 -3.6550  1.4241
  738SOL    HW2 2214   2.082   2.217   2.555  0.9058  0.9832 -2.1236
  739SOL     OW 2215   1.190   1.868   2.695  0.0338 -0.4059  0.5600
  739SOL    HW1 2216   1.164   1.938   2.626 -1.0632  1.7121  0.7582
  739SOL    HW2 2217   1.113   1.834   2.755  0.7030 -3.3126  1.1837
  740SOL     OW 2218   1.283   2.925   1.042 -0.4733 -0.7833 -0.2107
  740SOL    HW1 2219   1.383   2.941   1.028  1.0707 -2.9660  0.8333
  740SOL    HW2 2220   1.237   2.895   0.958 -1.2858  2.0941 -0.8223
  741SOL     OW 2221   0.257   1.037   0.799  0.3032  0.2699  0.1102
  741SOL    HW1 2222   0.166   1.084   0.812 -1.8871 -1.6905 -0.1760
  741SOL    HW2 2223   0.311   1.040   0.886 -2.2438  1.1195  1.9031
  742SOL     OW 2224   0.855   1.569   2.380  0.0845  0.5383  0.2521
  742SOL    HW1 2225   0.849   1.570   2.481 -1.4868  0.3009  1.9451
  742SOL    HW2 2226   0.821   1.655   2.337  1.5754 -3.3641  1.1034
  743SOL     OW 2227   1.077   1.008   2.116 -0.0553  0.1360  0.0529
  743SOL    HW1 2228   1.014   1.072   2.168  0.5050  1.3148 -0.0027
  743SOL    HW2 2229   1.110   1.057   2.034 -0.1931 -0.4982  3.0361
  744SOL     OW 2230   1.869   0.248   1.665 -0.0787  0.4003  0.4560
  744SOL    HW1 2231   1.782   0.289   1.701  0.3041 -1.7221  0.8489
  744SOL    HW2 2232   1.932   0.315   1.628 -0.3716 -1.4325  1.4706
  745SOL     OW 2233   2.309   1.275   1.683  0.1575 -0.0698  0.4159
  745SOL    HW1 2234   2.293   1.376   1.671  2.3078  0.8803  1.7162
  745SOL    HW2 2235   2.253   1.232   1.756  0.9095  1.3118 -0.9771
  746SOL     OW 2236   2.013   1.202   0.419 -0.3111 -0.0721  0.0830
  746SOL    HW1 2237   1.970   1.271   0.353 -1.2333  0.9165 -1.1361
  746SOL    HW2 2238   2.022   1.105   0.382  0.9413 -0.9907  0.1429
  747SOL     OW 2239   2.590   1.638   0.792 -0.2149 -0.0878  0.0790
  747SOL    HW1 2240   2.689   1.619   0.783 -0.9237 -0.3966  0.3465
  747SOL    HW2 2241   2.578   1.735   0.776 -0.0127 -0.3625 -2.1844
  748SOL     OW 2242   0.494   1.762   0.415 -0.6730  0.2083  0.2940
  748SOL    HW1 2243   0.409   1.758   0.364  3.0931  0.4762 -2.2176
  748SOL    HW2 2244   0.501   1.696   0.489 -0.5997 -0.5891 -1.0280
  749SOL     OW 2245   0.010   2.558   2.757 -0.1691 -0.3255  0.1336
  749SOL    HW1 2246   3.045   2.498   2.770 -1.7089 -1.9707  1.9720
  749SOL    HW2 2247   3.113   2.642   2.813  1.1357 -1.1692 -0.6603
  750SOL     OW 2248   2.353   0.894   0.775 -0.1516 -0.2251 -0.1592
  750SOL    HW1 2249   2.419   0.973   0.758  1.5859  1.1529  1.6296
  750SOL    HW2 2250   2.376   0.859   0.869  2.2883 -0.9869  0.1374
  751SOL     OW 2251   2.466   2.952   0.087  0.7664 -0.4716 -0.1328
  751SOL    HW1 2252   2.463   3.051   0.056 -0.4240 -1.6854 -1.0680
  751SOL    HW2 2253   2.524   2.902   0.021  1.1538 -1.0747  1.4940
  752SOL     OW 2254   2.987   2.863   0.894  0.0911  0.3500  0.8662
  752SOL    HW1 2255   3.026   2.935   0.958  0.3086  1.3338 -1.2441
  752SOL    HW2 2256   3.014   2.771   0.935  1.5790  0.3158  0.6439
  753SOL     OW 2257   1.543   1.137   2.233 -0.0278  0.5440 -0.3466
  753SOL    HW1 2258   1.644   1.134   2.233  0.1581  0.4653 -0.2322
  753SOL    HW2 2259   1.511   1.197   2.308 -1.6795  0.1904 -3.1985
  754SOL     OW 2260   1.874   2.032   1.741 -0.2656 -0.3157 -0.4953
  754SOL    HW1 2261   1.862   1.999   1.645 -2.6206 -1.9032  1.6620
  754SOL    HW2 2262   1.972   2.011   1.770  1.3752  1.3457  1.3671
  755SOL     OW 2263   2.726   1.029   0.894 -0.3759  0.2959 -0.1169
  755SOL    HW1 2264   2.745   0.931   0.912 -0.1112  0.4223 -0.8656
  755SOL    HW2 2265   2.659   1.075   0.958 -2.6823  2.5084  0.3760
  756SOL     OW 2266   0.629   1.288   2.929 -0.1176  0.1104  0.3115
  756SOL    HW1 2267   0.529   1.289   2.934  0.4651 -1.5220 -0.5178
  756SOL    HW2 2268   0.657   1.238   2.839  0.1013 -0.8398  1.4857
  757SOL     OW 2269   1.835   2.447   1.165 -0.2353 -0.2647 -0.3171
  757SOL    HW1 2270   1.762   2.407   1.101  2.4448  0.3186 -1.0461
  757SOL    HW2 2271   1.916   2.466   1.106  0.1439 -1.4086 -0.0456
  758SOL     OW 2272   1.187   2.440   1.590 -0.0167 -0.2752 -0.3499
  758SOL    HW1 2273   1.196   2.396   1.499 -0.0066  0.6719 -2.3846
  758SOL    HW2 2274   1.217   2.538   1.594 -1.1812 -1.4216  0.9679
  759SOL     OW 2275   2.949   1.473   1.050  0.0044  0.2627  0.1692
  759SOL    HW1 2276   2.995   1.545   1.000 -1.7125 -0.4073 -2.9842
  759SOL    HW2 2277   2.932   1.390   0.996  2.3160 -1.7966 -0.2473
  760SOL     OW 2278   2.329   1.070   1.494  0.7477 -0.1784  0.4985
  760SOL    HW1 2279   2.319   1.060   1.389  3.4956 -2.1732 -7.1741
  760SOL    HW2 2280   2.312   1.164   1.535  1.0548  3.3800  1.4116
  761SOL     OW 2281   1.761   2.971   0.192 -0.4273  0.0431 -0.3769
  761SOL    HW1 2282   1.765   3.060   0.239 -1.6215 -1.5898 -2.5076
  761SOL    HW2 2283   1.810   2.983   0.104 -0.8253  1.0363  1.3970
  762SOL     OW 2284   1.729   1.608   2.888  0.4536  0.5952 -0.3684
  762SOL    HW1 2285   1.681   1.604   2.800  0.5612 -0.1094 -3.4724
  762SOL    HW2 2286   1.805   1.676   2.878  0.6620  0.1961  2.0914
  763SOL     OW 2287   0.532   2.138   1.578 -0.2713 -0.3905  0.0676
  763SOL    HW1 2288   0.547   2.036   1.591  0.8041 -1.5918 -0.2293
  763SOL    HW2 2289   0.457   2.165   1.641 -0.0658  1.6022  1.5458
  764SOL     OW 2290   3.079   2.539   0.285  0.2642 -0.1176 -0.1259
  764SOL    HW1 2291   2.990   2.594   0.290 -2.4675  0.5481 -1.5304
  764SOL    HW2 2292   3.111   2.537   0.186  1.3783  0.8704  0.1970
  765SOL     OW 2293   0.555   3.051   1.205 -0.3296 -0.4282 -0.3732
  765SOL    HW1 2294   0.631   3.114   1.171  1.5250  1.6945  1.0918
  765SOL    HW2 2295   0.588   2.975   1.260  0.7027 -0.7344 -2.0748
  766SOL     OW 2296   2.690   2.228   2.158 -0.1030  0.1428 -0.2535
  766SOL    HW1 2297   2.758   2.304   2.160  2.4162 -0.9242 -1.1301
  766SOL    HW2 2298   2.722   2.143   2.114  0.3917  0.7058  0.0702
  767SOL     OW 2299   2.784   0.865   2.176 -0.5534 -0.2058  0.2755
  767SOL    HW1 2300   2.717   0.856   2.100 -0.3642 -0.4495  1.6071
  767SOL    HW2 2301   2.865   0.920   2.156 -0.9525 -1.3493  1.8931
  768SOL     OW 2302   0.923   0.367   2.580 -0.3626 -0.3064 -0.2490
  768SOL    HW1 2303   0.828   0.386   2.547  0.4809 -4.9534  2.6844
  768SOL    HW2 2304   0.937   0.266   2.594 -1.4391 -0.7867  0.6837
  769SOL     OW 2305   2.525   2.886   0.878 -0.3462  0.6693 -0.3181
  769SOL    HW1 2306   2.612   2.872   0.830  1.3620  0.4443  0.2008
  769SOL    HW2 2307   2.468   2.803   0.870 -0.4524 -0.6874  1.7513
  770SOL     OW 2308   0.248   2.964   2.869 -0.3658  0.0962 -0.2956
  770SOL    HW1 2309   0.243   3.027   2.787  2.0774 -0.7580  0.0420
  770SOL    HW2 2310   0.171   2.981   2.926  3.4096  0.3327 -2.6412
  771SOL     OW 2311   1.626   2.005   1.853 -0.3507  0.0049  0.1171
  771SOL    HW1 2312   1.721   2.023   1.821 -0.1327  0.4149 -0.5396
  771SOL    HW2 2313   1.619   1.916   1.900  0.7599  4.0254  0.8371
  772SOL     OW 2314   1.043   0.050   2.866 -0.4733 -0.1617 -0.3951
  772SOL    HW1 2315   1.010   3.080   2.911 -0.5157  1.2645 -0.3662
  772SOL    HW2 2316   1.136   0.043   2.824 -1.2162 -0.8271 -0.6159
  773SOL     OW 2317   2.465   0.536   1.661 -0.4460  0.0269 -0.1307
  773SOL    HW1 2318   2.539   0.516   1.729 -1.0824 -0.5144 -1.2160
  773SOL    HW2 2319   2.397   0.608   1.685  0.9412  3.0002 -1.7232
  774SOL     OW 2320   1.029   1.234   1.287  0.2461 -0.3001  0.1490
  774SOL    HW1 2321   1.029   1.279   1.197 -0.4263  1.2233  3.1913
  774SOL    HW2 2322   1.053   1.135   1.284 -2.3811 -3.6075  3.6097
  775SOL     OW 2323   1.896   2.684   3.082  0.4536 -0.2016 -0.1088
  775SOL    HW1 2324   1.941   2.712   0.048  0.3078  0.7178 -1.8972
  775SOL    HW2 2325   1.868   2.588   3.092 -1.3107  2.4900 -0.6994
  776SOL     OW 2326   2.324   0.958   1.736 -0.1491 -0.6184 -0.5418
  776SOL    HW1 2327   2.411   0.997   1.774  0.2612  1.2226  1.4932
  776SOL    HW2 2328   2.297   0.998   1.643  0.2049 -1.3513 -1.8620
  777SOL     OW 2329   0.415   1.253   2.134 -0.3468 -0.1160  0.6751
  777SOL    HW1 2330   0.392   1.191   2.217 -1.0137  1.3381  2.9768
  777SOL    HW2 2331   0.496   1.314   2.148 -0.0996 -3.0009 -1.9004
  778SOL     OW 2332   0.431   0.706   3.099 -0.5962 -0.3257 -0.1749
  778SOL    HW1 2333   0.352   0.740   0.032  2.2011 -1.1208 -1.3768
  778SOL    HW2 2334   0.416   0.624   3.034  2.4467 -4.6988 -1.3197
  779SOL     OW 2335   0.660   0.385   2.483 -0.2158  0.3265 -0.1402
  779SOL    HW1 2336   0.680   0.308   2.416  0.2018  3.1129 -1.0852
  779SOL    HW2 2337   0.586   0.369   2.547 -1.2559  1.3761 -1.1015
  780SOL     OW 2338   1.999   1.247   2.574 -0.1623 -0.4746 -0.5650
  780SOL    HW1 2339   2.015   1.182   2.653 -0.6217 -3.0043  0.5858
  780SOL    HW2 2340   2.085   1.253   2.523  0.0114 -0.0471  0.1739
  781SOL     OW 2341   3.095   1.221   1.984  0.3305  0.0769  0.3162
  781SOL    HW1 2342   3.027   1.253   1.917  0.6924  0.9723  4.5141
  781SOL    HW2 2343   3.075   1.134   2.032  0.1972  0.7207 -0.0419
  782SOL     OW 2344   0.410   1.518   2.709  0.0247 -0.3260  0.1891
  782SOL    HW1 2345   0.418   1.438   2.777  1.4688 -1.0215  0.9192
  782SOL    HW2 2346   0.314   1.535   2.674 -3.3670 -2.0510 -2.3683
  783SOL     OW 2347   1.150   2.085   1.106 -0.1112  0.2384 -0.0714
  783SOL    HW1 2348   1.204   2.127   1.183  0.5602 -1.0622  2.5136
  783SOL    HW2 2349   1.179   2.130   1.017  0.1876 -1.9328  0.4197
  784SOL     OW 2350   1.774   0.428   2.683  0.0557  0.2407  0.7925
  784SOL    HW1 2351   1.713   0.358   2.727  0.9549  1.2052 -2.0987
  784SOL    HW2 2352   1.868   0.387   2.690 -0.7262 -3.0477  0.9000
  785SOL     OW 2353   0.747   0.052   1.889 -0.2554 -0.1213  0.2482
  785SOL    HW1 2354   0.837   0.030   1.922 -2.9584  1.1094 -2.1609
  785SOL    HW2 2355   0.756   0.124   1.817  0.2737  1.6673 -0.2359
  786SOL     OW 2356   0.634   1.963   0.288  0.5921  0.6796 -0.1324
  786SOL    HW1 2357   0.551   1.903   0.304  0.3169 -2.3895 -1.3779
  786SOL    HW2 2358   0.624   2.054   0.337  3.4025  1.0340 -1.7317
  787SOL     OW 2359   1.227   0.696   0.543 -0.1233  0.5783  0.0938
  787SOL    HW1 2360   1.206   0.675   0.448  0.5989  0.9307  1.1141
  787SOL    HW2 2361   1.161   0.765   0.583  1.2492  0.9207  1.2938
  788SOL     OW 2362   2.822   1.896   1.215 -0.0109  0.5033 -0.6077
  788SOL    HW1 2363   2.870   1.842   1.290  2.2587 -0.6464 -1.8072
  788SOL    HW2 2364   2.735   1.932   1.260  2.3052 -0.6074 -0.1809
  789SOL     OW 2365   2.610   1.052   2.291  0.7372  0.1521 -0.0014
  789SOL    HW1 2366   2.684   0.981   2.269  0.6814 -1.3191 -0.1580
  789SOL    HW2 2367   2.624   1.143   2.246 -0.5665 -0.2105 -0.3665
  790SOL     OW 2368   0.652   0.265   0.238  0.3259  0.3633 -0.4235
  790SOL    HW1 2369   0.667   0.211   0.324  1.8177  0.2173  2.3409
  790SOL    HW2 2370   0.737   0.267   0.175  1.4796 -1.1400 -0.0460
  791SOL     OW 2371   3.051   0.361   2.989  0.1596 -0.1225 -0.6565
  791SOL    HW1 2372   2.968   0.307   2.963 -1.6809  0.8158  1.2097
  791SOL    HW2 2373   3.050   0.372   3.090 -3.1050 -1.5651 -1.4310
  792SOL     OW 2374   1.472   0.624   2.504 -0.2976  0.9765 -0.2738
  792SOL    HW1 2375   1.374   0.656   2.518 -0.2961  1.1749  1.3309
  792SOL    HW2 2376   1.496   0.605   2.405  0.2625 -0.7856 -0.7991
  793SOL     OW 2377   3.074   0.266   0.853  0.5880 -0.1408  0.2110
  793SOL    HW1 2378   3.043   0.211   0.770  0.7519 -0.6257 -1.4706
  793SOL    HW2 2379   3.027   0.245   0.944 -1.7011 -1.7007  2.8452
  794SOL     OW 2380   0.218   0.444   1.909 -0.0266 -0.1261 -0.1219
  794SOL    HW1 2381   0.282   0.501   1.967  0.3065  0.7080 -0.4756
  794SOL    HW2 2382   0.119   0.452   1.936 -0.0824 -4.1848 -3.7137
  795SOL     OW 2383   0.387   1.070   0.571  0.5973 -0.5126  0.3061
  795SOL    HW1 2384   0.453   1.149   0.578 -1.5534 -0.5380  1.2308
  795SOL    HW2 2385   0.344   1.044   0.660  1.0453 -0.0074  1.9482
  796SOL     OW 2386   0.061   1.094   3.056  0.1965 -0.4608 -0.2547
  796SOL    HW1 2387   0.023   1.104   0.029  0.3114  1.4324 -4.0151
  796SOL    HW2 2388   0.147   1.033   3.058  1.3469  1.2662  1.0501
  797SOL     OW 2389   1.954   2.473   2.383 -0.2746  0.0821 -0.2965
  797SOL    HW1 2390   2.037   2.511   2.430  2.1550 -1.4239 -2.6949
  797SOL    HW2 2391   1.889   2.548   2.362 -2.4153  2.6045  1.3126
  798SOL     OW 2392   0.251   0.123   1.404 -0.7471 -0.1006  0.3445
  798SOL    HW1 2393   0.212   0.202   1.458  1.7525 -1.1858 -0.8939
  798SOL    HW2 2394   0.337   0.153   1.351  1.0946  1.6743 -3.0784
  799SOL     OW 2395   2.449   0.684   1.940 -0.0107 -0.1117 -0.0136
  799SOL    HW1 2396   2.364   0.689   1.883  1.2513  0.4324  0.4212
  799SOL    HW2 2397   2.515   0.614   1.909  0.8914 -0.3272  1.0745
  800SOL     OW 2398   0.216   1.820   0.590  0.3386  0.0516  0.2093
  800SOL    HW1 2399   0.148   1.813   0.515  3.0147 -0.8652  1.7419
  800SOL    HW2 2400   0.233   1.725   0.623  1.6058  1.9096  0.9508
  801SOL     OW 2401   1.615   1.677   0.589 -0.0231  0.3106 -0.3798
  801SOL    HW1 2402   1.562   1.683   0.677  3.1987  0.0701 -2.6310
  801SOL    HW2 2403   1.691   1.742   0.593 -1.3029  0.6365  1.7300
  802SOL     OW 2404   1.249   1.071   2.831 -0.4240  0.3161 -0.0819
  802SOL    HW1 2405   1.176   1.142   2.854 -1.1961  1.3570 -2.2582
  802SOL    HW2 2406   1.296   1.088   2.742  1.1254  0.0342  0.9554
  803SOL     OW 2407   0.145   2.127   1.836  0.5671 -0.2219  0.6815
  803SOL    HW1 2408   0.125   2.196   1.906  1.1490 -0.3702 -2.7614
  803SOL    HW2 2409   0.137   2.029   1.862  0.4935  0.2051  0.3801
  804SOL     OW 2410   1.651   2.310   0.995 -0.5190  0.1374  0.0843
  804SOL    HW1 2411   1.715   2.269   0.926  1.3938 -1.8043 -0.7693
  804SOL    HW2 2412   1.578   2.248   1.017  2.1741  1.2651 -1.5143
  805SOL     OW 2413   2.496   2.311   2.639  0.4054  0.1364 -0.5666
  805SOL    HW1 2414   2.521   2.376   2.715 -0.1964 -0.3649  1.8198
  805SOL    HW2 2415   2.523   2.215   2.655 -1.2113  3.5061  0.4482
  806SOL     OW 2416   2.758   0.175   0.670 -0.4208 -0.2357 -0.7503
  806SOL    HW1 2417   2.707   0.145   0.753  1.0434  1.8605 -1.0840
  806SOL    HW2 2418   2.848   0.126   0.665 -0.0923  0.1754  1.3191
  807SOL     OW 2419   2.825   1.274   2.836  0.3187  0.0404  0.4203
  807SOL    HW1 2420   2.792   1.317   2.924 -1.1691  0.5956  0.8871
  807SOL    HW2 2421   2.750   1.277   2.766 -0.0033 -2.1017  0.0141
  808SOL     OW 2422   0.832   1.868   0.827  0.4317  0.8913  0.7332
  808SOL    HW1 2423   0.776   1.921   0.759 -0.2297 -1.2926 -2.1189
  808SOL    HW2 2424   0.784   1.786   0.849  1.9794  2.3768 -2.7215
  809SOL     OW 2425   2.890   0.048   2.165  0.2266  0.2728  0.3714
  809SOL    HW1 2426   2.796   0.063   2.131 -0.1118  0.6541  0.5292
  809SOL    HW2 2427   2.929   0.134   2.207  2.2021 -0.3737  0.5073
  810SOL     OW 2428   1.459   0.774   0.976  0.0617 -0.0089  0.6045
  810SOL    HW1 2429   1.548   0.729   0.999  1.4574 -0.0448  0.5438
  810SOL    HW2 2430   1.473   0.872   0.949 -1.0614 -2.2504 -0.7927
  811SOL     OW 2431   1.860   2.971   1.919  0.5881 -0.2014 -0.0489
  811SOL    HW1 2432   1.884   2.899   1.990 -1.7136  0.9741  2.6004
  811SOL    HW2 2433   1.761   2.974   1.902 -1.2340 -0.1553 -1.2936
  812SOL     OW 2434   1.743   2.214   0.532  0.0037 -0.0909 -0.4897
  812SOL    HW1 2435   1.696   2.138   0.483 -2.0304 -1.7758 -1.2484
  812SOL    HW2 2436   1.716   2.303   0.500 -3.0769 -1.1598  0.7686
  813SOL     OW 2437   1.137   0.382   1.906 -0.0915  0.9247  0.2453
  813SOL    HW1 2438   1.037   0.402   1.898  1.0386  1.9788 -0.7553
  813SOL    HW2 2439   1.185   0.469   1.895 -1.6955 -1.0200 -0.0625
  814SOL     OW 2440   0.284   3.069   1.164 -0.2913  0.2296  0.3134
  814SOL    HW1 2441   0.379   3.039   1.177  2.0671 -1.6826 -0.3505
  814SOL    HW2 2442   0.251   0.022   1.232 -1.4317  2.7129  1.6491
  815SOL     OW 2443   0.148   3.098   0.638  0.2809 -0.9657 -0.1981
  815SOL    HW1 2444   0.096   3.020   0.679 -2.4057  0.1519 -0.5031
  815SOL    HW2 2445   0.204   0.027   0.711  0.3318 -0.3845 -0.5486
  816SOL     OW 2446   2.460   1.796   2.183  0.1164  0.3297 -0.1761
  816SOL    HW1 2447   2.396   1.846   2.123 -0.5465 -0.2481 -0.6032
  816SOL    HW2 2448   2.500   1.851   2.259 -0.5076 -1.1665 -1.7824
  817SOL     OW 2449   1.198   0.041   0.766  0.3162  0.4976 -0.3011
  817SOL    HW1 2450   1.159   0.089   0.851  3.4143  0.2450  1.5779
  817SOL    HW2 2451   1.297   0.040   0.774  1.7180 -1.0093  0.4333
  818SOL     OW 2452   1.812   0.279   0.044 -0.2096 -0.3449 -0.2719
  818SOL    HW1 2453   1.775   0.226   3.080 -2.0282 -3.7006 -3.3067
  818SOL    HW2 2454   1.793   0.228   0.131  1.6309  2.2261 -1.2663
  819SOL     OW 2455   1.977   3.043   3.104 -0.2231 -0.4289 -0.2824
  819SOL    HW1 2456   2.017   3.070   0.078 -0.0270 -1.3178 -0.9010
  819SOL    HW2 2457   1.977   3.110   3.027 -0.5317  2.0017 -0.6294
  820SOL     OW 2458   1.734   1.222   2.737  0.5715 -0.2327 -0.2787
  820SOL    HW1 2459   1.699   1.218   2.831 -1.0177 -1.3195 -0.8387
  820SOL    HW2 2460   1.830   1.249   2.738 -0.9615  0.0659  0.2079
  821SOL     OW 2461   0.108   0.538   1.245 -0.5912  0.1391 -0.1368
  821SOL    HW1 2462   0.144   0.449   1.209  3.2568  0.3628 -1.5175
  821SOL    HW2 2463   0.130   0.602   1.168  0.5865  0.3037 -1.9251
  822SOL     OW 2464   1.223   2.760   2.428  0.0340 -0.3694  0.3676
  822SOL    HW1 2465   1.219   2.674   2.484 -1.2742  1.8126 -1.2938
  822SOL    HW2 2466   1.196   2.837   2.488 -1.0276  1.9321  0.1329
  823SOL     OW 2467   0.399   1.712   1.800  0.4634  0.2207  0.0559
  823SOL    HW1 2468   0.415   1.782   1.726  0.3432  2.5225 -0.1997
  823SOL    HW2 2469   0.486   1.663   1.820  0.5059 -1.6252 -1.1005
  824SOL     OW 2470   1.699   2.590   2.297  0.1269 -0.3816  0.5868
  824SOL    HW1 2471   1.671   2.526   2.224 -0.7738  0.6516 -2.0419
  824SOL    HW2 2472   1.629   2.663   2.312 -0.1858 -1.4548 -0.7610
  825SOL     OW 2473   1.737   0.989   0.249 -0.2443 -0.3035  0.7412
  825SOL    HW1 2474   1.836   0.972   0.265  1.9096 -1.4093  0.8677
  825SOL    HW2 2475   1.702   1.071   0.303 -2.9572  1.5102  1.0814
  826SOL     OW 2476   2.169   0.770   3.100 -1.0542  0.1204 -0.0534
  826SOL    HW1 2477   2.196   0.851   3.053  0.8232 -2.6529 -1.6936
  826SOL    HW2 2478   2.214   0.687   3.056 -0.2794 -3.2455 -1.1972
  827SOL     OW 2479   0.590   2.128   2.943 -0.4569 -0.2486 -0.1495
  827SOL    HW1 2480   0.496   2.115   2.924  3.7397 -1.6284 -0.2845
  827SOL    HW2 2481   0.650   2.092   2.870 -1.1253  1.3011 -2.3079
  828SOL     OW 2482   2.562   1.270   1.335  0.1649  0.8119  0.2403
  828SOL    HW1 2483   2.590   1.258   1.433  3.1194  1.0645  2.1046
  828SOL    HW2 2484   2.479   1.332   1.319 -1.2195  0.0630 -1.9987
  829SOL     OW 2485   0.641   1.636   0.860  0.3579 -0.4206  0.1058
  829SOL    HW1 2486   0.590   1.708   0.907 -1.2837 -0.5968 -2.7423
  829SOL    HW2 2487   0.683   1.576   0.929 -2.7848  3.1284  0.7410
  830SOL     OW 2488   1.128   1.421   1.472  0.8209  0.0755 -0.4308
  830SOL    HW1 2489   1.151   1.361   1.544 -1.9867  4.3320 -5.4597
  830SOL    HW2 2490   1.110   1.364   1.389  0.1823 -1.9415 -2.3049
  831SOL     OW 2491   0.273   1.978   0.204  0.2810  0.0788 -0.5976
  831SOL    HW1 2492   0.187   2.006   0.157  1.4591 -1.5474  2.3358
  831SOL    HW2 2493   0.326   2.063   0.226  0.9457  1.2192  1.3098
  832SOL     OW 2494   0.662   0.171   3.024  0.0957 -0.1702  0.4425
  832SOL    HW1 2495   0.594   0.140   3.097 -2.5369  0.6206 -0.3744
  832SOL    HW2 2496   0.746   0.115   3.029 -2.4839  1.1853 -1.8480
  833SOL     OW 2497   0.632   0.592   1.948 -0.0422 -0.0931 -0.7726
  833SOL    HW1 2498   0.679   0.679   1.972  1.1748 -0.6146  0.3618
  833SOL    HW2 2499   0.699   0.521   1.967 -3.0770  0.6039 -1.4884
  834SOL     OW 2500   0.062   0.483   0.745  0.2855 -0.1788  0.3437
  834SOL    HW1 2501   0.027   0.406   0.798  4.7508 -1.6841  0.6357
  834SOL    HW2 2502   0.123   0.532   0.810 -3.1355  0.2214  0.4412
  835SOL     OW 2503   2.818   0.007   1.015  0.2628 -0.0648  0.3498
  835SOL    HW1 2504   2.867   0.096   1.016 -0.4027  0.3320 -0.5881
  835SOL    HW2 2505   2.849   3.062   1.088 -0.9714  3.2466  0.2347
  836SOL     OW 2506   0.283   2.160   2.989  0.1533  0.1881 -0.0060
  836SOL    HW1 2507   0.270   2.228   2.913 -0.2634 -1.3923 -0.9077
  836SOL    HW2 2508   0.198   2.153   3.042 -1.7484  1.8884 -1.8550
  837SOL     OW 2509   1.592   1.730   2.646  0.3245 -0.3437  0.1158
  837SOL    HW1 2510   1.681   1.762   2.614 -0.6198 -1.5264 -0.5478
  837SOL    HW2 2511   1.527   1.808   2.665 -0.8394 -0.5519 -1.3362
  838SOL     OW 2512   2.992   1.036   1.610 -0.3689  0.5084 -0.5865
  838SOL    HW1 2513   3.004   0.987   1.519 -1.8334  0.5167  2.8857
  838SOL    HW2 2514   3.006   1.136   1.590  1.0095 -0.6242  1.2064
  839SOL     OW 2515   0.871   1.065   0.904 -0.6148  0.7073  0.3054
  839SOL    HW1 2516   0.890   1.160   0.864  1.2014  0.0111  0.2045
  839SOL    HW2 2517   0.790   1.017   0.870  2.2313  0.7204  1.4749
  840SOL     OW 2518   1.641   3.042   1.527  0.2788  0.3174 -0.6618
  840SOL    HW1 2519   1.743   3.042   1.518 -1.1331 -1.5483  0.3232
  840SOL    HW2 2520   1.599   2.953   1.491 -0.8545  2.8529  1.0936
  841SOL     OW 2521   0.564   2.498   0.524 -0.1525  0.1172 -0.0827
  841SOL    HW1 2522   0.485   2.522   0.462 -1.8122 -1.2849  0.1903
  841SOL    HW2 2523   0.541   2.438   0.602 -2.5448 -0.2957  0.7232
  842SOL     OW 2524   0.618   0.754   0.901 -0.3155  0.3465  0.0297
  842SOL    HW1 2525   0.568   0.733   0.989 -1.3228 -0.6274  1.2212
  842SOL    HW2 2526   0.641   0.672   0.851  0.3085 -2.3477  0.5625
  843SOL     OW 2527   0.781   1.323   2.084  0.0671 -0.1119 -0.0661
  843SOL    HW1 2528   0.856   1.380   2.058 -1.8800  1.1754  3.5767
  843SOL    HW2 2529   0.727   1.286   1.999 -2.2709 -0.2544 -4.6472
  844SOL     OW 2530   1.166   2.134   3.039 -0.1683  0.6647  0.1899
  844SOL    HW1 2531   1.212   2.045   3.056 -0.1772 -0.7180  0.2598
  844SOL    HW2 2532   1.231   2.208   3.016 -0.6348  1.9533  2.9848
  845SOL     OW 2533   2.323   2.404   2.456  0.5560  0.3349 -0.0784
  845SOL    HW1 2534   2.380   2.394   2.370 -0.0977 -0.5316 -0.5714
  845SOL    HW2 2535   2.376   2.370   2.540  0.9999 -1.2925  0.7563
  846SOL     OW 2536   1.763   1.901   2.834  0.0975  0.2743  0.7011
  846SOL    HW1 2537   1.698   1.974   2.852  0.0770  0.4991 -0.0451
  846SOL    HW2 2538   1.785   1.907   2.736 -0.3275 -1.5389  2.3083
  847SOL     OW 2539   1.959   2.754   2.633 -0.2701 -0.3878  0.4898
  847SOL    HW1 2540   2.049   2.706   2.629 -1.3584 -4.0720 -1.5536
  847SOL    HW2 2541   1.907   2.711   2.708  1.3987 -0.0118 -1.9814
  848SOL     OW 2542   0.591   0.383   0.646  0.6141  0.0888 -0.7942
  848SOL    HW1 2543   0.652   0.302   0.667 -0.0003 -3.3922 -1.6130
  848SOL    HW2 2544   0.613   0.468   0.697 -1.2098  0.5750  1.7948
  849SOL     OW 2545   0.848   3.052   1.537 -0.4068  0.2261 -0.2736
  849SOL    HW1 2546   0.908   0.011   1.564  0.0477  0.2288  0.4472
  849SOL    HW2 2547   0.747   3.086   1.535  0.2581  0.7039  0.7303
  850SOL     OW 2548   0.463   1.533   0.132 -0.1772  0.0555  0.5255
  850SOL    HW1 2549   0.407   1.575   0.204  0.1278  0.4521 -0.4051
  850SOL    HW2 2550   0.467   1.589   0.048 -1.4598  0.5778 -1.6351
  851SOL     OW 2551   3.116   1.095   0.852 -0.3365  0.3516  0.1668
  851SOL    HW1 2552   3.042   1.168   0.841 -2.3542  0.5506 -2.3675
  851SOL    HW2 2553   3.104   1.050   0.944 -2.3220 -0.1696 -0.2262
  852SOL     OW 2554   1.835   2.300   1.692  0.3351 -0.2205 -0.0599
  852SOL    HW1 2555   1.854   2.201   1.695  1.0533 -1.0187 -1.9713
  852SOL    HW2 2556   1.887   2.332   1.608 -2.8751 -0.3761 -1.1620
  853SOL     OW 2557   0.262   1.722   0.262  0.3578 -0.4594 -0.3798
  853SOL    HW1 2558   0.188   1.668   0.211 -0.6102  2.9648 -0.6881
  853SOL    HW2 2559   0.269   1.825   0.241  0.4650  2.7929  1.4407
  854SOL     OW 2560   1.747   1.178   1.782  0.3378  0.1817 -0.3908
  854SOL    HW1 2561   1.767   1.127   1.695  1.1482 -0.4662 -2.0971
  854SOL    HW2 2562   1.649   1.159   1.813 -1.9256 -1.5353  1.6958
  855SOL     OW 2563   0.875   2.708   3.079  0.3558 -0.3247 -0.1564
  855SOL    HW1 2564   0.883   2.668   0.053 -0.2142  0.1740 -1.8513
  855SOL    HW2 2565   0.861   2.635   3.011 -0.1593  0.5080  1.9951
  856SOL     OW 2566   2.927   0.667   1.819 -0.4013 -0.2585 -0.4327
  856SOL    HW1 2567   2.966   0.763   1.810  0.1653 -0.3039  0.2206
  856SOL    HW2 2568   2.869   0.649   1.740  0.8576 -0.7107 -0.6829
  857SOL     OW 2569   0.600   0.919   2.150  0.6076  0.2581  0.2973
  857SOL    HW1 2570   0.546   0.964   2.079 -1.4166 -0.0987  0.7455
  857SOL    HW2 2571   0.686   0.878   2.114 -0.4189  0.7878 -0.3060
  858SOL     OW 2572   0.478   1.259   2.426 -0.3003  0.4464 -0.1639
  858SOL    HW1 2573   0.388   1.289   2.463 -2.6514  0.8779  2.1286
  858SOL    HW2 2574   0.526   1.337   2.376  0.6203  2.9700 -0.8935
  859SOL     OW 2575   2.466   0.192   0.311 -0.7711 -0.1528  0.1066
  859SOL    HW1 2576   2.540   0.246   0.352  2.2445 -0.6736 -0.8451
  859SOL    HW2 2577   2.499   0.095   0.311  1.8993 -0.2629  2.8090
  860SOL     OW 2578   1.779   2.685   2.819 -0.4459 -0.4099  0.0176
  860SOL    HW1 2579   1.791   2.770   2.874  0.7929 -3.8429  0.2435
  860SOL    HW2 2580   1.802   2.610   2.880 -2.1609 -1.9277 -0.9622
  861SOL     OW 2581   0.429   0.716   0.357  0.6311  0.0479  0.2372
  861SOL    HW1 2582   0.412   0.647   0.431  0.5690 -2.5468  0.1377
  861SOL    HW2 2583   0.461   0.667   0.275 -1.3660  0.9846  1.9641
  862SOL     OW 2584   1.411   0.273   2.064  0.5026  0.0438  0.1947
  862SOL    HW1 2585   1.379   0.365   2.084  1.4825 -0.7843 -0.6251
  862SOL    HW2 2586   1.467   0.237   2.141 -0.2419 -0.0583 -0.7210
  863SOL     OW 2587   2.634   2.288   1.226  0.3660  0.1837  0.3023
  863SOL    HW1 2588   2.555   2.353   1.223 -1.0933 -0.1851 -0.3705
  863SOL    HW2 2589   2.694   2.306   1.309  3.1103 -1.3350  1.6949
  864SOL     OW 2590   2.500   2.968   2.019 -0.0680  0.6849  0.2615
  864SOL    HW1 2591   2.405   2.947   2.010  1.0707  2.8227  1.9713
  864SOL    HW2 2592   2.552   2.886   2.053  1.2864  0.3821  2.1985
  865SOL     OW 2593   1.194   0.380   1.643  0.8577  0.1769  0.6459
  865SOL    HW1 2594   1.175   0.293   1.590 -0.8479  3.8966  0.9192
  865SOL    HW2 2595   1.166   0.375   1.740  2.1069  0.5099 -0.4416
  866SOL     OW 2596   2.304   3.053   0.730 -0.4678 -0.1322  0.6394
  866SOL    HW1 2597   2.391   3.003   0.753 -0.8200 -0.0235 -1.3179
  866SOL    HW2 2598   2.266   3.100   0.813  0.0955 -2.2313  2.4645
  867SOL     OW 2599   2.772   2.874   0.470 -0.6191 -0.0595  0.5095
  867SOL    HW1 2600   2.845   2.945   0.447  0.1224  1.6004  0.2074
  867SOL    HW2 2601   2.770   2.868   0.574  1.7888  0.0304 -3.1224
  868SOL     OW 2602   1.212   2.153   1.819  0.2990 -0.4359  0.3583
  868SOL    HW1 2603   1.203   2.108   1.910 -0.6453  0.1940 -0.1175
  868SOL    HW2 2604   1.258   2.241   1.828  3.0775 -0.3864 -0.3885
  869SOL     OW 2605   1.906   2.212   0.229  0.4124  0.1371 -0.3380
  869SOL    HW1 2606   1.988   2.181   0.180 -3.4377  1.7019  0.6458
  869SOL    HW2 2607   1.919   2.310   0.262  2.2747  0.4113 -1.7730
  870SOL     OW 2608   2.424   2.431   0.484  0.0544 -0.0840  0.3698
  870SOL    HW1 2609   2.446   2.531   0.464 -2.2549 -0.0064 -0.9264
  870SOL    HW2 2610   2.402   2.380   0.401  2.9619  0.5700 -0.5007
  871SOL     OW 2611   0.192   1.328   1.596 -0.2157 -0.0965 -0.0486
  871SOL    HW1 2612   0.271   1.321   1.533  1.0954  0.3278  1.1281
  871SOL    HW2 2613   0.202   1.408   1.660  0.1843 -2.5451  1.8538
  872SOL     OW 2614   0.824   1.546   2.667 -0.0403 -0.3223 -0.1486
  872SOL    HW1 2615   0.845   1.610   2.742  0.6564  0.2691  2.6795
  872SOL    HW2 2616   0.864   1.456   2.679 -1.6379 -0.9672 -1.5648
  873SOL     OW 2617   0.934   2.800   1.559 -0.5808 -0.3051 -0.2879
  873SOL    HW1 2618   0.941   2.779   1.659 -1.5599 -1.0977  0.4651
  873SOL    HW2 2619   0.908   2.902   1.549  2.4970  3.0873 -1.7757
  874SOL     OW 2620   1.234   0.626   1.941 -0.1274  0.2681 -0.1071
  874SOL    HW1 2621   1.269   0.619   2.036 -0.9126  2.5554 -1.6286
  874SOL    HW2 2622   1.307   0.671   1.886 -2.2001  0.8176  0.9627
  875SOL     OW 2623   2.628   2.574   1.223  0.3533 -0.0701  0.1845
  875SOL    HW1 2624   2.580   2.562   1.312 -1.2905  0.6694 -2.3799
  875SOL    HW2 2625   2.610   2.667   1.187  0.8623 -0.5561 -0.4717
  876SOL     OW 2626   0.984   1.295   0.778 -0.1539  0.2163  0.4836
  876SOL    HW1 2627   1.010   1.242   0.697 -2.0018  2.0051  2.5740
  876SOL    HW2 2628   0.903   1.350   0.753 -0.6733 -2.4380 -0.9985
  877SOL     OW 2629   2.973   0.242   1.111  0.2140  0.3796 -0.3487
  877SOL    HW1 2630   2.934   0.333   1.133  0.2303 -1.7051  0.3548
  877SOL    HW2 2631   3.038   0.216   1.182  0.8405 -0.4763 -1.5259
  878SOL     OW 2632   2.266   1.599   0.021  0.2850  0.2413 -0.3520
  878SOL    HW1 2633   2.347   1.658   0.044  0.8581 -1.1832 -4.2319
  878SOL    HW2 2634   2.263   1.511   0.077  1.5024 -1.9963  1.1028
  879SOL     OW 2635   2.613   2.007   1.336  0.6706  0.0455  0.0051
  879SOL    HW1 2636   2.655   2.027   1.428  1.5620  0.8186 -0.8941
  879SOL    HW2 2637   2.587   2.093   1.290  2.6577 -0.3506  0.3827
  880SOL     OW 2638   0.508   2.120   1.189 -0.2380  0.6359 -0.3190
  880SOL    HW1 2639   0.413   2.109   1.211  2.5131 -2.3063  1.4145
  880SOL    HW2 2640   0.532   2.217   1.159 -2.1180 -0.9506 -2.3171
  881SOL     OW 2641   1.505   1.070   0.973  0.3384 -0.1366  0.3138
  881SOL    HW1 2642   1.463   1.090   1.064 -0.3358 -1.6438  1.1584
  881SOL    HW2 2643   1.431   1.078   0.902 -0.6372  0.4999 -1.5540
  882SOL     OW 2644   2.799   1.067   2.596  0.1909  0.4029  0.4084
  882SOL    HW1 2645   2.709   1.030   2.566 -1.0722  1.6377  0.1889
  882SOL    HW2 2646   2.839   1.032   2.681  1.1232  2.0888 -0.4115
  883SOL     OW 2647   1.281   0.274   1.193  0.1868 -0.4644 -0.4612
  883SOL    HW1 2648   1.376   0.245   1.232  1.9779 -1.2095  0.8176
  883SOL    HW2 2649   1.277   0.292   1.094 -1.0790  0.9717 -0.5293
  884SOL     OW 2650   0.033   2.996   1.077 -0.5268  0.0498 -0.1943
  884SOL    HW1 2651   3.092   3.020   1.158  0.0255  0.7257 -1.8223
  884SOL    HW2 2652   0.130   3.025   1.087 -0.6318 -0.5322 -1.1490
  885SOL     OW 2653   1.430   1.103   1.228  0.7324 -0.1638  0.2028
  885SOL    HW1 2654   1.494   1.136   1.300 -1.6786  0.8019 -0.4118
  885SOL    HW2 2655   1.345   1.070   1.277  0.9534  1.2141 -0.3068
  886SOL     OW 2656   1.322   0.987   3.075  0.7618  0.2287  0.3523
  886SOL    HW1 2657   1.421   0.971   3.092 -1.6712  0.0905  3.3673
  886SOL    HW2 2658   1.307   1.029   2.985  0.1206 -1.3957  3.2791
  887SOL     OW 2659   1.232   0.652   0.834 -0.2888 -0.3676 -0.7785
  887SOL    HW1 2660   1.266   0.669   0.740 -3.4005  2.3903  0.2344
  887SOL    HW2 2661   1.291   0.704   0.901  1.1935 -2.1648 -0.8330
  888SOL     OW 2662   2.165   1.141   1.875  0.1655  0.4721  0.3444
  888SOL    HW1 2663   2.231   1.068   1.841  1.8696 -3.8208  2.6422
  888SOL    HW2 2664   2.074   1.097   1.890 -1.1057  0.1295 -1.7743
  889SOL     OW 2665   2.421   2.400   0.747  0.4186 -0.5461  0.2493
  889SOL    HW1 2666   2.469   2.321   0.787 -1.3653  2.2258  1.0354
  889SOL    HW2 2667   2.456   2.416   0.652 -0.6969 -1.7377 -2.8955
  890SOL     OW 2668   1.494   1.679   0.834  0.0977 -0.4267 -0.3320
  890SOL    HW1 2669   1.395   1.703   0.836  2.1316  0.5811  0.2499
  890SOL    HW2 2670   1.540   1.731   0.907 -0.8842  1.8258 -1.4121
  891SOL     OW 2671   2.473   0.669   2.477  0.1272  0.5801 -0.2737
  891SOL    HW1 2672   2.558   0.671   2.418 -1.2959 -0.9051  1.7058
  891SOL    HW2 2673   2.388   0.646   2.428  0.7105  0.3857 -0.5546
  892SOL     OW 2674   0.988   0.273   2.230  0.9932  0.1113 -0.4969
  892SOL    HW1 2675   1.043   0.215   2.168 -2.5345  0.2507 -1.3628
  892SOL    HW2 2676   1.039   0.348   2.269  0.5118  0.1268 -0.9429
  893SOL     OW 2677   1.518   0.258   1.327 -0.0573  0.3931  0.1664
  893SOL    HW1 2678   1.522   0.227   1.422  2.7370  0.1771 -0.7937
  893SOL    HW2 2679   1.612   0.270   1.297  1.4980  2.4820  3.1568
  894SOL     OW 2680   2.588   0.577   0.643  0.3457 -0.2387  0.3147
  894SOL    HW1 2681   2.494   0.574   0.685  1.0299 -1.6210  2.1818
  894SOL    HW2 2682   2.649   0.613   0.712 -3.5333 -2.0621 -2.8603
  895SOL     OW 2683   1.929   2.267   2.551 -0.1786 -0.5475 -0.2064
  895SOL    HW1 2684   1.933   2.351   2.492 -0.2837 -3.6626  1.9468
  895SOL    HW2 2685   1.879   2.193   2.504 -1.3528 -0.3714  2.0205
  896SOL     OW 2686   1.895   0.009   1.540 -0.2308  0.0950  0.3742
  896SOL    HW1 2687   1.895   0.099   1.584  1.1245  0.0618 -0.1585
  896SOL    HW2 2688   1.936   3.054   1.599  2.2805  1.3204 -1.9120
  897SOL     OW 2689   0.452   1.936   1.992 -0.2998  0.1527  0.1027
  897SOL    HW1 2690   0.403   1.863   1.941  0.2020 -1.7613  2.1590
  897SOL    HW2 2691   0.551   1.942   1.966 -0.0630 -0.6648  0.2602
  898SOL     OW 2692   2.103   1.375   1.983  0.0868  0.0645 -0.0838
  898SOL    HW1 2693   2.137   1.278   1.971 -0.7386 -0.4799 -1.2011
  898SOL    HW2 2694   2.165   1.426   2.045 -2.1357  1.1517  0.7818
  899SOL     OW 2695   1.935   2.515   0.745 -0.3468  0.5866  0.6123
  899SOL    HW1 2696   2.001   2.545   0.675 -0.6546 -0.5427  2.1906
  899SOL    HW2 2697   1.971   2.540   0.838  0.9922 -0.8664  0.0907
  900SOL     OW 2698   1.055   2.920   3.018  0.0292 -0.5504 -0.4432
  900SOL    HW1 2699   1.159   2.913   3.030  2.4482 -3.0161  0.3748
  900SOL    HW2 2700   1.015   2.825   3.026  2.2982  1.3853 -0.4626
  901SOL     OW 2701   1.013   1.811   2.156 -0.1270 -0.0437  0.4048
  901SOL    HW1 2702   0.940   1.838   2.220  1.8718  2.4262 -0.8633
  901SOL    HW2 2703   1.073   1.742   2.198 -0.9683 -1.6861 -1.2351
  902SOL     OW 2704   2.298   0.297   3.034 -0.5258 -0.3910  0.0444
  902SOL    HW1 2705   2.295   0.397   3.017 -1.5135 -0.6218 -1.6599
  902SOL    HW2 2706   2.217   0.265   3.090 -0.1479  1.8044 -0.4714
  903SOL     OW 2707   2.269   0.799   2.109 -0.2491  0.8015  0.4550
  903SOL    HW1 2708   2.341   0.736   2.064  1.9046 -1.1349 -1.8648
  903SOL    HW2 2709   2.293   0.897   2.100 -1.1763 -0.1279 -0.0648
  904SOL     OW 2710   1.654   0.875   1.787 -0.3153 -0.5440 -0.5518
  904SOL    HW1 2711   1.728   0.886   1.722  0.1724  2.9360  1.0390
  904SOL    HW2 2712   1.683   0.830   1.872  2.6728  1.1599  1.9302
  905SOL     OW 2713   2.251   0.110   0.995  0.5335 -0.7012 -0.0299
  905SOL    HW1 2714   2.290   0.182   0.935  2.0930  1.0245 -0.3630
  905SOL    HW2 2715   2.218   0.155   1.079 -0.5966  0.2276  0.7877
  906SOL     OW 2716   2.388   1.898   0.472 -0.5470  0.6581 -0.2606
  906SOL    HW1 2717   2.343   1.883   0.562 -0.4657  2.9244  1.0627
  906SOL    HW2 2718   2.408   1.812   0.423  1.6139  1.1964 -1.1768
  907SOL     OW 2719   1.177   2.813   0.816  0.2238  0.0794 -0.3225
  907SOL    HW1 2720   1.242   2.829   0.737  0.3498  1.2527 -0.2143
  907SOL    HW2 2721   1.082   2.851   0.796 -0.2718 -0.2056  1.5642
  908SOL     OW 2722   1.542   2.476   2.540  0.5784 -0.8506  0.2050
  908SOL    HW1 2723   1.545   2.386   2.502  0.3715  1.4431  3.0530
  908SOL    HW2 2724   1.598   2.535   2.480 -1.6944 -2.1777 -0.8178
  909SOL     OW 2725   2.238   0.406   2.208 -0.1147  0.3301  0.2601
  909SOL    HW1 2726   2.237   0.499   2.250  0.5967 -2.5502 -2.2975
  909SOL    HW2 2727   2.195   0.412   2.115  0.2034 -2.0545 -1.6715
  910SOL     OW 2728   1.221   0.727   2.537 -0.2712 -0.7645 -0.1110
  910SOL    HW1 2729   1.138   0.686   2.491  0.1520  1.0831  2.1086
  910SOL    HW2 2730   1.198   0.759   2.630  1.8880  2.1705  4.2998
  911SOL     OW 2731   3.031   1.078   2.819 -0.0567  0.2941  0.5558
  911SOL    HW1 2732   3.034   1.060   2.917 -0.7100 -0.5820 -2.2518
  911SOL    HW2 2733   2.973   1.161   2.808  2.0565  0.1055 -0.2340
  912SOL     OW 2734   0.120   2.379   0.984  0.2431  0.1101 -0.3162
  912SOL    HW1 2735   0.035   2.337   0.944 -0.9045 -1.9051 -0.3904
  912SOL    HW2 2736   0.191   2.309   1.009 -0.9327 -1.2513  0.6208
  913SOL     OW 2737   2.573   1.954   2.380 -0.4085 -0.1769 -0.2246
  913SOL    HW1 2738   2.506   1.936   2.458 -2.6966  0.4473 -0.0431
  913SOL    HW2 2739   2.606   2.050   2.397  0.0636 -3.8888  0.3211
  914SOL     OW 2740   1.970   1.346   0.634 -0.1166 -0.4387  0.2910
  914SOL    HW1 2741   1.961   1.301   0.545  1.0279  1.4139  1.3618
  914SOL    HW2 2742   1.888   1.347   0.694  1.1463  1.4257 -0.8625
  915SOL     OW 2743   0.378   2.639   2.231 -0.1317 -0.0174 -0.4279
  915SOL    HW1 2744   0.408   2.724   2.190 -1.2896  2.1868  0.3899
  915SOL    HW2 2745   0.456   2.574   2.231  0.2286 -0.3370 -2.5374
  916SOL     OW 2746   0.809   0.024   1.120 -0.2556 -0.1159  0.0896
  916SOL    HW1 2747   0.844   3.051   1.149 -0.1528  2.4254  0.5695
  916SOL    HW2 2748   0.868   0.098   1.155 -0.6636 -0.5921  0.9564
  917SOL     OW 2749   2.349   0.560   2.991  0.7286 -0.1542  0.1790
  917SOL    HW1 2750   2.430   0.539   3.048  3.1366  2.5484 -0.9708
  917SOL    HW2 2751   2.371   0.612   2.906  0.2050 -0.2320  0.6920
  918SOL     OW 2752   1.661   2.355   2.785 -0.0503 -0.5673 -0.5632
  918SOL    HW1 2753   1.762   2.361   2.805 -1.2910  1.9146  2.2525
  918SOL    HW2 2754   1.630   2.414   2.709 -2.1861 -2.9845  3.1293
  919SOL     OW 2755   1.844   2.710   1.231  0.3178  0.3884  0.0043
  919SOL    HW1 2756   1.823   2.742   1.329 -0.6894  0.0624  1.1917
  919SOL    HW2 2757   1.796   2.623   1.207 -0.7844 -0.0496  0.2225
  920SOL     OW 2758   1.279   0.232   2.617 -0.2505  0.0323 -0.6128
  920SOL    HW1 2759   1.286   0.306   2.684 -0.7547 -1.6521  0.3409
  920SOL    HW2 2760   1.261   0.149   2.672 -3.6264 -1.1228 -0.8757
  921SOL     OW 2761   0.031   0.879   2.609 -0.3901 -0.1596  0.4259
  921SOL    HW1 2762   0.052   0.817   2.681  0.1259  0.2778 -1.9499
  921SOL    HW2 2763   0.009   0.967   2.645 -0.3692  1.8809 -2.6688
  922SOL     OW 2764   3.043   2.090   1.160  0.1559 -0.0490 -0.6190
  922SOL    HW1 2765   3.033   2.186   1.192  1.9877  1.6712 -0.1113
  922SOL    HW2 2766   2.997   2.034   1.234  0.9280 -0.0816 -4.0506
  923SOL     OW 2767   0.093   1.568   2.204 -0.0002  0.4920  0.4461
  923SOL    HW1 2768   0.184   1.599   2.235 -1.4690  0.5148  2.2086
  923SOL    HW2 2769   0.102   1.491   2.138  1.2905  1.8022 -0.8481
  924SOL     OW 2770   1.693   2.943   2.338  0.0362 -0.5225  0.0585
  924SOL    HW1 2771   1.606   2.884   2.336  1.1931 -1.0201  0.0354
  924SOL    HW2 2772   1.780   2.893   2.347  1.4301 -0.5952 -2.1373
  925SOL     OW 2773   2.809   1.752   0.503  0.4277 -0.5264 -0.3712
  925SOL    HW1 2774   2.900   1.774   0.463  0.1138 -0.5114 -1.1187
  925SOL    HW2 2775   2.815   1.743   0.605  1.2364 -1.6796  0.7509
  926SOL     OW 2776   2.443   0.775   1.012 -0.2919 -0.2222 -0.0276
  926SOL    HW1 2777   2.449   0.677   0.981 -1.7316 -1.7797  1.3046
  926SOL    HW2 2778   2.502   0.794   1.098 -0.6892  3.6917  1.4558
  927SOL     OW 2779   1.930   0.162   1.277 -0.1040 -0.1732  0.9486
  927SOL    HW1 2780   1.864   0.230   1.304 -1.6830 -2.6111 -1.3595
  927SOL    HW2 2781   1.959   0.098   1.351 -1.1779 -2.5530  3.9026
  928SOL     OW 2782   0.047   0.752   2.192  0.0643 -0.3246 -0.0145
  928SOL    HW1 2783   0.142   0.754   2.231  1.6978  0.0183  0.6130
  928SOL    HW2 2784   3.096   0.731   2.265 -0.4450 -1.2300  1.1082
  929SOL     OW 2785   2.235   1.019   1.250  0.0692  0.2005 -1.0547
  929SOL    HW1 2786   2.238   0.919   1.225 -3.0743  0.2472 -1.0149
  929SOL    HW2 2787   2.247   1.072   1.165 -0.3295 -1.0371  0.5582
  930SOL     OW 2788   2.251   2.458   1.545 -0.8259  0.2975  0.2028
  930SOL    HW1 2789   2.261   2.361   1.519  3.0300  1.9605  1.6174
  930SOL    HW2 2790   2.269   2.470   1.641 -0.8121 -0.8882 -1.8192
  931SOL     OW 2791   2.019   1.146   1.381  0.1328 -0.2389  0.1737
  931SOL    HW1 2792   1.966   1.202   1.316  1.0834 -0.5783  2.3217
  931SOL    HW2 2793   2.105   1.112   1.335  0.4529  0.2214  0.8846
  932SOL     OW 2794   0.234   0.840   1.762  0.3094 -0.4171  0.2819
  932SOL    HW1 2795   0.273   0.746   1.771 -0.5749 -2.4997  0.7924
  932SOL    HW2 2796   0.308   0.899   1.718  2.0987 -0.1530 -0.3277
  933SOL     OW 2797   2.358   2.084   1.670 -0.1900 -0.1727  0.2035
  933SOL    HW1 2798   2.344   2.150   1.594 -0.0478 -0.7230  1.1299
  933SOL    HW2 2799   2.426   2.124   1.735  0.5624  0.7281 -2.7878
  934SOL     OW 2800   1.377   2.378   1.760  0.5158 -0.4219  0.0660
  934SOL    HW1 2801   1.463   2.431   1.767 -0.7813 -1.6341 -0.5635
  934SOL    HW2 2802   1.316   2.422   1.690  3.2050 -0.1414 -0.3492
  935SOL     OW 2803   3.082   1.596   1.713 -0.1443  0.6457  0.0639
  935SOL    HW1 2804   0.038   1.555   1.766 -1.8303  0.3283  0.6587
  935SOL    HW2 2805   3.062   1.696   1.734  1.4945  2.3064 -0.1465
  936SOL     OW 2806   2.724   0.672   1.330  0.1273  0.2752  0.7781
  936SOL    HW1 2807   2.700   0.764   1.292 -1.3589 -4.6589 -1.7411
  936SOL    HW2 2808   2.641   0.611   1.338 -1.1188  0.5415 -0.1700
  937SOL     OW 2809   1.783   0.367   1.344  0.2394  0.6261  0.4514
  937SOL    HW1 2810   1.773   0.424   1.257  1.9543 -0.4838 -2.3819
  937SOL    HW2 2811   1.736   0.412   1.420 -0.3789  0.2214 -2.7935
  938SOL     OW 2812   0.478   2.827   0.779 -0.5155 -0.6350  0.2475
  938SOL    HW1 2813   0.394   2.816   0.834 -0.0501  0.2155  0.8754
  938SOL    HW2 2814   0.550   2.762   0.808  0.2485  2.9782 -0.8403
  939SOL     OW 2815   2.892   2.186   2.588 -0.3265  0.4262 -0.2965
  939SOL    HW1 2816   2.955   2.165   2.516 -0.5812 -0.1501  0.2257
  939SOL    HW2 2817   2.803   2.205   2.543 -0.4583 -1.0241 -2.2844
  940SOL     OW 2818   1.516   1.761   3.100  0.1359 -0.1667  0.0998
  940SOL    HW1 2819   1.613   1.782   3.116 -1.9883 -0.0091 -2.2941
  940SOL    HW2 2820   1.489   1.771   3.005  1.8182  1.6328  1.4795
  941SOL     OW 2821   1.933   2.466   0.229  0.2195 -0.0201 -0.6724
  941SOL    HW1 2822   2.031   2.479   0.222 -2.6742 -0.6336 -2.6529
  941SOL    HW2 2823   1.888   2.549   0.275 -0.8930  5.6734  1.1698
  942SOL     OW 2824   1.970   1.789   1.010 -0.2489  0.2126 -0.1821
  942SOL    HW1 2825   1.923   1.878   0.996 -0.6089 -0.3271  1.8192
  942SOL    HW2 2826   2.069   1.802   1.042  0.5988 -1.6167  0.7457
  943SOL     OW 2827   1.908   0.657   1.592  0.0389 -0.0238  0.3656
  943SOL    HW1 2828   1.818   0.612   1.607  1.0648 -1.7345  0.1743
  943SOL    HW2 2829   1.895   0.749   1.552 -1.8717 -2.4310  1.5041
  944SOL     OW 2830   1.357   0.589   2.179 -0.0972  0.2577  0.2961
  944SOL    HW1 2831   1.314   0.525   2.247 -2.4859 -0.7667  1.2512
  944SOL    HW2 2832   1.329   0.684   2.193  1.0660 -3.5660  2.6351
  945SOL     OW 2833   2.269   2.889   1.475  0.4863  0.1390  0.2732
  945SOL    HW1 2834   2.356   2.927   1.445 -2.8155  1.3804  0.9303
  945SOL    HW2 2835   2.201   2.931   1.413  2.8394  0.8355 -0.0221
  946SOL     OW 2836   0.600   1.234   0.588  0.7679  0.5926 -0.0744
  946SOL    HW1 2837   0.616   1.170   0.665 -2.0410 -2.9108 -0.3797
  946SOL    HW2 2838   0.684   1.242   0.528  1.1873  0.1000  1.8633
  947SOL     OW 2839   1.208   2.254   0.878  0.5082  0.4466 -0.3537
  947SOL    HW1 2840   1.207   2.355   0.886  3.0608 -0.0212  0.4375
  947SOL    HW2 2841   1.169   2.222   0.784 -0.1538  0.0944 -2.5957
  948SOL     OW 2842   0.369   1.608   1.061  0.2633  0.3621 -0.4940
  948SOL    HW1 2843   0.393   1.532   1.004 -1.2407  1.6232  0.1320
  948SOL    HW2 2844   0.432   1.691   1.055 -2.2730  0.0592 -0.8734
  949SOL     OW 2845   0.920   1.217   1.691 -0.2479 -0.2517 -0.1600
  949SOL    HW1 2846   0.889   1.310   1.715  1.4810 -1.0084  0.3108
  949SOL    HW2 2847   0.890   1.196   1.596  2.7188  1.3129 -0.4683
  950SOL     OW 2848   0.523   0.719   1.429  0.0496  0.3625  0.4522
  950SOL    HW1 2849   0.582   0.796   1.463  0.3455  0.4763 -2.2083
  950SOL    HW2 2850   0.424   0.721   1.446  0.0256 -0.9289  1.6720
  951SOL     OW 2851   0.735   2.159   2.103  0.5023  0.1783  0.1530
  951SOL    HW1 2852   0.667   2.214   2.053  3.6062 -2.7913  0.8855
  951SOL    HW2 2853   0.709   2.061   2.096  0.0056 -0.5155  1.4392
  952SOL     OW 2854   0.956   1.620   0.051 -0.3564  0.6803  0.1987
  952SOL    HW1 2855   0.884   1.674   0.001 -1.5895  2.6847 -1.7633
  952SOL    HW2 2856   0.987   1.668   0.136 -0.4120 -1.8072  0.1593
  953SOL     OW 2857   1.037   2.902   0.323  0.0715 -0.0336  0.1390
  953SOL    HW1 2858   0.965   2.872   0.387  0.9145 -0.8045  0.5426
  953SOL    HW2 2859   1.076   2.812   0.285 -0.6470 -1.6213 -1.3476
  954SOL     OW 2860   1.601   1.191   2.991  0.3232 -0.0946 -0.4406
  954SOL    HW1 2861   1.594   1.111   3.058 -2.5224 -4.1351 -0.6371
  954SOL    HW2 2862   1.605   1.282   3.039 -0.1912 -0.7839  1.2111
  955SOL     OW 2863   0.039   2.537   0.020  0.0963 -0.5287  0.2750
  955SOL    HW1 2864   0.124   2.505   3.091 -1.7702  0.1190 -2.4173
  955SOL    HW2 2865   0.003   2.622   3.096  1.2780  2.5411  0.7003
  956SOL     OW 2866   1.079   0.971   1.266 -1.0191 -0.4983  0.3207
  956SOL    HW1 2867   1.135   0.983   1.178 -0.3711 -0.3667  0.5481
  956SOL    HW2 2868   1.139   0.983   1.343 -0.3407 -0.9109 -3.2642
  957SOL     OW 2869   1.682   1.492   1.502 -0.1183 -0.7230 -0.2550
  957SOL    HW1 2870   1.597   1.541   1.485 -0.1223 -0.6705 -0.7798
  957SOL    HW2 2871   1.716   1.521   1.591  1.2048  1.1316 -0.5205
  958SOL     OW 2872   0.833   1.942   1.756 -0.0577 -0.0106  0.0185
  958SOL    HW1 2873   0.830   1.884   1.677 -0.0207  1.1378 -2.1775
  958SOL    HW2 2874   0.899   2.023   1.749 -0.9759 -1.6908  0.6962
  959SOL     OW 2875   1.623   1.191   1.388 -0.0765  0.1506  0.5509
  959SOL    HW1 2876   1.716   1.224   1.364  2.0065 -0.1834 -1.4857
  959SOL    HW2 2877   1.585   1.251   1.458 -2.3369 -0.6221 -1.0747
  960SOL     OW 2878   0.293   1.320   0.147  0.7348  0.6194 -0.3904
  960SOL    HW1 2879   0.357   1.394   0.162 -1.0695 -2.6963 -0.0468
  960SOL    HW2 2880   0.286   1.263   0.231  0.2894  1.8724 -0.9814
  961SOL     OW 2881   0.888   1.485   1.745 -0.0930  0.4754  0.0339
  961SOL    HW1 2882   0.879   1.537   1.656  0.0618  1.5179 -1.1206
  961SOL    HW2 2883   0.943   1.533   1.817 -0.3987  2.0257  2.5555
  962SOL     OW 2884   1.442   1.411   0.806  0.0638  1.1852  0.2710
  962SOL    HW1 2885   1.471   1.506   0.801 -0.3529 -2.4962  0.1596
  962SOL    HW2 2886   1.440   1.380   0.904 -0.5497  2.8921 -0.6365
  963SOL     OW 2887   1.436   1.874   2.836  0.0992 -0.1710  0.1240
  963SOL    HW1 2888   1.469   1.971   2.829 -0.2250  0.6822 -2.5521
  963SOL    HW2 2889   1.353   1.857   2.781  3.5193 -1.8707  1.3024
  964SOL     OW 2890   0.633   2.959   0.424 -0.3404  0.2770 -0.4953
  964SOL    HW1 2891   0.537   2.942   0.451 -0.1127 -0.1524 -2.0494
  964SOL    HW2 2892   0.641   2.939   0.325 -3.6818 -0.4733  2.3420
  965SOL     OW 2893   0.453   2.345   0.707 -0.1561 -0.3396 -0.6155
  965SOL    HW1 2894   0.518   2.305   0.773 -0.8636  0.3083  2.8531
  965SOL    HW2 2895   0.379   2.397   0.761 -0.8234  1.3494 -0.7202
  966SOL     OW 2896   0.141   1.571   2.675  0.0157  0.1746  0.7115
  966SOL    HW1 2897   0.065   1.500   2.683 -1.7987 -1.5149 -0.2281
  966SOL    HW2 2898   0.111   1.668   2.688 -0.2207  0.1929  0.9460
  967SOL     OW 2899   3.061   3.066   2.539  0.4310  0.1194  0.0366
  967SOL    HW1 2900   0.006   3.108   2.476  0.6564 -2.6666 -1.4990
  967SOL    HW2 2901   3.070   3.105   2.632 -2.1866 -1.2733  0.3781
  968SOL     OW 2902   2.363   0.612   0.264  0.0816  0.2885  0.1582
  968SOL    HW1 2903   2.297   0.535   0.274 -0.3014  0.4067 -1.5626
  968SOL    HW2 2904   2.320   0.705   0.271  1.7004  0.4718  2.9634
  969SOL     OW 2905   0.444   1.024   1.953 -0.5242  0.3744  0.2715
  969SOL    HW1 2906   0.415   1.033   1.858  1.0979  2.2913  2.9959
  969SOL    HW2 2907   0.410   1.103   2.010  0.9171  0.7708 -0.7297
  970SOL     OW 2908   2.315   1.428   1.322  0.1939  0.1720  0.0287
  970SOL    HW1 2909   2.252   1.409   1.242 -0.5409 -0.7442 -0.7793
  970SOL    HW2 2910   2.262   1.453   1.405  1.7262 -0.5082 -2.8323
  971SOL     OW 2911   2.557   0.106   1.166  0.2571  0.2948  1.0253
  971SOL    HW1 2912   2.584   0.091   1.068 -1.6409 -0.6146 -0.9093
  971SOL    HW2 2913   2.635   0.089   1.226 -0.6159 -0.7853 -0.3416
  972SOL     OW 2914   0.544   2.890   1.544  0.3764 -0.1336 -0.4900
  972SOL    HW1 2915   0.565   2.987   1.546  1.0720  0.9297 -0.2321
  972SOL    HW2 2916   0.572   2.854   1.458  0.5028  1.6278 -0.4262
  973SOL     OW 2917   0.185   0.274   2.966 -0.3456 -0.1686  0.2940
  973SOL    HW1 2918   0.198   0.243   2.870  0.0827 -1.4721  1.6748
  973SOL    HW2 2919   0.094   0.322   2.967 -1.0276 -1.0497  2.2391
  974SOL     OW 2920   1.817   1.306   2.187 -0.4710  0.0099 -0.4357
  974SOL    HW1 2921   1.752   1.381   2.175  1.4307  0.3472  0.4810
  974SOL    HW2 2922   1.868   1.301   2.100  1.9561  0.6977 -0.5882
  975SOL     OW 2923   3.078   3.089   1.513 -0.3040 -0.1181 -0.1107
  975SOL    HW1 2924   0.050   3.047   1.538 -3.8158 -0.4913 -0.2734
  975SOL    HW2 2925   3.062   0.063   1.552  0.7138 -0.6898 -1.8236
  976SOL     OW 2926   0.341   2.157   2.116  0.1193 -0.2401  0.1615
  976SOL    HW1 2927   0.247   2.127   2.093 -1.3913 -1.2780  0.2284
  976SOL    HW2 2928   0.401   2.091   2.072 -1.1333  2.0392  0.9755
  977SOL     OW 2929   0.821   2.444   0.404  0.0964 -0.5094  0.3158
  977SOL    HW1 2930   0.735   2.482   0.440  2.5124  1.4397 -0.0455
  977SOL    HW2 2931   0.897   2.504   0.430  2.1339 -0.7459 -1.1950
  978SOL     OW 2932   3.100   1.669   2.435 -0.0479 -0.0866 -0.8488
  978SOL    HW1 2933   0.020   1.623   2.353  0.0747 -2.5177  0.0874
  978SOL    HW2 2934   3.006   1.703   2.418 -1.1448  2.1920 -0.1955
  979SOL     OW 2935   1.664   2.557   1.445 -0.0987  0.4319 -0.2518
  979SOL    HW1 2936   1.746   2.503   1.432 -2.1376  0.9219  1.2212
  979SOL    HW2 2937   1.589   2.529   1.380 -2.2819  1.4121 -0.2199
  980SOL     OW 2938   0.878   1.378   3.032  0.0682  0.0895 -0.3635
  980SOL    HW1 2939   0.779   1.368   3.005 -2.5406 -0.7062  1.0011
  980SOL    HW2 2940   0.904   1.461   3.083 -1.3698 -1.5304  2.1970
  981SOL     OW 2941   2.132   0.146   2.205  0.2453  0.3692 -0.0744
  981SOL    HW1 2942   2.165   0.244   2.227 -0.9961  0.9354 -1.2477
  981SOL    HW2 2943   2.162   0.120   2.107 -0.7632  3.2616  0.1070
  982SOL     OW 2944   3.060   0.112   2.788 -0.3715 -0.3202 -0.5928
  982SOL    HW1 2945   2.968   0.135   2.744 -1.2958 -2.5903 -0.3458
  982SOL    HW2 2946   0.014   0.169   2.744  0.5481 -0.2000  0.8462
  983SOL     OW 2947   2.040   1.089   2.194 -0.0580 -0.0808  0.0073
  983SOL    HW1 2948   1.989   1.066   2.277 -2.5450  1.6495 -3.1633
  983SOL    HW2 2949   1.978   1.053   2.120  0.1132  0.7601 -0.3230
  984SOL     OW 2950   1.565   0.201   1.852  0.0163 -0.5792 -0.2282
  984SOL    HW1 2951   1.496   0.211   1.929  0.9721  3.5662  0.7876
  984SOL    HW2 2952   1.623   0.278   1.858 -1.8361 -1.8671  1.2431
  985SOL     OW 2953   1.855   1.413   1.886  0.2577  0.3457  0.6352
  985SOL    HW1 2954   1.808   1.327   1.855 -4.1443 -2.7938 -1.6649
  985SOL    HW2 2955   1.954   1.396   1.899 -0.4179  2.4412 -0.9686
  986SOL     OW 2956   2.054   0.444   1.587 -0.3514 -0.0226  0.1047
  986SOL    HW1 2957   2.137   0.432   1.649  4.4004  0.7763  0.9248
  986SOL    HW2 2958   2.028   0.540   1.594  1.0920 -2.1987  0.7399
  987SOL     OW 2959   2.467   0.536   1.385 -0.7690 -0.0877 -0.3116
  987SOL    HW1 2960   2.470   0.545   1.486  1.0208  2.0278  1.5683
  987SOL    HW2 2961   2.458   0.439   1.355  2.2390  2.6892 -1.9187
  988SOL     OW 2962   3.042   0.977   2.071 -0.4076  0.0633 -0.2884
  988SOL    HW1 2963   3.065   0.927   1.984  0.6832  1.3965 -2.4720
  988SOL    HW2 2964   3.080   0.933   2.156 -0.9162 -2.4172  3.3850
  989SOL     OW 2965   2.051   1.666   3.000 -0.1276 -0.1423  0.4446
  989SOL    HW1 2966   2.068   1.708   2.907 -0.7587  0.4127 -1.3827
  989SOL    HW2 2967   2.142   1.634   3.039  2.5875 -0.2206  0.0596
  990SOL     OW 2968   0.917   0.455   3.064  0.3068 -0.9054 -0.3481
  990SOL    HW1 2969   0.887   0.472   2.972 -0.6287 -1.1351 -0.5082
  990SOL    HW2 2970   1.020   0.458   3.056  1.5092  1.9480 -1.0354
  991SOL     OW 2971   1.580   0.934   3.115  0.0071 -0.1350  0.0956
  991SOL    HW1 2972   1.629   0.933   0.090  0.8583 -1.5253  3.0892
  991SOL    HW2 2973   1.602   0.844   3.070  1.1582 -0.7508 -1.6819
  992SOL     OW 2974   2.071   1.177   0.020 -0.2435 -0.3442 -0.2667
  992SOL    HW1 2975   2.020   1.266   0.027  0.3264 -2.1518  0.2867
  992SOL    HW2 2976   2.011   1.097   3.116  0.4615  0.7482  0.8468
  993SOL     OW 2977   0.013   0.409   0.487  0.6676 -0.0970  0.5508
  993SOL    HW1 2978   0.095   0.432   0.427  0.1252 -1.6591 -1.6269
  993SOL    HW2 2979   0.035   0.451   0.576 -1.0431  0.3265  1.2974
  994SOL     OW 2980   3.024   1.993   2.122 -0.2829  0.2498  0.1272
  994SOL    HW1 2981   2.944   1.989   2.184  1.3237  0.9254  0.0110
  994SOL    HW2 2982   3.112   1.973   2.178  0.2598 -2.2289 -0.4824
  995SOL     OW 2983   1.816   1.427   2.433  0.1094 -0.2398 -0.1194
  995SOL    HW1 2984   1.813   1.384   2.340  0.0954  0.8149 -0.3543
  995SOL    HW2 2985   1.883   1.370   2.488 -1.0488  0.0020  1.3132
  996SOL     OW 2986   2.057   1.778   2.749  0.1708  0.9193 -0.3423
  996SOL    HW1 2987   2.128   1.846   2.755 -3.4943 -3.3184  1.1947
  996SOL    HW2 2988   1.966   1.818   2.725 -1.9887  0.0457  2.3578
  997SOL     OW 2989   2.354   1.550   1.633 -0.0017 -0.4262 -0.5473
  997SOL    HW1 2990   2.398   1.520   1.548  2.3680  0.0871 -1.8182
  997SOL    HW2 2991   2.421   1.607   1.688  0.3128  1.9449  1.4876
  998SOL     OW 2992   2.449   1.657   0.346 -0.5112  0.0986 -0.1453
  998SOL    HW1 2993   2.550   1.646   0.368 -1.1802 -1.4911  3.2998
  998SOL    HW2 2994   2.391   1.575   0.375 -1.3123 -1.0200 -1.2716
  999SOL     OW 2995   2.717   2.415   0.362  0.6869 -0.0525 -0.5647
  999SOL    HW1 2996   2.706   2.394   0.458  0.7080 -0.4241 -3.5491
  999SOL    HW2 2997   2.758   2.511   0.360  1.2619  1.3027 -0.5755
 1000SOL     OW 2998   0.870   0.485   2.021  0.3321  0.4785 -0.1110
 1000SOL    HW1 2999   0.883   0.413   2.092  0.3829  1.7977  1.5778
 1000SOL    HW2 3000   0.917   0.574   2.043 -2.8188  3.3869 -1.8111
   3.11754   3.11754   3.11754
