1000 SPC/Fw water molecules t= 204.00000 step= 204000
 3000
    1SOL     OW    1   2.916   3.044   0.919  0.0340  0.2901  0.2507
    1SOL    HW1    2   2.816   3.031   0.917 -1.1427 -0.4821 -1.2724
    1SOL    HW2    3   2.952   3.067   0.829  0.7264 -3.3104  0.6400
    2SOL     OW    4   2.036   1.626   2.209  0.4009 -0.0090  0.2363
    2SOL    HW1    5   2.017   1.642   2.309 -0.6596  0.6651  1.4533
    2SOL    HW2    6   2.037   1.523   2.193  0.2765 -1.8115 -2.5516
    3SOL     OW    7   2.039   2.567   2.448  0.1637 -0.0234 -0.0009
    3SOL    HW1    8   2.046   2.567   2.346 -0.7636 -2.5927  2.0336
    3SOL    HW2    9   2.072   2.476   2.477  0.6652 -1.8556  1.1479
    4SOL     OW   10   2.034   1.776   2.438  0.4105  0.3966 -0.4742
    4SOL    HW1   11   2.117   1.794   2.378  4.0038 -2.3614  0.9570
    4SOL    HW2   12   2.070   1.740   2.527  1.0049 -0.0847 -0.1821
    5SOL     OW   13   1.388   0.612   1.711  0.0959 -0.0535  0.0260
    5SOL    HW1   14   1.295   0.624   1.669  0.7768  0.0620  1.1793
    5SOL    HW2   15   1.438   0.535   1.666 -0.0922 -1.2889  0.6262
    6SOL     OW   16   2.717   0.798   2.942  0.1640  0.8449  0.3382
    6SOL    HW1   17   2.751   0.749   2.857 -0.1683 -4.1759 -0.4960
    6SOL    HW2   18   2.736   0.742   3.027  4.5183 -2.2758  0.7006
    7SOL     OW   19   0.683   1.223   1.257 -0.1412  0.2199  0.4086
    7SOL    HW1   20   0.725   1.295   1.196  2.4116 -0.6123 -0.1026
    7SOL    HW2   21   0.582   1.236   1.265  1.4786 -0.2576  1.9975
    8SOL     OW   22   1.346   0.596   0.788  0.3616 -0.1622 -0.2346
    8SOL    HW1   23   1.270   0.544   0.834 -2.1641  0.1874  2.4745
    8SOL    HW2   24   1.419   0.536   0.758 -2.6673  4.0420  0.5365
    9SOL     OW   25   1.001   0.777   2.788 -0.3599  0.0746  0.2787
    9SOL    HW1   26   1.060   0.717   2.852  1.9699 -0.0591 -0.1009
    9SOL    HW2   27   1.035   0.784   2.692  0.5897 -2.1551  1.4999
   10SOL     OW   28   0.161   2.645   0.336 -0.1639  0.4409 -0.3448
   10SOL    HW1   29   0.225   2.569   0.317  0.3043  0.6428  1.2750
   10SOL    HW2   30   0.158   2.694   0.249 -2.0197 -1.4123  1.3588
   11SOL     OW   31   0.544   1.346   0.008 -0.1763 -0.8510 -0.1106
   11SOL    HW1   32   0.519   1.281   3.030 -0.7517  0.0131 -0.2908
   11SOL    HW2   33   0.454   1.387   0.033  0.4681  0.4302  1.0286
   12SOL     OW   34   0.455   0.318   1.362  0.1622 -0.1951  0.2190
   12SOL    HW1   35   0.423   0.228   1.323  1.1764 -0.3642 -2.0635
   12SOL    HW2   36   0.483   0.316   1.462  2.0548  1.4131  2.7711
   13SOL     OW   37   0.980   0.191   0.375  0.1242 -0.3182  0.0306
   13SOL    HW1   38   1.031   0.153   0.296  1.3215  3.4647  1.5276
   13SOL    HW2   39   0.933   0.115   0.425  0.5955 -0.1441 -0.6876
   14SOL     OW   40   1.289   2.304   1.302  0.0893  0.6375 -0.4070
   14SOL    HW1   41   1.186   2.322   1.305 -2.3413  1.6659  2.2374
   14SOL    HW2   42   1.314   2.284   1.399 -2.8407 -2.8084  0.4658
   15SOL     OW   43   2.591   0.799   1.985  0.1837 -0.0227  0.1403
   15SOL    HW1   44   2.678   0.748   2.005  2.3204  0.9300 -0.7728
   15SOL    HW2   45   2.569   0.809   1.888  1.2958  1.6424  1.4277
   16SOL     OW   46   1.277   2.800   0.111 -0.0785 -0.1452  0.3069
   16SOL    HW1   47   1.200   2.826   0.171  0.3238 -0.2316  1.4052
   16SOL    HW2   48   1.285   2.698   0.105  2.4401 -3.1546 -0.1248
   17SOL     OW   49   0.841   0.123   1.387 -0.0902  0.0599  0.1219
   17SOL    HW1   50   0.783   0.097   1.468  3.0598  2.5740  0.7386
   17SOL    HW2   51   0.841   0.226   1.393 -0.6059  1.2327  1.1930
   18SOL     OW   52   1.152   0.853   0.095 -0.0172  0.0946 -0.9259
   18SOL    HW1   53   1.078   0.921   0.108  0.5903 -1.8904  0.6727
   18SOL    HW2   54   1.236   0.900   0.048  1.6516 -1.8442  0.6480
   19SOL     OW   55   2.025   1.546   0.127 -0.2932 -0.2319  0.0929
   19SOL    HW1   56   1.984   1.577   0.037 -0.7324  2.6515 -1.5792
   19SOL    HW2   57   1.950   1.532   0.196 -3.4893  0.1977  3.3675
   20SOL     OW   58   1.859   1.708   1.549  0.2504 -0.4191  0.3302
   20SOL    HW1   59   1.927   1.655   1.598  1.3333  1.8133  1.6961
   20SOL    HW2   60   1.779   1.647   1.524 -2.3087 -2.9223 -0.3289
   21SOL     OW   61   0.732   1.262   0.184 -0.1750  0.5254  0.2413
   21SOL    HW1   62   0.811   1.330   0.175  0.5152  0.0257 -2.3476
   21SOL    HW2   63   0.653   1.292   0.128  2.9667 -0.7347  1.2182
   22SOL     OW   64   2.306   3.027   1.351 -0.3175  0.4735 -0.0198
   22SOL    HW1   65   2.230   3.028   1.285 -0.5548 -1.7509 -0.7193
   22SOL    HW2   66   2.279   2.982   1.438  2.3635 -0.5736 -0.2676
   23SOL     OW   67   3.062   0.834   1.676  0.1290 -0.0724  0.0449
   23SOL    HW1   68   0.010   0.763   1.617 -2.9980 -1.8873  0.2313
   23SOL    HW2   69   3.016   0.900   1.617  0.0810 -2.2317  1.8189
   24SOL     OW   70   2.210   2.442   1.215 -0.0294  0.4642  0.3889
   24SOL    HW1   71   2.262   2.513   1.173 -2.4569 -2.1245 -2.0302
   24SOL    HW2   72   2.136   2.399   1.152  0.3725  1.0556 -0.3713
   25SOL     OW   73   1.901   2.893   2.786  0.1473  0.7198  0.2990
   25SOL    HW1   74   1.843   2.974   2.790  0.3712 -1.9275 -0.4860
   25SOL    HW2   75   1.890   2.842   2.698 -0.2760 -0.9793 -1.8292
   26SOL     OW   76   1.264   2.517   0.084  0.3664  0.2549 -0.3451
   26SOL    HW1   77   1.300   2.422   0.072 -0.4886  0.1694  1.0655
   26SOL    HW2   78   1.163   2.506   0.087  0.6456 -1.9630 -0.6705
   27SOL     OW   79   0.431   1.818   2.489  0.3138 -0.6421  0.2663
   27SOL    HW1   80   0.341   1.849   2.451 -1.1231 -2.6790  1.5772
   27SOL    HW2   81   0.417   1.721   2.517  1.2419 -0.7070  0.7412
   28SOL     OW   82   0.122   1.241   1.622 -0.1819  0.4371  0.8771
   28SOL    HW1   83   0.103   1.314   1.557 -0.8977  0.4642  0.2665
   28SOL    HW2   84   0.216   1.249   1.660  1.7137  0.5511  2.9495
   29SOL     OW   85   2.557   2.150   2.170  0.2879 -0.6712  0.1533
   29SOL    HW1   86   2.614   2.101   2.232  1.5709  0.4789 -2.8546
   29SOL    HW2   87   2.611   2.221   2.126 -4.0332 -2.4534  1.1985
   30SOL     OW   88   1.400   2.953   0.346 -0.2272  0.0968 -0.3014
   30SOL    HW1   89   1.360   2.862   0.351 -0.7574  0.7792  1.4095
   30SOL    HW2   90   1.388   2.997   0.441 -1.0193 -1.5128  0.7593
   31SOL     OW   91   2.612   2.504   1.787 -0.3489 -0.2113  0.1364
   31SOL    HW1   92   2.527   2.562   1.787 -0.9712 -1.3037 -1.3215
   31SOL    HW2   93   2.694   2.556   1.828  0.4898  1.2311  0.8240
   32SOL     OW   94   1.228   1.043   1.707 -0.2350 -0.2284 -0.1941
   32SOL    HW1   95   1.217   1.132   1.660 -0.2888 -1.1301  1.4923
   32SOL    HW2   96   1.141   0.993   1.697  1.3960  0.2280 -0.7961
   33SOL     OW   97   0.078   2.918   2.566 -0.2259 -0.7113  0.8254
   33SOL    HW1   98   0.055   2.899   2.466  0.4775 -2.2435 -1.7741
   33SOL    HW2   99   3.090   2.930   2.624 -0.6317 -0.0147  2.5351
   34SOL     OW  100   1.912   0.239   0.844  0.5440  0.2521 -0.2438
   34SOL    HW1  101   1.993   0.255   0.779 -0.8252  0.9248 -1.3037
   34SOL    HW2  102   1.919   0.149   0.896 -0.9549 -3.5614  1.7255
   35SOL     OW  103   2.369   0.154   0.737 -0.6287 -0.2564  0.0688
   35SOL    HW1  104   2.358   0.053   0.747 -1.3741  1.2350  1.7217
   35SOL    HW2  105   2.425   0.183   0.655  1.1296 -1.7248 -1.0036
   36SOL     OW  106   1.874   2.761   2.539 -0.3562 -0.0619 -0.0826
   36SOL    HW1  107   1.942   2.686   2.529 -3.0393 -0.6210  0.2643
   36SOL    HW2  108   1.783   2.732   2.512  3.7039 -0.2889 -0.7589
   37SOL     OW  109   1.057   2.474   2.503  0.3400  0.1764 -0.0557
   37SOL    HW1  110   1.009   2.469   2.591 -0.3034 -2.7276 -2.0498
   37SOL    HW2  111   1.153   2.492   2.517 -0.4041 -0.2886  1.2627
   38SOL     OW  112   2.716   0.473   2.752 -0.6210  0.3397  0.2641
   38SOL    HW1  113   2.643   0.468   2.818  0.1929 -0.6074  1.5852
   38SOL    HW2  114   2.800   0.421   2.780 -1.0793 -1.7087 -0.2998
   39SOL     OW  115   2.255   1.716   1.623  0.0257  0.0441  0.1200
   39SOL    HW1  116   2.269   1.814   1.659 -1.9629  2.6255  1.0557
   39SOL    HW2  117   2.338   1.657   1.621 -0.7977 -1.8612  0.1384
   40SOL     OW  118   0.363   2.957   2.552 -0.1412  0.4660 -0.0919
   40SOL    HW1  119   0.374   3.037   2.498 -2.1839  0.4931  1.1942
   40SOL    HW2  120   0.263   2.936   2.563  1.2861  3.5174 -0.7654
   41SOL     OW  121   1.897   0.571   0.823  0.1833 -0.6882 -0.3275
   41SOL    HW1  122   1.881   0.497   0.893 -3.2799  1.0362  3.7887
   41SOL    HW2  123   1.998   0.590   0.820  0.2945 -2.6318 -1.1656
   42SOL     OW  124   0.587   0.521   1.276 -0.0035  0.2292 -0.3084
   42SOL    HW1  125   0.526   0.445   1.304 -1.0572  2.7187  0.1858
   42SOL    HW2  126   0.615   0.573   1.357  0.4893 -0.6974 -0.0732
   43SOL     OW  127   2.595   1.305   2.167  0.2231  0.4457 -0.3613
   43SOL    HW1  128   2.535   1.366   2.109  1.0241 -0.5682  0.8133
   43SOL    HW2  129   2.602   1.209   2.132 -1.2148 -0.7903  0.7933
   44SOL     OW  130   2.890   2.856   0.326 -0.2992 -0.1734 -0.1582
   44SOL    HW1  131   2.852   2.938   0.281 -1.3094  1.3766 -1.8636
   44SOL    HW2  132   2.927   2.885   0.414 -0.3716  1.4399 -0.9923
   45SOL     OW  133   2.933   2.400   1.967  0.0213  0.2394  0.0446
   45SOL    HW1  134   2.902   2.487   1.926 -1.6626 -1.8197 -0.4778
   45SOL    HW2  135   2.992   2.345   1.909 -0.5245 -0.9862  2.4333
   46SOL     OW  136   2.170   2.320   2.299 -0.0630  0.0064  0.0299
   46SOL    HW1  137   2.097   2.300   2.364 -1.6099 -0.4086  1.0414
   46SOL    HW2  138   2.267   2.313   2.341  0.8362  0.0798  0.7327
   47SOL     OW  139   1.790   2.129   1.499  0.0450  0.0843  0.6116
   47SOL    HW1  140   1.783   2.044   1.561  2.0008  0.2563  0.8616
   47SOL    HW2  141   1.727   2.122   1.416  0.5470 -1.2750 -0.3343
   48SOL     OW  142   0.484   1.548   0.528 -0.0478 -0.1891  0.2615
   48SOL    HW1  143   0.512   1.607   0.446  1.4217 -0.3801 -4.3590
   48SOL    HW2  144   0.564   1.515   0.578  0.3236 -1.3502  3.1061
   49SOL     OW  145   2.666   0.438   2.468  0.4984 -0.1201  0.0637
   49SOL    HW1  146   2.697   0.481   2.555 -0.5591 -1.6217  1.5333
   49SOL    HW2  147   2.566   0.463   2.449 -1.3942  1.2478 -2.7551
   50SOL     OW  148   2.253   0.806   0.347 -0.0970 -0.5248  0.6282
   50SOL    HW1  149   2.334   0.754   0.383  0.2884  0.3243 -0.7369
   50SOL    HW2  150   2.275   0.830   0.250  3.8433 -1.0873  3.3532
   51SOL     OW  151   1.974   0.692   1.103  0.8159 -0.7135  0.0243
   51SOL    HW1  152   1.946   0.614   1.045 -2.0547 -1.5071 -2.3649
   51SOL    HW2  153   2.064   0.674   1.147 -0.3948 -0.7437 -0.7568
   52SOL     OW  154   0.976   1.364   3.023 -0.0512 -0.2226 -0.4362
   52SOL    HW1  155   0.957   1.266   3.026 -3.5113  0.2750  0.5232
   52SOL    HW2  156   1.053   1.396   3.084 -0.0510 -0.6103 -2.8894
   53SOL     OW  157   0.938   1.537   2.137  0.0673  0.0277 -0.6237
   53SOL    HW1  158   0.916   1.634   2.153  0.5724 -0.9220  0.1607
   53SOL    HW2  159   0.860   1.476   2.119  0.5211 -0.4302 -1.0939
   54SOL     OW  160   2.266   0.269   1.216  0.4656  0.5254  0.4387
   54SOL    HW1  161   2.211   0.185   1.227 -0.0777 -0.3735 -2.3279
   54SOL    HW2  162   2.306   0.266   1.118  1.0821  2.7057 -1.1551
   55SOL     OW  163   2.590   2.845   0.582 -0.4083 -0.0648  0.0958
   55SOL    HW1  164   2.618   2.773   0.517  0.8154  2.0660  1.5181
   55SOL    HW2  165   2.609   2.940   0.549  1.6150 -4.4379  2.1373
   56SOL     OW  166   0.893   2.950   1.490  0.0700  0.0969  0.3167
   56SOL    HW1  167   0.878   2.871   1.427  0.9466  1.1392  0.3980
   56SOL    HW2  168   0.866   3.037   1.452 -0.2512 -1.7670  2.8223
   57SOL     OW  169   1.484   1.328   0.397  0.2589 -0.1255 -0.0174
   57SOL    HW1  170   1.428   1.290   0.473 -0.5917  0.7666  0.3719
   57SOL    HW2  171   1.560   1.391   0.427  1.0788  1.9039 -0.1195
   58SOL     OW  172   3.034   0.566   2.315  0.3198 -0.0359 -0.1861
   58SOL    HW1  173   3.023   0.652   2.262  3.6341  0.8489 -2.1129
   58SOL    HW2  174   2.956   0.502   2.318 -1.1347 -1.4428  1.0498
   59SOL     OW  175   1.018   2.749   2.769 -0.1009  0.4247  0.0845
   59SOL    HW1  176   1.032   2.791   2.862 -1.4078 -0.5288  1.3954
   59SOL    HW2  177   0.994   2.647   2.776 -0.9329 -0.8139 -4.2978
   60SOL     OW  178   2.294   2.685   0.565 -0.2029 -0.1617 -0.2801
   60SOL    HW1  179   2.389   2.648   0.573 -0.8132  1.0341  0.8605
   60SOL    HW2  180   2.290   2.775   0.508  0.7313  1.1582 -0.1489
   61SOL     OW  181   1.004   2.327   0.743 -0.3360  0.9108  0.8612
   61SOL    HW1  182   1.007   2.318   0.638 -1.2030 -2.2591  0.3291
   61SOL    HW2  183   1.048   2.410   0.773 -1.1199 -0.3123  0.9946
   62SOL     OW  184   2.392   2.167   2.805 -0.0530  0.4397  0.0842
   62SOL    HW1  185   2.306   2.191   2.856 -1.3409  0.6404  3.0678
   62SOL    HW2  186   2.471   2.169   2.871  3.4034  0.9427  0.1246
   63SOL     OW  187   2.300   0.785   2.631 -0.0384 -0.2101  0.2043
   63SOL    HW1  188   2.376   0.828   2.577  0.7925  1.4923 -1.0904
   63SOL    HW2  189   2.221   0.777   2.563 -1.0865  0.7921 -2.4092
   64SOL     OW  190   1.163   0.580   2.932  0.0942 -0.4740  0.3482
   64SOL    HW1  191   1.138   0.578   3.031 -2.7001 -1.2851 -1.5908
   64SOL    HW2  192   1.263   0.594   2.922 -0.2796  1.9775  0.3054
   65SOL     OW  193   0.906   1.924   0.582  0.4118 -0.2316 -0.1358
   65SOL    HW1  194   0.900   1.839   0.527 -1.1256 -0.1555 -1.1562
   65SOL    HW2  195   0.941   1.998   0.521 -0.3984 -0.6642  0.1695
   66SOL     OW  196   0.364   1.105   1.814 -0.4936 -0.1203  0.2755
   66SOL    HW1  197   0.365   1.201   1.849  0.5933  1.1723 -0.1427
   66SOL    HW2  198   0.451   1.059   1.833 -0.1607  0.8910 -1.3267
   67SOL     OW  199   2.384   2.968   2.583 -0.0443 -0.1341 -0.0552
   67SOL    HW1  200   2.370   3.067   2.558 -0.0547  0.5862 -2.1382
   67SOL    HW2  201   2.331   2.901   2.522  1.0839 -3.4135 -3.4950
   68SOL     OW  202   0.708   1.936   1.345 -0.0402 -0.1193  0.7880
   68SOL    HW1  203   0.777   1.966   1.280 -0.0159 -0.9719  1.4930
   68SOL    HW2  204   0.635   1.877   1.297 -3.0586 -0.3261  0.1501
   69SOL     OW  205   1.136   2.543   0.356  0.0146 -0.0366  0.4476
   69SOL    HW1  206   1.061   2.606   0.334  1.4058 -0.0036 -0.7293
   69SOL    HW2  207   1.223   2.584   0.375 -3.5702 -0.0905 -1.6159
   70SOL     OW  208   3.011   1.199   2.830  0.1371  0.1395  0.0607
   70SOL    HW1  209   3.082   1.229   2.899 -2.4971 -1.2859  0.9255
   70SOL    HW2  210   3.053   1.193   2.737 -4.0242 -0.5777 -0.5175
   71SOL     OW  211   2.819   1.391   2.830  0.0348 -0.0397 -0.2003
   71SOL    HW1  212   2.896   1.322   2.841  0.8761 -1.4139  0.7065
   71SOL    HW2  213   2.760   1.387   2.742 -0.3944  1.1373  1.2632
   72SOL     OW  214   2.747   2.193   0.313  0.1459  0.3287 -0.6921
   72SOL    HW1  215   2.713   2.099   0.323  3.9128 -0.2346 -1.7481
   72SOL    HW2  216   2.852   2.196   0.326  0.3690  0.2315 -0.9111
   73SOL     OW  217   0.939   1.456   0.285 -0.2897 -0.1052 -0.1595
   73SOL    HW1  218   0.963   1.376   0.341  1.0809  0.9301 -1.0038
   73SOL    HW2  219   1.003   1.471   0.209  0.1945  0.0936  1.9113
   74SOL     OW  220   0.063   0.640   2.940  0.2492 -0.2025 -0.0523
   74SOL    HW1  221   3.075   0.609   2.992  1.6581  0.7960 -1.7369
   74SOL    HW2  222   0.037   0.667   2.847 -0.3951 -0.7221  1.2529
   75SOL     OW  223   2.026   1.608   1.732  0.5207 -0.7265 -0.4765
   75SOL    HW1  224   2.111   1.627   1.679 -1.3985 -0.7624  1.6922
   75SOL    HW2  225   2.024   1.677   1.809 -0.8545  1.0330 -1.4269
   76SOL     OW  226   2.059   2.721   1.491  0.0960 -0.0376 -0.7321
   76SOL    HW1  227   2.138   2.672   1.537  2.5161 -0.8210 -2.0700
   76SOL    HW2  228   1.966   2.680   1.512 -1.5135 -2.4188  1.0300
   77SOL     OW  229   2.596   0.305   1.210  0.3996 -0.2647  0.1403
   77SOL    HW1  230   2.695   0.293   1.207 -2.4070 -1.1867  2.4835
   77SOL    HW2  231   2.547   0.220   1.196  1.7271  1.6707 -1.0029
   78SOL     OW  232   1.374   0.986   0.013 -0.6278  0.0548  0.5098
   78SOL    HW1  233   1.447   0.931   3.062 -0.1325 -0.7805 -0.8581
   78SOL    HW2  234   1.308   1.025   3.036 -1.9831  1.8126 -0.5337
   79SOL     OW  235   0.628   1.869   1.858  0.1389  0.4348  0.2378
   79SOL    HW1  236   0.639   1.959   1.899  2.2974  0.8333 -0.9840
   79SOL    HW2  237   0.721   1.848   1.816  0.5084 -3.8100 -3.3937
   80SOL     OW  238   1.608   0.992   1.132 -0.0887  0.7488  0.1746
   80SOL    HW1  239   1.600   0.965   1.233 -1.2574 -1.4590 -1.5592
   80SOL    HW2  240   1.551   0.928   1.075  1.0139  0.6958  0.4766
   81SOL     OW  241   0.510   0.198   1.024  0.2500  0.6484 -0.4233
   81SOL    HW1  242   0.484   0.113   0.984  0.1031  0.6947  2.7448
   81SOL    HW2  243   0.589   0.235   0.975  3.5738  1.1326 -0.9353
   82SOL     OW  244   1.745   2.762   1.791  0.2698 -0.0109  0.3573
   82SOL    HW1  245   1.645   2.764   1.787 -0.8290  0.5978 -0.9235
   82SOL    HW2  246   1.771   2.773   1.890 -0.9173 -1.7304 -0.7743
   83SOL     OW  247   0.708   2.902   1.235 -0.1919 -0.5455 -0.0720
   83SOL    HW1  248   0.659   2.880   1.145  0.5849 -0.8113 -0.4894
   83SOL    HW2  249   0.784   2.834   1.248 -2.9049  0.7175 -1.7461
   84SOL     OW  250   0.382   1.275   2.644  0.2120  0.5853 -0.1849
   84SOL    HW1  251   0.347   1.349   2.590 -1.6592 -2.6697  1.6060
   84SOL    HW2  252   0.475   1.248   2.612 -0.2664  0.4182  3.2505
   85SOL     OW  253   0.140   2.155   1.503  0.1106 -0.7782  0.1109
   85SOL    HW1  254   0.214   2.177   1.572 -0.6238 -0.9092  1.2776
   85SOL    HW2  255   0.177   2.193   1.413 -0.8180  1.8715 -0.7132
   86SOL     OW  256   2.739   2.501   1.516 -0.3368  0.5014 -0.2105
   86SOL    HW1  257   2.781   2.438   1.449  0.4178 -0.0507 -0.2802
   86SOL    HW2  258   2.708   2.447   1.597 -3.0298 -2.8803  2.3269
   87SOL     OW  259   2.581   2.160   2.987 -0.3258 -0.7155 -0.1172
   87SOL    HW1  260   2.659   2.209   2.942 -1.4268  0.5278  3.0716
   87SOL    HW2  261   2.621   2.080   3.032 -0.6274  1.1858  0.8294
   88SOL     OW  262   0.500   1.794   1.207 -0.2487  0.3188  0.2096
   88SOL    HW1  263   0.467   1.780   1.300  0.4639 -3.4032 -1.7602
   88SOL    HW2  264   0.488   1.707   1.157 -2.0113  1.1937  0.0891
   89SOL     OW  265   0.894   3.084   1.779  0.3136  0.0495 -0.4822
   89SOL    HW1  266   0.948   0.066   1.733  0.2146 -1.5797  1.8887
   89SOL    HW2  267   0.959   3.014   1.806 -2.3998  1.6991 -1.6060
   90SOL     OW  268   0.088   1.874   1.738 -0.2964  0.0363  0.2735
   90SOL    HW1  269   0.004   1.825   1.763 -0.6424  0.3016 -1.0311
   90SOL    HW2  270   0.087   1.967   1.776  0.1260  0.1336 -1.2691
   91SOL     OW  271   1.112   1.620   0.854  0.1331 -0.1339 -0.0219
   91SOL    HW1  272   1.111   1.605   0.752 -1.6627  1.7579  0.4447
   91SOL    HW2  273   1.072   1.712   0.870 -0.9866  0.0952 -0.5774
   92SOL     OW  274   2.522   0.041   1.173  0.1686 -0.6479 -0.3292
   92SOL    HW1  275   2.453   3.075   1.218 -3.1828  2.1639 -0.6645
   92SOL    HW2  276   2.559   0.000   1.089  1.1637  1.5936  0.2962
   93SOL     OW  277   2.628   1.544   0.007  0.2829 -0.6663 -0.3397
   93SOL    HW1  278   2.672   1.465   0.057  1.0115  2.6769  2.7004
   93SOL    HW2  279   2.593   1.517   3.008 -1.0667 -0.6210 -1.5916
   94SOL     OW  280   2.805   2.326   2.540  0.1635 -0.0002  0.7001
   94SOL    HW1  281   2.819   2.229   2.554  0.5226  4.0709 -1.4444
   94SOL    HW2  282   2.743   2.369   2.606  0.3039 -1.6067 -0.9444
   95SOL     OW  283   1.799   0.468   1.496  0.6213 -0.0065 -0.3298
   95SOL    HW1  284   1.820   0.557   1.540 -1.9205 -0.7837  0.0827
   95SOL    HW2  285   1.873   0.398   1.507  1.2425 -4.3545  0.3337
   96SOL     OW  286   2.937   2.694   1.572 -0.5853  0.1812 -0.0562
   96SOL    HW1  287   2.882   2.625   1.522  2.5234  1.5560 -2.6791
   96SOL    HW2  288   2.945   2.781   1.519  0.6174  0.4165  0.5479
   97SOL     OW  289   2.443   0.090   1.575 -0.5743  0.1485 -0.5883
   97SOL    HW1  290   2.422   0.045   1.489  0.3723  0.7875  2.0495
   97SOL    HW2  291   2.417   0.187   1.578  1.9640 -0.8714  2.7921
   98SOL     OW  292   1.528   2.205   1.617  0.3351  0.0519  0.2394
   98SOL    HW1  293   1.617   2.250   1.607  0.2087  1.8208  0.8894
   98SOL    HW2  294   1.527   2.111   1.579 -1.9608 -2.1694  0.3768
   99SOL     OW  295   0.098   2.701   1.660  0.3878 -0.0981  0.0666
   99SOL    HW1  296   0.157   2.769   1.604  3.1439  1.3724  0.1838
   99SOL    HW2  297   0.003   2.695   1.623 -2.0807  2.1787  0.9104
  100SOL     OW  298   0.078   1.020   2.356 -0.9637 -0.6912 -0.4524
  100SOL    HW1  299   0.107   0.970   2.274  1.7096  1.8064  1.2249
  100SOL    HW2  300   0.117   1.117   2.360 -2.2680  2.1538  1.9414
  101SOL     OW  301   1.993   0.638   0.145  0.5411 -0.2541  0.2421
  101SOL    HW1  302   1.895   0.610   0.137  3.8032 -1.5761  1.6193
  101SOL    HW2  303   1.997   0.717   0.212 -2.3237 -0.8317  1.8719
  102SOL     OW  304   0.234   0.521   1.095  0.0793  0.0714  0.0837
  102SOL    HW1  305   0.290   0.495   1.019 -0.3373  2.5435  1.6041
  102SOL    HW2  306   0.226   0.624   1.097  0.5084  2.9127  0.1028
  103SOL     OW  307   2.484   0.786   2.399 -0.5096 -0.2053 -0.5396
  103SOL    HW1  308   2.468   0.857   2.327 -1.9552 -1.7043  1.3095
  103SOL    HW2  309   2.565   0.811   2.460 -0.6519  2.0887  0.0205
  104SOL     OW  310   0.366   0.135   2.529 -0.2865 -0.2541 -0.1435
  104SOL    HW1  311   0.463   0.159   2.517 -2.9580 -0.6674  0.4290
  104SOL    HW2  312   0.313   0.178   2.603  0.4824 -2.8859  0.6627
  105SOL     OW  313   2.084   1.251   1.497  0.2089 -0.2221 -0.4315
  105SOL    HW1  314   2.072   1.153   1.468  0.0762  3.1417 -0.2164
  105SOL    HW2  315   1.996   1.294   1.524  0.1941 -1.2951 -0.8182
  106SOL     OW  316   1.097   2.880   0.302  0.2302  0.2816 -0.2618
  106SOL    HW1  317   1.124   2.865   0.399  1.9612  3.2485 -0.5591
  106SOL    HW2  318   0.995   2.882   0.293  2.0521  1.0961 -1.1051
  107SOL     OW  319   0.503   1.735   1.506  0.4570  0.0516 -0.3098
  107SOL    HW1  320   0.447   1.732   1.593 -3.3780 -1.0879  0.8978
  107SOL    HW2  321   0.604   1.721   1.517  0.8548  0.6044  1.0993
  108SOL     OW  322   0.292   2.994   2.171 -0.0188 -0.2816  0.6105
  108SOL    HW1  323   0.373   2.950   2.218  2.0015  1.1869 -1.3591
  108SOL    HW2  324   0.336   3.057   2.097  1.3513 -0.9698 -1.9117
  109SOL     OW  325   2.052   0.274   3.077 -0.0099 -0.0561 -0.3208
  109SOL    HW1  326   1.950   0.280   0.003 -0.1933  1.5357 -2.9575
  109SOL    HW2  327   2.073   0.303   2.981  2.0986 -0.6905  1.5622
  110SOL     OW  328   0.341   2.605   2.481  0.0588 -0.1141  0.1450
  110SOL    HW1  329   0.392   2.579   2.398  1.4788 -0.2619  0.6962
  110SOL    HW2  330   0.398   2.658   2.542  2.1673  1.7490  3.4693
  111SOL     OW  331   1.484   2.811   2.206 -0.0588  0.2796 -0.2402
  111SOL    HW1  332   1.401   2.845   2.257  0.0628  2.0618  0.8405
  111SOL    HW2  333   1.562   2.877   2.208  0.3905  1.3121  0.0422
  112SOL     OW  334   1.813   2.087   2.591 -0.2020 -0.3876 -0.5213
  112SOL    HW1  335   1.914   2.077   2.616  2.8978 -0.2324 -1.0967
  112SOL    HW2  336   1.782   2.006   2.540 -0.3748  0.0947  1.0199
  113SOL     OW  337   2.292   2.674   2.024 -0.7310 -0.0806  0.3913
  113SOL    HW1  338   2.327   2.576   2.039  2.9449 -0.3443  2.9005
  113SOL    HW2  339   2.194   2.679   2.044  3.3680 -0.5573 -0.5788
  114SOL     OW  340   2.969   0.969   0.816 -0.9368 -0.3466 -0.5641
  114SOL    HW1  341   3.027   1.032   0.876 -1.7491 -1.2558  1.3282
  114SOL    HW2  342   2.955   1.009   0.724  0.7685  2.8218 -1.2620
  115SOL     OW  343   0.282   1.617   2.815 -0.6152 -0.8428  0.3112
  115SOL    HW1  344   0.297   1.705   2.860 -0.6618 -3.0616 -0.0178
  115SOL    HW2  345   0.185   1.614   2.781 -1.7917  0.6294 -0.3005
  116SOL     OW  346   0.397   1.321   1.955  0.0448  0.6378 -0.6106
  116SOL    HW1  347   0.455   1.398   1.920  2.6343 -0.1630  0.7318
  116SOL    HW2  348   0.308   1.356   1.988 -0.6400 -0.6864 -0.0522
  117SOL     OW  349   2.666   0.000   0.548  0.1022  0.5033 -0.5631
  117SOL    HW1  350   2.702   0.059   0.621  0.7985 -2.3413 -0.3110
  117SOL    HW2  351   2.644   0.041   0.456  1.2470 -0.3546  0.7066
  118SOL     OW  352   1.355   1.819   1.810 -0.1977  0.0021  0.2924
  118SOL    HW1  353   1.277   1.762   1.819  1.8555  0.9626 -0.3560
  118SOL    HW2  354   1.333   1.917   1.840 -2.5470  4.7885 -0.9523
  119SOL     OW  355   1.093   2.105   0.191  0.4198 -0.0296  0.1964
  119SOL    HW1  356   1.138   2.066   0.274 -2.4639 -0.5590 -2.1807
  119SOL    HW2  357   1.022   2.172   0.214  1.3385  0.6629 -1.0229
  120SOL     OW  358   0.165   1.274   2.347 -0.2207  0.0742 -0.2419
  120SOL    HW1  359   0.116   1.348   2.298 -2.6367 -3.5880  1.7795
  120SOL    HW2  360   0.251   1.251   2.300 -2.9345  0.0585 -1.6172
  121SOL     OW  361   2.255   2.698   1.005 -0.4053  0.4418 -0.3062
  121SOL    HW1  362   2.218   2.763   0.937 -1.3321 -1.5013 -0.4772
  121SOL    HW2  363   2.337   2.734   1.053  0.1276 -0.3924  0.8078
  122SOL     OW  364   2.121   1.990   2.010  0.3547  0.5398 -0.2672
  122SOL    HW1  365   2.194   2.013   2.076  0.3910  0.4563 -3.2863
  122SOL    HW2  366   2.054   2.067   1.997 -1.4658  1.3682 -0.9851
  123SOL     OW  367   3.007   3.090   0.679 -0.2112  0.2318 -0.0357
  123SOL    HW1  368   2.991   0.068   0.611 -0.7559  0.5126  0.1473
  123SOL    HW2  369   3.022   3.001   0.629  0.2768 -2.6241 -2.2781
  124SOL     OW  370   1.655   0.798   2.259  0.1893 -0.0870 -0.4532
  124SOL    HW1  371   1.600   0.715   2.283  2.0407 -2.6454 -0.4698
  124SOL    HW2  372   1.740   0.766   2.207 -2.4211 -1.6813  1.4155
  125SOL     OW  373   0.438   1.180   0.597 -0.5061  0.4115 -0.3734
  125SOL    HW1  374   0.429   1.218   0.502 -0.1462  0.7482  1.3680
  125SOL    HW2  375   0.458   1.256   0.660 -3.3604 -0.1804 -4.2429
  126SOL     OW  376   2.433   1.630   0.381 -0.4994 -0.5437  0.3355
  126SOL    HW1  377   2.513   1.568   0.382 -2.4060  2.5464 -1.1714
  126SOL    HW2  378   2.381   1.628   0.473 -1.8606  2.9252  1.5521
  127SOL     OW  379   0.141   1.866   1.459 -0.1548  0.1924 -0.3663
  127SOL    HW1  380   0.146   1.830   1.559  1.3845 -0.8767  1.2226
  127SOL    HW2  381   0.132   1.967   1.460 -0.6551  0.4689 -0.5578
  128SOL     OW  382   0.797   0.569   2.679 -0.0671  0.4363  0.0862
  128SOL    HW1  383   0.795   0.468   2.692  1.3177  0.8061 -0.8550
  128SOL    HW2  384   0.888   0.606   2.698 -1.4020 -1.4145 -1.5618
  129SOL     OW  385   2.381   1.369   1.139  0.0335  0.3126 -0.1131
  129SOL    HW1  386   2.401   1.269   1.155 -1.7786 -2.2339 -1.0494
  129SOL    HW2  387   2.351   1.413   1.228 -1.8131  0.1358 -1.5501
  130SOL     OW  388   2.453   1.526   1.556  0.8732  0.7864 -0.1210
  130SOL    HW1  389   2.478   1.437   1.605 -0.1047 -1.1276 -0.1943
  130SOL    HW2  390   2.526   1.595   1.570 -0.5543  1.1859  1.7760
  131SOL     OW  391   2.751   1.062   2.959 -0.1600 -0.1069 -0.4313
  131SOL    HW1  392   2.835   1.112   2.925 -1.3839  3.6217  1.8573
  131SOL    HW2  393   2.753   0.962   2.950 -0.0880  0.2957 -0.6196
  132SOL     OW  394   2.397   2.396   2.088  0.4756  0.0124  0.3086
  132SOL    HW1  395   2.324   2.363   2.149 -2.8221  1.3551 -0.6883
  132SOL    HW2  396   2.494   2.376   2.120  0.1278 -0.5120 -1.5813
  133SOL     OW  397   0.559   1.079   0.912 -0.2029 -0.7597 -0.2104
  133SOL    HW1  398   0.613   1.162   0.924  0.1272  1.2359 -1.3873
  133SOL    HW2  399   0.611   0.996   0.941 -0.1662 -1.6589  1.1552
  134SOL     OW  400   0.108   1.199   0.350  0.4908  0.0604  0.3582
  134SOL    HW1  401   0.068   1.166   0.440 -1.8067 -1.7931 -0.2712
  134SOL    HW2  402   0.037   1.213   0.275 -1.5012 -0.7424 -1.4028
  135SOL     OW  403   2.130   1.586   1.217  0.3126 -0.1918 -0.0582
  135SOL    HW1  404   2.194   1.526   1.271  0.4394  2.4873  1.4429
  135SOL    HW2  405   2.053   1.530   1.174 -1.8817  1.0913  0.0714
  136SOL     OW  406   2.303   0.978   0.650 -0.5893 -0.0917  0.0902
  136SOL    HW1  407   2.265   0.888   0.629 -0.4013 -0.4688  0.9688
  136SOL    HW2  408   2.222   1.040   0.675  0.0334  0.7625 -1.7003
  137SOL     OW  409   2.579   1.704   0.922  0.2164  0.0881  0.0039
  137SOL    HW1  410   2.490   1.730   0.883  0.7313  1.6084  0.5937
  137SOL    HW2  411   2.609   1.782   0.981 -2.0899  0.3562 -1.7409
  138SOL     OW  412   1.779   0.639   1.753  0.2286  0.3452  0.2208
  138SOL    HW1  413   1.721   0.585   1.818  1.2362  1.6852 -1.3844
  138SOL    HW2  414   1.873   0.604   1.765  1.9614 -0.7278  2.0770
  139SOL     OW  415   2.441   2.839   2.843 -0.3371 -0.0011  0.1079
  139SOL    HW1  416   2.497   2.905   2.890 -1.1811  1.3442 -1.5813
  139SOL    HW2  417   2.402   2.876   2.757 -1.6913  1.2431  0.9070
  140SOL     OW  418   1.732   1.711   2.175  0.2979 -0.3940 -0.2703
  140SOL    HW1  419   1.704   1.775   2.249 -0.2669 -0.0811  2.5135
  140SOL    HW2  420   1.737   1.621   2.222  0.0367 -2.4603  0.8301
  141SOL     OW  421   1.817   1.894   1.176 -0.3512 -0.0352  0.0825
  141SOL    HW1  422   1.904   1.879   1.225 -1.4540 -0.5897  0.1745
  141SOL    HW2  423   1.749   1.835   1.218  2.7680  4.6475  0.2585
  142SOL     OW  424   0.018   0.373   0.119  0.2362  0.0616 -0.3456
  142SOL    HW1  425   3.058   0.420   0.048  0.5485  0.0313  0.3634
  142SOL    HW2  426   3.061   0.298   0.163  0.5377  2.0358  0.5175
  143SOL     OW  427   0.115   2.079   2.850  0.1944 -0.3169 -0.6118
  143SOL    HW1  428   0.133   2.024   2.932  1.1256 -1.8450  1.5756
  143SOL    HW2  429   0.194   2.132   2.817 -2.1476  0.0236 -0.5080
  144SOL     OW  430   1.106   2.955   1.906  0.2407 -0.1253  0.0395
  144SOL    HW1  431   1.205   2.963   1.897  0.1688  0.7279 -0.7283
  144SOL    HW2  432   1.090   2.897   1.988  1.1232 -1.6489 -1.1798
  145SOL     OW  433   2.187   1.355   0.395 -0.7417  0.7667  0.3604
  145SOL    HW1  434   2.212   1.371   0.299 -0.3177  2.6572  1.0995
  145SOL    HW2  435   2.277   1.343   0.446  3.2373 -1.4485 -0.1986
  146SOL     OW  436   2.629   3.039   2.950  0.1591 -0.1057  0.0003
  146SOL    HW1  437   2.649   3.035   2.853  0.8913  0.1636  2.2366
  146SOL    HW2  438   2.713   3.010   3.001 -0.7686  1.8839  1.1221
  147SOL     OW  439   2.978   2.358   0.935  0.3119  0.0823 -0.0043
  147SOL    HW1  440   2.930   2.417   0.999  2.0110 -0.7968 -0.2810
  147SOL    HW2  441   2.914   2.303   0.879 -0.1677  0.5681  2.2919
  148SOL     OW  442   1.717   0.012   2.895  0.0214  0.1054  0.2074
  148SOL    HW1  443   1.759   3.087   2.985  0.0932 -0.0394  1.3753
  148SOL    HW2  444   1.642   3.041   2.871  1.0651 -1.0061  0.1567
  149SOL     OW  445   1.230   0.403   2.428 -0.3603 -0.3949  0.2104
  149SOL    HW1  446   1.283   0.446   2.500 -2.3038  1.2079 -0.5213
  149SOL    HW2  447   1.130   0.390   2.442  0.8941 -1.4559 -1.0981
  150SOL     OW  448   0.896   2.675   0.406 -0.1951  0.5606  0.1691
  150SOL    HW1  449   0.835   2.593   0.408  2.9904 -2.3826  0.1195
  150SOL    HW2  450   0.927   2.695   0.502  0.3595 -2.5135  0.9988
  151SOL     OW  451   2.852   1.941   0.122  1.4921 -0.9771 -0.1820
  151SOL    HW1  452   2.835   1.853   0.073 -0.2135 -0.8440 -0.6344
  151SOL    HW2  453   2.908   2.007   0.068  1.7926  2.1893 -0.8453
  152SOL     OW  454   0.226   1.264   0.787 -0.1744 -0.1957  0.3083
  152SOL    HW1  455   0.244   1.169   0.812  0.0745  1.1666  2.6380
  152SOL    HW2  456   0.315   1.315   0.773  0.1310  3.5841  0.5550
  153SOL     OW  457   2.249   2.872   0.365  0.5926  0.1966  0.1425
  153SOL    HW1  458   2.267   2.971   0.370  2.3664  0.0243 -0.7486
  153SOL    HW2  459   2.148   2.861   0.339 -1.1672  0.4213  0.0726
  154SOL     OW  460   0.692   0.494   1.577 -0.3698  0.0162  0.6861
  154SOL    HW1  461   0.788   0.471   1.549  0.8583  2.6655 -0.0719
  154SOL    HW2  462   0.673   0.593   1.574  0.5376  0.1922  2.6055
  155SOL     OW  463   3.087   1.986   1.150 -0.4668 -0.8141  0.4126
  155SOL    HW1  464   0.018   1.931   1.070 -0.8089  2.8979 -1.0429
  155SOL    HW2  465   2.998   1.953   1.185  0.5195 -1.0486 -0.1497
  156SOL     OW  466   2.029   2.102   0.087  0.3259  0.5280 -0.4365
  156SOL    HW1  467   2.082   2.037   0.150  0.7330  0.1794 -0.7118
  156SOL    HW2  468   2.088   2.183   0.068 -1.5233  0.1780  1.3019
  157SOL     OW  469   1.071   2.747   0.935  0.5220 -0.0587  0.0484
  157SOL    HW1  470   0.974   2.742   0.964  3.5975  0.3863 -1.5089
  157SOL    HW2  471   1.102   2.846   0.942 -1.5979  2.1126 -1.6843
  158SOL     OW  472   2.387   0.530   2.402  0.6219 -0.1441 -0.2346
  158SOL    HW1  473   2.290   0.530   2.429  0.4721  2.9617  0.1470
  158SOL    HW2  474   2.415   0.627   2.393 -1.9323 -2.8767  1.0981
  159SOL     OW  475   0.610   0.306   2.922  0.6212  0.2662 -0.1818
  159SOL    HW1  476   0.598   0.407   2.919  0.8318  3.8793 -2.1723
  159SOL    HW2  477   0.520   0.263   2.909 -2.0117  1.7258  2.3872
  160SOL     OW  478   0.754   2.110   0.095  0.1343 -0.5372 -0.7786
  160SOL    HW1  479   0.700   2.163   0.030 -0.5728  3.0236  0.8498
  160SOL    HW2  480   0.812   2.046   0.043 -0.0559  0.9319  1.0394
  161SOL     OW  481   2.942   2.169   2.876  0.0484  0.9080  0.2752
  161SOL    HW1  482   3.033   2.167   2.829  1.4051  2.7625 -2.3701
  161SOL    HW2  483   2.906   2.263   2.861  0.6883  0.4177  2.0678
  162SOL     OW  484   0.549   2.821   1.022  0.5398 -0.1427  0.1939
  162SOL    HW1  485   0.463   2.789   1.075 -2.4261  0.3678 -0.5312
  162SOL    HW2  486   0.528   2.853   0.928 -1.6827  0.8061 -1.1600
  163SOL     OW  487   2.301   0.641   2.864 -0.3369 -0.5866  0.2458
  163SOL    HW1  488   2.308   0.682   2.769 -0.2954  0.6950 -1.5229
  163SOL    HW2  489   2.251   0.553   2.868 -0.4014 -1.7137  1.5223
  164SOL     OW  490   2.949   2.160   0.662 -0.3388 -0.1880  0.6434
  164SOL    HW1  491   3.014   2.089   0.700  0.0849  0.3725 -0.0047
  164SOL    HW2  492   2.879   2.192   0.731  3.6972  1.0982 -0.2578
  165SOL     OW  493   2.935   3.036   1.531 -0.3111  0.1581  0.0534
  165SOL    HW1  494   3.031   3.071   1.510 -1.7582 -0.8393 -2.1618
  165SOL    HW2  495   2.865   3.091   1.476 -3.9075  0.6767 -0.5385
  166SOL     OW  496   2.127   0.313   0.681  0.4764 -0.1537  0.2528
  166SOL    HW1  497   2.139   0.403   0.731 -0.1064 -0.1133  0.4157
  166SOL    HW2  498   2.206   0.253   0.699  0.0728  2.6489 -0.0645
  167SOL     OW  499   0.461   0.466   0.927  0.2896  0.0329 -0.3826
  167SOL    HW1  500   0.540   0.528   0.914  0.4735  1.8564 -2.7707
  167SOL    HW2  501   0.497   0.379   0.956 -0.6881  1.1775  1.6030
  168SOL     OW  502   2.377   2.913   2.184 -0.1790  0.1924 -0.7944
  168SOL    HW1  503   2.346   2.885   2.279 -0.8098  0.2451  2.1562
  168SOL    HW2  504   2.359   2.834   2.119  0.1499  2.3460 -0.0367
  169SOL     OW  505   0.124   1.662   0.647  0.4087 -0.1960  1.0959
  169SOL    HW1  506   0.145   1.651   0.548  0.0901 -0.2297  0.6144
  169SOL    HW2  507   0.195   1.660   0.710 -1.9501 -0.0018 -4.3115
  170SOL     OW  508   2.738   0.842   1.179  0.1136  0.0723  0.0989
  170SOL    HW1  509   2.780   0.750   1.161 -1.1520 -2.4869  2.3635
  170SOL    HW2  510   2.694   0.841   1.271 -0.0622 -3.4970 -2.9395
  171SOL     OW  511   1.165   2.544   1.666  0.5632  0.3603  0.5344
  171SOL    HW1  512   1.195   2.448   1.645 -2.9770 -0.0610 -2.3530
  171SOL    HW2  513   1.133   2.592   1.583 -0.0153  1.9827 -3.2244
  172SOL     OW  514   0.377   2.511   1.349  0.1499 -0.1780 -0.3191
  172SOL    HW1  515   0.416   2.428   1.304 -0.6259  0.0576 -1.1384
  172SOL    HW2  516   0.412   2.597   1.301  0.6599  0.2608 -2.5487
  173SOL     OW  517   1.440   0.080   0.186 -0.0143  0.1431 -0.0611
  173SOL    HW1  518   1.425   3.077   0.168  0.2857  2.3279  0.9759
  173SOL    HW2  519   1.482   0.091   0.278 -0.8292 -1.0082 -0.2352
  174SOL     OW  520   1.224   2.310   2.866 -0.3872  0.9150  0.1526
  174SOL    HW1  521   1.253   2.270   2.954 -3.0211 -1.0624  0.4204
  174SOL    HW2  522   1.128   2.291   2.843  2.6630  0.4830  1.9302
  175SOL     OW  523   1.778   3.056   0.050 -0.2646 -0.6939  0.0899
  175SOL    HW1  524   1.818   3.045   0.143  0.7250 -1.2217  1.4591
  175SOL    HW2  525   1.695   3.000   0.039  1.5519  3.4198 -0.8197
  176SOL     OW  526   1.512   0.257   3.029  0.0570 -0.6355 -0.1687
  176SOL    HW1  527   1.541   0.202   0.018 -0.4237 -0.5646  1.1565
  176SOL    HW2  528   1.429   0.310   3.047 -2.6607 -0.0144  2.2644
  177SOL     OW  529   0.736   1.543   0.664 -0.2312 -0.3739  0.5948
  177SOL    HW1  530   0.742   1.576   0.763  0.6609  1.1737  0.5216
  177SOL    HW2  531   0.789   1.607   0.604 -2.9193  2.3736  1.5825
  178SOL     OW  532   2.813   1.767   2.166 -0.0732 -0.9274 -0.0039
  178SOL    HW1  533   2.861   1.689   2.110 -2.1691 -1.1992 -0.7424
  178SOL    HW2  534   2.742   1.729   2.225  3.1057  1.0218  0.9955
  179SOL     OW  535   0.486   2.469   2.757  0.2971  0.1762 -0.0496
  179SOL    HW1  536   0.481   2.567   2.722  2.3638  1.6209 -2.1454
  179SOL    HW2  537   0.563   2.424   2.708 -0.6538  0.7283  0.9518
  180SOL     OW  538   1.789   1.873   1.946  0.1068 -0.6729 -0.5513
  180SOL    HW1  539   1.882   1.840   1.935 -1.5751  0.7625 -0.0891
  180SOL    HW2  540   1.741   1.825   2.023  0.7961 -0.5431 -1.7615
  181SOL     OW  541   1.124   1.115   2.328 -0.4973  0.5239  0.3682
  181SOL    HW1  542   1.142   1.142   2.425  0.7410 -2.3291  2.0578
  181SOL    HW2  543   1.133   1.195   2.265  0.3290  0.1787  0.6186
  182SOL     OW  544   0.052   0.405   2.635 -0.2552 -0.2437  0.0310
  182SOL    HW1  545   0.007   0.333   2.575  4.0543 -0.4309  3.1498
  182SOL    HW2  546   0.140   0.369   2.679 -1.1945 -2.4170 -1.3283
  183SOL     OW  547   1.089   0.398   2.751 -0.5528  0.0652 -0.4190
  183SOL    HW1  548   1.070   0.467   2.827 -1.2562  1.1804 -0.6297
  183SOL    HW2  549   1.183   0.408   2.726 -3.2885  1.0507  0.9715
  184SOL     OW  550   1.073   1.106   1.409  0.2723  0.2916  0.1649
  184SOL    HW1  551   1.150   1.117   1.344 -0.1748  0.8351 -1.7899
  184SOL    HW2  552   1.082   1.021   1.468 -1.3213  0.1631 -0.2760
  185SOL     OW  553   3.001   1.240   1.290 -0.1331 -0.4847 -0.9823
  185SOL    HW1  554   3.084   1.306   1.293 -2.7997 -0.2618 -2.0406
  185SOL    HW2  555   2.919   1.300   1.279 -1.6611 -0.2153 -1.3403
  186SOL     OW  556   0.591   1.595   2.594  0.2486 -0.3233 -0.1616
  186SOL    HW1  557   0.611   1.616   2.497 -0.0121 -0.4414  1.8955
  186SOL    HW2  558   0.495   1.564   2.600 -1.8485  1.1291  0.2996
  187SOL     OW  559   2.646   1.456   0.353 -0.1812  0.1901  0.4652
  187SOL    HW1  560   2.692   1.411   0.274 -0.0230 -1.9570 -0.6043
  187SOL    HW2  561   2.709   1.531   0.387  0.3396  2.2387 -0.9538
  188SOL     OW  562   0.212   2.389   0.655 -0.2098 -0.0889 -0.1974
  188SOL    HW1  563   0.235   2.300   0.605 -1.2140 -0.4568  1.3111
  188SOL    HW2  564   0.125   2.420   0.617  1.7776 -1.8712 -1.3774
  189SOL     OW  565   2.595   1.075   0.101 -0.6522  0.1777 -0.5556
  189SOL    HW1  566   2.646   1.066   0.014 -1.1276  3.3412  0.9080
  189SOL    HW2  567   2.608   0.987   0.155 -2.2085 -0.7329  0.5857
  190SOL     OW  568   1.139   1.326   2.172  0.0443  0.3213 -0.4646
  190SOL    HW1  569   1.208   1.333   2.094 -0.4056 -1.1885  1.4572
  190SOL    HW2  570   1.071   1.399   2.156  0.6055  0.3200 -0.9725
  191SOL     OW  571   2.338   0.216   1.841  0.2341 -0.7287 -0.2904
  191SOL    HW1  572   2.398   0.163   1.781  0.1699  2.6682 -2.4456
  191SOL    HW2  573   2.313   0.159   1.921 -0.3601 -1.5635 -2.2341
  192SOL     OW  574   2.001   0.277   1.576 -0.0780  0.5210 -0.1361
  192SOL    HW1  575   2.030   0.183   1.592 -0.5489 -1.0674 -1.1652
  192SOL    HW2  576   1.997   0.320   1.667 -0.8197  1.4310  0.0618
  193SOL     OW  577   0.852   0.465   0.569 -0.6297  0.3325  0.6518
  193SOL    HW1  578   0.854   0.516   0.654 -0.0335  0.9333  0.9076
  193SOL    HW2  579   0.851   0.529   0.490  1.2711 -0.6022 -1.0185
  194SOL     OW  580   1.295   2.952   1.148  0.3605 -0.0058  0.0311
  194SOL    HW1  581   1.239   2.973   1.231  1.2162 -0.5887  0.5363
  194SOL    HW2  582   1.235   2.975   1.066 -1.2123  1.8262 -1.0442
  195SOL     OW  583   2.475   0.664   0.456  0.6966  0.1524 -0.1293
  195SOL    HW1  584   2.547   0.736   0.454  1.2250 -1.1062 -0.2382
  195SOL    HW2  585   2.458   0.643   0.553  2.9630 -0.6829  2.9228
  196SOL     OW  586   1.471   1.574   1.719  0.0584  0.1686 -0.4871
  196SOL    HW1  587   1.556   1.541   1.764  0.3330  0.5027  0.1632
  196SOL    HW2  588   1.444   1.667   1.747  1.2657  0.5340 -0.6667
  197SOL     OW  589   3.090   2.881   0.538  0.5002 -0.2356  0.5624
  197SOL    HW1  590   0.067   2.937   0.494 -1.3574 -1.4269 -0.7568
  197SOL    HW2  591   0.043   2.811   0.587 -2.2968 -0.6549 -3.1771
  198SOL     OW  592   0.816   1.289   0.586  0.2522 -0.5472 -0.1961
  198SOL    HW1  593   0.763   1.376   0.594 -1.2623 -2.8918  0.7331
  198SOL    HW2  594   0.749   1.212   0.580 -3.9922  2.2275 -0.6511
  199SOL     OW  595   2.842   0.689   1.760  0.3510 -0.2628 -0.4414
  199SOL    HW1  596   2.841   0.680   1.862  0.5978  0.7743  0.2249
  199SOL    HW2  597   2.926   0.738   1.733 -2.1579 -1.1624  4.8239
  200SOL     OW  598   2.051   2.071   2.702 -0.5464  0.1061 -0.7109
  200SOL    HW1  599   2.140   2.039   2.667  0.2460 -0.6905 -1.3033
  200SOL    HW2  600   2.065   2.068   2.804 -1.0783 -1.3717 -0.0323
  201SOL     OW  601   2.426   2.959   0.779  0.2196 -0.1359 -0.1442
  201SOL    HW1  602   2.487   2.918   0.705  0.8471  1.0066  3.2825
  201SOL    HW2  603   2.335   2.910   0.786 -0.9346  0.0707 -1.4396
  202SOL     OW  604   2.711   0.855   0.201  0.2672 -0.4725  0.2835
  202SOL    HW1  605   2.659   0.777   0.162 -0.1590 -2.8999  1.1363
  202SOL    HW2  606   2.813   0.838   0.200  0.1808  0.7640 -1.0206
  203SOL     OW  607   1.442   1.473   2.262 -0.4514 -0.5615 -0.1272
  203SOL    HW1  608   1.453   1.418   2.180 -1.6709  1.4862 -1.9728
  203SOL    HW2  609   1.537   1.494   2.292 -1.4653  0.5758  0.5678
  204SOL     OW  610   0.853   1.789   2.232  0.2304  0.5767 -0.4596
  204SOL    HW1  611   0.819   1.876   2.193  2.8131 -2.4703 -1.0420
  204SOL    HW2  612   0.949   1.799   2.278  3.3029 -0.3412  2.3736
  205SOL     OW  613   1.511   1.933   1.620 -0.3804  0.3057 -0.2395
  205SOL    HW1  614   1.444   1.883   1.678  0.1051 -2.8714 -1.2168
  205SOL    HW2  615   1.605   1.934   1.655 -2.1816  0.4450  0.2117
  206SOL     OW  616   3.086   0.694   2.670 -0.8224 -0.2605 -0.0696
  206SOL    HW1  617   0.027   0.597   2.655 -0.1141 -1.6395  0.4552
  206SOL    HW2  618   0.046   0.756   2.613 -2.6894 -3.2504 -0.6482
  207SOL     OW  619   1.620   2.712   2.455 -0.1832 -0.6301 -0.2341
  207SOL    HW1  620   1.603   2.629   2.511  0.3391 -0.2714  1.0553
  207SOL    HW2  621   1.560   2.707   2.375  0.7068  1.9923 -0.3036
  208SOL     OW  622   0.358   2.192   1.655 -0.3096  0.4157  0.2190
  208SOL    HW1  623   0.418   2.136   1.598 -0.3589 -1.5348  0.9562
  208SOL    HW2  624   0.397   2.285   1.643  0.0815 -0.1749  1.5274
  209SOL     OW  625   1.673   0.806   2.722 -0.0885 -0.6065 -0.1794
  209SOL    HW1  626   1.612   0.886   2.716  0.1947 -0.5819 -1.6267
  209SOL    HW2  627   1.656   0.745   2.642 -0.0950  2.0082 -1.6305
  210SOL     OW  628   2.461   0.636   0.730  0.5821  0.0259  0.7040
  210SOL    HW1  629   2.528   0.571   0.762 -0.3832 -0.2299 -0.4393
  210SOL    HW2  630   2.413   0.675   0.813  0.5376  0.7021  0.5015
  211SOL     OW  631   0.860   0.630   0.783 -0.1042  0.7194  0.1535
  211SOL    HW1  632   0.906   0.714   0.816 -0.9629 -3.0436 -0.7066
  211SOL    HW2  633   0.809   0.580   0.856 -0.2282  1.7565 -0.3577
  212SOL     OW  634   1.157   1.567   0.578  0.1283 -0.3861  0.4724
  212SOL    HW1  635   1.151   1.463   0.568  3.1491 -1.8264  1.3569
  212SOL    HW2  636   1.243   1.606   0.535  1.3863 -1.5373 -0.5183
  213SOL     OW  637   1.369   2.998   1.861  0.0492 -0.2745 -0.1695
  213SOL    HW1  638   1.328   3.060   1.792 -1.0306 -1.1145 -0.4908
  213SOL    HW2  639   1.437   3.046   1.927  0.7785  1.7075 -0.3630
  214SOL     OW  640   1.457   1.213   2.468  0.3823 -0.0450 -0.1805
  214SOL    HW1  641   1.356   1.221   2.497 -0.6160 -0.8765 -1.4015
  214SOL    HW2  642   1.514   1.285   2.508 -1.3658 -0.9646  3.4518
  215SOL     OW  643   0.477   1.548   1.103  0.4308  0.1903  0.1953
  215SOL    HW1  644   0.528   1.533   1.191 -0.7199  0.7690  0.3796
  215SOL    HW2  645   0.387   1.503   1.109  0.1495 -1.7615  1.4435
  216SOL     OW  646   0.709   2.785   2.319 -0.4254  1.0982  0.2540
  216SOL    HW1  647   0.718   2.810   2.220  0.7730 -0.3071  3.4837
  216SOL    HW2  648   0.710   2.863   2.382 -0.4034  1.2230 -0.8677
  217SOL     OW  649   2.321   0.913   0.115 -0.4896 -0.5165 -1.0711
  217SOL    HW1  650   2.368   0.867   0.032  1.8718  0.8038 -0.2521
  217SOL    HW2  651   2.348   1.012   0.120  0.2203 -0.8306 -1.9811
  218SOL     OW  652   2.279   1.863   2.327 -0.0155 -0.2307 -0.0693
  218SOL    HW1  653   2.321   1.786   2.282 -2.0657 -0.3870  0.5886
  218SOL    HW2  654   2.270   1.946   2.270 -0.6515  2.3361  2.0206
  219SOL     OW  655   1.633   1.190   0.194  0.0183 -0.5333  0.0822
  219SOL    HW1  656   1.557   1.226   0.254  2.5694 -0.1133 -1.1873
  219SOL    HW2  657   1.725   1.218   0.231 -0.2877  0.0220 -2.0393
  220SOL     OW  658   1.396   1.798   1.153 -0.2740  0.6953  0.5912
  220SOL    HW1  659   1.386   1.896   1.156  1.1000 -1.8600  0.8238
  220SOL    HW2  660   1.402   1.764   1.056  2.6625  1.1129 -0.7328
  221SOL     OW  661   0.314   0.560   2.851  0.4664  0.1769 -0.0589
  221SOL    HW1  662   0.230   0.581   2.912 -0.8066 -0.9386 -1.4691
  221SOL    HW2  663   0.401   0.575   2.898 -1.0387 -1.6364  0.9328
  222SOL     OW  664   1.260   2.277   1.656  0.0873  0.0244  0.1511
  222SOL    HW1  665   1.208   2.196   1.692  0.9234  0.0056  0.2549
  222SOL    HW2  666   1.359   2.261   1.657 -0.2364  0.7085  0.5134
  223SOL     OW  667   1.330   2.552   2.753  0.3747 -0.3779  0.8350
  223SOL    HW1  668   1.355   2.619   2.822 -2.4102  0.4946 -1.7295
  223SOL    HW2  669   1.299   2.462   2.788  2.4781  1.6179  1.0110
  224SOL     OW  670   2.845   1.280   0.948  0.0583 -0.6881  0.4483
  224SOL    HW1  671   2.802   1.190   0.958 -0.7417  0.0605  1.3800
  224SOL    HW2  672   2.786   1.331   0.879  0.8312 -2.3390 -1.1306
  225SOL     OW  673   1.434   1.041   1.488 -0.5329  1.1168 -0.1582
  225SOL    HW1  674   1.413   1.010   1.586  0.1848 -1.7715 -0.2042
  225SOL    HW2  675   1.503   0.979   1.447  0.6330 -2.8912  1.1461
  226SOL     OW  676   1.392   1.923   2.949  0.1426  0.3426  0.3282
  226SOL    HW1  677   1.392   1.950   3.049 -1.2485 -0.9974  0.8499
  226SOL    HW2  678   1.444   1.998   2.893  3.0301  2.1851  0.7451
  227SOL     OW  679   0.980   2.145   1.404 -0.6516  0.5754 -0.3453
  227SOL    HW1  680   1.014   2.102   1.490  0.8699  0.1470 -0.9636
  227SOL    HW2  681   0.995   2.247   1.409  1.1143 -0.0590  0.5413
  228SOL     OW  682   0.341   1.989   1.097 -0.7181 -0.1196 -0.9529
  228SOL    HW1  683   0.251   1.950   1.078  0.3303 -1.4239 -2.2626
  228SOL    HW2  684   0.405   1.925   1.145  0.2358 -1.7584 -0.5007
  229SOL     OW  685   2.090   0.720   3.004 -0.5000  0.0784  0.0818
  229SOL    HW1  686   2.186   0.691   2.972 -1.5750 -0.2718 -0.6486
  229SOL    HW2  687   2.081   0.697   0.005  0.4936 -0.1231 -1.0455
  230SOL     OW  688   1.012   1.008   2.082 -0.2965  0.2583  0.6789
  230SOL    HW1  689   1.103   1.041   2.048  3.5118  0.2098 -0.3442
  230SOL    HW2  690   0.972   1.081   2.137  0.7216  1.7108  2.6546
  231SOL     OW  691   1.279   1.708   2.201 -0.7081 -0.4565 -0.1147
  231SOL    HW1  692   1.245   1.694   2.102 -0.5238 -0.3238 -1.8506
  231SOL    HW2  693   1.334   1.623   2.226  2.1617  0.4832  1.4757
  232SOL     OW  694   1.983   2.236   1.362 -0.1993 -0.4341  1.0170
  232SOL    HW1  695   1.902   2.186   1.403  0.6033 -1.7009 -1.6370
  232SOL    HW2  696   1.961   2.331   1.330 -1.6256 -0.4000  0.7682
  233SOL     OW  697   1.760   2.296   2.743 -1.0599  0.0453  0.1653
  233SOL    HW1  698   1.777   2.230   2.671  0.3005  1.7123  3.2529
  233SOL    HW2  699   1.849   2.344   2.763  1.1967  0.8327  2.0043
  234SOL     OW  700   1.049   2.881   3.010  0.1106 -0.2383 -0.2879
  234SOL    HW1  701   1.149   2.870   3.035 -0.3270 -0.4061  2.3952
  234SOL    HW2  702   1.024   2.980   3.007  2.9882 -1.8544 -2.4845
  235SOL     OW  703   2.453   3.059   0.093 -0.1051 -1.0472  0.1293
  235SOL    HW1  704   2.512   3.032   0.013 -0.9721 -3.5060 -1.2104
  235SOL    HW2  705   2.371   0.019   0.060 -0.6346 -0.0424 -2.1591
  236SOL     OW  706   2.404   2.323   2.411  0.3458  0.2343 -0.3373
  236SOL    HW1  707   2.466   2.396   2.375 -2.0250  0.9099  0.5998
  236SOL    HW2  708   2.457   2.250   2.464  1.2366 -1.6667 -0.0569
  237SOL     OW  709   1.507   1.255   1.784  0.2591  0.3007 -0.0974
  237SOL    HW1  710   1.488   1.156   1.782  1.1030  0.2655 -1.1135
  237SOL    HW2  711   1.499   1.292   1.696  1.1683 -3.8904  1.2289
  238SOL     OW  712   2.031   0.425   2.203  0.0043 -0.1773 -0.2578
  238SOL    HW1  713   2.103   0.394   2.138 -2.1088  2.0885  1.6483
  238SOL    HW2  714   2.071   0.462   2.289 -0.3677 -1.2020 -1.4103
  239SOL     OW  715   0.387   1.585   2.227 -0.0261 -0.9019  0.1420
  239SOL    HW1  716   0.466   1.571   2.293  2.2690 -1.2903  2.0466
  239SOL    HW2  717   0.408   1.667   2.167  1.3299 -0.1455 -1.9324
  240SOL     OW  718   2.768   2.735   0.772 -0.3454  0.6586 -0.1889
  240SOL    HW1  719   2.860   2.705   0.734 -0.3387 -1.1734 -4.0659
  240SOL    HW2  720   2.709   2.791   0.707 -3.5177  1.4511  0.5226
  241SOL     OW  721   1.583   2.143   0.789 -0.5935 -0.4648  0.1593
  241SOL    HW1  722   1.640   2.075   0.837 -0.4439  3.7100 -2.6619
  241SOL    HW2  723   1.623   2.160   0.695  1.7859  0.4474 -0.0765
  242SOL     OW  724   1.204   1.537   2.904 -0.0803  0.3413  0.4564
  242SOL    HW1  725   1.298   1.582   2.887  2.8205  3.6874  0.3698
  242SOL    HW2  726   1.135   1.553   2.826 -2.1788  4.5400  0.9888
  243SOL     OW  727   0.987   2.653   2.318 -0.6893  0.1596  0.3142
  243SOL    HW1  728   0.891   2.690   2.329 -1.3364 -3.6818  2.6905
  243SOL    HW2  729   0.995   2.559   2.353  4.1358 -2.8491 -1.9137
  244SOL     OW  730   1.970   0.112   2.635 -0.1197 -0.1505 -0.0738
  244SOL    HW1  731   2.063   0.145   2.646 -1.2608  1.3108 -0.3734
  244SOL    HW2  732   1.910   0.151   2.712 -0.8548  0.2016 -1.0890
  245SOL     OW  733   1.390   2.671   0.414 -0.1069 -0.1161  0.0482
  245SOL    HW1  734   1.359   2.617   0.492 -0.2067  1.3750 -0.1548
  245SOL    HW2  735   1.476   2.639   0.370  2.4635  1.1409  0.0423
  246SOL     OW  736   1.003   0.044   3.057 -0.3242 -0.6369 -0.6929
  246SOL    HW1  737   0.912   0.087   3.082 -1.2287  2.6706 -1.2375
  246SOL    HW2  738   1.061   0.054   0.046  1.3171  1.9936 -0.4649
  247SOL     OW  739   0.389   0.706   2.121 -0.4100  0.0368  0.3513
  247SOL    HW1  740   0.419   0.681   2.030 -2.2705  0.7869  0.5789
  247SOL    HW2  741   0.361   0.623   2.171  1.3196 -2.0313 -0.4249
  248SOL     OW  742   0.767   1.159   1.902  0.3116 -0.6009  0.0623
  248SOL    HW1  743   0.766   1.217   1.983  2.1084 -0.2315  0.9336
  248SOL    HW2  744   0.722   1.069   1.921 -2.4089 -1.1139  0.2354
  249SOL     OW  745   2.134   0.408   0.214 -0.2790  0.4298  0.1916
  249SOL    HW1  746   2.078   0.490   0.199  0.1598  1.1115  0.6283
  249SOL    HW2  747   2.151   0.359   0.125 -1.9878  0.8375 -0.5944
  250SOL     OW  748   0.836   0.004   0.502 -0.0928 -0.5551 -0.0739
  250SOL    HW1  749   0.808   3.025   0.567 -0.6136  1.9998 -2.3305
  250SOL    HW2  750   0.764   0.031   0.435  0.3456  1.1473 -0.8421
  251SOL     OW  751   1.516   2.931   2.866 -0.2649 -0.4564 -0.0728
  251SOL    HW1  752   1.527   2.958   2.771  0.2562  0.0113  2.2513
  251SOL    HW2  753   1.482   2.837   2.878 -0.0783  0.5818 -2.5728
  252SOL     OW  754   1.954   1.342   2.220  0.5167 -0.0597 -0.1802
  252SOL    HW1  755   1.993   1.346   2.316  0.4755  0.4996 -0.3737
  252SOL    HW2  756   1.909   1.252   2.203  0.7519 -3.9448 -0.8812
  253SOL     OW  757   2.608   2.487   2.283  0.9783 -0.6500 -0.4900
  253SOL    HW1  758   2.662   2.412   2.238 -0.1197  0.8843 -0.4549
  253SOL    HW2  759   2.631   2.577   2.241  0.0859 -1.0177 -1.0064
  254SOL     OW  760   1.057   2.024   1.685  0.0302 -1.0021  0.0788
  254SOL    HW1  761   0.957   2.019   1.698 -1.3701  3.0017  0.4958
  254SOL    HW2  762   1.109   2.020   1.773  1.0249 -0.3472 -0.8158
  255SOL     OW  763   1.032   0.753   1.006  0.2196 -0.4566  0.3571
  255SOL    HW1  764   1.105   0.809   1.050 -2.4857  0.7212  0.8621
  255SOL    HW2  765   0.957   0.817   0.982 -2.0439  3.1324  0.1506
  256SOL     OW  766   1.784   2.057   2.165  0.3952 -0.2096  0.0859
  256SOL    HW1  767   1.741   2.148   2.143 -2.3592 -0.7536  0.6416
  256SOL    HW2  768   1.797   2.000   2.080 -0.1588 -0.8301  1.2186
  257SOL     OW  769   0.262   2.713   2.928  0.1867 -0.0448 -0.1801
  257SOL    HW1  770   0.338   2.761   2.879 -0.2518 -0.6346  2.7789
  257SOL    HW2  771   0.226   2.623   2.890  2.0417 -1.4588 -3.3187
  258SOL     OW  772   0.820   3.088   2.047  0.2184 -0.0384 -0.4554
  258SOL    HW1  773   0.889   3.093   2.125  0.4881 -3.3656  0.1181
  258SOL    HW2  774   0.874   0.003   1.964  0.1785  0.0201  2.8272
  259SOL     OW  775   1.010   0.014   2.250  0.0490 -0.0760  0.8267
  259SOL    HW1  776   1.103   3.064   2.258  1.6864 -1.1875 -3.6151
  259SOL    HW2  777   0.970   0.026   2.343 -0.1639 -1.3295  1.0408
  260SOL     OW  778   1.594   0.534   0.684  0.2632 -0.4568  0.4478
  260SOL    HW1  779   1.599   0.534   0.580 -1.7382 -1.2201  2.3670
  260SOL    HW2  780   1.630   0.626   0.717 -0.9888  2.0991  0.9747
  261SOL     OW  781   0.304   0.315   2.755  0.1284  0.4345 -0.1692
  261SOL    HW1  782   0.288   0.231   2.817  1.4267  3.6037  0.7890
  261SOL    HW2  783   0.316   0.400   2.807  2.0069 -0.5686  0.6131
  262SOL     OW  784   2.666   2.728   2.157  0.0321 -0.0253 -0.7769
  262SOL    HW1  785   2.601   2.728   2.080  0.9428  2.4751 -0.8102
  262SOL    HW2  786   2.752   2.770   2.131 -1.6888 -1.6599 -1.7418
  263SOL     OW  787   2.889   2.044   2.059  0.4026  0.1450  0.3223
  263SOL    HW1  788   2.818   2.062   2.129 -0.5640 -0.1188  0.5354
  263SOL    HW2  789   2.887   1.946   2.023  0.4081 -0.6701  1.2388
  264SOL     OW  790   0.897   1.033   1.192  0.1250 -0.0342  0.5321
  264SOL    HW1  791   0.815   1.086   1.214 -0.9459 -1.5261  1.6186
  264SOL    HW2  792   0.964   1.057   1.258 -2.0607  0.6724 -1.9591
  265SOL     OW  793   0.453   2.030   0.068 -0.2200  0.2821  0.0719
  265SOL    HW1  794   0.531   2.036   0.136 -3.9607  0.5422 -0.7267
  265SOL    HW2  795   0.398   2.114   0.065 -0.1223 -1.4928 -1.9327
  266SOL     OW  796   1.155   1.041   0.402  0.0323 -0.3682  0.5893
  266SOL    HW1  797   1.242   1.048   0.344  0.0336 -2.0070 -0.9232
  266SOL    HW2  798   1.145   0.956   0.452  0.9545  0.5526 -0.2901
  267SOL     OW  799   3.042   1.272   0.140  0.0823 -0.3455 -0.4680
  267SOL    HW1  800   3.039   1.365   0.181 -0.2001 -0.4686 -0.9517
  267SOL    HW2  801   0.037   1.255   0.089  0.5368 -0.3618  0.5955
  268SOL     OW  802   2.235   0.118   2.767  0.4260  0.2737 -0.1011
  268SOL    HW1  803   2.295   0.072   2.695  2.6406 -2.8439 -0.4320
  268SOL    HW2  804   2.194   0.045   2.827  3.3541  0.7314  0.4727
  269SOL     OW  805   1.654   0.624   2.499 -0.0214 -0.1857  0.0742
  269SOL    HW1  806   1.737   0.574   2.525 -2.2167  2.1788  0.1498
  269SOL    HW2  807   1.596   0.583   2.430 -0.6995 -2.0260  0.2041
  270SOL     OW  808   0.788   0.891   2.953  0.2493 -0.0865 -0.1723
  270SOL    HW1  809   0.868   0.849   2.908  0.6737  0.5662  0.1897
  270SOL    HW2  810   0.748   0.845   3.032  2.5294 -0.1394  2.3450
  271SOL     OW  811   2.845   1.139   0.329 -0.3717  0.2719 -0.3442
  271SOL    HW1  812   2.785   1.059   0.305  0.2447  2.2110 -1.2800
  271SOL    HW2  813   2.900   1.173   0.251 -2.1776 -2.2349 -0.8068
  272SOL     OW  814   2.987   1.610   2.907 -0.5317 -0.4736 -0.2333
  272SOL    HW1  815   2.914   1.543   2.876 -0.9477  0.3009 -0.2679
  272SOL    HW2  816   3.048   1.635   2.830 -0.8882  2.0738  1.7318
  273SOL     OW  817   2.286   0.053   0.320  0.1173  0.2293  0.0439
  273SOL    HW1  818   2.382   0.093   0.336 -1.8141 -0.6849  0.0955
  273SOL    HW2  819   2.257   0.050   0.222 -0.1541  1.6508  2.0255
  274SOL     OW  820   0.341   2.575   1.049  1.1934 -0.7361  0.3514
  274SOL    HW1  821   0.314   2.479   1.078 -1.7144 -0.4682  0.4155
  274SOL    HW2  822   0.293   2.643   1.107 -1.8456  1.5300 -2.0726
  275SOL     OW  823   2.433   1.307   0.470 -0.1481 -0.4491  0.3738
  275SOL    HW1  824   2.497   1.364   0.415  0.8589  0.3795 -1.4728
  275SOL    HW2  825   2.485   1.233   0.516 -2.7328  2.2174 -1.4264
  276SOL     OW  826   2.910   1.166   2.343  0.4043 -0.6179 -0.7527
  276SOL    HW1  827   2.981   1.121   2.406  0.1170  1.2464 -0.1987
  276SOL    HW2  828   2.840   1.096   2.324 -0.0446  0.1301 -1.1355
  277SOL     OW  829   2.021   2.689   1.189 -0.3672  0.3564 -0.5876
  277SOL    HW1  830   2.107   2.702   1.130  2.4414  2.1827 -0.9078
  277SOL    HW2  831   2.041   2.722   1.284  0.4428  1.3707  0.5181
  278SOL     OW  832   1.281   3.039   2.199 -0.1885  0.1964 -0.5238
  278SOL    HW1  833   1.330   3.010   2.114 -0.2277 -0.4189 -0.2889
  278SOL    HW2  834   1.299   0.040   2.223 -3.0575 -0.6696 -0.1089
  279SOL     OW  835   1.552   1.823   0.521  0.6319 -0.1850  0.0982
  279SOL    HW1  836   1.489   1.834   0.602 -1.2547 -1.4288  0.3068
  279SOL    HW2  837   1.642   1.869   0.537 -0.1061 -3.9866 -0.8770
  280SOL     OW  838   0.317   1.594   0.852 -0.8462 -0.5642  0.3560
  280SOL    HW1  839   0.350   1.693   0.863 -0.6526 -1.3563  1.1285
  280SOL    HW2  840   0.355   1.532   0.926  1.0213 -1.9010 -0.0343
  281SOL     OW  841   2.854   0.362   2.297  0.2321 -0.3126  0.2235
  281SOL    HW1  842   2.852   0.262   2.313 -0.7345  1.2089 -0.6638
  281SOL    HW2  843   2.776   0.412   2.342 -0.6843  2.0621 -0.8051
  282SOL     OW  844   0.410   0.788   0.475  0.1178  0.3810  0.9767
  282SOL    HW1  845   0.460   0.739   0.547 -4.0475  0.0439  0.7643
  282SOL    HW2  846   0.329   0.735   0.439  0.3427  1.6091 -2.8683
  283SOL     OW  847   1.785   1.762   0.128 -0.0078  0.2507  0.0259
  283SOL    HW1  848   1.757   1.859   0.146 -1.1663 -0.4967  0.7211
  283SOL    HW2  849   1.848   1.765   0.047  2.7048  1.9783 -2.7818
  284SOL     OW  850   1.392   1.027   0.284 -0.1680  0.2879  0.3527
  284SOL    HW1  851   1.411   1.015   0.187 -0.6637 -1.5452  1.5463
  284SOL    HW2  852   1.439   0.952   0.340  1.3290  2.1933  3.0555
  285SOL     OW  853   2.063   0.790   2.473 -0.2070  0.0278 -0.7558
  285SOL    HW1  854   2.029   0.843   2.399  2.0448 -3.7334  4.8805
  285SOL    HW2  855   2.014   0.806   2.562 -2.3269 -0.2584  0.6783
  286SOL     OW  856   1.636   2.684   1.388  0.5330 -0.3077 -0.1870
  286SOL    HW1  857   1.708   2.646   1.455  0.5695 -1.7320 -2.0260
  286SOL    HW2  858   1.677   2.681   1.298  1.8789 -2.1907 -0.1006
  287SOL     OW  859   1.238   0.922   1.066 -0.0957 -0.4510 -0.8221
  287SOL    HW1  860   1.314   0.856   1.045 -0.1784 -3.1326  1.5474
  287SOL    HW2  861   1.262   0.966   1.154  0.9461 -2.5392 -2.2665
  288SOL     OW  862   0.821   2.875   0.252 -0.2461 -0.7480 -0.4034
  288SOL    HW1  863   0.830   2.808   0.175 -2.2319  1.5968  2.1358
  288SOL    HW2  864   0.823   2.831   0.343 -0.4601  1.5213 -1.6939
  289SOL     OW  865   0.495   1.545   1.812  0.2044  0.1849  0.1704
  289SOL    HW1  866   0.597   1.546   1.816 -0.0704 -1.0968 -0.2694
  289SOL    HW2  867   0.450   1.632   1.781  0.7355 -1.1539  0.2219
  290SOL     OW  868   1.587   2.398   0.954  0.4773 -0.3692 -0.5116
  290SOL    HW1  869   1.572   2.320   0.892  0.1838  0.9646 -0.8189
  290SOL    HW2  870   1.501   2.414   1.008  0.6151  2.2510 -0.1741
  291SOL     OW  871   1.765   2.556   3.078 -0.4769 -0.1288  0.3911
  291SOL    HW1  872   1.829   2.608   3.016 -2.1496  0.9151 -0.8381
  291SOL    HW2  873   1.810   2.485   0.042  1.0558  0.7399  1.8229
  292SOL     OW  874   1.060   0.521   1.892  0.0440 -0.1536 -0.4865
  292SOL    HW1  875   1.119   0.450   1.937  0.9786  1.0705  0.1560
  292SOL    HW2  876   1.028   0.581   1.966 -1.0255 -0.8269 -0.6075
  293SOL     OW  877   1.801   2.509   0.831 -0.6115 -0.2136  0.2650
  293SOL    HW1  878   1.729   2.449   0.870  1.1076  0.8745 -0.7447
  293SOL    HW2  879   1.775   2.607   0.836  2.3738  0.8648 -0.1590
  294SOL     OW  880   0.429   0.909   2.467  0.2450  0.1822  0.1124
  294SOL    HW1  881   0.336   0.893   2.494  1.8050 -0.4098  0.1304
  294SOL    HW2  882   0.484   0.841   2.517 -0.8235 -0.3943 -1.3702
  295SOL     OW  883   1.405   1.624   0.902 -0.4289  0.9101  0.2864
  295SOL    HW1  884   1.452   1.539   0.859 -0.2687 -1.6712 -1.0888
  295SOL    HW2  885   1.306   1.609   0.921  0.9958 -1.1815 -1.3276
  296SOL     OW  886   2.151   1.941   0.287  0.1986 -0.4782  0.2414
  296SOL    HW1  887   2.246   1.974   0.269 -0.4215 -1.5828 -1.1233
  296SOL    HW2  888   2.144   1.847   0.325 -1.4479  2.1840 -1.2970
  297SOL     OW  889   2.198   0.035   0.036  1.0946 -0.1424  0.2677
  297SOL    HW1  890   2.143   0.121   0.023 -1.7501  0.6158 -0.0816
  297SOL    HW2  891   2.171   3.062   3.055 -1.4454 -0.6280  0.9251
  298SOL     OW  892   1.339   2.181   2.671 -0.2375 -0.0851  0.4189
  298SOL    HW1  893   1.284   2.224   2.743 -0.7038 -1.9581 -1.9146
  298SOL    HW2  894   1.425   2.133   2.705  1.8096 -0.3271  1.6562
  299SOL     OW  895   1.323   2.584   2.483  0.3579 -0.3867  0.3867
  299SOL    HW1  896   1.308   2.675   2.442  0.8363 -2.5485 -0.2271
  299SOL    HW2  897   1.316   2.583   2.583 -0.7381 -0.8188  1.7077
  300SOL     OW  898   2.334   0.111   2.497 -0.2860  0.1554  0.3627
  300SOL    HW1  899   2.275   0.137   2.418 -1.4138 -0.3523  0.1918
  300SOL    HW2  900   2.429   0.153   2.480  4.3252  0.8142  0.7817
  301SOL     OW  901   1.392   0.870   2.113 -0.0711  0.3468 -0.2742
  301SOL    HW1  902   1.455   0.918   2.175 -2.5459 -1.3904 -0.0325
  301SOL    HW2  903   1.441   0.807   2.048 -2.1604  1.3516 -0.4033
  302SOL     OW  904   2.539   2.316   0.214  0.0528 -0.1528 -0.1519
  302SOL    HW1  905   2.507   2.359   0.301  1.6689 -1.3234 -1.0476
  302SOL    HW2  906   2.625   2.274   0.232 -1.0906  1.1707 -0.6414
  303SOL     OW  907   2.900   2.572   2.462  0.6109  0.0012  0.2783
  303SOL    HW1  908   2.967   2.567   2.382  0.0542  1.0241  1.9490
  303SOL    HW2  909   2.865   2.477   2.480  0.3524  0.4573  1.2287
  304SOL     OW  910   2.873   0.481   1.545  0.5171  0.1244 -0.1740
  304SOL    HW1  911   2.852   0.525   1.637  2.9276  0.4984  5.0273
  304SOL    HW2  912   2.793   0.420   1.516 -0.2981 -0.2199  0.6099
  305SOL     OW  913   0.644   2.144   1.880 -0.0279  0.0090  0.8599
  305SOL    HW1  914   0.587   2.188   1.945  0.4072  1.3870  0.6743
  305SOL    HW2  915   0.704   2.217   1.827 -0.1824  2.8561  0.1647
  306SOL     OW  916   2.731   1.079   1.578  0.5195  0.1810  0.0672
  306SOL    HW1  917   2.698   0.986   1.548 -2.9682 -0.2215  0.3696
  306SOL    HW2  918   2.831   1.084   1.558  0.4875  0.3828 -1.1050
  307SOL     OW  919   1.519   0.740   1.900  0.0899  0.2109  0.2360
  307SOL    HW1  920   1.589   0.670   1.927 -0.5293 -0.0997  2.4924
  307SOL    HW2  921   1.452   0.702   1.831  2.7017  0.4424  4.9065
  308SOL     OW  922   2.865   1.649   1.183 -0.0932  0.2528 -0.2739
  308SOL    HW1  923   2.911   1.606   1.104 -0.6652 -0.8408 -0.4459
  308SOL    HW2  924   2.823   1.576   1.242  2.1591  0.2524  1.8214
  309SOL     OW  925   2.627   1.477   1.077  0.1492  0.8587  0.3515
  309SOL    HW1  926   2.527   1.448   1.088 -0.9306  0.0124 -0.6813
  309SOL    HW2  927   2.623   1.572   1.044  0.3377 -0.9889  1.6360
  310SOL     OW  928   2.786   1.726   2.595  0.5437  0.6934  0.4780
  310SOL    HW1  929   2.684   1.739   2.588 -3.4518 -2.4463  1.5880
  310SOL    HW2  930   2.828   1.789   2.663  1.1008  0.7921 -0.2194
  311SOL     OW  931   3.018   2.694   2.937 -0.2762 -0.0708 -0.3382
  311SOL    HW1  932   2.998   2.702   2.838  1.3596  0.0296  2.6016
  311SOL    HW2  933   3.062   2.607   2.966 -1.0395  0.7060 -0.2436
  312SOL     OW  934   1.918   1.843   0.769  0.0077 -0.7368  0.3395
  312SOL    HW1  935   1.900   1.831   0.674 -1.1099  0.6325  2.4136
  312SOL    HW2  936   1.988   1.778   0.805 -0.0040  1.4781  1.7878
  313SOL     OW  937   2.608   3.089   0.915 -0.3635 -0.4439 -0.1473
  313SOL    HW1  938   2.538   3.046   0.856 -1.1055  0.9453 -0.9733
  313SOL    HW2  939   2.659   0.067   0.868 -1.2991 -1.6972  1.0443
  314SOL     OW  940   1.371   1.515   0.234  0.0690  0.5158 -0.6236
  314SOL    HW1  941   1.405   1.449   0.306  1.2825  2.0392 -1.3901
  314SOL    HW2  942   1.448   1.541   0.168 -0.9785  0.0213  0.3283
  315SOL     OW  943   1.411   2.402   2.293 -0.2811 -0.2255  0.7144
  315SOL    HW1  944   1.375   2.453   2.371  0.0946 -3.0685 -0.0263
  315SOL    HW2  945   1.401   2.435   2.199 -0.1550  0.8786  0.5206
  316SOL     OW  946   0.006   0.892   0.481  0.0762  0.6192 -0.1867
  316SOL    HW1  947   3.039   0.970   0.509 -0.5848 -0.3270 -1.3936
  316SOL    HW2  948   0.099   0.928   0.498  0.2948  0.9807  2.7967
  317SOL     OW  949   0.448   2.963   0.417 -0.2242 -0.1945 -0.2336
  317SOL    HW1  950   0.469   2.878   0.470  0.8395 -2.3241 -2.1912
  317SOL    HW2  951   0.468   2.955   0.317 -1.4469 -1.1780 -0.6069
  318SOL     OW  952   2.331   2.330   0.413  0.1633 -0.2440 -0.3167
  318SOL    HW1  953   2.306   2.251   0.475  1.5687  0.7411  0.1026
  318SOL    HW2  954   2.246   2.382   0.390 -0.2446  0.6996 -1.6338
  319SOL     OW  955   0.758   1.398   2.551 -0.1530  0.3781 -0.3524
  319SOL    HW1  956   0.692   1.475   2.566 -4.1616 -1.3376  2.8068
  319SOL    HW2  957   0.714   1.314   2.528 -0.1083  0.7771 -2.2661
  320SOL     OW  958   0.329   2.502   2.025  0.2187  0.6167  0.1215
  320SOL    HW1  959   0.278   2.475   1.941  0.6960  2.8934  0.5336
  320SOL    HW2  960   0.371   2.593   2.009 -1.3847 -0.4579  0.6916
  321SOL     OW  961   1.557   2.373   3.090  0.3319 -0.0051  0.3674
  321SOL    HW1  962   1.623   2.449   3.080 -1.8209  0.7009 -1.8356
  321SOL    HW2  963   1.542   2.324   3.006 -0.3372  0.2612 -0.4387
  322SOL     OW  964   3.028   1.300   2.113 -0.1432 -0.0592  0.7231
  322SOL    HW1  965   2.991   1.237   2.184 -0.9848  3.2129 -0.0822
  322SOL    HW2  966   3.012   1.257   2.023 -0.6666 -0.0719 -0.0602
  323SOL     OW  967   2.539   1.086   0.590 -0.0627  0.4936 -0.0002
  323SOL    HW1  968   2.443   1.045   0.605 -0.9423  0.0939 -2.2998
  323SOL    HW2  969   2.612   1.027   0.545  1.6495  2.0262 -1.1673
  324SOL     OW  970   0.045   2.925   2.923 -0.5827 -0.3105 -0.6023
  324SOL    HW1  971   3.069   2.847   2.934  0.9645 -1.7998  2.7108
  324SOL    HW2  972   0.137   2.887   2.918 -1.2238 -1.3015 -1.2435
  325SOL     OW  973   1.341   0.192   2.299  0.2184  0.3955 -0.7866
  325SOL    HW1  974   1.432   0.161   2.342  1.7452 -0.1093  1.9084
  325SOL    HW2  975   1.295   0.269   2.352 -1.8320  1.4872  2.6246
  326SOL     OW  976   2.256   2.599   1.645  0.0623  0.2657  0.0494
  326SOL    HW1  977   2.281   2.602   1.742 -1.6051  1.8672  0.6403
  326SOL    HW2  978   2.241   2.503   1.611 -0.0685 -0.2691 -1.9927
  327SOL     OW  979   1.817   0.241   2.814 -0.0388  0.0548  0.3239
  327SOL    HW1  980   1.765   0.156   2.838 -0.3647 -1.3841 -0.3859
  327SOL    HW2  981   1.838   0.293   2.900  0.2554 -1.6343 -1.7804
  328SOL     OW  982   2.971   0.816   2.209  0.2384 -0.2093  0.5397
  328SOL    HW1  983   3.061   0.864   2.206 -0.2952 -0.5813  0.4406
  328SOL    HW2  984   2.904   0.866   2.260 -1.5892 -0.0060  0.7600
  329SOL     OW  985   1.517   0.069   2.012 -0.0790 -0.4379  0.0974
  329SOL    HW1  986   1.501   0.140   1.946 -0.8503  1.7988 -1.3041
  329SOL    HW2  987   1.614   0.062   2.022 -2.6417 -0.0183 -0.5385
  330SOL     OW  988   2.823   1.910   1.249 -0.0201  0.0792 -0.1017
  330SOL    HW1  989   2.847   1.809   1.246  2.5332 -0.3512  0.9866
  330SOL    HW2  990   2.821   1.947   1.342  0.8948  0.0091 -0.4501
  331SOL     OW  991   0.657   1.606   2.298  0.1891 -0.2766  0.3666
  331SOL    HW1  992   0.733   1.674   2.280  1.1071  2.2550  0.6124
  331SOL    HW2  993   0.663   1.522   2.242 -0.4514  2.1130  0.6304
  332SOL     OW  994   0.278   2.847   1.490  0.2965 -0.4353  0.2804
  332SOL    HW1  995   0.375   2.863   1.472 -5.5479  0.5422  1.5065
  332SOL    HW2  996   0.231   2.935   1.477 -0.1656  1.1981 -0.6491
  333SOL     OW  997   2.482   2.632   1.427 -0.2761  0.4479  0.1544
  333SOL    HW1  998   2.574   2.594   1.450  2.7636  0.4122  1.0467
  333SOL    HW2  999   2.419   2.601   1.501 -0.1377  1.8595  0.3122
  334SOL     OW 1000   0.816   1.862   1.009 -0.0486  0.0290  0.2416
  334SOL    HW1 1001   0.844   1.927   1.083  2.0095 -1.1472 -1.2535
  334SOL    HW2 1002   0.885   1.862   0.935 -1.0083 -1.8582  0.9274
  335SOL     OW 1003   0.062   2.344   0.018  0.0573 -0.4926  0.3026
  335SOL    HW1 1004   0.045   2.244   0.025 -0.0077  1.6801 -0.6376
  335SOL    HW2 1005   0.012   2.396   0.091 -0.3770  0.9040 -0.7881
  336SOL     OW 1006   0.406   3.091   1.698  0.1304 -0.9677  0.1520
  336SOL    HW1 1007   0.354   3.053   1.624  0.9414 -1.4528  3.7386
  336SOL    HW2 1008   0.500   0.026   1.669  0.8487 -1.3749  1.0548
  337SOL     OW 1009   2.635   1.882   2.979 -0.3270 -0.1058 -0.2702
  337SOL    HW1 1010   2.533   1.881   2.963 -1.0074  0.4745  3.5541
  337SOL    HW2 1011   2.657   1.797   3.037  0.1307 -2.7705  1.5630
  338SOL     OW 1012   1.106   1.783   1.173 -0.1865 -0.4813 -0.6663
  338SOL    HW1 1013   1.197   1.776   1.135 -1.2469 -0.7013  2.0326
  338SOL    HW2 1014   1.079   1.882   1.182  0.9773 -0.1221  0.8111
  339SOL     OW 1015   0.109   0.554   1.867 -0.0540 -0.3134 -0.0075
  339SOL    HW1 1016   0.028   0.615   1.851  1.3107 -2.0260 -0.3895
  339SOL    HW2 1017   0.108   0.508   1.962  1.4589  1.1552  1.7901
  340SOL     OW 1018   1.609   2.499   0.316 -0.5689 -0.3117  0.0397
  340SOL    HW1 1019   1.563   2.413   0.298  2.1404  1.8857 -1.6208
  340SOL    HW2 1020   1.644   2.507   0.412  3.6169 -1.9155 -2.0452
  341SOL     OW 1021   1.953   1.427   1.087  0.5088  0.2585  0.6583
  341SOL    HW1 1022   2.020   1.362   1.059 -1.6602  2.2984  1.3971
  341SOL    HW2 1023   1.859   1.389   1.090 -2.1800 -3.9372 -0.8758
  342SOL     OW 1024   3.059   2.401   0.546 -0.4783 -0.1255  0.8683
  342SOL    HW1 1025   3.057   2.313   0.594 -1.0052  0.5698  0.6431
  342SOL    HW2 1026   2.965   2.437   0.531 -1.4049 -3.0505  1.3945
  343SOL     OW 1027   1.347   2.440   1.077 -0.4603 -0.4952  0.2359
  343SOL    HW1 1028   1.388   2.532   1.101 -1.1571 -0.0932  0.4976
  343SOL    HW2 1029   1.342   2.376   1.156 -0.7681 -2.2380  1.9204
  344SOL     OW 1030   2.199   2.827   0.793 -0.6036  0.5469  0.4368
  344SOL    HW1 1031   2.107   2.873   0.783  4.1659  0.2219  0.0085
  344SOL    HW2 1032   2.213   2.759   0.714  0.2667  0.3310 -1.7089
  345SOL     OW 1033   2.836   1.922   2.805  0.5230  0.3892  0.5649
  345SOL    HW1 1034   2.771   1.885   2.874  0.0121 -0.8849 -0.1544
  345SOL    HW2 1035   2.888   2.000   2.855  0.0122  1.3512 -0.3810
  346SOL     OW 1036   0.076   1.801   0.942 -0.1168 -0.0355 -0.6311
  346SOL    HW1 1037   3.092   1.763   0.897  0.0663  2.3858  1.5085
  346SOL    HW2 1038   0.112   1.750   1.027  0.5322  1.3214  1.4868
  347SOL     OW 1039   1.876   2.517   1.304  0.7021 -0.3793  0.3440
  347SOL    HW1 1040   1.875   2.569   1.391  0.3444 -1.5930 -3.3311
  347SOL    HW2 1041   1.936   2.575   1.240 -2.9971 -0.9574  4.8156
  348SOL     OW 1042   1.033   1.589   2.691  0.0101 -0.0998 -0.4230
  348SOL    HW1 1043   1.046   1.520   2.620 -0.6650  2.5908 -1.7399
  348SOL    HW2 1044   0.990   1.672   2.653 -0.9796  0.9326  1.9121
  349SOL     OW 1045   2.375   1.412   1.997 -0.0415  0.3064  0.0352
  349SOL    HW1 1046   2.277   1.394   1.998  5.1161  0.5532  1.1011
  349SOL    HW2 1047   2.396   1.508   2.018 -2.9019 -0.3572  0.0317
  350SOL     OW 1048   0.080   2.570   1.356  0.0156  0.3729  0.3888
  350SOL    HW1 1049   0.047   2.657   1.318  1.3719 -1.2259  1.2580
  350SOL    HW2 1050   0.176   2.571   1.385  1.4543  0.4752 -0.0856
  351SOL     OW 1051   0.389   0.488   2.567  0.0047  0.1650  1.0253
  351SOL    HW1 1052   0.316   0.535   2.518  2.3611 -1.6827 -1.6664
  351SOL    HW2 1053   0.359   0.417   2.637 -0.8217 -3.4724 -2.2571
  352SOL     OW 1054   0.787   2.499   1.566 -0.0070  0.5994  0.7007
  352SOL    HW1 1055   0.839   2.578   1.598 -0.2644 -2.1332 -0.8480
  352SOL    HW2 1056   0.685   2.510   1.572 -0.6478 -1.5185  0.3025
  353SOL     OW 1057   1.021   1.439   2.451  0.0716 -0.3560 -0.0246
  353SOL    HW1 1058   0.929   1.412   2.494  0.0166 -3.6137 -0.4614
  353SOL    HW2 1059   1.012   1.465   2.350 -1.8055  1.3538  0.3005
  354SOL     OW 1060   1.538   0.847   0.510  0.5507 -0.5384 -0.0909
  354SOL    HW1 1061   1.598   0.919   0.544 -0.5882  1.1395  0.3536
  354SOL    HW2 1062   1.453   0.840   0.569  1.6556 -0.8090 -0.2226
  355SOL     OW 1063   2.679   0.880   0.462  0.8909 -0.4018 -0.1024
  355SOL    HW1 1064   2.682   0.880   0.355 -2.9348  0.7590 -3.8700
  355SOL    HW2 1065   2.744   0.810   0.493 -1.0771  0.7937 -2.2700
  356SOL     OW 1066   2.568   1.071   2.741 -0.4389  0.0152 -0.1674
  356SOL    HW1 1067   2.640   1.082   2.811  1.1736 -0.3515 -0.3861
  356SOL    HW2 1068   2.480   1.087   2.786 -0.3371 -0.2800 -0.4260
  357SOL     OW 1069   0.848   2.738   1.675  0.1623  0.8809  0.1641
  357SOL    HW1 1070   0.866   2.832   1.644  1.1852 -0.9800 -0.4200
  357SOL    HW2 1071   0.855   2.723   1.779  2.8427 -0.3747 -0.1888
  358SOL     OW 1072   2.083   1.268   1.928 -0.0185 -0.7249 -0.2884
  358SOL    HW1 1073   2.022   1.344   1.898 -1.8558 -0.7760  0.6795
  358SOL    HW2 1074   2.147   1.242   1.853  1.4180 -0.2878 -2.0803
  359SOL     OW 1075   2.162   2.273   2.963  0.6530 -1.0964  0.6164
  359SOL    HW1 1076   2.098   2.328   2.902 -0.3224  3.1051  0.6543
  359SOL    HW2 1077   2.206   2.330   3.036 -2.8593  0.4116 -0.1737
  360SOL     OW 1078   2.176   0.602   0.810  0.1618 -0.5614  0.5708
  360SOL    HW1 1079   2.224   0.639   0.892  2.3200  0.0874 -0.4179
  360SOL    HW2 1080   2.195   0.657   0.728  1.3540 -0.9157  2.1402
  361SOL     OW 1081   1.907   3.085   0.934  0.1646  0.0668 -0.2026
  361SOL    HW1 1082   1.935   3.053   0.843  2.0059  4.2344  1.1691
  361SOL    HW2 1083   1.819   3.059   0.975 -0.7467 -2.7061  0.7954
  362SOL     OW 1084   1.329   1.230   0.644 -0.0498 -0.2593 -0.2271
  362SOL    HW1 1085   1.237   1.224   0.598 -0.4503  1.8204 -1.0664
  362SOL    HW2 1086   1.324   1.179   0.735 -1.1337 -0.6037  1.9667
  363SOL     OW 1087   2.664   1.645   2.342  0.0455  0.2375 -0.3299
  363SOL    HW1 1088   2.713   1.555   2.348  0.1828  0.6984  2.9341
  363SOL    HW2 1089   2.635   1.679   2.434  0.9616 -2.2730 -0.3121
  364SOL     OW 1090   1.329   0.652   1.307 -0.0814 -0.6741  0.0558
  364SOL    HW1 1091   1.421   0.647   1.353  1.3598 -0.6371 -0.0153
  364SOL    HW2 1092   1.295   0.566   1.266 -1.1485  0.1360  2.3755
  365SOL     OW 1093   0.318   0.014   0.852 -0.0262 -0.0456  0.1708
  365SOL    HW1 1094   0.240   0.068   0.886 -0.2540  0.0691  0.3248
  365SOL    HW2 1095   0.299   3.010   0.851 -1.4879 -0.4887  0.2247
  366SOL     OW 1096   2.817   1.626   0.453  0.2029 -0.1729  0.0414
  366SOL    HW1 1097   2.801   1.638   0.553  1.1589 -2.4007 -0.0897
  366SOL    HW2 1098   2.870   1.710   0.432  2.6408 -0.9881  1.4404
  367SOL     OW 1099   2.864   2.433   2.853  0.3122  0.3447  0.0962
  367SOL    HW1 1100   2.875   2.522   2.811 -1.6368  1.5605 -0.3451
  367SOL    HW2 1101   2.800   2.436   2.931  0.9450  0.3321  0.2536
  368SOL     OW 1102   0.169   2.332   0.998  0.1818 -0.7577 -0.1231
  368SOL    HW1 1103   0.225   2.342   0.914  2.4590  0.6923  0.8777
  368SOL    HW2 1104   0.070   2.344   0.984 -1.0182  1.8496 -1.0158
  369SOL     OW 1105   0.580   0.208   0.345 -0.4599  0.6406 -0.0582
  369SOL    HW1 1106   0.559   0.123   0.296  0.7678  2.8931 -0.5985
  369SOL    HW2 1107   0.665   0.253   0.305 -1.3812  1.4887  0.1404
  370SOL     OW 1108   0.257   0.833   1.416  0.3373 -0.4182  0.2881
  370SOL    HW1 1109   0.227   0.738   1.441 -0.7564  0.7729 -0.9847
  370SOL    HW2 1110   0.298   0.885   1.494 -0.4522  1.0452  0.0352
  371SOL     OW 1111   2.031   2.364   0.753 -1.0710  0.6727  0.1842
  371SOL    HW1 1112   2.055   2.264   0.782  1.7515 -2.6524 -1.2121
  371SOL    HW2 1113   1.940   2.395   0.784 -1.0361  0.5770  2.2872
  372SOL     OW 1114   3.090   1.270   2.572 -0.5808  0.7572 -0.5105
  372SOL    HW1 1115   0.029   1.250   2.481 -0.7912 -1.3196 -0.3075
  372SOL    HW2 1116   3.033   1.352   2.567  0.2820 -2.8097 -2.4054
  373SOL     OW 1117   2.732   1.609   0.713 -0.2142 -0.4125  0.1659
  373SOL    HW1 1118   2.672   1.655   0.784 -0.8481 -0.5143 -1.1448
  373SOL    HW2 1119   2.704   1.509   0.715 -0.6705 -5.5860  0.0648
  374SOL     OW 1120   0.338   2.401   0.314  0.1421 -0.1177  0.0261
  374SOL    HW1 1121   0.383   2.325   0.368  0.3233  0.7714 -1.3530
  374SOL    HW2 1122   0.345   2.386   0.211 -0.1074 -2.3493 -1.2309
  375SOL     OW 1123   0.811   0.342   0.219  0.0090 -0.5998  0.2506
  375SOL    HW1 1124   0.900   0.314   0.254  0.3888  1.3505 -0.2965
  375SOL    HW2 1125   0.808   0.443   0.202  3.4683  1.5179  1.9447
  376SOL     OW 1126   0.454   2.857   1.872  0.4057  0.2661 -0.2806
  376SOL    HW1 1127   0.470   2.945   1.826  0.5992  1.1434 -1.0809
  376SOL    HW2 1128   0.353   2.854   1.895 -4.5496  2.3207 -0.8282
  377SOL     OW 1129   1.007   2.229   2.409  0.3811 -0.4792 -0.0157
  377SOL    HW1 1130   1.076   2.156   2.430 -1.7061 -0.0592  2.1833
  377SOL    HW2 1131   1.040   2.324   2.437  0.3375  0.8533  0.6642
  378SOL     OW 1132   1.033   0.808   0.578  0.0049 -0.1015 -0.4998
  378SOL    HW1 1133   0.955   0.855   0.628 -4.4321 -1.5794  3.0675
  378SOL    HW2 1134   1.115   0.795   0.640 -0.4805 -0.2804 -1.7139
  379SOL     OW 1135   0.844   1.695   2.906 -0.0364 -0.0948  0.5800
  379SOL    HW1 1136   0.810   1.622   2.972 -1.6666  0.9628 -0.0491
  379SOL    HW2 1137   0.907   1.649   2.842 -1.4312  0.2472 -0.0415
  380SOL     OW 1138   2.820   2.030   1.549  0.7418  0.3927 -0.3579
  380SOL    HW1 1139   2.760   2.037   1.633 -2.5250  1.3231 -0.1083
  380SOL    HW2 1140   2.881   2.110   1.545  0.3687 -0.8829 -0.5810
  381SOL     OW 1141   0.116   0.990   1.867  0.6684 -0.5176 -0.2754
  381SOL    HW1 1142   0.213   1.025   1.858  1.0649  0.3842 -1.1429
  381SOL    HW2 1143   0.081   0.950   1.776 -0.3561 -0.2604 -1.1338
  382SOL     OW 1144   2.359   2.416   0.013  0.0590 -0.2115  0.0197
  382SOL    HW1 1145   2.396   2.450   3.017  1.3621 -2.4448 -1.9567
  382SOL    HW2 1146   2.433   2.381   0.072 -0.9592 -1.9753 -1.3051
  383SOL     OW 1147   2.292   2.101   2.223  0.6302  0.2947  0.0667
  383SOL    HW1 1148   2.393   2.114   2.223  2.5512 -1.8038  0.1565
  383SOL    HW2 1149   2.232   2.181   2.251 -0.9135 -0.2474  0.8965
  384SOL     OW 1150   0.917   2.205   2.140  0.1239  0.0287 -0.6845
  384SOL    HW1 1151   0.933   2.226   2.241  1.9048 -0.6240  0.0137
  384SOL    HW2 1152   0.841   2.266   2.105  0.0451 -0.2063 -1.7032
  385SOL     OW 1153   2.562   2.074   0.916 -0.4448 -0.4321 -0.5738
  385SOL    HW1 1154   2.492   2.145   0.938  2.8015 -0.3983  1.2294
  385SOL    HW2 1155   2.566   1.998   0.984 -2.4390  2.8750  0.8540
  386SOL     OW 1156   1.776   0.558   2.868  0.4699  0.3127 -0.2676
  386SOL    HW1 1157   1.755   0.652   2.833  0.4761 -0.4054  0.3555
  386SOL    HW2 1158   1.780   0.561   2.971 -2.1515  1.3574  0.3295
  387SOL     OW 1159   0.597   0.511   2.008 -0.2788  0.5124  0.0727
  387SOL    HW1 1160   0.544   0.450   1.948 -1.5656  2.6306 -1.5554
  387SOL    HW2 1161   0.575   0.505   2.106 -0.6207  0.4507 -0.0755
  388SOL     OW 1162   2.708   1.193   1.830  0.4687  0.6773 -0.2847
  388SOL    HW1 1163   2.701   1.147   1.740  0.3664  0.3322  1.2401
  388SOL    HW2 1164   2.805   1.206   1.839 -0.6347  0.4016  0.7433
  389SOL     OW 1165   1.465   0.589   2.302 -0.0100  0.3948 -0.0466
  389SOL    HW1 1166   1.375   0.622   2.261 -1.7406  2.5780 -1.5035
  389SOL    HW2 1167   1.498   0.499   2.258  0.7407 -2.9418 -2.6110
  390SOL     OW 1168   1.888   2.340   0.447 -0.4580 -0.0827 -0.8092
  390SOL    HW1 1169   1.958   2.269   0.476  2.3686  0.8411  1.9218
  390SOL    HW2 1170   1.934   2.431   0.436 -0.3084  1.8352  1.1870
  391SOL     OW 1171   1.769   2.761   1.084 -0.1190 -0.0310 -0.3537
  391SOL    HW1 1172   1.726   2.745   0.992 -1.4487  1.9086  1.5965
  391SOL    HW2 1173   1.862   2.717   1.094  2.2644 -2.0729 -0.4432
  392SOL     OW 1174   2.773   2.501   1.049  0.0923 -0.2145 -0.2196
  392SOL    HW1 1175   2.741   2.536   0.958  0.5755  0.1195 -0.5814
  392SOL    HW2 1176   2.705   2.443   1.096 -2.4478 -0.0837 -0.2090
  393SOL     OW 1177   1.938   1.507   2.716 -0.4181 -0.1042  0.2661
  393SOL    HW1 1178   1.940   1.608   2.699 -0.2198  1.6102  1.8595
  393SOL    HW2 1179   1.921   1.481   2.810  0.4750 -2.1039 -2.3929
  394SOL     OW 1180   0.147   2.747   0.086 -0.0845  0.7096  0.5200
  394SOL    HW1 1181   0.186   2.734   3.085 -2.3868  1.3865 -1.3012
  394SOL    HW2 1182   0.044   2.728   0.087 -0.9153 -1.9285  1.1346
  395SOL     OW 1183   1.293   1.094   1.268 -0.1908 -0.1719  0.3187
  395SOL    HW1 1184   1.347   1.079   1.352  0.5485 -0.3705 -0.1014
  395SOL    HW2 1185   1.328   1.165   1.208 -0.3802 -1.8686 -2.0491
  396SOL     OW 1186   1.955   0.787   2.728 -0.1628  0.3913  0.4284
  396SOL    HW1 1187   1.857   0.811   2.734  3.0183 -0.8411  0.6855
  396SOL    HW2 1188   1.999   0.804   2.819  0.5852  1.6459 -0.4887
  397SOL     OW 1189   0.173   0.861   2.525 -0.6750  0.0492  0.1831
  397SOL    HW1 1190   0.126   0.928   2.461  1.1097 -1.5239  1.3925
  397SOL    HW2 1191   0.205   0.909   2.611  0.8674  0.0697  2.1642
  398SOL     OW 1192   1.365   0.504   0.142 -0.0541  0.7293  0.7670
  398SOL    HW1 1193   1.392   0.544   0.054 -0.0773 -2.5333  1.1475
  398SOL    HW2 1194   1.269   0.508   0.144  2.8679  2.6452 -1.0132
  399SOL     OW 1195   2.042   0.015   1.645  0.6837  0.3396 -0.5195
  399SOL    HW1 1196   2.132   3.056   1.635  1.6810  0.2250  0.5879
  399SOL    HW2 1197   1.961   3.049   1.654 -1.0458 -0.3460 -1.4613
  400SOL     OW 1198   0.005   1.810   2.213  0.2138 -0.2062 -0.2688
  400SOL    HW1 1199   0.070   1.761   2.156 -0.7072 -0.3930  1.6415
  400SOL    HW2 1200   3.004   1.808   2.176 -4.4614 -0.5140  1.5004
  401SOL     OW 1201   0.741   0.164   0.027 -0.1315  0.6763  0.2044
  401SOL    HW1 1202   0.779   0.239   0.087  0.2494  2.1889  1.6063
  401SOL    HW2 1203   0.693   0.208   3.043  1.4722 -1.4946  3.1149
  402SOL     OW 1204   0.477   2.427   1.585  0.2366  0.3830  0.5046
  402SOL    HW1 1205   0.447   2.450   1.492  2.1725 -3.9500  0.2435
  402SOL    HW2 1206   0.507   2.516   1.629  1.5263  1.2832  0.0304
  403SOL     OW 1207   0.577   1.493   1.348 -0.2761  0.2333  0.1894
  403SOL    HW1 1208   0.536   1.410   1.380  2.8332  2.2591  0.2865
  403SOL    HW2 1209   0.607   1.545   1.429 -0.4448  0.5790 -1.4299
  404SOL     OW 1210   2.835   2.659   1.832  0.5470  0.1130  0.3068
  404SOL    HW1 1211   2.849   2.672   1.735 -0.8111  1.2837  2.4247
  404SOL    HW2 1212   2.871   2.729   1.895  0.0500 -0.9709 -0.1057
  405SOL     OW 1213   2.737   0.413   2.073  0.0433  0.1418  0.0216
  405SOL    HW1 1214   2.638   0.395   2.090  0.8982 -0.6669  0.9860
  405SOL    HW2 1215   2.792   0.374   2.153  1.6512  1.0327  1.9912
  406SOL     OW 1216   1.905   2.377   0.146 -0.1073 -0.3376  0.0078
  406SOL    HW1 1217   1.867   2.389   0.239 -1.1717 -2.3652  1.4296
  406SOL    HW2 1218   1.918   2.281   0.129 -0.5714 -1.0575  1.4630
  407SOL     OW 1219   1.696   1.920   0.916  0.5312  0.0366  0.2887
  407SOL    HW1 1220   1.778   1.883   0.873 -1.5172  0.5916  0.6845
  407SOL    HW2 1221   1.715   1.929   1.015 -0.5331  1.0411  1.0763
  408SOL     OW 1222   0.700   0.322   2.296  0.2125 -0.5357 -0.8639
  408SOL    HW1 1223   0.765   0.403   2.287  1.3954  1.2066  0.9386
  408SOL    HW2 1224   0.668   0.284   2.209  1.3774  1.5112  1.0169
  409SOL     OW 1225   2.497   1.992   0.661  0.1258 -0.0197 -0.0571
  409SOL    HW1 1226   2.521   2.011   0.761 -1.6287  0.5388 -2.8402
  409SOL    HW2 1227   2.577   1.988   0.598 -0.5804 -2.6579 -0.1305
  410SOL     OW 1228   2.297   1.557   0.627  0.0096  0.5678  0.4896
  410SOL    HW1 1229   2.306   1.477   0.687  0.4771  2.7822 -1.2806
  410SOL    HW2 1230   2.301   1.641   0.684  0.6759  1.1231  2.2335
  411SOL     OW 1231   2.928   0.680   0.538  0.1737  0.5457 -0.1128
  411SOL    HW1 1232   2.994   0.630   0.594 -1.6300  0.7762 -0.8042
  411SOL    HW2 1233   2.985   0.758   0.501  0.6193 -1.2817  0.8034
  412SOL     OW 1234   1.718   0.544   0.074 -0.0751 -0.2266  0.2073
  412SOL    HW1 1235   1.716   0.464   0.131 -2.8715  2.4548  1.7374
  412SOL    HW2 1236   1.623   0.573   0.039  1.0820 -0.6412  1.8608
  413SOL     OW 1237   0.855   0.812   1.366  0.1319 -0.6211 -0.2807
  413SOL    HW1 1238   0.759   0.780   1.392  1.2176  1.7870  1.1752
  413SOL    HW2 1239   0.853   0.886   1.294  0.3520  0.5019  2.2374
  414SOL     OW 1240   0.295   1.512   3.067 -0.3932 -0.0573 -0.0048
  414SOL    HW1 1241   0.214   1.546   0.023  2.0137 -1.0879  1.9359
  414SOL    HW2 1242   0.304   1.542   2.969  1.5845  1.4456 -1.5924
  415SOL     OW 1243   0.160   1.889   3.075  0.7674 -0.0525  0.3994
  415SOL    HW1 1244   0.258   1.895   3.050 -0.8332  1.2507  0.1730
  415SOL    HW2 1245   0.129   1.795   0.007 -2.8517 -1.0056  0.7652
  416SOL     OW 1246   1.714   0.931   0.162  0.3103 -0.5509  0.0465
  416SOL    HW1 1247   1.770   0.904   0.241 -0.8382  0.1924 -0.2192
  416SOL    HW2 1248   1.677   1.022   0.185  0.5346  3.7877  0.1161
  417SOL     OW 1249   0.294   0.799   1.036  0.4331  0.0912 -0.0996
  417SOL    HW1 1250   0.220   0.840   1.093 -1.1075 -0.5293  0.2993
  417SOL    HW2 1251   0.317   0.850   0.953  1.2377 -2.2638  0.0466
  418SOL     OW 1252   2.223   1.182   2.630 -0.4561 -0.4582  0.1014
  418SOL    HW1 1253   2.122   1.170   2.614 -1.9957 -0.1144 -2.7936
  418SOL    HW2 1254   2.248   1.151   2.720 -1.8156  0.7875 -0.8660
  419SOL     OW 1255   0.338   0.333   0.287 -0.0300  0.2102 -0.1834
  419SOL    HW1 1256   0.438   0.308   0.274  0.1265 -1.6628  0.0107
  419SOL    HW2 1257   0.296   0.360   0.194  0.0379  2.2507 -2.1159
  420SOL     OW 1258   0.485   1.358   0.777 -0.0706 -0.1614  0.1038
  420SOL    HW1 1259   0.571   1.324   0.813 -4.2987  0.0971 -3.1842
  420SOL    HW2 1260   0.484   1.458   0.778 -3.2254 -1.0628 -0.6841
  421SOL     OW 1261   0.528   2.225   0.440 -0.0734 -0.0707 -0.5005
  421SOL    HW1 1262   0.482   2.224   0.531 -0.4987  1.7702 -0.2316
  421SOL    HW2 1263   0.545   2.134   0.405 -1.2280  3.6122  0.1363
  422SOL     OW 1264   2.643   0.298   1.475  0.2833  0.2978  0.2208
  422SOL    HW1 1265   2.641   0.293   1.374 -0.6863  2.6355  1.1729
  422SOL    HW2 1266   2.660   0.206   1.519  0.0947 -1.5266  3.2057
  423SOL     OW 1267   2.035   1.608   0.852 -0.2341 -0.1721  0.2369
  423SOL    HW1 1268   1.975   1.552   0.907 -1.0493  2.3669  0.7444
  423SOL    HW2 1269   2.112   1.556   0.805  0.8874 -0.0750 -0.6681
  424SOL     OW 1270   1.859   1.235   0.317 -0.2796 -0.0397  0.2670
  424SOL    HW1 1271   1.944   1.179   0.297  0.4504 -0.4753 -1.7078
  424SOL    HW2 1272   1.876   1.332   0.295  0.6795  2.2494  0.4624
  425SOL     OW 1273   0.178   2.849   1.889  0.3435 -0.0553  0.0780
  425SOL    HW1 1274   0.166   2.812   1.984 -1.7956  0.4476  1.3783
  425SOL    HW2 1275   0.142   2.780   1.817 -4.2402 -3.2895 -1.4413
  426SOL     OW 1276   2.632   2.638   2.815 -0.8364 -0.2240 -0.2531
  426SOL    HW1 1277   2.655   2.570   2.887 -1.2279  0.5605 -3.8721
  426SOL    HW2 1278   2.590   2.719   2.858 -2.2791  2.3259  1.7617
  427SOL     OW 1279   0.714   0.787   2.334 -0.5222  0.3352 -0.2972
  427SOL    HW1 1280   0.635   0.808   2.278  0.6098  0.4217 -2.2157
  427SOL    HW2 1281   0.768   0.870   2.370  1.1829  0.5066  0.3292
  428SOL     OW 1282   2.114   0.815   2.176 -0.4544 -0.2530  0.3641
  428SOL    HW1 1283   2.185   0.753   2.140  0.3705 -1.1168 -0.0409
  428SOL    HW2 1284   2.132   0.912   2.142 -2.1054  0.3942  0.0172
  429SOL     OW 1285   2.467   0.256   0.508  0.4262 -0.7019  0.3025
  429SOL    HW1 1286   2.530   0.195   0.456 -2.1740 -0.4128 -0.3631
  429SOL    HW2 1287   2.411   0.315   0.439 -1.3289  1.8701 -0.6539
  430SOL     OW 1288   1.866   1.090   2.139 -0.3798 -0.3863 -0.5272
  430SOL    HW1 1289   1.969   1.074   2.137  0.6982  1.3848  0.5400
  430SOL    HW2 1290   1.830   1.087   2.043 -0.3717  0.7081  0.0779
  431SOL     OW 1291   2.976   2.245   1.515  0.0290 -0.3749 -0.2501
  431SOL    HW1 1292   3.069   2.205   1.497  2.3152 -0.5732 -1.5978
  431SOL    HW2 1293   2.957   2.317   1.448  2.4630 -0.6936 -1.0964
  432SOL     OW 1294   1.546   2.928   2.589  0.0159  0.2014 -0.0663
  432SOL    HW1 1295   1.594   2.849   2.543  0.4503  0.5365 -3.5282
  432SOL    HW2 1296   1.448   2.939   2.563  3.0362  3.1518 -0.5558
  433SOL     OW 1297   1.635   3.075   1.434  0.6439 -0.2715 -0.8197
  433SOL    HW1 1298   1.666   3.072   1.334 -1.5307 -1.7512 -2.3338
  433SOL    HW2 1299   1.563   3.009   1.452  1.7446 -2.2939 -1.6172
  434SOL     OW 1300   3.079   2.440   2.232 -0.2200 -0.1284 -0.2419
  434SOL    HW1 1301   3.040   2.453   2.140 -0.6078 -0.9886 -0.8987
  434SOL    HW2 1302   0.035   2.350   2.226 -2.8279 -3.8988 -0.5807
  435SOL     OW 1303   0.266   1.884   0.284 -0.1155  0.2857 -0.3386
  435SOL    HW1 1304   0.339   1.955   0.295  0.6660 -0.9593  0.5593
  435SOL    HW2 1305   0.212   1.900   0.198  0.2043  1.3700 -1.3831
  436SOL     OW 1306   0.618   1.078   1.663 -0.6646 -0.2030  0.5902
  436SOL    HW1 1307   0.686   1.106   1.594 -0.1989 -2.0084  1.7693
  436SOL    HW2 1308   0.663   1.073   1.755  1.7730  3.3413  0.8518
  437SOL     OW 1309   0.604   0.595   2.894 -0.3570 -0.0286 -0.5508
  437SOL    HW1 1310   0.647   0.627   2.807 -0.5885  0.5117  1.0621
  437SOL    HW2 1311   0.634   0.647   2.977 -2.3256  0.6674  1.1713
  438SOL     OW 1312   0.777   2.026   1.632  0.0165  0.1713 -0.2416
  438SOL    HW1 1313   0.755   2.010   1.534  0.5504 -0.6614  1.4652
  438SOL    HW2 1314   0.689   2.060   1.672  0.1951  1.8364 -1.9899
  439SOL     OW 1315   1.851   1.363   2.940  0.3855 -0.6207  0.7943
  439SOL    HW1 1316   1.925   1.339   3.007 -0.9822 -0.7004 -1.4200
  439SOL    HW2 1317   1.763   1.356   2.989  2.7696  2.1636 -2.0217
  440SOL     OW 1318   1.287   0.689   0.363  0.0690 -0.5670  0.5651
  440SOL    HW1 1319   1.188   0.704   0.334 -3.8896  2.3570 -0.7809
  440SOL    HW2 1320   1.308   0.591   0.391  0.1701  0.2646 -1.8240
  441SOL     OW 1321   0.556   2.671   1.674 -0.0703 -0.7138  0.0141
  441SOL    HW1 1322   0.651   2.710   1.665  0.0697  0.2904 -0.3339
  441SOL    HW2 1323   0.496   2.726   1.738 -1.3303  0.1151  3.1065
  442SOL     OW 1324   2.261   2.465   0.838  0.1631 -0.3231  0.0292
  442SOL    HW1 1325   2.174   2.453   0.787 -0.3815 -3.4496 -0.9850
  442SOL    HW2 1326   2.275   2.565   0.864 -1.4684  4.4472  1.6269
  443SOL     OW 1327   2.664   1.356   2.624  0.2916  0.0996 -0.8603
  443SOL    HW1 1328   2.571   1.326   2.639 -1.4665  0.8547 -0.5412
  443SOL    HW2 1329   2.687   1.349   2.524 -1.9592  2.3050  0.1803
  444SOL     OW 1330   1.395   0.782   2.534  0.6022  0.1794  0.2228
  444SOL    HW1 1331   1.473   0.721   2.507  2.0286 -0.2338 -0.0200
  444SOL    HW2 1332   1.338   0.806   2.451  3.3659  1.6043  3.8181
  445SOL     OW 1333   2.303   2.385   1.839 -0.2580 -0.4712  0.2216
  445SOL    HW1 1334   2.342   2.319   1.773 -0.9274 -2.0402  2.9927
  445SOL    HW2 1335   2.351   2.389   1.933  0.1697  2.2219  1.3602
  446SOL     OW 1336   2.910   1.859   0.368  0.1635 -0.2774  0.5179
  446SOL    HW1 1337   2.894   1.898   0.274  0.4845  3.7431  0.2012
  446SOL    HW2 1338   2.989   1.915   0.410  1.7513 -1.2725  0.2580
  447SOL     OW 1339   1.143   2.631   1.389 -0.5238 -0.0562  0.2347
  447SOL    HW1 1340   1.235   2.598   1.355  1.4312  1.0490  1.5142
  447SOL    HW2 1341   1.155   2.727   1.423  2.3482  0.5166 -1.5583
  448SOL     OW 1342   1.661   1.541   1.955 -0.5570 -0.2012  0.5245
  448SOL    HW1 1343   1.691   1.616   2.015 -0.7051 -2.5558  0.2799
  448SOL    HW2 1344   1.619   1.464   2.009 -3.1477 -0.8830  1.4176
  449SOL     OW 1345   0.310   2.136   2.373  0.6510 -0.6597  0.0501
  449SOL    HW1 1346   0.279   2.043   2.402  0.6997 -0.8854 -1.3539
  449SOL    HW2 1347   0.335   2.193   2.451 -1.9925 -0.4946  0.3282
  450SOL     OW 1348   2.950   1.510   2.531  0.3318 -0.3554  0.6390
  450SOL    HW1 1349   2.889   1.470   2.456  2.4873 -2.5381 -1.9741
  450SOL    HW2 1350   2.886   1.587   2.569 -1.2176 -0.7676  1.4375
  451SOL     OW 1351   2.469   0.550   1.240 -0.5703 -0.4419  0.4893
  451SOL    HW1 1352   2.497   0.458   1.203 -0.9539 -0.6467 -1.2889
  451SOL    HW2 1353   2.491   0.565   1.340 -1.4579  1.7310 -0.0655
  452SOL     OW 1354   1.030   2.388   1.317 -0.0254  0.8219 -0.1665
  452SOL    HW1 1355   1.066   2.480   1.341 -0.3993 -1.6014  0.5887
  452SOL    HW2 1356   0.992   2.387   1.221  1.1300  0.3135 -3.4585
  453SOL     OW 1357   1.083   2.132   0.939  0.1932 -0.3185  0.0802
  453SOL    HW1 1358   1.185   2.144   0.937  0.3950 -0.3032  0.1465
  453SOL    HW2 1359   1.049   2.203   0.872 -0.9444  1.1007  1.3795
  454SOL     OW 1360   3.087   1.375   0.647  0.1955  0.2283  0.1587
  454SOL    HW1 1361   0.069   1.335   0.699  1.7619  5.5601 -0.1915
  454SOL    HW2 1362   0.023   1.464   0.615 -1.3983 -0.1369 -1.3980
  455SOL     OW 1363   0.660   0.895   0.393  0.2043  0.2200  0.5085
  455SOL    HW1 1364   0.625   0.949   0.314 -2.5174  0.2489  0.6598
  455SOL    HW2 1365   0.588   0.828   0.411  1.0661  2.9087  0.8659
  456SOL     OW 1366   2.042   2.313   1.062  0.5217 -0.7227  0.3353
  456SOL    HW1 1367   1.955   2.300   1.105  0.1891 -0.8739 -1.6375
  456SOL    HW2 1368   2.042   2.360   0.970  1.4493  1.3208 -0.3816
  457SOL     OW 1369   1.436   2.613   2.991  0.0960  0.4717  0.1189
  457SOL    HW1 1370   1.529   2.598   3.019 -1.7999  0.0328  0.6366
  457SOL    HW2 1371   1.374   2.566   3.058 -0.9255  1.8367 -0.9802
  458SOL     OW 1372   2.489   0.197   2.905 -0.2376 -0.1725 -0.5169
  458SOL    HW1 1373   2.438   0.184   2.816 -0.5070  1.3841 -1.8339
  458SOL    HW2 1374   2.525   0.109   2.937  0.9589  2.3090 -2.6591
  459SOL     OW 1375   2.284   0.083   2.088  0.0158  0.1771 -0.3952
  459SOL    HW1 1376   2.207   0.103   2.151 -0.0224 -0.9474  0.0588
  459SOL    HW2 1377   2.319   3.086   2.099 -1.8995  2.2429 -1.1104
  460SOL     OW 1378   2.828   0.728   2.687  0.8549 -0.1830 -0.2854
  460SOL    HW1 1379   2.927   0.739   2.682 -3.2343  1.1154 -3.3972
  460SOL    HW2 1380   2.792   0.637   2.685  2.2697 -0.9477  3.2037
  461SOL     OW 1381   0.058   1.992   0.759  0.1114 -0.5580  0.0825
  461SOL    HW1 1382   0.100   2.071   0.801 -1.4994  1.1542 -1.5006
  461SOL    HW2 1383   0.069   1.915   0.820 -0.7675  2.0801  0.1678
  462SOL     OW 1384   0.046   0.140   0.900 -0.2895  0.1231  0.1121
  462SOL    HW1 1385   0.022   0.065   0.833  0.5221  0.0583 -1.2793
  462SOL    HW2 1386   3.063   0.194   0.934  2.3062 -0.7384  0.0989
  463SOL     OW 1387   2.270   1.449   0.105 -0.1856 -0.1368 -0.3305
  463SOL    HW1 1388   2.176   1.480   0.085 -1.9963  2.1554  2.9321
  463SOL    HW2 1389   2.336   1.528   0.097  0.6992  1.5053 -2.1148
  464SOL     OW 1390   0.876   0.031   1.114  0.3253  0.3909  0.2201
  464SOL    HW1 1391   0.802   3.050   1.110 -1.8447 -2.7302 -1.1385
  464SOL    HW2 1392   0.882   0.062   1.215  1.2320 -0.2264  5.0195
  465SOL     OW 1393   1.175   0.435   1.213 -0.2864 -0.1058 -0.1607
  465SOL    HW1 1394   1.083   0.470   1.234  2.4153 -1.5795  1.7017
  465SOL    HW2 1395   1.179   0.402   1.117  1.2351  0.0353  1.6758
  466SOL     OW 1396   1.519   2.597   2.063  0.0957 -0.2000 -0.0361
  466SOL    HW1 1397   1.516   2.683   2.128 -1.0956  0.5832  0.3849
  466SOL    HW2 1398   1.429   2.573   2.024 -1.6243 -2.0199 -0.1368
  467SOL     OW 1399   0.874   2.702   1.936 -0.3056  0.2130  0.1004
  467SOL    HW1 1400   0.807   2.769   1.975 -1.1032  0.0410  1.3474
  467SOL    HW2 1401   0.964   2.710   1.981  0.6573  1.1850 -1.9417
  468SOL     OW 1402   0.166   1.407   2.050 -0.1510 -0.0324 -0.2382
  468SOL    HW1 1403   0.088   1.351   2.079  1.1422  1.2677 -1.8266
  468SOL    HW2 1404   0.166   1.504   2.087 -0.2240 -1.4949  2.3244
  469SOL     OW 1405   1.022   1.881   0.827  0.0377 -0.4623 -0.4294
  469SOL    HW1 1406   0.982   1.895   0.732 -0.9248  1.7008 -1.0000
  469SOL    HW2 1407   1.047   1.974   0.857  0.6988 -2.2507 -1.1159
  470SOL     OW 1408   2.118   1.077   2.129  0.2308  0.4709  0.3600
  470SOL    HW1 1409   2.104   1.156   2.068 -0.9528 -1.5976  1.8693
  470SOL    HW2 1410   2.181   1.111   2.207 -0.3562 -1.9809 -1.2378
  471SOL     OW 1411   0.332   2.294   0.060 -0.7050  0.1015  0.0420
  471SOL    HW1 1412   0.235   2.312   0.056  2.0997 -0.9378 -0.0477
  471SOL    HW2 1413   0.385   2.362   0.002 -0.0010  1.1302  0.1493
  472SOL     OW 1414   0.053   2.866   2.204 -0.2392 -0.2096  0.2375
  472SOL    HW1 1415   0.081   2.790   2.261  1.6106  5.3545 -1.5945
  472SOL    HW2 1416   0.137   2.921   2.193 -1.1942 -2.5832  3.8304
  473SOL     OW 1417   0.637   2.725   2.957  0.7592  0.7870  0.4628
  473SOL    HW1 1418   0.640   2.785   2.871  0.7056 -1.2148  2.1936
  473SOL    HW2 1419   0.729   2.722   3.002  0.6119  0.9091  1.2576
  474SOL     OW 1420   1.644   0.205   0.746  1.2143  1.1239 -0.3466
  474SOL    HW1 1421   1.654   0.250   0.656  1.1698  0.0554  1.2128
  474SOL    HW2 1422   1.725   0.214   0.801 -1.0644  0.7592 -3.8800
  475SOL     OW 1423   1.470   0.184   1.521  0.1789 -0.4438 -0.9901
  475SOL    HW1 1424   1.435   0.218   1.432  1.7593 -0.0108  3.0069
  475SOL    HW2 1425   1.532   0.106   1.502  1.3921  3.0126  1.2647
  476SOL     OW 1426   0.276   1.178   1.095 -0.0619 -0.0106  0.5646
  476SOL    HW1 1427   0.234   1.100   1.139  1.0041  3.5900 -1.3349
  476SOL    HW2 1428   0.342   1.146   1.026  0.5642  0.9689 -0.6136
  477SOL     OW 1429   0.475   1.834   0.864 -0.3275  0.1507  0.6429
  477SOL    HW1 1430   0.577   1.814   0.864  1.5306  1.0823  0.0128
  477SOL    HW2 1431   0.451   1.894   0.935 -0.4486  2.3371  0.4282
  478SOL     OW 1432   0.102   2.664   2.358 -0.3056 -0.0740  0.0509
  478SOL    HW1 1433   0.062   2.584   2.308  0.2865  2.7431 -0.7420
  478SOL    HW2 1434   0.186   2.640   2.401 -1.6244 -0.7154 -0.8199
  479SOL     OW 1435   3.094   0.417   1.227  0.1028 -0.1890 -0.5857
  479SOL    HW1 1436   3.057   0.496   1.283  1.3420 -0.8055 -1.2903
  479SOL    HW2 1437   0.073   0.455   1.167  1.6601  0.7741 -2.2311
  480SOL     OW 1438   2.695   2.461   3.068  0.0624 -0.0946 -0.1752
  480SOL    HW1 1439   2.690   2.396   0.052 -0.2528 -0.6076  2.4895
  480SOL    HW2 1440   2.671   2.551   0.010  2.9400 -0.9900 -3.4931
  481SOL     OW 1441   2.321   1.958   1.744 -0.0581 -0.0238  0.5555
  481SOL    HW1 1442   2.306   2.041   1.689 -0.8980  0.7243  0.1248
  481SOL    HW2 1443   2.289   1.973   1.838 -0.3483  1.1366 -1.5271
  482SOL     OW 1444   1.713   1.460   2.305  0.3767 -0.2238  0.3391
  482SOL    HW1 1445   1.806   1.439   2.280 -3.0717  2.1542 -2.1372
  482SOL    HW2 1446   1.687   1.408   2.387  3.3465  0.3528 -1.5046
  483SOL     OW 1447   0.918   1.327   1.745 -0.1492 -0.2760  0.1696
  483SOL    HW1 1448   1.015   1.292   1.735  1.8073 -1.4813 -0.1797
  483SOL    HW2 1449   0.851   1.255   1.775 -0.5699 -0.7567  0.1542
  484SOL     OW 1450   0.260   0.500   1.373  0.2901  0.6537 -0.1747
  484SOL    HW1 1451   0.330   0.430   1.401  0.6192  1.7243 -2.3536
  484SOL    HW2 1452   0.269   0.516   1.272  1.2309  0.0436 -2.5344
  485SOL     OW 1453   2.352   1.193   0.079  0.2952 -0.1395  0.2957
  485SOL    HW1 1454   2.448   1.175   0.111  3.4810  0.5543  1.3857
  485SOL    HW2 1455   2.332   1.297   0.091 -1.5699  4.4726 -0.3657
  486SOL     OW 1456   1.288   0.077   1.686  0.2931  0.9987 -0.1268
  486SOL    HW1 1457   1.187   0.096   1.687  1.4085  0.5930 -1.5357
  486SOL    HW2 1458   1.341   0.125   1.613  1.1336 -0.2256 -0.0382
  487SOL     OW 1459   0.824   2.291   1.742  0.0969 -0.5262 -0.0248
  487SOL    HW1 1460   0.832   2.370   1.674  0.2726 -1.7830 -0.1717
  487SOL    HW2 1461   0.805   2.208   1.687  0.7186  0.9744  0.6251
  488SOL     OW 1462   2.545   1.479   2.856 -0.5883  0.0849 -0.2328
  488SOL    HW1 1463   2.635   1.440   2.838 -0.0990 -3.2348  1.0649
  488SOL    HW2 1464   2.482   1.461   2.778  0.0351  1.1066 -0.8044
  489SOL     OW 1465   1.973   2.952   0.700 -0.0927 -0.0538  0.3255
  489SOL    HW1 1466   1.895   2.902   0.661  1.0740  0.2758  1.4367
  489SOL    HW2 1467   2.007   3.028   0.646 -1.8318 -3.5079  1.2979
  490SOL     OW 1468   0.664   2.250   2.960 -0.5793 -0.7346 -0.3488
  490SOL    HW1 1469   0.609   2.188   2.900  0.5482  1.4743 -0.3317
  490SOL    HW2 1470   0.606   2.328   2.995 -1.8042 -0.0837  1.6633
  491SOL     OW 1471   0.822   1.142   1.491 -0.0637 -0.5319 -0.7224
  491SOL    HW1 1472   0.769   1.169   1.405 -0.5602  0.8567 -0.1991
  491SOL    HW2 1473   0.920   1.137   1.469 -3.4097  0.6818 -4.6642
  492SOL     OW 1474   1.000   0.696   2.094  0.5433 -0.0044 -0.0156
  492SOL    HW1 1475   1.095   0.673   2.118  0.2117 -1.1222 -2.6945
  492SOL    HW2 1476   0.985   0.798   2.086  0.8323 -1.6997  0.9593
  493SOL     OW 1477   2.068   2.108   0.838  0.5191  0.0412 -0.0764
  493SOL    HW1 1478   1.982   2.044   0.855 -5.1372 -3.0352  1.6270
  493SOL    HW2 1479   2.131   2.103   0.923  1.1945  0.1412  3.7177
  494SOL     OW 1480   0.727   1.290   0.904  0.1385 -0.0300 -0.1338
  494SOL    HW1 1481   0.824   1.273   0.867  0.4244  2.5597 -0.7271
  494SOL    HW2 1482   0.738   1.360   0.979  2.0080  0.8359  1.4474
  495SOL     OW 1483   2.462   2.427   0.658  0.3226  0.0562 -0.1046
  495SOL    HW1 1484   2.426   2.400   0.564 -1.5444 -1.2497  0.5265
  495SOL    HW2 1485   2.388   2.419   0.732  0.0967 -2.3336 -0.1484
  496SOL     OW 1486   2.693   0.023   1.396 -0.2720  0.2279  0.0490
  496SOL    HW1 1487   2.609   0.045   1.346  0.5249  0.4419 -1.5237
  496SOL    HW2 1488   2.698   3.018   1.422 -1.1864  0.9565  0.3920
  497SOL     OW 1489   2.264   1.190   2.342 -0.1802 -0.8969 -0.2543
  497SOL    HW1 1490   2.268   1.295   2.341 -0.7317 -0.8331  1.5216
  497SOL    HW2 1491   2.245   1.160   2.437  0.6131  1.8880  1.6815
  498SOL     OW 1492   0.415   2.239   1.299  0.0655  1.3034  0.0466
  498SOL    HW1 1493   0.325   2.217   1.256 -1.8168 -1.0996  1.1420
  498SOL    HW2 1494   0.453   2.162   1.360  0.9862 -0.1112  2.0713
  499SOL     OW 1495   1.276   2.537   1.920  0.3469  0.0519 -0.2498
  499SOL    HW1 1496   1.313   2.443   1.926 -2.7194  0.2020  0.9429
  499SOL    HW2 1497   1.208   2.544   1.842 -0.9141 -2.0044 -1.1588
  500SOL     OW 1498   0.566   1.989   0.328  0.2413 -0.0038 -0.2197
  500SOL    HW1 1499   0.650   1.986   0.269 -0.1707 -1.0132  0.5343
  500SOL    HW2 1500   0.547   1.892   0.359  0.1460 -1.6025  0.3034
  501SOL     OW 1501   2.067   0.065   1.164  0.0731  0.3258  0.4347
  501SOL    HW1 1502   2.026   0.025   1.079 -0.4673  1.9299 -2.3445
  501SOL    HW2 1503   2.022   0.019   1.245  0.7736 -0.6077  1.7908
  502SOL     OW 1504   2.827   0.160   1.661 -0.2915 -0.3634  0.3520
  502SOL    HW1 1505   2.918   0.178   1.612  0.4040 -0.5603 -0.1423
  502SOL    HW2 1506   2.838   0.195   1.756  1.3795  2.1444 -1.9612
  503SOL     OW 1507   2.472   1.313   1.746  0.0788 -0.2495  0.3324
  503SOL    HW1 1508   2.406   1.336   1.820 -0.7821 -1.3634 -0.9108
  503SOL    HW2 1509   2.557   1.270   1.783 -3.5210 -0.1059 -0.6523
  504SOL     OW 1510   1.562   0.983   1.781  0.6079  0.0132 -1.0515
  504SOL    HW1 1511   1.510   0.910   1.837 -1.8450  0.1537  2.6428
  504SOL    HW2 1512   1.632   0.937   1.722  0.1068 -0.2902 -2.6902
  505SOL     OW 1513   0.684   0.031   1.608  0.0605 -0.1128 -0.6627
  505SOL    HW1 1514   0.653   3.043   1.558 -3.9756  0.5732 -1.0196
  505SOL    HW2 1515   0.769   0.011   1.663 -0.8998 -0.9680  0.3147
  506SOL     OW 1516   0.164   0.233   0.510  0.0387 -0.6816 -0.4353
  506SOL    HW1 1517   0.232   0.275   0.449 -0.4251  0.9434  0.6466
  506SOL    HW2 1518   0.150   0.292   0.593  2.0337  0.0804  1.9431
  507SOL     OW 1519   2.456   0.831   2.987 -0.3064  0.0145 -0.0125
  507SOL    HW1 1520   2.559   0.819   2.989  2.0217 -0.2137 -0.4446
  507SOL    HW2 1521   2.408   0.769   2.927 -1.3101  2.8511  0.6113
  508SOL     OW 1522   1.473   0.273   1.831  0.2938 -0.2393 -0.3866
  508SOL    HW1 1523   1.451   0.209   1.755  1.7838 -1.0740  1.5128
  508SOL    HW2 1524   1.538   0.343   1.796  1.2953  0.1049  1.9949
  509SOL     OW 1525   1.633   1.728   1.281 -0.0866 -0.2724 -0.2221
  509SOL    HW1 1526   1.623   1.672   1.368 -1.0092 -0.0971 -0.5673
  509SOL    HW2 1527   1.538   1.752   1.244 -2.8731  1.4638 -2.0970
  510SOL     OW 1528   2.623   1.163   1.338 -0.6907  0.2300 -0.1400
  510SOL    HW1 1529   2.657   1.122   1.424  1.0172  0.3567  2.5496
  510SOL    HW2 1530   2.544   1.113   1.297 -2.7863  0.0308  2.4472
  511SOL     OW 1531   1.664   2.092   1.255  0.2206 -0.3022 -0.0179
  511SOL    HW1 1532   1.721   2.014   1.219  0.9897  0.2176  0.8359
  511SOL    HW2 1533   1.690   2.185   1.217  0.9422  1.2231 -0.5078
  512SOL     OW 1534   0.157   1.642   0.381  0.7523 -0.2655 -0.5647
  512SOL    HW1 1535   0.212   1.565   0.340 -0.9376  0.7918  0.7240
  512SOL    HW2 1536   0.199   1.729   0.344 -3.8558  0.0085 -0.7199
  513SOL     OW 1537   3.057   2.097   0.016 -0.1209 -0.1763 -0.3683
  513SOL    HW1 1538   3.019   2.122   3.018  0.9982  0.5405 -2.4587
  513SOL    HW2 1539   0.034   2.024   0.004  1.8044  1.4323 -0.9312
  514SOL     OW 1540   2.738   1.984   2.302  0.4744 -0.4309  0.6072
  514SOL    HW1 1541   2.772   2.001   2.397  0.2657  3.3950  2.1058
  514SOL    HW2 1542   2.787   1.905   2.264 -0.9374 -1.1412 -1.5180
  515SOL     OW 1543   2.081   1.101   0.720  0.0639  0.3490  0.6309
  515SOL    HW1 1544   2.024   1.180   0.697  2.0688 -1.0038  0.3245
  515SOL    HW2 1545   2.043   1.045   0.792  5.3107  3.1786  0.0083
  516SOL     OW 1546   1.990   2.798   0.328 -0.5463 -0.1978 -0.1065
  516SOL    HW1 1547   1.908   2.757   0.290  0.6500  1.9722 -0.1587
  516SOL    HW2 1548   2.046   2.725   0.383  0.0824 -2.5650  3.4575
  517SOL     OW 1549   0.915   1.819   2.588  0.0769  0.4775  0.1914
  517SOL    HW1 1550   0.975   1.814   2.505  1.3022 -2.0675  0.7265
  517SOL    HW2 1551   0.822   1.850   2.561 -2.5098 -1.0942  1.5604
  518SOL     OW 1552   0.416   0.058   1.978 -0.2409 -0.2990  0.1693
  518SOL    HW1 1553   0.482   0.128   2.007 -1.6966 -2.6374 -1.1735
  518SOL    HW2 1554   0.411   0.061   1.876 -0.0100 -1.8474  0.5319
  519SOL     OW 1555   0.263   1.412   0.319  0.2636  0.0378  0.1580
  519SOL    HW1 1556   0.214   1.330   0.349 -1.6803  0.4260 -0.8466
  519SOL    HW2 1557   0.359   1.390   0.291  1.2325 -0.5688 -2.4718
  520SOL     OW 1558   2.619   1.948   1.750 -0.5916  0.2354 -0.5600
  520SOL    HW1 1559   2.643   1.915   1.845  2.8477 -1.5581  1.8874
  520SOL    HW2 1560   2.521   1.980   1.731 -1.3931 -1.6898 -0.0425
  521SOL     OW 1561   0.694   2.431   2.606  0.0186  0.3483 -0.0890
  521SOL    HW1 1562   0.699   2.329   2.592  2.7189 -2.6910  0.7982
  521SOL    HW2 1563   0.649   2.481   2.532 -0.0568 -0.5290  1.9569
  522SOL     OW 1564   1.786   0.075   2.052  0.2265  0.0736  0.6009
  522SOL    HW1 1565   1.882   0.053   2.019  0.3294  0.2553 -3.2612
  522SOL    HW2 1566   1.793   0.161   2.101 -1.9066 -0.6542 -0.3069
  523SOL     OW 1567   2.043   1.740   1.962 -0.2837  0.3026  0.4948
  523SOL    HW1 1568   2.084   1.832   1.972 -1.8019  1.2668  2.6953
  523SOL    HW2 1569   2.038   1.696   2.056 -1.1907  0.6901  0.7806
  524SOL     OW 1570   0.651   3.065   0.196  0.2267  0.2036  0.1352
  524SOL    HW1 1571   0.713   2.986   0.219  1.2640 -0.1634 -1.1875
  524SOL    HW2 1572   0.688   0.016   0.114  0.5869  0.0492  1.8349
  525SOL     OW 1573   0.225   0.580   0.424  0.2839 -0.4545 -0.1844
  525SOL    HW1 1574   0.257   0.487   0.406  1.9141  0.5881  0.8303
  525SOL    HW2 1575   0.173   0.586   0.513 -0.4944  3.3275 -2.2273
  526SOL     OW 1576   0.923   2.749   0.665 -0.3623  0.0734 -0.2367
  526SOL    HW1 1577   0.913   2.678   0.740  1.3862  0.3932  1.4245
  526SOL    HW2 1578   0.843   2.810   0.658 -0.8438  0.8953  1.9223
  527SOL     OW 1579   2.224   1.756   1.037 -0.2118  0.6390 -0.5330
  527SOL    HW1 1580   2.154   1.722   0.973  1.5140  1.5655 -0.7427
  527SOL    HW2 1581   2.199   1.713   1.130 -0.2241 -0.5965  4.0808
  528SOL     OW 1582   2.907   2.952   2.672 -0.5852 -0.3117  0.0960
  528SOL    HW1 1583   2.816   2.966   2.631  0.6791  1.8767 -0.4715
  528SOL    HW2 1584   2.907   2.863   2.725  1.1295  0.5374 -0.7214
  529SOL     OW 1585   1.304   1.486   2.498  0.3378  0.1768 -0.8924
  529SOL    HW1 1586   1.210   1.449   2.477  1.3937 -0.7494 -0.4426
  529SOL    HW2 1587   1.365   1.466   2.421 -0.9225 -1.9400 -0.6312
  530SOL     OW 1588   1.373   1.283   2.936 -0.1014 -0.1728 -0.4416
  530SOL    HW1 1589   1.308   1.344   2.888  1.4333 -3.3559 -0.7301
  530SOL    HW2 1590   1.329   1.192   2.956 -1.0045  0.2396  0.5680
  531SOL     OW 1591   0.488   1.181   2.899 -0.6186 -0.5349 -0.0015
  531SOL    HW1 1592   0.437   1.228   2.817  2.9296  2.5827 -1.4033
  531SOL    HW2 1593   0.525   1.088   2.882 -2.5147 -1.1870 -2.7375
  532SOL     OW 1594   1.650   1.539   0.516  0.0258 -0.0300 -0.1614
  532SOL    HW1 1595   1.647   1.504   0.609 -0.2396  0.0446 -0.6927
  532SOL    HW2 1596   1.629   1.639   0.513  1.7449 -0.8643  0.6956
  533SOL     OW 1597   0.622   0.177   2.504 -0.1542 -0.0046 -0.2632
  533SOL    HW1 1598   0.647   0.244   2.435 -0.7306  1.4529 -0.8995
  533SOL    HW2 1599   0.653   0.213   2.596  0.9538  0.7008  1.3754
  534SOL     OW 1600   0.512   2.475   3.030  0.0426  0.1457  0.1863
  534SOL    HW1 1601   0.476   2.449   2.939  0.4146  1.0190  0.8323
  534SOL    HW2 1602   0.560   2.563   3.012  0.5822 -0.7271 -1.0904
  535SOL     OW 1603   0.189   3.056   0.455  0.1933 -0.0342  0.2381
  535SOL    HW1 1604   0.291   3.029   0.457  2.1148 -0.9556  0.1414
  535SOL    HW2 1605   0.178   0.061   0.457  2.3939 -1.1010 -0.5739
  536SOL     OW 1606   0.139   0.879   2.124  0.5712  0.2409  0.6963
  536SOL    HW1 1607   0.122   0.915   2.029  1.3240 -0.6036 -0.3857
  536SOL    HW2 1608   0.216   0.814   2.118 -2.6753 -1.7768 -0.8132
  537SOL     OW 1609   1.117   0.116   1.423  0.5353 -0.8080  0.1955
  537SOL    HW1 1610   1.035   0.108   1.357 -1.2399 -0.1885 -0.8627
  537SOL    HW2 1611   1.200   0.166   1.385  0.1289 -0.2080  0.5316
  538SOL     OW 1612   0.035   1.982   0.470  0.3777  0.4695  0.8819
  538SOL    HW1 1613   0.115   1.930   0.435  1.9394  0.4825  0.9400
  538SOL    HW2 1614   0.048   2.003   0.570  1.7526  0.0576  1.2988
  539SOL     OW 1615   2.603   1.058   2.035 -0.3426  0.0104 -0.0718
  539SOL    HW1 1616   2.633   1.107   1.951 -3.1338 -1.3181  0.2642
  539SOL    HW2 1617   2.609   0.955   2.026  1.1827  0.8626  0.2277
  540SOL     OW 1618   1.524   1.077   2.237 -0.6452 -0.4497  0.0854
  540SOL    HW1 1619   1.499   1.118   2.332  0.2580  0.3614  1.2531
  540SOL    HW2 1620   1.601   1.006   2.251  0.2094 -0.4188 -1.3059
  541SOL     OW 1621   0.962   0.904   1.828  0.3510 -0.2712  0.3108
  541SOL    HW1 1622   0.971   0.958   1.915 -0.1945  0.0576  1.0591
  541SOL    HW2 1623   0.883   0.837   1.843 -4.6563 -1.0580 -0.9228
  542SOL     OW 1624   1.862   0.238   2.303 -0.4137  0.3480 -0.0805
  542SOL    HW1 1625   1.842   0.258   2.400 -3.6191 -0.9525 -0.2820
  542SOL    HW2 1626   1.913   0.315   2.261  2.4149  0.4166 -0.9722
  543SOL     OW 1627   1.135   0.368   0.538 -0.6050  0.3909  0.1785
  543SOL    HW1 1628   1.052   0.318   0.507 -0.1314  2.3008 -0.9105
  543SOL    HW2 1629   1.205   0.376   0.462 -0.5686 -0.3562  0.2081
  544SOL     OW 1630   2.614   1.909   2.020 -0.1258 -0.1960 -0.5462
  544SOL    HW1 1631   2.686   1.866   2.081  1.5869 -0.9868  0.5062
  544SOL    HW2 1632   2.581   1.990   2.074 -0.3582 -2.0950 -0.0968
  545SOL     OW 1633   1.941   2.280   2.112 -1.0180  0.3349 -0.7465
  545SOL    HW1 1634   1.955   2.236   2.205 -1.6958  0.7829  1.6595
  545SOL    HW2 1635   1.855   2.328   2.101  1.3610 -1.5064 -0.6823
  546SOL     OW 1636   0.238   0.162   2.977  0.0807 -0.7406  0.5982
  546SOL    HW1 1637   0.263   0.075   3.026 -0.6211 -1.2679 -1.0794
  546SOL    HW2 1638   0.152   0.149   2.928 -0.7536 -1.5183 -1.5362
  547SOL     OW 1639   1.933   0.849   0.330 -0.1435  0.5141  0.0890
  547SOL    HW1 1640   1.935   0.795   0.416  2.3273  0.2026  2.9370
  547SOL    HW2 1641   1.989   0.938   0.338  1.6350  3.2936 -0.6710
  548SOL     OW 1642   2.437   1.668   2.206 -0.6927  0.3281  0.6959
  548SOL    HW1 1643   2.461   1.632   2.112 -0.0710 -1.5172  1.2521
  548SOL    HW2 1644   2.515   1.660   2.269 -2.4793 -0.7154  0.3112
  549SOL     OW 1645   1.978   0.297   0.422  0.1075 -0.0832  0.1690
  549SOL    HW1 1646   2.027   0.341   0.346  0.9257  1.7567  0.2947
  549SOL    HW2 1647   2.031   0.296   0.511  0.0702  0.9682  2.5256
  550SOL     OW 1648   2.365   2.243   0.957 -0.5768  0.2226 -0.2004
  550SOL    HW1 1649   2.307   2.178   1.010 -0.9915 -2.0915  0.8124
  550SOL    HW2 1650   2.304   2.321   0.924 -2.8968 -1.9240 -1.2003
  551SOL     OW 1651   1.209   2.906   1.437  0.0677  0.0733 -0.3818
  551SOL    HW1 1652   1.150   2.980   1.475 -0.0755 -0.2885  0.9706
  551SOL    HW2 1653   1.298   2.901   1.493  3.0576  1.6983 -1.0876
  552SOL     OW 1654   2.816   2.056   2.565  0.3787 -0.0484 -0.3663
  552SOL    HW1 1655   2.813   1.992   2.648 -2.6821 -1.2575  2.6097
  552SOL    HW2 1656   2.910   2.071   2.533 -1.4249  0.5741 -2.1278
  553SOL     OW 1657   0.573   0.002   0.780 -0.2648  0.2750  0.3447
  553SOL    HW1 1658   0.600   0.082   0.724  0.5722 -0.3546  1.1059
  553SOL    HW2 1659   0.473   0.004   0.803 -0.9758  0.1853 -0.5400
  554SOL     OW 1660   2.030   2.342   1.848 -0.1073 -0.4269  0.3393
  554SOL    HW1 1661   2.002   2.294   1.935  0.4101  0.1610 -1.9050
  554SOL    HW2 1662   2.132   2.357   1.837 -1.1084 -0.4724  1.9294
  555SOL     OW 1663   1.256   2.065   1.891  0.5915 -0.3262 -0.1901
  555SOL    HW1 1664   1.185   2.140   1.903 -0.5990  0.4327 -0.2343
  555SOL    HW2 1665   1.291   2.036   1.987 -1.6179  1.6454 -2.1753
  556SOL     OW 1666   1.256   1.557   1.559 -0.5364  0.1186 -0.1223
  556SOL    HW1 1667   1.282   1.623   1.487  1.1688  2.6584  1.4186
  556SOL    HW2 1668   1.334   1.544   1.626 -0.4994  1.9265 -0.8185
  557SOL     OW 1669   1.945   2.282   2.442  0.4973  0.4144 -0.1889
  557SOL    HW1 1670   1.914   2.199   2.491  4.1253  0.7531 -1.5500
  557SOL    HW2 1671   1.858   2.334   2.428  0.1070  0.6504 -0.7738
  558SOL     OW 1672   0.670   2.861   2.042  0.4665  0.3220 -0.1631
  558SOL    HW1 1673   0.587   2.850   1.978 -0.4463 -1.4992 -1.2409
  558SOL    HW2 1674   0.710   2.956   2.046  1.0522  1.5640  2.0651
  559SOL     OW 1675   2.487   2.747   1.172 -0.0861 -0.4963 -0.1283
  559SOL    HW1 1676   2.499   2.709   1.266  0.7283 -0.3310  1.4825
  559SOL    HW2 1677   2.569   2.743   1.117 -3.1555 -0.3485 -1.0933
  560SOL     OW 1678   1.054   2.309   0.464  0.6640 -0.0904  0.3592
  560SOL    HW1 1679   1.093   2.399   0.432  0.7434 -1.9627  0.1022
  560SOL    HW2 1680   0.988   2.273   0.397 -0.1159  0.5032  0.8682
  561SOL     OW 1681   1.107   0.596   0.110 -0.0559 -0.4895 -0.5295
  561SOL    HW1 1682   1.009   0.587   0.135  2.7495 -0.7825  1.0404
  561SOL    HW2 1683   1.131   0.697   0.111  1.8519  1.1489  0.9305
  562SOL     OW 1684   0.808   0.290   2.709  0.5561 -0.1042  0.1618
  562SOL    HW1 1685   0.757   0.286   2.797 -0.8105 -1.1815  0.4978
  562SOL    HW2 1686   0.905   0.261   2.727 -0.5978  0.3020  0.3148
  563SOL     OW 1687   1.441   1.653   2.906  0.1095 -0.2883 -0.3395
  563SOL    HW1 1688   1.497   1.634   2.991 -1.2984  2.2408  0.6315
  563SOL    HW2 1689   1.421   1.754   2.896  0.8688 -0.2661 -0.7404
  564SOL     OW 1690   2.474   0.939   0.894 -0.1807 -0.2749 -0.0840
  564SOL    HW1 1691   2.566   0.982   0.897  0.2578 -0.8068  2.2692
  564SOL    HW2 1692   2.434   0.943   0.796 -0.7111  0.3215  2.0695
  565SOL     OW 1693   1.073   0.121   2.767 -0.1655  0.2500 -0.1280
  565SOL    HW1 1694   1.071   0.078   2.861  1.5377  1.9542  0.3465
  565SOL    HW2 1695   1.111   0.216   2.776 -0.0025  0.6050 -1.6236
  566SOL     OW 1696   1.571   0.134   2.478  0.0940 -0.8256  0.4324
  566SOL    HW1 1697   1.556   0.090   2.570  0.5711  0.4723  1.1543
  566SOL    HW2 1698   1.633   0.068   2.429  0.1808  1.4423 -0.9164
  567SOL     OW 1699   1.987   1.428   0.589  0.4049  0.1037  0.3112
  567SOL    HW1 1700   2.066   1.402   0.534 -0.8968  3.2153  2.7547
  567SOL    HW2 1701   1.977   1.528   0.580  1.0434  0.2967 -0.8009
  568SOL     OW 1702   1.774   2.036   0.422 -0.6251  0.7075  0.1641
  568SOL    HW1 1703   1.868   2.055   0.457  0.5407  1.5427  0.6040
  568SOL    HW2 1704   1.715   2.111   0.446 -0.1252 -2.0575  1.1570
  569SOL     OW 1705   2.014   1.232   0.023 -0.0922  0.2325 -0.2196
  569SOL    HW1 1706   2.005   1.142   3.077  1.1409  0.5472 -0.5507
  569SOL    HW2 1707   2.102   1.244   0.074  1.1626  0.5499 -1.4998
  570SOL     OW 1708   0.222   2.497   1.774 -0.3495 -0.4626  0.3359
  570SOL    HW1 1709   0.195   2.581   1.720  1.6596  0.6156  1.5904
  570SOL    HW2 1710   0.270   2.437   1.717 -0.8829  1.3551  0.9606
  571SOL     OW 1711   0.122   0.493   2.129 -0.6480  0.1151 -0.1001
  571SOL    HW1 1712   0.214   0.477   2.171 -1.8494  1.5068  1.6050
  571SOL    HW2 1713   0.048   0.500   2.195  2.9138  1.6977 -0.9322
  572SOL     OW 1714   1.207   1.458   1.053  0.3218 -0.2388 -0.2538
  572SOL    HW1 1715   1.162   1.467   1.144  1.6973 -1.7775 -0.8306
  572SOL    HW2 1716   1.157   1.499   0.976  1.3355 -1.2151 -1.4971
  573SOL     OW 1717   0.931   1.951   0.025  0.4104  0.0995  0.2297
  573SOL    HW1 1718   0.988   1.891   3.058 -2.3806 -0.2437  0.2724
  573SOL    HW2 1719   0.996   2.009   0.081  0.5196  0.3339 -2.3253
  574SOL     OW 1720   1.109   2.915   0.596  0.3430 -0.1883 -0.1105
  574SOL    HW1 1721   1.043   2.847   0.629  2.9622  0.9335 -0.9785
  574SOL    HW2 1722   1.094   3.007   0.637  1.0753  0.7769 -0.1277
  575SOL     OW 1723   3.018   1.057   1.527  0.8251 -0.2445  0.5463
  575SOL    HW1 1724   3.017   1.064   1.426  0.4281 -1.8184 -0.1560
  575SOL    HW2 1725   3.073   1.127   1.570 -1.7897 -1.3862 -0.5407
  576SOL     OW 1726   1.961   3.039   1.375 -0.3064  0.2822 -0.0182
  576SOL    HW1 1727   1.978   3.047   1.477 -0.7674 -1.9926  1.2311
  576SOL    HW2 1728   1.874   2.983   1.363 -0.2377 -0.9240  1.0259
  577SOL     OW 1729   0.630   0.944   1.957 -0.3834 -0.1364  0.4092
  577SOL    HW1 1730   0.682   0.856   1.939 -1.6543 -0.7034  0.5805
  577SOL    HW2 1731   0.574   0.948   2.045 -0.5095 -0.0730 -0.6193
  578SOL     OW 1732   2.105   0.533   2.434  0.5390 -0.1552  0.2335
  578SOL    HW1 1733   2.050   0.502   2.514 -0.5621  2.6817  3.1247
  578SOL    HW2 1734   2.086   0.634   2.426 -0.3416 -0.7016  0.9111
  579SOL     OW 1735   2.349   2.226   1.629 -0.0534  0.6815  0.5258
  579SOL    HW1 1736   2.421   2.194   1.560  1.5166 -1.8079 -0.6114
  579SOL    HW2 1737   2.273   2.279   1.592  0.9927 -1.7429  3.0587
  580SOL     OW 1738   1.960   1.097   2.599 -0.2621 -0.0349 -0.1255
  580SOL    HW1 1739   1.905   1.074   2.683 -1.9088  1.6777 -0.6774
  580SOL    HW2 1740   1.934   1.039   2.520  0.1394 -0.6790 -1.8762
  581SOL     OW 1741   1.197   1.086   2.935  0.3380  0.1657 -0.2920
  581SOL    HW1 1742   1.097   1.095   2.948  0.9232  4.1824 -0.2516
  581SOL    HW2 1743   1.222   1.026   2.851  1.1996 -0.3336 -3.5989
  582SOL     OW 1744   1.185   1.294   1.592 -0.0487  0.2535  0.5712
  582SOL    HW1 1745   1.148   1.252   1.505 -2.7338  3.1710 -2.4437
  582SOL    HW2 1746   1.198   1.397   1.587  2.0644 -1.4703  2.6836
  583SOL     OW 1747   1.590   1.272   1.459 -0.4645 -0.3646 -0.0722
  583SOL    HW1 1748   1.517   1.203   1.479  0.8904  0.5993 -0.9290
  583SOL    HW2 1749   1.608   1.273   1.363 -0.5138 -0.1738  3.9215
  584SOL     OW 1750   1.605   2.534   0.608 -1.0571 -0.2393 -0.0711
  584SOL    HW1 1751   1.506   2.517   0.612  2.0327  1.7314 -0.7518
  584SOL    HW2 1752   1.661   2.477   0.670 -3.2160 -1.0042 -0.5036
  585SOL     OW 1753   1.952   2.678   2.938  0.4709  0.0928  0.0330
  585SOL    HW1 1754   1.933   2.750   2.868 -2.9584 -1.4839  2.0700
  585SOL    HW2 1755   2.034   2.708   2.994  1.1085  0.3093  0.3913
  586SOL     OW 1756   2.756   2.232   0.830 -0.9475 -0.0333 -0.5297
  586SOL    HW1 1757   2.720   2.321   0.799 -1.5121 -3.3888  2.0322
  586SOL    HW2 1758   2.680   2.180   0.872  1.7775  0.1016  1.2506
  587SOL     OW 1759   0.713   1.733   0.114 -0.4349  0.2188 -0.1739
  587SOL    HW1 1760   0.766   1.805   0.067  0.5727 -0.4897  2.9994
  587SOL    HW2 1761   0.728   1.643   0.069  2.2755  1.6422  0.4987
  588SOL     OW 1762   0.779   0.238   0.960 -0.0011 -0.0228 -0.2985
  588SOL    HW1 1763   0.809   0.184   1.038 -0.0928  1.6183 -0.5415
  588SOL    HW2 1764   0.830   0.221   0.876  0.3260 -1.7637  0.2082
  589SOL     OW 1765   1.295   0.804   0.621  0.5907 -0.0216  0.2941
  589SOL    HW1 1766   1.293   0.773   0.525 -2.0396 -0.6716  0.2668
  589SOL    HW2 1767   1.315   0.730   0.689  0.8434  0.3797  2.5513
  590SOL     OW 1768   1.523   2.940   0.070 -0.1161 -0.6237  0.2787
  590SOL    HW1 1769   1.519   2.961   3.064 -0.0687 -1.7296  0.6675
  590SOL    HW2 1770   1.450   2.880   0.109 -2.7049 -1.1508  1.6014
  591SOL     OW 1771   0.010   2.396   2.588 -0.3246 -0.1543  0.0874
  591SOL    HW1 1772   0.036   2.487   2.543  0.8726  0.7127 -1.6843
  591SOL    HW2 1773   3.068   2.411   2.681  1.3883  3.4016 -1.0520
  592SOL     OW 1774   2.924   1.562   2.035  0.0894  0.7334 -0.2301
  592SOL    HW1 1775   2.830   1.523   2.004 -2.8102 -0.1903  1.0350
  592SOL    HW2 1776   2.973   1.481   2.075 -1.1995  0.0920  2.5412
  593SOL     OW 1777   1.638   1.545   1.500  0.9796  0.0553  0.7255
  593SOL    HW1 1778   1.633   1.444   1.480  2.6410 -0.7660  0.7820
  593SOL    HW2 1779   1.567   1.576   1.564  1.8369 -2.5299 -0.2539
  594SOL     OW 1780   2.757   1.319   0.098  0.6189  0.1033  0.2170
  594SOL    HW1 1781   2.856   1.301   0.098 -1.6416 -1.0613  0.3765
  594SOL    HW2 1782   2.709   1.231   0.097 -0.4832 -0.1535  3.2521
  595SOL     OW 1783   0.861   0.716   0.408 -0.0362 -0.0688  0.1217
  595SOL    HW1 1784   0.785   0.788   0.407  0.4158  1.4272  0.3526
  595SOL    HW2 1785   0.932   0.737   0.477 -4.0726 -1.3929 -2.8945
  596SOL     OW 1786   0.087   1.444   1.387 -0.0394  0.1041  0.3004
  596SOL    HW1 1787   0.134   1.459   1.299 -1.0003 -0.3250 -0.9825
  596SOL    HW2 1788   0.020   1.519   1.399 -0.0489  0.4503  1.1732
  597SOL     OW 1789   0.956   2.035   1.166  0.1570 -0.2231  0.3703
  597SOL    HW1 1790   0.968   2.085   1.260 -0.3812  1.5602 -1.5274
  597SOL    HW2 1791   0.998   2.091   1.088  0.6816  0.8045 -1.3444
  598SOL     OW 1792   0.101   3.076   1.764  0.7687 -0.4861 -0.0407
  598SOL    HW1 1793   0.155   2.996   1.798 -0.8170  0.4690 -3.5647
  598SOL    HW2 1794   0.008   3.065   1.799  1.9083  0.2293  0.0431
  599SOL     OW 1795   0.312   1.534   2.553 -0.0665  0.7782 -0.1651
  599SOL    HW1 1796   0.295   1.549   2.650  0.4268 -0.1184 -0.0066
  599SOL    HW2 1797   0.231   1.518   2.494  2.1863 -0.6775  1.3900
  600SOL     OW 1798   0.541   0.908   2.808  0.4195 -0.4319  0.4642
  600SOL    HW1 1799   0.547   0.832   2.741  0.9338  0.4526  2.4517
  600SOL    HW2 1800   0.623   0.907   2.867  0.5431 -3.4637 -0.2807
  601SOL     OW 1801   0.523   0.829   1.660  0.1299 -0.0520  0.4702
  601SOL    HW1 1802   0.554   0.927   1.664  1.2417 -0.2063 -1.0820
  601SOL    HW2 1803   0.482   0.787   1.742  1.0535 -0.3288 -2.8998
  602SOL     OW 1804   0.334   3.054   0.011  0.3028  0.3882 -0.1186
  602SOL    HW1 1805   0.416   3.028   0.063 -3.6479  0.4490  1.0114
  602SOL    HW2 1806   0.250   3.053   0.069 -1.1268  0.4855 -1.9534
  603SOL     OW 1807   1.592   2.481   2.636 -0.0797  0.2157 -0.1427
  603SOL    HW1 1808   1.664   2.423   2.685  2.6138  0.2852 -0.1337
  603SOL    HW2 1809   1.507   2.493   2.690  1.2972  0.0463 -1.9535
  604SOL     OW 1810   0.116   2.469   2.870  0.0427  0.1883 -0.1901
  604SOL    HW1 1811   0.101   2.415   2.959  1.0404  0.9837 -3.1261
  604SOL    HW2 1812   0.146   2.406   2.798 -2.9128 -1.0473  0.5398
  605SOL     OW 1813   2.370   0.955   1.354  0.1288  0.2896 -0.1406
  605SOL    HW1 1814   2.364   0.988   1.261  1.7822 -2.7711  0.5918
  605SOL    HW2 1815   2.283   0.908   1.377 -0.6099  0.0231 -0.4648
  606SOL     OW 1816   0.846   1.008   2.665  0.2459 -0.9308  0.3539
  606SOL    HW1 1817   0.882   1.097   2.701  0.9057  2.8466  1.0574
  606SOL    HW2 1818   0.883   0.927   2.717 -2.0553  0.8706  1.2207
  607SOL     OW 1819   0.726   0.506   0.984 -0.6383  0.2097 -0.2383
  607SOL    HW1 1820   0.725   0.537   1.084 -1.6400 -1.4782  0.8865
  607SOL    HW2 1821   0.753   0.404   0.977  0.7103 -2.3828 -2.9101
  608SOL     OW 1822   2.937   1.756   1.848  0.0423  0.1117  0.7556
  608SOL    HW1 1823   2.910   1.674   1.905 -1.9033  0.4705 -0.3442
  608SOL    HW2 1824   2.939   1.732   1.745  0.5802  0.1081 -2.4930
  609SOL     OW 1825   2.368   0.428   0.327  0.0281  0.2677 -0.0900
  609SOL    HW1 1826   2.279   0.431   0.275  1.5422 -0.4312 -0.7500
  609SOL    HW2 1827   2.396   0.521   0.365  0.8703 -0.2392  3.4500
  610SOL     OW 1828   0.316   2.783   1.232 -0.6616 -0.2628 -0.1056
  610SOL    HW1 1829   0.320   2.786   1.332  2.9637 -0.9952 -0.3890
  610SOL    HW2 1830   0.218   2.806   1.208 -1.9354  3.0683 -0.4798
  611SOL     OW 1831   1.452   1.991   0.113  0.0470  0.4500  0.0849
  611SOL    HW1 1832   1.554   1.986   0.094 -0.1379 -1.4505  0.7717
  611SOL    HW2 1833   1.416   1.913   0.170  0.4187  1.5967 -2.0682
  612SOL     OW 1834   0.642   0.214   2.049 -0.3337  0.0445  0.0410
  612SOL    HW1 1835   0.707   0.135   2.063 -0.1114 -1.8317  1.8124
  612SOL    HW2 1836   0.687   0.296   2.013  0.8659 -2.5724  1.8217
  613SOL     OW 1837   0.456   2.207   0.913 -0.6048  0.3497  0.8488
  613SOL    HW1 1838   0.419   2.162   0.997  1.0749  0.0217  0.8046
  613SOL    HW2 1839   0.558   2.215   0.912  3.6291 -2.4870 -2.5289
  614SOL     OW 1840   2.043   3.087   1.939  0.3162  0.7981  0.1957
  614SOL    HW1 1841   2.120   3.024   1.946  2.8273 -1.0113  0.3341
  614SOL    HW2 1842   2.033   0.038   1.849 -1.0510  1.3045 -0.7967
  615SOL     OW 1843   1.546   1.388   0.745 -0.1789 -0.1663 -0.2242
  615SOL    HW1 1844   1.589   1.345   0.824 -0.8297  1.0316 -0.7638
  615SOL    HW2 1845   1.470   1.334   0.710  2.2170 -1.2736 -1.6339
  616SOL     OW 1846   1.814   1.502   0.297  0.2011 -0.4593  0.0792
  616SOL    HW1 1847   1.782   1.529   0.388 -1.6932  0.9975 -0.8154
  616SOL    HW2 1848   1.786   1.574   0.233  1.8528 -1.6338  1.2263
  617SOL     OW 1849   1.636   0.830   3.007 -0.5119 -0.4753 -0.1827
  617SOL    HW1 1850   1.682   0.853   0.003  0.6413 -2.6044  3.7052
  617SOL    HW2 1851   1.686   0.862   2.926 -0.0110 -0.9021 -1.1040
  618SOL     OW 1852   0.772   0.711   1.950 -0.0199  0.9532 -0.5344
  618SOL    HW1 1853   0.837   0.693   2.027 -2.1795  0.1996 -2.4724
  618SOL    HW2 1854   0.706   0.636   1.940  4.2261  1.5346 -1.6426
  619SOL     OW 1855   3.046   1.686   1.398 -0.0478 -0.0820 -0.2171
  619SOL    HW1 1856   0.005   1.771   1.413 -0.7174 -0.0647 -0.7767
  619SOL    HW2 1857   3.001   1.672   1.310  1.8950 -2.0462  3.2593
  620SOL     OW 1858   2.649   2.914   2.625  0.2576  0.3123  0.3350
  620SOL    HW1 1859   2.661   2.842   2.555  0.9219 -1.1106  1.1691
  620SOL    HW2 1860   2.557   2.958   2.614  2.7672 -1.4243  1.2244
  621SOL     OW 1861   2.368   1.894   3.031  0.2434  0.2068 -0.3869
  621SOL    HW1 1862   2.347   1.817   3.093 -1.7048  0.9554 -2.3729
  621SOL    HW2 1863   2.396   1.974   3.087 -0.0995 -0.2841 -0.8719
  622SOL     OW 1864   1.347   0.504   2.646  0.1208 -0.3099  0.2789
  622SOL    HW1 1865   1.432   0.469   2.692 -0.1011  0.9160 -0.7642
  622SOL    HW2 1866   1.347   0.607   2.636  2.2424 -0.5085 -0.9052
  623SOL     OW 1867   0.761   1.706   1.535  0.2913  0.2245  0.0082
  623SOL    HW1 1868   0.834   1.650   1.581 -0.6749  1.2023 -2.2542
  623SOL    HW2 1869   0.779   1.808   1.552  0.0180 -1.5542 -1.0177
  624SOL     OW 1870   2.862   0.024   0.269 -0.6030  0.7650  0.0099
  624SOL    HW1 1871   2.878   0.080   0.187  0.9130 -0.6717  1.4241
  624SOL    HW2 1872   2.886   0.075   0.352 -0.8442  0.4333  0.1572
  625SOL     OW 1873   0.660   1.996   0.676 -0.0448 -0.1881 -0.3239
  625SOL    HW1 1874   0.749   1.969   0.638 -0.7327  0.8874  3.5705
  625SOL    HW2 1875   0.582   1.953   0.634 -1.5434 -0.4423  0.7619
  626SOL     OW 1876   2.675   0.908   2.564 -0.6311 -0.0797 -1.0875
  626SOL    HW1 1877   2.742   0.846   2.611 -0.0680  0.2239 -1.2020
  626SOL    HW2 1878   2.633   0.978   2.625 -2.0568 -1.0577 -1.3828
  627SOL     OW 1879   1.134   1.820   2.956  0.0918 -0.3200  0.7979
  627SOL    HW1 1880   1.225   1.858   2.965  0.2328 -1.4064  1.1942
  627SOL    HW2 1881   1.133   1.727   2.917  1.0259  0.7855  2.2191
  628SOL     OW 1882   2.865   2.680   2.705  0.0195  0.0164  0.0168
  628SOL    HW1 1883   2.881   2.664   2.604  0.4044  1.1027 -2.0749
  628SOL    HW2 1884   2.767   2.696   2.723 -0.1465  0.4063 -1.1183
  629SOL     OW 1885   0.764   2.852   2.723 -0.3535 -0.0450 -0.6540
  629SOL    HW1 1886   0.855   2.808   2.729  1.0851  2.2386  1.7676
  629SOL    HW2 1887   0.765   2.932   2.660 -1.1195  1.8763  0.5427
  630SOL     OW 1888   1.106   0.115   2.027 -0.2693  0.3130 -0.0918
  630SOL    HW1 1889   1.117   0.025   1.983 -2.0675 -1.6843  0.9537
  630SOL    HW2 1890   1.073   0.100   2.121  0.0041 -0.8719  2.8529
  631SOL     OW 1891   2.085   1.064   0.304  0.3557 -0.2519 -0.1050
  631SOL    HW1 1892   2.142   0.987   0.275 -1.1603  1.4977  1.6529
  631SOL    HW2 1893   2.146   1.140   0.327 -0.2619 -1.1031 -1.2404
  632SOL     OW 1894   2.665   3.041   1.699 -0.2685  0.0307  0.2483
  632SOL    HW1 1895   2.570   3.082   1.695 -1.7293 -0.9830  0.0075
  632SOL    HW2 1896   2.732   0.018   1.679  0.4055  0.8161  2.2899
  633SOL     OW 1897   1.070   1.275   0.510 -0.6311  0.3494  0.3847
  633SOL    HW1 1898   0.973   1.287   0.538  2.2227 -0.8381 -0.5258
  633SOL    HW2 1899   1.082   1.191   0.452  2.1292 -0.8359 -0.9021
  634SOL     OW 1900   2.674   2.721   2.436  0.3135 -0.0616  0.4391
  634SOL    HW1 1901   2.744   2.650   2.431 -0.4305  2.2709  1.4200
  634SOL    HW2 1902   2.663   2.763   2.346  2.2012  0.8969  2.0876
  635SOL     OW 1903   1.874   0.672   0.541  0.4456  0.1077 -0.7364
  635SOL    HW1 1904   1.858   0.629   0.630  0.4175  2.7197 -1.2154
  635SOL    HW2 1905   1.790   0.654   0.485 -1.2405 -2.8151 -0.8054
  636SOL     OW 1906   0.664   1.055   0.596  0.2461  0.0422 -0.4596
  636SOL    HW1 1907   0.574   1.097   0.598  1.0354  0.8843 -2.0441
  636SOL    HW2 1908   0.673   0.981   0.524  1.3406 -1.0611  2.0340
  637SOL     OW 1909   2.380   2.076   0.167  0.2027 -0.2084  0.3121
  637SOL    HW1 1910   2.445   2.024   0.223  2.6181  3.0485 -0.9073
  637SOL    HW2 1911   2.430   2.161   0.138 -1.8814 -0.0026 -2.3029
  638SOL     OW 1912   1.675   2.350   2.411  0.1544  0.1846 -0.1955
  638SOL    HW1 1913   1.620   2.366   2.329 -0.1439 -2.0911  1.2100
  638SOL    HW2 1914   1.627   2.390   2.489  0.0508 -2.2202  1.0334
  639SOL     OW 1915   1.267   2.030   0.679  0.6594  0.0137  0.1173
  639SOL    HW1 1916   1.251   2.077   0.769  0.1102  1.5392 -2.0400
  639SOL    HW2 1917   1.324   1.943   0.694  2.5365 -0.3125  1.2491
  640SOL     OW 1918   2.073   0.025   0.498  0.2913  0.2917  0.5449
  640SOL    HW1 1919   2.162   0.041   0.439  2.8244  2.9808 -1.5550
  640SOL    HW2 1920   2.017   0.111   0.498 -1.4187  0.7686  0.8828
  641SOL     OW 1921   2.943   0.521   3.055 -0.3937 -0.1029 -0.5708
  641SOL    HW1 1922   2.846   0.551   3.073  1.9662  3.0485 -2.7618
  641SOL    HW2 1923   2.942   0.462   2.968 -0.8748  0.8192 -1.3023
  642SOL     OW 1924   0.556   0.740   1.127 -0.2467 -0.1732  0.1264
  642SOL    HW1 1925   0.456   0.749   1.098  0.5163 -0.5080  0.7498
  642SOL    HW2 1926   0.562   0.652   1.180 -1.1408 -2.6039 -1.6071
  643SOL     OW 1927   0.718   1.139   2.208 -0.2815  0.4680 -0.4788
  643SOL    HW1 1928   0.788   1.117   2.277 -1.5264 -0.2366  1.0208
  643SOL    HW2 1929   0.644   1.072   2.217  0.8804 -0.3817 -0.7696
  644SOL     OW 1930   1.369   2.251   0.516  0.1195  0.4466  0.7498
  644SOL    HW1 1931   1.350   2.232   0.418 -1.8615 -0.6772 -0.2072
  644SOL    HW2 1932   1.340   2.172   0.574 -0.1828 -0.5593  1.1057
  645SOL     OW 1933   1.193   1.996   0.415 -0.0500 -0.0278  0.4584
  645SOL    HW1 1934   1.252   1.914   0.395 -2.3529 -1.2917  1.6331
  645SOL    HW2 1935   1.202   2.019   0.515 -1.7324  0.3571 -2.7447
  646SOL     OW 1936   0.043   1.661   2.683 -0.0097  0.2526 -0.4619
  646SOL    HW1 1937   0.010   1.580   2.634 -1.4490  2.4732  1.4208
  646SOL    HW2 1938   0.030   1.745   2.624  2.3812  1.4060 -3.2837
  647SOL     OW 1939   1.207   0.311   0.984  0.2113  0.5173  0.5003
  647SOL    HW1 1940   1.291   0.256   0.975  2.7493 -1.7194  1.3907
  647SOL    HW2 1941   1.167   0.331   0.889  0.6467 -0.8523 -2.5895
  648SOL     OW 1942   1.614   0.436   0.979 -0.6977  0.4525  0.0894
  648SOL    HW1 1943   1.619   0.462   0.880 -1.5728 -0.2769 -2.6138
  648SOL    HW2 1944   1.709   0.445   1.020  0.0513  0.9283 -1.6268
  649SOL     OW 1945   0.925   1.669   0.497 -0.6413  0.0815 -0.1288
  649SOL    HW1 1946   0.904   1.636   0.403  1.4508 -2.0492  0.6203
  649SOL    HW2 1947   1.005   1.618   0.537 -4.2662 -2.4627  0.5606
  650SOL     OW 1948   2.449   1.668   1.935  0.7342 -0.2669 -0.5884
  650SOL    HW1 1949   2.537   1.715   1.943 -2.0039 -0.5658 -0.3084
  650SOL    HW2 1950   2.375   1.726   1.890  2.7427  1.3690 -0.8607
  651SOL     OW 1951   1.598   2.083   2.788 -0.0810 -0.0572 -0.4470
  651SOL    HW1 1952   1.655   2.167   2.777 -1.6456  1.6856 -0.0638
  651SOL    HW2 1953   1.636   2.011   2.729  4.3470  0.3776  1.8623
  652SOL     OW 1954   2.406   1.678   0.095 -0.4010  0.7883 -0.0796
  652SOL    HW1 1955   2.499   1.644   0.064  2.4524 -2.0960 -2.8165
  652SOL    HW2 1956   2.404   1.688   0.197  0.7022 -2.0733 -1.1073
  653SOL     OW 1957   0.154   0.355   0.768 -0.0664  0.3311  0.0729
  653SOL    HW1 1958   0.255   0.345   0.757 -0.6120  1.7433 -1.3141
  653SOL    HW2 1959   0.112   0.282   0.821 -1.6137 -0.1335  0.8374
  654SOL     OW 1960   2.831   0.067   2.318 -0.6213 -0.0343  0.1309
  654SOL    HW1 1961   2.924   0.052   2.279 -0.4667 -3.2914 -0.9553
  654SOL    HW2 1962   2.759   0.021   2.263  1.0731 -0.9492 -0.1795
  655SOL     OW 1963   0.796   2.673   1.023 -0.1074 -0.1319 -0.8009
  655SOL    HW1 1964   0.710   2.724   1.045  0.0398 -2.7484 -1.0942
  655SOL    HW2 1965   0.820   2.606   1.095 -0.8479  1.1149  1.9749
  656SOL     OW 1966   3.086   0.091   2.873 -0.3326  0.5017 -0.5897
  656SOL    HW1 1967   3.062   0.097   2.773  1.5200  1.9641 -2.0919
  656SOL    HW2 1968   3.094   3.085   2.900  0.3211  0.8577  0.4663
  657SOL     OW 1969   0.115   1.276   3.031  0.0997 -0.0393 -0.2585
  657SOL    HW1 1970   0.149   1.370   3.042 -0.3463 -0.6576  0.4787
  657SOL    HW2 1971   0.189   1.204   3.022  0.6389 -0.1260 -0.5025
  658SOL     OW 1972   2.417   1.913   1.326  0.2198 -0.1874  0.1082
  658SOL    HW1 1973   2.323   1.959   1.327 -3.4231 -1.2103 -1.9395
  658SOL    HW2 1974   2.411   1.817   1.366 -1.1838  0.4031  2.4634
  659SOL     OW 1975   1.742   2.707   0.216  0.4338  0.5663 -0.4929
  659SOL    HW1 1976   1.697   2.620   0.240  1.4208  1.2348  1.2500
  659SOL    HW2 1977   1.768   2.701   0.118  0.5149  1.6522  2.6328
  660SOL     OW 1978   1.530   1.042   2.721  0.1842  0.3370  0.0877
  660SOL    HW1 1979   1.607   1.092   2.766  0.4857  0.4822 -0.7590
  660SOL    HW2 1980   1.505   1.086   2.635 -0.0575  0.0836 -1.7354
  661SOL     OW 1981   0.149   2.194   1.238  1.1760  0.1858 -0.0250
  661SOL    HW1 1982   0.138   2.270   1.173 -0.8632 -0.2198  0.1326
  661SOL    HW2 1983   0.079   2.122   1.217 -1.8586  2.0085  0.5167
  662SOL     OW 1984   0.365   0.655   0.059  0.5407  0.2073  0.2586
  662SOL    HW1 1985   0.296   0.724   0.081  2.2510  1.5189  3.4585
  662SOL    HW2 1986   0.325   0.561   0.047  1.1662  2.1519 -1.5782
  663SOL     OW 1987   2.179   2.028   1.351  0.6781  0.0555 -0.7224
  663SOL    HW1 1988   2.131   2.116   1.332  2.0750  4.1155 -0.5258
  663SOL    HW2 1989   2.113   1.957   1.381  3.5503  0.9273  0.1372
  664SOL     OW 1990   0.807   1.426   1.118 -0.3429  0.3088 -0.1223
  664SOL    HW1 1991   0.755   1.494   1.168  0.5026  1.2596 -0.0782
  664SOL    HW2 1992   0.906   1.436   1.129  1.7136 -1.9040  2.5512
  665SOL     OW 1993   1.777   2.697   2.075 -0.0762  0.4613 -0.3243
  665SOL    HW1 1994   1.768   2.790   2.119 -3.5341  1.5959  0.5582
  665SOL    HW2 1995   1.683   2.662   2.072 -1.0904  2.3406  1.0053
  666SOL     OW 1996   2.986   2.687   0.143 -0.2600  0.1153 -0.0546
  666SOL    HW1 1997   3.005   2.599   0.199  1.3062  1.0321  2.1373
  666SOL    HW2 1998   2.948   2.759   0.202  2.2391  0.2269 -0.9023
  667SOL     OW 1999   2.765   1.402   1.540  0.0047  0.1143  0.7061
  667SOL    HW1 2000   2.727   1.422   1.446  0.4524  2.4668 -0.7616
  667SOL    HW2 2001   2.749   1.301   1.563  0.3211 -0.2375 -0.1164
  668SOL     OW 2002   0.206   0.621   2.431 -0.0069  0.5324  0.0315
  668SOL    HW1 2003   0.191   0.720   2.470  0.2841 -0.3412  0.3815
  668SOL    HW2 2004   0.115   0.601   2.383 -2.6762  1.1877 -1.5258
  669SOL     OW 2005   2.267   1.988   2.565  0.1694 -0.3100 -0.6623
  669SOL    HW1 2006   2.347   2.039   2.603  0.5595  2.6699  0.7432
  669SOL    HW2 2007   2.276   1.950   2.471 -1.0236  1.5756 -2.1531
  670SOL     OW 2008   2.703   1.451   1.915  0.2014  0.3541 -0.0882
  670SOL    HW1 2009   2.651   1.473   1.826 -0.3953 -0.0659 -1.6615
  670SOL    HW2 2010   2.716   1.351   1.925 -1.5470  1.1327  1.0254
  671SOL     OW 2011   2.988   1.672   0.799 -0.2882 -0.6616  0.1526
  671SOL    HW1 2012   3.060   1.669   0.729  0.4331 -2.3788 -0.2372
  671SOL    HW2 2013   2.903   1.641   0.759  0.3731  0.4354 -0.3857
  672SOL     OW 2014   2.329   0.682   2.026 -0.1705 -0.5641 -0.1873
  672SOL    HW1 2015   2.294   0.754   1.969  3.9166 -1.4164  2.1093
  672SOL    HW2 2016   2.430   0.680   2.028 -0.7421 -0.8168  2.0338
  673SOL     OW 2017   2.446   2.771   1.813  0.3323 -0.3018  0.3098
  673SOL    HW1 2018   2.511   2.831   1.863  1.4250 -3.7105 -1.2897
  673SOL    HW2 2019   2.383   2.729   1.883 -2.4943  0.6275  0.6426
  674SOL     OW 2020   1.813   2.620   1.578  0.0506  0.4122 -0.1712
  674SOL    HW1 2021   1.797   2.682   1.659  0.6703 -0.5521  1.0201
  674SOL    HW2 2022   1.835   2.527   1.610 -0.1524  0.1984 -0.6287
  675SOL     OW 2023   0.838   0.911   0.753 -0.0362 -0.0340  0.8452
  675SOL    HW1 2024   0.826   0.904   0.856  1.1679 -0.8456 -1.8594
  675SOL    HW2 2025   0.768   0.970   0.713  0.4344 -3.2810 -0.5548
  676SOL     OW 2026   1.607   1.065   0.698 -0.1980  0.1318  0.2985
  676SOL    HW1 2027   1.509   1.088   0.691 -2.2880  1.9277 -3.8937
  676SOL    HW2 2028   1.663   1.134   0.649 -1.5014  0.5029 -0.7070
  677SOL     OW 2029   2.762   1.384   2.358 -0.1765  0.5330  0.2160
  677SOL    HW1 2030   2.692   1.366   2.285 -3.0340 -3.5570 -1.7001
  677SOL    HW2 2031   2.821   1.301   2.363 -2.5997  0.2874  0.7087
  678SOL     OW 2032   2.588   1.893   1.116  0.6638  0.4091 -0.0782
  678SOL    HW1 2033   2.673   1.925   1.160 -0.3961  0.1902  0.2419
  678SOL    HW2 2034   2.524   1.890   1.195  1.2635 -0.0655 -0.8855
  679SOL     OW 2035   2.089   2.523   0.432  0.7121 -1.1548 -0.2348
  679SOL    HW1 2036   2.129   2.527   0.340  0.0880 -1.8846  0.7598
  679SOL    HW2 2037   2.153   2.571   0.491 -0.2820  0.3306  0.9588
  680SOL     OW 2038   2.673   2.357   2.032 -0.4141 -0.5476 -0.1029
  680SOL    HW1 2039   2.776   2.368   2.019  1.7695  0.9835 -0.9655
  680SOL    HW2 2040   2.633   2.404   1.955  0.9189  0.8627  0.6993
  681SOL     OW 2041   0.478   1.359   1.600 -0.2290  0.2481  0.1356
  681SOL    HW1 2042   0.563   1.297   1.610  1.0521  1.5763  1.0775
  681SOL    HW2 2043   0.467   1.436   1.664  1.4616 -0.4472 -2.3575
  682SOL     OW 2044   1.341   2.787   0.681 -0.1997  0.2348  0.0736
  682SOL    HW1 2045   1.253   2.831   0.648 -1.0409  1.8142 -2.6400
  682SOL    HW2 2046   1.329   2.685   0.665 -1.1683  0.2465 -1.8375
  683SOL     OW 2047   2.262   1.382   0.865 -0.1937  0.0201 -0.0633
  683SOL    HW1 2048   2.295   1.405   0.959 -0.6090 -5.0047  3.2317
  683SOL    HW2 2049   2.232   1.291   0.856  1.5731  0.1429 -2.3475
  684SOL     OW 2050   0.446   2.050   2.129  0.2511 -0.5375  0.2811
  684SOL    HW1 2051   0.391   2.078   2.210  0.8375 -2.4637 -2.5403
  684SOL    HW2 2052   0.400   2.096   2.049  0.9438  0.9330 -0.0084
  685SOL     OW 2053   1.589   1.585   0.077 -0.1381  0.2512 -0.1891
  685SOL    HW1 2054   1.671   1.641   0.109  1.2232 -2.0950  0.6657
  685SOL    HW2 2055   1.617   1.494   0.052 -1.6359 -0.6946  4.9290
  686SOL     OW 2056   2.939   0.629   1.344 -0.5793 -0.1964 -0.6813
  686SOL    HW1 2057   2.905   0.592   1.430 -2.7459  1.1747 -1.6413
  686SOL    HW2 2058   2.986   0.717   1.352  0.0204 -0.7980  0.3083
  687SOL     OW 2059   0.919   2.234   2.890 -0.5702 -0.1183  0.1824
  687SOL    HW1 2060   0.818   2.243   2.914  0.4892  1.2212 -7.0009
  687SOL    HW2 2061   0.938   2.132   2.871  1.2693 -3.1657  1.6374
  688SOL     OW 2062   0.049   2.087   1.936 -0.3965  0.1404  0.0913
  688SOL    HW1 2063   0.035   2.147   1.851  2.3996  2.3650 -1.7068
  688SOL    HW2 2064   3.052   2.061   1.976 -2.2846  0.4950  0.3673
  689SOL     OW 2065   1.959   0.865   1.887  0.5839  0.0473 -0.1211
  689SOL    HW1 2066   1.886   0.818   1.837 -0.7891  1.2380 -0.2176
  689SOL    HW2 2067   1.931   0.960   1.911  1.6239 -0.9309 -1.5326
  690SOL     OW 2068   2.362   0.711   0.976  0.6655  0.0198 -0.0580
  690SOL    HW1 2069   2.411   0.678   1.060 -0.5577  0.8910  2.9054
  690SOL    HW2 2070   2.396   0.805   0.948 -1.2481  1.2235 -1.4180
  691SOL     OW 2071   0.893   1.783   1.862 -0.1520  0.1137 -0.0590
  691SOL    HW1 2072   0.918   1.854   1.929 -0.5768  1.0653 -1.6832
  691SOL    HW2 2073   0.970   1.753   1.798  3.8518 -2.3272 -0.2494
  692SOL     OW 2074   2.256   0.337   1.466  0.1124  0.3245  0.2228
  692SOL    HW1 2075   2.163   0.305   1.496 -0.6256 -3.5531 -0.4349
  692SOL    HW2 2076   2.277   0.314   1.363 -2.3536 -0.9036 -3.8366
  693SOL     OW 2077   0.395   1.201   2.195 -0.0850  0.1398  0.1677
  693SOL    HW1 2078   0.398   1.103   2.173 -1.4307 -0.2332  3.3851
  693SOL    HW2 2079   0.428   1.251   2.111  0.6433  0.6831  2.0929
  694SOL     OW 2080   1.725   3.010   1.165 -0.8228  0.5500 -0.0478
  694SOL    HW1 2081   1.653   3.055   1.109 -1.8245 -1.6360  3.4090
  694SOL    HW2 2082   1.750   2.918   1.129 -0.0107  0.6336  1.5079
  695SOL     OW 2083   1.259   1.085   1.985 -0.9233  0.7074 -0.4163
  695SOL    HW1 2084   1.262   1.041   1.894  0.9663 -1.4184  1.4997
  695SOL    HW2 2085   1.316   1.038   2.055  3.2582  1.7875 -0.6762
  696SOL     OW 2086   1.404   3.034   0.597 -0.1650 -0.2415 -0.3681
  696SOL    HW1 2087   1.374   3.095   0.678 -0.9640  1.6683  1.2599
  696SOL    HW2 2088   1.405   2.937   0.631  0.6601  1.0905  2.4857
  697SOL     OW 2089   1.064   0.437   0.793 -0.5053 -0.0724  0.2141
  697SOL    HW1 2090   1.000   0.516   0.792 -1.1361 -0.5012  1.3651
  697SOL    HW2 2091   1.098   0.408   0.699 -1.5745 -0.3170  0.0309
  698SOL     OW 2092   1.150   1.177   2.588  0.2603 -0.4941 -0.1120
  698SOL    HW1 2093   1.073   1.226   2.639 -3.2500  1.6184 -0.5420
  698SOL    HW2 2094   1.219   1.129   2.648  2.1108  0.6374  0.3162
  699SOL     OW 2095   1.692   1.388   1.156 -0.1131 -0.1459 -0.5318
  699SOL    HW1 2096   1.687   1.479   1.202  2.3916  2.8894  0.2389
  699SOL    HW2 2097   1.608   1.359   1.113  2.6259  1.9046 -3.0285
  700SOL     OW 2098   1.495   0.173   0.444  0.3796  0.5956  0.3141
  700SOL    HW1 2099   1.489   0.096   0.510  0.2108  0.6619  0.1659
  700SOL    HW2 2100   1.588   0.180   0.410 -3.7856 -0.1547 -1.7856
  701SOL     OW 2101   3.069   0.019   2.160 -1.4720  0.1011  0.0568
  701SOL    HW1 2102   0.018   0.080   2.090 -0.5948  0.1770  0.9355
  701SOL    HW2 2103   0.005   3.017   2.149  0.0339  0.2530 -1.9266
  702SOL     OW 2104   1.152   0.051   0.202  0.0112 -0.5229 -0.0610
  702SOL    HW1 2105   1.252   0.068   0.183 -1.7467  0.7671 -2.7689
  702SOL    HW2 2106   1.147   3.055   0.245  0.1522 -0.0600 -0.4314
  703SOL     OW 2107   2.473   2.588   2.576  0.1482  1.2947  0.0403
  703SOL    HW1 2108   2.516   2.586   2.668 -2.1846  0.3708 -0.8152
  703SOL    HW2 2109   2.534   2.622   2.500  0.4804  0.9659 -1.3819
  704SOL     OW 2110   0.650   2.316   1.163  0.0514  0.2153 -0.4223
  704SOL    HW1 2111   0.676   2.224   1.134 -0.8039 -1.9077 -1.2845
  704SOL    HW2 2112   0.566   2.311   1.221  2.1333  2.7211  2.6233
  705SOL     OW 2113   2.882   0.216   1.924  0.4556  0.5213 -0.3784
  705SOL    HW1 2114   2.976   0.230   1.967  1.3673 -0.9797 -0.0061
  705SOL    HW2 2115   2.817   0.279   1.972 -0.8151 -0.7394 -1.5203
  706SOL     OW 2116   1.739   0.215   0.360 -0.5645 -0.1463  0.0298
  706SOL    HW1 2117   1.778   0.128   0.322  0.9187  1.5115 -0.3046
  706SOL    HW2 2118   1.815   0.283   0.374 -1.8587  0.6764  1.8953
  707SOL     OW 2119   1.311   1.974   2.139  0.4735  0.5773 -0.0865
  707SOL    HW1 2120   1.313   1.872   2.147 -1.7580 -0.9685 -0.3545
  707SOL    HW2 2121   1.386   2.023   2.190 -0.0596 -1.2505  1.9140
  708SOL     OW 2122   0.004   2.282   1.758  0.6291 -0.3754  0.1098
  708SOL    HW1 2123   3.049   2.289   1.671  1.3372  2.3123  1.5248
  708SOL    HW2 2124   0.072   2.360   1.761 -1.1527 -0.9445  2.6819
  709SOL     OW 2125   2.025   0.454   1.783 -0.3756 -0.5484  0.1595
  709SOL    HW1 2126   2.084   0.521   1.731  0.8406 -0.4489  1.7940
  709SOL    HW2 2127   2.064   0.424   1.867 -1.3079 -0.9027 -1.4402
  710SOL     OW 2128   2.463   0.480   1.549  0.3051  0.0985 -0.2278
  710SOL    HW1 2129   2.371   0.449   1.522  1.1902  1.0408 -0.4139
  710SOL    HW2 2130   2.533   0.408   1.546  2.0700  1.1876  2.2136
  711SOL     OW 2131   0.345   2.130   0.643  0.0162 -0.2568 -0.2799
  711SOL    HW1 2132   0.369   2.170   0.731 -0.0820 -1.7590  0.9841
  711SOL    HW2 2133   0.367   2.026   0.635 -0.1110 -0.7432 -2.9426
  712SOL     OW 2134   0.608   2.521   2.354 -0.6958  0.2117  0.4711
  712SOL    HW1 2135   0.578   2.484   2.264  0.1644 -0.6028  1.2880
  712SOL    HW2 2136   0.669   2.607   2.351  1.1756 -0.5358 -2.6234
  713SOL     OW 2137   1.912   0.948   3.063 -0.6645  0.0678 -0.2727
  713SOL    HW1 2138   1.846   0.941   0.047 -3.5605 -0.3958  0.6685
  713SOL    HW2 2139   1.985   0.879   3.068 -0.1436  2.8916  0.1398
  714SOL     OW 2140   0.697   1.634   0.931  0.0252 -0.1814  0.9590
  714SOL    HW1 2141   0.760   1.712   0.950 -0.8167 -0.2012 -0.6083
  714SOL    HW2 2142   0.633   1.614   1.005  0.9304  3.3698 -1.5462
  715SOL     OW 2143   2.111   2.999   2.917  0.2760  0.0202  0.1974
  715SOL    HW1 2144   2.141   2.910   2.956 -0.0085  0.8409 -1.6534
  715SOL    HW2 2145   2.028   2.984   2.857  0.4741 -0.4547 -2.7513
  716SOL     OW 2146   0.192   0.260   1.748 -0.0241 -0.0368 -0.0698
  716SOL    HW1 2147   0.107   0.273   1.687  2.4204  0.6693 -2.0013
  716SOL    HW2 2148   0.210   0.162   1.764 -0.0212  3.4748  0.2070
  717SOL     OW 2149   0.102   0.663   0.165  0.4932  0.0082  0.3555
  717SOL    HW1 2150   0.137   0.595   0.101 -1.5242  1.6233  4.1294
  717SOL    HW2 2151   0.145   0.647   0.252 -0.8361  0.3224 -2.0648
  718SOL     OW 2152   1.274   0.934   2.725 -0.1080  0.3727  0.2613
  718SOL    HW1 2153   1.253   0.865   2.655  3.8415 -2.3505 -0.7833
  718SOL    HW2 2154   1.372   0.950   2.723 -2.4342 -0.4286  0.1055
  719SOL     OW 2155   2.818   1.714   3.075 -0.0576  0.1203  0.0594
  719SOL    HW1 2156   2.763   1.639   0.023 -0.2740  1.1914  0.1336
  719SOL    HW2 2157   2.883   1.680   3.005 -1.0213  1.5521  0.8095
  720SOL     OW 2158   1.476   0.785   0.957  0.5191  0.0464  0.3218
  720SOL    HW1 2159   1.576   0.797   0.930  0.4938 -1.4576  2.3315
  720SOL    HW2 2160   1.430   0.704   0.912 -0.0507 -0.0151 -1.3865
  721SOL     OW 2161   3.001   0.824   0.226  0.4525 -0.5206 -0.0011
  721SOL    HW1 2162   3.070   0.763   0.181  1.6541  0.1441 -2.1948
  721SOL    HW2 2163   3.038   0.854   0.321 -2.6520 -0.0342 -1.2347
  722SOL     OW 2164   0.940   1.089   3.014 -0.3117  0.0839 -0.2520
  722SOL    HW1 2165   0.946   1.081   0.024 -1.5901  1.1412  1.4409
  722SOL    HW2 2166   0.871   1.026   2.984  1.5456 -2.6323  0.2590
  723SOL     OW 2167   0.245   0.982   0.559 -0.1006 -0.3942  0.3452
  723SOL    HW1 2168   0.287   1.070   0.567  0.7490 -0.6526  0.6410
  723SOL    HW2 2169   0.307   0.906   0.518 -0.6190 -0.4919 -0.6305
  724SOL     OW 2170   1.064   2.272   1.893 -0.2905 -0.1798  0.0351
  724SOL    HW1 2171   1.040   2.294   1.987  1.2112 -0.2571 -0.4622
  724SOL    HW2 2172   0.979   2.305   1.839 -2.5030  0.2947  1.2174
  725SOL     OW 2173   2.614   0.858   1.449 -0.3637 -0.0312 -0.6404
  725SOL    HW1 2174   2.523   0.898   1.421  1.9996  2.1699 -2.1329
  725SOL    HW2 2175   2.612   0.798   1.534  3.7034 -1.7556  0.9471
  726SOL     OW 2176   1.741   2.798   0.610  0.1021 -0.2238 -0.7476
  726SOL    HW1 2177   1.717   2.698   0.610  0.6502 -0.4308 -2.0897
  726SOL    HW2 2178   1.708   2.839   0.524  1.3004 -2.5457  0.4872
  727SOL     OW 2179   1.232   0.868   2.346 -0.1498 -0.4529 -0.1145
  727SOL    HW1 2180   1.178   0.954   2.336  0.7788 -0.2660  1.0571
  727SOL    HW2 2181   1.287   0.845   2.261  1.0177 -2.2977 -4.9450
  728SOL     OW 2182   1.403   2.686   1.207  0.0439  0.4151 -0.3074
  728SOL    HW1 2183   1.470   2.696   1.284  1.6740 -1.7276  1.8356
  728SOL    HW2 2184   1.360   2.780   1.186 -1.9617 -1.8773  1.5605
  729SOL     OW 2185   1.890   0.922   1.225 -0.2469 -0.3029 -0.0246
  729SOL    HW1 2186   1.794   0.946   1.207  2.0895 -0.2069  0.5831
  729SOL    HW2 2187   1.914   0.829   1.187  2.7981  0.4448 -0.2755
  730SOL     OW 2188   0.698   2.009   2.248  0.2199  0.2363  0.3318
  730SOL    HW1 2189   0.779   2.069   2.214 -0.4128  3.3436 -2.4333
  730SOL    HW2 2190   0.613   2.025   2.191 -0.0117  0.6717 -0.2256
  731SOL     OW 2191   0.633   0.244   0.606  0.0977 -0.3573  0.5052
  731SOL    HW1 2192   0.617   0.225   0.510 -0.4893 -1.4334  0.1739
  731SOL    HW2 2193   0.643   0.343   0.618  0.2395  3.0627 -0.7994
  732SOL     OW 2194   0.616   0.762   0.024  0.5256  0.4178 -0.3266
  732SOL    HW1 2195   0.521   0.727   0.007  1.2064  1.4288 -0.5543
  732SOL    HW2 2196   0.602   0.843   0.082  0.1475  0.3711 -2.7450
  733SOL     OW 2197   0.910   2.394   1.068 -0.2479  0.4927  0.4449
  733SOL    HW1 2198   0.919   2.396   0.966 -1.1373 -0.3503 -2.6843
  733SOL    HW2 2199   0.813   2.355   1.083 -1.8057 -0.4098 -0.6309
  734SOL     OW 2200   0.031   1.932   2.606 -0.3217  0.1427  0.1229
  734SOL    HW1 2201   0.001   2.020   2.556  0.4005  2.5417  0.9572
  734SOL    HW2 2202   0.043   1.954   2.705 -0.1464  0.1286  1.3634
  735SOL     OW 2203   1.094   3.006   0.968  0.5272  0.4971  0.0894
  735SOL    HW1 2204   1.016   3.054   1.013  1.1403 -0.5352  0.8268
  735SOL    HW2 2205   1.139   3.057   0.890  0.6224  2.7370 -2.5868
  736SOL     OW 2206   1.790   0.232   0.009  0.3724 -1.0647 -0.4168
  736SOL    HW1 2207   1.813   0.141   0.038 -2.0184  1.4634  0.7179
  736SOL    HW2 2208   1.696   0.228   3.072 -0.0755  1.5911 -0.4834
  737SOL     OW 2209   2.980   0.163   0.483 -0.7110 -0.2045 -0.0143
  737SOL    HW1 2210   3.080   0.191   0.471 -0.1266  4.0786  0.5466
  737SOL    HW2 2211   2.930   0.251   0.486  0.4460 -5.7828  2.0659
  738SOL     OW 2212   2.722   2.821   1.016  0.2475  0.4914 -0.1963
  738SOL    HW1 2213   2.653   2.889   1.005 -1.3844 -0.2371  0.4366
  738SOL    HW2 2214   2.752   2.790   0.923 -1.5431  0.7327  3.8955
  739SOL     OW 2215   1.499   2.265   0.232 -0.2907  0.7734 -0.1987
  739SOL    HW1 2216   1.499   2.164   0.204 -0.3619 -2.2939 -3.0754
  739SOL    HW2 2217   1.532   2.320   0.152  1.3578  0.5347  2.2179
  740SOL     OW 2218   1.609   3.090   0.939  0.3534  0.2618 -0.2937
  740SOL    HW1 2219   1.552   3.007   0.927 -2.0012  1.1890  2.1353
  740SOL    HW2 2220   1.612   0.053   0.853  0.4035  1.5379 -1.4635
  741SOL     OW 2221   2.144   0.770   0.586  0.2005 -0.1061  0.0409
  741SOL    HW1 2222   2.171   0.774   0.487 -0.0814  1.2307  3.9292
  741SOL    HW2 2223   2.042   0.764   0.593  1.1295 -0.5713 -0.9820
  742SOL     OW 2224   1.234   2.061   2.447  0.8881 -0.0944 -0.3468
  742SOL    HW1 2225   1.259   2.099   2.536  0.1861 -1.9063  0.5146
  742SOL    HW2 2226   1.308   2.078   2.377 -0.4002  2.2014  1.8092
  743SOL     OW 2227   2.215   0.627   1.710 -0.1021  0.1040  0.1393
  743SOL    HW1 2228   2.197   0.706   1.767  0.4461  0.1335 -0.3617
  743SOL    HW2 2229   2.312   0.592   1.712  1.7069 -2.1138 -0.1932
  744SOL     OW 2230   2.406   0.234   0.988 -0.2282  0.2431 -0.0336
  744SOL    HW1 2231   2.415   0.226   0.890 -1.2421 -2.2755  0.7059
  744SOL    HW2 2232   2.439   0.147   1.038  0.4307 -3.8176  2.5194
  745SOL     OW 2233   1.846   1.283   1.574  0.0504  0.1712 -0.3706
  745SOL    HW1 2234   1.848   1.341   1.657  0.1464 -2.0747 -1.7163
  745SOL    HW2 2235   1.754   1.261   1.536 -0.2743  0.5609 -1.6891
  746SOL     OW 2236   1.409   1.307   1.125 -0.1069 -0.2959 -0.4261
  746SOL    HW1 2237   1.340   1.378   1.083  1.3390 -0.0529  1.7735
  746SOL    HW2 2238   1.454   1.246   1.058  0.4972  2.8364  0.3171
  747SOL     OW 2239   2.115   1.102   1.133  0.1115 -0.1716 -0.3717
  747SOL    HW1 2240   2.113   1.143   1.227 -2.6465  0.3036 -1.9615
  747SOL    HW2 2241   2.048   1.028   1.131  2.4217  0.5568 -1.5098
  748SOL     OW 2242   0.367   2.593   0.760  0.0115  0.3204 -0.2320
  748SOL    HW1 2243   0.380   2.602   0.861 -2.5826 -1.4170 -2.7516
  748SOL    HW2 2244   0.339   2.499   0.730  1.6142 -0.0163 -1.2501
  749SOL     OW 2245   3.002   0.118   2.629 -0.0358 -0.4062 -0.3566
  749SOL    HW1 2246   3.029   0.137   2.532  0.0333  1.9246 -2.3020
  749SOL    HW2 2247   2.969   0.018   2.644  0.4802  0.7237  0.5912
  750SOL     OW 2248   2.603   0.469   0.931 -0.0514 -0.2063  0.8573
  750SOL    HW1 2249   2.662   0.525   0.996 -3.8302 -0.3136  2.8950
  750SOL    HW2 2250   2.563   0.392   0.981  0.9481  0.5257  0.6048
  751SOL     OW 2251   2.862   0.423   0.477 -0.1675 -0.3203 -0.1870
  751SOL    HW1 2252   2.898   0.517   0.452 -2.1808 -1.2450  1.9152
  751SOL    HW2 2253   2.811   0.428   0.565 -1.6624 -0.3816 -1.2078
  752SOL     OW 2254   0.246   2.857   0.865 -0.0591  0.1831  0.2278
  752SOL    HW1 2255   0.147   2.864   0.874  0.5641 -2.6522  0.5238
  752SOL    HW2 2256   0.271   2.770   0.816  0.5647 -1.3244 -5.5769
  753SOL     OW 2257   1.255   0.344   1.986  0.0956 -0.3371 -0.3514
  753SOL    HW1 2258   1.192   0.266   2.005  0.4988  0.3558  2.6599
  753SOL    HW2 2259   1.319   0.316   1.913  1.0014  1.3273 -0.6931
  754SOL     OW 2260   1.655   2.306   2.078 -0.3473 -0.1158  0.5090
  754SOL    HW1 2261   1.677   2.406   2.062  3.0891  3.2302 -4.1038
  754SOL    HW2 2262   1.566   2.282   2.026 -0.7677  1.8999 -2.4352
  755SOL     OW 2263   2.941   1.118   0.579 -0.3324  0.1529 -0.4938
  755SOL    HW1 2264   2.954   1.208   0.630  1.5231  0.2563 -0.0331
  755SOL    HW2 2265   2.915   1.133   0.482 -1.1555  0.0857  0.3356
  756SOL     OW 2266   1.525   1.504   2.681 -0.5902  0.1686  0.0054
  756SOL    HW1 2267   1.520   1.543   2.775  0.3913 -2.8976 -2.3637
  756SOL    HW2 2268   1.440   1.513   2.624  0.4527 -0.2423 -0.0126
  757SOL     OW 2269   1.666   2.914   0.369  0.0212  0.4350  0.0602
  757SOL    HW1 2270   1.570   2.937   0.357  1.4173 -3.3449  1.8193
  757SOL    HW2 2271   1.685   2.836   0.303 -1.0168 -0.2956 -1.0079
  758SOL     OW 2272   0.394   0.097   1.252  0.0886 -0.2485 -0.4317
  758SOL    HW1 2273   0.302   0.069   1.223  0.3657 -2.1311  0.8702
  758SOL    HW2 2274   0.452   0.112   1.169  2.7032 -1.7488 -1.3314
  759SOL     OW 2275   0.149   0.952   1.196 -0.3282  0.4122 -0.8458
  759SOL    HW1 2276   0.199   0.929   1.279  1.7534 -0.4229 -4.0459
  759SOL    HW2 2277   0.045   0.958   1.210  1.8128  1.1209 -0.3925
  760SOL     OW 2278   2.387   1.071   1.119  0.8162 -0.1413  0.3573
  760SOL    HW1 2279   2.289   1.088   1.097  1.2738  2.3641  0.5821
  760SOL    HW2 2280   2.434   1.012   1.047 -0.2512 -0.0601  1.3717
  761SOL     OW 2281   1.323   1.041   0.841 -0.1509  0.1225 -0.1285
  761SOL    HW1 2282   1.360   0.956   0.804 -0.4900  1.6250  1.1537
  761SOL    HW2 2283   1.259   1.011   0.917  1.0873 -2.5973  0.7777
  762SOL     OW 2284   2.195   2.374   1.469  0.0014 -0.6998  0.1009
  762SOL    HW1 2285   2.122   2.307   1.456  1.3000  3.8509  0.0451
  762SOL    HW2 2286   2.224   2.419   1.380 -0.1297  0.6521 -0.4174
  763SOL     OW 2287   1.548   1.299   2.052 -0.3737 -0.9155 -0.0972
  763SOL    HW1 2288   1.548   1.233   2.131  1.0464  3.0101  1.1073
  763SOL    HW2 2289   1.547   1.251   1.959  0.3292  0.7061  1.3235
  764SOL     OW 2290   0.189   1.898   2.391 -0.1346  0.2250  0.6525
  764SOL    HW1 2291   0.118   1.872   2.317  1.8023 -0.9787 -2.2248
  764SOL    HW2 2292   0.140   1.901   2.481 -1.1084 -0.4810  2.2477
  765SOL     OW 2293   0.907   2.739   1.301 -0.2294  0.1834 -0.2276
  765SOL    HW1 2294   1.003   2.718   1.338 -1.0701 -0.6558 -0.5252
  765SOL    HW2 2295   0.849   2.652   1.307  2.0723 -0.2215  1.0973
  766SOL     OW 2296   0.726   2.174   2.571  0.3054 -0.4934 -0.0142
  766SOL    HW1 2297   0.822   2.212   2.556  2.1236 -0.2426  0.4962
  766SOL    HW2 2298   0.723   2.077   2.534  0.3088  0.8052 -1.2498
  767SOL     OW 2299   1.751   0.322   2.563  0.4222  0.0738 -0.4149
  767SOL    HW1 2300   1.672   0.266   2.535 -2.8266 -2.5657 -1.8020
  767SOL    HW2 2301   1.793   0.304   2.654 -0.6947  1.2366 -2.0614
  768SOL     OW 2302   1.288   2.215   0.020 -0.3318 -0.2737  0.3247
  768SOL    HW1 2303   1.204   2.171   0.053 -0.4637  1.8116  0.7658
  768SOL    HW2 2304   1.372   2.167   0.044 -1.9190 -0.0323  0.7333
  769SOL     OW 2305   0.061   2.800   1.179 -0.1520 -0.3046 -0.3300
  769SOL    HW1 2306   3.072   2.832   1.225  0.9104  0.9579 -1.6152
  769SOL    HW2 2307   0.052   2.807   1.080  2.3788 -1.0014  2.8616
  770SOL     OW 2308   0.520   2.737   2.650 -0.7747 -0.1774 -0.7734
  770SOL    HW1 2309   0.460   2.821   2.635 -1.9421  0.0424  0.4265
  770SOL    HW2 2310   0.613   2.774   2.674  0.6488  2.7766 -1.3913
  771SOL     OW 2311   0.928   2.462   2.746  0.4779 -0.2361  0.3291
  771SOL    HW1 2312   0.931   2.372   2.798  1.0974 -1.4845 -1.1525
  771SOL    HW2 2313   0.840   2.459   2.686 -1.7620 -1.6997 -2.0452
  772SOL     OW 2314   2.606   2.928   1.953  0.0380  0.0392  0.0040
  772SOL    HW1 2315   2.606   2.989   2.035  0.8081 -1.7265 -0.0909
  772SOL    HW2 2316   2.656   2.974   1.875  0.1437  1.4689 -0.7224
  773SOL     OW 2317   1.113   2.712   2.074  0.1147 -0.0909 -0.9173
  773SOL    HW1 2318   1.180   2.642   2.043 -1.8460  1.8884  0.9061
  773SOL    HW2 2319   1.061   2.673   2.155  0.7516  1.5704  2.3167
  774SOL     OW 2320   1.530   0.369   2.123 -0.3866 -0.5372  0.1125
  774SOL    HW1 2321   1.555   0.279   2.168  0.4964 -2.7451  0.2055
  774SOL    HW2 2322   1.429   0.368   2.098  0.3065  1.7578 -0.1481
  775SOL     OW 2323   2.176   2.771   3.054  0.7110 -0.0537  0.0682
  775SOL    HW1 2324   2.176   2.733   0.054  1.5129  2.7915  1.2170
  775SOL    HW2 2325   2.226   2.712   2.991  0.9739  1.5963 -1.4507
  776SOL     OW 2326   2.235   0.886   1.787  0.1682 -0.3893 -0.4598
  776SOL    HW1 2327   2.142   0.896   1.828 -0.7742  1.0428 -0.4112
  776SOL    HW2 2328   2.269   0.969   1.747  0.1780 -0.5215 -0.3201
  777SOL     OW 2329   2.740   0.959   2.306  0.2259 -0.6886 -0.1480
  777SOL    HW1 2330   2.732   0.938   2.410  2.1682  1.3088  2.7422
  777SOL    HW2 2331   2.644   0.961   2.268 -1.1295 -0.4034 -2.5693
  778SOL     OW 2332   2.225   0.431   2.006 -0.0091 -0.8485 -0.0171
  778SOL    HW1 2333   2.260   0.529   2.012 -1.9066 -0.4610 -3.0190
  778SOL    HW2 2334   2.270   0.376   1.930 -1.0256  0.5748  1.0420
  779SOL     OW 2335   3.029   0.098   0.056  0.1723 -0.0936  0.6161
  779SOL    HW1 2336   3.053   0.113   3.056  2.1356 -0.8603  2.8913
  779SOL    HW2 2337   0.006   0.040   0.101 -1.9347  0.0343 -0.8494
  780SOL     OW 2338   2.096   0.092   2.313 -0.3966 -0.8326  0.0794
  780SOL    HW1 2339   2.016   0.156   2.301  0.1161  0.4298  0.1085
  780SOL    HW2 2340   2.074   0.001   2.284 -0.8463  1.9333 -0.1443
  781SOL     OW 2341   0.443   0.364   1.837  0.1114 -0.2373  0.1174
  781SOL    HW1 2342   0.489   0.338   1.749  1.0113 -3.8987 -1.6838
  781SOL    HW2 2343   0.341   0.352   1.829 -0.4461  2.4360 -2.9816
  782SOL     OW 2344   1.740   2.014   0.153 -0.2911  0.0479 -0.2863
  782SOL    HW1 2345   1.818   2.061   0.107 -0.6779 -3.4293  0.4192
  782SOL    HW2 2346   1.749   2.031   0.257 -0.4428  1.1824  1.6500
  783SOL     OW 2347   1.092   1.736   1.674 -0.6893  0.0398 -0.1838
  783SOL    HW1 2348   1.142   1.660   1.626  0.9984 -1.7188 -1.6430
  783SOL    HW2 2349   1.109   1.823   1.631  0.2849  0.7586 -0.1965
  784SOL     OW 2350   1.885   0.668   2.161  1.0009 -0.0050  0.0935
  784SOL    HW1 2351   1.912   0.571   2.183  2.2785  0.2550 -1.1939
  784SOL    HW2 2352   1.971   0.724   2.166  0.5182  0.4941  0.2672
  785SOL     OW 2353   2.927   0.320   0.899  0.2624  0.4465  0.3258
  785SOL    HW1 2354   2.872   0.328   0.984 -0.4682  1.2347 -0.3144
  785SOL    HW2 2355   2.936   0.410   0.850  2.3641 -1.6449  1.2775
  786SOL     OW 2356   1.863   3.069   0.299  0.4961  0.2013  0.0048
  786SOL    HW1 2357   1.954   3.040   0.334 -2.2349 -1.3853 -1.8889
  786SOL    HW2 2358   1.788   3.009   0.334 -0.0109  1.9664 -0.5972
  787SOL     OW 2359   1.160   0.066   0.750 -0.2116  0.2599  0.3491
  787SOL    HW1 2360   1.219   0.138   0.711  0.8704  1.9267 -0.6421
  787SOL    HW2 2361   1.065   0.107   0.755 -0.0393 -0.2013 -0.9800
  788SOL     OW 2362   0.178   1.731   1.206  0.7329 -0.6757  0.0319
  788SOL    HW1 2363   0.144   1.778   1.286  2.9861 -1.2702 -0.6411
  788SOL    HW2 2364   0.247   1.663   1.222 -2.0935  0.1799 -0.3444
  789SOL     OW 2365   2.827   0.662   2.026 -0.2854 -0.0677 -0.2304
  789SOL    HW1 2366   2.813   0.569   2.062  0.7885 -2.2320  0.0573
  789SOL    HW2 2367   2.859   0.721   2.103 -2.8092  2.0429 -2.0201
  790SOL     OW 2368   0.569   0.710   2.623  0.3605 -0.0555 -0.1368
  790SOL    HW1 2369   0.646   0.657   2.584 -1.6795 -0.3822 -1.2455
  790SOL    HW2 2370   0.486   0.650   2.630 -2.3387  2.8666  2.4530
  791SOL     OW 2371   2.497   0.464   2.990 -0.7839 -0.2118  0.6675
  791SOL    HW1 2372   2.445   0.497   2.911 -0.9553 -1.9242  1.9822
  791SOL    HW2 2373   2.499   0.361   2.982 -1.0233  1.3874  2.3233
  792SOL     OW 2374   1.637   0.605   1.250  0.0141 -0.2979  0.1210
  792SOL    HW1 2375   1.598   0.599   1.156 -0.8800  1.2956 -0.9369
  792SOL    HW2 2376   1.669   0.518   1.281  0.2571  0.8813 -1.7546
  793SOL     OW 2377   0.167   3.079   1.488 -0.1360 -0.3998  0.0045
  793SOL    HW1 2378   0.149   0.027   1.585 -0.2218  2.7336  2.6112
  793SOL    HW2 2379   0.175   0.055   1.422  1.3866  0.4062  1.9460
  794SOL     OW 2380   0.068   0.225   2.009  0.6235  0.0011  0.2155
  794SOL    HW1 2381   0.085   0.284   2.085 -0.7035 -0.0363 -0.4076
  794SOL    HW2 2382   0.139   0.236   1.936 -0.9381  1.7214 -1.9619
  795SOL     OW 2383   0.327   2.245   2.748  0.4444 -0.2639  0.1973
  795SOL    HW1 2384   0.396   2.171   2.755  1.2898 -2.6904 -1.1787
  795SOL    HW2 2385   0.370   2.336   2.737  1.2138 -0.4921 -0.6871
  796SOL     OW 2386   1.982   0.512   2.686 -0.2311  0.7799  0.5020
  796SOL    HW1 2387   1.998   0.610   2.697 -1.5741 -1.9065 -0.4516
  796SOL    HW2 2388   1.902   0.503   2.751  0.5831  2.9268 -0.0757
  797SOL     OW 2389   2.134   1.985   2.956 -0.0614  0.3633  0.1195
  797SOL    HW1 2390   2.107   2.061   3.014  1.5551 -0.0061 -0.9715
  797SOL    HW2 2391   2.236   1.966   2.961 -0.3205  1.8123  0.7009
  798SOL     OW 2392   0.143   0.622   1.599  0.1660  0.2131  0.5628
  798SOL    HW1 2393   0.160   0.561   1.515  1.0869 -5.3006 -2.3451
  798SOL    HW2 2394   0.171   0.580   1.689  0.1846  1.4716 -1.0572
  799SOL     OW 2395   0.551   0.273   1.594  0.7089 -0.4311 -0.3049
  799SOL    HW1 2396   0.613   0.358   1.597 -1.3144  1.3284 -2.3406
  799SOL    HW2 2397   0.613   0.192   1.587  1.2692 -0.5208  0.0346
  800SOL     OW 2398   3.064   2.441   0.257 -0.4897  0.1230  0.3620
  800SOL    HW1 2399   3.059   2.341   0.287  3.8206 -1.5582  0.1845
  800SOL    HW2 2400   0.003   2.500   0.334  0.1720  0.7079 -1.4005
  801SOL     OW 2401   1.469   1.850   0.781 -0.1271  0.3599  0.0944
  801SOL    HW1 2402   1.539   1.878   0.844 -0.2519 -0.5521 -0.1419
  801SOL    HW2 2403   1.428   1.759   0.816 -1.3994 -1.6557  1.5534
  802SOL     OW 2404   0.828   0.625   0.146  0.7826 -0.1270 -0.0394
  802SOL    HW1 2405   0.841   0.663   0.239 -3.6340  0.3093  1.2417
  802SOL    HW2 2406   0.760   0.685   0.100 -0.4867  1.6270  0.9655
  803SOL     OW 2407   1.281   1.346   1.954  0.0949  0.1486  0.1340
  803SOL    HW1 2408   1.263   1.244   1.954  0.3442 -0.3376 -0.1902
  803SOL    HW2 2409   1.379   1.354   1.956 -0.8083  0.8616 -0.9059
  804SOL     OW 2410   1.757   2.330   1.155  0.5138  0.0682  0.0669
  804SOL    HW1 2411   1.789   2.405   1.216 -2.3410  0.5741  0.6167
  804SOL    HW2 2412   1.725   2.359   1.063  2.2221  1.1359  2.1794
  805SOL     OW 2413   3.051   2.150   2.480 -0.3280 -0.1469  0.3685
  805SOL    HW1 2414   3.093   2.161   2.389  2.0975  2.2789  0.8539
  805SOL    HW2 2415   3.088   2.229   2.534 -0.2265  1.1532  2.2894
  806SOL     OW 2416   0.509   2.618   0.326 -0.2216  0.4089 -0.1273
  806SOL    HW1 2417   0.516   2.683   0.251  0.1722 -1.8541  0.2081
  806SOL    HW2 2418   0.450   2.539   0.301 -1.1679  1.5760  0.0526
  807SOL     OW 2419   2.337   1.096   2.870  0.9685 -0.7819 -0.2331
  807SOL    HW1 2420   2.311   1.147   2.958 -2.0718  0.3535  2.5913
  807SOL    HW2 2421   2.382   1.007   2.893 -1.6418 -1.0051 -2.2733
  808SOL     OW 2422   1.348   2.092   0.925  0.8688 -0.6527 -0.1714
  808SOL    HW1 2423   1.430   2.091   0.862 -1.0877  1.2618 -2.9346
  808SOL    HW2 2424   1.371   2.072   1.024  1.0844 -1.5186 -0.1839
  809SOL     OW 2425   0.083   0.610   0.663  0.4049 -0.2611 -0.2491
  809SOL    HW1 2426   0.066   0.685   0.732 -0.8871 -0.2173  0.9517
  809SOL    HW2 2427   0.113   0.531   0.712 -2.7928  1.0103 -1.6208
  810SOL     OW 2428   1.167   1.472   0.078  0.1562  0.0851  0.2378
  810SOL    HW1 2429   1.230   1.486   0.154 -0.3701 -3.2543 -3.1107
  810SOL    HW2 2430   1.204   1.513   3.088  2.7623 -0.2007  1.5000
  811SOL     OW 2431   1.465   2.835   1.526 -0.3782  0.3111  0.2768
  811SOL    HW1 2432   1.528   2.780   1.465 -1.3042  1.4131  3.2473
  811SOL    HW2 2433   1.470   2.794   1.620 -0.2482 -2.6406  1.2228
  812SOL     OW 2434   1.368   0.263   0.705  0.0206 -0.2426  0.2246
  812SOL    HW1 2435   1.349   0.322   0.624  1.4848  0.8711 -0.5810
  812SOL    HW2 2436   1.468   0.253   0.725  3.4360 -0.8677  3.6374
  813SOL     OW 2437   1.307   2.880   2.418  0.0471  0.2950  0.1582
  813SOL    HW1 2438   1.209   2.862   2.448 -0.0027 -0.7733 -1.0269
  813SOL    HW2 2439   1.304   2.957   2.347 -0.6549  1.0909  0.8525
  814SOL     OW 2440   1.476   2.755   1.800  0.1982  0.4567 -0.1109
  814SOL    HW1 2441   1.420   2.684   1.856 -2.8979 -2.2783  1.8768
  814SOL    HW2 2442   1.432   2.847   1.812 -2.5531 -1.6361 -0.1262
  815SOL     OW 2443   0.116   3.017   0.188 -0.0349 -0.7299 -0.5921
  815SOL    HW1 2444   0.138   3.042   0.283  0.5841  1.7161  2.0726
  815SOL    HW2 2445   0.108   2.915   0.186  0.8497 -2.8203  1.1366
  816SOL     OW 2446   2.395   1.391   2.630 -0.0944  0.1995 -0.2995
  816SOL    HW1 2447   2.330   1.311   2.640 -1.0425  1.4253  0.2731
  816SOL    HW2 2448   2.380   1.438   2.544  1.1522 -0.6451  2.0421
  817SOL     OW 2449   2.538   2.116   2.571 -0.4237  0.3699 -0.3074
  817SOL    HW1 2450   2.495   2.159   2.653 -1.1134  0.7704 -1.1608
  817SOL    HW2 2451   2.635   2.093   2.584 -0.6266  0.2097 -1.6024
  818SOL     OW 2452   0.980   1.050   0.181 -0.5938  1.0359 -0.3678
  818SOL    HW1 2453   1.052   1.022   0.249  0.4701 -1.3091 -0.1448
  818SOL    HW2 2454   0.900   1.085   0.227  1.7184  0.9474  0.1843
  819SOL     OW 2455   1.608   1.336   3.052  0.0646  0.5459  0.0921
  819SOL    HW1 2456   1.521   1.311   3.008  2.0447 -0.4656 -0.1463
  819SOL    HW2 2457   1.616   1.280   0.044 -2.0612  0.3497 -2.6366
  820SOL     OW 2458   0.313   0.994   0.831 -0.4496  0.1898 -0.0584
  820SOL    HW1 2459   0.409   1.017   0.860 -1.2752 -2.4341  0.4180
  820SOL    HW2 2460   0.297   0.995   0.732 -1.7802  0.3127  2.0002
  821SOL     OW 2461   0.509   2.978   1.437 -0.0677 -0.8945  0.2252
  821SOL    HW1 2462   0.468   3.055   1.386 -0.0380  0.6254  1.0661
  821SOL    HW2 2463   0.590   2.948   1.382  0.3036 -0.9477 -0.5225
  822SOL     OW 2464   1.871   1.786   2.744 -0.4867 -0.0104 -0.2161
  822SOL    HW1 2465   1.790   1.802   2.689  1.4501 -0.9023  1.7281
  822SOL    HW2 2466   1.931   1.866   2.737 -0.4588 -2.3005 -1.4858
  823SOL     OW 2467   0.853   0.565   2.276  0.3234  0.2867 -0.2130
  823SOL    HW1 2468   0.930   0.572   2.216  1.3922 -0.3381  2.9981
  823SOL    HW2 2469   0.796   0.652   2.289  0.8922  2.7637  1.0456
  824SOL     OW 2470   2.676   2.855   1.433  0.0466 -0.2982 -0.1330
  824SOL    HW1 2471   2.724   2.868   1.523 -0.8526  1.8242 -0.3392
  824SOL    HW2 2472   2.584   2.817   1.442 -0.1113  2.8758 -0.9370
  825SOL     OW 2473   0.145   1.579   2.331 -0.3052  0.0859 -0.6787
  825SOL    HW1 2474   0.236   1.572   2.283  1.1925 -0.3595  0.6716
  825SOL    HW2 2475   0.099   1.667   2.312 -2.9480  1.4882 -1.4661
  826SOL     OW 2476   1.554   0.423   2.803  0.7309  0.1923 -0.4092
  826SOL    HW1 2477   1.646   0.462   2.811 -1.3238 -1.1860 -0.0984
  826SOL    HW2 2478   1.536   0.345   2.871 -0.6981 -2.4636  1.2931
  827SOL     OW 2479   0.064   2.163   2.217  0.4094  0.1490 -0.7938
  827SOL    HW1 2480   0.060   2.137   2.121 -1.8738  1.6731 -1.0293
  827SOL    HW2 2481   0.152   2.149   2.269 -0.3249  1.8836  0.9671
  828SOL     OW 2482   0.082   0.158   1.290  0.4578  0.8357 -0.5617
  828SOL    HW1 2483   0.068   0.256   1.270  0.5806  0.8131 -2.0144
  828SOL    HW2 2484   0.004   0.108   1.251 -0.9381  0.2583 -0.4148
  829SOL     OW 2485   1.183   1.620   1.954 -0.2454  0.0300 -0.0055
  829SOL    HW1 2486   1.224   1.534   1.914  3.1005 -1.2337  1.8981
  829SOL    HW2 2487   1.099   1.604   2.004  5.1444  2.3711 -2.2311
  830SOL     OW 2488   1.037   0.876   1.563  0.4837 -0.3133  0.4781
  830SOL    HW1 2489   0.954   0.874   1.501  0.8631 -1.9238 -1.2619
  830SOL    HW2 2490   1.004   0.864   1.656 -0.2252  2.0848 -1.2151
  831SOL     OW 2491   2.609   1.913   0.243  0.0483 -0.6740 -0.0751
  831SOL    HW1 2492   2.699   1.914   0.187  2.2756 -1.4026  0.3432
  831SOL    HW2 2493   2.624   1.856   0.331  2.4835  1.6524  2.6808
  832SOL     OW 2494   0.977   2.438   0.037  0.1638  0.6692  0.9347
  832SOL    HW1 2495   0.962   2.376   0.111 -1.2866 -0.3021 -1.3346
  832SOL    HW2 2496   0.973   2.395   3.041  0.2271  0.4291  0.4180
  833SOL     OW 2497   3.053   0.240   1.542 -0.1865 -0.3329 -0.0672
  833SOL    HW1 2498   0.027   0.222   1.470  2.0097  0.3325 -1.5993
  833SOL    HW2 2499   3.018   0.336   1.538  0.1787  2.6872  0.2468
  834SOL     OW 2500   0.052   0.773   0.875 -0.1058 -0.9447 -0.1831
  834SOL    HW1 2501   0.146   0.800   0.904  0.8369  0.2594 -3.1678
  834SOL    HW2 2502   3.080   0.856   0.867 -2.6373  4.0469 -2.8504
  835SOL     OW 2503   2.676   0.505   0.281 -0.2045  0.2038 -0.1413
  835SOL    HW1 2504   2.748   0.481   0.347 -0.7401 -1.1622  3.0409
  835SOL    HW2 2505   2.590   0.452   0.297 -0.6809  1.8483 -1.4444
  836SOL     OW 2506   0.544   2.086   2.759 -0.2621 -0.1792 -0.0281
  836SOL    HW1 2507   0.562   1.990   2.775 -0.0007  1.0779 -0.0857
  836SOL    HW2 2508   0.593   2.121   2.671 -0.1661  1.2320 -2.3590
  837SOL     OW 2509   1.370   1.797   0.320  1.0372 -0.0226  0.7636
  837SOL    HW1 2510   1.449   1.801   0.382  0.3098  0.2033  1.0701
  837SOL    HW2 2511   1.361   1.714   0.265  2.0219 -0.9647 -0.5128
  838SOL     OW 2512   2.444   0.991   2.238 -0.4411  0.4561  0.6940
  838SOL    HW1 2513   2.384   1.063   2.286 -2.9094  3.3999 -1.7168
  838SOL    HW2 2514   2.486   1.038   2.155  1.4547 -0.4160  0.3456
  839SOL     OW 2515   0.893   0.990   2.380 -0.4630 -0.1896  0.2605
  839SOL    HW1 2516   0.992   0.996   2.366 -0.1519 -0.8381  1.4743
  839SOL    HW2 2517   0.878   1.003   2.479 -1.2337 -1.6310  1.2306
  840SOL     OW 2518   0.570   1.019   0.173 -0.2355 -0.0866 -0.1253
  840SOL    HW1 2519   0.476   1.050   0.154  0.5609  1.0181  0.9534
  840SOL    HW2 2520   0.625   1.105   0.189 -2.5295 -0.2030  1.9067
  841SOL     OW 2521   0.881   2.290   0.252 -0.1965 -0.4204  0.0884
  841SOL    HW1 2522   0.827   2.354   0.310 -3.3541  2.1082 -0.2095
  841SOL    HW2 2523   0.819   2.250   0.183  0.4658 -1.4799  2.1505
  842SOL     OW 2524   0.588   0.671   0.645 -0.1589  0.9116  0.6942
  842SOL    HW1 2525   0.681   0.706   0.656 -1.4798 -2.8697  0.9024
  842SOL    HW2 2526   0.574   0.604   0.719  1.5627  0.5213  0.6961
  843SOL     OW 2527   0.619   0.750   1.437  0.1514  0.6214 -0.5827
  843SOL    HW1 2528   0.579   0.772   1.531  0.3668 -0.4950  3.4989
  843SOL    HW2 2529   0.565   0.790   1.361 -0.4286  0.7666  0.4501
  844SOL     OW 2530   1.987   2.437   2.798 -0.0224  0.4579  0.5606
  844SOL    HW1 2531   1.945   2.518   2.850 -1.4352 -0.1659  0.6420
  844SOL    HW2 2532   2.036   2.463   2.714 -1.2871 -2.0254  0.6349
  845SOL     OW 2533   2.231   2.926   1.623  0.3615  0.5272 -0.3700
  845SOL    HW1 2534   2.320   2.904   1.672  1.1024  1.1445 -0.5735
  845SOL    HW2 2535   2.186   2.844   1.584 -0.3703  4.3255 -0.2545
  846SOL     OW 2536   1.848   0.974   2.385 -0.4708 -0.6239 -0.4647
  846SOL    HW1 2537   1.769   0.914   2.370  0.2235 -2.5200  0.5709
  846SOL    HW2 2538   1.850   1.046   2.315 -0.0373  0.8061  0.5275
  847SOL     OW 2539   2.932   3.038   1.835 -0.0149 -0.6063  0.0981
  847SOL    HW1 2540   2.904   0.033   1.877 -0.1710  0.0409  0.0065
  847SOL    HW2 2541   2.888   3.024   1.747  1.6039  1.9754 -1.0965
  848SOL     OW 2542   2.612   2.720   0.012 -0.5120  0.5166  0.4613
  848SOL    HW1 2543   2.689   2.788   3.087  3.8439  2.6169  1.8604
  848SOL    HW2 2544   2.538   2.753   0.068  1.9942  0.4099 -0.7638
  849SOL     OW 2545   0.706   2.912   0.638  0.1540 -0.2380  0.3245
  849SOL    HW1 2546   0.626   2.866   0.590  0.1579 -3.4492 -1.2116
  849SOL    HW2 2547   0.671   2.987   0.698 -1.8379  0.6204  3.2180
  850SOL     OW 2548   0.747   2.179   0.881 -0.5758 -0.1391  0.0116
  850SOL    HW1 2549   0.826   2.227   0.848 -0.4985 -1.0429 -1.5955
  850SOL    HW2 2550   0.702   2.129   0.802  0.4497 -1.1870 -2.7241
  851SOL     OW 2551   2.162   0.385   2.860  0.3458  0.1976  0.2733
  851SOL    HW1 2552   2.104   0.431   2.793  1.9198  1.3604  3.5466
  851SOL    HW2 2553   2.186   0.287   2.839 -1.1239  1.6800  5.3748
  852SOL     OW 2554   1.617   1.839   2.620 -0.0140 -0.1964  0.0467
  852SOL    HW1 2555   1.524   1.795   2.613  3.7388 -0.5205  1.5096
  852SOL    HW2 2556   1.677   1.815   2.540  0.5559  2.5633 -1.4647
  853SOL     OW 2557   3.027   2.162   0.299  0.0762  0.3059 -0.3083
  853SOL    HW1 2558   3.035   2.109   0.211 -1.3386 -0.2210 -3.0138
  853SOL    HW2 2559   3.091   2.120   0.370  0.0722 -0.3683  2.3348
  854SOL     OW 2560   1.691   0.520   1.966  0.0892  0.5165 -0.4156
  854SOL    HW1 2561   1.619   0.471   2.019 -1.0808 -0.0642  1.8757
  854SOL    HW2 2562   1.763   0.550   2.029 -0.2203  0.6190 -1.3682
  855SOL     OW 2563   0.149   2.691   0.605 -0.1534  0.0187 -0.4258
  855SOL    HW1 2564   0.219   2.631   0.647  0.9053 -0.7725 -0.9157
  855SOL    HW2 2565   0.155   2.699   0.502  1.0659  1.0580 -1.3035
  856SOL     OW 2566   0.440   2.819   2.316 -0.5356  0.0572  0.4148
  856SOL    HW1 2567   0.411   2.821   2.412  0.3663  1.0454 -1.8591
  856SOL    HW2 2568   0.541   2.811   2.307  0.1703  1.9540 -0.9529
  857SOL     OW 2569   1.020   0.199   1.666 -0.3872  0.6251  0.3031
  857SOL    HW1 2570   1.011   0.303   1.678 -2.2513  2.4705  0.6137
  857SOL    HW2 2571   1.050   0.172   1.573 -3.1593  1.6111  0.1146
  858SOL     OW 2572   0.301   2.159   1.919  0.4456 -0.2851 -0.2727
  858SOL    HW1 2573   0.205   2.127   1.928  1.3870  2.4210 -0.9555
  858SOL    HW2 2574   0.311   2.172   1.816 -1.2684 -1.4740 -0.3951
  859SOL     OW 2575   2.046   2.619   2.121 -0.6545  0.2303 -0.4987
  859SOL    HW1 2576   1.953   2.636   2.089 -0.8149 -1.1822  2.3352
  859SOL    HW2 2577   2.074   2.522   2.123  1.2611 -2.3385 -0.5730
  860SOL     OW 2578   1.612   0.609   0.420 -0.0019 -0.1898 -0.3576
  860SOL    HW1 2579   1.581   0.707   0.428  0.1084  0.4452 -1.4112
  860SOL    HW2 2580   1.553   0.553   0.357  0.3329  3.8323 -4.5377
  861SOL     OW 2581   2.921   0.592   0.827 -0.2515  0.5000 -0.2008
  861SOL    HW1 2582   3.007   0.641   0.860 -0.4564  1.3942  1.7920
  861SOL    HW2 2583   2.867   0.657   0.767 -0.9693 -0.6579 -0.2445
  862SOL     OW 2584   2.180   0.737   1.440  0.8218 -0.3434  0.5778
  862SOL    HW1 2585   2.185   0.654   1.381 -1.7717  0.4449  1.1457
  862SOL    HW2 2586   2.217   0.717   1.534 -0.5095 -0.5920 -0.5934
  863SOL     OW 2587   0.748   0.884   1.000 -0.0234 -0.0692 -0.2984
  863SOL    HW1 2588   0.675   0.829   1.048 -1.9702 -3.5354 -2.4277
  863SOL    HW2 2589   0.808   0.919   1.071 -1.1186  1.9743  0.2224
  864SOL     OW 2590   2.920   2.851   2.030  0.2137  0.7075 -0.6213
  864SOL    HW1 2591   2.996   2.850   2.098 -0.3067  0.0748 -0.2803
  864SOL    HW2 2592   2.942   2.917   1.959  2.9864 -1.5089  2.0544
  865SOL     OW 2593   1.204   0.530   2.174 -0.2145  0.0865 -0.0340
  865SOL    HW1 2594   1.216   0.485   2.266 -0.2164 -2.1799 -2.1347
  865SOL    HW2 2595   1.239   0.466   2.101  0.1397 -1.1828  1.3487
  866SOL     OW 2596   2.458   2.724   0.240  0.2001  0.0418 -0.1398
  866SOL    HW1 2597   2.386   2.784   0.279 -0.3881  3.2420  1.9089
  866SOL    HW2 2598   2.536   2.722   0.309  1.3983  1.8655  1.7864
  867SOL     OW 2599   2.680   2.689   0.397 -0.6865 -0.1613 -0.0934
  867SOL    HW1 2600   2.666   2.588   0.407  0.7857  1.4699 -0.3205
  867SOL    HW2 2601   2.772   2.708   0.367 -0.9828 -2.4072  0.9085
  868SOL     OW 2602   1.809   1.081   2.849  0.0279  0.4483 -0.0846
  868SOL    HW1 2603   1.855   1.035   2.929  1.2576  2.3831  5.0206
  868SOL    HW2 2604   1.826   1.181   2.865  0.1267 -0.2525  0.5028
  869SOL     OW 2605   2.659   2.436   0.443  0.3213 -0.2193 -0.2343
  869SOL    HW1 2606   2.614   2.430   0.532 -1.9086  0.0326  1.0863
  869SOL    HW2 2607   2.696   2.348   0.407  0.7685 -0.5958  1.3380
  870SOL     OW 2608   2.297   2.156   0.604  0.0221  0.0826 -0.1207
  870SOL    HW1 2609   2.232   2.138   0.684 -3.4409 -0.0871  4.4255
  870SOL    HW2 2610   2.383   2.100   0.618 -1.1016 -2.9801 -0.9693
  871SOL     OW 2611   0.400   1.259   1.315  0.1850 -0.6711 -0.0703
  871SOL    HW1 2612   0.330   1.225   1.249 -2.8603  0.3621 -1.0697
  871SOL    HW2 2613   0.363   1.248   1.407 -0.7792  2.4499 -1.9889
  872SOL     OW 2614   1.098   1.841   2.354 -0.0437  0.0730  0.4130
  872SOL    HW1 2615   1.140   1.921   2.401  0.0127  1.4766 -1.2527
  872SOL    HW2 2616   1.164   1.785   2.297  0.1257  1.6075 -1.1026
  873SOL     OW 2617   0.792   2.435   2.052 -0.4163  0.9313  0.1164
  873SOL    HW1 2618   0.825   2.524   2.033 -2.2390 -0.8373  1.9364
  873SOL    HW2 2619   0.687   2.422   2.047  0.8701  0.3405 -1.6736
  874SOL     OW 2620   0.896   0.388   1.407 -0.6545 -0.1349  0.2289
  874SOL    HW1 2621   0.897   0.460   1.338  1.5364 -1.4330  0.5155
  874SOL    HW2 2622   0.946   0.410   1.497  1.4199 -1.4048  2.5994
  875SOL     OW 2623   2.857   0.259   1.166 -0.3615  0.3483 -0.8861
  875SOL    HW1 2624   2.943   0.305   1.195 -0.5409  0.4639  0.8151
  875SOL    HW2 2625   2.877   0.158   1.175 -0.4545  0.1085 -0.1529
  876SOL     OW 2626   0.301   1.074   0.135  0.4045 -0.3379 -0.1350
  876SOL    HW1 2627   0.270   1.021   0.053  0.2290 -0.7397  3.8696
  876SOL    HW2 2628   0.232   1.073   0.202  4.4612 -0.4103  0.7122
  877SOL     OW 2629   1.184   0.650   1.534  0.1476 -0.3248  0.5523
  877SOL    HW1 2630   1.229   0.636   1.440  2.0390 -2.5305 -1.5962
  877SOL    HW2 2631   1.138   0.742   1.537  0.7194 -0.8311  0.6484
  878SOL     OW 2632   2.031   2.083   0.475 -0.4245 -0.0605 -0.1807
  878SOL    HW1 2633   2.078   2.038   0.396  1.9043 -3.0633  0.7929
  878SOL    HW2 2634   2.107   2.123   0.532  0.8863  0.6674  0.2865
  879SOL     OW 2635   2.891   1.614   1.623 -0.2874  0.2703 -0.2329
  879SOL    HW1 2636   2.954   1.634   1.547  0.8662 -2.0342  0.3727
  879SOL    HW2 2637   2.846   1.524   1.612 -0.4333  0.5914  0.0466
  880SOL     OW 2638   1.318   2.495   0.615  0.0966  0.3977  0.0480
  880SOL    HW1 2639   1.267   2.493   0.703  1.1145 -0.2959 -4.4462
  880SOL    HW2 2640   1.328   2.399   0.575  0.1249  0.9170 -0.2049
  881SOL     OW 2641   0.705   2.441   0.387  0.3441  0.1428  0.0565
  881SOL    HW1 2642   0.649   2.359   0.416 -2.5929 -1.5660 -1.6546
  881SOL    HW2 2643   0.644   2.519   0.363  0.7786  2.4668 -0.2155
  882SOL     OW 2644   1.977   0.869   0.887 -0.2579  0.2926 -0.3123
  882SOL    HW1 2645   2.028   0.843   0.806  1.0364  2.0199 -2.7426
  882SOL    HW2 2646   1.978   0.802   0.968 -2.6974 -0.4060  1.7650
  883SOL     OW 2647   1.771   0.857   1.588 -0.0259  0.5177 -0.6564
  883SOL    HW1 2648   1.760   0.770   1.639  1.3608 -0.5132  3.5753
  883SOL    HW2 2649   1.864   0.888   1.588 -0.4743 -0.2080 -0.1474
  884SOL     OW 2650   2.687   0.599   0.031  0.1648  0.1430  0.0424
  884SOL    HW1 2651   2.690   0.567   0.129 -2.4122  0.5443 -0.7470
  884SOL    HW2 2652   2.610   0.547   3.075 -1.4342 -2.5487 -0.3163
  885SOL     OW 2653   0.929   1.266   2.732 -0.4830 -0.5070  0.0332
  885SOL    HW1 2654   0.963   1.319   2.807 -0.4929 -0.8290  2.3302
  885SOL    HW2 2655   0.856   1.326   2.692 -0.1286  0.7763 -0.8175
  886SOL     OW 2656   1.375   1.751   2.561  0.4616 -0.2447 -0.0932
  886SOL    HW1 2657   1.336   1.655   2.562 -0.2022 -0.0362 -1.1652
  886SOL    HW2 2658   1.308   1.825   2.537  0.5296  0.6863 -1.4728
  887SOL     OW 2659   1.337   0.212   1.300  0.0780  0.6041  0.3865
  887SOL    HW1 2660   1.389   0.196   1.212  0.5973  1.6807  1.6521
  887SOL    HW2 2661   1.273   0.291   1.285  0.6789 -0.4013  1.8645
  888SOL     OW 2662   2.581   0.704   1.664  0.7343  0.2822  0.4787
  888SOL    HW1 2663   2.675   0.686   1.701 -0.2166  1.0526  0.5966
  888SOL    HW2 2664   2.541   0.627   1.613 -0.7953 -1.6764 -1.1016
  889SOL     OW 2665   3.002   2.611   0.758 -0.3476 -0.1001 -0.1451
  889SOL    HW1 2666   3.084   2.616   0.704 -2.4179 -2.3570  0.4423
  889SOL    HW2 2667   2.999   2.522   0.809  0.4571 -2.8974 -3.5038
  890SOL     OW 2668   1.648   2.251   0.556 -0.1668  0.9951 -0.2058
  890SOL    HW1 2669   1.713   2.315   0.508  2.0838  0.6858 -1.3641
  890SOL    HW2 2670   1.547   2.261   0.532  0.0236 -0.6868  1.9596
  891SOL     OW 2671   0.310   1.004   2.713 -0.1647  0.1980 -0.3229
  891SOL    HW1 2672   0.323   1.106   2.691  0.9614  2.7102  0.8187
  891SOL    HW2 2673   0.401   0.966   2.749 -2.2220  1.4384  1.1923
  892SOL     OW 2674   2.920   2.437   1.319 -0.6581 -0.5796 -0.7720
  892SOL    HW1 2675   3.011   2.479   1.334 -0.9919 -0.9615  0.6791
  892SOL    HW2 2676   2.873   2.473   1.235  0.7648  1.0966  1.1395
  893SOL     OW 2677   1.460   0.233   1.051  0.4552 -0.5070 -0.1276
  893SOL    HW1 2678   1.516   0.151   1.032 -2.3144  1.7636 -0.2170
  893SOL    HW2 2679   1.508   0.321   1.023  0.2083 -0.3647 -1.5691
  894SOL     OW 2680   2.633   0.398   0.688  0.6492  0.0798  0.1546
  894SOL    HW1 2681   2.599   0.409   0.783  0.1189 -0.3105 -1.0069
  894SOL    HW2 2682   2.556   0.379   0.620  1.4581 -0.6978  0.4296
  895SOL     OW 2683   1.988   1.336   2.497  0.1264 -0.2090 -0.0808
  895SOL    HW1 2684   1.965   1.401   2.575 -0.5428 -1.1443 -1.4665
  895SOL    HW2 2685   1.973   1.239   2.532 -0.4761 -1.2570  2.1990
  896SOL     OW 2686   1.545   0.425   1.596 -0.0474  0.3716 -1.0715
  896SOL    HW1 2687   1.633   0.457   1.556 -2.2984  0.6682  1.3326
  896SOL    HW2 2688   1.512   0.336   1.557 -1.7909  0.5588 -0.4718
  897SOL     OW 2689   0.760   1.548   1.796 -0.1761 -0.7403  0.1182
  897SOL    HW1 2690   0.826   1.468   1.780 -0.6834 -0.0166  3.3901
  897SOL    HW2 2691   0.811   1.629   1.833  0.6243  0.5947 -1.1373
  898SOL     OW 2692   2.270   2.758   2.422  0.1660 -0.1214  0.7106
  898SOL    HW1 2693   2.179   2.718   2.442 -1.1103 -3.5411 -1.6901
  898SOL    HW2 2694   2.343   2.691   2.433  1.1067  0.3579  0.1108
  899SOL     OW 2695   1.065   1.547   1.285 -0.3221  0.5356  0.2187
  899SOL    HW1 2696   1.080   1.548   1.387 -1.6722  1.9386  1.5017
  899SOL    HW2 2697   1.076   1.644   1.247  0.8308 -0.3274 -0.5070
  900SOL     OW 2698   0.974   2.003   2.776  0.0791  0.2114 -0.0322
  900SOL    HW1 2699   1.040   1.954   2.841  1.5698 -2.8363  1.7594
  900SOL    HW2 2700   0.948   1.930   2.708  0.8721 -0.0932  0.8980
  901SOL     OW 2701   0.674   1.910   2.485  0.3126 -0.1977  0.0369
  901SOL    HW1 2702   0.697   1.933   2.388 -2.7300 -0.4530  1.5319
  901SOL    HW2 2703   0.582   1.866   2.490 -0.6108 -0.3634 -0.6606
  902SOL     OW 2704   2.124   1.663   0.372 -0.4750  1.1433  0.2141
  902SOL    HW1 2705   2.100   1.623   0.278 -0.2249 -1.0077 -4.4538
  902SOL    HW2 2706   2.188   1.605   0.428 -3.6166  0.2552  0.9083
  903SOL     OW 2707   1.905   1.775   0.500  0.1498 -0.6586 -0.0895
  903SOL    HW1 2708   1.861   1.828   0.428 -0.6390 -1.7728  1.3695
  903SOL    HW2 2709   1.994   1.749   0.462 -2.7839  2.0427  1.9848
  904SOL     OW 2710   1.065   0.734   2.522  0.3568 -0.4472 -0.0563
  904SOL    HW1 2711   1.003   0.676   2.458 -0.6779 -4.2609 -2.0518
  904SOL    HW2 2712   1.134   0.783   2.462 -0.6503  0.9144 -2.5014
  905SOL     OW 2713   2.737   0.171   0.739 -0.2560  0.3711 -0.1478
  905SOL    HW1 2714   2.706   0.261   0.701  2.1125 -0.1580  2.7143
  905SOL    HW2 2715   2.822   0.199   0.792  2.4321 -0.8936 -0.8952
  906SOL     OW 2716   2.731   1.986   0.528  0.0105 -0.1374 -0.1248
  906SOL    HW1 2717   2.792   1.935   0.460  1.1856  0.7268  0.3165
  906SOL    HW2 2718   2.778   2.060   0.581 -0.1962  0.0327  1.5084
  907SOL     OW 2719   1.359   0.406   0.398 -0.3290 -0.3970 -0.6836
  907SOL    HW1 2720   1.412   0.319   0.400  3.1099 -0.4741  0.1368
  907SOL    HW2 2721   1.328   0.431   0.303 -1.3105  0.4179 -0.9150
  908SOL     OW 2722   1.940   0.293   1.266 -0.1798  0.6550  0.0387
  908SOL    HW1 2723   1.989   0.214   1.220 -3.2152 -1.9220 -0.9884
  908SOL    HW2 2724   1.907   0.267   1.359 -0.3428 -0.9009 -0.2272
  909SOL     OW 2725   2.804   0.595   1.068 -0.5854 -0.0568  0.3505
  909SOL    HW1 2726   2.852   0.596   0.975  1.4894 -0.7871  0.1978
  909SOL    HW2 2727   2.862   0.565   1.147 -0.6363  0.3106  1.0617
  910SOL     OW 2728   1.064   2.837   2.520 -0.1118  0.5184 -0.1361
  910SOL    HW1 2729   1.052   2.792   2.607 -0.8919  2.7179 -4.7935
  910SOL    HW2 2730   1.028   2.781   2.439 -1.1274 -0.9519 -1.6903
  911SOL     OW 2731   2.233   1.182   1.715 -0.3416  0.0077 -0.0506
  911SOL    HW1 2732   2.328   1.209   1.697 -1.0370 -0.5625 -0.9761
  911SOL    HW2 2733   2.174   1.206   1.640  2.1590  1.6363 -1.4520
  912SOL     OW 2734   2.562   2.118   1.437  0.1520  0.0327 -0.1191
  912SOL    HW1 2735   2.520   2.034   1.390 -3.8307 -1.4193  0.2357
  912SOL    HW2 2736   2.664   2.102   1.453  1.3207 -1.5762 -1.4035
  913SOL     OW 2737   2.562   2.329   1.135 -0.2274  0.3185 -0.1626
  913SOL    HW1 2738   2.477   2.304   1.087  0.2557  2.9806  1.0485
  913SOL    HW2 2739   2.593   2.259   1.201  1.7831  1.7719  2.1360
  914SOL     OW 2740   2.025   1.806   1.342  0.1617 -0.6406  0.6703
  914SOL    HW1 2741   2.076   1.730   1.303 -2.2788  1.1135 -0.5216
  914SOL    HW2 2742   1.957   1.780   1.415  1.2548  1.9272  0.5320
  915SOL     OW 2743   1.365   1.782   1.434  0.4335 -0.4777  0.6792
  915SOL    HW1 2744   1.424   1.823   1.502  0.4315 -2.3160  0.7905
  915SOL    HW2 2745   1.394   1.799   1.333 -0.3118 -0.8140 -3.1331
  916SOL     OW 2746   2.888   2.844   1.235 -0.3493  0.2356 -0.3844
  916SOL    HW1 2747   2.835   2.822   1.148  1.2264  3.1972  2.1296
  916SOL    HW2 2748   2.820   2.835   1.313 -0.7871  1.3379 -0.2483
  917SOL     OW 2749   2.535   1.785   2.558 -0.4068  0.1342 -0.1293
  917SOL    HW1 2750   2.521   1.874   2.514  0.9156 -0.1260  1.1484
  917SOL    HW2 2751   2.466   1.774   2.632 -0.3799  2.3422 -1.4712
  918SOL     OW 2752   1.780   1.875   2.394 -0.5982  0.3485 -0.0050
  918SOL    HW1 2753   1.787   1.948   2.325 -1.6896  1.3831 -0.8508
  918SOL    HW2 2754   1.866   1.817   2.398 -1.0533  0.1800  0.0319
  919SOL     OW 2755   1.465   2.269   1.900  0.2304  0.2973  0.0050
  919SOL    HW1 2756   1.379   2.223   1.882 -1.9626 -1.2606 -0.1772
  919SOL    HW2 2757   1.508   2.291   1.810 -2.7969  1.2609  2.9751
  920SOL     OW 2758   2.963   0.375   2.834  0.2080 -0.3036  0.1344
  920SOL    HW1 2759   3.035   0.404   2.773 -3.0049  1.6147  2.3684
  920SOL    HW2 2760   2.970   0.275   2.849  2.5118 -1.6846  1.0508
  921SOL     OW 2761   2.613   0.169   2.493 -0.1943 -0.2730  0.2938
  921SOL    HW1 2762   2.693   0.117   2.461  1.3676  0.0762 -0.2979
  921SOL    HW2 2763   2.640   0.267   2.479 -0.6385  3.5907 -2.0317
  922SOL     OW 2764   2.345   1.802   0.765  0.1025 -0.3647 -0.2184
  922SOL    HW1 2765   2.406   1.873   0.722  0.4848 -1.4177  0.9075
  922SOL    HW2 2766   2.321   1.838   0.858 -0.3078  0.4069 -0.4973
  923SOL     OW 2767   0.391   1.850   0.620  0.1074 -0.3569  0.3014
  923SOL    HW1 2768   0.375   1.759   0.576  0.0950  1.2330  2.0416
  923SOL    HW2 2769   0.411   1.841   0.720  1.4988  1.2540 -3.0534
  924SOL     OW 2770   1.491   0.612   2.983  0.5300  0.2495  0.0046
  924SOL    HW1 2771   1.554   0.689   2.971  3.5957  3.3334  0.4655
  924SOL    HW2 2772   1.505   0.543   2.908  0.1873  2.1880 -1.3590
  925SOL     OW 2773   2.650   1.333   0.762 -0.3749  0.3608 -0.2576
  925SOL    HW1 2774   2.593   1.358   0.840  1.2380  2.1981 -0.6163
  925SOL    HW2 2775   2.594   1.275   0.703  2.0314  0.2002  1.9258
  926SOL     OW 2776   2.754   1.022   0.963 -0.1156 -0.1702 -0.1320
  926SOL    HW1 2777   2.735   0.961   1.043  0.6355  3.6259 -2.7490
  926SOL    HW2 2778   2.832   0.992   0.907 -0.9127  1.0849  1.1630
  927SOL     OW 2779   0.529   1.307   0.372  0.5478  0.0899  0.2736
  927SOL    HW1 2780   0.618   1.307   0.320  3.9158  2.5550  0.5048
  927SOL    HW2 2781   0.516   1.394   0.431 -1.8199  1.2095  3.7979
  928SOL     OW 2782   0.085   0.132   2.409  0.0175  0.1465 -0.2298
  928SOL    HW1 2783   0.161   0.100   2.474  3.4623  0.0260  2.9488
  928SOL    HW2 2784   0.071   0.071   2.330  0.2918  1.5633  2.3157
  929SOL     OW 2785   2.956   0.017   1.178 -0.4419  0.1557 -0.0204
  929SOL    HW1 2786   2.984   3.072   1.084 -1.3950 -2.6494 -0.0549
  929SOL    HW2 2787   2.891   3.049   1.224  1.2103 -1.5208 -1.4044
  930SOL     OW 2788   1.845   2.350   1.636 -0.5543  0.6010  0.3221
  930SOL    HW1 2789   1.846   2.254   1.597 -1.1705  0.8942 -0.4675
  930SOL    HW2 2790   1.897   2.356   1.719  0.7831 -0.6319 -1.8104
  931SOL     OW 2791   1.621   1.197   0.947 -0.1681 -0.3415 -0.1491
  931SOL    HW1 2792   1.633   1.141   1.030  0.0763 -2.3439 -1.1788
  931SOL    HW2 2793   1.628   1.140   0.859  0.4885  1.7896  1.3482
  932SOL     OW 2794   2.981   0.963   1.249 -0.0695 -0.3257  0.6751
  932SOL    HW1 2795   2.899   0.922   1.202  1.4957  0.2551 -2.2407
  932SOL    HW2 2796   2.982   1.066   1.234 -0.8746  1.8901 -0.8778
  933SOL     OW 2797   2.633   1.692   1.671 -0.3664  0.6408 -0.1760
  933SOL    HW1 2798   2.631   1.787   1.698  0.7748 -1.7515 -1.9230
  933SOL    HW2 2799   2.717   1.676   1.614  3.8064  0.2466  0.8451
  934SOL     OW 2800   1.881   0.420   1.046  0.1979  0.3537  0.3013
  934SOL    HW1 2801   1.891   0.391   1.144 -2.9441  0.5266  2.4087
  934SOL    HW2 2802   1.893   0.342   0.981 -0.5854  1.5594 -0.2226
  935SOL     OW 2803   0.207   1.444   1.122 -0.4676  0.4614  0.2179
  935SOL    HW1 2804   0.129   1.482   1.072  2.4912 -0.8878  0.1070
  935SOL    HW2 2805   0.237   1.348   1.101  2.2033  2.1523  1.6963
  936SOL     OW 2806   0.003   1.151   0.965  0.8257  0.7282  0.1918
  936SOL    HW1 2807   3.009   1.205   0.960 -0.9017  0.5445  1.1617
  936SOL    HW2 2808   0.077   1.212   0.942 -4.4098 -4.1165  0.8848
  937SOL     OW 2809   1.651   2.748   0.855  0.5778  0.4511 -0.0283
  937SOL    HW1 2810   1.551   2.766   0.871  0.5302 -2.0302  0.5031
  937SOL    HW2 2811   1.678   2.784   0.765 -0.2056 -1.1301  0.1563
  938SOL     OW 2812   2.709   2.478   0.769  0.2772  0.3377 -0.4569
  938SOL    HW1 2813   2.726   2.580   0.782  2.3749  3.5921  3.4001
  938SOL    HW2 2814   2.617   2.468   0.728  1.1411  0.1259  2.5765
  939SOL     OW 2815   0.422   1.854   2.949  0.2155  0.0682  0.4606
  939SOL    HW1 2816   0.510   1.822   2.907 -0.6182 -2.9618 -0.4067
  939SOL    HW2 2817   0.445   1.923   3.020  0.9314  1.2386 -0.0357
  940SOL     OW 2818   2.835   2.904   3.092  0.5833  0.0195  0.6704
  940SOL    HW1 2819   2.857   2.981   0.062 -0.6909  0.0923  0.5963
  940SOL    HW2 2820   2.906   2.829   3.094 -0.1060  1.1741  2.8111
  941SOL     OW 2821   0.883   2.701   0.043  0.2313 -0.6840 -0.0195
  941SOL    HW1 2822   0.907   2.601   0.046 -0.5837  1.8102 -1.4702
  941SOL    HW2 2823   0.960   2.754   3.093  1.7043  2.0707 -0.5091
  942SOL     OW 2824   1.781   1.946   1.696 -0.4982  0.1140 -0.3089
  942SOL    HW1 2825   1.784   1.944   1.800  2.1577 -0.5662  0.9061
  942SOL    HW2 2826   1.802   1.857   1.655 -4.6230  1.7140  0.7965
  943SOL     OW 2827   2.258   1.427   1.370  0.7928  0.3367  0.0277
  943SOL    HW1 2828   2.319   1.474   1.433 -1.5216 -0.4038 -2.1197
  943SOL    HW2 2829   2.203   1.356   1.416  0.4757  0.3449  0.5348
  944SOL     OW 2830   2.015   0.959   1.459 -0.4676  0.0532  0.5532
  944SOL    HW1 2831   1.964   0.978   1.371 -0.4168 -0.0671 -3.4266
  944SOL    HW2 2832   2.061   0.866   1.456  1.5967 -0.6140 -0.4056
  945SOL     OW 2833   3.075   2.822   0.923  0.2919  0.3013 -0.0516
  945SOL    HW1 2834   3.045   2.748   0.855 -3.0866 -0.8094  0.0058
  945SOL    HW2 2835   3.013   2.900   0.905 -0.6662 -1.6321  0.1762
  946SOL     OW 2836   0.376   0.671   1.842  0.4327 -0.5928  0.4712
  946SOL    HW1 2837   0.277   0.698   1.857 -0.4270  1.9118  0.0272
  946SOL    HW2 2838   0.384   0.572   1.819 -0.4928 -2.5226 -1.7787
  947SOL     OW 2839   0.510   2.753   0.547  0.1113 -0.2935  0.3341
  947SOL    HW1 2840   0.506   2.693   0.461 -1.0891 -0.9520 -1.9775
  947SOL    HW2 2841   0.483   2.696   0.628  0.6101 -3.1845  0.7159
  948SOL     OW 2842   3.008   1.173   1.852 -0.3431  0.4216  0.3460
  948SOL    HW1 2843   3.034   1.225   1.779 -1.7847 -2.7685 -0.5932
  948SOL    HW2 2844   3.067   1.088   1.862  0.0587 -0.1269  0.6391
  949SOL     OW 2845   0.479   0.942   2.205  0.0470 -0.2201 -0.0577
  949SOL    HW1 2846   0.448   0.953   2.302 -0.2697  0.1020  0.8989
  949SOL    HW2 2847   0.437   0.860   2.167 -0.4320  0.2563 -0.2606
  950SOL     OW 2848   0.964   0.603   1.228  0.1028 -0.5201  0.6210
  950SOL    HW1 2849   0.919   0.674   1.290  0.5986 -0.5777  0.4304
  950SOL    HW2 2850   0.996   0.643   1.137 -0.0421  0.9195 -1.4754
  951SOL     OW 2851   0.984   1.963   2.047 -0.1502  0.1197 -0.4254
  951SOL    HW1 2852   1.076   1.944   2.081 -0.8872  3.7750  1.2999
  951SOL    HW2 2853   0.948   2.058   2.069 -0.2866  2.4122 -0.0755
  952SOL     OW 2854   0.630   1.815   2.793  0.0987  0.4316 -0.9112
  952SOL    HW1 2855   0.714   1.782   2.839 -0.5798 -1.3038 -0.0182
  952SOL    HW2 2856   0.615   1.767   2.707 -1.7796  1.7125  2.3615
  953SOL     OW 2857   1.708   2.955   2.195  0.5045  0.2406 -0.6481
  953SOL    HW1 2858   1.754   2.992   2.283 -0.4157  0.5934  0.2419
  953SOL    HW2 2859   1.730   3.011   2.116  1.3930 -2.5632  1.4883
  954SOL     OW 2860   1.779   1.253   0.576 -0.0632  0.3466 -0.6585
  954SOL    HW1 2861   1.837   1.332   0.606  0.5505 -0.7137  4.1514
  954SOL    HW2 2862   1.786   1.238   0.477 -2.1363 -1.6963  0.1000
  955SOL     OW 2863   0.529   2.363   2.109 -0.3381  0.3694  0.1058
  955SOL    HW1 2864   0.503   2.278   2.147 -0.5305  2.1604  0.0217
  955SOL    HW2 2865   0.445   2.413   2.070 -2.5159  0.9652  0.4146
  956SOL     OW 2866   1.617   0.874   1.381  0.0849  0.1731  0.3336
  956SOL    HW1 2867   1.625   0.779   1.345  0.9551 -0.6541 -3.9723
  956SOL    HW2 2868   1.676   0.878   1.466  0.5278  0.5228  1.3326
  957SOL     OW 2869   2.303   1.461   2.349  0.2820 -0.0173 -0.0684
  957SOL    HW1 2870   2.382   1.510   2.302  1.8591  1.0228 -0.3893
  957SOL    HW2 2871   2.254   1.513   2.421 -0.7196  0.2826 -0.6085
  958SOL     OW 2872   1.183   2.499   0.877  0.0729 -0.0210  0.6491
  958SOL    HW1 2873   1.154   2.592   0.901 -1.4202 -0.0287 -2.4875
  958SOL    HW2 2874   1.233   2.459   0.961 -1.7406  2.1071  0.0821
  959SOL     OW 2875   1.682   1.341   2.545 -0.1422  0.4400 -0.2300
  959SOL    HW1 2876   1.634   1.409   2.605  1.0590  0.1289 -1.0987
  959SOL    HW2 2877   1.770   1.305   2.581 -0.7384 -2.3129 -0.4216
  960SOL     OW 2878   0.262   0.393   0.046 -0.6792  0.3712 -0.2513
  960SOL    HW1 2879   0.167   0.385   0.085  3.6165  1.1565 -4.3628
  960SOL    HW2 2880   0.278   0.327   3.064  1.9420 -0.5309  0.2108
  961SOL     OW 2881   0.373   0.450   2.225 -0.5354 -0.4864  0.2991
  961SOL    HW1 2882   0.392   0.354   2.203  0.1298  0.2165  2.9371
  961SOL    HW2 2883   0.393   0.470   2.321 -0.8953  1.2158 -0.0819
  962SOL     OW 2884   0.763   1.504   3.082  0.1940 -0.0559 -0.4627
  962SOL    HW1 2885   0.848   1.448   3.056  1.5487 -1.7464 -2.3774
  962SOL    HW2 2886   0.680   1.444   3.080  0.4920 -0.3208  0.6424
  963SOL     OW 2887   1.950   1.781   3.016 -0.2398 -0.0580  0.0352
  963SOL    HW1 2888   1.907   1.752   2.928 -1.5914 -0.8624  1.9608
  963SOL    HW2 2889   2.018   1.855   3.001  3.3642  3.5313 -1.0219
  964SOL     OW 2890   1.413   2.869   0.907 -0.1294  0.5069 -0.3094
  964SOL    HW1 2891   1.368   2.830   0.826  0.6382 -1.4007 -0.9280
  964SOL    HW2 2892   1.354   2.882   0.990 -1.0344  2.2596  0.7709
  965SOL     OW 2893   0.756   2.535   1.298 -0.1457 -0.1233  0.4129
  965SOL    HW1 2894   0.774   2.502   1.395 -2.0551  0.3593  0.3904
  965SOL    HW2 2895   0.729   2.457   1.235  0.5317  0.3364 -0.5909
  966SOL     OW 2896   0.038   1.644   0.042 -0.0735 -0.4348 -0.2511
  966SOL    HW1 2897   3.080   1.624   3.049 -0.3436 -0.9769  0.0859
  966SOL    HW2 2898   3.081   1.622   0.123 -0.1236 -0.4796 -3.2212
  967SOL     OW 2899   1.798   3.018   1.670 -0.1988  0.4529  0.2409
  967SOL    HW1 2900   1.733   3.041   1.592  0.6076 -2.5052 -1.3304
  967SOL    HW2 2901   1.772   2.927   1.708 -0.1581 -2.0210  1.5292
  968SOL     OW 2902   1.707   0.820   0.809  0.0810 -0.1903  0.0490
  968SOL    HW1 2903   1.696   0.910   0.761  1.5334  1.2744 -0.9018
  968SOL    HW2 2904   1.799   0.804   0.852 -1.7991  0.5008 -0.9132
  969SOL     OW 2905   0.456   1.780   2.073 -0.3401 -0.0770  0.4336
  969SOL    HW1 2906   0.519   1.765   1.991  1.7133 -1.2737 -3.8927
  969SOL    HW2 2907   0.457   1.881   2.093  0.4469 -1.7021  0.9340
  970SOL     OW 2908   2.756   1.386   1.272 -0.9631  0.1849 -0.0343
  970SOL    HW1 2909   2.724   1.291   1.303 -1.1125 -2.8525  1.0038
  970SOL    HW2 2910   2.710   1.412   1.186 -0.7447 -0.2660  3.0010
  971SOL     OW 2911   0.991   0.482   1.638 -0.5294 -0.2903  0.3209
  971SOL    HW1 2912   0.986   0.495   1.741 -0.3448 -1.3014  1.2746
  971SOL    HW2 2913   1.060   0.545   1.596  0.5826  3.0240 -0.8768
  972SOL     OW 2914   0.958   0.374   2.471 -0.3305 -0.0328  0.3165
  972SOL    HW1 2915   0.910   0.326   2.546 -2.0514  0.2408 -0.2902
  972SOL    HW2 2916   0.911   0.459   2.449  0.2978 -1.9903 -0.5924
  973SOL     OW 2917   3.016   1.479   1.006 -0.8074  0.1896 -0.1521
  973SOL    HW1 2918   2.968   1.390   0.991 -2.3524  0.1369  1.0628
  973SOL    HW2 2919   3.004   1.544   0.928  4.3195  0.4917  0.0753
  974SOL     OW 2920   1.822   1.102   1.836 -0.1087  0.4170 -1.1316
  974SOL    HW1 2921   1.868   1.190   1.814 -1.5608 -1.2669  1.2856
  974SOL    HW2 2922   1.723   1.113   1.834 -1.6923 -3.5918  0.3764
  975SOL     OW 2923   2.579   0.055   0.302  0.2552 -1.0733 -0.6483
  975SOL    HW1 2924   2.522   0.016   0.226 -3.2537  1.4741 -1.7839
  975SOL    HW2 2925   2.673   0.028   0.280 -0.5259  0.4734 -0.8236
  976SOL     OW 2926   0.376   1.788   1.742 -0.8778 -0.5856 -0.3288
  976SOL    HW1 2927   0.445   1.856   1.790  1.7125  1.6705 -1.1856
  976SOL    HW2 2928   0.283   1.807   1.776  2.0714  0.6629 -1.3230
  977SOL     OW 2929   0.467   2.737   0.092 -0.0535 -0.2777 -0.3963
  977SOL    HW1 2930   0.511   2.754   0.001 -0.5034 -0.8234  1.2720
  977SOL    HW2 2931   0.370   2.715   0.076  1.5015  1.3984 -0.8261
  978SOL     OW 2932   0.513   1.707   0.301  0.0964 -0.1286 -0.2515
  978SOL    HW1 2933   0.446   1.771   0.259  1.6578  0.6764 -2.0736
  978SOL    HW2 2934   0.601   1.706   0.241  1.1328 -0.2786  0.2752
  979SOL     OW 2935   1.378   2.069   1.190  0.1077 -0.2348 -0.2130
  979SOL    HW1 2936   1.327   2.146   1.230 -0.9482 -2.9174  0.4864
  979SOL    HW2 2937   1.472   2.071   1.224 -1.3243  0.9505 -0.5837
  980SOL     OW 2938   0.718   1.391   2.122  0.1473  0.6534  0.0407
  980SOL    HW1 2939   0.654   1.407   2.046  0.7291 -1.2202  1.6317
  980SOL    HW2 2940   0.693   1.304   2.173 -2.1815  0.5009 -0.2452
  981SOL     OW 2941   3.013   1.519   0.294  0.1740 -0.2656  0.1825
  981SOL    HW1 2942   3.091   1.578   0.335  1.2868  3.2444  0.9570
  981SOL    HW2 2943   2.925   1.552   0.337  0.1991 -0.5533 -0.4080
  982SOL     OW 2944   2.306   2.600   2.881  0.6037  0.5244  0.2791
  982SOL    HW1 2945   2.265   2.558   2.797  1.1703 -1.6732 -0.7601
  982SOL    HW2 2946   2.364   2.686   2.858  0.9222  3.3314 -0.1399
  983SOL     OW 2947   2.162   0.531   1.228  0.2456 -0.2967 -0.3495
  983SOL    HW1 2948   2.254   0.526   1.187  1.2687  1.0009 -1.0965
  983SOL    HW2 2949   2.131   0.438   1.253 -0.0265 -1.9054 -1.7096
  984SOL     OW 2950   0.990   0.015   2.528  0.0788  0.0575 -0.0585
  984SOL    HW1 2951   1.004   0.062   2.617  1.8983 -1.5493 -1.1412
  984SOL    HW2 2952   1.041   3.020   2.533 -0.7424 -1.0459 -1.1763
  985SOL     OW 2953   1.478   2.110   2.339  0.0432  0.6797 -0.3564
  985SOL    HW1 2954   1.463   2.211   2.345  0.8096 -1.8921  1.6651
  985SOL    HW2 2955   1.569   2.075   2.364 -0.4290 -0.1540 -2.1708
  986SOL     OW 2956   1.817   3.041   2.454  0.2521 -0.2798 -0.0357
  986SOL    HW1 2957   1.869   0.012   2.511  2.0349 -0.5052 -0.3194
  986SOL    HW2 2958   1.829   2.944   2.487  0.7432 -2.9136 -0.6668
  987SOL     OW 2959   2.590   3.091   2.163 -0.3936 -0.0898  0.4327
  987SOL    HW1 2960   2.552   0.089   2.144  0.5127  1.0609  0.7098
  987SOL    HW2 2961   2.516   3.026   2.185  0.6801  2.6141 -1.5477
  988SOL     OW 2962   2.475   0.385   2.177 -0.1343 -0.2558 -0.9481
  988SOL    HW1 2963   2.448   0.427   2.266  2.4387  0.2988 -0.7238
  988SOL    HW2 2964   2.396   0.368   2.119 -0.7777 -0.0111 -0.5386
  989SOL     OW 2965   2.241   2.476   2.650 -0.2612  0.2445 -0.4379
  989SOL    HW1 2966   2.330   2.520   2.621  1.8751  0.4687 -0.5107
  989SOL    HW2 2967   2.242   2.376   2.628 -2.0211 -2.8555  1.6677
  990SOL     OW 2968   0.220   0.976   2.990  0.6592  0.5181 -0.0045
  990SOL    HW1 2969   0.131   0.920   2.994 -5.2642 -0.8984  0.1822
  990SOL    HW2 2970   0.280   0.955   2.913 -2.2190  1.4519 -0.5517
  991SOL     OW 2971   0.637   1.145   2.550  0.2020  0.0185  0.0269
  991SOL    HW1 2972   0.569   1.089   2.509 -0.4336 -0.6716  1.1829
  991SOL    HW2 2973   0.702   1.077   2.594 -1.2041  0.6578 -0.4801
  992SOL     OW 2974   0.174   1.723   2.038 -0.0674 -0.0512  0.1306
  992SOL    HW1 2975   0.269   1.747   2.066  0.4790 -0.8468  1.2900
  992SOL    HW2 2976   0.164   1.726   1.938  1.0811 -3.1622  3.4753
  993SOL     OW 2977   0.918   0.192   0.713 -0.5709 -0.2000 -0.0820
  993SOL    HW1 2978   0.897   0.290   0.690 -1.4938  2.1448  0.3605
  993SOL    HW2 2979   0.884   0.139   0.636  0.8611  2.3975  0.2577
  994SOL     OW 2980   0.485   2.036   1.472  0.0201 -0.0893 -0.4339
  994SOL    HW1 2981   0.434   1.952   1.489  1.3652  0.2548 -0.9522
  994SOL    HW2 2982   0.578   2.019   1.439  0.9116  1.6792 -0.6438
  995SOL     OW 2983   2.360   1.704   2.793  0.1294  0.1755 -0.0960
  995SOL    HW1 2984   2.426   1.632   2.820  1.7283  0.9178 -0.0415
  995SOL    HW2 2985   2.324   1.740   2.879  1.7583 -2.2579  1.7514
  996SOL     OW 2986   2.185   1.600   2.590  0.5591  0.4967 -0.4692
  996SOL    HW1 2987   2.113   1.537   2.631 -1.3559  0.8785 -0.8840
  996SOL    HW2 2988   2.253   1.632   2.656  1.2521  1.0977 -3.4013
  997SOL     OW 2989   1.851   1.423   1.803 -0.4213 -0.3734  0.3066
  997SOL    HW1 2990   1.924   1.490   1.790 -2.4373  0.1021  1.2118
  997SOL    HW2 2991   1.780   1.465   1.858  0.2403 -0.5530 -1.0597
  998SOL     OW 2992   2.203   2.039   1.066  0.6644 -0.4574  0.4276
  998SOL    HW1 2993   2.177   2.068   1.160 -0.0863 -0.1248  0.7492
  998SOL    HW2 2994   2.208   1.939   1.054  1.1719 -1.9844  2.3361
  999SOL     OW 2995   2.261   2.530   0.221 -0.2537  0.1736  0.4396
  999SOL    HW1 2996   2.338   2.593   0.232  1.4636 -0.7097  0.8492
  999SOL    HW2 2997   2.276   2.483   0.133  0.5331 -0.8906 -0.3455
 1000SOL     OW 2998   0.740   3.018   2.474  0.5873 -0.2595  0.2613
 1000SOL    HW1 2999   0.685   0.008   2.466  1.8259  0.1417  3.0810
 1000SOL    HW2 3000   0.828   3.047   2.507 -0.6278  0.3699 -1.2639
   3.09482   3.09482   3.09482
