1000 SPC/Fw water molecules t= 111.00000 step= 111000
 3000
    1SOL     OW    1   2.052   2.443   0.573  0.0853 -0.4877 -0.2070
    1SOL    HW1    2   2.051   2.468   0.473 -1.0364 -2.8451 -0.4380
    1SOL    HW2    3   2.119   2.369   0.601 -1.5959  0.1018  0.6756
    2SOL     OW    4   1.421   1.455   2.154  0.3575 -0.1161  0.2941
    2SOL    HW1    5   1.393   1.520   2.229 -0.6807 -1.2357 -0.3627
    2SOL    HW2    6   1.373   1.480   2.065  1.4718 -0.4147 -0.9623
    3SOL     OW    7   1.593   2.483   2.255  0.0501 -0.2531 -0.6924
    3SOL    HW1    8   1.688   2.457   2.245 -3.4672 -0.6224  2.2123
    3SOL    HW2    9   1.543   2.396   2.273  0.4310 -3.2615  0.2121
    4SOL     OW   10   1.025   2.043   1.976  0.1644  0.0467  0.7164
    4SOL    HW1   11   1.047   1.993   2.065  1.2043 -0.0388  1.6691
    4SOL    HW2   12   1.035   2.142   1.985 -2.1165 -0.9865  0.9450
    5SOL     OW   13   0.466   0.764   1.694 -0.0134 -0.0680  0.5658
    5SOL    HW1   14   0.552   0.805   1.727  0.5474 -0.0508  0.4650
    5SOL    HW2   15   0.469   0.661   1.695 -0.8131 -3.6123  1.2003
    6SOL     OW   16   2.372   0.752   2.877  0.3673 -0.4731 -0.6598
    6SOL    HW1   17   2.331   0.806   2.797 -2.3792  1.0492 -0.7886
    6SOL    HW2   18   2.456   0.705   2.843 -0.2376  1.4387 -0.4612
    7SOL     OW   19   0.725   0.084   1.658 -0.0306  0.1898  0.2023
    7SOL    HW1   20   0.708   0.081   1.755 -1.0499 -1.1021 -1.5983
    7SOL    HW2   21   0.807   0.145   1.639  2.0019  3.8642  0.1179
    8SOL     OW   22   1.645   0.173   1.814 -0.3559  0.2984 -0.3296
    8SOL    HW1   23   1.581   0.219   1.882 -0.3547  0.4581  0.3121
    8SOL    HW2   24   1.696   0.098   1.863  0.3963 -0.5081 -0.0837
    9SOL     OW   25   0.194   0.602   0.505  0.2281  0.2943 -0.1715
    9SOL    HW1   26   0.120   0.535   0.541 -1.8066 -2.2564  0.2958
    9SOL    HW2   27   0.194   0.691   0.561  2.0604  0.3011  0.7670
   10SOL     OW   28   0.912   2.416   2.445  0.4306 -0.5733  0.0581
   10SOL    HW1   29   0.926   2.401   2.543 -3.1639  3.1223  1.6814
   10SOL    HW2   30   0.813   2.397   2.422 -0.7421 -1.9785  1.0029
   11SOL     OW   31   0.829   1.783   2.914 -0.3256 -0.9621 -0.9131
   11SOL    HW1   32   0.822   1.804   3.014  0.3022  0.6424 -2.9823
   11SOL    HW2   33   0.907   1.719   2.895  3.2044  3.1624  0.0381
   12SOL     OW   34   0.193   2.941   1.390  0.5193  0.5423  0.0107
   12SOL    HW1   35   0.116   3.002   1.420 -0.0899 -3.1751  1.4119
   12SOL    HW2   36   0.160   2.845   1.390 -1.2651 -0.2426 -1.7695
   13SOL     OW   37   0.878   2.712   0.062  0.0266 -0.1632 -0.0840
   13SOL    HW1   38   0.955   2.660   0.013  0.3289  0.4027  0.2364
   13SOL    HW2   39   0.847   2.786   3.112  1.2961  1.8172  0.5410
   14SOL     OW   40   1.683   1.880   0.741 -0.3380 -0.4236  0.5466
   14SOL    HW1   41   1.644   1.880   0.833 -1.2762 -0.3763 -0.6102
   14SOL    HW2   42   1.782   1.866   0.747 -1.7351  1.5160 -1.5955
   15SOL     OW   43   2.906   1.454   2.235 -0.5846 -0.3339 -0.0927
   15SOL    HW1   44   2.965   1.473   2.315  0.1033 -1.3849  0.3051
   15SOL    HW2   45   2.807   1.444   2.263 -0.8165 -0.8557 -3.2946
   16SOL     OW   46   1.380   3.062   2.944  0.1374 -0.8045  0.0900
   16SOL    HW1   47   1.323   2.977   2.949 -3.2694 -0.4065 -2.7761
   16SOL    HW2   48   1.363   3.110   2.852 -1.2742 -0.7525 -0.9857
   17SOL     OW   49   0.452   2.323   2.048 -0.1137 -0.0388  0.2643
   17SOL    HW1   50   0.552   2.300   2.027  2.0617 -1.9874  0.0412
   17SOL    HW2   51   0.426   2.307   2.144 -0.8037  1.8637  0.1043
   18SOL     OW   52   1.648   0.909   0.541  0.1228 -0.2823 -0.7039
   18SOL    HW1   53   1.689   0.956   0.460  0.6150 -2.5660  1.5055
   18SOL    HW2   54   1.563   0.860   0.519 -0.5093  1.5907 -0.1811
   19SOL     OW   55   2.447   1.713   2.596  0.1034  0.0566  0.3598
   19SOL    HW1   56   2.383   1.677   2.663  1.3232 -0.3683  1.3364
   19SOL    HW2   57   2.497   1.792   2.640 -1.6559  1.7398 -1.0916
   20SOL     OW   58   2.482   2.007   2.233 -0.0154 -0.0061  0.8888
   20SOL    HW1   59   2.403   1.955   2.271 -1.7075 -0.2958 -3.3544
   20SOL    HW2   60   2.457   2.096   2.193  0.4988 -1.9608 -0.4416
   21SOL     OW   61   0.700   2.024   0.216 -0.3306 -0.3244 -0.0437
   21SOL    HW1   62   0.734   2.070   0.130 -1.3885  1.2087  0.5563
   21SOL    HW2   63   0.613   2.075   0.240 -0.7432 -0.4094 -0.4387
   22SOL     OW   64   2.176   2.451   1.448  0.2949  0.1910 -0.2958
   22SOL    HW1   65   2.136   2.355   1.446 -2.6890 -1.4118  1.1350
   22SOL    HW2   66   2.227   2.476   1.365 -1.5501  2.8372 -4.8672
   23SOL     OW   67   0.293   0.969   1.710 -0.2068  0.0188 -0.4057
   23SOL    HW1   68   0.323   1.057   1.756 -1.2970  1.8357 -1.1224
   23SOL    HW2   69   0.368   0.899   1.707 -0.1506  1.1909 -0.9959
   24SOL     OW   70   2.185   2.080   1.856 -0.2499 -0.3449  0.3741
   24SOL    HW1   71   2.105   2.065   1.916 -0.7185  0.0558 -1.3409
   24SOL    HW2   72   2.272   2.049   1.896  0.0314 -0.6936  2.8085
   25SOL     OW   73   1.806   0.161   2.481 -0.2117  0.1266 -0.0404
   25SOL    HW1   74   1.810   0.229   2.406  1.1714  0.9320  1.7793
   25SOL    HW2   75   1.735   0.091   2.454  0.0954  3.7322 -0.8579
   26SOL     OW   76   1.304   0.005   0.818 -0.3818  0.2708 -0.2175
   26SOL    HW1   77   1.340   3.044   0.762 -1.1851  1.4445  3.3676
   26SOL    HW2   78   1.372   0.081   0.840 -0.7617 -0.4654 -0.8750
   27SOL     OW   79   1.020   1.541   0.134  0.7130 -0.3485  0.1980
   27SOL    HW1   80   1.047   1.558   0.231  2.2910 -0.8023 -0.8041
   27SOL    HW2   81   0.922   1.505   0.119 -1.4367 -0.5607 -0.6823
   28SOL     OW   82   2.755   2.033   1.225 -0.2219  0.4263  0.3779
   28SOL    HW1   83   2.694   1.967   1.174 -2.8122  2.8246 -0.8545
   28SOL    HW2   84   2.707   2.069   1.307 -1.5738  0.4230 -0.3153
   29SOL     OW   85   2.190   2.767   1.731 -0.2365  0.1759  0.3602
   29SOL    HW1   86   2.191   2.808   1.824 -2.9272 -1.7910 -1.1385
   29SOL    HW2   87   2.250   2.688   1.725 -1.0666  2.5714  0.9589
   30SOL     OW   88   0.899   3.010   1.061  0.0407 -0.0117 -0.2511
   30SOL    HW1   89   0.913   3.107   1.026  0.8241  0.7845 -1.6927
   30SOL    HW2   90   0.988   2.966   1.085 -1.1881  0.1136  1.1860
   31SOL     OW   91   2.960   2.221   1.950 -0.2797 -0.0486  0.3521
   31SOL    HW1   92   3.062   2.219   1.949 -0.8074 -0.9227  0.6913
   31SOL    HW2   93   2.930   2.267   2.035  0.4428  3.9347  1.3673
   32SOL     OW   94   1.633   1.305   2.069  0.2555 -0.4503 -0.0880
   32SOL    HW1   95   1.544   1.348   2.094 -0.3996 -1.7159 -1.0640
   32SOL    HW2   96   1.630   1.205   2.042  1.3280  0.2094  2.1101
   33SOL     OW   97   0.321   0.039   2.812 -0.4860  0.2679  0.0797
   33SOL    HW1   98   0.416   0.072   2.792  0.5052  1.9923 -0.9285
   33SOL    HW2   99   0.288   3.104   2.729  1.0583 -1.7074 -2.2799
   34SOL     OW  100   2.148   0.287   1.360 -0.7680  0.2626  0.0641
   34SOL    HW1  101   2.153   0.339   1.449 -0.8839  0.4122 -0.3390
   34SOL    HW2  102   2.059   0.241   1.357  4.7457  1.6898  1.2006
   35SOL     OW  103   2.359   0.414   1.576 -0.4885 -0.6248 -0.4636
   35SOL    HW1  104   2.432   0.350   1.540  1.2925 -0.8270  2.0713
   35SOL    HW2  105   2.314   0.378   1.661  0.5339 -0.2470  0.8459
   36SOL     OW  106   2.448   3.016   2.480 -0.3434 -0.5686  0.1240
   36SOL    HW1  107   2.356   2.966   2.504 -1.3216  0.3921 -0.6338
   36SOL    HW2  108   2.524   2.948   2.490 -1.9050 -0.3458  3.3781
   37SOL     OW  109   1.097   2.388   2.923  0.0049 -0.2961 -0.3868
   37SOL    HW1  110   1.089   2.487   2.955 -1.3804  2.2318 -0.4523
   37SOL    HW2  111   1.156   2.332   2.979  2.3621  0.9819  0.1773
   38SOL     OW  112   2.886   1.091   2.874 -0.3351  0.4910 -0.1733
   38SOL    HW1  113   2.966   1.039   2.915 -0.7349 -2.0829  1.7143
   38SOL    HW2  114   2.807   1.028   2.859  0.0855 -4.2470  0.2495
   39SOL     OW  115   2.116   2.165   2.226 -0.6579 -0.2081 -0.4710
   39SOL    HW1  116   2.127   2.066   2.200 -0.6590 -0.9613 -1.5211
   39SOL    HW2  117   2.110   2.175   2.328  0.7788 -2.9556  1.2205
   40SOL     OW  118   0.710   0.257   2.960  0.0754 -0.6519 -0.2785
   40SOL    HW1  119   0.669   0.235   3.052 -1.5440 -0.3810  1.0613
   40SOL    HW2  120   0.812   0.246   2.955  2.4482  1.1923  0.8578
   41SOL     OW  121   1.453   1.089   1.456 -0.8288 -0.0491  0.2771
   41SOL    HW1  122   1.551   1.082   1.488 -0.4978  0.2764  1.1460
   41SOL    HW2  123   1.397   1.041   1.533 -2.6737 -0.9993  1.6131
   42SOL     OW  124   0.210   0.295   2.181 -0.4093  0.5330 -0.2859
   42SOL    HW1  125   0.141   0.358   2.144 -1.0102  0.0936 -1.2642
   42SOL    HW2  126   0.303   0.336   2.175 -0.8481 -2.7528  1.3876
   43SOL     OW  127   1.825   1.333   2.254 -0.2501  0.6084 -0.6420
   43SOL    HW1  128   1.782   1.320   2.348 -0.6387  1.2074  1.6105
   43SOL    HW2  129   1.762   1.318   2.179 -0.0693 -2.0722 -0.8860
   44SOL     OW  130   3.113   3.015   3.012 -0.0290 -0.7211  0.0237
   44SOL    HW1  131   0.043   3.072   3.083  0.1738  0.0798  0.8834
   44SOL    HW2  132   3.107   2.920   3.041  1.2089  1.5936 -0.8389
   45SOL     OW  133   0.703   1.982   1.211  0.2700 -0.0970 -0.3650
   45SOL    HW1  134   0.668   2.078   1.212  0.1640  0.3590  0.3363
   45SOL    HW2  135   0.631   1.914   1.230  0.0778 -0.2593  4.2540
   46SOL     OW  136   2.525   2.633   1.875  0.4376  0.5971  0.1614
   46SOL    HW1  137   2.619   2.637   1.836  0.1906 -0.5110 -0.7168
   46SOL    HW2  138   2.457   2.607   1.802  0.3414 -0.3334  0.3793
   47SOL     OW  139   1.109   1.753   1.244 -0.4125 -0.3789  0.0780
   47SOL    HW1  140   1.062   1.846   1.244  2.2392 -0.1197  1.0785
   47SOL    HW2  141   1.046   1.675   1.228 -1.1035 -0.9614 -3.1542
   48SOL     OW  142   0.166   2.218   0.172 -0.2852  0.6428 -0.4999
   48SOL    HW1  143   0.112   2.270   0.239 -1.6306 -0.1597  2.8219
   48SOL    HW2  144   0.265   2.204   0.201  1.9055 -0.0569  0.0214
   49SOL     OW  145   3.060   1.328   2.067 -0.8021  0.2180  0.0217
   49SOL    HW1  146   0.021   1.395   2.048 -0.1729  2.3423 -5.2089
   49SOL    HW2  147   2.998   1.366   2.137 -1.7410  0.4974 -1.7088
   50SOL     OW  148   2.136   0.893   0.677  0.2517  0.5650  0.9488
   50SOL    HW1  149   2.123   0.982   0.634  2.7167  0.9857  0.4537
   50SOL    HW2  150   2.044   0.853   0.684 -2.1759  0.8284 -1.6660
   51SOL     OW  151   1.008   0.768   0.716  0.2344  0.0695 -0.1164
   51SOL    HW1  152   0.959   0.838   0.659 -2.6309 -1.8826 -0.0874
   51SOL    HW2  153   0.938   0.736   0.784 -1.4215 -0.4082  1.1410
   52SOL     OW  154   1.501   1.106   0.169  0.3451  0.2072  0.2310
   52SOL    HW1  155   1.551   1.017   0.174 -2.2560 -1.6167 -0.7317
   52SOL    HW2  156   1.480   1.146   0.263  0.2835  0.1277  1.7558
   53SOL     OW  157   1.228   2.279   2.652  0.3234 -0.3689  0.7272
   53SOL    HW1  158   1.209   2.179   2.662 -3.7885  0.5053  0.9666
   53SOL    HW2  159   1.155   2.328   2.704  1.7042 -0.1213 -0.8944
   54SOL     OW  160   1.527   0.767   1.662 -0.2510 -0.0412 -0.1579
   54SOL    HW1  161   1.453   0.838   1.680 -3.8948  1.5996  1.7260
   54SOL    HW2  162   1.520   0.737   1.564  2.0171 -0.3062  2.4393
   55SOL     OW  163   2.643   2.944   0.444 -0.2772 -0.1279  0.1697
   55SOL    HW1  164   2.569   2.873   0.436  0.6298  1.0566  1.3044
   55SOL    HW2  165   2.679   2.943   0.539  1.4807 -0.6254  2.2068
   56SOL     OW  166   0.713   2.729   1.747  0.2097 -0.2195 -0.2401
   56SOL    HW1  167   0.697   2.706   1.846 -1.2418  1.2860  3.2349
   56SOL    HW2  168   0.631   2.716   1.684  1.5271  6.1487 -1.3710
   57SOL     OW  169   2.066   0.693   2.670 -0.0453 -0.0347 -0.4082
   57SOL    HW1  170   2.048   0.619   2.606  0.4897 -0.9765  2.1255
   57SOL    HW2  171   2.028   0.670   2.758  1.4131  1.4223 -1.1399
   58SOL     OW  172   2.989   1.210   1.838 -0.3031 -0.1718 -0.2792
   58SOL    HW1  173   3.018   1.244   1.932 -0.3335 -1.0305  1.9846
   58SOL    HW2  174   2.908   1.256   1.810 -0.4394 -3.5407  0.5999
   59SOL     OW  175   0.554   2.857   2.361  0.1915 -0.0695 -0.0479
   59SOL    HW1  176   0.613   2.778   2.342 -1.1584  1.3648 -1.5538
   59SOL    HW2  177   0.456   2.837   2.331  0.5731 -0.5765  1.1067
   60SOL     OW  178   2.645   2.293   0.797 -0.2365 -0.3607  0.5167
   60SOL    HW1  179   2.646   2.224   0.723  0.5103 -2.0570 -2.8740
   60SOL    HW2  180   2.699   2.263   0.882 -0.0262  0.9349  1.1441
   61SOL     OW  181   0.929   1.979   0.355  0.5980 -0.0483 -0.5673
   61SOL    HW1  182   0.842   1.999   0.309 -0.1872  1.6942 -2.1023
   61SOL    HW2  183   0.960   2.060   0.412  2.0681 -0.4402 -0.0696
   62SOL     OW  184   2.200   2.785   2.917 -0.1960  0.2914  0.3160
   62SOL    HW1  185   2.299   2.785   2.885 -1.8293  0.6011 -1.8298
   62SOL    HW2  186   2.149   2.825   2.841  2.2657 -0.8562 -1.8271
   63SOL     OW  187   1.850   0.357   0.023 -0.1672  0.1101 -1.0743
   63SOL    HW1  188   1.798   0.387   3.061  3.2886  1.3083  0.7107
   63SOL    HW2  189   1.936   0.415   0.035 -0.7055  3.8105 -1.1916
   64SOL     OW  190   0.739   1.052   2.558  0.2795 -0.5543 -0.0310
   64SOL    HW1  191   0.833   1.026   2.591  1.6589  1.9618  2.2306
   64SOL    HW2  192   0.672   1.024   2.624  1.1334  1.1521 -0.0787
   65SOL     OW  193   1.379   2.970   0.604 -0.0430  0.0531  0.1838
   65SOL    HW1  194   1.403   2.871   0.598 -1.2651  2.0402  0.6035
   65SOL    HW2  195   1.309   2.990   0.538 -2.6298 -1.5840  0.1548
   66SOL     OW  196   0.343   1.211   1.809  0.2400 -0.3281  0.1601
   66SOL    HW1  197   0.311   1.283   1.877 -2.3711  0.9069  0.0428
   66SOL    HW2  198   0.443   1.226   1.783 -1.0741 -2.3495 -0.3112
   67SOL     OW  199   2.207   3.061   2.235  0.0690  0.3346 -0.3925
   67SOL    HW1  200   2.176   2.982   2.176  0.0782  1.3773 -2.4462
   67SOL    HW2  201   2.309   3.053   2.241  1.9607 -0.8356  1.5964
   68SOL     OW  202   0.935   0.647   1.831 -0.4054 -0.2263 -0.2941
   68SOL    HW1  203   0.890   0.583   1.765  0.4761  0.6171 -1.5441
   68SOL    HW2  204   0.881   0.733   1.838 -0.0204 -2.6115  1.1814
   69SOL     OW  205   2.064   2.951   0.432 -0.2007  0.2123 -0.1222
   69SOL    HW1  206   2.066   2.856   0.469  0.2287  1.4061  0.5599
   69SOL    HW2  207   1.990   2.956   0.362  1.1706 -2.1320  0.0293
   70SOL     OW  208   2.620   0.660   2.845 -0.0503 -0.2638 -0.0618
   70SOL    HW1  209   2.640   0.664   2.746  1.3649  3.4379  1.6962
   70SOL    HW2  210   2.674   0.580   2.889  4.3900 -1.5458  2.9838
   71SOL     OW  211   2.747   1.905   0.199 -0.0950 -0.4695 -0.0733
   71SOL    HW1  212   2.719   1.820   0.149  1.3683 -0.9817 -2.5207
   71SOL    HW2  213   2.828   1.943   0.152  0.7351  0.5043 -0.2637
   72SOL     OW  214   3.015   1.822   0.453  0.4444 -0.2075 -0.1362
   72SOL    HW1  215   2.919   1.864   0.447 -2.5461  2.7029 -1.3853
   72SOL    HW2  216   3.037   1.816   0.552 -0.1766 -0.4186 -3.1683
   73SOL     OW  217   0.848   0.965   0.591 -0.2944  0.0180 -0.4310
   73SOL    HW1  218   0.786   1.027   0.644  0.0527  1.4249 -1.1896
   73SOL    HW2  219   0.808   0.904   0.521  0.6484  0.2182  1.1185
   74SOL     OW  220   0.142   2.168   1.979 -0.5811  0.3229 -0.3611
   74SOL    HW1  221   0.121   2.069   1.967 -3.6554 -1.3484  2.4531
   74SOL    HW2  222   0.240   2.196   1.951  1.4481 -0.1123  1.2519
   75SOL     OW  223   1.812   1.396   1.330  0.2732 -0.5775  0.0548
   75SOL    HW1  224   1.748   1.413   1.251 -1.6966  0.2705  0.3355
   75SOL    HW2  225   1.755   1.360   1.403 -0.4825  0.2171  1.1651
   76SOL     OW  226   2.094   2.447   0.991 -0.3305  0.1010 -0.4671
   76SOL    HW1  227   2.004   2.429   0.941 -1.7881  1.3879 -0.5761
   76SOL    HW2  228   2.108   2.549   0.994  0.5358  2.2243 -1.8323
   77SOL     OW  229   2.553   1.793   1.700  0.2344 -0.0275  0.0253
   77SOL    HW1  230   2.521   1.868   1.761  2.7918 -0.5291 -0.0996
   77SOL    HW2  231   2.646   1.804   1.666 -1.4569  1.5042 -1.8562
   78SOL     OW  232   1.397   0.825   0.436  0.0931  0.3954  0.4048
   78SOL    HW1  233   1.314   0.877   0.419  1.8996 -3.2011  1.3039
   78SOL    HW2  234   1.428   0.783   0.350 -0.0585  1.3471  2.1855
   79SOL     OW  235   2.139   1.706   1.539 -1.0805 -0.4562  0.2269
   79SOL    HW1  236   2.118   1.790   1.588  0.6841 -2.1002 -0.0585
   79SOL    HW2  237   2.209   1.655   1.594 -0.3629 -1.4749 -2.5800
   80SOL     OW  238   0.858   0.478   1.648  0.5521 -0.4459  0.4800
   80SOL    HW1  239   0.928   0.415   1.615 -0.3287 -0.5060  1.0947
   80SOL    HW2  240   0.774   0.466   1.590  0.5060 -2.0729 -1.3005
   81SOL     OW  241   0.460   2.265   0.752  0.0210  0.5378  0.4339
   81SOL    HW1  242   0.418   2.183   0.709 -0.9017 -0.1717 -1.9267
   81SOL    HW2  243   0.560   2.245   0.772  3.8097  0.2969  0.7613
   82SOL     OW  244   1.251   0.246   1.843 -0.2408  0.0387  0.3175
   82SOL    HW1  245   1.221   0.173   1.909  2.8005  0.5721 -1.2638
   82SOL    HW2  246   1.350   0.275   1.874  2.8912  1.9824 -0.5066
   83SOL     OW  247   0.851   1.740   0.439 -0.1182  0.2220 -0.4513
   83SOL    HW1  248   0.896   1.829   0.422 -1.5077 -1.1394  0.3790
   83SOL    HW2  249   0.750   1.753   0.440  0.8893 -0.4380  0.0597
   84SOL     OW  250   2.744   1.435   0.006 -0.3820 -0.0043 -0.3648
   84SOL    HW1  251   2.689   1.352   0.021 -1.1374 -0.9320 -1.3033
   84SOL    HW2  252   2.836   1.417   3.077  2.0196 -1.4884 -2.0228
   85SOL     OW  253   0.075   2.382   1.009 -0.1346  0.3435  0.7406
   85SOL    HW1  254   0.061   2.339   0.920  1.6524  3.0187 -0.5813
   85SOL    HW2  255   0.172   2.366   1.036  0.3729 -0.1713 -0.6390
   86SOL     OW  256   2.060   2.982   1.242  0.3436  0.5906 -0.0479
   86SOL    HW1  257   1.991   3.033   1.189 -0.6322 -2.5657 -0.0535
   86SOL    HW2  258   2.039   2.886   1.231 -0.0730  1.9200  1.1828
   87SOL     OW  259   3.063   1.791   0.707 -0.5789  0.1209 -0.2877
   87SOL    HW1  260   3.097   1.876   0.757 -0.5019  3.8911  1.6702
   87SOL    HW2  261   3.113   1.707   0.747  3.7468 -0.3544 -1.8814
   88SOL     OW  262   0.632   0.429   1.474 -0.0961 -0.0857  0.0987
   88SOL    HW1  263   0.605   0.517   1.422 -1.6830  2.3574 -0.4096
   88SOL    HW2  264   0.678   0.359   1.415 -0.0943 -0.4001 -0.2220
   89SOL     OW  265   1.070   2.681   1.718  0.0830 -0.4313 -0.5218
   89SOL    HW1  266   1.157   2.705   1.678 -1.9103  1.4562  1.0855
   89SOL    HW2  267   0.995   2.710   1.655  0.4305  0.9534 -0.0217
   90SOL     OW  268   0.181   1.964   1.149 -0.0947 -0.5190  0.2490
   90SOL    HW1  269   0.151   1.874   1.183 -2.5317  1.5495  0.9647
   90SOL    HW2  270   0.115   2.034   1.183  0.0230  0.9473 -0.9300
   91SOL     OW  271   1.146   2.204   1.197 -0.0663 -0.5750  0.7222
   91SOL    HW1  272   1.128   2.293   1.154  1.5959 -0.1780 -0.1478
   91SOL    HW2  273   1.200   2.211   1.283  2.7519  0.4434  2.7329
   92SOL     OW  274   2.848   2.954   1.440  0.5834 -0.3996  0.0429
   92SOL    HW1  275   2.797   3.025   1.391 -0.6663 -3.8739  1.2338
   92SOL    HW2  276   2.926   3.003   1.485 -1.5068 -1.2181  0.2537
   93SOL     OW  277   3.004   1.305   3.013 -0.4954 -0.0220 -0.1198
   93SOL    HW1  278   2.964   1.219   2.969 -1.6252  4.3915  1.0904
   93SOL    HW2  279   3.050   1.274   3.100  0.4407 -0.9317 -0.6644
   94SOL     OW  280   2.856   2.589   2.230  0.3421  0.1127  0.0812
   94SOL    HW1  281   2.858   2.686   2.190  0.0570 -0.1469  2.3310
   94SOL    HW2  282   2.853   2.591   2.331  0.5295  2.1756 -0.7715
   95SOL     OW  283   1.403   0.563   2.125  0.0428 -0.1587  0.1592
   95SOL    HW1  284   1.504   0.588   2.136  1.3476  0.4911 -1.3882
   95SOL    HW2  285   1.338   0.642   2.129 -0.1782 -1.6438 -0.3225
   96SOL     OW  286   2.675   0.477   1.974  0.1856 -0.1108  0.2638
   96SOL    HW1  287   2.688   0.471   1.870 -1.2480  1.1063 -1.6658
   96SOL    HW2  288   2.758   0.525   2.009  1.5333  0.0805 -0.1069
   97SOL     OW  289   2.314   0.086   1.536 -0.1560 -0.0809 -0.2587
   97SOL    HW1  290   2.276   0.163   1.481 -0.9456  2.8023  0.9453
   97SOL    HW2  291   2.388   0.112   1.597 -3.7754  0.2076 -0.2208
   98SOL     OW  292   2.346   3.050   1.285 -0.5109 -0.1255  0.5229
   98SOL    HW1  293   2.344   3.106   1.370 -2.6786  0.9620  1.1301
   98SOL    HW2  294   2.248   3.032   1.258  0.1299  0.6473  0.0290
   99SOL     OW  295   2.784   0.232   2.057  0.6820  0.5758  0.4850
   99SOL    HW1  296   2.851   0.214   1.986 -0.2212 -1.6697  0.5200
   99SOL    HW2  297   2.738   0.319   2.039  1.8085  2.6253 -2.7025
  100SOL     OW  298   1.951   1.522   1.776  0.4735 -0.3980  0.1412
  100SOL    HW1  299   1.936   1.621   1.775  1.4884 -0.7046  0.9614
  100SOL    HW2  300   1.863   1.479   1.805 -0.7322 -0.2060 -1.4344
  101SOL     OW  301   1.735   0.030   0.803 -0.5479  0.1567 -0.5396
  101SOL    HW1  302   1.732   0.044   0.905 -0.4327  1.8095  2.4589
  101SOL    HW2  303   1.658   0.078   0.758 -0.8130  0.6879 -1.3034
  102SOL     OW  304   0.361   0.781   1.439  0.2879 -0.1685 -0.2756
  102SOL    HW1  305   0.426   0.727   1.378 -0.0183  0.1861 -2.2687
  102SOL    HW2  306   0.388   0.793   1.537  0.1986  2.5785  1.1281
  103SOL     OW  307   2.769   0.502   2.992  0.0362 -0.0664  0.3812
  103SOL    HW1  308   2.819   0.432   2.929  2.5729 -1.5976 -0.7670
  103SOL    HW2  309   2.673   0.474   3.008 -2.6546  1.3320 -1.8772
  104SOL     OW  310   2.799   3.062   1.912 -0.1944 -0.3762  0.4708
  104SOL    HW1  311   2.877   0.011   1.882  1.2734  2.8603  0.6354
  104SOL    HW2  312   2.716   3.108   1.948 -0.1876 -0.2889 -0.0871
  105SOL     OW  313   1.747   0.881   2.168  0.4876 -0.4384 -0.3147
  105SOL    HW1  314   1.733   0.779   2.157  0.4370  1.8754  2.1899
  105SOL    HW2  315   1.846   0.906   2.175  1.6954  0.4414  0.0328
  106SOL     OW  316   1.649   0.263   1.045 -0.8400 -0.2365  0.2843
  106SOL    HW1  317   1.745   0.284   1.030 -1.6919 -1.2783  2.0508
  106SOL    HW2  318   1.611   0.286   1.134 -1.3752 -1.1086  1.1163
  107SOL     OW  319   0.707   1.121   0.790 -0.1059 -0.4205  0.0431
  107SOL    HW1  320   0.619   1.164   0.817  1.7233  2.5789 -0.4371
  107SOL    HW2  321   0.784   1.180   0.821 -1.0876 -0.8282  0.0627
  108SOL     OW  322   2.992   0.493   2.508  0.5424 -0.0192  0.0653
  108SOL    HW1  323   3.023   0.398   2.504 -1.1343  1.7698 -0.4156
  108SOL    HW2  324   2.896   0.500   2.474  1.4501 -2.4227 -1.7689
  109SOL     OW  325   2.006   0.133   0.194 -0.1384  0.1344 -0.1331
  109SOL    HW1  326   1.935   0.077   0.151  1.7362 -0.4663 -0.4036
  109SOL    HW2  327   1.973   0.221   0.235  1.7529  1.3238 -0.0072
  110SOL     OW  328   3.011   1.940   2.770 -0.4456  0.0049 -0.1253
  110SOL    HW1  329   2.969   2.021   2.732 -2.4140 -3.3002 -0.9238
  110SOL    HW2  330   3.108   1.953   2.809  1.8140 -0.8648  1.1001
  111SOL     OW  331   2.127   0.214   2.310 -0.3634  0.3826 -0.2522
  111SOL    HW1  332   2.170   0.121   2.286 -1.3703 -0.3162 -1.4650
  111SOL    HW2  333   2.141   0.230   2.411  0.6040 -2.8784 -0.3714
  112SOL     OW  334   2.550   3.116   1.098 -0.2348 -0.3990  0.0244
  112SOL    HW1  335   2.585   3.040   1.042 -1.0822 -1.4796  1.8900
  112SOL    HW2  336   2.463   3.084   1.139 -1.9688  1.3245  2.9925
  113SOL     OW  337   2.366   2.565   1.669  0.8934 -0.0699  0.2708
  113SOL    HW1  338   2.427   2.606   1.600 -1.3206 -0.4304 -1.4789
  113SOL    HW2  339   2.325   2.474   1.640 -2.9645 -2.2100 -3.3308
  114SOL     OW  340   2.914   0.006   0.779 -0.4064  0.6252 -0.1403
  114SOL    HW1  341   2.964   0.032   0.692 -1.4911 -0.6759 -3.1410
  114SOL    HW2  342   2.854   3.046   0.759 -1.2268  2.7843 -0.5744
  115SOL     OW  343   2.754   1.698   3.100  0.5057 -0.3470 -0.2044
  115SOL    HW1  344   2.859   1.712   3.094  1.8369  0.5800 -1.3007
  115SOL    HW2  345   2.741   1.604   0.016 -1.1070  0.8228  3.5801
  116SOL     OW  346   0.096   1.550   1.950 -0.0552 -0.1904  0.8521
  116SOL    HW1  347   0.023   1.612   1.993  0.8286  1.0997 -0.5316
  116SOL    HW2  348   0.085   1.550   1.850 -1.3914 -1.5127 -0.3633
  117SOL     OW  349   2.615   2.880   0.939 -0.2960  0.6499  0.0482
  117SOL    HW1  350   2.669   2.826   1.010 -0.7175 -0.7000  0.1712
  117SOL    HW2  351   2.529   2.825   0.920 -1.9544  0.8045 -2.7593
  118SOL     OW  352   0.490   2.460   1.656 -0.1743 -0.0912  0.0032
  118SOL    HW1  353   0.414   2.426   1.601  2.6847 -2.2216 -1.2745
  118SOL    HW2  354   0.569   2.404   1.624 -1.1672  0.8166 -0.1727
  119SOL     OW  355   1.473   2.249   1.046  0.2246  0.7934  0.2562
  119SOL    HW1  356   1.430   2.337   1.016 -0.7077 -0.2398  1.1633
  119SOL    HW2  357   1.561   2.257   1.094 -1.0427 -1.6141  0.3605
  120SOL     OW  358   0.661   1.983   2.086  0.3477 -0.1013  0.8256
  120SOL    HW1  359   0.609   1.901   2.119  0.5437 -0.5354  0.4551
  120SOL    HW2  360   0.710   2.022   2.163 -0.2436 -1.1206  0.1942
  121SOL     OW  361   2.346   1.511   1.068 -0.3220 -0.3399  0.1725
  121SOL    HW1  362   2.407   1.562   1.136 -0.3399 -1.4222 -1.7973
  121SOL    HW2  363   2.252   1.547   1.063  0.1232 -0.1005 -2.5134
  122SOL     OW  364   1.948   1.754   2.437  0.0894 -0.0235 -0.1877
  122SOL    HW1  365   1.947   1.765   2.335  2.7275  1.3551  0.0484
  122SOL    HW2  366   2.044   1.734   2.472 -0.3854  0.3441 -0.5551
  123SOL     OW  367   2.739   2.928   0.704  0.4816  0.5398  0.1623
  123SOL    HW1  368   2.814   2.864   0.700 -0.8647  0.0045 -0.1854
  123SOL    HW2  369   2.676   2.897   0.776  2.9343  1.2047  0.0783
  124SOL     OW  370   1.417   1.131   2.843  0.0310 -0.0450 -0.4313
  124SOL    HW1  371   1.382   1.123   2.938  2.5805 -0.5618 -0.1290
  124SOL    HW2  372   1.481   1.205   2.839 -2.3234 -0.8397 -1.9534
  125SOL     OW  373   0.262   1.634   2.578  0.3450  0.2154 -0.6240
  125SOL    HW1  374   0.246   1.655   2.482 -1.5118 -4.3837  1.7896
  125SOL    HW2  375   0.290   1.537   2.587  0.0398 -0.7253 -0.0280
  126SOL     OW  376   2.810   1.985   0.459  0.6442 -0.0200  0.0914
  126SOL    HW1  377   2.849   2.078   0.456  0.1045 -0.5783  0.0569
  126SOL    HW2  378   2.768   1.965   0.369  3.6202 -2.1052 -0.3274
  127SOL     OW  379   0.427   1.707   0.866 -0.7137 -0.5548  0.0409
  127SOL    HW1  380   0.374   1.623   0.849  2.4220 -0.1848 -0.1010
  127SOL    HW2  381   0.378   1.793   0.842  1.7500 -0.6375 -2.0084
  128SOL     OW  382   1.674   0.870   0.111 -0.0633  0.9798 -0.1718
  128SOL    HW1  383   1.696   0.777   0.146  1.3267  0.4052  0.9787
  128SOL    HW2  384   1.689   0.885   0.013 -0.3307  0.0366  1.0447
  129SOL     OW  385   2.159   1.791   1.281  0.3046 -0.0806  0.5191
  129SOL    HW1  386   2.172   1.888   1.297 -1.0216 -1.3097 -0.8653
  129SOL    HW2  387   2.148   1.743   1.370  1.5895  1.3847  1.4627
  130SOL     OW  388   2.034   1.360   0.341 -0.0973 -0.1703 -0.1283
  130SOL    HW1  389   2.106   1.295   0.322 -1.4110 -1.9029 -0.4299
  130SOL    HW2  390   2.067   1.457   0.331  1.5019  2.2589  0.1943
  131SOL     OW  391   2.871   1.283   2.681  0.0996  0.1489 -0.3547
  131SOL    HW1  392   2.861   1.219   2.760 -0.4628 -0.3375  1.2973
  131SOL    HW2  393   2.824   1.376   2.701  0.4463  5.2347  0.3908
  132SOL     OW  394   1.898   1.800   1.762 -0.3982  0.3342  0.2094
  132SOL    HW1  395   1.960   1.863   1.708  1.1915  2.4509 -0.7198
  132SOL    HW2  396   1.811   1.800   1.710 -0.5553  0.2659 -1.0299
  133SOL     OW  397   0.264   1.127   0.020  0.1168 -0.4309  0.0737
  133SOL    HW1  398   0.329   1.079   0.074 -0.4336  0.1495 -0.8018
  133SOL    HW2  399   0.229   1.209   0.071 -1.1419 -1.1900  0.1426
  134SOL     OW  400   2.708   1.230   0.356  0.2253 -0.0793 -0.5090
  134SOL    HW1  401   2.760   1.151   0.317  1.1045  3.0488  1.5045
  134SOL    HW2  402   2.751   1.321   0.345  1.3187  1.0990  0.4992
  135SOL     OW  403   2.718   0.954   0.483 -0.5888 -0.3941 -0.1386
  135SOL    HW1  404   2.721   0.901   0.571 -0.6759  0.8625 -2.5073
  135SOL    HW2  405   2.623   0.957   0.441 -1.5722 -0.3865 -2.0267
  136SOL     OW  406   1.904   1.650   1.412  0.5822 -0.3737 -0.1195
  136SOL    HW1  407   1.973   1.669   1.481 -3.5549 -0.4163 -1.7934
  136SOL    HW2  408   1.892   1.552   1.396  0.8849 -0.0174  0.4258
  137SOL     OW  409   2.412   2.409   0.755  0.2596  0.0161  0.0334
  137SOL    HW1  410   2.502   2.365   0.764 -2.7739 -0.4097  1.9835
  137SOL    HW2  411   2.420   2.501   0.710  1.0291 -1.3560 -0.6903
  138SOL     OW  412   1.919   0.265   1.803  0.0051  0.3391 -0.1201
  138SOL    HW1  413   1.824   0.233   1.787  0.2810 -0.8620  2.1645
  138SOL    HW2  414   1.920   0.331   1.881  0.9049  2.1584  2.3310
  139SOL     OW  415   2.458   0.161   0.127 -0.1280 -0.7620  0.3836
  139SOL    HW1  416   2.472   0.162   0.230 -1.5981 -1.2095  2.0283
  139SOL    HW2  417   2.473   0.070   0.093 -1.1803  2.6561 -0.3875
  140SOL     OW  418   1.384   1.831   2.586 -0.0255  0.2646 -0.1892
  140SOL    HW1  419   1.458   1.813   2.522 -1.4824  3.3713  1.7155
  140SOL    HW2  420   1.371   1.759   2.654  2.2192  1.1738 -1.1016
  141SOL     OW  421   0.829   0.952   2.102 -0.1764 -0.5958  0.0486
  141SOL    HW1  422   0.782   0.952   2.194  0.3741 -0.1271 -3.3588
  141SOL    HW2  423   0.899   0.879   2.097 -0.5902  1.2230  1.3787
  142SOL     OW  424   2.066   2.584   3.046  0.3569  0.2560 -0.1885
  142SOL    HW1  425   2.126   2.639   2.987  0.8877 -0.5426 -1.5986
  142SOL    HW2  426   2.112   2.492   3.051 -0.8410  0.1830 -3.1438
  143SOL     OW  427   1.063   2.156   0.112  0.4135 -0.2217 -0.3836
  143SOL    HW1  428   1.141   2.164   0.043 -0.9314  0.3475 -1.0608
  143SOL    HW2  429   1.043   2.061   0.129  0.4067  0.6011  0.5153
  144SOL     OW  430   1.366   2.592   0.145 -0.0381  0.1823  0.6011
  144SOL    HW1  431   1.344   2.621   0.050 -0.6302  0.1445 -1.4385
  144SOL    HW2  432   1.461   2.552   0.143 -1.6189 -3.2393 -0.9168
  145SOL     OW  433   2.063   1.805   2.698 -0.0242  0.0684  0.1791
  145SOL    HW1  434   2.143   1.865   2.683 -1.2481  0.3141  1.6869
  145SOL    HW2  435   1.980   1.858   2.680  4.2158  0.5691  0.3356
  146SOL     OW  436   2.457   2.649   2.841  0.0436  0.2658  0.3620
  146SOL    HW1  437   2.529   2.724   2.850  2.2889  1.5359  0.0401
  146SOL    HW2  438   2.488   2.577   2.902  0.7889  3.3761 -0.6489
  147SOL     OW  439   2.844   1.613   1.276 -0.5571  0.2117 -0.5458
  147SOL    HW1  440   2.812   1.632   1.182  0.3090  1.9455  2.8870
  147SOL    HW2  441   2.778   1.550   1.334 -1.9246 -0.3101  2.6209
  148SOL     OW  442   1.910   0.063   3.051 -0.6673  0.1896  0.1327
  148SOL    HW1  443   1.920   0.165   3.058 -1.5199  1.1370 -0.2265
  148SOL    HW2  444   1.902   0.037   2.953  1.2220  0.0712 -3.0468
  149SOL     OW  445   0.659   1.630   2.729 -0.2918  0.3556 -0.1137
  149SOL    HW1  446   0.636   1.659   2.823 -2.1233 -0.4290  1.8495
  149SOL    HW2  447   0.607   1.680   2.652 -0.8163  2.7013 -1.3775
  150SOL     OW  448   0.451   2.163   0.218  0.0038  0.3526  0.2956
  150SOL    HW1  449   0.511   2.245   0.207  0.0623 -0.2082 -1.2509
  150SOL    HW2  450   0.448   2.112   0.135 -0.8816  3.0109  2.2725
  151SOL     OW  451   0.537   1.610   0.249  0.4632 -0.2303  0.5760
  151SOL    HW1  452   0.476   1.532   0.272 -0.0783  2.2103 -0.8379
  151SOL    HW2  453   0.507   1.657   0.159 -1.9992  2.6124 -1.4088
  152SOL     OW  454   2.763   1.732   0.693  0.3213  0.0121  0.1827
  152SOL    HW1  455   2.751   1.658   0.761  0.4362  0.1195 -3.1637
  152SOL    HW2  456   2.865   1.745   0.678  1.8007 -0.6906  2.1551
  153SOL     OW  457   2.067   2.469   0.312 -0.2246  0.5299  0.3616
  153SOL    HW1  458   1.985   2.418   0.267 -3.3866 -2.1505 -0.8689
  153SOL    HW2  459   2.108   2.541   0.251  1.4168  2.0388 -0.1090
  154SOL     OW  460   0.783   2.792   0.540  0.1027  0.4223 -0.0195
  154SOL    HW1  461   0.851   2.809   0.614  1.0738  1.2989 -0.4875
  154SOL    HW2  462   0.712   2.867   0.544  0.1424  2.5885  0.7600
  155SOL     OW  463   0.240   1.918   0.880  0.4163 -0.0082  0.4048
  155SOL    HW1  464   0.233   1.926   0.984  0.5205  0.2477  0.2114
  155SOL    HW2  465   0.160   1.961   0.836  1.5833 -1.0610  2.7745
  156SOL     OW  466   2.393   2.429   0.077 -0.1098  0.6980  0.4062
  156SOL    HW1  467   2.480   2.434   0.022  0.4534 -2.3980 -1.2627
  156SOL    HW2  468   2.410   2.407   0.176 -0.6426  1.5578 -0.5089
  157SOL     OW  469   0.713   1.667   1.515  0.5454  0.2584 -0.7626
  157SOL    HW1  470   0.733   1.765   1.522 -0.1747 -1.8509 -0.1764
  157SOL    HW2  471   0.717   1.630   1.420  2.3016 -0.9708 -0.7624
  158SOL     OW  472   1.717   0.603   0.154 -0.3822 -0.4418 -0.2216
  158SOL    HW1  473   1.641   0.614   0.092 -0.4810  0.4206  2.7652
  158SOL    HW2  474   1.706   0.515   0.207 -0.9682 -0.0898  0.1372
  159SOL     OW  475   1.229   0.834   3.067  0.0222 -0.0810  0.1596
  159SOL    HW1  476   1.306   0.781   3.023  2.7821 -1.1346 -0.0308
  159SOL    HW2  477   1.262   0.931   3.082 -0.5250  1.6835 -0.3058
  160SOL     OW  478   0.994   1.392   0.666 -0.8502  0.2584  0.6834
  160SOL    HW1  479   1.092   1.420   0.661 -0.0930 -1.2617 -2.3521
  160SOL    HW2  480   0.972   1.331   0.748  1.8348  0.7653  2.6945
  161SOL     OW  481   3.090   2.281   2.827 -0.3987  0.3977  0.0978
  161SOL    HW1  482   3.015   2.239   2.769 -2.9025 -0.9587 -5.0804
  161SOL    HW2  483   0.065   2.258   2.789  4.3143 -0.5660 -2.1893
  162SOL     OW  484   0.383   2.328   1.057  0.1257 -0.2127 -0.2896
  162SOL    HW1  485   0.435   2.296   0.974 -0.3813 -1.2732  0.4309
  162SOL    HW2  486   0.382   2.249   1.126  0.0735 -0.8709  1.6691
  163SOL     OW  487   0.032   0.640   2.954 -0.4868  0.1846  0.3909
  163SOL    HW1  488   0.129   0.659   2.987  2.1598 -1.2928  1.0803
  163SOL    HW2  489   3.088   0.659   3.033  2.7783  1.4621  0.4466
  164SOL     OW  490   0.569   0.142   2.772 -0.0388 -0.2003 -0.2539
  164SOL    HW1  491   0.607   0.207   2.844  1.0192  2.2238  1.0325
  164SOL    HW2  492   0.647   0.108   2.719 -2.4509  2.6077  0.8668
  165SOL     OW  493   2.314   0.383   1.861 -0.4332  0.1134  0.1978
  165SOL    HW1  494   2.361   0.426   1.943 -0.2694 -0.3382 -0.5180
  165SOL    HW2  495   2.241   0.448   1.825 -1.0898  0.2441 -1.6565
  166SOL     OW  496   2.121   2.980   1.580 -0.1108 -0.2657 -0.3142
  166SOL    HW1  497   2.150   2.899   1.635  1.1445  1.2423  0.3123
  166SOL    HW2  498   2.204   3.039   1.560  0.7993  0.6933  1.1037
  167SOL     OW  499   1.043   0.557   2.304  0.3068  0.1007  0.1684
  167SOL    HW1  500   1.017   0.465   2.340 -0.9631  0.8439  3.2602
  167SOL    HW2  501   1.122   0.605   2.353 -1.5721  1.0712  3.3909
  168SOL     OW  502   2.559   0.059   2.006  0.3203  0.7401  0.1290
  168SOL    HW1  503   2.618   0.136   2.035  2.2514 -0.6573  1.4869
  168SOL    HW2  504   2.520   3.114   2.079  0.2122  0.7668 -0.4526
  169SOL     OW  505   0.134   1.302   0.187  0.0045  0.2051  0.1812
  169SOL    HW1  506   0.098   1.367   0.263 -0.6828 -0.0218  0.9407
  169SOL    HW2  507   0.055   1.233   0.163 -1.0615  1.1041 -0.5094
  170SOL     OW  508   0.168   1.645   1.655  0.4703 -0.2525  0.2764
  170SOL    HW1  509   0.143   1.620   1.556 -0.5919 -0.3452 -1.3995
  170SOL    HW2  510   0.266   1.643   1.684 -0.6412  1.3369  0.3252
  171SOL     OW  511   0.939   2.305   2.152 -0.2126  0.2028 -0.0535
  171SOL    HW1  512   0.939   2.371   2.231 -0.8603  0.0759  1.4875
  171SOL    HW2  513   1.028   2.301   2.099 -0.7349  1.4013 -2.5410
  172SOL     OW  514   0.640   2.694   1.997 -0.0207  0.0156 -0.6166
  172SOL    HW1  515   0.681   2.681   2.092 -0.5452  0.5759 -0.1058
  172SOL    HW2  516   0.568   2.626   1.982  1.4127  1.1692 -0.3228
  173SOL     OW  517   1.377   2.498   0.900 -0.0429  0.1758 -0.0164
  173SOL    HW1  518   1.413   2.592   0.913 -2.9495 -3.5887  0.4998
  173SOL    HW2  519   1.285   2.492   0.945 -1.5668 -1.8978 -1.1565
  174SOL     OW  520   1.507   0.343   0.574  0.4677 -0.5701  0.1962
  174SOL    HW1  521   1.532   0.386   0.662 -0.2470 -1.5678  0.1302
  174SOL    HW2  522   1.491   0.243   0.582  1.2535  1.3561 -0.3048
  175SOL     OW  523   1.440   1.209   0.423  0.1236 -0.2113 -0.0443
  175SOL    HW1  524   1.437   1.309   0.423  0.1921 -1.4343  0.8252
  175SOL    HW2  525   1.354   1.164   0.390  0.4851 -0.2711  1.6622
  176SOL     OW  526   1.502   1.097   0.668 -0.3318  0.3422 -0.1003
  176SOL    HW1  527   1.455   1.131   0.584  1.5997  0.2883 -1.5670
  176SOL    HW2  528   1.547   1.010   0.641 -2.6033 -0.3173 -0.4333
  177SOL     OW  529   1.283   0.743   1.295  0.6355 -0.3116  0.2247
  177SOL    HW1  530   1.193   0.753   1.342 -0.8640  2.5667 -0.8791
  177SOL    HW2  531   1.319   0.835   1.258 -0.5344  0.2757 -0.6196
  178SOL     OW  532   2.431   1.561   3.052  0.3670  0.5156 -0.2934
  178SOL    HW1  533   2.533   1.562   3.065  0.2550  0.5007  0.3346
  178SOL    HW2  534   2.405   1.486   2.988 -0.4338 -1.7596  0.0130
  179SOL     OW  535   0.500   2.458   0.131 -0.2780  0.3574  0.7751
  179SOL    HW1  536   0.478   2.557   0.145 -2.6287  0.8982  0.6236
  179SOL    HW2  537   0.602   2.444   0.123  0.5874  0.5179  1.2358
  180SOL     OW  538   1.706   1.366   1.817 -0.4856  0.3745 -0.8734
  180SOL    HW1  539   1.665   1.341   1.910 -2.4009 -1.3127  1.0998
  180SOL    HW2  540   1.634   1.413   1.766  2.8192 -0.4255  2.9660
  181SOL     OW  541   1.090   1.330   2.214  0.2651  0.4335 -0.0909
  181SOL    HW1  542   1.144   1.313   2.129 -0.3579  1.1226  0.8714
  181SOL    HW2  543   1.140   1.289   2.294  0.5871  0.6400  0.7064
  182SOL     OW  544   3.089   1.256   2.526  0.4164 -0.5809  0.4416
  182SOL    HW1  545   3.107   1.335   2.465 -2.2464  0.6650 -1.1039
  182SOL    HW2  546   3.004   1.273   2.577 -0.4970 -0.0836 -1.5315
  183SOL     OW  547   1.726   0.596   2.153 -0.5737  0.2611  0.4235
  183SOL    HW1  548   1.807   0.560   2.097  2.9326 -0.6854 -1.0270
  183SOL    HW2  549   1.748   0.586   2.250 -0.6141 -2.1912 -1.8610
  184SOL     OW  550   0.267   0.481   1.631  0.1565 -0.0444 -0.0637
  184SOL    HW1  551   0.351   0.507   1.685 -1.2722 -0.0165 -1.2187
  184SOL    HW2  552   0.225   0.561   1.585 -0.1190 -0.0441  0.4970
  185SOL     OW  553   2.409   1.824   0.521 -0.1207 -0.5413 -0.0017
  185SOL    HW1  554   2.411   1.927   0.505 -0.5184 -0.1351  0.6385
  185SOL    HW2  555   2.496   1.782   0.487 -2.6009 -1.6779 -0.8672
  186SOL     OW  556   0.545   1.802   2.914  0.1602 -0.1457 -0.1224
  186SOL    HW1  557   0.506   1.822   2.824  3.0405  0.0362  0.5081
  186SOL    HW2  558   0.644   1.831   2.919  1.5863  1.3514 -1.0010
  187SOL     OW  559   2.317   1.919   2.948  0.1680  0.3740 -0.1176
  187SOL    HW1  560   2.294   1.834   2.996  1.0337  1.7266  1.4668
  187SOL    HW2  561   2.412   1.946   2.960 -2.4781 -1.5331 -0.0288
  188SOL     OW  562   0.873   2.439   0.623  0.0594  0.1044 -0.3901
  188SOL    HW1  563   0.843   2.453   0.720 -1.6886  0.7800 -1.2319
  188SOL    HW2  564   0.812   2.486   0.557  1.6328  0.7907  0.6601
  189SOL     OW  565   2.281   0.844   2.611  0.1262 -0.1677 -0.0467
  189SOL    HW1  566   2.231   0.752   2.617  0.7108 -3.2878  0.7785
  189SOL    HW2  567   2.239   0.906   2.539  0.3517  1.5829 -0.3248
  190SOL     OW  568   1.093   1.949   2.232  0.6118  0.4443 -0.2211
  190SOL    HW1  569   1.157   1.999   2.297  0.3943 -0.3119 -0.3808
  190SOL    HW2  570   1.029   1.902   2.299  1.1759 -2.0678 -0.8580
  191SOL     OW  571   2.571   0.811   1.517  0.4295 -0.1274 -0.3295
  191SOL    HW1  572   2.642   0.872   1.482 -0.0945 -1.8320  1.0927
  191SOL    HW2  573   2.497   0.805   1.450  2.6382  0.4826 -2.2484
  192SOL     OW  574   2.161   0.444   2.157 -0.1426 -0.1032  0.2004
  192SOL    HW1  575   2.260   0.443   2.137 -1.8957 -1.5265  0.3594
  192SOL    HW2  576   2.149   0.350   2.206 -2.1674 -2.8626  0.7278
  193SOL     OW  577   0.367   0.278   0.797 -0.1618 -0.5926  0.7644
  193SOL    HW1  578   0.344   0.196   0.842 -3.1809  1.4639  1.2823
  193SOL    HW2  579   0.320   0.359   0.835 -1.2723 -0.5880  0.4442
  194SOL     OW  580   1.288   2.507   1.599  0.1461  0.1966  0.2477
  194SOL    HW1  581   1.245   2.586   1.549 -1.7315 -1.0990 -1.4011
  194SOL    HW2  582   1.376   2.470   1.556  2.0900 -0.6832 -0.7512
  195SOL     OW  583   2.700   0.675   0.708  0.4739 -0.3172  0.1646
  195SOL    HW1  584   2.619   0.617   0.714  0.4875  1.1816  0.2152
  195SOL    HW2  585   2.685   0.758   0.763  1.2426 -3.6922 -3.2938
  196SOL     OW  586   1.153   1.861   1.647 -0.4082 -0.8973  0.4296
  196SOL    HW1  587   1.099   1.935   1.615  2.7792 -2.7090 -0.8570
  196SOL    HW2  588   1.216   1.819   1.576 -0.7951 -0.9722  0.2727
  197SOL     OW  589   0.491   0.358   2.472  0.3471  0.6522 -0.1425
  197SOL    HW1  590   0.477   0.279   2.533 -1.5901  1.0813  1.1807
  197SOL    HW2  591   0.419   0.431   2.482  1.4933  1.5795  1.3135
  198SOL     OW  592   1.315   1.113   0.860 -0.3342 -0.0976 -0.3146
  198SOL    HW1  593   1.390   1.101   0.789 -0.2967 -0.8673  3.2330
  198SOL    HW2  594   1.311   1.210   0.895  0.5934  1.1321  0.0957
  199SOL     OW  595   2.434   0.472   2.095 -0.1937 -0.1504  0.4029
  199SOL    HW1  596   2.456   0.549   2.162  0.6408 -0.1797 -1.1962
  199SOL    HW2  597   2.515   0.458   2.032  1.4204 -2.5838 -4.0598
  200SOL     OW  598   2.495   2.477   2.090  0.3921  0.3078  0.2856
  200SOL    HW1  599   2.569   2.513   2.153 -0.9814 -1.2285  3.2834
  200SOL    HW2  600   2.487   2.543   2.011 -0.1604 -0.5268  2.0269
  201SOL     OW  601   2.046   0.406   1.602  0.1688  0.1906 -0.0593
  201SOL    HW1  602   2.072   0.492   1.644  1.4594 -1.7151  0.6710
  201SOL    HW2  603   2.008   0.343   1.673 -1.2321  0.0662 -0.2224
  202SOL     OW  604   2.311   2.994   0.165  0.4794  0.2060  0.3180
  202SOL    HW1  605   2.294   3.044   0.248  0.3303  1.2596 -1.5433
  202SOL    HW2  606   2.226   2.999   0.104 -1.8487 -2.2915 -1.0162
  203SOL     OW  607   0.826   2.095   2.279  0.2601 -0.4054 -0.1379
  203SOL    HW1  608   0.895   2.034   2.323 -0.1903 -2.7550  1.2492
  203SOL    HW2  609   0.857   2.182   2.243 -0.6150 -2.3367  0.3935
  204SOL     OW  610   1.005   1.233   2.719  0.7632  0.0068  0.1690
  204SOL    HW1  611   1.000   1.283   2.630 -3.4724 -1.5804 -0.3886
  204SOL    HW2  612   0.932   1.270   2.781  0.3115 -0.0560  0.4455
  205SOL     OW  613   0.958   0.941   1.270  0.5510  0.4211  0.1855
  205SOL    HW1  614   0.975   0.863   1.339 -1.4095 -1.4371  0.0910
  205SOL    HW2  615   1.042   0.981   1.232  2.2854 -1.1999 -1.9075
  206SOL     OW  616   0.680   0.500   2.826  0.5028 -0.1327  0.4193
  206SOL    HW1  617   0.681   0.503   2.722  1.6323  0.6133 -1.5505
  206SOL    HW2  618   0.713   0.410   2.860  1.1629  1.4134 -1.3695
  207SOL     OW  619   1.773   2.575   1.915  0.1603 -1.1141 -0.3325
  207SOL    HW1  620   1.780   2.629   2.006 -0.8436 -0.2074  1.4038
  207SOL    HW2  621   1.747   2.640   1.839  0.8137  1.4607 -1.9746
  208SOL     OW  622   0.938   2.624   0.987  0.1136 -0.0822 -0.1984
  208SOL    HW1  623   0.980   2.701   0.940 -1.1563  0.2387  0.4900
  208SOL    HW2  624   0.859   2.583   0.933 -2.2995  0.3120  0.3161
  209SOL     OW  625   1.479   1.461   2.650  0.2167  0.2014 -0.7496
  209SOL    HW1  626   1.531   1.415   2.727  0.6887 -0.3487  1.9657
  209SOL    HW2  627   1.479   1.410   2.562 -1.3966 -0.6241  0.2748
  210SOL     OW  628   2.143   0.773   0.933 -0.0109 -0.2223 -0.2342
  210SOL    HW1  629   2.230   0.727   0.973  1.7580 -1.5939  0.8434
  210SOL    HW2  630   2.164   0.828   0.853  1.8333 -3.0661  0.1682
  211SOL     OW  631   1.193   2.491   0.311  0.2401 -0.3242  0.3684
  211SOL    HW1  632   1.250   2.526   0.236 -0.3907 -1.1417  3.3727
  211SOL    HW2  633   1.100   2.458   0.278 -2.7652 -0.6864 -0.8764
  212SOL     OW  634   2.123   1.955   0.104  0.8651 -0.2396 -0.0230
  212SOL    HW1  635   2.077   1.987   0.021 -3.3519  0.8185  1.6567
  212SOL    HW2  636   2.175   1.871   0.088  0.2207 -0.8869  1.7822
  213SOL     OW  637   1.753   0.398   2.877  0.3908  0.2555 -0.0463
  213SOL    HW1  638   1.760   0.317   2.815 -3.2409 -0.6499  1.0425
  213SOL    HW2  639   1.664   0.443   2.863 -0.6314 -1.1713  0.4537
  214SOL     OW  640   1.126   1.695   1.861 -0.0040 -0.0303 -0.1979
  214SOL    HW1  641   1.026   1.661   1.872 -1.4457 -1.6370 -0.4577
  214SOL    HW2  642   1.125   1.756   1.777  2.9889 -1.0709 -1.2717
  215SOL     OW  643   0.583   1.822   0.443 -0.3134 -0.1802  0.1687
  215SOL    HW1  644   0.599   1.744   0.383  0.0530 -2.7893  0.7226
  215SOL    HW2  645   0.483   1.826   0.465 -1.1330  0.5459 -1.9253
  216SOL     OW  646   0.220   3.040   2.603  0.4420 -0.3881  0.1840
  216SOL    HW1  647   0.297   2.973   2.592  0.4694 -2.0115 -1.7394
  216SOL    HW2  648   0.168   3.036   2.515  1.8746  0.7828  3.3553
  217SOL     OW  649   2.504   0.701   1.060  0.3188  0.7757 -0.4856
  217SOL    HW1  650   2.472   0.607   1.039  3.5048 -1.0473 -1.2414
  217SOL    HW2  651   2.603   0.694   1.095  2.3552 -0.4747 -0.4601
  218SOL     OW  652   1.559   1.805   1.997 -0.3414 -0.6042 -0.0249
  218SOL    HW1  653   1.615   1.720   2.010 -1.7106  0.4452  0.1573
  218SOL    HW2  654   1.466   1.801   2.038  1.2526 -1.9524  1.9849
  219SOL     OW  655   2.088   1.532   0.026 -0.2947 -0.3050 -0.0041
  219SOL    HW1  656   2.140   1.452   3.100 -1.1435 -1.9624 -0.8539
  219SOL    HW2  657   2.009   1.550   3.078 -2.2053 -1.2010 -2.6570
  220SOL     OW  658   2.053   1.158   0.597  0.1879  0.1973 -0.2481
  220SOL    HW1  659   2.030   1.116   0.502 -3.1188 -4.7945 -1.1208
  220SOL    HW2  660   2.091   1.254   0.591 -0.2958  0.5696 -2.4190
  221SOL     OW  661   0.283   0.665   3.038 -0.0276 -0.3150  0.0054
  221SOL    HW1  662   0.331   0.732   3.097  0.0347  1.3905  2.8101
  221SOL    HW2  663   0.335   0.578   3.024 -0.4117 -3.0415  0.3695
  222SOL     OW  664   1.478   1.492   0.465 -0.3160 -1.2189 -0.4844
  222SOL    HW1  665   1.568   1.511   0.515 -1.6827  1.7526 -1.2642
  222SOL    HW2  666   1.472   1.556   0.389 -0.1651 -1.7129 -1.6354
  223SOL     OW  667   1.299   0.216   0.173  0.4440 -0.3206 -0.1657
  223SOL    HW1  668   1.306   0.235   0.076  1.0661 -3.1986  2.0577
  223SOL    HW2  669   1.314   0.303   0.227 -0.4264  3.8252  3.3305
  224SOL     OW  670   1.934   0.096   1.370 -0.7377 -0.4731  0.4063
  224SOL    HW1  671   1.882   0.042   1.433 -2.0640 -0.3454  0.4299
  224SOL    HW2  672   1.945   0.043   1.281 -0.0059  1.2416 -0.8064
  225SOL     OW  673   0.678   2.288   1.195  0.0215 -0.2411 -0.2027
  225SOL    HW1  674   0.752   2.345   1.232  1.5267  0.8156  1.4095
  225SOL    HW2  675   0.609   2.344   1.148  2.1484 -1.0814 -3.3219
  226SOL     OW  676   1.147   1.402   3.068 -0.3915 -0.0672 -0.3365
  226SOL    HW1  677   1.210   1.460   3.014  0.8789  4.3469  0.9473
  226SOL    HW2  678   1.104   1.467   0.018  0.6405  0.6656 -0.6373
  227SOL     OW  679   1.033   1.507   0.986 -0.4108  0.3198 -0.4527
  227SOL    HW1  680   1.023   1.590   0.924 -1.4852  2.9238  1.0323
  227SOL    HW2  681   0.987   1.518   1.079 -0.1516 -4.4457  1.2675
  228SOL     OW  682   0.276   1.850   0.493  0.4615 -0.2545  0.0227
  228SOL    HW1  683   0.254   1.756   0.532 -0.7426 -3.1723 -0.2053
  228SOL    HW2  684   0.226   1.866   0.405  0.0225 -0.3049 -0.1568
  229SOL     OW  685   1.634   0.005   2.738  0.2573 -0.4801 -0.5723
  229SOL    HW1  686   1.733   0.036   2.740  3.2713  0.7944  3.3053
  229SOL    HW2  687   1.575   0.088   2.760  0.3695  1.4147  0.3688
  230SOL     OW  688   1.531   0.898   2.740 -0.2041  0.1520  0.0259
  230SOL    HW1  689   1.542   0.899   2.636 -3.6671 -0.9497  0.9860
  230SOL    HW2  690   1.492   0.982   2.776 -0.8662 -1.9218  0.0055
  231SOL     OW  691   1.170   1.575   2.502  0.1544  0.8926  0.5127
  231SOL    HW1  692   1.196   1.623   2.586  0.1560 -2.9106 -1.1709
  231SOL    HW2  693   1.087   1.518   2.505  1.1521  1.7783 -0.1588
  232SOL     OW  694   2.340   2.405   0.361  0.0511 -0.1780 -0.5359
  232SOL    HW1  695   2.246   2.439   0.364  1.1828 -0.2647  1.9507
  232SOL    HW2  696   2.342   2.305   0.381 -0.7493  2.9713  2.6497
  233SOL     OW  697   2.595   2.507   0.405 -0.1555  0.5678  0.3108
  233SOL    HW1  698   2.599   2.583   0.342  0.5750 -1.5108  2.1270
  233SOL    HW2  699   2.503   2.458   0.403 -0.0219 -2.4676 -0.7157
  234SOL     OW  700   0.757   0.768   2.894  0.1626 -0.5017 -0.6734
  234SOL    HW1  701   0.752   0.678   2.848  0.0505 -1.2093 -0.9511
  234SOL    HW2  702   0.847   0.816   2.875 -5.4300 -1.3518  0.7848
  235SOL     OW  703   2.872   0.297   2.835  0.3977 -0.1153 -0.1525
  235SOL    HW1  704   2.881   0.225   2.910 -0.1905 -1.9825  3.5485
  235SOL    HW2  705   2.817   0.271   2.749 -1.5172  2.5025 -1.4619
  236SOL     OW  706   1.895   2.524   1.413 -0.0998 -0.1086 -0.3099
  236SOL    HW1  707   1.838   2.441   1.397 -1.6156  0.7381 -1.6066
  236SOL    HW2  708   1.995   2.508   1.412  2.2049 -2.1519  1.8519
  237SOL     OW  709   0.876   1.601   1.926  0.4833  0.2662 -0.2144
  237SOL    HW1  710   0.871   1.700   1.917  0.2462 -1.2925 -1.3726
  237SOL    HW2  711   0.871   1.570   2.028 -1.2261  0.4154  2.9050
  238SOL     OW  712   1.550   0.470   2.645  0.2934  0.2829 -0.3583
  238SOL    HW1  713   1.574   0.567   2.665 -2.7127 -0.1306  1.2804
  238SOL    HW2  714   1.536   0.458   2.543 -3.2119 -0.1251 -0.9314
  239SOL     OW  715   0.371   2.213   1.822 -0.0921 -0.0240  0.0898
  239SOL    HW1  716   0.401   2.264   1.907  0.8684 -0.4175 -1.0595
  239SOL    HW2  717   0.449   2.176   1.769  1.5090 -0.4879 -1.6988
  240SOL     OW  718   2.463   2.634   0.615 -0.0516  0.6005  0.4529
  240SOL    HW1  719   2.422   2.714   0.575  4.0847 -0.8318 -0.1991
  240SOL    HW2  720   2.521   2.589   0.542 -4.2503  1.3992  0.3877
  241SOL     OW  721   2.636   0.882   0.874  0.0620 -0.0228  0.4078
  241SOL    HW1  722   2.581   0.819   0.931  0.2951 -1.1087 -2.6362
  241SOL    HW2  723   2.573   0.948   0.817  0.0509 -0.3177  1.6405
  242SOL     OW  724   2.180   2.570   2.113  1.1006 -0.0400  0.2965
  242SOL    HW1  725   2.116   2.491   2.087 -1.3056 -3.6061 -0.7831
  242SOL    HW2  726   2.275   2.540   2.099 -0.1849 -2.9955  0.2862
  243SOL     OW  727   0.875   2.416   1.408 -0.2203  0.0701 -0.3485
  243SOL    HW1  728   0.972   2.392   1.422 -1.8020 -1.2142 -0.7140
  243SOL    HW2  729   0.870   2.502   1.356  1.5040 -0.2296  2.8892
  244SOL     OW  730   1.853   0.169   2.745 -0.3469 -0.1205  0.2991
  244SOL    HW1  731   1.844   0.174   2.645  3.4774 -0.1516  0.7330
  244SOL    HW2  732   1.941   0.118   2.760 -0.4380 -0.7158 -2.5227
  245SOL     OW  733   1.387   0.170   1.428 -0.3077 -0.0389  0.3855
  245SOL    HW1  734   1.379   0.117   1.337  1.6191 -1.2172 -3.2781
  245SOL    HW2  735   1.301   0.207   1.457  1.1433 -3.7332  2.0497
  246SOL     OW  736   1.924   2.714   0.124  0.0031  0.0190  0.2131
  246SOL    HW1  737   1.975   2.659   0.055  1.0017  1.1520  0.8498
  246SOL    HW2  738   1.895   2.652   0.198  2.0728 -0.4722  1.3939
  247SOL     OW  739   1.283   0.638   2.457  0.4364 -0.0022 -0.1655
  247SOL    HW1  740   1.238   0.613   2.545 -0.0001  0.1201 -0.8302
  247SOL    HW2  741   1.345   0.562   2.424  0.5688 -0.2686 -0.7755
  248SOL     OW  742   0.739   1.973   1.572  0.3116  0.5498 -0.0266
  248SOL    HW1  743   0.840   1.989   1.571  0.1719 -2.6913  1.2945
  248SOL    HW2  744   0.692   2.004   1.659  2.9036 -0.2498  1.6467
  249SOL     OW  745   2.222   0.326   0.446  0.1965  0.0574 -0.2797
  249SOL    HW1  746   2.273   0.402   0.404 -1.1283 -1.6380  0.2733
  249SOL    HW2  747   2.128   0.325   0.403  1.2083  2.4689 -1.3393
  250SOL     OW  748   2.960   0.473   0.304  0.1239 -0.2448  0.6076
  250SOL    HW1  749   2.950   0.462   0.407  1.2905 -0.1259  1.0502
  250SOL    HW2  750   2.893   0.538   0.263  0.9681 -1.5468  3.0830
  251SOL     OW  751   1.494   0.576   3.098 -0.0533 -0.1444  0.5694
  251SOL    HW1  752   1.454   0.621   0.060  2.4665 -0.2473 -2.3536
  251SOL    HW2  753   1.472   0.632   3.015 -2.2609 -1.1934 -1.6138
  252SOL     OW  754   1.605   1.809   1.723 -0.1321 -0.3930 -0.1506
  252SOL    HW1  755   1.609   1.824   1.825 -0.7379 -0.0196 -0.9725
  252SOL    HW2  756   1.553   1.726   1.703  1.0712 -0.2083  2.0332
  253SOL     OW  757   2.516   2.362   1.262 -0.3475  0.2719 -0.3256
  253SOL    HW1  758   2.598   2.415   1.286 -1.1994 -1.8992  1.6641
  253SOL    HW2  759   2.487   2.370   1.164 -2.1895  0.0202 -1.6077
  254SOL     OW  760   2.747   1.312   1.061 -0.5381 -0.6603  0.4884
  254SOL    HW1  761   2.831   1.319   1.120 -0.1761  0.6005  0.2417
  254SOL    HW2  762   2.757   1.381   0.983 -1.1660  1.1395 -0.6072
  255SOL     OW  763   1.244   0.290   1.104  0.0470  0.4513 -0.1432
  255SOL    HW1  764   1.149   0.254   1.090 -1.7023  0.5152  1.6206
  255SOL    HW2  765   1.235   0.379   1.151 -0.0026 -1.4373 -1.7247
  256SOL     OW  766   1.740   2.465   1.082 -0.3177  0.1247  0.0422
  256SOL    HW1  767   1.717   2.371   1.112  1.0047  0.2773  0.2120
  256SOL    HW2  768   1.784   2.471   0.988  2.1472  0.4838 -1.2066
  257SOL     OW  769   0.737   0.016   2.630 -0.4201 -0.4319 -0.2348
  257SOL    HW1  770   0.703   3.055   2.690  0.5248  0.6454 -2.7210
  257SOL    HW2  771   0.694   0.012   2.535 -1.4977  0.6563 -1.2480
  258SOL     OW  772   0.918   2.205   0.518  0.1730 -0.1388 -0.7355
  258SOL    HW1  773   0.911   2.301   0.557  0.3959  2.1125 -0.8974
  258SOL    HW2  774   0.841   2.148   0.560  1.1770  1.5878 -0.6691
  259SOL     OW  775   1.314   3.065   2.655  0.1250 -0.0118 -0.1327
  259SOL    HW1  776   1.215   3.042   2.667  0.6265  0.0002 -0.7064
  259SOL    HW2  777   1.374   2.985   2.631 -1.0934 -0.1744 -2.8159
  260SOL     OW  778   2.233   0.610   1.416 -0.2927  0.2188  0.3260
  260SOL    HW1  779   2.138   0.619   1.442 -0.4637 -1.2760 -3.2164
  260SOL    HW2  780   2.277   0.541   1.476 -0.7208 -0.3128  0.6619
  261SOL     OW  781   0.707   0.494   2.559  0.0665  0.0996 -0.3665
  261SOL    HW1  782   0.619   0.447   2.532 -0.7675 -1.0905  0.2493
  261SOL    HW2  783   0.739   0.547   2.480 -1.9372  2.3341  0.6287
  262SOL     OW  784   0.398   2.268   2.293  0.0975 -0.1280 -0.1735
  262SOL    HW1  785   0.366   2.176   2.319 -0.3461 -0.0279 -1.2422
  262SOL    HW2  786   0.329   2.338   2.315  0.8035  0.2578 -2.0759
  263SOL     OW  787   0.169   1.738   2.357  0.0117 -0.4721 -0.1855
  263SOL    HW1  788   0.102   1.799   2.397  0.5066  2.2431  0.1147
  263SOL    HW2  789   0.209   1.778   2.272 -1.5082 -1.1034  0.8030
  264SOL     OW  790   1.067   1.045   0.945 -0.2130  0.2000  0.0716
  264SOL    HW1  791   1.020   0.969   0.895 -0.5917  1.0415 -0.3127
  264SOL    HW2  792   1.167   1.049   0.919  2.0429 -0.1699  1.0344
  265SOL     OW  793   1.391   2.700   0.630 -0.4575 -0.2561  0.5117
  265SOL    HW1  794   1.315   2.633   0.624 -0.2389  0.3461 -0.0474
  265SOL    HW2  795   1.438   2.700   0.723 -0.6276  1.2992  2.0307
  266SOL     OW  796   1.756   1.017   1.508 -0.2376 -0.1364 -0.0901
  266SOL    HW1  797   1.808   1.003   1.423  1.3527  1.1331  1.1400
  266SOL    HW2  798   1.799   1.085   1.572 -1.8289  2.5110  0.0209
  267SOL     OW  799   2.454   1.039   2.680  0.2474 -0.0697  0.1817
  267SOL    HW1  800   2.454   1.115   2.611 -1.7896  1.2714 -1.9337
  267SOL    HW2  801   2.377   0.984   2.656  1.2451  1.9266  1.2608
  268SOL     OW  802   1.484   0.406   0.302 -0.0621  0.0588  0.1914
  268SOL    HW1  803   1.483   0.399   0.404 -2.2075  0.8561 -1.6176
  268SOL    HW2  804   1.555   0.342   0.269 -0.9522 -0.3237  2.3758
  269SOL     OW  805   3.067   0.701   2.675 -0.0119  0.5289  0.0140
  269SOL    HW1  806   3.058   0.616   2.622 -0.6804 -0.8887  1.4807
  269SOL    HW2  807   3.098   0.687   2.775  1.0734  0.9145 -0.3500
  270SOL     OW  808   0.111   1.377   2.869 -0.0364  0.3760  0.3600
  270SOL    HW1  809   0.014   1.366   2.906 -1.7944  1.1081 -3.2307
  270SOL    HW2  810   0.132   1.303   2.803 -0.7531 -0.0592  1.8204
  271SOL     OW  811   2.699   0.880   0.026 -0.0674 -0.2391  0.8214
  271SOL    HW1  812   2.679   0.880   3.042 -1.2237 -1.1721 -0.2239
  271SOL    HW2  813   2.722   0.778   0.052  0.5297 -2.2713  1.2357
  272SOL     OW  814   2.702   2.253   2.359  0.1221 -0.2767 -0.0320
  272SOL    HW1  815   2.661   2.163   2.377 -1.1851  3.1807 -0.4440
  272SOL    HW2  816   2.633   2.324   2.383 -0.9941 -0.6933 -0.0230
  273SOL     OW  817   0.133   0.027   0.096 -0.2289  0.0469 -0.3067
  273SOL    HW1  818   0.101   0.120   0.119 -1.0185 -0.2807 -2.0782
  273SOL    HW2  819   0.137   3.078   0.178 -0.5794  0.2343  2.4154
  274SOL     OW  820   0.731   2.221   0.803  0.1285  0.3664  0.0195
  274SOL    HW1  821   0.716   2.179   0.710 -2.0248 -2.1488 -3.6644
  274SOL    HW2  822   0.817   2.189   0.845  1.3115  0.2744 -0.1448
  275SOL     OW  823   2.237   0.653   0.621 -0.1572  0.1393 -0.2421
  275SOL    HW1  824   2.322   0.620   0.672  0.4352  1.7171  2.3138
  275SOL    HW2  825   2.198   0.739   0.655 -0.4254 -1.3611 -0.4238
  276SOL     OW  826   2.478   1.601   1.329  0.1691  0.1095 -0.5296
  276SOL    HW1  827   2.392   1.570   1.378 -2.3286 -1.1550  1.5763
  276SOL    HW2  828   2.485   1.705   1.346  0.9250  1.2789 -1.1929
  277SOL     OW  829   2.343   0.145   0.867 -0.0541  0.0176  0.5248
  277SOL    HW1  830   2.433   0.144   0.919  1.2971  0.1820 -0.4384
  277SOL    HW2  831   2.268   0.155   0.936 -0.3124  2.5399 -0.9343
  278SOL     OW  832   1.562   2.784   2.219  0.1169 -0.7752  0.5250
  278SOL    HW1  833   1.579   2.682   2.210 -0.3193 -2.3306  1.2553
  278SOL    HW2  834   1.499   2.799   2.301 -3.5929 -0.2199  2.7860
  279SOL     OW  835   1.278   2.063   1.015 -0.0633 -0.4995  0.0925
  279SOL    HW1  836   1.214   2.110   1.079  1.4751 -2.3378  0.1963
  279SOL    HW2  837   1.359   2.126   1.002 -1.5450 -1.4709  1.2269
  280SOL     OW  838   0.510   0.931   1.073  0.0558  0.1256  0.0347
  280SOL    HW1  839   0.450   0.961   1.148 -0.3864  2.2504  3.3157
  280SOL    HW2  840   0.564   0.846   1.095 -0.6548 -1.3899  0.6440
  281SOL     OW  841   2.398   1.173   2.926 -0.1268  0.0080  0.8931
  281SOL    HW1  842   2.441   1.121   2.847 -0.4759  3.2746 -1.7447
  281SOL    HW2  843   2.395   1.271   2.899 -0.1124 -0.5369  0.7108
  282SOL     OW  844   0.377   1.379   0.218  0.4817  0.2887 -0.0203
  282SOL    HW1  845   0.276   1.345   0.210 -4.6890 -2.7278 -1.5159
  282SOL    HW2  846   0.432   1.348   0.138  1.7170  2.3750  1.6609
  283SOL     OW  847   1.792   2.539   2.984 -0.2475  0.0052 -0.2922
  283SOL    HW1  848   1.892   2.563   3.002 -1.1288 -2.6919  1.0854
  283SOL    HW2  849   1.778   2.504   2.888 -0.3454 -2.7262 -1.2296
  284SOL     OW  850   1.034   0.050   0.826  0.1528 -0.7206 -0.2508
  284SOL    HW1  851   1.134   0.037   0.826 -2.5923  0.1791 -0.1807
  284SOL    HW2  852   1.004   0.107   0.748  0.1670 -1.1634 -0.6575
  285SOL     OW  853   2.181   1.201   2.649  0.0128 -0.2964 -0.1513
  285SOL    HW1  854   2.195   1.288   2.606 -2.0038  0.0945 -0.2666
  285SOL    HW2  855   2.122   1.205   2.732 -0.1998 -0.2908  2.0468
  286SOL     OW  856   1.746   2.746   0.912 -0.7897  0.2405  0.0977
  286SOL    HW1  857   1.837   2.697   0.909  0.1676  1.6087 -0.7585
  286SOL    HW2  858   1.742   2.802   1.001 -2.0026  0.4892 -0.9515
  287SOL     OW  859   1.268   0.429   0.863 -0.3474  0.1861  0.3193
  287SOL    HW1  860   1.258   0.366   0.941 -0.1093  0.0803 -2.8417
  287SOL    HW2  861   1.233   0.518   0.888  1.4045  0.0860  0.3401
  288SOL     OW  862   0.753   2.643   2.769 -0.3223 -0.2605  0.4860
  288SOL    HW1  863   0.832   2.689   2.817  0.4292  1.4937  1.7064
  288SOL    HW2  864   0.688   2.624   2.842  2.0675  0.3407 -2.8834
  289SOL     OW  865   0.119   1.577   0.840 -0.0969 -0.1444 -0.0866
  289SOL    HW1  866   0.145   1.487   0.879  0.2097  1.9288 -1.3794
  289SOL    HW2  867   0.078   1.643   0.904  1.8304 -1.3519 -1.4726
  290SOL     OW  868   1.274   1.984   0.768 -0.0102  0.6678 -0.3006
  290SOL    HW1  869   1.256   2.071   0.709 -0.8114  3.6592 -1.9433
  290SOL    HW2  870   1.281   2.001   0.867 -2.7911 -1.0872  1.2978
  291SOL     OW  871   1.604   2.915   0.219 -0.3834 -0.6319 -0.3200
  291SOL    HW1  872   1.523   2.871   0.265  0.5537  0.5570 -0.3931
  291SOL    HW2  873   1.568   2.999   0.176  0.0104 -1.4776  0.6179
  292SOL     OW  874   0.460   0.405   2.187  0.2489 -0.4515 -0.4819
  292SOL    HW1  875   0.481   0.382   2.280 -0.7905  0.8072 -2.9776
  292SOL    HW2  876   0.464   0.509   2.178  0.3414  0.4727 -1.5967
  293SOL     OW  877   2.541   1.881   1.085  0.1770  0.0770 -0.0418
  293SOL    HW1  878   2.503   1.898   0.998  1.9208 -2.6759  4.2845
  293SOL    HW2  879   2.516   1.946   1.153  1.6721  1.5143  2.0100
  294SOL     OW  880   0.844   0.086   2.334  0.1959  0.3042  0.2994
  294SOL    HW1  881   0.739   0.076   2.346 -2.6243 -0.2283  1.2004
  294SOL    HW2  882   0.896   0.000   2.360  1.0116 -3.5660  1.5728
  295SOL     OW  883   1.404   1.873   1.170  0.0651 -0.1796 -0.0555
  295SOL    HW1  884   1.348   1.838   1.251 -2.2030  0.1828  3.6504
  295SOL    HW2  885   1.340   1.932   1.116 -2.0443 -1.1342 -1.2650
  296SOL     OW  886   2.312   2.113   0.222 -0.6917 -0.0071 -0.1667
  296SOL    HW1  887   2.253   2.064   0.155 -0.1836 -3.0699 -0.5234
  296SOL    HW2  888   2.408   2.124   0.188 -1.2100  0.6105 -1.7868
  297SOL     OW  889   2.471   0.160   0.403  0.0009 -0.6966 -0.1742
  297SOL    HW1  890   2.371   0.143   0.403  0.4642 -2.0823 -0.7554
  297SOL    HW2  891   2.514   0.074   0.431 -2.7123  1.0300 -0.8182
  298SOL     OW  892   0.986   0.226   2.927  0.1868 -0.0056  0.4465
  298SOL    HW1  893   0.981   0.217   2.825  0.0220  0.0724  2.6832
  298SOL    HW2  894   1.045   0.306   2.950  0.3675 -2.8585 -2.3266
  299SOL     OW  895   0.642   2.416   2.348 -0.3048  0.0089 -0.8741
  299SOL    HW1  896   0.559   2.375   2.300  1.4231 -0.3832 -0.4736
  299SOL    HW2  897   0.609   2.437   2.449  1.3070 -0.5273  3.8892
  300SOL     OW  898   2.899   3.080   2.470  0.3432 -0.0887  0.0738
  300SOL    HW1  899   2.807   0.004   2.493 -1.0198  0.9170  0.3088
  300SOL    HW2  900   2.969   3.115   2.534 -1.7895  0.0074  0.3770
  301SOL     OW  901   1.320   0.460   1.676  0.7560 -0.1001  0.0715
  301SOL    HW1  902   1.416   0.452   1.646 -0.7794 -1.9255  1.7687
  301SOL    HW2  903   1.300   0.390   1.747  1.1685 -0.2616  0.6120
  302SOL     OW  904   3.075   2.240   3.101  0.0912  0.1630 -0.2078
  302SOL    HW1  905   0.036   2.260   0.047  2.1679 -0.5995 -1.2508
  302SOL    HW2  906   3.100   2.252   3.000 -0.4727 -0.4334 -0.0418
  303SOL     OW  907   2.057   2.213   1.517 -0.3687  0.6516 -0.3078
  303SOL    HW1  908   1.969   2.237   1.563 -0.1811  0.5839 -1.0412
  303SOL    HW2  909   2.137   2.215   1.580 -1.2302 -0.3418 -0.0524
  304SOL     OW  910   2.780   1.010   1.474 -0.2412  0.1777 -0.7352
  304SOL    HW1  911   2.836   0.975   1.398 -2.5774  1.4516  0.6630
  304SOL    HW2  912   2.837   0.996   1.559 -1.6146  1.0373  0.7292
  305SOL     OW  913   0.681   1.725   0.804 -0.0861 -0.2714  0.5957
  305SOL    HW1  914   0.733   1.747   0.890  1.9053  3.3476 -0.1977
  305SOL    HW2  915   0.581   1.741   0.821 -0.4945  0.6945  1.1938
  306SOL     OW  916   0.455   1.445   2.317 -0.3177  0.1958 -0.1828
  306SOL    HW1  917   0.515   1.519   2.279  2.4111  0.7660  1.1278
  306SOL    HW2  918   0.462   1.453   2.418 -0.9821  2.7228  0.5598
  307SOL     OW  919   0.978   0.162   1.481  0.1632 -0.0567  0.3535
  307SOL    HW1  920   1.007   0.200   1.568  3.4035 -3.9437  0.8306
  307SOL    HW2  921   1.038   0.083   1.452  1.0114 -1.4572 -1.4582
  308SOL     OW  922   0.008   1.017   1.195 -0.1500  0.6906  0.1190
  308SOL    HW1  923   3.042   0.968   1.229 -2.0642 -0.8089  0.0705
  308SOL    HW2  924   3.107   1.041   1.094 -2.7707  1.8888 -5.3868
  309SOL     OW  925   2.491   1.266   1.073  0.4200  0.8086  0.2901
  309SOL    HW1  926   2.449   1.357   1.078  0.1871 -1.0082  0.7783
  309SOL    HW2  927   2.589   1.271   1.084 -1.6677 -0.6170 -0.0908
  310SOL     OW  928   0.381   2.066   2.519  0.0216  0.2462  0.1347
  310SOL    HW1  929   0.479   2.066   2.485 -1.3059 -0.2219  0.2962
  310SOL    HW2  930   0.319   2.038   2.450  1.9919  1.5853 -0.0298
  311SOL     OW  931   2.556   2.672   2.314  0.4978  0.0531  0.1030
  311SOL    HW1  932   2.572   2.712   2.223  0.5000 -0.1973  0.8548
  311SOL    HW2  933   2.614   2.714   2.384  1.7488 -1.4033 -0.6853
  312SOL     OW  934   2.120   2.105   2.976 -0.0392  0.3926 -0.1168
  312SOL    HW1  935   2.109   2.158   2.895 -2.1198 -1.1742  0.6402
  312SOL    HW2  936   2.201   2.040   2.978 -1.4538  0.6242  2.3708
  313SOL     OW  937   0.149   3.042   0.757  0.0848  0.2159 -0.3706
  313SOL    HW1  938   0.234   2.997   0.725 -0.8764 -4.5287  0.7900
  313SOL    HW2  939   0.109   3.109   0.688 -4.0715 -1.9834 -1.7041
  314SOL     OW  940   1.889   1.038   2.842 -0.6414 -0.1100  0.1240
  314SOL    HW1  941   1.992   1.007   2.844  6.2100 -1.3814  2.2348
  314SOL    HW2  942   1.883   1.136   2.860 -1.2128  1.0682  0.7380
  315SOL     OW  943   1.605   3.080   2.393  1.1067  0.2871 -0.4583
  315SOL    HW1  944   1.584   3.102   2.297  1.8450  0.3456  1.2784
  315SOL    HW2  945   1.533   3.075   2.459  1.0787 -1.0681  0.7659
  316SOL     OW  946   2.695   1.261   0.645  0.0417  0.3163  0.1865
  316SOL    HW1  947   2.640   1.192   0.696  0.4959  0.6663 -2.3629
  316SOL    HW2  948   2.693   1.245   0.539 -0.3406 -0.8617 -3.0916
  317SOL     OW  949   0.615   2.605   3.002  0.0381 -0.0146 -0.1849
  317SOL    HW1  950   0.633   2.592   3.102 -0.1168  1.0234 -0.7602
  317SOL    HW2  951   0.520   2.647   2.990 -0.8891 -4.2165 -1.7648
  318SOL     OW  952   2.616   2.555   0.973  0.2785  0.7757 -0.0683
  318SOL    HW1  953   2.590   2.563   0.876 -3.3871 -0.3335  0.9378
  318SOL    HW2  954   2.556   2.486   1.013 -0.1910  1.0530 -0.1675
  319SOL     OW  955   1.319   1.948   2.966  0.6131 -0.2268 -0.9408
  319SOL    HW1  956   1.248   1.940   2.893 -1.8777 -1.6094  0.2837
  319SOL    HW2  957   1.406   1.917   2.924 -1.9804  2.4978 -3.5972
  320SOL     OW  958   0.511   1.807   1.255 -0.2202  0.2494  0.2586
  320SOL    HW1  959   0.441   1.746   1.209 -0.6982  0.8856  1.2188
  320SOL    HW2  960   0.469   1.853   1.342 -2.8045  0.5812  1.3969
  321SOL     OW  961   1.239   2.872   2.167 -0.3865 -0.2909 -0.3711
  321SOL    HW1  962   1.160   2.891   2.106  0.0239 -2.6692 -1.4308
  321SOL    HW2  963   1.244   2.770   2.182  1.6775 -0.7790 -0.1047
  322SOL     OW  964   2.452   1.977   1.907  0.1693 -0.1860 -0.0481
  322SOL    HW1  965   2.473   1.911   1.979  0.0016  0.7762  0.0225
  322SOL    HW2  966   2.505   2.064   1.926 -1.1443 -1.8759 -0.2135
  323SOL     OW  967   2.880   0.586   0.953  0.4569  0.2936 -0.1785
  323SOL    HW1  968   2.828   0.602   0.868  1.0811 -0.4488  1.4579
  323SOL    HW2  969   2.976   0.611   0.940  1.9859  2.4200  1.4886
  324SOL     OW  970   2.642   2.843   2.506  0.4436  0.0145  0.2271
  324SOL    HW1  971   2.624   2.829   2.603  0.8782 -0.8698 -0.2808
  324SOL    HW2  972   2.727   2.798   2.478 -1.1023  0.1543  1.3178
  325SOL     OW  973   1.178   0.315   2.615 -0.7610 -0.6365 -0.0944
  325SOL    HW1  974   1.260   0.276   2.576 -1.0507 -0.3087 -1.6515
  325SOL    HW2  975   1.115   0.242   2.648  0.3926  0.0715 -0.3541
  326SOL     OW  976   2.051   2.498   1.764 -0.6289  0.4992 -0.1635
  326SOL    HW1  977   1.988   2.531   1.833 -0.1635  1.9882 -0.9188
  326SOL    HW2  978   2.061   2.566   1.691 -1.3609  0.8938 -0.2176
  327SOL     OW  979   2.295   0.034   2.905 -0.1312  0.9732 -0.5914
  327SOL    HW1  980   2.249   0.085   2.978 -1.3576  0.1866 -1.7755
  327SOL    HW2  981   2.360   3.082   2.950  1.2263 -2.4984  2.5714
  328SOL     OW  982   0.327   1.405   2.015  0.0216 -0.2690 -0.2045
  328SOL    HW1  983   0.368   1.327   2.070  1.3554 -0.2357 -1.2748
  328SOL    HW2  984   0.231   1.429   2.020  1.7616 -4.1846 -2.1361
  329SOL     OW  985   2.118   0.604   1.755  0.3630 -0.0787  0.0677
  329SOL    HW1  986   2.033   0.651   1.794 -4.1909  0.5107  1.3621
  329SOL    HW2  987   2.186   0.672   1.730 -2.3379  0.3082 -0.3584
  330SOL     OW  988   0.068   1.192   0.801 -0.1637  0.4429  0.0826
  330SOL    HW1  989   0.032   1.099   0.828 -2.2100  0.9888  1.1787
  330SOL    HW2  990   0.047   1.259   0.879 -1.2558 -2.8561  0.9997
  331SOL     OW  991   0.111   1.867   1.968 -1.0604 -0.0196  0.5632
  331SOL    HW1  992   0.033   1.842   2.025 -0.2013 -1.3913  0.0558
  331SOL    HW2  993   0.197   1.851   2.017 -3.3689  2.0549 -0.3413
  332SOL     OW  994   3.105   2.574   1.715 -0.3800  0.0991  0.3145
  332SOL    HW1  995   0.048   2.531   1.639 -0.6426  0.8977 -2.3086
  332SOL    HW2  996   3.008   2.534   1.702 -0.2527 -2.5425  0.6758
  333SOL     OW  997   2.637   0.262   1.080  0.7793  0.5417 -0.1750
  333SOL    HW1  998   2.706   0.254   1.003  5.3329  1.4694 -0.7624
  333SOL    HW2  999   2.593   0.176   1.110  0.8594  0.5780 -0.4171
  334SOL     OW 1000   0.227   1.590   0.588  0.4707 -0.1184 -0.5736
  334SOL    HW1 1001   0.297   1.520   0.574  1.4870  0.3970  3.0687
  334SOL    HW2 1002   0.169   1.572   0.669 -2.3561  0.3608 -1.2609
  335SOL     OW 1003   0.180   2.526   2.942 -0.0235 -0.5865 -0.1662
  335SOL    HW1 1004   0.160   2.486   2.849  3.0945  0.0302  0.5002
  335SOL    HW2 1005   0.195   2.451   3.007  0.0919  0.1476  0.0676
  336SOL     OW 1006   2.878   2.698   2.481 -0.2860  0.4345 -0.2136
  336SOL    HW1 1007   2.911   2.685   2.575  0.4816  0.0021 -0.5169
  336SOL    HW2 1008   2.948   2.749   2.421  1.8892  1.1520  0.5177
  337SOL     OW 1009   1.841   2.239   1.867 -0.1115  0.0026 -0.0852
  337SOL    HW1 1010   1.787   2.318   1.895 -2.7105  0.5031  1.4398
  337SOL    HW2 1011   1.802   2.205   1.779 -0.3585  1.5687  2.8019
  338SOL     OW 1012   0.787   2.958   3.026  0.6668 -0.0177  0.2801
  338SOL    HW1 1013   0.726   2.974   3.106 -0.0377 -1.1303 -0.8047
  338SOL    HW2 1014   0.873   3.019   3.032 -3.6230 -0.0277  0.4262
  339SOL     OW 1015   0.493   1.214   2.179 -0.1872  0.2101 -0.3631
  339SOL    HW1 1016   0.484   1.295   2.238 -0.8726  0.5491 -0.7386
  339SOL    HW2 1017   0.568   1.222   2.114  0.7385 -1.1055  1.4884
  340SOL     OW 1018   1.677   2.889   0.707  0.1724  0.2943 -0.3252
  340SOL    HW1 1019   1.706   2.847   0.796 -0.1295 -1.0026 -1.3798
  340SOL    HW2 1020   1.706   2.985   0.710 -0.4894 -1.9899 -0.1027
  341SOL     OW 1021   2.067   1.165   1.036  0.3390 -0.4221 -0.0442
  341SOL    HW1 1022   2.013   1.093   1.072  3.9420  2.5717 -1.1198
  341SOL    HW2 1023   2.088   1.228   1.110 -1.4376  1.5628  0.1903
  342SOL     OW 1024   2.480   2.996   3.078 -0.2499  0.4017 -0.1653
  342SOL    HW1 1025   2.407   2.996   0.035  0.4457 -0.6206  0.2703
  342SOL    HW2 1026   2.532   2.910   3.081  2.7530  0.3220 -1.4583
  343SOL     OW 1027   1.071   2.298   1.581 -0.2086 -0.3749 -0.0184
  343SOL    HW1 1028   1.007   2.336   1.648 -1.6661  0.1740 -0.9952
  343SOL    HW2 1029   1.164   2.342   1.584  2.8758  2.0084  1.7449
  344SOL     OW 1030   2.587   2.731   1.572  0.3821  0.4024  0.6211
  344SOL    HW1 1031   2.578   2.806   1.635  0.4061 -2.9787 -2.3076
  344SOL    HW2 1032   2.684   2.710   1.545  1.3651 -1.3777 -0.0662
  345SOL     OW 1033   2.570   2.047   2.989 -1.0031 -0.0085 -0.0824
  345SOL    HW1 1034   2.654   1.992   2.957 -1.5363 -0.7202  0.2340
  345SOL    HW2 1035   2.588   2.070   3.092  0.7353  2.3017  1.4811
  346SOL     OW 1036   2.221   2.254   0.663  0.2004 -0.0544 -0.1904
  346SOL    HW1 1037   2.290   2.314   0.703 -0.1672 -2.2468 -0.4212
  346SOL    HW2 1038   2.195   2.181   0.729 -1.2406  0.1876 -0.0335
  347SOL     OW 1039   1.647   2.000   1.265 -0.4419 -0.0772  0.0333
  347SOL    HW1 1040   1.545   1.995   1.260 -2.4401 -0.9683 -1.7817
  347SOL    HW2 1041   1.683   1.978   1.359 -2.4393 -1.3934 -0.7360
  348SOL     OW 1042   0.555   1.836   2.293  0.1700 -0.0749 -0.1959
  348SOL    HW1 1043   0.594   1.741   2.310  0.6115 -0.5421  0.4036
  348SOL    HW2 1044   0.567   1.906   2.370 -0.8675  1.5110  1.1263
  349SOL     OW 1045   2.168   1.684   0.659  0.0531  0.3047  0.5721
  349SOL    HW1 1046   2.190   1.585   0.679 -2.0913 -1.6907 -0.1742
  349SOL    HW2 1047   2.233   1.724   0.592  0.9981  0.5176 -1.3185
  350SOL     OW 1048   2.891   2.383   0.699  0.2001  0.1267  0.1396
  350SOL    HW1 1049   2.911   2.461   0.761  2.7988  0.8180  1.8734
  350SOL    HW2 1050   2.807   2.336   0.741 -1.8921  0.0828  1.5949
  351SOL     OW 1051   0.408   2.957   1.576  0.0137  0.1294 -0.2289
  351SOL    HW1 1052   0.464   2.877   1.596 -1.2672  0.1813 -1.6088
  351SOL    HW2 1053   0.325   2.921   1.531  0.6515 -0.7688  0.8182
  352SOL     OW 1054   0.504   1.389   1.098  0.1805 -0.0023  0.2731
  352SOL    HW1 1055   0.420   1.339   1.131  0.5163 -1.6851  2.0371
  352SOL    HW2 1056   0.538   1.348   1.013 -0.8029 -1.4346 -0.9807
  353SOL     OW 1057   1.244   1.100   2.641  0.1877  0.3376  0.5236
  353SOL    HW1 1058   1.164   1.158   2.671  0.1697 -1.5695 -0.4644
  353SOL    HW2 1059   1.315   1.104   2.714  1.0112 -0.0559  1.4310
  354SOL     OW 1060   1.521   0.004   1.640  0.0870  0.1193  0.1376
  354SOL    HW1 1061   1.475   0.066   1.573 -1.6332 -0.0901  0.3959
  354SOL    HW2 1062   1.547   0.051   1.729  0.3405 -1.2496  2.8164
  355SOL     OW 1063   2.214   1.388   0.668 -0.0187 -0.1312  0.0232
  355SOL    HW1 1064   2.255   1.318   0.734 -0.2923 -1.7450  2.2659
  355SOL    HW2 1065   2.276   1.416   0.593  0.8339  3.1879  2.0737
  356SOL     OW 1066   2.727   1.596   1.912 -0.0489  0.0053  0.2420
  356SOL    HW1 1067   2.696   1.632   1.821  0.1874  0.0525 -1.9489
  356SOL    HW2 1068   2.761   1.670   1.970  0.0651 -2.2630 -0.7174
  357SOL     OW 1069   0.574   2.598   1.237 -0.6549  0.0117  0.5016
  357SOL    HW1 1070   0.498   2.569   1.296  2.0877  0.0912 -0.6639
  357SOL    HW2 1071   0.546   2.630   1.146  2.1870 -0.4658 -0.5772
  358SOL     OW 1072   2.727   1.324   1.818 -0.3812  0.3758  0.0970
  358SOL    HW1 1073   2.749   1.418   1.845 -4.3941  0.2756 -2.0468
  358SOL    HW2 1074   2.632   1.323   1.785  0.1629 -1.9196 -0.3951
  359SOL     OW 1075   2.243   2.884   2.571 -0.3771  0.4579  0.0839
  359SOL    HW1 1076   2.235   2.787   2.546 -0.1128  0.0498  0.8134
  359SOL    HW2 1077   2.156   2.938   2.570 -0.9108 -0.8939 -0.8005
  360SOL     OW 1078   0.759   0.343   0.939 -0.1815 -0.0873  0.3183
  360SOL    HW1 1079   0.776   0.394   0.852  2.0512  0.5030 -2.2472
  360SOL    HW2 1080   0.721   0.253   0.925  1.1737  1.7687 -0.7203
  361SOL     OW 1081   1.939   0.297   0.977 -0.3159 -0.0720  0.1005
  361SOL    HW1 1082   1.989   0.360   0.913  0.0732 -1.1300 -0.4536
  361SOL    HW2 1083   1.903   0.341   1.065 -4.1494  1.0280  2.1600
  362SOL     OW 1084   1.564   1.057   1.045 -0.0987  0.3831  0.3893
  362SOL    HW1 1085   1.626   0.974   1.042  0.0710 -0.2788  1.3460
  362SOL    HW2 1086   1.601   1.129   0.983 -0.2451 -1.2364  1.1164
  363SOL     OW 1087   2.252   1.388   2.315  0.2251  0.1158 -0.5465
  363SOL    HW1 1088   2.348   1.381   2.282 -1.0042  0.0886  0.7422
  363SOL    HW2 1089   2.186   1.378   2.238  1.5147 -0.4386  0.9374
  364SOL     OW 1090   0.335   2.964   1.169  0.0966  0.0039 -0.2841
  364SOL    HW1 1091   0.274   2.979   1.250 -2.3174  0.4923 -1.8417
  364SOL    HW2 1092   0.307   2.891   1.106  0.3983  1.1627  1.6466
  365SOL     OW 1093   0.308   2.984   3.041  0.5030 -0.1111 -0.4752
  365SOL    HW1 1094   0.315   3.051   2.966 -0.0620 -1.0298  1.0405
  365SOL    HW2 1095   0.237   3.015   3.109 -0.2606 -1.6136 -0.2123
  366SOL     OW 1096   2.150   2.337   3.114 -0.0406  0.3517  0.1154
  366SOL    HW1 1097   2.158   2.248   3.072 -0.4598  2.6277 -0.6849
  366SOL    HW2 1098   2.239   2.377   0.035 -1.9105  0.3208 -0.0916
  367SOL     OW 1099   2.586   2.463   3.003  0.1344 -0.1127 -0.1417
  367SOL    HW1 1100   2.568   2.386   2.935  1.2680 -2.5202  0.2658
  367SOL    HW2 1101   2.682   2.452   3.043  3.7647 -0.3460  2.2094
  368SOL     OW 1102   0.064   1.359   0.995 -0.1554  0.2709 -0.5434
  368SOL    HW1 1103   3.093   1.381   1.044 -0.5921 -0.3471  0.1127
  368SOL    HW2 1104   0.141   1.319   1.048  1.6159 -0.1663 -2.1324
  369SOL     OW 1105   0.659   2.912   2.756 -0.3776  0.5678  0.5111
  369SOL    HW1 1106   0.682   2.813   2.751 -2.4059 -0.2836  0.0525
  369SOL    HW2 1107   0.688   2.957   2.844 -1.3000 -0.4691 -0.0298
  370SOL     OW 1108   2.985   0.853   0.508  0.5684 -0.0515  0.5815
  370SOL    HW1 1109   2.941   0.944   0.514 -1.4743  4.1588  1.2584
  370SOL    HW2 1110   2.924   0.786   0.461 -0.8900  2.3151 -1.6236
  371SOL     OW 1111   1.882   2.384   0.818 -0.3102  0.2569 -0.1492
  371SOL    HW1 1112   1.932   2.412   0.730  1.0589  4.0049 -3.6370
  371SOL    HW2 1113   1.807   2.316   0.791  0.3551 -1.8254 -1.3647
  372SOL     OW 1114   3.078   0.966   2.999 -0.0955  0.9300  0.2509
  372SOL    HW1 1115   3.068   0.891   3.067 -0.7558  1.9633 -0.0174
  372SOL    HW2 1116   0.052   0.979   2.954  2.2256  0.1613 -1.4966
  373SOL     OW 1117   2.915   1.854   1.383  0.2743  0.3185  0.1429
  373SOL    HW1 1118   2.901   1.758   1.354  0.1112 -1.0301  0.5847
  373SOL    HW2 1119   2.868   1.922   1.319  1.9732  1.7249  0.8906
  374SOL     OW 1120   0.474   2.733   0.150  0.2654  0.1309  0.4247
  374SOL    HW1 1121   0.429   2.713   0.063 -1.0533 -0.5809  3.0253
  374SOL    HW2 1122   0.527   2.817   0.139 -2.2658 -0.6511 -0.7471
  375SOL     OW 1123   0.438   0.031   0.201 -0.4370  0.3533  0.1489
  375SOL    HW1 1124   0.398   0.084   0.278  0.7189  2.5365  0.0665
  375SOL    HW2 1125   0.373   0.028   0.122  3.3050  1.4335 -1.9285
  376SOL     OW 1126   0.138   2.343   1.650 -0.1317 -0.5093 -0.8031
  376SOL    HW1 1127   0.187   2.299   1.732  0.8611  1.4050  0.2528
  376SOL    HW2 1128   0.187   2.317   1.564  0.5789 -1.0251 -1.8196
  377SOL     OW 1129   1.788   2.472   2.684 -0.1783 -0.0580 -0.1532
  377SOL    HW1 1130   1.852   2.454   2.603  2.1367  0.0739 -1.6602
  377SOL    HW2 1131   1.715   2.542   2.657  0.2710  1.6420  0.6819
  378SOL     OW 1132   0.738   0.400   0.261  0.2169  0.3251  0.4824
  378SOL    HW1 1133   0.821   0.463   0.248  0.1521  2.8471 -0.4357
  378SOL    HW2 1134   0.739   0.360   0.354  1.4908 -1.4338  0.0600
  379SOL     OW 1135   0.390   1.376   0.504  0.0271 -0.1813  0.8438
  379SOL    HW1 1136   0.381   1.392   0.403  1.9272  4.8628  1.0017
  379SOL    HW2 1137   0.462   1.430   0.549 -0.7388 -1.7245  1.4592
  380SOL     OW 1138   0.057   1.888   1.720  0.6243  0.5149  0.0301
  380SOL    HW1 1139   0.054   1.789   1.689  2.2050 -0.9731 -0.7438
  380SOL    HW2 1140   0.088   1.890   1.818  0.5776 -1.2548  0.2887
  381SOL     OW 1141   0.717   1.212   2.034 -0.7541  0.3418  0.1906
  381SOL    HW1 1142   0.763   1.123   2.035 -0.9192 -2.4392  0.3158
  381SOL    HW2 1143   0.687   1.236   1.941  1.1686  0.2737  5.4350
  382SOL     OW 1144   2.384   2.109   0.487  0.4619 -0.2951  0.0162
  382SOL    HW1 1145   2.337   2.165   0.554 -0.0728 -0.0647  0.8858
  382SOL    HW2 1146   2.342   2.109   0.397  0.6569 -0.2912 -0.1530
  383SOL     OW 1147   2.783   1.888   2.909 -0.3480  0.0832 -0.4342
  383SOL    HW1 1148   2.773   1.801   2.960 -2.6581 -2.5843 -0.1344
  383SOL    HW2 1149   2.880   1.895   2.874 -2.7726 -2.0969 -0.5177
  384SOL     OW 1150   0.634   2.034   2.468  0.3934  0.3234  0.2701
  384SOL    HW1 1151   0.652   2.064   2.565 -0.6419 -0.2209  1.0950
  384SOL    HW2 1152   0.707   2.072   2.407 -0.2555 -1.1060 -0.2832
  385SOL     OW 1153   2.737   1.666   1.025 -0.3529  0.0588  0.6710
  385SOL    HW1 1154   2.662   1.737   1.044  0.1970 -1.4583 -3.0606
  385SOL    HW2 1155   2.691   1.602   0.959 -1.9667  1.2823 -1.7264
  386SOL     OW 1156   2.061   1.349   1.226  0.1464  0.3680  0.1767
  386SOL    HW1 1157   1.977   1.365   1.282  0.3449 -0.1905  0.9818
  386SOL    HW2 1158   2.075   1.420   1.156 -1.5415 -1.1007  0.1858
  387SOL     OW 1159   0.039   1.062   2.108  0.4000  0.1498  0.0535
  387SOL    HW1 1160   3.070   1.024   2.064  0.8048 -2.9749  1.3762
  387SOL    HW2 1161   0.025   1.161   2.124  0.9620 -2.7767 -0.6834
  388SOL     OW 1162   2.471   1.318   2.128  0.1999 -0.0991 -0.2943
  388SOL    HW1 1163   2.550   1.378   2.158 -0.0998 -2.4882 -0.0058
  388SOL    HW2 1164   2.405   1.363   2.067  1.9134 -2.9819 -1.3060
  389SOL     OW 1165   2.052   1.401   2.123  0.6987 -0.3374  0.4684
  389SOL    HW1 1166   1.974   1.380   2.177 -0.7817 -0.1418 -3.0839
  389SOL    HW2 1167   2.069   1.330   2.049  0.1522  0.9841 -0.1073
  390SOL     OW 1168   1.976   2.707   0.581 -0.1875 -0.2510 -0.5112
  390SOL    HW1 1169   1.879   2.706   0.563  2.5478  2.6063  0.0337
  390SOL    HW2 1170   2.018   2.615   0.597  1.2278  1.1920 -0.0812
  391SOL     OW 1171   2.243   2.005   0.855 -0.2530  0.0298 -0.1811
  391SOL    HW1 1172   2.172   1.937   0.866 -0.1002 -0.5529 -3.1547
  391SOL    HW2 1173   2.233   2.065   0.940 -1.1167  0.5543  0.7255
  392SOL     OW 1174   0.064   2.668   1.313  0.7064 -0.3030  0.7670
  392SOL    HW1 1175   0.029   2.585   1.359  1.0298 -0.7258 -1.5600
  392SOL    HW2 1176   0.007   2.695   1.236  1.3984 -1.1529 -0.3430
  393SOL     OW 1177   1.874   2.056   2.648  0.3812  0.4612  0.3062
  393SOL    HW1 1178   1.893   2.133   2.708 -2.3014  0.6508 -0.0128
  393SOL    HW2 1179   1.804   1.989   2.679  3.0228 -0.1053  0.0235
  394SOL     OW 1180   0.273   0.521   2.531  0.3983 -0.1279  0.0462
  394SOL    HW1 1181   0.227   0.479   2.609  0.4235 -0.0281  2.5059
  394SOL    HW2 1182   0.201   0.586   2.487  0.0477 -1.5243 -0.9247
  395SOL     OW 1183   0.689   0.699   0.662  0.1509 -0.5723 -0.1984
  395SOL    HW1 1184   0.733   0.608   0.663 -1.3125  1.1216  2.7473
  395SOL    HW2 1185   0.729   0.761   0.736  0.7995 -0.8791  0.7094
  396SOL     OW 1186   1.222   1.057   0.332  0.3525 -0.0101  0.0162
  396SOL    HW1 1187   1.156   1.108   0.390 -1.8678  0.0293  0.3952
  396SOL    HW2 1188   1.190   0.966   0.309 -0.4214  1.8639 -2.0452
  397SOL     OW 1189   0.440   0.932   2.207  0.0712  0.3181  0.3577
  397SOL    HW1 1190   0.490   1.015   2.178 -0.0005 -0.6209  0.1566
  397SOL    HW2 1191   0.359   0.915   2.139 -2.7902 -1.9216 -1.9508
  398SOL     OW 1192   0.857   3.066   0.283  0.0423  0.2018  0.2377
  398SOL    HW1 1193   0.897   2.983   0.321  1.0355 -2.4115  0.7402
  398SOL    HW2 1194   0.927   0.008   0.244 -2.2188  1.5387 -0.2783
  399SOL     OW 1195   1.957   3.104   1.757  0.8478  0.2555 -0.1673
  399SOL    HW1 1196   1.984   0.086   1.756 -0.0029 -0.1772 -0.8996
  399SOL    HW2 1197   1.974   3.063   1.667 -1.4069 -0.6085 -2.2481
  400SOL     OW 1198   0.656   1.539   1.767 -0.4753 -0.4462 -0.1929
  400SOL    HW1 1199   0.730   1.573   1.832 -2.0274 -1.6026 -1.0847
  400SOL    HW2 1200   0.656   1.598   1.683  2.4663 -0.1961  1.3806
  401SOL     OW 1201   0.614   0.969   2.796  0.0215 -0.0919 -0.0194
  401SOL    HW1 1202   0.676   0.903   2.838  0.1247 -0.4697  0.8842
  401SOL    HW2 1203   0.521   0.920   2.786  2.7715  3.0660 -0.5840
  402SOL     OW 1204   2.930   2.226   1.488 -0.5794 -0.1623  0.3017
  402SOL    HW1 1205   2.841   2.182   1.476 -2.0019 -0.9077  0.1290
  402SOL    HW2 1206   3.002   2.155   1.485 -0.1406 -1.1813  1.7003
  403SOL     OW 1207   0.251   0.924   2.020 -0.1290 -0.0307 -0.0427
  403SOL    HW1 1208   0.174   0.987   2.049  0.9346 -0.1269  0.0133
  403SOL    HW2 1209   0.248   0.898   1.921  0.2006  0.2920 -0.1838
  404SOL     OW 1210   0.021   2.760   1.919 -0.0657  0.1044  0.3039
  404SOL    HW1 1211   0.108   2.752   1.970 -1.2509  0.9147  1.9854
  404SOL    HW2 1212   0.025   2.688   1.848  0.1931 -0.7379 -0.9795
  405SOL     OW 1213   0.535   0.309   1.950 -0.7746  0.8816 -0.1691
  405SOL    HW1 1214   0.598   0.221   1.945  1.0223  0.4054  1.5098
  405SOL    HW2 1215   0.490   0.316   2.040 -1.7021 -1.0358 -0.4390
  406SOL     OW 1216   1.649   2.135   2.500  0.0748 -0.1884  0.0361
  406SOL    HW1 1217   1.737   2.169   2.530 -5.0757  3.6616 -0.4180
  406SOL    HW2 1218   1.646   2.034   2.502  0.2971 -2.3255 -1.8811
  407SOL     OW 1219   1.449   1.300   2.397 -0.7364 -0.0240 -0.2354
  407SOL    HW1 1220   1.457   1.366   2.318 -3.4188  1.0017  0.1606
  407SOL    HW2 1221   1.379   1.231   2.379  2.9868  0.7289  0.4603
  408SOL     OW 1222   0.927   0.339   2.422  0.0135 -0.2284 -0.1061
  408SOL    HW1 1223   0.908   0.249   2.372 -0.2721 -0.3985 -2.9276
  408SOL    HW2 1224   0.840   0.391   2.455 -1.5824  1.7607  0.6988
  409SOL     OW 1225   0.188   1.849   0.036 -0.2160 -0.1443 -0.2880
  409SOL    HW1 1226   0.265   1.778   0.047  0.6197 -0.4011  0.0523
  409SOL    HW2 1227   0.160   1.885   0.127  3.0496 -1.0314 -2.3638
  410SOL     OW 1228   2.785   1.505   0.269 -0.7304  0.3911 -0.1805
  410SOL    HW1 1229   2.862   1.571   0.250  0.9439 -0.7937 -1.7201
  410SOL    HW2 1230   2.751   1.461   0.182 -0.0379 -0.7879  0.5155
  411SOL     OW 1231   2.974   0.310   0.991  0.0131  0.1189  0.2802
  411SOL    HW1 1232   2.923   0.398   0.994  0.7167  1.9817 -1.6658
  411SOL    HW2 1233   2.982   0.266   0.901  0.6793  2.0071 -1.7308
  412SOL     OW 1234   1.345   0.984   1.224  0.8066 -0.3491 -0.2536
  412SOL    HW1 1235   1.411   1.012   1.149  0.3341 -0.0431 -3.0203
  412SOL    HW2 1236   1.370   1.034   1.312 -0.8446  1.4892 -1.1624
  413SOL     OW 1237   0.847   2.649   1.269 -0.6628 -0.3447  0.0442
  413SOL    HW1 1238   0.882   2.662   1.173 -0.5630  1.2376  1.7833
  413SOL    HW2 1239   0.747   2.638   1.270  3.8310  0.8463 -2.4204
  414SOL     OW 1240   2.650   1.487   2.827  0.3348 -0.4212 -0.0425
  414SOL    HW1 1241   2.681   1.535   2.744 -3.4844  0.6323  3.3086
  414SOL    HW2 1242   2.693   1.523   2.910 -2.1240  0.4527 -2.3133
  415SOL     OW 1243   0.483   2.200   2.888 -0.5054  0.5502  0.2328
  415SOL    HW1 1244   0.406   2.210   2.818 -0.8315  1.6172 -0.1606
  415SOL    HW2 1245   0.448   2.251   2.968  5.0625 -1.9959 -1.4734
  416SOL     OW 1246   1.777   0.082   0.411 -0.3185 -0.2022  0.1773
  416SOL    HW1 1247   1.828   0.024   0.338  0.4321 -0.1860  0.7422
  416SOL    HW2 1248   1.704   0.139   0.367 -0.1535 -2.8704 -0.2196
  417SOL     OW 1249   0.456   0.693   0.794  0.1012 -0.2785 -0.0010
  417SOL    HW1 1250   0.450   0.788   0.833  1.1387  0.5245 -2.7461
  417SOL    HW2 1251   0.535   0.676   0.732  1.3936  0.7603  0.4791
  418SOL     OW 1252   2.625   0.722   1.769 -0.7502 -0.1455  0.2041
  418SOL    HW1 1253   2.631   0.621   1.762 -0.4222 -0.0081  3.9762
  418SOL    HW2 1254   2.592   0.764   1.681  1.6898  0.5049 -1.8027
  419SOL     OW 1255   0.031   0.141   0.623  0.0332  0.4421 -0.0555
  419SOL    HW1 1256   0.031   0.241   0.644 -0.6581  2.7069  0.2788
  419SOL    HW2 1257   0.046   0.122   0.523 -0.3408  0.8621 -0.8434
  420SOL     OW 1258   0.269   1.264   1.174 -0.4370 -0.2692  0.5778
  420SOL    HW1 1259   0.185   1.266   1.234  1.5702  1.6334 -1.1792
  420SOL    HW2 1260   0.295   1.167   1.161 -1.7205 -0.7562  1.2671
  421SOL     OW 1261   1.157   2.558   0.595  0.4608  0.3692  0.3955
  421SOL    HW1 1262   1.182   2.556   0.495  0.5322  0.9092 -2.6901
  421SOL    HW2 1263   1.071   2.508   0.613  0.9849  2.2214 -2.1127
  422SOL     OW 1264   0.115   0.671   1.479 -1.1739  0.0504 -0.1040
  422SOL    HW1 1265   0.049   0.669   1.400  0.8270  0.0850 -0.1016
  422SOL    HW2 1266   0.212   0.694   1.447  3.5448  0.5639  0.3765
  423SOL     OW 1267   1.125   1.159   1.175 -0.9296  0.4294  0.6244
  423SOL    HW1 1268   1.222   1.138   1.207 -2.9243  1.2522 -0.4484
  423SOL    HW2 1269   1.109   1.113   1.083 -0.4169 -1.2571  0.5276
  424SOL     OW 1270   2.022   1.301   2.870  0.2797  0.4091  0.2156
  424SOL    HW1 1271   2.099   1.317   2.932 -1.3306  1.7832 -0.3894
  424SOL    HW2 1272   1.955   1.376   2.861  0.1509  0.9378  1.1568
  425SOL     OW 1273   3.114   0.471   2.104  0.2060 -0.4386 -0.3822
  425SOL    HW1 1274   0.061   0.548   2.113  0.5121 -2.0360 -0.6798
  425SOL    HW2 1275   3.017   0.511   2.103 -1.1120  0.6974 -0.6141
  426SOL     OW 1276   0.006   2.706   3.091  0.3624  0.0469 -0.6053
  426SOL    HW1 1277   0.061   2.651   3.032 -0.0020  2.0535  0.2796
  426SOL    HW2 1278   0.020   2.691   0.074  1.1960 -1.3807 -2.0783
  427SOL     OW 1279   1.012   0.929   2.606 -0.2107 -0.2955 -0.2922
  427SOL    HW1 1280   1.104   0.959   2.584 -3.0417 -1.8518 -0.6933
  427SOL    HW2 1281   0.985   0.953   2.701  0.9662 -1.4931 -2.0399
  428SOL     OW 1282   2.470   1.318   1.736  0.0210 -0.1431  0.0374
  428SOL    HW1 1283   2.508   1.291   1.645  1.4215 -0.2141  0.2100
  428SOL    HW2 1284   2.422   1.240   1.778 -0.4251  1.0543 -2.0764
  429SOL     OW 1285   2.368   2.762   0.851 -0.5774 -0.0395  0.0118
  429SOL    HW1 1286   2.414   2.714   0.768 -1.2834 -0.8227 -1.6605
  429SOL    HW2 1287   2.275   2.784   0.826  3.5418 -0.7670 -0.6904
  430SOL     OW 1288   1.345   1.646   2.308  0.2090 -0.8756  0.0003
  430SOL    HW1 1289   1.278   1.622   2.381 -0.9116  0.3880 -2.1841
  430SOL    HW2 1290   1.308   1.705   2.230 -0.3842  0.8028 -0.3415
  431SOL     OW 1291   2.931   1.603   1.587  0.4655 -0.5772  0.0362
  431SOL    HW1 1292   2.869   1.551   1.525  2.4007  1.8745 -0.0709
  431SOL    HW2 1293   2.889   1.689   1.628 -0.9485  0.5990  0.3249
  432SOL     OW 1294   1.382   2.847   2.413 -0.3413  0.4324 -0.0408
  432SOL    HW1 1295   1.332   2.887   2.333  0.9357  1.1710 -0.3815
  432SOL    HW2 1296   1.337   2.761   2.442 -1.0565 -0.4685 -0.0100
  433SOL     OW 1297   1.853   0.290   2.245  0.3019 -0.0205  0.3341
  433SOL    HW1 1298   1.941   0.264   2.286 -1.4140  0.0721  0.6730
  433SOL    HW2 1299   1.869   0.338   2.154 -2.0290 -0.6047 -1.7122
  434SOL     OW 1300   0.316   2.773   2.283  0.8179 -0.1652  0.4710
  434SOL    HW1 1301   0.316   2.678   2.318  2.4785  1.3552 -0.7022
  434SOL    HW2 1302   0.297   2.775   2.180 -0.8961  2.0155 -1.7868
  435SOL     OW 1303   0.047   2.400   0.336 -0.2427  0.1408  0.3027
  435SOL    HW1 1304   0.106   2.430   0.412  0.8168  1.1044 -2.1431
  435SOL    HW2 1305   0.026   2.480   0.280  1.3226  0.4676  0.4309
  436SOL     OW 1306   0.810   0.445   2.013  0.2503 -0.3534  0.1349
  436SOL    HW1 1307   0.707   0.431   2.005 -2.8676 -1.0613 -0.1832
  436SOL    HW2 1308   0.848   0.526   1.955 -1.1519  1.3519 -0.6625
  437SOL     OW 1309   0.431   2.863   2.603  0.5110  0.0170  0.9065
  437SOL    HW1 1310   0.489   2.854   2.519  0.6203  1.5895 -1.6875
  437SOL    HW2 1311   0.493   2.899   2.675  2.2602  2.1184  0.0952
  438SOL     OW 1312   0.596   1.260   1.766 -0.1305 -0.4315  0.3216
  438SOL    HW1 1313   0.679   1.210   1.736  1.5185  1.5213 -2.4312
  438SOL    HW2 1314   0.615   1.356   1.744  1.2473 -2.3460  0.5830
  439SOL     OW 1315   2.184   1.043   2.438 -0.1243 -0.1326 -0.5011
  439SOL    HW1 1316   2.259   1.059   2.372  3.3181 -0.9772  0.4484
  439SOL    HW2 1317   2.177   1.109   2.517  0.5261 -0.6196  0.5433
  440SOL     OW 1318   0.456   0.725   0.168 -0.4979 -0.0254  0.4560
  440SOL    HW1 1319   0.490   0.629   0.156  0.5400 -1.1418 -1.6789
  440SOL    HW2 1320   0.356   0.723   0.195 -0.1367  2.0516  1.2352
  441SOL     OW 1321   1.150   2.472   1.058  0.0375  0.0005  0.6516
  441SOL    HW1 1322   1.210   2.532   1.113  0.1246 -3.1446 -2.5948
  441SOL    HW2 1323   1.063   2.516   1.028  0.4980  0.7592  0.2510
  442SOL     OW 1324   2.488   1.600   0.853  0.6716  0.0893  0.0166
  442SOL    HW1 1325   2.416   1.567   0.917 -0.8286  0.3270 -1.3381
  442SOL    HW2 1326   2.461   1.696   0.828 -0.3791  3.4888 -1.1386
  443SOL     OW 1327   2.757   1.951   2.256 -0.1689  0.3914  0.0324
  443SOL    HW1 1328   2.664   1.994   2.253  0.4889  2.2613 -1.6483
  443SOL    HW2 1329   2.746   1.866   2.311  0.2408  0.0305 -1.7769
  444SOL     OW 1330   1.684   1.281   0.026  0.7804 -0.1137  0.1947
  444SOL    HW1 1331   1.781   1.258   0.050  0.1856  0.6957 -0.4434
  444SOL    HW2 1332   1.623   1.240   0.093  1.6108  1.6039 -1.9754
  445SOL     OW 1333   2.661   2.782   2.085 -0.1418  0.0662  0.5269
  445SOL    HW1 1334   2.621   2.730   2.007 -2.5353 -0.7538 -1.8988
  445SOL    HW2 1335   2.766   2.796   2.078  3.1758  2.0988  0.9506
  446SOL     OW 1336   0.317   0.996   1.256  0.4667  0.4452  0.2193
  446SOL    HW1 1337   0.341   0.936   1.339 -0.7800  3.2547  1.5931
  446SOL    HW2 1338   0.218   0.980   1.231  0.1410 -2.3105 -1.4594
  447SOL     OW 1339   0.993   1.664   0.777  0.2883 -0.1260 -0.2800
  447SOL    HW1 1340   0.909   1.725   0.772 -0.3187  0.5260 -0.2375
  447SOL    HW2 1341   0.979   1.579   0.725  0.2296  1.0693 -1.7768
  448SOL     OW 1342   1.309   0.983   1.665  0.1664  0.1332 -0.3416
  448SOL    HW1 1343   1.303   1.012   1.765 -1.2501 -0.0410  0.3882
  448SOL    HW2 1344   1.224   0.936   1.640  0.6183 -0.3656 -0.0158
  449SOL     OW 1345   0.061   2.247   2.235  0.1995 -0.2114  0.4598
  449SOL    HW1 1346   0.024   2.345   2.232 -1.0330  3.5422  2.0817
  449SOL    HW2 1347   0.110   2.237   2.143 -0.1469  0.2149 -3.5147
  450SOL     OW 1348   2.786   2.051   1.825  0.2579 -0.0017  0.3330
  450SOL    HW1 1349   2.716   2.108   1.783 -1.2269  0.5917 -2.5793
  450SOL    HW2 1350   2.865   2.108   1.852 -1.3350 -0.2180 -2.5867
  451SOL     OW 1351   2.398   0.813   1.291  0.4582 -0.2790 -0.1310
  451SOL    HW1 1352   2.328   0.753   1.334  0.6230  1.2565  1.0842
  451SOL    HW2 1353   2.425   0.793   1.194 -1.0481  2.4439  1.7380
  452SOL     OW 1354   0.517   1.317   0.837 -0.1343 -0.3182  0.5396
  452SOL    HW1 1355   0.559   1.381   0.772  1.2045 -0.5480 -1.5577
  452SOL    HW2 1356   0.441   1.272   0.789 -1.5925 -2.2830 -1.4924
  453SOL     OW 1357   0.839   1.815   1.021  0.1869  0.7015  0.0425
  453SOL    HW1 1358   0.770   1.844   1.094 -0.8751 -0.0673  1.2027
  453SOL    HW2 1359   0.933   1.819   1.056 -2.0401  2.8232  0.3613
  454SOL     OW 1360   0.400   1.689   0.004 -0.1994 -0.6353  0.1285
  454SOL    HW1 1361   0.447   1.723   3.037  1.5221  3.2037 -1.7993
  454SOL    HW2 1362   0.365   1.595   3.107 -1.8898  1.2969 -0.0052
  455SOL     OW 1363   1.862   0.793   0.672  0.5789  0.0457  0.3409
  455SOL    HW1 1364   1.820   0.730   0.736  0.5692  1.8178 -0.0060
  455SOL    HW2 1365   1.789   0.854   0.640 -0.0057 -0.0021 -0.6581
  456SOL     OW 1366   2.090   2.717   1.055 -0.1382 -0.4938  0.0467
  456SOL    HW1 1367   2.126   2.758   0.965  1.1224  1.1327  1.1849
  456SOL    HW2 1368   2.167   2.683   1.113 -0.1093 -2.5230  1.9321
  457SOL     OW 1369   1.989   2.888   2.765  0.2937  0.0607  0.1795
  457SOL    HW1 1370   1.904   2.905   2.815  4.8206 -1.5367 -1.4100
  457SOL    HW2 1371   1.964   2.836   2.680 -0.0754 -0.9331 -1.9157
  458SOL     OW 1372   2.229   0.485   0.226  0.0491  0.1020 -0.2955
  458SOL    HW1 1373   2.295   0.466   0.148  0.4720  0.0815  0.6708
  458SOL    HW2 1374   2.144   0.526   0.195 -0.9216 -0.0818  1.0239
  459SOL     OW 1375   0.098   1.025   2.384 -0.3160 -0.7525 -0.5625
  459SOL    HW1 1376   0.046   1.098   2.431 -0.5195  1.8639  0.7646
  459SOL    HW2 1377   0.063   1.015   2.290 -0.2460 -1.3357  2.7049
  460SOL     OW 1378   0.728   0.796   0.040 -0.0493 -0.2820 -0.1978
  460SOL    HW1 1379   0.737   0.768   3.057  0.3496  1.9798 -1.1013
  460SOL    HW2 1380   0.656   0.739   0.084  3.2322  2.6461 -3.5429
  461SOL     OW 1381   2.882   2.603   0.902  0.2001  0.0504 -0.1170
  461SOL    HW1 1382   2.931   2.651   0.972 -1.1890 -0.1685 -1.5668
  461SOL    HW2 1383   2.792   2.576   0.935  2.1974 -0.4351 -0.1137
  462SOL     OW 1384   0.207   0.233   1.694 -0.4177  0.2068  0.7104
  462SOL    HW1 1385   0.220   0.331   1.669 -0.8225 -1.2152 -2.2776
  462SOL    HW2 1386   0.292   0.176   1.671  0.8736  2.2430 -2.2817
  463SOL     OW 1387   2.016   2.352   2.051 -0.1753 -0.0047  0.2521
  463SOL    HW1 1388   2.031   2.263   2.097  1.4821  0.1301 -0.1800
  463SOL    HW2 1389   1.974   2.335   1.963  1.1988  0.7127  1.0440
  464SOL     OW 1390   0.444   0.102   1.613 -0.0986 -0.1768  0.0589
  464SOL    HW1 1391   0.545   0.123   1.626  1.7414  1.1650  1.0317
  464SOL    HW2 1392   0.434   0.005   1.581 -0.7919  0.1417 -2.0912
  465SOL     OW 1393   0.639   2.994   1.371 -0.2135  0.1082  0.2338
  465SOL    HW1 1394   0.547   2.984   1.413 -1.1848 -1.7356 -0.9023
  465SOL    HW2 1395   0.696   3.061   1.424  2.5592 -1.5866 -1.6870
  466SOL     OW 1396   1.276   2.046   1.821 -0.3413  0.4641 -0.0526
  466SOL    HW1 1397   1.207   2.082   1.887  2.1498  0.5947  0.5537
  466SOL    HW2 1398   1.247   1.960   1.776  0.6963 -0.9387  0.6515
  467SOL     OW 1399   0.090   1.709   1.206 -0.3757  0.2901 -0.0013
  467SOL    HW1 1400   0.058   1.656   1.289 -3.2766  0.4418  4.5599
  467SOL    HW2 1401   0.186   1.679   1.176  2.8550 -2.2833 -0.7187
  468SOL     OW 1402   2.576   1.951   2.709  0.0387  0.6286 -0.3112
  468SOL    HW1 1403   2.586   2.045   2.665 -3.0186  1.4604  1.3333
  468SOL    HW2 1404   2.645   1.930   2.787 -0.2444 -2.0394 -0.3128
  469SOL     OW 1405   1.227   2.184   0.584 -0.4143 -0.3042  0.5006
  469SOL    HW1 1406   1.272   2.147   0.499  1.1343 -1.6897  0.4987
  469SOL    HW2 1407   1.129   2.202   0.565  1.2798  1.9655 -2.0670
  470SOL     OW 1408   2.094   1.587   1.086 -0.4017 -0.4238 -0.1117
  470SOL    HW1 1409   2.114   1.650   1.163  0.4097 -2.0048 -0.8439
  470SOL    HW2 1410   1.995   1.572   1.067 -1.2450  2.2550  2.4279
  471SOL     OW 1411   0.326   2.338   3.095 -0.0467  0.4808  0.1227
  471SOL    HW1 1412   0.279   2.285   0.052  0.0951 -1.9294  0.3461
  471SOL    HW2 1413   0.392   2.402   0.018  0.3297 -1.8658  1.2242
  472SOL     OW 1414   2.814   1.851   1.997 -0.1200 -0.7026 -0.7825
  472SOL    HW1 1415   2.815   1.934   1.929  0.5537  1.3389  0.4197
  472SOL    HW2 1416   2.832   1.890   2.088  0.9559 -0.0261  0.6351
  473SOL     OW 1417   1.136   2.790   0.880 -0.2871 -0.4828 -0.1194
  473SOL    HW1 1418   1.196   2.723   0.826  1.1008  2.9791 -1.8452
  473SOL    HW2 1419   1.058   2.823   0.822  0.4281  3.2847 -3.2091
  474SOL     OW 1420   2.966   0.157   1.256  0.5874 -0.5859  0.5233
  474SOL    HW1 1421   2.993   0.206   1.170 -1.5386 -2.1683 -1.4319
  474SOL    HW2 1422   3.022   0.185   1.335 -1.6570  0.5013  1.1737
  475SOL     OW 1423   1.742   2.731   1.685  0.1060  0.2262 -0.2981
  475SOL    HW1 1424   1.814   2.765   1.624  0.6444  0.2724 -2.8174
  475SOL    HW2 1425   1.666   2.706   1.622  1.8708 -0.0772  1.6527
  476SOL     OW 1426   0.292   0.494   0.977  0.2249 -0.2351  1.1485
  476SOL    HW1 1427   0.369   0.547   0.937 -1.8128  0.1685 -0.2525
  476SOL    HW2 1428   0.308   0.425   1.046  0.3323  4.7077 -0.5607
  477SOL     OW 1429   0.734   2.495   0.868  0.2034  0.1637  0.1650
  477SOL    HW1 1430   0.646   2.546   0.856 -1.8094  0.1899 -1.6501
  477SOL    HW2 1431   0.726   2.395   0.888  0.0484  1.9620 -0.1328
  478SOL     OW 1432   0.564   2.454   2.618  0.4197  0.4320 -0.2812
  478SOL    HW1 1433   0.547   2.379   2.685 -1.1589 -3.0266 -0.0013
  478SOL    HW2 1434   0.499   2.531   2.619 -0.6044 -2.3726 -3.2712
  479SOL     OW 1435   0.454   0.665   2.098  0.3562 -0.5238  0.0717
  479SOL    HW1 1436   0.352   0.656   2.104 -1.2225  0.5508  1.3600
  479SOL    HW2 1437   0.471   0.766   2.112  3.3118 -1.0127  0.9764
  480SOL     OW 1438   2.967   1.994   0.082 -0.0378  0.1741 -0.2838
  480SOL    HW1 1439   2.998   2.073   0.024 -2.1153  2.7117 -0.4236
  480SOL    HW2 1440   3.055   1.938   0.095  4.4615 -1.7233  0.4840
  481SOL     OW 1441   1.557   2.064   2.060  0.0070  0.2349 -0.1197
  481SOL    HW1 1442   1.563   1.964   2.044  2.5937  0.8458  0.5613
  481SOL    HW2 1443   1.559   2.117   1.975 -0.3024  0.7504  2.2054
  482SOL     OW 1444   1.484   2.313   2.684 -0.1361  0.7115  0.3379
  482SOL    HW1 1445   1.383   2.310   2.680  1.2083  0.3544  1.8478
  482SOL    HW2 1446   1.530   2.280   2.598 -0.6737  0.5874 -1.6313
  483SOL     OW 1447   0.868   2.354   2.755 -0.1128 -0.1495  0.1703
  483SOL    HW1 1448   0.816   2.438   2.737 -0.5023 -0.6497 -0.3728
  483SOL    HW2 1449   0.945   2.369   2.822 -1.5972  4.1482 -1.7276
  484SOL     OW 1450   0.265   0.074   0.997  0.2251  0.0358  0.3086
  484SOL    HW1 1451   0.204   0.029   0.926  1.4205  0.4578 -1.5917
  484SOL    HW2 1452   0.282   0.010   1.073 -1.5241  0.2885 -1.5948
  485SOL     OW 1453   1.995   0.616   0.509  0.0308 -0.0590  0.0393
  485SOL    HW1 1454   1.937   0.674   0.567  0.0644  1.7717  0.1534
  485SOL    HW2 1455   2.092   0.619   0.538  0.2454 -0.2631  1.3304
  486SOL     OW 1456   1.838   2.710   2.155 -0.3833 -0.0681 -0.5520
  486SOL    HW1 1457   1.921   2.752   2.119 -0.9897 -1.1719 -0.6707
  486SOL    HW2 1458   1.788   2.767   2.226 -1.4657  1.7237  1.3785
  487SOL     OW 1459   1.694   2.200   0.731  0.2091 -0.1758  0.1277
  487SOL    HW1 1460   1.668   2.100   0.731 -0.2584  0.7954  1.4003
  487SOL    HW2 1461   1.617   2.258   0.693 -0.6750  0.4820 -0.8196
  488SOL     OW 1462   2.164   0.926   0.146 -0.1694  0.0276 -0.4527
  488SOL    HW1 1463   2.087   0.855   0.146  2.9366  1.9061  0.3952
  488SOL    HW2 1464   2.246   0.893   0.093  0.8162  4.3083  1.3221
  489SOL     OW 1465   2.470   0.273   0.657 -0.0283 -0.1012  0.2871
  489SOL    HW1 1466   2.403   0.232   0.726 -0.1044 -0.1525  1.5543
  489SOL    HW2 1467   2.455   0.261   0.558  2.0221 -0.6663 -0.7355
  490SOL     OW 1468   1.635   2.787   3.107  0.1519 -0.5152  0.5533
  490SOL    HW1 1469   1.632   2.830   0.084 -0.4719 -0.2263 -0.2050
  490SOL    HW2 1470   1.722   2.735   3.094 -0.6360  1.8929 -1.9008
  491SOL     OW 1471   0.907   0.551   1.314 -0.1386  0.8334 -0.0512
  491SOL    HW1 1472   0.999   0.532   1.274  1.5822 -1.8571 -0.5441
  491SOL    HW2 1473   0.858   0.459   1.332  0.6768 -2.3708  0.0108
  492SOL     OW 1474   1.665   0.238   0.174  0.3982 -0.4811 -0.2124
  492SOL    HW1 1475   1.620   0.166   0.121 -2.0795 -1.2408  1.1519
  492SOL    HW2 1476   1.748   0.262   0.121 -0.3834 -0.0567 -0.4848
  493SOL     OW 1477   1.918   2.288   2.821 -0.2429  0.2507 -0.3154
  493SOL    HW1 1478   1.857   2.239   2.886 -0.5540 -2.3047 -1.3275
  493SOL    HW2 1479   1.869   2.356   2.767 -0.5807  0.7804 -3.0890
  494SOL     OW 1480   0.315   1.179   0.708  0.5270 -0.0748 -0.3838
  494SOL    HW1 1481   0.319   1.224   0.619 -0.1845  0.8092  0.2506
  494SOL    HW2 1482   0.214   1.181   0.742  0.1693  2.7524  0.6594
  495SOL     OW 1483   3.051   3.082   1.553  0.5329  0.1410  0.1206
  495SOL    HW1 1484   3.080   0.062   1.522 -0.0540  1.9871 -0.4333
  495SOL    HW2 1485   3.059   3.075   1.657  2.6121  0.3972  1.3562
  496SOL     OW 1486   2.693   2.987   1.672  0.4967  0.1456  0.4069
  496SOL    HW1 1487   2.749   2.945   1.600  1.2829 -3.6498  2.1508
  496SOL    HW2 1488   2.729   2.991   1.769 -0.8917 -1.4796 -0.0026
  497SOL     OW 1489   1.601   1.610   2.390  0.2655  0.3872 -0.1036
  497SOL    HW1 1490   1.615   1.556   2.479 -0.3192  1.4451  1.9286
  497SOL    HW2 1491   1.497   1.618   2.374  0.7211 -1.1050  0.5254
  498SOL     OW 1492   0.330   2.065   0.648  0.1218 -0.4019  0.0854
  498SOL    HW1 1493   0.332   1.993   0.577 -1.5329 -1.9499 -0.5748
  498SOL    HW2 1494   0.305   2.028   0.739 -1.3467  0.2489  0.2540
  499SOL     OW 1495   0.060   1.555   1.437  0.7424 -0.0847 -0.5079
  499SOL    HW1 1496   0.077   1.456   1.428 -1.7608  0.3078 -0.7825
  499SOL    HW2 1497   3.099   1.580   1.498 -0.3489  2.3321  2.8238
  500SOL     OW 1498   1.365   2.264   0.268  0.4105 -0.5384 -1.1979
  500SOL    HW1 1499   1.324   2.175   0.303  0.4753 -0.6724  3.3565
  500SOL    HW2 1500   1.288   2.329   0.264  1.2267 -0.9370 -0.6974
  501SOL     OW 1501   2.275   2.606   1.231  0.1087 -0.1450  0.3089
  501SOL    HW1 1502   2.263   2.685   1.291  0.0435 -0.4432  1.0244
  501SOL    HW2 1503   2.371   2.568   1.235  4.5005  0.1038 -1.2830
  502SOL     OW 1504   0.081   0.935   1.562  0.3221  0.3979 -0.0793
  502SOL    HW1 1505   0.161   0.970   1.618 -0.2103  0.5371  0.5859
  502SOL    HW2 1506   0.094   0.843   1.515 -1.4682 -0.5826 -0.3179
  503SOL     OW 1507   2.286   0.125   1.952  0.2616 -0.4347  0.2000
  503SOL    HW1 1508   2.385   0.105   1.959 -1.6451 -1.3849  3.9432
  503SOL    HW2 1509   2.269   0.221   1.924  0.5460 -1.4927  1.2291
  504SOL     OW 1510   1.881   0.702   1.877  0.2234  0.2772 -0.1721
  504SOL    HW1 1511   1.793   0.658   1.866  0.3874  2.6877 -2.0802
  504SOL    HW2 1512   1.866   0.805   1.875  1.4995  2.2771 -0.9807
  505SOL     OW 1513   1.389   0.185   2.519 -0.0365 -0.4829 -0.1513
  505SOL    HW1 1514   1.363   0.104   2.575 -1.5799  1.7306 -1.5992
  505SOL    HW2 1515   1.454   0.246   2.565  1.2471  1.4368  0.0090
  506SOL     OW 1516   0.518   0.500   1.725  0.1789 -0.2302  0.7139
  506SOL    HW1 1517   0.548   0.441   1.648 -1.0838  0.0078  1.5437
  506SOL    HW2 1518   0.513   0.448   1.810 -0.0000 -1.5963 -3.4098
  507SOL     OW 1519   1.761   2.947   2.904  0.0647 -0.0356 -0.2713
  507SOL    HW1 1520   1.696   3.008   2.854 -0.6463 -0.0138  2.4097
  507SOL    HW2 1521   1.716   2.909   2.987 -1.0875  0.2665 -0.3305
  508SOL     OW 1522   2.311   0.383   2.753 -0.1058 -0.5865  0.3091
  508SOL    HW1 1523   2.281   0.379   2.851 -0.6212 -0.9090  2.4735
  508SOL    HW2 1524   2.410   0.360   2.752  0.0813  2.6018 -1.2719
  509SOL     OW 1525   1.023   1.294   1.788  0.1084  0.5852 -0.2157
  509SOL    HW1 1526   0.955   1.344   1.849 -1.2301 -1.2351  0.6463
  509SOL    HW2 1527   1.038   1.344   1.705  2.8654 -1.3871  1.4114
  510SOL     OW 1528   3.029   1.007   0.904 -0.0657  0.5381  0.4552
  510SOL    HW1 1529   3.052   0.919   0.863 -2.4470  0.5109  1.2415
  510SOL    HW2 1530   2.930   1.012   0.921  1.3252 -0.7036  0.2717
  511SOL     OW 1531   1.607   1.795   1.009  0.1354 -0.3124 -0.3280
  511SOL    HW1 1532   1.552   1.817   1.093  2.2686  1.0077 -0.8195
  511SOL    HW2 1533   1.569   1.715   0.957  1.2805  3.3836  0.7151
  512SOL     OW 1534   0.757   1.475   0.117  0.1967  0.5342 -0.1133
  512SOL    HW1 1535   0.690   1.407   0.081 -1.7702  0.4881  1.7733
  512SOL    HW2 1536   0.727   1.500   0.212  2.6259 -0.6198 -0.0887
  513SOL     OW 1537   0.200   2.505   0.548  0.5685  0.4905 -0.1175
  513SOL    HW1 1538   0.152   2.587   0.585  2.1879 -5.2129  0.0935
  513SOL    HW2 1539   0.299   2.512   0.567 -1.4604  0.4158  1.8691
  514SOL     OW 1540   0.153   1.923   2.863 -0.7919 -0.0281 -0.1655
  514SOL    HW1 1541   0.163   1.916   2.965 -1.8991 -1.1680 -0.2167
  514SOL    HW2 1542   0.180   1.835   2.819 -0.9141 -0.1337 -1.1666
  515SOL     OW 1543   2.321   0.717   0.385  0.1783 -0.4287 -0.2091
  515SOL    HW1 1544   2.281   0.696   0.474  0.8351 -0.4070 -1.7231
  515SOL    HW2 1545   2.273   0.663   0.316  0.2590 -0.6351  3.3157
  516SOL     OW 1546   2.480   2.816   1.335 -0.1200  0.4058 -0.2022
  516SOL    HW1 1547   2.495   2.796   1.433 -1.2072  1.0853  0.8325
  516SOL    HW2 1548   2.444   2.907   1.317  0.2939 -3.5704  0.7918
  517SOL     OW 1549   1.317   1.637   3.022 -0.4412  0.1954  0.2227
  517SOL    HW1 1550   1.414   1.663   3.015  1.1908  1.6742  2.0976
  517SOL    HW2 1551   1.275   1.680   3.102  2.5046 -0.1474 -0.5911
  518SOL     OW 1552   1.168   0.691   1.669  0.0735 -0.3731  0.5072
  518SOL    HW1 1553   1.090   0.662   1.727  0.8139  0.0281 -2.3423
  518SOL    HW2 1554   1.233   0.618   1.670 -2.2756  1.9122 -0.6195
  519SOL     OW 1555   2.852   1.989   0.821  1.0623 -0.2859 -0.1977
  519SOL    HW1 1556   2.844   1.889   0.808 -2.3346  1.5861  0.4180
  519SOL    HW2 1557   2.788   2.032   0.750 -4.1864  0.0179  1.3446
  520SOL     OW 1558   2.245   2.297   1.709 -0.2857 -0.1661  0.2117
  520SOL    HW1 1559   2.225   2.218   1.772  0.2835  2.5847  1.0993
  520SOL    HW2 1560   2.197   2.379   1.738  1.8206 -1.6536  1.2368
  521SOL     OW 1561   1.051   3.045   2.665  0.2510  0.4361 -0.5407
  521SOL    HW1 1562   1.026   0.023   2.692 -2.0595 -3.6936  1.4474
  521SOL    HW2 1563   1.028   3.018   2.571  0.8535  2.4893  0.9029
  522SOL     OW 1564   2.734   0.190   2.605  0.4919 -0.2120 -0.1956
  522SOL    HW1 1565   2.735   0.235   2.510 -2.0580  2.6446 -2.6341
  522SOL    HW2 1566   2.643   0.149   2.627 -1.6232 -1.0162 -0.3361
  523SOL     OW 1567   1.533   2.389   1.443 -0.3156 -0.6779 -0.2677
  523SOL    HW1 1568   1.548   2.491   1.459 -0.6198  1.5417 -0.2386
  523SOL    HW2 1569   1.623   2.339   1.448  0.2523 -2.5421 -0.3067
  524SOL     OW 1570   1.642   2.199   2.857  0.3968 -0.2884 -0.4011
  524SOL    HW1 1571   1.592   2.262   2.790 -0.4823  1.8101 -1.6971
  524SOL    HW2 1572   1.637   2.104   2.824  1.6094 -3.2165 -0.4804
  525SOL     OW 1573   0.171   0.775   0.249  0.0620 -0.1613  0.3008
  525SOL    HW1 1574   0.185   0.872   0.289 -0.9022  4.2841 -3.1526
  525SOL    HW2 1575   0.144   0.712   0.319 -0.8598  2.1109 -1.4666
  526SOL     OW 1576   0.921   2.903   0.764 -0.2805  0.0083 -0.6676
  526SOL    HW1 1577   0.977   2.980   0.793 -0.5162 -1.9575 -0.6399
  526SOL    HW2 1578   0.821   2.924   0.778 -2.7658  2.4300  1.5636
  527SOL     OW 1579   2.623   1.642   0.460  0.0970 -0.6467 -0.4304
  527SOL    HW1 1580   2.668   1.672   0.547  0.7167  1.1627  1.5006
  527SOL    HW2 1581   2.690   1.596   0.403 -1.3451  1.3630  1.3137
  528SOL     OW 1582   0.683   0.926   2.333 -0.0446  0.0036  0.0673
  528SOL    HW1 1583   0.687   0.981   2.416  2.6994 -0.2503 -0.1482
  528SOL    HW2 1584   0.588   0.920   2.298  1.8449  1.6404  0.6591
  529SOL     OW 1585   1.284   1.628   2.758 -0.1283  0.0426  0.1055
  529SOL    HW1 1586   1.283   1.619   2.862 -0.7188 -1.4824  1.0669
  529SOL    HW2 1587   1.350   1.557   2.725 -0.6544  0.8197  0.1370
  530SOL     OW 1588   1.722   1.320   2.509  0.0334  0.1889  0.5191
  530SOL    HW1 1589   1.631   1.294   2.465 -1.6721 -1.4398 -0.2252
  530SOL    HW2 1590   1.749   1.240   2.569  0.5283  0.3364 -0.4401
  531SOL     OW 1591   0.698   2.147   2.720 -0.2384  0.1081 -0.1514
  531SOL    HW1 1592   0.614   2.168   2.778 -1.9228  1.7765  0.4510
  531SOL    HW2 1593   0.763   2.223   2.744 -0.8820  0.1886 -0.8575
  532SOL     OW 1594   2.435   0.986   0.468  0.1011  0.9068 -0.2730
  532SOL    HW1 1595   2.419   1.076   0.422  3.0425  4.1201  0.4780
  532SOL    HW2 1596   2.392   0.903   0.423 -0.4706 -1.7128 -1.0806
  533SOL     OW 1597   0.039   0.475   1.820  0.3289  0.0891 -0.2250
  533SOL    HW1 1598   0.110   0.534   1.778 -0.9902  0.6894  0.2607
  533SOL    HW2 1599   0.038   0.485   1.922  0.8624 -0.4544 -0.9924
  534SOL     OW 1600   1.500   0.009   0.090  0.3416  0.6026  0.1667
  534SOL    HW1 1601   1.422   0.070   0.120 -0.4715 -1.5814 -3.1844
  534SOL    HW2 1602   1.492   3.097   3.107  0.6942  1.0384 -1.4295
  535SOL     OW 1603   0.685   0.173   0.121 -0.2568 -0.0329  0.0709
  535SOL    HW1 1604   0.618   0.111   0.163  2.3340  0.4547 -0.4157
  535SOL    HW2 1605   0.699   0.260   0.169  0.1674 -3.4852 -1.3586
  536SOL     OW 1606   0.354   1.859   1.743  0.2297  0.6216 -0.6892
  536SOL    HW1 1607   0.266   1.905   1.736  1.1917 -0.4868 -0.7141
  536SOL    HW2 1608   0.342   1.783   1.809  0.9026  1.8361 -3.6033
  537SOL     OW 1609   0.430   2.540   1.907  0.4295  0.2405  0.0320
  537SOL    HW1 1610   0.440   2.502   1.817 -0.2425  0.5790  0.5466
  537SOL    HW2 1611   0.446   2.471   1.982  0.8996  2.3484  1.9196
  538SOL     OW 1612   3.037   1.709   3.113  0.1464 -0.3890  0.4281
  538SOL    HW1 1613   0.015   1.738   3.097 -0.7227  0.1368  0.5790
  538SOL    HW2 1614   3.021   1.688   0.098  0.6820 -0.8144 -0.1870
  539SOL     OW 1615   2.723   0.688   2.595  0.7337 -0.0838  0.3506
  539SOL    HW1 1616   2.698   0.626   2.518 -0.4289 -1.7247 -0.6976
  539SOL    HW2 1617   2.824   0.709   2.594 -1.3462  1.7831  0.0089
  540SOL     OW 1618   1.770   0.591   2.427 -0.6004  0.6531 -0.0276
  540SOL    HW1 1619   1.786   0.688   2.442 -1.4420 -0.5159 -0.2326
  540SOL    HW2 1620   1.843   0.541   2.480  1.0765 -0.1102  2.1079
  541SOL     OW 1621   0.697   0.096   1.919 -0.2265  0.1676 -0.0596
  541SOL    HW1 1622   0.664   0.001   1.938 -2.6224  0.3469  0.4273
  541SOL    HW2 1623   0.780   0.126   1.968 -0.6201  1.0552  1.2720
  542SOL     OW 1624   1.996   2.704   2.533 -0.1705  0.5181  0.2677
  542SOL    HW1 1625   1.930   2.775   2.502  1.5715  1.0469  1.2976
  542SOL    HW2 1626   1.940   2.615   2.528 -0.1585 -1.8290 -3.7497
  543SOL     OW 1627   0.669   2.993   0.803  0.7438 -0.0931 -0.5102
  543SOL    HW1 1628   0.627   2.914   0.842  2.9823  1.7990  1.0901
  543SOL    HW2 1629   0.671   3.072   0.865  0.9765  0.3773 -2.4148
  544SOL     OW 1630   2.488   1.670   2.138  0.3216 -0.0972 -0.3445
  544SOL    HW1 1631   2.554   1.643   2.066  1.9330 -0.8752  0.7248
  544SOL    HW2 1632   2.393   1.625   2.125 -2.1552 -0.6094  0.5116
  545SOL     OW 1633   1.894   1.914   1.175  0.1221  0.0910 -0.2668
  545SOL    HW1 1634   1.795   1.893   1.181 -0.6662 -0.9626  2.1308
  545SOL    HW2 1635   1.955   1.836   1.199 -0.4567 -0.8817  0.7251
  546SOL     OW 1636   0.317   0.080   2.330  0.1246  0.7459 -0.1349
  546SOL    HW1 1637   0.275   0.160   2.285 -0.8431 -2.8727  1.2986
  546SOL    HW2 1638   0.252   0.005   2.354 -0.6589 -1.6705 -0.8244
  547SOL     OW 1639   1.154   0.531   1.181  0.8105 -0.3348  0.6329
  547SOL    HW1 1640   1.214   0.585   1.238 -3.0795 -1.2856 -2.2153
  547SOL    HW2 1641   1.152   0.577   1.093  1.4199  0.1186  0.8600
  548SOL     OW 1642   1.425   2.587   2.749  0.2120 -0.0768  0.3113
  548SOL    HW1 1643   1.458   2.495   2.752 -2.0513  4.1256 -1.3381
  548SOL    HW2 1644   1.469   2.623   2.667  1.1214  0.5435  0.3027
  549SOL     OW 1645   2.201   0.188   0.008 -0.2434  0.8912  0.1851
  549SOL    HW1 1646   2.120   0.141   0.057 -1.6603 -0.3635 -1.2539
  549SOL    HW2 1647   2.284   0.179   0.067  3.2235 -3.3947  0.7292
  550SOL     OW 1648   2.635   2.057   0.663  0.1471 -0.4764 -0.0204
  550SOL    HW1 1649   2.571   1.997   0.708 -0.4362  0.1630  0.1244
  550SOL    HW2 1650   2.687   2.016   0.588  0.4226 -0.4964  2.7453
  551SOL     OW 1651   1.049   2.918   1.941 -0.0785  0.1604 -0.1922
  551SOL    HW1 1652   1.017   2.916   1.842  1.2950  0.8141 -0.9051
  551SOL    HW2 1653   1.052   3.018   1.969  1.8345 -1.1238 -0.8267
  552SOL     OW 1654   2.907   2.185   2.653 -0.4604  0.2377 -0.6203
  552SOL    HW1 1655   2.958   2.184   2.565 -0.5765 -0.3460  1.5814
  552SOL    HW2 1656   2.807   2.204   2.642  0.0209 -0.3191  2.2392
  553SOL     OW 1657   0.109   2.646   0.911  0.2860 -0.6237 -0.0247
  553SOL    HW1 1658   0.062   2.728   0.956 -0.3414 -0.4292 -0.9663
  553SOL    HW2 1659   0.095   2.562   0.967 -0.8211  0.7409  1.6584
  554SOL     OW 1660   2.085   1.956   1.638 -0.5977  0.0429 -0.2833
  554SOL    HW1 1661   2.141   2.015   1.701  3.6197  0.3426 -0.3669
  554SOL    HW2 1662   2.072   2.007   1.549  1.4462  0.7532 -2.2236
  555SOL     OW 1663   1.530   2.148   1.776 -0.7748 -0.3530  0.1705
  555SOL    HW1 1664   1.434   2.116   1.784 -0.0945 -1.0444 -0.0484
  555SOL    HW2 1665   1.534   2.253   1.800  1.7164  5.6101  2.4038
  556SOL     OW 1666   1.516   1.582   0.846 -0.3144 -0.0077  0.1203
  556SOL    HW1 1667   1.562   1.571   0.755 -3.3396 -0.5881 -4.3783
  556SOL    HW2 1668   1.427   1.631   0.833  0.9095  0.8750 -1.3167
  557SOL     OW 1669   1.402   2.879   1.586  0.2185 -0.6390  0.0035
  557SOL    HW1 1670   1.359   2.845   1.671  0.7556  1.3551 -0.4271
  557SOL    HW2 1671   1.464   2.953   1.607 -2.7024 -1.2388 -1.6981
  558SOL     OW 1672   0.170   0.107   1.948 -0.0314  0.1788  0.2422
  558SOL    HW1 1673   0.194   0.151   2.038 -2.3030 -0.0149  0.2653
  558SOL    HW2 1674   0.155   0.177   1.874 -0.9133 -1.5674  0.4208
  559SOL     OW 1675   2.191   3.076   0.697  0.1673  0.4262 -0.1676
  559SOL    HW1 1676   2.256   0.031   0.721  1.4739 -1.0795  1.3930
  559SOL    HW2 1677   2.095   3.106   0.678 -1.9429  0.7448 -0.9443
  560SOL     OW 1678   1.434   2.328   0.690 -0.1988 -0.1876 -0.3131
  560SOL    HW1 1679   1.339   2.286   0.670 -0.2971 -0.7345 -2.8041
  560SOL    HW2 1680   1.429   2.396   0.766 -1.5635 -0.0253  0.0338
  561SOL     OW 1681   0.961   0.219   0.630 -0.2906 -0.0257 -0.5401
  561SOL    HW1 1682   1.034   0.278   0.587  1.2370  0.0692 -1.9407
  561SOL    HW2 1683   0.879   0.223   0.574  3.2880 -2.9072 -0.5110
  562SOL     OW 1684   0.378   1.383   2.597  0.5185  0.3759  0.1571
  562SOL    HW1 1685   0.306   1.318   2.621  2.3131 -0.7017 -0.4198
  562SOL    HW2 1686   0.467   1.343   2.625 -1.0223 -0.2302  0.7267
  563SOL     OW 1687   1.482   2.210   2.267 -0.3322 -0.2318  0.5581
  563SOL    HW1 1688   1.490   2.162   2.173  0.4662 -0.5290 -1.2102
  563SOL    HW2 1689   1.561   2.179   2.319 -1.4511  1.3700 -2.1229
  564SOL     OW 1690   2.788   1.047   1.037 -0.4467 -0.1276  0.0374
  564SOL    HW1 1691   2.757   1.145   1.043  2.9268  1.1241  1.9390
  564SOL    HW2 1692   2.721   0.994   0.979  3.9353  2.2409 -2.6593
  565SOL     OW 1693   0.700   1.058   0.007 -0.2145  0.3999 -0.3996
  565SOL    HW1 1694   0.711   0.957   3.108 -2.1202  0.8939 -0.1924
  565SOL    HW2 1695   0.779   1.106   3.076  0.1872 -0.8884 -1.2549
  566SOL     OW 1696   2.652   3.104   2.892 -0.1817  0.5457 -0.0941
  566SOL    HW1 1697   2.601   3.066   2.972  1.4313  0.1704 -1.0843
  566SOL    HW2 1698   2.586   0.031   2.830  0.9265 -0.8585  1.1872
  567SOL     OW 1699   1.366   0.841   0.944 -0.3181 -0.1401  0.2072
  567SOL    HW1 1700   1.456   0.818   0.976 -1.9715  1.0725 -0.9096
  567SOL    HW2 1701   1.362   0.942   0.919 -1.6174  0.0690  0.1450
  568SOL     OW 1702   1.637   1.928   2.760 -0.4346 -0.1463 -0.0836
  568SOL    HW1 1703   1.631   1.891   2.665 -3.1298  0.1332  1.5782
  568SOL    HW2 1704   1.616   1.860   2.831  2.0374 -0.6755  0.1088
  569SOL     OW 1705   2.204   1.296   3.062  0.1020 -0.3892  0.1905
  569SOL    HW1 1706   2.200   1.253   0.040  0.6260 -0.3706  3.2666
  569SOL    HW2 1707   2.280   1.260   3.006 -0.5010 -4.7680 -2.1687
  570SOL     OW 1708   0.146   2.475   1.928  0.2863  0.0950  0.4125
  570SOL    HW1 1709   0.242   2.513   1.901  3.6610  0.6820 -0.9252
  570SOL    HW2 1710   0.089   2.487   1.841 -0.8720  2.6029  0.2035
  571SOL     OW 1711   2.816   1.838   1.658  0.0500  0.1759 -0.7806
  571SOL    HW1 1712   2.860   1.865   1.570  3.4250  1.1066 -2.6792
  571SOL    HW2 1713   2.809   1.919   1.721 -1.8601  0.7787  0.9053
  572SOL     OW 1714   1.665   1.979   0.361  0.0362  0.1605 -0.0518
  572SOL    HW1 1715   1.616   1.951   0.446 -0.3462 -0.3453 -0.9786
  572SOL    HW2 1716   1.692   2.075   0.369 -1.9463 -0.5334 -1.5470
  573SOL     OW 1717   1.772   2.222   0.395 -0.2476  0.1133  0.0863
  573SOL    HW1 1718   1.803   2.245   0.305 -0.3990  0.8384  0.4997
  573SOL    HW2 1719   1.707   2.285   0.435  2.0964 -0.5075  0.4468
  574SOL     OW 1720   0.825   0.289   1.301 -0.7001 -0.1078  0.3034
  574SOL    HW1 1721   0.855   0.236   1.382  0.9521 -2.3056 -2.0321
  574SOL    HW2 1722   0.866   0.247   1.218  1.1058  1.5646  0.7590
  575SOL     OW 1723   0.782   0.866   1.831  0.3616 -0.2472 -0.9272
  575SOL    HW1 1724   0.777   0.946   1.763  0.2622  2.0068 -2.5604
  575SOL    HW2 1725   0.787   0.889   1.932  2.4312  0.7716  0.7821
  576SOL     OW 1726   2.682   0.463   1.717 -0.3421  0.2376  0.2746
  576SOL    HW1 1727   2.782   0.454   1.686  0.3404  0.3707 -2.4386
  576SOL    HW2 1728   2.612   0.431   1.649  0.4816 -2.5712  0.2307
  577SOL     OW 1729   1.236   1.140   2.375  0.1332  0.2446 -0.4832
  577SOL    HW1 1730   1.252   1.139   2.474  3.1730 -0.8054 -0.7427
  577SOL    HW2 1731   1.260   1.048   2.338 -0.7812 -1.7253  0.2137
  578SOL     OW 1732   2.075   1.448   2.507  0.0695  0.0633  0.0496
  578SOL    HW1 1733   1.976   1.454   2.482 -0.4873 -1.7207 -2.0999
  578SOL    HW2 1734   2.138   1.434   2.428  1.3264 -0.8659  1.6179
  579SOL     OW 1735   1.335   2.203   1.374 -0.5155  0.3588  0.1142
  579SOL    HW1 1736   1.370   2.124   1.428 -1.7510  1.2321  1.9368
  579SOL    HW2 1737   1.389   2.283   1.396 -2.8304 -3.2820  0.3701
  580SOL     OW 1738   1.309   2.009   0.372 -0.2294 -0.1955 -0.1391
  580SOL    HW1 1739   1.362   1.957   0.443  0.1476  0.1098  1.0297
  580SOL    HW2 1740   1.325   1.975   0.279  2.2382  2.3893  0.9264
  581SOL     OW 1741   1.243   0.813   2.158 -0.1661 -0.4454 -0.1603
  581SOL    HW1 1742   1.141   0.819   2.155 -1.9755 -0.9000  0.1204
  581SOL    HW2 1743   1.279   0.850   2.244  0.1341  1.8044  0.5237
  582SOL     OW 1744   0.802   1.120   1.697 -0.0834 -0.1257  0.5661
  582SOL    HW1 1745   0.895   1.133   1.734 -3.1453  0.2031 -0.9027
  582SOL    HW2 1746   0.803   1.130   1.597 -0.9009  0.1212  2.8702
  583SOL     OW 1747   1.223   1.253   2.006  0.2598 -0.1031  0.1335
  583SOL    HW1 1748   1.286   1.183   1.970 -2.6522  0.6554 -2.1585
  583SOL    HW2 1749   1.134   1.234   1.954  0.1845 -1.7742 -1.7388
  584SOL     OW 1750   2.380   2.406   1.019 -0.7096  0.3740  0.2405
  584SOL    HW1 1751   2.376   2.373   0.925 -0.3417 -1.9541  1.9004
  584SOL    HW2 1752   2.288   2.442   1.045 -1.7648  0.8054  0.1702
  585SOL     OW 1753   2.081   0.033   2.746  0.2971 -0.1425 -0.1908
  585SOL    HW1 1754   2.050   3.048   2.743 -0.9676  0.1548 -0.2745
  585SOL    HW2 1755   2.157   0.045   2.818  0.5312  0.4684  0.4472
  586SOL     OW 1756   0.030   2.268   0.739  0.0374 -0.5960  0.1096
  586SOL    HW1 1757   3.068   2.316   0.707  1.3379 -0.4477 -0.3586
  586SOL    HW2 1758   0.108   2.303   0.682  2.6401 -0.4551 -3.1442
  587SOL     OW 1759   1.574   1.802   3.020 -0.1848  0.1033 -0.2339
  587SOL    HW1 1760   1.593   1.872   3.087 -0.8482 -1.6136 -0.7682
  587SOL    HW2 1761   1.618   1.708   3.034 -1.3700  2.7258 -4.0610
  588SOL     OW 1762   0.316   0.285   1.140  0.5418  0.8840  0.2333
  588SOL    HW1 1763   0.329   0.249   1.232 -1.1106 -1.6418 -2.4451
  588SOL    HW2 1764   0.295   0.205   1.077  1.5042 -0.1000  1.0542
  589SOL     OW 1765   1.167   0.671   0.923  0.0778  0.2322 -0.4416
  589SOL    HW1 1766   1.249   0.730   0.935 -0.6921  1.4250  3.7418
  589SOL    HW2 1767   1.100   0.711   0.860 -1.7453  0.5242 -0.4543
  590SOL     OW 1768   1.310   1.086   3.096 -0.5841  0.4315  0.1161
  590SOL    HW1 1769   1.388   1.080   0.049  0.7082  0.2529  0.8799
  590SOL    HW2 1770   1.261   1.168   3.111  0.8940 -0.1794 -1.8623
  591SOL     OW 1771   2.541   2.452   2.452 -0.1825  0.0791  0.5532
  591SOL    HW1 1772   2.482   2.475   2.527  0.4900  1.5056 -1.5046
  591SOL    HW2 1773   2.532   2.526   2.376  1.2374 -3.1204 -0.2403
  592SOL     OW 1774   1.765   2.279   1.400 -0.0778 -0.3850  0.0234
  592SOL    HW1 1775   1.757   2.241   1.310  0.1290  0.4825  2.7883
  592SOL    HW2 1776   1.765   2.210   1.475  2.0438  0.0509  0.7926
  593SOL     OW 1777   0.590   0.158   0.899  0.2803  0.5431 -0.7216
  593SOL    HW1 1778   0.574   0.104   0.988 -3.2889 -1.0590  4.3142
  593SOL    HW2 1779   0.514   0.218   0.872  0.6392  3.3275  1.0197
  594SOL     OW 1780   2.775   1.090   2.473 -0.1658  0.3241 -0.3747
  594SOL    HW1 1781   2.832   1.177   2.485  2.9177  1.8542  1.1420
  594SOL    HW2 1782   2.837   1.012   2.503  1.0599  1.5988 -0.6534
  595SOL     OW 1783   0.511   2.768   0.886  0.0028 -0.1613  0.2007
  595SOL    HW1 1784   0.437   2.704   0.924 -1.8176 -0.5099 -0.5201
  595SOL    HW2 1785   0.563   2.805   0.963 -1.8065 -0.2683 -2.5475
  596SOL     OW 1786   0.063   1.257   1.343  0.1501 -0.2396 -0.3991
  596SOL    HW1 1787   0.084   1.244   1.443 -0.0722  1.3270 -2.2029
  596SOL    HW2 1788   0.043   1.163   1.311 -0.9250  2.0550  1.9148
  597SOL     OW 1789   1.512   1.696   0.227 -0.1210  0.0051  0.1012
  597SOL    HW1 1790   1.592   1.732   0.284  0.7198  1.0564  0.6882
  597SOL    HW2 1791   1.444   1.770   0.201 -2.6315 -0.6030  0.1240
  598SOL     OW 1792   0.372   3.017   1.863 -0.0321 -0.1309 -0.3301
  598SOL    HW1 1793   0.400   3.022   1.766 -0.9028 -3.2098 -0.5769
  598SOL    HW2 1794   0.308   3.092   1.891 -0.3777 -1.6837 -1.2356
  599SOL     OW 1795   2.383   1.421   2.832 -0.3149 -0.1268 -0.1063
  599SOL    HW1 1796   2.319   1.502   2.816 -0.0582  0.2873  1.7659
  599SOL    HW2 1797   2.481   1.435   2.799 -0.7060  0.8271 -2.0541
  600SOL     OW 1798   0.894   1.225   0.204  0.2633 -0.3639 -0.2255
  600SOL    HW1 1799   0.872   1.319   0.178  2.4842 -5.3358 -0.1653
  600SOL    HW2 1800   0.939   1.228   0.295  0.8890  1.6470 -0.3842
  601SOL     OW 1801   0.385   0.953   0.837  0.6784  0.4549 -0.1560
  601SOL    HW1 1802   0.370   1.043   0.797 -0.1912 -3.7703  0.3675
  601SOL    HW2 1803   0.425   0.951   0.932 -0.1669  3.6391  1.8831
  602SOL     OW 1804   1.739   2.819   0.447 -0.3856  0.2242 -0.5957
  602SOL    HW1 1805   1.723   2.847   0.545  1.0580  1.0904 -1.8730
  602SOL    HW2 1806   1.701   2.891   0.390 -1.8668 -1.6136  1.0236
  603SOL     OW 1807   0.720   2.678   2.251  0.0722 -0.1888 -0.4286
  603SOL    HW1 1808   0.818   2.683   2.228  0.3981  0.9927 -0.8908
  603SOL    HW2 1809   0.693   2.585   2.265  0.1513  1.0592  0.8442
  604SOL     OW 1810   0.139   0.215   2.598  0.3291 -0.5455 -0.1169
  604SOL    HW1 1811   0.173   0.122   2.635  2.4032 -4.1039 -1.2236
  604SOL    HW2 1812   0.089   0.269   2.662  0.3543  2.6565 -4.0775
  605SOL     OW 1813   2.698   1.495   1.460 -0.1141  0.2872 -0.7995
  605SOL    HW1 1814   2.666   1.409   1.499 -0.5252  1.5062 -1.1367
  605SOL    HW2 1815   2.618   1.544   1.417 -2.0368  0.4570  0.6282
  606SOL     OW 1816   0.866   1.498   2.588 -0.3614 -0.1909  0.2987
  606SOL    HW1 1817   0.779   1.533   2.630 -2.7599  0.0491  2.1815
  606SOL    HW2 1818   0.845   1.410   2.539  0.4708 -1.1340 -0.8047
  607SOL     OW 1819   0.492   0.142   0.516  0.4466 -0.0246  0.0034
  607SOL    HW1 1820   0.396   0.166   0.492  2.0194  0.0960 -1.9691
  607SOL    HW2 1821   0.528   0.213   0.582 -0.9166  0.9170 -0.6655
  608SOL     OW 1822   1.905   1.789   2.167  0.2565 -0.0428  0.1048
  608SOL    HW1 1823   1.893   1.873   2.106 -0.4031  0.6180 -0.1256
  608SOL    HW2 1824   1.855   1.704   2.135 -0.6043 -0.8238 -0.2301
  609SOL     OW 1825   2.723   0.416   1.294 -0.0961  0.4061 -0.2484
  609SOL    HW1 1826   2.707   0.353   1.214  0.0572 -1.9628 -1.5520
  609SOL    HW2 1827   2.687   0.374   1.381  0.3460  1.2280 -0.4975
  610SOL     OW 1828   0.372   2.918   0.681  0.2350 -0.4661  0.2553
  610SOL    HW1 1829   0.421   2.873   0.753 -1.4614 -0.5841  0.8565
  610SOL    HW2 1830   0.432   2.949   0.607 -1.5233  0.2878  0.1847
  611SOL     OW 1831   1.726   0.850   2.951 -0.5882  0.2345  0.0450
  611SOL    HW1 1832   1.792   0.924   2.929  0.7083  1.1396 -0.7083
  611SOL    HW2 1833   1.662   0.846   2.870 -2.5649  1.7802 -1.1229
  612SOL     OW 1834   0.706   2.329   1.977  0.1046 -0.0802  0.2487
  612SOL    HW1 1835   0.770   2.305   2.053  0.5013  1.1217  1.4386
  612SOL    HW2 1836   0.748   2.321   1.886  0.0811  1.4471 -2.5465
  613SOL     OW 1837   0.463   2.514   0.630 -0.2968  0.4193 -0.0424
  613SOL    HW1 1838   0.455   2.429   0.691  0.6721 -1.7657  0.2830
  613SOL    HW2 1839   0.529   2.497   0.552  0.5164  0.9457 -2.2299
  614SOL     OW 1840   2.527   0.102   1.713  0.3850 -0.0263  0.3133
  614SOL    HW1 1841   2.578   0.022   1.677  2.2004  0.9005 -0.0443
  614SOL    HW2 1842   2.510   0.081   1.810  2.1540  0.5489  1.0995
  615SOL     OW 1843   1.739   1.016   0.322 -0.5414 -0.2617 -0.3917
  615SOL    HW1 1844   1.718   1.113   0.291 -1.6769 -0.2677 -2.3542
  615SOL    HW2 1845   1.737   0.947   0.249  1.6796 -3.0290 -0.3450
  616SOL     OW 1846   1.956   0.719   0.223  0.3597  0.8868  0.2597
  616SOL    HW1 1847   1.982   0.708   0.316 -1.3453  0.6668  2.0177
  616SOL    HW2 1848   1.866   0.675   0.213  0.6994 -1.9357  1.2582
  617SOL     OW 1849   0.988   0.910   2.905 -0.5750  0.2410  0.4957
  617SOL    HW1 1850   0.998   1.000   2.951  1.4778  1.8641 -0.3342
  617SOL    HW2 1851   1.056   0.838   2.937  0.5144 -1.2949 -0.0737
  618SOL     OW 1852   0.620   2.965   2.007 -0.3037  0.4716 -0.2306
  618SOL    HW1 1853   0.635   2.867   2.024  1.4954 -0.0911 -0.5211
  618SOL    HW2 1854   0.533   2.981   1.958 -1.0879 -0.3985 -0.8582
  619SOL     OW 1855   2.997   1.398   1.195 -0.8176  0.1183  0.4593
  619SOL    HW1 1856   3.061   1.351   1.262  1.3146 -1.7974  1.7332
  619SOL    HW2 1857   2.951   1.483   1.229 -0.0349 -0.0445 -1.1045
  620SOL     OW 1858   2.670   0.927   2.848  0.5297 -0.3712 -0.0583
  620SOL    HW1 1859   2.591   0.971   2.798 -2.6690 -0.7089 -4.0301
  620SOL    HW2 1860   2.666   0.827   2.836 -0.5383  1.0373 -2.3428
  621SOL     OW 1861   2.749   2.478   1.342  0.1692 -0.3184 -0.1218
  621SOL    HW1 1862   2.842   2.455   1.302  3.9551 -2.4030  0.9716
  621SOL    HW2 1863   2.751   2.560   1.404  0.6352 -1.8987 -0.3423
  622SOL     OW 1864   0.962   0.649   2.635 -0.1494 -0.1763  0.1697
  622SOL    HW1 1865   0.870   0.608   2.607 -2.8463 -0.5566 -2.8245
  622SOL    HW2 1866   0.964   0.744   2.607 -1.2647 -0.0743  1.5391
  623SOL     OW 1867   1.203   0.543   2.733  0.5680 -0.1960  0.0184
  623SOL    HW1 1868   1.182   0.445   2.706  0.6727  0.9024 -0.3578
  623SOL    HW2 1869   1.117   0.594   2.702  0.5137  1.3696 -1.9987
  624SOL     OW 1870   2.409   0.839   0.019 -0.6766  0.9414 -0.1817
  624SOL    HW1 1871   2.379   0.803   3.049  4.2796 -0.3326  1.1309
  624SOL    HW2 1872   2.511   0.860   0.021  0.8236  0.1790 -2.9198
  625SOL     OW 1873   0.910   1.260   0.891 -0.3299 -0.2136 -0.2843
  625SOL    HW1 1874   0.972   1.186   0.925 -0.8221  0.0573  2.1836
  625SOL    HW2 1875   0.937   1.352   0.934  1.1209 -1.0886 -2.3479
  626SOL     OW 1876   1.803   1.061   2.601  0.4538 -0.0050  0.3714
  626SOL    HW1 1877   1.855   0.986   2.559  1.3258  0.4816  0.8490
  626SOL    HW2 1878   1.819   1.059   2.705 -0.2024  0.9196  2.9279
  627SOL     OW 1879   0.989   2.829   2.837  0.5873  0.2783 -0.2800
  627SOL    HW1 1880   1.003   2.862   2.744 -2.2971 -2.1617  1.0985
  627SOL    HW2 1881   0.983   2.908   2.902 -0.3281 -1.7400 -0.4380
  628SOL     OW 1882   2.150   0.249   2.591  0.4141 -0.2361 -0.0030
  628SOL    HW1 1883   2.117   0.168   2.649 -0.5762 -2.6546  1.2403
  628SOL    HW2 1884   2.223   0.301   2.639  1.3290 -2.5473 -1.7633
  629SOL     OW 1885   1.134   0.443   2.967 -0.0894  0.0299 -0.2590
  629SOL    HW1 1886   1.149   0.494   2.883  1.5458 -0.4897  0.4083
  629SOL    HW2 1887   1.095   0.506   3.041  0.6851 -0.7667  2.7265
  630SOL     OW 1888   1.270   0.096   2.281  0.0256 -0.0004  0.7012
  630SOL    HW1 1889   1.262   0.190   2.242  0.0094  1.1224 -1.6200
  630SOL    HW2 1890   1.296   0.115   2.375  0.7867  0.0687 -0.2633
  631SOL     OW 1891   2.467   1.039   0.739  0.4251 -0.0919 -0.3834
  631SOL    HW1 1892   2.408   1.110   0.785 -0.7722  0.7250  0.2215
  631SOL    HW2 1893   2.472   1.046   0.639 -1.0735  0.6642  0.8837
  632SOL     OW 1894   1.963   0.890   1.343 -0.0684 -0.1493  0.7352
  632SOL    HW1 1895   2.052   0.903   1.389  0.0148  0.5894 -0.3678
  632SOL    HW2 1896   1.924   0.802   1.375  0.5075 -0.2320 -0.5155
  633SOL     OW 1897   0.779   1.484   0.469  0.5038 -0.0017 -0.0399
  633SOL    HW1 1898   0.823   1.572   0.439 -3.2061  0.0554  1.4056
  633SOL    HW2 1899   0.843   1.437   0.530  1.7895 -1.2407  0.6316
  634SOL     OW 1900   2.185   0.209   1.074 -0.1627  0.3652  0.0455
  634SOL    HW1 1901   2.191   0.232   1.175  2.3337  0.6854  0.6341
  634SOL    HW2 1902   2.106   0.246   1.032  0.3560  0.8302 -0.2234
  635SOL     OW 1903   1.714   0.684   1.231 -0.1050 -0.5151 -0.4254
  635SOL    HW1 1904   1.639   0.706   1.294 -0.9438 -1.3688 -0.9328
  635SOL    HW2 1905   1.720   0.747   1.150 -0.6553 -0.9703 -0.1725
  636SOL     OW 1906   0.985   1.171   0.466 -0.0625  0.4919  0.0233
  636SOL    HW1 1907   0.998   1.248   0.529 -1.7186  0.6043 -0.0779
  636SOL    HW2 1908   0.940   1.093   0.513 -2.0233 -0.7009  1.6746
  637SOL     OW 1909   2.492   2.258   2.863 -0.0512  0.4684 -0.3960
  637SOL    HW1 1910   2.509   2.177   2.920  1.5358  0.5218 -3.3620
  637SOL    HW2 1911   2.401   2.246   2.821 -1.6804  1.5608  4.3464
  638SOL     OW 1912   1.615   2.638   2.527 -0.3531  0.1246  0.1380
  638SOL    HW1 1913   1.650   2.733   2.508 -0.0279 -1.6868  0.2228
  638SOL    HW2 1914   1.565   2.596   2.446  2.2733 -0.1442  1.4627
  639SOL     OW 1915   0.984   1.989   1.204 -0.1143  0.0464 -0.1402
  639SOL    HW1 1916   0.884   2.007   1.208 -2.2627  0.5549  2.1986
  639SOL    HW2 1917   1.035   2.074   1.213 -2.8072 -0.1903 -1.5839
  640SOL     OW 1918   2.345   2.860   0.485  0.7525 -0.0068  0.4349
  640SOL    HW1 1919   2.334   2.894   0.387  0.2304  1.7213 -2.7562
  640SOL    HW2 1920   2.270   2.897   0.544  0.3125 -0.1580  1.9302
  641SOL     OW 1921   0.113   2.964   0.290 -0.0359 -0.0340 -0.6142
  641SOL    HW1 1922   0.179   2.895   0.321  1.3839  0.0167 -1.6915
  641SOL    HW2 1923   0.019   2.932   0.307 -2.4062 -1.4760 -0.2681
  642SOL     OW 1924   2.873   0.893   1.239 -0.0224  0.5815  0.5739
  642SOL    HW1 1925   2.820   0.805   1.218 -1.2934 -2.9283  0.2971
  642SOL    HW2 1926   2.838   0.965   1.174  0.7525 -0.2046 -1.1851
  643SOL     OW 1927   0.836   1.868   1.918  0.3107  0.3662  0.2727
  643SOL    HW1 1928   0.744   1.910   1.940  1.2136  0.5957 -0.5317
  643SOL    HW2 1929   0.904   1.941   1.937 -1.0824 -1.9991  1.0310
  644SOL     OW 1930   1.713   2.582   0.316 -0.2137 -0.7188 -0.7155
  644SOL    HW1 1931   1.654   2.519   0.377 -1.6387 -1.4742 -0.2139
  644SOL    HW2 1932   1.732   2.675   0.351  1.9925  0.3553 -0.7778
  645SOL     OW 1933   2.127   2.180   1.040  0.0747 -0.1691  0.7542
  645SOL    HW1 1934   2.047   2.150   0.988  2.5303  2.3611  1.5311
  645SOL    HW2 1935   2.126   2.282   1.047 -0.5453 -0.3106  3.0420
  646SOL     OW 1936   1.097   2.666   3.009  0.3770  0.3647  0.2158
  646SOL    HW1 1937   1.199   2.673   3.009  0.0590  0.0232  1.0795
  646SOL    HW2 1938   1.059   2.725   2.931 -1.8171 -0.0763  2.3587
  647SOL     OW 1939   0.293   2.778   2.014 -0.2131  0.2030 -0.5072
  647SOL    HW1 1940   0.339   2.866   1.991  0.3003  3.2482 -0.3625
  647SOL    HW2 1941   0.351   2.697   1.994  1.9866  2.6398  1.0829
  648SOL     OW 1942   1.698   0.830   1.007 -0.0036  0.3095  0.3147
  648SOL    HW1 1943   1.707   0.748   0.947 -0.0174  0.1044  1.0402
  648SOL    HW2 1944   1.787   0.877   1.011  0.8712  0.0801 -0.8477
  649SOL     OW 1945   1.544   2.242   0.005 -0.4108 -0.3998  0.4547
  649SOL    HW1 1946   1.565   2.332   0.048 -0.7558  0.4449 -0.2898
  649SOL    HW2 1947   1.589   2.237   3.024 -2.4617 -3.5016 -3.8275
  650SOL     OW 1948   2.303   1.484   1.998  0.5856 -0.2434 -0.0040
  650SOL    HW1 1949   2.317   1.535   1.908  0.2951 -0.1198 -1.1881
  650SOL    HW2 1950   2.204   1.472   2.017  2.6312 -1.1553  0.4893
  651SOL     OW 1951   1.617   2.493   0.093  0.0783 -0.3356  0.2793
  651SOL    HW1 1952   1.674   2.514   0.177  1.6515  0.9137 -0.9428
  651SOL    HW2 1953   1.656   2.524   0.004 -3.5077 -2.4041  1.0360
  652SOL     OW 1954   0.794   2.151   3.095 -0.4377  0.3079  0.5136
  652SOL    HW1 1955   0.795   2.087   3.015  3.6385 -1.5613  2.4131
  652SOL    HW2 1956   0.882   2.171   0.013 -3.5524  0.7425 -1.9241
  653SOL     OW 1957   2.442   2.074   1.257  0.7586 -0.0513  0.5635
  653SOL    HW1 1958   2.480   2.165   1.244  0.7138 -0.4578  1.4547
  653SOL    HW2 1959   2.340   2.079   1.277  1.7943 -0.8403 -1.4089
  654SOL     OW 1960   2.857   2.688   1.496  0.3800 -0.2342 -0.1945
  654SOL    HW1 1961   2.883   2.787   1.467  1.1420  0.9707  0.9760
  654SOL    HW2 1962   2.933   2.626   1.457  1.4989 -0.3607 -2.6604
  655SOL     OW 1963   0.016   2.151   1.249 -0.3160  0.1992  1.2886
  655SOL    HW1 1964   3.113   2.105   1.335 -1.8521 -0.8422 -1.6754
  655SOL    HW2 1965   3.046   2.194   1.223  0.7224 -1.0512  2.1485
  656SOL     OW 1966   2.955   2.695   2.738  0.2038 -0.3192  0.0048
  656SOL    HW1 1967   2.922   2.646   2.824 -0.5754 -0.7669 -0.5395
  656SOL    HW2 1968   3.015   2.774   2.756 -0.3257 -0.0829  0.1285
  657SOL     OW 1969   3.048   0.778   0.080 -0.3882 -0.3942 -0.3954
  657SOL    HW1 1970   2.987   0.720   0.138  0.9087 -0.3451 -0.1046
  657SOL    HW2 1971   0.011   0.809   0.137 -1.9463  0.8558 -0.9551
  658SOL     OW 1972   1.956   2.017   0.924 -0.0959 -0.1395 -0.2133
  658SOL    HW1 1973   1.943   1.958   0.841 -0.1760  0.6943 -0.2875
  658SOL    HW2 1974   1.920   1.977   1.012 -0.1112 -1.1803  2.9352
  659SOL     OW 1975   1.529   0.649   1.431  0.3123 -0.7320  0.0432
  659SOL    HW1 1976   1.445   0.662   1.373  1.8288 -0.0223  0.9750
  659SOL    HW2 1977   1.552   0.551   1.437  1.6303  1.2395  0.2615
  660SOL     OW 1978   1.663   1.569   0.022 -0.2660 -0.0799  0.6851
  660SOL    HW1 1979   1.633   1.604   0.109  3.1264 -2.4415 -3.0944
  660SOL    HW2 1980   1.674   1.466   0.019 -0.2010 -1.2895 -0.6068
  661SOL     OW 1981   0.088   1.920   0.284  0.4393  0.0224  0.2027
  661SOL    HW1 1982   0.080   2.019   0.290  2.0386 -0.0401 -0.5582
  661SOL    HW2 1983   0.026   1.877   0.354 -0.3938  0.3411 -0.8912
  662SOL     OW 1984   0.173   0.676   2.129  0.7052  0.7210  0.1818
  662SOL    HW1 1985   0.133   0.668   2.223  0.7730 -0.4952  0.5745
  662SOL    HW2 1986   0.172   0.768   2.095 -1.3542  0.0013  1.1851
  663SOL     OW 1987   1.930   1.468   0.762  0.0156  0.0215  0.5234
  663SOL    HW1 1988   1.893   1.372   0.774  2.6044  0.6891 -1.4196
  663SOL    HW2 1989   2.032   1.465   0.748  0.5882  0.4562 -0.6190
  664SOL     OW 1990   0.543   0.430   1.134  0.4338  0.2485 -0.5367
  664SOL    HW1 1991   0.628   0.414   1.080  0.4563 -1.9932  1.0554
  664SOL    HW2 1992   0.467   0.356   1.129 -0.3201 -0.5750 -0.0019
  665SOL     OW 1993   1.131   0.001   0.201 -0.2129 -0.3128  0.6671
  665SOL    HW1 1994   1.180   3.044   0.257 -2.2335  0.2831 -0.1553
  665SOL    HW2 1995   1.190   0.090   0.198  3.2212  2.0259  1.9189
  666SOL     OW 1996   3.092   0.237   2.397 -0.8071  0.1841  0.4903
  666SOL    HW1 1997   0.028   0.243   2.484 -0.2144  0.6569 -1.1620
  666SOL    HW2 1998   0.046   0.240   2.322  1.5624  0.6955 -0.7110
  667SOL     OW 1999   2.176   1.896   2.226  0.1539 -0.9094  0.6697
  667SOL    HW1 2000   2.225   1.831   2.290  0.8058 -0.0382  0.2052
  667SOL    HW2 2001   2.094   1.849   2.192  0.3679  0.8774 -0.6832
  668SOL     OW 2002   0.463   1.816   2.650  0.0356  0.0811 -0.1697
  668SOL    HW1 2003   0.447   1.911   2.621  1.6134 -0.8986  0.0381
  668SOL    HW2 2004   0.389   1.765   2.605  1.1560 -0.9016 -0.3265
  669SOL     OW 2005   2.249   2.639   2.454  0.1871 -0.1135  0.2203
  669SOL    HW1 2006   2.248   2.605   2.362 -1.9792  2.1663  0.8546
  669SOL    HW2 2007   2.154   2.653   2.486 -1.1215  1.2368 -1.1868
  670SOL     OW 2008   2.504   1.205   2.459 -0.2709 -0.1334 -0.5041
  670SOL    HW1 2009   2.437   1.176   2.392 -0.0972 -0.0384  4.3553
  670SOL    HW2 2010   2.594   1.155   2.456 -0.4039 -1.3345  0.1080
  671SOL     OW 2011   2.429   1.260   0.386 -0.2436  0.4198  0.1769
  671SOL    HW1 2012   2.522   1.248   0.344 -0.2302 -2.8339  0.0525
  671SOL    HW2 2013   2.401   1.359   0.387  0.4628 -2.7145 -0.3185
  672SOL     OW 2014   2.648   1.417   2.350 -0.6782  0.1360 -0.4829
  672SOL    HW1 2015   2.650   1.505   2.401 -2.4833  1.8090 -0.1714
  672SOL    HW2 2016   2.600   1.341   2.396  3.0613 -2.0524 -0.6119
  673SOL     OW 2017   2.590   1.209   1.507  0.3192  0.2584  0.2762
  673SOL    HW1 2018   2.513   1.172   1.454  1.0277  0.8342  0.7632
  673SOL    HW2 2019   2.666   1.144   1.507 -1.4613 -1.3464  2.6341
  674SOL     OW 2020   1.762   1.876   1.520  0.0500  0.0203  0.5989
  674SOL    HW1 2021   1.799   1.804   1.459  0.0021  0.2257 -2.1316
  674SOL    HW2 2022   1.698   1.835   1.588 -0.1025  2.6693  1.0377
  675SOL     OW 2023   0.041   0.610   0.919  0.2120  0.4507  0.0007
  675SOL    HW1 2024   0.042   0.683   0.847  0.4906  2.0620  2.0579
  675SOL    HW2 2025   0.136   0.573   0.939 -1.4241 -1.2850 -1.5333
  676SOL     OW 2026   1.953   0.916   1.073  1.2357 -0.5926  0.1247
  676SOL    HW1 2027   1.968   0.913   1.170 -0.3000  0.7224 -2.5029
  676SOL    HW2 2028   2.028   0.877   1.028 -2.8252  0.3802  0.8247
  677SOL     OW 2029   1.686   1.593   2.092 -0.0526  0.0802 -0.2332
  677SOL    HW1 2030   1.692   1.500   2.050  0.2463 -3.4098 -0.8403
  677SOL    HW2 2031   1.646   1.579   2.184  0.9728 -1.1665 -2.4688
  678SOL     OW 2032   3.021   1.705   0.999 -0.2990 -0.2563 -0.0348
  678SOL    HW1 2033   3.067   1.706   1.088 -1.8557 -2.2983  1.0798
  678SOL    HW2 2034   2.922   1.694   1.015 -0.2558  1.3654 -0.9504
  679SOL     OW 2035   2.953   2.828   0.374 -0.1712  0.1259 -0.5632
  679SOL    HW1 2036   2.888   2.888   0.325 -1.4780 -3.7992 -2.0638
  679SOL    HW2 2037   2.942   2.829   0.478  4.3038  1.9386  0.6509
  680SOL     OW 2038   0.221   2.308   1.372 -0.2413 -0.2630 -0.7034
  680SOL    HW1 2039   0.295   2.250   1.331  0.2647 -0.3366 -2.7202
  680SOL    HW2 2040   0.135   2.268   1.344  1.1020  2.2776  0.4353
  681SOL     OW 2041   0.786   0.767   1.174 -0.1551 -0.1758 -0.0511
  681SOL    HW1 2042   0.844   0.850   1.201 -1.8850 -0.0528  1.0164
  681SOL    HW2 2043   0.833   0.683   1.201 -0.1119 -0.4436 -0.9530
  682SOL     OW 2044   1.469   2.753   0.900  0.3605  0.3668 -0.5161
  682SOL    HW1 2045   1.445   2.842   0.945 -3.1807  2.0625  1.1539
  682SOL    HW2 2046   1.571   2.736   0.910  1.2474  1.1535 -1.5626
  683SOL     OW 2047   2.188   1.240   1.454  0.3104 -0.4225 -0.4719
  683SOL    HW1 2048   2.116   1.290   1.394 -0.0252  1.7651 -0.6082
  683SOL    HW2 2049   2.267   1.209   1.400 -0.2810  1.0201 -0.4225
  684SOL     OW 2050   0.587   2.003   1.813 -0.0607  0.2698 -0.5132
  684SOL    HW1 2051   0.621   2.017   1.910  1.4072  1.1953  1.0695
  684SOL    HW2 2052   0.511   1.937   1.801 -0.0550 -1.4632 -2.6227
  685SOL     OW 2053   2.245   1.744   0.045 -0.2237 -0.2210  0.0075
  685SOL    HW1 2054   2.331   1.687   0.026  0.3178  0.2343 -0.0234
  685SOL    HW2 2055   2.157   1.695   0.045  0.2331 -1.7144 -1.5508
  686SOL     OW 2056   2.879   0.429   0.587 -0.0260 -0.1803 -0.4590
  686SOL    HW1 2057   2.824   0.362   0.644  0.2299 -0.2747  0.3621
  686SOL    HW2 2058   2.829   0.514   0.550 -0.3120  3.5561  0.2615
  687SOL     OW 2059   1.200   2.899   0.337  0.4358  0.1842  0.0544
  687SOL    HW1 2060   1.115   2.841   0.351  0.6694 -1.8564 -0.7249
  687SOL    HW2 2061   1.286   2.842   0.347  0.5474 -0.7556  0.6988
  688SOL     OW 2062   1.906   1.981   1.979 -0.1800 -0.3114  1.1268
  688SOL    HW1 2063   1.883   2.077   1.953 -0.6296 -1.3248 -1.9957
  688SOL    HW2 2064   1.878   1.923   1.898  0.6384 -2.4164 -0.5019
  689SOL     OW 2065   2.684   1.150   2.024  0.1389  0.5974 -0.3284
  689SOL    HW1 2066   2.613   1.199   2.074  1.6247  0.3897 -1.4787
  689SOL    HW2 2067   2.712   1.194   1.936 -0.8616 -0.3268  0.6016
  690SOL     OW 2068   1.919   1.216   0.826 -0.2039  0.3234  0.2020
  690SOL    HW1 2069   1.979   1.206   0.905 -1.1675 -0.2959 -0.8678
  690SOL    HW2 2070   1.960   1.174   0.740 -0.3770  1.3599 -1.0662
  691SOL     OW 2071   0.990   1.311   1.355  0.1150 -0.1512  0.0118
  691SOL    HW1 2072   1.044   1.252   1.292  3.1700 -0.9100 -0.3170
  691SOL    HW2 2073   0.915   1.265   1.401 -1.4941 -2.9132  0.5917
  692SOL     OW 2074   1.578   0.296   2.199 -0.0546  0.3101  0.2501
  692SOL    HW1 2075   1.538   0.206   2.176 -1.9108  2.9046 -0.7975
  692SOL    HW2 2076   1.680   0.294   2.212  0.4592  1.5238 -2.3194
  693SOL     OW 2077   0.203   1.026   2.882 -0.5234  0.2001 -0.0223
  693SOL    HW1 2078   0.212   1.066   2.974 -0.3618 -1.5475 -1.4616
  693SOL    HW2 2079   0.278   0.961   2.867  1.2851  0.2412  0.2465
  694SOL     OW 2080   2.119   2.818   0.776  0.0561 -0.3975 -0.1889
  694SOL    HW1 2081   2.134   2.922   0.781  2.5305  0.9984  0.7692
  694SOL    HW2 2082   2.073   2.785   0.692  0.6237  1.0539  0.1801
  695SOL     OW 2083   1.631   1.331   2.869 -0.3599  0.1452  0.1150
  695SOL    HW1 2084   1.626   1.302   2.966 -1.5791  2.4956  0.0445
  695SOL    HW2 2085   1.715   1.395   2.854  0.1887  3.1225 -2.2467
  696SOL     OW 2086   1.845   0.328   1.444  0.2683  0.0712 -0.0617
  696SOL    HW1 2087   1.913   0.369   1.508 -0.2327 -2.5297  0.2569
  696SOL    HW2 2088   1.886   0.244   1.404  0.3447 -0.9026 -0.0686
  697SOL     OW 2089   1.484   0.356   1.957 -0.1265 -0.0282  0.2048
  697SOL    HW1 2090   1.541   0.322   2.038  1.2057 -0.6471  1.4819
  697SOL    HW2 2091   1.425   0.432   1.993  0.4379 -0.5820 -0.4750
  698SOL     OW 2092   1.807   1.563   2.587  0.5628  0.1687  0.0006
  698SOL    HW1 2093   1.838   1.626   2.513 -1.1200 -1.6925  1.9623
  698SOL    HW2 2094   1.771   1.474   2.551 -1.0566  1.9759  0.5623
  699SOL     OW 2095   1.660   1.232   0.849  0.3558  0.0638  0.8411
  699SOL    HW1 2096   1.595   1.208   0.773  0.2388 -1.2014 -4.1743
  699SOL    HW2 2097   1.754   1.195   0.824 -0.0337  0.1652  1.1295
  700SOL     OW 2098   1.871   2.969   0.225 -0.4799  0.1054  0.3381
  700SOL    HW1 2099   1.771   2.962   0.236  0.7663 -1.0931 -0.4982
  700SOL    HW2 2100   1.910   2.878   0.191 -0.4501 -0.3858  0.0550
  701SOL     OW 2101   0.364   0.258   1.408  0.6373 -0.2302  0.0137
  701SOL    HW1 2102   0.345   0.355   1.432 -0.2902  1.6261 -0.7025
  701SOL    HW2 2103   0.387   0.199   1.489  0.7768  0.5267  1.2934
  702SOL     OW 2104   1.749   3.083   1.495 -0.2731 -0.3289  0.0466
  702SOL    HW1 2105   1.788   2.992   1.508 -1.8752  1.2549 -1.1866
  702SOL    HW2 2106   1.666   3.091   1.559 -2.6320 -0.2886  0.0755
  703SOL     OW 2107   2.469   2.986   2.204 -0.1973  0.4665 -0.4515
  703SOL    HW1 2108   2.472   2.985   2.305 -0.3623  0.0744 -1.4196
  703SOL    HW2 2109   2.532   2.917   2.173 -1.2087  2.8559 -0.3449
  704SOL     OW 2110   1.267   1.710   0.780  0.3261 -0.4968 -0.3872
  704SOL    HW1 2111   1.163   1.704   0.773 -0.6194 -1.9767 -0.2107
  704SOL    HW2 2112   1.297   1.806   0.771 -2.9852 -3.2826  0.2440
  705SOL     OW 2113   3.007   1.666   2.065 -0.0413  0.1887 -0.3007
  705SOL    HW1 2114   2.925   1.726   2.040  0.0629  1.2010 -2.4396
  705SOL    HW2 2115   2.978   1.586   2.126  0.3549 -2.3415 -0.4123
  706SOL     OW 2116   1.557   0.079   0.577 -0.3323 -0.1760  0.1357
  706SOL    HW1 2117   1.497   3.113   0.590  0.8957  0.6918  1.8257
  706SOL    HW2 2118   1.642   0.057   0.522  2.5850 -1.8985 -1.8075
  707SOL     OW 2119   1.243   2.595   2.192 -0.8856  0.0498 -0.2055
  707SOL    HW1 2120   1.292   2.544   2.269  0.3761 -0.2201  0.3416
  707SOL    HW2 2121   1.246   2.548   2.101 -1.1221  2.8037  2.6435
  708SOL     OW 2122   0.697   2.294   1.564 -0.0669 -0.5181 -0.3831
  708SOL    HW1 2123   0.703   2.192   1.566 -0.8449  0.5410 -0.0276
  708SOL    HW2 2124   0.767   2.332   1.506 -3.6600 -0.5817  1.7602
  709SOL     OW 2125   2.575   0.887   1.997 -0.1166 -0.1616 -0.3528
  709SOL    HW1 2126   2.640   0.964   2.010  0.2041  0.7388 -1.8792
  709SOL    HW2 2127   2.601   0.834   1.913 -0.3559  1.4135  1.0642
  710SOL     OW 2128   2.942   0.440   1.657 -0.2407  0.2706 -0.7484
  710SOL    HW1 2129   2.958   0.487   1.569  1.2098  1.8415  2.6414
  710SOL    HW2 2130   3.031   0.441   1.715  1.6996  0.7569  1.7810
  711SOL     OW 2131   2.913   2.258   0.478 -0.3406  0.7532  0.0061
  711SOL    HW1 2132   2.890   2.307   0.569  0.9154  2.8417  2.9295
  711SOL    HW2 2133   3.002   2.293   0.438 -1.9202  1.3020  0.7539
  712SOL     OW 2134   0.343   2.618   2.695 -0.2194 -0.4199 -0.7011
  712SOL    HW1 2135   0.380   2.706   2.654  2.4102  2.6604 -0.2760
  712SOL    HW2 2136   0.246   2.632   2.718 -0.7715  0.4952 -1.9310
  713SOL     OW 2137   2.049   0.574   0.008  0.2324 -0.1001 -0.1586
  713SOL    HW1 2138   2.013   0.643   0.073  1.6581 -1.3022 -1.9416
  713SOL    HW2 2139   1.998   0.578   3.035  1.7158 -2.4499  0.8182
  714SOL     OW 2140   1.497   1.935   0.566 -0.0843 -0.2081  0.2388
  714SOL    HW1 2141   1.417   1.941   0.628  0.1593 -0.0431 -0.5905
  714SOL    HW2 2142   1.579   1.906   0.619  1.7271 -0.7838 -0.2421
  715SOL     OW 2143   0.221   0.137   0.368  0.1090  0.0172  0.3722
  715SOL    HW1 2144   0.140   0.108   0.323 -0.0437  0.6673  2.7817
  715SOL    HW2 2145   0.214   0.235   0.381 -1.5412  0.0033  1.0069
  716SOL     OW 2146   1.000   2.928   2.422 -0.3920  0.4001  0.0699
  716SOL    HW1 2147   1.093   2.922   2.384 -2.5118  0.5145  1.7373
  716SOL    HW2 2148   0.963   2.832   2.435 -1.2102 -4.0949 -2.7696
  717SOL     OW 2149   0.458   0.451   3.001 -0.0074 -0.2319  0.3092
  717SOL    HW1 2150   0.538   0.477   2.944 -2.5703  0.2387  1.3671
  717SOL    HW2 2151   0.407   0.369   2.961 -0.0714 -2.6401  1.2928
  718SOL     OW 2152   1.054   0.584   0.512 -0.4803  0.3135  0.0809
  718SOL    HW1 2153   1.049   0.646   0.595 -2.5828  1.0786  0.0355
  718SOL    HW2 2154   1.122   0.509   0.524 -1.8287  1.9481 -0.1376
  719SOL     OW 2155   2.228   2.271   2.772 -0.3023  0.1145 -0.2916
  719SOL    HW1 2156   2.263   2.348   2.717 -0.1983 -0.6571  0.1137
  719SOL    HW2 2157   2.132   2.286   2.793 -0.9269 -0.6123  0.0841
  720SOL     OW 2158   1.630   1.049   1.976  0.1944  0.3196 -0.0889
  720SOL    HW1 2159   1.683   1.021   1.890  0.8682  0.7113 -4.8034
  720SOL    HW2 2160   1.666   0.995   2.060  0.5037 -0.7860  4.9755
  721SOL     OW 2161   2.935   3.071   1.056 -0.5376 -0.3913 -0.2069
  721SOL    HW1 2162   2.904   0.014   1.137 -2.8743 -0.6396 -1.8548
  721SOL    HW2 2163   2.934   0.002   0.964 -1.8520 -1.5093  1.2340
  722SOL     OW 2164   1.283   2.043   2.415  0.4101 -0.2466  0.3438
  722SOL    HW1 2165   1.360   2.111   2.392  1.4046 -0.8760  0.1135
  722SOL    HW2 2166   1.320   1.967   2.474  1.9182 -1.1031  0.3616
  723SOL     OW 2167   1.242   0.391   0.595 -0.4675  0.5428 -0.0462
  723SOL    HW1 2168   1.245   0.408   0.697  0.0504  0.8769  0.2508
  723SOL    HW2 2169   1.333   0.406   0.554  1.8994  0.5011 -0.3621
  724SOL     OW 2170   0.942   1.817   2.412  0.1912  0.3285  0.5789
  724SOL    HW1 2171   0.906   1.857   2.498  1.8847 -1.2905  0.8184
  724SOL    HW2 2172   0.961   1.719   2.425  2.0876 -0.3059  1.1720
  725SOL     OW 2173   0.059   0.512   1.198  0.2872  0.4282  0.0579
  725SOL    HW1 2174   0.049   0.552   1.107 -3.2248 -3.1170 -0.4322
  725SOL    HW2 2175   0.131   0.435   1.207 -0.4102 -1.7060  2.0269
  726SOL     OW 2176   1.957   0.091   0.646 -0.0459 -0.4954  0.4963
  726SOL    HW1 2177   1.909   0.076   0.556 -0.7813 -0.7393  0.3066
  726SOL    HW2 2178   1.889   0.079   0.717  0.8039 -2.2120 -2.9026
  727SOL     OW 2179   1.971   1.070   2.252 -0.1572 -0.0825 -0.2577
  727SOL    HW1 2180   1.944   1.168   2.247  0.7152 -0.7784 -0.4277
  727SOL    HW2 2181   2.058   1.055   2.304 -0.6882  0.6044 -0.8406
  728SOL     OW 2182   1.570   2.664   1.470  0.4829 -0.3254 -0.1596
  728SOL    HW1 2183   1.484   2.717   1.499 -3.3988  2.9515  1.2611
  728SOL    HW2 2184   1.582   2.662   1.369 -0.3734 -1.5041  2.8188
  729SOL     OW 2185   1.936   0.487   2.013  0.3576 -0.1218  0.3497
  729SOL    HW1 2186   2.028   0.480   2.055 -1.6063 -0.2602 -1.8139
  729SOL    HW2 2187   1.934   0.574   1.958  2.2158  0.7599 -0.5437
  730SOL     OW 2188   0.537   1.171   1.342 -0.6391 -0.0246  0.2956
  730SOL    HW1 2189   0.539   1.252   1.282 -2.9547 -2.6685  2.9996
  730SOL    HW2 2190   0.470   1.106   1.312  1.6314  1.9928 -0.7507
  731SOL     OW 2191   0.638   2.968   0.146  0.0237  0.5145  0.8642
  731SOL    HW1 2192   0.707   2.978   0.221 -0.7571  0.2988 -0.2625
  731SOL    HW2 2193   0.567   3.035   0.155 -0.4392 -5.1384 -2.2815
  732SOL     OW 2194   0.698   0.805   0.409  0.1685 -0.1386 -0.1479
  732SOL    HW1 2195   0.663   0.754   0.489  0.5188  1.5080  0.1916
  732SOL    HW2 2196   0.624   0.855   0.365  1.4987 -1.3457 -0.0754
  733SOL     OW 2197   1.509   1.534   1.723 -0.3338 -0.1114  0.3669
  733SOL    HW1 2198   1.439   1.520   1.797  2.4566 -2.7077 -0.5986
  733SOL    HW2 2199   1.462   1.524   1.631 -0.2418 -0.1807 -1.2479
  734SOL     OW 2200   0.017   2.506   2.187  0.5255 -0.2973  0.0477
  734SOL    HW1 2201   0.035   2.503   2.085  0.5863  1.7778 -1.5371
  734SOL    HW2 2202   3.035   2.541   2.197 -1.9374  2.9183 -0.2698
  735SOL     OW 2203   1.378   0.045   1.166  0.1941 -0.2603  0.0892
  735SOL    HW1 2204   1.332   3.079   1.126 -0.2721  2.9291  1.6501
  735SOL    HW2 2205   1.338   0.131   1.132  0.2803 -0.7432 -0.5741
  736SOL     OW 2206   0.941   1.203   3.047  0.4816  0.3632  0.0055
  736SOL    HW1 2207   0.917   1.200   0.035 -0.7364 -0.5763  4.5085
  736SOL    HW2 2208   1.032   1.243   3.031  0.0723  0.8696 -2.9341
  737SOL     OW 2209   0.001   0.793   0.734 -0.0407  1.0286 -0.2968
  737SOL    HW1 2210   0.087   0.802   0.679  1.3435  1.3508  0.0336
  737SOL    HW2 2211   3.042   0.813   0.671  1.1880 -2.7802 -2.6291
  738SOL     OW 2212   0.488   2.705   1.560 -1.0078 -0.0745 -0.1417
  738SOL    HW1 2213   0.477   2.697   1.459 -0.9740  1.6709  1.3342
  738SOL    HW2 2214   0.490   2.611   1.604 -1.0034 -0.4169  1.2661
  739SOL     OW 2215   1.428   2.772   0.327 -0.4644  0.3863  0.3394
  739SOL    HW1 2216   1.451   2.741   0.418 -0.4467  1.2753 -3.4377
  739SOL    HW2 2217   1.392   2.693   0.269 -1.2827 -2.0094 -1.6418
  740SOL     OW 2218   1.884   2.860   1.506 -1.2405 -0.4862  0.2531
  740SOL    HW1 2219   1.964   2.918   1.523 -0.2048 -2.0652  0.1706
  740SOL    HW2 2220   1.895   2.808   1.424 -1.3388 -2.4491 -0.5427
  741SOL     OW 2221   2.079   0.346   0.684 -0.0312  0.2033 -0.1595
  741SOL    HW1 2222   2.149   0.350   0.610 -2.1388 -0.2732  2.9886
  741SOL    HW2 2223   2.036   0.254   0.679 -1.4456  0.7337 -1.3249
  742SOL     OW 2224   1.324   2.402   2.409  0.0210 -0.3427  0.3094
  742SOL    HW1 2225   1.369   2.341   2.337  2.2341  0.7935 -1.5763
  742SOL    HW2 2226   1.273   2.349   2.480 -1.4525 -2.4454 -2.5672
  743SOL     OW 2227   2.325   0.992   1.941 -0.0229  0.3514  0.0493
  743SOL    HW1 2228   2.334   0.954   1.850  4.7991  0.7305  2.1937
  743SOL    HW2 2229   2.408   0.958   1.988 -0.2556 -0.8730 -0.2734
  744SOL     OW 2230   2.021   0.529   0.866  0.4580 -0.2032 -0.1979
  744SOL    HW1 2231   2.080   0.614   0.878 -1.1803  1.0151  0.3555
  744SOL    HW2 2232   2.053   0.476   0.781 -3.3486 -1.1726  0.4183
  745SOL     OW 2233   2.133   1.219   1.962 -0.5827  0.1786  0.0600
  745SOL    HW1 2234   2.116   1.271   1.874 -0.3399 -1.8256 -0.6985
  745SOL    HW2 2235   2.214   1.153   1.947  2.5836 -1.2045  0.0726
  746SOL     OW 2236   1.238   1.517   0.593  0.2607 -0.1270 -0.1874
  746SOL    HW1 2237   1.327   1.476   0.549  1.3911 -2.1915  0.1116
  746SOL    HW2 2238   1.261   1.561   0.680  1.9281  0.6759 -2.5984
  747SOL     OW 2239   1.819   1.581   0.991  0.0050 -0.3548  0.5341
  747SOL    HW1 2240   1.846   1.538   0.903 -0.5436  0.9752  3.4375
  747SOL    HW2 2241   1.770   1.671   0.985  1.0328  1.5618 -1.6294
  748SOL     OW 2242   0.270   2.738   0.355 -0.2085 -0.1411 -0.0054
  748SOL    HW1 2243   0.296   2.732   0.452 -0.9350 -0.1143  0.0767
  748SOL    HW2 2244   0.356   2.741   0.297  1.0549 -1.4613 -2.8212
  749SOL     OW 2245   0.321   0.928   2.507  0.1678  0.1445 -0.0848
  749SOL    HW1 2246   0.383   0.917   2.429  1.3749  0.7487 -1.1215
  749SOL    HW2 2247   0.232   0.972   2.479  3.6270 -0.3022  1.3070
  750SOL     OW 2248   1.288   2.816   1.840 -0.6205 -0.0770 -0.6842
  750SOL    HW1 2249   1.204   2.841   1.894  0.2525  0.5403  2.2110
  750SOL    HW2 2250   1.374   2.842   1.892 -1.6960 -1.1308  1.1036
  751SOL     OW 2251   2.573   0.587   0.306 -0.1070  0.2446  0.5340
  751SOL    HW1 2252   2.478   0.614   0.330  3.2652 -2.2762  0.7556
  751SOL    HW2 2253   2.592   0.486   0.326 -1.2679  0.3238  1.0637
  752SOL     OW 2254   3.108   2.027   0.855  0.1959  0.3261 -0.0184
  752SOL    HW1 2255   3.009   2.013   0.850 -0.1593 -0.9987  2.3398
  752SOL    HW2 2256   0.021   2.114   0.808 -2.7746  3.0074  3.0639
  753SOL     OW 2257   0.959   0.184   1.047 -0.3600  0.7708 -0.6550
  753SOL    HW1 2258   0.996   0.134   0.966  1.4816  0.9196 -1.9981
  753SOL    HW2 2259   0.903   0.262   1.024 -0.1962 -0.3290  0.2875
  754SOL     OW 2260   0.589   0.013   2.354 -0.5093  1.0217 -0.0661
  754SOL    HW1 2261   0.489   0.037   2.335  1.0107 -0.8352  1.6966
  754SOL    HW2 2262   0.590   3.023   2.345  1.0658 -2.8399 -0.1095
  755SOL     OW 2263   2.163   1.003   2.883  0.1314 -0.4034 -0.0171
  755SOL    HW1 2264   2.228   1.002   2.964  0.2008  1.3846 -1.2220
  755SOL    HW2 2265   2.213   1.050   2.805  0.9641  0.2503 -0.7759
  756SOL     OW 2266   2.284   1.987   2.644 -0.6411 -0.1751 -0.1913
  756SOL    HW1 2267   2.344   1.920   2.699 -0.3205  0.8681  2.9623
  756SOL    HW2 2268   2.287   2.078   2.681 -2.3753 -0.0968 -3.6797
  757SOL     OW 2269   1.552   0.407   0.838 -0.2936  0.0667 -0.1628
  757SOL    HW1 2270   1.449   0.413   0.840  0.4081 -1.7270 -0.2747
  757SOL    HW2 2271   1.587   0.336   0.905 -1.3449  1.8174 -0.0987
  758SOL     OW 2272   1.636   3.102   1.229  0.1001 -0.1876 -0.2871
  758SOL    HW1 2273   1.540   0.012   1.213  2.6856 -1.0821  1.1197
  758SOL    HW2 2274   1.672   0.030   1.317  0.5897 -1.7697  0.6083
  759SOL     OW 2275   2.737   0.658   1.160 -0.4352  0.4054  0.4723
  759SOL    HW1 2276   2.725   0.572   1.218 -0.8072 -0.3361  1.5737
  759SOL    HW2 2277   2.804   0.647   1.082  0.9551  0.1876 -1.6451
  760SOL     OW 2278   2.399   1.128   1.302 -0.1455  0.1564  0.1368
  760SOL    HW1 2279   2.450   1.175   1.224 -1.4193  0.0622  2.4874
  760SOL    HW2 2280   2.415   1.027   1.308 -2.8589  0.3511 -0.3094
  761SOL     OW 2281   0.387   0.416   0.424  0.1066  0.0401 -0.6906
  761SOL    HW1 2282   0.410   0.431   0.327 -2.2785  1.1278 -0.3376
  761SOL    HW2 2283   0.346   0.503   0.445  2.7623 -2.6151 -1.2776
  762SOL     OW 2284   1.747   2.210   1.137  0.4132 -0.2508 -0.1289
  762SOL    HW1 2285   1.806   2.187   1.055 -1.3317  1.0089  0.3551
  762SOL    HW2 2286   1.713   2.122   1.173 -0.9874 -1.0001  0.1960
  763SOL     OW 2287   1.299   1.483   1.919  0.4991 -0.4695  0.5709
  763SOL    HW1 2288   1.233   1.561   1.898 -1.8337  0.6865  0.1732
  763SOL    HW2 2289   1.250   1.394   1.937  1.7608 -1.8325 -0.2210
  764SOL     OW 2290   0.007   1.909   2.498 -0.3709 -0.1106  0.1542
  764SOL    HW1 2291   3.057   1.971   2.443 -0.6459  0.4276 -1.1218
  764SOL    HW2 2292   3.085   1.894   2.593  0.5213 -0.0340  0.9227
  765SOL     OW 2293   1.567   2.635   1.191  0.6554  0.4125  0.0330
  765SOL    HW1 2294   1.635   2.571   1.153  1.5055  3.1125 -1.7529
  765SOL    HW2 2295   1.594   2.732   1.168 -0.6133  0.2364 -1.4017
  766SOL     OW 2296   0.042   2.520   2.671 -0.7766 -0.3303  0.1547
  766SOL    HW1 2297   3.087   2.597   2.678 -1.3967  3.4654  0.8974
  766SOL    HW2 2298   0.011   2.435   2.712 -0.6975  0.4701 -3.3822
  767SOL     OW 2299   1.344   0.884   2.392  0.0581  0.1304 -0.1886
  767SOL    HW1 2300   1.425   0.934   2.427 -0.7243  2.8270 -0.7692
  767SOL    HW2 2301   1.317   0.799   2.440 -3.9544 -0.5617 -0.5435
  768SOL     OW 2302   1.269   2.193   3.067  0.3165 -0.5862  0.1555
  768SOL    HW1 2303   1.360   2.238   3.100 -0.3187  1.9706  1.5601
  768SOL    HW2 2304   1.291   2.094   3.052  0.0733 -1.0142  1.4885
  769SOL     OW 2305   0.371   2.112   1.236  0.1768 -0.3031 -0.0072
  769SOL    HW1 2306   0.304   2.060   1.183 -1.5519 -0.9629 -0.1367
  769SOL    HW2 2307   0.414   2.046   1.299  2.5441 -0.0201  0.0659
  770SOL     OW 2308   1.903   0.643   2.891 -0.0403 -0.6469 -0.0864
  770SOL    HW1 2309   1.845   0.562   2.891  0.2087  4.7979  1.0157
  770SOL    HW2 2310   1.842   0.722   2.913 -0.4398 -2.2634 -2.4152
  771SOL     OW 2311   0.142   2.977   2.370 -0.1910 -0.2911 -0.3035
  771SOL    HW1 2312   0.051   2.938   2.337  1.3192  0.3055 -1.2532
  771SOL    HW2 2313   0.221   2.918   2.347 -0.7056 -3.0418  0.4378
  772SOL     OW 2314   2.091   2.837   2.121  0.0552  0.3416 -0.1817
  772SOL    HW1 2315   2.118   2.742   2.109  0.8096  0.8802  2.0959
  772SOL    HW2 2316   2.102   2.898   2.036 -2.1777 -0.4492  3.6957
  773SOL     OW 2317   0.992   2.050   1.516 -0.1824  0.0590 -0.4841
  773SOL    HW1 2318   1.014   2.027   1.420  0.8679 -0.8485 -1.7516
  773SOL    HW2 2319   1.037   2.145   1.534  1.3683  0.8180 -0.7209
  774SOL     OW 2320   1.146   0.062   2.023 -0.1446  0.0236  0.1722
  774SOL    HW1 2321   1.204   0.039   2.106  1.0563  0.9822  0.4080
  774SOL    HW2 2322   1.060   0.114   2.048 -0.2223  1.1562  0.5030
  775SOL     OW 2323   2.100   2.982   3.096  0.1510 -0.7888  0.1343
  775SOL    HW1 2324   2.094   2.905   3.031 -0.1691  1.1094 -0.3335
  775SOL    HW2 2325   2.019   3.048   3.092 -1.0109  0.1416  0.6554
  776SOL     OW 2326   2.872   0.843   2.236 -0.0700 -0.8417  0.5806
  776SOL    HW1 2327   2.898   0.888   2.328 -0.8660  3.7734  2.1084
  776SOL    HW2 2328   2.875   0.908   2.151 -1.8952  1.3871 -1.5565
  777SOL     OW 2329   2.382   2.266   2.194  0.1075 -0.0723  0.1051
  777SOL    HW1 2330   2.284   2.262   2.216  2.1305  2.0384 -2.5794
  777SOL    HW2 2331   2.416   2.360   2.165 -1.3254 -2.8384  0.1297
  778SOL     OW 2332   1.912   0.824   2.478  0.0448  0.1518  0.4192
  778SOL    HW1 2333   1.966   0.809   2.563 -1.4224  0.2118 -1.4303
  778SOL    HW2 2334   1.964   0.784   2.401  2.9269 -1.8738  0.6130
  779SOL     OW 2335   2.674   0.333   0.358  0.1639  0.1220 -0.2963
  779SOL    HW1 2336   2.760   0.312   0.403 -1.8141  1.6746 -0.7981
  779SOL    HW2 2337   2.596   0.285   0.394  0.5556  2.1469  1.3405
  780SOL     OW 2338   2.514   0.402   3.043 -0.3496 -0.0472 -0.3380
  780SOL    HW1 2339   2.494   0.342   0.008 -2.2051 -1.6939 -0.7795
  780SOL    HW2 2340   2.443   0.470   3.020  0.9976 -1.1787  0.0835
  781SOL     OW 2341   0.357   2.540   1.369  0.4038 -0.4171  0.0675
  781SOL    HW1 2342   0.323   2.447   1.361 -0.9001  1.1862  0.1549
  781SOL    HW2 2343   0.275   2.601   1.378  1.0290 -2.7021  1.5106
  782SOL     OW 2344   2.220   2.656   0.162  0.3871 -0.1808  0.4503
  782SOL    HW1 2345   2.179   2.720   0.092 -1.0480 -1.0812  1.5159
  782SOL    HW2 2346   2.277   2.584   0.117  1.5761 -2.4292 -0.5809
  783SOL     OW 2347   0.796   1.120   1.422 -0.4562  0.4684  0.1613
  783SOL    HW1 2348   0.696   1.133   1.401 -2.4869 -1.8785 -1.3838
  783SOL    HW2 2349   0.832   1.046   1.360 -1.9401  1.9105  1.0932
  784SOL     OW 2350   1.404   0.713   2.889 -0.7349  0.1060  0.4611
  784SOL    HW1 2351   1.338   0.661   2.834  2.4155 -0.2549  1.6861
  784SOL    HW2 2352   1.446   0.784   2.825 -0.7231  2.2567  0.0124
  785SOL     OW 2353   2.437   0.436   1.032  0.4144 -0.0232 -0.2836
  785SOL    HW1 2354   2.506   0.376   1.072 -0.5181  1.1637 -0.1280
  785SOL    HW2 2355   2.352   0.444   1.090 -1.1028 -1.5034 -0.1816
  786SOL     OW 2356   1.176   2.295   2.032 -0.3643  0.4689  0.5574
  786SOL    HW1 2357   1.204   2.365   1.965  1.5395 -1.1762 -0.1850
  786SOL    HW2 2358   1.253   2.230   2.054 -0.0578  0.1556 -0.9207
  787SOL     OW 2359   1.875   0.463   1.183  0.4432 -0.4340  0.0894
  787SOL    HW1 2360   1.815   0.541   1.160 -1.4534  0.2974  1.0804
  787SOL    HW2 2361   1.863   0.444   1.283 -0.2945 -0.6042  2.7109
  788SOL     OW 2362   0.249   0.846   0.596  0.2586 -0.2008 -0.7743
  788SOL    HW1 2363   0.300   0.861   0.685  3.3682 -1.0443  2.2764
  788SOL    HW2 2364   0.254   0.928   0.535  0.9271 -0.7640  3.3417
  789SOL     OW 2365   0.468   1.920   1.482 -0.5354 -0.4789  0.4020
  789SOL    HW1 2366   0.436   1.886   1.574 -0.1470 -0.9939  1.8339
  789SOL    HW2 2367   0.565   1.947   1.496  0.0808  0.0346  0.7165
  790SOL     OW 2368   0.772   0.619   2.348 -0.3242  0.4330  0.1677
  790SOL    HW1 2369   0.766   0.721   2.347  0.2703 -1.3688 -0.6772
  790SOL    HW2 2370   0.858   0.587   2.300  2.5909  1.9764 -1.3236
  791SOL     OW 2371   1.743   0.606   0.868  0.0691 -0.4315 -0.0398
  791SOL    HW1 2372   1.679   0.530   0.850 -1.8095 -0.7503  1.6081
  791SOL    HW2 2373   1.842   0.574   0.859  1.7880  1.4642 -2.1434
  792SOL     OW 2374   0.986   2.684   2.146  0.1772 -0.2097  0.1444
  792SOL    HW1 2375   0.981   2.774   2.101 -2.0266 -0.5886  0.5104
  792SOL    HW2 2376   1.078   2.646   2.165 -0.1006 -0.1240 -2.7687
  793SOL     OW 2377   0.767   0.202   0.459 -0.2491  0.3414 -0.1026
  793SOL    HW1 2378   0.670   0.205   0.491 -2.6866 -0.0069  1.5537
  793SOL    HW2 2379   0.795   0.125   0.402  1.5260 -1.6977 -0.0843
  794SOL     OW 2380   0.413   1.633   1.901 -0.7172  0.2316 -0.2836
  794SOL    HW1 2381   0.388   1.549   1.956  1.4041 -0.3439 -0.5646
  794SOL    HW2 2382   0.500   1.608   1.854  1.4708 -0.4888  0.8433
  795SOL     OW 2383   0.177   2.036   2.340  0.2410  0.6181 -0.3125
  795SOL    HW1 2384   0.118   1.994   2.410 -0.9677  1.1253  1.0959
  795SOL    HW2 2385   0.146   2.133   2.322 -0.6208  4.0943 -0.9914
  796SOL     OW 2386   2.586   0.663   2.223 -0.0908 -0.3301  0.2077
  796SOL    HW1 2387   2.566   0.737   2.292  3.5712 -1.6552  1.9342
  796SOL    HW2 2388   2.624   0.707   2.139  3.2352  1.4664  0.1399
  797SOL     OW 2389   2.625   2.216   2.631 -0.0921 -0.0952  0.4847
  797SOL    HW1 2390   2.599   2.284   2.559 -0.2394  0.6062  0.6414
  797SOL    HW2 2391   2.583   2.239   2.723 -2.7883 -1.5869  2.1482
  798SOL     OW 2392   3.015   2.889   2.307  0.1449 -0.1004 -0.4923
  798SOL    HW1 2393   2.955   2.940   2.372 -0.7107  0.9769  0.3088
  798SOL    HW2 2394   2.965   2.889   2.217 -0.7253 -0.3353  0.9453
  799SOL     OW 2395   0.251   2.509   2.353 -0.2555 -0.2292  0.1655
  799SOL    HW1 2396   0.231   2.533   2.451 -0.9687 -0.1535  0.4209
  799SOL    HW2 2397   0.167   2.507   2.294  1.8121 -0.5300 -0.4235
  800SOL     OW 2398   0.455   2.022   3.107 -0.4864  0.5182  0.6200
  800SOL    HW1 2399   0.493   2.060   3.017 -1.6635  1.7123 -3.4821
  800SOL    HW2 2400   0.409   1.935   3.095  0.2856 -0.1886 -1.9199
  801SOL     OW 2401   1.645   1.374   1.110  0.4667  0.1177 -0.4979
  801SOL    HW1 2402   1.627   1.295   1.048  0.4017  1.0960 -0.1299
  801SOL    HW2 2403   1.678   1.455   1.053 -0.5713  0.4989 -1.3544
  802SOL     OW 2404   2.996   1.342   0.623  0.2038 -0.0870  0.2518
  802SOL    HW1 2405   2.894   1.338   0.631 -0.8717  2.7261 -1.1276
  802SOL    HW2 2406   3.047   1.290   0.698 -0.4213  0.8064 -0.3082
  803SOL     OW 2407   1.254   1.768   2.082  0.2722 -0.0565 -0.7178
  803SOL    HW1 2408   1.181   1.732   2.018 -0.7063 -0.2830 -0.7011
  803SOL    HW2 2409   1.231   1.861   2.110  0.2028 -2.5189 -0.4716
  804SOL     OW 2410   1.712   1.553   0.601 -0.6247  0.1025  0.2345
  804SOL    HW1 2411   1.729   1.624   0.530 -0.5508  0.6596 -2.9876
  804SOL    HW2 2412   1.803   1.525   0.642 -2.0290  2.3557  1.3048
  805SOL     OW 2413   2.616   1.181   3.109  0.2969  0.6123  0.5081
  805SOL    HW1 2414   2.549   1.183   3.027 -4.6012 -0.2101 -0.9461
  805SOL    HW2 2415   2.613   1.086   0.035  0.6835 -1.6817 -0.1111
  806SOL     OW 2416   0.668   2.558   0.453 -0.5258  0.5223  0.4842
  806SOL    HW1 2417   0.682   2.550   0.350  0.1465  0.6060 -0.2107
  806SOL    HW2 2418   0.694   2.648   0.487 -0.1970  0.0617 -0.6196
  807SOL     OW 2419   2.227   1.599   2.717  0.2473  0.5123  0.0336
  807SOL    HW1 2420   2.160   1.675   2.734 -2.1262 -1.3346 -0.2876
  807SOL    HW2 2421   2.189   1.537   2.641  2.2745 -1.7217  1.7947
  808SOL     OW 2422   0.936   1.538   1.225 -0.4419 -0.0222 -0.0490
  808SOL    HW1 2423   0.972   1.461   1.277 -1.9480  0.7026 -1.1445
  808SOL    HW2 2424   0.834   1.535   1.229 -0.0507  1.0234 -0.3681
  809SOL     OW 2425   2.783   0.649   0.468  0.5651 -0.9734 -0.2470
  809SOL    HW1 2426   2.748   0.673   0.565  0.8275 -0.6161  0.9699
  809SOL    HW2 2427   2.714   0.628   0.401  0.1997 -0.2561  1.2408
  810SOL     OW 2428   0.579   1.512   0.654 -0.4489 -0.1633  0.1345
  810SOL    HW1 2429   0.600   1.595   0.706  0.7572  0.7810 -1.2508
  810SOL    HW2 2430   0.649   1.492   0.585 -0.6796  2.2594  0.0934
  811SOL     OW 2431   1.922   2.738   1.259  0.1889 -0.2096 -0.3986
  811SOL    HW1 2432   1.989   2.720   1.184 -0.3185 -2.3979 -0.2461
  811SOL    HW2 2433   1.908   2.651   1.313  1.1078  0.1771 -1.7973
  812SOL     OW 2434   1.208   2.722   1.437 -0.5551 -0.2648 -0.1590
  812SOL    HW1 2435   1.278   2.787   1.485  2.4961  1.2914  2.2885
  812SOL    HW2 2436   1.124   2.778   1.411  0.9356 -1.6994  2.9135
  813SOL     OW 2437   0.857   2.928   1.630  0.5225 -0.4881 -0.3096
  813SOL    HW1 2438   0.818   2.850   1.688  1.0207 -0.3109 -1.2012
  813SOL    HW2 2439   0.798   3.012   1.655 -3.3840  2.2840  1.9690
  814SOL     OW 2440   0.885   2.682   2.495  0.6477 -0.0966  0.2194
  814SOL    HW1 2441   0.910   2.583   2.492 -0.7731 -0.1681  0.2040
  814SOL    HW2 2442   0.820   2.695   2.572 -2.1891 -1.5512 -0.8498
  815SOL     OW 2443   0.943   0.187   2.658 -0.2020  0.1023 -0.0734
  815SOL    HW1 2444   0.869   0.114   2.636 -1.6345 -2.1097 -2.5877
  815SOL    HW2 2445   0.954   0.255   2.588  0.7981 -0.8270  2.4007
  816SOL     OW 2446   2.290   0.554   3.016  0.1097 -0.4148  0.1569
  816SOL    HW1 2447   2.191   0.562   3.048 -2.6864 -1.0289  2.6022
  816SOL    HW2 2448   2.322   0.631   2.958  2.3833  0.3171  0.3777
  817SOL     OW 2449   2.154   3.005   1.920  0.3957  0.4356  0.0303
  817SOL    HW1 2450   2.211   3.086   1.942 -1.5842 -0.5790  2.3412
  817SOL    HW2 2451   2.072   3.045   1.875 -0.4330 -2.5131 -0.5644
  818SOL     OW 2452   1.114   0.783   0.297  0.1545 -0.1609  0.6656
  818SOL    HW1 2453   1.070   0.848   0.234 -2.6891  0.9755 -0.3902
  818SOL    HW2 2454   1.042   0.733   0.344  2.7572 -0.7271  2.6015
  819SOL     OW 2455   1.693   1.857   2.488  0.5082  0.0438 -0.0699
  819SOL    HW1 2456   1.657   1.785   2.422 -0.9470  0.3844 -1.7860
  819SOL    HW2 2457   1.791   1.852   2.485 -2.5806 -1.3902  0.7290
  820SOL     OW 2458   0.171   1.669   2.829  0.2438 -0.3015 -0.6162
  820SOL    HW1 2459   0.211   1.663   2.739 -1.9149  1.2778  1.0526
  820SOL    HW2 2460   0.151   1.570   2.861  0.4018  1.0691 -0.6195
  821SOL     OW 2461   0.109   2.722   0.653  0.2584  0.4394 -0.4845
  821SOL    HW1 2462   0.157   2.804   0.617 -1.1442 -0.1475  0.5093
  821SOL    HW2 2463   0.118   2.707   0.754 -0.2788  1.6937  2.0770
  822SOL     OW 2464   2.352   2.484   2.648 -0.7097  0.0474 -0.3336
  822SOL    HW1 2465   2.291   2.538   2.582 -1.3696  2.5963 -1.0494
  822SOL    HW2 2466   2.394   2.546   2.716  0.3668 -1.8073 -3.5832
  823SOL     OW 2467   1.495   0.045   2.131 -0.1674 -0.2556 -0.0063
  823SOL    HW1 2468   1.497   3.091   2.059 -0.0905  1.9583  0.7724
  823SOL    HW2 2469   1.414   0.038   2.191  0.6983  1.0054 -2.0106
  824SOL     OW 2470   2.797   2.332   2.131  0.5074 -0.9247 -0.3100
  824SOL    HW1 2471   2.813   2.432   2.135  3.4599  2.4704 -2.4604
  824SOL    HW2 2472   2.766   2.305   2.224  2.6838  0.1332  1.1393
  825SOL     OW 2473   2.974   2.120   2.372  0.0887  0.3532 -0.2093
  825SOL    HW1 2474   2.897   2.079   2.322  0.9373  0.8921  5.0437
  825SOL    HW2 2475   3.048   2.163   2.319 -0.2662  1.9316  1.2497
  826SOL     OW 2476   2.524   0.821   2.422  0.3958 -0.7215 -0.2193
  826SOL    HW1 2477   2.599   0.796   2.486 -1.7376  5.1999  0.4249
  826SOL    HW2 2478   2.437   0.846   2.468 -2.2625  0.0282 -0.2428
  827SOL     OW 2479   2.656   2.175   1.449 -0.0972  0.0303  0.1538
  827SOL    HW1 2480   2.615   2.186   1.544 -1.2982 -1.0634  0.7928
  827SOL    HW2 2481   2.650   2.261   1.393 -2.8506 -0.3293 -2.5128
  828SOL     OW 2482   2.952   0.174   1.823  0.0215 -0.2341 -0.4263
  828SOL    HW1 2483   3.014   0.108   1.781 -0.1485  0.1699  0.7631
  828SOL    HW2 2484   2.952   0.263   1.773  0.2495  0.2716  1.4232
  829SOL     OW 2485   1.169   1.940   2.722  0.4084  0.0560 -0.1991
  829SOL    HW1 2486   1.237   1.927   2.648  0.7028 -1.1349 -2.4228
  829SOL    HW2 2487   1.076   1.947   2.680 -2.4844  0.9715  1.9488
  830SOL     OW 2488   0.777   0.842   0.898 -0.4392  0.0848 -0.1991
  830SOL    HW1 2489   0.783   0.810   0.995  0.2034  1.0255 -1.1233
  830SOL    HW2 2490   0.756   0.940   0.895  2.2535 -0.3740 -0.5185
  831SOL     OW 2491   3.033   1.584   2.743  0.0577  0.0577 -0.6350
  831SOL    HW1 2492   3.089   1.644   2.804 -2.4518  0.2681 -1.3083
  831SOL    HW2 2493   3.085   1.501   2.716  0.7120  0.8239  0.0602
  832SOL     OW 2494   1.901   2.482   2.260  0.1815  0.0006 -0.2393
  832SOL    HW1 2495   1.955   2.427   2.190  0.3024 -0.1529 -2.6848
  832SOL    HW2 2496   1.876   2.575   2.230  0.8282 -0.0027 -0.5897
  833SOL     OW 2497   0.877   0.201   2.084 -0.3859 -0.4285 -0.1683
  833SOL    HW1 2498   0.866   0.304   2.077  1.4350  0.3677 -0.3619
  833SOL    HW2 2499   0.836   0.168   2.173 -0.1240 -0.6218 -0.0437
  834SOL     OW 2500   0.019   0.241   1.471  0.2474  0.1843  0.0247
  834SOL    HW1 2501   3.078   0.327   1.467 -0.7958  1.1588  1.1949
  834SOL    HW2 2502   0.077   0.237   1.552  0.2178  0.9188 -3.3338
  835SOL     OW 2503   2.793   0.644   0.131 -0.1222  0.1693 -0.3545
  835SOL    HW1 2504   2.712   0.621   0.191  2.6371 -1.3351 -1.5723
  835SOL    HW2 2505   2.797   0.581   0.050  1.0254 -0.5874 -3.0463
  836SOL     OW 2506   1.627   1.990   0.085  0.2696 -0.2391  0.1591
  836SOL    HW1 2507   1.588   2.079   0.059  2.6264 -1.3176  0.5888
  836SOL    HW2 2508   1.633   1.972   0.185  1.1373  1.0182 -1.0063
  837SOL     OW 2509   1.963   1.853   0.686 -0.5909  0.0697  0.8907
  837SOL    HW1 2510   2.038   1.783   0.672  0.6995 -2.1921  1.4186
  837SOL    HW2 2511   1.973   1.925   0.616 -2.2008  0.7939  0.2329
  838SOL     OW 2512   1.594   0.958   2.486  0.4735  0.3478  0.5816
  838SOL    HW1 2513   1.621   0.955   2.386  0.1586 -1.0672 -2.2494
  838SOL    HW2 2514   1.669   0.994   2.545 -0.4505 -1.1880  0.3556
  839SOL     OW 2515   0.844   1.437   2.142 -0.3010  0.3523  0.3351
  839SOL    HW1 2516   0.812   1.344   2.114 -0.3970  1.5349 -1.1282
  839SOL    HW2 2517   0.933   1.430   2.192  0.4283  1.4775 -0.9742
  840SOL     OW 2518   1.059   1.562   0.395 -1.0042 -0.6764 -0.2819
  840SOL    HW1 2519   1.007   1.644   0.433 -1.3273  0.8798  2.5120
  840SOL    HW2 2520   1.125   1.529   0.463  0.4636  2.9246  1.0658
  841SOL     OW 2521   1.553   2.397   0.424 -0.0179  0.3071 -0.5594
  841SOL    HW1 2522   1.503   2.394   0.514 -0.6194  1.7142  0.4202
  841SOL    HW2 2523   1.500   2.362   0.346  2.7843  1.0116  1.5681
  842SOL     OW 2524   0.506   0.471   0.153  0.5370 -0.2170  0.6332
  842SOL    HW1 2525   0.595   0.445   0.186 -2.7342 -1.0928 -0.3190
  842SOL    HW2 2526   0.490   0.456   0.052  0.3842 -1.0239  0.1035
  843SOL     OW 2527   0.802   0.458   0.709  0.1117 -1.0752  0.2751
  843SOL    HW1 2528   0.717   0.414   0.672 -1.0882 -0.4041  0.2653
  843SOL    HW2 2529   0.885   0.419   0.669 -1.4596  0.1107  1.3861
  844SOL     OW 2530   2.865   0.093   3.003 -0.4114  0.0961 -0.2044
  844SOL    HW1 2531   2.777   0.058   2.955 -2.3162  0.5933 -0.5985
  844SOL    HW2 2532   2.945   0.026   2.995  0.9076 -1.8758 -1.6552
  845SOL     OW 2533   2.901   2.386   1.730 -0.0967  0.0927  0.2109
  845SOL    HW1 2534   2.929   2.325   1.804 -4.5501 -0.1881  0.7194
  845SOL    HW2 2535   2.886   2.328   1.645  0.4649  2.0079 -2.2107
  846SOL     OW 2536   2.627   1.723   2.386  0.6378 -0.0548 -0.5176
  846SOL    HW1 2537   2.565   1.729   2.466  0.0162  0.7398  1.2540
  846SOL    HW2 2538   2.577   1.713   2.298 -0.6047 -0.3091  0.2026
  847SOL     OW 2539   1.003   0.739   2.089 -0.0290  0.2188  0.1393
  847SOL    HW1 2540   1.020   0.673   2.169  1.5114  0.1372  1.7936
  847SOL    HW2 2541   1.003   0.693   1.997  2.5624 -1.5562 -0.3541
  848SOL     OW 2542   2.678   2.841   2.790 -0.9693  0.4119  0.0518
  848SOL    HW1 2543   2.758   2.788   2.803 -3.5089  1.4395 -0.9371
  848SOL    HW2 2544   2.695   2.940   2.804 -0.1243 -0.5997 -1.7701
  849SOL     OW 2545   0.382   2.718   3.019 -0.1805  0.6708 -0.1556
  849SOL    HW1 2546   0.350   2.813   3.008  1.7850  0.8961  1.3704
  849SOL    HW2 2547   0.318   2.655   2.975  2.7362 -0.2702 -1.4795
  850SOL     OW 2548   1.259   2.913   1.101 -0.2573 -0.7671 -0.2199
  850SOL    HW1 2549   1.262   2.828   1.150  0.0746  1.4122 -1.5244
  850SOL    HW2 2550   1.222   2.896   1.009 -0.2693 -0.2499  2.2414
  851SOL     OW 2551   2.748   0.500   2.373  0.1297 -0.6439 -0.0205
  851SOL    HW1 2552   2.696   0.561   2.311 -1.9450  1.3276  0.8921
  851SOL    HW2 2553   2.769   0.406   2.346  0.1848 -1.1003 -0.3150
  852SOL     OW 2554   1.506   0.471   2.389  0.4954  0.0303  0.2759
  852SOL    HW1 2555   1.584   0.534   2.373 -2.9082 -2.6307 -0.7585
  852SOL    HW2 2556   1.502   0.396   2.316 -0.7023  2.8115 -2.3911
  853SOL     OW 2557   0.037   2.677   0.258 -0.0957 -0.4203 -0.4176
  853SOL    HW1 2558   3.078   2.737   0.296  0.6809 -0.0676 -1.4713
  853SOL    HW2 2559   0.132   2.688   0.302  3.8168 -0.9661  1.6251
  854SOL     OW 2560   2.368   1.079   2.246 -0.3043  0.1323 -0.4916
  854SOL    HW1 2561   2.394   1.153   2.182 -0.6191 -1.6173  1.2922
  854SOL    HW2 2562   2.445   1.010   2.254  2.0894 -1.3583  0.5478
  855SOL     OW 2563   0.746   2.524   0.202 -0.4917 -0.3668 -0.3798
  855SOL    HW1 2564   0.809   2.445   0.215 -0.1522  0.4869  0.8171
  855SOL    HW2 2565   0.788   2.607   0.149  0.0099  0.1577  0.3053
  856SOL     OW 2566   0.024   2.916   2.736  0.4482 -0.3117  0.0761
  856SOL    HW1 2567   0.092   2.965   2.679  1.2647 -1.4161 -2.5968
  856SOL    HW2 2568   0.016   2.963   2.827  2.2381  0.4371  2.5424
  857SOL     OW 2569   0.972   2.843   1.396  0.0521  0.3256  0.7513
  857SOL    HW1 2570   0.910   2.878   1.471  1.1625 -2.3234  1.6320
  857SOL    HW2 2571   0.923   2.768   1.344  0.3380 -0.2305 -1.6145
  858SOL     OW 2572   2.550   2.218   1.712 -0.8971  0.3195 -0.0437
  858SOL    HW1 2573   2.560   2.228   1.813 -0.3131 -2.3073  1.6353
  858SOL    HW2 2574   2.463   2.263   1.683 -1.2766  1.6962  0.3460
  859SOL     OW 2575   1.764   2.124   1.631  0.2159  0.0101  0.7723
  859SOL    HW1 2576   1.783   2.035   1.585  0.1368  1.6710  1.1119
  859SOL    HW2 2577   1.666   2.125   1.664 -0.3537 -0.6931 -0.0996
  860SOL     OW 2578   2.211   0.045   0.358  0.2350 -0.6187  0.4214
  860SOL    HW1 2579   2.140   0.100   0.305 -2.1423  0.8566  0.8693
  860SOL    HW2 2580   2.168   3.090   0.413  3.4467  0.7606 -2.7333
  861SOL     OW 2581   2.736   0.250   0.776 -0.1702  0.6884  0.1043
  861SOL    HW1 2582   2.785   0.160   0.768  1.7776 -0.6694 -0.0517
  861SOL    HW2 2583   2.650   0.246   0.727 -0.9033  0.4624  0.1844
  862SOL     OW 2584   1.251   2.632   2.530 -0.0420 -0.0803 -0.2538
  862SOL    HW1 2585   1.297   2.623   2.621  1.9385 -1.2566 -1.4222
  862SOL    HW2 2586   1.250   2.541   2.482 -1.4063 -1.2801 -0.9577
  863SOL     OW 2587   0.571   0.642   1.291 -0.6948  0.0866 -0.1520
  863SOL    HW1 2588   0.557   0.558   1.234  0.3914 -1.4046 -1.1068
  863SOL    HW2 2589   0.643   0.696   1.246  1.4153  0.9418  1.5085
  864SOL     OW 2590   0.002   3.063   1.821  0.3869  0.1184 -0.0841
  864SOL    HW1 2591   0.075   3.104   1.877  0.5717  1.7717 -2.3263
  864SOL    HW2 2592   0.003   2.963   1.827 -0.5878 -0.1931  1.0239
  865SOL     OW 2593   0.559   1.287   0.038  0.1926  0.2813 -0.1291
  865SOL    HW1 2594   0.517   1.322   3.064  0.7350 -0.3302  1.7446
  865SOL    HW2 2595   0.605   1.201   0.030  0.2564  3.1694  1.6318
  866SOL     OW 2596   3.068   0.235   0.249 -0.2985  0.1416 -0.5232
  866SOL    HW1 2597   2.974   0.205   0.232  1.9201 -0.0856 -0.5272
  866SOL    HW2 2598   3.071   0.336   0.239  1.3612 -1.2524  1.9457
  867SOL     OW 2599   2.872   2.656   2.996 -0.2140 -0.2900 -0.5009
  867SOL    HW1 2600   2.963   2.686   3.032  0.2020  1.1443 -0.1700
  867SOL    HW2 2601   2.840   2.575   3.049 -2.8440  2.6877 -1.2983
  868SOL     OW 2602   1.352   0.647   0.186  0.0470  0.1293  0.1336
  868SOL    HW1 2603   1.393   0.568   0.237 -0.9536 -0.8742 -0.6581
  868SOL    HW2 2604   1.261   0.681   0.229 -1.2150  1.8470  1.3260
  869SOL     OW 2605   2.338   1.506   0.450 -0.5319 -0.0187  0.6521
  869SOL    HW1 2606   2.261   1.559   0.407 -0.9394 -1.6596  0.1667
  869SOL    HW2 2607   2.432   1.556   0.456 -2.9196  0.6784 -0.8687
  870SOL     OW 2608   2.146   1.596   0.291 -0.3249  0.5585  0.0210
  870SOL    HW1 2609   2.137   1.576   0.191  0.6528  1.5244  0.4353
  870SOL    HW2 2610   2.103   1.688   0.307 -0.0396 -0.8011  1.4729
  871SOL     OW 2611   1.281   1.387   0.928  0.3365 -0.2955  0.1404
  871SOL    HW1 2612   1.193   1.429   0.958  1.6093 -0.7761  0.3750
  871SOL    HW2 2613   1.354   1.454   0.920 -1.4662  0.5572 -1.9020
  872SOL     OW 2614   1.291   1.766   1.426 -0.8580  0.1965  0.2949
  872SOL    HW1 2615   1.338   1.677   1.436  2.1532  1.2277  0.9106
  872SOL    HW2 2616   1.221   1.756   1.348  1.9416  0.3981 -1.7148
  873SOL     OW 2617   0.699   1.603   2.297  0.6279  0.2878 -0.7909
  873SOL    HW1 2618   0.771   1.632   2.365  1.8372 -1.2224  1.1182
  873SOL    HW2 2619   0.743   1.551   2.224 -0.4160 -0.1530  1.2094
  874SOL     OW 2620   0.670   1.573   1.262  0.2827  0.2131 -0.1503
  874SOL    HW1 2621   0.639   1.670   1.255 -0.2426  1.1565 -1.7577
  874SOL    HW2 2622   0.627   1.518   1.191  1.6122  1.5421  1.7115
  875SOL     OW 2623   2.189   0.521   1.149  0.1865  0.2278 -0.3651
  875SOL    HW1 2624   2.097   0.556   1.128 -0.7562 -1.7648 -0.5075
  875SOL    HW2 2625   2.203   0.526   1.253 -1.1467  1.2010  0.5270
  876SOL     OW 2626   1.044   0.635   0.030 -0.1342  0.2560 -0.2483
  876SOL    HW1 2627   1.026   0.622   0.129 -1.1070 -3.6091  0.2640
  876SOL    HW2 2628   1.098   0.717   0.014 -1.5166 -1.3779 -0.4298
  877SOL     OW 2629   2.984   0.470   1.379  0.7581 -0.1978  0.1541
  877SOL    HW1 2630   2.889   0.471   1.337 -0.0266  1.0168 -1.3713
  877SOL    HW2 2631   3.059   0.483   1.313 -3.0397  0.7090  3.4633
  878SOL     OW 2632   1.904   2.307   0.142 -0.1347 -0.0215 -0.0932
  878SOL    HW1 2633   2.000   2.284   0.124 -0.0453  3.1712 -0.0347
  878SOL    HW2 2634   1.854   2.316   0.053  0.7818  0.9359 -0.7986
  879SOL     OW 2635   2.517   1.850   1.422 -0.0061  0.5916 -0.3827
  879SOL    HW1 2636   2.489   1.945   1.394  1.0944 -1.4970  0.4430
  879SOL    HW2 2637   2.522   1.833   1.525  1.3917  1.7664  0.5139
  880SOL     OW 2638   1.114   3.075   1.353  0.0104  0.7297  0.2826
  880SOL    HW1 2639   1.046   3.000   1.357  1.2371  0.2666  2.4300
  880SOL    HW2 2640   1.190   3.063   1.287  1.4588  0.7527  1.9304
  881SOL     OW 2641   1.317   1.893   0.123 -0.1138  1.0464  0.6833
  881SOL    HW1 2642   1.216   1.892   0.123 -0.1023  0.7082 -2.1960
  881SOL    HW2 2643   1.348   1.917   0.026  0.6607  3.3260  0.6646
  882SOL     OW 2644   2.077   0.903   2.068  0.5161 -0.2671 -0.0823
  882SOL    HW1 2645   2.037   0.977   2.127 -2.3314 -1.6647  2.4946
  882SOL    HW2 2646   2.169   0.933   2.033  1.8289 -2.3909 -1.4133
  883SOL     OW 2647   1.229   0.335   2.163 -0.1181  0.1342 -0.2880
  883SOL    HW1 2648   1.314   0.390   2.151 -1.1522 -0.3492  1.2085
  883SOL    HW2 2649   1.146   0.388   2.179  0.4370 -0.1801 -0.1550
  884SOL     OW 2650   2.816   0.162   0.167  0.8065 -0.2095  0.2059
  884SOL    HW1 2651   2.749   0.228   0.205  0.8758 -4.9830  0.6778
  884SOL    HW2 2652   2.822   0.178   0.068  0.2595 -2.3205  1.7197
  885SOL     OW 2653   0.793   1.785   0.076  0.4730 -0.2655 -0.0182
  885SOL    HW1 2654   0.745   1.852   0.144  1.6044  0.7977 -0.3112
  885SOL    HW2 2655   0.772   1.683   0.096 -0.1443 -4.3914 -1.8391
  886SOL     OW 2656   1.839   1.485   2.829  0.2034 -0.2028  0.2572
  886SOL    HW1 2657   1.835   1.513   2.732  0.5204  0.5265  2.7221
  886SOL    HW2 2658   1.864   1.565   2.891 -2.7574  0.6764 -0.0588
  887SOL     OW 2659   1.650   0.559   1.831  0.1364 -0.4563 -0.0184
  887SOL    HW1 2660   1.598   0.607   1.762 -0.6061 -4.4397  0.9566
  887SOL    HW2 2661   1.598   0.476   1.858 -0.9145 -1.0065  1.3486
  888SOL     OW 2662   2.872   0.801   1.840  0.2556  0.5564  0.1594
  888SOL    HW1 2663   2.925   0.845   1.767  1.9235 -0.3979 -0.2699
  888SOL    HW2 2664   2.781   0.763   1.801 -0.5200 -1.0598 -1.5068
  889SOL     OW 2665   2.954   2.767   0.670 -0.1117  0.5194 -0.7072
  889SOL    HW1 2666   2.931   2.695   0.743  0.4482  0.5276  3.0469
  889SOL    HW2 2667   3.051   2.752   0.643 -1.5204 -1.6513  1.0907
  890SOL     OW 2668   2.850   2.422   0.037  0.0026  0.3740 -0.1891
  890SOL    HW1 2669   2.796   2.378   0.109  0.8243  2.1283 -1.3130
  890SOL    HW2 2670   2.924   2.358   0.012  1.1078  2.7587  0.9737
  891SOL     OW 2671   0.991   1.591   2.814  0.0701  0.0509 -0.2033
  891SOL    HW1 2672   0.946   1.573   2.726  2.3221  1.2732  1.4204
  891SOL    HW2 2673   1.092   1.605   2.803  0.7149  0.4675  1.6010
  892SOL     OW 2674   0.043   2.932   0.976 -0.3373  0.1202 -0.1654
  892SOL    HW1 2675   0.060   2.942   0.877  0.9747  1.8295 -2.9978
  892SOL    HW2 2676   3.087   2.999   1.001  1.3501  2.1524 -0.0460
  893SOL     OW 2677   0.664   2.870   1.094  0.1087 -0.4930  0.4598
  893SOL    HW1 2678   0.645   2.878   1.192  1.2847 -2.4925  0.2711
  893SOL    HW2 2679   0.739   2.939   1.077 -0.2163 -1.5524  1.6508
  894SOL     OW 2680   2.714   1.458   0.831  0.2456 -0.0032 -0.2223
  894SOL    HW1 2681   2.626   1.511   0.824  1.1824  0.3163 -1.3763
  894SOL    HW2 2682   2.708   1.372   0.776 -0.3704 -1.6724  2.4734
  895SOL     OW 2683   2.778   2.624   1.773  0.0799 -0.5060  0.0183
  895SOL    HW1 2684   2.781   2.525   1.776  2.0852 -1.6390 -1.0367
  895SOL    HW2 2685   2.820   2.650   1.684  0.3486  1.1416  0.9089
  896SOL     OW 2686   1.017   0.235   1.730 -0.6498 -0.5691 -0.0135
  896SOL    HW1 2687   0.973   0.284   1.811  1.7833 -1.1148  0.6338
  896SOL    HW2 2688   1.115   0.217   1.760  1.3493 -2.2069 -1.1739
  897SOL     OW 2689   1.044   1.455   1.583  0.0156 -0.1013  0.8437
  897SOL    HW1 2690   1.025   1.401   1.499  0.1880  0.4371  0.5136
  897SOL    HW2 2691   1.023   1.559   1.561  1.5011  3.1741 -0.2002
  898SOL     OW 2692   1.277   2.541   1.888  0.1991  0.6717  0.2478
  898SOL    HW1 2693   1.259   2.638   1.874 -0.9805 -2.4760  2.3188
  898SOL    HW2 2694   1.264   2.484   1.803  0.8690 -0.8671  1.0012
  899SOL     OW 2695   0.889   0.621   0.304 -0.1288  0.5210 -0.6126
  899SOL    HW1 2696   0.833   0.703   0.322  1.4021 -2.9236 -0.2871
  899SOL    HW2 2697   0.943   0.601   0.390  1.3663  1.3243  2.1231
  900SOL     OW 2698   1.544   2.408   1.844  0.0380 -0.3726 -0.7854
  900SOL    HW1 2699   1.464   2.465   1.866 -1.1745 -0.4075 -2.3973
  900SOL    HW2 2700   1.632   2.459   1.840 -1.1469 -2.2431 -2.1665
  901SOL     OW 2701   0.938   2.326   0.264  0.0146  0.1229 -0.4166
  901SOL    HW1 2702   0.936   2.287   0.362 -1.5739 -2.1167  4.8092
  901SOL    HW2 2703   0.985   2.263   0.198 -1.6407  2.0108  0.6453
  902SOL     OW 2704   1.926   1.211   0.117 -0.1742  0.0202  0.7787
  902SOL    HW1 2705   1.945   1.236   0.212 -0.6020 -1.3462  0.5454
  902SOL    HW2 2706   2.004   1.181   0.067 -3.5077  0.1533 -0.9206
  903SOL     OW 2707   2.013   1.042   0.363  0.2233 -0.3721  0.3637
  903SOL    HW1 2708   2.066   0.996   0.287 -1.3784  1.0387  3.9392
  903SOL    HW2 2709   1.912   1.023   0.341 -2.0870  0.9712  0.1687
  904SOL     OW 2710   0.806   1.373   2.900 -0.1184 -0.1181  0.1258
  904SOL    HW1 2711   0.841   1.462   2.885 -0.1472 -2.1819 -1.1522
  904SOL    HW2 2712   0.859   1.316   2.969 -0.4633 -0.7047 -2.2108
  905SOL     OW 2713   1.883   0.014   1.093 -0.2557  0.5674  0.0241
  905SOL    HW1 2714   1.931   0.080   1.036 -0.5719 -0.0292 -0.5081
  905SOL    HW2 2715   1.785   0.038   1.108 -1.0545  1.7287  1.2806
  906SOL     OW 2716   2.958   2.336   1.163  0.1483  0.3708 -0.1719
  906SOL    HW1 2717   2.878   2.287   1.116 -1.5245  0.0141  0.9487
  906SOL    HW2 2718   3.023   2.381   1.098 -1.1695  1.9814  0.5026
  907SOL     OW 2719   0.920   0.940   0.189 -0.3077 -0.4703 -0.5668
  907SOL    HW1 2720   0.886   1.032   0.173 -0.8448 -0.8288  0.4052
  907SOL    HW2 2721   0.872   0.876   0.128  1.6788  2.5255 -1.1482
  908SOL     OW 2722   1.715   2.862   1.151 -0.1684  0.6234  0.0394
  908SOL    HW1 2723   1.793   2.815   1.202  1.0537 -2.2348 -0.5668
  908SOL    HW2 2724   1.702   2.963   1.171  3.9651  1.3403  1.3777
  909SOL     OW 2725   2.089   1.313   1.708  0.3657 -0.0083 -0.3749
  909SOL    HW1 2726   2.044   1.406   1.715  1.3479  0.2363 -0.4176
  909SOL    HW2 2727   2.111   1.288   1.613  0.5002  0.6081 -0.7684
  910SOL     OW 2728   1.506   2.941   1.983 -0.1147  0.0211 -0.1977
  910SOL    HW1 2729   1.502   2.882   2.069 -0.6797  0.5723  0.9239
  910SOL    HW2 2730   1.600   2.940   1.940  0.7392 -1.0667 -1.8288
  911SOL     OW 2731   2.989   0.926   2.546  0.0208 -0.6812 -0.3478
  911SOL    HW1 2732   3.066   0.988   2.542  0.3003  0.7491 -0.5503
  911SOL    HW2 2733   3.006   0.846   2.606 -0.8186  1.6654 -2.2567
  912SOL     OW 2734   0.118   1.269   1.618  0.0537  0.4670  0.0048
  912SOL    HW1 2735   0.043   1.240   1.683  3.0315 -1.5176 -0.0270
  912SOL    HW2 2736   0.206   1.254   1.663 -0.5685 -0.2023  2.9451
  913SOL     OW 2737   3.033   2.466   1.392  0.0220 -0.5516  0.2300
  913SOL    HW1 2738   3.003   2.394   1.462  1.4469 -2.7052  1.9244
  913SOL    HW2 2739   3.027   2.423   1.299 -3.4547  1.1660 -1.7255
  914SOL     OW 2740   1.727   0.918   1.755 -0.5939  0.1500 -0.4493
  914SOL    HW1 2741   1.651   0.850   1.749 -0.1576  1.3520 -2.1242
  914SOL    HW2 2742   1.736   0.959   1.664 -0.2349 -0.3149  3.1108
  915SOL     OW 2743   1.872   0.643   1.467 -0.0983 -0.3654 -0.4095
  915SOL    HW1 2744   1.831   0.617   1.556  0.2774  0.5651 -0.7503
  915SOL    HW2 2745   1.800   0.649   1.395 -1.1781 -0.4987 -3.2705
  916SOL     OW 2746   2.682   2.755   1.168  0.8762  0.1133 -0.2193
  916SOL    HW1 2747   2.633   2.796   1.249  1.1252  1.2476 -0.9297
  916SOL    HW2 2748   2.625   2.677   1.128 -2.3752  1.6827 -1.1350
  917SOL     OW 2749   1.898   1.945   2.994 -0.1955  0.1806 -0.1762
  917SOL    HW1 2750   1.811   1.976   3.040 -1.4464 -1.3801  2.9065
  917SOL    HW2 2751   1.966   2.018   2.995 -2.7883 -0.8575  2.0412
  918SOL     OW 2752   1.799   2.868   2.441  0.2613  0.0960 -0.7412
  918SOL    HW1 2753   1.877   2.933   2.451  2.6952 -1.0524 -1.7880
  918SOL    HW2 2754   1.720   2.923   2.410 -1.0395  0.4450 -0.2856
  919SOL     OW 2755   1.300   2.648   1.199  0.2711  0.0868 -0.1456
  919SOL    HW1 2756   1.402   2.647   1.202  2.7750  0.3218  1.3510
  919SOL    HW2 2757   1.267   2.659   1.298  1.1323  0.5203 -1.8112
  920SOL     OW 2758   2.814   0.237   2.348  0.3415 -0.3282  0.4343
  920SOL    HW1 2759   2.782   0.204   2.257  0.8266 -0.5090  0.2732
  920SOL    HW2 2760   2.912   0.223   2.358  0.2712 -2.8275  0.2996
  921SOL     OW 2761   2.967   0.985   1.673  0.3343 -0.0266  0.4932
  921SOL    HW1 2762   2.983   1.051   1.751 -1.8165 -1.1995 -0.7041
  921SOL    HW2 2763   3.049   0.957   1.619 -2.7835 -0.0285  1.3865
  922SOL     OW 2764   1.978   2.087   0.561 -0.1148 -0.1246 -0.0658
  922SOL    HW1 2765   1.995   2.127   0.652 -1.2029 -0.5812 -0.7561
  922SOL    HW2 2766   1.913   2.140   0.500  1.3051 -1.9036 -0.7914
  923SOL     OW 2767   1.051   1.873   0.130 -0.1424 -0.1329 -0.2665
  923SOL    HW1 2768   1.015   1.788   0.090  1.0991  4.9978 -0.8529
  923SOL    HW2 2769   1.010   1.893   0.221 -1.9321 -0.8476 -1.0116
  924SOL     OW 2770   1.377   0.338   3.022 -0.2652  0.2622 -0.0445
  924SOL    HW1 2771   1.277   0.361   3.004 -3.2578  0.6292 -0.0405
  924SOL    HW2 2772   1.428   0.423   3.048  2.1536 -2.5303  0.4846
  925SOL     OW 2773   2.459   0.527   0.768  0.3726  0.0760 -0.3863
  925SOL    HW1 2774   2.451   0.447   0.710  2.1149  0.4370  2.0273
  925SOL    HW2 2775   2.443   0.498   0.869  0.0330 -1.9727  3.9929
  926SOL     OW 2776   0.531   0.040   1.139  0.1110 -0.1070 -0.0584
  926SOL    HW1 2777   0.463   3.083   1.139 -0.6874  0.7209  1.5715
  926SOL    HW2 2778   0.593   0.033   1.220  1.8007 -1.7772  0.2016
  927SOL     OW 2779   0.013   1.500   2.377  0.5735 -0.5356  0.0533
  927SOL    HW1 2780   0.048   1.595   2.383 -2.4804 -1.8896 -0.3177
  927SOL    HW2 2781   0.059   1.447   2.303 -0.3011  1.8996  0.0765
  928SOL     OW 2782   0.038   0.391   2.796  0.2019 -0.4207  0.4799
  928SOL    HW1 2783   0.047   0.475   2.856 -2.1798  2.6699 -1.1718
  928SOL    HW2 2784   3.054   0.363   2.794 -1.7030  1.0913  0.0041
  929SOL     OW 2785   2.600   0.248   1.500  0.5966 -0.0984 -0.1577
  929SOL    HW1 2786   2.639   0.176   1.438  1.1977 -0.6497  0.9836
  929SOL    HW2 2787   2.592   0.207   1.591  3.7119 -2.6718  0.7440
  930SOL     OW 2788   2.036   0.923   1.765 -0.0885  0.1530 -0.3836
  930SOL    HW1 2789   1.938   0.932   1.758  2.3249  2.5289  0.7156
  930SOL    HW2 2790   2.066   0.905   1.860  1.2217  0.4058  0.3587
  931SOL     OW 2791   2.228   1.185   0.206  0.0352 -0.1706  0.6392
  931SOL    HW1 2792   2.322   1.199   0.247 -2.9174 -0.8818 -1.2916
  931SOL    HW2 2793   2.210   1.086   0.187  0.2902 -2.0141 -0.7445
  932SOL     OW 2794   2.319   1.217   0.870  0.7498  0.2413  0.2829
  932SOL    HW1 2795   2.377   1.250   0.951 -1.8351  1.3912 -0.4138
  932SOL    HW2 2796   2.226   1.193   0.904  0.5956 -0.6664 -1.3129
  933SOL     OW 2797   2.458   1.864   0.799  0.2048  0.2205  0.1201
  933SOL    HW1 2798   2.451   1.833   0.702 -0.3656  1.4863  1.0977
  933SOL    HW2 2799   2.379   1.929   0.811 -2.1525  3.9830  0.2066
  934SOL     OW 2800   2.012   0.505   2.502 -0.7326  0.3948  0.4185
  934SOL    HW1 2801   2.060   0.557   2.426 -0.2907  2.6536  0.2148
  934SOL    HW2 2802   2.054   0.417   2.529  0.2209  2.8060 -0.0016
  935SOL     OW 2803   0.044   1.437   0.413  0.0765  0.0714 -0.7646
  935SOL    HW1 2804   3.085   1.407   0.473 -0.4630 -0.6381 -3.4601
  935SOL    HW2 2805   0.120   1.487   0.468  1.1047 -0.5382  1.3418
  936SOL     OW 2806   0.013   0.417   0.684 -0.2048 -0.3224  0.6188
  936SOL    HW1 2807   3.035   0.440   0.649 -1.8613 -0.0703 -2.5099
  936SOL    HW2 2808   0.033   0.471   0.771  0.2538 -0.6844  0.1388
  937SOL     OW 2809   2.715   0.064   1.331  0.0863 -0.4842  0.3372
  937SOL    HW1 2810   2.649   0.039   1.257 -2.1066 -3.0999  1.1297
  937SOL    HW2 2811   2.807   0.094   1.295 -1.6832  0.9665  1.9434
  938SOL     OW 2812   2.730   2.305   0.260 -0.2959 -0.5355  0.4340
  938SOL    HW1 2813   2.803   2.265   0.320  0.3191 -0.7688  0.9525
  938SOL    HW2 2814   2.688   2.389   0.308 -3.4732  1.0402  0.9711
  939SOL     OW 2815   0.703   2.022   0.597 -0.1369  0.0033 -0.6792
  939SOL    HW1 2816   0.716   1.954   0.672 -0.2056  1.0923  0.8301
  939SOL    HW2 2817   0.661   1.985   0.516  2.0111 -0.4575  0.0769
  940SOL     OW 2818   0.277   0.299   2.894  0.1406 -0.3332  0.8250
  940SOL    HW1 2819   0.195   0.343   2.855  0.6159  1.8371  2.9018
  940SOL    HW2 2820   0.296   0.206   2.855 -0.1632  2.0712 -0.9090
  941SOL     OW 2821   1.495   0.243   2.778 -0.0940  0.7792 -0.4759
  941SOL    HW1 2822   1.508   0.337   2.741 -0.6262 -0.8748  1.0187
  941SOL    HW2 2823   1.442   0.251   2.865 -0.0365 -1.4532 -0.4274
  942SOL     OW 2824   1.038   0.742   1.447  0.8329 -0.3831 -0.0909
  942SOL    HW1 2825   0.964   0.672   1.429  1.8487 -1.0005 -0.8746
  942SOL    HW2 2826   1.089   0.721   1.532  0.3778  1.5353 -2.0940
  943SOL     OW 2827   1.336   0.989   1.942  0.3980  0.0272  0.3364
  943SOL    HW1 2828   1.436   0.971   1.945 -1.1561  0.5190 -0.8740
  943SOL    HW2 2829   1.283   0.910   1.981 -1.4881 -2.3920 -2.0797
  944SOL     OW 2830   2.161   0.974   1.547  0.3619  0.1188 -0.4985
  944SOL    HW1 2831   2.110   0.955   1.640 -1.4357  1.1975  0.7827
  944SOL    HW2 2832   2.157   1.071   1.535  0.5377 -3.5486  0.5652
  945SOL     OW 2833   2.781   2.967   0.220 -0.0499  0.6486 -0.3048
  945SOL    HW1 2834   2.711   2.942   0.294 -3.0589 -1.8953  0.5331
  945SOL    HW2 2835   2.799   3.065   0.217  1.6656  2.2742  0.9057
  946SOL     OW 2836   2.893   0.998   2.028  0.4579  0.3494 -0.2685
  946SOL    HW1 2837   2.874   0.935   1.948 -0.2607  0.2447 -0.4553
  946SOL    HW2 2838   2.821   1.072   2.037  1.0303  0.6460 -0.0276
  947SOL     OW 2839   0.970   2.758   0.367 -0.4201 -0.5316 -0.6239
  947SOL    HW1 2840   0.898   2.760   0.435 -1.1951 -0.3750 -0.2870
  947SOL    HW2 2841   0.935   2.745   0.275  1.7189 -0.3279 -1.6870
  948SOL     OW 2842   2.350   1.608   1.733  0.1968 -0.6808 -0.5247
  948SOL    HW1 2843   2.422   1.680   1.728  0.9887  0.3723 -1.4387
  948SOL    HW2 2844   2.398   1.519   1.713 -0.6291  2.9405  1.4995
  949SOL     OW 2845   0.427   1.373   2.946  0.4241 -0.0311 -0.0450
  949SOL    HW1 2846   0.337   1.342   2.910  0.3687  0.7567  0.4024
  949SOL    HW2 2847   0.502   1.364   2.877  2.3618  0.5724  0.0094
  950SOL     OW 2848   0.350   2.611   1.021  0.3660 -0.0327 -0.3253
  950SOL    HW1 2849   0.254   2.628   0.986 -0.8378  0.9668 -0.3657
  950SOL    HW2 2850   0.354   2.509   1.040 -0.9678 -0.8542 -0.1758
  951SOL     OW 2851   0.905   1.260   2.459 -0.2636 -0.0578  0.1658
  951SOL    HW1 2852   0.936   1.255   2.361  1.3763 -2.1155 -1.3102
  951SOL    HW2 2853   0.862   1.168   2.487  1.1961 -1.2649 -0.1622
  952SOL     OW 2854   0.229   1.016   0.342  0.2070  0.1422 -0.2144
  952SOL    HW1 2855   0.331   1.009   0.341  0.6117  1.1141  2.0232
  952SOL    HW2 2856   0.193   1.105   0.303 -0.8689  3.1479  0.6128
  953SOL     OW 2857   2.479   0.104   2.693  0.1791 -0.1740  0.3100
  953SOL    HW1 2858   2.390   0.116   2.735  0.5761  0.4725 -0.2378
  953SOL    HW2 2859   2.472   0.045   2.607  1.2442  1.5320 -1.5286
  954SOL     OW 2860   1.750   1.294   0.362  0.1660  0.0718  0.2732
  954SOL    HW1 2861   1.673   1.291   0.428 -2.1533 -0.4380  1.6888
  954SOL    HW2 2862   1.842   1.313   0.404  1.1969 -1.4684 -0.1542
  955SOL     OW 2863   0.879   1.928   2.649  0.4107 -0.6260 -0.2881
  955SOL    HW1 2864   0.882   1.864   2.732  0.8532  3.3516  3.4787
  955SOL    HW2 2865   0.810   2.000   2.667  1.5705  1.7896  0.6129
  956SOL     OW 2866   2.110   0.687   2.282  0.2593  0.6374  0.1469
  956SOL    HW1 2867   2.125   0.596   2.240  2.2731 -1.5414 -2.2820
  956SOL    HW2 2868   2.082   0.758   2.213  0.0336  0.2110 -2.8966
  957SOL     OW 2869   2.088   2.180   2.488 -0.1819  0.3329 -0.1154
  957SOL    HW1 2870   2.006   2.119   2.500  0.1353  1.2399  0.2601
  957SOL    HW2 2871   2.170   2.130   2.524  0.6142  0.4844  0.5515
  958SOL     OW 2872   1.442   1.351   1.336  0.0070 -0.1628 -0.0795
  958SOL    HW1 2873   1.499   1.350   1.255 -1.9638  0.8771  0.8153
  958SOL    HW2 2874   1.427   1.257   1.375 -2.0646 -2.0419 -1.7745
  959SOL     OW 2875   1.976   2.426   2.517  0.2273  0.0666 -0.2034
  959SOL    HW1 2876   1.955   2.443   2.418  1.8376 -0.6185  0.3152
  959SOL    HW2 2877   2.023   2.342   2.541  0.0094 -2.0156 -1.3238
  960SOL     OW 2878   0.077   0.675   2.381  0.2655 -0.3752 -0.1567
  960SOL    HW1 2879   0.098   0.765   2.428  0.5735 -0.2316 -0.4152
  960SOL    HW2 2880   3.103   0.638   2.409  1.5456  3.1946  0.2273
  961SOL     OW 2881   0.374   0.826   2.771  0.3596  0.3368 -0.2421
  961SOL    HW1 2882   0.384   0.843   2.672 -1.8980  2.9624  0.9424
  961SOL    HW2 2883   0.360   0.726   2.791 -0.3604 -3.2107  0.9809
  962SOL     OW 2884   0.599   1.290   2.735  0.1169 -0.0352  0.4578
  962SOL    HW1 2885   0.670   1.348   2.767 -1.0097 -1.6605  0.3219
  962SOL    HW2 2886   0.609   1.194   2.772 -0.5957 -2.2991 -2.4383
  963SOL     OW 2887   2.566   2.125   0.175 -0.3486 -0.0108  0.4024
  963SOL    HW1 2888   2.622   2.204   0.208  1.0175 -0.6044  0.8973
  963SOL    HW2 2889   2.606   2.039   0.202 -1.8683  0.3026 -1.6116
  964SOL     OW 2890   0.918   2.443   1.778  0.6118  0.6765 -0.1251
  964SOL    HW1 2891   1.008   2.495   1.776 -1.3913 -1.6874 -2.5093
  964SOL    HW2 2892   0.841   2.504   1.754  0.2108  0.8413 -0.9664
  965SOL     OW 2893   1.757   1.705   0.381 -0.2633 -0.4500 -0.4498
  965SOL    HW1 2894   1.815   1.643   0.328 -0.3946  2.0366  0.2233
  965SOL    HW2 2895   1.790   1.803   0.389 -0.1819 -1.7066  0.7251
  966SOL     OW 2896   3.030   1.629   0.262 -0.5402  0.1880  0.5884
  966SOL    HW1 2897   3.086   1.545   0.287  0.1587 -0.9629  2.2281
  966SOL    HW2 2898   3.035   1.690   0.348  0.0603  1.6068  1.0380
  967SOL     OW 2899   1.738   2.957   1.840 -0.1425 -0.3409 -0.3378
  967SOL    HW1 2900   1.806   3.016   1.792  1.1681 -0.2929  0.4285
  967SOL    HW2 2901   1.735   2.860   1.806 -4.1387 -0.1233  0.2793
  968SOL     OW 2902   1.949   0.352   0.369 -0.0098 -0.8754 -0.3567
  968SOL    HW1 2903   1.919   0.288   0.443  0.3094 -1.8618  2.8361
  968SOL    HW2 2904   1.962   0.443   0.416  1.3700  2.9884  1.2226
  969SOL     OW 2905   0.193   1.298   2.270 -0.3489  0.0983 -0.2765
  969SOL    HW1 2906   0.271   1.357   2.288 -0.7839  1.8382 -0.2514
  969SOL    HW2 2907   0.207   1.202   2.295  1.1591 -0.4379 -0.0198
  970SOL     OW 2908   2.179   2.066   1.286 -0.4331 -0.0130 -0.2822
  970SOL    HW1 2909   2.131   2.098   1.200  0.2426 -0.9965 -0.6951
  970SOL    HW2 2910   2.161   2.121   1.370  0.5583  0.4464  2.5863
  971SOL     OW 2911   2.983   2.754   1.119 -0.2013 -0.0672 -0.0654
  971SOL    HW1 2912   2.889   2.773   1.165  1.0979  1.2683  1.4364
  971SOL    HW2 2913   3.027   2.840   1.086  1.3011  0.7671  0.8490
  972SOL     OW 2914   0.199   1.193   2.669  0.0573 -0.2466  0.0509
  972SOL    HW1 2915   0.195   1.114   2.738 -0.9804 -0.1640  2.6523
  972SOL    HW2 2916   0.109   1.200   2.621 -1.5518 -0.2852 -2.0848
  973SOL     OW 2917   0.560   0.375   0.635 -0.2402 -0.3462  0.1110
  973SOL    HW1 2918   0.501   0.368   0.722 -0.9533 -0.4728  0.3835
  973SOL    HW2 2919   0.507   0.411   0.558  0.9921 -3.0840 -0.7024
  974SOL     OW 2920   2.357   0.870   1.694 -0.4934 -0.0445  0.5622
  974SOL    HW1 2921   2.283   0.897   1.630  1.2637 -2.5795 -0.6771
  974SOL    HW2 2922   2.437   0.840   1.640 -0.9882  1.1672  0.4094
  975SOL     OW 2923   2.694   2.817   0.020 -0.0246  0.2815  0.4084
  975SOL    HW1 2924   2.744   2.877   0.091  1.4286  1.4385  1.6324
  975SOL    HW2 2925   2.764   2.766   3.082 -1.0242  1.6898  1.3962
  976SOL     OW 2926   0.339   1.648   1.122 -0.2062 -0.0511  0.9935
  976SOL    HW1 2927   0.346   1.551   1.149 -1.3848  0.9147  2.4835
  976SOL    HW2 2928   0.386   1.665   1.035 -1.3062 -1.1474  2.8672
  977SOL     OW 2929   0.964   2.079   0.893 -0.3989 -0.0907  0.1314
  977SOL    HW1 2930   1.064   2.098   0.905 -1.0612  0.5313 -1.5876
  977SOL    HW2 2931   0.934   2.005   0.952  0.0489 -1.6033 -3.2029
  978SOL     OW 2932   0.501   0.971   0.248  0.3594  0.1555  0.3432
  978SOL    HW1 2933   0.557   1.021   0.185 -1.7403  1.0465  0.3567
  978SOL    HW2 2934   0.483   0.874   0.217  1.7393 -3.3191  2.1651
  979SOL     OW 2935   2.039   1.837   0.336  0.0732  0.3300 -1.0746
  979SOL    HW1 2936   2.044   1.894   0.418  0.1196 -1.0206 -1.8368
  979SOL    HW2 2937   2.052   1.894   0.253 -0.1373 -2.1062  0.2976
  980SOL     OW 2938   0.318   1.794   2.118 -0.0515  0.1435  0.0355
  980SOL    HW1 2939   0.348   1.732   2.039  1.4944 -0.3476  0.8669
  980SOL    HW2 2940   0.398   1.838   2.161 -0.3886 -0.7203 -0.7374
  981SOL     OW 2941   2.833   1.003   0.218  0.0487 -0.1968  0.5478
  981SOL    HW1 2942   2.800   0.950   0.293  4.2830  2.6201 -1.5051
  981SOL    HW2 2943   2.792   0.974   0.123  0.5208 -1.0403 -3.8274
  982SOL     OW 2944   2.915   2.857   2.061 -0.4288  0.5701  0.3463
  982SOL    HW1 2945   2.875   2.934   2.003  1.2119  0.1708 -2.0388
  982SOL    HW2 2946   2.987   2.804   2.006 -0.7156  0.3877  1.1884
  983SOL     OW 2947   1.574   0.367   1.448 -0.2897 -0.0793 -0.4645
  983SOL    HW1 2948   1.524   0.278   1.443  0.6854 -0.1845 -2.4207
  983SOL    HW2 2949   1.671   0.353   1.428 -3.3134  1.4875 -0.4881
  984SOL     OW 2950   1.391   2.706   3.008  0.6688 -0.7764  0.2389
  984SOL    HW1 2951   1.413   2.666   2.916 -0.5639 -1.9405 -0.1175
  984SOL    HW2 2952   1.473   2.756   3.050  0.6338  0.2867  0.3282
  985SOL     OW 2953   1.468   1.960   1.511  0.5663  0.2840 -0.0764
  985SOL    HW1 2954   1.416   1.882   1.473  3.0005  1.3825 -2.1521
  985SOL    HW2 2955   1.513   1.931   1.594 -1.1997 -1.0027  0.0891
  986SOL     OW 2956   2.028   3.038   2.445  0.6177 -0.0035  0.0604
  986SOL    HW1 2957   2.094   3.031   2.372  0.1834  0.7030  2.0148
  986SOL    HW2 2958   2.007   0.018   2.470 -0.9692  0.8710  0.0546
  987SOL     OW 2959   2.786   1.585   2.621  0.5779 -0.2132 -0.0694
  987SOL    HW1 2960   2.877   1.600   2.662 -0.0601 -1.2853  2.0328
  987SOL    HW2 2961   2.768   1.644   2.541  0.9806 -1.6502  0.3971
  988SOL     OW 2962   2.879   0.641   2.059 -0.0685  0.6305 -0.4922
  988SOL    HW1 2963   2.890   0.689   1.973 -0.0928  0.0798  1.1857
  988SOL    HW2 2964   2.881   0.710   2.138 -0.2777  0.9491  0.9820
  989SOL     OW 2965   1.855   1.180   1.699 -0.4244  0.0501 -0.2692
  989SOL    HW1 2966   1.791   1.239   1.755  1.2819 -0.5374  1.5583
  989SOL    HW2 2967   1.947   1.224   1.703 -0.2648 -0.0344  1.5103
  990SOL     OW 2968   3.059   1.132   0.112  0.3194  0.0727  0.0885
  990SOL    HW1 2969   2.975   1.090   0.151 -0.0454  0.5299  0.7547
  990SOL    HW2 2970   3.085   1.079   0.031 -0.8885  0.8312 -0.0397
  991SOL     OW 2971   0.226   2.172   2.768  0.3391  0.3642  0.0163
  991SOL    HW1 2972   0.176   2.090   2.797 -1.0959  2.7930 -1.2269
  991SOL    HW2 2973   0.280   2.147   2.689 -1.1099  0.3890  0.0902
  992SOL     OW 2974   2.568   2.214   1.985 -0.2824  0.2126  0.2024
  992SOL    HW1 2975   2.488   2.252   2.042  0.2727  0.5664  0.7571
  992SOL    HW2 2976   2.654   2.252   2.029 -0.6035 -0.6435 -0.2627
  993SOL     OW 2977   0.621   3.005   0.540  0.4532 -0.3366 -0.1902
  993SOL    HW1 2978   0.577   3.096   0.510 -2.0336  2.2221 -0.4146
  993SOL    HW2 2979   0.629   3.002   0.643  0.2794 -0.3893  2.0395
  994SOL     OW 2980   3.095   2.025   1.490 -0.0165  0.7345  0.1804
  994SOL    HW1 2981   0.011   1.988   1.580  4.3762  1.8419 -1.9504
  994SOL    HW2 2982   3.044   1.953   1.439  1.2833 -0.3556 -3.1502
  995SOL     OW 2983   2.253   1.703   2.387 -0.1249  0.0782  0.9561
  995SOL    HW1 2984   2.323   1.720   2.457  2.0481 -0.6586 -2.3573
  995SOL    HW2 2985   2.235   1.604   2.373 -2.0338 -0.5274 -0.9142
  996SOL     OW 2986   1.885   1.681   3.027  0.3483 -0.3135  0.4406
  996SOL    HW1 2987   1.813   1.651   3.089 -0.0343 -0.6870 -1.3889
  996SOL    HW2 2988   1.883   1.784   3.013  1.5195 -0.2240 -0.8742
  997SOL     OW 2989   1.335   1.500   1.524  0.5537  0.1036 -0.4867
  997SOL    HW1 2990   1.238   1.483   1.547 -0.5051  0.5814 -1.7533
  997SOL    HW2 2991   1.354   1.440   1.442  1.0713 -0.7126 -2.3490
  998SOL     OW 2992   2.781   2.184   1.007  0.3515 -0.3392  0.1208
  998SOL    HW1 2993   2.799   2.121   0.927  0.7001 -2.8631  1.1308
  998SOL    HW2 2994   2.780   2.124   1.086  2.4576  1.1101 -0.0105
  999SOL     OW 2995   2.524   2.721   0.247 -0.2251 -0.2188  0.4704
  999SOL    HW1 2996   2.427   2.719   0.215 -0.9137 -1.1347  0.6962
  999SOL    HW2 2997   2.579   2.778   0.183  2.0552  0.1515 -0.4714
 1000SOL     OW 2998   1.029   3.071   3.059 -0.3363 -0.0215  0.6729
 1000SOL    HW1 2999   1.063   3.081   0.038 -2.7519  0.3312  0.0878
 1000SOL    HW2 3000   1.019   0.039   3.003  0.7180  0.3411 -0.3536
   3.11603   3.11603   3.11603
