1000 SPC/Fw water molecules t= 387.00000 step= 387000
 3000
    1SOL     OW    1   2.739   2.964   1.762 -0.3040  0.2646 -0.0858
    1SOL    HW1    2   2.692   3.041   1.712  1.4427 -2.4229 -0.8263
    1SOL    HW2    3   2.668   2.889   1.784 -0.7783  0.0291 -1.3524
    2SOL     OW    4   2.401   2.701   0.354  0.4236 -0.0890 -0.1904
    2SOL    HW1    5   2.393   2.795   0.383 -1.8628  2.7367  2.0825
    2SOL    HW2    6   2.321   2.672   0.298  0.3130  0.8550  2.2032
    3SOL     OW    7   1.493   2.969   0.193 -0.5324  0.0105 -0.0788
    3SOL    HW1    8   1.539   2.955   0.282  0.9241  1.2341 -1.8781
    3SOL    HW2    9   1.492   3.065   0.160  0.1365 -1.8407 -0.4718
    4SOL     OW   10   1.293   0.098   2.369 -0.4538 -0.1416  0.1671
    4SOL    HW1   11   1.236   0.096   2.453 -0.4102 -0.9874  0.1723
    4SOL    HW2   12   1.264   0.040   2.293  0.4994  2.3886 -0.9614
    5SOL     OW   13   2.218   0.323   1.410 -0.1212 -0.2048 -0.1371
    5SOL    HW1   14   2.221   0.423   1.385  2.1888 -0.4483 -0.3419
    5SOL    HW2   15   2.126   0.294   1.442 -4.4294 -0.9057  0.4783
    6SOL     OW   16   2.218   1.898   0.546 -0.1332  0.2072 -0.4545
    6SOL    HW1   17   2.173   1.841   0.474  0.4785  0.2088  1.8021
    6SOL    HW2   18   2.231   1.996   0.518  1.0706 -0.5668 -0.4096
    7SOL     OW   19   1.810   1.026   0.909  0.0796 -0.0298 -0.1589
    7SOL    HW1   20   1.819   1.103   0.976  3.3199 -1.2413 -1.3904
    7SOL    HW2   21   1.714   0.984   0.904 -3.3806  0.9101 -1.2217
    8SOL     OW   22   0.635   1.293   0.982 -0.3891 -0.0988  0.2799
    8SOL    HW1   23   0.724   1.320   1.026  0.9509 -1.1429 -0.7947
    8SOL    HW2   24   0.557   1.344   1.025 -0.6577 -1.1437  1.6315
    9SOL     OW   25   0.437   2.738   1.731  0.5998 -0.3514 -0.0012
    9SOL    HW1   26   0.337   2.757   1.704 -0.5722 -0.5609 -1.0970
    9SOL    HW2   27   0.444   2.652   1.783 -2.0728  1.0155 -1.7762
   10SOL     OW   28   1.164   2.462   0.509 -0.0921  0.1686 -0.0632
   10SOL    HW1   29   1.250   2.517   0.504 -0.7998  3.0640 -0.9210
   10SOL    HW2   30   1.183   2.368   0.547  0.3204 -0.1993  0.3124
   11SOL     OW   31   1.570   1.743   1.179  0.1353 -0.0321 -0.1941
   11SOL    HW1   32   1.625   1.701   1.104  0.6837 -1.8915  1.7663
   11SOL    HW2   33   1.496   1.808   1.146  0.6169  0.4969 -1.9978
   12SOL     OW   34   2.919   0.530   2.050 -0.1225  0.4694  0.3138
   12SOL    HW1   35   2.861   0.521   1.969  0.4201  3.1927 -1.4610
   12SOL    HW2   36   2.964   0.619   2.040 -3.3138  0.2440 -0.5496
   13SOL     OW   37   2.712   0.212   0.561  0.6956 -0.0126 -0.6213
   13SOL    HW1   38   2.666   0.120   0.554 -1.3330  1.3721 -3.7185
   13SOL    HW2   39   2.733   0.241   0.657  1.4577  1.4301 -1.1890
   14SOL     OW   40   1.753   1.430   3.098 -0.4336 -0.3216  0.7259
   14SOL    HW1   41   1.770   1.342   3.045  0.3020 -1.3978 -1.4947
   14SOL    HW2   42   1.718   1.508   3.038 -0.2827  3.2254 -1.7238
   15SOL     OW   43   2.620   2.265   1.774 -0.3050  0.4664  0.1163
   15SOL    HW1   44   2.574   2.350   1.787  2.5607 -0.8277 -1.5391
   15SOL    HW2   45   2.717   2.264   1.810  1.9325 -0.5674 -0.7835
   16SOL     OW   46   2.517   2.985   0.867  0.0379  0.2624 -0.0353
   16SOL    HW1   47   2.574   3.017   0.942  1.4436 -0.0994  0.6446
   16SOL    HW2   48   2.418   3.014   0.877  0.0898 -0.8373 -1.2081
   17SOL     OW   49   1.168   0.248   1.440  0.2439  0.0626  0.2190
   17SOL    HW1   50   1.119   0.242   1.353  2.8447 -1.3575  1.5967
   17SOL    HW2   51   1.115   0.204   1.515  0.7828  0.1993 -0.6451
   18SOL     OW   52   1.538   0.480   0.963 -0.2311  0.0123  0.3265
   18SOL    HW1   53   1.477   0.542   1.009  2.1192 -2.2397  0.7377
   18SOL    HW2   54   1.564   0.394   1.016  2.2541 -2.3438  1.1841
   19SOL     OW   55   2.175   1.455   0.308  0.0517 -0.5630 -0.2133
   19SOL    HW1   56   2.107   1.502   0.245 -1.9880  0.1063  2.3704
   19SOL    HW2   57   2.197   1.523   0.379 -3.2636  1.0500 -1.5960
   20SOL     OW   58   2.030   1.528   2.351  0.9986 -0.1034  0.6239
   20SOL    HW1   59   2.106   1.509   2.414  0.6825  0.8701  0.5582
   20SOL    HW2   60   2.030   1.470   2.265  3.4084 -0.9300  0.5683
   21SOL     OW   61   1.182   0.002   0.640  0.2777 -0.1671 -0.2627
   21SOL    HW1   62   1.197   0.061   0.566 -2.6823 -2.6201  4.5815
   21SOL    HW2   63   1.119   3.028   0.616 -1.1050  0.0929 -2.1922
   22SOL     OW   64   2.592   0.808   1.025 -0.5291  0.3420  1.1234
   22SOL    HW1   65   2.660   0.806   0.945  2.5625  0.1863 -1.6831
   22SOL    HW2   66   2.561   0.715   1.052 -0.9118 -0.5209 -0.7914
   23SOL     OW   67   0.374   0.117   1.759  0.1016  0.4298 -0.1865
   23SOL    HW1   68   0.439   0.188   1.794  0.3050  0.9845 -0.2092
   23SOL    HW2   69   0.310   0.087   1.835 -0.6288 -0.4036  2.7037
   24SOL     OW   70   2.751   2.737   0.394  0.3788 -0.4508  0.4718
   24SOL    HW1   71   2.702   2.805   0.335 -2.2999  1.6299  2.8341
   24SOL    HW2   72   2.779   2.773   0.485  3.0722 -0.8852  0.5678
   25SOL     OW   73   1.781   0.200   2.757 -0.2702 -0.3108 -0.3330
   25SOL    HW1   74   1.846   0.236   2.683  1.0493  0.8918 -2.0266
   25SOL    HW2   75   1.815   0.232   2.849  0.5924 -2.0221 -1.1078
   26SOL     OW   76   1.551   2.543   0.014 -0.6468 -0.1338  0.0272
   26SOL    HW1   77   1.517   2.628   3.077  3.6868 -2.5239  4.1119
   26SOL    HW2   78   1.499   2.520   0.099  1.4284  0.4029 -0.3225
   27SOL     OW   79   1.239   0.579   1.015  0.7462  0.3030  0.2562
   27SOL    HW1   80   1.196   0.615   0.927  1.1059 -1.0685  0.5653
   27SOL    HW2   81   1.176   0.547   1.084  1.4575  0.4304 -1.9598
   28SOL     OW   82   1.296   1.518   0.615  0.0765  0.1953  0.3311
   28SOL    HW1   83   1.246   1.494   0.698 -0.4190 -1.3635  0.3183
   28SOL    HW2   84   1.363   1.442   0.594 -0.4973  0.3032 -0.8532
   29SOL     OW   85   2.729   0.318   1.813  0.0485 -0.3570 -0.3060
   29SOL    HW1   86   2.694   0.228   1.838  0.4104  2.1514 -0.4898
   29SOL    HW2   87   2.688   0.353   1.724 -0.5927 -0.2981 -2.5060
   30SOL     OW   88   1.298   2.759   1.361  0.0261 -0.0510 -0.5864
   30SOL    HW1   89   1.255   2.693   1.429 -1.9526  0.5863  1.4354
   30SOL    HW2   90   1.265   2.855   1.375 -0.5512 -0.5321  2.4017
   31SOL     OW   91   1.911   3.099   1.629  0.1071 -0.2163  0.3197
   31SOL    HW1   92   1.989   3.096   1.700 -0.3426  1.5018 -1.0619
   31SOL    HW2   93   1.907   3.007   1.590  0.6647 -0.2672 -0.1972
   32SOL     OW   94   1.457   1.862   2.986 -0.0954  0.5737  0.1878
   32SOL    HW1   95   1.549   1.879   2.949  0.4069  3.2536  0.1624
   32SOL    HW2   96   1.392   1.856   2.907 -2.3001 -0.3509  0.9616
   33SOL     OW   97   2.801   0.835   2.309 -0.1230  0.7081  0.2319
   33SOL    HW1   98   2.884   0.899   2.309  0.6974  0.6974 -0.5082
   33SOL    HW2   99   2.715   0.886   2.334  4.0712  0.4622 -1.3155
   34SOL     OW  100   2.049   0.499   0.467 -0.0476  0.2872  0.0796
   34SOL    HW1  101   2.043   0.423   0.539  0.2435 -4.3243  1.9316
   34SOL    HW2  102   2.085   0.461   0.377  1.4220  1.3361 -1.1556
   35SOL     OW  103   2.618   2.148   2.120 -0.1128 -0.6774  0.1970
   35SOL    HW1  104   2.670   2.120   2.205  0.0772  0.3995  1.7751
   35SOL    HW2  105   2.677   2.189   2.045  0.2896 -0.3736 -1.1322
   36SOL     OW  106   2.163   1.955   2.939  0.6626 -0.2089 -0.0874
   36SOL    HW1  107   2.263   1.930   2.938 -0.3801 -2.5142  2.9831
   36SOL    HW2  108   2.127   1.953   2.841 -1.3015  1.3938 -2.0348
   37SOL     OW  109   1.956   0.231   1.503  0.0409 -0.0391 -0.6092
   37SOL    HW1  110   1.969   0.294   1.585  0.4748  1.0534 -0.6915
   37SOL    HW2  111   1.933   0.142   1.552  3.4753 -1.3468  0.5730
   38SOL     OW  112   0.303   0.191   2.602  0.0206 -0.3250 -0.1117
   38SOL    HW1  113   0.389   0.239   2.570  2.5728  2.3332  1.2169
   38SOL    HW2  114   0.315   0.147   2.696 -0.6218 -0.9172  1.1968
   39SOL     OW  115   1.792   1.208   1.845 -0.3633  0.2498  0.5954
   39SOL    HW1  116   1.807   1.304   1.852 -0.0438 -0.8776 -1.0515
   39SOL    HW2  117   1.881   1.161   1.867  1.0120  1.5041 -2.6642
   40SOL     OW  118   1.300   1.806   0.824  0.0384  0.0642  0.2230
   40SOL    HW1  119   1.281   1.707   0.847 -2.0463 -0.8831  1.6032
   40SOL    HW2  120   1.217   1.866   0.816 -3.4573  4.2766  2.0330
   41SOL     OW  121   1.950   1.767   0.792  1.4510  0.6484  0.6421
   41SOL    HW1  122   1.992   1.681   0.753  2.4256 -0.6054 -0.5886
   41SOL    HW2  123   1.865   1.752   0.844 -2.6950 -0.6047  0.5298
   42SOL     OW  124   3.102   0.711   1.426  0.0835 -0.3096 -0.2186
   42SOL    HW1  125   3.104   0.614   1.402  0.6508  1.8647  0.9324
   42SOL    HW2  126   3.097   0.729   1.527  1.8127 -0.8553  2.0027
   43SOL     OW  127   0.315   1.742   3.045  0.2238 -0.9437 -0.3676
   43SOL    HW1  128   0.272   1.780   0.026  0.8445  2.3211 -1.2352
   43SOL    HW2  129   0.348   1.652   3.059 -2.1603  4.1412 -0.3742
   44SOL     OW  130   1.587   2.809   1.385  0.1449  0.3859  0.5566
   44SOL    HW1  131   1.490   2.778   1.373  1.6136 -2.3265  2.9166
   44SOL    HW2  132   1.634   2.751   1.454  3.7139  2.2087  0.4312
   45SOL     OW  133   1.139   3.080   2.596  0.5295 -0.0173 -0.2935
   45SOL    HW1  134   1.139   2.983   2.560 -0.9885 -1.5894  1.2409
   45SOL    HW2  135   1.043   0.006   2.625 -0.3131 -1.3061 -0.2380
   46SOL     OW  136   0.762   2.488   2.282 -0.6462  0.4229  0.2254
   46SOL    HW1  137   0.803   2.443   2.195  0.5446  1.2796 -1.7757
   46SOL    HW2  138   0.724   2.581   2.268  1.4691 -0.9073  2.1034
   47SOL     OW  139   1.083   2.001   0.990  0.4048 -0.3412  0.0050
   47SOL    HW1  140   1.036   2.052   1.064  0.0646  1.5787  0.2820
   47SOL    HW2  141   1.067   1.902   1.000 -1.0146  1.0370  0.9208
   48SOL     OW  142   0.925   2.119   1.191  0.6477  0.0462  0.2806
   48SOL    HW1  143   0.888   2.209   1.170  1.4506 -0.7012  2.6800
   48SOL    HW2  144   0.869   2.064   1.259 -2.9132 -4.1584  0.6785
   49SOL     OW  145   2.658   0.158   0.177  0.2926 -0.1499  0.6035
   49SOL    HW1  146   2.608   0.215   0.247 -2.1766 -2.8347  0.7569
   49SOL    HW2  147   2.721   0.220   0.126 -1.9716 -2.1184  1.7769
   50SOL     OW  148   1.848   0.418   0.121  0.8906 -0.3221  0.2915
   50SOL    HW1  149   1.943   0.442   0.095 -0.9723  1.0588  1.4619
   50SOL    HW2  150   1.820   0.464   0.208  0.5702 -2.2775 -1.1653
   51SOL     OW  151   1.871   0.692   1.144 -0.0247 -0.7276  0.2272
   51SOL    HW1  152   1.963   0.647   1.161  2.4585 -0.2379 -0.0545
   51SOL    HW2  153   1.870   0.789   1.184 -1.0415 -0.0561 -0.5188
   52SOL     OW  154   0.621   1.695   0.176  0.2765  0.5190  0.1946
   52SOL    HW1  155   0.697   1.630   0.184 -0.0990 -0.8073  0.2173
   52SOL    HW2  156   0.608   1.732   0.084 -2.7072 -2.2753  0.5228
   53SOL     OW  157   0.251   1.344   0.015 -0.0287  0.1315  0.3910
   53SOL    HW1  158   0.294   1.273   0.073 -1.1522 -0.1567 -0.7666
   53SOL    HW2  159   0.316   1.423   3.099 -0.8726  1.2554 -1.7929
   54SOL     OW  160   2.373   1.562   2.075 -0.5129  0.3688 -0.1622
   54SOL    HW1  161   2.349   1.654   2.036  2.1059  1.9890  2.5658
   54SOL    HW2  162   2.473   1.552   2.098  1.0645 -2.6087 -0.0093
   55SOL     OW  163   2.514   1.854   0.552  0.3545  0.1415  0.1973
   55SOL    HW1  164   2.417   1.824   0.541 -0.0389 -0.5535  1.0945
   55SOL    HW2  165   2.530   1.885   0.649 -0.6387  0.4251 -0.4228
   56SOL     OW  166   1.979   0.153   1.245  0.0077  0.0456  0.3219
   56SOL    HW1  167   2.038   0.219   1.195  0.3037 -0.8600 -2.3947
   56SOL    HW2  168   1.984   0.179   1.344 -0.3417 -2.0867 -3.7176
   57SOL     OW  169   1.242   1.269   0.256  0.0082  0.1644  0.1738
   57SOL    HW1  170   1.238   1.174   0.224 -0.0752  1.8205  2.2193
   57SOL    HW2  171   1.341   1.297   0.269  0.5714  1.9413  2.0433
   58SOL     OW  172   2.357   0.282   1.637 -0.7239 -0.3771  0.2875
   58SOL    HW1  173   2.325   0.311   1.730 -2.1890 -0.4513  0.5704
   58SOL    HW2  174   2.294   0.308   1.561  1.8933  0.1197 -2.6292
   59SOL     OW  175   1.303   2.700   2.715  0.6664 -0.2495 -0.5686
   59SOL    HW1  176   1.388   2.757   2.724 -0.3143 -0.1254 -0.7879
   59SOL    HW2  177   1.330   2.601   2.706  1.7103  0.5883  1.8310
   60SOL     OW  178   2.881   2.533   2.840  0.2895  0.3015 -0.0477
   60SOL    HW1  179   2.810   2.469   2.813  0.4576  0.0640  0.8497
   60SOL    HW2  180   2.878   2.611   2.777  1.4472  0.9311  1.5321
   61SOL     OW  181   0.823   2.338   1.100  0.3594 -0.2525 -0.0135
   61SOL    HW1  182   0.893   2.362   1.027 -0.3224 -1.1356 -0.6240
   61SOL    HW2  183   0.729   2.353   1.055  1.4380 -0.4005  2.9202
   62SOL     OW  184   1.960   1.904   2.489 -0.0040 -0.6905 -0.1816
   62SOL    HW1  185   1.996   1.883   2.395 -1.8503  2.5851 -1.7916
   62SOL    HW2  186   1.889   1.838   2.520 -1.9378  1.2632 -1.2790
   63SOL     OW  187   1.708   1.878   0.125 -0.4663  0.0611 -0.0964
   63SOL    HW1  188   1.638   1.811   0.111  0.3782  1.1962  1.5181
   63SOL    HW2  189   1.789   1.846   0.068  2.6379 -0.1183 -0.8114
   64SOL     OW  190   1.984   1.142   0.077 -0.1604 -0.2191 -0.2657
   64SOL    HW1  191   1.918   1.152   3.104 -0.0725 -1.2644  0.6052
   64SOL    HW2  192   1.943   1.089   0.158  0.7736 -1.4075  4.1313
   65SOL     OW  193   2.254   2.096   1.751 -0.2105 -0.0344 -0.0256
   65SOL    HW1  194   2.249   2.152   1.667  0.9824  3.5670 -2.0022
   65SOL    HW2  195   2.173   2.124   1.806 -2.5645 -1.0466 -0.9610
   66SOL     OW  196   0.345   0.872   1.532  0.5143 -0.0822  0.2811
   66SOL    HW1  197   0.312   0.906   1.441 -0.2371 -3.2434  1.6004
   66SOL    HW2  198   0.411   0.930   1.585 -0.7837 -0.0723 -1.2744
   67SOL     OW  199   2.350   2.932   0.107 -0.5618 -0.0188  0.2390
   67SOL    HW1  200   2.258   2.935   0.149 -0.0345 -0.7321  0.2488
   67SOL    HW2  201   2.374   3.020   0.072 -1.9539 -3.3461  5.0962
   68SOL     OW  202   1.878   2.081   1.170 -0.0419  0.7966  0.1962
   68SOL    HW1  203   1.966   2.032   1.136  1.4047  0.1892  1.5621
   68SOL    HW2  204   1.809   2.078   1.097  2.9045 -0.9304 -4.1167
   69SOL     OW  205   2.898   2.517   0.050 -0.1103  0.8789  0.4805
   69SOL    HW1  206   2.869   2.496   0.148 -0.7811  1.0344  0.1304
   69SOL    HW2  207   2.896   2.430   3.100 -1.3134 -2.5683 -2.6014
   70SOL     OW  208   2.853   1.068   2.082  0.4160 -0.0553  0.4028
   70SOL    HW1  209   2.861   1.101   1.986  0.2234  1.1549  1.7330
   70SOL    HW2  210   2.769   1.011   2.092  4.3411  1.1586  1.5713
   71SOL     OW  211   0.889   1.132   2.701 -0.2710 -0.9094  0.4647
   71SOL    HW1  212   0.951   1.164   2.777 -1.3013  0.6642  3.1485
   71SOL    HW2  213   0.913   1.034   2.686  0.1217  0.7530  0.3159
   72SOL     OW  214   2.812   1.655   2.179  0.1825 -0.2569  0.5966
   72SOL    HW1  215   2.806   1.735   2.112  1.1241  2.4557 -0.0822
   72SOL    HW2  216   2.735   1.589   2.160  0.0465 -0.7116  0.0446
   73SOL     OW  217   1.052   1.874   0.092 -0.3715 -0.1479  0.6297
   73SOL    HW1  218   1.001   1.927   0.022 -1.2472 -1.3036 -0.5090
   73SOL    HW2  219   1.154   1.892   0.079  1.8576 -0.0052  1.8402
   74SOL     OW  220   2.198   2.884   2.680 -0.4467 -0.8135  0.6062
   74SOL    HW1  221   2.243   2.938   2.604  1.1660  1.3454 -0.0165
   74SOL    HW2  222   2.184   2.785   2.653  1.4513 -0.3968 -1.0401
   75SOL     OW  223   1.517   2.395   0.770  0.1826 -0.6890 -0.2412
   75SOL    HW1  224   1.423   2.379   0.803  5.3875  1.5372 -1.0082
   75SOL    HW2  225   1.557   2.312   0.732 -0.1215  3.2222  2.1123
   76SOL     OW  226   2.621   1.791   2.460  0.4313 -0.5225 -0.2356
   76SOL    HW1  227   2.541   1.730   2.487 -3.0028 -0.6380  0.0121
   76SOL    HW2  228   2.708   1.742   2.469 -1.5765  0.8812 -2.1181
   77SOL     OW  229   3.064   2.441   1.829 -0.1565  0.1101  0.6019
   77SOL    HW1  230   3.075   2.488   1.921  1.9186 -0.7262 -2.6362
   77SOL    HW2  231   2.990   2.368   1.834  2.4716 -0.9273 -1.1474
   78SOL     OW  232   2.371   0.983   0.128  0.1542  0.0387  0.3640
   78SOL    HW1  233   2.297   0.912   0.139 -2.0416 -0.2170 -1.7831
   78SOL    HW2  234   2.336   1.078   0.133 -0.6627  0.7604  1.5381
   79SOL     OW  235   0.265   1.629   2.632  0.3435  0.1580  0.4677
   79SOL    HW1  236   0.257   1.724   2.667  0.1871 -0.4958 -1.8534
   79SOL    HW2  237   0.358   1.587   2.651 -1.2510  2.1811 -0.1432
   80SOL     OW  238   1.849   1.486   1.721  0.2208  0.4274 -0.5220
   80SOL    HW1  239   1.781   1.559   1.714  0.1976 -1.5953 -1.3762
   80SOL    HW2  240   1.938   1.527   1.751  0.0530  0.8674 -2.3324
   81SOL     OW  241   2.003   1.339   2.151  0.4327 -0.4805 -0.1981
   81SOL    HW1  242   2.020   1.293   2.060  0.3647 -1.2945 -1.0183
   81SOL    HW2  243   2.010   1.264   2.219 -0.8799  2.6375  0.7260
   82SOL     OW  244   1.442   1.663   1.910  0.4085 -0.0796 -0.4472
   82SOL    HW1  245   1.390   1.685   1.826  0.0743 -1.5325  3.0303
   82SOL    HW2  246   1.461   1.564   1.911 -0.4332  2.3592 -0.3526
   83SOL     OW  247   3.090   0.534   0.426  0.1825  0.1299 -0.4407
   83SOL    HW1  248   0.023   0.559   0.336  0.9793 -1.0582 -0.5841
   83SOL    HW2  249   3.044   0.444   0.427  0.8833 -0.3809 -0.1088
   84SOL     OW  250   0.185   0.199   0.502  0.2507 -0.0387  0.7827
   84SOL    HW1  251   0.205   0.298   0.511 -0.0709  2.3698 -1.2081
   84SOL    HW2  252   0.205   0.164   0.409  0.0846 -0.7319  3.2122
   85SOL     OW  253   2.188   2.092   1.343 -0.4628  0.1630  0.4241
   85SOL    HW1  254   2.102   2.118   1.397 -0.3927  0.5426 -0.0915
   85SOL    HW2  255   2.269   2.145   1.373  1.7642 -2.8092  0.4963
   86SOL     OW  256   0.486   0.398   1.440 -0.6984 -0.5907 -0.7175
   86SOL    HW1  257   0.417   0.406   1.369 -0.9041  2.0315 -1.0898
   86SOL    HW2  258   0.578   0.374   1.401  0.5415 -2.7121  1.8520
   87SOL     OW  259   0.003   2.176   2.155 -0.1192  0.1481  0.4579
   87SOL    HW1  260   3.086   2.127   2.066 -0.6297 -2.0032 -0.9365
   87SOL    HW2  261   0.100   2.215   2.151 -0.7895  0.0015 -0.5964
   88SOL     OW  262   0.126   2.077   2.841  0.0583  0.2959 -0.1176
   88SOL    HW1  263   0.162   2.150   2.775  1.8566  1.9830  0.8130
   88SOL    HW2  264   0.026   2.097   2.865  0.3256 -2.1202  0.3695
   89SOL     OW  265   1.246   0.891   0.463 -0.3063 -0.0718 -0.0768
   89SOL    HW1  266   1.178   0.819   0.497 -0.8314 -0.1286  1.2824
   89SOL    HW2  267   1.228   0.903   0.361  0.6893  1.6050 -1.8398
   90SOL     OW  268   0.092   1.581   2.411 -0.2023  0.6410  0.1083
   90SOL    HW1  269   0.035   1.658   2.376 -4.7180 -1.8028  3.6423
   90SOL    HW2  270   0.126   1.596   2.505 -0.1061 -0.7313  0.1524
   91SOL     OW  271   1.807   0.578   0.894 -0.1339 -0.9277  0.2796
   91SOL    HW1  272   1.707   0.565   0.900  4.0957 -2.6383 -1.9233
   91SOL    HW2  273   1.840   0.638   0.970  1.2336 -1.5466  0.0853
   92SOL     OW  274   2.414   1.416   1.300  0.0322 -0.4173  0.3314
   92SOL    HW1  275   2.444   1.416   1.202  2.8929  0.2363  1.3557
   92SOL    HW2  276   2.353   1.341   1.329 -0.8974  0.7630  0.4617
   93SOL     OW  277   0.264   1.276   2.833 -0.0150 -0.5014 -0.3286
   93SOL    HW1  278   0.258   1.325   2.921 -0.4126  0.5116 -0.8424
   93SOL    HW2  279   0.335   1.320   2.776  1.1756 -1.2748  2.0212
   94SOL     OW  280   1.715   2.316   2.300 -0.1106  0.3953 -0.5200
   94SOL    HW1  281   1.646   2.255   2.348 -1.3019 -0.2375 -0.7090
   94SOL    HW2  282   1.772   2.269   2.227 -2.2805 -1.9572 -0.0151
   95SOL     OW  283   0.329   0.500   1.217  0.4079 -0.2580  0.3745
   95SOL    HW1  284   0.406   0.448   1.174  0.8840  1.4990 -1.4834
   95SOL    HW2  285   0.238   0.459   1.190 -0.7531 -0.3954  2.3800
   96SOL     OW  286   2.858   2.728   1.127  0.7915  0.2278 -0.4127
   96SOL    HW1  287   2.787   2.703   1.058 -0.0448  2.1718 -0.2797
   96SOL    HW2  288   2.829   2.693   1.216 -0.2282 -1.1844 -2.7380
   97SOL     OW  289   2.271   0.938   1.287 -0.6374 -0.2163 -0.2580
   97SOL    HW1  290   2.335   0.983   1.352 -0.0538  1.4628  0.2275
   97SOL    HW2  291   2.176   0.924   1.321  2.0195 -1.9116 -1.4158
   98SOL     OW  292   2.202   2.714   1.492  0.0848 -0.2988 -0.0641
   98SOL    HW1  293   2.105   2.741   1.493  0.9195 -0.4763 -0.7199
   98SOL    HW2  294   2.268   2.796   1.483  2.1058  0.9268  2.5498
   99SOL     OW  295   0.619   2.905   1.415 -0.1000 -0.1978 -0.4433
   99SOL    HW1  296   0.604   2.934   1.511  0.8408 -1.2413  2.0766
   99SOL    HW2  297   0.657   2.978   1.355 -0.5359  1.9429  1.3250
  100SOL     OW  298   1.869   0.134   2.419 -0.5337  0.3344 -0.4221
  100SOL    HW1  299   1.814   0.215   2.396  2.2349  0.3354 -0.0922
  100SOL    HW2  300   1.931   0.158   2.503  0.5281 -0.3844  0.7260
  101SOL     OW  301   2.856   0.325   2.380  0.1168  0.1140 -0.3396
  101SOL    HW1  302   2.870   0.281   2.291 -1.6997  1.1079 -1.1551
  101SOL    HW2  303   2.853   0.428   2.370  1.6288  0.0192 -0.3443
  102SOL     OW  304   0.395   0.611   1.598  0.0775 -0.3706  0.0028
  102SOL    HW1  305   0.408   0.547   1.516  0.5807  1.9422 -1.9107
  102SOL    HW2  306   0.372   0.702   1.568  1.8969 -1.2681 -0.0831
  103SOL     OW  307   1.070   0.570   2.887 -0.1649  0.0456 -0.1148
  103SOL    HW1  308   1.088   0.545   2.790 -1.8551  1.6481 -0.1584
  103SOL    HW2  309   1.051   0.670   2.888  0.3443 -1.1130  0.7154
  104SOL     OW  310   0.176   0.665   2.181  0.7139 -0.4303  0.2688
  104SOL    HW1  311   0.155   0.603   2.255  0.6220 -2.1289 -2.2585
  104SOL    HW2  312   0.116   0.751   2.179  0.2570  0.9102 -2.6615
  105SOL     OW  313   2.619   2.003   1.392 -0.1736  0.1043  0.0621
  105SOL    HW1  314   2.613   2.083   1.451 -0.6420 -1.4601 -3.5294
  105SOL    HW2  315   2.548   2.020   1.321  1.3224  0.1969  0.3340
  106SOL     OW  316   1.840   0.148   0.390  0.1309  0.1517  0.0745
  106SOL    HW1  317   1.815   0.173   0.483  1.7834  1.2858  0.1735
  106SOL    HW2  318   1.775   0.181   0.309  0.7053  3.3351 -2.6861
  107SOL     OW  319   2.083   2.113   0.885 -0.6319  0.7503 -0.2540
  107SOL    HW1  320   2.017   2.060   0.832  0.0357  1.3789  0.1994
  107SOL    HW2  321   2.057   2.204   0.904 -0.6896 -5.6603  0.5578
  108SOL     OW  322   0.124   2.362   1.406  0.2264  0.6256 -0.5846
  108SOL    HW1  323   0.032   2.312   1.418 -2.5408  1.2447  1.3643
  108SOL    HW2  324   0.156   2.365   1.311  0.9197 -0.5585  0.5962
  109SOL     OW  325   2.074   2.555   0.740  0.0494 -0.4557  0.0446
  109SOL    HW1  326   2.014   2.640   0.723 -1.6078  3.1416 -0.3640
  109SOL    HW2  327   2.043   2.496   0.818 -1.6387  0.4316 -0.1783
  110SOL     OW  328   1.229   1.736   1.724 -0.1267 -0.3211  0.4309
  110SOL    HW1  329   1.167   1.655   1.700  1.6387 -4.6044 -0.9757
  110SOL    HW2  330   1.231   1.818   1.661 -0.6726 -0.0051 -1.5890
  111SOL     OW  331   1.868   2.329   1.853 -0.0215  0.1067  0.1502
  111SOL    HW1  332   1.819   2.340   1.767  2.8448 -0.2219 -0.4808
  111SOL    HW2  333   1.928   2.407   1.877  0.4001 -1.0996 -1.9723
  112SOL     OW  334   1.672   2.233   2.923  0.0333  0.0086 -0.0052
  112SOL    HW1  335   1.582   2.201   2.960 -1.4834 -0.2485 -0.0594
  112SOL    HW2  336   1.749   2.221   2.990 -1.1952 -1.4466 -1.8516
  113SOL     OW  337   1.906   2.020   1.662  0.3398  0.1093 -0.0221
  113SOL    HW1  338   1.909   1.928   1.612 -1.1337 -2.0216 -2.6443
  113SOL    HW2  339   1.810   2.047   1.673  0.3734 -0.2484 -3.3369
  114SOL     OW  340   0.218   1.220   1.543 -0.4828  0.4956 -0.1916
  114SOL    HW1  341   0.163   1.200   1.458 -0.4590 -1.8121  0.6298
  114SOL    HW2  342   0.204   1.143   1.606 -1.8962  2.3534 -1.6330
  115SOL     OW  343   0.657   0.759   0.349  0.3317 -0.2104  0.0000
  115SOL    HW1  344   0.663   0.670   0.295 -0.1654 -0.3489  1.9164
  115SOL    HW2  345   0.621   0.839   0.294 -0.8846  0.6935  0.9146
  116SOL     OW  346   2.511   1.499   2.534 -0.3884  0.1515 -0.0390
  116SOL    HW1  347   2.464   1.468   2.448 -0.1347  1.6257 -1.1779
  116SOL    HW2  348   2.593   1.440   2.555  1.0170 -0.3422 -1.8648
  117SOL     OW  349   2.827   2.480   0.325  0.1278  0.6966 -0.5363
  117SOL    HW1  350   2.818   2.579   0.350  0.6675  1.9839 -0.9047
  117SOL    HW2  351   2.825   2.417   0.404 -2.3945  1.3190  0.8306
  118SOL     OW  352   0.453   2.009   2.731 -0.2699 -0.6772  0.7112
  118SOL    HW1  353   0.437   2.065   2.644  0.3864  1.8420  0.2128
  118SOL    HW2  354   0.370   1.950   2.756  0.4995 -1.3107  1.9824
  119SOL     OW  355   0.767   2.223   0.695 -0.1331 -0.5790  0.2246
  119SOL    HW1  356   0.685   2.169   0.707  0.7947  3.1276 -3.2096
  119SOL    HW2  357   0.855   2.176   0.726  0.7703  1.0972  0.5308
  120SOL     OW  358   1.506   0.360   0.308 -0.4802 -0.4117  0.8337
  120SOL    HW1  359   1.578   0.299   0.274 -1.9931 -1.4726  0.9920
  120SOL    HW2  360   1.458   0.418   0.239 -0.7155  4.3599 -0.8455
  121SOL     OW  361   1.272   2.329   0.874  0.7315 -0.0869  0.0555
  121SOL    HW1  362   1.200   2.388   0.918  0.7045  0.9155  3.3701
  121SOL    HW2  363   1.254   2.302   0.781 -2.1347  2.1754  4.2014
  122SOL     OW  364   2.877   2.261   1.890 -0.1237  0.3779  0.1777
  122SOL    HW1  365   2.869   2.272   1.994  1.2551  1.4459 -1.7077
  122SOL    HW2  366   2.920   2.171   1.867 -1.0890  0.4449  2.7776
  123SOL     OW  367   0.781   1.694   0.780 -0.4363  0.0231 -0.5922
  123SOL    HW1  368   0.758   1.696   0.879 -0.6262 -1.4352  0.0589
  123SOL    HW2  369   0.723   1.752   0.719 -0.4467  1.2710  2.9848
  124SOL     OW  370   0.099   0.519   0.160 -0.2349  0.0208  0.3297
  124SOL    HW1  371   0.011   0.562   0.133  2.5144 -0.1962  1.3013
  124SOL    HW2  372   0.129   0.468   0.081  0.0882  2.6674  0.4027
  125SOL     OW  373   0.365   0.283   0.032 -0.2498  0.3041  0.1071
  125SOL    HW1  374   0.281   0.321   3.095  1.2218  0.9218 -2.3464
  125SOL    HW2  375   0.406   0.323   0.117  1.4273  0.2789  1.7922
  126SOL     OW  376   3.000   1.627   0.515  0.0177  0.0440  0.1396
  126SOL    HW1  377   3.028   1.659   0.421  1.3046 -1.1345  0.6232
  126SOL    HW2  378   2.916   1.672   0.539 -0.8034 -1.9085  2.3080
  127SOL     OW  379   1.215   2.459   1.779 -0.0503  0.4579 -0.0519
  127SOL    HW1  380   1.143   2.431   1.844  0.8848  1.8717 -1.2119
  127SOL    HW2  381   1.270   2.373   1.747  0.2057 -2.9971  0.6192
  128SOL     OW  382   1.147   1.517   0.180 -0.4407 -0.7241 -0.5832
  128SOL    HW1  383   1.200   1.560   0.110  0.3705 -0.3378  1.6502
  128SOL    HW2  384   1.182   1.427   0.213  0.6191  1.1748 -0.1017
  129SOL     OW  385   1.901   2.298   1.306  0.2949 -0.5480  0.1490
  129SOL    HW1  386   1.888   2.207   1.265  1.3287  0.2720  0.7645
  129SOL    HW2  387   1.815   2.347   1.286  0.0418  1.8519  0.9352
  130SOL     OW  388   2.020   2.236   1.541 -0.8830 -0.0603  0.0904
  130SOL    HW1  389   1.975   2.170   1.603  1.6706  1.9316 -2.0910
  130SOL    HW2  390   1.965   2.250   1.458 -0.8279 -0.4629 -0.6585
  131SOL     OW  391   2.707   2.621   2.364  0.4074  0.1693  0.1331
  131SOL    HW1  392   2.629   2.562   2.394 -2.8116  0.3236  1.0810
  131SOL    HW2  393   2.794   2.571   2.386 -0.4741  2.9137 -0.0419
  132SOL     OW  394   2.907   2.039   0.474  0.3463 -0.3961 -0.3243
  132SOL    HW1  395   3.003   2.019   0.499 -0.8293 -2.0034  2.6780
  132SOL    HW2  396   2.890   2.138   0.494  1.3678  0.9846 -0.4403
  133SOL     OW  397   0.477   0.326   1.926  0.1397  0.5387 -0.1545
  133SOL    HW1  398   0.453   0.412   1.983 -1.7910  2.9332  1.6103
  133SOL    HW2  399   0.562   0.345   1.873  2.0608 -3.1178 -1.9806
  134SOL     OW  400   2.608   1.779   0.191 -0.3082  0.0485  0.3387
  134SOL    HW1  401   2.699   1.826   0.220 -0.8549  0.2983  1.7437
  134SOL    HW2  402   2.537   1.853   0.167 -2.3962  2.4221  2.7599
  135SOL     OW  403   1.605   1.316   2.625  0.0235  0.5178  0.2121
  135SOL    HW1  404   1.698   1.293   2.652  1.4848  1.7491 -2.1013
  135SOL    HW2  405   1.550   1.234   2.649  1.0770  0.9719 -0.3929
  136SOL     OW  406   2.578   1.790   1.172  0.0028  0.6847 -0.5265
  136SOL    HW1  407   2.660   1.752   1.212 -1.4168 -1.1098 -0.7000
  136SOL    HW2  408   2.581   1.807   1.073 -0.4686  2.0443  0.9879
  137SOL     OW  409   2.734   1.558   0.886 -0.4714  0.6201  0.0397
  137SOL    HW1  410   2.672   1.514   0.814 -1.2219 -0.6626 -3.3944
  137SOL    HW2  411   2.728   1.659   0.882 -0.9976  1.4562 -0.3881
  138SOL     OW  412   2.778   0.260   0.826 -0.1800  0.1991  0.0349
  138SOL    HW1  413   2.789   0.196   0.911 -0.2103 -3.1307 -2.1208
  138SOL    HW2  414   2.754   0.355   0.860  0.8254  1.3663  1.9167
  139SOL     OW  415   0.147   2.759   3.004 -0.4900 -0.0466  0.3720
  139SOL    HW1  416   0.075   2.769   3.073  0.9959 -0.3568  2.1738
  139SOL    HW2  417   0.133   2.684   2.937  1.0175 -1.0208 -0.6299
  140SOL     OW  418   0.849   1.829   1.746  0.0885 -0.0661  0.2996
  140SOL    HW1  419   0.859   1.826   1.847  0.1300 -0.4097 -1.7616
  140SOL    HW2  420   0.869   1.919   1.707  0.8584  0.5598  0.1238
  141SOL     OW  421   1.637   1.891   0.843 -0.0102 -1.0154  0.4752
  141SOL    HW1  422   1.641   1.816   0.911 -2.2448  0.5080 -1.5013
  141SOL    HW2  423   1.614   1.840   0.759 -3.6085 -2.7810  1.0494
  142SOL     OW  424   1.125   0.683   0.806 -0.5066  0.2548 -0.1107
  142SOL    HW1  425   1.078   0.639   0.729  1.1872  1.8690 -0.9144
  142SOL    HW2  426   1.053   0.733   0.857 -3.7190  0.4427  1.0608
  143SOL     OW  427   0.731   1.384   2.746 -0.0474 -0.1380  1.1288
  143SOL    HW1  428   0.789   1.430   2.678  1.0517 -0.9846 -1.7584
  143SOL    HW2  429   0.769   1.297   2.777  2.1959 -0.2690 -1.9157
  144SOL     OW  430   2.231   2.996   0.914  0.0771  0.1399 -0.7790
  144SOL    HW1  431   2.154   2.965   0.854  0.5079 -1.8078 -1.3917
  144SOL    HW2  432   2.215   2.951   1.005  0.7237  0.8977  1.7297
  145SOL     OW  433   2.448   0.589   2.705 -0.1364  0.2268 -0.2203
  145SOL    HW1  434   2.463   0.600   2.806 -0.7488 -2.7362 -0.3485
  145SOL    HW2  435   2.530   0.547   2.661  2.9996  2.0975  1.1009
  146SOL     OW  436   3.071   2.674   0.499 -0.0083 -0.7653 -0.0804
  146SOL    HW1  437   3.051   2.593   0.557  1.2073  2.8519 -0.6553
  146SOL    HW2  438   3.015   2.754   0.527 -2.7692  1.0839 -0.1380
  147SOL     OW  439   1.216   1.048   2.620  0.0863 -0.1785  0.0073
  147SOL    HW1  440   1.186   1.091   2.532  2.1768  1.4487 -0.2108
  147SOL    HW2  441   1.228   0.945   2.621 -1.3505  2.1493  0.8409
  148SOL     OW  442   1.333   0.362   2.457 -0.2870  0.4335 -0.5211
  148SOL    HW1  443   1.339   0.415   2.370  0.2679  0.1710 -2.2394
  148SOL    HW2  444   1.337   0.264   2.435  0.5678 -1.6772  0.2516
  149SOL     OW  445   1.948   0.063   2.161  0.2924 -0.3264 -0.5249
  149SOL    HW1  446   1.966   3.069   2.142  1.5716 -1.5111  0.6304
  149SOL    HW2  447   1.936   0.080   2.258 -1.9270  0.5519  0.2586
  150SOL     OW  448   2.345   2.601   2.898  0.3097  0.1075  0.0344
  150SOL    HW1  449   2.285   2.682   2.926  0.7053  3.3851 -0.5810
  150SOL    HW2  450   2.436   2.622   2.939  1.4201 -0.1102  0.2273
  151SOL     OW  451   0.441   1.507   3.057  0.2851  0.2165  0.0100
  151SOL    HW1  452   0.512   1.468   0.014  2.4996 -1.2688  1.3103
  151SOL    HW2  453   0.483   1.548   2.972  0.9645 -2.0428 -0.5169
  152SOL     OW  454   0.122   0.081   1.640 -0.5978  0.3391  0.2521
  152SOL    HW1  455   0.219   0.099   1.674  2.8171 -0.0017  0.9059
  152SOL    HW2  456   0.055   0.132   1.692  3.5249 -0.1974 -2.5423
  153SOL     OW  457   2.314   2.984   1.538  0.0339  0.0493 -0.0110
  153SOL    HW1  458   2.396   2.995   1.600  2.1292 -1.2014  0.4896
  153SOL    HW2  459   2.324   3.031   1.447 -0.4430 -1.4057  0.7023
  154SOL     OW  460   2.208   0.392   2.377 -0.3950 -1.0295 -0.1438
  154SOL    HW1  461   2.184   0.425   2.473  0.1205  0.5079  0.5719
  154SOL    HW2  462   2.233   0.292   2.377 -1.5708  1.9102  2.8774
  155SOL     OW  463   0.000   1.333   0.623  0.3771 -0.2163 -0.6423
  155SOL    HW1  464   0.088   1.293   0.590  2.0647 -0.8113 -0.7222
  155SOL    HW2  465   3.099   1.427   0.586  2.7575 -2.5472 -1.4917
  156SOL     OW  466   2.982   1.560   0.221  0.2680  0.3558 -0.4355
  156SOL    HW1  467   2.949   1.602   0.138  1.7122  1.2944  2.3361
  156SOL    HW2  468   2.909   1.502   0.267 -3.3415 -1.0348  3.4423
  157SOL     OW  469   0.560   0.134   0.675  0.3839 -0.3172 -0.8648
  157SOL    HW1  470   0.533   0.107   0.769 -1.3700  0.1460 -0.0791
  157SOL    HW2  471   0.647   0.085   0.657 -0.7721  2.2634 -0.4450
  158SOL     OW  472   1.920   0.924   1.275  1.0523  0.6768 -0.4805
  158SOL    HW1  473   1.945   0.955   1.369  0.8992 -0.4525 -0.7829
  158SOL    HW2  474   1.906   1.001   1.209  1.3603  0.0784 -2.0201
  159SOL     OW  475   0.121   0.116   0.761 -0.2717  0.0409  0.1424
  159SOL    HW1  476   0.041   0.180   0.776 -0.6217  1.5467  1.2407
  159SOL    HW2  477   0.163   0.143   0.672 -2.5880  0.6338  1.4870
  160SOL     OW  478   2.309   2.306   1.492  0.1807  0.0581 -0.1127
  160SOL    HW1  479   2.203   2.303   1.492 -3.1459 -0.8278 -1.0940
  160SOL    HW2  480   2.344   2.390   1.445  0.3249 -0.0412  0.8635
  161SOL     OW  481   3.056   0.786   2.699  0.6949  0.1584  0.5756
  161SOL    HW1  482   0.019   0.717   2.667  0.8640  1.2790  0.3480
  161SOL    HW2  483   0.003   0.853   2.751  2.1136 -1.2928 -3.4610
  162SOL     OW  484   0.817   3.031   1.619 -0.5828  0.3594  0.2512
  162SOL    HW1  485   0.721   3.052   1.636  2.0956 -2.9007 -2.3402
  162SOL    HW2  486   0.849   3.066   1.529 -1.4426 -1.4784  1.3965
  163SOL     OW  487   2.672   0.137   2.467  0.2240  0.6312  0.2165
  163SOL    HW1  488   2.723   0.056   2.499 -0.2627  1.7458  0.8980
  163SOL    HW2  489   2.732   0.217   2.464  0.2861 -1.3364 -1.6357
  164SOL     OW  490   2.028   1.844   0.340 -0.6236  0.0245 -0.1263
  164SOL    HW1  491   1.969   1.906   0.283  0.5812  1.6136 -1.3474
  164SOL    HW2  492   2.111   1.807   0.286  1.6546  0.1344 -2.2249
  165SOL     OW  493   0.098   0.339   1.562  0.4824  0.1571 -0.0257
  165SOL    HW1  494   0.108   0.388   1.655 -1.4906  1.9316  2.2612
  165SOL    HW2  495   0.134   0.241   1.560 -0.6651 -0.5865  0.3835
  166SOL     OW  496   1.988   0.836   0.355  0.1562  0.1509 -0.3292
  166SOL    HW1  497   1.929   0.921   0.359  1.8461 -0.8663  0.0455
  166SOL    HW2  498   1.944   0.752   0.395 -2.0832 -1.7948 -1.0703
  167SOL     OW  499   2.373   0.942   2.853  0.2017 -0.6190  0.4200
  167SOL    HW1  500   2.286   0.952   2.903  3.2461 -1.9629  0.7835
  167SOL    HW2  501   2.407   0.847   2.880  1.3264  0.6576  1.3400
  168SOL     OW  502   1.860   0.333   2.968 -0.1346 -0.2458  0.0268
  168SOL    HW1  503   1.856   0.326   3.071  0.3868  0.0879  0.6630
  168SOL    HW2  504   1.801   0.414   2.942  1.4915 -1.0205  3.8824
  169SOL     OW  505   0.325   1.479   0.863  0.8505  0.2666  0.3237
  169SOL    HW1  506   0.346   1.563   0.923  0.6824  2.2952  1.9137
  169SOL    HW2  507   0.231   1.452   0.891 -1.1968 -0.2498  0.9593
  170SOL     OW  508   2.904   1.056   0.885  0.6987 -0.1430 -0.5240
  170SOL    HW1  509   2.827   1.112   0.927 -2.5834  3.0804 -1.0367
  170SOL    HW2  510   2.891   1.045   0.784  0.7765 -1.6995 -1.5147
  171SOL     OW  511   2.350   1.787   1.942 -0.7916 -0.1201 -0.1245
  171SOL    HW1  512   2.368   1.787   1.841  0.3889  0.2195  0.1430
  171SOL    HW2  513   2.384   1.871   1.991  0.5074  2.4448 -0.6347
  172SOL     OW  514   0.594   1.734   1.612  0.3758 -0.2601 -0.6086
  172SOL    HW1  515   0.574   1.820   1.563  0.9518 -0.8263 -0.6948
  172SOL    HW2  516   0.696   1.725   1.628 -0.3097  1.1827  0.4984
  173SOL     OW  517   1.633   1.617   2.890  0.0264 -0.0902 -0.0924
  173SOL    HW1  518   1.558   1.581   2.828 -0.3970  0.2871  0.7209
  173SOL    HW2  519   1.631   1.716   2.906  2.9911 -0.1017  0.6145
  174SOL     OW  520   1.371   0.740   2.895  0.5377  0.2920 -0.0225
  174SOL    HW1  521   1.372   0.638   2.892  1.0079  0.1774 -0.7280
  174SOL    HW2  522   1.403   0.784   2.812  0.1325 -2.3877  0.4626
  175SOL     OW  523   1.191   1.444   1.196 -0.3002 -0.5256  0.5516
  175SOL    HW1  524   1.170   1.463   1.294  1.3301  0.6520 -0.7355
  175SOL    HW2  525   1.131   1.371   1.162 -1.7559  2.3939 -0.1946
  176SOL     OW  526   1.282   0.163   0.425  0.1417  0.2148 -0.6525
  176SOL    HW1  527   1.217   0.181   0.354 -0.6958 -0.2195  0.9722
  176SOL    HW2  528   1.371   0.210   0.401  1.6883  1.7479 -0.2434
  177SOL     OW  529   0.591   1.038   0.204 -0.1157  0.0100  0.5414
  177SOL    HW1  530   0.631   1.006   0.112  1.7925 -1.6767 -2.4134
  177SOL    HW2  531   0.654   1.080   0.274 -0.7482 -1.5720  0.4066
  178SOL     OW  532   2.693   2.029   2.338  0.5268  0.4385 -0.1759
  178SOL    HW1  533   2.721   2.079   2.423  2.2488 -1.7608  1.1313
  178SOL    HW2  534   2.662   1.930   2.365 -0.0300 -1.0831  0.1629
  179SOL     OW  535   2.797   3.013   2.531  0.0115  0.2546  0.6877
  179SOL    HW1  536   2.794   2.981   2.628  0.2949 -1.4209  0.0412
  179SOL    HW2  537   2.865   2.960   2.471 -2.0393 -1.1083 -0.3295
  180SOL     OW  538   2.091   0.576   1.257  0.1284 -0.8253 -0.5610
  180SOL    HW1  539   2.076   0.492   1.204  0.0611 -2.1826  1.2133
  180SOL    HW2  540   2.157   0.635   1.205 -0.5811 -0.2341 -0.3103
  181SOL     OW  541   2.313   0.748   2.489  0.4787  0.1543 -0.2508
  181SOL    HW1  542   2.367   0.688   2.558 -0.0360 -1.8883  2.3516
  181SOL    HW2  543   2.372   0.778   2.415  1.7432  2.6942  1.1018
  182SOL     OW  544   2.895   2.340   2.170  0.2383  0.2343 -0.5031
  182SOL    HW1  545   2.971   2.273   2.181 -1.3085 -2.3807  0.2690
  182SOL    HW2  546   2.915   2.439   2.169  0.2316 -1.5911  1.6515
  183SOL     OW  547   1.855   0.786   1.801 -0.4519  0.1393 -0.2096
  183SOL    HW1  548   1.951   0.801   1.772  3.2400 -0.1916  0.8204
  183SOL    HW2  549   1.788   0.800   1.729  0.8778  1.5523  2.8697
  184SOL     OW  550   0.196   1.657   1.137  0.1380  0.0880 -0.6504
  184SOL    HW1  551   0.176   1.564   1.170  3.5333 -0.1086  1.6270
  184SOL    HW2  552   0.112   1.708   1.109 -3.8247  0.4959  0.1421
  185SOL     OW  553   2.884   0.138   1.044  0.1829  0.4905  0.0385
  185SOL    HW1  554   2.927   0.050   1.020  2.1337  0.1904 -1.1608
  185SOL    HW2  555   2.938   0.171   1.121  1.6518 -0.5624  1.2996
  186SOL     OW  556   2.205   2.615   2.634  0.5881  0.1667  0.3116
  186SOL    HW1  557   2.240   2.584   2.730 -2.4568 -0.3063  1.3831
  186SOL    HW2  558   2.129   2.554   2.609 -1.9320 -0.3194 -0.0788
  187SOL     OW  559   0.439   1.415   0.450 -0.0844 -0.5940  0.3320
  187SOL    HW1  560   0.379   1.339   0.473  1.8481 -0.1446 -2.2703
  187SOL    HW2  561   0.428   1.480   0.528 -1.9882  1.3191  0.6731
  188SOL     OW  562   1.831   1.202   1.137 -0.0496  0.0674  0.4786
  188SOL    HW1  563   1.928   1.238   1.160  0.6909 -0.0777 -0.7278
  188SOL    HW2  564   1.775   1.232   1.219 -2.4408 -0.1686 -1.1901
  189SOL     OW  565   0.095   0.918   2.482 -0.7097 -0.7351 -0.2699
  189SOL    HW1  566   0.182   0.948   2.532 -0.8200  0.9954  0.4812
  189SOL    HW2  567   0.020   0.918   2.546  0.3581  0.5226 -2.1015
  190SOL     OW  568   2.157   0.566   2.141 -0.0344  0.3835  0.2999
  190SOL    HW1  569   2.190   0.497   2.209 -1.7996 -0.4012 -0.3240
  190SOL    HW2  570   2.074   0.528   2.088  1.4660 -1.1355  2.0601
  191SOL     OW  571   0.966   0.201   2.232 -0.0844  0.5851  0.7264
  191SOL    HW1  572   0.946   0.230   2.327  0.2099  0.0893 -2.2758
  191SOL    HW2  573   0.993   0.105   2.234 -1.4470  0.6928 -1.9003
  192SOL     OW  574   1.182   1.993   1.599  0.1164  0.6176 -0.7292
  192SOL    HW1  575   1.204   1.998   1.504  0.6116  0.3672  3.9720
  192SOL    HW2  576   1.088   2.022   1.615  0.5148  0.3048  1.3233
  193SOL     OW  577   1.238   0.092   0.877  0.2336 -0.4989  0.1544
  193SOL    HW1  578   1.201   0.004   0.906  1.2367  0.5227  2.0399
  193SOL    HW2  579   1.218   0.096   0.774 -0.6861  2.2496 -1.7490
  194SOL     OW  580   0.905   2.082   1.614 -0.1704  0.1528 -0.2564
  194SOL    HW1  581   0.884   2.072   1.514 -0.1272 -1.0167 -1.6371
  194SOL    HW2  582   0.895   2.179   1.643  1.7395  0.0478  0.1240
  195SOL     OW  583   1.375   0.461   0.734  0.0323 -0.0100 -0.4787
  195SOL    HW1  584   1.434   0.439   0.813 -0.6977  2.9828  0.7293
  195SOL    HW2  585   1.366   0.561   0.727  0.3110  0.8053  1.6717
  196SOL     OW  586   0.933   1.546   2.189  0.3954 -0.1156  1.0879
  196SOL    HW1  587   1.014   1.567   2.245 -1.5269  1.2449 -0.7015
  196SOL    HW2  588   0.942   1.446   2.162 -0.6221 -0.7161  0.6387
  197SOL     OW  589   0.507   0.666   1.857 -0.3552  0.0343  0.4857
  197SOL    HW1  590   0.601   0.686   1.826 -1.6791 -1.9141  2.7224
  197SOL    HW2  591   0.445   0.639   1.779 -2.4965  1.9109 -0.5429
  198SOL     OW  592   0.736   0.585   0.750 -0.0978  0.3545 -0.1863
  198SOL    HW1  593   0.747   0.659   0.680 -1.1359  2.3786 -1.4243
  198SOL    HW2  594   0.671   0.516   0.714 -0.8317 -2.0825 -1.3829
  199SOL     OW  595   0.240   2.369   1.843 -0.0442  0.1146  0.1458
  199SOL    HW1  596   0.250   2.271   1.806 -0.7912 -2.8319 -0.0203
  199SOL    HW2  597   0.149   2.403   1.807  1.9525  3.0026  0.6050
  200SOL     OW  598   1.589   1.463   2.336 -0.0305  0.4408  0.3252
  200SOL    HW1  599   1.670   1.481   2.394  1.4929  2.7590  1.8685
  200SOL    HW2  600   1.551   1.373   2.364 -0.3056  4.1282  0.6366
  201SOL     OW  601   0.682   2.304   1.866 -0.2207  0.0603 -0.1239
  201SOL    HW1  602   0.764   2.307   1.807 -2.0681 -0.5136 -1.0298
  201SOL    HW2  603   0.639   2.212   1.865  0.5154  1.6247  0.0674
  202SOL     OW  604   1.214   2.871   2.927  0.3437  0.0561  0.6810
  202SOL    HW1  605   1.235   2.811   2.850 -2.8099  2.6892 -0.1248
  202SOL    HW2  606   1.113   2.891   2.934 -2.8433 -0.8577 -0.4965
  203SOL     OW  607   1.570   0.262   2.248 -0.0859 -0.0949 -0.3723
  203SOL    HW1  608   1.624   0.225   2.170  0.7569  2.2311 -0.1064
  203SOL    HW2  609   1.492   0.205   2.273 -2.1455  3.2945  2.0465
  204SOL     OW  610   0.616   1.564   2.005  0.4162  0.1516  0.1613
  204SOL    HW1  611   0.629   1.559   2.106  0.6603  3.7467 -0.3710
  204SOL    HW2  612   0.647   1.473   1.979 -1.5194  1.5443 -0.4217
  205SOL     OW  613   2.065   1.073   2.604  0.4568 -0.3434 -0.2476
  205SOL    HW1  614   2.070   1.000   2.537  0.3250  0.8785  0.6982
  205SOL    HW2  615   2.152   1.124   2.619  0.7131 -0.3187 -0.9844
  206SOL     OW  616   0.191   1.824   2.803  0.1047  0.8229  0.0852
  206SOL    HW1  617   0.150   1.918   2.811  1.6938  2.4587  1.8012
  206SOL    HW2  618   0.229   1.799   2.894 -0.8203  0.2981 -1.5259
  207SOL     OW  619   1.099   2.955   1.678  0.6152  0.1447  0.0349
  207SOL    HW1  620   1.004   2.947   1.715  0.4505 -0.0068  0.1447
  207SOL    HW2  621   1.109   3.019   1.598  1.7442  0.9602 -0.9225
  208SOL     OW  622   0.861   2.463   1.383 -0.6978 -0.0643  0.0252
  208SOL    HW1  623   0.772   2.501   1.417  0.2360  0.5342  1.0004
  208SOL    HW2  624   0.849   2.422   1.292 -1.8749 -0.6156  1.5598
  209SOL     OW  625   1.297   2.906   0.414 -0.1083  0.3653 -0.8654
  209SOL    HW1  626   1.197   2.920   0.441  0.9003  0.0561  1.0840
  209SOL    HW2  627   1.317   2.925   0.315  1.3585  1.6442  0.6797
  210SOL     OW  628   3.040   1.547   1.254  0.1348 -0.0913 -0.3309
  210SOL    HW1  629   3.062   1.634   1.211  0.6785 -1.7759 -0.1293
  210SOL    HW2  630   3.035   1.465   1.192  0.0538 -1.8316  1.4301
  211SOL     OW  631   0.844   0.755   2.065 -0.4938 -0.0988 -0.1419
  211SOL    HW1  632   0.811   0.730   1.971 -2.6598  2.1622  1.3286
  211SOL    HW2  633   0.934   0.721   2.077 -2.4055  0.2572  0.0751
  212SOL     OW  634   1.488   2.266   1.506  0.3382 -0.0831  0.4783
  212SOL    HW1  635   1.476   2.357   1.456 -0.5106  0.7573 -0.3802
  212SOL    HW2  636   1.516   2.190   1.449 -0.5857  0.4930  0.2338
  213SOL     OW  637   2.604   0.385   1.592  0.2702  0.3309  0.0760
  213SOL    HW1  638   2.594   0.474   1.538 -0.7078  1.6223 -0.7640
  213SOL    HW2  639   2.518   0.347   1.632  0.8371 -3.4066  2.8333
  214SOL     OW  640   1.111   2.325   2.007 -0.0545 -0.3297 -0.5106
  214SOL    HW1  641   1.132   2.233   1.970 -0.5090  0.3732  3.7543
  214SOL    HW2  642   1.165   2.331   2.094  1.3936 -0.7520 -0.4301
  215SOL     OW  643   2.884   1.947   1.411 -0.3028 -0.3405  0.6943
  215SOL    HW1  644   2.787   1.962   1.391  1.4098 -2.7802 -2.0180
  215SOL    HW2  645   2.920   2.002   1.495 -1.0869 -0.1206  0.9943
  216SOL     OW  646   0.001   0.699   1.706 -0.5967  0.1040 -0.1420
  216SOL    HW1  647   3.005   0.701   1.697  0.2539  1.2517  0.3050
  216SOL    HW2  648   0.040   0.615   1.755  1.1354  1.2183  1.8858
  217SOL     OW  649   2.724   0.309   1.282 -0.2133  0.3034  0.0797
  217SOL    HW1  650   2.772   0.292   1.372  1.1889 -0.5650 -1.0325
  217SOL    HW2  651   2.755   0.395   1.233 -0.0596  0.4352  1.5305
  218SOL     OW  652   1.395   2.194   1.091  0.0103 -0.3036  0.6020
  218SOL    HW1  653   1.353   2.242   1.007 -1.6972  3.2705 -4.6618
  218SOL    HW2  654   1.360   2.216   1.181  0.5377  0.9828 -0.7511
  219SOL     OW  655   1.439   2.476   0.258  0.0752  0.0564 -0.5460
  219SOL    HW1  656   1.431   2.554   0.327 -1.3793  0.8189 -0.7227
  219SOL    HW2  657   1.457   2.384   0.301 -1.0654  0.1139  2.7008
  220SOL     OW  658   1.781   2.409   0.367  0.0459 -0.5130  0.2314
  220SOL    HW1  659   1.811   2.314   0.393 -0.0682  0.1458 -0.0956
  220SOL    HW2  660   1.800   2.430   0.269 -0.9303 -1.4924 -0.9393
  221SOL     OW  661   2.978   1.911   0.895  0.3812  0.2664 -0.4977
  221SOL    HW1  662   2.874   1.928   0.882 -2.8452  1.2172 -0.7846
  221SOL    HW2  663   3.008   1.840   0.828  0.3747 -1.0940 -1.8606
  222SOL     OW  664   0.998   2.076   0.733 -0.1536  0.1726 -0.0052
  222SOL    HW1  665   1.025   2.089   0.831 -0.7213 -2.0464 -2.8976
  222SOL    HW2  666   1.022   1.977   0.712  0.2998  1.6181  1.3352
  223SOL     OW  667   1.232   2.688   2.349  0.1511  0.1551 -0.2515
  223SOL    HW1  668   1.325   2.662   2.307 -1.5130 -2.0741 -1.5421
  223SOL    HW2  669   1.172   2.740   2.280 -0.2715  2.3553 -1.6462
  224SOL     OW  670   2.593   1.066   1.061 -0.1039  0.0684  0.1190
  224SOL    HW1  671   2.569   1.107   0.971 -1.9287  2.5324  0.9140
  224SOL    HW2  672   2.589   0.965   1.052  2.4614  1.5019  1.4226
  225SOL     OW  673   2.550   1.429   1.071 -0.1562 -0.5226 -0.4386
  225SOL    HW1  674   2.616   1.466   1.002  2.8425  0.9151  2.0269
  225SOL    HW2  675   2.590   1.343   1.105 -2.2157  2.7967 -2.0877
  226SOL     OW  676   1.155   2.743   0.766 -0.5317  0.6949  0.3001
  226SOL    HW1  677   1.079   2.684   0.749  1.3426  2.4107  0.3991
  226SOL    HW2  678   1.244   2.704   0.725  0.8338 -2.7856 -0.6599
  227SOL     OW  679   1.004   1.250   1.168 -0.1388 -0.4119 -0.6773
  227SOL    HW1  680   1.001   1.192   1.255 -2.0458  1.1907  0.9472
  227SOL    HW2  681   0.978   1.196   1.084 -0.6410 -4.9663 -0.9988
  228SOL     OW  682   1.346   0.493   2.221 -0.1224  0.4958  0.7809
  228SOL    HW1  683   1.404   0.544   2.149  3.2176  1.5996  0.0099
  228SOL    HW2  684   1.274   0.431   2.176 -1.7468 -2.0672 -2.9641
  229SOL     OW  685   2.614   0.900   2.698 -0.5347 -0.6832  0.4654
  229SOL    HW1  686   2.692   0.923   2.763  1.5177 -2.3402  2.3969
  229SOL    HW2  687   2.524   0.909   2.742  1.3866 -0.8414 -0.5731
  230SOL     OW  688   0.570   1.388   0.730 -0.2212  0.0824  0.0477
  230SOL    HW1  689   0.626   1.354   0.809 -0.4461 -3.3101  0.9994
  230SOL    HW2  690   0.484   1.418   0.770  3.9333 -1.4929 -1.9617
  231SOL     OW  691   2.553   2.865   2.358 -0.4784  0.2101 -0.3673
  231SOL    HW1  692   2.568   2.782   2.302  0.4457 -0.0893  2.2741
  231SOL    HW2  693   2.633   2.873   2.418 -1.7011  1.0753  0.4609
  232SOL     OW  694   0.247   2.072   0.193 -0.6352 -0.7370 -0.2983
  232SOL    HW1  695   0.256   2.015   0.110  0.7349 -0.9178 -1.9592
  232SOL    HW2  696   0.300   2.037   0.268 -2.6310 -0.4175  1.5531
  233SOL     OW  697   1.584   2.601   2.540 -0.2619  0.3086 -0.2418
  233SOL    HW1  698   1.648   2.551   2.599 -0.3892  0.5142 -2.9617
  233SOL    HW2  699   1.550   2.689   2.581  0.7562 -2.3213 -1.6831
  234SOL     OW  700   1.113   1.398   1.943  0.0502  0.0826  0.1297
  234SOL    HW1  701   1.193   1.439   1.997 -0.3316 -1.0578  0.9232
  234SOL    HW2  702   1.057   1.339   2.005  2.6342  0.0325  1.0578
  235SOL     OW  703   0.524   2.069   1.837 -0.3245  0.0047  0.0432
  235SOL    HW1  704   0.528   2.009   1.922 -0.2815  0.9855  3.2788
  235SOL    HW2  705   0.431   2.102   1.815  0.1068  1.6024 -0.8520
  236SOL     OW  706   1.993   2.481   2.820 -0.4113 -0.2902  0.2383
  236SOL    HW1  707   1.917   2.427   2.776 -0.0909 -0.5712  0.2313
  236SOL    HW2  708   2.077   2.426   2.835  0.7865 -1.1612  0.3700
  237SOL     OW  709   1.565   0.230   1.059 -0.3897 -0.4697  0.4180
  237SOL    HW1  710   1.472   0.231   1.107 -1.6717 -0.3445  0.6462
  237SOL    HW2  711   1.570   0.172   0.975 -1.9570  1.8526 -0.1139
  238SOL     OW  712   1.186   0.549   2.595  0.6070  0.2345  0.4209
  238SOL    HW1  713   1.110   0.591   2.541 -1.0133 -3.8179 -1.0850
  238SOL    HW2  714   1.246   0.497   2.533 -1.3785  1.4154  0.5806
  239SOL     OW  715   0.882   3.005   1.874  0.1453 -0.4978 -0.3359
  239SOL    HW1  716   0.856   3.028   1.780  1.0196 -1.3209  1.4827
  239SOL    HW2  717   0.850   3.075   1.942 -2.1282  3.4562 -0.0630
  240SOL     OW  718   2.407   2.535   0.604 -0.0895 -0.3537 -0.0680
  240SOL    HW1  719   2.316   2.547   0.644  0.5351  0.5756 -0.2751
  240SOL    HW2  720   2.415   2.579   0.515 -0.6980 -2.6111  2.8795
  241SOL     OW  721   1.047   1.508   1.702  0.0945  0.1572  0.6339
  241SOL    HW1  722   0.947   1.483   1.686 -2.5296 -0.1360  0.0670
  241SOL    HW2  723   1.072   1.476   1.795 -0.4640  0.5584 -0.7995
  242SOL     OW  724   0.070   0.477   0.861 -0.2284  0.2538  0.3924
  242SOL    HW1  725   0.054   0.579   0.842  0.9000 -0.2157 -0.3752
  242SOL    HW2  726   0.002   0.421   0.807  0.2450 -0.1266 -1.3960
  243SOL     OW  727   0.632   0.732   1.406  0.0954  0.1494  0.3958
  243SOL    HW1  728   0.639   0.828   1.375 -0.4056  0.9301  0.9145
  243SOL    HW2  729   0.538   0.701   1.438 -2.5909 -0.1151  0.5179
  244SOL     OW  730   1.408   0.523   0.115  0.2835 -0.0355 -0.1430
  244SOL    HW1  731   1.314   0.496   0.081 -0.5075 -3.1609 -0.6523
  244SOL    HW2  732   1.469   0.557   0.039 -2.1078  0.0058  0.9586
  245SOL     OW  733   2.138   0.406   0.249  0.2796 -0.2023 -0.3468
  245SOL    HW1  734   2.125   0.306   0.238  0.6932  0.6316 -0.4437
  245SOL    HW2  735   2.203   0.448   0.183 -1.0579  0.7491  1.4759
  246SOL     OW  736   0.766   0.713   1.809  0.4108  0.0677 -0.3565
  246SOL    HW1  737   0.775   0.810   1.799  2.3621 -2.3672 -1.0397
  246SOL    HW2  738   0.810   0.662   1.729  0.8771 -2.3682  0.6771
  247SOL     OW  739   0.544   0.045   2.155  0.1701 -0.2005  0.1187
  247SOL    HW1  740   0.508   0.139   2.176  1.8501 -1.0004 -0.9759
  247SOL    HW2  741   0.614   0.049   2.079 -1.8817  0.8469  0.0132
  248SOL     OW  742   0.046   1.587   1.957 -0.1162  0.6512 -0.4509
  248SOL    HW1  743   3.090   1.630   1.881 -1.2119  0.4023  0.0586
  248SOL    HW2  744   0.139   1.628   1.945 -0.3235 -0.1452 -0.6177
  249SOL     OW  745   0.050   3.070   2.805  0.4523 -0.2416  0.1498
  249SOL    HW1  746   0.126   0.027   2.828 -0.9613 -0.7379  1.3219
  249SOL    HW2  747   0.087   2.989   2.755  0.4428  3.5880  0.0797
  250SOL     OW  748   3.034   0.169   0.020 -0.1300 -0.6679  0.5305
  250SOL    HW1  749   3.030   0.149   0.120 -0.4086 -1.3834 -0.4439
  250SOL    HW2  750   3.008   0.086   3.072 -0.9280  2.1184 -1.4467
  251SOL     OW  751   0.424   1.319   1.191  0.0589 -0.0529 -0.1052
  251SOL    HW1  752   0.329   1.316   1.160  3.8775 -0.0556 -0.2887
  251SOL    HW2  753   0.446   1.412   1.233  0.9409  1.7533  0.4877
  252SOL     OW  754   1.668   2.927   1.770 -0.8684 -0.4197 -0.3444
  252SOL    HW1  755   1.692   2.997   1.701  0.8031 -0.3395 -1.0134
  252SOL    HW2  756   1.750   2.901   1.825 -2.5375  0.7577  0.2435
  253SOL     OW  757   2.097   1.994   2.689 -0.3829 -0.0640  0.0992
  253SOL    HW1  758   2.169   2.051   2.645 -2.0059 -0.2551 -2.5211
  253SOL    HW2  759   2.031   1.958   2.616 -1.5706  0.8521 -1.7232
  254SOL     OW  760   0.536   1.809   1.926 -0.0846 -0.0949 -0.0586
  254SOL    HW1  761   0.584   1.850   1.844 -1.2196  0.6661  1.7916
  254SOL    HW2  762   0.566   1.712   1.942 -0.8077 -0.7439  0.9148
  255SOL     OW  763   1.071   0.130   1.667 -0.3326 -0.0699 -0.4434
  255SOL    HW1  764   1.162   0.149   1.710 -3.0259 -3.5315 -0.0397
  255SOL    HW2  765   1.002   0.159   1.731  2.1975  3.1061 -0.5122
  256SOL     OW  766   2.525   2.203   1.036  0.0229 -0.4359 -0.1766
  256SOL    HW1  767   2.508   2.143   1.116  1.2782 -2.3818  1.3722
  256SOL    HW2  768   2.440   2.253   1.016  2.6559 -1.6761  1.6673
  257SOL     OW  769   0.398   2.317   0.028 -0.6850  0.3577  0.2446
  257SOL    HW1  770   0.410   2.397   3.071 -1.6328  1.3949  1.0713
  257SOL    HW2  771   0.427   2.340   0.127  0.8623  1.2243  5.3606
  258SOL     OW  772   1.163   2.463   2.480 -0.1443 -0.0742 -0.3551
  258SOL    HW1  773   1.069   2.465   2.519  2.8920 -2.7742  2.9502
  258SOL    HW2  774   1.199   2.550   2.449 -2.6852 -1.6636 -1.8071
  259SOL     OW  775   1.101   1.744   2.883  0.2951  0.4038 -0.3213
  259SOL    HW1  776   1.137   1.812   2.821 -0.4594 -3.4706  1.1685
  259SOL    HW2  777   1.000   1.754   2.898 -0.1578 -3.3569  1.6341
  260SOL     OW  778   2.435   1.179   2.204 -0.3465 -0.0411  0.1110
  260SOL    HW1  779   2.345   1.210   2.250 -1.4950  1.6862  2.4315
  260SOL    HW2  780   2.517   1.229   2.233  2.1856 -1.8761 -0.8301
  261SOL     OW  781   1.365   0.764   0.704 -0.4668  0.0922  0.3121
  261SOL    HW1  782   1.286   0.762   0.761  3.5014 -0.3204 -1.9973
  261SOL    HW2  783   1.344   0.812   0.617 -0.0902 -0.3479 -1.9114
  262SOL     OW  784   1.878   2.215   2.533 -0.0900  0.8334 -0.0680
  262SOL    HW1  785   1.897   2.117   2.566 -0.0137 -0.6511  0.9952
  262SOL    HW2  786   1.832   2.216   2.445  0.7958  1.5694 -1.6071
  263SOL     OW  787   0.114   1.687   0.189  0.0936 -0.1781 -0.3507
  263SOL    HW1  788   0.042   1.626   0.228 -1.4008  0.9523  1.2928
  263SOL    HW2  789   0.208   1.662   0.213  1.4978 -0.6844 -0.9393
  264SOL     OW  790   0.313   2.044   0.871 -0.1990  0.1312  0.2794
  264SOL    HW1  791   0.248   1.979   0.827 -1.3743  1.9239 -1.4613
  264SOL    HW2  792   0.327   2.012   0.966  1.0523  0.7153 -1.9022
  265SOL     OW  793   0.691   1.425   0.351 -0.3663  0.1842  0.4666
  265SOL    HW1  794   0.594   1.400   0.366 -0.2950 -0.7691  0.0393
  265SOL    HW2  795   0.727   1.484   0.425 -3.1983  0.5157  1.7684
  266SOL     OW  796   0.914   2.022   2.431 -0.3437 -0.3444  0.3895
  266SOL    HW1  797   0.878   2.097   2.494 -1.7694  0.4304 -1.8851
  266SOL    HW2  798   0.930   2.054   2.332 -0.3701 -0.3235 -1.1236
  267SOL     OW  799   0.998   0.701   2.466 -0.0859  0.1807 -0.1271
  267SOL    HW1  800   0.899   0.671   2.456  0.3773  0.1945 -1.5917
  267SOL    HW2  801   1.038   0.738   2.383 -0.3444  0.3759  1.3262
  268SOL     OW  802   0.463   0.740   2.699 -0.0910 -0.4180 -0.3300
  268SOL    HW1  803   0.536   0.777   2.632  1.6078  2.0087 -0.1508
  268SOL    HW2  804   0.452   0.802   2.777 -1.5392  0.3223  1.5720
  269SOL     OW  805   2.366   3.025   2.504  0.1254  0.2617 -0.3411
  269SOL    HW1  806   2.430   2.975   2.446 -1.5884 -1.4427 -0.2864
  269SOL    HW2  807   2.396   3.019   2.602 -0.6608  0.7577 -0.1839
  270SOL     OW  808   1.145   1.648   2.327 -0.2160  0.5000  0.2927
  270SOL    HW1  809   1.246   1.663   2.324  0.3649  0.4554 -0.7612
  270SOL    HW2  810   1.118   1.571   2.390 -1.3119 -2.9218  0.2955
  271SOL     OW  811   0.308   0.084   2.848  0.0891  0.6805 -0.3006
  271SOL    HW1  812   0.361   3.104   2.823 -1.0023 -2.8615 -3.1204
  271SOL    HW2  813   0.328   0.123   2.937 -1.3184 -1.8169  0.9406
  272SOL     OW  814   2.534   0.564   0.437 -0.1659  0.5508  0.6117
  272SOL    HW1  815   2.556   0.544   0.541  1.3501  2.3149  2.0997
  272SOL    HW2  816   2.451   0.627   0.435 -2.3928  0.7229 -0.7713
  273SOL     OW  817   0.220   0.033   1.979 -0.1884  0.2165 -0.7272
  273SOL    HW1  818   0.259   0.024   2.073 -0.5728 -2.5119 -2.2144
  273SOL    HW2  819   0.174   3.053   1.952 -1.7291 -1.0782  0.4300
  274SOL     OW  820   3.007   0.799   2.001  0.6756 -0.1357  0.5000
  274SOL    HW1  821   3.034   0.842   2.087  0.1812  0.7645  1.3050
  274SOL    HW2  822   2.938   0.856   1.953 -2.2706 -0.1722 -2.8094
  275SOL     OW  823   1.350   1.869   0.552 -0.3307  0.0197  0.7407
  275SOL    HW1  824   1.349   1.858   0.652 -1.0653 -2.1512  1.2470
  275SOL    HW2  825   1.294   1.794   0.512 -3.5221  2.5677 -1.1703
  276SOL     OW  826   0.922   1.018   2.197 -0.1522  0.5214 -0.4265
  276SOL    HW1  827   0.876   0.932   2.169 -3.1064  1.4916  1.5249
  276SOL    HW2  828   0.867   1.053   2.273  2.9639  1.5999 -2.7312
  277SOL     OW  829   1.487   2.497   1.823  1.0642 -0.1606  0.0127
  277SOL    HW1  830   1.391   2.529   1.806  0.7562  0.2627 -2.6252
  277SOL    HW2  831   1.490   2.456   1.913 -2.3764  3.3410 -2.6186
  278SOL     OW  832   1.880   2.860   1.969 -0.1786 -0.1142  0.7157
  278SOL    HW1  833   1.819   2.865   2.052  0.5743 -1.2775 -0.6691
  278SOL    HW2  834   1.974   2.901   1.981 -0.0841  0.7379 -0.7103
  279SOL     OW  835   1.582   1.384   0.196 -0.5490  0.7397 -0.0151
  279SOL    HW1  836   1.638   1.392   0.111 -0.0356 -1.8899 -0.8529
  279SOL    HW2  837   1.568   1.282   0.217 -1.2529  1.3640 -0.2194
  280SOL     OW  838   0.609   1.358   0.096  0.0405  0.1398 -0.2566
  280SOL    HW1  839   0.574   1.262   0.101  0.8469 -0.3632  0.3079
  280SOL    HW2  840   0.651   1.381   0.186 -0.8109 -1.3438  0.6785
  281SOL     OW  841   0.518   3.020   1.641  0.0064  0.1097  0.1640
  281SOL    HW1  842   0.481   2.926   1.666 -1.6043 -0.8556  1.1347
  281SOL    HW2  843   0.467   3.097   1.681  0.3077 -0.0764 -1.7545
  282SOL     OW  844   0.274   2.482   0.725 -0.5790 -0.0196 -0.0478
  282SOL    HW1  845   0.307   2.577   0.741  2.3286 -1.6001  1.1818
  282SOL    HW2  846   0.285   2.462   0.627  0.1263  0.8426  1.3669
  283SOL     OW  847   1.604   2.064   2.415 -0.1123 -0.1399  1.2709
  283SOL    HW1  848   1.635   1.991   2.350  0.3616  0.0461  2.6772
  283SOL    HW2  849   1.620   2.041   2.514  2.8583 -0.9658  2.4608
  284SOL     OW  850   1.990   2.970   0.791  0.4339 -0.0119 -0.0293
  284SOL    HW1  851   1.938   3.055   0.799  0.5810 -1.2766  0.5616
  284SOL    HW2  852   1.935   2.885   0.788  1.5235 -0.0061  0.7996
  285SOL     OW  853   0.342   2.463   2.305 -0.3319  0.4801  0.4555
  285SOL    HW1  854   0.427   2.416   2.333 -0.9889 -0.8211 -0.1456
  285SOL    HW2  855   0.355   2.563   2.321  0.9407 -1.9313  0.6224
  286SOL     OW  856   3.080   2.525   1.119 -0.7111  0.0371  0.0788
  286SOL    HW1  857   0.077   2.528   1.143  0.2230 -0.4228 -3.2426
  286SOL    HW2  858   3.039   2.613   1.091 -0.3928 -1.9533 -0.6243
  287SOL     OW  859   0.409   1.624   0.618  0.2489 -0.2882  0.2244
  287SOL    HW1  860   0.398   1.623   0.721 -1.0709 -0.0992  1.3349
  287SOL    HW2  861   0.492   1.679   0.587  3.7000 -0.2769 -0.5935
  288SOL     OW  862   2.284   2.101   2.526 -0.2137  0.5037 -0.2782
  288SOL    HW1  863   2.383   2.105   2.556  0.1604  0.0840  1.4980
  288SOL    HW2  864   2.254   2.194   2.493  0.9661 -1.9737  0.5247
  289SOL     OW  865   2.961   2.113   2.910 -0.2688  0.3974 -0.0843
  289SOL    HW1  866   2.914   2.020   2.911 -2.3418 -0.0180  0.2917
  289SOL    HW2  867   2.918   2.167   2.986  1.7504  0.6964  0.8035
  290SOL     OW  868   1.372   1.900   1.064  0.0977 -0.0907 -0.2390
  290SOL    HW1  869   1.362   1.867   0.969  1.2159 -0.3894  0.6522
  290SOL    HW2  870   1.351   1.996   1.071  2.1294 -1.3889  0.5742
  291SOL     OW  871   1.487   1.169   2.961 -0.1229  0.4026 -0.3379
  291SOL    HW1  872   1.479   1.122   2.871  1.3579  1.9510 -0.3388
  291SOL    HW2  873   1.420   1.124   3.027 -4.1411 -2.3820  2.8561
  292SOL     OW  874   1.170   1.678   0.448  0.5470  0.1069 -0.3349
  292SOL    HW1  875   1.223   1.625   0.516  0.3959  2.7008  1.3226
  292SOL    HW2  876   1.219   1.654   0.361  3.7153 -0.1613 -0.6661
  293SOL     OW  877   1.226   2.593   1.001  0.3076 -0.0330  0.3873
  293SOL    HW1  878   1.289   2.664   1.038  2.8992  3.7899  0.6985
  293SOL    HW2  879   1.171   2.637   0.928  0.4277  1.7167  0.1043
  294SOL     OW  880   2.019   1.374   2.911 -0.3589  0.4199 -0.5375
  294SOL    HW1  881   1.994   1.366   3.005 -0.6886 -0.0403 -1.0273
  294SOL    HW2  882   2.119   1.404   2.900  3.4758  0.4677  2.0862
  295SOL     OW  883   1.714   1.902   2.861 -0.1800  0.4702 -0.3076
  295SOL    HW1  884   1.778   1.943   2.930  0.4499 -1.0358  0.4253
  295SOL    HW2  885   1.676   1.981   2.802 -0.8437  0.0956 -1.5991
  296SOL     OW  886   1.688   0.542   1.902 -0.1331 -0.4363  0.6990
  296SOL    HW1  887   1.734   0.625   1.867 -1.2671  1.0759 -0.5888
  296SOL    HW2  888   1.716   0.460   1.860 -0.0663  4.2123 -0.1193
  297SOL     OW  889   0.032   0.911   2.228 -0.0884 -0.1220 -0.3227
  297SOL    HW1  890   0.036   0.900   2.325 -1.8925  0.3482 -2.9015
  297SOL    HW2  891   0.040   1.005   2.184 -0.0510 -0.7112  1.5113
  298SOL     OW  892   1.163   2.030   2.036  0.0890 -0.4522  0.1385
  298SOL    HW1  893   1.145   1.934   2.009 -0.2380  2.5164 -0.4601
  298SOL    HW2  894   1.238   2.035   2.105  1.1701  0.2517 -1.0864
  299SOL     OW  895   1.358   0.090   2.757 -0.4997 -0.9276  0.1947
  299SOL    HW1  896   1.446   0.087   2.704 -0.9105 -0.6498 -0.3544
  299SOL    HW2  897   1.281   0.045   2.712 -1.6188 -1.0381  1.5548
  300SOL     OW  898   0.099   1.039   2.861  0.3340  0.0538 -0.3742
  300SOL    HW1  899   0.162   1.012   2.937 -1.0543 -0.2301  0.1763
  300SOL    HW2  900   0.133   1.127   2.825 -3.0162 -0.9591  2.3193
  301SOL     OW  901   1.809   0.768   2.071  0.2952  0.3871 -0.5560
  301SOL    HW1  902   1.826   0.759   1.968  2.1758 -0.5876 -1.1557
  301SOL    HW2  903   1.713   0.748   2.095 -0.2794  0.8287  1.3314
  302SOL     OW  904   2.422   1.614   2.754  0.1402  0.7034  0.4613
  302SOL    HW1  905   2.456   1.574   2.664 -0.8974  0.2462 -1.0309
  302SOL    HW2  906   2.344   1.672   2.737 -0.2933 -2.1251  3.5923
  303SOL     OW  907   0.172   2.259   2.621  0.2014 -0.3702 -0.2264
  303SOL    HW1  908   0.194   2.354   2.648  2.3789 -2.0277  0.0140
  303SOL    HW2  909   0.250   2.213   2.572 -1.0201 -1.9306 -1.6965
  304SOL     OW  910   2.985   0.889   1.259 -0.6418 -0.5798  0.1791
  304SOL    HW1  911   3.038   0.921   1.176 -2.4520 -0.0592 -0.9424
  304SOL    HW2  912   3.049   0.841   1.322  1.1821 -1.9196  0.9290
  305SOL     OW  913   2.534   1.004   1.781  0.1695 -0.2746  0.2054
  305SOL    HW1  914   2.616   0.972   1.734  0.1698  0.5186  0.6175
  305SOL    HW2  915   2.538   1.109   1.785 -2.2001  3.2629 -0.8396
  306SOL     OW  916   2.399   1.237   1.628 -0.1507  0.2034  0.1734
  306SOL    HW1  917   2.350   1.211   1.716 -0.9866  3.3803  0.1438
  306SOL    HW2  918   2.470   1.303   1.649 -1.7939 -0.6150 -1.3126
  307SOL     OW  919   2.816   2.969   0.799 -0.2207 -0.1573 -0.1998
  307SOL    HW1  920   2.721   2.941   0.812  1.7563  0.8419  1.5774
  307SOL    HW2  921   2.864   2.975   0.891  0.0185  0.9874  0.7330
  308SOL     OW  922   0.142   1.882   1.843  0.2003 -0.1564  0.7072
  308SOL    HW1  923   0.214   1.815   1.869 -1.0195 -0.1090 -1.1029
  308SOL    HW2  924   0.078   1.837   1.776  0.0398  2.8270 -0.4940
  309SOL     OW  925   2.548   2.227   1.522  0.0379  0.6637  0.1243
  309SOL    HW1  926   2.581   2.222   1.620  0.6027 -1.0517  3.3522
  309SOL    HW2  927   2.448   2.253   1.508  0.5006 -1.1473  1.6149
  310SOL     OW  928   1.906   1.629   2.843  0.0549 -0.2571 -0.0733
  310SOL    HW1  929   1.803   1.617   2.868 -3.3581  1.1140  0.0904
  310SOL    HW2  930   1.958   1.543   2.858  1.7097 -1.4527 -0.7000
  311SOL     OW  931   1.780   1.166   2.983 -0.1649  0.5221  0.6316
  311SOL    HW1  932   1.676   1.165   2.989  2.9221 -2.2892  1.2055
  311SOL    HW2  933   1.811   1.115   2.904 -0.8207  0.3439  1.8394
  312SOL     OW  934   1.262   2.309   2.243  0.4949  0.6126 -0.1960
  312SOL    HW1  935   1.268   2.215   2.278 -2.0209  0.4703 -1.5386
  312SOL    HW2  936   1.220   2.368   2.316 -0.5960  0.9433  1.6559
  313SOL     OW  937   0.098   0.383   1.142  0.2280 -0.3510 -0.1639
  313SOL    HW1  938   0.086   0.410   1.045  0.5195 -0.1916  2.1689
  313SOL    HW2  939   0.115   0.283   1.152 -0.5793 -0.5732 -1.8081
  314SOL     OW  940   0.320   1.909   1.105 -0.2050 -0.4102 -0.0172
  314SOL    HW1  941   0.278   2.001   1.136  0.1478  0.9184  0.9757
  314SOL    HW2  942   0.262   1.826   1.112 -0.5478 -0.4439  2.8797
  315SOL     OW  943   0.460   2.098   2.160 -0.4992 -0.3592  0.4370
  315SOL    HW1  944   0.401   2.175   2.126 -2.9937 -0.0634  1.6439
  315SOL    HW2  945   0.410   2.019   2.191  0.0969  3.4807  0.0968
  316SOL     OW  946   0.351   2.318   0.917  0.0821  0.2375 -0.1228
  316SOL    HW1  947   0.330   2.221   0.899  0.1511  3.6956  0.0125
  316SOL    HW2  948   0.303   2.374   0.847 -1.6391 -0.9170  0.6242
  317SOL     OW  949   1.834   0.308   0.987  0.3648  0.0953 -0.0972
  317SOL    HW1  950   1.751   0.289   1.043  2.8894 -0.4773 -0.5249
  317SOL    HW2  951   1.820   0.389   0.926  0.2568 -0.5198 -0.2331
  318SOL     OW  952   2.225   2.172   0.217 -0.0362 -0.4783 -0.0429
  318SOL    HW1  953   2.167   2.181   0.131 -0.2977 -0.5603 -0.8541
  318SOL    HW2  954   2.324   2.174   0.190 -0.2164  0.2710  0.6227
  319SOL     OW  955   1.276   1.685   3.094  0.2244  0.0171 -0.1145
  319SOL    HW1  956   1.211   1.683   3.015  0.4483  1.0065 -0.4916
  319SOL    HW2  957   1.357   1.745   3.072  1.6813  0.1083 -1.2412
  320SOL     OW  958   0.446   2.755   2.367 -0.3435 -0.0964 -0.2533
  320SOL    HW1  959   0.535   2.754   2.320 -4.6954  0.4868 -0.8023
  320SOL    HW2  960   0.377   2.811   2.317 -1.8257  1.0319  1.6798
  321SOL     OW  961   1.107   2.792   2.569 -0.5012 -0.0921  0.1342
  321SOL    HW1  962   1.188   2.764   2.624 -1.5366 -0.1886 -0.0669
  321SOL    HW2  963   1.125   2.770   2.469 -1.6518 -2.2265 -0.7100
  322SOL     OW  964   2.469   0.466   2.335 -0.1014 -0.4015  0.0316
  322SOL    HW1  965   2.373   0.443   2.350  3.7151  2.1842 -2.9118
  322SOL    HW2  966   2.525   0.453   2.422  1.0988 -2.3520 -0.0218
  323SOL     OW  967   2.960   0.979   0.608  0.0341  0.6877 -0.4245
  323SOL    HW1  968   2.907   0.930   0.541 -1.4345  2.3233 -1.4132
  323SOL    HW2  969   3.057   0.957   0.610  0.2267 -2.3949  1.6567
  324SOL     OW  970   0.401   0.912   1.902 -0.0965 -0.0553 -0.3563
  324SOL    HW1  971   0.311   0.912   1.859  1.2701  3.5316  0.2280
  324SOL    HW2  972   0.444   0.818   1.894 -0.1077 -0.5703 -1.0322
  325SOL     OW  973   0.449   0.306   2.254 -1.0647 -0.3125 -0.8645
  325SOL    HW1  974   0.475   0.397   2.210 -0.5916 -0.2546 -2.2822
  325SOL    HW2  975   0.349   0.285   2.258 -1.0159 -0.0905 -0.6613
  326SOL     OW  976   2.187   2.500   0.275 -0.0509  0.5633  0.2246
  326SOL    HW1  977   2.139   2.504   0.183 -1.1896 -0.3174 -0.8678
  326SOL    HW2  978   2.218   2.406   0.292 -1.5209 -0.3737 -1.7201
  327SOL     OW  979   2.256   1.311   0.765  1.1993  0.7127 -0.0636
  327SOL    HW1  980   2.184   1.238   0.767 -0.9495 -0.4048  1.8478
  327SOL    HW2  981   2.349   1.268   0.779  0.1993 -1.7992 -1.4765
  328SOL     OW  982   3.055   1.744   2.247  0.0566 -0.0046  0.2109
  328SOL    HW1  983   2.974   1.686   2.234 -0.3415  0.1974 -2.1254
  328SOL    HW2  984   3.019   1.840   2.247 -1.3631 -0.3226  0.0687
  329SOL     OW  985   0.544   2.011   1.564  0.1220 -0.6145 -0.1022
  329SOL    HW1  986   0.464   2.030   1.507  0.4021 -0.9648  1.5812
  329SOL    HW2  987   0.538   2.054   1.658  1.6354  1.5203  0.2751
  330SOL     OW  988   2.178   1.499   2.562  0.2213  0.0004  0.0941
  330SOL    HW1  989   2.188   1.581   2.621  0.8576  0.5935 -2.2099
  330SOL    HW2  990   2.260   1.501   2.499 -1.7840  1.5147 -0.2338
  331SOL     OW  991   2.598   2.719   0.665  0.4870 -0.3097  0.5109
  331SOL    HW1  992   2.549   2.628   0.661  1.6836 -1.0561  1.1016
  331SOL    HW2  993   2.614   2.748   0.573  0.0938  0.3080  1.1269
  332SOL     OW  994   0.501   3.045   0.904  0.0428 -0.5588 -0.4842
  332SOL    HW1  995   0.425   2.992   0.943  0.1360  0.7296 -1.3458
  332SOL    HW2  996   0.540   2.988   0.837 -2.8011  1.2370  2.6171
  333SOL     OW  997   2.240   2.342   2.429 -0.1220 -0.4574 -0.2736
  333SOL    HW1  998   2.308   2.409   2.389  1.7786 -0.1520  0.7857
  333SOL    HW2  999   2.162   2.389   2.471 -3.4276  0.3761  0.3494
  334SOL     OW 1000   0.766   1.152   0.375  0.1444  0.0174  0.2361
  334SOL    HW1 1001   0.729   1.116   0.461  0.5889 -0.2751 -3.3666
  334SOL    HW2 1002   0.751   1.253   0.367  1.1487 -0.6804 -0.8422
  335SOL     OW 1003   2.815   1.868   2.017 -0.1318  0.1408  0.2571
  335SOL    HW1 1004   2.726   1.911   2.035 -0.0569  1.9968 -2.1458
  335SOL    HW2 1005   2.804   1.806   1.933  0.7066  0.7938 -1.8169
  336SOL     OW 1006   2.584   2.781   2.036  0.2374  0.7288 -0.1771
  336SOL    HW1 1007   2.481   2.790   2.062  1.1265  2.6646 -1.9110
  336SOL    HW2 1008   2.587   2.742   1.940 -0.5190 -2.9382 -0.0027
  337SOL     OW 1009   0.918   1.122   0.956 -0.0838  0.0738  0.2747
  337SOL    HW1 1010   0.979   1.145   0.876 -0.9124  2.2024  0.4166
  337SOL    HW2 1011   0.822   1.108   0.925  2.7215  0.2071  1.1914
  338SOL     OW 1012   1.003   1.731   1.058 -0.6494  0.1142 -0.0792
  338SOL    HW1 1013   1.059   1.660   1.016 -1.9984  0.9101  0.5119
  338SOL    HW2 1014   0.905   1.708   1.064 -0.3391  0.8367 -0.6552
  339SOL     OW 1015   0.264   1.488   1.529 -0.0165  0.3603 -0.9708
  339SOL    HW1 1016   0.327   1.510   1.609  1.7560 -1.8954 -0.9995
  339SOL    HW2 1017   0.226   1.392   1.536  1.5163  0.4409 -0.8353
  340SOL     OW 1018   1.305   2.856   1.817  0.0642 -0.1569 -0.2081
  340SOL    HW1 1019   1.372   2.813   1.750 -0.5709 -0.8586  0.4284
  340SOL    HW2 1020   1.232   2.907   1.766 -1.0304 -0.0712 -2.9563
  341SOL     OW 1021   1.725   1.646   0.967 -0.7600  0.0145 -0.4860
  341SOL    HW1 1022   1.677   1.584   0.905  0.1237 -1.1770  2.7221
  341SOL    HW2 1023   1.813   1.607   1.004  1.7341 -0.6673  1.4776
  342SOL     OW 1024   2.935   1.346   0.976  0.2247 -0.1661 -0.1338
  342SOL    HW1 1025   2.904   1.268   1.035  0.2691 -2.9057  0.9681
  342SOL    HW2 1026   2.856   1.401   0.939  2.4335 -0.7057  1.0585
  343SOL     OW 1027   2.607   0.652   1.478 -0.3384 -0.2657  0.7166
  343SOL    HW1 1028   2.533   0.700   1.525 -0.5963 -0.1885  0.2590
  343SOL    HW2 1029   2.651   0.708   1.398  1.3924  2.9082 -2.2670
  344SOL     OW 1030   1.798   0.047   0.883 -0.1114 -0.0417 -0.0217
  344SOL    HW1 1031   1.697   0.034   0.862 -0.7176 -1.8720 -0.8547
  344SOL    HW2 1032   1.814   0.130   0.944 -0.8546  1.7173  2.3592
  345SOL     OW 1033   0.696   2.996   2.336 -0.6719  0.1208  0.0161
  345SOL    HW1 1034   0.689   3.001   2.439 -0.1141 -1.8482  2.3479
  345SOL    HW2 1035   0.637   3.066   2.289  1.7945 -0.8018  0.7511
  346SOL     OW 1036   2.707   1.908   0.841  0.5076  0.3556 -0.5847
  346SOL    HW1 1037   2.696   2.006   0.819 -1.0050  0.1666 -2.2239
  346SOL    HW2 1038   2.622   1.872   0.880  0.7679  0.0620 -1.8875
  347SOL     OW 1039   2.190   0.137   1.955 -0.3950 -0.7289  0.0637
  347SOL    HW1 1040   2.117   0.094   1.898  0.9690 -1.6970 -0.4443
  347SOL    HW2 1041   2.272   0.079   1.956 -2.5176 -0.5106 -0.7431
  348SOL     OW 1042   0.957   1.153   1.622 -0.2282 -0.4512  0.3074
  348SOL    HW1 1043   0.897   1.075   1.648  0.0791 -0.1602 -2.3758
  348SOL    HW2 1044   0.899   1.236   1.637  0.4777 -2.1605 -2.1491
  349SOL     OW 1045   2.451   0.762   1.710  0.2107 -0.0866 -0.2382
  349SOL    HW1 1046   2.460   0.861   1.730 -2.6960 -0.4659  1.6299
  349SOL    HW2 1047   2.499   0.712   1.792  1.1677 -0.2043  4.8710
  350SOL     OW 1048   2.268   2.153   0.485 -0.3613 -0.1387  0.6173
  350SOL    HW1 1049   2.210   2.229   0.525 -1.4222  0.1765 -0.9540
  350SOL    HW2 1050   2.244   2.156   0.384 -1.8087  0.2388 -1.3298
  351SOL     OW 1051   0.741   0.571   2.443 -0.0423 -0.0482 -0.0259
  351SOL    HW1 1052   0.786   0.482   2.423  0.6771  0.7399 -0.7070
  351SOL    HW2 1053   0.715   0.582   2.540 -1.2546 -0.3609 -0.5891
  352SOL     OW 1054   2.222   2.608   1.737 -0.3284  0.0283  0.6216
  352SOL    HW1 1055   2.127   2.584   1.777  0.0641 -0.5725 -0.0456
  352SOL    HW2 1056   2.208   2.637   1.638 -1.7476 -3.0174 -0.6136
  353SOL     OW 1057   0.658   0.855   2.557 -0.2599 -0.8711 -0.1442
  353SOL    HW1 1058   0.661   0.843   2.454  4.5355  1.3835  0.6676
  353SOL    HW2 1059   0.753   0.847   2.599  2.0336 -0.5116 -1.5835
  354SOL     OW 1060   0.244   2.513   2.712  0.0857  0.8261  0.0971
  354SOL    HW1 1061   0.269   2.586   2.646 -0.7357  0.4557  1.5321
  354SOL    HW2 1062   0.163   2.540   2.763  0.9308  1.4999 -0.3539
  355SOL     OW 1063   1.683   2.917   1.125 -0.0076 -0.1831  0.0014
  355SOL    HW1 1064   1.735   3.001   1.139  0.5985 -0.4422  0.1787
  355SOL    HW2 1065   1.685   2.854   1.211 -0.9470 -1.2874  3.0736
  356SOL     OW 1066   2.609   0.860   0.250  0.3616 -0.0449 -0.8026
  356SOL    HW1 1067   2.542   0.908   0.191 -2.8832 -2.0778  0.3912
  356SOL    HW2 1068   2.612   0.886   0.350  1.4538 -1.8795 -0.0945
  357SOL     OW 1069   3.045   0.199   1.806  0.0577 -0.3915  0.1410
  357SOL    HW1 1070   3.074   0.263   1.878  0.3277  1.4492  0.5427
  357SOL    HW2 1071   2.961   0.152   1.835  0.1627 -0.1982  0.6079
  358SOL     OW 1072   0.007   1.657   0.764 -0.3738 -0.4939  0.0185
  358SOL    HW1 1073   3.090   1.582   0.828 -1.5890  0.0789 -0.5913
  358SOL    HW2 1074   3.061   1.638   0.676  1.6067  1.2464  1.1805
  359SOL     OW 1075   2.829   0.351   0.062 -0.2842 -0.1746  0.2580
  359SOL    HW1 1076   2.902   0.306   0.007  2.3677 -0.3549  1.5387
  359SOL    HW2 1077   2.877   0.426   0.109 -1.6388 -0.9427  1.0227
  360SOL     OW 1078   1.132   0.900   1.026  0.5369  0.0790  0.4673
  360SOL    HW1 1079   1.157   0.867   1.116 -2.9697 -2.0845  3.1859
  360SOL    HW2 1080   1.038   0.936   1.032 -0.9280 -0.2803 -0.5673
  361SOL     OW 1081   2.771   2.606   1.380 -0.3449 -0.6800 -0.0474
  361SOL    HW1 1082   2.823   2.597   1.472 -0.8758  1.2431  0.9311
  361SOL    HW2 1083   2.741   2.516   1.341  0.1882 -0.2728 -1.4963
  362SOL     OW 1084   1.284   0.306   1.044  0.1864  0.2787  0.8481
  362SOL    HW1 1085   1.251   0.400   1.013  0.5621 -0.8260  1.2403
  362SOL    HW2 1086   1.261   0.228   0.979 -0.7655 -0.0341  2.9447
  363SOL     OW 1087   2.001   1.536   0.672  0.5708  0.0876 -0.3691
  363SOL    HW1 1088   2.090   1.498   0.697 -1.2113  0.8777 -0.9454
  363SOL    HW2 1089   1.931   1.472   0.708 -0.2007 -0.3169 -1.2492
  364SOL     OW 1090   0.817   0.586   1.560 -0.2461  0.0508 -0.2971
  364SOL    HW1 1091   0.913   0.615   1.551 -0.9450 -1.0977  1.4589
  364SOL    HW2 1092   0.754   0.664   1.531 -3.4096  1.0221 -0.8438
  365SOL     OW 1093   0.148   0.107   1.188  0.4469  0.6572 -0.3242
  365SOL    HW1 1094   0.206   0.131   1.269 -0.3894 -1.4226  0.3698
  365SOL    HW2 1095   0.059   0.073   1.219  0.5807 -1.4348  1.0391
  366SOL     OW 1096   2.907   0.940   0.209 -0.2413 -0.0818 -0.3184
  366SOL    HW1 1097   2.809   0.924   0.188  1.8860  3.0667 -0.4584
  366SOL    HW2 1098   2.926   1.041   0.222 -0.9672 -0.6085  0.7110
  367SOL     OW 1099   2.223   2.190   2.193  0.2089  0.7797 -0.1957
  367SOL    HW1 1100   2.220   2.266   2.258  2.6013 -2.8367 -0.6185
  367SOL    HW2 1101   2.126   2.147   2.190 -4.2294 -2.4152  1.5390
  368SOL     OW 1102   2.473   1.798   0.918 -0.4976  0.0270  0.0580
  368SOL    HW1 1103   2.423   1.878   0.875 -3.4004  1.0933  1.7625
  368SOL    HW2 1104   2.425   1.712   0.902  1.3849  2.9251  1.4058
  369SOL     OW 1105   2.131   0.319   2.883 -0.0966 -0.1868 -0.1949
  369SOL    HW1 1106   2.169   0.400   2.934 -2.6197 -1.2230 -1.7647
  369SOL    HW2 1107   2.030   0.319   2.892 -0.9601 -1.2211 -1.8064
  370SOL     OW 1108   0.586   0.625   0.986 -0.3375  0.0121  0.7781
  370SOL    HW1 1109   0.569   0.545   1.044  1.4254  0.3219  0.6384
  370SOL    HW2 1110   0.634   0.603   0.901 -0.1464 -0.9935 -0.0800
  371SOL     OW 1111   3.062   1.376   3.099 -0.8608 -0.6729 -0.3433
  371SOL    HW1 1112   3.018   1.444   0.058 -1.1551  2.6159  1.5072
  371SOL    HW2 1113   0.056   1.394   3.104 -1.4894  0.6404  1.8897
  372SOL     OW 1114   0.688   0.855   2.270 -0.8111  0.3722 -0.1482
  372SOL    HW1 1115   0.741   0.792   2.211 -0.1388  1.9133  3.2835
  372SOL    HW2 1116   0.590   0.839   2.263 -0.3920  0.7305  1.0081
  373SOL     OW 1117   0.932   2.943   2.939 -0.1545 -0.1996 -0.0640
  373SOL    HW1 1118   0.871   2.920   3.019  0.0119 -0.0023  0.9451
  373SOL    HW2 1119   0.958   3.040   2.939  0.5883 -5.3418  0.6338
  374SOL     OW 1120   0.881   1.570   0.030 -0.2159 -0.0654 -0.0385
  374SOL    HW1 1121   0.966   1.582   0.088  2.0741 -2.4049  1.9871
  374SOL    HW2 1122   0.846   1.478   0.039 -1.3059 -1.4533 -0.5681
  375SOL     OW 1123   1.094   0.592   2.045  0.2373  0.3606 -0.4173
  375SOL    HW1 1124   1.130   0.669   2.102 -0.4080 -0.0287  0.0060
  375SOL    HW2 1125   1.132   0.504   2.073 -1.0582  0.3859  0.5035
  376SOL     OW 1126   3.007   2.598   2.066 -0.0568 -0.1190 -0.3431
  376SOL    HW1 1127   2.936   2.664   2.100  1.6011  1.1824 -2.0716
  376SOL    HW2 1128   3.098   2.641   2.079 -2.3172 -0.7228 -3.1307
  377SOL     OW 1129   2.615   1.694   2.920  0.5715 -0.5164 -0.4664
  377SOL    HW1 1130   2.555   1.661   2.844 -0.7405  2.2004 -1.0389
  377SOL    HW2 1131   2.626   1.618   2.992  2.1200 -0.5527 -1.1101
  378SOL     OW 1132   2.128   0.116   0.161  0.0385 -0.6382 -0.3598
  378SOL    HW1 1133   2.068   0.055   0.220 -2.7123 -1.7076  0.3751
  378SOL    HW2 1134   2.091   0.109   0.062  0.1726  0.1225 -0.4330
  379SOL     OW 1135   1.894   0.665   0.655  1.1096 -0.0260 -0.2834
  379SOL    HW1 1136   1.853   0.620   0.736  1.6505 -1.8293  1.7077
  379SOL    HW2 1137   1.952   0.607   0.598  1.0311  0.7721  0.1512
  380SOL     OW 1138   2.508   2.022   1.767 -0.0972  0.2521  0.1715
  380SOL    HW1 1139   2.412   2.028   1.798 -1.8220 -2.3638 -0.4771
  380SOL    HW2 1140   2.553   2.118   1.781 -2.5434 -0.0653  0.4262
  381SOL     OW 1141   2.317   1.469   2.337 -0.5500  0.3637  0.2127
  381SOL    HW1 1142   2.346   1.508   2.247 -1.2427 -1.2441 -2.6009
  381SOL    HW2 1143   2.259   1.386   2.319  1.5246 -0.0468 -3.3054
  382SOL     OW 1144   2.895   2.725   2.643 -0.1209 -0.4355 -0.2787
  382SOL    HW1 1145   2.993   2.724   2.612 -2.1731 -0.2595 -0.9459
  382SOL    HW2 1146   2.835   2.703   2.566 -2.1332 -0.4747 -0.7930
  383SOL     OW 1147   0.972   1.272   2.934  0.6096 -0.2042 -0.0696
  383SOL    HW1 1148   0.960   1.282   3.034  0.5230 -1.1136 -1.4898
  383SOL    HW2 1149   0.990   1.359   2.881 -3.1209  0.4474 -0.8884
  384SOL     OW 1150   1.661   1.918   2.185  0.3413  0.3168  0.1890
  384SOL    HW1 1151   1.695   1.826   2.154  0.1109  0.5936  0.5418
  384SOL    HW2 1152   1.732   1.985   2.176 -3.9392 -3.2176  1.8401
  385SOL     OW 1153   1.837   2.751   0.735 -1.2799  0.2416  0.0969
  385SOL    HW1 1154   1.755   2.776   0.787 -0.3784 -0.4398  1.1769
  385SOL    HW2 1155   1.811   2.716   0.642 -0.4589 -1.6466 -1.6423
  386SOL     OW 1156   1.925   1.277   0.454  0.7462  0.4933 -0.2571
  386SOL    HW1 1157   1.986   1.360   0.463 -2.6873  2.2987  0.3576
  386SOL    HW2 1158   1.829   1.309   0.447  0.2452 -1.3484 -1.2910
  387SOL     OW 1159   3.021   2.069   1.616 -0.5068  0.4147 -0.5719
  387SOL    HW1 1160   3.040   2.066   1.712  1.7885  0.7147 -3.5056
  387SOL    HW2 1161   2.988   2.159   1.586  0.5382  0.0511 -1.5835
  388SOL     OW 1162   0.169   0.926   1.740  0.5069  0.4081 -0.2408
  388SOL    HW1 1163   0.219   0.895   1.654  0.2243 -1.2535 -2.3298
  388SOL    HW2 1164   0.115   0.845   1.773  5.2659 -1.5425  3.8759
  389SOL     OW 1165   2.195   0.537   3.022 -0.0575  0.0660 -0.3595
  389SOL    HW1 1166   2.251   0.533   0.003 -2.8527  1.2997 -0.8549
  389SOL    HW2 1167   2.117   0.605   3.036  0.2059 -1.7098 -1.8514
  390SOL     OW 1168   0.835   1.786   2.978 -0.1570 -0.1510  0.0563
  390SOL    HW1 1169   0.869   1.710   3.044  2.0255 -0.9475 -1.5214
  390SOL    HW2 1170   0.736   1.802   2.985 -0.0441  0.5489  1.0038
  391SOL     OW 1171   0.967   2.091   3.023  0.3486  0.1750 -0.5244
  391SOL    HW1 1172   0.987   2.138   0.005  0.5985  1.4325  0.2042
  391SOL    HW2 1173   0.888   2.027   3.027  0.2811  0.9967  1.7775
  392SOL     OW 1174   0.099   2.586   2.372 -0.4316 -0.5665 -0.2327
  392SOL    HW1 1175   0.116   2.673   2.320 -1.2872 -1.0838  2.6829
  392SOL    HW2 1176   0.173   2.515   2.360 -4.5548  2.0409  0.3335
  393SOL     OW 1177   1.498   2.239   0.416  0.7419  0.0435 -0.0331
  393SOL    HW1 1178   1.582   2.278   0.458 -1.9400 -0.1915  3.0319
  393SOL    HW2 1179   1.511   2.153   0.364  1.0078  3.9911 -1.7892
  394SOL     OW 1180   0.555   0.304   2.539 -0.3721 -0.1229  0.1123
  394SOL    HW1 1181   0.516   0.318   2.443  0.9855 -1.1416 -2.0538
  394SOL    HW2 1182   0.583   0.386   2.589 -0.8700 -0.5925 -0.6257
  395SOL     OW 1183   0.610   1.227   1.388 -0.2029  0.0460  0.4676
  395SOL    HW1 1184   0.654   1.319   1.412 -0.0051 -1.4661  1.2573
  395SOL    HW2 1185   0.541   1.254   1.312 -0.3679  0.0747 -1.3239
  396SOL     OW 1186   1.890   1.311   2.678 -0.0389 -0.9751 -0.0702
  396SOL    HW1 1187   1.951   1.250   2.627  0.5365  0.4261  3.4360
  396SOL    HW2 1188   1.938   1.327   2.766 -2.0962  1.7750  0.3402
  397SOL     OW 1189   0.486   0.330   0.278  0.2005  0.0966  0.2967
  397SOL    HW1 1190   0.586   0.343   0.294 -0.2853 -0.3758  0.2241
  397SOL    HW2 1191   0.424   0.402   0.319 -1.0658 -2.0494 -1.3452
  398SOL     OW 1192   0.936   2.514   2.982  0.0813  0.1222  0.1050
  398SOL    HW1 1193   0.952   2.599   2.929 -1.6227 -1.2285 -0.5484
  398SOL    HW2 1194   1.015   2.448   2.963  3.8161 -0.5277 -0.3849
  399SOL     OW 1195   1.913   2.196   2.114  0.8669 -0.4037 -0.0500
  399SOL    HW1 1196   1.969   2.116   2.083  0.9318 -3.0111  1.4795
  399SOL    HW2 1197   1.869   2.245   2.033  2.0357  1.3824 -0.7127
  400SOL     OW 1198   2.173   1.298   1.479  0.7910  0.0955  0.6093
  400SOL    HW1 1199   2.086   1.356   1.500 -3.4064  2.5573  1.6754
  400SOL    HW2 1200   2.239   1.292   1.556  0.7338 -0.1846 -0.8551
  401SOL     OW 1201   1.318   1.038   0.845 -0.1645  0.3137 -0.2194
  401SOL    HW1 1202   1.402   1.020   0.893 -1.0912 -0.8819 -3.3325
  401SOL    HW2 1203   1.237   1.006   0.904 -3.7883 -1.2960 -2.1358
  402SOL     OW 1204   0.135   2.951   2.377  0.5648 -0.0957  0.0786
  402SOL    HW1 1205   0.112   3.035   2.430 -0.5065 -0.7606 -1.1157
  402SOL    HW2 1206   0.202   2.966   2.303  1.2938  0.2034  1.2516
  403SOL     OW 1207   2.622   1.829   1.611 -0.7187 -0.1458 -0.3375
  403SOL    HW1 1208   2.628   1.867   1.516  0.3134 -0.6317  0.2086
  403SOL    HW2 1209   2.604   1.899   1.682  0.0322 -0.6541  1.3690
  404SOL     OW 1210   1.971   1.753   1.542  0.0700  0.3485  0.1096
  404SOL    HW1 1211   2.072   1.764   1.514 -1.2884 -0.6663  0.5101
  404SOL    HW2 1212   1.911   1.714   1.469 -1.7235  1.2671  1.8767
  405SOL     OW 1213   2.457   0.168   2.628 -0.0463  0.0157  0.5086
  405SOL    HW1 1214   2.373   0.179   2.569  0.6412 -1.4822  0.3970
  405SOL    HW2 1215   2.542   0.159   2.569  3.0365  1.3696 -1.0891
  406SOL     OW 1216   1.059   1.489   2.545 -0.4459  0.4097 -0.0610
  406SOL    HW1 1217   0.973   1.543   2.555 -1.2122 -0.0723  0.7307
  406SOL    HW2 1218   1.102   1.472   2.639 -0.6316 -3.3038 -0.9109
  407SOL     OW 1219   2.098   2.362   0.521 -0.3536 -0.1866  0.0741
  407SOL    HW1 1220   2.095   2.443   0.580  3.8458 -2.3947 -1.1902
  407SOL    HW2 1221   2.035   2.371   0.446  1.9177  0.0696  2.7190
  408SOL     OW 1222   0.297   2.885   1.053  0.4669  0.7416  0.5941
  408SOL    HW1 1223   0.316   2.869   1.151  0.4883 -0.6084 -1.1251
  408SOL    HW2 1224   0.215   2.940   1.034  1.0990 -2.2201  1.0170
  409SOL     OW 1225   2.292   1.590   0.831  0.2446  0.1190 -0.2289
  409SOL    HW1 1226   2.224   1.637   0.883  1.8403  0.7159 -2.0643
  409SOL    HW2 1227   2.295   1.488   0.848 -0.6120 -2.7374 -2.4833
  410SOL     OW 1228   2.231   2.361   2.826 -0.1883 -0.4340 -0.2424
  410SOL    HW1 1229   2.283   2.448   2.852  0.3722  1.4440  0.9018
  410SOL    HW2 1230   2.287   2.294   2.774  0.0069  2.9841 -0.4076
  411SOL     OW 1231   0.186   2.741   0.342  0.5084 -0.4226  0.9213
  411SOL    HW1 1232   0.233   2.817   0.396  0.3391 -0.9983  0.2944
  411SOL    HW2 1233   0.097   2.718   0.389 -1.2646 -0.7086  0.1640
  412SOL     OW 1234   1.373   2.661   0.466 -0.2238 -0.5517 -0.2025
  412SOL    HW1 1235   1.334   2.753   0.441 -0.8326  1.6947 -2.1770
  412SOL    HW2 1236   1.401   2.642   0.564  0.6272  3.2879  0.6267
  413SOL     OW 1237   1.891   0.391   2.331 -0.0320  0.2893 -0.0350
  413SOL    HW1 1238   1.862   0.488   2.309 -1.3598  0.3482  1.2105
  413SOL    HW2 1239   1.994   0.385   2.331 -0.6802  0.6878 -0.1843
  414SOL     OW 1240   0.230   0.471   0.528  0.1686  0.0097  0.1137
  414SOL    HW1 1241   0.141   0.509   0.525  0.6923 -1.2720 -1.3408
  414SOL    HW2 1242   0.259   0.474   0.624 -1.2839  1.2201  1.1426
  415SOL     OW 1243   0.115   1.136   1.297  0.4073  0.3961 -0.1139
  415SOL    HW1 1244   0.056   1.086   1.229  1.4474 -0.1451 -2.4093
  415SOL    HW2 1245   0.209   1.094   1.299 -0.9467 -0.6865  0.3098
  416SOL     OW 1246   0.197   0.101   0.227  0.1576 -0.0205  0.3026
  416SOL    HW1 1247   0.232   0.121   0.129 -0.0481  0.2708  1.2208
  416SOL    HW2 1248   0.230   0.010   0.261 -1.0677 -0.9441  0.7808
  417SOL     OW 1249   2.118   0.316   0.658  0.2157 -0.3633 -0.1810
  417SOL    HW1 1250   2.188   0.239   0.653  3.9604 -2.4431  1.2063
  417SOL    HW2 1251   2.140   0.376   0.742 -0.0643 -0.5551  4.2829
  418SOL     OW 1252   0.666   0.558   2.687 -0.3690  0.2425 -0.1510
  418SOL    HW1 1253   0.716   0.546   2.774  0.8717 -0.1452  0.1201
  418SOL    HW2 1254   0.599   0.632   2.685  0.0067 -0.2822 -4.1545
  419SOL     OW 1255   0.395   0.986   0.680  0.4093 -0.0965 -0.2709
  419SOL    HW1 1256   0.428   0.902   0.644  0.9803  3.3200  0.8397
  419SOL    HW2 1257   0.401   0.990   0.786 -1.3179  2.0537  2.9641
  420SOL     OW 1258   2.159   1.709   1.051  0.0788 -0.5151  0.1975
  420SOL    HW1 1259   2.223   1.676   1.123 -0.3004 -2.3040 -0.3103
  420SOL    HW2 1260   2.130   1.802   1.068  0.4330 -0.0111 -1.7311
  421SOL     OW 1261   1.603   2.110   2.708 -0.0521  0.0727 -0.3808
  421SOL    HW1 1262   1.628   2.161   2.795 -2.1664  1.7845  1.3156
  421SOL    HW2 1263   1.506   2.131   2.682 -0.2643 -2.3468 -1.3217
  422SOL     OW 1264   2.956   0.586   0.091  0.1354  0.7022  0.1801
  422SOL    HW1 1265   2.924   0.609   3.102 -0.7437 -0.4077 -0.6931
  422SOL    HW2 1266   2.886   0.611   0.162  0.1589  2.6435  0.0908
  423SOL     OW 1267   1.920   2.005   0.641  0.8271 -0.2572  0.4518
  423SOL    HW1 1268   1.893   1.920   0.686  1.2962  0.1856 -1.2516
  423SOL    HW2 1269   2.008   1.984   0.595 -2.3236  1.2278  2.0803
  424SOL     OW 1270   0.486   1.306   1.790  0.1984 -0.5798  0.4996
  424SOL    HW1 1271   0.473   1.406   1.767 -0.1244 -1.8456  2.8941
  424SOL    HW2 1272   0.400   1.263   1.824 -1.5778 -0.3103 -0.3550
  425SOL     OW 1273   2.597   2.687   1.778 -0.4485  0.0186 -0.1607
  425SOL    HW1 1274   2.540   2.604   1.763 -0.2419  1.1251  1.7278
  425SOL    HW2 1275   2.693   2.660   1.807  0.1601 -0.7056 -0.5342
  426SOL     OW 1276   1.796   2.694   0.431  0.3506  0.2467 -0.6467
  426SOL    HW1 1277   1.895   2.706   0.406  3.1734  1.4118 -0.7885
  426SOL    HW2 1278   1.764   2.597   0.419 -1.7115  1.5804  2.1055
  427SOL     OW 1279   0.196   0.631   2.616 -0.7385 -0.1890 -0.2534
  427SOL    HW1 1280   0.294   0.675   2.611  1.5735  0.7539 -1.2060
  427SOL    HW2 1281   0.183   0.559   2.689  1.4548 -2.0447  2.3530
  428SOL     OW 1282   2.109   0.978   2.957  0.1586  0.3167 -0.1857
  428SOL    HW1 1283   2.086   1.040   3.030 -0.0474 -0.2075 -0.9825
  428SOL    HW2 1284   2.034   0.983   2.889  0.9156  0.6026  1.0398
  429SOL     OW 1285   3.029   0.309   0.703 -0.4580  0.5129  0.5457
  429SOL    HW1 1286   3.009   0.316   0.602  1.6218  0.1737  0.8838
  429SOL    HW2 1287   2.954   0.263   0.752  0.3279  0.8659 -0.6518
  430SOL     OW 1288   1.070   2.796   2.140 -0.2078 -0.3456  0.4959
  430SOL    HW1 1289   0.996   2.758   2.085  0.7607 -1.5052 -0.9875
  430SOL    HW2 1290   1.156   2.766   2.098 -1.7632  1.3017  0.3390
  431SOL     OW 1291   3.046   2.126   1.260  0.1831 -0.4367 -0.8422
  431SOL    HW1 1292   2.984   2.206   1.251  4.4387 -1.3482 -2.0499
  431SOL    HW2 1293   3.001   2.049   1.313  2.3921 -0.9163  2.2933
  432SOL     OW 1294   2.149   3.043   1.750  0.1146  0.3813  0.0610
  432SOL    HW1 1295   2.206   3.041   1.669 -1.4583  1.0239  1.9081
  432SOL    HW2 1296   2.139   2.949   1.788 -0.0072 -2.2149 -1.0744
  433SOL     OW 1297   1.077   2.185   0.171 -0.0017 -0.3206 -0.2683
  433SOL    HW1 1298   1.066   2.190   0.273  2.1756 -1.4495  0.6584
  433SOL    HW2 1299   1.158   2.134   0.136 -1.4188  1.1836  0.8348
  434SOL     OW 1300   2.954   2.481   2.445  0.6561  0.0112 -0.7618
  434SOL    HW1 1301   3.036   2.536   2.408  0.7896 -0.1848  3.8405
  434SOL    HW2 1302   2.991   2.434   2.529 -0.3895 -1.7281  4.6469
  435SOL     OW 1303   0.467   0.743   0.566  0.2666  0.2080  0.8149
  435SOL    HW1 1304   0.533   0.751   0.485  1.5510  0.9865 -1.9244
  435SOL    HW2 1305   0.398   0.671   0.548 -0.2497 -0.4874 -0.8352
  436SOL     OW 1306   0.477   2.493   1.860 -0.2864 -0.5778 -0.3121
  436SOL    HW1 1307   0.390   2.446   1.829  0.3949 -0.8823  2.8899
  436SOL    HW2 1308   0.555   2.432   1.887  1.0132 -0.9030  1.9700
  437SOL     OW 1309   1.259   2.013   1.333  0.1150  0.7006 -0.7974
  437SOL    HW1 1310   1.215   2.100   1.308 -1.1409  1.5379 -0.9461
  437SOL    HW2 1311   1.360   2.012   1.308 -1.9087 -2.5988 -0.7442
  438SOL     OW 1312   0.142   2.216   0.420 -0.3134 -0.8919 -0.1441
  438SOL    HW1 1313   0.157   2.191   0.324  1.0901 -2.4527 -2.0575
  438SOL    HW2 1314   0.114   2.130   0.477 -1.1675 -2.7416 -1.8147
  439SOL     OW 1315   0.379   0.140   1.329  0.1083  0.1358 -0.0948
  439SOL    HW1 1316   0.440   0.073   1.280 -0.2189 -0.2620  0.4059
  439SOL    HW2 1317   0.427   0.205   1.384 -0.3104 -1.2783  2.8582
  440SOL     OW 1318   2.823   2.766   2.167 -0.0226 -0.3132 -0.8194
  440SOL    HW1 1319   2.773   2.733   2.249 -1.8853 -0.2275 -0.7565
  440SOL    HW2 1320   2.755   2.797   2.097 -0.9310 -0.9644 -0.2626
  441SOL     OW 1321   2.836   0.665   1.670 -0.2124 -0.5929  1.1318
  441SOL    HW1 1322   2.767   0.662   1.746  1.5087 -0.4975 -0.4379
  441SOL    HW2 1323   2.798   0.618   1.588 -2.2942 -0.7727  0.0475
  442SOL     OW 1324   1.806   2.505   0.112 -0.7414 -0.3110 -0.3595
  442SOL    HW1 1325   1.847   2.586   0.154  1.3463  0.4610  3.6435
  442SOL    HW2 1326   1.710   2.518   0.092 -0.2726 -1.7224  4.3960
  443SOL     OW 1327   0.470   0.902   2.928  0.1098 -0.7753 -0.3015
  443SOL    HW1 1328   0.390   0.901   2.998  1.1167 -1.0973  0.8261
  443SOL    HW2 1329   0.509   0.995   2.910  0.3332  0.4671 -2.1698
  444SOL     OW 1330   1.445   1.689   2.302  0.3765  0.6897 -0.5143
  444SOL    HW1 1331   1.492   1.597   2.317  0.3414 -2.1542  0.2079
  444SOL    HW2 1332   1.498   1.745   2.239  1.4322  0.7663 -0.2223
  445SOL     OW 1333   0.265   2.426   1.171 -0.1252  0.4563  0.5290
  445SOL    HW1 1334   0.337   2.471   1.223 -0.3071  1.2429  0.9793
  445SOL    HW2 1335   0.290   2.395   1.076 -4.1784  0.1631 -1.6860
  446SOL     OW 1336   2.665   1.490   1.423 -0.4419  0.3125 -0.5910
  446SOL    HW1 1337   2.702   1.572   1.376  1.7691  0.9486  1.0050
  446SOL    HW2 1338   2.583   1.447   1.375  0.8394 -2.4854  0.3626
  447SOL     OW 1339   0.329   0.584   0.296  0.0012  0.2317  0.0127
  447SOL    HW1 1340   0.295   0.538   0.382  2.8985  2.2979 -3.4629
  447SOL    HW2 1341   0.252   0.581   0.230 -2.6641 -0.0763 -0.9372
  448SOL     OW 1342   1.478   2.057   1.808  0.1189 -0.2522 -0.2791
  448SOL    HW1 1343   1.402   2.123   1.777 -2.4517 -1.2114 -1.9360
  448SOL    HW2 1344   1.445   1.993   1.879 -0.7696 -2.4166 -0.6818
  449SOL     OW 1345   0.954   1.283   0.096 -0.5744  0.0859 -0.2204
  449SOL    HW1 1346   0.920   1.189   0.119 -1.5466 -3.8154  0.9728
  449SOL    HW2 1347   1.017   1.315   0.167 -3.5386  0.7307 -1.3192
  450SOL     OW 1348   3.008   2.016   1.923  0.2043  0.1338  0.1824
  450SOL    HW1 1349   3.100   1.972   1.920  1.0685  0.5079  1.2812
  450SOL    HW2 1350   2.940   1.947   1.956  3.1082 -2.0204 -4.2132
  451SOL     OW 1351   2.657   1.288   2.616  0.7663  0.2882 -0.3060
  451SOL    HW1 1352   2.748   1.305   2.655  1.5736 -0.2965 -0.2345
  451SOL    HW2 1353   2.600   1.234   2.684  1.7378 -1.8893  1.0959
  452SOL     OW 1354   1.429   0.782   1.117  0.0436  0.2968  0.7738
  452SOL    HW1 1355   1.350   0.733   1.071 -3.1079 -0.0756  0.4306
  452SOL    HW2 1356   1.437   0.732   1.207  0.4650  4.0270  1.7228
  453SOL     OW 1357   1.524   1.007   1.442  0.0988  0.1639 -0.1527
  453SOL    HW1 1358   1.440   0.955   1.462 -0.9722 -0.4147 -0.2809
  453SOL    HW2 1359   1.549   1.063   1.522 -2.9404 -1.0190  0.1514
  454SOL     OW 1360   0.228   0.828   0.330  0.2687  0.2939 -0.2474
  454SOL    HW1 1361   0.270   0.735   0.329  1.4284 -0.2322 -3.1300
  454SOL    HW2 1362   0.169   0.832   0.247 -0.6620  1.3074 -1.2712
  455SOL     OW 1363   2.474   2.740   1.192 -0.2266  0.4033  0.1388
  455SOL    HW1 1364   2.532   2.775   1.272  1.2731  1.9080  3.5349
  455SOL    HW2 1365   2.537   2.716   1.115 -1.4415  0.7428 -1.0788
  456SOL     OW 1366   0.470   2.591   1.244  0.1913 -0.4157  0.2926
  456SOL    HW1 1367   0.513   2.544   1.322  0.3427  6.1660 -1.2204
  456SOL    HW2 1368   0.434   2.685   1.265 -2.3672  0.6174  1.8466
  457SOL     OW 1369   1.483   2.991   0.616  0.1923 -0.6264  0.2622
  457SOL    HW1 1370   1.392   2.986   0.565  0.6758  3.7894 -1.3024
  457SOL    HW2 1371   1.551   2.959   0.547  1.8521 -1.2972 -0.1613
  458SOL     OW 1372   2.574   0.067   1.366 -0.0468  0.2713  0.3180
  458SOL    HW1 1373   2.625   0.050   1.452  2.6354  0.6437  0.0022
  458SOL    HW2 1374   2.591   0.160   1.337  0.6632  1.3517  2.7977
  459SOL     OW 1375   2.415   0.694   2.950  0.0169  0.1995 -0.2301
  459SOL    HW1 1376   2.326   0.648   2.978 -3.0092 -0.0649  4.8984
  459SOL    HW2 1377   2.488   0.699   3.027  0.2866 -1.9253  1.1536
  460SOL     OW 1378   2.612   2.436   2.778 -0.1989  0.5518  0.8418
  460SOL    HW1 1379   2.561   2.487   2.703 -1.1057  2.3011  1.9040
  460SOL    HW2 1380   2.593   2.482   2.867  1.7408  0.5013 -0.3734
  461SOL     OW 1381   0.703   1.906   0.322  0.1322  0.2142 -0.1790
  461SOL    HW1 1382   0.806   1.908   0.312  2.1807 -1.3005 -1.6332
  461SOL    HW2 1383   0.671   1.826   0.261 -2.3533 -0.2084 -0.7633
  462SOL     OW 1384   2.343   1.980   0.780 -0.0289 -0.2817 -0.4427
  462SOL    HW1 1385   2.292   1.948   0.697 -1.0111  0.6402  1.5843
  462SOL    HW2 1386   2.302   2.063   0.826 -0.6384  1.9751  1.1149
  463SOL     OW 1387   2.797   0.812   0.835  0.3351  0.1532  0.8456
  463SOL    HW1 1388   2.808   0.780   0.737  2.7692  1.2615 -0.9325
  463SOL    HW2 1389   2.850   0.898   0.860  3.4918  1.8095  2.4787
  464SOL     OW 1390   1.050   2.896   0.564 -0.6640 -0.1299 -0.7191
  464SOL    HW1 1391   0.954   2.872   0.534  1.1510 -3.7152  0.0613
  464SOL    HW2 1392   1.079   2.824   0.628  0.6882  2.3130  0.2369
  465SOL     OW 1393   2.114   1.107   0.623  0.3417  0.4057 -0.4566
  465SOL    HW1 1394   2.066   1.039   0.685  0.6627 -0.8921  2.9382
  465SOL    HW2 1395   2.063   1.122   0.540  5.3893  1.7498  1.5409
  466SOL     OW 1396   2.429   0.074   0.031 -0.7584  0.2305  0.1527
  466SOL    HW1 1397   2.397   0.100   3.042  0.5533 -0.7967 -0.6883
  466SOL    HW2 1398   2.523   0.111   0.057  1.6282 -0.6024  1.6921
  467SOL     OW 1399   0.975   1.062   1.342 -0.3710  0.0163 -0.0251
  467SOL    HW1 1400   0.987   1.095   1.437  3.1744  0.1079 -0.5040
  467SOL    HW2 1401   1.030   0.980   1.315  0.6036  1.7173  0.7807
  468SOL     OW 1402   0.388   0.853   2.262 -0.4477 -0.3747 -0.1398
  468SOL    HW1 1403   0.329   0.782   2.216 -1.4116 -2.3996  1.7016
  468SOL    HW2 1404   0.374   0.858   2.366 -0.4873 -0.3340  1.5679
  469SOL     OW 1405   0.634   2.705   3.075  0.1370  0.0150  0.4716
  469SOL    HW1 1406   0.676   2.714   2.979  0.9127  1.5916 -1.7082
  469SOL    HW2 1407   0.662   2.613   3.104 -1.1636 -0.2793 -1.3087
  470SOL     OW 1408   2.496   1.176   2.801  0.9770  0.1401  0.5542
  470SOL    HW1 1409   2.446   1.088   2.821 -0.0600  0.4339 -0.8631
  470SOL    HW2 1410   2.563   1.194   2.871 -0.6997 -1.3985 -2.7356
  471SOL     OW 1411   2.635   1.296   2.348  0.4170 -0.3867 -0.0204
  471SOL    HW1 1412   2.727   1.295   2.309 -2.6692  0.5325  0.7265
  471SOL    HW2 1413   2.629   1.285   2.449  0.3473  0.0099  0.5364
  472SOL     OW 1414   0.488   2.313   0.314 -0.5570 -0.0078  0.6859
  472SOL    HW1 1415   0.413   2.377   0.332  1.0228  3.3395 -3.7351
  472SOL    HW2 1416   0.575   2.348   0.353  1.2747 -0.1503 -0.1486
  473SOL     OW 1417   0.590   0.149   3.067  0.1668 -0.1715  0.4904
  473SOL    HW1 1418   0.560   0.060   3.029  0.1375  0.1707  1.3842
  473SOL    HW2 1419   0.502   0.200   3.087 -3.5969 -1.1050  0.3048
  474SOL     OW 1420   1.663   0.521   2.180 -0.6867  0.5521  0.2594
  474SOL    HW1 1421   1.662   0.536   2.079  0.9398 -0.0197 -0.5325
  474SOL    HW2 1422   1.632   0.431   2.205 -1.8022 -0.2019 -0.2133
  475SOL     OW 1423   0.793   2.519   0.099 -0.4898  0.1652 -0.1265
  475SOL    HW1 1424   0.787   2.424   0.136  0.9033 -0.4553 -0.6108
  475SOL    HW2 1425   0.856   2.517   0.013  2.2848 -0.8823 -1.8974
  476SOL     OW 1426   0.442   1.072   0.943  0.2823  0.1552 -0.2205
  476SOL    HW1 1427   0.524   1.025   0.984  2.4641 -0.8161  1.9814
  476SOL    HW2 1428   0.448   1.170   0.959  0.8528 -1.7619 -1.2673
  477SOL     OW 1429   1.686   2.474   1.220 -0.5847 -0.0557 -0.6211
  477SOL    HW1 1430   1.585   2.453   1.251 -4.0281 -0.3670 -1.3183
  477SOL    HW2 1431   1.697   2.475   1.122 -1.7136  0.3871  2.2421
  478SOL     OW 1432   0.687   1.514   2.279  0.2828  0.0471 -0.2962
  478SOL    HW1 1433   0.788   1.526   2.268 -0.6697  0.3486 -0.5639
  478SOL    HW2 1434   0.646   1.602   2.322 -1.1198  1.2759  2.4895
  479SOL     OW 1435   0.363   2.847   1.321  0.2124  0.3358  0.0595
  479SOL    HW1 1436   0.292   2.888   1.382 -0.0308 -0.1083  0.0019
  479SOL    HW2 1437   0.458   2.874   1.340 -0.6878 -1.9169 -2.7782
  480SOL     OW 1438   2.970   2.958   0.277  0.4565 -0.5544 -0.3252
  480SOL    HW1 1439   2.874   2.947   0.315  0.7087  0.0599 -0.3048
  480SOL    HW2 1440   2.992   2.900   0.203  0.0238 -0.2097  0.9219
  481SOL     OW 1441   2.964   2.982   1.033  0.4677  0.2421  0.2428
  481SOL    HW1 1442   3.054   2.976   0.990 -0.4985 -1.2574  0.1304
  481SOL    HW2 1443   2.930   2.891   1.062  1.2254  0.3077  1.5026
  482SOL     OW 1444   1.638   2.207   1.993  0.1221 -0.1395 -0.6557
  482SOL    HW1 1445   1.569   2.172   1.925 -0.4903  0.7584  2.8658
  482SOL    HW2 1446   1.713   2.259   1.950 -2.5688 -1.8231  0.0671
  483SOL     OW 1447   0.564   1.577   2.842 -0.4825  0.0509  0.0492
  483SOL    HW1 1448   0.648   1.524   2.820  2.8158 -0.6663 -1.8422
  483SOL    HW2 1449   0.547   1.656   2.777 -0.7342  3.5593  0.5691
  484SOL     OW 1450   1.071   1.236   2.401 -0.0357  0.2958 -0.5681
  484SOL    HW1 1451   0.980   1.200   2.394  4.2179 -0.0123 -1.5373
  484SOL    HW2 1452   1.070   1.325   2.452  0.4740  0.8259 -2.1453
  485SOL     OW 1453   2.902   0.343   0.414 -0.3254 -0.0425 -0.3022
  485SOL    HW1 1454   2.819   0.302   0.449  2.8409  0.1867 -1.7516
  485SOL    HW2 1455   2.951   0.266   0.361  1.2614 -0.0462  1.9687
  486SOL     OW 1456   1.617   2.858   0.857 -0.1007  0.4433 -0.2245
  486SOL    HW1 1457   1.639   2.880   0.952 -0.6042 -0.7228 -0.6777
  486SOL    HW2 1458   1.587   2.942   0.806 -0.1373 -1.1779 -0.0565
  487SOL     OW 1459   0.928   2.391   0.848  0.1287  0.1863 -0.3136
  487SOL    HW1 1460   0.873   2.335   0.786  3.7275 -0.4925 -0.1068
  487SOL    HW2 1461   0.938   2.483   0.808 -1.0163 -1.8839 -2.2686
  488SOL     OW 1462   2.242   1.239   0.152 -0.1753  0.0593  0.4397
  488SOL    HW1 1463   2.227   1.310   0.221 -0.2446 -2.4848 -1.1331
  488SOL    HW2 1464   2.157   1.193   0.121 -0.5931 -0.3500  1.9384
  489SOL     OW 1465   1.401   2.838   1.085 -0.3765  0.3753 -0.3435
  489SOL    HW1 1466   1.407   2.826   1.187  0.0869  1.4353  1.8449
  489SOL    HW2 1467   1.493   2.832   1.041  0.3732 -1.4693 -1.4023
  490SOL     OW 1468   0.914   1.033   0.188  0.1058  0.0090 -0.5716
  490SOL    HW1 1469   0.847   0.992   0.116 -1.8689 -0.9580 -2.5571
  490SOL    HW2 1470   0.868   1.058   0.276  0.6458 -2.0617  1.3767
  491SOL     OW 1471   0.908   3.056   0.918  0.1742 -0.3551  0.2302
  491SOL    HW1 1472   1.014   3.044   0.916  3.0534  0.6392 -0.6179
  491SOL    HW2 1473   0.851   2.978   0.960 -0.4900 -1.1114 -0.0131
  492SOL     OW 1474   1.301   1.486   2.119  0.3658  0.2110 -0.4363
  492SOL    HW1 1475   1.296   1.588   2.120 -1.4008  0.2151  1.0659
  492SOL    HW2 1476   1.378   1.451   2.064 -0.2940 -1.9384  0.1838
  493SOL     OW 1477   0.272   2.447   0.443 -0.6031  0.5385  0.6823
  493SOL    HW1 1478   0.223   2.356   0.428  1.3171  0.9947 -1.7845
  493SOL    HW2 1479   0.217   2.518   0.398 -0.1912  0.2808  0.6251
  494SOL     OW 1480   2.252   1.767   0.216  0.4784  0.1357  0.0879
  494SOL    HW1 1481   2.309   1.848   0.193  1.3308 -0.1380  0.2322
  494SOL    HW2 1482   2.269   1.691   0.151 -1.0350  4.3470 -0.6548
  495SOL     OW 1483   2.734   1.276   2.916  0.4442 -0.1662 -0.4055
  495SOL    HW1 1484   2.825   1.235   2.921 -0.7166  3.1978 -1.7272
  495SOL    HW2 1485   2.696   1.295   3.008 -1.4823  0.4776 -4.5656
  496SOL     OW 1486   2.532   0.049   1.704  0.3612 -0.7386  0.6763
  496SOL    HW1 1487   2.480   0.023   1.789  0.7726  0.5613 -1.7305
  496SOL    HW2 1488   2.481   0.122   1.653 -0.6649 -0.4810 -2.6744
  497SOL     OW 1489   2.603   0.948   0.508 -0.5020 -0.3916  0.5423
  497SOL    HW1 1490   2.548   1.020   0.553 -0.1790  1.2771 -0.3898
  497SOL    HW2 1491   2.580   0.855   0.539 -2.5005  0.3192  1.8177
  498SOL     OW 1492   2.733   2.164   2.566  0.0779 -0.0820  0.3118
  498SOL    HW1 1493   2.690   2.147   2.661 -1.4096 -0.0945  0.0226
  498SOL    HW2 1494   2.831   2.197   2.576  1.9973 -1.4059  0.6135
  499SOL     OW 1495   0.795   2.250   0.176 -0.2641 -0.1225 -0.0336
  499SOL    HW1 1496   0.891   2.218   0.167 -0.4488 -0.5675  0.4960
  499SOL    HW2 1497   0.778   2.268   0.276 -0.9717 -0.4800  0.9410
  500SOL     OW 1498   0.880   0.073   2.691  0.1342  0.4224 -0.1870
  500SOL    HW1 1499   0.873   0.119   2.783 -1.1974  0.0883 -0.1344
  500SOL    HW2 1500   0.789   0.045   2.662  1.8597  3.6808 -0.7088
  501SOL     OW 1501   1.260   3.036   1.347  0.1707 -0.1605 -0.3140
  501SOL    HW1 1502   1.359   3.042   1.352 -1.0104 -0.2140  2.9039
  501SOL    HW2 1503   1.218   0.004   1.409 -1.9366  1.5720 -0.4267
  502SOL     OW 1504   2.994   0.270   2.149  0.2120 -0.8723 -0.6841
  502SOL    HW1 1505   3.076   0.286   2.097 -3.8018 -0.6393  0.9409
  502SOL    HW2 1506   2.942   0.360   2.148  0.6266  0.7755 -0.6692
  503SOL     OW 1507   2.334   1.846   2.395 -0.1484  0.1969  0.4605
  503SOL    HW1 1508   2.370   1.879   2.308 -3.4864 -1.3430  0.7154
  503SOL    HW2 1509   2.309   1.922   2.455  2.5696 -0.5912  1.7127
  504SOL     OW 1510   1.430   0.623   1.943  0.1290 -0.0691 -0.0011
  504SOL    HW1 1511   1.372   0.552   1.889 -0.8500 -1.2958 -0.2738
  504SOL    HW2 1512   1.528   0.598   1.927 -1.2298 -0.2922  0.6189
  505SOL     OW 1513   2.854   1.049   1.431  0.7093  0.0294  0.4391
  505SOL    HW1 1514   2.906   1.136   1.450 -0.3474 -0.0448  0.4001
  505SOL    HW2 1515   2.908   0.993   1.364 -0.2601  0.9288 -0.0179
  506SOL     OW 1516   0.596   1.272   2.381  0.8272 -0.3951  0.6891
  506SOL    HW1 1517   0.517   1.219   2.334 -1.3492 -1.5903  1.8548
  506SOL    HW2 1518   0.634   1.343   2.319  0.2168  0.5551 -1.6467
  507SOL     OW 1519   0.333   2.956   2.164 -0.0822  0.4935 -0.2884
  507SOL    HW1 1520   0.421   3.008   2.155 -1.0197  0.7201  2.7667
  507SOL    HW2 1521   0.333   2.890   2.089 -3.2601  3.1908 -0.7482
  508SOL     OW 1522   1.132   0.825   1.296 -0.1948 -0.0680  0.6683
  508SOL    HW1 1523   1.198   0.835   1.371  0.2868 -2.3107 -3.5160
  508SOL    HW2 1524   1.120   0.727   1.262  1.6233  0.7311 -1.6048
  509SOL     OW 1525   0.874   1.711   1.493 -0.4367  0.3904 -0.1050
  509SOL    HW1 1526   0.874   1.737   1.590 -1.9554 -1.5050 -1.0121
  509SOL    HW2 1527   0.956   1.754   1.447  2.4181 -0.7092 -0.4838
  510SOL     OW 1528   2.533   0.942   2.394 -0.1778 -0.1541  0.3726
  510SOL    HW1 1529   2.564   0.938   2.493 -0.8494 -1.5450  2.7256
  510SOL    HW2 1530   2.447   0.996   2.382 -1.8300 -0.2232 -0.7641
  511SOL     OW 1531   0.442   1.561   1.331 -0.7529 -0.5351 -0.2350
  511SOL    HW1 1532   0.358   1.549   1.387  0.4765  0.7605 -0.1775
  511SOL    HW2 1533   0.418   1.623   1.251 -0.3257  2.8669 -3.6152
  512SOL     OW 1534   2.670   2.177   0.825  0.0678  0.5674 -0.5447
  512SOL    HW1 1535   2.640   2.242   0.751  0.3383  3.4139  0.5339
  512SOL    HW2 1536   2.617   2.194   0.911  2.3252 -1.2507  0.7947
  513SOL     OW 1537   2.976   1.162   2.959  0.4983  0.6083 -0.5541
  513SOL    HW1 1538   3.035   1.110   2.892  2.0658 -3.3247 -0.4597
  513SOL    HW2 1539   3.023   1.243   2.997 -1.5946  0.9433 -1.7856
  514SOL     OW 1540   0.324   2.046   3.045  0.0124 -0.1908 -0.1850
  514SOL    HW1 1541   0.251   2.068   2.982  0.9985  1.5948  0.7132
  514SOL    HW2 1542   0.348   2.132   3.093 -1.7739  0.3735  0.6817
  515SOL     OW 1543   1.733   1.387   2.103 -0.1413 -0.4096 -0.2644
  515SOL    HW1 1544   1.827   1.357   2.132 -2.2516  1.6155  0.5546
  515SOL    HW2 1545   1.656   1.354   2.159  3.2316  3.2869 -0.1035
  516SOL     OW 1546   2.135   2.213   3.032  0.6206 -0.1539  0.0119
  516SOL    HW1 1547   2.163   2.274   2.953 -0.4065 -2.1811  1.0283
  516SOL    HW2 1548   2.117   2.117   3.005  0.1174 -1.0227 -0.0359
  517SOL     OW 1549   1.566   1.122   0.234  0.5313 -0.3672 -0.7539
  517SOL    HW1 1550   1.590   1.103   0.335 -1.6608 -0.8701  1.9986
  517SOL    HW2 1551   1.553   1.033   0.180 -0.0781 -4.8748 -0.0790
  518SOL     OW 1552   2.284   2.808   1.910  0.1812  0.0423  0.4818
  518SOL    HW1 1553   2.266   2.782   2.005 -1.0858  3.3253 -2.3204
  518SOL    HW2 1554   2.272   2.728   1.846  0.7337 -1.5631 -1.2969
  519SOL     OW 1555   1.675   2.410   1.656 -0.5086  0.1281 -0.0618
  519SOL    HW1 1556   1.619   2.348   1.598  4.0648 -2.2260 -0.2594
  519SOL    HW2 1557   1.623   2.426   1.744 -1.5188  0.2895  1.1160
  520SOL     OW 1558   2.478   2.662   2.650 -0.2714 -0.1224  0.1700
  520SOL    HW1 1559   2.501   2.757   2.664 -0.9861  0.6658  0.4070
  520SOL    HW2 1560   2.380   2.656   2.637  3.2024 -0.0303 -0.4864
  521SOL     OW 1561   0.083   1.158   2.120  0.7689 -0.1521 -0.6153
  521SOL    HW1 1562   0.027   1.231   2.076 -0.7414  1.2319  1.3508
  521SOL    HW2 1563   0.128   1.190   2.204  1.7322  0.8059  0.9914
  522SOL     OW 1564   0.841   0.250   1.812  0.1857 -0.1640  0.2798
  522SOL    HW1 1565   0.900   0.335   1.822  2.5520 -0.7774  2.8151
  522SOL    HW2 1566   0.767   0.262   1.746  0.1188 -0.8318 -1.3748
  523SOL     OW 1567   0.634   2.372   0.926  0.0020  0.1310 -0.0316
  523SOL    HW1 1568   0.666   2.332   0.834  2.3544 -0.9857 -2.2848
  523SOL    HW2 1569   0.530   2.355   0.937  1.1620  0.6456  0.3110
  524SOL     OW 1570   1.432   2.653   0.734 -0.4249  0.3230  0.4100
  524SOL    HW1 1571   1.475   2.740   0.767 -0.2323 -0.6725  0.1043
  524SOL    HW2 1572   1.480   2.565   0.763  0.2024 -1.4226  1.5495
  525SOL     OW 1573   2.287   0.724   1.120  0.4306 -0.8528  0.5103
  525SOL    HW1 1574   2.296   0.804   1.183  0.3667  2.0011  1.0477
  525SOL    HW2 1575   2.256   0.754   1.026  0.9254  1.0153 -0.0782
  526SOL     OW 1576   0.928   2.627   0.710 -0.3396 -0.4121  0.1232
  526SOL    HW1 1577   0.923   2.597   0.610  0.8613 -1.8899 -0.2188
  526SOL    HW2 1578   0.834   2.659   0.736 -2.7670  0.2935  0.7771
  527SOL     OW 1579   2.537   2.119   0.473  0.4977  0.3656  0.1151
  527SOL    HW1 1580   2.574   2.031   0.503  1.9933  0.8154 -0.2916
  527SOL    HW2 1581   2.432   2.122   0.477 -0.9189 -1.2032  1.0126
  528SOL     OW 1582   2.283   0.663   0.417 -0.5315  0.5423  0.1098
  528SOL    HW1 1583   2.255   0.729   0.348  2.6336 -0.3996  1.3419
  528SOL    HW2 1584   2.210   0.601   0.448  3.7002  1.8246  0.0829
  529SOL     OW 1585   1.306   1.250   2.272 -0.5952  0.3840 -0.2354
  529SOL    HW1 1586   1.231   1.236   2.346 -1.3188 -1.2487  0.0594
  529SOL    HW2 1587   1.295   1.342   2.226 -2.2998  0.4155 -2.1797
  530SOL     OW 1588   2.588   0.653   0.041  0.1093 -0.0322 -0.0759
  530SOL    HW1 1589   2.675   0.631   3.094 -2.2957 -0.6078  1.4050
  530SOL    HW2 1590   2.611   0.714   0.120 -3.1105  1.2137  0.4904
  531SOL     OW 1591   1.193   0.978   0.195  0.3542 -0.1986  0.2222
  531SOL    HW1 1592   1.093   0.997   0.177  2.5104 -0.7772 -1.5077
  531SOL    HW2 1593   1.225   0.937   0.108 -0.4054 -0.8866 -0.0353
  532SOL     OW 1594   1.831   0.213   0.641 -0.0529  0.2690  0.0937
  532SOL    HW1 1595   1.811   0.151   0.721 -0.7791  0.0314 -0.9199
  532SOL    HW2 1596   1.934   0.220   0.635 -0.5821 -2.4783  2.3786
  533SOL     OW 1597   1.543   1.141   2.261 -0.0547  0.1632 -0.0085
  533SOL    HW1 1598   1.446   1.164   2.276  1.7158 -0.6605 -0.8366
  533SOL    HW2 1599   1.558   1.122   2.165  0.8318  1.3161  3.4714
  534SOL     OW 1600   2.032   0.182   2.630  0.1251  0.0876  0.1869
  534SOL    HW1 1601   2.104   0.254   2.622  1.9534 -0.9869 -1.2406
  534SOL    HW2 1602   2.047   0.114   2.702 -0.4497  1.7922 -1.7473
  535SOL     OW 1603   0.347   2.962   0.417 -0.1190  0.2821  0.2896
  535SOL    HW1 1604   0.371   3.056   0.443 -0.9340  0.1051 -0.4689
  535SOL    HW2 1605   0.424   2.909   0.372  1.2433  0.6559  0.0756
  536SOL     OW 1606   0.753   2.854   1.016  0.8102 -0.2118 -0.4841
  536SOL    HW1 1607   0.716   2.769   0.975 -1.9560  0.9210  0.4723
  536SOL    HW2 1608   0.817   2.839   1.095 -0.0681 -1.2936 -0.0233
  537SOL     OW 1609   1.479   1.069   1.170  0.1760  0.2249  0.6574
  537SOL    HW1 1610   1.470   0.964   1.162 -2.3359 -4.9423 -1.2086
  537SOL    HW2 1611   1.498   1.092   1.263 -0.6988  2.0434 -1.5112
  538SOL     OW 1612   2.582   2.482   0.183 -0.5423  0.3576 -0.2505
  538SOL    HW1 1613   2.670   2.483   0.231 -2.3176 -0.3867 -1.1736
  538SOL    HW2 1614   2.523   2.565   0.203  1.7735  0.2936 -0.9318
  539SOL     OW 1615   2.836   1.850   2.880 -0.3718 -0.1873  0.4113
  539SOL    HW1 1616   2.758   1.792   2.915 -0.8571 -0.1334  2.1423
  539SOL    HW2 1617   2.841   1.855   2.777 -1.9588 -1.9241 -2.1947
  540SOL     OW 1618   0.189   2.760   1.635  0.0563  0.0906  0.1379
  540SOL    HW1 1619   0.131   2.679   1.634 -0.7370  3.2361 -2.9826
  540SOL    HW2 1620   0.170   2.824   1.561  2.6053  0.8336  2.9275
  541SOL     OW 1621   2.399   3.055   1.910 -0.2408 -0.3067 -0.0089
  541SOL    HW1 1622   2.471   3.054   1.982  0.0442  0.0784  0.4658
  541SOL    HW2 1623   2.349   2.965   1.899 -1.7868 -1.1738 -0.7147
  542SOL     OW 1624   2.886   0.584   2.321  0.3719  0.2668 -0.2506
  542SOL    HW1 1625   2.873   0.679   2.352  1.0998 -1.4334  1.3994
  542SOL    HW2 1626   2.901   0.578   2.221  0.6149 -0.7911  1.4554
  543SOL     OW 1627   0.932   0.344   0.722  0.1259 -0.1364 -0.5914
  543SOL    HW1 1628   1.010   0.324   0.665 -0.0278  0.3273 -0.0026
  543SOL    HW2 1629   0.840   0.357   0.672 -2.9884  0.7309  0.6169
  544SOL     OW 1630   2.804   2.418   0.927 -0.4348  0.0044 -0.5295
  544SOL    HW1 1631   2.896   2.403   0.885  0.2123 -3.1966  0.9392
  544SOL    HW2 1632   2.757   2.327   0.929 -0.6960  1.1315 -0.4535
  545SOL     OW 1633   0.978   1.844   0.346  0.2846 -0.0392  0.6269
  545SOL    HW1 1634   1.001   1.867   0.249  0.6515 -0.2960 -3.0077
  545SOL    HW2 1635   1.040   1.763   0.376 -0.3187  0.2241  2.8702
  546SOL     OW 1636   2.286   0.383   1.876  0.2733  0.2448 -0.0061
  546SOL    HW1 1637   2.262   0.286   1.900 -0.1663 -1.2986 -0.2275
  546SOL    HW2 1638   2.332   0.431   1.956 -1.3955 -1.0404  0.4703
  547SOL     OW 1639   0.170   0.317   2.308  0.0263 -0.1963  0.6375
  547SOL    HW1 1640   0.118   0.399   2.330  1.9144 -2.7591 -1.7936
  547SOL    HW2 1641   0.154   0.245   2.379 -0.1348 -2.1080 -0.7192
  548SOL     OW 1642   2.115   1.771   2.276 -0.3689 -0.1080  0.2087
  548SOL    HW1 1643   2.085   1.678   2.305  1.0141  0.2518 -0.3437
  548SOL    HW2 1644   2.205   1.783   2.327  3.4863 -2.6240 -0.2731
  549SOL     OW 1645   0.034   0.724   0.781 -0.0798 -0.2162  0.8199
  549SOL    HW1 1646   3.045   0.754   0.782  1.3314 -1.4552 -1.4598
  549SOL    HW2 1647   0.085   0.794   0.836 -1.9651 -0.2482  0.5253
  550SOL     OW 1648   1.551   1.317   0.632  0.3023 -0.4608  0.5822
  550SOL    HW1 1649   1.479   1.245   0.618 -1.1496  1.1278 -1.0942
  550SOL    HW2 1650   1.594   1.348   0.544 -0.4639 -0.3031 -1.0650
  551SOL     OW 1651   1.068   0.266   1.203 -0.8998 -0.0484  0.0479
  551SOL    HW1 1652   0.997   0.207   1.164 -0.8992  1.7899  2.6598
  551SOL    HW2 1653   1.145   0.273   1.136 -2.0556 -0.1645 -0.8211
  552SOL     OW 1654   2.434   2.473   1.818  0.0553  0.1425  0.6060
  552SOL    HW1 1655   2.347   2.525   1.788  0.5628  0.7188  0.2318
  552SOL    HW2 1656   2.417   2.423   1.906  0.0749  0.0980 -0.4820
  553SOL     OW 1657   3.035   2.998   3.044  0.8216  0.3030 -0.2995
  553SOL    HW1 1658   3.010   2.901   3.059  0.5706 -0.4263 -0.0156
  553SOL    HW2 1659   3.071   3.017   2.951  0.0911 -1.7132  0.0485
  554SOL     OW 1660   1.165   2.645   1.598 -0.4364  0.1169  0.4858
  554SOL    HW1 1661   1.191   2.568   1.663 -2.1535  1.5166 -3.8322
  554SOL    HW2 1662   1.181   2.728   1.647 -0.0547 -1.9205 -1.0555
  555SOL     OW 1663   2.608   2.797   1.485 -0.0268  0.2365 -0.3940
  555SOL    HW1 1664   2.592   2.768   1.582  2.2538 -0.7623 -0.0933
  555SOL    HW2 1665   2.683   2.738   1.444  1.1877 -1.0922 -1.3981
  556SOL     OW 1666   1.073   0.071   2.943  0.3635  0.0665 -0.3194
  556SOL    HW1 1667   1.156   0.082   2.887 -0.4122  1.3778  2.0805
  556SOL    HW2 1668   1.091   0.067   3.041  2.4214  0.3942 -1.0652
  557SOL     OW 1669   0.291   1.896   2.324  0.0836  0.4649  0.4932
  557SOL    HW1 1670   0.321   1.808   2.283  1.0382  0.0693  0.7748
  557SOL    HW2 1671   0.188   1.892   2.329 -1.5767 -1.0846  1.5028
  558SOL     OW 1672   2.260   1.247   2.655  0.1650  0.0059 -0.2322
  558SOL    HW1 1673   2.331   1.225   2.723 -0.8140 -1.4620 -0.7009
  558SOL    HW2 1674   2.244   1.347   2.671  0.1954 -1.2615  1.9740
  559SOL     OW 1675   2.398   2.288   2.016 -0.6056  0.2308 -0.4476
  559SOL    HW1 1676   2.464   2.210   1.991  1.1682  2.0174 -1.7106
  559SOL    HW2 1677   2.319   2.256   2.072 -0.0390 -0.7147 -1.0134
  560SOL     OW 1678   0.052   0.544   2.385 -0.0325 -0.2972 -0.0269
  560SOL    HW1 1679   0.096   0.577   2.472 -0.8853  1.9104 -0.8135
  560SOL    HW2 1680   3.056   0.569   2.383 -4.0408  0.1511  1.4436
  561SOL     OW 1681   0.742   0.374   0.309  0.0506  0.4479  0.3553
  561SOL    HW1 1682   0.761   0.297   0.372 -0.6046 -1.6595 -0.7093
  561SOL    HW2 1683   0.831   0.409   0.271 -0.0019  1.0081 -0.5531
  562SOL     OW 1684   0.810   1.393   1.642 -0.4196  0.3367  0.2212
  562SOL    HW1 1685   0.751   1.430   1.566  0.3787 -0.6837 -0.1892
  562SOL    HW2 1686   0.754   1.376   1.719  0.9109 -0.3328 -1.7285
  563SOL     OW 1687   1.419   2.812   3.087  0.2389  0.7093  0.0518
  563SOL    HW1 1688   1.428   2.869   0.066  0.6166 -0.2006 -1.8837
  563SOL    HW2 1689   1.330   2.825   3.037  3.5543  1.4808 -2.1131
  564SOL     OW 1690   0.090   1.975   0.520  0.1691 -0.1980  0.8024
  564SOL    HW1 1691   0.174   1.943   0.472 -1.9557 -3.4390 -4.1178
  564SOL    HW2 1692   0.093   1.945   0.615  1.4635 -0.0475 -0.8931
  565SOL     OW 1693   0.587   2.300   2.366  0.4769 -0.6908 -0.5839
  565SOL    HW1 1694   0.601   2.220   2.303  0.2146 -1.3692  1.3880
  565SOL    HW2 1695   0.658   2.373   2.342 -1.0274  1.4697  0.1113
  566SOL     OW 1696   1.484   2.596   2.286  0.0960 -0.4468 -0.0725
  566SOL    HW1 1697   1.526   2.594   2.379 -2.5028  0.3698 -1.2208
  566SOL    HW2 1698   1.506   2.510   2.236  0.1048  0.9632 -0.0914
  567SOL     OW 1699   2.129   1.979   1.114  0.0712  0.1263 -0.5267
  567SOL    HW1 1700   2.125   2.022   1.025 -0.4079  2.0263 -0.5348
  567SOL    HW2 1701   2.149   2.049   1.190  0.8767  2.0185 -2.1024
  568SOL     OW 1702   2.185   0.783   0.169 -0.4496 -0.4405 -0.0581
  568SOL    HW1 1703   2.129   0.759   0.089  2.6552 -0.0135  2.5576
  568SOL    HW2 1704   2.118   0.813   0.242 -1.8707  2.1800  1.0347
  569SOL     OW 1705   2.901   1.386   2.694  0.0966 -0.7892  0.0487
  569SOL    HW1 1706   2.965   1.466   2.715  3.5610  2.1516  1.2326
  569SOL    HW2 1707   2.839   1.373   2.772  1.1216  0.5020  0.3824
  570SOL     OW 1708   3.023   2.882   1.307  0.4584  0.2404 -0.4966
  570SOL    HW1 1709   2.974   2.893   1.396 -3.8608 -2.9289  0.7589
  570SOL    HW2 1710   2.984   2.812   1.248  0.4026 -0.8484 -0.6593
  571SOL     OW 1711   0.172   0.476   1.799  0.4519 -0.1895 -0.5458
  571SOL    HW1 1712   0.151   0.448   1.896  1.1150 -1.0623 -0.9178
  571SOL    HW2 1713   0.274   0.481   1.776 -0.5661  1.2039  1.5653
  572SOL     OW 1714   3.099   2.421   0.717  0.0136  0.0994  0.4499
  572SOL    HW1 1715   0.091   2.452   0.715 -0.4926  1.1489  1.4262
  572SOL    HW2 1716   3.101   2.354   0.796  0.5417  0.3172  1.4438
  573SOL     OW 1717   0.861   0.727   0.106 -0.4693  0.2065  0.2503
  573SOL    HW1 1718   0.782   0.720   0.047  1.7895 -1.1956  0.3890
  573SOL    HW2 1719   0.849   0.796   0.180  0.6731 -0.7756  1.1495
  574SOL     OW 1720   2.602   2.571   3.012 -0.3986 -0.5683 -0.4380
  574SOL    HW1 1721   2.678   2.641   3.008 -0.1904 -1.8506  0.1825
  574SOL    HW2 1722   2.582   2.537   0.003  1.0400 -0.2057  1.5264
  575SOL     OW 1723   1.084   1.784   1.324 -0.6346  0.0222 -0.5284
  575SOL    HW1 1724   1.065   1.776   1.224 -0.3092  3.4668  1.3362
  575SOL    HW2 1725   1.159   1.851   1.334  1.1080 -0.3099 -0.2047
  576SOL     OW 1726   0.131   2.960   1.457  0.8120  0.1154 -0.2169
  576SOL    HW1 1727   0.118   3.049   1.510  1.8542  2.6549 -0.3564
  576SOL    HW2 1728   0.048   2.935   1.407 -0.3832 -1.4082  0.8899
  577SOL     OW 1729   1.928   1.395   1.482  0.0153  0.9179 -0.0063
  577SOL    HW1 1730   1.890   1.418   1.573 -1.4776  0.9004 -0.9646
  577SOL    HW2 1731   1.859   1.379   1.410  1.7755  1.1640  0.2851
  578SOL     OW 1732   1.438   0.116   0.106  0.1404  0.1731 -0.1505
  578SOL    HW1 1733   1.535   0.134   0.134 -0.8084 -1.1851  1.1448
  578SOL    HW2 1734   1.413   0.161   0.021 -0.1655  2.0286  2.8258
  579SOL     OW 1735   2.823   1.598   2.490 -0.4801 -0.1671  0.2014
  579SOL    HW1 1736   2.901   1.539   2.522 -0.9289 -4.5713  0.4256
  579SOL    HW2 1737   2.801   1.578   2.393  1.6086 -0.0479  1.1401
  580SOL     OW 1738   1.323   0.810   1.478 -0.3017  0.1868  0.2409
  580SOL    HW1 1739   1.350   0.801   1.578  4.3279 -0.3642  1.5972
  580SOL    HW2 1740   1.366   0.738   1.421 -2.6616  0.8664 -0.1004
  581SOL     OW 1741   0.690   1.503   1.418  0.1725  0.1805 -0.2771
  581SOL    HW1 1742   0.596   1.538   1.416  0.4829 -0.3456 -2.2031
  581SOL    HW2 1743   0.758   1.580   1.430 -1.0814  1.1860 -1.9300
  582SOL     OW 1744   2.924   2.985   1.960 -0.0221  0.5666 -0.1267
  582SOL    HW1 1745   2.913   3.036   2.048  1.4821  0.0689 -0.6452
  582SOL    HW2 1746   2.839   2.989   1.905  0.2346  1.2480 -0.0178
  583SOL     OW 1747   2.090   0.866   1.711 -0.4762  0.2733 -0.1240
  583SOL    HW1 1748   2.131   0.773   1.708  1.7083  0.1662  0.9898
  583SOL    HW2 1749   2.146   0.923   1.773 -0.3545 -3.7705 -0.5044
  584SOL     OW 1750   1.418   2.138   2.963  0.0227  0.0475 -0.2323
  584SOL    HW1 1751   1.407   2.045   3.007  0.0477 -1.2509  0.3325
  584SOL    HW2 1752   1.339   2.163   2.907  0.4850 -1.4802  0.2696
  585SOL     OW 1753   0.504   2.784   0.295  0.1852 -0.3708 -0.2180
  585SOL    HW1 1754   0.429   2.729   0.249 -1.3364 -3.5022 -3.8081
  585SOL    HW2 1755   0.587   2.801   0.238  0.7958 -0.8224 -2.3588
  586SOL     OW 1756   2.021   2.463   2.516  0.1767  0.0053  0.2798
  586SOL    HW1 1757   1.977   2.386   2.568 -1.4246 -1.5096  0.3665
  586SOL    HW2 1758   1.961   2.508   2.447  2.7828  0.1750  2.2671
  587SOL     OW 1759   2.597   1.604   0.450  0.1617  0.0191 -0.1180
  587SOL    HW1 1760   2.581   1.612   0.350  1.5907  0.6885  0.1092
  587SOL    HW2 1761   2.595   1.698   0.487 -1.7849 -0.3578 -0.9780
  588SOL     OW 1762   2.092   0.360   1.100  0.1320  0.0144  0.7680
  588SOL    HW1 1763   1.998   0.331   1.071 -0.0989  1.4274 -0.6099
  588SOL    HW2 1764   2.149   0.381   1.016  0.7707  1.4309 -3.9678
  589SOL     OW 1765   1.103   0.639   0.513  0.3345 -0.5358  0.7122
  589SOL    HW1 1766   1.138   0.547   0.493 -0.6183  3.0345  2.5665
  589SOL    HW2 1767   1.002   0.657   0.505 -0.5165 -0.2826  1.6467
  590SOL     OW 1768   2.427   1.960   0.109  0.1954 -0.6575  0.6443
  590SOL    HW1 1769   2.408   1.961   0.011  0.3053  0.7308  2.4833
  590SOL    HW2 1770   2.462   2.056   0.134 -0.0152  1.8792 -0.7734
  591SOL     OW 1771   0.036   2.543   1.588 -0.0252 -0.3862  0.2173
  591SOL    HW1 1772   0.072   2.498   1.503  0.2888  0.4508 -1.0755
  591SOL    HW2 1773   0.028   2.477   1.666  1.0777  2.0039 -0.7616
  592SOL     OW 1774   0.708   0.982   1.297 -0.0579  0.5567  0.1065
  592SOL    HW1 1775   0.674   1.060   1.355  1.6954  2.7867 -0.8888
  592SOL    HW2 1776   0.806   0.999   1.281 -2.6951 -2.9701  0.7149
  593SOL     OW 1777   0.799   1.430   1.164 -0.9122  0.2428  0.1161
  593SOL    HW1 1778   0.893   1.383   1.162  0.9722 -1.7476 -1.4166
  593SOL    HW2 1779   0.759   1.442   1.257  1.3740 -0.0044  0.1241
  594SOL     OW 1780   0.584   1.864   3.046 -0.1052  0.3511  0.1502
  594SOL    HW1 1781   0.597   1.965   3.047  0.3592  0.3228  0.5479
  594SOL    HW2 1782   0.484   1.847   3.036  2.0777 -0.0204 -0.8503
  595SOL     OW 1783   1.427   0.251   1.295 -0.2653  0.0366  1.0186
  595SOL    HW1 1784   1.348   0.282   1.350 -0.5489 -4.5849 -0.2561
  595SOL    HW2 1785   1.518   0.292   1.327  1.3823  0.9918  0.3842
  596SOL     OW 1786   0.070   1.421   0.888 -0.1884  0.0061  0.7411
  596SOL    HW1 1787   3.092   1.402   0.945  1.0372  0.0678  0.7306
  596SOL    HW2 1788   0.055   1.382   0.799  0.6602  1.4580  2.9803
  597SOL     OW 1789   0.051   2.528   2.891 -0.1353  0.0046  0.2531
  597SOL    HW1 1790   3.053   2.522   2.882  0.1024  0.2076  1.6605
  597SOL    HW2 1791   0.084   2.462   2.966 -0.6153 -2.2015 -2.3739
  598SOL     OW 1792   2.403   1.981   2.142  0.3196 -0.0926  0.3312
  598SOL    HW1 1793   2.321   2.040   2.143  0.6645  0.9146 -1.2485
  598SOL    HW2 1794   2.491   2.028   2.152  0.0702  0.4550  1.0041
  599SOL     OW 1795   1.054   0.250   0.291 -0.5351  0.3449  0.1124
  599SOL    HW1 1796   1.020   0.333   0.241 -0.1428 -0.6419  0.2947
  599SOL    HW2 1797   0.994   0.229   0.372 -1.1803 -0.7155  2.3071
  600SOL     OW 1798   0.466   2.624   0.512  0.1208  0.4133  0.1218
  600SOL    HW1 1799   0.484   2.688   0.435 -1.9393 -0.3717  3.8972
  600SOL    HW2 1800   0.424   2.538   0.478  1.0892 -0.4472  0.5273
  601SOL     OW 1801   0.362   1.011   1.270  0.1747 -0.6391  0.2678
  601SOL    HW1 1802   0.442   1.070   1.241  1.5306  0.2996  1.3372
  601SOL    HW2 1803   0.364   0.918   1.226  0.8726 -3.7113  3.2504
  602SOL     OW 1804   0.609   2.622   1.002  0.4667  0.0422  0.2892
  602SOL    HW1 1805   0.614   2.528   0.959  1.5093 -0.5238 -2.3056
  602SOL    HW2 1806   0.571   2.626   1.095  2.1232 -0.8087 -1.9136
  603SOL     OW 1807   0.982   3.030   2.252  0.0570 -0.1230  0.1947
  603SOL    HW1 1808   0.885   3.020   2.287  0.4672  0.6214  1.2581
  603SOL    HW2 1809   1.007   2.949   2.202 -1.8099  2.2914  2.4786
  604SOL     OW 1810   0.674   2.747   2.229  0.6064 -0.4575  0.0917
  604SOL    HW1 1811   0.685   2.839   2.278 -1.1036  3.9523 -1.6688
  604SOL    HW2 1812   0.741   2.748   2.151 -1.9747  0.9947 -1.5697
  605SOL     OW 1813   1.819   0.723   2.355  0.3368 -0.1671  0.5256
  605SOL    HW1 1814   1.824   0.741   2.259  1.3515  2.0285  2.1479
  605SOL    HW2 1815   1.795   0.814   2.395 -0.1459 -1.4796 -0.6797
  606SOL     OW 1816   2.353   0.165   2.890  0.3512 -0.3875 -0.6378
  606SOL    HW1 1817   2.279   0.238   2.881 -4.4688  3.3656  1.9537
  606SOL    HW2 1818   2.407   0.165   2.803 -1.4246  1.7330 -1.0962
  607SOL     OW 1819   0.782   0.641   1.184  0.0083  0.4344 -0.2036
  607SOL    HW1 1820   0.710   0.669   1.115  0.9860 -3.5157 -2.0096
  607SOL    HW2 1821   0.747   0.660   1.276  2.6411  1.8310 -0.7152
  608SOL     OW 1822   2.981   2.019   2.338  0.0288  0.5406 -0.8606
  608SOL    HW1 1823   3.028   2.085   2.277 -1.4891 -0.8337  0.5884
  608SOL    HW2 1824   2.880   2.016   2.334 -0.7914 -1.1589 -3.0551
  609SOL     OW 1825   1.781   0.758   0.084  0.4262 -0.0874  0.0737
  609SOL    HW1 1826   1.815   0.749   0.182 -0.9634  1.3647  0.9515
  609SOL    HW2 1827   1.723   0.843   0.075  0.3442 -1.6255 -0.2448
  610SOL     OW 1828   0.727   0.343   1.356  0.0279 -0.0554  0.0771
  610SOL    HW1 1829   0.773   0.255   1.380  2.2416 -4.2489 -0.4636
  610SOL    HW2 1830   0.779   0.427   1.369  0.4226 -1.0656 -0.7322
  611SOL     OW 1831   1.590   0.499   0.514  0.2157  0.2761 -0.0768
  611SOL    HW1 1832   1.559   0.478   0.610 -3.4342 -1.6201 -2.7027
  611SOL    HW2 1833   1.521   0.452   0.451  0.3714  0.9353  2.8860
  612SOL     OW 1834   1.734   0.610   2.946 -0.0786  0.2655 -0.2066
  612SOL    HW1 1835   1.809   0.620   2.875 -1.4696  1.8212 -3.3876
  612SOL    HW2 1836   1.760   0.675   3.021 -1.1042  1.0354  0.5734
  613SOL     OW 1837   2.383   0.767   0.648  0.6852  0.0200 -0.2497
  613SOL    HW1 1838   2.328   0.732   0.574  2.8709 -0.4440  0.1436
  613SOL    HW2 1839   2.445   0.695   0.679 -1.7991 -2.2803 -0.2397
  614SOL     OW 1840   2.604   3.088   2.104 -0.0101  0.1690 -0.4789
  614SOL    HW1 1841   2.574   0.072   2.145  2.1275  1.7468  0.0572
  614SOL    HW2 1842   2.594   3.007   2.162 -1.5814  1.7030 -2.4460
  615SOL     OW 1843   0.546   1.802   1.172  0.2628 -0.0205 -0.1721
  615SOL    HW1 1844   0.595   1.875   1.226  0.6206 -2.9342 -0.3360
  615SOL    HW2 1845   0.459   1.841   1.143  1.0135  0.1517 -3.3861
  616SOL     OW 1846   1.457   1.525   2.687  0.2066 -0.4101 -0.0787
  616SOL    HW1 1847   1.443   1.616   2.644 -1.5160  1.7649 -1.1529
  616SOL    HW2 1848   1.516   1.459   2.635 -0.3415  2.0105  1.3720
  617SOL     OW 1849   1.753   3.101   3.090  0.0517  0.1216 -0.3567
  617SOL    HW1 1850   1.776   3.001   3.088  1.0309 -1.8805 -0.1194
  617SOL    HW2 1851   1.666   0.018   3.038 -0.6408 -1.1612  1.6252
  618SOL     OW 1852   1.356   2.171   2.629  0.6161 -0.0193 -0.3168
  618SOL    HW1 1853   1.363   2.126   2.536  1.8634 -1.6581  0.8681
  618SOL    HW2 1854   1.283   2.127   2.686  2.2218  1.9253  0.7875
  619SOL     OW 1855   2.578   1.176   0.817 -0.4796 -0.3238  0.2818
  619SOL    HW1 1856   2.620   1.251   0.763  1.7684 -0.5577  1.1496
  619SOL    HW2 1857   2.507   1.125   0.763 -2.7994 -0.3379 -1.3975
  620SOL     OW 1858   2.095   2.767   2.380 -0.0157 -0.1264 -0.1753
  620SOL    HW1 1859   2.025   2.838   2.403  0.5862  1.1894  3.3633
  620SOL    HW2 1860   2.106   2.703   2.457  0.5150  0.8669  0.1764
  621SOL     OW 1861   2.857   1.251   0.581  0.1488  0.3038  0.2171
  621SOL    HW1 1862   2.870   1.155   0.607  3.2782  2.3043 -2.0600
  621SOL    HW2 1863   2.945   1.301   0.587  2.7307  1.7482  1.4719
  622SOL     OW 1864   1.307   2.053   2.335 -0.6207  0.2024  0.4108
  622SOL    HW1 1865   1.257   1.988   2.397  3.8281 -0.5776 -0.1145
  622SOL    HW2 1866   1.406   2.040   2.327  0.7299 -1.2382 -3.4449
  623SOL     OW 1867   0.401   2.766   2.660  0.4559  0.1642  0.2705
  623SOL    HW1 1868   0.418   2.768   2.558  0.8141 -0.2821 -1.2311
  623SOL    HW2 1869   0.475   2.709   2.696 -0.1085  0.5863  0.6308
  624SOL     OW 1870   0.891   2.779   2.724  0.6158 -0.0519  0.0634
  624SOL    HW1 1871   0.964   2.779   2.654 -2.9945 -2.7000  1.1776
  624SOL    HW2 1872   0.902   2.854   2.790  0.2663 -2.4657  1.2967
  625SOL     OW 1873   0.390   2.131   2.498  0.1663 -0.3813 -0.4283
  625SOL    HW1 1874   0.454   2.200   2.447  2.3409  3.1194 -0.9660
  625SOL    HW2 1875   0.347   2.063   2.437  0.1706 -4.1747  0.8572
  626SOL     OW 1876   0.131   0.340   3.026  0.6526 -0.0701  0.1274
  626SOL    HW1 1877   0.049   0.283   3.043 -0.2752  2.4398  0.2781
  626SOL    HW2 1878   0.139   0.363   2.925  0.2762 -1.5798 -1.1062
  627SOL     OW 1879   1.976   1.792   3.051 -0.2405  0.1005  0.2200
  627SOL    HW1 1880   1.932   1.732   2.978 -1.4125 -2.2125 -2.3700
  627SOL    HW2 1881   2.047   1.859   3.014 -1.1634 -1.0514 -1.1815
  628SOL     OW 1882   1.317   1.377   2.874  0.1201  0.2583 -0.0676
  628SOL    HW1 1883   1.386   1.308   2.903  0.3299  1.0918  1.6913
  628SOL    HW2 1884   1.353   1.436   2.802 -3.4417 -2.9550  2.0463
  629SOL     OW 1885   0.127   0.332   2.027  0.3874  0.1118 -0.0205
  629SOL    HW1 1886   0.193   0.261   1.995 -2.1819 -1.3174  0.2204
  629SOL    HW2 1887   0.140   0.350   2.125 -1.3088  1.8544 -2.4929
  630SOL     OW 1888   2.250   1.009   1.910 -0.1765  0.1793 -0.3329
  630SOL    HW1 1889   2.331   1.063   1.884  2.9162 -1.8914  1.2125
  630SOL    HW2 1890   2.278   0.927   1.963  0.3802 -1.6499 -1.5921
  631SOL     OW 1891   1.514   0.056   0.826 -0.0961  0.3650  0.2913
  631SOL    HW1 1892   1.414   0.080   0.848 -0.9656  0.2379  1.0741
  631SOL    HW2 1893   1.509   0.003   0.735  0.1073  1.6736  0.6123
  632SOL     OW 1894   2.767   0.938   1.672  0.8864 -0.0217  0.1307
  632SOL    HW1 1895   2.792   0.997   1.592 -1.7439  0.5390 -1.5926
  632SOL    HW2 1896   2.794   0.841   1.660  0.4605  0.4278 -1.4968
  633SOL     OW 1897   0.817   0.502   2.919 -0.0407 -0.3150  0.7131
  633SOL    HW1 1898   0.804   0.402   2.908  1.9594  2.0364  0.7638
  633SOL    HW2 1899   0.917   0.530   2.911 -0.6390 -3.0074 -0.8464
  634SOL     OW 1900   0.412   2.525   2.982 -1.0184  0.4582  0.1174
  634SOL    HW1 1901   0.507   2.511   2.952 -2.3118 -2.0722 -3.5649
  634SOL    HW2 1902   0.354   2.586   2.925 -1.1489  1.4562  2.6420
  635SOL     OW 1903   0.015   1.007   1.056  0.0249  0.5790  0.4401
  635SOL    HW1 1904   3.043   1.023   0.989 -0.4748 -1.0118 -0.2279
  635SOL    HW2 1905   0.093   0.955   1.018 -1.1957  2.6822  0.6536
  636SOL     OW 1906   2.943   1.225   0.176 -0.1083  0.3427  0.2432
  636SOL    HW1 1907   2.988   1.288   0.117  1.7191 -2.1242  0.0999
  636SOL    HW2 1908   2.879   1.279   0.231  3.1944  0.3691 -1.3188
  637SOL     OW 1909   0.363   2.574   0.161  0.6397 -0.1840 -0.1964
  637SOL    HW1 1910   0.371   2.574   0.056 -0.3008  0.9458  0.8008
  637SOL    HW2 1911   0.288   2.634   0.195 -0.4413 -0.6023  0.2135
  638SOL     OW 1912   2.885   2.317   0.561 -0.1449  0.3635  0.6969
  638SOL    HW1 1913   2.953   2.354   0.625 -0.7021  2.1613 -1.2908
  638SOL    HW2 1914   2.791   2.341   0.593 -0.6043 -0.7584  0.1361
  639SOL     OW 1915   1.536   0.904   0.083 -0.1578 -0.5584  0.1657
  639SOL    HW1 1916   1.446   0.926   0.046  2.0374  0.4913  1.2594
  639SOL    HW2 1917   1.528   0.814   0.132  1.1505 -2.0295 -2.2205
  640SOL     OW 1918   1.759   2.605   1.465  0.0471  0.0882  0.4225
  640SOL    HW1 1919   1.748   2.541   1.541 -4.2211  0.1919 -0.5944
  640SOL    HW2 1920   1.747   2.559   1.376 -0.6254  1.4566 -1.9119
  641SOL     OW 1921   0.117   3.067   0.966 -0.2766  0.3305  0.4290
  641SOL    HW1 1922   0.133   0.024   0.888  3.3650  2.4293 -0.3026
  641SOL    HW2 1923   0.143   0.021   1.047  1.1769 -0.4833  1.7020
  642SOL     OW 1924   1.376   0.804   1.737  0.5848 -0.6353  0.5279
  642SOL    HW1 1925   1.438   0.758   1.809  3.5547 -1.9515 -0.1765
  642SOL    HW2 1926   1.308   0.869   1.778 -0.2467  0.1959 -2.7523
  643SOL     OW 1927   0.891   2.492   2.525 -0.2038  0.3449 -0.3410
  643SOL    HW1 1928   0.864   2.580   2.567  0.6237  0.0410 -0.7332
  643SOL    HW2 1929   0.855   2.488   2.428 -1.2272 -1.0033 -0.8063
  644SOL     OW 1930   1.153   2.394   2.917 -0.1417 -0.3837 -0.3196
  644SOL    HW1 1931   1.220   2.410   2.843 -1.9557 -1.7356  1.2468
  644SOL    HW2 1932   1.199   2.371   3.010  2.0772 -0.6173 -1.0203
  645SOL     OW 1933   1.498   1.395   1.932  0.0572 -0.5438  0.2545
  645SOL    HW1 1934   1.598   1.374   1.950 -0.8412  0.5541 -1.1803
  645SOL    HW2 1935   1.465   1.359   1.843  0.8198  0.5923 -1.6359
  646SOL     OW 1936   0.696   0.077   0.209 -0.0779 -0.1627  0.3478
  646SOL    HW1 1937   0.616   0.052   0.273  0.0959 -0.0000  1.0774
  646SOL    HW2 1938   0.661   0.131   0.128 -0.8339 -0.7325  0.6121
  647SOL     OW 1939   0.789   3.099   0.674  0.0231  0.1797 -0.3638
  647SOL    HW1 1940   0.823   3.009   0.640  3.9728  2.7072  0.0631
  647SOL    HW2 1941   0.811   0.009   0.773 -3.2730  2.8460  1.9090
  648SOL     OW 1942   2.651   2.656   0.940  0.2948 -0.3369 -0.8052
  648SOL    HW1 1943   2.588   2.703   0.872 -2.1284  1.4352 -0.3287
  648SOL    HW2 1944   2.699   2.581   0.895 -1.1423  1.2412  0.7318
  649SOL     OW 1945   0.633   2.198   2.846  0.1121 -0.2699  0.2997
  649SOL    HW1 1946   0.568   2.137   2.792  0.3366 -2.3637 -2.3509
  649SOL    HW2 1947   0.646   2.164   2.936 -2.8635 -1.4012 -2.5988
  650SOL     OW 1948   2.081   1.759   2.008  0.3813  0.5338 -0.0131
  650SOL    HW1 1949   2.063   1.742   2.109 -0.3282 -3.0056  0.9867
  650SOL    HW2 1950   2.180   1.740   1.992  0.0554 -0.8284 -1.0065
  651SOL     OW 1951   2.977   2.905   2.367 -0.0459 -0.5243  0.0839
  651SOL    HW1 1952   3.071   2.943   2.372  2.2132 -0.3877 -0.9954
  651SOL    HW2 1953   2.949   2.877   2.269  1.3087  0.8682 -2.2634
  652SOL     OW 1954   2.801   1.820   0.606  0.1965 -0.5558  0.4113
  652SOL    HW1 1955   2.756   1.856   0.693 -0.5911 -1.3659  0.4356
  652SOL    HW2 1956   2.849   1.897   0.561  0.1149 -0.5610  1.4377
  653SOL     OW 1957   2.490   0.567   1.071 -0.0834  0.0754  0.9591
  653SOL    HW1 1958   2.395   0.606   1.077 -1.0315 -0.9012 -0.6357
  653SOL    HW2 1959   2.495   0.488   1.132 -2.7183 -0.8103 -0.8663
  654SOL     OW 1960   0.818   0.210   2.930  0.0764 -0.4468  0.2889
  654SOL    HW1 1961   0.890   0.159   2.979  0.1331 -0.0914 -0.8510
  654SOL    HW2 1962   0.733   0.206   2.986 -1.5138 -1.5691 -1.5466
  655SOL     OW 1963   0.884   0.023   1.378  0.0761  0.1012  0.1231
  655SOL    HW1 1964   0.834   0.065   1.302  0.7282  3.1140 -0.5889
  655SOL    HW2 1965   0.955   3.062   1.338  0.5660  1.5860  3.2713
  656SOL     OW 1966   0.186   2.696   2.122  0.1640 -0.3130  0.3439
  656SOL    HW1 1967   0.278   2.678   2.085 -1.2179 -0.0999  1.5809
  656SOL    HW2 1968   0.146   2.780   2.078 -1.3001  0.7770 -1.6760
  657SOL     OW 1969   2.345   0.527   0.133  0.3911 -0.3252  0.2321
  657SOL    HW1 1970   2.317   0.574   0.218  0.9484 -3.0040  1.1500
  657SOL    HW2 1971   2.428   0.559   0.088 -1.3245 -1.7056  2.6462
  658SOL     OW 1972   1.951   1.549   1.109 -0.0982  0.1393 -0.0527
  658SOL    HW1 1973   1.994   1.462   1.144  3.4516 -1.8003  0.8884
  658SOL    HW2 1974   2.022   1.626   1.098 -0.8405 -0.0190 -1.2340
  659SOL     OW 1975   2.640   2.142   2.814  0.4232 -0.1487  0.4655
  659SOL    HW1 1976   2.635   2.244   2.813  1.4877  1.1498  2.3237
  659SOL    HW2 1977   2.681   2.114   2.904  0.5058  2.6939  1.0848
  660SOL     OW 1978   1.111   0.037   0.113 -0.2754 -0.0484  0.0831
  660SOL    HW1 1979   1.208   0.007   0.102  0.2957 -0.6232 -1.3910
  660SOL    HW2 1980   1.111   0.114   0.179  3.1806 -1.3274 -1.3699
  661SOL     OW 1981   2.341   0.086   0.342 -0.1410 -0.6216  0.3467
  661SOL    HW1 1982   2.281   0.100   0.255 -1.3744  1.0456  0.0567
  661SOL    HW2 1983   2.396   0.171   0.349  0.1789  0.7130 -1.4711
  662SOL     OW 1984   0.542   0.381   1.124 -0.4276 -0.1194 -0.3876
  662SOL    HW1 1985   0.591   0.348   1.208  2.5453 -1.4212  0.1082
  662SOL    HW2 1986   0.530   0.300   1.056  0.8259 -3.5303 -2.5932
  663SOL     OW 1987   1.552   3.009   2.452  0.2866 -0.0120 -0.3392
  663SOL    HW1 1988   1.477   3.071   2.424 -2.8370 -0.7239 -1.0309
  663SOL    HW2 1989   1.565   2.935   2.382 -0.2775 -0.3619  0.0324
  664SOL     OW 1990   0.919   2.363   1.647 -0.5324  0.3696 -0.3075
  664SOL    HW1 1991   0.908   2.406   1.552 -1.7271 -0.9296  0.7380
  664SOL    HW2 1992   0.978   2.421   1.698  0.2315  0.3060 -1.4812
  665SOL     OW 1993   0.853   2.343   2.077 -0.1440 -0.4784  0.4175
  665SOL    HW1 1994   0.788   2.334   2.000 -1.4947 -0.8964 -3.2352
  665SOL    HW2 1995   0.952   2.345   2.041  0.4809  2.1711 -2.4378
  666SOL     OW 1996   0.151   2.871   2.663  0.3004  0.7280  0.0715
  666SOL    HW1 1997   0.156   2.883   2.562 -1.9959 -1.6785  0.6387
  666SOL    HW2 1998   0.228   2.815   2.698 -1.8043 -0.0248 -1.3921
  667SOL     OW 1999   1.422   1.607   1.501  0.1681  0.4576  0.1012
  667SOL    HW1 2000   1.322   1.628   1.502 -0.3734 -3.8685 -0.4855
  667SOL    HW2 2001   1.442   1.550   1.424 -0.2257 -1.5006  0.4760
  668SOL     OW 2002   1.292   0.436   1.803  0.1665  0.2691  0.4075
  668SOL    HW1 2003   1.309   0.335   1.821 -1.1580 -2.0833 -0.2620
  668SOL    HW2 2004   1.193   0.455   1.823  1.0219  1.8956 -1.2173
  669SOL     OW 2005   2.654   2.342   1.282  0.4150  0.1831  0.4419
  669SOL    HW1 2006   2.609   2.322   1.195  1.7885  0.3464 -0.3798
  669SOL    HW2 2007   2.614   2.288   1.361  0.2425  0.0370  1.0288
  670SOL     OW 2008   1.528   2.532   2.837  0.0390  0.2506 -0.8681
  670SOL    HW1 2009   1.450   2.488   2.785 -3.5148  0.8727  0.7968
  670SOL    HW2 2010   1.524   2.507   2.936  0.5563  1.0081 -2.2153
  671SOL     OW 2011   1.369   1.129   0.594  0.0871  0.2872  0.1861
  671SOL    HW1 2012   1.373   1.125   0.696 -0.2311  3.2098 -1.7664
  671SOL    HW2 2013   1.319   1.043   0.559  0.4819 -1.4776 -1.6656
  672SOL     OW 2014   2.991   1.234   2.484  0.3280  0.3781 -0.3219
  672SOL    HW1 2015   2.938   1.294   2.549 -0.8550 -1.0396  0.9131
  672SOL    HW2 2016   2.948   1.233   2.390  0.4685 -1.2936  0.7401
  673SOL     OW 2017   0.055   1.889   1.460 -0.9432 -0.5647 -0.5350
  673SOL    HW1 2018   3.099   1.944   1.522 -0.1404  0.0621  0.4783
  673SOL    HW2 2019   0.032   1.792   1.466  2.6730  0.5502 -0.5545
  674SOL     OW 2020   0.453   2.696   2.049 -0.3515 -0.6354  0.3908
  674SOL    HW1 2021   0.529   2.699   2.119  0.1127 -1.3752  0.6120
  674SOL    HW2 2022   0.480   2.638   1.968  1.4032 -0.6622 -1.0363
  675SOL     OW 2023   0.756   0.994   1.770  0.6452 -0.5156  0.0559
  675SOL    HW1 2024   0.678   1.028   1.708  3.0356  0.3994 -0.1346
  675SOL    HW2 2025   0.729   0.983   1.870 -1.0265  0.7229  0.1311
  676SOL     OW 2026   2.527   0.253   1.026  0.6360  0.1734  0.1749
  676SOL    HW1 2027   2.489   0.294   1.112  1.3007  3.1933  0.0090
  676SOL    HW2 2028   2.576   0.166   1.049 -0.0800  0.3670  2.1957
  677SOL     OW 2029   2.309   1.535   0.078 -0.4008 -0.0435 -0.0103
  677SOL    HW1 2030   2.269   1.477   0.153  0.3861 -2.0939  0.5151
  677SOL    HW2 2031   2.309   1.485   3.090  0.2945 -2.0940 -2.5185
  678SOL     OW 2032   2.726   0.772   1.276  0.1095  0.2178  0.2090
  678SOL    HW1 2033   2.675   0.792   1.188  1.4169 -2.9326 -2.9170
  678SOL    HW2 2034   2.808   0.834   1.290  0.6935  1.7817  1.5010
  679SOL     OW 2035   2.527   0.288   0.385 -0.4813  0.0200 -0.6933
  679SOL    HW1 2036   2.591   0.248   0.452 -0.6743  1.8572 -0.2522
  679SOL    HW2 2037   2.516   0.389   0.401 -0.0494  2.1664 -2.0523
  680SOL     OW 2038   0.298   1.690   1.965 -0.7525  0.6767 -0.4480
  680SOL    HW1 2039   0.394   1.731   1.963 -1.8329  0.5411  1.5514
  680SOL    HW2 2040   0.282   1.653   2.066 -2.6298 -1.2127  0.9142
  681SOL     OW 2041   2.436   2.019   1.217  0.3319 -0.0563 -0.1004
  681SOL    HW1 2042   2.331   2.013   1.228 -2.9997 -0.1074  1.4100
  681SOL    HW2 2043   2.465   1.927   1.179  1.7031 -0.2591 -0.4993
  682SOL     OW 2044   2.900   1.870   2.612  0.0089 -0.0638  0.0212
  682SOL    HW1 2045   2.875   1.782   2.569 -1.7858 -2.3050 -2.3599
  682SOL    HW2 2046   2.931   1.940   2.546 -0.7049 -0.0917  0.2195
  683SOL     OW 2047   0.269   2.067   1.495 -0.2226 -0.4355  0.7042
  683SOL    HW1 2048   0.225   2.155   1.460 -1.4589  3.3839 -0.3885
  683SOL    HW2 2049   0.203   1.993   1.486  0.5267  0.8584 -0.2462
  684SOL     OW 2050   2.884   1.269   2.256 -0.5103 -0.0040 -0.0399
  684SOL    HW1 2051   2.868   1.198   2.180  1.4418  0.6347 -2.0338
  684SOL    HW2 2052   2.959   1.326   2.215  1.5740  0.7800 -0.6030
  685SOL     OW 2053   1.641   1.061   0.484 -0.4183 -0.0449  0.1143
  685SOL    HW1 2054   1.653   1.107   0.577  0.8663  0.5084  2.7440
  685SOL    HW2 2055   1.638   0.955   0.503 -1.4840 -2.1734  1.0942
  686SOL     OW 2056   0.396   0.189   0.956  0.0632 -0.1913 -0.1137
  686SOL    HW1 2057   0.446   0.105   0.948 -2.4472  4.0886 -1.5572
  686SOL    HW2 2058   0.298   0.173   0.957  0.2361  0.1073 -0.3978
  687SOL     OW 2059   1.312   1.896   2.718 -0.3318  0.3139  0.1604
  687SOL    HW1 2060   1.230   1.915   2.656 -0.5669 -0.1519 -0.0651
  687SOL    HW2 2061   1.386   1.856   2.659  2.3009 -2.2096 -1.0221
  688SOL     OW 2062   1.410   1.393   1.675 -0.3243 -0.0592  0.0074
  688SOL    HW1 2063   1.399   1.484   1.636  1.4559 -0.4200  0.4742
  688SOL    HW2 2064   1.325   1.343   1.658 -1.6150 -1.6149  1.8793
  689SOL     OW 2065   2.317   0.124   0.607  0.1156 -0.0571  0.4027
  689SOL    HW1 2066   2.304   0.136   0.504  0.5794 -3.1848  0.6801
  689SOL    HW2 2067   2.312   0.026   0.633  1.1091 -0.5909  0.0129
  690SOL     OW 2068   0.176   1.335   1.121  0.0464 -0.4866  0.0399
  690SOL    HW1 2069   0.152   1.339   1.024 -0.1842  1.6898 -1.1484
  690SOL    HW2 2070   0.137   1.256   1.163  0.0608  2.9907 -1.2569
  691SOL     OW 2071   0.148   2.132   1.107  0.0008 -0.0070  0.2394
  691SOL    HW1 2072   0.079   2.144   1.180  0.0872 -0.5711 -0.3186
  691SOL    HW2 2073   0.129   2.209   1.043  0.2655  1.5970 -0.4735
  692SOL     OW 2074   2.011   0.561   1.531 -0.0400  0.3866 -0.3510
  692SOL    HW1 2075   2.005   0.585   1.433 -3.2720 -1.0995  1.3733
  692SOL    HW2 2076   2.103   0.568   1.569 -0.5845  3.5400 -1.2984
  693SOL     OW 2077   0.575   1.729   2.365 -0.2512 -0.2258  0.2259
  693SOL    HW1 2078   0.627   1.808   2.323  2.4291 -0.9117  1.7629
  693SOL    HW2 2079   0.568   1.746   2.462 -1.2845  1.9032 -0.2310
  694SOL     OW 2080   1.499   1.487   1.281  0.5418 -0.1820  0.0352
  694SOL    HW1 2081   1.515   1.577   1.242 -2.3314 -2.2741  2.2939
  694SOL    HW2 2082   1.420   1.444   1.232  1.3608 -0.1842  2.3645
  695SOL     OW 2083   0.990   1.382   0.524  0.6317  0.5295 -0.0104
  695SOL    HW1 2084   1.039   1.404   0.437 -1.0234  0.3860 -3.7429
  695SOL    HW2 2085   0.909   1.442   0.549 -0.8751 -0.8695  1.1974
  696SOL     OW 2086   0.788   2.761   0.258  0.2039 -0.4297 -0.0851
  696SOL    HW1 2087   0.798   2.676   0.203 -0.7286  0.2047 -2.0967
  696SOL    HW2 2088   0.812   2.847   0.207  0.2594  0.4803  0.3313
  697SOL     OW 2089   1.435   0.606   1.338  0.0103  0.5709 -0.3017
  697SOL    HW1 2090   1.537   0.597   1.346  4.1479  0.1280  0.6370
  697SOL    HW2 2091   1.393   0.528   1.393  1.2434  0.2108  2.6768
  698SOL     OW 2092   1.679   1.669   2.083  0.0889  0.0618  0.1550
  698SOL    HW1 2093   1.745   1.597   2.104  1.4588  0.1527  0.3616
  698SOL    HW2 2094   1.610   1.631   2.018  0.5522  0.3030 -1.1671
  699SOL     OW 2095   2.659   0.595   1.880  0.6812 -0.2830 -0.0847
  699SOL    HW1 2096   2.619   0.621   1.974  0.6964  0.8332 -1.7355
  699SOL    HW2 2097   2.687   0.496   1.875  0.0027  1.1353 -0.3999
  700SOL     OW 2098   1.298   2.200   0.602 -0.4544  0.1446  0.0238
  700SOL    HW1 2099   1.352   2.220   0.520 -3.1354 -2.8129  1.5204
  700SOL    HW2 2100   1.289   2.101   0.617  0.2254  1.0677  1.7451
  701SOL     OW 2101   2.327   2.707   2.197  0.2534  0.1552  0.5058
  701SOL    HW1 2102   2.366   2.611   2.210 -2.4107 -1.6366  0.9220
  701SOL    HW2 2103   2.321   2.765   2.280 -0.6353 -0.0630 -2.3853
  702SOL     OW 2104   0.797   2.835   0.513  0.8600 -0.1366  0.0669
  702SOL    HW1 2105   0.733   2.782   0.572 -1.3552  0.1207 -0.2295
  702SOL    HW2 2106   0.783   2.806   0.413 -1.2108 -1.3818 -1.8491
  703SOL     OW 2107   2.106   2.948   2.118 -1.2836 -0.8341 -0.4852
  703SOL    HW1 2108   2.098   2.899   2.205  0.2826 -0.9964 -1.4869
  703SOL    HW2 2109   2.181   3.016   2.125 -0.2027  3.1040 -1.8214
  704SOL     OW 2110   2.494   2.229   0.179 -0.4378  0.1553  0.0141
  704SOL    HW1 2111   2.515   2.203   0.280  0.5780  0.0385  2.1070
  704SOL    HW2 2112   2.519   2.329   0.158  2.1631  0.4463 -0.6956
  705SOL     OW 2113   2.444   2.453   2.243 -0.2982  0.8419  0.3447
  705SOL    HW1 2114   2.523   2.401   2.292  3.1818 -0.5737  2.3287
  705SOL    HW2 2115   2.435   2.408   2.152  1.1508 -0.4193 -0.9755
  706SOL     OW 2116   2.646   3.096   1.097  0.0142  0.1248 -0.3830
  706SOL    HW1 2117   2.726   0.051   1.088 -0.0357  0.3923 -0.6784
  706SOL    HW2 2118   2.634   3.066   1.195  1.3519  0.3921  2.1563
  707SOL     OW 2119   0.844   0.272   2.485 -0.3556  0.1991 -0.0999
  707SOL    HW1 2120   0.875   0.188   2.540  0.2335 -1.7422  1.6019
  707SOL    HW2 2121   0.752   0.295   2.523 -2.5396 -1.8815 -0.9928
  708SOL     OW 2122   0.267   2.109   1.780  0.3793 -0.0742 -0.0784
  708SOL    HW1 2123   0.263   2.095   1.680 -0.6798 -0.2085 -0.3995
  708SOL    HW2 2124   0.225   2.024   1.822 -1.5009 -1.7204 -0.3815
  709SOL     OW 2125   1.327   0.166   1.775  0.4634 -0.1070 -0.0791
  709SOL    HW1 2126   1.411   0.130   1.725  1.3463 -1.1043 -0.3628
  709SOL    HW2 2127   1.302   0.108   1.854 -2.9087 -0.1352 -2.6511
  710SOL     OW 2128   1.516   2.850   2.680 -0.3724 -0.1609  0.1281
  710SOL    HW1 2129   1.585   2.895   2.738 -1.8844 -0.7012 -1.7073
  710SOL    HW2 2130   1.502   2.907   2.597  1.3568 -0.2715  1.7124
  711SOL     OW 2131   0.812   2.237   2.632  0.3992  0.2108 -1.0317
  711SOL    HW1 2132   0.743   2.222   2.706  0.2513 -0.1766  1.0946
  711SOL    HW2 2133   0.837   2.331   2.613  0.7442 -0.1649 -0.2295
  712SOL     OW 2134   0.985   2.043   2.751 -0.0704  0.2265 -0.4835
  712SOL    HW1 2135   0.908   2.093   2.713  0.1945  0.8438  1.7531
  712SOL    HW2 2136   0.995   2.064   2.851  2.0673 -0.4998 -0.7651
  713SOL     OW 2137   2.074   1.207   1.923  0.4433  0.7947  0.2192
  713SOL    HW1 2138   2.119   1.301   1.908  2.0312  0.3842 -1.7160
  713SOL    HW2 2139   2.146   1.138   1.908  0.1329  2.6106  1.5760
  714SOL     OW 2140   0.915   1.264   2.076  0.1262 -0.4240  0.4746
  714SOL    HW1 2141   0.823   1.276   2.029  0.2280  0.4435 -4.0077
  714SOL    HW2 2142   0.925   1.169   2.113 -1.2701  0.1115 -0.2443
  715SOL     OW 2143   2.774   0.568   0.308 -0.2659 -0.1748  0.0006
  715SOL    HW1 2144   2.827   0.494   0.356  0.1908  2.3882  0.9647
  715SOL    HW2 2145   2.681   0.580   0.350  0.5985 -0.4165  0.0878
  716SOL     OW 2146   2.872   2.566   1.613 -0.6292  0.3018 -0.1094
  716SOL    HW1 2147   2.854   2.611   1.704  2.5638 -0.2612  0.8996
  716SOL    HW2 2148   2.968   2.578   1.591 -0.6442 -0.8955  0.1187
  717SOL     OW 2149   2.217   0.751   0.862  0.0313  0.1332  0.1995
  717SOL    HW1 2150   2.134   0.807   0.847 -0.2313  1.0007 -0.5707
  717SOL    HW2 2151   2.276   0.761   0.779 -0.5825 -0.4990 -2.1923
  718SOL     OW 2152   1.150   1.555   1.452  0.0686  0.0269 -0.5383
  718SOL    HW1 2153   1.094   1.546   1.538 -1.6119 -1.5184 -0.2976
  718SOL    HW2 2154   1.126   1.641   1.400 -0.3104  0.1133 -2.1012
  719SOL     OW 2155   2.824   0.045   2.841 -0.7822 -0.3841  0.6841
  719SOL    HW1 2156   2.790   3.054   2.858  1.2999 -0.0945 -0.2051
  719SOL    HW2 2157   2.926   0.048   2.846  0.1962  1.6579  1.2481
  720SOL     OW 2158   0.851   0.402   0.984 -0.0597  0.0183 -0.0827
  720SOL    HW1 2159   0.878   0.385   0.886 -0.4007 -0.4858 -0.8358
  720SOL    HW2 2160   0.822   0.499   0.997 -1.9367  1.9310  0.5174
  721SOL     OW 2161   2.886   0.661   0.553 -0.2220  0.5100  0.4627
  721SOL    HW1 2162   2.861   0.688   0.456 -0.4369  0.1407  0.4486
  721SOL    HW2 2163   2.974   0.606   0.553 -1.7686  1.2200 -0.0839
  722SOL     OW 2164   0.921   2.095   2.180  0.5506  0.1785  0.3289
  722SOL    HW1 2165   0.903   2.191   2.149  0.1224 -0.7591 -1.1769
  722SOL    HW2 2166   1.004   2.063   2.132 -1.2463  3.5970 -0.2223
  723SOL     OW 2167   1.727   0.073   1.220  0.5487  0.3262 -0.2419
  723SOL    HW1 2168   1.662   0.139   1.172 -2.1891  1.9387 -3.9879
  723SOL    HW2 2169   1.824   0.103   1.224  0.5877  0.4456  2.9062
  724SOL     OW 2170   1.612   1.925   1.587 -0.3741  0.3854 -0.4773
  724SOL    HW1 2171   1.561   1.956   1.671 -0.5781  4.0238  3.5784
  724SOL    HW2 2172   1.642   1.826   1.589 -0.6960  3.1388 -0.9912
  725SOL     OW 2173   1.181   2.512   1.252  0.1573 -0.0190 -0.1613
  725SOL    HW1 2174   1.131   2.589   1.303 -4.7253 -0.0012  1.2784
  725SOL    HW2 2175   1.174   2.537   1.153  0.2534 -0.1602 -0.2535
  726SOL     OW 2176   2.009   2.833   0.167  0.0125 -0.3665 -0.0757
  726SOL    HW1 2177   2.008   2.924   0.214 -0.4186  1.1468  1.2154
  726SOL    HW2 2178   1.959   2.843   0.079  1.9080 -1.0630 -1.6578
  727SOL     OW 2179   1.588   1.691   0.668 -0.1565 -0.4625 -0.9294
  727SOL    HW1 2180   1.646   1.673   0.588  2.1143  2.5854  2.5594
  727SOL    HW2 2181   1.508   1.629   0.677  0.6886 -0.2673 -1.5373
  728SOL     OW 2182   2.006   2.563   1.894 -0.1432  0.1306 -0.0406
  728SOL    HW1 2183   2.055   2.535   1.981 -0.3825 -1.0564  2.0908
  728SOL    HW2 2184   1.956   2.652   1.903  0.5378 -0.0914 -2.4401
  729SOL     OW 2185   2.117   2.401   1.182  0.4353  0.1532  0.4838
  729SOL    HW1 2186   2.027   2.388   1.234  0.0619  3.6145 -0.6445
  729SOL    HW2 2187   2.192   2.439   1.235  0.4990 -1.9077 -1.8249
  730SOL     OW 2188   1.720   1.012   2.402  0.1196 -0.3534 -0.1758
  730SOL    HW1 2189   1.651   1.075   2.354 -3.7752  0.8945 -0.6110
  730SOL    HW2 2190   1.673   0.989   2.488 -0.0787  1.0090  1.0592
  731SOL     OW 2191   1.013   2.929   1.205  0.1365 -0.1811 -0.6901
  731SOL    HW1 2192   1.088   2.942   1.148 -2.1095  1.2010 -1.6105
  731SOL    HW2 2193   1.037   2.848   1.264  1.3479 -1.4899 -1.6134
  732SOL     OW 2194   1.174   2.938   0.962  0.2983  0.3577 -0.6894
  732SOL    HW1 2195   1.168   2.879   0.881  1.7784 -0.6193  1.7336
  732SOL    HW2 2196   1.262   2.916   1.005  0.2881 -2.8348 -3.3153
  733SOL     OW 2197   1.041   1.170   0.714  0.3484 -0.4428  0.2025
  733SOL    HW1 2198   1.028   1.235   0.638 -1.1581  1.5944 -0.7033
  733SOL    HW2 2199   1.126   1.116   0.700 -1.3986 -0.2633 -0.8656
  734SOL     OW 2200   2.485   1.942   2.670 -1.1611  0.0868 -0.3035
  734SOL    HW1 2201   2.548   1.994   2.733 -0.1885 -0.6761 -1.3545
  734SOL    HW2 2202   2.528   1.913   2.582  1.5531 -0.9969  0.7046
  735SOL     OW 2203   0.831   0.142   1.105  0.1845  0.3655 -0.0915
  735SOL    HW1 2204   0.870   0.090   1.028  0.5134 -1.4979 -0.9896
  735SOL    HW2 2205   0.812   0.238   1.079 -0.5566 -0.0186  2.4932
  736SOL     OW 2206   1.760   2.390   2.700 -0.6765  0.1485 -0.1067
  736SOL    HW1 2207   1.752   2.303   2.650 -1.7961 -0.5495  5.0257
  736SOL    HW2 2208   1.700   2.386   2.781  1.8825  0.6861 -1.5599
  737SOL     OW 2209   1.010   2.687   1.368 -0.0770  0.5263 -0.3725
  737SOL    HW1 2210   0.942   2.612   1.366 -0.0595  0.3160 -1.3146
  737SOL    HW2 2211   1.042   2.702   1.464  0.4847  0.3378 -2.6379
  738SOL     OW 2212   1.891   2.963   2.431 -0.4192  0.4042 -0.5059
  738SOL    HW1 2213   1.877   3.065   2.421 -2.4789  1.7593 -2.8885
  738SOL    HW2 2214   1.850   2.933   2.523 -2.9927 -1.0378 -2.6861
  739SOL     OW 2215   1.459   2.404   2.091 -0.4499 -0.3547 -0.5003
  739SOL    HW1 2216   1.375   2.369   2.140  2.4420  1.9970 -3.0938
  739SOL    HW2 2217   1.536   2.338   2.081 -1.1314  0.9648  0.6079
  740SOL     OW 2218   1.434   2.466   1.339 -0.6724 -0.3881 -0.3581
  740SOL    HW1 2219   1.337   2.457   1.313  0.9600 -3.9274  0.6605
  740SOL    HW2 2220   1.455   2.565   1.361 -0.3501  1.2613 -1.1044
  741SOL     OW 2221   2.590   1.002   3.074 -0.9151 -0.0538 -0.6071
  741SOL    HW1 2222   2.632   1.085   0.009 -0.3043 -0.6204 -2.4714
  741SOL    HW2 2223   2.494   0.985   0.005 -0.6344 -1.3403  0.9898
  742SOL     OW 2224   0.558   1.768   2.665 -0.0249  0.1472 -0.3936
  742SOL    HW1 2225   0.518   1.862   2.684  0.3165 -2.1132  0.1418
  742SOL    HW2 2226   0.657   1.773   2.643 -0.7009  1.2986 -0.3226
  743SOL     OW 2227   0.315   0.993   2.642 -0.1911  0.6060 -0.4566
  743SOL    HW1 2228   0.392   1.054   2.630  1.6857 -0.3942  0.7299
  743SOL    HW2 2229   0.259   1.023   2.721  1.6442  2.4356  0.9035
  744SOL     OW 2230   2.301   2.338   0.993  0.0236  0.2768 -0.2376
  744SOL    HW1 2231   2.223   2.343   1.054  0.1560 -0.5443 -1.7508
  744SOL    HW2 2232   2.270   2.360   0.900  1.1424 -0.9832 -0.2415
  745SOL     OW 2233   2.219   1.829   1.471 -0.2604  0.4346  0.4322
  745SOL    HW1 2234   2.260   1.766   1.403 -1.7450 -1.3453  3.8432
  745SOL    HW2 2235   2.236   1.917   1.433 -0.9433 -0.3441  4.1553
  746SOL     OW 2236   1.996   0.889   0.764 -0.5904 -0.2434  0.1699
  746SOL    HW1 2237   1.952   0.814   0.719  2.4551  3.0161  1.8609
  746SOL    HW2 2238   1.935   0.938   0.830 -3.2446  0.4215 -0.4107
  747SOL     OW 2239   1.649   2.148   0.713 -0.1846 -0.1791  0.4764
  747SOL    HW1 2240   1.628   2.049   0.727 -1.5232 -0.5239 -3.3329
  747SOL    HW2 2241   1.691   2.159   0.623  0.3618  0.5919 -0.2304
  748SOL     OW 2242   0.613   1.803   0.607  0.1908  0.3946 -0.3828
  748SOL    HW1 2243   0.643   1.829   0.512  1.2979  1.8664 -0.6905
  748SOL    HW2 2244   0.568   1.882   0.655 -1.6752  1.3724 -1.9737
  749SOL     OW 2245   2.900   0.037   2.183 -0.0475 -0.1449 -0.2016
  749SOL    HW1 2246   2.967   0.105   2.159  1.3693 -2.0364 -2.3843
  749SOL    HW2 2247   2.894   0.013   2.281 -0.7600 -1.3734 -1.3156
  750SOL     OW 2248   1.699   0.337   1.487  0.0438 -0.0020  0.1805
  750SOL    HW1 2249   1.799   0.308   1.481 -1.3280 -0.5547  1.9250
  750SOL    HW2 2250   1.677   0.431   1.443  0.2062  0.6006 -1.5356
  751SOL     OW 2251   1.756   2.829   3.087  0.5362  0.2484 -0.0093
  751SOL    HW1 2252   1.668   2.821   0.032 -0.7404  1.5094 -1.1835
  751SOL    HW2 2253   1.764   2.752   3.019 -1.6609 -0.9819 -2.2059
  752SOL     OW 2254   1.906   2.063   0.210 -0.0757  0.0265  0.0180
  752SOL    HW1 2255   1.832   1.995   0.212  3.0898 -0.5588  0.4565
  752SOL    HW2 2256   1.899   2.129   0.127  0.3347  0.5200 -3.5385
  753SOL     OW 2257   1.976   1.097   2.313 -0.3728  0.1256  0.2494
  753SOL    HW1 2258   1.889   1.067   2.349 -1.0723  1.2059 -0.0434
  753SOL    HW2 2259   2.012   1.020   2.258 -1.0920 -0.4319  1.7450
  754SOL     OW 2260   0.366   2.716   0.837 -0.0353 -0.2816 -0.3034
  754SOL    HW1 2261   0.379   2.742   0.930  1.3337 -0.7054 -2.7173
  754SOL    HW2 2262   0.292   2.767   0.792  1.6464 -0.1573 -1.7377
  755SOL     OW 2263   2.229   0.464   0.863  0.2915  0.0785 -0.0583
  755SOL    HW1 2264   2.327   0.437   0.853 -0.0052 -0.4324  2.6478
  755SOL    HW2 2265   2.221   0.565   0.871  0.1132 -0.1975  1.7782
  756SOL     OW 2266   1.070   1.483   2.812 -0.3050  0.8199  0.1521
  756SOL    HW1 2267   1.069   1.577   2.848 -2.3076 -1.7119 -0.0912
  756SOL    HW2 2268   1.152   1.437   2.857 -0.0433  2.2352  0.2902
  757SOL     OW 2269   2.253   2.900   1.180  0.2584 -0.5699 -0.0642
  757SOL    HW1 2270   2.340   2.855   1.199 -0.1563  1.8728  1.2364
  757SOL    HW2 2271   2.241   2.989   1.228 -1.2460 -2.4914 -2.3424
  758SOL     OW 2272   0.788   2.606   1.771  0.5614  0.1328  0.4182
  758SOL    HW1 2273   0.721   2.566   1.836  2.0322 -1.2672 -3.2221
  758SOL    HW2 2274   0.747   2.603   1.676 -2.6524  0.6193 -1.9732
  759SOL     OW 2275   2.065   1.294   1.222  0.2664 -0.0652  0.1773
  759SOL    HW1 2276   2.133   1.248   1.160 -0.8916  1.9338 -1.5163
  759SOL    HW2 2277   2.095   1.296   1.322  0.1594  1.3440  0.9164
  760SOL     OW 2278   2.002   1.029   1.510  0.0933 -0.6562 -0.8201
  760SOL    HW1 2279   2.038   1.126   1.522 -1.8368  1.2518 -1.2727
  760SOL    HW2 2280   2.045   0.975   1.586  1.6562 -3.1139  0.4905
  761SOL     OW 2281   2.003   3.047   0.331 -0.2301  0.1532  0.0544
  761SOL    HW1 2282   1.928   0.009   0.340 -2.2757 -1.7999 -0.9326
  761SOL    HW2 2283   2.033   3.011   0.422  1.4555 -2.9583  2.0419
  762SOL     OW 2284   1.871   2.248   0.008 -0.4280  0.1104  0.1531
  762SOL    HW1 2285   1.954   2.239   3.063 -0.5698 -3.1019  0.5075
  762SOL    HW2 2286   1.851   2.345   0.033  0.3377  0.2461 -0.5847
  763SOL     OW 2287   0.634   0.919   1.051  0.7729 -0.7515 -0.2097
  763SOL    HW1 2288   0.707   0.861   1.008 -1.2596 -1.9459 -0.1012
  763SOL    HW2 2289   0.661   0.939   1.147  2.4876  1.2779 -1.5647
  764SOL     OW 2290   2.735   2.126   3.097 -0.4799  0.3852  0.0525
  764SOL    HW1 2291   2.680   2.183   0.058  0.2549  0.7879  0.1078
  764SOL    HW2 2292   2.765   2.041   0.042 -0.9426 -3.7677  0.4904
  765SOL     OW 2293   0.774   0.112   2.028  0.4065  0.3000  0.2534
  765SOL    HW1 2294   0.835   0.144   2.103 -1.5490  0.7051  1.3386
  765SOL    HW2 2295   0.805   0.161   1.944 -0.6777 -2.1486  3.2994
  766SOL     OW 2296   0.154   1.233   2.367 -0.1784 -0.4806 -0.2274
  766SOL    HW1 2297   0.075   1.186   2.414 -2.9208 -1.6473 -1.5809
  766SOL    HW2 2298   0.175   1.313   2.424  1.3858 -0.5295 -1.5498
  767SOL     OW 2299   3.042   1.723   1.737  0.2997 -0.3585  0.1853
  767SOL    HW1 2300   2.944   1.741   1.737 -1.3491  3.7076 -0.4298
  767SOL    HW2 2301   3.068   1.675   1.651  0.4609 -0.7088  2.7550
  768SOL     OW 2302   1.008   0.839   2.913 -0.2331 -0.4737 -0.0641
  768SOL    HW1 2303   0.992   0.806   3.007  2.2457  3.4891 -1.6461
  768SOL    HW2 2304   1.070   0.921   2.920  0.0317 -3.0172  0.7798
  769SOL     OW 2305   2.055   2.704   0.392 -0.3861 -0.2199 -0.3802
  769SOL    HW1 2306   2.099   2.616   0.356  1.0040  1.2371  0.3834
  769SOL    HW2 2307   2.029   2.764   0.315 -0.3549  0.0968 -0.1537
  770SOL     OW 2308   2.998   0.311   2.615 -0.3044  0.1922  0.1245
  770SOL    HW1 2309   2.971   0.313   2.516  0.4268  1.3493 -1.2355
  770SOL    HW2 2310   2.921   0.341   2.674 -1.2415 -1.4892 -2.0205
  771SOL     OW 2311   1.300   2.219   1.687 -0.2580 -0.1466 -0.7743
  771SOL    HW1 2312   1.258   2.129   1.658  0.3639 -0.9218 -0.1102
  771SOL    HW2 2313   1.374   2.242   1.624 -0.5331  0.5066  0.9961
  772SOL     OW 2314   0.648   0.693   3.033  0.4846 -0.4975 -0.1564
  772SOL    HW1 2315   0.683   0.611   2.983  2.0214  0.3963  2.2038
  772SOL    HW2 2316   0.565   0.732   2.993  0.1487 -0.6085 -1.6742
  773SOL     OW 2317   2.988   1.307   1.480 -0.9464 -0.3136  0.3763
  773SOL    HW1 2318   2.925   1.359   1.539 -1.3834 -0.8694 -0.2276
  773SOL    HW2 2319   3.049   1.372   1.429 -2.2142 -1.6736 -0.3449
  774SOL     OW 2320   1.487   0.709   0.269  0.2678 -0.2560  0.0683
  774SOL    HW1 2321   1.429   0.639   0.225 -1.7855 -2.1793 -0.2270
  774SOL    HW2 2322   1.520   0.677   0.361  0.2998 -0.1910  0.6523
  775SOL     OW 2323   2.216   2.812   2.999  0.1790 -0.0026  0.3349
  775SOL    HW1 2324   2.251   2.868   3.074 -2.1918  0.3098  2.6076
  775SOL    HW2 2325   2.158   2.871   2.934 -4.0781  0.0418 -1.9719
  776SOL     OW 2326   2.606   0.658   2.146 -0.6886  0.2315 -0.2516
  776SOL    HW1 2327   2.642   0.738   2.192  0.5312 -0.1557 -1.5139
  776SOL    HW2 2328   2.583   0.587   2.212 -0.2832  1.9401 -0.9601
  777SOL     OW 2329   0.492   1.441   2.564 -0.1121  0.3550 -0.0425
  777SOL    HW1 2330   0.554   1.415   2.639  1.8760  1.5736 -0.0775
  777SOL    HW2 2331   0.540   1.397   2.482 -1.2329 -0.4579  2.2715
  778SOL     OW 2332   0.829   0.153   0.463  0.2259  0.0055 -0.0011
  778SOL    HW1 2333   0.832   0.094   0.547  0.6486  3.6668  0.2697
  778SOL    HW2 2334   0.783   0.112   0.384 -1.4903 -3.2554 -1.8806
  779SOL     OW 2335   0.559   1.107   2.622  0.2446 -0.2547 -0.2420
  779SOL    HW1 2336   0.571   1.162   2.540 -1.6778 -0.2121 -0.5873
  779SOL    HW2 2337   0.603   1.016   2.614 -0.1230  1.0280  1.0578
  780SOL     OW 2338   2.048   0.798   2.517  0.2537  0.4147  0.0105
  780SOL    HW1 2339   2.149   0.779   2.500 -2.5723  0.4737  0.8656
  780SOL    HW2 2340   1.992   0.744   2.450 -0.1669 -1.1805 -1.6674
  781SOL     OW 2341   2.743   1.437   1.827  0.0149  0.2296  0.2806
  781SOL    HW1 2342   2.785   1.344   1.824 -2.0465  1.0064  0.2105
  781SOL    HW2 2343   2.656   1.435   1.770  4.4495  0.7370  2.2591
  782SOL     OW 2344   1.162   1.897   2.494  0.2464 -0.4139  0.1585
  782SOL    HW1 2345   1.175   1.807   2.449 -2.7566  0.2376 -0.8548
  782SOL    HW2 2346   1.076   1.940   2.467 -0.5697  1.8418 -2.8430
  783SOL     OW 2347   0.634   2.643   1.509  0.0362  0.2297 -0.5303
  783SOL    HW1 2348   0.673   2.731   1.474  0.5852  0.3892 -1.8896
  783SOL    HW2 2349   0.557   2.660   1.575  0.6693 -3.2630  0.3167
  784SOL     OW 2350   1.494   0.478   2.903  0.1050 -0.6741 -0.1135
  784SOL    HW1 2351   1.498   0.458   2.804 -0.8117 -2.9752 -0.0450
  784SOL    HW2 2352   1.577   0.537   2.926  0.2029  0.5685  0.6698
  785SOL     OW 2353   1.347   0.237   2.982  0.0009  0.6055 -0.0209
  785SOL    HW1 2354   1.384   0.327   2.951  0.4872  0.9406  0.9055
  785SOL    HW2 2355   1.366   0.166   2.911  0.0657 -0.1386  1.5812
  786SOL     OW 2356   0.368   1.631   0.268  0.3931  0.0081 -0.1076
  786SOL    HW1 2357   0.369   1.553   0.331 -0.7948  0.7077 -1.6362
  786SOL    HW2 2358   0.458   1.642   0.226  1.3403 -2.3064  0.0348
  787SOL     OW 2359   1.705   1.424   0.438  0.5806 -0.0025 -0.3302
  787SOL    HW1 2360   1.772   1.498   0.446 -2.1569 -1.0792 -0.0287
  787SOL    HW2 2361   1.658   1.420   0.349  1.3203 -0.4492  3.0394
  788SOL     OW 2362   1.821   1.686   1.327  0.2628 -0.3689  0.4670
  788SOL    HW1 2363   1.859   1.644   1.240  1.3203  1.7781 -2.1864
  788SOL    HW2 2364   1.757   1.755   1.299  1.1234  0.5519 -0.5237
  789SOL     OW 2365   3.085   1.323   1.883  0.1640  0.4536  0.4029
  789SOL    HW1 2366   3.100   1.405   1.940 -2.0478 -1.4773  0.4267
  789SOL    HW2 2367   0.067   1.299   1.833  2.3945 -0.9528  0.3921
  790SOL     OW 2368   0.501   2.972   3.039 -0.5219 -0.6236 -0.3152
  790SOL    HW1 2369   0.413   2.961   3.090 -1.2231  0.0209 -0.4263
  790SOL    HW2 2370   0.561   2.900   3.075 -2.3790 -0.5808 -0.6150
  791SOL     OW 2371   0.644   0.024   2.609 -0.4127  0.0391 -0.5722
  791SOL    HW1 2372   0.590   0.101   2.576 -0.5204 -1.7079  0.7242
  791SOL    HW2 2373   0.593   3.070   2.678  0.2345 -1.6063 -2.0081
  792SOL     OW 2374   2.223   0.412   2.649  0.4842  0.2849  0.2408
  792SOL    HW1 2375   2.173   0.387   2.740 -0.2998 -1.0632  0.7225
  792SOL    HW2 2376   2.281   0.495   2.662 -0.0706 -1.8357  3.4766
  793SOL     OW 2377   0.359   0.754   1.110 -0.2773 -0.7086  0.4778
  793SOL    HW1 2378   0.449   0.756   1.064 -1.1114 -0.8356 -1.6895
  793SOL    HW2 2379   0.343   0.668   1.158  0.4205  2.4665 -3.5762
  794SOL     OW 2380   0.390   0.558   2.078 -0.2555  0.2383  0.1399
  794SOL    HW1 2381   0.434   0.616   2.008  3.1911 -1.2619 -1.3804
  794SOL    HW2 2382   0.300   0.594   2.104  0.2703 -0.7345  0.9356
  795SOL     OW 2383   0.083   1.135   0.307  0.2215 -0.4855 -0.3006
  795SOL    HW1 2384   0.088   1.034   0.308  2.0063 -0.3502  1.1210
  795SOL    HW2 2385   0.007   1.175   0.246  0.7182  2.1505 -2.0543
  796SOL     OW 2386   3.067   2.737   0.099 -0.7670 -0.3078 -0.1840
  796SOL    HW1 2387   3.029   2.645   0.082  2.6048 -0.2062 -0.2603
  796SOL    HW2 2388   0.014   2.731   0.190 -1.3563 -1.5053  2.3183
  797SOL     OW 2389   1.845   2.564   2.341  0.4313 -0.1108  0.5306
  797SOL    HW1 2390   1.798   2.475   2.326 -0.2960  1.9536  0.7527
  797SOL    HW2 2391   1.804   2.632   2.275 -0.1590 -0.1823  0.2415
  798SOL     OW 2392   0.127   0.923   0.552  0.4225 -0.1577 -0.0798
  798SOL    HW1 2393   0.169   0.873   0.473  0.9776 -0.5486 -4.0087
  798SOL    HW2 2394   0.197   0.926   0.623  2.7171 -4.0808 -0.9210
  799SOL     OW 2395   2.638   0.459   2.549  0.0352 -0.7010  0.3338
  799SOL    HW1 2396   2.619   0.389   2.621 -0.1612 -0.8985  0.2291
  799SOL    HW2 2397   2.735   0.493   2.556  1.3154  0.0896  0.0370
  800SOL     OW 2398   2.816   1.943   0.200  0.4339  0.2100  0.1784
  800SOL    HW1 2399   2.803   1.980   0.297  1.2647  3.4744  1.1807
  800SOL    HW2 2400   2.919   1.933   0.179  2.0803  1.9540 -0.4746
  801SOL     OW 2401   1.248   1.549   0.948 -0.0498  0.4268  0.4055
  801SOL    HW1 2402   1.331   1.512   0.900  2.3057  0.3561  3.8687
  801SOL    HW2 2403   1.225   1.497   1.031 -1.8301  0.9687 -0.7682
  802SOL     OW 2404   1.121   1.781   1.973 -0.2365  0.2388 -0.3131
  802SOL    HW1 2405   1.026   1.736   1.971 -0.1687  0.3841  1.3280
  802SOL    HW2 2406   1.173   1.764   1.884  1.2596  0.1755 -2.5560
  803SOL     OW 2407   0.226   1.819   0.742  0.7270  0.4271  0.1889
  803SOL    HW1 2408   0.149   1.753   0.756  1.6668  0.4358  0.2690
  803SOL    HW2 2409   0.289   1.792   0.666  0.2715 -0.5489  0.9820
  804SOL     OW 2410   1.144   2.250   1.246  0.0626  0.3355 -0.2516
  804SOL    HW1 2411   1.129   2.347   1.264  0.9882  0.0167  0.3719
  804SOL    HW2 2412   1.065   2.198   1.219  2.4637 -1.3318  0.9310
  805SOL     OW 2413   1.989   1.564   0.111  0.0112 -0.0355 -0.1474
  805SOL    HW1 2414   2.004   1.645   0.052 -1.2263 -0.3202 -0.9215
  805SOL    HW2 2415   1.888   1.552   0.133 -0.1374  2.6279  1.7104
  806SOL     OW 2416   1.979   2.383   0.951  0.7905  0.3780 -0.1421
  806SOL    HW1 2417   2.013   2.406   1.045 -2.0270  2.4244 -0.2008
  806SOL    HW2 2418   1.878   2.388   0.945 -0.5241  0.0407  2.2884
  807SOL     OW 2419   2.824   0.679   2.985  0.1767  0.3794 -0.0998
  807SOL    HW1 2420   2.814   0.778   2.993 -2.0093 -2.0735  0.7663
  807SOL    HW2 2421   2.796   0.656   2.889  2.1377  2.4408 -1.2382
  808SOL     OW 2422   0.232   1.231   0.537  0.2798 -0.1975  0.1635
  808SOL    HW1 2423   0.258   1.147   0.587  0.1838  1.4833 -0.0685
  808SOL    HW2 2424   0.200   1.207   0.444 -1.8959 -2.8250 -1.5149
  809SOL     OW 2425   2.580   0.963   2.067  0.2817 -0.5382 -0.1243
  809SOL    HW1 2426   2.510   0.993   2.140 -0.0519 -2.7998 -2.7700
  809SOL    HW2 2427   2.551   0.975   1.967 -0.3298  1.3236 -0.1612
  810SOL     OW 2428   1.301   0.456   1.533  0.2355  0.6200  0.3780
  810SOL    HW1 2429   1.339   0.439   1.626  0.4650 -1.2373 -1.6307
  810SOL    HW2 2430   1.239   0.379   1.511  1.2556  0.5391  3.8029
  811SOL     OW 2431   1.941   2.782   1.504 -0.3491 -0.0362 -0.2551
  811SOL    HW1 2432   1.859   2.715   1.501 -1.2505 -1.1948  0.4497
  811SOL    HW2 2433   1.950   2.840   1.421  1.2904 -0.1881  2.5719
  812SOL     OW 2434   1.764   2.663   2.839 -0.3822 -0.3629  0.3785
  812SOL    HW1 2435   1.672   2.617   2.828 -2.8795 -0.8160  0.5420
  812SOL    HW2 2436   1.836   2.597   2.823  1.1871  0.3423  3.0607
  813SOL     OW 2437   1.594   1.084   1.983  0.1603  0.1542  0.0595
  813SOL    HW1 2438   1.522   1.085   1.906 -1.0484  2.3065 -1.5889
  813SOL    HW2 2439   1.683   1.126   1.958 -1.1043  1.5808  0.6359
  814SOL     OW 2440   1.020   0.460   1.816 -0.3051  0.1457 -0.1942
  814SOL    HW1 2441   1.045   0.518   1.734  1.2401  3.1984 -2.3839
  814SOL    HW2 2442   1.025   0.520   1.897 -1.4419  1.1479  0.1602
  815SOL     OW 2443   0.816   0.769   0.565 -0.2926  0.2096 -0.2785
  815SOL    HW1 2444   0.823   0.865   0.599 -0.4809  0.3919  0.6430
  815SOL    HW2 2445   0.779   0.762   0.475 -0.3770  0.4596  0.2989
  816SOL     OW 2446   2.167   1.715   2.705 -0.1560  0.0247 -0.3334
  816SOL    HW1 2447   2.181   1.811   2.679  2.1792 -0.4882  1.5981
  816SOL    HW2 2448   2.077   1.695   2.749 -0.5081 -0.3289  0.9592
  817SOL     OW 2449   0.767   2.340   0.417  0.1723  0.1352 -0.2029
  817SOL    HW1 2450   0.827   2.421   0.419  0.8873  0.3209  1.2533
  817SOL    HW2 2451   0.761   2.299   0.510 -0.1089  0.7404 -0.6894
  818SOL     OW 2452   2.031   3.089   3.036 -0.0363 -0.0519 -0.2284
  818SOL    HW1 2453   1.937   0.006   3.025  5.0878 -3.0550  2.9821
  818SOL    HW2 2454   2.083   3.093   2.948  2.2178  1.8550  0.6475
  819SOL     OW 2455   1.694   0.186   0.167 -0.5348 -0.1063  0.1115
  819SOL    HW1 2456   1.718   0.102   0.111  2.0043 -0.0578 -3.0356
  819SOL    HW2 2457   1.746   0.268   0.140 -0.6860 -1.3489 -0.4152
  820SOL     OW 2458   1.810   0.590   0.353 -0.2786  0.4336 -0.1422
  820SOL    HW1 2459   1.733   0.576   0.415 -2.1196 -0.5245  0.3211
  820SOL    HW2 2460   1.899   0.563   0.395  0.5517 -0.3574 -1.4564
  821SOL     OW 2461   2.683   3.025   0.323  0.1204 -0.4393 -0.1035
  821SOL    HW1 2462   2.649   3.052   0.414 -0.0374  0.5978 -0.8069
  821SOL    HW2 2463   2.666   3.097   0.257  2.2514 -2.9946  1.3145
  822SOL     OW 2464   0.075   2.901   1.918  0.5605  0.0973 -0.2711
  822SOL    HW1 2465   3.090   2.943   1.930  1.4910 -0.2032 -0.2109
  822SOL    HW2 2466   0.078   2.850   1.828 -1.1246 -0.7842  0.9985
  823SOL     OW 2467   2.812   1.687   1.293 -0.2792  0.1411  0.5574
  823SOL    HW1 2468   2.862   1.771   1.327  0.4798 -1.3914  0.3458
  823SOL    HW2 2469   2.889   1.622   1.271  0.4520 -2.0557 -1.4185
  824SOL     OW 2470   1.517   2.876   2.223 -0.2939 -0.3204 -0.4149
  824SOL    HW1 2471   1.478   2.785   2.216 -1.9631 -0.3407  0.5426
  824SOL    HW2 2472   1.515   2.929   2.136  1.1562  0.8238  0.8556
  825SOL     OW 2473   1.805   1.344   0.744 -0.1463 -0.3490 -0.3472
  825SOL    HW1 2474   1.843   1.254   0.730  0.4815  1.1976 -0.5976
  825SOL    HW2 2475   1.706   1.343   0.723  0.2131  0.4621 -5.7631
  826SOL     OW 2476   2.026   0.746   3.069  0.2284 -0.1463 -0.2707
  826SOL    HW1 2477   2.038   0.838   3.023 -0.7212 -0.9150 -2.5079
  826SOL    HW2 2478   1.933   0.723   3.103 -1.0238 -1.5816  0.6458
  827SOL     OW 2479   0.537   1.087   1.621 -0.2583  0.2931 -0.3622
  827SOL    HW1 2480   0.489   1.140   1.690 -0.3616  1.2468 -0.1565
  827SOL    HW2 2481   0.550   1.134   1.530 -1.5688  1.1266  0.2772
  828SOL     OW 2482   2.209   1.433   1.887  0.5898 -0.0349 -0.5135
  828SOL    HW1 2483   2.258   1.483   1.962  1.0013  1.7692  2.0357
  828SOL    HW2 2484   2.157   1.493   1.827  1.9152 -3.3891  0.0407
  829SOL     OW 2485   3.095   1.935   0.174 -1.1432 -0.3398  0.2874
  829SOL    HW1 2486   0.024   1.841   0.165  0.1688 -0.4675 -0.9159
  829SOL    HW2 2487   0.072   1.994   0.195  0.3918 -0.5523  0.1616
  830SOL     OW 2488   1.665   0.797   0.564 -0.3042  0.0895  0.1072
  830SOL    HW1 2489   1.743   0.734   0.581 -0.8364  2.6558  0.3061
  830SOL    HW2 2490   1.591   0.773   0.630 -0.1145 -1.5164 -1.6900
  831SOL     OW 2491   2.587   1.556   0.049  0.5051  0.2065  0.6774
  831SOL    HW1 2492   2.487   1.539   0.042 -1.3644  0.5734 -0.8404
  831SOL    HW2 2493   2.603   1.649   0.085  1.7120 -1.0108 -3.3163
  832SOL     OW 2494   0.870   2.993   0.115 -0.1338  0.8019 -0.0186
  832SOL    HW1 2495   0.802   3.053   0.165  0.7879 -0.5443  0.0196
  832SOL    HW2 2496   0.958   3.040   0.109  0.9370  0.1728 -0.8006
  833SOL     OW 2497   1.412   0.748   2.352 -0.1050  0.1404  0.1226
  833SOL    HW1 2498   1.402   0.648   2.335  0.9820 -0.8539 -3.0368
  833SOL    HW2 2499   1.479   0.792   2.291 -0.4951 -1.6353  1.8278
  834SOL     OW 2500   3.057   0.443   1.365  0.6046  0.1387  0.2330
  834SOL    HW1 2501   0.001   0.413   1.450  3.1497  1.0705  0.6659
  834SOL    HW2 2502   0.014   0.422   1.284  0.3116 -2.3257  1.9654
  835SOL     OW 2503   3.017   0.059   1.309  0.3486  0.1225 -0.2751
  835SOL    HW1 2504   2.978   3.068   1.312 -0.4043 -0.2728  2.8477
  835SOL    HW2 2505   2.969   0.115   1.379 -0.0294  2.5045 -1.4103
  836SOL     OW 2506   0.494   2.067   0.408  0.9089  0.0845  0.3026
  836SOL    HW1 2507   0.568   2.031   0.354 -1.0856  4.4351 -0.7367
  836SOL    HW2 2508   0.474   2.169   0.395 -1.8072  1.3132  1.3727
  837SOL     OW 2509   1.745   1.748   2.598 -0.3063  0.3720 -0.2461
  837SOL    HW1 2510   1.784   1.756   2.693 -1.5321 -0.3853 -0.4634
  837SOL    HW2 2511   1.762   1.655   2.563  0.3888  2.0265 -0.3372
  838SOL     OW 2512   0.216   1.149   1.892 -0.1390 -0.3911 -0.0578
  838SOL    HW1 2513   0.181   1.147   1.985  1.6942  0.1861 -0.0969
  838SOL    HW2 2514   0.190   1.061   1.849 -1.0474 -3.4246  0.2815
  839SOL     OW 2515   0.313   0.503   0.777  0.1987  0.2766 -0.4112
  839SOL    HW1 2516   0.215   0.495   0.814 -0.2670  1.2167  1.2076
  839SOL    HW2 2517   0.368   0.568   0.831 -0.8274  0.5100 -0.5459
  840SOL     OW 2518   2.745   0.317   2.789 -0.1634 -0.0376 -0.0070
  840SOL    HW1 2519   2.713   0.347   2.881  1.2380 -0.2871  0.4212
  840SOL    HW2 2520   2.752   0.213   2.778 -2.1428 -1.8032 -0.4078
  841SOL     OW 2521   0.682   2.452   2.904  0.2872 -0.1808 -0.2424
  841SOL    HW1 2522   0.778   2.438   2.941 -1.6677  0.0962 -0.3740
  841SOL    HW2 2523   0.640   2.362   2.872 -3.3880  0.0004 -2.6746
  842SOL     OW 2524   0.583   0.017   1.190  0.2332 -0.3483 -0.2330
  842SOL    HW1 2525   0.660   0.078   1.166  0.7027  1.0031  0.0529
  842SOL    HW2 2526   0.551   3.067   1.110 -0.4835  1.5767 -4.0094
  843SOL     OW 2527   0.271   0.938   0.004  0.4733  0.5135  0.5110
  843SOL    HW1 2528   0.185   0.919   0.051 -0.8814 -0.1606  0.4298
  843SOL    HW2 2529   0.326   1.016   0.045  0.7229  1.3856 -0.8738
  844SOL     OW 2530   1.314   2.420   2.702 -0.1253  0.4022 -0.2148
  844SOL    HW1 2531   1.347   2.329   2.671 -0.6097  0.4111  1.0840
  844SOL    HW2 2532   1.244   2.451   2.632 -1.1906  1.9720  0.2528
  845SOL     OW 2533   2.500   2.975   2.764 -0.5364 -0.1138  0.1646
  845SOL    HW1 2534   2.490   3.050   2.829  0.3622 -1.8615 -1.7062
  845SOL    HW2 2535   2.579   2.922   2.794  1.5742 -0.1082  1.4831
  846SOL     OW 2536   1.806   1.503   2.498 -0.0226  0.4596  0.5496
  846SOL    HW1 2537   1.887   1.526   2.438  2.0592 -2.5126 -0.5958
  846SOL    HW2 2538   1.820   1.409   2.537  1.2884  1.2625 -0.6287
  847SOL     OW 2539   2.618   2.861   0.135  0.1461  0.1211  0.3232
  847SOL    HW1 2540   2.515   2.870   0.127  0.4035 -0.3384  1.0430
  847SOL    HW2 2541   2.647   2.922   0.211 -0.6117  1.2298  0.3442
  848SOL     OW 2542   0.552   0.392   0.711 -0.5771 -0.1072 -0.2421
  848SOL    HW1 2543   0.540   0.292   0.687 -0.1297 -1.0038 -2.0786
  848SOL    HW2 2544   0.463   0.428   0.746  1.1429 -0.0076  0.4565
  849SOL     OW 2545   1.511   3.036   2.007 -0.4055 -0.4511 -0.0118
  849SOL    HW1 2546   1.546   2.998   1.921  1.1664  0.0349  1.7933
  849SOL    HW2 2547   1.572   0.005   2.046  0.8945 -0.5787  0.6848
  850SOL     OW 2548   0.613   1.121   0.626 -0.1230  0.1009  0.2979
  850SOL    HW1 2549   0.582   1.218   0.627 -0.3352  2.1254  1.7302
  850SOL    HW2 2550   0.528   1.061   0.628 -1.7802  0.9993 -0.7171
  851SOL     OW 2551   0.335   1.134   0.178 -0.3843  0.3384  0.1714
  851SOL    HW1 2552   0.272   1.151   0.255  0.7269  1.6453 -0.0983
  851SOL    HW2 2553   0.421   1.092   0.204 -1.9828  2.6049  0.4544
  852SOL     OW 2554   1.171   0.320   2.097  0.2557  0.1510  0.4706
  852SOL    HW1 2555   1.214   0.225   2.088 -0.7419 -0.5214 -0.5849
  852SOL    HW2 2556   1.083   0.311   2.145  1.3722  1.1605 -0.9900
  853SOL     OW 2557   2.628   1.290   0.063 -0.6483 -0.4144  0.0012
  853SOL    HW1 2558   2.552   1.255   0.121 -4.0884  2.6668  1.9000
  853SOL    HW2 2559   2.630   1.393   0.054  0.0772  3.7859 -3.3212
  854SOL     OW 2560   1.175   1.051   2.109  0.6682  0.6607  0.4242
  854SOL    HW1 2561   1.076   1.031   2.123  0.0192 -1.1115 -2.4314
  854SOL    HW2 2562   1.200   1.136   2.162  0.5294 -1.1485  0.6640
  855SOL     OW 2563   0.229   3.000   0.033  0.1526 -0.1859  0.5507
  855SOL    HW1 2564   0.142   3.053   0.053 -0.0099  1.0113  0.7701
  855SOL    HW2 2565   0.209   2.916   3.085 -0.8484 -0.6979 -0.3319
  856SOL     OW 2566   1.147   0.776   2.213 -0.7604 -0.1021  0.2478
  856SOL    HW1 2567   1.144   0.857   2.146  2.5411 -0.0784  0.7276
  856SOL    HW2 2568   1.243   0.759   2.245 -0.1639  1.5263 -1.2703
  857SOL     OW 2569   1.308   0.797   2.628  0.3743 -0.0327  0.2821
  857SOL    HW1 2570   1.358   0.799   2.538  0.3421  0.1646  0.7320
  857SOL    HW2 2571   1.285   0.697   2.652 -2.0635 -1.8938 -1.8060
  858SOL     OW 2572   3.093   1.426   2.175  0.0661  0.1975 -0.1899
  858SOL    HW1 2573   0.041   1.445   2.262  0.0704  1.1831  0.8200
  858SOL    HW2 2574   0.008   1.500   2.108 -0.7836  1.8718 -1.9372
  859SOL     OW 2575   2.445   0.304   0.785 -0.0960 -0.4150  0.0634
  859SOL    HW1 2576   2.422   0.229   0.718 -1.5495  0.6570  1.0092
  859SOL    HW2 2577   2.495   0.270   0.868  1.5316  1.3549 -1.9657
  860SOL     OW 2578   1.697   2.940   0.431  0.1901  0.3718 -0.7547
  860SOL    HW1 2579   1.776   2.998   0.409  0.0959  0.9502  0.2404
  860SOL    HW2 2580   1.732   2.845   0.435  1.8862  2.0502  1.6968
  861SOL     OW 2581   1.053   0.562   1.227  0.4436 -0.1895  0.0353
  861SOL    HW1 2582   1.066   0.460   1.216  0.0452 -1.3469  2.0157
  861SOL    HW2 2583   0.954   0.584   1.214 -1.3352 -2.1827 -1.3446
  862SOL     OW 2584   1.569   0.108   2.611 -0.4266  0.5689 -0.0924
  862SOL    HW1 2585   1.655   0.146   2.656  4.3279 -1.9809 -0.4511
  862SOL    HW2 2586   1.597   0.040   2.538  2.8295 -1.3308  1.6082
  863SOL     OW 2587   2.621   2.356   0.605 -0.6199  0.2176  0.4319
  863SOL    HW1 2588   2.553   2.428   0.625 -0.9542 -2.3945 -1.3200
  863SOL    HW2 2589   2.595   2.279   0.548  0.0004  2.8065  2.9934
  864SOL     OW 2590   2.519   0.204   2.235 -0.3272  0.1770  0.2434
  864SOL    HW1 2591   2.559   0.158   2.316 -1.3672 -0.6421 -1.2893
  864SOL    HW2 2592   2.537   0.304   2.235 -0.5117  1.2062 -0.0077
  865SOL     OW 2593   1.231   0.996   1.835  0.1027  0.6211 -0.7637
  865SOL    HW1 2594   1.218   1.005   1.937 -1.8041 -1.8242  0.3494
  865SOL    HW2 2595   1.226   1.089   1.795 -1.0861 -0.0742  0.9400
  866SOL     OW 2596   1.716   2.380   0.957  0.3779 -0.1155  0.1427
  866SOL    HW1 2597   1.686   2.285   0.976  0.6762 -0.1338  0.0951
  866SOL    HW2 2598   1.664   2.430   0.886  1.1001  0.8307 -1.7069
  867SOL     OW 2599   2.351   2.951   0.455 -0.8737 -0.1815  0.2304
  867SOL    HW1 2600   2.258   2.926   0.494 -2.0355  2.4426 -2.3650
  867SOL    HW2 2601   2.348   3.033   0.390  0.0429  0.1214 -0.0775
  868SOL     OW 2602   0.243   2.289   2.127  0.3302 -0.0002 -0.4056
  868SOL    HW1 2603   0.230   2.337   2.039  0.3108 -3.3166  0.4736
  868SOL    HW2 2604   0.285   2.349   2.197 -0.2940 -0.7676  0.9690
  869SOL     OW 2605   2.070   2.539   2.179 -0.2417 -0.0251 -0.2925
  869SOL    HW1 2606   1.998   2.523   2.250 -0.1664 -1.6558 -0.5246
  869SOL    HW2 2607   2.152   2.576   2.226  1.7657  1.5487  0.7181
  870SOL     OW 2608   1.494   1.458   0.864  0.5032 -0.0000 -0.0655
  870SOL    HW1 2609   1.496   1.411   0.772  1.3096  1.1651  1.3534
  870SOL    HW2 2610   1.529   1.392   0.935 -1.0437 -3.6426 -0.6199
  871SOL     OW 2611   0.019   1.612   1.509  0.2312 -0.2430 -0.8414
  871SOL    HW1 2612   0.111   1.571   1.515  0.8510  0.8739 -0.0396
  871SOL    HW2 2613   3.088   1.585   1.417  1.1371 -1.1993  2.3363
  872SOL     OW 2614   0.808   1.824   2.603  0.2498 -0.0893  0.3285
  872SOL    HW1 2615   0.865   1.837   2.685  0.7887 -0.6396 -0.4739
  872SOL    HW2 2616   0.846   1.889   2.530 -0.0199  1.2695  0.3484
  873SOL     OW 2617   0.841   1.761   2.015 -0.0642 -0.1494  0.3122
  873SOL    HW1 2618   0.784   1.815   2.081 -2.4808  1.6601 -1.2884
  873SOL    HW2 2619   0.872   1.674   2.059  0.7698 -2.0659 -0.3856
  874SOL     OW 2620   1.500   0.846   2.104  0.5298  0.6555  0.1138
  874SOL    HW1 2621   1.467   0.781   2.037  0.8808  2.3698 -0.3895
  874SOL    HW2 2622   1.538   0.930   2.054  1.0401  2.6246 -0.5395
  875SOL     OW 2623   3.022   0.125   0.295 -0.0709 -0.0176  0.5882
  875SOL    HW1 2624   0.021   0.129   0.293  3.9528  3.4933  0.3081
  875SOL    HW2 2625   2.989   0.028   0.292 -0.9006  0.3167 -1.5389
  876SOL     OW 2626   0.763   1.508   0.594 -0.5421  0.0588 -0.3072
  876SOL    HW1 2627   0.765   1.586   0.661 -2.5607  0.5908  2.8627
  876SOL    HW2 2628   0.692   1.441   0.614  1.2494  1.2844 -1.6361
  877SOL     OW 2629   2.572   3.054   0.576 -0.0402  0.1359  0.1277
  877SOL    HW1 2630   2.565   3.031   0.680 -2.3927 -0.5656  0.4135
  877SOL    HW2 2631   2.504   2.998   0.524 -3.3685 -2.0217 -1.7535
  878SOL     OW 2632   1.911   1.613   0.446  0.2151  0.1557 -0.0872
  878SOL    HW1 2633   1.949   1.694   0.397 -0.4168  0.8490 -1.8263
  878SOL    HW2 2634   1.948   1.595   0.541  0.9686 -0.5838 -0.1425
  879SOL     OW 2635   2.371   1.680   1.302  0.0101 -0.5036  0.5016
  879SOL    HW1 2636   2.389   1.579   1.312 -0.0420  0.6185 -1.6837
  879SOL    HW2 2637   2.455   1.728   1.268  2.5442 -1.6056 -0.8411
  880SOL     OW 2638   0.523   2.042   0.705 -0.1447 -0.9005  0.0095
  880SOL    HW1 2639   0.444   2.050   0.772  0.2444 -0.1326  1.0962
  880SOL    HW2 2640   0.495   2.054   0.606 -0.3708 -1.2874  0.6368
  881SOL     OW 2641   0.840   0.793   0.893 -0.1388  0.1642 -0.1090
  881SOL    HW1 2642   0.852   0.878   0.843 -0.8203  2.1018 -1.2540
  881SOL    HW2 2643   0.823   0.710   0.836 -0.5857 -0.9444  0.6268
  882SOL     OW 2644   2.387   1.053   0.667 -0.4520  0.5228 -0.2358
  882SOL    HW1 2645   2.295   1.091   0.636 -1.6509 -0.7167 -1.7555
  882SOL    HW2 2646   2.382   0.955   0.666 -4.7585  2.5293 -2.2124
  883SOL     OW 2647   1.738   0.260   1.798 -0.4804 -0.7475 -0.1479
  883SOL    HW1 2648   1.792   0.287   1.716  0.1955 -1.8218  0.4156
  883SOL    HW2 2649   1.661   0.199   1.766  0.8677 -2.0175  0.2971
  884SOL     OW 2650   2.892   0.253   1.495  0.0189  0.3087 -0.2871
  884SOL    HW1 2651   2.966   0.312   1.460 -2.1898 -2.0972  1.1352
  884SOL    HW2 2652   2.913   0.232   1.591 -0.9707 -0.0587 -0.7839
  885SOL     OW 2653   1.477   1.059   2.703  0.2056 -0.9146 -0.3227
  885SOL    HW1 2654   1.385   1.051   2.667  2.0732  0.6177  0.2051
  885SOL    HW2 2655   1.531   0.981   2.678 -2.7129 -3.1067 -2.1667
  886SOL     OW 2656   1.904   0.665   2.748 -0.5912  0.2478  0.1349
  886SOL    HW1 2657   1.986   0.700   2.693  2.8649 -0.5532 -4.0668
  886SOL    HW2 2658   1.828   0.631   2.691 -1.8372 -1.7679 -3.0060
  887SOL     OW 2659   1.540   0.143   1.609  0.1048  0.2874 -0.1074
  887SOL    HW1 2660   1.588   0.231   1.583 -0.1575  2.7592 -1.5422
  887SOL    HW2 2661   1.551   0.075   1.532  1.7014  2.0449 -3.2879
  888SOL     OW 2662   2.067   1.604   1.762 -0.1417 -0.0892  0.5277
  888SOL    HW1 2663   2.038   1.648   1.673 -1.7025  0.5282 -0.9308
  888SOL    HW2 2664   2.067   1.671   1.839  1.5465  2.7302 -0.1300
  889SOL     OW 2665   1.809   2.155   0.455  0.3513  0.1363 -0.0222
  889SOL    HW1 2666   1.852   2.089   0.529 -0.1354  0.4083  1.9822
  889SOL    HW2 2667   1.839   2.132   0.358 -0.7816  0.1665 -0.5997
  890SOL     OW 2668   1.027   2.094   0.441 -0.3412  0.3167  0.1819
  890SOL    HW1 2669   1.015   1.994   0.419  0.1050 -1.0607  2.3934
  890SOL    HW2 2670   1.017   2.106   0.546 -0.9786  2.7280  0.0161
  891SOL     OW 2671   2.802   0.950   2.913 -0.1956  0.7142  0.2672
  891SOL    HW1 2672   2.876   1.017   2.943 -1.2771 -0.1039  2.0719
  891SOL    HW2 2673   2.716   0.974   2.964  2.0981  1.6761  1.0922
  892SOL     OW 2674   1.729   0.574   2.578  0.0009 -0.1318  0.1689
  892SOL    HW1 2675   1.649   0.516   2.570  1.6586  1.3946  1.1508
  892SOL    HW2 2676   1.772   0.604   2.488  1.7734 -2.9827 -0.2628
  893SOL     OW 2677   1.561   3.074   1.414  0.1877 -0.0774 -0.2126
  893SOL    HW1 2678   1.618   0.028   1.345 -1.3475  0.7517  0.4748
  893SOL    HW2 2679   1.570   2.976   1.392 -0.6166 -2.5695 -0.2151
  894SOL     OW 2680   2.914   2.884   0.574 -0.5570 -0.2251  0.9432
  894SOL    HW1 2681   2.864   2.912   0.655  0.0624  1.6908 -5.4151
  894SOL    HW2 2682   2.965   2.954   0.525 -1.6278 -0.8816  1.6295
  895SOL     OW 2683   2.124   2.563   0.027  0.3739 -0.2606 -0.2580
  895SOL    HW1 2684   2.088   2.511   3.054 -0.2017  0.0304  2.0519
  895SOL    HW2 2685   2.137   2.661   0.009 -1.7961  1.1664 -2.2549
  896SOL     OW 2686   2.311   0.147   2.380  0.6545 -0.7762 -0.2749
  896SOL    HW1 2687   2.313   0.057   2.423  0.6279  0.6878 -2.0700
  896SOL    HW2 2688   2.372   0.165   2.297 -0.1443  0.4979 -0.4484
  897SOL     OW 2689   0.414   1.575   1.743  0.1249  0.0735 -0.1069
  897SOL    HW1 2690   0.342   1.611   1.803 -0.3016 -3.8065  1.1931
  897SOL    HW2 2691   0.482   1.646   1.711 -0.1120 -0.0796  0.6891
  898SOL     OW 2692   2.380   1.699   1.681  0.4738 -0.2579 -0.0343
  898SOL    HW1 2693   2.301   1.727   1.623  4.4135 -2.1133  0.6232
  898SOL    HW2 2694   2.466   1.748   1.656  3.1955 -1.1123 -0.1620
  899SOL     OW 2695   1.649   2.111   1.007  0.1899 -0.1467 -0.4424
  899SOL    HW1 2696   1.553   2.129   1.026  0.2265 -1.0205  1.6689
  899SOL    HW2 2697   1.660   2.051   0.927 -1.0286  1.1878  0.8503
  900SOL     OW 2698   1.172   0.451   3.097 -0.1900 -0.0410 -0.6346
  900SOL    HW1 2699   1.123   0.497   3.018 -3.2167 -0.7722 -0.8380
  900SOL    HW2 2700   1.230   0.378   3.055  0.7538 -1.4336 -1.4991
  901SOL     OW 2701   1.492   1.794   2.550  0.3045 -0.8314  0.2624
  901SOL    HW1 2702   1.588   1.792   2.574 -2.5656  1.2803  1.5682
  901SOL    HW2 2703   1.469   1.778   2.449 -1.1523 -2.1892 -1.4768
  902SOL     OW 2704   2.780   2.761   3.049  0.2664  0.3087  0.4716
  902SOL    HW1 2705   2.708   2.794   0.011 -0.8057  2.9580 -0.0186
  902SOL    HW2 2706   2.824   2.680   3.089 -0.8967 -0.6726 -1.8449
  903SOL     OW 2707   2.311   0.779   2.065  0.3971  0.3503  0.4112
  903SOL    HW1 2708   2.252   0.700   2.095  1.9074  0.1230  1.6941
  903SOL    HW2 2709   2.410   0.757   2.079  1.6161 -1.1459 -0.8277
  904SOL     OW 2710   1.511   0.382   2.643  0.0691  0.2890 -0.4990
  904SOL    HW1 2711   1.446   0.374   2.566  0.2184 -2.9069  0.1392
  904SOL    HW2 2712   1.546   0.284   2.648  0.0058 -1.8741  0.0810
  905SOL     OW 2713   2.315   2.526   1.304 -0.2936 -0.4082  0.0854
  905SOL    HW1 2714   2.294   2.584   1.383 -1.3540 -0.8082 -2.0040
  905SOL    HW2 2715   2.359   2.579   1.233 -0.8411  1.2548  1.0114
  906SOL     OW 2716   1.335   2.077   0.138  0.1435 -0.1378  0.0556
  906SOL    HW1 2717   1.374   2.151   0.078 -2.8019  0.5515 -6.0447
  906SOL    HW2 2718   1.395   2.045   0.219  0.6436  0.7974  2.9197
  907SOL     OW 2719   0.632   2.705   0.730 -0.0858  0.1804  0.3022
  907SOL    HW1 2720   0.597   2.700   0.827 -0.5446  0.1658  2.7943
  907SOL    HW2 2721   0.549   2.676   0.677  1.6414  0.6072 -0.7143
  908SOL     OW 2722   1.321   2.716   2.049  0.1015  0.3964  0.0896
  908SOL    HW1 2723   1.324   2.757   1.958  1.8382 -0.7320 -2.2825
  908SOL    HW2 2724   1.393   2.650   2.053 -3.7309  2.6265  0.2337
  909SOL     OW 2725   2.004   0.365   1.743 -0.6251  0.3208 -0.3569
  909SOL    HW1 2726   1.993   0.461   1.704 -0.0541  1.7683 -0.7784
  909SOL    HW2 2727   1.952   0.353   1.832 -5.6925  1.5352  2.7514
  910SOL     OW 2728   1.293   0.917   3.066  0.3067 -0.3826 -0.2057
  910SOL    HW1 2729   1.235   0.977   3.006 -2.2228  0.5390  1.3421
  910SOL    HW2 2730   1.335   0.841   3.010 -0.1110  0.6241  0.5653
  911SOL     OW 2731   0.050   0.846   0.121  0.0635  0.1894  0.1242
  911SOL    HW1 2732   0.030   0.758   0.077 -1.6185  0.6005  0.5802
  911SOL    HW2 2733   3.067   0.887   0.143  2.4900 -1.8934  0.4038
  912SOL     OW 2734   0.110   2.338   3.084 -0.2188 -0.8251 -0.1469
  912SOL    HW1 2735   0.209   2.337   0.011  1.5679  1.4755  1.9962
  912SOL    HW2 2736   0.054   2.271   0.033 -1.3549  0.3644 -1.5417
  913SOL     OW 2737   2.636   2.332   2.376  0.3133  0.0362 -0.7508
  913SOL    HW1 2738   2.675   2.270   2.449 -0.5312  1.1540 -0.4889
  913SOL    HW2 2739   2.683   2.309   2.289 -0.7113 -1.1392  1.0177
  914SOL     OW 2740   1.531   2.027   1.365 -0.1610 -0.2982  0.1949
  914SOL    HW1 2741   1.576   1.987   1.282 -0.4602  1.4882  1.2504
  914SOL    HW2 2742   1.557   1.976   1.455 -0.4200 -1.3401  1.2031
  915SOL     OW 2743   0.844   2.762   1.985  0.4718  0.0073 -0.6096
  915SOL    HW1 2744   0.828   2.711   1.895 -0.3046  1.2427 -4.3370
  915SOL    HW2 2745   0.865   2.859   1.967 -0.5135 -0.7201 -2.0432
  916SOL     OW 2746   0.634   0.993   2.022 -0.1231  0.4110 -0.4161
  916SOL    HW1 2747   0.539   0.959   1.995 -0.1798  1.0270  0.4952
  916SOL    HW2 2748   0.657   0.970   2.121  2.2433 -1.5219  1.4862
  917SOL     OW 2749   2.545   0.543   0.720 -0.1717  0.6016 -0.0643
  917SOL    HW1 2750   2.513   0.449   0.735 -2.6181  1.0002  1.0049
  917SOL    HW2 2751   2.621   0.558   0.784  1.4645 -0.0260  0.8330
  918SOL     OW 2752   1.778   2.812   2.223 -0.5338  0.3551 -0.1142
  918SOL    HW1 2753   1.827   2.847   2.307  0.6720  0.4443  0.0364
  918SOL    HW2 2754   1.679   2.830   2.229  4.8788  1.2325  3.1389
  919SOL     OW 2755   1.527   2.715   1.682 -0.4830  0.1885  0.4565
  919SOL    HW1 2756   1.589   2.792   1.711  1.5056 -0.9844  0.5189
  919SOL    HW2 2757   1.539   2.630   1.734  1.2032  2.8370 -2.5002
  920SOL     OW 2758   0.718   0.984   3.076  0.0498 -0.2508 -0.2467
  920SOL    HW1 2759   0.698   1.045   2.999  0.8893  0.2021 -0.0465
  920SOL    HW2 2760   0.746   0.892   3.039 -0.7338 -2.3378  1.0599
  921SOL     OW 2761   0.122   0.370   2.764  0.4899  0.1750 -0.5135
  921SOL    HW1 2762   0.034   0.352   2.710 -1.6006  0.3454  1.2910
  921SOL    HW2 2763   0.187   0.304   2.722 -0.6180  1.8945 -1.0662
  922SOL     OW 2764   0.725   1.671   1.038 -0.6284  0.6047 -0.2354
  922SOL    HW1 2765   0.744   1.586   1.089  0.5564  0.9279 -0.3685
  922SOL    HW2 2766   0.659   1.726   1.092 -0.0179 -1.7966  1.2075
  923SOL     OW 2767   0.648   1.281   2.001 -0.0980 -0.0499 -0.4124
  923SOL    HW1 2768   0.594   1.288   1.914 -1.9054 -0.3978  0.0577
  923SOL    HW2 2769   0.629   1.194   2.050 -1.1762 -1.6824 -0.7997
  924SOL     OW 2770   1.507   3.042   2.943  0.2846 -0.1322  0.0062
  924SOL    HW1 2771   1.463   2.956   2.968 -0.4294  1.3009  0.0728
  924SOL    HW2 2772   1.449   3.099   2.877 -2.5636 -1.0642 -1.8997
  925SOL     OW 2773   2.835   1.161   1.146  0.1074 -0.4609  0.0009
  925SOL    HW1 2774   2.864   1.145   1.243  1.2729 -0.0554  1.2209
  925SOL    HW2 2775   2.746   1.112   1.131  0.5723  0.3597  1.3510
  926SOL     OW 2776   1.702   0.610   1.379  0.3897  0.5282  0.0405
  926SOL    HW1 2777   1.756   0.613   1.292  3.8780 -0.4806 -0.6223
  926SOL    HW2 2778   1.736   0.679   1.444 -3.2107 -2.1799 -1.9999
  927SOL     OW 2779   1.978   2.964   1.295 -0.5229  0.0970 -0.0815
  927SOL    HW1 2780   2.048   2.907   1.241  3.0679 -2.3722  0.2240
  927SOL    HW2 2781   1.990   3.065   1.278  0.0228  3.7517  0.0858
  928SOL     OW 2782   0.394   1.133   2.249 -0.8232 -0.1979  0.4767
  928SOL    HW1 2783   0.309   1.181   2.274  0.7333  0.6884 -0.0320
  928SOL    HW2 2784   0.387   1.032   2.234 -1.6430 -0.2099  0.0970
  929SOL     OW 2785   2.726   0.495   0.932 -0.2651 -0.2003 -0.5939
  929SOL    HW1 2786   2.792   0.519   1.003 -0.5248  1.2917  0.4442
  929SOL    HW2 2787   2.635   0.480   0.973 -1.0237 -0.0830 -1.3720
  930SOL     OW 2788   2.864   2.689   1.873  0.3423  0.6813 -0.1025
  930SOL    HW1 2789   2.855   2.780   1.913  0.5483 -2.1475  0.6817
  930SOL    HW2 2790   2.910   2.630   1.940 -0.5934  1.1941 -0.6712
  931SOL     OW 2791   1.550   0.884   0.903  0.0142  0.0524  0.3023
  931SOL    HW1 2792   1.489   0.842   0.832 -0.3585 -0.1551  1.5143
  931SOL    HW2 2793   1.510   0.856   0.992  0.2925  0.3685 -2.8545
  932SOL     OW 2794   2.854   1.172   1.819 -0.3473  0.2235  0.0665
  932SOL    HW1 2795   2.849   1.085   1.762 -0.4405 -1.3737 -3.2174
  932SOL    HW2 2796   2.944   1.216   1.814 -2.8390 -1.9687  2.2793
  933SOL     OW 2797   2.948   2.296   1.522  0.3624 -0.0915  0.1860
  933SOL    HW1 2798   2.927   2.387   1.563 -0.8589  0.0582  1.8218
  933SOL    HW2 2799   2.909   2.295   1.422 -0.0595  2.2649 -3.3218
  934SOL     OW 2800   0.749   1.982   1.368  0.0748 -0.7423 -0.0099
  934SOL    HW1 2801   0.757   1.886   1.337 -1.1526 -0.4454 -2.7674
  934SOL    HW2 2802   0.686   1.996   1.448  1.3970 -1.0117 -2.0429
  935SOL     OW 2803   2.770   1.701   1.800 -0.0722 -0.3007 -0.1083
  935SOL    HW1 2804   2.784   1.599   1.815  1.7767 -0.9822  2.4234
  935SOL    HW2 2805   2.709   1.716   1.719 -1.6881  1.6678  1.3811
  936SOL     OW 2806   2.540   1.461   1.662 -0.1019 -0.1374 -0.6608
  936SOL    HW1 2807   2.585   1.468   1.575 -3.0334  1.1069  4.6414
  936SOL    HW2 2808   2.475   1.538   1.677 -0.2082 -0.4447  2.2829
  937SOL     OW 2809   1.712   0.858   1.555  0.0779 -0.6458  0.1879
  937SOL    HW1 2810   1.635   0.882   1.487  2.8257 -0.7457  0.6791
  937SOL    HW2 2811   1.783   0.928   1.541 -0.7719  0.5582 -2.5789
  938SOL     OW 2812   0.639   2.653   2.727  1.1053 -0.5941 -0.0732
  938SOL    HW1 2813   0.645   2.571   2.785  2.0616 -0.0463 -3.1720
  938SOL    HW2 2814   0.730   2.692   2.701 -2.0809 -3.9459  0.6897
  939SOL     OW 2815   2.332   1.437   2.924 -0.2201 -0.0878  0.5181
  939SOL    HW1 2816   2.379   1.359   2.888  0.6112 -0.3053 -1.4349
  939SOL    HW2 2817   2.361   1.519   2.873 -3.1700 -0.1136 -1.0400
  940SOL     OW 2818   1.483   1.981   0.343 -0.3332  0.6581  0.3590
  940SOL    HW1 2819   1.430   1.959   0.428 -0.5123  0.0824  0.0931
  940SOL    HW2 2820   1.543   1.902   0.309  0.7330  0.6902 -0.3373
  941SOL     OW 2821   1.856   2.872   2.678 -0.7856 -0.0007  0.1752
  941SOL    HW1 2822   1.817   2.796   2.735  0.5264  1.8242  0.2671
  941SOL    HW2 2823   1.940   2.912   2.715  0.4950  2.5789 -1.7063
  942SOL     OW 2824   0.919   2.568   0.436  0.3573 -0.1344 -0.3363
  942SOL    HW1 2825   1.019   2.541   0.457  4.0651  1.0067  0.1120
  942SOL    HW2 2826   0.919   2.657   0.381  0.3338  0.4372 -0.4348
  943SOL     OW 2827   2.246   0.604   1.667 -0.2022 -0.0383 -0.4028
  943SOL    HW1 2828   2.321   0.673   1.669 -1.3440 -1.3298  0.2932
  943SOL    HW2 2829   2.264   0.529   1.733 -1.5348  3.2908  1.1142
  944SOL     OW 2830   1.158   1.065   2.903 -0.8289  0.5294  0.0528
  944SOL    HW1 2831   1.102   1.145   2.917  0.7364 -1.9344  0.2777
  944SOL    HW2 2832   1.202   1.072   2.814  0.6282  0.9047  3.7174
  945SOL     OW 2833   2.921   2.347   1.257  0.4698  0.1145 -0.2633
  945SOL    HW1 2834   2.821   2.327   1.246  3.2597 -0.4205 -0.5729
  945SOL    HW2 2835   2.957   2.414   1.188 -0.9832 -1.7671  0.9340
  946SOL     OW 2836   0.597   1.142   2.892 -0.8265 -0.4219  0.2641
  946SOL    HW1 2837   0.563   1.238   2.919  0.1754  1.3275 -0.5948
  946SOL    HW2 2838   0.604   1.145   2.790 -1.5058  2.5880 -2.0261
  947SOL     OW 2839   1.976   0.371   2.044  0.5735  0.5145 -0.1115
  947SOL    HW1 2840   1.914   0.359   2.123 -0.1883  3.3121  0.7837
  947SOL    HW2 2841   2.037   0.292   2.018 -0.2196 -0.1205  1.8515
  948SOL     OW 2842   3.098   2.273   0.921 -0.0091 -0.1684 -0.2019
  948SOL    HW1 2843   3.078   2.331   1.001  2.6551 -2.9292 -0.0065
  948SOL    HW2 2844   3.074   2.175   0.933  0.8723 -0.4118 -0.1054
  949SOL     OW 2845   1.177   1.238   1.728  0.0198  0.5069  0.1978
  949SOL    HW1 2846   1.084   1.216   1.685 -2.1491  2.2578 -4.3568
  949SOL    HW2 2847   1.169   1.297   1.810  2.5464 -0.9483  0.6726
  950SOL     OW 2848   0.209   0.889   0.927 -0.5051 -0.0327 -0.1248
  950SOL    HW1 2849   0.253   0.846   1.009  0.3889  2.1352 -0.7015
  950SOL    HW2 2850   0.269   0.964   0.888  1.6412  0.3488  1.4569
  951SOL     OW 2851   0.342   1.606   2.223  0.3513 -0.1135  0.3912
  951SOL    HW1 2852   0.283   1.580   2.301 -0.2454 -1.4988  0.4892
  951SOL    HW2 2853   0.437   1.624   2.257  0.7106 -0.3192  1.0433
  952SOL     OW 2854   1.525   1.666   0.150 -0.3734 -0.9948  0.3532
  952SOL    HW1 2855   1.553   1.569   0.161  1.4553  2.2240 -2.3567
  952SOL    HW2 2856   1.428   1.669   0.122 -0.9239 -0.7144 -1.2072
  953SOL     OW 2857   0.985   0.501   0.177  0.2717 -0.3031  0.4571
  953SOL    HW1 2858   1.051   0.492   0.100 -3.4133  0.0451  0.9127
  953SOL    HW2 2859   0.927   0.582   0.154  0.9971  0.9013 -1.3778
  954SOL     OW 2860   1.862   1.053   0.312  0.1932 -0.2418 -0.3605
  954SOL    HW1 2861   1.914   1.125   0.358  0.7566  0.5656 -0.9095
  954SOL    HW2 2862   1.769   1.047   0.347  0.9898  0.4075 -0.2877
  955SOL     OW 2863   2.433   1.908   2.945  0.4156 -0.1754 -0.7131
  955SOL    HW1 2864   2.500   1.833   2.955 -1.7570  0.7464 -0.4092
  955SOL    HW2 2865   2.425   1.939   2.849 -0.7521  4.6589 -0.7346
  956SOL     OW 2866   1.118   0.630   1.615 -0.3496 -0.0652  0.0202
  956SOL    HW1 2867   1.194   0.565   1.595  1.5591  1.2860  0.4609
  956SOL    HW2 2868   1.153   0.719   1.638 -1.8442  0.9095 -2.5009
  957SOL     OW 2869   1.624   1.215   1.611  0.0702  0.6441  0.1418
  957SOL    HW1 2870   1.687   1.216   1.693  2.7123 -0.7197  0.2694
  957SOL    HW2 2871   1.549   1.278   1.615  2.4700 -2.7240  1.0857
  958SOL     OW 2872   0.314   1.871   0.422 -0.1174 -0.1291  0.4839
  958SOL    HW1 2873   0.337   1.783   0.372  0.6677 -0.0522  1.2642
  958SOL    HW2 2874   0.401   1.929   0.435  1.6846 -0.0469  5.3119
  959SOL     OW 2875   1.694   1.292   1.348 -0.3878  0.0044  0.0821
  959SOL    HW1 2876   1.667   1.250   1.436 -1.2503  0.3171 -1.7141
  959SOL    HW2 2877   1.620   1.350   1.318  0.9950 -2.6844  1.1941
  960SOL     OW 2878   0.024   1.604   2.780  0.6149  0.4646  0.0336
  960SOL    HW1 2879   0.027   1.709   2.785  0.2143  1.9236  0.3715
  960SOL    HW2 2880   0.100   1.567   2.729 -1.1943  0.3709  1.0932
  961SOL     OW 2881   1.053   1.785   0.686 -0.1597  0.0822 -0.1033
  961SOL    HW1 2882   0.958   1.762   0.714 -1.7524 -0.5825  0.5131
  961SOL    HW2 2883   1.084   1.725   0.614 -2.4110  1.5994  1.6263
  962SOL     OW 2884   0.838   0.992   0.698 -0.1354 -0.6365 -0.0506
  962SOL    HW1 2885   0.928   1.041   0.706  2.6424 -1.3312 -0.0300
  962SOL    HW2 2886   0.761   1.054   0.670  0.0514 -2.5192  0.1447
  963SOL     OW 2887   1.442   1.906   2.022 -0.5676  0.1697 -0.8277
  963SOL    HW1 2888   1.535   1.908   2.064  2.0176  0.8640  0.9119
  963SOL    HW2 2889   1.425   1.812   1.993  0.7177  0.1040  0.8143
  964SOL     OW 2890   2.764   2.872   2.818 -0.6771  0.1201 -0.0486
  964SOL    HW1 2891   2.795   2.834   2.912  1.7937 -2.2414 -0.2048
  964SOL    HW2 2892   2.813   2.815   2.750  0.7877 -1.9059  0.1412
  965SOL     OW 2893   0.629   2.136   3.098  0.3791 -0.0076 -0.3953
  965SOL    HW1 2894   0.532   2.152   0.004  1.1912 -0.4977  1.0605
  965SOL    HW2 2895   0.678   2.187   0.067 -2.3010  0.4288  2.9304
  966SOL     OW 2896   2.960   1.664   3.055  0.2328  0.2144  0.2076
  966SOL    HW1 2897   2.916   1.745   3.011  1.1822  0.4636 -2.7835
  966SOL    HW2 2898   3.018   1.616   2.982  0.1945 -1.6393 -0.0553
  967SOL     OW 2899   2.150   3.095   2.804  0.5791  0.3083  0.0443
  967SOL    HW1 2900   2.238   0.036   2.833  1.1419  1.1226 -0.0422
  967SOL    HW2 2901   2.160   3.000   2.764  0.5524  1.5966 -2.4069
  968SOL     OW 2902   2.098   2.922   0.548  0.3550  0.1480  0.6109
  968SOL    HW1 2903   2.078   2.829   0.503 -1.9978 -0.2325 -2.9270
  968SOL    HW2 2904   2.059   2.929   0.644  1.5440 -0.2367 -2.9726
  969SOL     OW 2905   0.821   1.136   2.413  0.7538 -0.7695  0.3948
  969SOL    HW1 2906   0.844   1.104   2.507 -1.3643 -0.7784 -1.3539
  969SOL    HW2 2907   0.736   1.190   2.414  3.6115 -0.2821  2.2104
  970SOL     OW 2908   1.592   1.269   1.029  0.5707  0.5047 -0.0742
  970SOL    HW1 2909   1.543   1.184   1.070  0.1612 -0.6664  0.2434
  970SOL    HW2 2910   1.691   1.269   1.060 -0.4035  0.8278  1.0146
  971SOL     OW 2911   2.289   0.041   1.317 -0.8825 -0.2694 -0.0898
  971SOL    HW1 2912   2.235   0.122   1.334  0.3816 -0.4061 -1.0978
  971SOL    HW2 2913   2.386   0.062   1.321  0.1658 -0.4893 -1.9229
  972SOL     OW 2914   2.955   2.951   1.563  0.5798 -0.4061 -0.2017
  972SOL    HW1 2915   2.881   2.938   1.635 -2.4493  0.8382  0.7097
  972SOL    HW2 2916   3.044   2.967   1.610  0.3432  0.4461 -1.8401
  973SOL     OW 2917   0.082   0.074   2.491  0.3544  0.5088 -0.3830
  973SOL    HW1 2918   0.164   0.107   2.539 -0.2824 -2.6477  1.9644
  973SOL    HW2 2919   0.019   0.041   2.564  2.1629 -0.4845 -0.5136
  974SOL     OW 2920   2.206   1.241   2.375  0.2217 -0.2625  0.1244
  974SOL    HW1 2921   2.230   1.257   2.473 -0.0289  0.0765  2.7394
  974SOL    HW2 2922   2.133   1.172   2.362  0.6449  0.3514  2.2231
  975SOL     OW 2923   0.658   0.366   1.658  0.4074 -0.2173 -0.1503
  975SOL    HW1 2924   0.579   0.353   1.593 -0.4387 -0.4128 -1.9226
  975SOL    HW2 2925   0.714   0.448   1.637 -0.4104 -2.2712 -0.3147
  976SOL     OW 2926   0.710   1.920   2.204  0.0646  0.1761 -0.1440
  976SOL    HW1 2927   0.629   1.983   2.196 -2.5732  0.8471  1.6302
  976SOL    HW2 2928   0.791   1.976   2.224 -0.7354  2.4091 -0.4254
  977SOL     OW 2929   0.511   0.094   0.404  0.3050  0.0436  0.4289
  977SOL    HW1 2930   0.508   0.183   0.342  1.5884  1.6795  0.0322
  977SOL    HW2 2931   0.520   0.116   0.504 -1.0513  2.4943  1.9010
  978SOL     OW 2932   2.646   1.454   2.143  0.1331 -0.3703  0.3978
  978SOL    HW1 2933   2.618   1.391   2.068 -2.6355 -0.8082  0.2182
  978SOL    HW2 2934   2.652   1.406   2.232  0.9489  1.5873 -0.0403
  979SOL     OW 2935   1.694   0.117   2.059 -0.3111 -0.3996 -0.5418
  979SOL    HW1 2936   1.701   0.167   1.968 -0.4433  1.1901 -1.0753
  979SOL    HW2 2937   1.785   0.102   2.095  0.0345 -1.5995  1.7891
  980SOL     OW 2938   1.669   1.658   1.599 -0.2683 -0.0787  0.3130
  980SOL    HW1 2939   1.737   1.637   1.527 -1.1469  2.6213 -0.2582
  980SOL    HW2 2940   1.574   1.639   1.565  0.4105  1.2225 -2.3571
  981SOL     OW 2941   2.450   1.113   1.393 -0.0823  0.3632  0.0722
  981SOL    HW1 2942   2.422   1.149   1.486 -0.8045  1.2279  0.7861
  981SOL    HW2 2943   2.550   1.124   1.381 -2.7795 -0.2068  0.3556
  982SOL     OW 2944   0.475   2.986   2.773  0.2534 -0.2136  0.4362
  982SOL    HW1 2945   0.432   2.898   2.733  2.4075 -1.7750  1.2009
  982SOL    HW2 2946   0.473   2.977   2.875 -1.6256 -0.8617 -1.5713
  983SOL     OW 2947   2.820   0.675   2.684 -0.2655 -0.1576  0.2821
  983SOL    HW1 2948   2.918   0.706   2.684 -2.5113  2.3374 -1.6231
  983SOL    HW2 2949   2.755   0.750   2.670  1.3891 -0.7859 -1.9002
  984SOL     OW 2950   1.228   0.030   2.049 -0.1804 -0.1954 -0.2820
  984SOL    HW1 2951   1.315   3.083   2.036 -2.2745 -3.6378  1.7265
  984SOL    HW2 2952   1.151   3.072   2.023 -1.9125 -2.5082 -1.3818
  985SOL     OW 2953   2.005   2.010   1.915  0.7742 -0.1267  0.1943
  985SOL    HW1 2954   1.979   2.008   1.816 -2.6496 -1.8756  2.0371
  985SOL    HW2 2955   2.020   1.914   1.957  0.1444 -1.5903  1.2574
  986SOL     OW 2956   2.454   0.375   1.278 -0.2254 -0.5715 -0.9573
  986SOL    HW1 2957   2.380   0.348   1.343  3.2859  2.4723 -1.2070
  986SOL    HW2 2958   2.544   0.345   1.316 -1.1897 -0.6656  2.3158
  987SOL     OW 2959   2.309   1.162   1.113 -0.2147 -0.1623 -0.1399
  987SOL    HW1 2960   2.307   1.083   1.180  0.6740 -0.3851  1.2842
  987SOL    HW2 2961   2.395   1.153   1.058  0.3837 -1.4584  0.4102
  988SOL     OW 2962   2.395   1.237   1.917 -0.3273 -0.2862 -0.3215
  988SOL    HW1 2963   2.426   1.232   2.015  0.8561  1.5018  1.3426
  988SOL    HW2 2964   2.345   1.324   1.899  0.4169 -1.7312 -1.0811
  989SOL     OW 2965   1.258   2.376   0.059  0.1872  0.7877  0.0746
  989SOL    HW1 2966   1.294   2.450   0.122  0.5003 -1.2291  0.2833
  989SOL    HW2 2967   1.167   2.344   0.087  1.6401 -0.1841  2.4075
  990SOL     OW 2968   1.637   0.857   2.666 -0.0360  0.0116  0.2431
  990SOL    HW1 2969   1.636   0.757   2.653  0.5918  1.5293 -0.9226
  990SOL    HW2 2970   1.732   0.887   2.681 -1.8094 -0.8353 -0.6667
  991SOL     OW 2971   1.178   0.344   0.610  0.3606 -0.2490 -0.4384
  991SOL    HW1 2972   1.253   0.386   0.665 -2.0953 -0.4134 -0.8979
  991SOL    HW2 2973   1.212   0.280   0.540  0.0859 -0.0673 -0.8489
  992SOL     OW 2974   3.091   1.827   1.127 -0.2440 -0.3964  0.1969
  992SOL    HW1 2975   3.031   1.853   1.046 -1.9504 -2.6768  1.9947
  992SOL    HW2 2976   0.002   1.905   1.193  0.5727 -1.6231  2.9160
  993SOL     OW 2977   2.845   0.547   1.179 -0.4488  0.5974 -0.4663
  993SOL    HW1 2978   2.808   0.642   1.201 -2.0117 -0.2720  1.5344
  993SOL    HW2 2979   2.913   0.513   1.247 -0.4352 -2.9928  1.7815
  994SOL     OW 2980   2.993   2.285   2.695  0.4544  0.4426 -0.2110
  994SOL    HW1 2981   3.091   2.297   2.657  0.5630  4.0847  1.6320
  994SOL    HW2 2982   2.989   2.230   2.781 -0.6142 -1.0203 -0.9222
  995SOL     OW 2983   1.880   0.969   2.776 -0.2058 -0.0663 -0.3658
  995SOL    HW1 2984   1.937   1.002   2.701  1.0950  2.7165  2.6218
  995SOL    HW2 2985   1.892   0.866   2.792 -1.9816  2.6338 -0.4546
  996SOL     OW 2986   2.648   1.415   0.657  0.6276 -0.0614 -0.1673
  996SOL    HW1 2987   2.609   1.473   0.581  2.7278  1.2080  0.7812
  996SOL    HW2 2988   2.743   1.384   0.635 -1.5227  0.2440  0.8281
  997SOL     OW 2989   2.057   0.891   2.151 -0.1063 -0.1184  0.1376
  997SOL    HW1 2990   2.150   0.863   2.114  1.3965 -0.0844 -0.1030
  997SOL    HW2 2991   1.982   0.830   2.116 -0.3311 -1.8361  2.0403
  998SOL     OW 2992   2.797   1.379   0.350 -0.2817 -0.2424  0.0625
  998SOL    HW1 2993   2.764   1.472   0.381  1.4249 -0.7253 -0.0294
  998SOL    HW2 2994   2.806   1.314   0.431  1.4120 -0.2271 -0.5290
  999SOL     OW 2995   3.023   2.231   0.142  0.3644  0.3700 -0.4482
  999SOL    HW1 2996   2.971   2.271   0.219  1.8129 -0.2035  1.3719
  999SOL    HW2 2997   3.027   2.128   0.150  2.7671 -2.1458 -1.7078
 1000SOL     OW 2998   0.940   0.867   2.675 -0.2010 -0.0865 -0.0743
 1000SOL    HW1 2999   0.961   0.839   2.772 -0.8749 -1.1123  2.9499
 1000SOL    HW2 3000   1.003   0.830   2.605 -1.4042  1.5039 -2.5989
   3.10450   3.10450   3.10450
