1000 SPC/Fw water molecules t= 343.00000 step= 343000
 3000
    1SOL     OW    1   2.486   0.147   1.281  0.3623 -0.0544  0.4202
    1SOL    HW1    2   2.400   0.168   1.335  1.5858  0.8924 -0.4874
    1SOL    HW2    3   2.546   0.092   1.340 -1.4388  1.3667 -1.5987
    2SOL     OW    4   2.715   2.523   0.962  0.1796 -0.4222  0.2583
    2SOL    HW1    5   2.688   2.597   1.025 -0.7406 -1.7286 -0.6876
    2SOL    HW2    6   2.636   2.458   0.953 -3.3551 -2.3408  0.0476
    3SOL     OW    7   1.276   2.905   2.637  0.1729  0.4894  0.2180
    3SOL    HW1    8   1.318   2.977   2.686  0.4818 -0.7245 -5.7078
    3SOL    HW2    9   1.230   2.842   2.702 -0.1459  0.7214 -1.5508
    4SOL     OW   10   1.814   2.571   2.249  0.2593 -0.0647  0.0309
    4SOL    HW1   11   1.861   2.638   2.186 -0.2447  0.8234  1.7412
    4SOL    HW2   12   1.863   2.488   2.219 -0.8996 -0.2026 -2.4743
    5SOL     OW   13   1.891   0.854   1.907 -0.0076 -0.1165  0.7075
    5SOL    HW1   14   1.995   0.828   1.906  1.4413  1.1359 -0.3144
    5SOL    HW2   15   1.842   0.865   1.819 -0.5504 -0.9484  2.2303
    6SOL     OW   16   2.157   2.718   0.696 -0.0181  0.4898  0.6690
    6SOL    HW1   17   2.188   2.755   0.604  1.0312  1.3367 -0.1192
    6SOL    HW2   18   2.058   2.707   0.699 -0.0231 -0.5104 -0.6284
    7SOL     OW   19   1.742   1.228   1.025 -0.1694 -0.2748  0.2929
    7SOL    HW1   20   1.763   1.276   1.116 -0.8072  0.6187  0.5888
    7SOL    HW2   21   1.644   1.212   1.019  2.0151 -1.7813  1.5268
    8SOL     OW   22   0.743   1.968   1.287  0.3034  0.1298 -0.0654
    8SOL    HW1   23   0.691   1.885   1.320  1.3525  0.5449  2.8900
    8SOL    HW2   24   0.847   1.959   1.300 -0.0686  0.6334  0.6853
    9SOL     OW   25   1.307   2.353   2.051  0.4911  0.0313  0.0557
    9SOL    HW1   26   1.256   2.367   2.135  1.6145  0.3156 -2.4359
    9SOL    HW2   27   1.283   2.267   2.004  0.2143  1.0878  3.4681
   10SOL     OW   28   0.310   2.075   0.744 -0.1130 -0.0766  0.1138
   10SOL    HW1   29   0.374   1.994   0.755 -0.4046 -3.0713 -1.2262
   10SOL    HW2   30   0.343   2.144   0.816  0.2577  2.0925  0.2448
   11SOL     OW   31   1.530   2.380   1.355 -0.1294  0.1819 -0.0860
   11SOL    HW1   32   1.528   2.437   1.275 -1.1146 -0.4874  1.2463
   11SOL    HW2   33   1.455   2.312   1.357 -2.0916  1.4360 -0.4694
   12SOL     OW   34   2.535   0.368   2.266  0.1577 -0.2093  0.2328
   12SOL    HW1   35   2.630   0.327   2.278  2.5362 -1.6282  0.6646
   12SOL    HW2   36   2.460   0.297   2.268 -2.2191  0.7846 -1.5039
   13SOL     OW   37   2.793   2.856   0.636 -0.7503  0.3593 -0.2611
   13SOL    HW1   38   2.818   2.773   0.692  1.3163 -0.9317 -0.4512
   13SOL    HW2   39   2.863   2.934   0.638  2.4876  0.1291 -3.3414
   14SOL     OW   40   1.418   1.636   2.702  0.0314  0.7536  0.0221
   14SOL    HW1   41   1.476   1.562   2.662 -3.2496  1.0447  0.7258
   14SOL    HW2   42   1.444   1.729   2.668 -3.1122 -0.0149 -1.2746
   15SOL     OW   43   2.637   2.677   1.607 -0.3472 -0.3688  0.1327
   15SOL    HW1   44   2.602   2.584   1.625 -0.0329 -0.9127 -0.4774
   15SOL    HW2   45   2.570   2.716   1.537 -0.4901 -0.9583  2.0136
   16SOL     OW   46   2.794   2.746   0.364  0.0003  0.6767  0.5500
   16SOL    HW1   47   2.818   2.786   0.451  0.0829 -1.0278 -3.7305
   16SOL    HW2   48   2.847   2.662   0.343 -3.0435  0.2638 -0.0175
   17SOL     OW   49   0.160   0.484   1.177  0.1916  0.4229  0.3889
   17SOL    HW1   50   0.224   0.550   1.136 -3.7182 -3.0867  1.5025
   17SOL    HW2   51   0.207   0.399   1.209 -0.3896 -0.6455  0.8686
   18SOL     OW   52   2.200   0.594   0.316  0.3861 -0.0793  0.4338
   18SOL    HW1   53   2.107   0.642   0.323 -0.7328  1.4685 -1.2939
   18SOL    HW2   54   2.218   0.554   0.406  1.8425 -0.7226  0.2366
   19SOL     OW   55   1.868   1.721   0.015 -0.2184 -0.7016 -0.4146
   19SOL    HW1   56   1.779   1.746   3.056  0.4009 -2.2957 -1.4365
   19SOL    HW2   57   1.858   1.635   0.073 -1.8227  0.1110  2.8199
   20SOL     OW   58   2.356   2.054   2.202 -0.0137 -0.4258 -0.2494
   20SOL    HW1   59   2.300   1.969   2.183 -1.7887 -1.7255 -1.5356
   20SOL    HW2   60   2.302   2.132   2.245 -1.2294  1.1465  3.4063
   21SOL     OW   61   1.639   0.097   0.464 -0.2905  0.1310 -0.5020
   21SOL    HW1   62   1.661   3.082   0.465  0.5238  0.5767  1.2028
   21SOL    HW2   63   1.719   0.153   0.441 -1.2367  0.6804 -0.6107
   22SOL     OW   64   2.742   0.451   1.887  0.1295  0.9317  0.1000
   22SOL    HW1   65   2.662   0.398   1.853 -1.3018 -1.8045 -0.7642
   22SOL    HW2   66   2.772   0.516   1.815 -1.0486 -2.1365  1.0935
   23SOL     OW   67   0.457   0.662   1.916 -0.6545  0.1699  0.0638
   23SOL    HW1   68   0.451   0.562   1.900  0.4102  1.4971  0.2787
   23SOL    HW2   69   0.551   0.696   1.915 -0.2801 -0.0591  0.5696
   24SOL     OW   70   2.490   2.668   0.474 -0.1596  0.1893  0.4511
   24SOL    HW1   71   2.571   2.732   0.453  1.2974 -0.3719 -1.1096
   24SOL    HW2   72   2.481   2.649   0.573  0.1740 -2.3790  2.4939
   25SOL     OW   73   1.198   2.631   2.771 -0.3232  0.7193  0.2201
   25SOL    HW1   74   1.126   2.652   2.707  1.5744 -2.3478  0.0354
   25SOL    HW2   75   1.157   2.619   2.863 -0.7835 -0.6498  2.9735
   26SOL     OW   76   1.046   2.495   0.315 -0.0618 -0.5213  0.3399
   26SOL    HW1   77   1.085   2.514   0.222 -1.2835  1.3051 -0.9739
   26SOL    HW2   78   1.111   2.513   0.390  2.8642 -1.5301 -0.8054
   27SOL     OW   79   2.364   0.872   0.106  0.3000 -0.1425  0.1118
   27SOL    HW1   80   2.277   0.904   0.149  0.4063  1.0668  2.3073
   27SOL    HW2   81   2.411   0.944   0.049  0.5613 -0.6614  0.4152
   28SOL     OW   82   1.133   1.362   0.950  0.5348  0.4865 -0.3908
   28SOL    HW1   83   1.096   1.333   0.861  1.5429  0.3793  1.7456
   28SOL    HW2   84   1.210   1.428   0.940 -0.4474 -2.3479 -0.4771
   29SOL     OW   85   2.854   2.771   1.807  1.1764  0.3102  0.1429
   29SOL    HW1   86   2.952   2.752   1.782 -2.7626 -0.1216  1.4213
   29SOL    HW2   87   2.785   2.737   1.740 -1.7793  2.6905  1.4273
   30SOL     OW   88   1.196   0.102   1.200 -0.0389  0.0951  0.3606
   30SOL    HW1   89   1.245   0.011   1.198 -0.3566 -0.3731  0.9560
   30SOL    HW2   90   1.249   0.165   1.138 -3.1690 -0.3482  0.6068
   31SOL     OW   91   2.332   2.891   2.431 -0.2164 -0.1436 -0.1480
   31SOL    HW1   92   2.276   2.924   2.506  0.4471  0.2762 -1.7825
   31SOL    HW2   93   2.276   2.902   2.344 -0.3223  1.8095 -1.1002
   32SOL     OW   94   0.928   1.306   0.393  0.0753  0.1572 -0.0150
   32SOL    HW1   95   0.952   1.396   0.354  1.8906  3.0154  1.5434
   32SOL    HW2   96   0.836   1.301   0.436  0.4634  0.5135  0.9255
   33SOL     OW   97   0.070   1.227   2.524 -0.5423  0.2453 -0.3610
   33SOL    HW1   98   3.063   1.206   2.486  1.4339  0.0635  2.7318
   33SOL    HW2   99   0.134   1.249   2.448 -1.6187  1.1565 -0.6350
   34SOL     OW  100   2.581   2.962   0.515 -0.6964 -0.3416  0.0922
   34SOL    HW1  101   2.671   2.935   0.554  0.0963  0.3576 -1.2931
   34SOL    HW2  102   2.565   3.060   0.504  0.3192  0.3622  2.0095
   35SOL     OW  103   2.538   2.942   1.970 -0.0415  0.1471  0.1988
   35SOL    HW1  104   2.603   2.863   1.976  1.0799  3.1861  0.3323
   35SOL    HW2  105   2.499   2.963   2.060 -1.9984 -1.3157 -2.0384
   36SOL     OW  106   2.094   2.220   3.019 -0.0459  0.2433 -0.2127
   36SOL    HW1  107   2.169   2.282   2.987 -2.7748 -1.4161  0.4661
   36SOL    HW2  108   2.044   2.181   2.938  0.3618  0.5329 -0.9644
   37SOL     OW  109   1.800   3.039   2.108  0.4582  0.4193 -0.0877
   37SOL    HW1  110   1.807   0.044   2.165  1.0921  4.0084  2.1310
   37SOL    HW2  111   1.793   3.053   2.006 -0.1327 -3.3715 -0.4281
   38SOL     OW  112   0.249   0.565   2.678  0.0863 -0.5627 -0.6376
   38SOL    HW1  113   0.336   0.550   2.632  0.1741 -2.2821  0.5580
   38SOL    HW2  114   0.212   0.484   2.734 -0.8588 -2.4038  1.1020
   39SOL     OW  115   1.963   1.242   1.468 -0.3265 -0.8581 -0.0358
   39SOL    HW1  116   2.057   1.263   1.429  4.0832  0.5730 -2.2939
   39SOL    HW2  117   1.967   1.196   1.560  0.1387 -0.6968  0.4792
   40SOL     OW  118   1.243   2.546   0.502  0.9089  0.3789 -0.2380
   40SOL    HW1  119   1.275   2.643   0.498 -1.1725  0.0308 -0.2902
   40SOL    HW2  120   1.312   2.480   0.546 -0.9950 -2.7302 -3.1267
   41SOL     OW  121   2.132   1.265   0.791  0.0534  0.1187 -0.4027
   41SOL    HW1  122   2.032   1.278   0.789 -0.2301  2.1770 -3.1493
   41SOL    HW2  123   2.184   1.351   0.765 -0.2633 -0.0131  0.5846
   42SOL     OW  124   0.711   0.203   1.125 -0.4610 -0.9146 -0.5870
   42SOL    HW1  125   0.729   0.249   1.037  0.4156  1.2246  0.7661
   42SOL    HW2  126   0.797   0.166   1.164  0.2773  0.1113 -1.0144
   43SOL     OW  127   2.993   1.751   2.293 -0.3203 -0.6660 -0.4060
   43SOL    HW1  128   3.009   1.713   2.385  2.6541  1.7867  4.4799
   43SOL    HW2  129   3.015   1.850   2.297  0.2863  1.3373  0.7939
   44SOL     OW  130   2.368   3.083   1.562 -1.0055  0.1017  0.2058
   44SOL    HW1  131   2.359   0.102   1.576  0.8918  0.8701 -0.8894
   44SOL    HW2  132   2.427   3.038   1.629  0.0805  1.0865  1.1352
   45SOL     OW  133   1.071   0.026   2.244 -0.6465  0.4193  0.4057
   45SOL    HW1  134   1.173   0.031   2.259  0.7708 -0.4914 -1.2325
   45SOL    HW2  135   1.041   3.031   2.303 -0.7932 -2.3004  2.9975
   46SOL     OW  136   1.028   2.444   2.455  0.4070  0.0441 -0.3882
   46SOL    HW1  137   1.102   2.450   2.524 -1.4225  0.0921  2.0216
   46SOL    HW2  138   0.997   2.533   2.418  0.5999 -0.4761 -2.1106
   47SOL     OW  139   1.285   1.667   0.675  0.0357  0.6744 -0.2602
   47SOL    HW1  140   1.335   1.640   0.591  0.6554 -0.9408 -0.3870
   47SOL    HW2  141   1.305   1.610   0.758  0.9684 -0.6895  0.3904
   48SOL     OW  142   1.274   2.291   0.880 -0.0383  0.1873  0.4293
   48SOL    HW1  143   1.182   2.250   0.855 -0.5275  0.3980 -2.4170
   48SOL    HW2  144   1.259   2.363   0.951  0.6458  2.6710  0.7815
   49SOL     OW  145   2.250   0.052   3.037 -0.1614  0.3726 -0.5302
   49SOL    HW1  146   2.215   3.055   0.001 -0.2299  0.6675 -0.0394
   49SOL    HW2  147   2.194   0.131   3.065 -1.3026 -0.0524 -0.6071
   50SOL     OW  148   1.671   0.087   0.039  0.0086 -0.1542 -0.1746
   50SOL    HW1  149   1.760   0.120   0.037 -3.1411 -3.2620 -0.4062
   50SOL    HW2  150   1.612   0.155   3.079  0.9452  0.4499 -0.3150
   51SOL     OW  151   2.376   0.614   1.372  0.0320 -0.1815 -0.2569
   51SOL    HW1  152   2.380   0.711   1.343  0.1768 -1.5288  0.3750
   51SOL    HW2  153   2.462   0.559   1.346 -0.7495 -2.7476  0.9897
   52SOL     OW  154   0.964   1.564   0.307 -0.3421 -0.5812  0.0534
   52SOL    HW1  155   1.031   1.605   0.371 -0.0911  3.7815 -0.3858
   52SOL    HW2  156   1.000   1.569   0.211  1.3396  0.2706 -1.8642
   53SOL     OW  157   0.018   1.741   2.550  0.6450 -0.2668 -0.0189
   53SOL    HW1  158   0.051   1.837   2.575  0.0327 -0.6919  0.5553
   53SOL    HW2  159   3.022   1.717   2.602  1.5509 -0.4535 -2.3848
   54SOL     OW  160   2.828   1.364   1.817  0.0599 -0.8654 -0.2374
   54SOL    HW1  161   2.787   1.431   1.751  1.5247 -1.0581  1.3495
   54SOL    HW2  162   2.771   1.358   1.902  1.6737  0.7267 -0.1183
   55SOL     OW  163   2.140   1.903   0.524 -0.3526 -0.4884 -0.1324
   55SOL    HW1  164   2.199   1.843   0.577 -0.9844  0.1497 -0.2911
   55SOL    HW2  165   2.171   1.997   0.528  1.0033 -4.9736 -1.6822
   56SOL     OW  166   1.645   0.237   1.740 -0.0750 -0.2028 -0.4432
   56SOL    HW1  167   1.696   0.326   1.713 -0.3576  2.8670 -0.3160
   56SOL    HW2  168   1.548   0.262   1.746  0.8383  0.3193  0.3040
   57SOL     OW  169   1.384   1.142   2.607  0.4518  0.3454  0.5136
   57SOL    HW1  170   1.355   1.181   2.519 -1.4630 -0.5917  2.2596
   57SOL    HW2  171   1.475   1.101   2.606 -2.4575  2.6523  0.3987
   58SOL     OW  172   3.029   0.599   1.269 -0.0218  0.2603  1.3515
   58SOL    HW1  173   0.034   0.562   1.228 -2.9081 -5.3906 -0.7122
   58SOL    HW2  174   2.950   0.601   1.202 -1.6093 -1.1014 -2.0538
   59SOL     OW  175   1.705   2.936   0.189 -0.0152  0.8021  0.4429
   59SOL    HW1  176   1.671   3.025   0.154  0.7826 -3.2527 -1.2611
   59SOL    HW2  177   1.669   2.914   0.280  2.3711  2.0462 -1.3030
   60SOL     OW  178   2.728   1.708   2.827  0.0347 -0.3977  0.3600
   60SOL    HW1  179   2.728   1.810   2.822 -0.0599  1.5828  0.6084
   60SOL    HW2  180   2.635   1.687   2.863  1.1906 -0.8500  4.5936
   61SOL     OW  181   0.759   2.672   0.886 -0.6587  0.7532  0.0856
   61SOL    HW1  182   0.836   2.738   0.876 -3.6840  0.3838 -3.1062
   61SOL    HW2  183   0.791   2.579   0.922  0.6855  1.1788  1.1428
   62SOL     OW  184   1.626   1.491   2.552 -0.3208 -0.2148  0.1297
   62SOL    HW1  185   1.638   1.498   2.450 -2.3504  0.2778  2.8417
   62SOL    HW2  186   1.701   1.440   2.598  0.4275  3.2851 -0.4220
   63SOL     OW  187   2.120   2.095   0.191 -0.0296  0.8414 -0.3613
   63SOL    HW1  188   2.101   2.168   0.259  1.3750  2.1880  0.4929
   63SOL    HW2  189   2.100   2.133   0.099  1.9061 -0.1044 -0.9780
   64SOL     OW  190   1.849   1.055   2.950 -0.2290  0.1323  0.1175
   64SOL    HW1  191   1.760   1.034   2.907  2.3026  0.6533 -3.0403
   64SOL    HW2  192   1.872   1.154   2.933  1.2275  1.5493  0.2225
   65SOL     OW  193   1.905   1.828   2.259  0.1631 -0.3344  0.0283
   65SOL    HW1  194   1.978   1.770   2.292 -0.5740  2.2162 -2.5750
   65SOL    HW2  195   1.897   1.811   2.160 -0.2639  1.7620  2.0348
   66SOL     OW  196   0.377   1.140   1.149  0.1752  0.5912 -0.5508
   66SOL    HW1  197   0.354   1.123   1.052 -0.2687 -0.1994  3.1699
   66SOL    HW2  198   0.298   1.182   1.193  2.6498  1.6677 -1.2705
   67SOL     OW  199   2.165   3.039   2.614 -0.2668 -0.0659 -1.1561
   67SOL    HW1  200   2.204   0.024   2.550 -0.0056 -1.1517 -1.4577
   67SOL    HW2  201   2.082   2.992   2.574  0.2589  1.2318 -1.6760
   68SOL     OW  202   1.179   2.432   1.393  0.2814  0.1953 -0.3122
   68SOL    HW1  203   1.234   2.460   1.313  0.5964 -3.2112  1.0818
   68SOL    HW2  204   1.235   2.364   1.441  2.0288 -1.8154  1.1711
   69SOL     OW  205   0.758   2.487   3.039  0.0653  0.0021 -0.1182
   69SOL    HW1  206   0.727   2.530   0.040  2.6026 -0.9585 -0.0372
   69SOL    HW2  207   0.758   2.387   3.051  0.1139  2.7465  0.4741
   70SOL     OW  208   0.083   0.613   2.455 -0.0021 -0.3203 -0.4922
   70SOL    HW1  209   0.084   0.696   2.395 -1.3705  0.1242  1.0966
   70SOL    HW2  210   0.105   0.639   2.550 -0.4131 -1.1175 -2.5136
   71SOL     OW  211   0.737   1.493   2.879 -0.5211 -0.2505 -1.1266
   71SOL    HW1  212   0.731   1.432   2.798  0.4512 -0.5690 -2.6652
   71SOL    HW2  213   0.645   1.527   2.909  1.5113 -2.0181  0.7100
   72SOL     OW  214   2.821   1.481   2.313 -0.0175 -0.8304 -0.0220
   72SOL    HW1  215   2.877   1.565   2.315  0.8604 -2.6432  0.9911
   72SOL    HW2  216   2.735   1.507   2.258 -3.2266  0.7811 -0.8532
   73SOL     OW  217   1.778   1.237   0.508  0.2661 -0.1420  0.8747
   73SOL    HW1  218   1.875   1.261   0.495  0.6510 -0.1134 -2.1508
   73SOL    HW2  219   1.781   1.147   0.557  1.3566 -0.9884 -2.1310
   74SOL     OW  220   2.519   2.826   2.833  0.0716 -0.8700  0.2181
   74SOL    HW1  221   2.557   2.843   2.739  0.1003  0.6265 -3.1270
   74SOL    HW2  222   2.421   2.791   2.826 -1.2163  0.2802  1.6265
   75SOL     OW  223   2.099   1.938   1.069  0.2750 -0.8812  0.3368
   75SOL    HW1  224   2.047   2.025   1.092 -0.8180  2.0719  0.6491
   75SOL    HW2  225   2.036   1.868   1.023  0.0518 -0.9488  0.5772
   76SOL     OW  226   2.514   2.049   1.962 -0.3860  0.1964  0.2173
   76SOL    HW1  227   2.434   2.050   2.026  0.6981 -1.0274  1.3611
   76SOL    HW2  228   2.491   2.022   1.865 -1.4693 -0.2133  0.1102
   77SOL     OW  229   2.954   0.219   2.184 -0.0325 -0.7976  0.2641
   77SOL    HW1  230   2.952   0.247   2.084 -0.3052  0.4778  0.7325
   77SOL    HW2  231   2.956   0.309   2.238 -1.0003  2.4987  1.7805
   78SOL     OW  232   2.294   1.208   0.056 -0.1120 -0.8386  0.1352
   78SOL    HW1  233   2.222   1.227   3.070 -0.1687 -1.8167  2.5130
   78SOL    HW2  234   2.259   1.179   0.146 -1.3965 -1.4575  1.5840
   79SOL     OW  235   2.503   1.425   2.493 -0.4667 -0.1921 -0.3105
   79SOL    HW1  236   2.467   1.339   2.449  2.4446 -1.5531 -1.2610
   79SOL    HW2  237   2.513   1.509   2.437 -1.1554  0.7231 -2.6537
   80SOL     OW  238   1.414   1.497   1.551 -0.4616 -0.3488  0.7732
   80SOL    HW1  239   1.500   1.515   1.495  1.2267  0.7663 -1.6965
   80SOL    HW2  240   1.433   1.428   1.626  0.3362 -0.5820  2.0297
   81SOL     OW  241   2.149   0.769   1.899 -0.0992 -0.0921  0.1353
   81SOL    HW1  242   2.240   0.734   1.937  4.7432 -1.0442 -0.5400
   81SOL    HW2  243   2.172   0.839   1.833  1.3690  0.9458 -3.0378
   82SOL     OW  244   1.668   1.517   1.409 -0.5524  0.4675  0.0510
   82SOL    HW1  245   1.738   1.503   1.486 -1.9473 -2.4943  1.9895
   82SOL    HW2  246   1.661   1.613   1.383  0.9469 -1.4464  2.1467
   83SOL     OW  247   0.190   0.023   0.240 -0.9942  0.1131  0.2242
   83SOL    HW1  248   0.246   0.026   0.152  0.5308 -2.5190 -2.6226
   83SOL    HW2  249   0.100   0.068   0.228  2.4991 -1.9027  2.0247
   84SOL     OW  250   0.434   0.803   0.105 -0.1573  0.2347  0.0677
   84SOL    HW1  251   0.477   0.722   0.161 -0.6659 -2.2874  0.9705
   84SOL    HW2  252   0.368   0.767   0.041 -0.2495 -0.7630  2.2933
   85SOL     OW  253   2.591   1.829   1.307 -0.4129  0.0675 -0.3504
   85SOL    HW1  254   2.508   1.844   1.251 -3.7499  1.9107  0.9637
   85SOL    HW2  255   2.666   1.900   1.303  0.1580  1.2065 -0.0569
   86SOL     OW  256   0.488   2.581   1.245 -0.0420  0.0104  0.1954
   86SOL    HW1  257   0.568   2.518   1.263 -0.0030 -0.6719  2.1692
   86SOL    HW2  258   0.485   2.620   1.153  1.0566 -0.0717 -0.4295
   87SOL     OW  259   0.491   2.356   2.294  0.7169  0.6121 -0.1556
   87SOL    HW1  260   0.543   2.401   2.219 -0.8491  0.6319 -0.7831
   87SOL    HW2  261   0.441   2.274   2.264 -0.2118 -1.7244  2.4464
   88SOL     OW  262   3.059   2.180   0.451  0.1135 -0.2026  0.0496
   88SOL    HW1  263   0.004   2.108   0.387 -1.6736  0.3383  0.9403
   88SOL    HW2  264   2.957   2.178   0.461  2.0577 -2.4824 -0.7479
   89SOL     OW  265   0.901   0.953   1.024  0.0249  0.1174  0.2291
   89SOL    HW1  266   0.952   0.891   0.964  0.5272  3.0318  1.6357
   89SOL    HW2  267   0.921   0.942   1.121 -3.5219 -2.0186 -1.2304
   90SOL     OW  268   0.357   1.179   1.786  0.3415  0.8328  0.0352
   90SOL    HW1  269   0.279   1.240   1.781  0.2669  1.4122  2.3158
   90SOL    HW2  270   0.433   1.235   1.828 -0.4993 -1.2559 -0.3353
   91SOL     OW  271   1.095   0.762   0.929 -0.0585  0.1687 -0.3449
   91SOL    HW1  272   1.015   0.719   0.888  5.0051 -0.2773 -0.6031
   91SOL    HW2  273   1.118   0.724   1.027 -0.3970 -1.4155 -1.2044
   92SOL     OW  274   1.967   1.047   1.010  0.0856  0.3808  0.3565
   92SOL    HW1  275   1.901   1.124   1.014  0.7068  2.8733  1.8453
   92SOL    HW2  276   2.068   1.073   1.030  2.1145  1.7043 -0.5707
   93SOL     OW  277   2.615   0.918   2.316  0.1114  0.0701  0.2138
   93SOL    HW1  278   2.704   0.866   2.329  0.9717 -0.6880  0.0129
   93SOL    HW2  279   2.539   0.858   2.289  1.0145  0.1413 -0.8785
   94SOL     OW  280   1.943   1.678   2.626 -0.1176  0.2440  0.6705
   94SOL    HW1  281   1.884   1.761   2.637  1.3069  0.1372 -1.0629
   94SOL    HW2  282   2.040   1.706   2.603  1.1830  0.1762 -1.5677
   95SOL     OW  283   2.831   0.619   1.437  0.4383  0.0959  0.1506
   95SOL    HW1  284   2.915   0.597   1.386  2.1867  0.1676  0.5280
   95SOL    HW2  285   2.751   0.562   1.408 -1.3383  0.0234  1.6262
   96SOL     OW  286   2.506   2.897   1.702  0.1955 -0.8640 -0.3526
   96SOL    HW1  287   2.503   2.912   1.805 -0.3162  1.4167  0.9293
   96SOL    HW2  288   2.546   2.804   1.679 -0.4949  1.9386  1.1162
   97SOL     OW  289   2.496   1.002   1.533  0.8771  0.2133 -0.6672
   97SOL    HW1  290   2.591   0.970   1.510 -1.4146 -0.3729  0.3288
   97SOL    HW2  291   2.479   0.974   1.631  0.8905 -1.0666  0.7090
   98SOL     OW  292   1.650   2.350   1.739  0.0817  0.1899  0.1385
   98SOL    HW1  293   1.663   2.264   1.686 -3.0258 -3.3951  1.4012
   98SOL    HW2  294   1.737   2.391   1.772  0.9072  1.2439  2.0811
   99SOL     OW  295   0.480   2.406   1.539  0.1151 -0.6914 -0.5545
   99SOL    HW1  296   0.475   2.328   1.474 -0.7725  0.6607 -1.7687
   99SOL    HW2  297   0.536   2.477   1.493 -0.0114 -1.0858 -0.2289
  100SOL     OW  298   1.451   0.580   2.682  0.0489  0.0788  0.3223
  100SOL    HW1  299   1.487   0.483   2.680 -1.1431 -0.0029 -0.6225
  100SOL    HW2  300   1.350   0.578   2.710 -1.1843 -2.4452 -0.7692
  101SOL     OW  301   2.450   0.300   2.619 -0.4380  0.3259 -0.2721
  101SOL    HW1  302   2.419   0.230   2.685  0.2541  1.1458  0.3663
  101SOL    HW2  303   2.543   0.334   2.647  1.6080  3.0173 -0.9186
  102SOL     OW  304   0.626   0.830   1.279 -0.2938  0.1130  0.3262
  102SOL    HW1  305   0.521   0.829   1.287 -3.2105 -1.0483  0.0165
  102SOL    HW2  306   0.665   0.746   1.234  1.9210 -3.5234  0.1402
  103SOL     OW  307   0.892   0.665   2.542  0.2425  0.0761 -0.7317
  103SOL    HW1  308   0.962   0.621   2.486 -2.1948  4.2908 -1.5826
  103SOL    HW2  309   0.938   0.725   2.616  0.5157  0.4104  1.5176
  104SOL     OW  310   1.034   0.794   2.750 -0.4060  0.0752  0.4854
  104SOL    HW1  311   0.976   0.854   2.804  0.7451 -3.3678  0.9589
  104SOL    HW2  312   1.114   0.830   2.699  1.6040  1.4950  0.9027
  105SOL     OW  313   2.029   2.039   1.644  0.1598 -0.7865 -0.5577
  105SOL    HW1  314   2.097   1.965   1.646 -0.2082  1.6746  0.3432
  105SOL    HW2  315   2.011   2.085   1.555 -2.2299 -1.4488  0.5687
  106SOL     OW  316   1.702   2.917   0.449  0.2595 -0.1733  0.2978
  106SOL    HW1  317   1.655   2.880   0.529  0.1287  4.6184 -2.3411
  106SOL    HW2  318   1.800   2.891   0.438 -0.1745  1.1576  2.6141
  107SOL     OW  319   2.277   1.941   0.855  0.1949 -0.0980  0.3413
  107SOL    HW1  320   2.212   1.952   0.929  2.7074  2.0008 -0.6318
  107SOL    HW2  321   2.255   1.856   0.798 -1.0516  1.6637  0.7391
  108SOL     OW  322   2.629   3.063   1.444  0.0200 -0.0889  0.5424
  108SOL    HW1  323   2.548   3.023   1.490 -1.9334 -3.1576  0.2323
  108SOL    HW2  324   2.667   0.059   1.492 -1.0565 -0.0953 -2.4613
  109SOL     OW  325   1.967   2.466   0.924 -0.3674  0.1984  0.1244
  109SOL    HW1  326   1.900   2.418   0.985 -1.4563 -0.2761 -0.4185
  109SOL    HW2  327   2.008   2.546   0.969 -3.0830  0.6146 -0.2400
  110SOL     OW  328   0.836   1.727   2.018 -0.5473  0.4016  0.0581
  110SOL    HW1  329   0.786   1.647   2.055 -0.4256  1.9426 -0.5249
  110SOL    HW2  330   0.767   1.801   2.026 -1.0879 -1.7613  3.3960
  111SOL     OW  331   1.675   2.246   2.170  0.0539 -0.1809 -0.1367
  111SOL    HW1  332   1.747   2.223   2.101  3.4869 -2.2637 -0.3026
  111SOL    HW2  333   1.627   2.336   2.154 -0.0944  0.7295  0.8717
  112SOL     OW  334   1.452   1.756   2.419 -0.2591 -0.8070  0.1121
  112SOL    HW1  335   1.456   1.726   2.323 -2.6945  0.0221 -0.0368
  112SOL    HW2  336   1.535   1.808   2.452 -2.6333 -0.8237  0.2903
  113SOL     OW  337   1.566   1.927   1.572 -0.0486  0.2285 -0.0400
  113SOL    HW1  338   1.589   1.940   1.671  1.3306 -0.3487  2.6777
  113SOL    HW2  339   1.472   1.890   1.553  2.8415 -1.2598 -2.0967
  114SOL     OW  340   2.989   1.116   0.965  0.6475  0.0934  0.3792
  114SOL    HW1  341   3.030   1.109   1.057 -0.7222  0.1648  1.7810
  114SOL    HW2  342   2.888   1.098   0.973 -0.4717  0.1389  0.5690
  115SOL     OW  343   0.466   0.620   0.292 -0.4332 -0.1554  0.0995
  115SOL    HW1  344   0.506   0.642   0.385  0.6937  2.8684  0.3727
  115SOL    HW2  345   0.462   0.520   0.273  2.3664 -0.8914  1.3534
  116SOL     OW  346   2.515   1.685   2.397 -0.0778 -0.1407 -0.5505
  116SOL    HW1  347   2.474   1.780   2.395  1.4626  0.8852 -1.1761
  116SOL    HW2  348   2.605   1.684   2.450  1.0153 -0.2308 -1.5006
  117SOL     OW  349   0.023   2.569   0.716 -0.2803 -0.1045  0.5294
  117SOL    HW1  350   0.068   2.522   0.638 -0.0755  0.2938 -1.7722
  117SOL    HW2  351   0.057   2.539   0.803  0.1252 -1.9054 -1.4851
  118SOL     OW  352   0.686   1.396   2.623 -0.1195 -0.6740  0.0326
  118SOL    HW1  353   0.740   1.482   2.602 -1.3502 -2.9869  2.4386
  118SOL    HW2  354   0.639   1.372   2.539  0.3581  1.9017 -2.3008
  119SOL     OW  355   0.357   2.087   0.463 -0.1964 -0.1217 -0.2361
  119SOL    HW1  356   0.327   2.127   0.550 -0.3731  0.6175  0.5424
  119SOL    HW2  357   0.393   2.163   0.409  0.3830 -3.4221  1.7226
  120SOL     OW  358   1.310   0.480   0.347  0.0827 -0.5741  0.7619
  120SOL    HW1  359   1.394   0.423   0.343 -0.3818  0.9438  1.3004
  120SOL    HW2  360   1.320   0.562   0.405 -2.6933 -0.6456 -1.5589
  121SOL     OW  361   1.400   2.379   0.638  0.0784  0.2277 -0.1255
  121SOL    HW1  362   1.367   2.342   0.725 -0.9784  1.5798 -0.3293
  121SOL    HW2  363   1.424   2.309   0.569 -1.5411  0.1783 -0.2494
  122SOL     OW  364   2.365   2.342   1.718  0.4040  0.4262 -0.0424
  122SOL    HW1  365   2.304   2.320   1.640  0.3773  0.9495  2.1062
  122SOL    HW2  366   2.450   2.298   1.700 -2.8774 -1.1719  1.0802
  123SOL     OW  367   0.728   1.602   0.598  0.0964 -1.2770 -0.6259
  123SOL    HW1  368   0.695   1.664   0.525 -0.2069  1.3563  1.7838
  123SOL    HW2  369   0.829   1.624   0.611  3.2379 -0.2448  0.2919
  124SOL     OW  370   2.956   0.700   0.288  0.1916 -0.3852 -0.3004
  124SOL    HW1  371   2.941   0.674   0.190 -0.5644 -0.1669  0.8530
  124SOL    HW2  372   2.860   0.696   0.323  1.4510 -0.4857  0.5519
  125SOL     OW  373   0.548   0.688   0.594  0.0547  0.3070 -0.3411
  125SOL    HW1  374   0.498   0.687   0.684  2.8294 -3.1449  2.3207
  125SOL    HW2  375   0.568   0.786   0.569  2.5825 -1.6448  1.5587
  126SOL     OW  376   2.841   1.907   0.757  0.5272  0.0054 -0.0042
  126SOL    HW1  377   2.827   1.853   0.844  0.8156 -0.4894 -4.1490
  126SOL    HW2  378   2.843   2.010   0.777 -0.2416  4.6236  1.6154
  127SOL     OW  379   1.406   2.228   1.730 -1.5771 -0.1019 -0.3655
  127SOL    HW1  380   1.477   2.301   1.747  1.4634  1.0267  0.7591
  127SOL    HW2  381   1.351   2.196   1.811  1.3852  1.4089  0.0121
  128SOL     OW  382   0.922   1.173   0.142  0.6390 -0.2401 -0.0318
  128SOL    HW1  383   0.857   1.231   0.084  1.1631  1.6437 -0.5604
  128SOL    HW2  384   0.934   1.217   0.229 -0.8262 -2.7202  1.3567
  129SOL     OW  385   1.660   1.783   1.374 -0.2921  0.5772 -0.3386
  129SOL    HW1  386   1.652   1.847   1.454 -1.0601  0.8009 -0.5861
  129SOL    HW2  387   1.660   1.835   1.284  2.1560 -0.9872 -0.4849
  130SOL     OW  388   2.323   1.686   1.404  0.0561  0.4841  0.1189
  130SOL    HW1  389   2.326   1.728   1.310 -0.9192  1.5460 -2.3039
  130SOL    HW2  390   2.279   1.747   1.472 -3.3740  0.3546 -0.4110
  131SOL     OW  391   2.944   2.770   2.900  0.4496  0.2616 -0.2303
  131SOL    HW1  392   2.933   2.747   2.806  2.1503 -0.0491  1.6194
  131SOL    HW2  393   3.037   2.737   2.933 -2.5579  0.7337  1.1709
  132SOL     OW  394   2.556   1.638   0.731  0.4012  0.6923  0.3154
  132SOL    HW1  395   2.603   1.620   0.641 -1.3839  4.1836 -0.7824
  132SOL    HW2  396   2.614   1.598   0.805 -0.3719  0.9130  0.0842
  133SOL     OW  397   0.463   0.127   1.743  0.2810 -0.3491  0.0605
  133SOL    HW1  398   0.433   0.116   1.840  1.2260  1.2225  0.5653
  133SOL    HW2  399   0.529   0.207   1.740 -0.2405  1.5652  0.5937
  134SOL     OW  400   0.056   1.783   3.017  0.0709  0.4176 -0.3173
  134SOL    HW1  401   3.059   1.728   3.057 -2.0873 -0.9638  1.0882
  134SOL    HW2  402   0.024   1.860   2.956 -1.1288  1.5215  0.6389
  135SOL     OW  403   1.652   0.561   1.967  0.2908  0.0368 -1.1417
  135SOL    HW1  404   1.630   0.644   2.021  0.0333 -0.2540 -0.1641
  135SOL    HW2  405   1.626   0.573   1.868 -2.2143 -0.4513  4.5544
  136SOL     OW  406   2.711   1.592   0.466 -0.2282  0.2019 -0.5731
  136SOL    HW1  407   2.804   1.635   0.487 -0.0887 -2.5829 -2.2821
  136SOL    HW2  408   2.716   1.546   0.372  0.2621  2.9853  0.5814
  137SOL     OW  409   2.809   1.761   0.986  0.3281  0.2858 -0.3974
  137SOL    HW1  410   2.797   1.660   0.996  0.5138 -0.4522 -1.5015
  137SOL    HW2  411   2.857   1.792   1.070 -0.9870  2.5031  0.3754
  138SOL     OW  412   2.635   0.710   0.960  0.5657  0.1385 -0.6805
  138SOL    HW1  413   2.646   0.784   0.891 -0.5957  0.0457 -2.2075
  138SOL    HW2  414   2.609   0.746   1.053  2.1025  4.1843  1.2870
  139SOL     OW  415   1.154   2.589   0.091 -0.4303  0.2202  0.4464
  139SOL    HW1  416   1.231   2.655   0.102 -2.0329  0.5324 -1.7747
  139SOL    HW2  417   1.088   2.617   0.015 -1.6338  0.9094 -1.1854
  140SOL     OW  418   1.187   1.992   0.974 -0.3217  0.1252  0.4106
  140SOL    HW1  419   1.217   1.968   0.884 -0.9652  2.3482  2.9813
  140SOL    HW2  420   1.106   1.941   1.006 -2.3294 -1.2357 -0.0941
  141SOL     OW  421   1.449   2.153   0.495  0.6806  0.2214  0.0624
  141SOL    HW1  422   1.360   2.113   0.461 -0.6529  0.8680  0.1012
  141SOL    HW2  423   1.494   2.084   0.557 -1.6627  0.6416  0.0742
  142SOL     OW  424   0.873   0.498   0.940  0.0054 -0.0370 -0.5221
  142SOL    HW1  425   0.865   0.583   0.883  0.0557 -1.5345  1.6579
  142SOL    HW2  426   0.818   0.417   0.908  1.8468  0.1015 -0.7049
  143SOL     OW  427   0.727   1.325   0.026  0.1675  0.1619  0.0310
  143SOL    HW1  428   0.734   1.379   3.027  2.1583 -1.4368  1.1614
  143SOL    HW2  429   0.638   1.270   0.031 -2.1601 -1.8895 -1.6217
  144SOL     OW  430   1.852   2.681   0.723  0.3049  0.2398  0.2726
  144SOL    HW1  431   1.784   2.657   0.648 -1.4278  0.2323 -3.0281
  144SOL    HW2  432   1.870   2.604   0.788 -0.0598 -0.8183  0.1141
  145SOL     OW  433   1.932   0.645   2.669 -0.8449  0.0492 -0.0819
  145SOL    HW1  434   1.914   0.573   2.596 -2.9057  3.4379  1.2993
  145SOL    HW2  435   2.022   0.632   2.718  0.5365 -1.3110  0.6729
  146SOL     OW  436   0.092   2.869   0.327 -0.7294 -0.4769  0.0924
  146SOL    HW1  437   0.053   2.875   0.421  0.3075  1.7825  0.1742
  146SOL    HW2  438   0.122   2.964   0.295 -0.7040  0.2944 -1.4698
  147SOL     OW  439   1.943   0.098   2.281 -0.2091  0.5136 -0.4254
  147SOL    HW1  440   2.039   0.076   2.309  2.7529  1.2740  1.3000
  147SOL    HW2  441   1.938   0.197   2.250 -2.6143  0.6754 -2.0747
  148SOL     OW  442   1.303   0.324   2.042 -0.0076  0.7123  0.5967
  148SOL    HW1  443   1.376   0.373   2.096 -2.0837 -0.1619 -1.0809
  148SOL    HW2  444   1.327   0.226   2.028 -0.3446 -2.1343 -1.0533
  149SOL     OW  445   1.555   0.168   2.316 -0.0598 -0.4448  0.0455
  149SOL    HW1  446   1.571   0.256   2.265  2.3570  1.8999  0.7719
  149SOL    HW2  447   1.461   0.134   2.297 -1.9559 -1.6859  1.7544
  150SOL     OW  448   3.023   3.016   2.818 -0.5156  0.2367 -0.2918
  150SOL    HW1  449   2.995   2.922   2.851  0.3377 -0.7577  0.8865
  150SOL    HW2  450   2.942   3.076   2.804  1.7223  0.0800 -2.4298
  151SOL     OW  451   0.435   1.385   0.254 -0.0765  0.2871  0.1369
  151SOL    HW1  452   0.466   1.348   0.168 -0.3874 -0.2084  2.2866
  151SOL    HW2  453   0.477   1.480   0.269  0.3863 -1.2650  1.4151
  152SOL     OW  454   3.071   0.236   0.544  0.5417  0.3205 -0.0256
  152SOL    HW1  455   0.027   0.255   0.456 -1.7717 -1.9329  1.4435
  152SOL    HW2  456   3.056   0.325   0.599  0.3356  1.3517  3.0485
  153SOL     OW  457   2.616   0.456   1.377 -0.3046  0.4577 -0.3615
  153SOL    HW1  458   2.625   0.379   1.447  0.8930 -1.3447  1.0813
  153SOL    HW2  459   2.638   0.421   1.279  0.6280  0.4679 -1.3564
  154SOL     OW  460   1.401   0.048   2.002 -0.3487 -0.0482  0.0460
  154SOL    HW1  461   1.445   0.085   1.916  1.0798 -1.2769 -1.2577
  154SOL    HW2  462   1.373   3.031   1.999 -0.2568 -1.2456 -0.2561
  155SOL     OW  463   0.048   1.813   0.670 -0.5686 -0.4563 -0.3758
  155SOL    HW1  464   3.073   1.891   0.703  0.9483  0.3968 -0.2888
  155SOL    HW2  465   0.056   1.741   0.742 -2.5974 -0.8825 -0.6893
  156SOL     OW  466   2.312   1.985   2.884 -0.1188  0.4316 -0.2708
  156SOL    HW1  467   2.363   2.061   2.924  0.8197  0.6216  2.3275
  156SOL    HW2  468   2.245   1.951   2.949 -0.2627  0.3817 -1.8137
  157SOL     OW  469   0.788   0.162   0.625 -0.7280 -0.1601  0.1865
  157SOL    HW1  470   0.722   0.223   0.582  1.7997 -1.3221 -0.8832
  157SOL    HW2  471   0.889   0.188   0.599 -0.8286 -2.2280  3.3540
  158SOL     OW  472   2.345   0.491   2.114  0.3041 -0.0235 -0.2313
  158SOL    HW1  473   2.434   0.467   2.153 -1.1781  1.1425 -1.3275
  158SOL    HW2  474   2.363   0.557   2.036  1.0801  0.9713 -3.2885
  159SOL     OW  475   0.239   0.372   0.487 -0.1472  0.0209  0.5779
  159SOL    HW1  476   0.223   0.389   0.388 -0.6859 -2.8501  0.6571
  159SOL    HW2  477   0.276   0.278   0.510 -2.0839 -2.9188 -2.2340
  160SOL     OW  478   1.627   1.962   1.860  0.5077 -0.1500 -0.5139
  160SOL    HW1  479   1.575   1.977   1.947  0.4825  0.4924  0.0786
  160SOL    HW2  480   1.647   1.862   1.844  3.5714 -0.7953 -0.1745
  161SOL     OW  481   2.774   0.558   2.567 -0.5456  0.3678 -0.3107
  161SOL    HW1  482   2.778   0.579   2.665  2.5217 -0.8062  0.9321
  161SOL    HW2  483   2.803   0.463   2.554  0.5992 -0.2248 -0.9685
  162SOL     OW  484   0.971   2.572   1.853  0.7599  0.1511 -0.0836
  162SOL    HW1  485   0.989   2.525   1.761 -0.4786 -1.5098 -2.8251
  162SOL    HW2  486   0.942   2.666   1.830  0.2291 -1.1189  2.6041
  163SOL     OW  487   2.709   0.199   2.441  0.2433  0.7767  0.1619
  163SOL    HW1  488   2.748   0.120   2.389 -2.2823 -1.6854 -1.6575
  163SOL    HW2  489   2.624   0.172   2.488  0.6751 -1.9174 -2.1597
  164SOL     OW  490   2.161   1.578   0.164  0.3582 -0.0547 -0.1911
  164SOL    HW1  491   2.131   1.671   0.195  0.8005 -1.1288  1.1617
  164SOL    HW2  492   2.254   1.583   0.122  0.5916  0.5852  1.2159
  165SOL     OW  493   2.916   0.339   1.549 -0.1988 -0.0054 -1.0375
  165SOL    HW1  494   2.965   0.428   1.563  0.1326 -0.2690  1.9926
  165SOL    HW2  495   2.965   0.280   1.482  2.9903 -2.3687 -0.6666
  166SOL     OW  496   2.307   0.706   2.987  0.4705 -0.1665 -0.2873
  166SOL    HW1  497   2.383   0.673   2.938 -4.1547  1.9753 -0.6233
  166SOL    HW2  498   2.334   0.753   3.073 -0.9778 -2.3833  1.5045
  167SOL     OW  499   2.967   0.884   3.065  0.2213 -0.2107 -0.2227
  167SOL    HW1  500   3.035   0.883   0.058 -0.5737 -1.8986  1.0359
  167SOL    HW2  501   2.976   0.964   3.001 -0.7034  1.9172 -0.8368
  168SOL     OW  502   1.784   2.899   2.863 -0.2280  0.2992  0.4037
  168SOL    HW1  503   1.831   2.910   2.953  0.5024 -0.8422 -0.2009
  168SOL    HW2  504   1.743   2.986   2.833  1.9833  1.2539 -1.9597
  169SOL     OW  505   0.060   1.673   0.893 -0.6103 -0.3227  0.2208
  169SOL    HW1  506   0.067   1.569   0.897 -0.0397  2.1407  2.1036
  169SOL    HW2  507   0.099   1.716   0.981  0.8330  4.2982 -0.2362
  170SOL     OW  508   0.086   0.813   1.328  0.3820 -0.8728 -0.1824
  170SOL    HW1  509   0.106   0.788   1.427 -1.8970 -0.2044 -0.3470
  170SOL    HW2  510   0.009   0.749   1.293 -0.3013 -1.5820 -1.6932
  171SOL     OW  511   2.086   2.095   1.987 -0.1179 -0.5674 -0.3258
  171SOL    HW1  512   1.999   2.085   1.933 -2.2259 -0.1909  0.2154
  171SOL    HW2  513   2.141   2.015   1.988 -0.3766  1.3786  3.4473
  172SOL     OW  514   0.217   2.382   1.561  0.1899  0.4528 -0.3547
  172SOL    HW1  515   0.202   2.283   1.544  0.1624 -2.2180  0.4472
  172SOL    HW2  516   0.316   2.411   1.550 -1.7608 -1.0012 -0.7082
  173SOL     OW  517   1.480   1.085   0.082 -0.2881  0.5952 -0.6836
  173SOL    HW1  518   1.489   1.069   0.186  0.1647  0.4819  1.0352
  173SOL    HW2  519   1.475   0.992   0.042 -1.8728  3.3201  0.4129
  174SOL     OW  520   1.287   0.188   2.610  0.2782  0.4955 -0.1307
  174SOL    HW1  521   1.356   0.241   2.568 -0.7315 -3.1047  1.3155
  174SOL    HW2  522   1.334   0.147   2.695 -1.5241  0.6291  1.6907
  175SOL     OW  523   1.657   1.858   1.068  0.3357 -0.1010 -0.3812
  175SOL    HW1  524   1.751   1.847   1.023  2.3083  1.2420 -0.9590
  175SOL    HW2  525   1.609   1.771   1.070  0.2029 -1.4667 -1.4921
  176SOL     OW  526   1.296   0.163   0.185  0.4778 -0.3638 -0.4866
  176SOL    HW1  527   1.379   0.209   0.222  1.7490  0.9494 -1.1920
  176SOL    HW2  528   1.250   0.228   0.122 -1.6760  0.0937  1.1797
  177SOL     OW  529   0.612   0.913   2.965 -0.0192 -0.0857  0.0567
  177SOL    HW1  530   0.564   0.898   3.049  0.0120  0.6989 -3.0593
  177SOL    HW2  531   0.574   0.992   2.910  2.6093 -1.0992  0.8915
  178SOL     OW  532   2.505   2.431   2.401  0.1457 -0.3133  0.9454
  178SOL    HW1  533   2.514   2.515   2.340 -2.0952 -1.7752 -0.6950
  178SOL    HW2  534   2.557   2.355   2.363 -0.4543 -0.6820  1.6400
  179SOL     OW  535   2.873   0.320   2.893  0.4538  0.6553 -0.3065
  179SOL    HW1  536   2.855   0.233   2.846  2.2524  0.2112  0.8235
  179SOL    HW2  537   2.954   0.361   2.854 -2.2412  1.8871  1.6715
  180SOL     OW  538   1.808   1.000   0.620 -0.5016  0.7336  0.4760
  180SOL    HW1  539   1.719   0.989   0.670  0.9062  0.4691  1.2572
  180SOL    HW2  540   1.877   0.965   0.688  4.4352 -3.0912  1.6223
  181SOL     OW  541   1.958   1.438   2.472 -0.0085 -0.5428  0.1299
  181SOL    HW1  542   1.945   1.537   2.480 -2.7830 -0.6996  0.7657
  181SOL    HW2  543   1.884   1.389   2.529 -1.0642 -1.3166  4.8043
  182SOL     OW  544   2.770   2.473   2.530 -0.2424 -0.7165 -0.1441
  182SOL    HW1  545   2.835   2.446   2.458  0.3829  2.0211  1.0531
  182SOL    HW2  546   2.670   2.488   2.508  0.4789 -0.2213 -1.6157
  183SOL     OW  547   1.909   0.702   2.249 -0.7201  0.3431 -0.1046
  183SOL    HW1  548   1.912   0.780   2.186 -1.3910 -0.7520  3.2008
  183SOL    HW2  549   2.004   0.671   2.280 -0.2122  0.6951 -1.3804
  184SOL     OW  550   0.186   1.402   1.725  0.2969 -0.2217 -0.4447
  184SOL    HW1  551   0.217   1.421   1.626  0.0165  1.0371 -0.8930
  184SOL    HW2  552   0.188   1.486   1.781 -0.4145 -1.8135  0.2677
  185SOL     OW  553   1.688   0.354   0.707 -0.3435 -0.6210 -0.0751
  185SOL    HW1  554   1.697   0.352   0.811  0.1305  0.3115  2.3171
  185SOL    HW2  555   1.596   0.375   0.669  3.3233  1.3117 -3.4745
  186SOL     OW  556   0.198   2.468   2.777  0.9581  0.2872 -0.0286
  186SOL    HW1  557   0.129   2.424   2.717 -0.1884 -0.7342  1.2650
  186SOL    HW2  558   0.284   2.503   2.730  1.6511  2.2637  1.8771
  187SOL     OW  559   2.765   1.247   0.521  0.1560  0.2170 -0.2188
  187SOL    HW1  560   2.803   1.330   0.575 -2.1029  4.4411  2.9684
  187SOL    HW2  561   2.685   1.266   0.465  0.1637  0.1882  1.6252
  188SOL     OW  562   2.380   1.347   1.133 -0.1289 -0.3826  0.0028
  188SOL    HW1  563   2.437   1.319   1.213  0.3222  1.8556 -0.1964
  188SOL    HW2  564   2.435   1.360   1.051  0.4488 -0.2639 -2.1896
  189SOL     OW  565   2.916   0.330   2.527  0.0180 -0.3180  0.1773
  189SOL    HW1  566   2.846   0.260   2.502 -1.8937 -0.7859  2.9687
  189SOL    HW2  567   2.933   0.393   2.445  0.2293  0.9164  0.9380
  190SOL     OW  568   1.354   0.944   1.531  0.4277 -0.8831 -0.0160
  190SOL    HW1  569   1.445   0.980   1.561 -1.6473  0.8054  0.9198
  190SOL    HW2  570   1.278   0.990   1.581  1.0249  1.0189 -0.1210
  191SOL     OW  571   0.673   0.437   1.924  0.1677 -0.6689 -0.4434
  191SOL    HW1  572   0.650   0.372   1.848  0.2842  0.7682 -3.7524
  191SOL    HW2  573   0.735   0.506   1.884 -4.7166  1.2380  1.0958
  192SOL     OW  574   1.670   2.190   1.504 -0.8107 -0.3903 -0.0503
  192SOL    HW1  575   1.613   2.105   1.514  1.9762 -0.2242 -0.1710
  192SOL    HW2  576   1.630   2.252   1.430 -2.0249  3.4424  0.7429
  193SOL     OW  577   1.771   0.543   1.327 -0.8655  0.0744  0.1866
  193SOL    HW1  578   1.673   0.514   1.328  1.8657  1.1309 -2.2698
  193SOL    HW2  579   1.786   0.617   1.258 -0.6386  0.4757 -2.3341
  194SOL     OW  580   0.582   2.160   1.400 -0.4773 -0.1368  0.2848
  194SOL    HW1  581   0.492   2.113   1.386 -1.1189  0.9923  2.1021
  194SOL    HW2  582   0.645   2.114   1.334  0.2729 -1.6003 -0.8092
  195SOL     OW  583   1.528   0.304   0.288  0.1978 -0.4287 -0.0456
  195SOL    HW1  584   1.564   0.236   0.353 -0.9080  2.6218 -0.0586
  195SOL    HW2  585   1.603   0.365   0.254 -0.9527  0.5151  1.4352
  196SOL     OW  586   0.302   1.451   1.457  0.3624  0.2162  0.4715
  196SOL    HW1  587   0.302   1.531   1.399 -2.2004 -3.2590  1.3107
  196SOL    HW2  588   0.394   1.431   1.497  0.7002 -1.1790 -1.7164
  197SOL     OW  589   0.955   0.282   1.624  0.0770  0.1698 -0.2259
  197SOL    HW1  590   1.027   0.251   1.561 -0.6924  1.4207  2.2583
  197SOL    HW2  591   0.991   0.276   1.721  0.2618  1.6483 -0.5118
  198SOL     OW  592   0.678   1.334   1.121 -0.0969 -0.3300 -0.0495
  198SOL    HW1  593   0.714   1.414   1.170  1.6885  0.0336 -3.6828
  198SOL    HW2  594   0.676   1.250   1.180 -0.5442 -0.3778 -4.9748
  199SOL     OW  595   3.065   2.503   1.596  0.1320 -0.3162 -0.9558
  199SOL    HW1  596   3.083   2.594   1.639  0.2618 -1.6092  0.5624
  199SOL    HW2  597   0.070   2.452   1.602 -1.5957 -0.0824  1.5544
  200SOL     OW  598   1.737   1.409   1.829  0.0356 -0.4830  0.9502
  200SOL    HW1  599   1.801   1.438   1.758 -1.6573 -1.1630  1.5126
  200SOL    HW2  600   1.769   1.322   1.872  0.9987  0.3126  0.1980
  201SOL     OW  601   0.680   1.922   2.093  0.9464 -0.3120 -0.0803
  201SOL    HW1  602   0.738   1.975   2.159 -0.2745  2.9679  1.6700
  201SOL    HW2  603   0.589   1.895   2.134  1.8598 -2.6117 -0.2466
  202SOL     OW  604   1.535   0.557   3.057 -0.0863 -0.4478  0.4645
  202SOL    HW1  605   1.574   0.596   2.972  2.3731  0.9893  0.3149
  202SOL    HW2  606   1.455   0.611   0.005 -2.4842 -1.7013  0.3543
  203SOL     OW  607   1.377   2.840   1.975  0.0858  0.4194  0.0875
  203SOL    HW1  608   1.463   2.789   2.009  1.4903 -0.4642 -0.0929
  203SOL    HW2  609   1.297   2.780   1.968 -1.7195 -0.4320 -0.5566
  204SOL     OW  610   0.588   1.859   1.644  0.2956 -0.2814  0.7584
  204SOL    HW1  611   0.626   1.951   1.668  0.7010  0.5202  1.4423
  204SOL    HW2  612   0.486   1.857   1.658 -0.6055  0.1132  0.0322
  205SOL     OW  613   1.665   1.683   1.828  0.8048 -0.1566 -0.1215
  205SOL    HW1  614   1.724   1.598   1.828  3.2161  1.2775 -0.6292
  205SOL    HW2  615   1.563   1.663   1.858 -3.4405 -0.8146  2.4182
  206SOL     OW  616   0.002   1.540   2.150 -0.3320 -0.1710 -0.1949
  206SOL    HW1  617   0.075   1.502   2.213 -0.3343 -0.9540  0.1563
  206SOL    HW2  618   3.060   1.636   2.175  0.0814  0.5488  0.4891
  207SOL     OW  619   0.684   2.853   2.041  0.1933  0.1747 -0.1252
  207SOL    HW1  620   0.646   2.891   1.957  0.3056  2.8963 -0.7964
  207SOL    HW2  621   0.650   2.895   2.121 -0.9908 -0.1836 -2.5915
  208SOL     OW  622   0.421   2.556   1.914 -0.0528 -0.1415  0.0850
  208SOL    HW1  623   0.451   2.593   1.825  0.3597 -1.3561  1.4321
  208SOL    HW2  624   0.385   2.461   1.894 -1.8371  3.4289 -1.2371
  209SOL     OW  625   1.269   2.825   0.541 -0.0239 -0.0753 -0.2167
  209SOL    HW1  626   1.354   2.807   0.596  0.2108 -1.3233  2.0735
  209SOL    HW2  627   1.240   2.922   0.546 -0.0599  0.0459 -0.3006
  210SOL     OW  628   2.526   0.562   0.691  0.2432  0.4146 -0.6794
  210SOL    HW1  629   2.613   0.507   0.696 -0.8848  0.6097 -1.0847
  210SOL    HW2  630   2.552   0.654   0.659  1.3452 -4.5360  0.6902
  211SOL     OW  631   0.576   0.521   1.509  0.3566  0.2432 -0.4185
  211SOL    HW1  632   0.531   0.602   1.556  1.1392  0.5959 -0.9061
  211SOL    HW2  633   0.660   0.554   1.464 -2.2966  0.6722 -0.3869
  212SOL     OW  634   1.577   2.534   1.573  0.1342 -0.0070  0.1183
  212SOL    HW1  635   1.602   2.471   1.650  0.0891 -1.5774  1.6148
  212SOL    HW2  636   1.566   2.481   1.490  1.1420  0.7749  1.9244
  213SOL     OW  637   2.971   0.331   1.915  0.2214  0.0561 -0.5438
  213SOL    HW1  638   2.875   0.355   1.915  2.6918 -0.9357 -0.5789
  213SOL    HW2  639   2.996   0.260   1.847 -3.2134 -0.5821 -1.9928
  214SOL     OW  640   0.623   2.485   2.092 -0.2348 -0.3079  0.0309
  214SOL    HW1  641   0.546   2.514   2.035  0.3838 -0.2889 -0.0636
  214SOL    HW2  642   0.691   2.567   2.096  2.1363 -0.3696 -0.0589
  215SOL     OW  643   2.776   1.581   1.593 -0.5999  0.2827 -0.5838
  215SOL    HW1  644   2.869   1.555   1.572 -1.8017 -0.2333  1.3888
  215SOL    HW2  645   2.708   1.563   1.524  0.6122 -3.2344  1.8853
  216SOL     OW  646   0.682   1.281   2.215  0.3383  0.1766  0.0377
  216SOL    HW1  647   0.667   1.188   2.177 -1.3217  3.3750  3.0299
  216SOL    HW2  648   0.614   1.293   2.290  0.1487  0.5982 -0.3076
  217SOL     OW  649   2.606   0.330   1.132 -0.3506 -0.1282 -0.0174
  217SOL    HW1  650   2.563   0.258   1.187  0.1895  2.0684 -3.3474
  217SOL    HW2  651   2.671   0.290   1.063  1.3120  2.8185  0.1905
  218SOL     OW  652   1.489   2.133   0.964  1.1404 -0.4741  0.2130
  218SOL    HW1  653   1.503   2.036   0.927  1.2775 -1.7265 -1.0603
  218SOL    HW2  654   1.406   2.181   0.925 -1.0676  1.0245 -1.8983
  219SOL     OW  655   1.872   2.443   0.462  0.9049  0.4114 -0.1136
  219SOL    HW1  656   1.865   2.545   0.452  2.0734  1.3037 -0.2266
  219SOL    HW2  657   1.786   2.392   0.435  2.3058 -2.4727  1.7342
  220SOL     OW  658   1.683   2.421   0.095  0.1063  0.5323  0.1807
  220SOL    HW1  659   1.671   2.517   0.056  1.6579  1.7455 -1.0593
  220SOL    HW2  660   1.778   2.393   0.117  0.7115  1.3036 -1.4382
  221SOL     OW  661   2.864   1.880   0.318 -0.2050 -0.1398  0.4151
  221SOL    HW1  662   2.768   1.914   0.315 -2.8338 -1.0990 -3.5787
  221SOL    HW2  663   2.879   1.804   0.383  1.6860  0.3640 -0.4398
  222SOL     OW  664   0.660   2.340   0.810  0.5461 -0.3274  0.5077
  222SOL    HW1  665   0.638   2.386   0.721 -0.7035  1.0085 -0.9854
  222SOL    HW2  666   0.718   2.398   0.873 -1.4901 -0.3441  1.2334
  223SOL     OW  667   0.944   0.134   0.234  0.1048  0.1526  0.0488
  223SOL    HW1  668   0.995   0.046   0.220 -0.9739  1.2763  2.6505
  223SOL    HW2  669   0.862   0.109   0.290  0.5289 -2.0864  1.3654
  224SOL     OW  670   2.732   1.069   1.045  0.0418  0.1962  0.0114
  224SOL    HW1  671   2.681   1.083   0.959  0.6265  2.6196 -0.7539
  224SOL    HW2  672   2.684   1.113   1.122 -2.0584 -0.9917 -1.8262
  225SOL     OW  673   2.972   1.842   1.184  0.4782  0.2421 -0.2639
  225SOL    HW1  674   3.018   1.910   1.123 -0.9016  0.2503 -0.6750
  225SOL    HW2  675   3.031   1.837   1.268 -0.6668  0.8678 -1.2856
  226SOL     OW  676   0.802   2.919   1.073 -0.1550 -0.1963  0.3132
  226SOL    HW1  677   0.831   2.970   0.984  2.2226 -0.3703 -0.3773
  226SOL    HW2  678   0.716   2.956   1.119 -0.5135  1.2578  0.5144
  227SOL     OW  679   1.153   1.464   1.596  0.1513 -0.1151  0.1089
  227SOL    HW1  680   1.254   1.466   1.582  0.8267 -0.5027  1.4978
  227SOL    HW2  681   1.101   1.448   1.509 -1.0694  0.3547 -1.6312
  228SOL     OW  682   1.053   0.111   1.849 -0.1686  0.0224  0.9022
  228SOL    HW1  683   1.013   0.027   1.890 -1.9394  0.9159 -0.3204
  228SOL    HW2  684   1.051   0.184   1.914  1.4764  0.9712 -0.6807
  229SOL     OW  685   3.049   0.934   2.429  0.2268 -0.4827 -0.3233
  229SOL    HW1  686   0.037   0.945   2.498 -0.1963 -1.3896 -0.9917
  229SOL    HW2  687   0.015   0.926   2.344 -1.1698 -0.2128  1.5265
  230SOL     OW  688   2.974   0.793   0.998 -0.4853  0.1490 -0.4903
  230SOL    HW1  689   2.926   0.709   1.031  0.0011 -0.7781  1.0294
  230SOL    HW2  690   2.917   0.879   1.024 -2.6573 -0.3770 -0.1223
  231SOL     OW  691   1.320   0.014   2.358  0.2124  0.1286  0.3850
  231SOL    HW1  692   1.376   3.016   2.339  0.2704  0.1431  1.8987
  231SOL    HW2  693   1.332   0.041   2.455  2.7676  1.1681  0.3099
  232SOL     OW  694   0.048   1.975   0.290 -0.5930 -0.7307  0.1947
  232SOL    HW1  695   0.112   1.913   0.338 -1.6854 -2.0354 -0.3017
  232SOL    HW2  696   3.040   1.933   0.285  2.6820 -2.5352 -1.4611
  233SOL     OW  697   1.463   2.545   2.776  0.0617 -0.2607 -0.0223
  233SOL    HW1  698   1.455   2.480   2.853  0.4583  1.0258 -1.3271
  233SOL    HW2  699   1.367   2.574   2.755 -0.0939 -1.0510 -1.1192
  234SOL     OW  700   0.763   1.269   1.770 -0.6771  0.2749 -0.1918
  234SOL    HW1  701   0.717   1.247   1.682  2.6970  2.4745  0.3448
  234SOL    HW2  702   0.861   1.295   1.763 -2.0562 -3.7606  2.5266
  235SOL     OW  703   0.174   2.451   2.237  0.5543 -0.1771  0.2554
  235SOL    HW1  704   0.207   2.359   2.220 -1.9250  0.9538 -2.0637
  235SOL    HW2  705   0.215   2.512   2.162  1.3410  3.6447  0.8813
  236SOL     OW  706   1.582   1.865   2.693 -0.2715  0.4040  0.1939
  236SOL    HW1  707   1.613   1.813   2.610 -0.5949 -1.2973  0.6632
  236SOL    HW2  708   1.600   1.966   2.686 -1.4172  1.1227  2.2670
  237SOL     OW  709   1.331   0.695   0.508 -0.1127  0.3572  0.0201
  237SOL    HW1  710   1.270   0.733   0.579  0.0561  2.9243 -1.8996
  237SOL    HW2  711   1.421   0.735   0.509 -1.8827 -2.7589  1.6034
  238SOL     OW  712   0.870   2.654   2.107 -1.0585  0.2879  0.1867
  238SOL    HW1  713   0.792   2.716   2.101 -0.1388  1.4674  0.9175
  238SOL    HW2  714   0.898   2.623   2.014 -1.4276  0.0953  1.7396
  239SOL     OW  715   1.239   2.606   1.948  0.2441  0.2429  0.1866
  239SOL    HW1  716   1.146   2.600   1.906  0.2175  1.4989 -1.1934
  239SOL    HW2  717   1.278   2.512   1.953  0.0235  0.3545 -4.4871
  240SOL     OW  718   1.875   2.949   0.710  0.1340 -0.4165 -0.0451
  240SOL    HW1  719   1.842   2.852   0.705  0.2971 -2.4054  0.1721
  240SOL    HW2  720   1.936   2.969   0.632 -2.9732  1.1175  0.1099
  241SOL     OW  721   1.012   1.168   2.339  0.2216 -0.5871  0.3617
  241SOL    HW1  722   0.996   1.071   2.341 -1.4312  3.1796 -1.8274
  241SOL    HW2  723   0.996   1.213   2.433  0.6984  2.8566  0.6049
  242SOL     OW  724   2.504   0.656   2.821  0.1641  0.1249  0.0506
  242SOL    HW1  725   2.603   0.675   2.816  3.6276  0.7207 -0.1965
  242SOL    HW2  726   2.457   0.680   2.736  0.5536  1.3359  2.7765
  243SOL     OW  727   0.977   0.426   1.194 -0.1576 -0.2479  0.3662
  243SOL    HW1  728   1.069   0.393   1.224 -0.9423  0.4904 -2.9025
  243SOL    HW2  729   0.980   0.451   1.092  1.2768  2.9335 -1.0788
  244SOL     OW  730   1.425   0.008   2.800  0.5290  0.6389  0.0040
  244SOL    HW1  731   1.398   0.014   2.897  0.1660  2.7643 -0.5917
  244SOL    HW2  732   1.526   0.024   2.796  2.4139  0.9543  0.1452
  245SOL     OW  733   1.915   2.894   0.010 -0.2346  0.0322 -0.7133
  245SOL    HW1  734   1.836   2.878   0.071  0.4592 -0.0931 -1.9696
  245SOL    HW2  735   2.001   2.906   0.060 -3.0070  0.4400  0.0102
  246SOL     OW  736   0.842   0.780   1.469 -0.0139  0.2912 -0.0436
  246SOL    HW1  737   0.770   0.791   1.392 -0.5127  1.2056  0.4732
  246SOL    HW2  738   0.882   0.685   1.453 -2.0015  0.3188  1.4628
  247SOL     OW  739   0.291   0.406   1.849 -0.3027  0.5343  0.3072
  247SOL    HW1  740   0.256   0.322   1.893  1.4778  1.6950  0.2109
  247SOL    HW2  741   0.301   0.395   1.748  1.1877 -0.1848 -1.3993
  248SOL     OW  742   2.910   1.808   1.860  0.3529 -0.2039  0.2471
  248SOL    HW1  743   2.934   1.709   1.867 -1.0194  0.3864  0.1444
  248SOL    HW2  744   2.956   1.865   1.933  0.2833  0.3776 -3.5807
  249SOL     OW  745   0.106   0.173   2.997 -0.1520  0.3523 -0.2355
  249SOL    HW1  746   0.045   0.192   3.077 -1.9142  1.9067 -2.5774
  249SOL    HW2  747   0.096   0.082   2.959  0.1113  1.1253  0.5285
  250SOL     OW  748   3.003   0.108   0.206  0.1661  0.1861  0.4916
  250SOL    HW1  749   2.939   0.176   0.157  0.2717  4.6347  1.8755
  250SOL    HW2  750   2.943   0.040   0.251  0.5547  2.0386 -1.0555
  251SOL     OW  751   0.981   1.852   1.813  0.1030  0.2896  0.8339
  251SOL    HW1  752   0.954   1.946   1.800  0.7388 -1.7307  1.6328
  251SOL    HW2  753   0.936   1.808   1.889 -0.8238 -3.5630 -1.2893
  252SOL     OW  754   1.889   2.428   1.230 -0.1046  0.4023  0.3635
  252SOL    HW1  755   1.817   2.498   1.237 -1.5422 -1.2829 -1.6028
  252SOL    HW2  756   1.980   2.465   1.239 -2.4047 -1.5597 -0.0535
  253SOL     OW  757   1.706   1.895   2.435 -0.0718  0.2477  0.3131
  253SOL    HW1  758   1.784   1.877   2.376 -1.6022  1.5417 -2.0513
  253SOL    HW2  759   1.707   1.990   2.473  1.4092 -1.1189  1.6756
  254SOL     OW  760   0.844   2.303   2.107 -0.2734  0.3108  0.0796
  254SOL    HW1  761   0.810   2.256   2.019  0.8482  0.5878 -1.2522
  254SOL    HW2  762   0.772   2.364   2.141  0.2125  1.5765 -0.2238
  255SOL     OW  763   1.171   0.201   1.459 -0.7577 -0.5942 -0.1495
  255SOL    HW1  764   1.137   0.140   1.389 -0.1321  0.7271  2.8587
  255SOL    HW2  765   1.196   0.148   1.543  0.3583 -1.4385  0.1092
  256SOL     OW  766   2.367   2.038   1.423  0.4469  0.2390 -0.1973
  256SOL    HW1  767   2.331   1.979   1.349 -1.2707 -0.7737  0.6397
  256SOL    HW2  768   2.458   2.078   1.401 -1.1579 -0.1251 -2.5644
  257SOL     OW  769   0.429   2.236   2.727  0.0271 -0.5369  0.6089
  257SOL    HW1  770   0.505   2.286   2.680  1.6665  1.4822  0.2927
  257SOL    HW2  771   0.401   2.282   2.816 -0.1083  0.2021 -0.1127
  258SOL     OW  772   0.484   1.231   0.010 -0.4803 -0.1174  0.0789
  258SOL    HW1  773   0.491   1.218   2.990 -2.2255  1.3211 -0.4262
  258SOL    HW2  774   0.393   1.203   0.048 -1.4431 -0.3052  2.4109
  259SOL     OW  775   0.619   1.651   2.373  0.1686  0.4161 -0.5181
  259SOL    HW1  776   0.656   1.596   2.294  0.9043  3.5343  2.8289
  259SOL    HW2  777   0.682   1.647   2.454 -0.1457 -0.8714 -3.0538
  260SOL     OW  778   1.874   0.814   1.397 -0.1912 -0.1517 -0.0102
  260SOL    HW1  779   1.802   0.871   1.350 -1.4617 -1.5648 -0.7024
  260SOL    HW2  780   1.880   0.713   1.368  0.0244 -2.0317 -0.6358
  261SOL     OW  781   1.138   0.173   0.820  0.1065 -0.0175  0.2343
  261SOL    HW1  782   1.128   0.104   0.745 -2.1483  1.2277  1.3792
  261SOL    HW2  783   1.077   0.152   0.901 -4.4949  0.1658 -0.4746
  262SOL     OW  784   1.966   2.023   2.581  0.1733 -0.2372  0.5344
  262SOL    HW1  785   2.066   2.008   2.575  1.3331  1.9025  2.3625
  262SOL    HW2  786   1.945   2.122   2.558 -0.9709  3.8760 -1.6253
  263SOL     OW  787   0.119   1.543   2.895 -0.0383  0.5074  0.3980
  263SOL    HW1  788   0.121   1.630   2.945  2.1830 -0.1051  1.8773
  263SOL    HW2  789   0.035   1.522   2.850  1.6659 -2.9724  0.5780
  264SOL     OW  790   0.347   1.865   1.116  0.4708 -0.5151 -0.1158
  264SOL    HW1  791   0.327   1.798   1.194 -1.6676 -0.9414  3.5675
  264SOL    HW2  792   0.373   1.817   1.029 -0.3360  1.5620  0.3324
  265SOL     OW  793   0.642   0.930   0.877  0.2085 -0.2849  0.2501
  265SOL    HW1  794   0.700   0.971   0.950 -1.0792 -0.6807 -1.6613
  265SOL    HW2  795   0.594   1.004   0.826  0.2029 -0.5772  0.4112
  266SOL     OW  796   1.505   1.749   0.102  0.2441  0.1609 -0.0953
  266SOL    HW1  797   1.577   1.767   0.026  2.8477 -0.0197 -3.1514
  266SOL    HW2  798   1.510   1.810   0.183  1.0308 -1.0974  0.2964
  267SOL     OW  799   0.755   1.095   2.666  0.1756 -0.1718 -0.0532
  267SOL    HW1  800   0.776   1.180   2.612  0.6081 -2.3335 -0.9620
  267SOL    HW2  801   0.838   1.065   2.716 -0.1396  0.1229 -0.5253
  268SOL     OW  802   0.710   0.605   2.984 -0.3729 -0.4291 -0.4404
  268SOL    HW1  803   0.726   0.601   3.081 -1.9115  0.7639 -4.0045
  268SOL    HW2  804   0.660   0.691   2.956 -0.9256  0.3693  1.0555
  269SOL     OW  805   1.981   2.902   2.461 -0.7982 -0.3861 -0.1026
  269SOL    HW1  806   1.893   2.908   2.406 -0.5952 -0.8489  0.7157
  269SOL    HW2  807   1.991   2.809   2.499 -0.3305  4.1916  4.0595
  270SOL     OW  808   1.046   1.228   2.856 -0.2273 -0.6439  0.2487
  270SOL    HW1  809   1.141   1.194   2.849 -1.4752 -1.0148 -4.2900
  270SOL    HW2  810   0.993   1.168   2.926  0.2860 -1.4274  1.0937
  271SOL     OW  811   2.932   0.618   0.015  0.2230  0.6868 -0.8377
  271SOL    HW1  812   3.005   0.561   3.050  1.4808  0.7747 -3.5444
  271SOL    HW2  813   2.940   0.715   3.075 -0.6293  0.9355  1.7200
  272SOL     OW  814   2.314   1.020   2.594 -0.4942 -0.0490 -0.0157
  272SOL    HW1  815   2.237   1.067   2.637 -0.0130 -0.7461  0.6939
  272SOL    HW2  816   2.405   1.046   2.634  3.2719  3.0941  0.8177
  273SOL     OW  817   0.178   0.199   2.141  0.3184 -0.1471 -0.0300
  273SOL    HW1  818   0.081   0.171   2.137 -0.2344 -0.8697 -1.3434
  273SOL    HW2  819   0.197   0.269   2.216 -0.0034 -0.2557  0.0912
  274SOL     OW  820   0.077   0.538   1.940  0.0369  0.0962 -0.4684
  274SOL    HW1  821   0.173   0.508   1.911  1.1112  2.9475 -0.5506
  274SOL    HW2  822   0.010   0.463   1.957 -0.8531  1.6736 -1.7731
  275SOL     OW  823   1.673   1.443   0.673 -0.0351  0.3823 -0.0514
  275SOL    HW1  824   1.712   1.381   0.602  0.0588 -2.1623  1.2959
  275SOL    HW2  825   1.705   1.536   0.661  0.4303 -0.6710 -1.5774
  276SOL     OW  826   0.507   1.288   2.428 -0.1456  0.2475 -0.9147
  276SOL    HW1  827   0.492   1.188   2.451 -2.2963  0.5830 -0.7676
  276SOL    HW2  828   0.417   1.327   2.406 -0.7079 -0.7246  1.7842
  277SOL     OW  829   2.059   2.611   2.355  1.0258  0.1950  0.0436
  277SOL    HW1  830   2.113   2.576   2.276  0.5293  3.4438  1.0891
  277SOL    HW2  831   1.966   2.648   2.320 -2.7128  2.6167 -1.2595
  278SOL     OW  832   2.065   3.058   1.807 -0.5129  0.1165  0.0275
  278SOL    HW1  833   1.973   3.061   1.847 -0.0958  0.9140  2.3228
  278SOL    HW2  834   2.057   3.052   1.701  1.2995 -2.4084  2.0448
  279SOL     OW  835   1.534   1.313   3.027  0.3114 -0.2501  0.2848
  279SOL    HW1  836   1.472   1.389   3.058 -2.1128  3.0199  0.6995
  279SOL    HW2  837   1.525   1.232   0.003  0.9225  1.4867 -1.7299
  280SOL     OW  838   0.693   1.509   0.252 -0.0216 -0.6163 -0.5048
  280SOL    HW1  839   0.780   1.531   0.302 -1.0606  0.2645  0.6819
  280SOL    HW2  840   0.706   1.449   0.169 -0.2126 -1.1066  1.1025
  281SOL     OW  841   3.045   2.983   1.437  0.0383  0.3652 -0.3263
  281SOL    HW1  842   0.039   2.932   1.474 -2.6449  2.8866 -1.9686
  281SOL    HW2  843   2.986   3.015   1.514  3.5138 -1.3370  2.9318
  282SOL     OW  844   2.896   2.146   0.836 -0.2538 -0.2099  0.2889
  282SOL    HW1  845   2.991   2.150   0.806 -2.3633 -1.0022  1.1134
  282SOL    HW2  846   2.846   2.219   0.784  0.3604  1.7068 -2.6618
  283SOL     OW  847   1.227   1.893   2.096  0.3373 -0.6355  0.5598
  283SOL    HW1  848   1.241   1.973   2.164  0.7949  2.3113  2.5239
  283SOL    HW2  849   1.197   1.807   2.140 -0.4781  2.8753  0.4538
  284SOL     OW  850   1.905   0.141   0.397 -0.5832  0.2027 -0.0535
  284SOL    HW1  851   1.953   0.083   0.470 -0.0824 -3.0696  0.6529
  284SOL    HW2  852   1.943   0.116   0.305  0.1418 -0.5638  0.5666
  285SOL     OW  853   0.252   2.795   2.593 -0.2093 -0.5524 -0.0620
  285SOL    HW1  854   0.192   2.759   2.520  1.7426 -1.9964 -0.1359
  285SOL    HW2  855   0.328   2.734   2.623  2.6443  0.0819  0.0502
  286SOL     OW  856   2.143   2.515   1.247 -0.0701 -0.1686 -0.8062
  286SOL    HW1  857   2.236   2.505   1.288  1.0160 -2.1266 -0.2135
  286SOL    HW2  858   2.137   2.575   1.168 -3.0302 -1.5803  1.8807
  287SOL     OW  859   0.608   1.592   0.842  0.0938  0.4905  0.1644
  287SOL    HW1  860   0.561   1.500   0.861  1.7843  0.3159  1.3207
  287SOL    HW2  861   0.662   1.590   0.757  1.9671  0.2724 -2.3507
  288SOL     OW  862   1.916   2.087   2.859 -0.0394  0.0278  0.9069
  288SOL    HW1  863   1.851   2.165   2.863  0.5327  1.6575 -0.3048
  288SOL    HW2  864   1.911   2.046   2.767 -2.4201 -0.0023 -2.2116
  289SOL     OW  865   0.433   2.056   2.426 -0.2045  0.0883 -0.4477
  289SOL    HW1  866   0.519   2.098   2.455 -1.6942 -1.0486  0.3630
  289SOL    HW2  867   0.369   2.030   2.500  2.9814 -2.0034 -1.8661
  290SOL     OW  868   1.194   2.187   1.157  1.0424  0.1117  0.1338
  290SOL    HW1  869   1.290   2.204   1.189  0.2386 -2.9327 -0.5073
  290SOL    HW2  870   1.189   2.137   1.069  0.9213  2.6296 -2.4677
  291SOL     OW  871   1.792   1.345   2.948 -0.4092  0.2127 -0.2789
  291SOL    HW1  872   1.836   1.413   3.010  1.1134 -1.2581 -0.8489
  291SOL    HW2  873   1.693   1.337   2.965  3.3641  0.5170 -0.4235
  292SOL     OW  874   1.003   1.339   0.700  0.6061 -0.1020 -0.2420
  292SOL    HW1  875   0.918   1.292   0.730 -0.8471 -0.3234  0.9718
  292SOL    HW2  876   1.034   1.320   0.606 -0.5975 -0.8981  0.7883
  293SOL     OW  877   1.307   2.932   1.126 -0.7582  0.3261 -0.5597
  293SOL    HW1  878   1.399   2.977   1.106  2.0524  1.8053 -0.2524
  293SOL    HW2  879   1.256   2.904   1.040 -1.2994 -2.7976 -1.3154
  294SOL     OW  880   2.957   1.107   2.934  0.2670  0.3459  0.3249
  294SOL    HW1  881   3.009   1.190   2.924  1.1319  0.0796  0.7095
  294SOL    HW2  882   2.967   1.049   2.851 -0.3276 -0.2781  1.0487
  295SOL     OW  883   1.589   2.140   2.635 -0.4840 -0.4306 -0.0027
  295SOL    HW1  884   1.627   2.199   2.712  0.7300  0.6615  1.9252
  295SOL    HW2  885   1.635   2.169   2.547 -1.2540  1.1105 -0.1004
  296SOL     OW  886   2.112   1.072   2.168  0.3923  0.1056  0.2514
  296SOL    HW1  887   2.027   1.028   2.147  0.1452  1.1362  1.9100
  296SOL    HW2  888   2.100   1.154   2.227 -0.6220 -1.5634  1.1510
  297SOL     OW  889   0.162   0.904   2.250  0.6295  0.3139 -0.3688
  297SOL    HW1  890   0.143   0.856   2.161  0.4311  0.2623 -0.3956
  297SOL    HW2  891   0.226   0.984   2.242 -1.1033  1.3004  0.9623
  298SOL     OW  892   1.300   2.089   2.253 -0.0172 -0.2020 -0.4911
  298SOL    HW1  893   1.221   2.151   2.245  3.5065  0.9839  0.0712
  298SOL    HW2  894   1.340   2.083   2.348  1.4484  1.1734  3.3995
  299SOL     OW  895   0.524   2.825   2.567 -0.5334 -0.1540  0.8887
  299SOL    HW1  896   0.618   2.868   2.554  1.6652  1.9284  1.7718
  299SOL    HW2  897   0.510   2.752   2.498 -0.1502  1.5429  2.4636
  300SOL     OW  898   0.210   1.001   2.559 -0.4177 -0.1634 -0.2356
  300SOL    HW1  899   0.288   1.006   2.497 -1.6955  2.1656  1.5224
  300SOL    HW2  900   0.158   1.085   2.560  2.6915 -3.4610  0.9602
  301SOL     OW  901   1.606   1.085   1.728  0.2265 -0.0893  0.1637
  301SOL    HW1  902   1.571   1.001   1.775  2.3337  0.7167 -0.4316
  301SOL    HW2  903   1.555   1.175   1.756 -1.3372  1.7210 -0.0387
  302SOL     OW  904   2.504   1.958   2.436 -0.3946 -0.2511  0.5052
  302SOL    HW1  905   2.426   1.961   2.504  0.8551 -1.8177 -1.3685
  302SOL    HW2  906   2.475   1.980   2.341  1.8199 -1.1058 -1.3690
  303SOL     OW  907   0.110   3.047   2.431 -0.1866 -0.2022 -0.3379
  303SOL    HW1  908   0.207   3.015   2.449 -0.6463  2.0251 -0.7959
  303SOL    HW2  909   0.096   0.063   2.460  0.4883 -1.5242 -5.7708
  304SOL     OW  910   0.170   0.758   1.585  0.0085  0.0931  0.2803
  304SOL    HW1  911   0.263   0.752   1.622 -0.1381  0.3210  0.0707
  304SOL    HW2  912   0.113   0.676   1.611 -2.0501  2.5460  0.9209
  305SOL     OW  913   2.909   0.051   1.642 -0.3351  0.8667  0.3143
  305SOL    HW1  914   2.912   0.036   1.745  1.0747 -1.1544  0.4059
  305SOL    HW2  915   2.887   0.147   1.620 -2.3382  0.7700 -0.7665
  306SOL     OW  916   2.624   1.207   1.272 -0.0191  0.0311 -0.2239
  306SOL    HW1  917   2.580   1.256   1.351  2.1577  1.5931  1.2433
  306SOL    HW2  918   2.718   1.177   1.292 -1.3789 -1.7698  0.8451
  307SOL     OW  919   2.045   0.142   1.093 -0.4548  0.3965 -0.5156
  307SOL    HW1  920   1.991   0.118   1.008  0.0089 -1.2121  3.3056
  307SOL    HW2  921   2.143   0.135   1.074 -0.3790 -0.8450  0.7467
  308SOL     OW  922   2.788   2.026   1.269 -0.4810  0.3029 -0.0434
  308SOL    HW1  923   2.769   2.064   1.178 -2.1526 -1.5200  2.7525
  308SOL    HW2  924   2.845   1.940   1.251 -0.1492 -1.2829  1.5525
  309SOL     OW  925   2.151   1.807   1.589  0.1935 -0.4286  0.0401
  309SOL    HW1  926   2.078   1.772   1.526  0.3584 -1.7765  0.5816
  309SOL    HW2  927   2.137   1.759   1.676  1.7982 -0.3207 -1.5103
  310SOL     OW  928   2.363   1.449   2.954 -0.0425  0.5095  0.0698
  310SOL    HW1  929   2.375   1.521   3.031  0.0809  1.2331  0.6731
  310SOL    HW2  930   2.279   1.393   2.967 -1.0161  0.2834  1.4273
  311SOL     OW  931   2.104   1.174   2.729  0.0014 -0.7243  0.0296
  311SOL    HW1  932   2.021   1.203   2.672  1.2946  1.2125  0.9847
  311SOL    HW2  933   2.095   1.097   2.790  1.0629  3.4609 -2.7085
  312SOL     OW  934   1.566   2.450   2.001 -0.1036  0.2170 -0.6668
  312SOL    HW1  935   1.477   2.401   2.018 -1.0791 -1.4915  0.8158
  312SOL    HW2  936   1.617   2.408   1.922  0.5374  0.1018  0.8609
  313SOL     OW  937   0.270   2.898   1.133 -0.0933  0.3386  0.0216
  313SOL    HW1  938   0.201   2.830   1.115  1.9882  2.4856  2.5384
  313SOL    HW2  939   0.353   2.888   1.077 -1.5292  2.3869  1.0818
  314SOL     OW  940   0.847   1.634   1.296 -0.1016 -0.2812  0.0594
  314SOL    HW1  941   0.762   1.661   1.343  0.3739  1.1542  1.9559
  314SOL    HW2  942   0.832   1.618   1.194 -0.9127 -0.1170 -0.3958
  315SOL     OW  943   0.534   3.052   2.198 -0.7137 -0.4280 -0.0366
  315SOL    HW1  944   0.614   0.029   2.230  0.4946  1.1367  0.3639
  315SOL    HW2  945   0.474   3.044   2.280  3.0463  2.7288 -1.7437
  316SOL     OW  946   0.020   2.027   1.027  0.1603 -0.0603  0.7562
  316SOL    HW1  947   0.003   2.024   0.928  1.7953 -0.7956 -0.7043
  316SOL    HW2  948   0.084   2.101   1.057 -2.6946  0.1106  0.2070
  317SOL     OW  949   1.681   0.561   0.359 -0.0369 -0.1512  0.0025
  317SOL    HW1  950   1.691   0.510   0.272 -1.7033  1.8207  0.7612
  317SOL    HW2  951   1.756   0.528   0.423 -0.5855 -1.4604 -1.1557
  318SOL     OW  952   2.819   2.503   3.050  0.4158  0.1376 -0.2532
  318SOL    HW1  953   2.722   2.520   3.013 -0.3268 -1.8352  0.6990
  318SOL    HW2  954   2.848   2.572   0.034 -3.5787  0.4519 -0.3755
  319SOL     OW  955   1.746   1.559   0.365 -0.0557  0.3845 -0.2029
  319SOL    HW1  956   1.661   1.504   0.371  0.8466 -0.3866 -1.2247
  319SOL    HW2  957   1.809   1.518   0.292  1.8225 -0.2510 -2.5741
  320SOL     OW  958   0.622   2.352   2.567  0.3374  0.1499  0.0365
  320SOL    HW1  959   0.575   2.363   2.477 -2.4948 -2.0699  1.5990
  320SOL    HW2  960   0.682   2.266   2.570  2.4310  0.4442  2.0538
  321SOL     OW  961   0.929   2.941   0.448  0.1107 -0.8701  0.3143
  321SOL    HW1  962   0.903   2.848   0.417  1.9211  0.8292  2.2266
  321SOL    HW2  963   1.012   2.980   0.398 -0.7147 -0.8586 -1.4422
  322SOL     OW  964   2.349   0.998   2.081  0.6632 -0.5631  0.1656
  322SOL    HW1  965   2.259   1.027   2.122  1.8181 -0.2280  0.4195
  322SOL    HW2  966   2.398   0.924   2.134 -0.7888  0.9018 -1.5331
  323SOL     OW  967   2.765   0.990   0.662  0.0819 -0.1410  0.1733
  323SOL    HW1  968   2.857   0.956   0.696 -1.1361 -0.9553 -0.0877
  323SOL    HW2  969   2.776   1.083   0.620  1.1997  1.5996 -0.5540
  324SOL     OW  970   0.208   0.406   2.337 -0.3115 -0.4599  0.1513
  324SOL    HW1  971   0.149   0.476   2.384  0.5379  0.7245  0.0793
  324SOL    HW2  972   0.289   0.386   2.399 -0.2156 -1.0188  0.7059
  325SOL     OW  973   0.700   0.128   2.328 -0.3979 -0.4928  0.3522
  325SOL    HW1  974   0.690   0.209   2.268  2.5433  2.7028 -0.9102
  325SOL    HW2  975   0.775   0.142   2.402 -0.6664 -2.3503  3.1400
  326SOL     OW  976   2.363   2.790   1.011 -0.2028 -0.0467  0.2548
  326SOL    HW1  977   2.442   2.758   1.069  0.3422 -1.6611 -1.0419
  326SOL    HW2  978   2.384   2.843   0.926 -0.1482 -0.0491 -0.5647
  327SOL     OW  979   1.736   1.027   0.212 -0.5450  0.1919  0.7500
  327SOL    HW1  980   1.667   0.973   0.268 -1.7777 -0.4322 -1.1790
  327SOL    HW2  981   1.720   1.033   0.112  2.0460 -2.7484  4.7318
  328SOL     OW  982   3.016   1.975   2.026 -0.5048  0.1352  1.2907
  328SOL    HW1  983   3.053   1.983   2.119 -0.8628 -0.4843 -1.4771
  328SOL    HW2  984   2.925   2.019   2.023 -0.3697  0.3860 -0.2280
  329SOL     OW  985   2.415   2.592   1.781  0.3206 -0.0280 -0.1328
  329SOL    HW1  986   2.410   2.489   1.770  1.5717  0.8925 -0.2873
  329SOL    HW2  987   2.349   2.636   1.715  2.9821 -0.2527  1.4744
  330SOL     OW  988   2.428   1.388   1.739 -0.6502  0.4486  0.4336
  330SOL    HW1  989   2.335   1.389   1.789  1.6509  2.7140  0.7784
  330SOL    HW2  990   2.484   1.471   1.766 -1.2357  1.4556  1.1587
  331SOL     OW  991   2.704   2.092   1.027  0.5585 -0.4598  0.3061
  331SOL    HW1  992   2.791   2.073   0.971  1.1057  0.1545 -3.3502
  331SOL    HW2  993   2.646   2.161   0.975 -0.9767  0.4616 -2.1704
  332SOL     OW  994   0.678   2.613   0.194  0.0964  0.2358 -0.0296
  332SOL    HW1  995   0.608   2.687   0.179 -1.1100 -0.5293 -0.7648
  332SOL    HW2  996   0.761   2.650   0.232 -0.2767 -1.2185 -1.1661
  333SOL     OW  997   1.926   0.174   2.545  0.0125  0.4655 -0.8935
  333SOL    HW1  998   1.844   0.137   2.594 -3.8753 -1.1994 -0.5025
  333SOL    HW2  999   1.954   0.115   2.461 -2.2031  0.8086 -1.4770
  334SOL     OW 1000   0.644   0.943   0.487  0.6156  0.3007  0.3878
  334SOL    HW1 1001   0.676   1.021   0.545  2.3991  0.3081 -0.7223
  334SOL    HW2 1002   0.552   0.962   0.442 -3.5179  1.0623  2.1241
  335SOL     OW 1003   0.227   2.967   2.145  1.1707  0.1337 -0.4389
  335SOL    HW1 1004   0.192   3.019   2.230  0.1148  2.1722  2.6277
  335SOL    HW2 1005   0.186   3.000   2.059  0.4172 -1.5687 -0.2219
  336SOL     OW 1006   2.808   3.082   2.275  0.3448  0.5068 -0.2806
  336SOL    HW1 1007   2.853   3.022   2.343 -0.2129 -1.3846  1.9822
  336SOL    HW2 1008   2.850   0.085   2.256 -2.5441 -2.3851  2.2950
  337SOL     OW 1009   1.350   1.526   0.914  0.2923 -0.0714  0.0517
  337SOL    HW1 1010   1.391   1.567   0.997 -0.1979 -0.1713  0.6622
  337SOL    HW2 1011   1.404   1.454   0.867 -0.2560 -0.3686 -0.1092
  338SOL     OW 1012   0.802   1.774   0.853 -0.4868  0.5976 -0.0766
  338SOL    HW1 1013   0.713   1.728   0.870 -1.8959 -0.0167  2.3799
  338SOL    HW2 1014   0.808   1.846   0.928 -0.2094  4.5392  0.3999
  339SOL     OW 1015   0.002   1.056   1.236  0.0112 -0.2266 -0.1940
  339SOL    HW1 1016   0.063   1.135   1.268  0.0791  2.7921  0.8352
  339SOL    HW2 1017   0.045   0.963   1.240  0.3419 -1.1596  1.0310
  340SOL     OW 1018   1.576   2.678   2.109  0.4064 -0.4641 -0.3173
  340SOL    HW1 1019   1.564   2.583   2.068  2.2385  0.4491  2.0203
  340SOL    HW2 1020   1.666   2.679   2.158  0.5122 -0.1292  1.9541
  341SOL     OW 1021   1.872   1.358   0.833 -0.0661  0.4373 -0.5459
  341SOL    HW1 1022   1.850   1.326   0.924 -0.9115  0.0407  1.0236
  341SOL    HW2 1023   1.785   1.364   0.775 -1.6263  0.6668 -1.7660
  342SOL     OW 1024   2.860   1.449   0.681 -0.1158 -0.1427  0.1013
  342SOL    HW1 1025   2.904   1.528   0.633  0.5229 -0.4124  0.0306
  342SOL    HW2 1026   2.809   1.479   0.762 -0.6823  0.2623  2.2820
  343SOL     OW 1027   2.720   1.084   1.749  0.1899  0.3947  1.2060
  343SOL    HW1 1028   2.781   1.013   1.790 -0.7865 -1.2501 -1.3525
  343SOL    HW2 1029   2.763   1.173   1.741 -1.2391 -1.8990  0.7894
  344SOL     OW 1030   2.036   0.630   1.011  0.0598  0.5056  0.1624
  344SOL    HW1 1031   1.953   0.685   1.016 -0.5469  1.9284 -0.7524
  344SOL    HW2 1032   2.052   0.587   1.102 -3.7371 -1.3810 -0.7880
  345SOL     OW 1033   0.363   2.999   2.429  0.1953 -0.3009 -0.3344
  345SOL    HW1 1034   0.385   2.917   2.493  0.2170  0.4200  1.3756
  345SOL    HW2 1035   0.407   3.084   2.470  1.1222  1.4829  0.2099
  346SOL     OW 1036   2.396   1.405   0.240 -0.2396 -0.3966 -0.2276
  346SOL    HW1 1037   2.347   1.453   0.318  0.6317  1.8543 -0.1446
  346SOL    HW2 1038   2.330   1.388   0.168 -1.0381 -0.1283  2.6306
  347SOL     OW 1039   2.137   2.783   1.923  0.4552  0.1972  0.0065
  347SOL    HW1 1040   2.090   2.708   1.869  1.1411 -0.6895  1.7765
  347SOL    HW2 1041   2.157   2.866   1.863 -0.7635  2.4800 -0.5726
  348SOL     OW 1042   1.158   1.109   1.649 -0.0907  0.1957  0.2967
  348SOL    HW1 1043   1.160   1.202   1.610  0.0495  0.5987  1.7048
  348SOL    HW2 1044   1.066   1.066   1.658  2.5645  1.3569  2.2886
  349SOL     OW 1045   2.454   0.980   1.795 -0.2699  0.3169 -0.3160
  349SOL    HW1 1046   2.415   0.970   1.890  2.6274 -1.4711 -2.8477
  349SOL    HW2 1047   2.550   1.020   1.810 -0.3390 -2.9630  2.9464
  350SOL     OW 1048   2.433   2.385   0.396 -0.6242 -0.0365  0.2395
  350SOL    HW1 1049   2.475   2.471   0.416 -1.7337  1.0559  0.9490
  350SOL    HW2 1050   2.376   2.350   0.472  0.2088 -1.2395 -1.3636
  351SOL     OW 1051   0.166   0.236   1.416 -0.0401  0.1915  0.0199
  351SOL    HW1 1052   0.231   0.179   1.360  0.3845  0.0169  1.4448
  351SOL    HW2 1053   0.078   0.252   1.368  0.8169 -0.6170  0.0394
  352SOL     OW 1054   1.886   2.362   1.915 -0.3939 -0.1470 -0.3055
  352SOL    HW1 1055   1.918   2.366   2.013  1.7415  1.8789 -1.2592
  352SOL    HW2 1056   1.880   2.264   1.883  1.9055  1.3863 -0.3162
  353SOL     OW 1057   0.787   1.516   2.174  0.1368 -0.3015 -0.6701
  353SOL    HW1 1058   0.747   1.418   2.188  0.9711  0.7081  1.0241
  353SOL    HW2 1059   0.873   1.524   2.224 -0.4629 -0.3282 -0.9927
  354SOL     OW 1060   1.389   1.572   0.446  0.0475 -0.2302 -0.0750
  354SOL    HW1 1061   1.449   1.502   0.399 -0.3103  0.5172 -0.4411
  354SOL    HW2 1062   1.318   1.615   0.383 -0.6199  1.5786 -2.6734
  355SOL     OW 1063   1.931   0.077   0.855  0.1212 -1.1834  0.5332
  355SOL    HW1 1064   1.908   3.079   0.795 -1.7629  1.0958 -0.4793
  355SOL    HW2 1065   1.916   0.159   0.798  1.0260  2.2148  1.4989
  356SOL     OW 1066   2.758   1.340   0.060 -0.5474 -0.0431 -0.3156
  356SOL    HW1 1067   2.858   1.339   0.078 -0.4364  2.4046 -1.8945
  356SOL    HW2 1068   2.729   1.239   0.050  0.7040  1.4190 -1.2648
  357SOL     OW 1069   0.088   0.002   1.893 -0.0802 -0.0921 -0.6002
  357SOL    HW1 1070   0.123   0.014   1.795 -1.7682  1.4292 -1.8328
  357SOL    HW2 1071   3.071   0.016   1.903  0.7502  0.4963 -1.1991
  358SOL     OW 1072   0.190   1.195   0.435  0.2454  0.4795  0.1103
  358SOL    HW1 1073   0.170   1.213   0.339  0.5267 -0.0415  2.1020
  358SOL    HW2 1074   0.108   1.163   0.485 -0.3405  0.5555 -1.7282
  359SOL     OW 1075   2.582   0.036   2.650  0.3596 -0.1454 -0.0350
  359SOL    HW1 1076   2.605   3.021   2.629  0.5765 -0.6925 -1.7685
  359SOL    HW2 1077   2.487   0.044   2.685 -0.3181 -0.9695 -2.6095
  360SOL     OW 1078   1.695   0.983   1.282 -0.2477  0.2527 -0.0670
  360SOL    HW1 1079   1.697   1.061   1.352  0.9486  1.5998  1.4479
  360SOL    HW2 1080   1.631   1.004   1.208  2.6377 -0.3170 -0.8136
  361SOL     OW 1081   2.404   2.299   1.152  0.7123  0.2877 -0.1565
  361SOL    HW1 1082   2.377   2.356   1.229  0.3609 -1.8647 -1.6944
  361SOL    HW2 1083   2.459   2.221   1.178 -2.4318 -1.0215 -0.7867
  362SOL     OW 1084   1.616   0.526   1.040  0.0315 -0.4681  0.4138
  362SOL    HW1 1085   1.591   0.482   1.128  1.0981 -0.2487  2.0153
  362SOL    HW2 1086   1.528   0.553   0.997  1.8259  2.4391 -0.6138
  363SOL     OW 1087   2.084   2.292   0.385  0.2375 -0.8577  0.0160
  363SOL    HW1 1088   2.120   2.257   0.473 -1.5156  1.0110  0.8048
  363SOL    HW2 1089   1.993   2.337   0.409 -0.3489  1.2425  2.6896
  364SOL     OW 1090   0.129   0.370   0.911  0.1880  0.0619 -0.2710
  364SOL    HW1 1091   0.123   0.275   0.940  0.9876  0.1649 -0.3687
  364SOL    HW2 1092   0.125   0.426   1.001 -0.0496  2.7201  2.8894
  365SOL     OW 1093   0.403   2.976   0.647  0.2217 -0.6131  0.2526
  365SOL    HW1 1094   0.307   3.010   0.648 -3.1058 -0.3406 -0.7691
  365SOL    HW2 1095   0.453   3.001   0.731  2.1394  0.4252  0.4683
  366SOL     OW 1096   0.016   1.467   0.370 -0.4784 -0.0727 -0.3692
  366SOL    HW1 1097   0.097   1.449   0.434  0.2199 -0.3086  0.2712
  366SOL    HW2 1098   0.042   1.478   0.272 -0.8890  0.0931 -3.4193
  367SOL     OW 1099   2.602   2.187   2.684 -0.1590 -0.1069  0.0198
  367SOL    HW1 1100   2.652   2.180   2.593  1.3124  1.1377  2.6565
  367SOL    HW2 1101   2.504   2.205   2.665 -0.3010 -0.8926 -0.8265
  368SOL     OW 1102   2.260   1.725   0.697 -0.0739  0.5983  0.3214
  368SOL    HW1 1103   2.202   1.646   0.735 -1.9361 -4.6645  1.1779
  368SOL    HW2 1104   2.362   1.707   0.717  0.5023 -3.0566 -1.3966
  369SOL     OW 1105   1.280   0.625   0.099  0.6159 -0.1043 -0.1866
  369SOL    HW1 1106   1.198   0.602   0.040  0.7168 -1.9628 -0.9706
  369SOL    HW2 1107   1.295   0.551   0.167 -0.6899 -0.1993 -2.1638
  370SOL     OW 1108   0.558   3.062   1.147 -0.1903 -0.1915  0.1790
  370SOL    HW1 1109   0.591   0.072   1.133 -4.1823 -0.9243 -0.8121
  370SOL    HW2 1110   0.486   3.058   1.221  0.1839  0.3718  2.8720
  371SOL     OW 1111   2.714   1.424   2.663  0.0421 -0.1666  0.2619
  371SOL    HW1 1112   2.641   1.402   2.596  3.1961  2.1350  4.5324
  371SOL    HW2 1113   2.681   1.395   2.755  0.0674 -0.7716  0.4575
  372SOL     OW 1114   0.637   0.737   2.498  0.1274  0.3305 -0.4040
  372SOL    HW1 1115   0.599   0.747   2.403 -0.0679 -0.3498  1.3328
  372SOL    HW2 1116   0.735   0.711   2.497 -0.2352  2.3956  2.0920
  373SOL     OW 1117   0.557   0.268   0.019  0.1601  0.1845  0.2051
  373SOL    HW1 1118   0.522   0.303   3.007 -2.4268  2.3812 -4.7568
  373SOL    HW2 1119   0.659   0.263   0.020 -1.6332 -0.6848  1.6673
  374SOL     OW 1120   1.224   2.155   0.114 -0.0940 -0.9917  0.2534
  374SOL    HW1 1121   1.241   2.219   0.035  0.2102 -0.2091  1.0751
  374SOL    HW2 1122   1.273   2.071   0.091 -0.7997  3.4054 -1.8012
  375SOL     OW 1123   0.879   3.073   1.652 -0.1741  0.0331 -0.6464
  375SOL    HW1 1124   0.863   3.043   1.558  2.0119  2.6648  2.7060
  375SOL    HW2 1125   0.900   0.089   1.659 -2.7843  1.7643  2.2684
  376SOL     OW 1126   0.171   2.642   1.964 -0.0674  0.5363 -0.0022
  376SOL    HW1 1127   0.127   2.547   1.956 -4.6484 -1.7099  1.6373
  376SOL    HW2 1128   0.273   2.634   1.936  2.5003 -3.9084 -1.3080
  377SOL     OW 1129   2.694   2.071   3.080  0.4610 -0.1974  0.0978
  377SOL    HW1 1130   2.781   2.122   0.008  1.0241 -0.0544  0.5147
  377SOL    HW2 1131   2.657   2.040   0.089 -0.4197  4.1140 -0.0624
  378SOL     OW 1132   2.359   0.260   0.480  0.0762 -0.1693  0.0510
  378SOL    HW1 1133   2.306   0.343   0.494  2.4649  0.9598  1.5948
  378SOL    HW2 1134   2.336   0.199   0.555 -2.1561  1.1371  1.2417
  379SOL     OW 1135   0.903   0.722   0.533 -0.3898 -0.4534  0.4696
  379SOL    HW1 1136   0.810   0.745   0.495  0.5998  0.4305  0.6207
  379SOL    HW2 1137   0.979   0.760   0.475  2.1317  1.3449  0.2399
  380SOL     OW 1138   2.596   2.215   1.671  0.3982 -0.3232 -0.1568
  380SOL    HW1 1139   2.693   2.250   1.691  0.7872 -1.7598  0.1660
  380SOL    HW2 1140   2.596   2.115   1.673  1.4281 -2.6483  0.5536
  381SOL     OW 1141   2.629   1.348   2.023  0.4215  0.0494 -0.2993
  381SOL    HW1 1142   2.614   1.445   2.056 -2.7589  2.5619  0.0540
  381SOL    HW2 1143   2.650   1.280   2.100  1.3765  1.5323 -0.7117
  382SOL     OW 1144   2.742   1.965   2.831  0.4009  0.3719 -0.5107
  382SOL    HW1 1145   2.718   1.989   2.926  4.0270  0.3256  0.8572
  382SOL    HW2 1146   2.713   2.036   2.767 -1.0073 -3.1497 -1.2296
  383SOL     OW 1147   1.223   0.931   2.578  0.0845  1.1780  0.1567
  383SOL    HW1 1148   1.174   0.928   2.494  0.5905 -1.0885  1.1107
  383SOL    HW2 1149   1.271   1.020   2.583 -1.9624  0.2616  2.5096
  384SOL     OW 1150   1.541   1.991   2.144  0.1673  0.3113 -0.3353
  384SOL    HW1 1151   1.591   2.080   2.165  2.2659  1.1509 -1.2847
  384SOL    HW2 1152   1.444   1.987   2.182 -0.1976  0.2414  1.9528
  385SOL     OW 1153   2.558   2.682   0.140 -0.6922 -0.0639 -0.1116
  385SOL    HW1 1154   2.538   2.583   0.152  0.4722  1.6281 -0.9488
  385SOL    HW2 1155   2.622   2.710   0.220  2.3698  1.2868  0.1792
  386SOL     OW 1156   1.582   1.024   0.745 -0.3236 -0.1175  0.4664
  386SOL    HW1 1157   1.506   1.067   0.692 -0.5826 -0.9186 -3.2115
  386SOL    HW2 1158   1.567   0.925   0.748 -1.3882  0.7386 -2.5140
  387SOL     OW 1159   0.004   1.780   1.423  0.0532  0.3381  0.2141
  387SOL    HW1 1160   0.084   1.849   1.434  2.8224  6.5735  0.9757
  387SOL    HW2 1161   3.016   1.813   1.489  1.3260  0.4631  3.2077
  388SOL     OW 1162   0.542   1.416   1.576 -0.1771  0.1831 -0.4252
  388SOL    HW1 1163   0.585   1.465   1.657  0.2427 -0.3181  0.2997
  388SOL    HW2 1164   0.617   1.374   1.524  0.0278  0.1848  0.2526
  389SOL     OW 1165   2.175   0.848   2.375  0.5395  0.1926  0.9360
  389SOL    HW1 1166   2.124   0.840   2.464  2.2710 -1.0309  0.5131
  389SOL    HW2 1167   2.138   0.921   2.320 -1.3266 -1.2651  1.4357
  390SOL     OW 1168   1.059   1.674   0.062 -0.2700  0.1569 -0.1888
  390SOL    HW1 1169   0.984   1.745   0.068 -0.9837  2.9811  3.0426
  390SOL    HW2 1170   1.048   1.608   3.068  0.9445 -1.1842 -1.2810
  391SOL     OW 1171   1.220   1.763   0.306  0.1403  0.2306  0.1081
  391SOL    HW1 1172   1.211   1.858   0.338 -0.6812 -0.8134 -0.9010
  391SOL    HW2 1173   1.199   1.752   0.208 -0.6417  1.2239  3.6178
  392SOL     OW 1174   2.768   2.765   2.361  0.0756  0.0610 -0.1603
  392SOL    HW1 1175   2.745   2.759   2.261 -0.1705 -1.4830  0.1701
  392SOL    HW2 1176   2.850   2.820   2.384 -0.8953 -2.2318 -0.9920
  393SOL     OW 1177   1.518   2.325   2.991 -0.8259  0.2713  0.0924
  393SOL    HW1 1178   1.587   2.351   3.066  1.0756  1.0997  1.9514
  393SOL    HW2 1179   1.419   2.341   3.018 -1.3512  0.0135 -1.2378
  394SOL     OW 1180   0.663   0.362   2.203 -0.0528  0.3573  0.0720
  394SOL    HW1 1181   0.762   0.357   2.228 -1.5090  0.5826  0.3402
  394SOL    HW2 1182   0.646   0.410   2.117  0.8100 -1.9098  1.7268
  395SOL     OW 1183   0.313   1.684   1.332  0.1128  0.2353  0.2728
  395SOL    HW1 1184   0.297   1.773   1.379 -0.3207  2.2996 -1.5565
  395SOL    HW2 1185   0.245   1.662   1.258  2.9459 -1.8549  0.7613
  396SOL     OW 1186   2.141   1.325   2.937  0.1439 -0.1129  0.4739
  396SOL    HW1 1187   2.138   1.262   2.860 -0.1158  1.1871  2.4228
  396SOL    HW2 1188   2.058   1.392   2.939 -2.2772  0.3300  3.7261
  397SOL     OW 1189   0.091   0.490   3.033 -0.0243 -0.2424  0.0826
  397SOL    HW1 1190   0.116   0.474   2.934  2.9608 -2.0711 -2.3618
  397SOL    HW2 1191   0.131   0.569   3.083 -0.8390 -2.0508 -1.6063
  398SOL     OW 1192   0.739   2.384   0.347 -0.0525 -0.2239  0.2857
  398SOL    HW1 1193   0.834   2.403   0.377  0.5720 -0.4186 -1.1943
  398SOL    HW2 1194   0.704   2.462   0.285  0.7736  0.8432 -0.6672
  399SOL     OW 1195   1.981   2.321   2.511  0.1481 -0.6445 -0.0378
  399SOL    HW1 1196   1.955   2.397   2.575  0.0927  1.4137  0.3280
  399SOL    HW2 1197   2.027   2.353   2.426  1.4124 -0.4479  0.8902
  400SOL     OW 1198   3.068   1.247   1.894  0.5396  0.0911  0.0768
  400SOL    HW1 1199   2.980   1.278   1.863  0.0302  0.1465 -0.0445
  400SOL    HW2 1200   0.054   1.302   1.849  0.0408  1.8439 -0.3120
  401SOL     OW 1201   0.857   0.728   0.794 -0.1486  0.5259  0.4601
  401SOL    HW1 1202   0.893   0.764   0.703 -0.7018  0.1155 -0.8976
  401SOL    HW2 1203   0.776   0.787   0.819  1.3655 -0.2258 -1.4796
  402SOL     OW 1204   0.850   0.151   2.559  0.0844  0.0800 -0.1113
  402SOL    HW1 1205   0.800   0.192   2.639 -0.9537  3.7899 -1.4877
  402SOL    HW2 1206   0.882   0.054   2.581  0.3729 -1.9943  1.0629
  403SOL     OW 1207   2.574   1.601   1.783 -0.4944  0.2891 -0.1810
  403SOL    HW1 1208   2.606   1.680   1.840  0.6885  0.9751  0.1923
  403SOL    HW2 1209   2.629   1.603   1.698 -0.4259  3.8329 -1.3986
  404SOL     OW 1210   2.594   2.184   1.352  0.1268  0.5675  0.0953
  404SOL    HW1 1211   2.627   2.265   1.409 -0.6417 -0.3367  0.7386
  404SOL    HW2 1212   2.671   2.133   1.309 -1.5171  0.8603 -0.8859
  405SOL     OW 1213   2.019   0.293   2.807  0.1054 -0.1104 -0.4888
  405SOL    HW1 1214   2.011   0.250   2.715 -1.2181  0.5654  0.3343
  405SOL    HW2 1215   2.087   0.373   2.808  0.7654 -1.9593  0.0916
  406SOL     OW 1216   1.259   1.857   0.022  0.0066 -0.1177 -0.4404
  406SOL    HW1 1217   1.352   1.817   0.037 -1.3636 -0.7953 -0.5309
  406SOL    HW2 1218   1.190   1.782   0.014 -0.0007 -0.1289  2.2547
  407SOL     OW 1219   1.915   1.798   0.660 -0.2571 -0.0938 -0.1691
  407SOL    HW1 1220   1.849   1.873   0.657 -2.2283 -2.1992 -3.8896
  407SOL    HW2 1221   2.001   1.828   0.608 -0.0102  0.9950 -1.9150
  408SOL     OW 1222   3.010   0.289   1.301 -0.4633 -0.5222  0.0997
  408SOL    HW1 1223   3.026   0.381   1.262  0.8978  0.3591  0.5892
  408SOL    HW2 1224   3.006   0.210   1.236  0.7160  1.3141 -0.2543
  409SOL     OW 1225   2.061   1.239   0.447  0.4788 -0.1046  0.3579
  409SOL    HW1 1226   2.051   1.336   0.466 -2.4351 -0.4201  2.0405
  409SOL    HW2 1227   2.155   1.207   0.475 -0.6367  0.2107  0.0127
  410SOL     OW 1228   2.341   2.306   0.640  0.4794 -0.0968 -0.2142
  410SOL    HW1 1229   2.389   2.389   0.681  1.5830  0.8657 -3.7805
  410SOL    HW2 1230   2.384   2.216   0.665 -3.9405 -0.4472  0.9382
  411SOL     OW 1231   0.380   0.085   0.435  0.4258  0.3029  0.5806
  411SOL    HW1 1232   0.305   0.054   0.365 -2.4145 -0.4554 -1.8587
  411SOL    HW2 1233   0.405   0.014   0.503  3.8018  0.0542  2.6393
  412SOL     OW 1234   1.526   2.801   0.670 -0.0732 -0.2082 -0.5455
  412SOL    HW1 1235   1.510   2.871   0.746 -0.5828  3.3330  2.2046
  412SOL    HW2 1236   1.533   2.708   0.707  0.0637  3.7551 -1.0059
  413SOL     OW 1237   1.687   0.035   2.516  0.5727 -0.1389 -0.4749
  413SOL    HW1 1238   1.633   0.095   2.452 -1.6945 -0.1921 -2.1090
  413SOL    HW2 1239   1.714   3.038   2.458  0.2261  1.2871  0.3790
  414SOL     OW 1240   0.022   0.702   0.529  0.6801  0.0384 -0.1056
  414SOL    HW1 1241   3.059   0.714   0.437  1.0194  0.6206  0.0321
  414SOL    HW2 1242   0.121   0.730   0.525  2.3264  0.5968 -0.0250
  415SOL     OW 1243   3.081   1.341   0.785 -0.6095 -0.1068 -0.0852
  415SOL    HW1 1244   3.076   1.247   0.820 -2.7475  0.4255  1.9114
  415SOL    HW2 1245   2.988   1.381   0.759 -1.0365  2.5444 -0.5214
  416SOL     OW 1246   0.261   0.870   2.797 -0.0451  0.2529  0.2362
  416SOL    HW1 1247   0.292   0.774   2.785  3.1640  1.1062  1.7179
  416SOL    HW2 1248   0.263   0.918   2.710  1.0792 -1.9614 -1.3018
  417SOL     OW 1249   2.569   0.199   0.783 -0.3060  0.7868  0.0345
  417SOL    HW1 1250   2.490   0.168   0.728  0.0121  1.5635  1.0464
  417SOL    HW2 1251   2.606   0.287   0.750  0.1943 -4.6764  1.0201
  418SOL     OW 1252   0.864   3.037   2.731  0.0934  0.0717  0.2048
  418SOL    HW1 1253   0.784   3.042   2.800 -3.7127  0.3266  1.2575
  418SOL    HW2 1254   0.869   2.944   2.698  1.2286  1.2239 -0.1195
  419SOL     OW 1255   0.249   1.089   0.894  0.3174 -0.1055 -0.8141
  419SOL    HW1 1256   0.183   1.154   0.850 -0.5051  2.4049 -2.8178
  419SOL    HW2 1257   0.191   1.012   0.930 -1.3782 -1.7736 -0.5492
  420SOL     OW 1258   2.947   1.364   1.346  0.4319 -0.6361 -0.3376
  420SOL    HW1 1259   3.007   1.415   1.409 -1.0853  2.3128 -1.9774
  420SOL    HW2 1260   2.906   1.283   1.391  0.3793  0.4128  2.2478
  421SOL     OW 1261   1.216   1.964   2.868  0.1437  0.0733  0.2332
  421SOL    HW1 1262   1.309   1.966   2.825 -0.0617 -1.5065  0.1794
  421SOL    HW2 1263   1.221   1.921   2.961 -0.6772  0.2052 -1.0915
  422SOL     OW 1264   2.398   0.738   2.598  0.1616  0.1181  0.0958
  422SOL    HW1 1265   2.337   0.814   2.558  0.5769  3.1942 -0.5467
  422SOL    HW2 1266   2.455   0.698   2.523  1.6642 -0.7690  0.7830
  423SOL     OW 1267   1.914   1.459   0.182 -0.6407 -0.1099  0.6589
  423SOL    HW1 1268   2.006   1.507   0.169  0.2819  0.4721  0.1204
  423SOL    HW2 1269   1.929   1.355   0.186  0.0242 -2.8828 -0.3946
  424SOL     OW 1270   0.895   0.996   1.893  0.4093  0.2611 -0.1134
  424SOL    HW1 1271   0.907   1.091   1.930 -0.9429  0.8551 -0.4350
  424SOL    HW2 1272   0.948   0.936   1.954  0.1548  2.9368 -3.0772
  425SOL     OW 1273   0.029   2.738   2.162 -0.2504 -0.4861  0.6195
  425SOL    HW1 1274   0.084   2.700   2.085  0.4717  0.4337  0.8353
  425SOL    HW2 1275   0.069   2.821   2.196 -2.4912  0.5478  1.5306
  426SOL     OW 1276   2.230   2.423   0.205 -1.0786 -0.0226  0.4771
  426SOL    HW1 1277   2.323   2.407   0.240 -0.0764 -0.6172 -2.5128
  426SOL    HW2 1278   2.168   2.409   0.281 -0.2655  0.2320 -0.7564
  427SOL     OW 1279   0.874   0.499   2.796  0.4624 -0.0504 -0.4742
  427SOL    HW1 1280   0.865   0.557   2.714 -1.8744 -0.0810 -2.4274
  427SOL    HW2 1281   0.817   0.543   2.869  0.0448 -0.9298 -0.9180
  428SOL     OW 1282   2.624   1.332   2.895 -0.5132  0.3355 -0.0363
  428SOL    HW1 1283   2.682   1.335   2.979 -2.2524  0.0524  1.1263
  428SOL    HW2 1284   2.532   1.368   2.917  2.7677  1.6744  1.7820
  429SOL     OW 1285   2.582   0.334   0.181  0.2239 -0.1107  0.3821
  429SOL    HW1 1286   2.534   0.424   0.185 -0.6116  0.1782 -0.4297
  429SOL    HW2 1287   2.538   0.268   0.114  0.4085  0.5338 -1.1293
  430SOL     OW 1288   1.280   2.624   2.223  0.0231 -0.4136  0.0946
  430SOL    HW1 1289   1.351   2.701   2.227  3.1763 -0.4063  1.4186
  430SOL    HW2 1290   1.249   2.602   2.129 -0.5162  0.6184  1.7743
  431SOL     OW 1291   0.240   1.917   1.455  0.9699 -0.5019 -0.5651
  431SOL    HW1 1292   0.210   2.009   1.420  1.0955  1.2845  1.1817
  431SOL    HW2 1293   0.265   1.920   1.553 -0.5055  2.7046 -2.4610
  432SOL     OW 1294   2.350   2.707   2.037  0.2636  0.6647 -0.1768
  432SOL    HW1 1295   2.265   2.756   2.003 -1.4097  1.2211  0.3374
  432SOL    HW2 1296   2.387   2.656   1.954  0.1344 -2.5108  0.4317
  433SOL     OW 1297   1.225   2.046   0.381 -0.2320 -0.0009  0.0730
  433SOL    HW1 1298   1.136   2.087   0.419 -2.0554 -1.9661  0.7022
  433SOL    HW2 1299   1.250   2.086   0.291 -3.5436  1.4505  0.9269
  434SOL     OW 1300   0.081   1.980   2.653 -0.3050 -0.4976  0.4911
  434SOL    HW1 1301   0.182   2.001   2.653  1.3622  0.8938 -0.1761
  434SOL    HW2 1302   0.047   1.990   2.746 -1.8270  2.2776 -0.4146
  435SOL     OW 1303   3.075   1.094   0.584 -0.1611 -0.2975  0.7700
  435SOL    HW1 1304   3.007   1.107   0.506 -0.9330  2.4104 -0.7813
  435SOL    HW2 1305   3.058   1.008   0.637  0.6137  0.1525 -0.8821
  436SOL     OW 1306   0.496   2.733   1.712  0.4170 -0.4934  0.3699
  436SOL    HW1 1307   0.452   2.720   1.623  0.8363  1.5025  1.0668
  436SOL    HW2 1308   0.536   2.826   1.712  1.2247 -1.7234 -1.2459
  437SOL     OW 1309   0.836   3.040   0.809  0.1722 -0.6334 -0.0808
  437SOL    HW1 1310   0.823   0.041   0.751  2.1796  3.1660 -1.1444
  437SOL    HW2 1311   0.898   2.972   0.760  3.2175 -0.4892  3.4257
  438SOL     OW 1312   0.048   2.130   0.709 -0.3480 -0.1528 -0.4620
  438SOL    HW1 1313   0.024   2.178   0.621 -1.5693  0.0310  0.1859
  438SOL    HW2 1314   0.147   2.118   0.712 -2.9700 -0.1589 -1.9480
  439SOL     OW 1315   0.848   2.344   1.664  0.1670 -0.1082 -0.7792
  439SOL    HW1 1316   0.907   2.375   1.588 -1.8439  2.3929 -0.0031
  439SOL    HW2 1317   0.805   2.430   1.699  1.2098 -0.3544 -1.5417
  440SOL     OW 1318   2.188   2.954   2.214  0.2822  0.1458 -0.6502
  440SOL    HW1 1319   2.093   2.929   2.247 -0.7841  0.2034 -0.2594
  440SOL    HW2 1320   2.191   2.997   2.124  1.0772  1.7033 -0.7603
  441SOL     OW 1321   0.077   0.528   1.646  0.0136 -0.0132  0.5869
  441SOL    HW1 1322   0.150   0.466   1.610 -1.1448  2.3003  3.4193
  441SOL    HW2 1323   0.078   0.532   1.744 -2.5260 -0.7746 -0.3590
  442SOL     OW 1324   1.839   2.328   0.727  0.8826  0.5321  0.1086
  442SOL    HW1 1325   1.855   2.354   0.633 -1.5703  0.2425 -1.2051
  442SOL    HW2 1326   1.916   2.362   0.790  2.2817  1.2377 -0.5075
  443SOL     OW 1327   2.837   0.793   2.358  0.1416  0.5278  0.0666
  443SOL    HW1 1328   2.826   0.724   2.432 -0.3168 -0.2635  3.3542
  443SOL    HW2 1329   2.905   0.866   2.382 -0.7785  0.3512  0.5845
  444SOL     OW 1330   1.875   0.952   2.147  0.0037  0.4799 -0.1301
  444SOL    HW1 1331   1.857   0.933   2.046 -1.5441  0.7869 -1.1134
  444SOL    HW2 1332   1.780   0.977   2.188 -2.3645 -1.4137 -0.2851
  445SOL     OW 1333   2.888   2.541   1.389  0.2503 -0.2020  0.0132
  445SOL    HW1 1334   2.947   2.537   1.471 -2.0115  0.2763 -3.4419
  445SOL    HW2 1335   2.920   2.608   1.323  1.9059  0.7883  0.4240
  446SOL     OW 1336   2.796   1.507   1.167 -0.0873  1.5585  0.2253
  446SOL    HW1 1337   2.707   1.524   1.219  2.0910  1.5944  0.5028
  446SOL    HW2 1338   2.867   1.476   1.239  1.8759 -0.1207  2.5467
  447SOL     OW 1339   0.480   1.133   0.755  0.3428  0.5800 -0.2586
  447SOL    HW1 1340   0.378   1.112   0.760 -0.8222 -2.1435 -0.4577
  447SOL    HW2 1341   0.507   1.189   0.674 -1.4527  0.6906 -1.1145
  448SOL     OW 1342   1.418   1.639   1.951 -0.0045 -0.2775  0.0638
  448SOL    HW1 1343   1.354   1.689   1.888 -5.3919  1.0454  1.0688
  448SOL    HW2 1344   1.385   1.550   1.989  0.8041  1.0315 -1.3633
  449SOL     OW 1345   1.559   1.359   0.366 -0.2249 -0.0289 -0.0194
  449SOL    HW1 1346   1.641   1.303   0.395 -1.3123 -1.1723  2.6669
  449SOL    HW2 1347   1.494   1.303   0.313 -0.5226  1.2239  1.7737
  450SOL     OW 1348   2.811   2.726   2.090  0.1871 -0.1217 -0.8857
  450SOL    HW1 1349   2.908   2.727   2.120 -0.2239 -3.6179  0.2219
  450SOL    HW2 1350   2.804   2.733   1.988  0.9694  1.1453 -1.1166
  451SOL     OW 1351   2.230   0.429   2.539  0.4492  0.1230 -0.2635
  451SOL    HW1 1352   2.247   0.483   2.452  0.4693  3.1431 -1.1471
  451SOL    HW2 1353   2.317   0.402   2.583 -0.4477 -1.1055  0.6007
  452SOL     OW 1354   1.776   0.333   0.978  0.0828  0.3343 -0.0990
  452SOL    HW1 1355   1.807   0.286   1.060  0.3918  0.1280 -1.1573
  452SOL    HW2 1356   1.729   0.419   1.000 -1.7931  0.1413 -1.1214
  453SOL     OW 1357   1.760   0.871   1.660 -0.2065  0.1348 -0.0750
  453SOL    HW1 1358   1.703   0.956   1.672  0.5785  2.9128 -0.5444
  453SOL    HW2 1359   1.807   0.865   1.569  2.6698 -0.2225 -1.9861
  454SOL     OW 1360   2.950   1.665   0.514  0.4684 -0.2380  0.0067
  454SOL    HW1 1361   3.021   1.595   0.478 -0.6276 -2.6270  1.1065
  454SOL    HW2 1362   2.997   1.729   0.574 -1.5973 -0.3093  0.3833
  455SOL     OW 1363   2.880   0.045   0.580  0.2585 -0.0954 -0.5977
  455SOL    HW1 1364   2.956   0.113   0.569 -0.7404  0.6620  0.3976
  455SOL    HW2 1365   2.834   0.022   0.491 -0.6616 -1.4090  0.5178
  456SOL     OW 1366   0.064   2.719   1.146 -0.4458 -0.0992 -0.5453
  456SOL    HW1 1367   3.067   2.757   1.202 -0.2447 -1.3847  1.0773
  456SOL    HW2 1368   0.125   2.663   1.205  0.1168 -1.8323 -1.0009
  457SOL     OW 1369   1.202   0.026   0.591  0.0773 -0.3521 -0.1579
  457SOL    HW1 1370   1.137   0.094   0.557  0.4274 -0.4054 -0.5302
  457SOL    HW2 1371   1.297   0.063   0.591 -2.5404 -3.8200 -0.3947
  458SOL     OW 1372   2.334   0.089   0.712 -0.0200  0.1359 -0.1298
  458SOL    HW1 1373   2.305   0.129   0.803  1.0041  3.0420  0.6540
  458SOL    HW2 1374   2.383   0.003   0.727  0.4060  1.4162  1.0245
  459SOL     OW 1375   2.155   0.536   2.798  0.0395  0.7331  0.1274
  459SOL    HW1 1376   2.202   0.504   2.711  2.0084  0.7575 -2.3511
  459SOL    HW2 1377   2.216   0.603   2.844  1.5235  1.6286 -1.9672
  460SOL     OW 1378   2.747   2.947   2.946 -0.1457 -0.1730 -0.5092
  460SOL    HW1 1379   2.660   2.922   2.897 -0.3337 -2.2029 -0.5417
  460SOL    HW2 1380   2.804   2.861   2.947  0.3939 -0.7864 -4.7126
  461SOL     OW 1381   0.916   2.075   0.479  0.1981  0.0677 -0.1468
  461SOL    HW1 1382   0.927   2.021   0.564  1.2197 -2.0080 -1.1696
  461SOL    HW2 1383   0.829   2.047   0.434  1.3032 -2.7324 -2.0089
  462SOL     OW 1384   2.253   2.401   0.929  0.0784  0.5519 -0.5622
  462SOL    HW1 1385   2.285   2.369   1.021 -2.9906  0.1004  1.1073
  462SOL    HW2 1386   2.162   2.431   0.936  2.9359  1.6283  1.1638
  463SOL     OW 1387   2.330   0.906   0.588 -0.2089  0.3106  0.2168
  463SOL    HW1 1388   2.317   0.898   0.686 -1.0745 -0.3047 -1.8247
  463SOL    HW2 1389   2.422   0.872   0.564 -2.1487  0.8195  0.0504
  464SOL     OW 1390   0.336   0.046   1.287  0.3197 -0.2046 -0.1056
  464SOL    HW1 1391   0.292   3.051   1.244  1.4711 -1.5401 -2.0933
  464SOL    HW2 1392   0.375   0.022   1.381 -0.4376  2.3588 -0.5025
  465SOL     OW 1393   2.643   1.523   0.210 -0.2028  0.3713 -0.5116
  465SOL    HW1 1394   2.557   1.469   0.228  0.7944 -0.1085 -3.8478
  465SOL    HW2 1395   2.703   1.469   0.143  1.1482  0.0045 -1.1210
  466SOL     OW 1396   1.729   0.326   2.797  0.1800 -0.4892  0.2462
  466SOL    HW1 1397   1.831   0.335   2.801 -1.6558  0.8070 -1.7160
  466SOL    HW2 1398   1.686   0.411   2.831 -0.2493  0.8500  0.1217
  467SOL     OW 1399   0.886   0.491   1.433  0.0814  1.0688 -0.1741
  467SOL    HW1 1400   0.916   0.428   1.502 -2.0302 -0.6384 -1.7567
  467SOL    HW2 1401   0.922   0.463   1.341 -2.4688  1.1381  0.5371
  468SOL     OW 1402   0.528   1.150   2.831 -0.9955 -0.0491  0.4708
  468SOL    HW1 1403   0.480   1.231   2.790  1.3330  0.2544  1.6337
  468SOL    HW2 1404   0.610   1.127   2.776 -0.7471 -0.4444 -0.0318
  469SOL     OW 1405   0.161   2.142   0.068 -0.2383  0.0233 -0.1642
  469SOL    HW1 1406   0.088   2.168   3.084 -0.5571 -0.7951 -0.6904
  469SOL    HW2 1407   0.119   2.104   0.152  0.1000  0.6098 -1.2862
  470SOL     OW 1408   2.211   1.752   2.600 -0.2606  0.5168  0.6870
  470SOL    HW1 1409   2.268   1.684   2.657 -2.7848  0.1025  1.6470
  470SOL    HW2 1410   2.256   1.843   2.591  1.6744 -1.6355 -2.3872
  471SOL     OW 1411   2.647   1.181   2.232  0.3423 -0.3782 -0.5093
  471SOL    HW1 1412   2.660   1.080   2.249 -0.0258  0.6709 -1.2541
  471SOL    HW2 1413   2.726   1.225   2.276 -0.9485 -0.2295 -0.6998
  472SOL     OW 1414   0.455   2.732   0.523 -0.2928 -0.0436  0.3833
  472SOL    HW1 1415   0.416   2.733   0.428  3.8937 -1.0945  1.3133
  472SOL    HW2 1416   0.444   2.824   0.567  0.4483  0.6975 -0.0699
  473SOL     OW 1417   0.655   2.978   2.930 -0.0101  0.0013  0.8263
  473SOL    HW1 1418   0.646   2.984   3.034 -1.8439  1.0028 -1.6845
  473SOL    HW2 1419   0.662   2.885   2.894  0.9242  1.4841  1.5252
  474SOL     OW 1420   1.729   2.917   2.339 -0.1323 -0.1209 -0.3689
  474SOL    HW1 1421   1.635   2.873   2.339  0.6668 -0.7444  1.5646
  474SOL    HW2 1422   1.746   2.960   2.249 -1.2598  0.9095  1.0118
  475SOL     OW 1423   1.673   2.303   0.374 -0.2453 -0.3935 -0.1907
  475SOL    HW1 1424   1.595   2.247   0.407  0.9807 -0.4841  2.7548
  475SOL    HW2 1425   1.667   2.324   0.274 -1.6144  0.8596  0.7065
  476SOL     OW 1426   0.146   0.871   0.996  0.3517  0.4181 -0.3166
  476SOL    HW1 1427   0.044   0.861   1.010 -1.5344  1.2194  1.2483
  476SOL    HW2 1428   0.191   0.782   1.007  1.7908  1.3950 -1.0083
  477SOL     OW 1429   1.671   2.329   0.924  0.2282 -0.1663  0.4366
  477SOL    HW1 1430   1.732   2.329   0.838  0.1064  0.9145 -3.4778
  477SOL    HW2 1431   1.616   2.242   0.936  0.0061  0.8000  1.7623
  478SOL     OW 1432   0.252   2.137   2.222 -0.1137 -0.4227 -0.2472
  478SOL    HW1 1433   0.314   2.098   2.292 -0.5121  2.6555  1.7647
  478SOL    HW2 1434   0.273   2.090   2.132  0.3355  0.9903  0.1315
  479SOL     OW 1435   2.450   0.476   0.961 -0.0824 -0.2114  0.1175
  479SOL    HW1 1436   2.484   0.546   0.896 -0.3595 -2.0644 -1.7226
  479SOL    HW2 1437   2.518   0.437   1.024 -1.2591  2.5860 -0.6181
  480SOL     OW 1438   3.075   2.689   0.131 -0.1579 -0.1612 -0.2816
  480SOL    HW1 1439   0.028   2.756   0.194  0.3726  0.3139 -2.2664
  480SOL    HW2 1440   0.041   2.696   0.040 -0.6271 -1.8757 -0.5792
  481SOL     OW 1441   2.610   2.700   1.137  0.1457  0.3223 -0.8664
  481SOL    HW1 1442   2.579   2.675   1.229 -1.7862  0.6198  0.1288
  481SOL    HW2 1443   2.637   2.797   1.136  2.2321  3.0125 -1.1783
  482SOL     OW 1444   1.112   2.247   2.838  0.2501 -0.3992 -0.5096
  482SOL    HW1 1445   1.149   2.162   2.883  0.0856  0.2347  0.1981
  482SOL    HW2 1446   1.176   2.270   2.761 -0.1043  2.7269 -0.4193
  483SOL     OW 1447   0.345   1.985   2.677  0.3653 -0.6996  0.0711
  483SOL    HW1 1448   0.407   1.913   2.716  0.6739 -1.0032 -1.9336
  483SOL    HW2 1449   0.374   2.080   2.705  1.3347 -0.3143 -1.4366
  484SOL     OW 1450   1.005   0.921   1.283  0.5573 -0.4370  0.1926
  484SOL    HW1 1451   0.963   0.868   1.359  0.7775 -0.1313 -1.2253
  484SOL    HW2 1452   1.107   0.912   1.284 -1.0121  0.2477  0.2265
  485SOL     OW 1453   2.476   0.628   0.224  0.5829  0.0497  0.3076
  485SOL    HW1 1454   2.389   0.608   0.269  2.0407  0.7842  0.3169
  485SOL    HW2 1455   2.465   0.720   0.176 -0.2629  1.5306 -2.4937
  486SOL     OW 1456   1.743   0.101   1.184 -0.3048 -0.2178  0.5426
  486SOL    HW1 1457   1.696   0.127   1.268  2.4757  0.2015 -0.3617
  486SOL    HW2 1458   1.844   0.125   1.187 -0.4101  0.6552  0.7603
  487SOL     OW 1459   0.432   2.252   0.918  0.3701  0.4098  0.4602
  487SOL    HW1 1460   0.379   2.338   0.915  0.0428  0.6457  1.2334
  487SOL    HW2 1461   0.530   2.272   0.912  0.7737  1.7800  0.6571
  488SOL     OW 1462   2.328   1.167   0.479 -0.0064  0.1062  0.5264
  488SOL    HW1 1463   2.396   1.160   0.406 -4.0022 -0.4496  1.5888
  488SOL    HW2 1464   2.320   1.072   0.515 -0.7523  0.5096 -0.9565
  489SOL     OW 1465   1.615   0.078   0.951  0.1348 -0.1900 -0.0318
  489SOL    HW1 1466   1.683   0.107   0.881  1.0211 -1.0171 -3.2380
  489SOL    HW2 1467   1.653   0.099   1.041  0.2447 -0.9384 -3.9998
  490SOL     OW 1468   0.911   0.482   0.633  0.0701 -0.0058 -0.0377
  490SOL    HW1 1469   0.809   0.462   0.640 -0.0707  0.5818 -0.4326
  490SOL    HW2 1470   0.926   0.580   0.607  0.6284  0.7671  0.4953
  491SOL     OW 1471   0.408   2.471   0.567  0.3482 -0.1959 -0.3976
  491SOL    HW1 1472   0.440   2.399   0.502  0.7342  0.9643 -3.2540
  491SOL    HW2 1473   0.426   2.569   0.541  0.1262  2.7553  1.4582
  492SOL     OW 1474   0.995   1.281   2.579 -0.5935 -0.1034  0.2824
  492SOL    HW1 1475   1.010   1.269   2.680  2.7519  1.5189 -1.3970
  492SOL    HW2 1476   1.025   1.372   2.548 -0.9630 -0.4842  1.9768
  493SOL     OW 1477   0.100   2.521   0.969  0.1676 -0.3551  0.1751
  493SOL    HW1 1478   0.016   2.463   0.980 -1.6612  1.4281  1.0326
  493SOL    HW2 1479   0.084   2.602   1.031 -4.6878  2.5296 -0.6292
  494SOL     OW 1480   2.617   1.967   0.240 -0.1864  0.5077  0.3199
  494SOL    HW1 1481   2.540   2.034   0.239  4.0749  0.5363 -1.8396
  494SOL    HW2 1482   2.599   1.881   0.292  1.5233  1.3067 -0.2601
  495SOL     OW 1483   2.464   1.732   2.896 -0.0384  0.8403  0.0212
  495SOL    HW1 1484   2.424   1.820   2.878 -1.1775 -2.5919  0.5732
  495SOL    HW2 1485   2.419   1.659   2.841 -0.7836 -1.3242  0.1749
  496SOL     OW 1486   2.667   0.225   1.572 -0.7788 -0.2509 -0.1845
  496SOL    HW1 1487   2.764   0.252   1.553  0.1848 -0.3951 -2.2767
  496SOL    HW2 1488   2.630   0.275   1.651  0.0000 -3.2040  0.0106
  497SOL     OW 1489   2.703   1.089   0.064  0.2330 -0.6872  0.0655
  497SOL    HW1 1490   2.613   1.085   0.009 -2.9079  1.6451  1.6407
  497SOL    HW2 1491   2.759   1.010   0.035 -0.3920 -0.3024  0.3108
  498SOL     OW 1492   0.025   1.994   2.289  0.1560 -0.1812  0.1661
  498SOL    HW1 1493   0.097   2.061   2.261  0.8720  0.0824  2.3927
  498SOL    HW2 1494   3.058   2.029   2.370 -1.2779 -0.1845  0.8926
  499SOL     OW 1495   0.774   2.183   3.052 -0.0362  0.1746 -0.2522
  499SOL    HW1 1496   0.845   2.187   0.044  1.9090  1.5858  2.5828
  499SOL    HW2 1497   0.815   2.139   2.969  0.1390  1.4973 -1.2415
  500SOL     OW 1498   1.403   3.073   3.078  0.1102 -0.1894  0.7092
  500SOL    HW1 1499   1.508   3.066   3.077  3.2507 -0.4878  0.7443
  500SOL    HW2 1500   1.378   0.052   0.066 -0.2526 -0.1513 -0.9594
  501SOL     OW 1501   1.786   0.004   1.813  0.7200 -0.3042  0.1146
  501SOL    HW1 1502   1.773   3.020   1.738 -1.5607 -0.4752  0.9800
  501SOL    HW2 1503   1.726   0.089   1.793  0.4366  1.3206  1.2638
  502SOL     OW 1504   2.917   0.783   2.047 -0.3786  0.1339 -0.4230
  502SOL    HW1 1505   3.017   0.764   2.041  1.4941  1.3542 -2.6577
  502SOL    HW2 1506   2.865   0.698   2.073 -3.0879 -1.6428  2.5547
  503SOL     OW 1507   2.222   2.259   2.354 -0.4614 -0.2532  0.6222
  503SOL    HW1 1508   2.228   2.357   2.324  1.0558  1.3078  1.9005
  503SOL    HW2 1509   2.242   2.250   2.456  1.2811 -0.9235  4.6977
  504SOL     OW 1510   1.627   0.636   1.704 -0.1254 -0.4074  0.5264
  504SOL    HW1 1511   1.678   0.726   1.690  1.0069  3.4795 -0.0316
  504SOL    HW2 1512   1.696   0.560   1.686  0.0326 -2.3799 -2.4081
  505SOL     OW 1513   0.905   1.026   1.623 -0.0374  0.3043 -0.0879
  505SOL    HW1 1514   0.880   0.929   1.588  3.2386  0.3321  3.0930
  505SOL    HW2 1515   0.896   1.005   1.723 -2.2836  0.3022  0.7704
  506SOL     OW 1516   0.509   0.998   2.456  0.3715  0.1510  0.0245
  506SOL    HW1 1517   0.498   0.958   2.364  1.3026  1.5579 -2.9961
  506SOL    HW2 1518   0.574   0.945   2.514 -0.3110  3.4533  2.0379
  507SOL     OW 1519   0.355   2.815   2.963 -0.1642  0.0764  1.0323
  507SOL    HW1 1520   0.448   2.788   2.921 -1.6358  0.0678 -2.4222
  507SOL    HW2 1521   0.311   2.881   2.899 -1.9993 -1.2248  0.9374
  508SOL     OW 1522   1.370   0.677   1.584 -0.2513  0.0602 -1.0505
  508SOL    HW1 1523   1.448   0.667   1.646 -0.5821  0.2896 -2.6675
  508SOL    HW2 1524   1.359   0.777   1.555 -0.8450 -0.2746 -0.3357
  509SOL     OW 1525   1.079   2.121   1.480 -0.3936 -0.5571  0.0315
  509SOL    HW1 1526   1.174   2.165   1.483  3.8641  2.2933  0.4107
  509SOL    HW2 1527   1.071   2.064   1.394  1.5925  0.5005 -3.7234
  510SOL     OW 1528   2.415   1.189   2.373  0.2908  0.1474  0.2836
  510SOL    HW1 1529   2.398   1.099   2.418  2.3449 -0.0926  1.8704
  510SOL    HW2 1530   2.500   1.189   2.315  1.4214  3.8496  1.3745
  511SOL     OW 1531   0.850   1.959   1.043  0.0662  0.2433 -0.3224
  511SOL    HW1 1532   0.831   2.025   0.966  1.6616  0.5744 -0.9894
  511SOL    HW2 1533   0.788   1.981   1.121 -0.9185  0.7217  0.7962
  512SOL     OW 1534   2.401   2.128   0.269 -0.5138 -0.1832 -0.3715
  512SOL    HW1 1535   2.300   2.098   0.259 -4.1317 -2.9403 -0.7231
  512SOL    HW2 1536   2.413   2.227   0.307 -0.1817  2.3320  1.4242
  513SOL     OW 1537   2.763   1.669   2.523  0.2136  0.1395  0.0631
  513SOL    HW1 1538   2.734   1.573   2.507 -1.6271 -0.0739 -1.8369
  513SOL    HW2 1539   2.760   1.686   2.623 -0.4741  0.2995  0.3949
  514SOL     OW 1540   0.065   2.594   2.480  0.1437 -0.2118 -0.0750
  514SOL    HW1 1541   0.040   2.512   2.531  0.0122 -0.4857 -3.5654
  514SOL    HW2 1542   0.129   2.572   2.401 -0.6392  2.2291 -1.6602
  515SOL     OW 1543   2.212   1.265   1.342 -0.1138  0.2999  0.2149
  515SOL    HW1 1544   2.237   1.277   1.246  0.8059  1.0292  0.2346
  515SOL    HW2 1545   2.287   1.280   1.408 -3.1045  0.6721 -0.3932
  516SOL     OW 1546   2.514   2.224   2.958  0.1557  0.3051 -0.6832
  516SOL    HW1 1547   2.550   2.238   2.862  3.2017  1.0015  0.3403
  516SOL    HW2 1548   2.579   2.163   3.011  1.6788 -0.3518 -1.2292
  517SOL     OW 1549   1.407   0.842   3.070  0.5698  0.0207  0.2625
  517SOL    HW1 1550   1.376   0.882   2.975 -1.3524  0.1553 -3.1411
  517SOL    HW2 1551   1.347   0.769   0.013  2.8375  1.1414  0.8710
  518SOL     OW 1552   2.929   2.956   2.475 -0.1239  0.0616 -0.2186
  518SOL    HW1 1553   3.023   2.988   2.453 -1.7118  0.8437 -0.9671
  518SOL    HW2 1554   2.932   2.882   2.546  2.4855 -1.1024 -0.3452
  519SOL     OW 1555   1.555   1.720   2.157 -0.5509  0.0903 -0.0327
  519SOL    HW1 1556   1.497   1.687   2.078  1.6590 -1.2094 -0.2153
  519SOL    HW2 1557   1.569   1.821   2.156 -0.8912  0.4192  1.0408
  520SOL     OW 1558   2.921   2.681   2.609  0.3268 -0.4722  0.1105
  520SOL    HW1 1559   3.014   2.655   2.571 -0.2159 -3.1076  1.7751
  520SOL    HW2 1560   2.852   2.612   2.583  0.8718  1.8178  2.3370
  521SOL     OW 1561   0.333   1.715   2.046 -0.2676  0.2602  0.0492
  521SOL    HW1 1562   0.364   1.764   2.127 -0.0973 -1.7195 -0.1291
  521SOL    HW2 1563   0.415   1.661   2.011  2.4296  0.5251  1.3289
  522SOL     OW 1564   0.929   2.819   1.812 -0.1458  0.1858 -0.6128
  522SOL    HW1 1565   0.953   2.865   1.728 -1.3217 -1.6510  3.8775
  522SOL    HW2 1566   0.929   2.886   1.891  1.3400 -2.3187 -2.1299
  523SOL     OW 1567   0.204   2.589   1.337 -0.1253  0.3377 -0.3583
  523SOL    HW1 1568   0.205   2.525   1.422  0.9617 -1.7958 -0.3641
  523SOL    HW2 1569   0.289   2.577   1.280 -3.3208  1.2326 -0.7256
  524SOL     OW 1570   1.582   2.545   0.759  0.3788  0.1331  0.9774
  524SOL    HW1 1571   1.520   2.478   0.709 -2.9666 -3.7617 -1.6183
  524SOL    HW2 1572   1.618   2.508   0.846 -0.8227  2.7292  2.3976
  525SOL     OW 1573   2.327   0.909   0.869 -0.2717  0.1813 -0.3661
  525SOL    HW1 1574   2.265   0.973   0.923 -0.3677 -1.3335 -2.2374
  525SOL    HW2 1575   2.332   0.821   0.924  2.1771 -3.1667  0.4308
  526SOL     OW 1576   1.029   2.242   0.780  0.3708  0.7826 -0.0430
  526SOL    HW1 1577   0.957   2.277   0.717 -1.0397  1.0627 -0.9755
  526SOL    HW2 1578   1.022   2.140   0.784  0.4787 -1.4681  0.0200
  527SOL     OW 1579   2.471   2.092   0.716  0.2423 -0.1054 -0.1762
  527SOL    HW1 1580   2.546   2.041   0.667 -0.2804  3.2449 -1.9002
  527SOL    HW2 1581   2.415   2.035   0.783  2.0228  1.8040  3.1819
  528SOL     OW 1582   2.190   0.507   0.052 -0.2857  0.2782  0.2715
  528SOL    HW1 1583   2.220   0.588   3.080  1.3530  0.7413  0.5226
  528SOL    HW2 1584   2.211   0.518   0.151  0.0747 -2.8947 -1.8605
  529SOL     OW 1585   1.228   1.107   1.899  0.5832  0.1744  0.0509
  529SOL    HW1 1586   1.143   1.127   1.949 -2.3565 -2.3866 -0.6363
  529SOL    HW2 1587   1.199   1.094   1.800 -0.4103  1.2322 -0.6224
  530SOL     OW 1588   2.556   1.085   2.739 -0.2108 -0.2794  0.0236
  530SOL    HW1 1589   2.582   1.155   2.803  0.8455 -0.3010 -2.2667
  530SOL    HW2 1590   2.615   1.085   2.655  0.1771  1.7279  2.7704
  531SOL     OW 1591   0.991   0.899   0.130 -0.1974  0.3087  0.0654
  531SOL    HW1 1592   1.067   0.858   0.180  0.5383  0.8452  1.0055
  531SOL    HW2 1593   0.979   0.993   0.150 -2.9316 -0.5490 -0.5021
  532SOL     OW 1594   1.863   0.391   0.502  0.4681 -0.0855 -0.1978
  532SOL    HW1 1595   1.894   0.305   0.454  1.6764  1.1728 -2.2325
  532SOL    HW2 1596   1.817   0.377   0.591 -0.1779  0.5315  1.6378
  533SOL     OW 1597   0.646   1.041   2.123 -0.0010 -0.1771  0.1818
  533SOL    HW1 1598   0.556   1.038   2.078  1.6925  0.1223  1.9996
  533SOL    HW2 1599   0.688   0.949   2.127  2.1684 -0.0592 -0.4122
  534SOL     OW 1600   1.689   0.066   2.777  0.6172  0.5093 -0.3125
  534SOL    HW1 1601   1.678   0.075   2.676 -1.8746  1.2316 -2.4619
  534SOL    HW2 1602   1.705   0.160   2.818 -0.3152 -0.7345  0.7902
  535SOL     OW 1603   0.713   0.040   0.349 -0.5110  0.0811 -0.3640
  535SOL    HW1 1604   0.640   0.110   0.358  2.6955 -3.4554  0.7633
  535SOL    HW2 1605   0.742   3.074   0.434  0.1185  0.7908 -0.5875
  536SOL     OW 1606   1.266   2.767   1.333  0.9688 -0.1218  0.0139
  536SOL    HW1 1607   1.263   2.847   1.272 -2.0808 -1.0671 -1.4707
  536SOL    HW2 1608   1.278   2.683   1.273  3.5611 -1.3522 -1.9912
  537SOL     OW 1609   1.947   2.773   2.127  0.2014  0.1348  0.0282
  537SOL    HW1 1610   1.886   2.853   2.142 -0.2972  1.0883  0.4405
  537SOL    HW2 1611   2.004   2.785   2.039  1.8567  2.6437 -1.5575
  538SOL     OW 1612   0.403   2.554   2.637  0.0670 -0.0815  0.1046
  538SOL    HW1 1613   0.492   2.513   2.669  1.4075  0.4523  0.2598
  538SOL    HW2 1614   0.416   2.584   2.540 -0.0058 -3.7570 -2.1470
  539SOL     OW 1615   2.926   1.921   1.615 -0.1245 -0.4659  0.1441
  539SOL    HW1 1616   2.989   2.003   1.640  2.5625  0.5316  1.5285
  539SOL    HW2 1617   2.920   1.850   1.689 -0.9386  0.6231 -0.1894
  540SOL     OW 1618   2.508   2.313   2.118 -0.1421 -0.1509 -0.3441
  540SOL    HW1 1619   2.527   2.228   2.172 -0.3955  2.0816 -0.0508
  540SOL    HW2 1620   2.427   2.299   2.057  0.5501  0.8905  0.8309
  541SOL     OW 1621   0.176   2.900   1.572 -0.2875 -0.6616 -0.4593
  541SOL    HW1 1622   0.205   2.995   1.595  0.1334 -1.5341 -0.5253
  541SOL    HW2 1623   0.253   2.860   1.519  0.8879 -0.0399 -1.7221
  542SOL     OW 1624   0.111   0.796   1.996  0.2519 -0.0971 -0.0126
  542SOL    HW1 1625   0.154   0.848   1.919  0.8586  0.9688 -1.4409
  542SOL    HW2 1626   0.103   0.697   1.980 -0.1090  3.4108  1.6710
  543SOL     OW 1627   0.702   0.588   1.199  0.1743  0.0894 -0.1070
  543SOL    HW1 1628   0.799   0.552   1.201 -0.8116  3.4028  0.1597
  543SOL    HW2 1629   0.641   0.508   1.223  4.2645 -3.3379  2.9863
  544SOL     OW 1630   2.347   1.852   1.186  0.5444  0.0753 -0.4726
  544SOL    HW1 1631   2.401   1.820   1.106  2.0270  1.0877  0.2934
  544SOL    HW2 1632   2.261   1.898   1.158  2.3581 -1.6307  0.6978
  545SOL     OW 1633   1.047   1.584   0.575 -0.0445 -0.2725  0.2307
  545SOL    HW1 1634   1.129   1.636   0.612  0.6468  1.1334 -0.6827
  545SOL    HW2 1635   1.016   1.501   0.629 -1.3404 -2.7404  0.9325
  546SOL     OW 1636   2.974   0.477   2.299 -0.1130  0.3376 -0.2154
  546SOL    HW1 1637   2.910   0.515   2.231  3.5911 -1.8890  0.9251
  546SOL    HW2 1638   3.039   0.545   2.338  0.0700  0.3611 -2.7424
  547SOL     OW 1639   0.093   0.219   2.527  0.2020  0.1439 -0.3376
  547SOL    HW1 1640   0.005   0.269   2.533  0.9369 -1.6120  1.9691
  547SOL    HW2 1641   0.145   0.244   2.442  1.2609 -0.1301 -0.5870
  548SOL     OW 1642   2.350   2.274   2.587  0.2040 -0.3068  0.7998
  548SOL    HW1 1643   2.310   2.316   2.666 -0.9459 -1.7674 -3.7784
  548SOL    HW2 1644   2.396   2.342   2.523 -0.3796  1.5676  1.2079
  549SOL     OW 1645   2.263   0.526   0.566 -0.1039  0.0651 -0.4764
  549SOL    HW1 1646   2.194   0.523   0.641  1.6632 -2.2185 -1.3683
  549SOL    HW2 1647   2.353   0.523   0.612 -1.4944 -0.5949 -1.4306
  550SOL     OW 1648   2.387   1.369   0.629  0.4222 -0.6349 -0.1679
  550SOL    HW1 1649   2.368   1.454   0.572  0.6004  0.1410  0.8065
  550SOL    HW2 1650   2.363   1.288   0.572 -2.4118 -0.5585  1.2767
  551SOL     OW 1651   1.470   2.778   1.522 -0.4216  0.3759 -0.6359
  551SOL    HW1 1652   1.523   2.691   1.533 -0.9753 -0.5383 -0.7134
  551SOL    HW2 1653   1.392   2.758   1.463  1.0075  0.7225  2.0484
  552SOL     OW 1654   2.303   2.568   2.539 -0.5059 -0.2585 -0.0040
  552SOL    HW1 1655   2.374   2.554   2.466  2.0696  0.3410  1.9066
  552SOL    HW2 1656   2.213   2.602   2.502  0.9487  0.5082  0.0341
  553SOL     OW 1657   0.713   2.595   0.588 -0.2797 -0.4898  0.1897
  553SOL    HW1 1658   0.714   2.630   0.684  0.6756 -0.0421 -0.3995
  553SOL    HW2 1659   0.627   2.629   0.542  0.2406  0.9775 -0.4757
  554SOL     OW 1660   1.990   2.609   1.784  0.0524 -0.3703  0.1269
  554SOL    HW1 1661   1.959   2.528   1.841 -1.0858  2.1456  2.4234
  554SOL    HW2 1662   1.929   2.625   1.704 -0.3032  1.3917 -0.4113
  555SOL     OW 1663   1.975   2.362   2.170  0.1186  0.2820  0.0378
  555SOL    HW1 1664   2.071   2.396   2.169  3.7251  0.9975 -0.7215
  555SOL    HW2 1665   1.965   2.271   2.215 -0.6673  2.0015  1.9732
  556SOL     OW 1666   1.035   0.247   0.538 -0.3703  0.0602  0.3655
  556SOL    HW1 1667   0.994   0.332   0.576  2.5285  2.5132 -1.8673
  556SOL    HW2 1668   1.051   0.262   0.437 -0.3691  1.9336 -2.5372
  557SOL     OW 1669   1.001   2.126   1.751 -0.1343 -0.5790  0.3688
  557SOL    HW1 1670   1.053   2.108   1.667  0.1832  1.1230  1.4096
  557SOL    HW2 1671   0.939   2.200   1.741  3.4059 -1.7134 -1.6412
  558SOL     OW 1672   2.772   1.155   2.587  0.3327 -0.0548  0.2708
  558SOL    HW1 1673   2.807   1.171   2.494  0.2900 -1.5614 -1.8278
  558SOL    HW2 1674   2.791   1.238   2.639 -0.8910 -1.1536 -0.2227
  559SOL     OW 1675   2.231   2.472   2.167 -0.0143  0.4517  0.0776
  559SOL    HW1 1676   2.272   2.403   2.108 -0.7623 -0.0865  0.6196
  559SOL    HW2 1677   2.256   2.569   2.133  1.1626 -0.2831  1.5911
  560SOL     OW 1678   0.457   0.356   2.416 -0.3935 -0.0996 -0.0932
  560SOL    HW1 1679   0.482   0.368   2.317  1.4512  2.3197 -0.6936
  560SOL    HW2 1680   0.482   0.267   2.450  0.7911  2.2373 -2.7677
  561SOL     OW 1681   1.030   0.408   0.281 -0.0778  0.6649  0.7232
  561SOL    HW1 1682   1.126   0.446   0.296  1.4739 -1.7282 -1.6221
  561SOL    HW2 1683   1.032   0.313   0.239  1.1838 -1.7416  0.2257
  562SOL     OW 1684   0.965   1.571   1.733 -0.1698  0.9239 -0.1665
  562SOL    HW1 1685   1.001   1.667   1.744  1.1054  1.0351  1.3809
  562SOL    HW2 1686   1.029   1.521   1.662  1.7621 -0.3795 -2.2545
  563SOL     OW 1687   1.957   2.373   0.106 -0.0099  0.1283  0.5570
  563SOL    HW1 1688   1.979   2.311   0.025  0.0616 -2.3970 -0.9227
  563SOL    HW2 1689   2.039   2.419   0.143 -2.0714 -1.0395 -0.5396
  564SOL     OW 1690   2.783   2.179   0.458  0.4714 -0.1686  0.6280
  564SOL    HW1 1691   2.785   2.258   0.525 -1.1460 -1.5142  1.8794
  564SOL    HW2 1692   2.737   2.099   0.501 -3.1620 -0.3850  1.8249
  565SOL     OW 1693   0.511   0.099   2.550  0.2634 -0.0793  0.3467
  565SOL    HW1 1694   0.508   0.056   2.640  1.5862  0.7071 -0.1352
  565SOL    HW2 1695   0.612   0.093   2.524 -0.2497  2.3954 -0.9974
  566SOL     OW 1696   1.625   2.582   2.431 -0.8824 -0.2588  0.1749
  566SOL    HW1 1697   1.654   2.610   2.523 -0.8873 -1.0053 -1.9810
  566SOL    HW2 1698   1.708   2.571   2.372  0.0373  0.6725  2.0119
  567SOL     OW 1699   1.943   1.700   1.407  0.3840  0.1034 -0.2080
  567SOL    HW1 1700   1.966   1.668   1.313  0.2490  1.0107  0.7177
  567SOL    HW2 1701   1.854   1.751   1.400 -0.8977  1.0446 -1.1212
  568SOL     OW 1702   2.090   0.923   2.852  0.1248  0.6489  0.1044
  568SOL    HW1 1703   2.006   0.930   2.909 -0.1661  0.3754  0.3041
  568SOL    HW2 1704   2.161   0.866   2.907  2.1519 -4.7035  2.2999
  569SOL     OW 1705   2.231   1.852   2.099  0.4609 -0.2382  0.4024
  569SOL    HW1 1706   2.284   1.784   2.038  3.4646 -0.9139 -1.3225
  569SOL    HW2 1707   2.200   1.789   2.177  2.4928 -3.8774  1.5451
  570SOL     OW 1708   2.886   0.006   1.899 -0.0034  0.3802 -0.9077
  570SOL    HW1 1709   2.843   0.021   1.989 -1.3432 -0.7806  0.2726
  570SOL    HW2 1710   2.864   2.999   1.868  2.5174  0.4835  0.1311
  571SOL     OW 1711   0.347   0.867   1.230  0.1850  0.0046  0.2466
  571SOL    HW1 1712   0.335   0.963   1.197 -0.5519  0.5843  2.1041
  571SOL    HW2 1713   0.269   0.849   1.289  0.8022 -2.3978 -1.8422
  572SOL     OW 1714   0.076   1.605   1.199  0.9028  0.7014  0.2481
  572SOL    HW1 1715   0.058   1.506   1.174  0.5595 -1.6279  0.6746
  572SOL    HW2 1716   3.080   1.664   1.171 -0.1403  2.0666  2.8102
  573SOL     OW 1717   0.874   0.567   0.160 -0.3171 -0.4773 -0.7255
  573SOL    HW1 1718   0.824   0.632   0.220  0.1161 -0.1624  1.7890
  573SOL    HW2 1719   0.945   0.517   0.217  1.8066  2.8211  1.3583
  574SOL     OW 1720   0.361   0.038   0.036 -0.0681 -0.6817 -0.2547
  574SOL    HW1 1721   0.433   0.108   0.053  1.1657  2.2682 -1.0496
  574SOL    HW2 1722   0.358   0.019   3.017  0.0120  1.5314 -1.0621
  575SOL     OW 1723   0.865   2.424   0.977  0.4009 -0.2248 -0.1934
  575SOL    HW1 1724   0.939   2.372   0.922  0.7083 -2.1152 -0.8220
  575SOL    HW2 1725   0.876   2.401   1.074 -1.7566 -0.7009 -0.6374
  576SOL     OW 1726   2.925   2.803   1.266  0.1506  0.2851 -0.2642
  576SOL    HW1 1727   2.872   2.851   1.194  1.5172  0.7710  0.2058
  576SOL    HW2 1728   2.944   2.851   1.352  2.6925 -0.2408 -2.3108
  577SOL     OW 1729   2.635   1.810   1.926 -0.1446  0.3942  0.3751
  577SOL    HW1 1730   2.589   1.894   1.959  0.3537 -1.1894 -0.8098
  577SOL    HW2 1731   2.730   1.826   1.886 -0.1418 -1.9201 -2.4824
  578SOL     OW 1732   1.049   2.925   2.480 -0.5818  0.5991  0.4813
  578SOL    HW1 1733   1.052   2.826   2.450  1.2621  1.1387  1.2480
  578SOL    HW2 1734   1.142   2.946   2.519  1.8027 -1.0073  2.1423
  579SOL     OW 1735   1.895   1.727   2.015  0.2827 -0.1201  0.8585
  579SOL    HW1 1736   1.807   1.719   1.967 -1.1510 -2.2346 -3.5968
  579SOL    HW2 1737   1.964   1.698   1.948 -0.3959 -1.7513  1.5848
  580SOL     OW 1738   1.901   0.473   2.123  0.3085 -0.1481  0.5915
  580SOL    HW1 1739   1.809   0.437   2.098  1.0792 -0.2687  0.9000
  580SOL    HW2 1740   1.890   0.566   2.160 -0.4382  2.1457 -0.0142
  581SOL     OW 1741   0.950   1.404   1.979 -0.2798  0.3802  0.4123
  581SOL    HW1 1742   0.859   1.440   2.006  0.0130  1.5109 -0.4361
  581SOL    HW2 1743   0.990   1.468   1.907 -0.3333  0.7548 -2.3654
  582SOL     OW 1744   0.042   2.733   1.749 -0.1308  0.2185 -0.3545
  582SOL    HW1 1745   0.083   2.703   1.840  0.9463  0.6234  1.2607
  582SOL    HW2 1746   0.099   2.810   1.716  0.4816 -0.5486  1.8865
  583SOL     OW 1747   1.327   1.349   1.276 -0.4353 -0.5009 -0.6745
  583SOL    HW1 1748   1.320   1.416   1.349  0.7694 -2.6339 -1.6193
  583SOL    HW2 1749   1.243   1.302   1.262  0.9739 -0.5913  0.1616
  584SOL     OW 1750   1.368   2.005   2.543  0.3475 -0.1887 -0.0091
  584SOL    HW1 1751   1.378   1.904   2.525 -0.2537  0.6503 -0.4617
  584SOL    HW2 1752   1.452   2.052   2.582 -1.9992  4.2736  0.3671
  585SOL     OW 1753   0.129   2.412   0.196 -0.5649 -0.8565 -0.5636
  585SOL    HW1 1754   0.064   2.432   0.126  1.6617  1.2824  2.5821
  585SOL    HW2 1755   0.167   2.322   0.188 -1.3331  1.6504 -0.3289
  586SOL     OW 1756   1.860   1.955   0.146  0.0599  0.3999  0.0135
  586SOL    HW1 1757   1.947   1.994   0.181 -0.1136  2.1787  0.5510
  586SOL    HW2 1758   1.868   1.865   0.094 -0.3634  1.0049 -1.7472
  587SOL     OW 1759   2.652   1.980   0.571  0.5398  0.1961 -0.1962
  587SOL    HW1 1760   2.740   1.954   0.623  0.8662 -1.5890  5.4676
  587SOL    HW2 1761   2.603   1.899   0.529  1.6638 -1.5437 -1.6756
  588SOL     OW 1762   2.264   0.318   0.878  0.0384  0.0259 -0.3181
  588SOL    HW1 1763   2.343   0.387   0.891 -0.3981  3.7323 -0.5705
  588SOL    HW2 1764   2.186   0.365   0.838 -0.3334  0.6411 -1.4433
  589SOL     OW 1765   0.578   0.647   0.965 -0.4801 -0.6188  0.1713
  589SOL    HW1 1766   0.646   0.627   1.040 -0.3314 -0.0990  0.3239
  589SOL    HW2 1767   0.606   0.736   0.922 -0.8487  1.7152 -0.4311
  590SOL     OW 1768   2.513   2.400   0.093  0.4497 -0.7055  0.9284
  590SOL    HW1 1769   2.507   2.344   0.011 -1.2265  0.1539  0.5095
  590SOL    HW2 1770   2.595   2.380   0.161  3.1337 -0.5973  1.0787
  591SOL     OW 1771   0.434   2.288   1.850  0.0866  0.4573 -0.0377
  591SOL    HW1 1772   0.499   2.229   1.898 -0.5356  0.8348  0.5516
  591SOL    HW2 1773   0.468   2.317   1.760 -2.6735 -1.0026  1.7839
  592SOL     OW 1774   0.689   1.608   1.721 -0.0894  0.6040  0.3283
  592SOL    HW1 1775   0.688   1.709   1.707  0.2717 -1.4619 -0.0958
  592SOL    HW2 1776   0.786   1.570   1.730 -1.2707 -1.4760  0.3675
  593SOL     OW 1777   1.018   1.856   1.270  0.5749  0.4480 -0.4099
  593SOL    HW1 1778   0.966   1.767   1.283 -0.7913 -1.5552  1.2968
  593SOL    HW2 1779   0.995   1.896   1.177 -1.9050  1.2735 -3.9183
  594SOL     OW 1780   0.470   1.573   2.947 -0.2065  0.0157 -0.5483
  594SOL    HW1 1781   0.394   1.602   3.009 -0.4556  1.3056  2.0723
  594SOL    HW2 1782   0.444   1.491   2.892 -0.7804  1.3800 -1.1935
  595SOL     OW 1783   1.343   0.558   0.956  0.0710  0.0226 -0.4071
  595SOL    HW1 1784   1.304   0.485   0.895 -0.9386 -2.1163  2.9697
  595SOL    HW2 1785   1.272   0.607   1.010  0.6525  1.9012  1.0338
  596SOL     OW 1786   0.241   1.464   0.908  0.4654 -0.2127  0.2802
  596SOL    HW1 1787   0.334   1.425   0.917 -0.3606 -0.4730 -1.4814
  596SOL    HW2 1788   0.209   1.470   0.811 -1.2816 -2.1505 -0.6999
  597SOL     OW 1789   3.011   1.987   2.878  0.1018  0.0542 -0.5077
  597SOL    HW1 1790   2.914   1.972   2.851  0.0552  2.7385  2.1103
  597SOL    HW2 1791   3.023   2.077   2.923 -3.1599  0.3548 -1.3910
  598SOL     OW 1792   1.952   2.107   2.228 -0.1193 -0.2672  0.3136
  598SOL    HW1 1793   2.001   2.116   2.138  0.2419 -0.3610 -3.4676
  598SOL    HW2 1794   1.919   2.012   2.239  0.5160  1.5026  1.1597
  599SOL     OW 1795   1.457   0.441   0.612  0.2133  0.3205 -0.6124
  599SOL    HW1 1796   1.492   0.501   0.544 -0.5900 -1.0547  4.3626
  599SOL    HW2 1797   1.370   0.472   0.654 -0.7538 -2.2298  0.7470
  600SOL     OW 1798   0.872   2.682   0.389  0.6233 -0.4613  0.2078
  600SOL    HW1 1799   0.826   2.645   0.472 -1.0805  0.0729 -0.0736
  600SOL    HW2 1800   0.939   2.611   0.358  1.4285 -0.3355 -3.1565
  601SOL     OW 1801   0.553   0.379   1.281 -0.4744 -0.2509  0.0588
  601SOL    HW1 1802   0.536   0.436   1.365  2.4310 -1.6320 -1.9812
  601SOL    HW2 1803   0.602   0.292   1.296  3.2179 -0.4130 -0.7905
  602SOL     OW 1804   0.033   2.867   0.595  0.1334  0.0928 -0.1711
  602SOL    HW1 1805   0.031   2.781   0.654 -1.9802  0.9667 -1.6904
  602SOL    HW2 1806   0.080   2.938   0.649 -0.8074  0.0515  1.8153
  603SOL     OW 1807   0.918   2.676   2.647 -0.3335 -0.2553  0.0077
  603SOL    HW1 1808   0.860   2.701   2.569  0.9706  0.0740  2.1989
  603SOL    HW2 1809   0.874   2.599   2.695 -0.0432 -1.1360 -4.0971
  604SOL     OW 1810   0.978   2.628   2.965 -0.1085 -0.2055  0.3174
  604SOL    HW1 1811   0.901   2.566   2.988  0.4769 -3.2014  1.3388
  604SOL    HW2 1812   0.970   2.715   3.020  0.6371  1.1963  2.7728
  605SOL     OW 1813   0.720   0.725   1.823 -0.0991 -0.6568  0.4667
  605SOL    HW1 1814   0.814   0.685   1.835  2.0399 -1.8039 -0.0537
  605SOL    HW2 1815   0.724   0.811   1.768 -1.6336  2.1560 -1.2635
  606SOL     OW 1816   1.527   0.310   2.568  0.1620 -0.1889  0.6647
  606SOL    HW1 1817   1.581   0.291   2.654 -2.1945 -1.0047 -0.4896
  606SOL    HW2 1818   1.567   0.270   2.481 -1.5030 -0.2547 -1.3351
  607SOL     OW 1819   0.181   1.270   1.285  0.0030 -0.0687  0.2956
  607SOL    HW1 1820   0.222   1.331   1.357  1.4707 -1.4358 -0.1781
  607SOL    HW2 1821   0.138   1.330   1.211 -0.6253  0.3984 -2.7926
  608SOL     OW 1822   2.909   2.528   2.274  0.0067  0.1809  0.1379
  608SOL    HW1 1823   2.858   2.612   2.310 -1.8548  1.5559  0.4036
  608SOL    HW2 1824   3.012   2.552   2.265  0.3435 -2.2978 -0.5344
  609SOL     OW 1825   1.726   0.425   0.135  0.3145  0.0863  0.0319
  609SOL    HW1 1826   1.821   0.464   0.119  0.4241 -1.3161  0.5655
  609SOL    HW2 1827   1.651   0.461   0.072 -0.6662 -0.2155 -0.3295
  610SOL     OW 1828   0.975   2.689   1.163 -0.5609  0.1184 -0.7000
  610SOL    HW1 1829   0.925   2.768   1.126  2.3026  0.7254  3.1161
  610SOL    HW2 1830   1.023   2.706   1.248  0.4134 -0.5263  1.2750
  611SOL     OW 1831   0.742   0.828   0.249 -0.3778  0.2570 -1.0354
  611SOL    HW1 1832   0.708   0.900   0.312 -2.3975 -0.4403 -1.0918
  611SOL    HW2 1833   0.827   0.855   0.190  3.5337 -0.1006 -0.5501
  612SOL     OW 1834   1.370   0.686   2.403 -0.3429  0.0562 -0.5782
  612SOL    HW1 1835   1.426   0.726   2.329  1.5606 -2.4829 -1.8179
  612SOL    HW2 1836   1.425   0.661   2.484  0.8231 -2.2915  0.0603
  613SOL     OW 1837   1.946   0.690   0.327  0.2880 -0.5620  0.6210
  613SOL    HW1 1838   1.987   0.746   0.402 -1.9772  2.3294 -0.4004
  613SOL    HW2 1839   1.846   0.680   0.340 -0.9346  0.5893  2.4641
  614SOL     OW 1840   2.018   0.535   1.897  0.3477  0.1024  0.1973
  614SOL    HW1 1841   1.996   0.504   1.992  1.0205  1.9241  0.5293
  614SOL    HW2 1842   2.050   0.636   1.894 -0.2685  1.4570  1.1939
  615SOL     OW 1843   0.749   2.103   0.842 -0.1464  0.0740  0.1598
  615SOL    HW1 1844   0.696   2.041   0.780 -3.4408 -1.9837  1.6206
  615SOL    HW2 1845   0.708   2.199   0.843 -1.1153 -0.0757  0.7487
  616SOL     OW 1846   1.646   1.021   2.303 -0.7559  0.1332 -0.2732
  616SOL    HW1 1847   1.601   1.109   2.304  2.4567 -1.9673 -0.0933
  616SOL    HW2 1848   1.745   1.033   2.331  0.8568  1.4289 -0.0852
  617SOL     OW 1849   1.877   2.648   0.199  0.0886 -0.0398 -0.4548
  617SOL    HW1 1850   1.782   2.658   0.179  1.9881 -3.4216  1.2659
  617SOL    HW2 1851   1.925   2.575   0.152 -0.8678  3.0694  0.5315
  618SOL     OW 1852   0.884   0.975   2.923 -0.6609 -0.6614 -0.5082
  618SOL    HW1 1853   0.788   0.941   2.906  0.6228  1.9247 -1.6432
  618SOL    HW2 1854   0.915   0.959   3.020 -0.3015  0.1383  0.3328
  619SOL     OW 1855   2.501   1.331   0.857 -0.1372 -0.8188  0.1117
  619SOL    HW1 1856   2.530   1.233   0.863  0.0755 -1.5438  1.6137
  619SOL    HW2 1857   2.457   1.346   0.764  0.5317  1.8743 -3.1019
  620SOL     OW 1858   2.377   2.801   3.077 -0.1832  0.5155 -0.3540
  620SOL    HW1 1859   2.410   2.834   2.987  0.0473 -2.7903 -1.1136
  620SOL    HW2 1860   2.451   2.763   0.055  0.7064  0.3095 -0.3178
  621SOL     OW 1861   2.120   0.963   0.226  0.2512  0.8209  0.4369
  621SOL    HW1 1862   2.070   1.050   0.206  0.0910 -0.2260  1.2381
  621SOL    HW2 1863   2.109   0.935   0.324 -1.4414 -1.8278 -2.5858
  622SOL     OW 1864   0.907   2.252   2.683 -0.3585  0.4522  0.0473
  622SOL    HW1 1865   0.957   2.310   2.617 -0.6501 -1.0377  0.0419
  622SOL    HW2 1866   0.963   2.233   2.763 -0.0261 -1.8302 -1.9624
  623SOL     OW 1867   0.287   1.710   0.043 -0.4558 -1.0707  0.4264
  623SOL    HW1 1868   0.198   1.754   0.015 -1.2965 -1.1623  1.1789
  623SOL    HW2 1869   0.350   1.786   0.073  0.3123  0.6774  0.8640
  624SOL     OW 1870   0.452   0.020   2.804  0.1388 -0.3913 -0.0546
  624SOL    HW1 1871   0.503   3.040   2.862  0.6287 -1.2961 -1.1360
  624SOL    HW2 1872   0.361   3.070   2.777 -0.0663 -1.7431 -1.1511
  625SOL     OW 1873   0.850   1.828   0.023  0.4546  0.0879  0.3109
  625SOL    HW1 1874   0.884   1.922   0.049  1.6281  0.8415 -2.1602
  625SOL    HW2 1875   0.751   1.814   0.039  1.4283 -2.2512  1.2175
  626SOL     OW 1876   2.856   0.281   0.074 -0.3004  0.7604 -0.5662
  626SOL    HW1 1877   2.862   0.262   3.059  2.4968 -0.6528  1.1645
  626SOL    HW2 1878   2.766   0.313   0.095  1.2964  0.5890  0.8982
  627SOL     OW 1879   1.313   1.169   2.869 -0.1828  0.1623  0.3933
  627SOL    HW1 1880   1.384   1.213   2.917  1.3025  1.2986 -0.4287
  627SOL    HW2 1881   1.343   1.140   2.773 -1.3267  0.5151  0.0499
  628SOL     OW 1882   1.375   0.808   2.791 -0.4195 -0.0214  0.7343
  628SOL    HW1 1883   1.411   0.718   2.755  0.4310 -0.6210 -2.1232
  628SOL    HW2 1884   1.322   0.868   2.726 -1.7346 -0.1428 -0.6357
  629SOL     OW 1885   0.215   0.076   1.636 -0.3350 -0.5152  0.1927
  629SOL    HW1 1886   0.295   0.115   1.687 -0.0968 -1.0330  2.2606
  629SOL    HW2 1887   0.177   0.137   1.562 -1.7990  1.5321 -1.8685
  630SOL     OW 1888   2.635   0.823   2.018 -0.0356  0.6149  0.0675
  630SOL    HW1 1889   2.604   0.921   2.002 -1.2708  1.9484  0.2419
  630SOL    HW2 1890   2.740   0.824   2.036 -0.0423  0.4624 -1.7377
  631SOL     OW 1891   1.952   0.842   0.826  0.3458  0.0629 -0.2509
  631SOL    HW1 1892   1.931   0.916   0.895  0.5483  2.1833  1.4900
  631SOL    HW2 1893   2.036   0.793   0.854  0.0111 -2.0329  3.7351
  632SOL     OW 1894   2.785   0.690   1.731  0.1780  0.0872 -0.1100
  632SOL    HW1 1895   2.793   0.792   1.750  1.2915 -0.4660 -1.0564
  632SOL    HW2 1896   2.835   0.663   1.649 -1.6878  0.2004 -0.1406
  633SOL     OW 1897   0.932   2.834   0.054 -0.9454 -0.0161  0.7704
  633SOL    HW1 1898   0.990   2.906   0.004  1.1845 -0.0952 -3.7435
  633SOL    HW2 1899   0.856   2.879   0.107  3.1669  1.8474 -1.3774
  634SOL     OW 1900   1.358   2.786   3.052  0.6772 -0.0851 -0.6793
  634SOL    HW1 1901   1.370   2.880   0.008 -1.0633  0.8232  0.3348
  634SOL    HW2 1902   1.350   2.796   2.951 -2.2252 -0.1529 -2.2329
  635SOL     OW 1903   2.991   0.427   0.280 -0.5386  0.0068 -0.1992
  635SOL    HW1 1904   2.970   0.531   0.276  1.7618  5.1066  4.4232
  635SOL    HW2 1905   2.930   0.378   0.214  0.8052  2.4162 -1.5287
  636SOL     OW 1906   0.474   1.213   0.451 -0.1000 -0.1733  0.2468
  636SOL    HW1 1907   0.471   1.270   0.365 -0.3528  2.2031 -1.0231
  636SOL    HW2 1908   0.409   1.133   0.439  0.5111 -0.1135  1.9245
  637SOL     OW 1909   0.271   2.670   0.286 -0.1871  0.1823  0.3379
  637SOL    HW1 1910   0.225   2.597   0.235  0.7561  2.3060  0.2102
  637SOL    HW2 1911   0.208   2.743   0.308 -1.3958 -0.1963  1.7023
  638SOL     OW 1912   2.947   2.517   0.303  0.1054 -0.0718  0.1745
  638SOL    HW1 1913   2.994   2.580   0.239  1.0984  0.6715  1.3094
  638SOL    HW2 1914   3.019   2.460   0.351  1.6297  0.4257  3.1622
  639SOL     OW 1915   1.320   1.282   0.227 -0.1300 -0.0670 -0.2360
  639SOL    HW1 1916   1.333   1.205   0.160 -0.2110 -1.8586  0.4646
  639SOL    HW2 1917   1.328   1.371   0.185 -2.1754 -1.7868  3.3156
  640SOL     OW 1918   1.576   2.516   1.110 -0.4325  0.1329  0.1169
  640SOL    HW1 1919   1.644   2.591   1.094 -2.5390 -1.5722  1.6686
  640SOL    HW2 1920   1.598   2.442   1.041 -0.3146 -0.9381  1.2039
  641SOL     OW 1921   2.953   2.384   0.998 -0.3052 -0.2362 -0.2314
  641SOL    HW1 1922   2.918   2.295   0.967  0.9246 -0.8332 -1.9544
  641SOL    HW2 1923   2.873   2.448   1.006 -0.7717 -0.5214 -1.1215
  642SOL     OW 1924   0.622   2.958   1.754  0.0798  0.3064  0.0426
  642SOL    HW1 1925   0.706   2.983   1.707 -1.4215 -0.2532 -1.6129
  642SOL    HW2 1926   0.558   3.036   1.767  1.0183 -0.0974 -0.9935
  643SOL     OW 1927   0.738   2.106   2.518 -0.2156 -0.0481  0.6109
  643SOL    HW1 1928   0.816   2.133   2.581 -0.8992  5.0694  0.6398
  643SOL    HW2 1929   0.712   2.013   2.536  1.5674  3.1962 -0.2344
  644SOL     OW 1930   1.034   2.556   0.696 -0.8510 -0.0348  0.0603
  644SOL    HW1 1931   1.111   2.539   0.625  1.5465 -1.4586  1.3773
  644SOL    HW2 1932   0.964   2.481   0.683 -1.0774 -0.1520 -1.5968
  645SOL     OW 1933   1.296   1.415   2.013 -0.9665 -0.2831 -0.1484
  645SOL    HW1 1934   1.213   1.455   2.055  0.0326  0.6065  1.3732
  645SOL    HW2 1935   1.299   1.321   2.042  0.6274  2.8748  0.5916
  646SOL     OW 1936   0.375   0.966   0.324  0.8051  0.0079  0.1232
  646SOL    HW1 1937   0.322   0.914   0.394 -0.9055 -1.2989 -0.3243
  646SOL    HW2 1938   0.400   0.898   0.248  0.2251 -0.1452  0.0617
  647SOL     OW 1939   1.176   0.426   0.775 -0.7944  0.1070  0.0635
  647SOL    HW1 1940   1.084   0.453   0.753  2.5998 -3.0761 -0.3769
  647SOL    HW2 1941   1.180   0.324   0.792 -0.4392 -0.7937 -0.9562
  648SOL     OW 1942   2.450   2.722   1.398  0.6943  0.1584 -0.2810
  648SOL    HW1 1943   2.356   2.770   1.405  0.4687 -1.5399 -0.7906
  648SOL    HW2 1944   2.440   2.620   1.398  0.0133 -1.9040 -0.0158
  649SOL     OW 1945   0.619   1.975   3.003  0.1279  0.0689 -0.0417
  649SOL    HW1 1946   0.661   2.065   3.020  1.2603 -3.5867  2.4965
  649SOL    HW2 1947   0.572   1.939   0.000  1.1032  2.3949 -0.8064
  650SOL     OW 1948   2.405   1.944   1.711 -0.5777  0.2636  0.0427
  650SOL    HW1 1949   2.342   1.966   1.636  1.9233  2.6771  0.9720
  650SOL    HW2 1950   2.503   1.934   1.677  2.6201 -1.2868 -0.9227
  651SOL     OW 1951   0.210   2.975   2.791 -0.5552  0.3463 -0.1542
  651SOL    HW1 1952   0.208   2.921   2.701  0.0934  0.0619  0.9567
  651SOL    HW2 1953   0.119   3.007   2.812  1.6393 -3.1946  2.7541
  652SOL     OW 1954   2.418   1.651   0.056 -0.7000  0.4140 -0.0551
  652SOL    HW1 1955   2.456   1.676   3.052  0.2288  0.4470  0.2168
  652SOL    HW2 1956   2.486   1.617   0.122 -0.0889 -0.6827 -0.7543
  653SOL     OW 1957   0.134   0.037   0.683  0.0295 -0.0135 -0.6021
  653SOL    HW1 1958   0.167   0.072   0.773  0.9673  1.8911  0.5720
  653SOL    HW2 1959   0.114   0.116   0.624 -1.8081 -0.7068 -1.4639
  654SOL     OW 1960   1.137   3.026   0.293 -0.4284 -0.6997 -0.0680
  654SOL    HW1 1961   1.148   2.938   0.244  0.3086  3.4934  0.7964
  654SOL    HW2 1962   1.210   0.005   0.264 -0.2301 -1.3090  3.0083
  655SOL     OW 1963   0.763   2.745   1.388  0.0880  0.2465  0.1623
  655SOL    HW1 1964   0.741   2.696   1.303 -0.0752 -1.6895  2.6810
  655SOL    HW2 1965   0.823   2.687   1.449 -0.9679 -0.9853  0.6886
  656SOL     OW 1966   0.386   0.105   1.993  0.0302 -0.0988 -0.0753
  656SOL    HW1 1967   0.446   0.031   2.030  1.4085 -1.6226  0.1179
  656SOL    HW2 1968   0.316   0.134   2.063 -0.2728  0.5973 -0.7953
  657SOL     OW 1969   1.945   0.423   2.446 -0.4649 -0.0992 -0.0003
  657SOL    HW1 1970   1.951   0.324   2.469 -2.4895  2.0134  0.2337
  657SOL    HW2 1971   2.040   0.454   2.464  1.5592 -1.0199  4.4885
  658SOL     OW 1972   1.964   1.571   1.084  0.1065 -0.0426 -0.1263
  658SOL    HW1 1973   1.921   1.483   1.118 -1.5291  0.0291 -1.0607
  658SOL    HW2 1974   2.060   1.579   1.124 -1.1763  1.1485  1.1970
  659SOL     OW 1975   2.546   2.546   2.939 -0.2905  0.2314  0.1602
  659SOL    HW1 1976   2.502   2.619   2.881 -1.3884  3.9977 -0.4064
  659SOL    HW2 1977   2.514   2.534   3.035 -0.4260  0.9870 -0.2502
  660SOL     OW 1978   1.071   0.539   3.036 -0.4117 -0.0420 -0.0448
  660SOL    HW1 1979   1.032   0.523   2.943 -1.8720  0.4782 -1.7903
  660SOL    HW2 1980   0.993   0.529   0.020 -0.6872 -1.1745 -0.1970
  661SOL     OW 1981   2.454   2.941   0.798 -0.1941 -0.1041  0.1663
  661SOL    HW1 1982   2.499   2.895   0.714  3.4631 -4.2181 -3.4613
  661SOL    HW2 1983   2.526   2.981   0.860 -0.5293  1.1307  0.7113
  662SOL     OW 1984   0.444   0.385   0.915 -0.8919  0.2019  0.5747
  662SOL    HW1 1985   0.497   0.470   0.927  1.6733 -0.6922  1.8732
  662SOL    HW2 1986   0.367   0.391   0.850 -1.1879 -5.0365 -0.6226
  663SOL     OW 1987   1.368   2.474   2.454  0.6635  0.0667  0.4382
  663SOL    HW1 1988   1.463   2.504   2.457 -4.3862 -2.8591  1.5720
  663SOL    HW2 1989   1.322   2.505   2.367 -4.9291  3.5621 -0.3294
  664SOL     OW 1990   0.694   2.420   1.341 -0.5804  0.5511  0.3146
  664SOL    HW1 1991   0.789   2.423   1.304  2.9958 -0.0154 -2.3902
  664SOL    HW2 1992   0.668   2.328   1.376  1.2225  1.5512  0.2171
  665SOL     OW 1993   1.321   2.226   1.484 -0.2903  0.2885 -0.3350
  665SOL    HW1 1994   1.361   2.229   1.580  0.3984  0.8415  0.6335
  665SOL    HW2 1995   1.370   2.171   1.413 -0.7903 -2.3592  1.8133
  666SOL     OW 1996   0.576   2.753   2.827  0.4590  0.0985 -0.1741
  666SOL    HW1 1997   0.554   2.775   2.731 -0.5410 -2.7497  3.8476
  666SOL    HW2 1998   0.618   2.661   2.840  1.2577  0.2280  1.1641
  667SOL     OW 1999   1.479   1.653   1.124  0.2432  0.0068 -0.2148
  667SOL    HW1 2000   1.514   1.593   1.194 -0.7259  2.1870 -1.9446
  667SOL    HW2 2001   1.418   1.724   1.168 -2.9495  1.6928 -2.5846
  668SOL     OW 2002   0.950   0.272   2.249  0.5852  0.0893 -0.0854
  668SOL    HW1 2003   0.997   0.315   2.323  0.3636 -1.9737 -2.7511
  668SOL    HW2 2004   0.966   0.173   2.250 -0.9812  0.4293 -2.8636
  669SOL     OW 2005   2.276   2.285   1.976 -0.0047  0.6022  0.5575
  669SOL    HW1 2006   2.299   2.316   1.880 -0.5549  1.7612  1.7581
  669SOL    HW2 2007   2.191   2.229   1.985  1.5825 -0.3169  0.2567
  670SOL     OW 2008   2.168   1.822   0.261 -0.0334 -0.2961 -0.2664
  670SOL    HW1 2009   2.156   1.851   0.356 -0.2885 -2.5615  0.9849
  670SOL    HW2 2010   2.159   1.898   0.195 -1.4014 -1.2725  0.0406
  671SOL     OW 2011   1.504   0.966   1.062 -0.3793 -0.0985 -0.1330
  671SOL    HW1 2012   1.491   0.919   0.973 -1.3564 -1.0278  0.6728
  671SOL    HW2 2013   1.499   1.066   1.047 -2.5107 -1.2835 -0.8088
  672SOL     OW 2014   2.294   1.507   2.212 -0.7704 -0.2331 -0.2661
  672SOL    HW1 2015   2.390   1.532   2.210 -2.1149 -2.0372 -1.3290
  672SOL    HW2 2016   2.283   1.415   2.173 -1.1352 -0.6497 -2.9337
  673SOL     OW 2017   2.611   1.620   2.131 -0.1165 -0.4977 -0.7887
  673SOL    HW1 2018   2.639   1.688   2.065  0.2200 -2.9001  0.7619
  673SOL    HW2 2019   2.579   1.671   2.216  1.1616  3.0193  0.2730
  674SOL     OW 2020   1.038   2.697   2.327 -0.1888 -0.3656  0.5793
  674SOL    HW1 2021   1.134   2.664   2.299  1.3482  0.5742 -1.1417
  674SOL    HW2 2022   0.973   2.682   2.251  1.5555 -0.8220  1.1413
  675SOL     OW 2023   0.736   1.215   1.499 -0.2362 -0.0520 -0.3052
  675SOL    HW1 2024   0.691   1.186   1.417 -1.0508  1.4249  0.0512
  675SOL    HW2 2025   0.828   1.170   1.511  1.8749  0.3434 -1.8446
  676SOL     OW 2026   2.071   0.484   0.766 -0.4389  0.2953 -0.1313
  676SOL    HW1 2027   1.987   0.480   0.709  1.3163  0.9447 -1.1227
  676SOL    HW2 2028   2.051   0.523   0.861 -1.4026  0.7928  0.2637
  677SOL     OW 2029   2.364   1.548   2.691  0.2200  0.1462 -0.4183
  677SOL    HW1 2030   2.402   1.496   2.616 -2.7705  2.4272  1.7902
  677SOL    HW2 2031   2.350   1.494   2.776  2.6163  0.7770 -0.0202
  678SOL     OW 2032   0.005   2.924   0.969  0.0592 -0.0561 -0.4123
  678SOL    HW1 2033   0.016   2.860   1.049 -1.2942  0.1185  0.5381
  678SOL    HW2 2034   0.095   2.958   0.944 -0.4808 -2.0120  1.8856
  679SOL     OW 2035   2.451   2.987   0.273  0.6238 -0.1321 -0.1600
  679SOL    HW1 2036   2.500   3.007   0.188 -1.9341  0.7433 -0.9316
  679SOL    HW2 2037   2.505   2.956   0.356 -2.7525  0.8429  0.5322
  680SOL     OW 2038   0.055   2.399   1.952  0.4779  0.0118 -0.1221
  680SOL    HW1 2039   0.079   2.318   1.900  0.5802  0.6531  0.0110
  680SOL    HW2 2040   3.045   2.399   1.989  2.3402 -3.1208 -2.8093
  681SOL     OW 2041   2.596   1.549   1.346  0.0462 -0.2831  0.1687
  681SOL    HW1 2042   2.592   1.653   1.353  0.3298  1.5562  0.0061
  681SOL    HW2 2043   2.506   1.504   1.363 -0.2321 -0.4672  0.4375
  682SOL     OW 2044   2.874   2.373   2.048 -0.1452 -0.0411  0.0396
  682SOL    HW1 2045   2.809   2.431   1.988 -1.4233 -2.3114 -2.9090
  682SOL    HW2 2046   2.870   2.392   2.148  1.2768  0.1904 -1.8638
  683SOL     OW 2047   3.011   2.244   1.325  0.0919  0.2116  0.0027
  683SOL    HW1 2048   2.941   2.172   1.310  0.8137  1.3897  1.6556
  683SOL    HW2 2049   2.960   2.334   1.312 -2.6987  4.1319 -2.1392
  684SOL     OW 2050   2.138   1.250   2.364 -0.3634  0.4880 -0.2434
  684SOL    HW1 2051   2.112   1.335   2.404 -1.1102  0.3152 -4.6375
  684SOL    HW2 2052   2.236   1.225   2.365 -5.0019 -1.8896 -0.6668
  685SOL     OW 2053   1.469   0.961   0.345 -0.1516 -0.4139  0.0950
  685SOL    HW1 2054   1.375   0.925   0.344  2.7645 -1.9726 -1.3095
  685SOL    HW2 2055   1.531   0.901   0.402  0.6351  0.4027  1.8114
  686SOL     OW 2056   0.550   3.049   0.885  0.4567  0.3190  0.4369
  686SOL    HW1 2057   0.539   3.032   0.984 -0.7284  1.3631 -1.6523
  686SOL    HW2 2058   0.649   3.032   0.856  2.3895 -0.1873  1.7424
  687SOL     OW 2059   1.536   1.263   2.266  0.3581 -0.1079 -0.1066
  687SOL    HW1 2060   1.592   1.346   2.272 -0.3351  0.1819 -2.6782
  687SOL    HW2 2061   1.434   1.263   2.289 -1.3517 -1.9876 -1.3370
  688SOL     OW 2062   1.365   1.838   1.292 -0.0609  0.0644  0.6610
  688SOL    HW1 2063   1.275   1.818   1.247  2.8460 -1.1766 -0.5791
  688SOL    HW2 2064   1.366   1.808   1.393  1.0998 -0.4368  0.4430
  689SOL     OW 2065   2.064   0.192   1.354 -0.4482  0.2121 -0.3464
  689SOL    HW1 2066   2.073   0.164   1.258 -1.7547 -0.4598  4.8916
  689SOL    HW2 2067   2.150   0.240   1.393 -1.0755  1.1672 -1.3526
  690SOL     OW 2068   3.065   1.349   1.110 -0.2126 -0.1680  0.2615
  690SOL    HW1 2069   2.993   1.353   1.182  1.0779 -2.2003 -0.6016
  690SOL    HW2 2070   3.032   1.325   1.017  0.9716 -0.6581 -0.0367
  691SOL     OW 2071   0.508   2.665   0.998  0.0670  0.1425 -0.4035
  691SOL    HW1 2072   0.593   2.697   0.950 -3.0687 -1.7070 -0.5473
  691SOL    HW2 2073   0.448   2.617   0.934  2.0940 -0.8425 -1.2682
  692SOL     OW 2074   2.250   0.451   1.733 -0.1113  0.4072  0.0017
  692SOL    HW1 2075   2.316   0.527   1.712  0.6446  1.2964  0.2753
  692SOL    HW2 2076   2.170   0.489   1.780  2.0020 -2.9080  0.6090
  693SOL     OW 2077   0.206   1.956   1.995  0.0765 -0.1795 -0.3359
  693SOL    HW1 2078   0.255   1.866   1.996 -0.0834 -0.2222  1.4008
  693SOL    HW2 2079   0.103   1.944   2.018 -1.4683 -0.7160 -0.3292
  694SOL     OW 2080   1.460   1.345   1.784 -0.0244  0.0753 -0.0877
  694SOL    HW1 2081   1.549   1.375   1.819 -1.0109 -0.0978  0.4259
  694SOL    HW2 2082   1.385   1.367   1.848  1.4961 -1.1910 -0.4894
  695SOL     OW 2083   0.619   1.106   1.268 -0.1680  0.1132 -0.4027
  695SOL    HW1 2084   0.531   1.131   1.223  1.1548  2.1914  0.3936
  695SOL    HW2 2085   0.636   1.005   1.271 -2.3254 -0.5406  1.0528
  696SOL     OW 2086   1.443   3.008   0.826  0.3537  0.0356  0.0635
  696SOL    HW1 2087   1.429   0.004   0.761 -0.5497 -0.2535 -0.3197
  696SOL    HW2 2088   1.499   3.030   0.911  0.4314 -2.7059  2.5611
  697SOL     OW 2089   1.399   0.344   1.761  0.1107 -0.3815  0.0454
  697SOL    HW1 2090   1.354   0.378   1.845  1.4308  3.2260  0.4529
  697SOL    HW2 2091   1.350   0.263   1.716 -0.0588  1.0712  0.1985
  698SOL     OW 2092   1.891   1.235   1.949  0.5129 -0.1662  0.0462
  698SOL    HW1 2093   1.800   1.206   1.980 -0.8468 -0.8085  0.0358
  698SOL    HW2 2094   1.928   1.295   2.022 -1.1229 -1.4496  0.3511
  699SOL     OW 2095   2.284   0.288   1.514  0.2146  0.2270  0.0543
  699SOL    HW1 2096   2.349   0.360   1.498 -2.2035  0.9244  0.4072
  699SOL    HW2 2097   2.235   0.312   1.600  1.9814 -0.1001 -0.1740
  700SOL     OW 2098   0.949   2.146   0.185  0.3819  0.3071  0.2792
  700SOL    HW1 2099   0.919   2.163   0.280 -1.7360  4.9213 -0.3026
  700SOL    HW2 2100   1.044   2.120   0.180 -2.7007  0.0126  0.1827
  701SOL     OW 2101   2.276   2.703   2.779  0.6170  0.0887  0.0029
  701SOL    HW1 2102   2.277   2.626   2.708  2.0274 -2.4090  0.6170
  701SOL    HW2 2103   2.176   2.712   2.807 -0.8932  0.4299 -0.0640
  702SOL     OW 2104   0.921   0.046   1.213  0.2383 -0.8685  0.2496
  702SOL    HW1 2105   0.896   3.049   1.155 -0.7299 -0.2226 -0.3841
  702SOL    HW2 2106   1.019   0.050   1.223 -1.3752 -1.2400 -0.6559
  703SOL     OW 2107   2.206   0.151   2.425  0.3004 -0.4853 -0.0489
  703SOL    HW1 2108   2.154   0.236   2.399 -2.0117  1.2251 -2.3796
  703SOL    HW2 2109   2.289   0.130   2.364  1.3134 -2.0387 -4.9158
  704SOL     OW 2110   2.728   2.344   0.244  0.2032  0.7277  0.4236
  704SOL    HW1 2111   2.797   2.414   0.254 -2.5956 -1.7957 -1.3034
  704SOL    HW2 2112   2.718   2.281   0.325 -2.3691 -1.4844  0.9901
  705SOL     OW 2113   2.399   0.130   2.246  0.9822 -0.0622 -0.4387
  705SOL    HW1 2114   2.323   0.086   2.193 -0.5994 -1.0586 -0.6687
  705SOL    HW2 2115   2.474   0.058   2.262  0.5018 -0.6581 -2.1980
  706SOL     OW 2116   2.212   2.970   1.135  0.1990 -0.1702 -0.1137
  706SOL    HW1 2117   2.259   2.889   1.093 -1.2428 -1.5901  0.9949
  706SOL    HW2 2118   2.248   3.051   1.088 -0.5972 -3.9886  1.7180
  707SOL     OW 2119   0.745   2.931   2.469 -0.7717 -0.7408  0.3122
  707SOL    HW1 2120   0.846   2.947   2.471 -0.0630  1.6639  0.6502
  707SOL    HW2 2121   0.706   2.975   2.388  1.7050 -2.8076 -0.1171
  708SOL     OW 2122   2.830   2.378   1.706  0.3549 -0.0240 -0.4250
  708SOL    HW1 2123   2.783   2.442   1.771 -1.6723 -2.0080 -1.2148
  708SOL    HW2 2124   2.920   2.417   1.673 -0.7706 -1.3951 -0.0193
  709SOL     OW 2125   1.818   0.449   1.738 -1.0028 -0.0591  0.1337
  709SOL    HW1 2126   1.874   0.440   1.657 -1.0501  1.4498 -0.6215
  709SOL    HW2 2127   1.867   0.481   1.817  0.0210 -1.5121 -0.2640
  710SOL     OW 2128   1.081   0.296   2.487  0.6534 -0.3985 -0.0758
  710SOL    HW1 2129   0.989   0.261   2.522 -1.5195 -1.1432  1.2049
  710SOL    HW2 2130   1.152   0.242   2.540  3.6125 -0.6748 -0.7680
  711SOL     OW 2131   0.745   1.841   2.616 -0.2721  0.1847  0.2337
  711SOL    HW1 2132   0.804   1.895   2.677  2.0014 -1.2221 -1.3981
  711SOL    HW2 2133   0.654   1.837   2.659  0.6420  0.6254 -1.5241
  712SOL     OW 2134   0.947   1.927   2.817 -0.3116  0.1564 -0.1530
  712SOL    HW1 2135   0.927   1.858   2.891  2.1858 -0.8323  2.5428
  712SOL    HW2 2136   1.046   1.940   2.813 -1.3647 -1.3487  0.1700
  713SOL     OW 2137   1.900   1.086   2.423  0.3458  0.0786  0.0620
  713SOL    HW1 2138   1.958   1.163   2.395 -1.1817 -3.4544  2.6208
  713SOL    HW2 2139   1.949   1.005   2.460  1.3182 -2.3183 -0.7950
  714SOL     OW 2140   1.240   1.790   1.819 -0.2250  0.4016 -0.2542
  714SOL    HW1 2141   1.271   1.842   1.899 -1.8914  0.9255  0.6646
  714SOL    HW2 2142   1.143   1.812   1.797  2.9323  0.7037 -1.6978
  715SOL     OW 2143   2.098   0.260   3.069 -0.0024  0.2730  0.3290
  715SOL    HW1 2144   2.128   0.355   0.006 -1.5368  0.7055 -0.7106
  715SOL    HW2 2145   2.063   0.253   2.970  1.6782  1.4610 -1.5888
  716SOL     OW 2146   2.663   2.413   1.470  0.1398  0.2764 -0.7703
  716SOL    HW1 2147   2.701   2.358   1.550 -0.5863 -0.7620  1.1287
  716SOL    HW2 2148   2.743   2.468   1.433  0.5501  2.0289 -1.1958
  717SOL     OW 2149   2.570   1.058   0.821  0.3192  0.1689  0.1592
  717SOL    HW1 2150   2.479   1.013   0.829 -0.4833  0.3276 -0.7508
  717SOL    HW2 2151   2.626   1.029   0.738  0.7974 -0.5190 -0.2250
  718SOL     OW 2152   1.335   1.750   1.549 -0.6570  0.0018 -0.0582
  718SOL    HW1 2153   1.379   1.655   1.559  1.6068 -2.1164  1.6092
  718SOL    HW2 2154   1.272   1.772   1.627  0.3875  1.1588  0.8347
  719SOL     OW 2155   2.587   0.404   2.869  0.1232 -0.1362  0.4769
  719SOL    HW1 2156   2.549   0.495   2.849 -1.4083 -0.4553 -1.0565
  719SOL    HW2 2157   2.683   0.410   2.894 -0.1077 -1.0288  0.3067
  720SOL     OW 2158   0.713   0.292   0.874 -0.1773 -0.2146 -0.3465
  720SOL    HW1 2159   0.612   0.310   0.882 -0.2677  1.2038  0.7359
  720SOL    HW2 2160   0.749   0.264   0.782 -0.9262  0.5566  1.5897
  721SOL     OW 2161   2.588   0.802   0.579  0.2076 -0.0667  0.3465
  721SOL    HW1 2162   2.602   0.768   0.485  1.6378  1.5681  0.0492
  721SOL    HW2 2163   2.666   0.866   0.601  2.0530 -0.1735  1.4045
  722SOL     OW 2164   0.483   2.627   2.401 -0.4346 -0.0356  0.1366
  722SOL    HW1 2165   0.504   2.527   2.375 -1.6436  0.2656  0.5869
  722SOL    HW2 2166   0.443   2.667   2.314  0.0349 -1.5242 -1.4903
  723SOL     OW 2167   1.436   0.150   0.636  0.3184 -0.0078  0.1374
  723SOL    HW1 2168   1.509   0.112   0.575  1.1617 -0.8111 -0.9622
  723SOL    HW2 2169   1.453   0.250   0.647 -0.1509 -2.2204  0.3800
  724SOL     OW 2170   1.043   1.689   2.198 -0.1354  0.0455 -0.5054
  724SOL    HW1 2171   1.047   1.757   2.272  3.8299 -1.4651 -0.3692
  724SOL    HW2 2172   0.965   1.711   2.135  1.3734 -0.1417 -2.4483
  725SOL     OW 2173   1.593   0.182   1.419  0.0819 -0.4639  0.2352
  725SOL    HW1 2174   1.598   0.211   1.516  0.8957  0.2626 -1.7019
  725SOL    HW2 2175   1.552   0.091   1.411 -1.0817 -0.0793  2.4740
  726SOL     OW 2176   2.246   2.797   0.424  0.1025 -0.3644 -0.0860
  726SOL    HW1 2177   2.224   2.871   0.356  1.5563  2.3981  0.1282
  726SOL    HW2 2178   2.335   2.752   0.406  1.0279  0.6313 -1.0312
  727SOL     OW 2179   1.263   1.928   0.713  0.3305  0.1771  0.4839
  727SOL    HW1 2180   1.358   1.964   0.709  0.6708  3.0644  0.2772
  727SOL    HW2 2181   1.259   1.830   0.690  1.2188  2.8756  1.3683
  728SOL     OW 2182   2.446   2.676   2.301 -0.6508  0.7250 -0.2432
  728SOL    HW1 2183   2.437   2.688   2.199 -1.0493 -1.9871  0.6915
  728SOL    HW2 2184   2.397   2.747   2.352  4.4030 -0.1263 -0.5102
  729SOL     OW 2185   1.943   2.234   1.453  0.3099 -0.2241 -0.3433
  729SOL    HW1 2186   1.913   2.305   1.384  0.8056  3.7527  1.8362
  729SOL    HW2 2187   1.860   2.199   1.503 -0.2111 -2.0734 -1.8951
  730SOL     OW 2188   1.646   0.857   2.813  1.1167  0.1583 -0.2030
  730SOL    HW1 2189   1.682   0.759   2.827  0.2694 -2.3457 -0.8506
  730SOL    HW2 2190   1.544   0.844   2.824 -1.0269 -6.1490  2.2606
  731SOL     OW 2191   0.760   3.017   1.424  0.0167  0.3403 -0.4509
  731SOL    HW1 2192   0.821   3.063   1.356  0.9887  2.7760 -0.6600
  731SOL    HW2 2193   0.760   2.915   1.414 -0.0157  0.8973  0.1969
  732SOL     OW 2194   1.347   0.222   1.008 -0.2277 -0.1895 -0.3945
  732SOL    HW1 2195   1.289   0.196   0.925  0.8212  0.8806 -0.2243
  732SOL    HW2 2196   1.443   0.198   0.991 -2.2781  0.3741  2.2276
  733SOL     OW 2197   0.840   1.196   0.908  0.3563 -0.3282  1.0235
  733SOL    HW1 2198   0.879   1.121   0.964  0.1648 -1.3178 -1.8310
  733SOL    HW2 2199   0.791   1.266   0.966  0.1458  3.1133  0.8325
  734SOL     OW 2200   2.867   2.393   2.780 -0.1297  0.1957 -0.5682
  734SOL    HW1 2201   2.790   2.408   2.719  0.3517  1.2331 -1.4486
  734SOL    HW2 2202   2.860   2.453   2.867  2.7804 -0.4627 -1.8169
  735SOL     OW 2203   1.093   2.824   1.533 -0.0124  0.1895  0.4082
  735SOL    HW1 2204   1.148   2.807   1.446  0.1815  1.4861 -0.5898
  735SOL    HW2 2205   1.159   2.841   1.609 -2.9021  0.1565  1.2565
  736SOL     OW 2206   1.651   1.798   2.958  0.0789 -0.5074 -0.2253
  736SOL    HW1 2207   1.626   1.803   2.863  0.7664  0.3650  1.0781
  736SOL    HW2 2208   1.643   1.893   2.998  1.4844  0.0989  1.8053
  737SOL     OW 2209   0.193   2.157   1.361 -0.6651  0.0485 -0.5556
  737SOL    HW1 2210   0.240   2.133   1.275  3.0453 -1.4374  1.0033
  737SOL    HW2 2211   0.099   2.187   1.344  0.9806  0.0715  0.3488
  738SOL     OW 2212   1.872   2.501   2.736 -0.1264 -0.9645  0.5488
  738SOL    HW1 2213   1.804   2.572   2.699  0.1992  1.5646 -0.8571
  738SOL    HW2 2214   1.924   2.542   2.813 -0.5534  1.5965 -0.5071
  739SOL     OW 2215   1.266   2.274   2.605 -0.7962 -0.2556 -0.1151
  739SOL    HW1 2216   1.308   2.341   2.545 -0.8629 -1.1826 -0.8607
  739SOL    HW2 2217   1.310   2.187   2.593 -0.9707  2.8877  0.7912
  740SOL     OW 2218   1.141   2.527   1.002 -0.0076 -0.9555  0.0923
  740SOL    HW1 2219   1.116   2.545   0.905 -0.2517 -1.4717  2.2931
  740SOL    HW2 2220   1.073   2.575   1.064 -1.3058  1.0781  0.1913
  741SOL     OW 2221   2.962   1.143   0.343  0.0120 -0.0640 -0.7179
  741SOL    HW1 2222   2.871   1.152   0.383 -1.3140 -0.4775 -3.0122
  741SOL    HW2 2223   2.992   1.223   0.283  0.5101 -0.4943  2.4041
  742SOL     OW 2224   0.837   1.602   2.525  0.2117  0.4171  0.5857
  742SOL    HW1 2225   0.932   1.568   2.509  1.2621 -1.0713  0.0728
  742SOL    HW2 2226   0.827   1.703   2.545 -1.0637 -2.3964 -0.2052
  743SOL     OW 2227   1.018   0.893   2.386 -0.0381 -0.2499  0.1187
  743SOL    HW1 2228   0.979   0.805   2.418 -2.3446  0.3355 -0.2485
  743SOL    HW2 2229   1.045   0.880   2.287  1.0095  0.3213  1.7277
  744SOL     OW 2230   2.217   2.897   1.422 -0.3660  0.5718 -0.1012
  744SOL    HW1 2231   2.257   2.970   1.479 -2.3184  0.6542 -1.7889
  744SOL    HW2 2232   2.197   2.921   1.324 -0.4700  0.4550 -1.3460
  745SOL     OW 2233   1.820   1.368   1.229 -0.0235  0.1308 -0.0987
  745SOL    HW1 2234   1.737   1.406   1.276 -2.2464 -0.8852 -0.6576
  745SOL    HW2 2235   1.879   1.324   1.302 -0.2391  1.1034  1.0420
  746SOL     OW 2236   1.746   0.694   0.719 -0.3295 -0.0693  0.3927
  746SOL    HW1 2237   1.824   0.746   0.765  0.5587 -0.5382  1.8309
  746SOL    HW2 2238   1.655   0.682   0.764 -2.2341 -1.7914 -0.2722
  747SOL     OW 2239   2.061   1.549   0.755 -0.4641 -0.1800 -0.7409
  747SOL    HW1 2240   2.000   1.494   0.818 -1.1994 -1.0688  1.5953
  747SOL    HW2 2241   2.022   1.644   0.746  2.1473 -0.4733  1.8029
  748SOL     OW 2242   0.186   1.468   0.162 -0.2275 -0.2540 -0.8600
  748SOL    HW1 2243   0.201   1.541   0.093 -0.5389  0.0183 -0.5624
  748SOL    HW2 2244   0.276   1.433   0.200  2.3339 -0.6129  0.4798
  749SOL     OW 2245   3.067   2.365   2.611  0.3173 -0.4137 -0.0133
  749SOL    HW1 2246   3.050   2.283   2.550 -0.0789 -2.1127  0.5950
  749SOL    HW2 2247   2.989   2.374   2.680 -1.1980 -0.7127 -1.8062
  750SOL     OW 2248   2.315   0.692   1.017 -0.0142  0.4670  0.3199
  750SOL    HW1 2249   2.360   0.597   1.007  2.2162 -0.2973 -1.8148
  750SOL    HW2 2250   2.228   0.693   1.061  4.1521  0.4548  0.5515
  751SOL     OW 2251   2.814   3.030   0.331 -0.1271 -0.4513 -0.2825
  751SOL    HW1 2252   2.762   0.017   0.273 -2.2431  1.5253  0.1581
  751SOL    HW2 2253   2.807   2.935   0.295 -0.3055  1.6649  2.0001
  752SOL     OW 2254   2.401   2.566   0.752  0.2054  0.0379  0.6074
  752SOL    HW1 2255   2.325   2.632   0.730 -0.4587  0.7616  1.1883
  752SOL    HW2 2256   2.363   2.504   0.824  0.8177 -1.3749  2.1642
  753SOL     OW 2257   1.939   1.423   2.175  0.2375 -0.3672 -0.4539
  753SOL    HW1 2258   1.969   1.400   2.269 -0.9554 -2.0595 -0.5104
  753SOL    HW2 2259   1.988   1.511   2.154  2.1127  0.9916 -0.1904
  754SOL     OW 2260   2.232   2.276   1.503  0.3862 -0.0561 -0.3024
  754SOL    HW1 2261   2.267   2.181   1.475 -0.2734 -0.6272  1.4093
  754SOL    HW2 2262   2.128   2.284   1.502  0.1452  2.1559 -0.9293
  755SOL     OW 2263   2.611   0.858   1.187 -0.0541 -0.6272 -0.6082
  755SOL    HW1 2264   2.658   0.936   1.148 -2.1797  0.3907  0.0959
  755SOL    HW2 2265   2.517   0.885   1.218  0.9384 -1.0382 -0.9318
  756SOL     OW 2266   1.015   1.475   2.952  0.0890 -0.0195 -0.0740
  756SOL    HW1 2267   1.045   1.383   2.931  0.6451  0.9727  2.2335
  756SOL    HW2 2268   0.916   1.491   2.928 -1.6248 -0.2330 -1.5216
  757SOL     OW 2269   1.780   2.715   1.105 -0.1255 -0.4877 -0.2851
  757SOL    HW1 2270   1.821   2.761   1.024 -0.0428  1.4239 -1.6741
  757SOL    HW2 2271   1.846   2.726   1.187  1.0719  0.3884  5.0229
  758SOL     OW 2272   0.970   2.352   1.250  0.1424  0.0659  0.6722
  758SOL    HW1 2273   1.034   2.410   1.308  1.2197  0.3292 -0.3514
  758SOL    HW2 2274   1.025   2.288   1.194  0.3692 -1.0375  0.7317
  759SOL     OW 2275   2.236   1.136   0.999 -0.1489 -0.2689 -0.0908
  759SOL    HW1 2276   2.273   1.204   1.068 -0.2853 -2.7239  1.7171
  759SOL    HW2 2277   2.219   1.182   0.904 -1.2275  1.0913  0.4236
  760SOL     OW 2278   2.124   0.933   1.388 -0.1858  1.1573  0.1560
  760SOL    HW1 2279   2.041   0.871   1.393 -2.6735 -0.2484  0.7810
  760SOL    HW2 2280   2.097   1.026   1.355  1.6972  0.1770  0.5573
  761SOL     OW 2281   1.956   2.771   0.422 -0.2128 -0.4740 -0.2258
  761SOL    HW1 2282   1.925   2.728   0.334  0.4717 -0.6076  1.9628
  761SOL    HW2 2283   2.052   2.778   0.414 -0.7447  2.0083  1.2892
  762SOL     OW 2284   1.998   1.555   2.904  0.1354  0.1843  0.1823
  762SOL    HW1 2285   1.980   1.582   2.806  0.0950  0.3285 -1.6730
  762SOL    HW2 2286   1.978   1.639   2.957  0.0166 -0.9674 -0.5660
  763SOL     OW 2287   0.587   1.744   1.379 -0.2074  0.0262  0.0112
  763SOL    HW1 2288   0.489   1.732   1.353 -0.7212  0.0009 -1.2197
  763SOL    HW2 2289   0.587   1.772   1.476 -1.1625  1.2962  0.1756
  764SOL     OW 2290   3.080   2.246   2.960  0.3295  0.0408  0.1769
  764SOL    HW1 2291   2.998   2.247   3.027 -0.0239 -2.4316  0.6839
  764SOL    HW2 2292   3.065   2.308   2.883 -0.9303 -1.3366  0.7081
  765SOL     OW 2293   0.505   0.002   1.487 -0.0045 -0.0989 -0.0243
  765SOL    HW1 2294   0.601   3.057   1.480 -0.6183 -0.6215 -0.9898
  765SOL    HW2 2295   0.488   0.042   1.575  3.0616 -2.0290 -5.6564
  766SOL     OW 2296   2.754   2.106   2.073 -0.4366 -0.1758  0.4142
  766SOL    HW1 2297   2.796   2.188   2.035 -2.0541 -3.4656  0.2037
  766SOL    HW2 2298   2.671   2.084   2.020  2.0347 -1.1452  2.5056
  767SOL     OW 2299   3.008   1.118   2.130  0.1046  0.3133  0.4414
  767SOL    HW1 2300   2.945   1.039   2.110 -2.0355 -0.8274 -0.2091
  767SOL    HW2 2301   3.038   1.154   2.038 -0.0981  0.0555 -1.5707
  768SOL     OW 2302   0.740   0.241   2.786 -0.3477  0.4622  0.3258
  768SOL    HW1 2303   0.753   0.340   2.809 -1.1709  0.0218  3.4165
  768SOL    HW2 2304   0.649   0.205   2.819 -1.1995 -0.9139  1.9509
  769SOL     OW 2305   2.112   2.665   1.011 -0.5960  0.0623  0.0295
  769SOL    HW1 2306   2.204   2.684   0.963  0.4750  1.9115  0.7217
  769SOL    HW2 2307   2.064   2.755   1.019 -0.3494  0.1710 -1.9377
  770SOL     OW 2308   2.788   0.099   2.796 -0.0519 -0.6270  0.0090
  770SOL    HW1 2309   2.770   0.027   2.869  0.3105 -1.2274 -0.0920
  770SOL    HW2 2310   2.714   0.083   2.722 -3.1291  1.3231 -3.1418
  771SOL     OW 2311   1.851   2.100   1.838 -0.1782  0.0006  0.3436
  771SOL    HW1 2312   1.914   2.075   1.762 -0.3764  0.8235  2.2294
  771SOL    HW2 2313   1.769   2.037   1.836  1.3544 -3.5571 -3.1291
  772SOL     OW 2314   1.215   0.289   3.042 -0.3306 -0.1535 -0.2905
  772SOL    HW1 2315   1.195   0.384   3.010  0.9007  1.8831 -1.2864
  772SOL    HW2 2316   1.163   0.217   2.988  0.7546  1.2386  1.1738
  773SOL     OW 2317   2.928   0.943   1.841  0.0177 -0.1975  0.2223
  773SOL    HW1 2318   2.927   0.872   1.916  0.1158 -3.1583  0.5267
  773SOL    HW2 2319   3.025   0.970   1.817  0.3094  1.5385  0.0093
  774SOL     OW 2320   1.025   0.987   0.547 -0.2923  0.4122 -0.5005
  774SOL    HW1 2321   1.089   1.047   0.493 -2.8075 -1.1400  0.1158
  774SOL    HW2 2322   0.942   1.037   0.575  2.9688  1.5506 -0.3428
  775SOL     OW 2323   2.660   0.015   0.093 -0.1796  0.3445  0.1113
  775SOL    HW1 2324   2.599   0.076   0.033 -1.6980 -1.0970  1.5295
  775SOL    HW2 2325   2.723   3.045   0.029  1.3060  2.0266 -2.7258
  776SOL     OW 2326   2.336   1.289   2.031 -0.5477 -0.2891 -0.2062
  776SOL    HW1 2327   2.322   1.189   2.041  2.2183  0.3314 -0.9536
  776SOL    HW2 2328   2.433   1.312   2.016 -1.2111 -2.2774 -1.2331
  777SOL     OW 2329   0.068   1.276   2.821  0.3718 -0.3479 -0.1375
  777SOL    HW1 2330   0.046   1.277   2.722 -2.8134 -0.2894 -2.8294
  777SOL    HW2 2331   0.127   1.355   2.844  3.0938  1.7052  1.2745
  778SOL     OW 2332   0.418   0.361   0.243  0.6834 -0.1620 -0.0474
  778SOL    HW1 2333   0.467   0.308   0.169  2.2996 -1.8090  0.3761
  778SOL    HW2 2334   0.314   0.357   0.229 -3.2639 -1.0043 -1.2960
  779SOL     OW 2335   0.529   0.497   2.650 -0.6989  0.0310 -0.4088
  779SOL    HW1 2336   0.570   0.587   2.617 -1.3408  0.4212 -0.7306
  779SOL    HW2 2337   0.508   0.446   2.563 -0.4182  0.8508  2.5273
  780SOL     OW 2338   2.017   0.893   2.597  0.0146  0.5598  0.2398
  780SOL    HW1 2339   2.057   0.901   2.690 -1.0718 -0.9464 -2.0707
  780SOL    HW2 2340   1.956   0.811   2.594 -1.3168  1.7808 -3.8063
  781SOL     OW 2341   0.177   0.962   1.783  0.1486 -0.3151  0.8216
  781SOL    HW1 2342   0.134   0.923   1.699 -1.7365 -1.4089  1.1827
  781SOL    HW2 2343   0.250   1.034   1.764  2.9563  0.8765 -1.9492
  782SOL     OW 2344   0.520   1.807   2.810  0.9481  0.2848 -0.7556
  782SOL    HW1 2345   0.561   1.878   2.874 -0.1380 -1.6346  0.5548
  782SOL    HW2 2346   0.497   1.718   2.858 -1.6192 -3.2627 -0.2687
  783SOL     OW 2347   0.986   2.559   1.535  0.1097 -0.5270 -0.2213
  783SOL    HW1 2348   1.014   2.660   1.552  0.8484  3.5073  2.2465
  783SOL    HW2 2349   1.045   2.519   1.465 -1.3598  1.2612  2.1459
  784SOL     OW 2350   1.482   0.272   3.024  0.1998 -0.5795  0.0426
  784SOL    HW1 2351   1.385   0.264   3.005  0.8872 -0.3875  1.2661
  784SOL    HW2 2352   1.508   0.373   3.018  0.8185 -2.4270  3.3431
  785SOL     OW 2353   1.030   0.356   2.016  0.3710  0.1833  0.4686
  785SOL    HW1 2354   0.983   0.322   2.098  1.0419  2.1076 -1.2368
  785SOL    HW2 2355   1.131   0.347   2.031 -0.7111  0.7364 -0.6044
  786SOL     OW 2356   0.648   2.019   0.368 -0.4440  0.1995 -0.3677
  786SOL    HW1 2357   0.647   1.918   0.359  3.8748 -1.2726  1.2981
  786SOL    HW2 2358   0.570   2.056   0.420 -0.7529 -0.4426  1.4396
  787SOL     OW 2359   1.193   0.812   0.282 -0.1506 -0.1536 -0.2974
  787SOL    HW1 2360   1.202   0.772   0.372  0.2912  2.4066 -2.4153
  787SOL    HW2 2361   1.248   0.759   0.212  1.8889  0.4623 -0.4834
  788SOL     OW 2362   2.213   1.557   1.186 -0.0337 -0.0504  0.4187
  788SOL    HW1 2363   2.272   1.487   1.147 -0.2894  1.8838  2.5878
  788SOL    HW2 2364   2.256   1.583   1.275  0.2264 -0.8822 -2.2023
  789SOL     OW 2365   3.027   1.561   1.884 -0.4263  0.1913  0.5391
  789SOL    HW1 2366   3.048   1.542   1.981 -0.3839 -0.9685  0.1558
  789SOL    HW2 2367   2.959   1.498   1.853  0.9784  1.5917 -0.2116
  790SOL     OW 2368   0.684   2.955   0.136 -0.0230 -0.4053 -0.5589
  790SOL    HW1 2369   0.596   2.907   0.145  3.5682  3.4895  1.5602
  790SOL    HW2 2370   0.711   2.996   0.225 -2.0594 -0.0323  0.1978
  791SOL     OW 2371   0.164   0.353   0.189  0.0551  0.0024 -0.3483
  791SOL    HW1 2372   0.069   0.356   0.226 -0.3695  2.7366  1.3068
  791SOL    HW2 2373   0.159   0.391   0.094  1.9993 -2.0230  0.3676
  792SOL     OW 2374   1.688   0.512   2.379 -0.0902 -0.2431 -0.3237
  792SOL    HW1 2375   1.658   0.478   2.471  0.8052 -1.6061  1.7981
  792SOL    HW2 2376   1.792   0.506   2.377  1.6377 -1.4229  0.5000
  793SOL     OW 2377   3.002   0.458   0.680  0.3461 -0.2418 -0.5827
  793SOL    HW1 2378   3.041   0.536   0.635 -1.8496  0.5538  1.7512
  793SOL    HW2 2379   3.053   0.445   0.766 -1.4759 -1.6257 -0.0975
  794SOL     OW 2380   0.316   0.407   1.578 -0.5050  0.1529 -0.2324
  794SOL    HW1 2381   0.402   0.448   1.544 -0.7926 -0.6169  1.5271
  794SOL    HW2 2382   0.273   0.346   1.505  1.7685 -3.5378 -0.3794
  795SOL     OW 2383   0.234   1.145   0.162 -0.0689  0.0812 -0.4695
  795SOL    HW1 2384   0.297   1.083   0.210 -1.4821  2.2911  0.9012
  795SOL    HW2 2385   0.211   1.112   0.067 -2.3943 -1.0337 -2.7273
  796SOL     OW 2386   0.182   0.678   0.141  0.0872  0.1504 -0.1354
  796SOL    HW1 2387   0.252   0.632   0.200  3.0188  0.2243  0.6644
  796SOL    HW2 2388   0.154   0.766   0.182  2.5896  0.4110  0.6728
  797SOL     OW 2389   1.620   2.694   0.052 -0.2696 -0.7044 -0.1935
  797SOL    HW1 2390   1.640   2.770   0.110  0.7471 -1.8416  0.0903
  797SOL    HW2 2391   1.527   2.703   0.013 -2.7916  2.1693  0.3500
  798SOL     OW 2392   2.842   0.567   1.063 -0.2433  0.4745  0.2512
  798SOL    HW1 2393   2.844   0.476   1.011  0.5489 -2.3861  2.2458
  798SOL    HW2 2394   2.766   0.631   1.032 -0.1712  1.0400 -1.9671
  799SOL     OW 2395   2.412   0.681   1.923  0.2886 -0.6799  0.2743
  799SOL    HW1 2396   2.491   0.726   1.965 -0.7386  1.6463  1.3486
  799SOL    HW2 2397   2.417   0.697   1.821  0.7100 -1.0824  2.0883
  800SOL     OW 2398   0.222   1.841   0.465  0.6239  0.3657  0.1840
  800SOL    HW1 2399   0.169   1.823   0.551 -0.7318 -2.3597  3.0175
  800SOL    HW2 2400   0.273   1.929   0.467 -2.4385  0.0630  1.7271
  801SOL     OW 2401   1.557   1.949   0.693  0.0015  0.1575 -0.4214
  801SOL    HW1 2402   1.555   1.868   0.635  2.5513  1.4290 -1.9650
  801SOL    HW2 2403   1.645   2.001   0.675  0.9093  0.6330 -1.3111
  802SOL     OW 2404   1.276   1.590   2.938  0.0718  0.3860 -0.1472
  802SOL    HW1 2405   1.184   1.554   2.916  0.1978  3.0332 -0.1819
  802SOL    HW2 2406   1.328   1.607   2.853 -0.6759 -1.1622  0.5353
  803SOL     OW 2407   3.064   2.137   1.654 -0.0986  0.9967  0.8980
  803SOL    HW1 2408   3.045   2.212   1.589 -1.6528  1.1991  2.2073
  803SOL    HW2 2409   0.048   2.169   1.724  0.9183 -0.2809  2.8690
  804SOL     OW 2410   1.328   2.549   1.189  0.7525  0.4018 -0.0245
  804SOL    HW1 2411   1.422   2.551   1.154 -0.6865 -0.0089  0.3634
  804SOL    HW2 2412   1.259   2.545   1.110 -2.1715 -0.0029 -2.1147
  805SOL     OW 2413   2.282   2.012   2.601 -0.5418 -0.0376  0.0295
  805SOL    HW1 2414   2.289   2.114   2.585  3.0118  0.2894  0.2018
  805SOL    HW2 2415   2.296   2.001   2.703  0.6372  0.4366  2.6623
  806SOL     OW 2416   2.081   3.069   0.550  0.0773  0.1935  0.0446
  806SOL    HW1 2417   2.154   3.071   0.619  0.2420 -0.7310  0.3202
  806SOL    HW2 2418   2.116   0.007   0.461  1.2337 -0.1592  1.7316
  807SOL     OW 2419   2.924   0.950   2.689  0.0720  0.0911  0.3267
  807SOL    HW1 2420   2.968   0.911   2.605 -1.0651  1.1448  1.3363
  807SOL    HW2 2421   2.848   1.001   2.647  0.8842 -2.9036  2.0014
  808SOL     OW 2422   0.690   1.338   0.549  0.6502 -0.4616  0.4739
  808SOL    HW1 2423   0.608   1.296   0.501 -0.4145 -0.3123  0.6190
  808SOL    HW2 2424   0.689   1.439   0.561 -0.1218 -0.5437  0.4003
  809SOL     OW 2425   2.794   0.563   2.124 -0.6709 -0.6451  0.1763
  809SOL    HW1 2426   2.729   0.610   2.183 -0.1801 -0.0499 -0.8144
  809SOL    HW2 2427   2.744   0.530   2.040 -0.9778  0.7375 -1.8797
  810SOL     OW 2428   1.261   0.457   1.359 -0.8880  0.1908 -0.6300
  810SOL    HW1 2429   1.234   0.368   1.404  1.2192  0.2067  2.0126
  810SOL    HW2 2430   1.302   0.522   1.425  0.3470 -0.1025  2.1194
  811SOL     OW 2431   2.445   0.110   1.899 -0.2889 -0.5046  0.1120
  811SOL    HW1 2432   2.355   0.102   1.951  0.5219  2.1269 -2.3008
  811SOL    HW2 2433   2.509   0.028   1.905  1.0259 -0.4592 -2.0398
  812SOL     OW 2434   1.612   2.053   3.054 -0.1485 -0.0363 -0.3513
  812SOL    HW1 2435   1.591   2.148   3.020 -0.6529  2.0253  3.0018
  812SOL    HW2 2436   1.664   2.062   0.060  1.7585 -0.9187  1.9967
  813SOL     OW 2437   1.126   0.660   1.692 -0.5457 -0.2475  0.3239
  813SOL    HW1 2438   1.064   0.670   1.615  0.6725 -0.0028 -2.5693
  813SOL    HW2 2439   1.220   0.636   1.660  0.8054 -1.3026  0.0683
  814SOL     OW 2440   0.295   0.258   1.150 -0.0713  0.2700 -0.0220
  814SOL    HW1 2441   0.393   0.286   1.127  1.0310  0.0930  0.1938
  814SOL    HW2 2442   0.297   0.169   1.203 -1.1184 -0.9958 -2.1746
  815SOL     OW 2443   0.561   0.260   0.483 -0.5820  0.6597  0.8154
  815SOL    HW1 2444   0.536   0.319   0.403  1.8284 -1.1802 -1.9933
  815SOL    HW2 2445   0.509   0.176   0.480  5.3899  2.7207 -0.1897
  816SOL     OW 2446   2.147   1.709   2.330 -0.1972 -0.5149  0.0125
  816SOL    HW1 2447   2.195   1.630   2.291 -1.1417 -0.1380 -0.1800
  816SOL    HW2 2448   2.176   1.722   2.425  0.6303 -3.5430 -3.1115
  817SOL     OW 2449   0.969   2.837   0.694  0.5108 -0.1795 -0.0252
  817SOL    HW1 2450   1.008   2.739   0.702  2.7099 -1.4718  2.0562
  817SOL    HW2 2451   0.956   2.871   0.597 -2.0787  3.0419 -0.6140
  818SOL     OW 2452   1.762   0.602   2.859 -0.1394 -0.3027  0.0124
  818SOL    HW1 2453   1.836   0.618   2.788 -2.3708  1.0653 -0.9128
  818SOL    HW2 2454   1.804   0.579   2.951 -0.0637  2.8364  1.8546
  819SOL     OW 2455   1.965   0.090   0.158  0.1777 -0.6524 -0.3983
  819SOL    HW1 2456   1.961   0.001   0.108 -0.4531  2.9740  1.6736
  819SOL    HW2 2457   2.009   0.162   0.105 -1.9554 -0.6281 -1.0550
  820SOL     OW 2458   1.922   0.558   3.082 -0.2174  0.3201  0.1178
  820SOL    HW1 2459   1.914   0.660   3.080  0.8834 -1.4980 -0.6843
  820SOL    HW2 2460   2.020   0.527   3.083 -0.8913 -2.0581 -2.0520
  821SOL     OW 2461   2.734   0.402   0.691 -0.0235  0.5371  0.0392
  821SOL    HW1 2462   2.838   0.400   0.692  1.0066  2.2233 -2.2786
  821SOL    HW2 2463   2.699   0.378   0.598 -1.6918 -0.6157  1.7904
  822SOL     OW 2464   1.076   2.285   2.244 -0.4846 -0.2680 -0.3343
  822SOL    HW1 2465   1.044   2.322   2.334 -0.0313  3.5395  0.8146
  822SOL    HW2 2466   1.006   2.293   2.170 -0.1002  1.3938 -1.4948
  823SOL     OW 2467   0.181   1.664   1.824 -0.2483 -0.2293 -0.5799
  823SOL    HW1 2468   0.223   1.677   1.920 -0.6531 -0.9453  2.0757
  823SOL    HW2 2469   0.085   1.629   1.827  2.4236 -1.3162 -1.2454
  824SOL     OW 2470   1.461   2.831   2.395 -0.0003  0.2760  0.4043
  824SOL    HW1 2471   1.499   2.736   2.385  1.2051 -2.8246 -0.2425
  824SOL    HW2 2472   1.404   2.837   2.479 -2.6231  0.6873 -0.2604
  825SOL     OW 2473   1.605   0.780   0.498  0.0957 -0.1968  0.5807
  825SOL    HW1 2474   1.614   0.695   0.446  0.7690  2.0158 -2.0299
  825SOL    HW2 2475   1.677   0.792   0.573 -1.3226 -0.2488  2.0723
  826SOL     OW 2476   1.934   0.830   0.034  0.1308 -0.1634 -0.0645
  826SOL    HW1 2477   1.987   0.861   0.121 -0.9638  1.5902  2.4215
  826SOL    HW2 2478   1.896   0.918   0.000 -0.5679  1.5703  0.3476
  827SOL     OW 2479   0.478   1.840   2.255  0.1009 -1.1383  0.5206
  827SOL    HW1 2480   0.431   1.902   2.324  1.3129 -0.1091  3.0109
  827SOL    HW2 2481   0.529   1.769   2.308 -0.2176  0.1971  0.9385
  828SOL     OW 2482   2.473   1.265   1.509 -0.2632  0.4519  0.5936
  828SOL    HW1 2483   2.444   1.313   1.596 -0.4512 -0.7562 -1.9541
  828SOL    HW2 2484   2.479   1.164   1.526  1.0248 -0.9388  0.5191
  829SOL     OW 2485   0.355   1.628   0.532 -0.4401  0.2379  0.5580
  829SOL    HW1 2486   0.312   1.542   0.566  2.1219  0.5868 -0.6099
  829SOL    HW2 2487   0.289   1.701   0.510 -0.3256  0.0474  1.8599
  830SOL     OW 2488   1.444   0.805   0.837  0.1888 -0.2978  0.0601
  830SOL    HW1 2489   1.358   0.831   0.790  2.4644 -0.4610 -1.1907
  830SOL    HW2 2490   1.436   0.709   0.872  0.7425  0.3053  0.5477
  831SOL     OW 2491   2.906   1.727   0.080  0.5729  0.0535  0.3467
  831SOL    HW1 2492   2.907   1.805   0.139 -1.0182  0.5198 -1.2953
  831SOL    HW2 2493   2.818   1.679   0.086 -2.8197 -1.0367  0.1473
  832SOL     OW 2494   0.827   0.326   0.014 -0.1802  0.2705  0.7936
  832SOL    HW1 2495   0.820   0.426   0.019 -0.3495  1.0166 -0.7417
  832SOL    HW2 2496   0.874   0.295   0.100 -0.0779  2.2238 -1.6325
  833SOL     OW 2497   0.550   0.734   2.245  0.2461  0.2995 -0.2070
  833SOL    HW1 2498   0.631   0.760   2.185  3.1611  0.7645 -1.1610
  833SOL    HW2 2499   0.469   0.699   2.192 -4.1021  2.3570 -0.9452
  834SOL     OW 2500   0.221   0.545   0.737 -0.6352 -0.0113 -0.2073
  834SOL    HW1 2501   0.183   0.472   0.804  1.1480 -0.5102  2.0920
  834SOL    HW2 2502   0.232   0.506   0.644  0.9170  0.8211  1.0075
  835SOL     OW 2503   2.680   2.953   1.178 -0.5539 -0.0663 -0.5085
  835SOL    HW1 2504   2.660   3.009   1.264  2.0846  0.4597  0.8262
  835SOL    HW2 2505   2.689   3.022   1.103 -0.3825 -0.7778 -1.0528
  836SOL     OW 2506   0.369   1.957   0.168 -0.3701  0.0999 -0.0483
  836SOL    HW1 2507   0.296   2.009   0.127  0.6937 -1.0226  0.8418
  836SOL    HW2 2508   0.393   1.992   0.262  0.7178  0.1195 -1.1999
  837SOL     OW 2509   1.692   1.500   2.279  0.3110 -0.0611  1.0075
  837SOL    HW1 2510   1.656   1.584   2.226 -1.9618  1.1229 -3.1188
  837SOL    HW2 2511   1.784   1.475   2.242  0.9120  2.5049 -1.1145
  838SOL     OW 2512   0.503   1.019   1.611  0.0940  0.0847 -0.6088
  838SOL    HW1 2513   0.579   1.065   1.560 -0.8300  0.0965 -1.9574
  838SOL    HW2 2514   0.442   1.086   1.658 -1.5672  2.4702  0.5746
  839SOL     OW 2515   0.499   1.369   0.926  0.4078 -0.9590 -0.0477
  839SOL    HW1 2516   0.561   1.351   1.003  2.5554  0.5776  2.6559
  839SOL    HW2 2517   0.490   1.286   0.867 -0.0731  0.6974 -0.4383
  840SOL     OW 2518   2.202   0.082   2.032 -0.1477 -0.1849  0.4799
  840SOL    HW1 2519   2.147   0.056   1.950 -0.4532 -2.5609  1.8382
  840SOL    HW2 2520   2.166   0.166   2.077  1.9730  0.6245  0.5037
  841SOL     OW 2521   0.485   2.294   0.366 -0.2696  0.5497 -0.6143
  841SOL    HW1 2522   0.586   2.307   0.378  1.4897 -0.9477  2.7684
  841SOL    HW2 2523   0.454   2.347   0.284 -3.2649 -2.2429  0.5980
  842SOL     OW 2524   0.309   0.089   0.884 -0.2425 -0.0086 -0.2127
  842SOL    HW1 2525   0.302   0.155   0.959 -1.6045  1.1209 -3.4807
  842SOL    HW2 2526   0.403   0.060   0.865 -3.5904 -1.0335  1.6558
  843SOL     OW 2527   0.405   1.375   2.739 -0.1778 -0.1423 -0.2504
  843SOL    HW1 2528   0.332   1.414   2.680 -1.8706 -0.2830 -0.3451
  843SOL    HW2 2529   0.499   1.402   2.712  0.3167 -1.3679  0.3008
  844SOL     OW 2530   1.243   2.376   3.046  0.6265 -0.1769  0.5856
  844SOL    HW1 2531   1.170   2.343   2.977 -0.2984 -0.8706  0.6724
  844SOL    HW2 2532   1.207   2.457   0.014  1.3987  0.5491 -0.2578
  845SOL     OW 2533   2.577   2.871   2.564  0.2336  0.4605  0.2173
  845SOL    HW1 2534   2.648   2.830   2.502  1.5933 -0.7191 -3.1986
  845SOL    HW2 2535   2.488   2.879   2.514 -0.9003  1.0946 -1.2357
  846SOL     OW 2536   2.071   1.906   3.002  0.3145 -0.0486  0.1196
  846SOL    HW1 2537   2.022   1.965   2.934 -0.7018 -0.2554  0.5005
  846SOL    HW2 2538   1.997   1.846   3.037 -1.7762 -0.8336 -1.6680
  847SOL     OW 2539   2.481   0.179   3.045 -0.5119 -0.3956  0.0394
  847SOL    HW1 2540   2.392   0.140   3.016 -3.1394 -0.3727  0.2257
  847SOL    HW2 2541   2.503   0.262   2.990  1.1692 -1.1044 -0.5118
  848SOL     OW 2542   0.367   0.761   0.789  0.1390 -0.3533 -0.0470
  848SOL    HW1 2543   0.372   0.820   0.875 -0.7394  0.8647 -0.8178
  848SOL    HW2 2544   0.313   0.675   0.802 -1.1884 -0.2742  3.8002
  849SOL     OW 2545   1.325   2.912   1.723  0.5986 -0.5179 -0.0742
  849SOL    HW1 2546   1.330   2.879   1.820  0.5594  1.2674 -1.5454
  849SOL    HW2 2547   1.386   2.858   1.659 -0.7054  1.7551 -0.3332
  850SOL     OW 2548   0.579   1.735   0.412 -0.1224  0.0995  0.5952
  850SOL    HW1 2549   0.489   1.699   0.442 -0.0643 -2.1002  1.7926
  850SOL    HW2 2550   0.615   1.679   0.336 -0.3304 -0.1482  2.9263
  851SOL     OW 2551   0.192   1.414   0.618 -0.1389 -0.3032 -0.1138
  851SOL    HW1 2552   0.105   1.395   0.677 -2.8834 -0.3011 -0.0455
  851SOL    HW2 2553   0.232   1.332   0.571  0.9819 -1.5980 -2.1201
  852SOL     OW 2554   1.792   2.701   1.604 -0.2718 -0.1947  0.4269
  852SOL    HW1 2555   1.702   2.651   1.603 -0.4780  1.6152 -1.0604
  852SOL    HW2 2556   1.779   2.800   1.586  1.7060  1.2955  1.3861
  853SOL     OW 2557   3.040   1.306   0.103 -0.0160 -0.1877 -0.3848
  853SOL    HW1 2558   3.059   1.231   0.037 -0.8564 -1.8512 -0.4138
  853SOL    HW2 2559   0.037   1.367   0.120 -0.5086 -1.8042 -0.2093
  854SOL     OW 2560   1.640   1.202   2.020 -0.2924  0.9425 -0.0977
  854SOL    HW1 2561   1.616   1.228   2.118 -1.1461  2.4191  4.4018
  854SOL    HW2 2562   1.584   1.116   1.996 -1.2238 -1.3007  0.6834
  855SOL     OW 2563   0.298   2.331   2.972  0.1382 -0.3944 -0.1000
  855SOL    HW1 2564   0.227   2.274   3.014 -1.5111  0.4907  0.0149
  855SOL    HW2 2565   0.254   2.399   2.912  0.2988  0.6632  1.1519
  856SOL     OW 2566   0.454   0.754   1.625  0.0393 -0.1007 -0.1172
  856SOL    HW1 2567   0.466   0.742   1.723  1.0118  1.0083 -2.7618
  856SOL    HW2 2568   0.476   0.851   1.601  1.2510 -1.1073  1.8438
  857SOL     OW 2569   1.032   1.173   2.062  0.4001  0.2973  0.0529
  857SOL    HW1 2570   1.033   1.150   2.162  1.7360 -2.9959  0.5436
  857SOL    HW2 2571   1.011   1.271   2.050 -0.5059 -0.4100  1.5151
  858SOL     OW 2572   0.231   1.567   2.640  0.2350 -0.7000  0.0399
  858SOL    HW1 2573   0.209   1.581   2.739 -0.9448  1.9120  0.4507
  858SOL    HW2 2574   0.170   1.625   2.583  0.3619  1.2252 -1.2084
  859SOL     OW 2575   2.681   0.025   0.951 -0.4457 -0.2681  0.3365
  859SOL    HW1 2576   2.633   0.102   0.895 -0.0339  3.8737 -2.6508
  859SOL    HW2 2577   2.777   0.024   0.916  2.4209  1.6889  0.9170
  860SOL     OW 2578   2.152   2.920   0.129  0.3836  0.2684  0.3004
  860SOL    HW1 2579   2.176   2.993   0.197  1.0205  0.2184  1.1173
  860SOL    HW2 2580   2.238   2.883   0.095 -1.1884  3.4498 -0.2490
  861SOL     OW 2581   0.644   0.452   0.656 -0.2009  0.5624  0.2614
  861SOL    HW1 2582   0.586   0.380   0.615 -0.8509  0.1890  1.0743
  861SOL    HW2 2583   0.602   0.542   0.636 -2.0365  1.4331  0.4593
  862SOL     OW 2584   1.551   0.400   2.151 -0.1233 -0.3721 -0.1639
  862SOL    HW1 2585   1.583   0.451   2.066  2.5077 -0.8548 -1.0010
  862SOL    HW2 2586   1.601   0.440   2.232 -0.0703 -2.1530 -1.5097
  863SOL     OW 2587   2.542   2.282   0.932 -0.3853 -0.2930 -0.0576
  863SOL    HW1 2588   2.463   2.300   0.995  1.1093 -0.0091 -1.3166
  863SOL    HW2 2589   2.520   2.203   0.870  0.1342 -1.1840 -1.8678
  864SOL     OW 2590   2.561   2.993   2.248  0.5934 -0.5966  0.1006
  864SOL    HW1 2591   2.539   2.935   2.330 -2.8869 -0.0162 -0.6379
  864SOL    HW2 2592   2.663   3.011   2.242 -0.0435  1.5806  0.2660
  865SOL     OW 2593   0.939   0.592   1.884 -0.3743  0.7251 -0.4368
  865SOL    HW1 2594   0.979   0.507   1.930  0.2397 -1.7984  0.3258
  865SOL    HW2 2595   1.010   0.639   1.824 -1.1080  2.9342  0.4313
  866SOL     OW 2596   1.964   2.889   0.992  0.2773  0.6319  0.1311
  866SOL    HW1 2597   1.987   2.957   1.064 -0.9322 -0.4177  0.1694
  866SOL    HW2 2598   1.968   2.935   0.900 -0.9298  2.7914  0.3356
  867SOL     OW 2599   2.861   2.377   0.669  0.2551  0.0720 -0.3713
  867SOL    HW1 2600   2.945   2.430   0.660 -1.5510 -0.8925 -2.9797
  867SOL    HW2 2601   2.778   2.435   0.703 -1.6404  3.0709  3.1885
  868SOL     OW 2602   0.683   2.118   1.650 -0.6599  0.0599  0.0167
  868SOL    HW1 2603   0.744   2.198   1.641  0.2125  0.3182  0.5357
  868SOL    HW2 2604   0.657   2.091   1.556 -2.5767  1.2103  0.4377
  869SOL     OW 2605   2.288   2.346   2.867  0.2049 -0.5888  0.1663
  869SOL    HW1 2606   2.372   2.301   2.893 -0.8186  0.0277 -1.3396
  869SOL    HW2 2607   2.299   2.440   2.902  0.9486 -0.6909  2.8452
  870SOL     OW 2608   1.906   1.795   0.941 -0.3277 -0.3779  0.3830
  870SOL    HW1 2609   1.897   1.790   0.842 -0.0070 -1.2204  0.6346
  870SOL    HW2 2610   1.927   1.705   0.983 -0.2886 -1.1523 -0.0272
  871SOL     OW 2611   0.338   1.844   1.723 -0.2126 -0.0566  0.7665
  871SOL    HW1 2612   0.285   1.763   1.762 -0.9122 -1.7173 -3.3777
  871SOL    HW2 2613   0.363   1.906   1.798 -0.0806 -0.0391  0.5407
  872SOL     OW 2614   0.369   1.524   2.396 -0.2567 -0.1475  0.4402
  872SOL    HW1 2615   0.455   1.580   2.403  0.2509  1.1759 -2.2775
  872SOL    HW2 2616   0.313   1.531   2.477  1.2121 -3.0821 -1.1702
  873SOL     OW 2617   1.242   2.122   1.923  0.0560  0.3867  0.0629
  873SOL    HW1 2618   1.259   2.041   1.981 -0.4738  0.8713 -1.9021
  873SOL    HW2 2619   1.164   2.107   1.857  0.6595 -0.1270 -1.8365
  874SOL     OW 2620   1.468   0.977   1.926 -0.6876 -0.4205 -0.1252
  874SOL    HW1 2621   1.385   1.033   1.921  0.9266 -1.1781  1.2831
  874SOL    HW2 2622   1.444   0.880   1.952 -1.1227  0.9025 -1.8258
  875SOL     OW 2623   2.850   2.645   0.767 -0.2321  0.7211 -0.4267
  875SOL    HW1 2624   2.946   2.621   0.761 -1.0356 -1.1631 -0.3634
  875SOL    HW2 2625   2.806   2.583   0.837 -2.0084 -2.5320  2.3740
  876SOL     OW 2626   1.172   1.202   0.430 -0.0573 -0.2700 -0.6212
  876SOL    HW1 2627   1.240   1.233   0.361 -1.9214  2.5120 -0.4761
  876SOL    HW2 2628   1.078   1.229   0.402  0.0513 -0.6364  1.5775
  877SOL     OW 2629   2.837   0.310   0.967 -0.7460  0.3115  0.2901
  877SOL    HW1 2630   2.874   0.214   0.945 -1.3049 -0.7253  1.3610
  877SOL    HW2 2631   2.789   0.346   0.886 -2.3238 -0.6722  2.6375
  878SOL     OW 2632   2.267   1.543   0.427 -0.1419 -0.7035  0.6980
  878SOL    HW1 2633   2.179   1.491   0.442 -2.7734 -2.3704 -1.6172
  878SOL    HW2 2634   2.246   1.624   0.365  0.0758 -0.6051 -1.4056
  879SOL     OW 2635   2.519   1.763   1.004  0.2509  0.3816 -0.3714
  879SOL    HW1 2636   2.499   1.718   0.917  0.7793  0.3791  0.1175
  879SOL    HW2 2637   2.619   1.773   1.010  0.2027 -0.1042 -1.0764
  880SOL     OW 2638   0.341   2.507   0.867  0.2831 -0.1315 -0.0040
  880SOL    HW1 2639   0.243   2.527   0.894 -0.5232 -1.8693 -1.3583
  880SOL    HW2 2640   0.341   2.468   0.772 -0.3412  0.4459  0.4080
  881SOL     OW 2641   1.192   0.873   0.709  0.2518  0.1846  0.2770
  881SOL    HW1 2642   1.120   0.903   0.638 -0.1330  0.6654 -2.2158
  881SOL    HW2 2643   1.150   0.814   0.775  1.4247 -0.3673 -0.7090
  882SOL     OW 2644   2.476   1.048   3.017  0.1759 -0.1460 -0.5284
  882SOL    HW1 2645   2.406   1.120   3.037  0.1081 -0.8265 -1.7178
  882SOL    HW2 2646   2.480   1.016   2.918 -0.0643  0.7203 -0.7543
  883SOL     OW 2647   1.270   0.100   1.693 -0.0077  0.2626  0.3992
  883SOL    HW1 2648   1.188   0.102   1.755 -3.2930 -2.3069  0.9924
  883SOL    HW2 2649   1.305   0.005   1.701  0.0920 -0.9702  1.8820
  884SOL     OW 2650   2.920   0.045   0.869  0.4824  0.3701 -0.0294
  884SOL    HW1 2651   2.974   3.054   0.903  0.6153  1.8368 -2.0468
  884SOL    HW2 2652   2.919   0.037   0.768  2.6171  0.6752  1.5154
  885SOL     OW 2653   1.271   0.925   1.240  0.1484 -0.0242 -0.3337
  885SOL    HW1 2654   1.310   0.931   1.334 -1.4318 -1.3259 -0.6129
  885SOL    HW2 2655   1.341   0.945   1.168  2.7077  1.5386 -2.0754
  886SOL     OW 2656   1.692   1.056   2.650 -0.3977 -0.1498 -0.2390
  886SOL    HW1 2657   1.763   1.037   2.580 -0.0895  0.3063  2.2387
  886SOL    HW2 2658   1.670   0.981   2.716  1.8676  0.8909 -0.7922
  887SOL     OW 2659   1.806   0.743   1.134  0.2955  0.2959 -0.1019
  887SOL    HW1 2660   1.745   0.715   1.054  1.4759 -2.2305  0.4459
  887SOL    HW2 2661   1.772   0.833   1.167 -0.0319 -0.3630 -0.4854
  888SOL     OW 2662   2.106   1.635   1.812  0.2504 -0.1561 -1.2401
  888SOL    HW1 2663   2.118   1.539   1.840  0.8588  1.0905  1.4174
  888SOL    HW2 2664   2.195   1.673   1.831  0.5747 -2.5147 -2.1295
  889SOL     OW 2665   2.087   2.162   0.633  0.0824  0.3127 -0.1097
  889SOL    HW1 2666   2.170   2.214   0.669  0.6056  0.3117 -0.1995
  889SOL    HW2 2667   2.057   2.094   0.710  0.2726  1.6207  1.4623
  890SOL     OW 2668   0.974   1.936   0.708  0.3541  0.1814  0.3076
  890SOL    HW1 2669   1.071   1.905   0.694  1.6118  1.2042 -0.9893
  890SOL    HW2 2670   0.909   1.869   0.749 -0.7168  1.7132 -0.0210
  891SOL     OW 2671   2.558   0.578   2.442 -0.0516 -0.3134  0.1003
  891SOL    HW1 2672   2.652   0.564   2.479 -0.6029  2.6081  2.1517
  891SOL    HW2 2673   2.531   0.489   2.401  0.2848  0.6814 -1.1682
  892SOL     OW 2674   1.139   0.598   2.135  0.4737  0.5524 -0.3736
  892SOL    HW1 2675   1.160   0.620   2.235  1.2020  0.7067  2.7426
  892SOL    HW2 2676   1.086   0.507   2.119 -0.9243 -2.2023 -0.9669
  893SOL     OW 2677   1.534   0.389   1.265 -0.1945 -0.1824  0.0472
  893SOL    HW1 2678   1.553   0.295   1.303  1.3710  1.0832  3.1927
  893SOL    HW2 2679   1.435   0.404   1.263  1.6347 -0.2962  0.0349
  894SOL     OW 2680   2.625   0.336   0.456 -0.3284  0.0354  0.3570
  894SOL    HW1 2681   2.535   0.304   0.485 -1.2320  0.6612  0.1058
  894SOL    HW2 2682   2.624   0.331   0.353  0.8181 -0.4816 -0.7267
  895SOL     OW 2683   2.012   2.648   2.925  0.4462 -0.0746 -0.1492
  895SOL    HW1 2684   1.963   2.728   2.964  1.6732  0.7325 -1.9390
  895SOL    HW2 2685   2.090   2.613   2.986  1.4924 -3.7559  3.2083
  896SOL     OW 2686   1.749   2.965   1.565 -0.0285 -0.1908  0.1494
  896SOL    HW1 2687   1.832   3.023   1.547  0.1747  0.6244  1.6594
  896SOL    HW2 2688   1.682   2.970   1.491  1.3699 -0.0713  1.1222
  897SOL     OW 2689   0.184   2.188   1.844 -0.2461  0.3815 -0.0550
  897SOL    HW1 2690   0.268   2.244   1.848  0.0434  0.8998 -0.4380
  897SOL    HW2 2691   0.193   2.095   1.883  2.0239  2.6253  0.4961
  898SOL     OW 2692   2.347   1.728   1.854  0.0711  0.3867 -0.1927
  898SOL    HW1 2693   2.431   1.678   1.829 -1.7727  0.6721 -0.3612
  898SOL    HW2 2694   2.348   1.821   1.807 -1.8924  1.6802 -0.2409
  899SOL     OW 2695   1.797   2.053   0.634  0.3048 -0.2336  0.2591
  899SOL    HW1 2696   1.812   2.116   0.711  0.4050  2.7350  1.9834
  899SOL    HW2 2697   1.802   2.097   0.545 -1.3840 -0.9836  0.9586
  900SOL     OW 2698   1.003   0.167   2.848 -0.0376  0.5862 -0.0917
  900SOL    HW1 2699   0.999   0.089   2.784  0.2340 -1.6264 -0.9359
  900SOL    HW2 2700   0.908   0.197   2.858 -0.9044 -0.0449  1.0695
  901SOL     OW 2701   1.076   1.529   2.420  0.3558  0.2876  0.2913
  901SOL    HW1 2702   1.176   1.515   2.429  0.1128  1.1858  0.2134
  901SOL    HW2 2703   1.073   1.573   2.329  2.1978 -0.4656 -0.9824
  902SOL     OW 2704   2.817   0.611   2.829 -0.2994  0.3057  0.1503
  902SOL    HW1 2705   2.908   0.647   2.815 -2.8472 -2.1582  2.0514
  902SOL    HW2 2706   2.812   0.608   2.930 -2.1710  0.1139 -2.9436
  903SOL     OW 2707   2.195   0.591   2.325 -0.0381 -0.1229 -0.4822
  903SOL    HW1 2708   2.205   0.695   2.330  0.0216 -0.2859  1.7934
  903SOL    HW2 2709   2.226   0.559   2.233  2.1797 -4.6724  3.2366
  904SOL     OW 2710   1.605   0.755   2.233  0.4634  0.0309  0.3582
  904SOL    HW1 2711   1.659   0.691   2.293  1.7305 -3.2181  0.8024
  904SOL    HW2 2712   1.620   0.849   2.267 -2.4983 -0.9841  1.9007
  905SOL     OW 2713   2.213   2.679   1.614 -0.1505 -0.0209  0.2488
  905SOL    HW1 2714   2.197   2.736   1.532  3.3154 -1.5184  1.5450
  905SOL    HW2 2715   2.134   2.662   1.669 -0.3725 -0.8177  0.4369
  906SOL     OW 2716   1.610   1.934   0.291 -0.0027  0.1227  0.1849
  906SOL    HW1 2717   1.707   1.949   0.268 -0.9103 -0.0800  2.0117
  906SOL    HW2 2718   1.598   1.863   0.366  0.1383 -0.4312 -0.9080
  907SOL     OW 2719   1.192   2.925   0.878 -0.1189 -0.4139  0.2497
  907SOL    HW1 2720   1.285   2.956   0.839 -0.0290  1.8600 -0.1576
  907SOL    HW2 2721   1.136   2.883   0.805 -0.5241  1.3841  1.6500
  908SOL     OW 2722   1.736   2.219   2.430 -0.2050  0.0172 -0.0015
  908SOL    HW1 2723   1.823   2.272   2.450  3.4291  1.8048  1.5740
  908SOL    HW2 2724   1.727   2.221   2.328 -1.7353 -2.3927 -0.2286
  909SOL     OW 2725   2.147   0.333   2.179  0.1535 -0.1085 -0.0392
  909SOL    HW1 2726   2.060   0.393   2.155 -2.6139 -0.2016 -3.1225
  909SOL    HW2 2727   2.237   0.386   2.173 -1.5775 -0.4162 -0.4192
  910SOL     OW 2728   1.180   0.527   2.752 -0.8960  0.8262 -0.1694
  910SOL    HW1 2729   1.169   0.614   2.801 -1.5003 -1.0466 -0.9851
  910SOL    HW2 2730   1.090   0.483   2.740 -1.7636  1.7635 -0.1611
  911SOL     OW 2731   0.051   0.916   0.211  0.0494 -0.1655 -0.2639
  911SOL    HW1 2732   0.057   1.003   0.258  1.1228 -1.0872 -1.9808
  911SOL    HW2 2733   3.076   0.849   0.264 -0.7157  1.2737  0.2855
  912SOL     OW 2734   0.126   2.421   0.532  0.4398  0.1786  0.0167
  912SOL    HW1 2735   0.096   2.346   0.469  1.6139  1.7398 -2.4062
  912SOL    HW2 2736   0.217   2.457   0.513  0.6842  1.3378  0.8696
  913SOL     OW 2737   2.658   2.191   2.369  0.5154 -0.4462 -0.0210
  913SOL    HW1 2738   2.728   2.181   2.297 -1.1620 -2.6903 -0.2039
  913SOL    HW2 2739   2.614   2.107   2.393 -0.7878  2.7563  0.4739
  914SOL     OW 2740   1.455   2.124   1.247  0.2751  0.3906  0.0970
  914SOL    HW1 2741   1.426   2.029   1.260  0.0774 -1.6791 -2.8833
  914SOL    HW2 2742   1.501   2.127   1.159 -1.4569  2.0235  3.3513
  915SOL     OW 2743   0.344   2.736   2.172 -0.1130  0.2053 -0.2406
  915SOL    HW1 2744   0.374   2.715   2.076 -0.5174 -2.2361 -3.4209
  915SOL    HW2 2745   0.310   2.831   2.176  0.5257 -0.5625  0.8032
  916SOL     OW 2746   0.659   0.319   1.674  0.5174 -0.2257 -0.5812
  916SOL    HW1 2747   0.758   0.300   1.653  1.0780  1.7686  2.8413
  916SOL    HW2 2748   0.627   0.387   1.606 -0.8762  0.0938  0.6432
  917SOL     OW 2749   2.717   0.630   0.376  0.3557  0.0764  0.2814
  917SOL    HW1 2750   2.689   0.573   0.453  0.5712  3.9172 -1.1436
  917SOL    HW2 2751   2.651   0.623   0.298  0.8543 -1.0724 -2.1485
  918SOL     OW 2752   1.718   2.281   2.824 -0.2851 -0.5083 -0.4161
  918SOL    HW1 2753   1.777   2.360   2.794  0.1099 -0.4727  1.8707
  918SOL    HW2 2754   1.639   2.296   2.884 -0.1099 -4.1533 -0.3933
  919SOL     OW 2755   1.579   2.922   1.140 -0.1931  0.8792  0.0595
  919SOL    HW1 2756   1.638   3.002   1.130 -0.5713 -1.7417  1.2822
  919SOL    HW2 2757   1.620   2.839   1.094 -2.5687 -2.0365 -1.7706
  920SOL     OW 2758   1.113   0.582   2.412 -0.0800 -0.0132 -0.2708
  920SOL    HW1 2759   1.100   0.485   2.442  0.6259  1.4695 -2.5555
  920SOL    HW2 2760   1.211   0.604   2.418 -3.1623  1.2223  0.4591
  921SOL     OW 2761   3.074   0.755   2.802 -0.2047 -0.6326  0.5137
  921SOL    HW1 2762   3.004   0.822   2.772 -0.8220 -1.4081  1.0161
  921SOL    HW2 2763   0.090   0.791   2.792  3.6501  3.9972 -3.0640
  922SOL     OW 2764   0.269   2.140   1.100  0.3992  0.3929 -0.6423
  922SOL    HW1 2765   0.292   2.039   1.091 -0.0263  0.8117 -0.1964
  922SOL    HW2 2766   0.322   2.195   1.030  0.2030  1.0794  1.6203
  923SOL     OW 2767   0.514   1.560   1.936  0.6536 -0.1871  0.3122
  923SOL    HW1 2768   0.576   1.583   1.859  1.2545  1.3142 -1.1329
  923SOL    HW2 2769   0.519   1.464   1.965  1.0354 -1.0009 -2.3407
  924SOL     OW 2770   1.687   2.698   2.694  0.0293  0.2277  0.3892
  924SOL    HW1 2771   1.604   2.652   2.724  2.2152  3.9139 -0.7814
  924SOL    HW2 2772   1.721   2.767   2.763  1.2095  2.7213 -0.3739
  925SOL     OW 2773   2.717   1.493   0.902  0.1364 -0.2875 -0.4940
  925SOL    HW1 2774   2.640   1.429   0.897 -1.0840 -0.5906  0.1605
  925SOL    HW2 2775   2.757   1.498   0.999  1.4419  1.5264  3.6535
  926SOL     OW 2776   2.134   0.547   1.255 -0.4426  0.5044 -0.1333
  926SOL    HW1 2777   2.228   0.562   1.288 -3.4561  1.1124  2.0060
  926SOL    HW2 2778   2.073   0.521   1.334 -0.8706  0.6675 -2.3471
  927SOL     OW 2779   2.000   3.058   1.516 -0.0029 -0.5024 -0.4611
  927SOL    HW1 2780   2.027   0.069   1.495  0.4587 -0.9838  2.0621
  927SOL    HW2 2781   2.068   2.988   1.482 -0.7899 -0.1880 -1.4434
  928SOL     OW 2782   0.217   1.220   2.264  0.4533  0.1071 -0.1341
  928SOL    HW1 2783   0.267   1.293   2.208  1.2552  0.5276 -2.3009
  928SOL    HW2 2784   0.141   1.181   2.215  1.5209 -0.4353  0.5663
  929SOL     OW 2785   2.371   0.906   1.300  0.1015  0.1466 -0.4188
  929SOL    HW1 2786   2.269   0.918   1.317  3.5187  0.2805  1.4227
  929SOL    HW2 2787   2.425   0.944   1.377  1.8783 -2.4608  0.3529
  930SOL     OW 2788   2.649   2.474   1.923 -0.0428  0.3087 -0.2398
  930SOL    HW1 2789   2.591   2.558   1.907 -0.9341 -2.4595  1.4883
  930SOL    HW2 2790   2.599   2.419   1.994  0.0554 -1.8748 -1.3585
  931SOL     OW 2791   1.697   1.158   1.459  0.4449 -0.6861  0.7202
  931SOL    HW1 2792   1.657   1.159   1.550  0.8869 -1.5434  1.2436
  931SOL    HW2 2793   1.798   1.189   1.462  0.2310 -0.5307  1.7168
  932SOL     OW 2794   0.558   1.299   1.940  0.1049  0.1099 -0.5443
  932SOL    HW1 2795   0.574   1.245   2.027  0.6465 -0.6108  2.1848
  932SOL    HW2 2796   0.641   1.309   1.882 -0.0470  0.3137 -2.4016
  933SOL     OW 2797   2.650   1.942   1.578 -0.1614 -0.3194  0.4561
  933SOL    HW1 2798   2.612   1.898   1.498  1.4750 -1.3858  0.0580
  933SOL    HW2 2799   2.750   1.935   1.571 -0.4278 -0.7705 -0.1280
  934SOL     OW 2800   0.699   2.153   1.936 -0.3754  0.7316 -0.4852
  934SOL    HW1 2801   0.692   2.063   1.992 -2.3822 -1.3269  0.2478
  934SOL    HW2 2802   0.720   2.135   1.838  0.0308  1.4800 -1.7997
  935SOL     OW 2803   3.064   1.544   1.534  0.9812 -0.0790  0.0863
  935SOL    HW1 2804   0.025   1.622   1.485  2.4028  0.0702 -2.5325
  935SOL    HW2 2805   0.048   1.493   1.586 -0.2445  1.4416 -2.9235
  936SOL     OW 2806   2.862   1.112   1.370  0.4525 -0.1259  0.0197
  936SOL    HW1 2807   2.834   1.028   1.416 -1.6567  1.8732 -0.7703
  936SOL    HW2 2808   2.939   1.087   1.313 -3.7051  0.6638 -2.2940
  937SOL     OW 2809   1.933   0.401   1.503 -0.4663  0.3788  0.1350
  937SOL    HW1 2810   1.978   0.323   1.455 -0.1739  0.6766  0.1665
  937SOL    HW2 2811   1.883   0.461   1.437 -0.7257 -1.1808  2.5345
  938SOL     OW 2812   0.470   2.776   0.146  0.5440 -0.2586 -0.2016
  938SOL    HW1 2813   0.401   2.744   0.217  0.7656 -1.3530 -0.0657
  938SOL    HW2 2814   0.426   2.795   0.060  0.8953 -2.4809 -0.7300
  939SOL     OW 2815   2.782   1.929   2.490 -0.1537 -0.2082 -0.2068
  939SOL    HW1 2816   2.802   1.827   2.478 -1.5993  0.6038 -0.1051
  939SOL    HW2 2817   2.685   1.948   2.498  2.1365  2.3635 -4.4597
  940SOL     OW 2818   1.614   1.754   0.517  0.4122 -0.2977 -0.3672
  940SOL    HW1 2819   1.528   1.695   0.530 -1.3050 -0.3726  2.6721
  940SOL    HW2 2820   1.691   1.697   0.480  1.4051 -0.6026 -1.2913
  941SOL     OW 2821   2.220   2.586   3.070  0.2973  0.3339  0.2175
  941SOL    HW1 2822   2.256   2.542   0.066  0.7563  1.8004 -0.5597
  941SOL    HW2 2823   2.256   2.681   3.062 -2.2822  1.3167  0.1578
  942SOL     OW 2824   1.915   2.143   1.090  0.7074 -0.3090  0.3113
  942SOL    HW1 2825   1.824   2.105   1.106  1.3702  0.2000  0.2691
  942SOL    HW2 2826   1.914   2.247   1.098  1.6391 -1.4691  0.4360
  943SOL     OW 2827   2.188   0.975   1.700 -0.1931 -0.0008  0.4063
  943SOL    HW1 2828   2.208   0.919   1.617 -0.3398 -0.9139 -0.1204
  943SOL    HW2 2829   2.280   1.008   1.733 -0.8701  0.2514 -2.1779
  944SOL     OW 2830   1.403   0.738   2.043  0.5789  0.1097  0.3599
  944SOL    HW1 2831   1.476   0.743   2.116 -1.9219  0.3810 -1.2360
  944SOL    HW2 2832   1.327   0.667   2.061 -0.0718 -1.7807 -0.6221
  945SOL     OW 2833   2.397   2.458   1.364  0.4055 -0.2595 -0.0383
  945SOL    HW1 2834   2.496   2.423   1.378  1.6046  2.9514  0.9843
  945SOL    HW2 2835   2.331   2.416   1.432  3.4655  1.7839  2.1940
  946SOL     OW 2836   0.259   0.894   0.575  0.4655  0.1156  0.4531
  946SOL    HW1 2837   0.195   0.950   0.629  0.7488  0.7502  2.5319
  946SOL    HW2 2838   0.333   0.858   0.637 -1.9915  0.9023 -0.6923
  947SOL     OW 2839   1.944   2.699   1.329  0.4583 -0.1780  0.1414
  947SOL    HW1 2840   1.944   2.699   1.433 -0.8834  1.5099  3.3561
  947SOL    HW2 2841   2.038   2.678   1.298 -0.1143 -1.0661  1.6270
  948SOL     OW 2842   0.371   1.693   0.909 -0.4014  0.0142 -0.1288
  948SOL    HW1 2843   0.300   1.618   0.910  1.2424  2.8366 -1.1869
  948SOL    HW2 2844   0.467   1.664   0.914  1.6515  2.2422 -1.1972
  949SOL     OW 2845   1.061   1.239   1.168  0.0810 -0.1725 -0.3755
  949SOL    HW1 2846   1.089   1.277   1.078 -1.9516 -0.6162  2.2122
  949SOL    HW2 2847   1.107   1.151   1.191 -1.2006 -0.4521  1.6834
  950SOL     OW 2848   0.322   0.660   1.065  0.2781  0.5432 -0.4837
  950SOL    HW1 2849   0.423   0.657   1.038 -1.2945 -0.4711 -1.1308
  950SOL    HW2 2850   0.324   0.724   1.147  0.2402 -1.6358  1.6056
  951SOL     OW 2851   0.832   2.078   2.266 -0.2904  0.1284 -0.6505
  951SOL    HW1 2852   0.839   2.165   2.212  0.4800  1.5236 -1.2071
  951SOL    HW2 2853   0.782   2.089   2.354  0.6848 -0.7728  0.2823
  952SOL     OW 2854   1.399   1.508   0.081  0.0463 -0.0402  0.1752
  952SOL    HW1 2855   1.444   1.591   0.116 -1.4722 -1.2396  0.2056
  952SOL    HW2 2856   1.340   1.536   0.003 -0.5907  0.3473  0.3791
  953SOL     OW 2857   1.086   3.040   3.031  0.0799 -0.2614 -0.3227
  953SOL    HW1 2858   1.178   3.076   3.036  1.9945  0.8724  0.3070
  953SOL    HW2 2859   1.024   0.034   3.012  1.8554 -0.1282 -0.3897
  954SOL     OW 2860   1.963   1.169   0.194 -0.4268 -0.9796  0.4100
  954SOL    HW1 2861   1.869   1.123   0.196 -3.6779 -2.0057  0.1291
  954SOL    HW2 2862   1.990   1.193   0.291 -2.8352 -0.9119 -2.2978
  955SOL     OW 2863   0.119   2.684   2.951  0.0508 -0.0378  0.3507
  955SOL    HW1 2864   0.209   2.728   2.958  1.1979  1.7488  0.2349
  955SOL    HW2 2865   0.129   2.612   2.880 -1.8894 -0.3421  0.1318
  956SOL     OW 2866   1.165   0.681   1.169 -0.3344  0.1365  0.1637
  956SOL    HW1 2867   1.218   0.764   1.200  2.0129 -0.2748 -2.9475
  956SOL    HW2 2868   1.170   0.607   1.240 -1.8959 -1.8893  2.2165
  957SOL     OW 2869   1.034   1.433   1.353 -0.2282  0.2569  0.1162
  957SOL    HW1 2870   0.985   1.515   1.316  0.6226 -0.6226  0.7212
  957SOL    HW2 2871   1.041   1.351   1.287  1.5992 -1.7572  0.1757
  958SOL     OW 2872   0.473   1.866   0.723  0.6309 -0.0712 -0.7197
  958SOL    HW1 2873   0.435   1.782   0.765  0.3904  0.3309 -1.0243
  958SOL    HW2 2874   0.472   1.850   0.622 -0.8073 -1.3373 -3.7324
  959SOL     OW 2875   1.492   1.241   1.072  0.6733  0.8254  0.4029
  959SOL    HW1 2876   1.479   1.274   0.978  1.2196  0.6858  1.5149
  959SOL    HW2 2877   1.423   1.283   1.135 -0.9821  3.4499 -0.3431
  960SOL     OW 2878   0.210   1.080   2.971  0.4994 -0.2898 -0.5839
  960SOL    HW1 2879   0.162   1.149   2.918 -0.1746 -0.5274  0.5719
  960SOL    HW2 2880   0.241   1.003   2.917 -1.5527  3.2689 -1.2959
  961SOL     OW 2881   0.935   1.541   1.026  0.1210 -0.8653  0.0374
  961SOL    HW1 2882   0.916   1.605   0.952  1.1016 -1.9213 -2.2569
  961SOL    HW2 2883   1.000   1.465   1.007 -2.2815 -0.9880 -0.1426
  962SOL     OW 2884   0.798   1.118   0.641  0.2142 -0.0245  0.2289
  962SOL    HW1 2885   0.760   1.210   0.614  1.6702  1.4200  1.3955
  962SOL    HW2 2886   0.798   1.106   0.745  2.1953 -1.6461  0.0636
  963SOL     OW 2887   1.348   1.497   2.435 -0.2361  0.4086 -0.1711
  963SOL    HW1 2888   1.362   1.602   2.445  0.7573  2.3531  1.9306
  963SOL    HW2 2889   1.424   1.463   2.496  3.5647  1.6496  0.4153
  964SOL     OW 2890   0.712   2.514   2.779 -1.0370 -0.3074  0.1096
  964SOL    HW1 2891   0.700   2.434   2.714  0.6750 -0.7121 -1.6961
  964SOL    HW2 2892   0.746   2.480   2.872  0.7918  1.1733  0.9209
  965SOL     OW 2893   0.419   2.464   0.122 -0.6222  0.1340  0.0543
  965SOL    HW1 2894   0.494   2.535   0.111  1.0760  4.9110  1.4742
  965SOL    HW2 2895   0.372   2.442   0.036 -0.6645  0.1219  2.1353
  966SOL     OW 2896   2.944   1.568   2.748  0.2201 -0.0559  0.4797
  966SOL    HW1 2897   2.885   1.493   2.706 -3.0052  0.6545 -1.0121
  966SOL    HW2 2898   2.878   1.614   2.807  5.0979 -2.1213  0.7224
  967SOL     OW 2899   2.327   0.088   2.768  0.0355  0.0713 -0.2845
  967SOL    HW1 2900   2.253   0.043   2.713 -1.0173 -0.0758 -0.9071
  967SOL    HW2 2901   2.302   0.081   2.869 -1.9751 -0.5278  1.8155
  968SOL     OW 2902   2.232   0.030   0.321 -0.0915 -0.2945  0.4736
  968SOL    HW1 2903   2.241   0.133   0.322  0.4085 -0.4184 -0.0054
  968SOL    HW2 2904   2.323   3.068   0.307 -1.1843 -2.0679  2.8585
  969SOL     OW 2905   0.299   1.437   2.157 -0.5973  0.4081  0.8020
  969SOL    HW1 2906   0.338   1.504   2.093 -0.9186  0.6118 -1.6632
  969SOL    HW2 2907   0.317   1.475   2.253  0.6845  0.0554  1.3318
  970SOL     OW 2908   1.456   1.318   0.801 -0.3787 -0.0354  0.0728
  970SOL    HW1 2909   1.529   1.362   0.743  2.2150 -0.0399  3.6451
  970SOL    HW2 2910   1.400   1.255   0.745  0.3496 -1.0029 -1.6166
  971SOL     OW 2911   2.320   0.114   1.038 -0.1680 -0.3668 -0.2107
  971SOL    HW1 2912   2.400   0.111   1.107  3.4896 -0.9470 -0.4845
  971SOL    HW2 2913   2.324   0.199   0.974 -0.3864  1.5042 -1.6473
  972SOL     OW 2914   0.415   2.801   1.459  1.5026 -0.0922 -0.0068
  972SOL    HW1 2915   0.427   2.741   1.376 -0.9442  3.3424  0.0163
  972SOL    HW2 2916   0.480   2.875   1.470 -1.6324 -1.6226  2.2071
  973SOL     OW 2917   0.470   0.343   2.867  0.6611 -0.4405 -0.3483
  973SOL    HW1 2918   0.492   0.404   2.788  0.8364 -0.0418 -0.6351
  973SOL    HW2 2919   0.374   0.311   2.857 -2.4982  1.2303 -0.0575
  974SOL     OW 2920   2.174   1.382   1.858  0.0923 -0.0227  0.0529
  974SOL    HW1 2921   2.106   1.318   1.816  2.3029 -1.9298  0.6692
  974SOL    HW2 2922   2.222   1.349   1.943  0.8763  1.0385  2.6806
  975SOL     OW 2923   3.035   0.037   1.193 -0.2789  0.1862 -0.0237
  975SOL    HW1 2924   3.047   3.080   1.283  1.3357 -0.2124  1.7600
  975SOL    HW2 2925   0.001   3.059   1.126 -0.4932  1.6096 -0.9558
  976SOL     OW 2926   1.022   1.883   2.373 -0.5208 -0.3705  0.1979
  976SOL    HW1 2927   1.097   1.924   2.428  0.2419 -0.3476 -1.5495
  976SOL    HW2 2928   0.957   1.954   2.340  0.6280 -2.3649 -0.0110
  977SOL     OW 2929   0.854   2.343   0.616 -0.4826 -0.1444 -0.3761
  977SOL    HW1 2930   0.799   2.426   0.608  0.2551 -1.0047 -2.2564
  977SOL    HW2 2931   0.824   2.274   0.548 -1.1999  1.8719 -0.3095
  978SOL     OW 2932   2.914   1.225   2.354 -0.4356 -0.7881  0.1783
  978SOL    HW1 2933   2.946   1.183   2.265  0.8702 -2.4415 -2.7789
  978SOL    HW2 2934   2.887   1.325   2.344 -1.0273  0.4780  2.0720
  979SOL     OW 2935   1.527   3.001   1.387 -0.0757  0.0883  0.1784
  979SOL    HW1 2936   1.562   2.974   1.294 -2.0035 -1.1173 -0.2428
  979SOL    HW2 2937   1.494   2.917   1.431  1.0831 -3.4430  1.1970
  980SOL     OW 2938   1.275   1.247   2.371  0.0351 -0.0546  0.3849
  980SOL    HW1 2939   1.175   1.230   2.367 -0.0828  1.5609  1.9198
  980SOL    HW2 2940   1.284   1.345   2.399  0.0618  0.6854 -0.8981
  981SOL     OW 2941   2.513   0.345   1.764  0.1991  0.3865  0.1854
  981SOL    HW1 2942   2.422   0.388   1.749  0.1764 -2.2598  2.2918
  981SOL    HW2 2943   2.487   0.264   1.818 -0.6773  0.5112 -0.2800
  982SOL     OW 2944   0.191   0.329   2.800 -0.1695 -0.8839 -0.4710
  982SOL    HW1 2945   0.172   0.279   2.711 -0.6397  0.1737  1.3799
  982SOL    HW2 2946   0.139   0.289   2.877  1.7330  1.3078  2.2374
  983SOL     OW 2947   2.396   0.777   2.250  0.4193 -0.3126 -0.0245
  983SOL    HW1 2948   2.327   0.825   2.309  1.0049  1.7340  1.9015
  983SOL    HW2 2949   2.418   0.678   2.269  0.6763 -2.5813  2.0279
  984SOL     OW 2950   0.957   2.993   2.030  0.1441  0.3324 -0.3615
  984SOL    HW1 2951   1.001   3.051   2.103 -0.2157  0.9940  3.8274
  984SOL    HW2 2952   0.860   2.975   2.056  1.0609 -0.0261  0.3959
  985SOL     OW 2953   1.864   1.492   1.597 -0.7348 -0.1066 -0.2829
  985SOL    HW1 2954   1.921   1.409   1.583  1.2176  0.0081 -0.0393
  985SOL    HW2 2955   1.910   1.579   1.564 -1.0308  0.4680  3.6583
  986SOL     OW 2956   2.451   0.626   1.653  0.4069 -0.2168 -0.4565
  986SOL    HW1 2957   2.554   0.615   1.652  4.4364 -0.3605  0.7222
  986SOL    HW2 2958   2.423   0.632   1.552 -0.7250 -0.2783 -3.3575
  987SOL     OW 2959   2.733   0.857   1.435  0.8087  0.5923 -0.0211
  987SOL    HW1 2960   2.768   0.767   1.465 -1.5929  1.3520  4.9903
  987SOL    HW2 2961   2.695   0.853   1.342  1.6148  0.8046 -0.7819
  988SOL     OW 2962   0.404   1.021   2.038 -0.5614  0.2626  0.1552
  988SOL    HW1 2963   0.370   1.075   1.958  0.5215 -1.1142 -1.9646
  988SOL    HW2 2964   0.375   0.923   2.034 -2.0887 -4.0375 -0.5105
  989SOL     OW 2965   1.987   1.496   0.503  0.3729 -0.0507  0.3065
  989SOL    HW1 2966   2.015   1.517   0.599  0.3315  1.8271 -0.6535
  989SOL    HW2 2967   1.905   1.546   0.469 -0.9846 -0.1316  0.5767
  990SOL     OW 2968   0.769   0.796   2.095  0.1577 -0.7087 -0.3224
  990SOL    HW1 2969   0.862   0.838   2.114 -0.2218  3.8651  3.0133
  990SOL    HW2 2970   0.776   0.751   2.008  1.0675  1.7023  0.1394
  991SOL     OW 2971   1.330   1.112   0.655  0.1275  0.3245 -0.2042
  991SOL    HW1 2972   1.281   1.032   0.692  1.3071  3.2206 -0.7505
  991SOL    HW2 2973   1.293   1.144   0.562  1.1954 -0.1059 -2.3696
  992SOL     OW 2974   2.074   0.915   0.507  0.3919  0.2181  0.1297
  992SOL    HW1 2975   2.156   0.890   0.563  2.5600  0.0692  0.4395
  992SOL    HW2 2976   2.024   0.991   0.551  0.9801  1.3428  0.5893
  993SOL     OW 2977   2.991   0.847   0.724  0.6541  0.1449 -0.2534
  993SOL    HW1 2978   3.006   0.796   0.808  1.9873 -1.6885  0.8595
  993SOL    HW2 2979   3.030   0.804   0.644  1.0679  1.1681  0.6070
  994SOL     OW 2980   2.983   2.103   2.504  0.2118 -0.1770 -0.5555
  994SOL    HW1 2981   2.903   2.042   2.498  1.5292  0.5051 -2.5754
  994SOL    HW2 2982   3.047   2.058   2.568  0.3204  0.0816 -0.6481
  995SOL     OW 2983   1.807   1.308   2.669 -0.3896 -0.2441  0.1213
  995SOL    HW1 2984   1.750   1.224   2.690 -0.7152  0.3271  1.3817
  995SOL    HW2 2985   1.826   1.359   2.752 -0.9809 -3.4905 -1.9337
  996SOL     OW 2986   2.520   1.156   0.273 -0.3616 -0.3723  0.7542
  996SOL    HW1 2987   2.456   1.226   0.228  0.2911  1.4766  1.1712
  996SOL    HW2 2988   2.601   1.142   0.213  0.6700  1.2600 -1.2974
  997SOL     OW 2989   2.000   1.180   1.729 -0.1680 -0.2672  0.0813
  997SOL    HW1 2990   2.051   1.094   1.724  0.3372  3.0992  2.6205
  997SOL    HW2 2991   1.950   1.200   1.818  0.9405 -0.6137 -1.0215
  998SOL     OW 2992   2.520   1.778   0.461 -0.8610 -0.3212 -0.5453
  998SOL    HW1 2993   2.431   1.742   0.485  3.7331 -0.2037 -2.2486
  998SOL    HW2 2994   2.588   1.704   0.451 -0.5009  1.5981 -1.7082
  999SOL     OW 2995   2.891   2.250   0.044 -0.1332 -0.0717 -0.0760
  999SOL    HW1 2996   2.821   2.242   0.119 -1.3175 -2.4046 -0.8320
  999SOL    HW2 2997   2.887   2.348   0.014 -0.5900 -1.0738 -0.9495
 1000SOL     OW 2998   1.040   0.856   2.103 -0.5164 -0.2430 -0.4548
 1000SOL    HW1 2999   1.067   0.756   2.101 -0.1115  2.4135  0.0043
 1000SOL    HW2 3000   1.119   0.922   2.097  0.4031  0.8406 -1.4170
   3.08378   3.08378   3.08378
