1000 SPC/Fw water molecules t= 442.00000 step= 442000
 3000
    1SOL     OW    1   0.070   0.127   1.474 -0.6486 -0.1046  0.2161
    1SOL    HW1    2   0.102   0.084   1.388  0.6018 -1.3705 -1.8807
    1SOL    HW2    3   0.145   0.121   1.539 -2.7656 -1.4278  0.2669
    2SOL     OW    4   2.946   3.095   3.106 -0.0533  0.3930  0.3960
    2SOL    HW1    5   3.029   3.055   0.039 -1.5283  0.9790 -0.4756
    2SOL    HW2    6   2.862   3.095   0.059 -2.2297  1.3560 -0.1155
    3SOL     OW    7   1.238   2.823   0.018  0.6769  0.1853  0.0582
    3SOL    HW1    8   1.239   2.723   3.108 -3.1119  0.7396 -0.4638
    3SOL    HW2    9   1.318   2.840   0.078  1.1617  0.4428 -1.2618
    4SOL     OW   10   1.191   2.655   2.440  0.2083  0.5292 -0.2367
    4SOL    HW1   11   1.266   2.582   2.428  1.3678 -1.2187 -0.1259
    4SOL    HW2   12   1.126   2.631   2.518 -0.3511  3.2947 -0.1613
    5SOL     OW   13   2.344   0.412   1.738 -0.0776 -0.2632  0.1004
    5SOL    HW1   14   2.438   0.386   1.764 -3.0016  1.5377 -0.0283
    5SOL    HW2   15   2.363   0.505   1.694  1.7827  0.0552 -0.6202
    6SOL     OW   16   2.752   2.535   0.811 -0.1603 -0.0833  0.2688
    6SOL    HW1   17   2.847   2.537   0.843 -1.9838 -0.1232 -0.2675
    6SOL    HW2   18   2.696   2.461   0.852  0.2166  0.6955 -1.2903
    7SOL     OW   19   1.472   1.873   0.589  0.3950  0.2300 -0.3129
    7SOL    HW1   20   1.392   1.867   0.526  0.0628  0.3749  0.6143
    7SOL    HW2   21   1.447   1.835   0.679 -1.0656  1.2321 -0.0001
    8SOL     OW   22   0.385   1.091   0.804 -0.2749  0.3498  0.1165
    8SOL    HW1   23   0.378   1.178   0.749 -2.1300 -0.6112 -1.7441
    8SOL    HW2   24   0.410   1.005   0.754 -1.9844 -1.9206  0.7938
    9SOL     OW   25   0.224   2.881   1.517 -0.1197 -0.0712  0.0913
    9SOL    HW1   26   0.156   2.956   1.513  0.8116  0.1148  0.8981
    9SOL    HW2   27   0.184   2.807   1.574  3.7979 -2.9743  0.3749
   10SOL     OW   28   1.186   2.286   0.626  0.3252 -0.3657  0.4756
   10SOL    HW1   29   1.274   2.332   0.658  2.8650  0.6505  1.1519
   10SOL    HW2   30   1.107   2.349   0.617  1.5369  1.1752  0.1763
   11SOL     OW   31   2.070   1.621   1.233 -0.2042 -0.1057 -0.2855
   11SOL    HW1   32   2.153   1.646   1.184  1.1890 -0.2089  0.7728
   11SOL    HW2   33   1.986   1.674   1.207  0.3113 -1.2641  1.6606
   12SOL     OW   34   0.083   1.024   1.991  0.6285 -0.5401  0.1993
   12SOL    HW1   35   0.122   1.093   1.924 -1.4776 -2.4356 -0.4831
   12SOL    HW2   36   0.133   0.937   2.005 -2.9240 -1.5486  1.0533
   13SOL     OW   37   2.478   3.066   0.010 -0.2914 -0.0476  0.3590
   13SOL    HW1   38   2.447   2.969   0.016 -0.4840  1.4511 -2.0618
   13SOL    HW2   39   2.407   0.024   3.092  2.5334 -0.7920  0.6345
   14SOL     OW   40   1.353   1.991   0.171  0.1617  0.2481  0.6923
   14SOL    HW1   41   1.297   1.953   0.240 -0.2878  1.0256 -2.8234
   14SOL    HW2   42   1.316   2.078   0.131  1.1670  2.2404 -0.0387
   15SOL     OW   43   2.906   2.567   1.857 -0.2130  0.2057 -0.1513
   15SOL    HW1   44   2.893   2.491   1.788 -0.3462  1.6611 -0.1337
   15SOL    HW2   45   2.922   2.657   1.815 -0.0398  0.3441 -0.6161
   16SOL     OW   46   3.004   0.485   1.005  0.3014 -0.1271  0.2182
   16SOL    HW1   47   3.037   0.391   1.034 -0.4351  0.4555  2.7019
   16SOL    HW2   48   2.922   0.508   1.057  1.6559 -0.3041 -1.7430
   17SOL     OW   49   0.739   0.176   0.824  0.5825  0.1194  0.4231
   17SOL    HW1   50   0.831   0.200   0.794 -0.2485 -3.7345 -0.0087
   17SOL    HW2   51   0.719   0.076   0.805 -1.9984 -1.8592  0.6978
   18SOL     OW   52   1.042   3.085   0.859 -0.3462 -0.8029  0.4854
   18SOL    HW1   53   1.042   3.029   0.776  3.0562 -0.0375 -0.5473
   18SOL    HW2   54   0.988   3.039   0.936 -1.1459 -4.2493  3.1723
   19SOL     OW   55   1.669   1.015   0.957 -0.3051 -0.7629  0.2524
   19SOL    HW1   56   1.626   1.101   0.939 -3.3689 -2.9636  2.2735
   19SOL    HW2   57   1.598   0.949   0.979  1.1359  0.6356 -0.3628
   20SOL     OW   58   2.159   1.692   2.799 -0.1967 -0.7284 -0.4236
   20SOL    HW1   59   2.085   1.681   2.731  3.0754  1.6161 -0.5606
   20SOL    HW2   60   2.223   1.763   2.761 -0.3311 -1.2237 -1.8419
   21SOL     OW   61   1.525   3.020   0.474 -0.7989 -0.1820  0.1314
   21SOL    HW1   62   1.479   3.108   0.446  0.3500  0.7100 -2.2153
   21SOL    HW2   63   1.624   3.025   0.444  0.3317 -1.0360  0.6175
   22SOL     OW   64   2.611   0.831   0.488  0.2390  0.5439 -0.3817
   22SOL    HW1   65   2.594   0.828   0.589  3.9309 -1.4098  0.3981
   22SOL    HW2   66   2.525   0.839   0.431 -0.0777 -0.3833 -1.1711
   23SOL     OW   67   0.791   0.192   1.810  0.4706  0.4364 -0.7148
   23SOL    HW1   68   0.890   0.213   1.801  0.0928 -1.9296  1.4422
   23SOL    HW2   69   0.733   0.270   1.781 -1.0451 -0.3184  2.4756
   24SOL     OW   70   1.837   2.436   0.568  0.0239 -0.8339 -0.2557
   24SOL    HW1   71   1.923   2.398   0.599 -1.9075 -0.4371  0.8829
   24SOL    HW2   72   1.777   2.372   0.515 -1.6062  0.9132  0.9001
   25SOL     OW   73   1.830   0.241   2.432 -0.6709 -0.4483  0.6880
   25SOL    HW1   74   1.813   0.162   2.493 -0.7722  2.6192  1.0175
   25SOL    HW2   75   1.752   0.258   2.368  1.1693  1.4315  0.0648
   26SOL     OW   76   1.435   2.764   2.885  0.9174 -0.5666 -0.0697
   26SOL    HW1   77   1.455   2.729   2.978  0.7593  0.1076 -1.4171
   26SOL    HW2   78   1.432   2.686   2.822 -1.2091  1.5897  1.6155
   27SOL     OW   79   1.347   0.365   1.092 -0.1867  0.4777 -0.1319
   27SOL    HW1   80   1.272   0.347   1.027 -1.0509  1.6095 -3.9977
   27SOL    HW2   81   1.340   0.301   1.172  1.2667 -2.7365 -0.2846
   28SOL     OW   82   0.475   1.525   0.866  0.2246  0.4702 -0.5252
   28SOL    HW1   83   0.536   1.459   0.915  2.6018 -1.7291 -0.7434
   28SOL    HW2   84   0.412   1.577   0.928 -0.8647 -2.8138 -0.3088
   29SOL     OW   85   2.485   0.614   1.324 -0.1415 -0.5168 -0.0940
   29SOL    HW1   86   2.509   0.657   1.237 -2.0532 -2.6419 -1.3878
   29SOL    HW2   87   2.543   0.532   1.337  1.1457 -2.2088 -1.6371
   30SOL     OW   88   1.732   2.476   1.405  0.2127 -0.0914  0.0677
   30SOL    HW1   89   1.779   2.401   1.354 -1.3895 -0.5081 -1.3308
   30SOL    HW2   90   1.643   2.499   1.358 -0.4791  0.8746 -0.5086
   31SOL     OW   91   1.788   2.818   1.414  0.6959 -0.4557 -0.0240
   31SOL    HW1   92   1.855   2.749   1.445  1.3560  2.5201 -0.5749
   31SOL    HW2   93   1.795   2.827   1.311  1.1255 -0.6558  1.3343
   32SOL     OW   94   1.968   1.517   2.133 -0.1962  0.2660  0.2971
   32SOL    HW1   95   1.949   1.463   2.050 -1.0506  2.1718  1.7072
   32SOL    HW2   96   2.057   1.563   2.127 -2.2612  0.2362  0.7027
   33SOL     OW   97   2.464   0.038   2.480 -0.0768 -0.2686  0.0148
   33SOL    HW1   98   2.396   0.079   2.543 -1.0156 -1.0164 -0.1484
   33SOL    HW2   99   2.425   3.063   2.441 -1.1066 -0.9725  0.9388
   34SOL     OW  100   2.081   0.416   0.666  0.2607 -0.3232  0.2645
   34SOL    HW1  101   2.092   0.421   0.561  1.0663  0.2677 -2.8783
   34SOL    HW2  102   1.984   0.412   0.694  0.5207 -0.9339 -0.3018
   35SOL     OW  103   0.088   1.594   1.778  0.2572  0.5916  0.0149
   35SOL    HW1  104   0.080   1.689   1.741 -0.5114 -0.3482 -1.4153
   35SOL    HW2  105   0.144   1.588   1.862  0.8382  1.6024  2.4025
   36SOL     OW  106   2.639   2.108   2.758 -0.0164 -0.2132  0.3447
   36SOL    HW1  107   2.628   2.012   2.788 -1.4172  0.5830 -0.0941
   36SOL    HW2  108   2.695   2.152   2.834  1.4235 -0.7067  0.6867
   37SOL     OW  109   1.371   3.024   1.713  0.3556  0.7968  0.1894
   37SOL    HW1  110   1.367   3.084   1.793  1.5200  0.2199 -3.1729
   37SOL    HW2  111   1.421   2.937   1.728 -1.9172  0.3706  1.0717
   38SOL     OW  112   0.945   0.555   2.544 -0.4526 -0.0972 -0.0499
   38SOL    HW1  113   1.006   0.639   2.544  0.8010  3.0440 -1.7015
   38SOL    HW2  114   0.906   0.530   2.636 -2.4237  2.6879  1.8094
   39SOL     OW  115   1.886   0.944   1.582 -0.0423 -0.3945  0.2173
   39SOL    HW1  116   1.977   0.979   1.603 -2.4705  0.2269  2.3290
   39SOL    HW2  117   1.879   0.937   1.478 -0.2511 -1.6723 -2.4368
   40SOL     OW  118   0.972   2.317   0.906 -0.6408 -0.7262  0.0142
   40SOL    HW1  119   0.936   2.225   0.933 -1.1807  0.5591  3.0125
   40SOL    HW2  120   1.068   2.329   0.939  0.0628  0.2745 -0.4961
   41SOL     OW  121   2.197   2.102   1.202  0.3802 -0.1975  0.0811
   41SOL    HW1  122   2.173   2.201   1.200  1.0813 -1.3083  1.4750
   41SOL    HW2  123   2.178   2.049   1.117  1.2847 -1.1098  1.0132
   42SOL     OW  124   2.736   0.371   0.270 -0.5990 -0.7260  0.2931
   42SOL    HW1  125   2.638   0.361   0.300 -0.5869  0.0599  0.9431
   42SOL    HW2  126   2.738   0.383   0.170  0.0843  0.8282  1.3429
   43SOL     OW  127   0.862   1.031   2.504 -0.0646 -0.3002 -0.1650
   43SOL    HW1  128   0.832   0.974   2.584 -2.2827 -2.5793  0.5937
   43SOL    HW2  129   0.834   1.129   2.513 -1.5200  1.6723 -0.7137
   44SOL     OW  130   1.959   2.604   1.506  0.4871  0.2789 -0.1218
   44SOL    HW1  131   1.877   2.552   1.476  1.1594  2.6778 -0.4826
   44SOL    HW2  132   2.050   2.557   1.481  2.1971 -2.6913 -0.1593
   45SOL     OW  133   0.798   2.591   2.875  0.4190  0.3956 -0.6643
   45SOL    HW1  134   0.779   2.609   2.976  2.2270 -0.5577  1.9105
   45SOL    HW2  135   0.878   2.652   2.837 -0.2070  0.6090 -1.1741
   46SOL     OW  136   0.460   2.659   1.972  0.1499  0.2377 -0.6131
   46SOL    HW1  137   0.525   2.717   1.918 -0.9253 -1.1690  1.8941
   46SOL    HW2  138   0.481   2.662   2.073 -1.0505 -0.1955  1.5801
   47SOL     OW  139   0.642   1.961   0.800  0.6282  0.0518 -0.3587
   47SOL    HW1  140   0.658   1.870   0.765 -2.3757  1.8313 -0.3721
   47SOL    HW2  141   0.543   1.982   0.793  0.8609  1.2891  0.9963
   48SOL     OW  142   0.825   2.880   1.270 -0.3471 -0.2396  0.0837
   48SOL    HW1  143   0.745   2.932   1.310  1.1636 -2.9736  0.5524
   48SOL    HW2  144   0.799   2.784   1.241 -0.6722 -0.4918 -2.3089
   49SOL     OW  145   2.981   2.797   2.745 -0.0823 -0.0099 -0.3824
   49SOL    HW1  146   2.909   2.795   2.672 -0.7062 -1.9168 -0.9971
   49SOL    HW2  147   2.981   2.888   2.799 -0.6003 -0.0498  2.4113
   50SOL     OW  148   1.424   1.160   0.329 -0.4718  0.4264 -0.0285
   50SOL    HW1  149   1.349   1.106   0.363  1.0263  0.5637  0.6682
   50SOL    HW2  150   1.508   1.136   0.380  0.5821  0.8063  1.3860
   51SOL     OW  151   2.104   0.033   0.555  0.1142 -0.5352  0.5438
   51SOL    HW1  152   2.070   0.096   0.481 -0.2192  1.7900 -2.8975
   51SOL    HW2  153   2.083   0.070   0.650  1.8045 -0.4633  3.9902
   52SOL     OW  154   0.638   1.708   0.713  0.0552  0.2996 -0.0693
   52SOL    HW1  155   0.593   1.631   0.757 -0.1033  0.7222  1.4254
   52SOL    HW2  156   0.726   1.686   0.670 -0.9829 -0.2235 -2.5889
   53SOL     OW  157   0.324   1.197   2.910  0.2885 -0.1391 -0.1829
   53SOL    HW1  158   0.254   1.124   2.916  2.3684 -0.7130 -0.5087
   53SOL    HW2  159   0.309   1.265   2.988  1.2950  1.7422  2.6121
   54SOL     OW  160   2.381   2.114   0.170 -0.1729  0.3621 -0.5576
   54SOL    HW1  161   2.398   2.013   0.142 -0.8891 -1.9700  1.0909
   54SOL    HW2  162   2.323   2.119   0.251 -0.9408 -3.4190 -1.7538
   55SOL     OW  163   2.651   2.224   1.149  0.1142 -0.1303  0.0885
   55SOL    HW1  164   2.663   2.281   1.235 -1.0918 -1.2650 -1.2932
   55SOL    HW2  165   2.671   2.125   1.166 -0.4016  0.4483 -0.4249
   56SOL     OW  166   1.653   0.103   1.654  0.7003 -0.6065  0.2951
   56SOL    HW1  167   1.635   0.194   1.610 -2.3292  0.3202 -0.8813
   56SOL    HW2  168   1.675   0.116   1.752 -2.2590  2.0486 -3.3401
   57SOL     OW  169   1.843   1.722   1.168 -0.2091 -0.1815  0.5860
   57SOL    HW1  170   1.845   1.812   1.214  1.4617 -2.1927 -0.0807
   57SOL    HW2  171   1.751   1.682   1.180 -0.4909 -0.5370 -1.0716
   58SOL     OW  172   2.591   0.269   1.839  0.1891 -0.0699 -0.2377
   58SOL    HW1  173   2.609   0.328   1.921 -0.0435  0.5579  0.9594
   58SOL    HW2  174   2.670   0.202   1.828 -1.8135  3.1237  1.1273
   59SOL     OW  175   1.103   2.452   2.142 -0.1101 -0.4442  0.1264
   59SOL    HW1  176   1.045   2.526   2.180 -1.2697 -0.6268  2.0318
   59SOL    HW2  177   1.061   2.405   2.061 -1.4236  0.6192  3.7457
   60SOL     OW  178   0.840   2.962   2.718  0.3158 -0.3156  0.0653
   60SOL    HW1  179   0.791   3.020   2.649  1.6391 -0.2706 -2.9846
   60SOL    HW2  180   0.794   2.959   2.808  1.1103 -1.5898 -0.4361
   61SOL     OW  181   0.716   2.191   0.656 -0.4069 -0.2124 -0.2762
   61SOL    HW1  182   0.813   2.166   0.637  0.2791 -0.4219  2.7534
   61SOL    HW2  183   0.660   2.107   0.670  1.1482  0.2979  1.4838
   62SOL     OW  184   1.054   1.481   1.793 -0.1873  0.2647  0.1467
   62SOL    HW1  185   0.996   1.509   1.712  0.3147  1.2641 -0.1457
   62SOL    HW2  186   1.095   1.551   1.852  0.8408  0.9230 -2.8161
   63SOL     OW  187   1.034   1.922   0.751 -0.3243  0.4819  0.5272
   63SOL    HW1  188   0.980   1.846   0.712 -1.0828  2.5781  1.6450
   63SOL    HW2  189   1.017   2.008   0.697 -1.0685 -0.3711 -0.6835
   64SOL     OW  190   1.354   1.480   2.930 -0.1809  0.4677  0.0916
   64SOL    HW1  191   1.265   1.534   2.923 -1.7520  4.5815  2.2596
   64SOL    HW2  192   1.331   1.393   2.973 -0.2396  2.6361  1.6601
   65SOL     OW  193   1.706   2.177   2.254 -0.5508 -0.1839  0.4531
   65SOL    HW1  194   1.689   2.083   2.291 -2.3988  0.3158  1.3046
   65SOL    HW2  195   1.767   2.228   2.321  1.8074 -1.7977 -0.7290
   66SOL     OW  196   0.138   0.815   0.976 -0.0610  0.0955 -0.3275
   66SOL    HW1  197   0.229   0.827   1.017  1.1264 -1.7263 -1.2216
   66SOL    HW2  198   0.145   0.720   0.934  0.8266  2.5565  3.1882
   67SOL     OW  199   2.335   2.409   0.462  0.0358  0.0219 -0.2811
   67SOL    HW1  200   2.299   2.329   0.513 -1.2419  1.3533  0.4587
   67SOL    HW2  201   2.271   2.435   0.385  0.2619  0.6223 -0.4160
   68SOL     OW  202   2.656   2.644   1.305  0.1042  0.2858 -0.1031
   68SOL    HW1  203   2.753   2.656   1.283  2.6293  0.7071  0.8139
   68SOL    HW2  204   2.638   2.561   1.359 -1.3436  0.7380 -1.4488
   69SOL     OW  205   2.631   2.494   2.776 -0.8756 -0.1725 -0.0609
   69SOL    HW1  206   2.638   2.478   2.676 -2.1115 -0.7454 -0.9395
   69SOL    HW2  207   2.548   2.545   2.809  0.3031  2.6909  0.7807
   70SOL     OW  208   0.384   1.336   2.673 -0.3436  0.0382 -0.1589
   70SOL    HW1  209   0.456   1.315   2.603  1.2634  0.4152  1.6162
   70SOL    HW2  210   0.408   1.298   2.765  2.1498 -0.0068 -2.4548
   71SOL     OW  211   0.926   1.122   2.091 -0.0996 -0.0796  0.0391
   71SOL    HW1  212   0.829   1.098   2.071  0.8507 -0.8424  0.3440
   71SOL    HW2  213   0.951   1.210   2.045  1.7317  0.8339 -0.4388
   72SOL     OW  214   2.679   1.373   1.940 -0.2428 -0.0542  0.0213
   72SOL    HW1  215   2.716   1.289   1.980  0.6848 -0.2372  2.8064
   72SOL    HW2  216   2.732   1.453   1.980  1.5028 -0.4280  0.0929
   73SOL     OW  217   0.617   1.977   2.673  0.3513 -0.0931  0.2384
   73SOL    HW1  218   0.590   2.024   2.582 -1.3908  2.2718  0.2035
   73SOL    HW2  219   0.663   1.891   2.662 -0.1928  2.7305  0.8294
   74SOL     OW  220   1.505   2.783   1.760 -0.2790 -0.2645 -0.2755
   74SOL    HW1  221   1.445   2.746   1.829  0.6538  0.5623  0.2007
   74SOL    HW2  222   1.597   2.743   1.772 -1.3768  0.4186 -0.4516
   75SOL     OW  223   1.156   2.675   0.661  0.4234 -0.2977 -0.3505
   75SOL    HW1  224   1.164   2.647   0.762 -1.6853  0.9549  3.4608
   75SOL    HW2  225   1.225   2.746   0.643 -0.8923 -0.0488  1.9064
   76SOL     OW  226   0.330   1.738   2.786  1.0698  0.8665 -0.3337
   76SOL    HW1  227   0.416   1.679   2.771  0.5346 -0.7608  2.4120
   76SOL    HW2  228   0.269   1.687   2.851 -1.9379  1.2363 -2.4420
   77SOL     OW  229   0.498   2.352   1.198 -0.3681  0.0752 -0.4074
   77SOL    HW1  230   0.490   2.456   1.210 -0.0861  4.3772 -0.3781
   77SOL    HW2  231   0.591   2.328   1.227  0.1943 -0.4181  0.1224
   78SOL     OW  232   2.640   1.284   0.324 -0.3795  0.4890  0.0845
   78SOL    HW1  233   2.708   1.240   0.259  1.6502 -0.6068 -0.2713
   78SOL    HW2  234   2.672   1.263   0.417  0.7057 -0.7058 -2.3518
   79SOL     OW  235   0.548   1.733   0.014  0.3643  0.4934 -0.5324
   79SOL    HW1  236   0.494   1.652   3.101  0.7823  2.1338  2.1550
   79SOL    HW2  237   0.561   1.796   3.045 -1.7911  0.4410  0.5298
   80SOL     OW  238   1.912   1.773   1.624  0.0381 -0.2082  0.0910
   80SOL    HW1  239   1.883   1.756   1.721 -1.0876 -1.2665  2.6316
   80SOL    HW2  240   1.834   1.811   1.566 -2.7747 -0.1467 -1.9107
   81SOL     OW  241   2.209   0.968   2.199 -0.1669  0.2501 -0.0405
   81SOL    HW1  242   2.147   0.923   2.265  1.0092  2.8861 -0.7082
   81SOL    HW2  243   2.281   1.028   2.246 -1.9856  0.5359  1.0337
   82SOL     OW  244   1.560   1.604   1.509 -0.2392  0.1860 -0.4073
   82SOL    HW1  245   1.640   1.590   1.573  0.4014 -1.6929  2.4197
   82SOL    HW2  246   1.473   1.616   1.555  0.2323 -0.6063 -1.4765
   83SOL     OW  247   0.260   0.260   2.884  0.1347  0.1587 -0.2755
   83SOL    HW1  248   0.211   0.189   2.832  0.5233 -0.7625  2.7854
   83SOL    HW2  249   0.294   0.224   2.969 -0.2080 -1.6838 -1.6150
   84SOL     OW  250   0.670   1.134   0.276  0.3940  0.2569 -0.3026
   84SOL    HW1  251   0.702   1.093   0.187  1.4792  1.7036 -1.6429
   84SOL    HW2  252   0.745   1.173   0.330 -0.5519 -2.3901  0.1928
   85SOL     OW  253   2.263   1.824   1.468 -0.3449 -0.6300  0.0383
   85SOL    HW1  254   2.226   1.759   1.403  0.6264 -1.2656 -1.2854
   85SOL    HW2  255   2.354   1.844   1.432 -1.1311 -4.3808  2.3299
   86SOL     OW  256   0.525   0.450   1.033  0.6033  0.0128 -0.2049
   86SOL    HW1  257   0.501   0.545   1.017  3.7563  0.5473  1.8979
   86SOL    HW2  258   0.558   0.430   1.130 -0.4146  1.0508  1.2858
   87SOL     OW  259   2.488   2.240   2.558  0.3155  0.0524 -0.0085
   87SOL    HW1  260   2.535   2.210   2.643  1.5053  0.6098 -2.3365
   87SOL    HW2  261   2.447   2.333   2.567  1.3136  0.9669  0.8101
   88SOL     OW  262   0.159   2.979   3.094  0.7089  0.1430 -0.2809
   88SOL    HW1  263   0.242   2.917   3.099  0.5284 -1.1744  1.5175
   88SOL    HW2  264   0.189   3.073   3.070  1.1638 -0.5530 -0.7462
   89SOL     OW  265   1.555   0.207   0.078 -0.4185 -0.3154 -0.3029
   89SOL    HW1  266   1.485   0.169   0.017  0.5663  1.5607  0.9457
   89SOL    HW2  267   1.528   0.301   0.118 -0.6980 -2.4722  0.1085
   90SOL     OW  268   2.967   1.622   2.337  0.2790  0.2180 -0.6696
   90SOL    HW1  269   2.936   1.592   2.426  2.6111  0.5899 -3.4435
   90SOL    HW2  270   2.972   1.541   2.276  0.7383  0.8461  0.9890
   91SOL     OW  271   2.069   2.936   1.147  0.5211 -0.1417 -0.2926
   91SOL    HW1  272   2.084   2.956   1.247 -0.7647 -1.9676 -0.1596
   91SOL    HW2  273   2.149   2.900   1.095  2.5559  0.3613  1.2844
   92SOL     OW  274   1.804   1.323   0.729 -0.0476 -0.4875  0.4651
   92SOL    HW1  275   1.782   1.224   0.700 -0.3926 -2.3754  1.2931
   92SOL    HW2  276   1.780   1.340   0.825  0.0635 -0.3077 -1.8736
   93SOL     OW  277   0.196   1.735   0.287 -0.2312 -0.1811  0.4288
   93SOL    HW1  278   0.184   1.748   0.388 -3.6365  0.8311 -0.1767
   93SOL    HW2  279   0.280   1.780   0.256 -0.3683 -0.4676 -1.7639
   94SOL     OW  280   0.971   2.509   1.425  0.2587  0.2528 -0.0719
   94SOL    HW1  281   1.067   2.499   1.456  1.6671 -1.1488  0.6673
   94SOL    HW2  282   0.923   2.588   1.466 -0.6073  2.4004 -1.6681
   95SOL     OW  283   0.124   0.692   0.666 -0.3916  0.1189  0.0868
   95SOL    HW1  284   0.084   0.784   0.683 -0.9569 -0.9101 -0.7083
   95SOL    HW2  285   0.132   0.637   0.755 -0.9208 -0.1303 -0.9328
   96SOL     OW  286   0.578   2.838   1.788  0.1994 -0.2730 -0.3586
   96SOL    HW1  287   0.673   2.865   1.758  0.6378  1.2262 -2.1026
   96SOL    HW2  288   0.534   2.776   1.713 -0.6682  0.4650 -2.7306
   97SOL     OW  289   2.223   0.624   0.843 -0.6541 -0.5721 -0.2522
   97SOL    HW1  290   2.204   0.571   0.760  0.0999 -0.8946  3.8209
   97SOL    HW2  291   2.166   0.708   0.847  0.6090  3.7043  0.7654
   98SOL     OW  292   2.957   2.402   1.606  0.0902  0.4292 -0.3029
   98SOL    HW1  293   2.955   2.373   1.509 -0.0008 -2.4041  2.3534
   98SOL    HW2  294   3.020   2.481   1.619 -1.4781 -0.6339  0.3758
   99SOL     OW  295   2.871   0.402   1.520 -0.1392  0.3008 -0.4656
   99SOL    HW1  296   2.907   0.308   1.544  1.8215 -1.5673 -1.4014
   99SOL    HW2  297   2.824   0.452   1.595  1.6343  0.2412  0.5564
  100SOL     OW  298   1.954   0.372   2.698 -0.0050 -0.1680 -0.1138
  100SOL    HW1  299   2.029   0.379   2.636 -1.9444 -0.5057  0.0255
  100SOL    HW2  300   1.870   0.357   2.642 -1.0185  0.6366 -0.9300
  101SOL     OW  301   0.839   3.091   2.269  0.4537  0.6921  0.6965
  101SOL    HW1  302   0.829   2.996   2.230 -0.0464  1.7276  0.6876
  101SOL    HW2  303   0.936   0.012   2.286 -0.0812  0.4100  2.3073
  102SOL     OW  304   0.909   0.496   1.482  0.2187  0.0730  0.5699
  102SOL    HW1  305   0.890   0.409   1.431  2.1764  1.2701 -2.0125
  102SOL    HW2  306   0.883   0.576   1.431 -0.7687 -2.1166  1.9018
  103SOL     OW  307   1.038   0.930   2.752  0.6314 -0.2035  0.4202
  103SOL    HW1  308   1.071   0.892   2.659  0.0241 -0.5554  0.4440
  103SOL    HW2  309   0.941   0.953   2.742  0.9623 -1.7144 -0.3424
  104SOL     OW  310   0.443   0.163   1.982  0.9036 -0.0154  0.2253
  104SOL    HW1  311   0.543   0.173   2.000  0.4901  0.1399 -0.1730
  104SOL    HW2  312   0.422   0.067   1.954 -1.0117 -0.2173  0.8627
  105SOL     OW  313   2.614   2.395   1.467  0.2075 -0.2081  0.0533
  105SOL    HW1  314   2.619   2.292   1.477  0.9366  1.1524  0.0382
  105SOL    HW2  315   2.562   2.424   1.550 -1.3613  2.1075 -2.6142
  106SOL     OW  316   1.181   3.034   0.486  0.0885 -0.4945 -0.0741
  106SOL    HW1  317   1.215   3.054   0.395  0.9448 -0.9272  1.9113
  106SOL    HW2  318   1.246   2.977   0.543  2.3919  0.5056  1.1600
  107SOL     OW  319   2.779   1.950   1.135 -0.1326 -0.5059 -0.2103
  107SOL    HW1  320   2.870   1.995   1.125 -1.8056 -0.1788  0.2268
  107SOL    HW2  321   2.774   1.876   1.063  0.3664 -2.4080 -1.7812
  108SOL     OW  322   0.115   2.279   0.540 -0.3651  0.2651  0.3791
  108SOL    HW1  323   0.192   2.217   0.527  0.2201  0.9003 -0.8530
  108SOL    HW2  324   0.130   2.346   0.615  0.2642  1.4492  4.2890
  109SOL     OW  325   1.685   2.989   0.724  0.3722 -0.0262 -0.3638
  109SOL    HW1  326   1.698   2.926   0.647  2.1796 -1.5578  1.1586
  109SOL    HW2  327   1.699   3.085   0.697  3.1814  1.6373 -2.8169
  110SOL     OW  328   1.663   1.329   0.985  0.4506  0.1057 -0.5033
  110SOL    HW1  329   1.682   1.344   1.083 -1.3863 -0.2184  0.3032
  110SOL    HW2  330   1.568   1.364   0.970 -1.5942  0.0241  2.1829
  111SOL     OW  331   1.704   2.491   1.937  0.1763  0.1756 -0.1033
  111SOL    HW1  332   1.748   2.444   1.855 -1.2908  0.8952 -0.6757
  111SOL    HW2  333   1.713   2.432   2.018 -0.5596 -0.9271 -3.4680
  112SOL     OW  334   1.854   2.369   2.843 -0.2961  0.0401 -0.0154
  112SOL    HW1  335   1.890   2.312   2.919  0.6528  1.1575  0.9200
  112SOL    HW2  336   1.923   2.440   2.820  2.3135  0.8902 -1.8175
  113SOL     OW  337   2.021   1.926   1.910 -0.3320  0.2669  0.4345
  113SOL    HW1  338   2.071   1.843   1.945  1.4239  2.3352 -1.4625
  113SOL    HW2  339   2.062   1.964   1.823  1.3722  1.1198  1.4237
  114SOL     OW  340   0.076   0.997   1.410 -0.4196 -0.0912 -0.1275
  114SOL    HW1  341   0.021   0.916   1.431  0.8612 -0.3792 -3.9169
  114SOL    HW2  342   0.016   1.069   1.365 -0.0079 -0.7255  1.8505
  115SOL     OW  343   2.909   0.762   2.732 -0.0784 -0.4707 -0.1423
  115SOL    HW1  344   3.008   0.778   2.715 -0.1195 -1.9957 -0.6063
  115SOL    HW2  345   2.852   0.803   2.658  0.0341 -0.1485  3.0836
  116SOL     OW  346   2.625   0.447   2.684  0.7313  0.5809  1.0444
  116SOL    HW1  347   2.697   0.442   2.754 -0.7983 -0.8916  0.7941
  116SOL    HW2  348   2.661   0.458   2.589  1.4467  0.8026 -1.3164
  117SOL     OW  349   2.657   2.785   0.330  0.0794 -0.1180 -0.0638
  117SOL    HW1  350   2.684   2.717   0.402  0.1118  0.5833 -0.0153
  117SOL    HW2  351   2.650   2.733   0.242 -0.7051 -0.8520  1.5973
  118SOL     OW  352   0.564   1.946   2.078 -0.7714  0.0067 -0.1366
  118SOL    HW1  353   0.541   2.029   2.132 -0.6548 -0.2393 -0.4961
  118SOL    HW2  354   0.586   1.961   1.979 -2.1183 -0.4709 -3.4965
  119SOL     OW  355   0.587   2.920   0.316  0.3005  0.4174  0.2450
  119SOL    HW1  356   0.625   2.834   0.356 -1.3621  0.8963  0.6928
  119SOL    HW2  357   0.656   2.961   0.255  0.1920  0.8483 -0.3902
  120SOL     OW  358   1.476   0.822   0.394  0.2164 -0.0127  0.3866
  120SOL    HW1  359   1.433   0.833   0.482  0.0020 -2.2107 -1.8813
  120SOL    HW2  360   1.556   0.887   0.396  0.3958 -0.3242  1.4228
  121SOL     OW  361   1.820   0.397   0.725  0.0274  0.2086 -0.4345
  121SOL    HW1  362   1.798   0.407   0.826 -0.6677  0.7420  0.0444
  121SOL    HW2  363   1.799   0.476   0.667  0.1520  0.2126 -1.6494
  122SOL     OW  364   2.023   1.375   2.365  0.2471 -0.3765  0.2937
  122SOL    HW1  365   1.948   1.390   2.433  0.4534 -0.5289 -1.1659
  122SOL    HW2  366   2.011   1.440   2.282 -1.0487  2.4515 -0.0736
  123SOL     OW  367   1.037   1.027   0.848  0.0985 -0.3163 -0.1233
  123SOL    HW1  368   1.020   0.930   0.868  0.4412 -0.9454  1.3484
  123SOL    HW2  369   1.011   1.046   0.753  1.0041 -2.2850  1.1367
  124SOL     OW  370   0.704   0.614   2.732 -0.0600  0.0976 -0.1400
  124SOL    HW1  371   0.659   0.544   2.675  0.7374 -0.2147  1.0765
  124SOL    HW2  372   0.779   0.564   2.789  1.6239 -2.8375  3.6002
  125SOL     OW  373   1.000   0.312   0.121 -0.4471  0.0680 -0.6389
  125SOL    HW1  374   0.899   0.310   0.135 -1.4731 -2.1024  0.0400
  125SOL    HW2  375   1.046   0.353   0.196 -1.5597 -2.1877 -3.2014
  126SOL     OW  376   0.482   1.790   0.475 -0.3811 -0.5179  0.2851
  126SOL    HW1  377   0.387   1.780   0.512  2.2787  1.9086  0.3734
  126SOL    HW2  378   0.550   1.756   0.543 -3.2635 -0.2592  0.7751
  127SOL     OW  379   0.977   2.480   1.721  0.4520 -0.2741  0.4245
  127SOL    HW1  380   0.913   2.550   1.683  0.1188  0.3021  0.5608
  127SOL    HW2  381   1.070   2.513   1.731 -3.1404 -0.0971 -1.6871
  128SOL     OW  382   1.010   1.764   0.385 -0.0021  0.1988 -0.1534
  128SOL    HW1  383   0.999   1.690   0.314 -0.8055  0.9186  3.2672
  128SOL    HW2  384   0.982   1.855   0.350 -0.0692  0.9257 -1.3956
  129SOL     OW  385   1.752   1.615   2.245  0.3472  0.0247 -0.6446
  129SOL    HW1  386   1.666   1.602   2.190 -2.8411  0.3471 -0.6252
  129SOL    HW2  387   1.834   1.589   2.197 -1.3578 -0.1771 -1.3967
  130SOL     OW  388   2.092   2.005   1.667 -0.7937  0.2948  0.4849
  130SOL    HW1  389   2.153   2.046   1.602  0.9788 -0.9066  1.6586
  130SOL    HW2  390   2.050   1.920   1.624  0.8309  2.8247 -0.8611
  131SOL     OW  391   0.235   2.204   2.013 -0.4240  0.0953 -0.2224
  131SOL    HW1  392   0.199   2.108   2.004  0.3658 -1.3050  2.6000
  131SOL    HW2  393   0.171   2.277   1.992  0.4614  0.8683  0.5080
  132SOL     OW  394   2.611   1.914   0.522 -0.2858  0.9545 -0.0620
  132SOL    HW1  395   2.653   1.856   0.448 -0.1030 -1.1450  0.3388
  132SOL    HW2  396   2.644   2.013   0.526 -0.7811 -0.3980  0.1026
  133SOL     OW  397   0.545   0.988   1.772 -0.6289  0.1062 -0.8012
  133SOL    HW1  398   0.601   1.045   1.708  3.4810  0.8970  1.3837
  133SOL    HW2  399   0.561   1.029   1.866 -3.4285  0.5136  0.3100
  134SOL     OW  400   2.683   1.281   0.593  0.8305  0.0259 -0.1969
  134SOL    HW1  401   2.741   1.209   0.638 -2.9374 -0.7360 -1.2758
  134SOL    HW2  402   2.744   1.356   0.567  1.1652 -2.1697 -1.5494
  135SOL     OW  403   1.808   1.110   2.814  0.8477 -0.3712 -0.1249
  135SOL    HW1  404   1.846   1.174   2.880  0.8003 -0.1489  1.1191
  135SOL    HW2  405   1.840   1.129   2.720 -0.1504  0.3631 -1.4444
  136SOL     OW  406   2.738   1.669   0.986 -0.6095  0.3056 -1.0326
  136SOL    HW1  407   2.684   1.711   0.912 -2.0387  1.3603  1.4596
  136SOL    HW2  408   2.664   1.633   1.046  0.5980  2.7272 -0.3224
  137SOL     OW  409   2.334   1.815   0.527 -0.0056 -0.1011  0.2553
  137SOL    HW1  410   2.301   1.719   0.541  1.1101 -1.7898  1.0229
  137SOL    HW2  411   2.429   1.825   0.565 -0.3592 -1.1304 -0.7853
  138SOL     OW  412   2.628   0.564   0.643 -0.3048  0.3315 -0.3966
  138SOL    HW1  413   2.706   0.551   0.578  2.1377 -0.5501 -0.7504
  138SOL    HW2  414   2.542   0.581   0.588  0.3013 -0.3251  1.2384
  139SOL     OW  415   2.965   3.055   2.832 -0.4369  0.4878 -0.2334
  139SOL    HW1  416   2.948   3.054   2.931 -0.9202  1.1199 -0.0121
  139SOL    HW2  417   2.901   0.007   2.784  0.5359  1.7872  2.9249
  140SOL     OW  418   0.732   1.192   1.709 -0.4621  0.2658 -0.1000
  140SOL    HW1  419   0.769   1.221   1.802  0.5408 -0.2750 -1.1571
  140SOL    HW2  420   0.666   1.266   1.680  2.2748 -0.9604  0.5741
  141SOL     OW  421   1.324   1.548   0.829 -0.1027  0.3741  0.1112
  141SOL    HW1  422   1.354   1.492   0.905  1.0624  0.7250  0.4164
  141SOL    HW2  423   1.333   1.649   0.846 -0.7192 -3.5958  2.1334
  142SOL     OW  424   1.345   0.839   1.139 -0.5913 -0.1672  0.0244
  142SOL    HW1  425   1.375   0.749   1.176  4.4561 -1.5646 -0.4878
  142SOL    HW2  426   1.334   0.833   1.037  0.5707 -1.0921  1.2097
  143SOL     OW  427   0.732   0.896   2.731 -0.2565  0.9539 -0.1879
  143SOL    HW1  428   0.694   0.950   2.806 -0.9393  0.4879  0.9262
  143SOL    HW2  429   0.726   0.792   2.739  0.4386 -0.3046  1.8366
  144SOL     OW  430   2.731   3.051   0.161  0.1456 -0.3794 -0.0802
  144SOL    HW1  431   2.697   2.962   0.194  1.9091  2.9332 -0.9453
  144SOL    HW2  432   2.680   3.064   0.077 -0.8393  0.3093  2.8657
  145SOL     OW  433   2.296   0.329   2.837 -0.2974 -0.2264  0.2548
  145SOL    HW1  434   2.244   0.335   2.925  0.5782 -0.7560  1.3237
  145SOL    HW2  435   2.300   0.418   2.790 -0.2724 -2.1944 -0.4773
  146SOL     OW  436   3.032   3.049   0.378  0.1666  0.3684 -0.2320
  146SOL    HW1  437   3.027   2.984   0.300  0.5401  0.0304  2.3626
  146SOL    HW2  438   2.951   0.001   0.383 -0.5096 -1.1962 -2.2219
  147SOL     OW  439   1.519   1.241   2.766 -0.2476 -0.5459 -0.4254
  147SOL    HW1  440   1.535   1.183   2.852 -0.6914  0.9518 -1.0915
  147SOL    HW2  441   1.419   1.247   2.754  0.3686  2.6220 -1.4582
  148SOL     OW  442   1.297   0.001   0.239 -0.4150 -0.3416  0.1989
  148SOL    HW1  443   1.356   3.034   0.200  1.7842 -0.9141  0.4218
  148SOL    HW2  444   1.283   0.072   0.172  1.3728 -2.3008  3.4940
  149SOL     OW  445   1.480   0.841   2.140 -0.4096 -0.3216 -0.1076
  149SOL    HW1  446   1.385   0.814   2.171 -0.9156  0.2788 -0.0539
  149SOL    HW2  447   1.476   0.883   2.046 -0.0911 -3.6974 -0.8829
  150SOL     OW  448   1.864   0.034   2.842  0.4679 -0.5715  0.2533
  150SOL    HW1  449   1.860   0.103   2.918 -0.8834  1.4665  0.0831
  150SOL    HW2  450   1.950   3.091   2.853 -1.9303  1.3366 -1.7056
  151SOL     OW  451   0.407   1.343   0.423  0.9859  0.3665 -0.0593
  151SOL    HW1  452   0.340   1.384   0.359  0.5229 -2.0574  2.0735
  151SOL    HW2  453   0.388   1.248   0.455 -0.8527  0.0468  0.1389
  152SOL     OW  454   0.588   0.399   1.301 -0.0265  0.1909  0.0992
  152SOL    HW1  455   0.560   0.447   1.386 -0.2131  0.3350  1.4092
  152SOL    HW2  456   0.679   0.355   1.315 -0.2891  0.0049  1.2674
  153SOL     OW  457   2.560   2.992   2.165 -0.3467  0.2853  0.1807
  153SOL    HW1  458   2.541   3.078   2.108 -0.1237 -0.0234  1.3234
  153SOL    HW2  459   2.488   2.977   2.235  1.5979  2.8859 -0.0137
  154SOL     OW  460   2.087   2.935   2.315  0.0172  0.6829 -0.2182
  154SOL    HW1  461   2.108   3.026   2.278  0.2842  1.9019  2.5230
  154SOL    HW2  462   2.095   2.872   2.236 -1.2053 -2.1697  0.6868
  155SOL     OW  463   0.072   0.959   0.716 -0.1962  0.3388  0.0293
  155SOL    HW1  464   0.076   1.055   0.691  2.7522 -3.7038 -0.0494
  155SOL    HW2  465   0.122   0.942   0.802  2.7998  1.3214  3.0125
  156SOL     OW  466   2.179   1.548   0.595  0.9371  0.0250  0.1950
  156SOL    HW1  467   2.262   1.520   0.544  1.6322  1.1890 -4.3423
  156SOL    HW2  468   2.093   1.523   0.541  1.4690 -0.4112  1.7563
  157SOL     OW  469   0.887   0.234   2.961  0.1013 -0.5174 -0.1941
  157SOL    HW1  470   0.881   0.135   2.977  0.7785 -0.0948  2.6089
  157SOL    HW2  471   0.842   0.283   3.043 -0.2473  0.1780  0.8472
  158SOL     OW  472   1.819   1.309   1.289 -0.6026  0.0623 -0.7682
  158SOL    HW1  473   1.879   1.312   1.371  1.3830 -0.4884 -0.4071
  158SOL    HW2  474   1.868   1.247   1.222 -0.8810 -1.3873  1.6878
  159SOL     OW  475   3.074   0.415   0.245  0.0979  0.4887 -0.3532
  159SOL    HW1  476   0.037   0.348   0.269 -0.4892  0.2350 -0.0945
  159SOL    HW2  477   2.995   0.390   0.304  3.6547  1.0448  1.4819
  160SOL     OW  478   2.513   2.408   1.914 -0.9374  0.0189  0.5386
  160SOL    HW1  479   2.603   2.394   1.961  0.1973 -0.3241 -1.8922
  160SOL    HW2  480   2.446   2.440   1.983  0.7036 -0.1585  0.1577
  161SOL     OW  481   0.446   0.883   3.095  0.3952 -0.2058 -0.4181
  161SOL    HW1  482   0.501   0.921   3.022  1.7810 -1.4630  1.5364
  161SOL    HW2  483   0.363   0.835   3.062  1.0990  0.8164 -2.1894
  162SOL     OW  484   0.732   0.441   1.684  0.4836  0.0266  0.1997
  162SOL    HW1  485   0.635   0.452   1.650 -2.0901 -1.4383  0.7607
  162SOL    HW2  486   0.792   0.468   1.606 -1.1525  2.4205  1.8975
  163SOL     OW  487   2.632   0.238   2.388  0.4211  0.2765  0.2823
  163SOL    HW1  488   2.566   0.182   2.441  2.2435 -0.1769  1.3069
  163SOL    HW2  489   2.693   0.183   2.327  0.3236  1.3488  0.4527
  164SOL     OW  490   2.263   1.778   0.216  0.0698 -0.3438  0.1210
  164SOL    HW1  491   2.186   1.827   0.174 -1.4818 -0.8023 -1.6304
  164SOL    HW2  492   2.259   1.785   0.315 -0.5242  0.8814 -2.3706
  165SOL     OW  493   0.326   3.063   1.037  0.2978  0.0863  0.6892
  165SOL    HW1  494   0.268   3.076   0.956  1.9782  0.1447  0.6310
  165SOL    HW2  495   0.404   0.019   1.032  0.5468 -3.0811  1.3097
  166SOL     OW  496   2.909   0.208   2.947 -0.1862 -0.2086  0.6651
  166SOL    HW1  497   2.875   0.199   2.850 -0.4510  0.4455 -2.0856
  166SOL    HW2  498   2.926   0.122   3.004  2.1772 -1.7872  2.4467
  167SOL     OW  499   2.146   0.625   0.215 -0.1202  0.4055 -0.2184
  167SOL    HW1  500   2.092   0.709   0.228  2.5240 -1.5236 -0.7827
  167SOL    HW2  501   2.181   0.614   0.117  0.7134 -2.5395 -2.5168
  168SOL     OW  502   1.381   2.953   2.193  0.2126  0.7450  0.0198
  168SOL    HW1  503   1.380   3.010   2.275 -0.0713  0.2027  2.3174
  168SOL    HW2  504   1.293   2.901   2.183  1.0895  0.9324 -2.2437
  169SOL     OW  505   0.370   2.055   0.784  0.3007 -0.2862  0.0079
  169SOL    HW1  506   0.275   2.023   0.795 -3.5060 -0.7058 -0.0195
  169SOL    HW2  507   0.376   2.153   0.813 -2.9860  2.2751  0.8157
  170SOL     OW  508   0.253   0.380   1.608  0.4440  0.0108  0.2536
  170SOL    HW1  509   0.170   0.395   1.664  1.3934 -1.7517  0.7408
  170SOL    HW2  510   0.280   0.285   1.619 -0.4172  1.8569  0.0860
  171SOL     OW  511   2.643   1.433   2.537 -0.3005 -0.4649 -0.3904
  171SOL    HW1  512   2.653   1.424   2.431  0.8577  0.6452 -2.5051
  171SOL    HW2  513   2.585   1.510   2.567  0.5037 -2.1479  0.3069
  172SOL     OW  514   0.720   1.712   1.114 -0.1792  0.2561 -0.5214
  172SOL    HW1  515   0.744   1.652   1.040 -1.3390 -0.8899  1.0265
  172SOL    HW2  516   0.805   1.736   1.166  1.0959 -1.1456  1.2772
  173SOL     OW  517   1.933   2.191   3.031  0.4113  0.4903 -0.5316
  173SOL    HW1  518   1.881   2.103   3.024 -1.0810 -1.6899  3.9309
  173SOL    HW2  519   1.925   2.223   0.018 -2.4513  0.6288  1.9773
  174SOL     OW  520   1.874   0.774   2.885  0.1754  0.1481 -0.7799
  174SOL    HW1  521   1.827   0.777   2.794 -2.5054  1.1968 -1.3847
  174SOL    HW2  522   1.803   0.758   2.954 -0.6518  0.7579 -2.1706
  175SOL     OW  523   0.425   1.580   1.791  0.1761 -0.1868  0.4239
  175SOL    HW1  524   0.373   1.617   1.713 -2.3780 -3.1472 -1.0850
  175SOL    HW2  525   0.370   1.567   1.874 -0.0810  1.2832 -1.9490
  176SOL     OW  526   0.666   0.524   0.526 -0.1522 -0.1343  0.5653
  176SOL    HW1  527   0.638   0.467   0.606  0.1713  0.3625  0.5862
  176SOL    HW2  528   0.761   0.550   0.544 -4.7631 -2.0815  0.6069
  177SOL     OW  529   0.140   1.593   3.005 -0.6441 -0.0148 -0.0978
  177SOL    HW1  530   0.105   1.498   2.982 -2.0081 -1.6537 -1.7859
  177SOL    HW2  531   0.239   1.583   3.026  2.4969  0.6688 -0.0441
  178SOL     OW  532   0.031   1.945   2.347 -0.1482 -0.4142 -0.2062
  178SOL    HW1  533   0.110   1.963   2.287 -2.1827  1.1589 -1.7053
  178SOL    HW2  534   3.051   1.936   2.290 -0.6586 -1.5099  0.4277
  179SOL     OW  535   2.604   3.080   2.894  0.0991  0.7777  0.0825
  179SOL    HW1  536   2.603   0.066   2.856 -0.1256 -1.1631  0.5157
  179SOL    HW2  537   2.557   3.076   2.984  0.9757 -3.6885  0.0726
  180SOL     OW  538   2.489   0.564   0.886  0.2698 -0.0604  0.0976
  180SOL    HW1  539   2.390   0.584   0.877 -1.6560  3.2022 -1.6430
  180SOL    HW2  540   2.537   0.567   0.798 -1.0445  0.4179  3.2824
  181SOL     OW  541   2.890   0.031   2.435  0.3129 -0.0644 -0.2181
  181SOL    HW1  542   2.867   0.064   2.340  1.0057 -1.5038 -0.2273
  181SOL    HW2  543   2.915   3.043   2.435  1.7078  0.3620  3.0967
  182SOL     OW  544   2.349   2.466   2.598  0.4514 -0.4302 -0.3110
  182SOL    HW1  545   2.329   2.459   2.699  2.5878  2.5015  1.6263
  182SOL    HW2  546   2.276   2.424   2.540  3.7978 -3.1203  1.5316
  183SOL     OW  547   2.631   1.208   1.727 -0.1881 -0.9562 -0.7996
  183SOL    HW1  548   2.627   1.272   1.812 -0.9014  0.0697  1.6982
  183SOL    HW2  549   2.710   1.143   1.739  1.1767  0.7804 -1.6672
  184SOL     OW  550   2.903   1.451   0.857 -0.8306  0.5980 -0.3557
  184SOL    HW1  551   2.832   1.502   0.910  0.1275  1.0983  0.2206
  184SOL    HW2  552   2.959   1.514   0.803 -1.3833  1.6602  1.7667
  185SOL     OW  553   3.109   0.299   0.650  0.1294 -0.3312  0.9633
  185SOL    HW1  554   0.043   0.356   0.576 -0.0901  2.4834  0.4474
  185SOL    HW2  555   0.067   0.245   0.706  0.3928 -0.7457 -2.3662
  186SOL     OW  556   2.164   2.353   2.458  0.0356  0.1989  0.1077
  186SOL    HW1  557   2.079   2.377   2.501 -0.2234 -0.9669 -1.0855
  186SOL    HW2  558   2.160   2.256   2.425 -1.4286  0.4557  2.1484
  187SOL     OW  559   0.346   1.361   0.681  0.9213  0.2610 -0.6506
  187SOL    HW1  560   0.380   1.368   0.581  2.9191  1.5262 -1.4728
  187SOL    HW2  561   0.402   1.419   0.738 -0.3284 -0.9302 -3.0003
  188SOL     OW  562   1.704   1.774   0.475  0.2207 -0.1442 -0.1927
  188SOL    HW1  563   1.723   1.691   0.529  1.9450  0.2943 -0.8707
  188SOL    HW2  564   1.620   1.824   0.508 -1.3247  2.8126 -0.9803
  189SOL     OW  565   3.106   1.379   2.940  0.1097  0.1383  0.5987
  189SOL    HW1  566   0.009   1.329   2.856  2.8626  1.3105  2.3702
  189SOL    HW2  567   3.012   1.404   2.960  1.8149 -1.1127  3.0073
  190SOL     OW  568   2.439   0.351   2.145  0.7006  0.0099  0.6405
  190SOL    HW1  569   2.346   0.363   2.188  0.6316 -1.7759 -0.7485
  190SOL    HW2  570   2.509   0.330   2.210 -3.1325  0.7686 -0.8548
  191SOL     OW  571   1.040   0.840   2.255 -0.0513  0.5904 -0.4433
  191SOL    HW1  572   0.942   0.812   2.270 -0.5646 -0.5898  1.8324
  191SOL    HW2  573   1.044   0.941   2.239  1.7548  1.6070 -1.6665
  192SOL     OW  574   1.547   1.491   2.085 -0.0716  0.5105 -0.4252
  192SOL    HW1  575   1.516   1.502   1.988  1.0036  0.7172 -0.6824
  192SOL    HW2  576   1.612   1.411   2.083  2.0631  0.3865 -1.9971
  193SOL     OW  577   1.501   2.715   1.105 -0.2861  0.4628 -0.1022
  193SOL    HW1  578   1.582   2.766   1.124 -2.3636 -3.2934 -0.4048
  193SOL    HW2  579   1.489   2.702   1.001 -3.3150 -0.1983 -1.3927
  194SOL     OW  580   1.487   1.515   1.800 -0.1107 -0.3896  0.0616
  194SOL    HW1  581   1.579   1.494   1.758  2.5010 -2.7896 -1.0266
  194SOL    HW2  582   1.404   1.476   1.747 -0.9031  0.9163 -3.6955
  195SOL     OW  583   2.090   0.136   0.823 -0.1828  0.2186 -0.3445
  195SOL    HW1  584   2.140   0.219   0.853 -2.3710 -0.3810 -0.8279
  195SOL    HW2  585   2.008   0.116   0.880 -0.4662  1.7381 -0.0802
  196SOL     OW  586   1.312   1.398   2.529  0.5364  0.1670  0.2421
  196SOL    HW1  587   1.247   1.471   2.557  1.6449  1.4347  0.2283
  196SOL    HW2  588   1.285   1.305   2.565 -1.5212  2.9688  2.0110
  197SOL     OW  589   0.354   0.168   2.235 -0.0251  0.4267  0.4115
  197SOL    HW1  590   0.370   0.173   2.133  0.4938  1.3933  0.1846
  197SOL    HW2  591   0.360   0.065   2.256  0.9875  1.0597 -1.3586
  198SOL     OW  592   0.027   1.057   1.040 -0.5344 -0.4323  0.0369
  198SOL    HW1  593   0.082   0.980   1.002 -2.3898 -1.3855  4.7179
  198SOL    HW2  594   3.092   1.116   0.969  2.6587  0.4815 -0.2480
  199SOL     OW  595   0.363   2.312   0.892 -0.0822  0.0441 -0.1657
  199SOL    HW1  596   0.448   2.365   0.874  2.3072  0.4968 -1.6924
  199SOL    HW2  597   0.372   2.270   0.983  0.8867  0.8048  0.4635
  200SOL     OW  598   2.628   1.870   2.885  0.0695 -0.5159 -0.4189
  200SOL    HW1  599   2.666   1.874   2.981  0.7927  0.6346  0.7627
  200SOL    HW2  600   2.627   1.771   2.865 -0.5290 -0.3378  3.2765
  201SOL     OW  601   0.654   1.940   1.424  0.1464 -0.0702 -0.3881
  201SOL    HW1  602   0.723   1.865   1.438 -0.1249  0.9885  2.0302
  201SOL    HW2  603   0.644   1.974   1.325  2.8029  0.2091  0.1651
  202SOL     OW  604   1.047   2.322   0.017 -0.4208  0.7740  0.5006
  202SOL    HW1  605   1.013   2.381   0.095 -0.6098 -0.0589  1.3233
  202SOL    HW2  606   1.146   2.326   3.108  0.9133 -2.7241  1.4253
  203SOL     OW  607   1.681   0.326   2.209 -0.4445 -0.1550  0.6864
  203SOL    HW1  608   1.675   0.237   2.161  1.5498  0.0483  2.7095
  203SOL    HW2  609   1.606   0.390   2.176 -1.4131  1.3790  0.2885
  204SOL     OW  610   0.268   1.225   1.364 -0.6715 -0.0601  0.1465
  204SOL    HW1  611   0.238   1.242   1.266  0.9971  2.0972 -2.5049
  204SOL    HW2  612   0.211   1.149   1.404 -0.0022 -3.0713  0.6227
  205SOL     OW  613   2.581   1.583   2.844  0.2853 -0.0051 -0.1009
  205SOL    HW1  614   2.551   1.604   2.750  1.3860 -0.8006 -0.2297
  205SOL    HW2  615   2.514   1.539   2.902  1.6409 -2.3603  0.5654
  206SOL     OW  616   0.062   2.042   2.585 -0.5883  0.0987 -0.0428
  206SOL    HW1  617   3.094   2.030   2.644  1.1160  1.9809  0.4949
  206SOL    HW2  618   0.043   2.010   2.490 -0.4411  0.5399  2.5069
  207SOL     OW  619   0.823   2.915   1.708 -0.6359 -0.3372 -0.0524
  207SOL    HW1  620   0.879   2.921   1.791 -1.1373 -1.4584 -2.7424
  207SOL    HW2  621   0.828   2.991   1.638 -1.5316 -0.1742 -1.6039
  208SOL     OW  622   0.619   2.506   1.540  0.1820  0.3902 -0.2534
  208SOL    HW1  623   0.574   2.429   1.594 -2.4307 -0.9732  1.4463
  208SOL    HW2  624   0.667   2.467   1.461 -1.0593  0.7128  0.2131
  209SOL     OW  625   1.034   2.670   2.694  0.1513 -0.5877 -0.2208
  209SOL    HW1  626   0.960   2.702   2.632  0.5365 -0.9374  0.8391
  209SOL    HW2  627   1.086   2.750   2.735 -0.6402 -1.1619  1.1270
  210SOL     OW  628   2.766   1.589   2.063  0.1059  0.1499 -0.7032
  210SOL    HW1  629   2.824   1.554   2.142 -1.6178 -1.1351 -0.0824
  210SOL    HW2  630   2.705   1.663   2.095  1.6846 -1.0256 -3.3761
  211SOL     OW  631   1.157   3.097   2.055 -0.8588  0.5275 -0.3154
  211SOL    HW1  632   1.120   0.023   2.147  2.8890 -0.4189 -0.8945
  211SOL    HW2  633   1.235   0.047   2.025  2.4443  1.0688  1.9087
  212SOL     OW  634   1.395   2.470   1.752  0.9119 -0.4304 -0.3458
  212SOL    HW1  635   1.395   2.418   1.836  0.0307  0.9788 -0.3728
  212SOL    HW2  636   1.473   2.448   1.688 -1.5904 -1.5908 -1.1325
  213SOL     OW  637   2.639   0.838   1.848  0.1168  0.0514 -0.0146
  213SOL    HW1  638   2.543   0.853   1.849 -1.0935 -0.1386 -1.3803
  213SOL    HW2  639   2.671   0.843   1.754 -1.5349  0.0613  0.3320
  214SOL     OW  640   0.891   1.785   1.497  0.6426 -0.0203 -0.0361
  214SOL    HW1  641   0.981   1.792   1.453 -0.9686  1.2157  1.1645
  214SOL    HW2  642   0.905   1.793   1.597 -1.0296  0.2917 -2.5547
  215SOL     OW  643   2.595   2.355   0.918 -0.3334  0.6538 -0.0043
  215SOL    HW1  644   2.508   2.405   0.902  2.1937  2.2858 -0.7831
  215SOL    HW2  645   2.603   2.305   1.007 -0.5251 -1.0895 -0.2976
  216SOL     OW  646   3.001   0.819   1.468 -0.0319 -0.2858 -0.4185
  216SOL    HW1  647   2.997   0.725   1.427 -2.9620  1.5561  0.3790
  216SOL    HW2  648   2.903   0.856   1.468 -2.0629 -0.6447 -0.4551
  217SOL     OW  649   2.048   0.318   1.427  0.7589 -0.1478  0.0660
  217SOL    HW1  650   2.095   0.270   1.350 -0.2554 -1.4642  2.0870
  217SOL    HW2  651   1.947   0.293   1.427 -0.4944 -1.3486 -1.0609
  218SOL     OW  652   1.627   2.381   1.081  0.7584  0.0212 -0.3639
  218SOL    HW1  653   1.675   2.457   1.029 -0.7555  1.4368 -0.9587
  218SOL    HW2  654   1.554   2.423   1.138  1.4148 -1.1810 -0.0867
  219SOL     OW  655   1.334   2.237   0.061  0.1363  0.0741 -0.1183
  219SOL    HW1  656   1.424   2.280   0.019 -0.7729  0.1693 -1.3338
  219SOL    HW2  657   1.328   2.272   0.157 -0.1921 -1.0633 -2.3469
  220SOL     OW  658   1.607   2.492   2.862  0.5146 -0.1626 -0.0865
  220SOL    HW1  659   1.566   2.504   2.767  1.4273 -1.0726 -1.0329
  220SOL    HW2  660   1.692   2.437   2.856 -0.0644  2.9081 -0.4853
  221SOL     OW  661   0.286   2.404   1.379  0.4415 -0.1700 -0.3270
  221SOL    HW1  662   0.346   2.381   1.301  1.3682 -0.0308  0.9003
  221SOL    HW2  663   0.288   2.326   1.447  1.2367 -2.0274  0.4074
  222SOL     OW  664   2.069   2.579   0.974  0.0359  0.5227  0.0631
  222SOL    HW1  665   1.967   2.576   0.983 -0.3275  0.1248  1.9852
  222SOL    HW2  666   2.100   2.674   0.969  0.9652 -1.0421 -0.5275
  223SOL     OW  667   0.685   2.283   2.068 -0.1768 -0.1940  0.3028
  223SOL    HW1  668   0.706   2.201   2.006 -1.1707 -0.7381 -0.8455
  223SOL    HW2  669   0.593   2.310   2.056  2.0484  1.3290  1.4783
  224SOL     OW  670   2.925   2.409   1.329  0.2019  0.0404  0.3110
  224SOL    HW1  671   2.951   2.491   1.276 -0.6741 -0.7396  0.1771
  224SOL    HW2  672   2.852   2.432   1.391 -0.0400 -0.3085 -1.3600
  225SOL     OW  673   2.285   2.187   0.605 -0.3347 -0.2905 -0.0741
  225SOL    HW1  674   2.373   2.177   0.663  2.1659 -0.1509  2.2030
  225SOL    HW2  675   2.238   2.102   0.580  0.0813 -2.1444  0.2624
  226SOL     OW  676   1.478   2.440   0.432  0.2061 -0.0795  0.3676
  226SOL    HW1  677   1.404   2.398   0.374 -2.7903  1.7897  2.1802
  226SOL    HW2  678   1.439   2.443   0.527  1.5838 -0.5226 -1.3528
  227SOL     OW  679   1.874   0.706   0.824  0.0421  0.4272  0.4046
  227SOL    HW1  680   1.930   0.791   0.830 -1.0059 -2.4011 -3.1093
  227SOL    HW2  681   1.898   0.638   0.903 -2.0270 -0.2290 -0.7742
  228SOL     OW  682   1.155   0.445   2.178  0.1464 -0.0934 -1.0141
  228SOL    HW1  683   1.113   0.541   2.161 -0.9366  1.5615 -2.2334
  228SOL    HW2  684   1.118   0.408   2.265  1.6024  0.3240  1.8662
  229SOL     OW  685   0.074   1.047   2.911 -0.3608  0.9558  0.6741
  229SOL    HW1  686   0.022   0.984   2.970  0.7202 -1.3925 -2.4142
  229SOL    HW2  687   0.019   1.106   2.848  1.9123 -2.5963 -1.5806
  230SOL     OW  688   0.704   1.309   1.277 -0.6761  0.5143  0.0106
  230SOL    HW1  689   0.679   1.209   1.292 -1.7557  0.6079 -1.9246
  230SOL    HW2  690   0.802   1.338   1.297 -1.1039 -0.6433 -0.0966
  231SOL     OW  691   2.588   2.946   2.664  0.4661 -0.5570  0.2061
  231SOL    HW1  692   2.581   3.000   2.749 -0.0364  0.2003 -2.1402
  231SOL    HW2  693   2.555   3.007   2.587 -0.7519  0.1435 -0.3522
  232SOL     OW  694   0.362   2.403   0.180 -0.5879 -0.2774 -0.2206
  232SOL    HW1  695   0.285   2.411   0.244 -0.6783 -2.7951  0.3761
  232SOL    HW2  696   0.377   2.306   0.158  0.4044  2.3358  2.7394
  233SOL     OW  697   1.279   2.156   2.243 -0.1587  0.5246  0.0800
  233SOL    HW1  698   1.295   2.242   2.190 -0.2811  0.0108 -0.5555
  233SOL    HW2  699   1.297   2.173   2.345 -1.6009 -0.3773  2.2793
  234SOL     OW  700   1.287   1.380   1.664 -0.3109 -0.4006 -0.2486
  234SOL    HW1  701   1.289   1.334   1.575 -1.6425 -0.1159  1.1529
  234SOL    HW2  702   1.197   1.411   1.690  0.9659 -0.2016 -3.9373
  235SOL     OW  703   0.969   1.795   1.751 -0.4860  0.3972  0.5174
  235SOL    HW1  704   0.982   1.892   1.784  1.0199 -1.7271  0.1726
  235SOL    HW2  705   0.936   1.734   1.829 -0.3147  1.2681  1.5181
  236SOL     OW  706   1.517   2.953   2.690  0.0150  0.0034 -0.1818
  236SOL    HW1  707   1.605   2.936   2.637  1.0658 -0.4998  0.2863
  236SOL    HW2  708   1.500   2.879   2.758  0.1532  3.6463 -0.3300
  237SOL     OW  709   1.333   0.197   1.337  0.3578 -0.3360 -0.7645
  237SOL    HW1  710   1.267   0.247   1.394  0.7170 -0.2352  2.2831
  237SOL    HW2  711   1.396   0.139   1.391  1.3833 -1.3677 -1.7112
  238SOL     OW  712   1.401   0.667   2.776  0.2129 -0.1090  0.0297
  238SOL    HW1  713   1.418   0.710   2.687  2.4696 -3.2009  2.4706
  238SOL    HW2  714   1.302   0.650   2.791 -0.9930  0.1941  0.6660
  239SOL     OW  715   3.085   0.945   2.489  0.0587  0.5244 -0.2133
  239SOL    HW1  716   2.992   0.978   2.469 -1.3456  0.8005  1.9471
  239SOL    HW2  717   0.045   1.017   2.489 -0.5385  0.2832 -0.3164
  240SOL     OW  718   2.407   2.582   0.656 -0.2006 -0.7462 -0.4625
  240SOL    HW1  719   2.363   2.555   0.744 -0.9100  3.7135 -1.3398
  240SOL    HW2  720   2.385   2.521   0.578 -0.7553  0.7688  0.2270
  241SOL     OW  721   1.192   1.159   1.019  0.0326 -0.3083  0.6390
  241SOL    HW1  722   1.193   1.119   1.113  0.6738  2.4921  2.5561
  241SOL    HW2  723   1.134   1.108   0.950  0.5070 -1.6685 -0.7961
  242SOL     OW  724   0.534   0.718   0.885  0.5706 -0.1736  0.1905
  242SOL    HW1  725   0.619   0.779   0.878  1.1252 -1.5869 -2.8613
  242SOL    HW2  726   0.479   0.726   0.799 -0.2086 -2.4715  1.7780
  243SOL     OW  727   0.282   0.332   0.966 -0.0171 -0.8464 -0.4495
  243SOL    HW1  728   0.375   0.369   0.978 -0.6701 -1.2784  0.7616
  243SOL    HW2  729   0.266   0.240   0.920  1.6035 -0.3576  0.7153
  244SOL     OW  730   0.846   0.138   0.422  0.2747 -0.3890 -0.1293
  244SOL    HW1  731   0.754   0.161   0.388  2.8431  0.6923 -0.9392
  244SOL    HW2  732   0.885   0.223   0.469 -0.5915  2.5254  1.7252
  245SOL     OW  733   1.991   0.874   0.260 -0.6559 -0.0224 -0.1837
  245SOL    HW1  734   1.944   0.928   0.187 -0.1048  0.5207 -0.1240
  245SOL    HW2  735   2.085   0.908   0.290  2.5728  0.8250  1.7369
  246SOL     OW  736   3.098   0.855   1.717 -0.0339  0.0213 -0.1735
  246SOL    HW1  737   0.073   0.903   1.751  0.6245 -1.6829  1.0260
  246SOL    HW2  738   3.088   0.855   1.617 -0.4864 -0.2294  0.3159
  247SOL     OW  739   0.571   2.921   2.095 -0.3251 -0.3774 -0.0746
  247SOL    HW1  740   0.538   2.952   2.003  1.1655 -1.1087 -0.6444
  247SOL    HW2  741   0.674   2.897   2.096  4.5080 -0.1769  0.8988
  248SOL     OW  742   0.535   1.260   2.433  0.2270  0.2372  0.0894
  248SOL    HW1  743   0.634   1.254   2.458 -1.4604  2.9256 -1.7111
  248SOL    HW2  744   0.501   1.161   2.414  0.6273 -4.3058 -1.2775
  249SOL     OW  745   0.679   2.897   2.975 -0.8472  0.1451  0.0681
  249SOL    HW1  746   0.584   2.926   2.953  4.7911 -1.1555  1.0487
  249SOL    HW2  747   0.689   2.833   3.055 -1.6631  0.4201  2.5970
  250SOL     OW  748   0.582   0.270   2.344  0.0799 -0.4769 -0.0797
  250SOL    HW1  749   0.657   0.202   2.336 -1.5854 -0.3142 -1.8561
  250SOL    HW2  750   0.507   0.252   2.276 -1.0583  2.5043  1.3659
  251SOL     OW  751   2.939   1.627   1.150 -0.5805  0.5500  0.2663
  251SOL    HW1  752   2.867   1.664   1.088  0.9876 -0.7470 -1.0748
  251SOL    HW2  753   2.904   1.548   1.203 -0.5987 -1.9878 -2.3135
  252SOL     OW  754   1.807   2.954   1.990  0.1877 -0.2652  0.4011
  252SOL    HW1  755   1.782   2.888   1.915 -0.1865  1.0407  1.3356
  252SOL    HW2  756   1.896   2.922   2.029  1.2935 -0.0286  1.0852
  253SOL     OW  757   2.281   1.449   2.706 -0.1057 -0.4112 -0.0953
  253SOL    HW1  758   2.364   1.435   2.760  0.8203 -1.0425  2.3849
  253SOL    HW2  759   2.225   1.525   2.747  0.9646 -1.3566 -2.6906
  254SOL     OW  760   0.692   1.505   2.002  0.3476  0.0390  0.0439
  254SOL    HW1  761   0.621   1.551   1.954  3.5023  0.8486  1.2931
  254SOL    HW2  762   0.650   1.441   2.068  2.7949  1.1761 -0.7416
  255SOL     OW  763   0.863   0.040   1.548 -0.3083 -0.1179 -0.1287
  255SOL    HW1  764   0.960   0.046   1.560  0.6631  0.1386  0.9773
  255SOL    HW2  765   0.817   0.082   1.630 -1.6229  0.4756 -0.9111
  256SOL     OW  766   0.143   2.446   0.787  0.0556  0.7376 -0.1393
  256SOL    HW1  767   0.229   2.391   0.806  1.4074 -3.2077 -2.1670
  256SOL    HW2  768   0.111   2.490   0.874  1.2640 -0.4364  0.1590
  257SOL     OW  769   0.245   2.505   2.254  0.2758  0.3514  0.0353
  257SOL    HW1  770   0.268   2.425   2.313 -0.1827 -0.8485 -1.8187
  257SOL    HW2  771   0.326   2.567   2.242 -0.0068 -1.4275 -0.6272
  258SOL     OW  772   1.555   1.759   1.933 -0.0495 -0.2299  0.3546
  258SOL    HW1  773   1.506   1.686   1.886  1.3938 -0.5992  1.7021
  258SOL    HW2  774   1.490   1.836   1.957 -1.1714  0.8347 -1.7493
  259SOL     OW  775   1.177   1.451   2.182 -0.0940 -0.7257 -0.0640
  259SOL    HW1  776   1.153   1.502   2.093  2.7097  1.4124 -0.8777
  259SOL    HW2  777   1.228   1.515   2.242 -0.0338 -1.2915  0.4716
  260SOL     OW  778   2.348   0.685   2.252  0.0112  0.5800 -0.3946
  260SOL    HW1  779   2.341   0.784   2.246 -2.1786 -0.4871 -1.8386
  260SOL    HW2  780   2.278   0.635   2.201 -3.0812  1.4167 -2.9676
  261SOL     OW  781   0.940   1.105   0.608  0.2707 -0.1828 -0.2899
  261SOL    HW1  782   0.870   1.170   0.653 -2.0733 -1.8039  1.9042
  261SOL    HW2  783   0.881   1.023   0.578 -0.0480 -1.5971 -1.1001
  262SOL     OW  784   2.304   1.974   2.503  0.0339 -0.2697  0.1816
  262SOL    HW1  785   2.380   2.040   2.474  1.6806  1.5237 -1.4262
  262SOL    HW2  786   2.313   1.948   2.602 -1.0964 -1.1979 -1.9928
  263SOL     OW  787   0.857   2.142   1.183  0.3272 -0.2013 -0.2635
  263SOL    HW1  788   0.903   2.066   1.237 -0.8263 -3.0028  0.4513
  263SOL    HW2  789   0.844   2.098   1.090 -0.2999 -1.5612  1.0237
  264SOL     OW  790   0.122   2.476   0.338 -0.1663 -0.0001  0.3512
  264SOL    HW1  791   0.090   2.560   0.377 -0.0893 -3.5385 -1.4025
  264SOL    HW2  792   0.104   2.395   0.394 -1.4255 -0.4003  0.5741
  265SOL     OW  793   1.194   1.410   0.140  0.4094  0.3958  0.8424
  265SOL    HW1  794   1.286   1.369   0.111 -1.9330 -0.3519  1.7331
  265SOL    HW2  795   1.123   1.339   0.122  1.5858 -0.6482  1.3070
  266SOL     OW  796   0.814   1.871   2.191  0.1275  0.1358 -0.0711
  266SOL    HW1  797   0.859   1.960   2.208  1.3050 -0.9086 -1.8645
  266SOL    HW2  798   0.718   1.890   2.155  0.3287 -0.3094  2.0565
  267SOL     OW  799   2.227   1.177   2.383  0.2972  0.3206 -1.1344
  267SOL    HW1  800   2.241   1.136   2.476  0.8099 -0.7474  0.2604
  267SOL    HW2  801   2.140   1.228   2.387  2.8966 -1.4788 -0.2162
  268SOL     OW  802   0.916   1.312   0.361  0.1010 -0.0486  0.3137
  268SOL    HW1  803   0.955   1.302   0.266  0.4146 -1.3550 -1.3712
  268SOL    HW2  804   0.996   1.328   0.424 -0.7756 -1.9660 -0.3619
  269SOL     OW  805   2.623   1.926   2.534  0.3235 -0.6012  0.5749
  269SOL    HW1  806   2.595   2.009   2.590 -1.4704  2.2946  1.4178
  269SOL    HW2  807   2.724   1.928   2.521  0.4153  0.7559  0.8958
  270SOL     OW  808   0.773   2.106   3.068 -0.1223  0.6470  0.2351
  270SOL    HW1  809   0.699   2.055   3.020 -0.3707 -1.7350 -1.2831
  270SOL    HW2  810   0.797   2.181   3.008 -1.4361 -1.9673  2.1421
  271SOL     OW  811   0.149   0.609   0.189  0.1111 -0.3892 -0.2769
  271SOL    HW1  812   0.097   0.523   0.201 -1.6501 -0.9379  0.8681
  271SOL    HW2  813   0.189   0.621   0.096 -1.0713  0.7698 -1.1707
  272SOL     OW  814   2.810   0.119   0.341  0.2669 -0.1603  0.2120
  272SOL    HW1  815   2.766   0.208   0.323  1.1830 -0.8258 -0.0086
  272SOL    HW2  816   2.774   0.048   0.271  0.1340 -0.5243 -0.1615
  273SOL     OW  817   0.394   3.042   1.863 -0.3475  0.7907  0.3432
  273SOL    HW1  818   0.474   2.996   1.819  2.9430 -0.1985  0.2984
  273SOL    HW2  819   0.319   2.976   1.882  1.3101 -0.6325  2.2115
  274SOL     OW  820   3.003   0.568   1.361 -0.0656 -0.0811  0.4258
  274SOL    HW1  821   2.950   0.491   1.399  3.3971 -0.3431 -1.0130
  274SOL    HW2  822   3.102   0.552   1.375  1.0047 -0.7088  0.9839
  275SOL     OW  823   0.664   1.378   0.988  0.4895 -0.1221 -0.3516
  275SOL    HW1  824   0.746   1.436   0.987 -3.6483 -0.4287 -0.1429
  275SOL    HW2  825   0.649   1.330   1.080 -1.5623 -1.0576  2.8385
  276SOL     OW  826   0.639   1.094   2.088  0.2820 -0.0218  0.0106
  276SOL    HW1  827   0.590   1.177   2.117 -3.0490 -0.5898  0.9973
  276SOL    HW2  828   0.604   1.005   2.133 -0.4196 -1.7031  2.2046
  277SOL     OW  829   1.268   1.910   1.867 -0.0200  0.3169  0.0395
  277SOL    HW1  830   1.325   1.955   1.938  1.0600 -1.6141 -0.3335
  277SOL    HW2  831   1.203   1.980   1.836  0.8950  1.1665 -2.0109
  278SOL     OW  832   2.355   2.645   2.337 -0.1361 -0.1719 -0.4661
  278SOL    HW1  833   2.336   2.629   2.240  0.0287  0.9234 -0.7295
  278SOL    HW2  834   2.340   2.565   2.396 -2.5082 -0.3619 -1.5005
  279SOL     OW  835   1.183   1.836   3.076  0.1249  0.5229  0.0239
  279SOL    HW1  836   1.225   1.783   0.042  2.4407 -2.9895 -0.4828
  279SOL    HW2  837   1.127   1.911   0.004  2.0833 -1.4711 -0.3634
  280SOL     OW  838   1.219   0.185   0.489  0.1153 -0.6283  0.4817
  280SOL    HW1  839   1.303   0.175   0.549  1.5912 -0.3710  2.4584
  280SOL    HW2  840   1.191   0.095   0.456 -1.4221  0.3933  2.3971
  281SOL     OW  841   0.506   0.502   1.586  0.2950 -0.8997  0.2717
  281SOL    HW1  842   0.499   0.603   1.610 -2.7442  1.0245 -0.7820
  281SOL    HW2  843   0.418   0.452   1.608 -2.1731 -3.8765 -0.6959
  282SOL     OW  844   0.233   2.647   0.599 -0.1062  0.5859 -0.3157
  282SOL    HW1  845   0.196   2.579   0.668 -0.8376 -1.6618 -2.2047
  282SOL    HW2  846   0.158   2.677   0.540  1.7786  0.7378  0.7047
  283SOL     OW  847   1.337   1.746   1.673 -0.2274 -0.1245 -1.0856
  283SOL    HW1  848   1.251   1.695   1.659 -0.9061 -1.4810  2.4094
  283SOL    HW2  849   1.319   1.810   1.753 -0.6908  0.2915  1.4251
  284SOL     OW  850   2.730   2.840   1.516  0.0124  0.1171  0.2279
  284SOL    HW1  851   2.720   2.944   1.498 -0.5623  2.1028  3.5859
  284SOL    HW2  852   2.778   2.787   1.440 -0.1388 -0.0521  0.5793
  285SOL     OW  853   0.120   2.586   0.067  0.7117  0.1692  0.4562
  285SOL    HW1  854   0.022   2.604   0.040  3.3182 -2.0204 -0.3243
  285SOL    HW2  855   0.126   2.534   0.157 -0.6123 -2.7548  3.0622
  286SOL     OW  856   0.456   2.625   1.234  0.1976  0.4203 -0.1024
  286SOL    HW1  857   0.416   2.686   1.308 -1.7083 -0.8355  0.9973
  286SOL    HW2  858   0.463   2.678   1.147  0.7173  0.1724 -0.1317
  287SOL     OW  859   0.686   1.372   0.525  0.4858  0.0773  0.4216
  287SOL    HW1  860   0.591   1.369   0.487  0.1604 -2.3985  0.0692
  287SOL    HW2  861   0.757   1.381   0.452  2.5495  1.3540 -0.3007
  288SOL     OW  862   1.795   2.162   2.685  0.2011 -1.2364 -0.3002
  288SOL    HW1  863   1.705   2.120   2.707  0.2976 -2.0954 -2.0412
  288SOL    HW2  864   1.817   2.242   2.752  0.9649  0.3879 -0.8581
  289SOL     OW  865   2.506   1.667   0.166 -0.2253 -0.2862  0.1868
  289SOL    HW1  866   2.424   1.706   0.212 -1.8430  0.3483 -2.1988
  289SOL    HW2  867   2.496   1.564   0.162 -1.3299  0.4610  1.6264
  290SOL     OW  868   1.364   1.375   1.038  0.3337  0.3463  0.0791
  290SOL    HW1  869   1.332   1.428   1.119  1.5768  0.5055 -1.6980
  290SOL    HW2  870   1.299   1.302   1.026 -0.4821 -0.5131  2.8833
  291SOL     OW  871   1.392   1.244   0.070 -0.1462  0.4682  0.2573
  291SOL    HW1  872   1.403   1.201   0.162 -0.8086  2.9041  2.9359
  291SOL    HW2  873   1.452   1.204   3.105 -0.1786  0.0919 -2.2682
  292SOL     OW  874   1.349   1.629   0.186 -0.3640  0.1447  0.8386
  292SOL    HW1  875   1.281   1.561   0.154 -0.7669  1.9486 -0.6213
  292SOL    HW2  876   1.433   1.625   0.127  1.6546  1.3904  0.1436
  293SOL     OW  877   1.467   3.080   1.127 -0.0498  0.8254  0.1043
  293SOL    HW1  878   1.486   0.016   1.219  1.4580  0.7645  0.9660
  293SOL    HW2  879   1.383   3.019   1.139  0.3729  4.5789  0.9445
  294SOL     OW  880   2.264   1.012   2.624  1.1390 -0.1147 -0.1775
  294SOL    HW1  881   2.355   0.980   2.650  0.7596  0.1236 -1.6485
  294SOL    HW2  882   2.196   0.979   2.696 -0.8634 -3.2880  0.6263
  295SOL     OW  883   1.711   1.974   2.967  0.0424  0.1217  0.4682
  295SOL    HW1  884   1.669   1.951   3.056  0.9036  3.2718 -0.1902
  295SOL    HW2  885   1.752   1.896   2.915  1.5384  0.5281 -0.8096
  296SOL     OW  886   1.182   1.037   1.255  0.4509 -0.1512  0.3476
  296SOL    HW1  887   1.119   0.992   1.323 -1.2487 -0.8175  1.9133
  296SOL    HW2  888   1.234   0.963   1.210 -0.0731  0.0462  0.4801
  297SOL     OW  889   0.205   0.796   2.060  0.1414  0.1704 -0.1562
  297SOL    HW1  890   0.221   0.735   1.976 -0.4530 -1.3394  0.0491
  297SOL    HW2  891   0.176   0.740   2.141 -1.9047 -2.8183  0.2440
  298SOL     OW  892   1.480   1.778   1.284 -0.2477 -0.0563  0.4165
  298SOL    HW1  893   1.476   1.848   1.356 -0.3015 -2.5391 -1.6575
  298SOL    HW2  894   1.526   1.693   1.313 -0.2539 -0.2942  1.3284
  299SOL     OW  895   1.094   3.046   2.582  0.0458  0.1126  0.4217
  299SOL    HW1  896   1.177   2.991   2.565 -3.1138 -1.4651  0.8978
  299SOL    HW2  897   1.027   2.994   2.636 -0.4326 -0.9668 -0.8078
  300SOL     OW  898   2.707   2.182   0.543  0.4837  0.4431  0.1368
  300SOL    HW1  899   2.805   2.168   0.562  0.1182  0.0244 -2.9492
  300SOL    HW2  900   2.701   2.239   0.455  1.0001  2.6550 -0.6861
  301SOL     OW  901   2.202   0.394   2.515  0.2396 -0.4006  0.2543
  301SOL    HW1  902   2.186   0.316   2.455  0.9522 -2.8764  0.8077
  301SOL    HW2  903   2.296   0.426   2.493 -2.8890 -2.7420  2.8659
  302SOL     OW  904   2.376   2.309   3.078 -0.5017  1.1241 -0.2891
  302SOL    HW1  905   2.389   2.240   0.045  2.0091 -0.7449  1.2116
  302SOL    HW2  906   2.462   2.360   3.069  1.6845 -1.1814  2.2730
  303SOL     OW  907   0.103   2.410   2.656 -0.5494 -0.0561 -0.1373
  303SOL    HW1  908   0.111   2.513   2.655 -0.7428  1.3454  2.4748
  303SOL    HW2  909   0.027   2.379   2.719  0.5882 -1.3153 -0.8944
  304SOL     OW  910   0.073   1.505   1.031  0.0207  0.7482  0.4977
  304SOL    HW1  911   3.105   1.543   1.089 -1.6378 -3.3033  0.8270
  304SOL    HW2  912   0.151   1.569   1.035 -0.6865  0.1973  1.2337
  305SOL     OW  913   2.966   0.636   1.799 -0.2157  0.1133  0.4625
  305SOL    HW1  914   3.024   0.709   1.762  0.8194 -0.7748  0.0862
  305SOL    HW2  915   2.901   0.605   1.725  0.2486  0.0060 -2.1162
  306SOL     OW  916   1.361   1.361   0.613 -0.1243  0.1916  0.2682
  306SOL    HW1  917   1.354   1.427   0.693 -0.4159 -0.6771  4.9472
  306SOL    HW2  918   1.405   1.397   0.531 -0.6423  0.6486 -0.7359
  307SOL     OW  919   0.264   0.050   0.598 -0.0550 -0.7638 -0.3375
  307SOL    HW1  920   0.232   0.020   0.505  1.0387  3.1054  0.3214
  307SOL    HW2  921   0.301   0.146   0.600  0.7747  2.1750 -0.6739
  308SOL     OW  922   0.075   1.196   2.200 -0.0887 -0.1783  0.2683
  308SOL    HW1  923   0.114   1.161   2.289 -1.4370  0.8020  0.7998
  308SOL    HW2  924   0.082   1.125   2.124  0.5372 -1.8595  3.2093
  309SOL     OW  925   2.887   1.956   2.529  0.1925  0.4815 -0.0632
  309SOL    HW1  926   2.900   1.939   2.428 -0.1052  0.7210  0.1666
  309SOL    HW2  927   2.939   1.884   2.578 -1.2067  1.7933 -1.5207
  310SOL     OW  928   2.379   0.652   0.047 -0.4138  0.9424 -0.5426
  310SOL    HW1  929   2.481   0.642   0.059 -0.5656  1.1728 -0.3455
  310SOL    HW2  930   2.371   0.687   3.062  0.6783  0.8073 -0.6480
  311SOL     OW  931   2.099   0.942   2.856 -0.2649 -0.2002 -0.0889
  311SOL    HW1  932   2.081   1.042   2.868 -2.9270 -1.4033 -1.3755
  311SOL    HW2  933   2.012   0.888   2.870 -2.2791  0.8600 -1.9360
  312SOL     OW  934   1.507   1.973   2.512  0.3225  0.4160  0.1985
  312SOL    HW1  935   1.588   1.944   2.458 -2.1310 -1.1868  0.8581
  312SOL    HW2  936   1.528   1.995   2.609  1.3905  1.4039  1.8377
  313SOL     OW  937   0.286   0.650   0.420 -0.1967 -0.6298  0.2741
  313SOL    HW1  938   0.245   0.656   0.326 -0.8779  0.3601 -2.0632
  313SOL    HW2  939   0.218   0.692   0.484 -2.2358 -1.5149 -0.8196
  314SOL     OW  940   0.478   1.638   1.232 -0.1640 -0.0446 -0.3362
  314SOL    HW1  941   0.571   1.664   1.208 -0.7544  3.6245 -0.0650
  314SOL    HW2  942   0.476   1.559   1.305 -1.0132 -1.2475  1.7620
  315SOL     OW  943   0.891   1.687   2.000  0.3006 -0.5607  0.8699
  315SOL    HW1  944   0.819   1.617   1.997 -0.9158 -1.2869 -2.5435
  315SOL    HW2  945   0.868   1.757   2.077 -0.5354 -0.1352  0.9307
  316SOL     OW  946   0.490   2.616   0.556  0.3053  0.0993 -0.3087
  316SOL    HW1  947   0.390   2.607   0.537  0.1538  0.8383 -0.8423
  316SOL    HW2  948   0.513   2.677   0.637 -0.4718  1.3850 -0.7045
  317SOL     OW  949   2.171   0.240   1.179 -0.3010  0.1839 -0.0332
  317SOL    HW1  950   2.254   0.181   1.151  0.9259 -0.1204 -0.9326
  317SOL    HW2  951   2.162   0.326   1.124  1.9953 -2.7709 -0.1303
  318SOL     OW  952   1.784   0.133   0.409 -0.2732 -0.2995  0.0198
  318SOL    HW1  953   1.756   0.231   0.374  0.1232  1.6456  0.3743
  318SOL    HW2  954   1.883   0.113   0.390  2.5357  1.3300 -0.6945
  319SOL     OW  955   1.766   0.692   2.643 -0.7450 -0.6920  0.5639
  319SOL    HW1  956   1.770   0.772   2.579  1.3691  1.0873 -1.6963
  319SOL    HW2  957   1.830   0.619   2.616  1.1330 -0.2960 -0.4572
  320SOL     OW  958   2.791   2.212   1.965  0.3299 -0.8711  0.4214
  320SOL    HW1  959   2.775   2.308   2.000  0.2113 -0.3626 -0.2511
  320SOL    HW2  960   2.705   2.157   1.957 -1.6407 -1.8059  2.3646
  321SOL     OW  961   0.452   2.256   3.013  0.5100  0.4978  0.3385
  321SOL    HW1  962   0.536   2.304   3.035 -0.7454 -0.1807 -1.3384
  321SOL    HW2  963   0.369   2.313   3.033  0.1508  0.3438  1.2625
  322SOL     OW  964   2.413   0.532   2.476 -0.0694 -0.2359  0.3535
  322SOL    HW1  965   2.393   0.600   2.400 -0.4438 -1.0017 -0.9736
  322SOL    HW2  966   2.512   0.509   2.473  0.1908  1.7119 -0.0438
  323SOL     OW  967   2.287   0.894   0.757 -0.1414 -0.1844 -0.4616
  323SOL    HW1  968   2.382   0.877   0.795  1.0170 -1.2250 -0.0545
  323SOL    HW2  969   2.272   0.855   0.663  1.1176 -1.7828 -2.2389
  324SOL     OW  970   0.225   0.303   1.214  0.2109 -0.5430  0.3051
  324SOL    HW1  971   0.253   0.318   1.115  1.2352 -1.7085 -0.9345
  324SOL    HW2  972   0.208   0.396   1.260 -0.5554  2.1661  1.6084
  325SOL     OW  973   2.540   0.116   1.627 -0.1154  0.1414 -0.4414
  325SOL    HW1  974   2.579   0.188   1.688  0.0432 -0.2848 -0.8860
  325SOL    HW2  975   2.500   0.157   1.543 -2.5633 -2.0336  1.6543
  326SOL     OW  976   1.457   2.886   0.170  0.4309  0.5249  0.7507
  326SOL    HW1  977   1.502   2.822   0.235 -2.1334  1.1900 -0.3788
  326SOL    HW2  978   1.530   2.940   0.131  2.1896 -2.0395  1.3864
  327SOL     OW  979   1.774   1.978   0.314 -0.4832 -0.0807 -0.2887
  327SOL    HW1  980   1.744   2.075   0.338  0.6224  0.3473  0.4638
  327SOL    HW2  981   1.757   1.910   0.382  2.1106 -0.8126 -2.7458
  328SOL     OW  982   3.040   2.086   2.102 -0.3917  0.0117 -0.1930
  328SOL    HW1  983   2.964   2.098   2.036 -2.5693 -1.6934  0.0374
  328SOL    HW2  984   3.016   2.143   2.184 -0.9971 -1.1114 -1.8730
  329SOL     OW  985   3.003   2.115   1.241 -0.7792 -0.2350 -0.0512
  329SOL    HW1  986   2.960   2.205   1.267 -3.0390 -0.6929  2.8455
  329SOL    HW2  987   2.985   2.037   1.305  2.2932 -2.0843 -0.5101
  330SOL     OW  988   2.741   0.831   2.509  0.4562  0.5175 -0.0182
  330SOL    HW1  989   2.735   0.731   2.491  0.8645 -1.6803  0.5861
  330SOL    HW2  990   2.739   0.881   2.418 -0.8205 -2.3474 -1.8487
  331SOL     OW  991   2.386   1.938   0.847 -0.1223 -0.5005 -0.1478
  331SOL    HW1  992   2.291   1.955   0.888 -1.6296 -0.2194  0.2428
  331SOL    HW2  993   2.423   2.019   0.793  1.8044  1.3652 -2.9856
  332SOL     OW  994   0.433   2.801   1.015  0.3412 -0.1989  0.5744
  332SOL    HW1  995   0.452   2.896   1.041  0.2023 -3.5588 -3.3162
  332SOL    HW2  996   0.333   2.776   1.007  0.6309 -0.2952  1.1724
  333SOL     OW  997   2.535   1.933   2.275 -0.6321 -0.3227 -0.3721
  333SOL    HW1  998   2.476   2.018   2.265 -0.9809 -0.3771  0.9483
  333SOL    HW2  999   2.574   1.934   2.366  0.0525  1.4017  1.0541
  334SOL     OW 1000   0.716   0.946   0.877 -0.3038  0.0931 -0.4403
  334SOL    HW1 1001   0.757   0.949   0.971  0.6606  3.2141  1.5711
  334SOL    HW2 1002   0.713   1.042   0.837 -1.0241  2.2451  1.6195
  335SOL     OW 1003   2.908   1.878   2.256  0.2607  0.1556 -0.0717
  335SOL    HW1 1004   2.931   1.782   2.265 -1.8193  2.7116  0.1332
  335SOL    HW2 1005   2.879   1.893   2.158  3.8269  0.7046  1.5571
  336SOL     OW 1006   2.361   2.922   2.341  0.1689  0.9692 -0.5306
  336SOL    HW1 1007   2.365   2.820   2.347 -0.8377 -0.9174  0.0047
  336SOL    HW2 1008   2.265   2.943   2.333 -1.8958 -1.5019  1.0685
  337SOL     OW 1009   0.898   0.619   0.663  0.3451 -0.4475  0.1464
  337SOL    HW1 1010   0.886   0.716   0.684  1.1978 -3.4447 -0.0445
  337SOL    HW2 1011   0.888   0.558   0.748  0.7920 -1.5509  1.8614
  338SOL     OW 1012   1.545   1.866   1.037 -0.8570  0.3099  0.3873
  338SOL    HW1 1013   1.502   1.824   1.121  0.1735 -0.5387 -1.0904
  338SOL    HW2 1014   1.595   1.950   1.064 -0.1182 -1.0560  2.4433
  339SOL     OW 1015   0.292   1.663   1.031  0.3684  0.4543  0.5711
  339SOL    HW1 1016   0.368   1.657   1.099 -2.2310 -1.0325 -0.6497
  339SOL    HW2 1017   0.234   1.744   1.044  2.0825  0.4129 -1.7930
  340SOL     OW 1018   1.009   2.919   1.921  0.6727 -0.5552  0.0084
  340SOL    HW1 1019   1.066   2.850   1.872  1.7158  1.1537 -1.7496
  340SOL    HW2 1020   1.057   2.995   1.968  0.4336 -1.0293 -0.6325
  341SOL     OW 1021   2.126   1.523   0.852 -0.1184  0.4869 -0.2466
  341SOL    HW1 1022   2.085   1.434   0.887  1.9584 -0.4975  2.9263
  341SOL    HW2 1023   2.149   1.522   0.752 -1.0464  1.3924 -0.0800
  342SOL     OW 1024   2.241   0.997   0.311  0.0755  0.1704 -0.1901
  342SOL    HW1 1025   2.323   0.942   0.282  0.3877 -0.1106 -3.1420
  342SOL    HW2 1026   2.226   1.070   0.240 -3.2869 -0.4032  0.7537
  343SOL     OW 1027   1.936   0.104   1.075  0.2997 -0.1679 -0.4766
  343SOL    HW1 1028   2.018   0.157   1.108  0.7832  1.9421  0.5999
  343SOL    HW2 1029   1.957   0.004   1.084  1.6057  2.3780  2.4119
  344SOL     OW 1030   2.722   0.351   3.081  0.5972  0.1456  0.4528
  344SOL    HW1 1031   2.796   0.309   3.026  0.5348 -0.3626 -0.2245
  344SOL    HW2 1032   2.627   0.337   3.041 -2.1184 -0.4027 -0.9084
  345SOL     OW 1033   0.944   2.326   1.966 -0.2299 -0.3284 -0.2954
  345SOL    HW1 1034   0.955   2.394   1.892 -2.4103 -0.6987 -0.6705
  345SOL    HW2 1035   0.856   2.334   2.010 -0.9185 -1.4314 -1.1560
  346SOL     OW 1036   2.340   2.504   0.907  0.0335  0.3301 -0.1520
  346SOL    HW1 1037   2.246   2.514   0.946  3.5214  3.0972 -1.0327
  346SOL    HW2 1038   2.396   2.572   0.955  0.9241 -1.7740  0.3252
  347SOL     OW 1039   2.106   3.079   1.415 -0.0478  0.2151 -0.5369
  347SOL    HW1 1040   2.153   0.052   1.381  0.0312  0.9252  2.0003
  347SOL    HW2 1041   2.013   3.088   1.452  1.1598 -0.6167 -1.2516
  348SOL     OW 1042   0.815   0.741   1.357  0.0602  0.5321  0.5871
  348SOL    HW1 1043   0.718   0.761   1.375 -0.2118 -0.5222  1.1631
  348SOL    HW2 1044   0.838   0.713   1.257 -0.9956  0.3563 -1.9685
  349SOL     OW 1045   2.412   0.610   2.741  0.6316  0.9532 -0.0492
  349SOL    HW1 1046   2.386   0.619   2.641 -0.1409  1.6020  0.7063
  349SOL    HW2 1047   2.495   0.548   2.742 -0.1770  1.3645  1.1987
  350SOL     OW 1048   2.244   2.080   2.968 -0.1425  0.1222  0.1305
  350SOL    HW1 1049   2.154   2.122   2.974 -1.4623  0.2362 -0.2088
  350SOL    HW2 1050   2.312   2.141   3.010  2.4239  0.0426 -1.3877
  351SOL     OW 1051   1.155   0.421   0.339  0.3171 -1.0024 -0.3787
  351SOL    HW1 1052   1.165   0.503   0.403 -1.3359  2.4783 -0.9984
  351SOL    HW2 1053   1.158   0.331   0.386  1.1072 -0.8289 -2.8233
  352SOL     OW 1054   1.553   2.034   2.767 -0.0443 -0.7078 -0.1570
  352SOL    HW1 1055   1.610   2.005   2.848  1.3777 -0.5838 -0.7199
  352SOL    HW2 1056   1.456   2.048   2.793  0.0241  0.4833  0.4735
  353SOL     OW 1057   0.582   1.092   2.932  0.5302  0.0598 -0.1965
  353SOL    HW1 1058   0.488   1.133   2.926 -0.8720  3.7576  0.1025
  353SOL    HW2 1059   0.646   1.161   2.893  0.5433 -1.5061 -0.4588
  354SOL     OW 1060   0.550   2.528   2.786  0.2356  0.6281 -0.0699
  354SOL    HW1 1061   0.547   2.434   2.749  0.3617 -1.4893 -0.2471
  354SOL    HW2 1062   0.648   2.563   2.810 -0.0143 -0.0002 -1.7921
  355SOL     OW 1063   2.633   2.848   1.768 -0.2011 -0.0925 -0.6561
  355SOL    HW1 1064   2.706   2.886   1.826 -1.6004 -1.8737  1.8326
  355SOL    HW2 1065   2.678   2.826   1.679 -0.5614 -0.1688  1.0774
  356SOL     OW 1066   2.696   1.256   1.325  0.0109  0.0583 -0.3995
  356SOL    HW1 1067   2.759   1.294   1.249 -0.0465  0.4099 -1.0219
  356SOL    HW2 1068   2.601   1.295   1.318  0.4530  0.8890  0.9696
  357SOL     OW 1069   2.640   0.392   1.338 -0.0592  0.5551 -0.0718
  357SOL    HW1 1070   2.709   0.414   1.410 -0.6594  2.0891  1.3418
  357SOL    HW2 1071   2.681   0.349   1.256 -1.8221 -1.3652 -1.3192
  358SOL     OW 1072   0.313   1.705   1.565 -0.2622 -0.0867 -0.0474
  358SOL    HW1 1073   0.358   1.771   1.503 -0.7516 -0.1277 -0.1430
  358SOL    HW2 1074   0.251   1.754   1.629 -3.2083 -0.0668 -2.7067
  359SOL     OW 1075   2.779   2.770   2.593 -0.4500 -0.4846 -0.4927
  359SOL    HW1 1076   2.712   2.843   2.619  0.7264  0.1813 -0.8056
  359SOL    HW2 1077   2.729   2.681   2.592 -3.2225  0.3173 -1.3746
  360SOL     OW 1078   1.136   0.645   1.582  0.2666  0.2866  0.4647
  360SOL    HW1 1079   1.038   0.616   1.576 -1.3604 -0.2595  0.7295
  360SOL    HW2 1080   1.159   0.676   1.675  0.9708 -1.5951  1.4484
  361SOL     OW 1081   2.268   3.028   0.840  0.0350  0.1043 -0.9644
  361SOL    HW1 1082   2.186   3.091   0.834 -1.4730  1.4807 -1.0781
  361SOL    HW2 1083   2.329   3.028   0.758  1.3196  0.6487  1.5216
  362SOL     OW 1084   0.928   3.005   0.577  0.4732  0.7459 -0.5637
  362SOL    HW1 1085   0.887   3.094   0.543 -3.8929 -2.6853 -1.0701
  362SOL    HW2 1086   1.023   2.990   0.547  0.4503 -0.2663 -2.3505
  363SOL     OW 1087   1.072   1.519   0.750  0.5396  0.3446 -0.7694
  363SOL    HW1 1088   1.082   1.461   0.668  0.4531 -1.3151  0.8046
  363SOL    HW2 1089   1.165   1.530   0.792 -2.9611 -0.8335 -0.8697
  364SOL     OW 1090   0.498   0.746   1.697 -0.0513  0.7576  0.3244
  364SOL    HW1 1091   0.441   0.696   1.766 -1.1766  0.4672  1.5997
  364SOL    HW2 1092   0.516   0.842   1.727 -1.7493 -1.3036 -1.0698
  365SOL     OW 1093   2.941   0.872   0.943 -0.2343  0.0747  0.0804
  365SOL    HW1 1094   3.031   0.890   0.991  3.2247 -0.6445  1.6777
  365SOL    HW2 1095   2.949   0.798   0.870 -1.2968 -0.1557  0.9033
  366SOL     OW 1096   2.428   1.484   0.493 -0.7635  0.4283  0.6594
  366SOL    HW1 1097   2.492   1.475   0.415  0.1510 -0.3196  2.6699
  366SOL    HW2 1098   2.430   1.396   0.543  2.5623  2.9270 -0.9144
  367SOL     OW 1099   2.166   2.052   2.121 -0.0330 -0.0973 -0.2052
  367SOL    HW1 1100   2.137   1.997   2.040  0.8804 -3.2668  1.0620
  367SOL    HW2 1101   2.193   2.148   2.100  0.0835  2.5811  0.5012
  368SOL     OW 1102   2.608   1.768   0.781  0.6702 -0.1609 -0.4143
  368SOL    HW1 1103   2.628   1.785   0.681  0.3086  0.5806 -3.1859
  368SOL    HW2 1104   2.515   1.802   0.797  2.1008 -0.2052  0.3829
  369SOL     OW 1105   2.016   2.597   2.833 -0.4421 -0.5431 -0.4828
  369SOL    HW1 1106   2.045   2.677   2.777 -0.8596  2.3542 -1.3432
  369SOL    HW2 1107   1.944   2.625   2.896  0.1316  0.7623 -2.6090
  370SOL     OW 1108   0.190   0.035   1.251  0.6245  0.0968  0.1490
  370SOL    HW1 1109   0.207   0.138   1.259 -0.8700  1.3567  2.3476
  370SOL    HW2 1110   0.220   0.001   1.155 -1.4532  0.8699 -3.4378
  371SOL     OW 1111   0.701   2.001   0.204 -0.1105  0.2503  0.0461
  371SOL    HW1 1112   0.714   2.041   0.111 -1.8058  1.4220 -1.4502
  371SOL    HW2 1113   0.601   1.973   0.221 -1.2209  1.5753 -0.3203
  372SOL     OW 1114   0.968   1.263   0.095  0.2603 -0.1218  0.0232
  372SOL    HW1 1115   0.915   1.173   0.085 -1.2901  0.2429 -1.6219
  372SOL    HW2 1116   0.958   1.328   0.015  1.0441  1.1005 -1.1656
  373SOL     OW 1117   1.396   2.473   2.434 -0.3110 -0.3170 -0.1824
  373SOL    HW1 1118   1.369   2.378   2.458  0.4374 -1.5981 -1.0209
  373SOL    HW2 1119   1.454   2.469   2.354 -1.4707 -1.9109 -0.2264
  374SOL     OW 1120   0.573   1.971   2.919 -0.3574 -0.3662  0.6056
  374SOL    HW1 1121   0.587   1.969   2.815  2.3612  0.1461 -1.2057
  374SOL    HW2 1122   0.478   2.005   2.940 -0.2572 -1.0372 -1.2262
  375SOL     OW 1123   0.855   0.860   1.778 -0.4142 -0.0059 -0.1530
  375SOL    HW1 1124   0.770   0.904   1.799 -2.2091 -1.4532 -1.3233
  375SOL    HW2 1125   0.868   0.774   1.822 -2.1633  0.8556 -0.4763
  376SOL     OW 1126   0.491   2.322   1.702 -0.3305 -0.1403  0.2910
  376SOL    HW1 1127   0.404   2.291   1.654 -0.1789 -2.1864  0.1306
  376SOL    HW2 1128   0.474   2.347   1.799  0.8457 -2.4145 -0.1705
  377SOL     OW 1129   2.914   1.465   2.579 -0.1525 -0.0306 -0.4029
  377SOL    HW1 1130   2.820   1.437   2.604 -0.0439 -1.1794  0.3224
  377SOL    HW2 1131   2.981   1.395   2.605 -1.2825  1.1096 -0.1376
  378SOL     OW 1132   1.397   3.106   2.892 -0.1265 -0.1196  0.3015
  378SOL    HW1 1133   1.452   3.043   2.834  0.2351 -1.4710  0.0993
  378SOL    HW2 1134   1.317   3.058   2.926  2.6416  1.0572  1.4027
  379SOL     OW 1135   1.744   0.620   0.598  0.1793  0.0415 -0.1352
  379SOL    HW1 1136   1.804   0.674   0.658  1.7239  0.3486  0.2010
  379SOL    HW2 1137   1.746   0.652   0.499  2.1501  1.3029  0.4725
  380SOL     OW 1138   0.176   2.029   1.309  0.5360 -0.4356 -0.1706
  380SOL    HW1 1139   0.100   2.040   1.380  0.2670 -0.9819  1.4480
  380SOL    HW2 1140   0.253   1.973   1.337 -3.1798 -0.1895  2.0806
  381SOL     OW 1141   2.520   1.672   2.553  0.1645 -0.0767  0.1125
  381SOL    HW1 1142   2.574   1.764   2.538  1.5903  3.9516  1.1603
  381SOL    HW2 1143   2.437   1.668   2.497  0.7009  0.1136  2.6602
  382SOL     OW 1144   3.085   0.232   2.520 -0.0406 -0.1329  0.1882
  382SOL    HW1 1145   3.018   0.169   2.472  0.7030  1.0593  2.9283
  382SOL    HW2 1146   0.032   0.273   2.443  0.6085 -1.7421  1.7911
  383SOL     OW 1147   1.905   1.269   3.015  0.5867 -0.0636  0.3085
  383SOL    HW1 1148   1.983   1.333   3.025 -1.2470  0.7912  2.1488
  383SOL    HW2 1149   1.832   1.301   3.078  0.9114 -0.5904 -1.0734
  384SOL     OW 1150   1.120   2.161   1.492 -0.0237 -0.5370  0.7676
  384SOL    HW1 1151   1.036   2.173   1.553  0.8227 -1.0752 -1.4899
  384SOL    HW2 1152   1.208   2.195   1.539  2.6342  0.5392  2.0130
  385SOL     OW 1153   1.792   2.579   0.977  0.1732  0.6099 -0.4318
  385SOL    HW1 1154   1.804   2.666   1.030  0.5328  0.8892 -2.1097
  385SOL    HW2 1155   1.776   2.596   0.878  0.9253 -0.2709  0.2821
  386SOL     OW 1156   1.833   2.202   1.087 -0.5950  0.4834  0.5955
  386SOL    HW1 1157   1.874   2.171   0.997  1.6943 -1.0062 -1.5638
  386SOL    HW2 1158   1.752   2.260   1.074  1.2253 -2.8192 -1.5879
  387SOL     OW 1159   2.953   2.127   1.709  0.0828 -0.2646 -0.6752
  387SOL    HW1 1160   2.887   2.122   1.782  0.7548  0.8888 -3.0707
  387SOL    HW2 1161   2.965   2.227   1.684 -2.6130 -0.9139  0.2391
  388SOL     OW 1162   2.659   0.807   1.584  0.0829 -0.2444  0.2144
  388SOL    HW1 1163   2.688   0.889   1.530 -1.5850 -0.3328 -0.3202
  388SOL    HW2 1164   2.571   0.770   1.547  0.5116 -0.9192  1.3342
  389SOL     OW 1165   1.773   0.697   0.346  0.3313 -0.4289  0.1176
  389SOL    HW1 1166   1.844   0.728   0.286 -1.4075  2.1913 -1.4281
  389SOL    HW2 1167   1.686   0.673   0.294 -1.5397 -0.6421 -0.2448
  390SOL     OW 1168   1.305   1.803   2.717 -0.4952 -0.4359 -0.0685
  390SOL    HW1 1169   1.274   1.805   2.618 -0.9263  1.1873 -3.3613
  390SOL    HW2 1170   1.399   1.765   2.728  0.6375  2.3506  0.1146
  391SOL     OW 1171   1.027   2.039   0.039 -0.0292 -0.1710  0.3238
  391SOL    HW1 1172   1.074   2.130   0.053 -0.6371  0.8727  3.3027
  391SOL    HW2 1173   0.930   2.048   0.009 -1.8219 -0.2653  1.3821
  392SOL     OW 1174   0.032   2.651   1.601  0.3785 -0.3913 -0.1756
  392SOL    HW1 1175   0.110   2.630   1.664  2.3358  1.7264 -0.5988
  392SOL    HW2 1176   3.067   2.707   1.644 -0.2794 -1.6490 -2.4864
  393SOL     OW 1177   1.653   2.658   0.330 -0.6205 -0.5355  0.2102
  393SOL    HW1 1178   1.703   2.601   0.266 -1.0788 -0.2081  2.5108
  393SOL    HW2 1179   1.597   2.595   0.382  2.9590  2.6114 -0.0806
  394SOL     OW 1180   0.562   0.536   2.289  0.1662 -0.7560  0.1086
  394SOL    HW1 1181   0.483   0.566   2.346  1.5033  0.1688  1.5822
  394SOL    HW2 1182   0.574   0.437   2.296 -2.7841  3.9347 -0.9144
  395SOL     OW 1183   0.424   1.091   1.093  0.5957 -0.6816  0.0730
  395SOL    HW1 1184   0.351   1.163   1.095  1.0202  0.4582  1.4555
  395SOL    HW2 1185   0.443   1.074   0.990  1.9366 -1.7802  0.6726
  396SOL     OW 1186   1.897   1.113   2.208 -0.3330  0.1883  0.5377
  396SOL    HW1 1187   2.000   1.132   2.206  2.2272 -1.9917  0.2942
  396SOL    HW2 1188   1.845   1.193   2.244  2.3574 -2.7444 -0.5955
  397SOL     OW 1189   0.733   0.342   0.081  0.0614 -0.3147 -0.1660
  397SOL    HW1 1190   0.691   0.408   0.014  0.4984  0.6475  1.8730
  397SOL    HW2 1191   0.663   0.302   0.142 -1.5283 -1.0780 -0.7887
  398SOL     OW 1192   0.934   2.161   2.677 -0.2657 -0.3597  0.2331
  398SOL    HW1 1193   0.892   2.217   2.749 -0.3810  0.3482 -1.6647
  398SOL    HW2 1194   0.881   2.077   2.659  0.0648  1.6400  2.4420
  399SOL     OW 1195   2.242   1.544   2.438  0.0603 -0.2720 -0.8946
  399SOL    HW1 1196   2.280   1.516   2.525 -1.9929  0.0683  0.9042
  399SOL    HW2 1197   2.162   1.488   2.415 -0.6259 -0.5172 -0.5423
  400SOL     OW 1198   2.283   1.419   1.503 -0.2149 -0.2521  0.1361
  400SOL    HW1 1199   2.320   1.390   1.414 -0.7827  0.8846 -0.5543
  400SOL    HW2 1200   2.211   1.493   1.489 -1.4600 -0.5920 -0.3769
  401SOL     OW 1201   1.041   1.486   1.181 -0.9803  0.0265 -0.0292
  401SOL    HW1 1202   1.144   1.495   1.196  2.6501  1.3998  2.1691
  401SOL    HW2 1203   0.998   1.434   1.255 -0.6761  1.1223 -1.4989
  402SOL     OW 1204   0.027   2.382   1.882  0.0132  0.0829  0.2555
  402SOL    HW1 1205   3.076   2.406   1.958  1.2755 -0.8404 -2.5710
  402SOL    HW2 1206   0.072   2.464   1.846  2.3959  2.1629  0.5352
  403SOL     OW 1207   0.177   1.134   2.441 -0.1400 -0.1988 -0.4344
  403SOL    HW1 1208   0.193   1.218   2.497 -1.0239 -0.6749 -0.1797
  403SOL    HW2 1209   0.266   1.099   2.414 -1.1195 -0.6246 -0.4008
  404SOL     OW 1210   2.030   1.946   1.388  0.0926  0.4092  0.1066
  404SOL    HW1 1211   2.100   2.007   1.339  0.3503 -0.0730 -0.8985
  404SOL    HW2 1212   2.084   1.880   1.443  1.3991 -1.0440 -2.9414
  405SOL     OW 1213   2.698   0.494   2.415  0.1129  0.4035  0.1079
  405SOL    HW1 1214   2.768   0.523   2.343  0.4238 -0.0403  0.2504
  405SOL    HW2 1215   2.666   0.396   2.400  0.7591 -2.2428  0.5700
  406SOL     OW 1216   0.698   1.321   2.854  0.4310  0.0208  0.2975
  406SOL    HW1 1217   0.673   1.415   2.825  0.8607  1.7511 -0.4663
  406SOL    HW2 1218   0.797   1.321   2.871  0.5278  1.1450  0.9157
  407SOL     OW 1219   1.809   2.633   2.995 -0.0829  0.1766  0.4112
  407SOL    HW1 1220   1.739   2.608   2.928 -0.4115 -0.0603  0.5922
  407SOL    HW2 1221   1.812   2.736   2.996 -1.4269 -1.5407 -0.3421
  408SOL     OW 1222   0.382   0.118   3.096 -0.2241  0.2946  0.2258
  408SOL    HW1 1223   0.415   0.114   0.083 -1.8132  0.6060 -1.8350
  408SOL    HW2 1224   0.410   0.031   3.051  1.8155  1.1925  0.5353
  409SOL     OW 1225   2.310   1.694   0.999  0.0504  0.1006  0.5701
  409SOL    HW1 1226   2.249   1.630   0.955  1.2531  0.6508  0.5732
  409SOL    HW2 1227   2.325   1.776   0.939  0.9945  0.2949 -0.0627
  410SOL     OW 1228   2.360   1.884   2.786 -0.4688  0.8468 -0.1516
  410SOL    HW1 1229   2.457   1.866   2.820  0.9914 -0.3612 -0.4593
  410SOL    HW2 1230   2.326   1.962   2.841  0.6984 -1.8261  1.6365
  411SOL     OW 1231   3.061   1.229   0.848  0.6879  0.9607  0.4090
  411SOL    HW1 1232   2.998   1.308   0.872 -2.2982  0.5158 -0.3224
  411SOL    HW2 1233   0.022   1.253   0.780  2.9685 -0.3569  2.8175
  412SOL     OW 1234   1.794   2.803   0.545  0.0826 -0.5659 -0.0734
  412SOL    HW1 1235   1.867   2.856   0.498 -0.0038 -1.9375  1.2758
  412SOL    HW2 1236   1.736   2.747   0.484  1.3389  4.6333  3.7569
  413SOL     OW 1237   1.874   0.531   2.232  0.3084 -0.3368 -0.0012
  413SOL    HW1 1238   1.818   0.445   2.226  0.3948  0.3303 -0.2379
  413SOL    HW2 1239   1.832   0.610   2.183  0.5652  1.0502  1.0280
  414SOL     OW 1240   2.851   0.473   0.506 -0.3623  0.6853 -0.3018
  414SOL    HW1 1241   2.796   0.444   0.424 -0.2813  0.8708  0.7629
  414SOL    HW2 1242   2.868   0.394   0.573  2.2284 -1.0170  0.4676
  415SOL     OW 1243   0.851   1.519   1.587 -0.4559  0.2405 -0.4052
  415SOL    HW1 1244   0.841   1.602   1.531  1.8741 -0.2286  0.1608
  415SOL    HW2 1245   0.758   1.496   1.623  1.9468  1.4296  0.2166
  416SOL     OW 1246   0.419   2.971   2.931  0.0906  0.2005 -0.4648
  416SOL    HW1 1247   0.417   3.032   2.847  3.0065  0.0965  0.8686
  416SOL    HW2 1248   0.366   2.884   2.917 -2.4940  0.7092  0.4511
  417SOL     OW 1249   2.543   2.974   1.232  0.5094 -0.0229 -0.3028
  417SOL    HW1 1250   2.464   2.928   1.277  0.6035  1.2623  0.8659
  417SOL    HW2 1251   2.595   3.028   1.303  1.8765 -1.1158  2.3102
  418SOL     OW 1252   0.589   0.404   2.604 -0.1352  0.0052  0.2256
  418SOL    HW1 1253   0.502   0.423   2.658  1.4280 -1.6406  0.5044
  418SOL    HW2 1254   0.582   0.340   2.524 -1.1080  0.5177 -2.0513
  419SOL     OW 1255   0.217   1.275   1.097 -0.0532  0.0274  0.4626
  419SOL    HW1 1256   0.190   1.374   1.086 -1.0431 -0.3846  1.3192
  419SOL    HW2 1257   0.135   1.213   1.085 -0.4309 -1.0827  0.9695
  420SOL     OW 1258   0.608   1.963   1.150 -0.6084 -0.5259  0.0125
  420SOL    HW1 1259   0.638   1.876   1.108 -0.0229 -1.8619  1.3643
  420SOL    HW2 1260   0.521   1.998   1.106  0.4728  0.8389 -4.0123
  421SOL     OW 1261   1.975   2.290   2.170  0.0815  0.2850 -0.5095
  421SOL    HW1 1262   1.911   2.237   2.106  0.0075  1.8286 -0.8332
  421SOL    HW2 1263   1.965   2.262   2.263  1.3411 -0.3964  1.6098
  422SOL     OW 1264   3.039   0.483   2.594 -0.0637  0.3257 -0.0838
  422SOL    HW1 1265   3.057   0.386   2.564  0.9964 -1.2721 -3.1078
  422SOL    HW2 1266   2.961   0.485   2.664  2.1096  0.5402 -0.8672
  423SOL     OW 1267   1.252   2.176   1.007  0.2099 -0.0385  0.4367
  423SOL    HW1 1268   1.215   2.083   0.991  2.6423 -0.8616 -0.5426
  423SOL    HW2 1269   1.225   2.213   1.097 -1.2098  2.5388  1.2046
  424SOL     OW 1270   0.596   1.434   1.639  0.5712  0.1292  0.5615
  424SOL    HW1 1271   0.520   1.471   1.696 -1.6349 -0.9822  0.9830
  424SOL    HW2 1272   0.571   1.414   1.540 -1.3439 -0.7003 -0.2785
  425SOL     OW 1273   3.028   2.742   2.078  0.1230  0.4824 -0.0950
  425SOL    HW1 1274   3.067   2.651   2.116 -2.3742 -2.9200  3.1367
  425SOL    HW2 1275   3.025   2.733   1.978  1.0425  1.7583  1.7708
  426SOL     OW 1276   1.727   0.149   0.669 -0.1984  0.2357  0.2066
  426SOL    HW1 1277   1.748   0.139   0.573  1.1277  0.9901  0.8927
  426SOL    HW2 1278   1.756   0.243   0.701  0.3596  1.9936  1.0911
  427SOL     OW 1279   1.128   0.667   2.827  0.0959  0.3187  0.7892
  427SOL    HW1 1280   1.088   0.647   2.919  1.2616 -1.1814 -1.6651
  427SOL    HW2 1281   1.096   0.755   2.790 -1.0695  2.4327  0.3330
  428SOL     OW 1282   1.789   1.163   0.246 -0.1728 -0.0644  0.8223
  428SOL    HW1 1283   1.772   1.257   0.209 -2.0410  0.4347  1.2448
  428SOL    HW2 1284   1.768   1.095   0.175  0.4415  1.6385 -0.0682
  429SOL     OW 1285   3.051   3.008   0.654  0.3399 -0.1222  0.1122
  429SOL    HW1 1286   0.035   2.968   0.678  0.8702 -0.7686 -1.7621
  429SOL    HW2 1287   3.043   3.024   0.552 -1.9291 -0.6695  1.3264
  430SOL     OW 1288   0.394   2.988   2.286 -0.4205 -0.1227  0.4770
  430SOL    HW1 1289   0.429   2.976   2.381  0.7164  2.8354  2.2188
  430SOL    HW2 1290   0.465   2.971   2.213 -0.0764  1.3617 -0.5461
  431SOL     OW 1291   2.497   1.008   1.447  0.0318  0.0948  0.8549
  431SOL    HW1 1292   2.411   0.970   1.415 -1.2440  1.2074 -1.5419
  431SOL    HW2 1293   2.486   1.084   1.508  0.2856 -0.3768 -0.0125
  432SOL     OW 1294   2.000   2.560   2.202 -0.1400  0.3637 -0.0468
  432SOL    HW1 1295   1.987   2.560   2.302  1.0113 -2.2682  2.9775
  432SOL    HW2 1296   2.003   2.461   2.165 -0.5804 -2.5596 -0.0687
  433SOL     OW 1297   1.399   2.426   0.711 -0.6215 -0.3944 -0.2591
  433SOL    HW1 1298   1.475   2.362   0.742  0.5152 -2.0329  0.7241
  433SOL    HW2 1299   1.412   2.520   0.752  0.8857  3.1845  0.6849
  434SOL     OW 1300   0.136   1.939   1.993 -0.5432 -0.2020  0.2634
  434SOL    HW1 1301   0.174   1.856   2.038 -1.9582 -1.1617  1.3471
  434SOL    HW2 1302   0.060   1.974   2.045  3.7993 -2.0741 -3.6697
  435SOL     OW 1303   0.133   1.007   0.199 -0.3145  0.2126  0.2421
  435SOL    HW1 1304   0.089   0.959   0.120 -0.6682 -1.4325  2.6421
  435SOL    HW2 1305   0.220   1.051   0.170 -0.3551  2.6884  0.7080
  436SOL     OW 1306   0.244   2.641   1.796  0.0897  0.7715  0.2863
  436SOL    HW1 1307   0.304   2.654   1.875 -1.9027 -0.1342  1.2320
  436SOL    HW2 1308   0.299   2.642   1.710  0.4085 -1.8036  3.2350
  437SOL     OW 1309   1.634   2.328   1.614 -0.0269 -0.2378  0.2179
  437SOL    HW1 1310   1.652   2.404   1.546  1.2476  3.8279 -0.3503
  437SOL    HW2 1311   1.719   2.271   1.633  0.1398 -1.5104  1.4594
  438SOL     OW 1312   0.213   1.764   0.576 -0.3754 -0.2622 -0.5622
  438SOL    HW1 1313   0.219   1.687   0.643  0.5134  0.8201  0.0821
  438SOL    HW2 1314   0.136   1.832   0.595  0.9590  2.8318 -0.6696
  439SOL     OW 1315   0.145   0.546   0.906 -0.0928  0.8597 -0.8670
  439SOL    HW1 1316   0.199   0.463   0.929 -0.9794  0.5911 -0.4197
  439SOL    HW2 1317   0.043   0.536   0.925 -0.3161  0.5871 -0.6190
  440SOL     OW 1318   0.092   2.693   2.387 -0.7979 -0.5094  0.4062
  440SOL    HW1 1319   0.104   2.700   2.487 -2.1285  2.1809  2.3539
  440SOL    HW2 1320   0.155   2.623   2.344 -1.8530  1.8435 -0.8091
  441SOL     OW 1321   2.830   0.282   0.713  0.1843 -0.0466  0.2084
  441SOL    HW1 1322   2.930   0.278   0.719 -0.3699  0.1956 -0.9482
  441SOL    HW2 1323   2.777   0.197   0.719  1.2298  2.5405 -1.8970
  442SOL     OW 1324   1.360   2.220   2.503  0.0257 -0.3641  0.1957
  442SOL    HW1 1325   1.297   2.233   2.587  0.2432  0.7513  0.6769
  442SOL    HW2 1326   1.415   2.135   2.514 -0.7236 -0.0678  0.9353
  443SOL     OW 1327   0.783   1.052   0.016  0.3951 -0.0128 -0.1366
  443SOL    HW1 1328   0.717   1.085   3.054 -0.9240  1.7296  1.6208
  443SOL    HW2 1329   0.839   0.970   3.103  2.6468  0.0273  2.6803
  444SOL     OW 1330   1.579   1.418   2.581 -0.0679 -0.7415 -0.0171
  444SOL    HW1 1331   1.477   1.411   2.554 -3.1858 -1.8399 -2.4596
  444SOL    HW2 1332   1.599   1.361   2.661  1.2567  2.5653 -0.9752
  445SOL     OW 1333   0.125   0.082   0.859 -0.2824  0.1796 -0.0759
  445SOL    HW1 1334   0.167   0.046   0.771  1.1214 -1.0196 -3.4843
  445SOL    HW2 1335   0.032   0.043   0.878  0.9530 -1.2074 -0.7528
  446SOL     OW 1336   2.128   0.462   1.025 -0.3694  0.1388 -0.0736
  446SOL    HW1 1337   2.185   0.509   0.955 -1.6432  0.4270  0.9470
  446SOL    HW2 1338   2.050   0.521   1.043  0.5092  1.5910 -1.7837
  447SOL     OW 1339   0.214   0.767   3.022 -0.5832  0.0345  0.0279
  447SOL    HW1 1340   0.215   0.672   2.979  0.8385 -1.0262 -2.6055
  447SOL    HW2 1341   0.122   0.811   3.022 -0.2949  0.2210  1.5828
  448SOL     OW 1342   1.430   1.933   1.492  0.3386 -0.1350  0.5011
  448SOL    HW1 1343   1.532   1.938   1.512 -0.5882  1.8781  1.8634
  448SOL    HW2 1344   1.386   1.863   1.557 -0.1818 -0.0948  2.0600
  449SOL     OW 1345   0.872   1.529   0.968 -0.0312 -0.6765  0.1188
  449SOL    HW1 1346   0.924   1.508   1.052 -0.2912  2.0594  0.1749
  449SOL    HW2 1347   0.942   1.558   0.900 -2.3541 -1.5105  0.4948
  450SOL     OW 1348   2.916   2.302   2.240 -0.8109  0.3013  0.2214
  450SOL    HW1 1349   2.856   2.359   2.180 -0.7422  0.0966  0.5769
  450SOL    HW2 1350   2.873   2.291   2.328 -0.6009 -0.4815  0.5763
  451SOL     OW 1351   2.595   1.197   2.680  0.2396 -0.4833 -0.1072
  451SOL    HW1 1352   2.554   1.217   2.773  0.7368  0.7456 -0.0352
  451SOL    HW2 1353   2.616   1.280   2.626  0.9824 -0.3965  0.5305
  452SOL     OW 1354   1.845   0.965   1.312  0.2766 -0.0052 -0.2451
  452SOL    HW1 1355   1.745   0.957   1.305 -1.1460 -0.4588  0.8805
  452SOL    HW2 1356   1.881   1.016   1.233 -0.4946 -1.2447 -1.2573
  453SOL     OW 1357   2.134   1.039   1.558  0.4257 -0.1697  0.1635
  453SOL    HW1 1358   2.194   1.109   1.604  1.3210 -0.9929 -1.5704
  453SOL    HW2 1359   2.171   1.013   1.465 -1.1513  0.8092  0.5164
  454SOL     OW 1360   3.012   1.101   0.324  0.1002  0.2560 -0.1064
  454SOL    HW1 1361   3.096   1.053   0.288  1.0964  1.5121 -0.5977
  454SOL    HW2 1362   2.957   1.046   0.389 -2.4691  2.3950 -0.5980
  455SOL     OW 1363   2.512   1.499   1.043  0.5570  0.2593  0.0471
  455SOL    HW1 1364   2.513   1.430   0.966  0.1147  0.7484 -1.9560
  455SOL    HW2 1365   2.440   1.572   1.024 -1.3260  2.1406 -1.9756
  456SOL     OW 1366   0.845   0.271   1.365 -0.5011  0.0809 -0.4648
  456SOL    HW1 1367   0.872   0.199   1.428  0.4051 -0.7794  0.1461
  456SOL    HW2 1368   0.853   0.243   1.265 -2.4463  1.8159  2.1508
  457SOL     OW 1369   1.828   2.815   1.142  0.1159 -0.4242 -0.4880
  457SOL    HW1 1370   1.923   2.858   1.141 -0.0332  1.0250 -1.4289
  457SOL    HW2 1371   1.767   2.871   1.083  0.1938 -0.5230  2.3310
  458SOL     OW 1372   2.478   0.317   0.321 -0.1824  0.0424  0.1377
  458SOL    HW1 1373   2.467   0.354   0.412  2.4770  0.4049  0.1887
  458SOL    HW2 1374   2.448   0.218   0.320  0.1823  1.0121 -1.0068
  459SOL     OW 1375   1.690   0.734   3.076 -0.2458  0.5077  0.4033
  459SOL    HW1 1376   1.681   0.634   3.097  1.2993  2.0486 -0.5010
  459SOL    HW2 1377   1.612   0.779   3.027  2.7254  3.1996  3.0727
  460SOL     OW 1378   0.112   2.671   2.684 -0.3213 -0.2176 -0.2658
  460SOL    HW1 1379   0.027   2.720   2.723 -0.1007 -1.0044 -0.4359
  460SOL    HW2 1380   0.189   2.677   2.754  1.4923  0.9271  3.0810
  461SOL     OW 1381   0.467   1.868   0.226  1.0683  0.9137  0.6843
  461SOL    HW1 1382   0.487   1.837   0.319  0.0008  0.9396  0.2211
  461SOL    HW2 1383   0.520   1.805   0.163  1.7282  2.4004 -0.0234
  462SOL     OW 1384   2.072   2.387   0.731  0.3134 -0.0444  0.0918
  462SOL    HW1 1385   2.164   2.353   0.708  1.4619  1.3235  0.0347
  462SOL    HW2 1386   2.074   2.448   0.814 -0.7451  2.3276  1.4307
  463SOL     OW 1387   3.004   0.693   0.491  0.1178 -0.1722 -0.3943
  463SOL    HW1 1388   3.093   0.676   0.541 -0.6937 -2.3496 -1.3382
  463SOL    HW2 1389   2.932   0.623   0.503  1.9861  2.0401  0.3987
  464SOL     OW 1390   0.678   2.617   0.375 -0.2144  0.2318  0.4790
  464SOL    HW1 1391   0.607   2.625   0.451 -2.4393  1.4527  2.4839
  464SOL    HW2 1392   0.729   2.528   0.386  1.3421 -1.4049 -0.7952
  465SOL     OW 1393   2.387   0.565   0.515  0.5589  0.5655  0.4101
  465SOL    HW1 1394   2.340   0.655   0.514 -1.0984 -1.4337  0.3416
  465SOL    HW2 1395   2.323   0.487   0.495  2.8613  1.5553  0.4536
  466SOL     OW 1396   2.049   0.141   0.312 -0.1378  0.3324  0.1267
  466SOL    HW1 1397   2.010   0.188   0.232  2.2033  1.2396  3.5617
  466SOL    HW2 1398   2.122   0.077   0.289 -2.3436 -2.4388  0.5339
  467SOL     OW 1399   1.230   0.299   1.944 -0.0644 -0.4010 -0.0368
  467SOL    HW1 1400   1.194   0.347   2.029 -0.6189  0.7105 -0.5861
  467SOL    HW2 1401   1.318   0.328   1.910  2.7825  0.0033 -2.1030
  468SOL     OW 1402   2.969   0.951   2.184  0.2727 -0.1300  0.5360
  468SOL    HW1 1403   3.071   0.965   2.169  0.4678  2.0266 -1.0831
  468SOL    HW2 1404   2.935   0.880   2.115 -0.9941 -3.2351 -0.6068
  469SOL     OW 1405   0.709   2.437   2.280  0.0658 -0.0504 -0.2314
  469SOL    HW1 1406   0.692   2.426   2.381  0.3962  2.3559  1.3247
  469SOL    HW2 1407   0.708   2.354   2.226 -3.0096  0.4966  0.2972
  470SOL     OW 1408   2.130   1.313   1.909  0.9585 -0.0619  0.5833
  470SOL    HW1 1409   2.217   1.353   1.879  0.5352  0.0976 -0.7543
  470SOL    HW2 1410   2.138   1.219   1.942 -2.4766  2.8536  0.1319
  471SOL     OW 1411   2.810   1.161   0.157 -0.1491 -0.0343 -0.1389
  471SOL    HW1 1412   2.789   1.183   0.055  1.4261 -0.2590  0.0256
  471SOL    HW2 1413   2.908   1.142   0.181 -2.9508  2.7574 -0.9141
  472SOL     OW 1414   0.307   2.868   0.297  0.2622 -0.6986  0.3349
  472SOL    HW1 1415   0.295   2.801   0.220 -1.9559 -3.7728  0.8777
  472SOL    HW2 1416   0.407   2.888   0.309 -2.5292  2.2644 -0.3357
  473SOL     OW 1417   0.906   2.646   2.242  0.2038 -0.0754  0.0154
  473SOL    HW1 1418   0.835   2.572   2.262  0.3088 -1.2518 -0.3035
  473SOL    HW2 1419   0.917   2.713   2.319  0.2957  0.3547 -1.9769
  474SOL     OW 1420   1.435   0.010   2.415 -0.1992 -0.2636  0.3988
  474SOL    HW1 1421   1.400   3.039   2.461 -1.6072  0.6263 -0.1500
  474SOL    HW2 1422   1.472   0.082   2.475 -0.1649 -1.1043 -1.7467
  475SOL     OW 1423   1.033   2.461   0.292  0.4454  0.4566  0.3602
  475SOL    HW1 1424   1.028   2.563   0.301 -2.0269 -0.9357  0.7743
  475SOL    HW2 1425   0.950   2.420   0.337 -1.8349  0.7327 -2.6581
  476SOL     OW 1426   0.569   0.368   0.776  0.3790 -0.7032 -0.3289
  476SOL    HW1 1427   0.561   0.419   0.863 -3.4848 -1.1833 -1.3623
  476SOL    HW2 1428   0.639   0.297   0.793  1.2587  3.8066 -1.2614
  477SOL     OW 1429   1.807   1.992   1.266 -0.3026 -0.4048  0.0016
  477SOL    HW1 1430   1.811   2.079   1.212 -1.0885 -0.3280 -0.8956
  477SOL    HW2 1431   1.887   1.978   1.330 -1.0954 -0.4106  1.3722
  478SOL     OW 1432   0.060   0.849   2.716 -0.4649  0.3653 -0.2355
  478SOL    HW1 1433   0.021   0.878   2.625  1.3411  1.1655  0.2820
  478SOL    HW2 1434   0.092   0.928   2.770 -0.9621  1.3292  1.1550
  479SOL     OW 1435   0.546   0.106   1.050  0.5718  0.5785  0.6111
  479SOL    HW1 1436   0.562   0.107   0.952  1.6085 -1.1289  0.4073
  479SOL    HW2 1437   0.592   0.181   1.093  1.8074 -3.3262 -2.7548
  480SOL     OW 1438   2.585   2.705   0.055  0.2021  0.0787 -0.2300
  480SOL    HW1 1439   2.627   2.738   3.077  0.6779 -0.5732  1.3201
  480SOL    HW2 1440   2.568   2.602   0.057 -1.3799  2.5231 -0.4444
  481SOL     OW 1441   2.820   0.673   1.146  0.1885 -0.0251  0.3122
  481SOL    HW1 1442   2.889   0.695   1.071  0.8904 -0.8964 -2.3873
  481SOL    HW2 1443   2.856   0.670   1.240  0.3074 -1.5942  0.5223
  482SOL     OW 1444   1.252   2.495   1.525 -0.0464  0.2965 -0.1380
  482SOL    HW1 1445   1.287   2.436   1.448 -0.2399  1.6497 -1.4045
  482SOL    HW2 1446   1.306   2.486   1.611  1.1804  1.3101  2.2367
  483SOL     OW 1447   0.417   1.533   3.016 -0.1901  0.1088  0.5836
  483SOL    HW1 1448   0.496   1.516   2.954 -0.1397  0.1964  0.8189
  483SOL    HW2 1449   0.397   1.451   3.075  1.4315  0.3556  0.0262
  484SOL     OW 1450   1.406   1.571   2.310 -0.0606 -0.0102 -0.1365
  484SOL    HW1 1451   1.387   1.482   2.363  0.2772  0.0154  3.1095
  484SOL    HW2 1452   1.464   1.553   2.226  1.2795 -0.3288  0.9915
  485SOL     OW 1453   0.140   0.312   2.304 -0.2295 -0.3651  0.1549
  485SOL    HW1 1454   0.157   0.410   2.275 -1.1124  1.3112 -0.2384
  485SOL    HW2 1455   0.219   0.254   2.289 -2.4345  0.4669  1.1324
  486SOL     OW 1456   1.367   2.891   0.669  0.2537  0.0786 -0.5503
  486SOL    HW1 1457   1.355   2.958   0.747  2.2722  1.7381  2.0907
  486SOL    HW2 1458   1.446   2.921   0.611 -0.5546  1.1113  0.3091
  487SOL     OW 1459   1.644   2.930   0.977  0.4157  0.4384  0.2861
  487SOL    HW1 1460   1.581   2.990   1.037 -1.8558  0.4764  1.0628
  487SOL    HW2 1461   1.648   2.962   0.881 -1.3644 -0.9134  0.0039
  488SOL     OW 1462   2.016   0.952   0.852 -0.4812 -0.4471 -0.1770
  488SOL    HW1 1463   1.990   0.993   0.940  0.0248  1.3171  1.5758
  488SOL    HW2 1464   2.109   0.980   0.825 -0.9433  3.7506 -0.2120
  489SOL     OW 1465   1.084   2.946   1.337  0.2419  0.5876 -0.0590
  489SOL    HW1 1466   1.141   2.872   1.383  1.0337  1.6362  0.9388
  489SOL    HW2 1467   0.985   2.923   1.357 -1.5990  0.9957  2.3848
  490SOL     OW 1468   0.922   0.774   0.329  0.1145  0.2077  0.2364
  490SOL    HW1 1469   0.853   0.790   0.399 -2.5762 -1.4225 -1.2065
  490SOL    HW2 1470   0.981   0.696   0.355 -1.3537  0.1056 -2.2125
  491SOL     OW 1471   0.972   2.813   0.206 -0.0034  0.2248  0.8181
  491SOL    HW1 1472   0.981   2.775   0.300 -1.8753 -2.5389  0.7659
  491SOL    HW2 1473   1.052   2.809   0.143  1.2279 -1.1940  1.3677
  492SOL     OW 1474   1.242   1.195   2.240 -0.2328 -0.1223 -0.3162
  492SOL    HW1 1475   1.231   1.295   2.221  2.8866 -1.4411  0.0281
  492SOL    HW2 1476   1.219   1.138   2.155  1.1860  1.6326 -0.3893
  493SOL     OW 1477   3.031   2.047   0.124 -0.1505 -0.0867 -0.3573
  493SOL    HW1 1478   0.006   2.064   0.072 -0.4680 -0.3603  1.1224
  493SOL    HW2 1479   2.963   1.998   0.064 -2.7957 -0.0513 -1.1096
  494SOL     OW 1480   1.963   1.454   0.457 -0.0156 -0.5208  0.2743
  494SOL    HW1 1481   1.862   1.473   0.467 -4.1315  1.5713 -2.1611
  494SOL    HW2 1482   1.980   1.354   0.474 -1.4695 -0.5547  0.0937
  495SOL     OW 1483   0.419   1.007   2.352  0.3064  0.5131  0.2345
  495SOL    HW1 1484   0.422   0.953   2.266  1.1465 -0.7602  2.3880
  495SOL    HW2 1485   0.474   0.968   2.429  1.4061  2.6400  0.9858
  496SOL     OW 1486   3.048   3.069   2.083  1.0969  0.0119  0.4443
  496SOL    HW1 1487   3.036   3.017   1.997 -0.0852  1.7112 -1.7242
  496SOL    HW2 1488   0.003   3.019   2.145 -0.6079  5.0205 -0.3602
  497SOL     OW 1489   2.219   0.773   0.506 -0.7961  0.5138 -0.5174
  497SOL    HW1 1490   2.248   0.792   0.410 -1.3430  1.9531 -2.9468
  497SOL    HW2 1491   2.124   0.801   0.532  1.3887 -0.0519  1.6693
  498SOL     OW 1492   2.900   2.576   2.886 -0.0724  0.3042 -0.5287
  498SOL    HW1 1493   2.821   2.544   2.839  0.4278  2.1060 -0.1090
  498SOL    HW2 1494   2.929   2.665   2.848 -0.9428 -1.5464 -0.1281
  499SOL     OW 1495   1.703   2.593   0.730  0.1395 -0.4831 -0.2179
  499SOL    HW1 1496   1.731   2.690   0.701  1.0769  1.8025 -0.9859
  499SOL    HW2 1497   1.748   2.538   0.658 -0.5522  0.5843  0.2011
  500SOL     OW 1498   1.380   0.811   2.543  0.3447 -0.4120  0.1090
  500SOL    HW1 1499   1.444   0.752   2.488  1.9766  2.3600 -1.0454
  500SOL    HW2 1500   1.424   0.901   2.576  2.5720 -1.4237  3.5624
  501SOL     OW 1501   1.124   0.089   1.195 -0.4155 -0.2767 -0.1467
  501SOL    HW1 1502   1.208   0.122   1.243 -0.7637  0.5685 -1.3165
  501SOL    HW2 1503   1.101   3.103   1.221 -0.7849  0.0382  0.0948
  502SOL     OW 1504   3.090   2.990   1.803  0.4345 -0.3333  0.3231
  502SOL    HW1 1505   0.059   2.985   1.870 -0.0815 -0.6568 -1.2817
  502SOL    HW2 1506   3.077   3.087   1.782  0.0046  1.2518 -0.4613
  503SOL     OW 1507   1.564   2.412   2.219 -0.0659 -0.0799 -0.3057
  503SOL    HW1 1508   1.632   2.485   2.233 -2.8097  0.0634  0.0758
  503SOL    HW2 1509   1.597   2.319   2.231 -1.2417 -1.5097  0.7755
  504SOL     OW 1510   1.877   0.291   1.812 -0.3412  0.0746 -0.1371
  504SOL    HW1 1511   1.966   0.259   1.767  0.9242 -1.4040 -4.2718
  504SOL    HW2 1512   1.826   0.212   1.858  1.7743 -0.4339 -0.0424
  505SOL     OW 1513   2.697   1.487   1.612 -0.7747  0.2688  0.3682
  505SOL    HW1 1514   2.694   1.385   1.599  0.8209  2.5764  0.2331
  505SOL    HW2 1515   2.715   1.506   1.707 -2.7519 -0.1714  0.9350
  506SOL     OW 1516   0.307   1.300   2.086 -0.2206 -0.3539 -0.0752
  506SOL    HW1 1517   0.223   1.287   2.141  0.1192 -0.3062  1.3227
  506SOL    HW2 1518   0.294   1.268   1.991  0.5652 -1.5428  1.5740
  507SOL     OW 1519   0.056   2.891   1.246  0.1454  0.4161 -0.3480
  507SOL    HW1 1520   0.105   2.979   1.261 -1.2790  0.6341  1.1057
  507SOL    HW2 1521   0.094   2.813   1.303 -0.2040 -1.1474  0.1556
  508SOL     OW 1522   1.384   0.678   1.454  0.1700  0.3717 -0.0687
  508SOL    HW1 1523   1.401   0.634   1.367  1.6269  2.3712  0.2801
  508SOL    HW2 1524   1.305   0.638   1.505 -2.6343  2.5076  0.2121
  509SOL     OW 1525   1.361   2.169   1.607  0.3251  0.1400 -0.1900
  509SOL    HW1 1526   1.447   2.220   1.611 -0.4791 -0.5029  0.7980
  509SOL    HW2 1527   1.378   2.076   1.563 -0.2961 -2.5561 -0.2978
  510SOL     OW 1528   2.468   1.405   0.126 -0.0843 -0.4623 -0.3938
  510SOL    HW1 1529   2.497   1.347   0.205 -1.4600 -0.2350  0.2191
  510SOL    HW2 1530   2.536   1.392   0.047  2.7994 -1.1556 -0.9595
  511SOL     OW 1531   0.493   1.412   1.398  0.1510  0.8109  0.0541
  511SOL    HW1 1532   0.564   1.371   1.339 -0.1622 -0.4422  0.7940
  511SOL    HW2 1533   0.414   1.347   1.395  0.6615  0.9034  0.3719
  512SOL     OW 1534   2.771   2.415   0.145 -0.5291 -0.1460 -0.1884
  512SOL    HW1 1535   2.857   2.362   0.157 -2.6181  0.5873 -2.2077
  512SOL    HW2 1536   2.725   2.409   0.230 -1.4254  2.3849 -0.2557
  513SOL     OW 1537   0.752   1.717   2.680  0.6513  0.2745  0.1681
  513SOL    HW1 1538   0.807   1.698   2.756  0.1900  2.3676  0.1568
  513SOL    HW2 1539   0.805   1.729   2.594  1.0751 -1.4897  2.6921
  514SOL     OW 1540   0.281   2.318   2.456 -0.1708 -0.1183 -0.1339
  514SOL    HW1 1541   0.303   2.225   2.486 -1.6700  1.8127  1.7396
  514SOL    HW2 1542   0.218   2.368   2.523  1.8187  0.6844 -2.0206
  515SOL     OW 1543   1.917   1.268   1.758 -0.2476 -0.8349 -0.7012
  515SOL    HW1 1544   1.997   1.295   1.820  1.0108 -0.6933 -0.8118
  515SOL    HW2 1545   1.944   1.270   1.659 -0.0250 -1.3259 -0.4539
  516SOL     OW 1546   1.758   2.490   0.125 -0.6598  0.1193  0.3418
  516SOL    HW1 1547   1.796   2.542   0.044 -0.0320 -0.2998 -0.7130
  516SOL    HW2 1548   1.811   2.398   0.131  2.3356 -0.6981 -0.7293
  517SOL     OW 1549   0.910   1.713   0.638  0.4691  0.1544 -0.0896
  517SOL    HW1 1550   0.946   1.739   0.545 -0.1706  1.7070  1.9981
  517SOL    HW2 1551   0.969   1.647   0.689  0.0179  1.4290 -3.5902
  518SOL     OW 1552   2.100   2.535   1.880  0.3907  0.1927 -0.2631
  518SOL    HW1 1553   2.072   2.613   1.818 -1.4002 -0.6699 -1.2147
  518SOL    HW2 1554   2.035   2.461   1.860 -2.4814  2.6502  0.6833
  519SOL     OW 1555   2.127   2.384   1.227 -0.0396  0.2593  0.1412
  519SOL    HW1 1556   2.178   2.443   1.294  0.2812  3.1530  1.2237
  519SOL    HW2 1557   2.157   2.406   1.136 -2.5647 -0.6384  2.5925
  520SOL     OW 1558   2.780   2.229   2.467 -0.0489 -0.2757  0.1772
  520SOL    HW1 1559   2.688   2.233   2.513 -1.1994  1.8401  1.6910
  520SOL    HW2 1560   2.826   2.144   2.480  1.8407  1.7587 -1.1940
  521SOL     OW 1561   2.791   1.241   2.321 -0.3122  0.8833 -0.1517
  521SOL    HW1 1562   2.882   1.254   2.275 -0.9434 -2.3217  0.2925
  521SOL    HW2 1563   2.737   1.324   2.300  0.5634 -2.0669 -1.4836
  522SOL     OW 1564   0.858   0.533   1.963  0.2703 -0.0752 -0.3056
  522SOL    HW1 1565   0.931   0.607   1.960 -0.3240  1.0704  1.5325
  522SOL    HW2 1566   0.858   0.481   1.878 -1.4223 -1.0753  1.0190
  523SOL     OW 1567   0.116   1.875   1.055 -0.0173 -0.2533 -0.0419
  523SOL    HW1 1568   0.098   1.935   1.133 -0.5523  0.5095 -1.9990
  523SOL    HW2 1569   0.110   1.931   0.970 -1.3915  0.3315  2.2466
  524SOL     OW 1570   1.884   2.903   0.165 -0.2701 -0.3833  0.3773
  524SOL    HW1 1571   1.931   2.917   0.252 -0.1596  2.1364 -1.4485
  524SOL    HW2 1572   1.908   2.816   0.118  0.3161  0.3899  1.8185
  525SOL     OW 1573   2.241   0.951   1.322  0.2395 -0.4938  0.0062
  525SOL    HW1 1574   2.194   0.859   1.302  1.3720 -2.2030  1.9451
  525SOL    HW2 1575   2.245   1.009   1.242 -0.1452 -0.0132  0.2161
  526SOL     OW 1576   0.956   2.454   0.645 -0.1714 -0.3084  0.4840
  526SOL    HW1 1577   1.008   2.535   0.614 -2.4950 -2.8830  1.8827
  526SOL    HW2 1578   0.972   2.432   0.742 -1.0249  0.3332 -1.5862
  527SOL     OW 1579   2.251   2.791   0.526 -0.0788 -0.1288 -0.5138
  527SOL    HW1 1580   2.297   2.879   0.557 -0.9365 -1.3912  2.5670
  527SOL    HW2 1581   2.298   2.709   0.566  0.3286 -3.7932  0.9641
  528SOL     OW 1582   1.492   0.538   0.299  0.3049 -0.0386 -0.2035
  528SOL    HW1 1583   1.442   0.607   0.354 -0.4223  0.2505  1.1735
  528SOL    HW2 1584   1.417   0.486   0.250  1.2742 -1.2975 -0.8079
  529SOL     OW 1585   1.518   1.619   2.769 -0.8936  0.3355 -0.0943
  529SOL    HW1 1586   1.457   1.565   2.834 -1.5881  0.7159 -1.7199
  529SOL    HW2 1587   1.515   1.568   2.682  0.1563  1.1029 -1.0835
  530SOL     OW 1588   2.368   0.388   0.072  0.6370 -0.3529  0.4300
  530SOL    HW1 1589   2.378   0.490   0.069  1.6468 -0.3927  1.6610
  530SOL    HW2 1590   2.417   0.350   0.157  1.7503 -0.9093  2.1858
  531SOL     OW 1591   1.576   1.097   3.001  0.0366  0.0202  0.0167
  531SOL    HW1 1592   1.675   1.087   2.968 -0.8581 -1.4140  1.8489
  531SOL    HW2 1593   1.539   1.000   3.010 -0.0060  0.7613  0.7220
  532SOL     OW 1594   1.467   0.535   0.704 -0.7781  0.1167  0.0920
  532SOL    HW1 1595   1.448   0.455   0.641  0.0437 -2.0777 -1.7636
  532SOL    HW2 1596   1.545   0.586   0.663  0.4094  1.4279 -0.7632
  533SOL     OW 1597   0.597   0.838   2.487  0.5671 -0.1984  0.6804
  533SOL    HW1 1598   0.670   0.792   2.435 -1.2332 -0.7921  1.4468
  533SOL    HW2 1599   0.639   0.876   2.569 -0.4423  0.3850 -1.6084
  534SOL     OW 1600   1.519   0.184   2.621  0.3930  0.0752 -0.0195
  534SOL    HW1 1601   1.619   0.152   2.629  1.4437 -1.3232  2.8676
  534SOL    HW2 1602   1.479   0.199   2.715 -2.8184  1.0291  3.2127
  535SOL     OW 1603   0.245   2.972   2.672 -0.0851  0.2777  0.0850
  535SOL    HW1 1604   0.190   2.890   2.652  3.6565  2.1328  0.2485
  535SOL    HW2 1605   0.192   3.055   2.698 -2.0563 -0.2131 -2.2147
  536SOL     OW 1606   0.366   0.354   0.588  0.1376  0.3285  0.6584
  536SOL    HW1 1607   0.377   0.438   0.533 -5.1133  1.1746  0.5236
  536SOL    HW2 1608   0.446   0.353   0.653 -0.7287  2.0396  0.5946
  537SOL     OW 1609   1.337   0.434   0.060  0.2442 -0.5515 -0.3119
  537SOL    HW1 1610   1.362   0.463   3.076  3.3369 -0.3332 -0.7718
  537SOL    HW2 1611   1.289   0.348   0.059  0.3248  0.3448  1.1289
  538SOL     OW 1612   2.811   2.155   2.977 -0.6116 -0.5677  0.0470
  538SOL    HW1 1613   2.871   2.084   2.934  1.9999 -0.6327 -2.1967
  538SOL    HW2 1614   2.788   2.134   3.075  2.5021  0.4560  0.5070
  539SOL     OW 1615   1.988   1.888   0.148  0.2220 -0.5119 -0.7066
  539SOL    HW1 1616   1.910   1.902   0.208  3.2224  2.1458 -0.7273
  539SOL    HW2 1617   1.979   1.811   0.086  2.8216  1.9743 -1.9326
  540SOL     OW 1618   0.420   2.684   1.611 -0.0104  0.2883 -0.4839
  540SOL    HW1 1619   0.496   2.620   1.585 -1.6145 -2.5356  1.1234
  540SOL    HW2 1620   0.420   2.759   1.546  0.7915 -1.8165  0.0529
  541SOL     OW 1621   2.166   0.038   2.167  0.1307  0.1576  0.2976
  541SOL    HW1 1622   2.262   0.057   2.138 -2.2701  0.1692 -0.7409
  541SOL    HW2 1623   2.104   0.109   2.123 -0.9767  1.1958  0.3383
  542SOL     OW 1624   0.197   0.609   2.646  0.1739 -0.2481 -0.1194
  542SOL    HW1 1625   0.130   0.533   2.634 -2.3662 -2.3028  0.5081
  542SOL    HW2 1626   0.149   0.697   2.676  0.2840  1.0770  1.9877
  543SOL     OW 1627   0.287   0.791   1.376 -0.4491  0.3285 -0.2747
  543SOL    HW1 1628   0.322   0.804   1.279 -0.3114  1.3786 -2.2334
  543SOL    HW2 1629   0.229   0.872   1.402  0.8811  0.2587  0.6561
  544SOL     OW 1630   2.568   0.721   1.102  0.5364 -0.1180 -0.2773
  544SOL    HW1 1631   2.668   0.703   1.122  2.0704  3.1342 -0.2779
  544SOL    HW2 1632   2.542   0.675   1.013 -0.4006 -0.3670 -0.5262
  545SOL     OW 1633   1.619   2.119   0.655 -0.5921 -0.7155  0.0885
  545SOL    HW1 1634   1.564   2.033   0.650 -2.9853 -0.4049 -0.8500
  545SOL    HW2 1635   1.588   2.170   0.741 -0.7545  1.3686  1.6623
  546SOL     OW 1636   2.193   2.929   1.647 -0.1361 -0.1769  1.3173
  546SOL    HW1 1637   2.253   2.995   1.696  1.0054 -2.3504  1.1782
  546SOL    HW2 1638   2.165   2.968   1.561  3.3060  0.2148  2.1195
  547SOL     OW 1639   0.480   2.954   2.538  0.2110 -0.3532  0.0131
  547SOL    HW1 1640   0.397   2.969   2.601 -2.3497  1.3384 -2.3749
  547SOL    HW2 1641   0.553   3.024   2.559 -0.1071  0.8013 -0.7942
  548SOL     OW 1642   1.823   0.966   0.054  0.0120 -0.2996 -0.1855
  548SOL    HW1 1643   1.861   0.991   3.074  2.0778  1.5478 -0.5324
  548SOL    HW2 1644   1.784   0.875   0.057  0.0035  0.5432  1.8648
  549SOL     OW 1645   2.875   0.945   0.504  0.4596  0.4776  0.2131
  549SOL    HW1 1646   2.948   0.877   0.525 -0.8234  1.5024 -3.0973
  549SOL    HW2 1647   2.785   0.893   0.502 -3.1043 -1.4156  0.8671
  550SOL     OW 1648   1.945   1.864   0.640 -0.9982  0.2364  0.2069
  550SOL    HW1 1649   1.872   1.822   0.583 -1.2306 -1.4883  0.4712
  550SOL    HW2 1650   1.962   1.809   0.726  0.3615  0.0336 -0.7127
  551SOL     OW 1651   1.312   3.087   0.880 -0.2331  0.1452 -0.3438
  551SOL    HW1 1652   1.348   3.100   0.974 -1.5587 -0.0599 -0.7460
  551SOL    HW2 1653   1.214   3.107   0.879  0.2774 -1.7685  1.0691
  552SOL     OW 1654   2.938   2.783   2.314  0.3227 -0.2938 -0.1472
  552SOL    HW1 1655   2.993   2.747   2.386 -3.7934 -0.4457 -0.1565
  552SOL    HW2 1656   2.974   2.775   2.217 -1.2953 -0.4535  1.9798
  553SOL     OW 1657   0.152   2.899   2.207  0.1867 -0.3281 -0.5161
  553SOL    HW1 1658   0.107   2.837   2.273 -0.1191 -0.4916 -0.2660
  553SOL    HW2 1659   0.245   2.914   2.241 -0.9766 -0.6763  0.6605
  554SOL     OW 1660   0.639   3.066   1.396 -0.3794  0.1960  0.1030
  554SOL    HW1 1661   0.584   0.038   1.373  1.1723 -1.9995  1.2126
  554SOL    HW2 1662   0.718   3.097   1.453  2.9431  0.8143  0.5292
  555SOL     OW 1663   2.456   2.194   2.275  0.4342  0.0911  0.2470
  555SOL    HW1 1664   2.473   2.221   2.371  0.1720  0.5578 -1.4556
  555SOL    HW2 1665   2.387   2.250   2.228 -1.9130 -1.4431 -0.1617
  556SOL     OW 1666   1.143   0.210   2.628 -0.0724 -0.2775  0.2753
  556SOL    HW1 1667   1.079   0.247   2.558  0.4133  0.6219 -1.5747
  556SOL    HW2 1668   1.111   0.115   2.649  2.8004  1.9400 -1.0436
  557SOL     OW 1669   0.395   1.559   2.322 -0.6035  0.0364 -0.4736
  557SOL    HW1 1670   0.294   1.563   2.329  0.4733 -1.8616  0.0884
  557SOL    HW2 1671   0.427   1.461   2.328  0.2988  0.1876  0.9169
  558SOL     OW 1672   2.541   0.961   2.916  0.3126  0.4108  0.6775
  558SOL    HW1 1673   2.553   0.941   2.816 -0.5246 -0.5075  1.0872
  558SOL    HW2 1674   2.469   0.901   2.953 -1.2602 -0.1501  0.9897
  559SOL     OW 1675   2.467   2.126   1.796 -0.0000 -0.0420  0.6406
  559SOL    HW1 1676   2.507   2.098   1.887  2.6095 -3.0107  0.4436
  559SOL    HW2 1677   2.436   2.222   1.793  0.3015 -0.2490  0.5860
  560SOL     OW 1678   2.494   1.041   2.071 -0.1885  0.5485 -0.2225
  560SOL    HW1 1679   2.428   0.996   2.009  0.3487  1.5302  1.2865
  560SOL    HW2 1680   2.589   1.054   2.033  1.1783  0.6906 -1.5253
  561SOL     OW 1681   0.087   0.086   2.735  0.3299  0.2021  0.0657
  561SOL    HW1 1682   0.055   0.156   2.668 -1.7545  0.4895  1.4963
  561SOL    HW2 1683   0.005   0.042   2.780 -1.1343  0.6595  1.6421
  562SOL     OW 1684   1.019   1.129   1.603 -0.4203  0.2788 -0.3251
  562SOL    HW1 1685   1.015   1.043   1.548  0.6878 -1.8824  1.2612
  562SOL    HW2 1686   0.929   1.158   1.643 -0.9548  0.7733  1.4490
  563SOL     OW 1687   1.359   0.246   2.821 -0.4640 -0.0590  0.5321
  563SOL    HW1 1688   1.368   0.157   2.867 -2.6431  2.4106 -0.3176
  563SOL    HW2 1689   1.284   0.235   2.751  0.1578  0.0981  2.0411
  564SOL     OW 1690   0.028   2.219   1.032 -0.1959  0.3181  0.0058
  564SOL    HW1 1691   0.031   2.153   1.110 -1.4452 -2.3257  2.5626
  564SOL    HW2 1692   3.034   2.234   1.018 -0.1575  0.3958 -1.7072
  565SOL     OW 1693   0.660   2.077   1.681 -0.2077 -0.5838 -0.2392
  565SOL    HW1 1694   0.587   2.152   1.675  1.9734  0.8510 -1.7310
  565SOL    HW2 1695   0.664   2.016   1.599 -1.1074 -0.2798  0.8846
  566SOL     OW 1696   1.353   2.414   2.039  0.4059 -0.6686 -0.8624
  566SOL    HW1 1697   1.274   2.453   2.090 -0.4909 -0.0937  0.0631
  566SOL    HW2 1698   1.443   2.405   2.086  0.9489 -2.6743 -1.9839
  567SOL     OW 1699   2.249   2.801   0.997  0.1369 -0.2596  0.1982
  567SOL    HW1 1700   2.332   2.756   1.028 -2.6809  0.9158  0.4259
  567SOL    HW2 1701   2.263   2.858   0.911  1.9775 -1.8291 -3.2305
  568SOL     OW 1702   1.974   0.912   0.557  0.6672  0.2247 -0.1968
  568SOL    HW1 1703   1.926   0.859   0.483  1.9061 -2.2312  0.6809
  568SOL    HW2 1704   1.978   1.009   0.528  0.6409  0.3851  0.9212
  569SOL     OW 1705   3.008   1.751   2.656 -0.0434 -0.3366 -0.3650
  569SOL    HW1 1706   3.087   1.753   2.723  2.2610  1.1321 -1.1171
  569SOL    HW2 1707   2.991   1.653   2.638  1.2639  1.9641 -0.6737
  570SOL     OW 1708   2.904   0.143   1.402 -0.7284  0.0404 -0.3547
  570SOL    HW1 1709   2.869   0.184   1.314 -0.5206  0.6985 -1.0918
  570SOL    HW2 1710   3.004   0.160   1.423  1.8065  0.2206 -0.5584
  571SOL     OW 1711   0.023   0.413   1.762  0.5331 -0.2600 -0.0753
  571SOL    HW1 1712   0.090   0.410   1.843 -0.4444 -1.0581 -0.6738
  571SOL    HW2 1713   3.048   0.472   1.783 -1.0527  1.2016 -0.7457
  572SOL     OW 1714   0.045   2.514   1.075  0.4958  0.1488  0.0294
  572SOL    HW1 1715   0.054   2.415   1.052  1.1550 -1.4454 -0.6575
  572SOL    HW2 1716   0.074   2.528   1.171  1.8712  1.2336 -0.5027
  573SOL     OW 1717   1.006   0.601   3.060 -0.2280 -0.0012  0.0016
  573SOL    HW1 1718   0.926   0.654   3.093 -2.8729 -0.5440  2.5876
  573SOL    HW2 1719   1.008   0.514   0.005  0.1210  1.8488  2.2500
  574SOL     OW 1720   2.683   2.816   2.932  0.6040 -0.3180  0.0498
  574SOL    HW1 1721   2.611   2.764   2.876 -0.4645  0.2372  0.1086
  574SOL    HW2 1722   2.671   2.914   2.918  1.3716 -1.2024  0.7674
  575SOL     OW 1723   1.478   2.508   1.273  0.2814  0.3536 -0.2760
  575SOL    HW1 1724   1.397   2.452   1.257  0.6859  1.3036 -0.9459
  575SOL    HW2 1725   1.471   2.595   1.227  2.2843 -1.2330  2.7481
  576SOL     OW 1726   1.271   2.881   1.139  0.1466  0.3602  0.6637
  576SOL    HW1 1727   1.331   2.802   1.168  0.5415 -2.6018  1.6507
  576SOL    HW2 1728   1.201   2.907   1.207  0.7594  2.0055 -1.8844
  577SOL     OW 1729   2.557   1.332   0.835  0.6088 -0.7004 -0.0183
  577SOL    HW1 1730   2.592   1.318   0.741 -0.1869  1.4975 -0.4346
  577SOL    HW2 1731   2.629   1.308   0.903  0.2859 -2.0854  1.2730
  578SOL     OW 1732   1.438   0.152   0.639  0.3901  0.0708 -0.0811
  578SOL    HW1 1733   1.540   0.157   0.647  1.7476  0.4113  0.2086
  578SOL    HW2 1734   1.399   0.160   0.735 -0.5737 -1.5180  0.1402
  579SOL     OW 1735   2.327   0.783   2.929 -0.0649  0.0711 -0.3586
  579SOL    HW1 1736   2.334   0.712   2.859 -1.3000  3.6426  1.6363
  579SOL    HW2 1737   2.246   0.841   2.904 -1.2487  1.1545 -1.9392
  580SOL     OW 1738   1.738   0.888   2.453  0.3901 -0.2880  0.6944
  580SOL    HW1 1739   1.776   0.929   2.370  1.1882 -1.9139 -0.3146
  580SOL    HW2 1740   1.680   0.954   2.507  0.5910 -1.9968 -1.2265
  581SOL     OW 1741   0.397   0.829   1.122 -0.0331 -0.3565  0.2715
  581SOL    HW1 1742   0.400   0.930   1.133 -1.1363 -1.7473 -2.2072
  581SOL    HW2 1743   0.443   0.806   1.031 -0.3091 -1.0288 -2.5757
  582SOL     OW 1744   2.811   0.103   1.823 -0.3003 -0.8312  0.5657
  582SOL    HW1 1745   2.800   0.026   1.885  1.9145  3.3252 -0.8772
  582SOL    HW2 1746   2.910   0.129   1.812 -0.9827 -0.3480  1.2509
  583SOL     OW 1747   0.204   0.359   1.946  0.5148  0.3557  0.8408
  583SOL    HW1 1748   0.120   0.330   1.998 -0.5650  2.5768  2.3369
  583SOL    HW2 1749   0.289   0.303   1.971  3.7641 -1.0691 -1.6267
  584SOL     OW 1750   1.330   2.066   2.935  0.1307 -0.2375 -0.3236
  584SOL    HW1 1751   1.262   1.988   2.947 -1.2727 -3.1113 -0.1472
  584SOL    HW2 1752   1.356   2.118   3.020  0.1538 -1.1208  0.9007
  585SOL     OW 1753   0.341   2.686   2.848  0.4599 -0.6843 -0.7110
  585SOL    HW1 1754   0.341   2.701   2.949 -1.3096  0.4666  1.7069
  585SOL    HW2 1755   0.420   2.627   2.830 -0.3027  2.1816  2.1674
  586SOL     OW 1756   1.952   1.701   2.619  0.3224  0.0171 -0.0556
  586SOL    HW1 1757   1.953   1.800   2.589 -0.7740  0.3526  1.1765
  586SOL    HW2 1758   1.918   1.630   2.553  0.5873 -0.7063 -0.7770
  587SOL     OW 1759   2.204   2.359   0.199 -0.0765 -0.3359 -0.5413
  587SOL    HW1 1760   2.266   2.373   0.118 -2.4557 -2.7448  0.4778
  587SOL    HW2 1761   2.168   2.267   0.208  1.1951  3.8220 -1.0207
  588SOL     OW 1762   2.687   0.358   0.925 -0.7758  0.1872  0.4381
  588SOL    HW1 1763   2.605   0.419   0.918 -1.0209  0.6011  0.1920
  588SOL    HW2 1764   2.731   0.349   0.833  1.1347 -0.0042 -0.7864
  589SOL     OW 1765   0.392   0.788   0.683  0.6394  0.4256  0.2446
  589SOL    HW1 1766   0.439   0.809   0.599 -1.3525  1.7840  0.3824
  589SOL    HW2 1767   0.296   0.746   0.664  0.6718 -0.7065 -0.4643
  590SOL     OW 1768   2.091   2.113   0.273 -0.2905  0.0817 -0.0253
  590SOL    HW1 1769   2.119   2.071   0.361  0.1103  1.5365 -0.7835
  590SOL    HW2 1770   2.042   2.040   0.216 -1.7974 -1.6737 -0.5499
  591SOL     OW 1771   0.366   2.134   1.114 -0.8042 -0.0803  0.0007
  591SOL    HW1 1772   0.293   2.101   1.178 -0.3538 -3.1084 -3.7267
  591SOL    HW2 1773   0.418   2.213   1.159  0.7754  1.7439  0.6459
  592SOL     OW 1774   1.128   0.616   1.271 -0.3588  0.2218 -0.6593
  592SOL    HW1 1775   1.197   0.537   1.263 -1.4650 -4.7028  2.6023
  592SOL    HW2 1776   1.116   0.647   1.368 -0.8188 -1.4175  1.6024
  593SOL     OW 1777   0.950   1.350   1.402 -0.5785 -0.2248  0.1809
  593SOL    HW1 1778   1.000   1.273   1.444  0.1178 -0.7660  0.7348
  593SOL    HW2 1779   0.916   1.410   1.473  2.8035 -1.7644 -1.0999
  594SOL     OW 1780   0.981   2.119   0.574  0.5799  0.6248 -0.3279
  594SOL    HW1 1781   0.958   2.099   0.475 -0.9181  0.0874 -2.1772
  594SOL    HW2 1782   1.074   2.159   0.589 -0.1029  1.4580 -0.2393
  595SOL     OW 1783   1.633   0.665   1.561 -0.3629  0.1382 -0.3663
  595SOL    HW1 1784   1.640   0.693   1.658  2.0119 -1.0585  2.7702
  595SOL    HW2 1785   1.535   0.653   1.533  1.9955  1.7653 -0.7348
  596SOL     OW 1786   2.809   1.017   1.456 -0.3899 -0.2516  0.3135
  596SOL    HW1 1787   2.901   1.040   1.411  1.9169  2.2761 -1.6149
  596SOL    HW2 1788   2.752   1.099   1.451  2.4273 -0.3132 -0.7842
  597SOL     OW 1789   0.492   2.618   2.241 -0.2670  0.0869  0.3862
  597SOL    HW1 1790   0.533   2.698   2.288 -0.2176  0.0427 -0.3299
  597SOL    HW2 1791   0.552   2.538   2.248 -0.6285  1.9639  0.7735
  598SOL     OW 1792   2.300   1.900   1.777  0.3750  0.0511  0.2521
  598SOL    HW1 1793   2.364   1.983   1.783 -0.3437  0.1997 -1.4321
  598SOL    HW2 1794   2.208   1.927   1.734 -1.4674  0.4613 -1.7919
  599SOL     OW 1795   0.865   3.071   3.055 -0.4825 -0.3358  0.0414
  599SOL    HW1 1796   0.797   3.007   3.013 -1.7643  0.2992 -0.5420
  599SOL    HW2 1797   0.831   3.097   0.039 -2.6514  0.1414  0.2761
  600SOL     OW 1798   0.266   2.183   2.694 -0.6816  0.2571  1.2897
  600SOL    HW1 1799   0.231   2.278   2.680 -0.1475  1.2395 -1.1823
  600SOL    HW2 1800   0.202   2.116   2.651  2.2104 -0.8106  0.2947
  601SOL     OW 1801   0.559   0.799   1.435  0.1877  0.2582  0.4415
  601SOL    HW1 1802   0.460   0.788   1.420  2.3437 -0.0950  0.2125
  601SOL    HW2 1803   0.582   0.784   1.535 -0.3638 -0.5754  1.9235
  602SOL     OW 1804   0.711   3.004   0.738 -1.5742 -0.5083  0.3004
  602SOL    HW1 1805   0.808   3.008   0.697  0.6378  1.8330  0.3069
  602SOL    HW2 1806   0.682   2.910   0.756  2.9743  2.5897  1.8874
  603SOL     OW 1807   0.403   0.458   2.774  0.0917 -0.3012  0.3385
  603SOL    HW1 1808   0.342   0.542   2.763  1.7546 -1.3033  1.4710
  603SOL    HW2 1809   0.351   0.385   2.821  1.9112  2.1531 -0.9977
  604SOL     OW 1810   0.842   2.679   1.575 -0.3169 -0.3103 -0.0823
  604SOL    HW1 1811   0.842   2.768   1.624  0.4866  0.8382 -0.7840
  604SOL    HW2 1812   0.753   2.645   1.555  0.4465  1.7268  0.5644
  605SOL     OW 1813   1.478   1.097   2.330  0.3086  0.2208  0.4653
  605SOL    HW1 1814   1.390   1.145   2.305 -0.4086 -2.9659 -0.5597
  605SOL    HW2 1815   1.476   1.004   2.292 -2.5656 -1.3705 -0.2527
  606SOL     OW 1816   2.298   2.881   2.907  0.1602 -0.0069 -0.3090
  606SOL    HW1 1817   2.299   2.859   3.007 -2.0505  0.0295  3.4380
  606SOL    HW2 1818   2.337   2.801   2.860  0.2588 -0.2886  2.6808
  607SOL     OW 1819   0.893   0.218   1.091 -0.0738 -0.0834 -0.0675
  607SOL    HW1 1820   0.989   0.178   1.118  1.4532 -3.3377 -0.7108
  607SOL    HW2 1821   0.842   0.147   1.042  1.2653  0.2000 -0.4996
  608SOL     OW 1822   0.134   1.612   2.418  0.1734  0.1797 -0.0268
  608SOL    HW1 1823   0.167   1.698   2.462 -1.9387 -1.7510  1.7356
  608SOL    HW2 1824   0.035   1.622   2.384 -0.9307 -2.6640 -0.4681
  609SOL     OW 1825   1.479   1.441   0.372 -0.5783 -0.1354  0.2657
  609SOL    HW1 1826   1.429   1.508   0.313 -1.9489 -1.5399 -1.1430
  609SOL    HW2 1827   1.450   1.343   0.357 -0.3956  0.9466 -1.1405
  610SOL     OW 1828   3.074   0.239   1.081 -0.3913  0.1396  0.3345
  610SOL    HW1 1829   0.000   0.166   1.018  1.6893 -1.2115 -0.7529
  610SOL    HW2 1830   0.035   0.260   1.150  0.3600 -1.7112 -2.2232
  611SOL     OW 1831   1.331   1.092   0.635 -0.1936 -0.5159 -0.3794
  611SOL    HW1 1832   1.354   1.188   0.642 -0.6375 -1.3134 -2.5005
  611SOL    HW2 1833   1.264   1.085   0.559 -2.6610  0.6018  3.1707
  612SOL     OW 1834   2.104   1.524   0.231  0.4425 -0.2093 -0.1595
  612SOL    HW1 1835   2.059   1.502   0.319 -1.0957 -2.7482 -0.0106
  612SOL    HW2 1836   2.156   1.613   0.219  0.0131  3.6206  0.6630
  613SOL     OW 1837   1.665   1.023   0.431 -0.2335 -0.1212  0.2487
  613SOL    HW1 1838   1.699   1.037   0.529  1.9813 -0.5984 -0.5506
  613SOL    HW2 1839   1.725   1.070   0.361 -2.9605  1.2596 -2.1443
  614SOL     OW 1840   2.827   0.106   2.202 -0.4195  0.6314 -0.2764
  614SOL    HW1 1841   2.897   0.039   2.157 -0.3478 -3.5245 -0.7053
  614SOL    HW2 1842   2.839   0.193   2.154  0.0461  1.1736 -1.0934
  615SOL     OW 1843   0.870   2.067   0.941  0.1467 -0.0293 -0.3532
  615SOL    HW1 1844   0.937   2.006   0.899 -1.2326  1.5031  0.7546
  615SOL    HW2 1845   0.777   2.061   0.894 -1.8196 -0.7156  0.1636
  616SOL     OW 1846   1.930   1.175   2.559 -0.0586  0.4310  0.5086
  616SOL    HW1 1847   1.853   1.214   2.504 -0.2679  1.3691 -2.1646
  616SOL    HW2 1848   1.969   1.094   2.514 -4.5413  1.3890 -0.9982
  617SOL     OW 1849   1.225   0.193   0.017  0.6456  0.0561 -0.3281
  617SOL    HW1 1850   1.138   0.238   0.048  0.6404 -4.5508 -0.8550
  617SOL    HW2 1851   1.194   0.103   3.090  0.2972  0.3141 -0.3582
  618SOL     OW 1852   2.111   2.085   2.375 -0.2129 -0.2018 -0.0459
  618SOL    HW1 1853   2.132   2.059   2.276  1.4497 -3.9236 -2.0499
  618SOL    HW2 1854   2.185   2.039   2.432  1.4900 -0.6685  0.7528
  619SOL     OW 1855   2.136   1.994   0.922  0.1596  0.5673  0.4716
  619SOL    HW1 1856   2.098   2.077   0.873  0.0207  0.3849 -1.6711
  619SOL    HW2 1857   2.072   1.914   0.908 -1.7183 -2.1613 -2.7198
  620SOL     OW 1858   2.058   2.784   2.056 -0.0798 -0.0294 -0.3521
  620SOL    HW1 1859   2.109   2.776   1.971  0.1854  1.4314  0.5613
  620SOL    HW2 1860   2.043   2.692   2.102 -0.9695 -1.3282  2.3673
  621SOL     OW 1861   3.015   1.661   0.695  0.0993  0.0649  0.0571
  621SOL    HW1 1862   3.098   1.609   0.689 -1.7765 -0.5620 -2.4358
  621SOL    HW2 1863   3.027   1.751   0.649  0.6690  0.2820  0.3592
  622SOL     OW 1864   1.148   1.655   2.886 -0.4237  0.0429 -0.2822
  622SOL    HW1 1865   1.189   1.700   2.808 -0.7057 -1.8969 -1.7731
  622SOL    HW2 1866   1.154   1.720   2.967  0.1616  3.6726  0.9325
  623SOL     OW 1867   2.726   2.644   2.268  0.1420 -0.5129  0.0613
  623SOL    HW1 1868   2.659   2.715   2.252  2.8673 -1.0283 -0.2695
  623SOL    HW2 1869   2.813   2.691   2.300  0.9341  1.9114  0.2923
  624SOL     OW 1870   0.806   2.390   0.422  0.0386 -0.3390  0.7086
  624SOL    HW1 1871   0.844   2.405   0.516 -0.3672 -0.6198 -0.4860
  624SOL    HW2 1872   0.741   2.311   0.424 -0.8020  0.4847  0.3320
  625SOL     OW 1873   0.355   1.774   2.172  0.2843 -0.1569 -0.4110
  625SOL    HW1 1874   0.382   1.696   2.229 -3.9800  1.3787 -1.0639
  625SOL    HW2 1875   0.432   1.825   2.133  0.0983 -1.4916  1.6286
  626SOL     OW 1876   0.770   2.661   0.025 -0.3273  0.3163  0.0294
  626SOL    HW1 1877   0.833   2.677   0.108  0.3069  1.2336  0.6499
  626SOL    HW2 1878   0.676   2.635   0.061 -0.3759  3.8722  1.2043
  627SOL     OW 1879   1.563   1.601   0.004 -0.7219  0.0512 -0.3284
  627SOL    HW1 1880   1.497   1.582   3.042 -2.0748  1.2976  1.3066
  627SOL    HW2 1881   1.593   1.699   3.108 -1.1929  2.8088  2.5832
  628SOL     OW 1882   1.495   2.232   0.889 -0.0458 -0.3288 -0.4933
  628SOL    HW1 1883   1.400   2.204   0.916  3.6361 -2.0966  0.7100
  628SOL    HW2 1884   1.544   2.273   0.972  0.8461  0.2186 -0.8140
  629SOL     OW 1885   0.269   0.089   1.658  0.1524  0.2463  0.8301
  629SOL    HW1 1886   0.304   0.051   1.747 -1.1821  0.0539 -1.7443
  629SOL    HW2 1887   0.329   0.069   1.580 -2.5981 -0.9144  0.8284
  630SOL     OW 1888   2.405   0.618   1.582  0.2660 -0.3283  0.2458
  630SOL    HW1 1889   2.325   0.677   1.590  4.1969 -0.5902 -0.7914
  630SOL    HW2 1890   2.440   0.622   1.484 -1.3109 -0.0487  0.1132
  631SOL     OW 1891   1.460   0.592   1.195 -0.1565  0.2198 -0.0629
  631SOL    HW1 1892   1.517   0.634   1.124  1.0021 -1.0180  0.3053
  631SOL    HW2 1893   1.403   0.514   1.153 -1.0564 -2.4491 -1.2054
  632SOL     OW 1894   2.757   1.131   2.009 -0.3069  0.2247  0.2164
  632SOL    HW1 1895   2.815   1.112   1.928  0.5715  3.0564  0.0868
  632SOL    HW2 1896   2.790   1.073   2.084 -0.8272 -0.0243 -3.6717
  633SOL     OW 1897   1.475   0.844   2.971 -0.1604 -0.2395 -0.3423
  633SOL    HW1 1898   1.415   0.811   3.044 -0.5590 -0.2371  1.2683
  633SOL    HW2 1899   1.442   0.814   2.879  0.2783 -0.9926  2.3575
  634SOL     OW 1900   0.516   2.622   0.132 -0.4779  0.0414 -0.2335
  634SOL    HW1 1901   0.559   2.636   0.225 -0.8529  0.1350  3.1577
  634SOL    HW2 1902   0.440   2.554   0.144 -2.0193  1.2606  0.8208
  635SOL     OW 1903   2.919   1.604   1.538 -0.0629 -0.0956  0.3956
  635SOL    HW1 1904   2.836   1.553   1.570  0.7216 -0.8068  1.1784
  635SOL    HW2 1905   2.914   1.697   1.580 -1.1322  1.3661 -0.3698
  636SOL     OW 1906   3.109   1.712   0.103  0.2651  0.2814 -0.5244
  636SOL    HW1 1907   0.028   1.670   0.014 -1.0446  1.8056  2.3751
  636SOL    HW2 1908   0.089   1.732   0.153  3.5301 -2.0994 -1.6545
  637SOL     OW 1909   0.019   2.713   0.406 -0.4244  0.0717 -0.0735
  637SOL    HW1 1910   3.074   2.745   0.482  0.6970 -2.0522  1.5125
  637SOL    HW2 1911   0.020   2.786   0.333  2.6379  1.3207  0.9785
  638SOL     OW 1912   3.059   2.880   0.166  0.0204  0.2729 -0.8031
  638SOL    HW1 1913   3.005   2.797   0.136  0.4945  2.1181  0.5310
  638SOL    HW2 1914   0.034   2.887   0.112  0.9837 -1.4425  0.0626
  639SOL     OW 1915   1.469   0.478   2.943 -0.2870 -0.3035  0.1005
  639SOL    HW1 1916   1.482   0.565   2.887  0.4517 -0.0901 -1.4079
  639SOL    HW2 1917   1.418   0.412   2.888  1.4204 -0.3519  2.2188
  640SOL     OW 1918   2.302   2.151   1.458 -0.1355  0.6840 -0.2495
  640SOL    HW1 1919   2.301   2.138   1.355 -2.3515  3.0350  0.9259
  640SOL    HW2 1920   2.396   2.143   1.497 -2.3796  0.5586  0.2776
  641SOL     OW 1921   2.981   2.889   1.019 -0.1908  0.0325  0.0246
  641SOL    HW1 1922   3.043   2.905   1.102  2.7795  0.4927  4.0346
  641SOL    HW2 1923   2.967   2.977   0.967  1.9776 -0.9320 -1.4047
  642SOL     OW 1924   1.583   1.196   1.496  0.8922 -0.5917  0.2873
  642SOL    HW1 1925   1.656   1.170   1.432 -0.7804 -0.8272 -1.0259
  642SOL    HW2 1926   1.614   1.177   1.593 -1.3849 -2.5742  3.2557
  643SOL     OW 1927   0.903   1.779   2.454 -0.4130  0.3072  0.3331
  643SOL    HW1 1928   0.971   1.854   2.439 -0.7532 -0.3178 -0.3268
  643SOL    HW2 1929   0.845   1.770   2.372  2.0302  0.8057  2.3538
  644SOL     OW 1930   1.824   2.929   2.451  0.0342  0.8436 -0.3419
  644SOL    HW1 1931   1.918   2.917   2.408  3.5944 -0.9117 -0.2282
  644SOL    HW2 1932   1.749   2.905   2.382 -1.8959 -2.1299 -3.2791
  645SOL     OW 1933   1.485   1.013   1.900 -0.3233  0.4422 -0.1939
  645SOL    HW1 1934   1.403   1.037   1.844  1.6236  1.5795 -1.3630
  645SOL    HW2 1935   1.559   1.072   1.867 -0.9667 -0.8219 -0.3447
  646SOL     OW 1936   1.270   2.536   3.051 -0.2183  0.1147  0.1299
  646SOL    HW1 1937   1.228   2.526   2.959  2.9025 -2.3120  0.8891
  646SOL    HW2 1938   1.366   2.499   3.062  1.5920 -1.3345 -0.1871
  647SOL     OW 1939   1.209   2.603   0.901  0.1208 -0.6037 -0.0309
  647SOL    HW1 1940   1.172   2.609   0.995 -2.2694  1.8112  0.0342
  647SOL    HW2 1941   1.306   2.644   0.895  0.6473  2.9836 -0.9874
  648SOL     OW 1942   2.927   2.698   1.268  0.2550  0.2498  0.2720
  648SOL    HW1 1943   3.014   2.727   1.304 -0.1331  2.8859 -2.1007
  648SOL    HW2 1944   2.927   2.743   1.176  0.0132 -0.0737 -0.7593
  649SOL     OW 1945   0.722   2.354   2.571  0.4782  0.2514  0.2539
  649SOL    HW1 1946   0.815   2.313   2.572  0.3189 -0.9415  0.1178
  649SOL    HW2 1947   0.663   2.299   2.633  0.9665 -0.9038 -1.3320
  650SOL     OW 1948   2.954   1.972   2.872  0.9647 -0.4752 -0.0823
  650SOL    HW1 1949   3.035   1.912   2.881 -0.4691 -1.1402  1.1896
  650SOL    HW2 1950   2.893   1.943   2.798  0.3454  1.6356 -0.2254
  651SOL     OW 1951   2.251   2.326   2.136  0.5030 -0.1853  0.4740
  651SOL    HW1 1952   2.155   2.330   2.166 -0.1389  1.4335 -0.0965
  651SOL    HW2 1953   2.278   2.417   2.102 -1.2307 -0.0572 -0.5987
  652SOL     OW 1954   2.414   2.753   1.387 -0.2457 -0.1996 -0.0165
  652SOL    HW1 1955   2.415   2.735   1.487 -0.9214  0.3642 -2.0400
  652SOL    HW2 1956   2.502   2.739   1.339 -0.4083 -0.6210 -1.7279
  653SOL     OW 1957   2.848   1.337   1.119  0.1281  0.2804  0.0667
  653SOL    HW1 1958   2.819   1.244   1.083 -0.1401 -3.5484 -1.4634
  653SOL    HW2 1959   2.918   1.371   1.049 -0.6561 -0.6673 -0.9046
  654SOL     OW 1960   0.924   0.453   2.797  0.0133  0.6242  0.2854
  654SOL    HW1 1961   1.017   0.491   2.804 -2.7584 -2.5235  1.9770
  654SOL    HW2 1962   0.915   0.369   2.855  2.4488 -0.6738  2.7681
  655SOL     OW 1963   0.858   0.466   0.946 -0.3209  0.1688 -0.4721
  655SOL    HW1 1964   0.856   0.559   0.995 -0.0598 -0.5991  1.6402
  655SOL    HW2 1965   0.830   0.389   1.004  1.7848 -0.7744 -4.1565
  656SOL     OW 1966   0.443   2.381   1.963  0.3322  0.2118  0.1310
  656SOL    HW1 1967   0.370   2.310   1.974  0.6204  1.5836 -0.6719
  656SOL    HW2 1968   0.399   2.470   1.955  2.2528  0.0743 -0.0791
  657SOL     OW 1969   2.445   0.815   0.266  0.7823  0.4617 -0.5895
  657SOL    HW1 1970   2.415   0.749   0.193  0.4273  2.2808 -2.1676
  657SOL    HW2 1971   2.527   0.865   0.237  0.4633 -0.3097  0.2495
  658SOL     OW 1972   1.697   1.934   1.505  0.2637  0.2942  0.3796
  658SOL    HW1 1973   1.742   2.015   1.546 -0.8369 -0.7376  1.7055
  658SOL    HW2 1974   1.677   1.947   1.408 -0.6332 -0.1568  1.0051
  659SOL     OW 1975   2.675   1.847   0.042 -0.0986 -0.3133  0.0501
  659SOL    HW1 1976   2.743   1.775   0.025 -0.1075  2.0169 -0.5687
  659SOL    HW2 1977   2.599   1.808   0.097 -1.2729  2.9226 -0.9516
  660SOL     OW 1978   1.037   0.203   0.708  0.1395  0.5526 -0.1359
  660SOL    HW1 1979   1.032   0.114   0.760  1.1336  0.6358 -0.9210
  660SOL    HW2 1980   1.098   0.197   0.625  1.7266 -0.5571 -0.1843
  661SOL     OW 1981   1.755   0.392   0.369 -0.9258 -0.0667  0.0189
  661SOL    HW1 1982   1.682   0.450   0.332  3.0828 -3.2828  2.5611
  661SOL    HW2 1983   1.820   0.449   0.419  1.4720 -2.2218 -0.3686
  662SOL     OW 1984   0.459   0.001   0.779  0.0355  0.0402  0.1610
  662SOL    HW1 1985   0.538   3.068   0.733  0.0329  0.1611 -1.6713
  662SOL    HW2 1986   0.380   0.011   0.712  3.0149 -0.4646 -0.0444
  663SOL     OW 1987   1.158   2.803   2.209  0.3548 -0.0491  0.3257
  663SOL    HW1 1988   1.080   2.821   2.145  1.8942 -0.8484 -2.5732
  663SOL    HW2 1989   1.134   2.737   2.288 -1.0534  0.0551  2.0734
  664SOL     OW 1990   0.927   2.221   1.648  0.3428  0.1024 -0.2564
  664SOL    HW1 1991   0.828   2.206   1.675 -1.3243  1.2769 -0.5183
  664SOL    HW2 1992   0.955   2.316   1.673 -2.2375 -3.2943 -0.6938
  665SOL     OW 1993   1.048   2.082   1.835 -0.1175 -0.4878 -0.1241
  665SOL    HW1 1994   1.058   2.160   1.897  0.1316  0.4579  0.5462
  665SOL    HW2 1995   1.004   2.106   1.749  2.2450  0.4853  0.0084
  666SOL     OW 1996   0.861   2.822   2.445 -0.1236  0.2183 -0.2264
  666SOL    HW1 1997   0.898   2.865   2.527 -1.1069  0.0254 -1.1467
  666SOL    HW2 1998   0.765   2.787   2.467 -2.0738  2.8350 -0.2750
  667SOL     OW 1999   2.319   1.201   1.657  0.4352 -0.1502 -0.3005
  667SOL    HW1 2000   2.327   1.279   1.591  0.0457 -1.2275 -0.0959
  667SOL    HW2 2001   2.390   1.209   1.734 -0.9299  0.7744  0.2223
  668SOL     OW 2002   1.693   0.112   1.959  0.0146 -0.2415 -0.3539
  668SOL    HW1 2003   1.745   0.025   1.982  1.1983  0.4513  0.2856
  668SOL    HW2 2004   1.590   0.099   1.957 -2.0973  1.5730  1.7060
  669SOL     OW 2005   2.502   2.659   1.034  0.2939 -0.4241 -0.5976
  669SOL    HW1 2006   2.554   2.654   1.121  1.6835  0.8714  1.5299
  669SOL    HW2 2007   2.554   2.695   0.954  0.0364  1.9521  1.2565
  670SOL     OW 2008   1.420   2.566   2.670 -0.1816 -0.1070 -0.3012
  670SOL    HW1 2009   1.339   2.525   2.722 -0.4712  0.8263 -1.7881
  670SOL    HW2 2010   1.426   2.527   2.575 -1.7917 -2.7548 -1.0606
  671SOL     OW 2011   0.536   0.983   0.483  0.2463  0.6232 -0.4845
  671SOL    HW1 2012   0.586   1.045   0.419 -0.6262  3.3881  1.6205
  671SOL    HW2 2013   0.438   1.001   0.470  0.6731  0.0827  0.8636
  672SOL     OW 2014   2.775   1.204   2.992  0.2390 -0.5158 -0.7482
  672SOL    HW1 2015   2.679   1.204   2.962 -1.0371 -1.0647 -0.1039
  672SOL    HW2 2016   2.822   1.124   2.950 -0.2892  1.4747 -0.2503
  673SOL     OW 2017   3.090   2.003   1.515  0.5450  0.5107 -0.1014
  673SOL    HW1 2018   3.034   2.054   1.579  2.3710 -0.1015 -1.1064
  673SOL    HW2 2019   3.035   1.921   1.488  1.3611 -1.1954 -0.3602
  674SOL     OW 2020   0.995   2.133   2.182 -0.0912 -0.3443  0.3706
  674SOL    HW1 2021   1.081   2.178   2.199 -0.6728  1.3496  0.2883
  674SOL    HW2 2022   0.937   2.181   2.114 -1.4895 -1.8542  1.0495
  675SOL     OW 2023   1.035   0.903   1.432 -0.5617 -0.1801  0.2915
  675SOL    HW1 2024   1.076   0.844   1.503  2.8606  2.2171  0.6969
  675SOL    HW2 2025   0.943   0.873   1.393 -2.8210 -0.4680 -1.6553
  676SOL     OW 2026   1.785   0.233   1.382  0.0232 -0.4181  0.0149
  676SOL    HW1 2027   1.744   0.224   1.288  1.6884  0.9172  2.1899
  676SOL    HW2 2028   1.780   0.143   1.429  1.1971  2.1878  1.5339
  677SOL     OW 2029   2.722   0.907   0.195 -0.7130 -0.0440  0.0326
  677SOL    HW1 2030   2.721   0.906   0.296  1.8503 -0.9843  0.4399
  677SOL    HW2 2031   2.750   0.999   0.162  0.5945 -0.8244  0.6471
  678SOL     OW 2032   2.424   1.317   1.250  0.0193  0.6023 -0.0288
  678SOL    HW1 2033   2.434   1.383   1.170 -0.1831 -0.8350 -1.8403
  678SOL    HW2 2034   2.407   1.221   1.213  1.1963  0.9143  0.0759
  679SOL     OW 2035   2.875   0.509   2.823 -0.2962  0.1231 -0.2149
  679SOL    HW1 2036   2.875   0.611   2.796 -1.8093 -2.1532 -0.7062
  679SOL    HW2 2037   2.937   0.492   2.902  1.0221  2.8673 -1.2201
  680SOL     OW 2038   0.551   1.329   2.167  0.3617 -0.7839 -0.6214
  680SOL    HW1 2039   0.540   1.321   2.268  1.4850  0.8178 -0.0489
  680SOL    HW2 2040   0.458   1.311   2.125 -0.0465 -2.6803 -0.7336
  681SOL     OW 2041   2.569   2.113   1.521 -0.1668  0.4727 -0.2388
  681SOL    HW1 2042   2.581   2.099   1.622 -3.2437 -0.5901 -0.2084
  681SOL    HW2 2043   2.580   2.028   1.462  4.9127 -1.9723 -0.0423
  682SOL     OW 2044   0.151   2.092   3.079 -0.4399 -0.2886 -0.2652
  682SOL    HW1 2045   0.152   2.194   3.065 -0.5902 -0.4158  0.4787
  682SOL    HW2 2046   0.199   2.042   3.001  0.8691 -2.6090 -0.1958
  683SOL     OW 2047   2.881   2.198   0.913 -0.1199  0.1839  0.5885
  683SOL    HW1 2048   2.871   2.114   0.857  1.8106  2.7255 -2.0833
  683SOL    HW2 2049   2.795   2.213   0.962  0.0461 -0.0761 -1.4841
  684SOL     OW 2050   3.005   1.408   2.139 -0.5244  0.5731 -0.0937
  684SOL    HW1 2051   3.079   1.337   2.161 -1.1642 -0.5914  1.0360
  684SOL    HW2 2052   2.998   1.417   2.034  1.1146 -0.7540 -1.0315
  685SOL     OW 2053   1.263   0.611   0.853 -0.0989  0.2317  0.4439
  685SOL    HW1 2054   1.224   0.528   0.895 -1.8692 -0.4881 -1.0107
  685SOL    HW2 2055   1.336   0.579   0.791 -1.4401 -0.7562  3.4270
  686SOL     OW 2056   0.487   0.474   0.332  0.8583  0.2011 -0.2546
  686SOL    HW1 2057   0.550   0.495   0.408 -0.2152  0.1283  2.2520
  686SOL    HW2 2058   0.401   0.527   0.338  2.6268 -0.6605 -0.8236
  687SOL     OW 2059   0.464   2.029   2.439 -0.2563 -0.3945  0.0243
  687SOL    HW1 2060   0.441   2.074   2.352  0.2085  1.1881  2.0289
  687SOL    HW2 2061   0.396   1.963   2.468  3.3443  1.0089  0.1376
  688SOL     OW 2062   1.976   0.566   1.491 -0.7577  0.0711  0.1302
  688SOL    HW1 2063   2.002   0.471   1.475  2.1534 -2.1324 -0.5481
  688SOL    HW2 2064   1.887   0.582   1.439 -0.1908 -0.9309  3.0303
  689SOL     OW 2065   1.618   0.648   0.920  0.3108 -0.3430 -0.0780
  689SOL    HW1 2066   1.713   0.672   0.888  1.1816 -0.3430 -0.2596
  689SOL    HW2 2067   1.549   0.624   0.844 -0.5851 -0.6960 -1.5626
  690SOL     OW 2068   3.013   1.165   1.314  0.5228 -0.2157 -0.4644
  690SOL    HW1 2069   3.003   1.265   1.318  2.1156 -1.7091  2.5889
  690SOL    HW2 2070   2.962   1.132   1.234 -3.2878 -1.1182 -1.7914
  691SOL     OW 2071   3.017   1.437   1.356 -0.3092 -0.1000  0.1055
  691SOL    HW1 2072   3.107   1.484   1.348 -0.1561  3.2429  1.8143
  691SOL    HW2 2073   2.963   1.489   1.428 -1.7835  2.5777  1.8197
  692SOL     OW 2074   1.197   0.374   1.486 -0.2375  0.4290 -0.0998
  692SOL    HW1 2075   1.257   0.427   1.554  1.1125 -0.9698 -0.6344
  692SOL    HW2 2076   1.098   0.369   1.511  0.1286 -1.1213  1.0877
  693SOL     OW 2077   0.890   1.325   2.301 -0.5154  0.2826 -0.1518
  693SOL    HW1 2078   0.964   1.381   2.268 -2.0330 -2.0341  0.8679
  693SOL    HW2 2079   0.867   1.246   2.242  0.1437 -0.6496  2.4544
  694SOL     OW 2080   1.711   1.503   0.524 -0.4329  0.0078 -0.1211
  694SOL    HW1 2081   1.725   1.451   0.610  1.9358  4.4482 -2.5707
  694SOL    HW2 2082   1.615   1.499   0.485 -0.8741 -0.5205 -0.9058
  695SOL     OW 2083   0.621   1.030   1.273  0.1092 -0.4402  0.4492
  695SOL    HW1 2084   0.545   1.041   1.209  0.4152 -0.2737  1.3057
  695SOL    HW2 2085   0.596   0.955   1.335  1.3075  0.4968 -3.4250
  696SOL     OW 2086   0.177   3.099   0.364  0.0264  0.2241  0.0942
  696SOL    HW1 2087   0.075   3.091   0.352  1.4233 -2.4887  0.2252
  696SOL    HW2 2088   0.219   3.012   0.333 -3.8664  2.3642  0.6168
  697SOL     OW 2089   1.898   0.584   1.077 -0.8570  0.3834 -0.4470
  697SOL    HW1 2090   1.871   0.636   1.157  2.2492 -0.1734 -3.1262
  697SOL    HW2 2091   1.835   0.507   1.058 -1.8315 -0.8738 -0.7596
  698SOL     OW 2092   1.743   1.493   1.721 -0.2666 -0.0304 -0.3136
  698SOL    HW1 2093   1.792   1.575   1.761 -0.1308  4.4865 -1.1787
  698SOL    HW2 2094   1.806   1.413   1.714 -1.0387  0.5049  0.1521
  699SOL     OW 2095   3.104   0.240   2.106 -0.3938 -0.2467 -0.5123
  699SOL    HW1 2096   0.047   0.254   2.189 -2.5531 -1.9337 -2.8929
  699SOL    HW2 2097   3.068   0.147   2.102  0.7278  3.8823 -0.7905
  700SOL     OW 2098   1.470   2.669   0.812  0.5755 -0.3509  0.1549
  700SOL    HW1 2099   1.563   2.640   0.783 -0.8401 -3.4367 -0.4676
  700SOL    HW2 2100   1.431   2.752   0.765  1.4815 -1.1596  1.8063
  701SOL     OW 2101   0.136   1.396   2.569  0.0814  0.3051  0.0866
  701SOL    HW1 2102   0.125   1.480   2.517 -0.4824 -1.4132  0.9089
  701SOL    HW2 2103   0.223   1.393   2.618 -3.2809 -1.6158  1.1510
  702SOL     OW 2104   0.614   0.228   0.327 -0.5076  0.2833  0.3753
  702SOL    HW1 2105   0.558   0.313   0.324  0.6199  0.2711 -0.5002
  702SOL    HW2 2106   0.556   0.143   0.321 -1.1015 -1.4035  1.5144
  703SOL     OW 2107   1.762   0.057   2.598 -0.3564  0.3550 -0.1433
  703SOL    HW1 2108   1.805   0.037   2.686  0.6430 -2.9505 -0.1178
  703SOL    HW2 2109   1.779   3.093   2.532 -2.5034  3.1275 -0.7031
  704SOL     OW 2110   2.508   2.163   0.732  0.4917  0.6021 -0.3013
  704SOL    HW1 2111   2.538   2.219   0.814 -1.9472 -2.2762  1.4782
  704SOL    HW2 2112   2.580   2.168   0.661 -1.8548 -1.0619  2.0156
  705SOL     OW 2113   2.568   2.061   2.032 -0.4086 -0.3090 -0.0813
  705SOL    HW1 2114   2.582   1.967   2.052 -1.2890  2.3732  0.6098
  705SOL    HW2 2115   2.557   2.117   2.115 -0.0900  0.7599  1.1739
  706SOL     OW 2116   2.948   2.751   0.624  0.2407  0.3690 -0.1604
  706SOL    HW1 2117   2.974   2.695   0.704  0.3524  0.6555  0.7233
  706SOL    HW2 2118   2.965   2.846   0.642  0.8466 -2.1624 -2.8569
  707SOL     OW 2119   0.819   3.047   0.224 -0.3338 -0.3421  0.2629
  707SOL    HW1 2120   0.888   2.970   0.206 -0.8828  2.2679  1.8083
  707SOL    HW2 2121   0.848   0.001   0.299 -1.4394  2.6475  1.4651
  708SOL     OW 2122   0.305   2.185   1.564  0.2978  0.0992 -0.5877
  708SOL    HW1 2123   0.227   2.180   1.628  1.4379 -0.8908 -1.7771
  708SOL    HW2 2124   0.352   2.094   1.543 -1.2798 -2.6841 -1.2016
  709SOL     OW 2125   1.308   2.687   1.971  0.5745 -0.3814 -0.0687
  709SOL    HW1 2126   1.365   2.603   1.979 -1.5177  1.6983 -1.0339
  709SOL    HW2 2127   1.278   2.727   2.062 -1.6183  1.5460 -0.5139
  710SOL     OW 2128   1.894   2.564   2.504  0.2771 -0.6984 -0.4425
  710SOL    HW1 2129   1.950   2.645   2.529 -2.0195 -2.2783 -0.3244
  710SOL    HW2 2130   1.821   2.592   2.439 -0.5803  1.4664  2.5826
  711SOL     OW 2131   1.202   2.484   2.800 -0.5387 -0.1298  0.0664
  711SOL    HW1 2132   1.136   2.554   2.769 -0.1952  1.6413  0.2078
  711SOL    HW2 2133   1.190   2.398   2.744 -0.7229 -1.2075 -6.2066
  712SOL     OW 2134   1.206   2.193   2.710 -0.5084 -0.2222 -0.0284
  712SOL    HW1 2135   1.255   2.160   2.795 -0.3442  0.6800  0.6417
  712SOL    HW2 2136   1.106   2.169   2.711 -1.3479 -0.4080 -0.9457
  713SOL     OW 2137   1.418   0.967   1.550 -0.6865  0.5240  0.3111
  713SOL    HW1 2138   1.423   0.882   1.491  1.7015  0.4107  0.1477
  713SOL    HW2 2139   1.495   1.033   1.536  0.7742  0.2459  1.0961
  714SOL     OW 2140   1.333   1.260   1.398  0.5470  0.3232  0.0914
  714SOL    HW1 2141   1.282   1.185   1.351 -1.0341 -2.1155  1.0769
  714SOL    HW2 2142   1.426   1.231   1.425 -2.0713  2.8512 -2.9808
  715SOL     OW 2143   2.637   3.039   0.491  0.3140  0.3998 -0.2747
  715SOL    HW1 2144   2.706   3.095   0.449 -0.4984 -2.7537  0.1312
  715SOL    HW2 2145   2.645   2.945   0.449 -0.4294 -0.7471 -1.0741
  716SOL     OW 2146   0.739   2.635   1.191 -0.4118  0.3279  0.3026
  716SOL    HW1 2147   0.732   2.593   1.101 -1.3341  0.0162 -0.6951
  716SOL    HW2 2148   0.654   2.622   1.250 -0.9137  2.8981  1.4938
  717SOL     OW 2149   3.040   0.447   3.074  0.5269  0.3411 -0.1874
  717SOL    HW1 2150   2.997   0.368   3.030 -0.2972 -2.6470 -1.9107
  717SOL    HW2 2151   3.030   0.449   0.065 -0.2448 -0.4644  1.4364
  718SOL     OW 2152   1.659   1.542   1.272 -0.2324 -0.9304 -0.8767
  718SOL    HW1 2153   1.615   1.546   1.364  1.2823  1.9631 -0.1875
  718SOL    HW2 2154   1.736   1.477   1.279 -1.9151  0.5666 -0.4709
  719SOL     OW 2155   2.954   2.634   0.072 -0.2864 -0.4134  0.4655
  719SOL    HW1 2156   2.921   2.629   3.082 -0.1976 -1.3841 -1.1641
  719SOL    HW2 2157   2.903   2.563   0.122 -0.0313  0.4037 -0.9334
  720SOL     OW 2158   1.038   0.767   0.856  0.7462 -0.5635 -0.6522
  720SOL    HW1 2159   1.117   0.705   0.851 -1.8504  0.7945  0.7934
  720SOL    HW2 2160   0.989   0.740   0.945 -0.3390 -0.0557  1.5332
  721SOL     OW 2161   1.732   0.415   0.979 -0.4504  0.1634 -0.4499
  721SOL    HW1 2162   1.688   0.341   1.037  0.4587 -2.0470  1.8721
  721SOL    HW2 2163   1.667   0.493   0.989  1.5645 -0.1209  0.5788
  722SOL     OW 2164   1.157   1.665   1.990  0.3562  0.1799  0.3878
  722SOL    HW1 2165   1.063   1.685   2.025  1.0939 -1.1029  0.1289
  722SOL    HW2 2166   1.204   1.758   1.978 -0.8858  1.1411  0.3596
  723SOL     OW 2167   1.147   0.017   1.561  0.7319  0.0094  0.2156
  723SOL    HW1 2168   1.140   3.079   1.472  1.3658 -0.0738 -0.3746
  723SOL    HW2 2169   1.226   3.082   1.611  0.8987 -3.2271 -1.4940
  724SOL     OW 2170   1.862   2.125   1.988 -0.4670 -0.1689 -0.1893
  724SOL    HW1 2171   1.804   2.060   2.046  3.3941  0.1747 -1.2245
  724SOL    HW2 2172   1.922   2.071   1.924  0.8346 -1.7506 -0.9251
  725SOL     OW 2173   1.244   2.788   1.494  0.0624  0.0515  0.0429
  725SOL    HW1 2174   1.344   2.822   1.490  0.2831  1.5437  0.2132
  725SOL    HW2 2175   1.244   2.689   1.520 -1.9731 -0.6551  0.8663
  726SOL     OW 2176   1.652   3.047   0.095  0.5427  1.1487  0.8072
  726SOL    HW1 2177   1.626   0.040   0.101  2.3756  0.7086 -0.8067
  726SOL    HW2 2178   1.727   3.013   0.155 -2.0367  1.3134  0.6840
  727SOL     OW 2179   1.382   1.826   0.860 -0.2093 -0.0093  0.0653
  727SOL    HW1 2180   1.293   1.877   0.868  2.3888 -0.6691 -0.9372
  727SOL    HW2 2181   1.446   1.848   0.941  0.8386  1.9106  0.1554
  728SOL     OW 2182   2.013   2.825   2.674  0.2096  0.2050  0.0049
  728SOL    HW1 2183   1.948   2.865   2.606 -1.0596 -1.8409 -0.3851
  728SOL    HW2 2184   2.051   2.898   2.731  2.0641  2.3558 -0.4649
  729SOL     OW 2185   2.146   2.305   1.668  0.9150 -0.3475 -1.0485
  729SOL    HW1 2186   2.200   2.348   1.740  0.2966  0.5270 -0.1458
  729SOL    HW2 2187   2.202   2.282   1.588 -0.5383  0.4467 -0.0055
  730SOL     OW 2188   1.991   0.598   2.479  0.0594  0.2432 -0.4591
  730SOL    HW1 2189   1.918   0.576   2.412  0.5679 -0.8549 -1.4009
  730SOL    HW2 2190   2.071   0.535   2.473 -0.5719  0.0199 -0.3990
  731SOL     OW 2191   0.459   0.151   1.327  0.0506 -0.1392 -0.2372
  731SOL    HW1 2192   0.406   0.108   1.251  1.1340 -1.1183  0.7354
  731SOL    HW2 2193   0.474   0.250   1.311  1.9121 -1.0263 -2.6795
  732SOL     OW 2194   1.686   0.182   1.122  0.4404  0.2376  0.0141
  732SOL    HW1 2195   1.608   0.118   1.112 -1.8869 -1.3196 -0.5551
  732SOL    HW2 2196   1.776   0.147   1.084  0.0514  0.3040  0.6322
  733SOL     OW 2197   0.847   0.981   1.118 -0.0590 -0.5327 -0.2495
  733SOL    HW1 2198   0.757   1.003   1.164 -0.7585  0.6632 -1.3460
  733SOL    HW2 2199   0.910   1.058   1.121 -2.7969 -3.3306 -0.7441
  734SOL     OW 2200   2.599   2.396   0.363 -0.3493  0.2077 -0.6852
  734SOL    HW1 2201   2.496   2.396   0.372 -0.7220  0.2915  0.7822
  734SOL    HW2 2202   2.641   2.446   0.441  0.4439  0.2088 -1.0361
  735SOL     OW 2203   0.569   0.677   0.119 -0.2212 -0.5881  0.8860
  735SOL    HW1 2204   0.510   0.763   0.109  1.1437 -3.5339 -2.0139
  735SOL    HW2 2205   0.560   0.644   0.215 -0.4997  2.5624 -1.6524
  736SOL     OW 2206   1.885   2.302   2.455 -0.3204  0.3979 -0.3027
  736SOL    HW1 2207   1.888   2.402   2.475  0.2738  1.4388  0.8104
  736SOL    HW2 2208   1.859   2.246   2.536  1.0918 -0.7329  0.0478
  737SOL     OW 2209   1.203   2.389   1.246  0.1471  0.2082  0.4131
  737SOL    HW1 2210   1.160   2.466   1.194  1.0646  1.9511  1.7782
  737SOL    HW2 2211   1.130   2.351   1.307  0.7461  0.5171 -1.4413
  738SOL     OW 2212   1.660   2.872   2.228 -0.9574 -0.2962  0.1270
  738SOL    HW1 2213   1.567   2.912   2.211  1.7796  0.7264 -1.2352
  738SOL    HW2 2214   1.734   2.889   2.156  2.7400 -1.4166 -1.6631
  739SOL     OW 2215   1.435   2.005   2.069 -0.1242 -0.3798  0.4255
  739SOL    HW1 2216   1.524   2.022   2.120 -0.0488 -1.4324  1.0225
  739SOL    HW2 2217   1.359   2.053   2.118 -3.0137 -1.0362 -0.1440
  740SOL     OW 2218   1.853   2.141   1.563 -0.5075 -0.0312  0.4322
  740SOL    HW1 2219   1.938   2.136   1.619 -0.0463 -1.0285 -1.4710
  740SOL    HW2 2220   1.877   2.170   1.467 -0.3314  1.4843 -1.4814
  741SOL     OW 2221   1.960   1.714   2.995  0.6463 -0.0603 -0.1400
  741SOL    HW1 2222   1.885   1.735   2.935  0.2638 -0.2470  0.4016
  741SOL    HW2 2223   2.048   1.721   2.946 -4.0274 -0.6520  0.8626
  742SOL     OW 2224   0.966   1.311   2.894 -0.0243 -0.4782  0.0493
  742SOL    HW1 2225   0.996   1.368   2.820 -0.7504 -3.0506  4.0393
  742SOL    HW2 2226   1.043   1.248   2.924  0.6294 -2.5400 -0.0106
  743SOL     OW 2227   2.541   0.939   2.645  0.3648 -0.0419 -0.2922
  743SOL    HW1 2228   2.621   0.896   2.597 -0.7245  1.2687  1.2402
  743SOL    HW2 2229   2.555   1.042   2.632  0.4829  1.0302 -0.2209
  744SOL     OW 2230   2.027   2.747   1.723  0.0667 -0.5170 -0.0266
  744SOL    HW1 2231   2.006   2.691   1.641  1.2011  0.3529 -3.2648
  744SOL    HW2 2232   2.091   2.816   1.699 -0.7432  0.7101 -0.1253
  745SOL     OW 2233   2.595   1.897   1.344 -0.0051  0.2427 -0.4041
  745SOL    HW1 2234   2.652   1.928   1.266 -0.4395  2.0609  1.6630
  745SOL    HW2 2235   2.591   1.794   1.355 -1.0602 -2.1495  3.0710
  746SOL     OW 2236   2.821   1.932   0.829  0.0039 -0.2400 -0.0281
  746SOL    HW1 2237   2.746   1.864   0.813 -1.4224 -2.4102 -1.2808
  746SOL    HW2 2238   2.910   1.912   0.789  0.2562  2.1178 -0.4958
  747SOL     OW 2239   1.969   2.632   0.367  0.3685 -0.0743 -0.0824
  747SOL    HW1 2240   1.928   2.561   0.428 -2.0895 -2.2333 -1.3948
  747SOL    HW2 2241   1.980   2.719   0.420 -1.3471 -0.7714  0.4649
  748SOL     OW 2242   0.936   2.005   0.307  0.0499 -0.4669  0.2054
  748SOL    HW1 2243   0.996   2.027   0.227 -0.2100  3.2787 -1.2061
  748SOL    HW2 2244   0.835   1.992   0.276 -2.3571 -1.3347  0.1732
  749SOL     OW 2245   2.844   0.323   2.041  0.1029  0.1365 -0.0297
  749SOL    HW1 2246   2.940   0.336   2.065 -3.2739 -1.3866  1.3266
  749SOL    HW2 2247   2.791   0.407   2.052  0.9267 -0.8979 -1.1220
  750SOL     OW 2248   1.291   0.678   1.829 -0.3026 -0.2429 -0.5606
  750SOL    HW1 2249   1.372   0.737   1.841 -0.3448 -0.7672 -0.6100
  750SOL    HW2 2250   1.317   0.601   1.772  2.1030  1.1426  0.6224
  751SOL     OW 2251   2.325   2.560   2.045 -0.2611  0.0732  0.1819
  751SOL    HW1 2252   2.244   2.550   1.987  1.1990  0.8788  1.6903
  751SOL    HW2 2253   2.379   2.643   2.017 -1.5614  1.6756  0.3684
  752SOL     OW 2254   1.982   1.762   0.897  0.0075  0.6314 -0.3686
  752SOL    HW1 2255   1.904   1.747   0.960 -0.2230  0.6469  1.2511
  752SOL    HW2 2256   2.029   1.674   0.877 -1.9818  0.7086 -1.2312
  753SOL     OW 2257   1.538   1.024   2.581  0.6831  0.0009  0.4000
  753SOL    HW1 2258   1.495   1.068   2.501 -1.4432  1.4495  0.2093
  753SOL    HW2 2259   1.560   1.091   2.653 -2.6005  2.3394  1.6616
  754SOL     OW 2260   0.161   2.763   1.023  0.2756  0.2128 -0.9340
  754SOL    HW1 2261   0.113   2.824   1.085  1.1907 -1.2402 -4.0397
  754SOL    HW2 2262   0.146   2.670   1.062 -0.1122  0.3876  1.1186
  755SOL     OW 2263   2.132   0.231   1.678  0.6345 -0.4733  0.1507
  755SOL    HW1 2264   2.203   0.299   1.700 -2.1638 -4.3266 -1.3679
  755SOL    HW2 2265   2.103   0.243   1.582  2.2916 -0.8011 -0.4775
  756SOL     OW 2266   1.709   1.233   2.412  0.0401 -0.0892 -0.3927
  756SOL    HW1 2267   1.660   1.316   2.455  0.4078  2.8015  4.1623
  756SOL    HW2 2268   1.642   1.154   2.389 -1.9426 -2.1995  0.6933
  757SOL     OW 2269   2.940   2.772   1.701 -0.4433 -0.1187 -0.5410
  757SOL    HW1 2270   2.983   2.863   1.734  0.1530  0.9052  0.4632
  757SOL    HW2 2271   2.854   2.782   1.646  0.4846 -3.1487  0.1802
  758SOL     OW 2272   0.449   2.836   1.392 -1.0508  0.0428 -0.2967
  758SOL    HW1 2273   0.370   2.886   1.438 -0.4497  0.6019 -4.8727
  758SOL    HW2 2274   0.513   2.910   1.370 -1.5116  1.7391  1.6535
  759SOL     OW 2275   2.283   1.177   0.838  0.1223  0.0169  0.4451
  759SOL    HW1 2276   2.363   1.241   0.844 -0.4824  0.1415 -1.0581
  759SOL    HW2 2277   2.290   1.103   0.772  1.9690 -1.5029  0.5897
  760SOL     OW 2278   1.425   0.035   1.972  0.2497  0.5054  0.1516
  760SOL    HW1 2279   1.427   0.098   2.054  0.1096 -0.4342  2.2775
  760SOL    HW2 2280   1.416   3.048   2.009 -1.5895 -1.7033 -0.2980
  761SOL     OW 2281   2.124   0.433   0.405 -0.1311 -0.1755  0.1293
  761SOL    HW1 2282   2.131   0.350   0.360 -2.3946  4.8945  2.6181
  761SOL    HW2 2283   2.139   0.512   0.337  1.0595  1.6190 -0.3608
  762SOL     OW 2284   2.315   2.778   0.070  0.2218  0.3743  0.7290
  762SOL    HW1 2285   2.409   2.735   0.078  0.5042  2.4274 -1.1660
  762SOL    HW2 2286   2.242   2.725   0.125 -0.8248  1.5035 -0.3838
  763SOL     OW 2287   0.937   0.716   1.090  0.6527  0.4008  0.0144
  763SOL    HW1 2288   1.020   0.698   1.148 -2.3530 -1.5144  0.0529
  763SOL    HW2 2289   0.908   0.811   1.107 -0.2319 -2.1127 -0.9932
  764SOL     OW 2290   2.262   2.438   2.856 -0.0258  0.5951  0.4984
  764SOL    HW1 2291   2.299   2.396   2.939  0.2071 -2.0487 -1.6981
  764SOL    HW2 2292   2.182   2.497   2.867  3.5118 -0.5433  0.4162
  765SOL     OW 2293   0.178   0.589   2.251 -0.4446  0.2893 -0.8540
  765SOL    HW1 2294   0.096   0.623   2.308 -0.4406  1.3549 -1.1821
  765SOL    HW2 2295   0.266   0.607   2.302  2.5325 -0.7881  0.0338
  766SOL     OW 2296   2.824   1.462   2.954  0.6559 -0.2438 -0.2192
  766SOL    HW1 2297   2.743   1.493   2.905  2.7379  1.0209  1.4683
  766SOL    HW2 2298   2.816   1.363   2.970  0.3496  0.8206  1.7218
  767SOL     OW 2299   2.928   1.796   1.970 -0.1596 -0.9851  0.3798
  767SOL    HW1 2300   2.937   1.829   1.876  1.3198  1.2392 -0.0436
  767SOL    HW2 2301   2.897   1.699   1.975 -0.9094  2.6939  1.1375
  768SOL     OW 2302   1.074   0.977   0.075 -0.1098  0.2002  1.0238
  768SOL    HW1 2303   1.059   0.888   0.026 -0.4381  0.3778  0.6029
  768SOL    HW2 2304   1.129   0.956   0.159 -0.5650 -1.5752  0.4166
  769SOL     OW 2305   1.792   2.908   2.983 -0.2748  0.3015  0.1431
  769SOL    HW1 2306   1.780   2.978   2.914  0.1982 -1.7393  1.8522
  769SOL    HW2 2307   1.756   2.950   3.066  1.3272  2.9425 -3.0554
  770SOL     OW 2308   0.725   0.003   2.528  0.6590 -0.8289  0.7386
  770SOL    HW1 2309   0.763   0.003   2.434  0.1686 -3.3959 -1.0117
  770SOL    HW2 2310   0.745   0.088   2.576 -2.0108 -2.8006  2.7065
  771SOL     OW 2311   0.759   2.527   0.931  0.4035  0.2642  0.0640
  771SOL    HW1 2312   0.693   2.482   0.864 -1.2180  1.2608 -0.7601
  771SOL    HW2 2313   0.834   2.460   0.943  0.8146 -1.8781 -0.3903
  772SOL     OW 2314   3.030   0.747   0.214  0.5869 -0.1447  0.0054
  772SOL    HW1 2315   0.015   0.720   0.208 -2.8020  0.7409  0.0666
  772SOL    HW2 2316   2.986   0.691   0.286  2.6616 -0.7364  3.0381
  773SOL     OW 2317   1.861   0.972   1.981  0.5869  0.3301  0.0820
  773SOL    HW1 2318   1.801   0.896   2.005 -0.0920  0.3851  0.6451
  773SOL    HW2 2319   1.866   1.036   2.060  0.9792  0.2754 -1.2193
  774SOL     OW 2320   0.752   0.885   0.611 -0.3127 -0.4923 -0.0815
  774SOL    HW1 2321   0.672   0.913   0.547 -1.4892  0.6557 -0.9197
  774SOL    HW2 2322   0.733   0.919   0.704 -1.7963  0.8366 -1.3201
  775SOL     OW 2323   1.786   0.175   3.065 -0.2769  0.3917  0.0781
  775SOL    HW1 2324   1.685   0.182   3.085 -0.4385  3.1007  1.3375
  775SOL    HW2 2325   1.847   0.207   0.028  1.6852  1.6408 -1.2021
  776SOL     OW 2326   2.086   0.156   2.406 -0.3074 -0.0420  0.8784
  776SOL    HW1 2327   1.986   0.186   2.394 -2.0074  1.2330  0.0221
  776SOL    HW2 2328   2.136   0.122   2.322 -0.1151  0.2397 -5.3698
  777SOL     OW 2329   0.773   1.573   0.018 -0.4430  0.3313  0.1794
  777SOL    HW1 2330   0.833   1.577   0.101  3.0318  1.1914  0.7078
  777SOL    HW2 2331   0.687   1.623   0.035  0.8231  2.1465 -0.0198
  778SOL     OW 2332   0.327   2.740   3.107  0.2219 -0.0022 -0.6005
  778SOL    HW1 2333   0.241   2.686   0.014 -2.5454 -0.0970 -0.4828
  778SOL    HW2 2334   0.410   2.694   0.031 -0.0516 -2.8916  0.2699
  779SOL     OW 2335   0.297   1.344   0.052 -0.4253  0.4485  0.0976
  779SOL    HW1 2336   0.243   1.400   0.116 -1.6460 -0.9349 -0.2345
  779SOL    HW2 2337   0.307   1.247   0.083  0.0687  0.3532  0.4566
  780SOL     OW 2338   2.088   0.265   2.039 -0.7109  0.2940  0.6892
  780SOL    HW1 2339   2.121   0.352   2.079  0.2676  0.0856 -1.9712
  780SOL    HW2 2340   1.995   0.285   2.002  1.3928 -2.0278  3.0678
  781SOL     OW 2341   1.696   1.132   1.716 -0.0720  0.9811 -0.0402
  781SOL    HW1 2342   1.770   1.198   1.735  0.3701  1.8483 -1.4147
  781SOL    HW2 2343   1.745   1.046   1.693  0.2680 -1.2988 -1.8281
  782SOL     OW 2344   1.706   1.889   2.368  0.2481 -0.5040  0.2704
  782SOL    HW1 2345   1.791   1.917   2.421  2.4897  0.0746 -0.2863
  782SOL    HW2 2346   1.714   1.790   2.356 -1.7558  2.7851  1.3158
  783SOL     OW 2347   1.485   3.076   1.434  1.3848 -0.3166  0.0367
  783SOL    HW1 2348   1.483   3.101   1.535 -0.2732  0.7484  0.7080
  783SOL    HW2 2349   1.495   2.976   1.424 -0.7808  0.7144 -0.3765
  784SOL     OW 2350   2.090   0.898   2.442  0.1729 -0.1678 -0.0482
  784SOL    HW1 2351   2.163   0.944   2.499  0.6558  1.3100 -1.9481
  784SOL    HW2 2352   2.051   0.810   2.481 -3.5258  1.1826 -0.1336
  785SOL     OW 2353   1.945   0.310   0.128  0.2043  0.1406  0.1219
  785SOL    HW1 2354   1.916   0.407   0.144 -0.0979  2.5457  0.8161
  785SOL    HW2 2355   2.002   0.306   0.043 -0.1652  2.2847 -0.0150
  786SOL     OW 2356   3.048   1.912   0.591  0.2199 -0.1305 -0.2887
  786SOL    HW1 2357   3.010   1.877   0.499 -1.1812  0.7462 -0.6664
  786SOL    HW2 2358   3.029   2.011   0.589  1.0365  0.0951 -0.7584
  787SOL     OW 2359   1.682   2.255   0.427  0.5661  0.1208 -0.3392
  787SOL    HW1 2360   1.681   2.173   0.496  0.2588 -0.6277  0.3332
  787SOL    HW2 2361   1.593   2.306   0.435 -0.4042 -0.9212  0.8364
  788SOL     OW 2362   2.062   1.580   1.500  0.5829  0.0970  0.0439
  788SOL    HW1 2363   2.032   1.587   1.401  2.4713 -0.0255  4.2142
  788SOL    HW2 2364   1.994   1.629   1.559  2.6763 -3.7381 -3.1179
  789SOL     OW 2365   3.076   1.236   2.716  0.4360 -0.5479  0.5245
  789SOL    HW1 2366   0.025   1.287   2.650  0.7718  3.3347  1.5540
  789SOL    HW2 2367   2.999   1.199   2.660  0.0460 -1.4160 -1.5451
  790SOL     OW 2368   0.464   0.057   2.767  0.4715  0.1621 -0.0774
  790SOL    HW1 2369   0.418   0.144   2.800  1.2790  1.0955  0.6305
  790SOL    HW2 2370   0.553   0.076   2.726 -3.4858 -1.2122  1.7825
  791SOL     OW 2371   0.748   0.217   2.681 -0.1958 -0.3186 -0.0801
  791SOL    HW1 2372   0.808   0.237   2.755 -2.3016 -0.1970 -4.1711
  791SOL    HW2 2373   0.703   0.306   2.647 -0.3093  3.1438 -1.7286
  792SOL     OW 2374   1.560   0.652   2.379 -0.5749  0.0938 -0.5195
  792SOL    HW1 2375   1.579   0.573   2.446 -0.4392 -3.5928  0.0145
  792SOL    HW2 2376   1.627   0.728   2.391 -2.0193  0.6334  2.9480
  793SOL     OW 2377   2.713   0.529   1.702 -0.4664 -0.1979 -0.1279
  793SOL    HW1 2378   2.647   0.600   1.679  1.8982 -0.5809  0.0982
  793SOL    HW2 2379   2.671   0.477   1.780 -0.5943  2.0559  2.4783
  794SOL     OW 2380   0.347   0.609   1.887 -0.0053 -0.1386  0.4935
  794SOL    HW1 2381   0.433   0.604   1.944  2.0336 -2.4009  1.7452
  794SOL    HW2 2382   0.289   0.524   1.894  0.7013  1.8739  0.5137
  795SOL     OW 2383   2.845   1.483   0.514 -0.1683 -0.1173 -0.1604
  795SOL    HW1 2384   2.774   1.547   0.475  1.8524 -0.5896  1.2609
  795SOL    HW2 2385   2.879   1.516   0.601 -1.6910 -3.8615  1.7602
  796SOL     OW 2386   0.167   2.353   3.029 -0.0461  0.0787 -0.6511
  796SOL    HW1 2387   0.151   2.442   3.074 -0.4180 -2.6133  1.5160
  796SOL    HW2 2388   0.098   2.325   2.958  0.9006 -2.2265 -1.9619
  797SOL     OW 2389   2.127   2.620   0.151  0.3504 -0.3886  0.4874
  797SOL    HW1 2390   2.049   2.623   0.214  3.7938  1.0187 -2.1867
  797SOL    HW2 2391   2.165   2.525   0.141  0.1328 -1.6994  2.2246
  798SOL     OW 2392   0.275   1.018   1.668  0.1951 -0.0443 -0.6437
  798SOL    HW1 2393   0.367   0.978   1.684  0.3511  0.3316  0.0180
  798SOL    HW2 2394   0.266   1.050   1.569 -1.0517  0.9657 -3.4328
  799SOL     OW 2395   2.873   0.604   2.233 -0.2465  0.7333 -0.5668
  799SOL    HW1 2396   2.958   0.620   2.288 -1.0148  1.9195 -0.1621
  799SOL    HW2 2397   2.872   0.664   2.154  0.3902 -1.4579  1.3833
  800SOL     OW 2398   2.974   2.175   0.624  0.1150  0.1958 -0.2203
  800SOL    HW1 2399   3.073   2.205   0.600  1.0289  2.2266  0.3320
  800SOL    HW2 2400   2.936   2.227   0.704  2.3816  1.2370  1.0212
  801SOL     OW 2401   1.362   0.978   0.881 -0.6264 -0.2842 -0.3557
  801SOL    HW1 2402   1.366   1.030   0.792 -0.9591  0.9971  1.8688
  801SOL    HW2 2403   1.312   1.034   0.954 -1.8380  0.0099  2.1076
  802SOL     OW 2404   1.180   1.922   1.358  0.2922 -0.0234 -0.3675
  802SOL    HW1 2405   1.276   1.923   1.399  3.2388  0.7653 -0.6682
  802SOL    HW2 2406   1.142   2.015   1.375 -1.9365 -0.6298  0.8700
  803SOL     OW 2407   2.980   1.864   0.334  0.1375 -0.0868  0.2271
  803SOL    HW1 2408   3.028   1.803   0.267  1.9957  0.4338  1.5823
  803SOL    HW2 2409   2.965   1.956   0.293 -3.0201 -0.5341  0.6449
  804SOL     OW 2410   1.025   2.549   1.118  0.0481 -0.7735  0.2899
  804SOL    HW1 2411   0.965   2.551   1.202  0.0419  0.5698 -0.0568
  804SOL    HW2 2412   0.969   2.557   1.034  0.0386  0.1728 -3.7832
  805SOL     OW 2413   1.698   1.368   0.068 -0.1062  0.0373 -0.0342
  805SOL    HW1 2414   1.695   1.472   0.066  1.1255  1.6589 -2.2342
  805SOL    HW2 2415   1.600   1.337   0.064 -3.0089  1.9982  1.7215
  806SOL     OW 2416   1.529   2.800   1.493  0.3237 -0.2638  0.7168
  806SOL    HW1 2417   1.526   2.802   1.590  0.1657 -1.8502  1.2570
  806SOL    HW2 2418   1.629   2.795   1.464 -2.5292 -2.9725 -1.7308
  807SOL     OW 2419   2.113   3.046   2.818  0.4439 -0.5528 -0.5860
  807SOL    HW1 2420   2.134   0.003   2.744 -0.4689  2.3445  1.9849
  807SOL    HW2 2421   2.195   2.993   2.845  0.5208  2.7909 -1.6630
  808SOL     OW 2422   0.187   1.452   0.300  0.0253 -0.1841 -0.1519
  808SOL    HW1 2423   0.096   1.421   0.338  1.8177 -0.5634 -0.8261
  808SOL    HW2 2424   0.177   1.545   0.263 -1.1409  2.3518  3.2334
  809SOL     OW 2425   2.669   1.004   2.317  0.2125  0.1239 -0.4188
  809SOL    HW1 2426   2.723   1.089   2.316  0.9919 -0.9289  0.5795
  809SOL    HW2 2427   2.612   1.008   2.232 -0.2125 -0.8077 -1.9769
  810SOL     OW 2428   2.416   0.076   2.036  0.2306 -0.6020 -0.1801
  810SOL    HW1 2429   2.432   0.180   2.040  0.1988 -1.2998  0.4199
  810SOL    HW2 2430   2.382   0.062   1.942  0.6339 -0.3910  1.4504
  811SOL     OW 2431   2.424   2.487   1.666 -0.1063  0.3589 -0.6175
  811SOL    HW1 2432   2.451   2.454   1.758 -2.2743  1.6675  0.3152
  811SOL    HW2 2433   2.422   2.590   1.668  1.8138  1.0867 -1.2580
  812SOL     OW 2434   1.672   0.466   0.014  0.5195 -0.3813  0.2705
  812SOL    HW1 2435   1.597   0.457   3.052  0.8614 -0.3041  2.4082
  812SOL    HW2 2436   1.704   0.377   0.043 -0.4234  1.3698 -0.6453
  813SOL     OW 2437   1.721   0.501   1.861  0.0431 -0.0436 -0.2942
  813SOL    HW1 2438   1.782   0.422   1.843 -1.3688  3.9288 -2.1708
  813SOL    HW2 2439   1.778   0.584   1.843 -1.5201 -1.5498 -2.2037
  814SOL     OW 2440   1.992   1.262   1.495  0.3708  0.6313 -0.2246
  814SOL    HW1 2441   2.028   1.172   1.527  0.0541 -0.9419 -0.0787
  814SOL    HW2 2442   2.061   1.336   1.509 -0.3503 -1.1887 -1.4588
  815SOL     OW 2443   0.260   1.033   0.457  0.6761 -0.2023 -0.4862
  815SOL    HW1 2444   0.217   0.986   0.374 -1.8994 -2.2760  1.5788
  815SOL    HW2 2445   0.190   1.087   0.508 -0.7298  1.2564  2.6083
  816SOL     OW 2446   1.762   1.757   2.812 -0.4284 -0.0298 -0.3311
  816SOL    HW1 2447   1.789   1.733   2.717  1.5532  0.3477 -0.6685
  816SOL    HW2 2448   1.675   1.706   2.831 -0.0214  0.1773 -0.6205
  817SOL     OW 2449   0.162   2.873   0.763 -0.1583 -0.1469  0.3168
  817SOL    HW1 2450   0.158   2.831   0.857  0.8167 -0.2302 -0.7148
  817SOL    HW2 2451   0.227   2.826   0.707 -2.6934 -1.7253  1.0976
  818SOL     OW 2452   1.567   0.461   2.551 -0.3508 -0.0776 -0.4118
  818SOL    HW1 2453   1.588   0.510   2.632 -0.2642 -1.2896 -1.8969
  818SOL    HW2 2454   1.538   0.364   2.571  0.0322 -4.0450  0.1940
  819SOL     OW 2455   1.181   1.037   0.433 -0.5481 -0.4660 -0.2927
  819SOL    HW1 2456   1.192   0.941   0.399  1.4742  0.2687  0.7764
  819SOL    HW2 2457   1.080   1.056   0.444 -0.5756  3.5329  2.4509
  820SOL     OW 2458   2.331   1.116   1.104 -0.0868  0.2889 -0.7424
  820SOL    HW1 2459   2.407   1.045   1.125  3.1024  0.9585  0.3818
  820SOL    HW2 2460   2.299   1.115   1.009 -0.5230 -0.0062 -1.5057
  821SOL     OW 2461   2.409   0.058   0.322  0.1335 -0.2510  0.7410
  821SOL    HW1 2462   2.465   3.098   0.361 -1.5148  3.2230 -3.0599
  821SOL    HW2 2463   2.326   0.024   0.273 -3.4843  0.6959 -0.4763
  822SOL     OW 2464   0.615   2.706   2.499 -0.2201 -0.4576  0.3157
  822SOL    HW1 2465   0.583   2.648   2.579 -0.3355  2.7757  0.5928
  822SOL    HW2 2466   0.557   2.790   2.487  1.7249 -0.4171 -1.0748
  823SOL     OW 2467   0.099   2.179   1.735 -0.4374 -0.0480 -0.2456
  823SOL    HW1 2468   0.013   2.147   1.695  2.2943 -0.7845 -0.1348
  823SOL    HW2 2469   0.087   2.270   1.783  0.2989  1.3884  2.6135
  824SOL     OW 2470   0.831   2.857   2.100 -0.2442 -0.0709  0.3267
  824SOL    HW1 2471   0.900   2.881   2.024  1.8902 -0.8961 -1.7263
  824SOL    HW2 2472   0.858   2.764   2.146  3.8485 -2.5282 -0.5543
  825SOL     OW 2473   1.277   1.822   0.391  0.0478  0.0251  0.0729
  825SOL    HW1 2474   1.306   1.747   0.325 -0.7347  2.2160  1.4186
  825SOL    HW2 2475   1.177   1.809   0.412 -0.1540  0.9396 -0.3198
  826SOL     OW 2476   1.137   3.050   3.000 -0.2888 -0.2965  0.1675
  826SOL    HW1 2477   1.034   3.058   3.015  0.5873  1.3329  0.9803
  826SOL    HW2 2478   1.175   2.966   3.049 -2.6210  1.3448 -0.8379
  827SOL     OW 2479   0.140   1.614   1.357 -0.4599 -0.2509  0.6276
  827SOL    HW1 2480   0.125   1.691   1.290 -3.0510  0.7342  0.0378
  827SOL    HW2 2481   0.222   1.640   1.416 -1.1913  1.3169  0.8060
  828SOL     OW 2482   2.577   1.629   1.324  0.6567 -0.2069 -0.0893
  828SOL    HW1 2483   2.519   1.562   1.280  3.1787  0.4689 -0.3638
  828SOL    HW2 2484   2.642   1.586   1.385 -4.6740 -0.2553 -1.5179
  829SOL     OW 2485   3.020   2.326   0.188 -0.5850 -0.7097 -0.4134
  829SOL    HW1 2486   3.105   2.380   0.219  1.6099 -0.4129  1.9934
  829SOL    HW2 2487   3.033   2.233   0.151 -1.1456  0.6947  1.7144
  830SOL     OW 2488   1.131   0.646   0.480 -0.3879 -0.7109  0.1588
  830SOL    HW1 2489   1.196   0.720   0.498 -3.2676  0.0984 -1.8304
  830SOL    HW2 2490   1.067   0.635   0.556  1.0835  0.3360 -1.8686
  831SOL     OW 2491   2.727   2.095   0.123  0.1372  0.4097 -0.6141
  831SOL    HW1 2492   2.720   1.995   0.095 -1.4118  1.8527 -0.0198
  831SOL    HW2 2493   2.636   2.131   0.146 -1.7100 -1.6958  1.1750
  832SOL     OW 2494   0.975   2.693   0.438  0.1687 -0.2593  1.0742
  832SOL    HW1 2495   0.880   2.669   0.471 -1.2321 -0.5230  0.9986
  832SOL    HW2 2496   1.032   2.740   0.506  1.7832  1.7903 -1.3685
  833SOL     OW 2497   1.108   0.781   2.539 -0.2001 -0.3630 -0.5842
  833SOL    HW1 2498   1.082   0.804   2.442  0.5836  0.4618  2.3735
  833SOL    HW2 2499   1.206   0.794   2.532  0.6035 -0.8541 -0.9647
  834SOL     OW 2500   2.879   0.618   0.815 -0.4955  0.3164  0.6625
  834SOL    HW1 2501   2.826   0.566   0.745  0.8540 -0.0127  1.4453
  834SOL    HW2 2502   2.919   0.552   0.884 -1.1590  0.4859 -3.2956
  835SOL     OW 2503   2.634   0.505   2.002  0.0232 -0.3201  0.5819
  835SOL    HW1 2504   2.629   0.608   1.996  1.7331  0.6010 -1.2661
  835SOL    HW2 2505   2.546   0.466   2.033  2.1478 -0.2244 -2.0497
  836SOL     OW 2506   0.586   2.411   0.764  0.2145  0.0032 -0.1190
  836SOL    HW1 2507   0.563   2.462   0.679  1.0255  0.0766  1.1676
  836SOL    HW2 2508   0.630   2.320   0.734 -0.9511 -0.3798 -0.5199
  837SOL     OW 2509   2.198   1.790   2.256 -0.0424 -0.0936  0.0120
  837SOL    HW1 2510   2.224   1.733   2.341  0.7734 -0.4275 -1.3262
  837SOL    HW2 2511   2.251   1.875   2.239 -2.1813  0.5155  0.1434
  838SOL     OW 2512   0.153   1.393   1.607 -0.0097 -0.1010 -0.2307
  838SOL    HW1 2513   0.205   1.426   1.529 -1.9432  2.2142  3.6413
  838SOL    HW2 2514   0.131   1.472   1.666 -0.9348  0.7712 -0.5610
  839SOL     OW 2515   0.164   0.261   0.378 -0.4778 -0.0320 -0.0534
  839SOL    HW1 2516   0.260   0.297   0.392 -1.5459  0.4990  0.1463
  839SOL    HW2 2517   0.167   0.158   0.384  1.3554 -2.3083  1.1687
  840SOL     OW 2518   3.075   0.670   2.399  0.2127  0.6180  0.1187
  840SOL    HW1 2519   3.081   0.762   2.441  1.9690  0.0758  0.4700
  840SOL    HW2 2520   3.056   0.601   2.475 -3.2202 -1.8703  0.4175
  841SOL     OW 2521   0.524   2.256   2.727 -0.1965  0.3086 -0.2323
  841SOL    HW1 2522   0.447   2.208   2.673 -2.8356 -1.5660 -2.2435
  841SOL    HW2 2523   0.489   2.271   2.824 -1.8895  2.8499 -3.6057
  842SOL     OW 2524   0.826   3.029   1.047  0.3264 -0.2217 -0.0149
  842SOL    HW1 2525   0.856   2.992   1.137  1.8279  2.9456 -1.2067
  842SOL    HW2 2526   0.730   3.002   1.025  0.2923  1.5113 -0.1841
  843SOL     OW 2527   0.538   1.561   2.753  0.5328  0.0872  0.2024
  843SOL    HW1 2528   0.611   1.624   2.715  0.6830 -3.1765  0.8137
  843SOL    HW2 2529   0.514   1.487   2.691  0.2427  4.0318  1.5997
  844SOL     OW 2530   1.077   1.955   2.393  0.1219 -0.3073 -0.1699
  844SOL    HW1 2531   1.064   2.010   2.312 -0.4426  0.4760  1.9643
  844SOL    HW2 2532   1.178   1.934   2.409  0.3416 -0.3224  0.0071
  845SOL     OW 2533   2.471   2.720   2.765 -0.1271  0.0436 -0.0716
  845SOL    HW1 2534   2.486   2.811   2.724 -0.5643  0.6171 -3.2287
  845SOL    HW2 2535   2.449   2.650   2.694  2.6263  0.5368  2.9103
  846SOL     OW 2536   2.079   1.481   3.081 -0.0583 -0.4622 -0.1724
  846SOL    HW1 2537   2.043   1.571   3.053 -1.3746 -1.4120  3.6842
  846SOL    HW2 2538   2.073   1.481   0.072  0.0712 -0.4143 -3.6706
  847SOL     OW 2539   2.551   0.220   2.795  0.9289  0.0067  0.1584
  847SOL    HW1 2540   2.588   0.310   2.771 -1.8127 -2.4456 -1.8062
  847SOL    HW2 2541   2.450   0.231   2.806 -3.2798 -1.5538 -0.7914
  848SOL     OW 2542   3.056   0.872   3.089  0.0587  0.0157  0.3502
  848SOL    HW1 2543   2.967   0.878   3.037  0.5416 -1.9368 -1.6584
  848SOL    HW2 2544   3.038   0.821   0.064  0.1868 -1.5510 -1.4621
  849SOL     OW 2545   1.395   0.173   2.187 -0.5253  0.2418 -0.1238
  849SOL    HW1 2546   1.422   0.113   2.265  1.3560  0.4518 -0.8547
  849SOL    HW2 2547   1.401   0.272   2.209 -1.6270  3.0088 -0.7173
  850SOL     OW 2548   2.828   1.081   0.717 -1.1862 -0.3320  0.4368
  850SOL    HW1 2549   2.910   1.083   0.775 -2.5268 -1.3295 -0.9236
  850SOL    HW2 2550   2.847   1.032   0.627 -2.5326 -1.3697  0.3275
  851SOL     OW 2551   0.108   1.210   0.605  0.2183  0.1477  0.1655
  851SOL    HW1 2552   0.057   1.270   0.537  2.0019  1.0005 -2.3110
  851SOL    HW2 2553   0.196   1.257   0.636  0.1036  0.5323  0.9644
  852SOL     OW 2554   1.223   1.037   1.751 -0.4832  0.3413 -0.1680
  852SOL    HW1 2555   1.140   1.071   1.707  0.5833  0.3612  1.5939
  852SOL    HW2 2556   1.290   1.006   1.679 -0.2966 -0.1620 -3.1464
  853SOL     OW 2557   2.177   1.195   0.161 -0.0189  0.5535  0.1807
  853SOL    HW1 2558   2.204   1.187   0.062  1.5070  0.0735  0.0384
  853SOL    HW2 2559   2.149   1.288   0.190 -0.3728 -0.6555  1.2282
  854SOL     OW 2560   1.725   1.258   2.028 -0.4066 -0.3872  0.3004
  854SOL    HW1 2561   1.782   1.183   2.068 -1.0153 -0.7214  0.9012
  854SOL    HW2 2562   1.689   1.230   1.938  1.6717 -3.4442  0.7208
  855SOL     OW 2563   0.425   2.182   2.213 -0.0080  0.0750  0.0346
  855SOL    HW1 2564   0.368   2.166   2.130 -1.3355  1.4607 -1.0625
  855SOL    HW2 2565   0.390   2.255   2.271 -1.0096 -2.6734  0.3044
  856SOL     OW 2566   1.156   0.994   2.002  0.0209  0.3469 -0.5604
  856SOL    HW1 2567   1.064   1.034   2.023 -0.4748 -0.7948  1.9370
  856SOL    HW2 2568   1.195   1.005   1.908 -0.3674 -1.2847  2.3674
  857SOL     OW 2569   1.150   1.086   2.479  0.2414 -0.6002  0.6951
  857SOL    HW1 2570   1.047   1.066   2.472 -0.1415  1.2525 -0.7548
  857SOL    HW2 2571   1.188   1.115   2.388  1.8566  0.8785  0.8390
  858SOL     OW 2572   2.930   1.065   1.792  0.6963  0.2739 -0.1612
  858SOL    HW1 2573   2.962   1.115   1.707  0.1747  0.5512 -1.0340
  858SOL    HW2 2574   2.982   0.984   1.800 -0.9228  3.1992 -2.2966
  859SOL     OW 2575   2.612   2.986   0.957  0.0365 -0.2736  0.3738
  859SOL    HW1 2576   2.597   2.903   0.895 -3.0553 -2.1403 -2.1284
  859SOL    HW2 2577   2.590   2.969   1.056 -1.0186 -0.0702 -1.7889
  860SOL     OW 2578   1.606   0.364   1.539 -0.4269 -0.1824 -0.5221
  860SOL    HW1 2579   1.636   0.460   1.553  2.3212 -1.2473 -1.2872
  860SOL    HW2 2580   1.664   0.318   1.468 -0.5890 -0.2134 -1.8088
  861SOL     OW 2581   1.796   0.677   1.313  0.0295 -0.1373  0.0523
  861SOL    HW1 2582   1.817   0.773   1.290 -3.0585 -0.6005  2.1796
  861SOL    HW2 2583   1.726   0.676   1.384  0.3670  2.0033 -4.6442
  862SOL     OW 2584   1.330   2.883   2.499  0.1063 -0.3135 -0.0386
  862SOL    HW1 2585   1.286   2.804   2.459 -0.0579  4.5483  3.0121
  862SOL    HW2 2586   1.386   2.864   2.581  0.2717 -0.2895 -3.0094
  863SOL     OW 2587   2.701   3.089   1.453 -0.5606 -0.0168  0.3623
  863SOL    HW1 2588   2.649   0.030   1.525 -1.0197  0.3562  3.0916
  863SOL    HW2 2589   2.772   0.033   1.411 -0.6399 -1.6051 -0.4464
  864SOL     OW 2590   2.779   2.957   1.979 -0.1052  0.0270  0.1553
  864SOL    HW1 2591   2.815   2.873   2.024 -1.6967  0.9748 -0.6504
  864SOL    HW2 2592   2.708   2.995   2.037  0.2262  0.3940 -2.6148
  865SOL     OW 2593   1.227   1.191   2.710  0.0981  0.1029  0.0494
  865SOL    HW1 2594   1.177   1.150   2.792  1.9991  0.2117 -0.5977
  865SOL    HW2 2595   1.200   1.144   2.624 -0.0055  0.9203 -0.5121
  866SOL     OW 2596   2.361   0.056   1.096 -0.4644 -0.1982 -0.0882
  866SOL    HW1 2597   2.334   0.018   1.011 -2.7388 -0.0940  1.7666
  866SOL    HW2 2598   2.436   3.104   1.133  0.2139  0.2210 -3.2758
  867SOL     OW 2599   3.000   2.634   0.889  0.1781 -0.3256 -0.1344
  867SOL    HW1 2600   2.985   2.729   0.913  1.4261 -0.3172  1.6203
  867SOL    HW2 2601   3.054   2.586   0.965 -0.6184  0.3418  0.9245
  868SOL     OW 2602   2.963   1.833   1.370 -0.1461  0.2055 -0.5215
  868SOL    HW1 2603   2.948   1.819   1.271  0.7752  0.0294  1.2481
  868SOL    HW2 2604   2.956   1.739   1.406  0.6306  0.7642 -1.7269
  869SOL     OW 2605   1.897   1.977   2.529 -0.0170 -0.1546  0.2832
  869SOL    HW1 2606   1.856   2.042   2.598  1.1711 -0.8575  1.0776
  869SOL    HW2 2607   1.980   2.023   2.490  0.1678  0.1273 -0.1153
  870SOL     OW 2608   1.306   0.824   0.621  0.1854  0.2732 -0.0346
  870SOL    HW1 2609   1.316   0.926   0.628  0.4659  1.2253 -0.0996
  870SOL    HW2 2610   1.296   0.777   0.713  1.2575 -3.0518  1.0011
  871SOL     OW 2611   2.593   1.829   1.821 -0.1974  0.3538  0.2579
  871SOL    HW1 2612   2.522   1.786   1.765  2.2581 -1.9036  1.2923
  871SOL    HW2 2613   2.587   1.807   1.921  0.4122 -2.5950  1.3218
  872SOL     OW 2614   0.877   1.622   2.889 -0.2913  0.0599 -0.5222
  872SOL    HW1 2615   0.976   1.633   2.908 -0.4482 -0.3451 -1.7792
  872SOL    HW2 2616   0.824   1.603   2.974 -1.3418  2.3180  3.6949
  873SOL     OW 2617   0.877   1.324   1.926 -0.1959 -0.1790  0.2940
  873SOL    HW1 2618   0.841   1.412   1.962  2.7180 -1.0299  0.3977
  873SOL    HW2 2619   0.959   1.343   1.868  1.6578  1.7366 -2.2548
  874SOL     OW 2620   1.560   1.006   1.256  0.2810 -1.0546 -0.2881
  874SOL    HW1 2621   1.551   1.092   1.199 -0.8710 -0.5226 -1.4559
  874SOL    HW2 2622   1.488   0.942   1.246 -0.2921  2.3242 -2.5138
  875SOL     OW 2623   2.798   0.116   2.698 -0.0608  0.1288 -0.7716
  875SOL    HW1 2624   2.700   0.155   2.698 -3.8454 -1.6066  1.2107
  875SOL    HW2 2625   2.829   0.086   2.603  3.1151  3.9229 -1.4541
  876SOL     OW 2626   1.098   1.328   0.556  0.7410  0.5002  0.7842
  876SOL    HW1 2627   1.039   1.247   0.577 -1.1644  0.8558 -0.1397
  876SOL    HW2 2628   1.200   1.313   0.555  3.0790  1.2992 -0.2885
  877SOL     OW 2629   2.027   2.915   0.407 -0.0547 -0.5345 -0.2681
  877SOL    HW1 2630   2.037   3.005   0.452 -0.2604  1.2685 -0.2684
  877SOL    HW2 2631   2.111   2.859   0.422 -0.0784 -2.0151  1.4828
  878SOL     OW 2632   1.859   2.248   0.200 -1.0584  0.1982  0.2074
  878SOL    HW1 2633   1.952   2.210   0.227  0.1734 -0.3478 -0.0437
  878SOL    HW2 2634   1.801   2.268   0.281  1.3957  0.9721  0.8128
  879SOL     OW 2635   0.126   1.846   1.713  0.4067  0.1416  0.1158
  879SOL    HW1 2636   0.083   1.909   1.645  2.0408 -2.4270  2.4713
  879SOL    HW2 2637   0.135   1.883   1.808  1.5342 -1.3265  0.0643
  880SOL     OW 2638   0.070   2.023   0.832  0.7051  0.6075  0.5144
  880SOL    HW1 2639   0.043   2.105   0.881 -2.6715 -0.1426 -1.1715
  880SOL    HW2 2640   0.014   2.005   0.749 -0.6717  2.2883 -3.5593
  881SOL     OW 2641   1.083   0.061   2.311  0.0633 -0.4219  1.2117
  881SOL    HW1 2642   1.116   0.027   2.401 -0.1863  0.0995  1.7478
  881SOL    HW2 2643   1.070   0.161   2.314 -0.3328 -0.7214  1.2361
  882SOL     OW 2644   2.745   1.096   1.067 -0.6283 -0.1476 -0.2052
  882SOL    HW1 2645   2.814   1.025   1.031  0.3397  0.2518  1.6748
  882SOL    HW2 2646   2.674   1.055   1.130  0.1809  2.2847 -2.0084
  883SOL     OW 2647   1.467   0.414   1.906  0.3333 -0.0501 -0.5071
  883SOL    HW1 2648   1.456   0.437   2.008  0.2620  0.7352  1.8350
  883SOL    HW2 2649   1.561   0.439   1.879  1.1460  1.1719 -0.5507
  884SOL     OW 2650   3.080   0.136   1.732  0.4140  0.0787  0.0151
  884SOL    HW1 2651   3.103   0.135   1.630 -0.1854  1.3314  2.1237
  884SOL    HW2 2652   3.091   0.233   1.758 -0.1201  0.1172 -0.8487
  885SOL     OW 2653   2.105   1.246   2.742  0.0282  0.1888  0.0715
  885SOL    HW1 2654   2.161   1.323   2.721 -1.0222  0.5790  2.6549
  885SOL    HW2 2655   2.042   1.214   2.673  5.4449 -0.7281  0.6693
  886SOL     OW 2656   2.145   0.338   3.067 -0.5160  0.1452  0.1338
  886SOL    HW1 2657   2.229   0.366   0.013 -0.7836 -0.1845 -0.5503
  886SOL    HW2 2658   2.098   0.420   3.022 -1.1172  2.9107 -0.7378
  887SOL     OW 2659   1.128   2.724   1.786 -0.5256 -0.0867 -0.4950
  887SOL    HW1 2660   1.190   2.692   1.858 -1.4425 -2.2799  1.5166
  887SOL    HW2 2661   1.168   2.779   1.713 -0.2972  1.4318  0.0280
  888SOL     OW 2662   2.134   1.697   1.991  0.2563 -0.1389  0.1146
  888SOL    HW1 2663   2.181   1.730   2.078  2.5541 -1.2889  2.7146
  888SOL    HW2 2664   2.200   1.661   1.922 -3.0144 -0.6303  1.6112
  889SOL     OW 2665   1.900   2.299   1.317 -0.2067  0.3281  0.3491
  889SOL    HW1 2666   1.992   2.333   1.301 -1.4191 -0.6618 -0.2384
  889SOL    HW2 2667   1.865   2.256   1.231  1.3114 -0.3610  2.8691
  890SOL     OW 2668   1.137   1.930   0.976  0.2195 -0.1108  0.1597
  890SOL    HW1 2669   1.096   1.870   1.049 -1.6407  0.4800 -0.1295
  890SOL    HW2 2670   1.093   1.925   0.886  0.1915  2.2872  3.8805
  891SOL     OW 2671   3.081   1.362   0.412 -0.2162  0.1599  0.1219
  891SOL    HW1 2672   3.040   1.269   0.389  1.2584 -0.4793 -1.3339
  891SOL    HW2 2673   3.010   1.433   0.427  0.2919  0.0851  0.3475
  892SOL     OW 2674   2.382   1.504   2.989 -0.3990 -0.2399  0.9630
  892SOL    HW1 2675   2.401   1.461   3.077  1.2563 -2.5450 -1.0975
  892SOL    HW2 2676   2.292   1.557   2.993 -0.9753  0.9147 -1.0276
  893SOL     OW 2677   2.229   2.528   1.435  0.4030  0.2296  0.1479
  893SOL    HW1 2678   2.266   2.616   1.403  0.1998 -0.3267 -1.1502
  893SOL    HW2 2679   2.283   2.502   1.517 -2.8155 -0.0998 -0.2312
  894SOL     OW 2680   2.702   0.046   0.765  0.0593 -0.3839  0.0107
  894SOL    HW1 2681   2.669   3.103   0.681 -4.8015 -1.6659 -1.0458
  894SOL    HW2 2682   2.676   3.106   0.848  0.3438  1.5312 -1.3951
  895SOL     OW 2683   2.669   2.493   2.501 -0.2144  0.3290  1.0049
  895SOL    HW1 2684   2.687   2.566   2.432  0.4684 -1.0951 -0.0458
  895SOL    HW2 2685   2.745   2.422   2.508  0.7958  0.3426  1.3575
  896SOL     OW 2686   2.228   0.122   2.638  0.3283 -0.0922 -0.3968
  896SOL    HW1 2687   2.159   0.114   2.564  0.7770  0.1382  0.4917
  896SOL    HW2 2688   2.204   0.192   2.707 -0.9643  0.7298  1.5502
  897SOL     OW 2689   0.243   1.564   2.022  0.2060 -0.2135 -0.0495
  897SOL    HW1 2690   0.273   1.478   2.064  2.2630  1.6170 -2.2139
  897SOL    HW2 2691   0.269   1.649   2.077 -1.4732  0.7897  4.0484
  898SOL     OW 2692   2.824   1.834   1.677 -0.2381 -0.0559  0.5863
  898SOL    HW1 2693   2.747   1.828   1.742  1.2298 -2.4148 -1.2042
  898SOL    HW2 2694   2.841   1.928   1.641  2.7800  0.2832  1.6488
  899SOL     OW 2695   1.799   3.084   1.488  0.1075 -0.2841  0.0818
  899SOL    HW1 2696   1.728   0.021   1.549 -2.5126 -0.8907  0.8968
  899SOL    HW2 2697   1.796   2.982   1.479  2.2854 -0.5838 -0.0520
  900SOL     OW 2698   1.266   0.851   0.246  0.7595 -0.1452 -0.1232
  900SOL    HW1 2699   1.269   0.794   0.162  0.8777  1.4416 -0.8531
  900SOL    HW2 2700   1.349   0.828   0.298 -0.6003  1.4311  1.3953
  901SOL     OW 2701   1.120   1.094   2.943 -0.3960  0.1757  0.0633
  901SOL    HW1 2702   1.123   1.068   3.045  0.3601 -0.2796  0.1769
  901SOL    HW2 2703   1.102   1.009   2.892 -1.7088 -0.3349 -0.8869
  902SOL     OW 2704   2.749   2.584   0.530 -0.0613 -0.1102  0.2487
  902SOL    HW1 2705   2.831   2.648   0.532  1.4619  0.4323  0.8231
  902SOL    HW2 2706   2.735   2.545   0.621  0.8586 -0.1636  2.1803
  903SOL     OW 2707   2.989   1.418   1.854  0.0662 -0.5343 -0.0068
  903SOL    HW1 2708   2.985   1.333   1.805  1.3134 -0.8130  2.2350
  903SOL    HW2 2709   3.039   1.490   1.804  0.0072  0.6475  0.5346
  904SOL     OW 2710   1.768   1.055   0.699  0.1125 -0.4294  0.2076
  904SOL    HW1 2711   1.727   1.010   0.780  1.1833  0.6534 -3.6348
  904SOL    HW2 2712   1.861   1.016   0.688  1.1325 -1.8927 -0.2804
  905SOL     OW 2713   2.403   2.741   1.653 -0.2704  0.1826  0.4228
  905SOL    HW1 2714   2.322   2.799   1.664  0.1372  1.6887  1.4730
  905SOL    HW2 2715   2.484   2.799   1.677  1.0809  0.4805 -0.5886
  906SOL     OW 2716   1.522   2.412   3.104 -0.4224  0.0577 -0.1476
  906SOL    HW1 2717   1.596   2.446   0.057  0.0917  0.4999  1.1478
  906SOL    HW2 2718   1.544   2.454   3.015 -0.3620 -0.0320  1.6649
  907SOL     OW 2719   0.632   2.752   0.821  0.0967 -0.5078 -0.2981
  907SOL    HW1 2720   0.687   2.673   0.848 -1.6473  3.5597  1.2810
  907SOL    HW2 2721   0.551   2.772   0.883 -1.0619 -0.4974  1.6313
  908SOL     OW 2722   0.692   0.135   2.094  0.3866  0.1935 -0.0550
  908SOL    HW1 2723   0.750   0.085   2.166  2.2086  0.0006  2.6838
  908SOL    HW2 2724   0.725   0.115   2.000 -1.1011 -1.1974 -1.1337
  909SOL     OW 2725   2.181   0.759   1.600 -0.8581 -0.0099 -0.3004
  909SOL    HW1 2726   2.099   0.715   1.563 -0.0359 -0.1281  3.4393
  909SOL    HW2 2727   2.165   0.859   1.605  3.4519 -0.3208 -1.4747
  910SOL     OW 2728   1.253   0.702   0.033 -0.3532 -0.4846 -0.6792
  910SOL    HW1 2729   1.178   0.690   3.078  1.2486  0.2504 -0.4391
  910SOL    HW2 2730   1.274   0.606   0.063 -3.6182 -2.2347  0.4306
  911SOL     OW 2731   0.181   0.519   2.977  0.7559 -0.1553  0.1850
  911SOL    HW1 2732   0.087   0.498   3.002  2.4783  2.1512  0.0826
  911SOL    HW2 2733   0.224   0.434   2.961 -2.6844  1.3078 -1.7425
  912SOL     OW 2734   3.045   2.342   2.886  0.0455  0.1652 -0.1265
  912SOL    HW1 2735   2.991   2.428   2.903 -1.5935 -2.6182 -2.5707
  912SOL    HW2 2736   2.982   2.264   2.901 -3.0329  1.4210 -0.9176
  913SOL     OW 2737   2.594   2.447   3.077 -0.3890 -0.5627  0.5006
  913SOL    HW1 2738   2.675   2.439   0.031 -1.0957  1.4194  2.1944
  913SOL    HW2 2739   2.621   2.452   2.976  1.5475  0.4017 -3.1854
  914SOL     OW 2740   1.830   1.705   1.875  0.5376  0.0964  0.5359
  914SOL    HW1 2741   1.736   1.724   1.907 -0.8394  0.0822  1.0642
  914SOL    HW2 2742   1.898   1.775   1.910  2.5836  3.3180 -0.2878
  915SOL     OW 2743   3.096   2.492   2.140  0.3069 -0.4904  0.0449
  915SOL    HW1 2744   0.081   2.501   2.179 -1.7424  1.5185 -1.2987
  915SOL    HW2 2745   3.043   2.415   2.186 -5.6523  1.2327  0.2540
  916SOL     OW 2746   3.046   1.213   1.587 -0.3840  0.0528 -0.3432
  916SOL    HW1 2747   0.001   1.293   1.585 -1.2929  2.1946 -1.8152
  916SOL    HW2 2748   3.053   1.165   1.500  1.4341  0.2880  1.0820
  917SOL     OW 2749   2.226   0.075   3.040 -0.4561  0.0483 -0.2406
  917SOL    HW1 2750   2.168   0.038   2.967  1.8425  1.3277  0.2425
  917SOL    HW2 2751   2.203   0.172   3.052  0.1892  0.2296 -2.1947
  918SOL     OW 2752   1.760   2.621   2.278 -0.8918  0.2402  0.3822
  918SOL    HW1 2753   1.842   2.618   2.217 -1.1409  0.4584  2.5263
  918SOL    HW2 2754   1.710   2.709   2.259  0.8778 -0.5435 -0.3432
  919SOL     OW 2755   1.900   2.368   1.803  0.0133  0.0411 -0.1501
  919SOL    HW1 2756   1.979   2.338   1.752 -1.2785  1.4564  1.6103
  919SOL    HW2 2757   1.859   2.299   1.863  0.0203 -0.1646  1.7405
  920SOL     OW 2758   0.378   1.106   0.130 -0.4046 -0.1446 -0.3116
  920SOL    HW1 2759   0.447   1.150   0.185 -0.0489  1.3253 -1.7453
  920SOL    HW2 2760   0.418   1.042   0.064  0.3933  2.7380  0.0722
  921SOL     OW 2761   2.860   1.168   2.585  0.3804 -0.3389  0.0465
  921SOL    HW1 2762   2.769   1.164   2.639  0.4032  0.0351  0.6093
  921SOL    HW2 2763   2.835   1.175   2.485  0.4697  1.5661  1.4165
  922SOL     OW 2764   0.358   2.106   0.173  0.2126  0.0779  0.0199
  922SOL    HW1 2765   0.299   2.092   0.093  0.8086 -1.7484  0.7322
  922SOL    HW2 2766   0.410   2.019   0.185 -1.6386 -1.4901 -1.8082
  923SOL     OW 2767   0.499   0.851   2.158 -0.1120  0.1508 -0.5246
  923SOL    HW1 2768   0.441   0.829   2.079 -0.9196 -2.3835  0.4847
  923SOL    HW2 2769   0.552   0.769   2.185  0.9366  0.3889  2.8991
  924SOL     OW 2770   1.199   2.873   2.803  0.2066 -0.3010 -0.8635
  924SOL    HW1 2771   1.153   2.957   2.845 -0.2007 -0.9123 -1.0175
  924SOL    HW2 2772   1.302   2.863   2.827 -1.0319  0.8112  1.5530
  925SOL     OW 2773   2.031   1.276   0.911 -0.3437  0.5125 -0.2133
  925SOL    HW1 2774   1.982   1.284   0.821  0.0341 -1.1429 -4.5150
  925SOL    HW2 2775   2.123   1.234   0.902 -4.3518 -0.7816  0.0364
  926SOL     OW 2776   1.716   0.742   2.068 -0.1672  0.0570  0.2882
  926SOL    HW1 2777   1.676   0.665   2.009  2.2123 -0.7328 -1.1667
  926SOL    HW2 2778   1.637   0.782   2.115  0.8774 -1.9509 -1.2068
  927SOL     OW 2779   2.764   2.457   2.073 -0.1136  0.3921  0.6112
  927SOL    HW1 2780   2.826   2.514   2.011  1.2587 -0.9549 -3.8581
  927SOL    HW2 2781   2.728   2.506   2.153  3.0513  0.5178 -3.4616
  928SOL     OW 2782   0.377   0.660   2.431  0.3613  0.3650  0.0907
  928SOL    HW1 2783   0.309   0.646   2.501 -0.2900  2.5741  0.3272
  928SOL    HW2 2784   0.456   0.718   2.455 -0.5437 -0.3248  2.6095
  929SOL     OW 2785   2.962   0.034   0.873 -0.0974  0.3825 -0.1975
  929SOL    HW1 2786   2.880   0.091   0.865  0.6421  1.9041 -1.5225
  929SOL    HW2 2787   2.970   3.087   0.792 -0.0923  0.5658  0.0765
  930SOL     OW 2788   2.429   0.233   1.423  0.1702 -0.4397 -0.0495
  930SOL    HW1 2789   2.343   0.291   1.434 -0.2847 -1.2646  1.0503
  930SOL    HW2 2790   2.510   0.280   1.376  1.6237  0.5574 -0.1699
  931SOL     OW 2791   2.499   1.224   2.936 -0.7396 -0.2034  0.3970
  931SOL    HW1 2792   2.508   1.121   2.946  0.3388 -0.5441 -0.1973
  931SOL    HW2 2793   2.411   1.264   2.961  2.4264  1.9626 -0.1771
  932SOL     OW 2794   2.307   1.632   1.767 -0.4215 -0.1980 -0.9148
  932SOL    HW1 2795   2.293   1.733   1.768  0.0351 -0.5641 -1.5423
  932SOL    HW2 2796   2.280   1.595   1.677  1.0346 -0.1319 -2.7144
  933SOL     OW 2797   0.097   2.592   1.334 -0.2176  0.4913  0.1110
  933SOL    HW1 2798   0.172   2.519   1.343 -0.0533 -2.4502  1.9512
  933SOL    HW2 2799   0.067   2.613   1.428 -0.5902 -0.1585  2.7607
  934SOL     OW 2800   0.759   2.363   1.308 -0.2436  0.5162  0.6006
  934SOL    HW1 2801   0.792   2.281   1.256  0.5776 -1.1227  1.0376
  934SOL    HW2 2802   0.835   2.400   1.363 -1.0521  0.5693 -0.7993
  935SOL     OW 2803   2.353   1.547   2.174 -0.1156  0.1237 -0.7224
  935SOL    HW1 2804   2.312   1.581   2.258  0.4781  0.3698 -0.4608
  935SOL    HW2 2805   2.357   1.446   2.174  1.2686 -0.0979  0.1861
  936SOL     OW 2806   2.408   1.400   1.872  0.3151  0.0760  0.3273
  936SOL    HW1 2807   2.397   1.478   1.809 -1.3348 -0.7950  0.8416
  936SOL    HW2 2808   2.495   1.403   1.925 -0.7444  0.3870  0.9062
  937SOL     OW 2809   2.131   1.046   1.947  0.0519  0.2887 -0.0318
  937SOL    HW1 2810   2.029   1.023   1.932 -0.1713  1.6804 -1.8999
  937SOL    HW2 2811   2.161   1.026   2.042 -0.1955 -0.4048 -1.5865
  938SOL     OW 2812   0.864   2.323   2.909 -0.7491  0.6930  0.2070
  938SOL    HW1 2813   0.933   2.328   2.986  0.2876 -0.2490  1.8073
  938SOL    HW2 2814   0.842   2.415   2.867  1.1060  1.8112 -3.3059
  939SOL     OW 2815   2.823   0.950   2.901 -0.0051  0.3652  0.5535
  939SOL    HW1 2816   2.861   0.884   2.833 -1.5214  0.9077  0.6224
  939SOL    HW2 2817   2.723   0.931   2.905 -0.3288 -1.5461  0.4194
  940SOL     OW 2818   1.024   1.794   1.180 -0.0562 -0.0745 -0.1851
  940SOL    HW1 2819   1.041   1.693   1.182 -0.7256 -0.4571  0.3476
  940SOL    HW2 2820   1.082   1.850   1.245 -0.1510  1.0731 -0.1890
  941SOL     OW 2821   0.785   2.077   1.932 -0.0280  0.1650 -0.1663
  941SOL    HW1 2822   0.888   2.072   1.917  1.8675 -2.3741 -1.8696
  941SOL    HW2 2823   0.741   2.059   1.842  1.5760 -0.2011 -2.3984
  942SOL     OW 2824   0.286   1.978   2.864  0.7013 -0.3912  0.0932
  942SOL    HW1 2825   0.294   2.062   2.801  0.2973  1.8748  2.3903
  942SOL    HW2 2826   0.328   1.893   2.828 -1.9710  2.9160  2.0733
  943SOL     OW 2827   1.761   2.746   1.821 -0.2902 -0.6736  0.3168
  943SOL    HW1 2828   1.749   2.651   1.859 -0.0680 -2.2652 -0.9952
  943SOL    HW2 2829   1.854   2.753   1.780  1.3405 -0.7177  0.1490
  944SOL     OW 2830   0.970   1.537   0.222 -0.1121  0.1475 -0.0644
  944SOL    HW1 2831   1.054   1.481   0.193  1.9175  0.2696  0.7109
  944SOL    HW2 2832   0.923   1.487   0.291  1.0998  2.3322  0.5789
  945SOL     OW 2833   2.591   2.768   0.801  0.0010 -0.6437 -0.0860
  945SOL    HW1 2834   2.682   2.730   0.788  0.3050  2.5303 -0.6729
  945SOL    HW2 2835   2.534   2.760   0.718  1.7578 -0.0542 -2.1374
  946SOL     OW 2836   0.950   1.478   2.673 -0.1133  0.5734  0.2833
  946SOL    HW1 2837   1.028   1.529   2.643 -2.2364 -3.1843  1.0728
  946SOL    HW2 2838   0.902   1.519   2.751 -1.2942 -1.0024 -1.3333
  947SOL     OW 2839   2.842   0.792   1.995 -0.7393  0.1140 -0.5555
  947SOL    HW1 2840   2.755   0.808   1.945 -1.3040 -2.7095  0.9304
  947SOL    HW2 2841   2.902   0.743   1.934  0.6302 -0.4699 -0.7761
  948SOL     OW 2842   0.140   1.545   0.763  0.1325  0.1706  0.2932
  948SOL    HW1 2843   0.214   1.477   0.732 -1.5302 -1.0231  0.9096
  948SOL    HW2 2844   0.126   1.536   0.860  1.6702 -2.0426 -2.5461
  949SOL     OW 2845   0.777   0.673   2.347  0.5017 -0.1310 -0.5290
  949SOL    HW1 2846   0.700   0.610   2.322 -0.7670 -0.7643 -0.8303
  949SOL    HW2 2847   0.846   0.619   2.393  0.3318 -1.6816 -2.6951
  950SOL     OW 2848   0.182   0.529   1.381  0.9156  0.3918  0.0240
  950SOL    HW1 2849   0.222   0.623   1.384  0.3792 -4.9663 -0.9601
  950SOL    HW2 2850   0.202   0.485   1.470 -0.7756  1.6469 -0.6449
  951SOL     OW 2851   0.783   1.282   2.521 -0.3755 -0.0850 -0.5000
  951SOL    HW1 2852   0.827   1.350   2.584  0.1269 -0.6416  0.9288
  951SOL    HW2 2853   0.822   1.285   2.428 -1.5523  1.6650 -0.3465
  952SOL     OW 2854   1.928   2.162   0.821 -0.0248 -0.1999  0.0736
  952SOL    HW1 2855   1.884   2.107   0.744 -2.5630 -1.7988  0.1745
  952SOL    HW2 2856   1.986   2.236   0.779  2.0145 -0.7500 -2.9856
  953SOL     OW 2857   0.847   0.789   0.066  0.0003 -0.6098 -0.2647
  953SOL    HW1 2858   0.883   0.793   0.164  2.4208 -1.1407 -1.7074
  953SOL    HW2 2859   0.750   0.762   0.065  0.3039  0.4882  0.6972
  954SOL     OW 2860   2.216   0.688   1.277 -0.0987 -0.0204 -0.0063
  954SOL    HW1 2861   2.305   0.643   1.285 -1.1202  1.1169 -2.2063
  954SOL    HW2 2862   2.145   0.623   1.301  3.1764 -0.1543 -0.4406
  955SOL     OW 2863   2.015   1.192   0.434 -0.7011 -0.8407  0.1859
  955SOL    HW1 2864   2.100   1.142   0.407 -0.0725 -1.2028  1.2905
  955SOL    HW2 2865   1.948   1.175   0.362  0.6856 -0.2172 -1.3817
  956SOL     OW 2866   1.059   0.701   1.949 -0.0108  0.4815 -0.1012
  956SOL    HW1 2867   1.153   0.667   1.928  1.7898 -0.7293 -0.2168
  956SOL    HW2 2868   1.056   0.796   1.970 -1.8437 -1.8415  0.3650
  957SOL     OW 2869   1.381   0.450   1.670  0.2898  0.4875  0.6176
  957SOL    HW1 2870   1.402   0.433   1.769 -3.6811  1.3426  0.6383
  957SOL    HW2 2871   1.455   0.409   1.611  0.5535 -1.4387  0.7571
  958SOL     OW 2872   0.323   2.104   0.451 -0.0184  0.1090 -0.1038
  958SOL    HW1 2873   0.312   2.101   0.349  0.7626 -1.8060  0.3110
  958SOL    HW2 2874   0.367   2.019   0.488  1.1716 -1.0676  2.2606
  959SOL     OW 2875   2.349   0.906   1.857  0.0855  0.0878 -1.3063
  959SOL    HW1 2876   2.309   0.812   1.860  0.2949  1.2663  0.1057
  959SOL    HW2 2877   2.272   0.971   1.859 -0.5441 -1.7359  0.0077
  960SOL     OW 2878   0.064   1.809   2.882 -0.2129 -1.0141  0.3127
  960SOL    HW1 2879   0.144   1.875   2.872 -2.8004  1.3394  0.8728
  960SOL    HW2 2880   0.091   1.722   2.926  1.8885 -1.6075  0.7783
  961SOL     OW 2881   0.409   1.890   1.389  0.8896 -0.1638  0.1732
  961SOL    HW1 2882   0.412   1.798   1.339  1.9635 -2.3925 -0.3182
  961SOL    HW2 2883   0.508   1.919   1.402  0.9748 -1.9017  1.5257
  962SOL     OW 2884   0.725   1.222   0.751 -0.3694  0.3291 -0.4437
  962SOL    HW1 2885   0.704   1.271   0.663 -0.7748  1.7067  1.5414
  962SOL    HW2 2886   0.729   1.286   0.827 -1.5674 -0.5226  0.2260
  963SOL     OW 2887   1.302   1.806   2.424 -0.5129 -0.1330 -0.3185
  963SOL    HW1 2888   1.344   1.720   2.383  0.7945 -0.1342 -1.9238
  963SOL    HW2 2889   1.372   1.884   2.432 -0.3942  0.4778 -0.1334
  964SOL     OW 2890   0.201   2.873   1.922  0.8266  0.5978  0.6084
  964SOL    HW1 2891   0.189   2.788   1.863  1.1027  2.8230 -2.6039
  964SOL    HW2 2892   0.186   2.865   2.020  0.9753  0.5183 -1.2907
  965SOL     OW 2893   0.266   1.840   2.533 -0.4374 -0.4077 -0.7093
  965SOL    HW1 2894   0.307   1.789   2.611 -1.5799 -0.6759 -0.2204
  965SOL    HW2 2895   0.197   1.905   2.571  1.4136  1.3835  2.8285
  966SOL     OW 2896   2.841   1.650   0.019  0.1205  0.3264  0.1327
  966SOL    HW1 2897   2.850   1.586   3.047  0.5498  2.3758  1.7393
  966SOL    HW2 2898   2.936   1.667   0.053 -0.9948 -0.4837 -0.0134
  967SOL     OW 2899   2.198   3.076   0.175 -0.9545  0.0474 -0.4012
  967SOL    HW1 2900   2.175   2.978   0.162  1.8181  2.4947  2.0063
  967SOL    HW2 2901   2.216   0.010   0.082 -1.0345  0.7591 -2.6607
  968SOL     OW 2902   2.371   3.030   0.594 -0.1357 -0.3351 -0.1495
  968SOL    HW1 2903   2.464   3.056   0.555  0.7959  2.1989 -0.9929
  968SOL    HW2 2904   2.298   3.099   0.569  0.5613  0.0383 -0.6409
  969SOL     OW 2905   0.204   1.217   1.835  0.0847  0.2238 -0.3913
  969SOL    HW1 2906   0.203   1.293   1.773  0.8560 -2.5334 -1.9415
  969SOL    HW2 2907   0.220   1.136   1.773  0.2084 -2.0122 -2.6661
  970SOL     OW 2908   1.577   1.884   0.108  0.3884 -0.2292 -0.3224
  970SOL    HW1 2909   1.646   1.905   0.181 -2.0190  0.7075 -1.2952
  970SOL    HW2 2910   1.482   1.919   0.135  0.8936 -2.4139 -0.6486
  971SOL     OW 2911   2.319   0.056   1.779 -0.2767  0.5788 -0.2229
  971SOL    HW1 2912   2.400   0.053   1.716 -0.1303 -0.7931  1.7070
  971SOL    HW2 2913   2.254   0.130   1.757 -0.8823  0.1990  0.7193
  972SOL     OW 2914   2.812   0.228   1.156  0.5705 -0.1340  0.1204
  972SOL    HW1 2915   2.907   0.212   1.122  3.3658 -0.1705  0.8894
  972SOL    HW2 2916   2.742   0.235   1.080 -0.5669 -1.0001 -0.3836
  973SOL     OW 2917   0.826   0.345   2.168  0.2133 -0.1343  0.5396
  973SOL    HW1 2918   0.765   0.271   2.126  0.6737  0.5773  1.2253
  973SOL    HW2 2919   0.836   0.422   2.099 -2.2831 -0.6431 -2.9195
  974SOL     OW 2920   2.634   1.449   2.277  0.6108  0.5466 -0.7687
  974SOL    HW1 2921   2.551   1.389   2.267 -0.5713 -0.3756 -0.8203
  974SOL    HW2 2922   2.631   1.513   2.201 -0.4348  1.0394 -1.3100
  975SOL     OW 2923   1.059   0.222   1.725  0.1627 -0.1694  0.4829
  975SOL    HW1 2924   1.129   0.254   1.790 -1.4021  0.3707  0.2965
  975SOL    HW2 2925   1.097   0.144   1.667  1.7586 -0.7692  0.3812
  976SOL     OW 2926   1.309   1.509   1.268 -0.3138 -0.6042 -0.2403
  976SOL    HW1 2927   1.364   1.591   1.292  3.1465  0.1948 -0.4882
  976SOL    HW2 2928   1.348   1.428   1.318 -0.9795 -0.4396  2.6193
  977SOL     OW 2929   0.435   0.036   0.277  0.1265  0.5083 -0.3384
  977SOL    HW1 2930   0.338   0.016   0.306 -2.9119 -0.3419 -0.2954
  977SOL    HW2 2931   0.500   3.071   0.301 -1.6218  2.7804 -1.4145
  978SOL     OW 2932   2.433   1.289   2.225 -0.5173 -0.2165  0.6889
  978SOL    HW1 2933   2.441   1.231   2.138 -0.2608  1.1761 -0.5110
  978SOL    HW2 2934   2.389   1.236   2.297  1.8059  2.1977 -1.9661
  979SOL     OW 2935   1.469   0.496   2.181  0.7791 -0.4027 -0.0850
  979SOL    HW1 2936   1.504   0.546   2.261 -2.0700 -1.4075  0.4793
  979SOL    HW2 2937   1.366   0.491   2.193 -0.5178  2.0600 -1.5866
  980SOL     OW 2938   1.814   1.515   2.487 -0.2357 -0.0165  0.2789
  980SOL    HW1 2939   1.793   1.562   2.398 -0.1222  1.9410  1.4154
  980SOL    HW2 2940   1.726   1.490   2.531  0.9634 -0.7511  0.0308
  981SOL     OW 2941   1.889   0.699   1.729  0.4077  0.7166 -0.0213
  981SOL    HW1 2942   1.865   0.794   1.698 -1.1515  2.0036 -1.4908
  981SOL    HW2 2943   1.920   0.640   1.649  1.4323 -2.5177  1.4682
  982SOL     OW 2944   0.605   0.507   3.005 -0.3366  0.0374  0.6149
  982SOL    HW1 2945   0.575   0.565   3.084 -1.8643  2.2904 -2.2266
  982SOL    HW2 2946   0.545   0.521   2.924 -0.4843  1.2034 -0.2830
  983SOL     OW 2947   2.651   0.666   0.050 -0.4061 -0.2355 -0.5507
  983SOL    HW1 2948   2.688   0.747   0.103 -0.9003  0.1594  0.3315
  983SOL    HW2 2949   2.730   0.609   0.011  0.3246  3.8748 -1.3728
  984SOL     OW 2950   1.010   0.333   2.382 -0.2464  0.5535  0.0224
  984SOL    HW1 2951   0.994   0.398   2.458  1.0598 -1.3867  0.8158
  984SOL    HW2 2952   0.927   0.339   2.319  1.4093  1.8853 -4.0275
  985SOL     OW 2953   1.705   1.933   2.084 -0.2608  0.9403  0.0732
  985SOL    HW1 2954   1.658   1.855   2.034  0.0790 -0.0022 -1.1043
  985SOL    HW2 2955   1.747   1.892   2.166  0.2197 -0.6990  0.3748
  986SOL     OW 2956   2.486   2.787   1.991 -0.0636 -0.0705 -0.0029
  986SOL    HW1 2957   2.537   2.801   1.905 -1.5585  0.5216 -0.5665
  986SOL    HW2 2958   2.492   2.867   2.045 -2.6690  1.3114 -3.7844
  987SOL     OW 2959   1.888   1.138   1.071  0.1853  0.1230  0.0835
  987SOL    HW1 2960   1.948   1.193   1.014  1.0840 -0.7460 -2.2272
  987SOL    HW2 2961   1.830   1.084   1.005  0.8521 -0.2262 -1.3833
  988SOL     OW 2962   2.536   1.750   2.095 -0.3763  0.1306  0.3881
  988SOL    HW1 2963   2.531   1.826   2.163  0.6683 -1.7563 -2.0093
  988SOL    HW2 2964   2.460   1.678   2.101  1.6153  0.9765 -1.9724
  989SOL     OW 2965   1.244   2.279   0.329  0.7440  0.4789 -0.1113
  989SOL    HW1 2966   1.184   2.358   0.336  1.5734 -1.6313  3.3051
  989SOL    HW2 2967   1.224   2.215   0.407 -0.4505  1.1853  1.7103
  990SOL     OW 2968   2.030   0.534   2.916  0.5261 -0.1742 -0.2177
  990SOL    HW1 2969   1.995   0.630   2.904 -0.0356  1.9406 -0.4991
  990SOL    HW2 2970   1.996   0.477   2.837 -2.9681  1.7780  1.9528
  991SOL     OW 2971   1.125   0.375   0.936  0.0667  0.5583  0.5104
  991SOL    HW1 2972   1.122   0.321   0.848 -0.9396  0.0157 -0.4952
  991SOL    HW2 2973   1.027   0.395   0.963 -0.6076 -3.7918 -1.6570
  992SOL     OW 2974   2.532   0.966   1.176  0.0630  0.9731 -0.7004
  992SOL    HW1 2975   2.516   0.971   1.277 -2.6412 -0.8415  0.6984
  992SOL    HW2 2976   2.547   0.871   1.149  1.1250  3.4128 -0.0052
  993SOL     OW 2977   2.153   0.625   1.869 -0.3963 -0.3638  0.2619
  993SOL    HW1 2978   2.202   0.611   1.782 -1.3685 -0.5136 -1.6817
  993SOL    HW2 2979   2.061   0.659   1.845  1.2182 -0.0680 -1.3664
  994SOL     OW 2980   1.127   1.636   2.541 -0.1071  0.2952  0.2405
  994SOL    HW1 2981   1.195   1.695   2.494 -2.4944  1.1698  0.8185
  994SOL    HW2 2982   1.039   1.666   2.495  2.3913  0.5507 -4.2116
  995SOL     OW 2983   2.197   1.255   2.992 -0.0780  0.6044 -0.2651
  995SOL    HW1 2984   2.146   1.248   2.905  0.6212 -2.7938  0.1615
  995SOL    HW2 2985   2.175   1.346   3.033 -1.8136 -2.9038  0.9934
  996SOL     OW 2986   2.147   1.990   0.506  0.3074  0.0944  0.4920
  996SOL    HW1 2987   2.066   1.943   0.539  1.4025 -0.7172 -3.2115
  996SOL    HW2 2988   2.226   1.926   0.519  1.2660  3.5750 -1.8980
  997SOL     OW 2989   2.150   0.511   2.124 -0.7667 -0.0627  0.1184
  997SOL    HW1 2990   2.056   0.519   2.162 -1.5170  0.4995 -0.7433
  997SOL    HW2 2991   2.154   0.548   2.030 -0.2021 -0.7838  1.1657
  998SOL     OW 2992   2.661   0.841   0.791 -0.0920  0.1617 -0.4888
  998SOL    HW1 2993   2.731   0.781   0.837  2.3950 -2.7702 -3.1319
  998SOL    HW2 2994   2.698   0.934   0.785 -1.0771 -2.9280 -0.0938
  999SOL     OW 2995   2.727   1.687   0.362  0.0660  0.2475 -0.5583
  999SOL    HW1 2996   2.691   1.683   0.271 -0.5580 -1.1773  2.0788
  999SOL    HW2 2997   2.819   1.734   0.357  0.4444 -1.0725  1.6786
 1000SOL     OW 2998   0.594   0.555   2.014  0.6922 -0.6047 -0.4892
 1000SOL    HW1 2999   0.689   0.538   1.974  1.6384 -0.2523  0.9714
 1000SOL    HW2 3000   0.603   0.571   2.116 -0.2385 -0.0775 -0.3026
   3.10912   3.10912   3.10912
