1000 SPC/Fw water molecules t=   0.00000 step= 0
 3000
    1SOL     OW    1   1.321   2.936   0.290 -0.0452 -0.1540 -0.2639
    1SOL    HW1    2   1.251   3.008   0.284  0.1160 -3.2800  1.5589
    1SOL    HW2    3   1.283   2.871   0.362 -2.4880 -0.3795  0.9188
    2SOL     OW    4   1.517   0.806   1.473  0.4789  0.3278  0.4839
    2SOL    HW1    5   1.603   0.758   1.440  3.1068 -2.5668 -0.1097
    2SOL    HW2    6   1.549   0.888   1.524 -1.5217 -0.9141  2.3658
    3SOL     OW    7   0.705   0.089   2.483  0.0837  0.0200  0.3748
    3SOL    HW1    8   0.679   0.183   2.510  0.4628 -0.9654  1.7974
    3SOL    HW2    9   0.637   0.024   2.516  0.6269  0.2767 -0.4903
    4SOL     OW   10   1.581   1.692   3.016  0.4359 -0.0873 -0.2457
    4SOL    HW1   11   1.622   1.768   2.961 -1.9279  2.7418 -0.5815
    4SOL    HW2   12   1.560   1.722   0.019  1.0626 -2.5522  1.1616
    5SOL     OW   13   0.810   1.324   2.031 -0.0237 -0.2955 -0.0409
    5SOL    HW1   14   0.807   1.224   2.044  1.4960 -1.3322  0.4493
    5SOL    HW2   15   0.907   1.356   2.039 -0.9039  0.2592 -3.4171
    6SOL     OW   16   2.406   0.960   2.303 -0.1412 -0.3509 -0.2717
    6SOL    HW1   17   2.436   0.898   2.377 -1.0009 -1.9976  0.7654
    6SOL    HW2   18   2.393   0.910   2.215 -1.5487 -1.2542  2.3762
    7SOL     OW   19   0.025   0.869   1.287 -0.8746 -0.3490  0.0936
    7SOL    HW1   20   3.059   0.948   1.280 -1.3409 -0.4057 -2.4108
    7SOL    HW2   21   0.123   0.890   1.303 -1.5704 -1.3621  1.3137
    8SOL     OW   22   2.253   2.526   1.958 -0.3229 -0.1277 -0.0402
    8SOL    HW1   23   2.244   2.559   1.863  0.6148 -0.7699  1.9132
    8SOL    HW2   24   2.268   2.602   2.028  2.1936 -1.2846  1.0999
    9SOL     OW   25   0.116   2.694   0.269 -0.7894  0.0545  0.1285
    9SOL    HW1   26   0.044   2.668   0.333  1.7276  0.3655 -3.3579
    9SOL    HW2   27   0.192   2.622   0.276  0.6563 -0.7494  1.4807
   10SOL     OW   28   0.068   2.480   2.477  0.7328 -0.5698 -0.1346
   10SOL    HW1   29   0.107   2.576   2.485  0.3869  1.3592  0.2552
   10SOL    HW2   30   0.144   2.413   2.475 -0.7603 -0.2804  0.4159
   11SOL     OW   31   0.215   1.822   0.102 -0.1525 -0.2550 -0.1380
   11SOL    HW1   32   0.285   1.751   0.094 -0.3775  1.3166  1.7369
   11SOL    HW2   33   0.159   1.821   0.189  0.4307  2.4757  2.3673
   12SOL     OW   34   2.339   2.903   0.432 -0.7259 -0.3081 -0.3570
   12SOL    HW1   35   2.408   2.971   0.403 -1.9563 -3.3076 -1.4669
   12SOL    HW2   36   2.326   2.843   0.352  1.4504  0.4047 -0.1724
   13SOL     OW   37   0.221   0.481   2.673 -0.0312  0.0540 -0.1590
   13SOL    HW1   38   0.166   0.398   2.657  0.0287 -1.5436 -1.4291
   13SOL    HW2   39   0.169   0.562   2.647  2.3001 -0.9000  0.0016
   14SOL     OW   40   1.285   0.731   1.343  0.6500 -0.0509 -0.6180
   14SOL    HW1   41   1.364   0.739   1.407  1.0189 -3.4055 -0.8610
   14SOL    HW2   42   1.315   0.705   1.248 -1.7882 -0.7143 -0.8006
   15SOL     OW   43   0.619   1.413   2.223 -0.0136 -0.3455  0.1390
   15SOL    HW1   44   0.561   1.481   2.178  2.0405 -2.9366  1.6094
   15SOL    HW2   45   0.705   1.390   2.167 -2.1940 -3.4578 -0.7218
   16SOL     OW   46   1.829   0.882   2.753 -0.2892  0.4670  0.0497
   16SOL    HW1   47   1.730   0.850   2.760 -0.6780 -1.8314 -0.2574
   16SOL    HW2   48   1.857   0.904   2.657  0.2752 -0.6912  2.1684
   17SOL     OW   49   0.147   2.520   2.148  0.5568  0.3643 -0.0183
   17SOL    HW1   50   0.093   2.604   2.178 -0.3408 -0.3969  0.3937
   17SOL    HW2   51   0.097   2.466   2.077 -0.6045  1.2901 -0.1613
   18SOL     OW   52   1.509   1.201   0.783 -0.4415 -0.1791  0.1646
   18SOL    HW1   53   1.534   1.098   0.796  0.1521 -1.0906  0.9656
   18SOL    HW2   54   1.411   1.209   0.757 -0.5082  0.4898 -0.8173
   19SOL     OW   55   0.115   1.072   1.751  0.2014  0.1754 -0.1226
   19SOL    HW1   56   0.194   1.119   1.705  1.1723  1.5867 -2.6846
   19SOL    HW2   57   0.153   1.006   1.819 -0.0264  0.6853 -1.2671
   20SOL     OW   58   1.805   2.069   2.700  0.0297 -0.4230  0.7095
   20SOL    HW1   59   1.765   2.155   2.655 -1.2700  3.1516 -1.7769
   20SOL    HW2   60   1.858   2.096   2.780 -3.3025  0.3761 -1.3143
   21SOL     OW   61   1.653   1.691   1.093  0.4101 -0.2552 -0.1847
   21SOL    HW1   62   1.685   1.776   1.135  0.2383 -1.4271  1.9052
   21SOL    HW2   63   1.699   1.605   1.131  1.3192 -3.7262 -0.8356
   22SOL     OW   64   1.943   2.308   1.326 -0.1603  0.2323  0.0288
   22SOL    HW1   65   1.859   2.249   1.326 -1.4687  1.2294 -0.6518
   22SOL    HW2   66   1.938   2.383   1.255  0.2733 -1.6285  2.9093
   23SOL     OW   67   2.681   1.104   1.343 -0.7067 -0.4584 -0.5957
   23SOL    HW1   68   2.690   1.017   1.401  1.3988 -1.8595  0.0466
   23SOL    HW2   69   2.620   1.085   1.261 -1.8597 -0.6031  0.9202
   24SOL     OW   70   1.969   1.383   1.678 -0.3338  0.2135  0.0335
   24SOL    HW1   71   1.908   1.460   1.708 -1.5019  3.2276  0.1236
   24SOL    HW2   72   2.043   1.367   1.747  2.7841  0.0243 -0.4226
   25SOL     OW   73   1.777   2.945   2.570  0.0575  0.1475 -0.3000
   25SOL    HW1   74   1.866   2.992   2.586  0.4328 -1.4236  0.9552
   25SOL    HW2   75   1.739   2.971   2.482  1.7515 -0.8858  1.7366
   26SOL     OW   76   0.424   2.669   0.645  0.2934 -0.3306  0.1580
   26SOL    HW1   77   0.517   2.662   0.693  1.4603  0.6130  1.1889
   26SOL    HW2   78   0.411   2.587   0.587 -0.1843  0.9836 -0.1513
   27SOL     OW   79   1.218   1.231   0.744  0.1672 -0.1118 -0.3720
   27SOL    HW1   80   1.224   1.196   0.835 -0.7423  1.7922 -2.3841
   27SOL    HW2   81   1.141   1.301   0.743 -0.7035  2.7150  0.1723
   28SOL     OW   82   1.944   2.511   1.131 -0.4181  0.0944  0.1805
   28SOL    HW1   83   1.997   2.470   1.055 -1.5809 -0.9128  2.2103
   28SOL    HW2   84   1.840   2.503   1.134 -2.3257  1.6953  1.2489
   29SOL     OW   85   2.179   2.746   2.367 -0.2953 -0.2109  0.2057
   29SOL    HW1   86   2.274   2.743   2.408 -2.2125 -0.3590 -1.1652
   29SOL    HW2   87   2.113   2.688   2.417  0.0797 -0.6208  1.8030
   30SOL     OW   88   0.150   2.675   1.892  0.1364 -0.0249  0.1144
   30SOL    HW1   89   0.052   2.646   1.895  0.7259  1.0958  1.2489
   30SOL    HW2   90   0.163   2.750   1.960 -2.0993 -0.8726  3.1214
   31SOL     OW   91   2.975   1.799   2.337  0.3449  0.3359  0.0111
   31SOL    HW1   92   3.024   1.870   2.388 -1.8827 -2.4331  1.0972
   31SOL    HW2   93   3.014   1.772   2.246 -0.5690 -0.6844 -1.1562
   32SOL     OW   94   1.034   2.418   2.195 -0.1468 -0.2498  0.3639
   32SOL    HW1   95   0.981   2.399   2.276  1.6966  0.2905 -1.5763
   32SOL    HW2   96   1.131   2.431   2.224 -3.0465 -1.1676  1.8236
   33SOL     OW   97   0.019   0.473   0.036  0.1583  0.1042  0.7128
   33SOL    HW1   98   0.035   0.573   0.022  0.9261 -0.1602  0.1884
   33SOL    HW2   99   0.098   0.420   3.095 -0.4549 -1.1215 -0.9092
   34SOL     OW  100   2.722   0.183   0.136 -0.4434  0.1364 -1.4142
   34SOL    HW1  101   2.793   0.114   0.155 -1.2816 -0.7056 -1.7549
   34SOL    HW2  102   2.642   0.137   0.102 -0.5446  3.0638 -0.4503
   35SOL     OW  103   2.879   2.759   1.638 -0.3901  0.0320 -0.3086
   35SOL    HW1  104   2.904   2.744   1.737  2.8358 -1.1418  3.0158
   35SOL    HW2  105   2.910   2.850   1.606 -0.7597  0.4976  0.9090
   36SOL     OW  106   2.308   3.024   2.616 -0.4870 -0.2559  0.6032
   36SOL    HW1  107   2.237   2.972   2.670 -1.3204 -0.3867  1.3351
   36SOL    HW2  108   2.396   2.973   2.630 -0.0363  0.2191 -0.7549
   37SOL     OW  109   1.769   2.597   0.094  0.2892 -0.3362  0.1569
   37SOL    HW1  110   1.763   2.564   3.093 -0.2361 -0.4658 -0.7332
   37SOL    HW2  111   1.681   2.633   0.124  0.7588  1.7008  2.4858
   38SOL     OW  112   0.496   0.149   0.713  0.0463  0.0818  1.1974
   38SOL    HW1  113   0.453   0.222   0.656 -0.2130 -0.5617 -0.4039
   38SOL    HW2  114   0.548   0.083   0.652  0.7235 -1.0004 -1.1750
   39SOL     OW  115   1.147   1.857   2.153  0.4458 -0.1361 -0.4952
   39SOL    HW1  116   1.065   1.849   2.213  0.6896  0.7338  2.0371
   39SOL    HW2  117   1.201   1.940   2.169  0.6645 -1.0853 -3.7550
   40SOL     OW  118   3.079   0.984   0.153  0.6803 -0.3996 -0.3374
   40SOL    HW1  119   3.000   1.040   0.126 -2.7207 -1.8463  1.7300
   40SOL    HW2  120   0.067   1.024   0.113 -0.3318  0.8935 -1.3883
   41SOL     OW  121   1.640   0.055   2.081  0.5322  0.3491 -0.7754
   41SOL    HW1  122   1.573   0.098   2.145  1.0226 -0.3471  1.5746
   41SOL    HW2  123   1.591   3.086   2.018  0.3987 -1.6617  0.2019
   42SOL     OW  124   2.459   0.180   1.144  0.3316  0.1987  0.0617
   42SOL    HW1  125   2.550   0.175   1.097 -0.0176  2.7050  1.5225
   42SOL    HW2  126   2.430   0.084   1.171 -0.6167 -0.7559 -0.4445
   43SOL     OW  127   1.505   0.224   1.188 -0.1344 -0.1515 -0.0623
   43SOL    HW1  128   1.596   0.221   1.234  1.3179 -0.2529  0.7489
   43SOL    HW2  129   1.498   0.151   1.116 -1.3426 -1.5558  1.7324
   44SOL     OW  130   0.293   0.883   3.062  0.4125  0.2922 -0.1774
   44SOL    HW1  131   0.383   0.873   3.021 -1.3988  4.3021  0.7564
   44SOL    HW2  132   0.307   0.932   0.055  0.0096  1.5303 -0.7703
   45SOL     OW  133   0.641   1.520   1.700  0.3571  0.0386  0.0015
   45SOL    HW1  134   0.649   1.496   1.605 -1.2478  0.3336  3.5197
   45SOL    HW2  135   0.611   1.437   1.750  0.1827 -2.9877  2.5025
   46SOL     OW  136   2.182   2.226   1.768 -0.1000  0.0107  0.0433
   46SOL    HW1  137   2.127   2.187   1.844  1.5185 -0.1255  0.5627
   46SOL    HW2  138   2.271   2.180   1.751  0.2144 -3.6081 -0.6511
   47SOL     OW  139   0.378   1.842   1.448  0.2008  0.3617 -0.0042
   47SOL    HW1  140   0.422   1.846   1.353  0.2397 -1.2010 -0.2474
   47SOL    HW2  141   0.317   1.930   1.463  0.3664  0.2622 -0.4350
   48SOL     OW  142   1.147   2.821   2.722 -0.1031  0.4181  0.0389
   48SOL    HW1  143   1.179   2.755   2.652  0.5249 -0.1216  0.1877
   48SOL    HW2  144   1.049   2.811   2.736  1.0568 -1.8664  0.6144
   49SOL     OW  145   2.696   1.611   1.861  0.4780  0.5192 -0.2111
   49SOL    HW1  146   2.682   1.693   1.801 -1.5042 -0.3034  1.9156
   49SOL    HW2  147   2.699   1.527   1.808  1.8214 -1.0359 -0.8883
   50SOL     OW  148   0.866   2.931   0.383  0.0284  0.1592  0.0938
   50SOL    HW1  149   0.947   2.924   0.450  2.1808 -0.1790  3.1429
   50SOL    HW2  150   0.839   3.031   0.368  0.0046 -0.0269  0.3714
   51SOL     OW  151   1.206   0.188   0.900  0.4228  0.4441  0.0062
   51SOL    HW1  152   1.238   0.209   0.807  0.1095  1.1030 -1.9672
   51SOL    HW2  153   1.253   0.103   0.928 -0.3762 -0.0209  1.9559
   52SOL     OW  154   0.115   0.805   0.614 -0.6319  0.0422  0.2044
   52SOL    HW1  155   0.074   0.811   0.521  3.3404 -1.0161 -2.1048
   52SOL    HW2  156   0.171   0.885   0.642 -0.5624 -3.1886 -3.7554
   53SOL     OW  157   1.013   0.174   2.811  0.0416 -0.2705 -0.0210
   53SOL    HW1  158   1.060   0.112   2.876 -1.2462 -1.8432  0.9393
   53SOL    HW2  159   0.986   0.125   2.723 -2.1377  0.5763 -2.6604
   54SOL     OW  160   2.059   0.428   2.204 -0.0026  0.1967  0.3874
   54SOL    HW1  161   2.108   0.420   2.291  0.6878  0.3186 -1.3691
   54SOL    HW2  162   2.089   0.348   2.145 -1.6141 -3.6973  0.6697
   55SOL     OW  163   2.534   3.049   0.324  0.2522 -0.5701 -0.1510
   55SOL    HW1  164   2.611   3.038   0.391  1.6308 -1.3701  0.4925
   55SOL    HW2  165   2.565   3.017   0.233  1.2683 -0.0915 -1.0306
   56SOL     OW  166   0.802   0.387   2.195 -0.3193 -0.1214 -0.1552
   56SOL    HW1  167   0.718   0.373   2.137 -0.2841  1.9861  2.9215
   56SOL    HW2  168   0.843   0.301   2.221  1.1986 -0.8669 -1.4122
   57SOL     OW  169   1.783   1.018   2.271 -0.4567 -0.1823 -0.4134
   57SOL    HW1  170   1.716   1.094   2.292 -4.5590  0.5440 -1.9917
   57SOL    HW2  171   1.823   1.030   2.179 -2.3990  1.8875  3.4201
   58SOL     OW  172   0.182   0.889   1.971 -0.5828 -0.0829 -0.3670
   58SOL    HW1  173   0.223   0.978   2.009  2.0122  1.8842  1.1720
   58SOL    HW2  174   0.178   0.814   2.043 -0.9285 -0.9167  0.8494
   59SOL     OW  175   0.855   2.747   1.930 -0.2939 -0.1056 -0.2152
   59SOL    HW1  176   0.771   2.716   1.972  0.6824  2.5471 -1.9206
   59SOL    HW2  177   0.933   2.754   1.996 -2.1082  0.0866 -2.0672
   60SOL     OW  178   2.124   2.586   0.359 -0.0891 -0.1389  1.4009
   60SOL    HW1  179   2.105   2.641   0.447  2.1117 -0.3909 -2.3356
   60SOL    HW2  180   2.070   2.498   0.355  0.3118 -0.3793 -0.1770
   61SOL     OW  181   1.452   2.633   0.439 -0.2145  0.1046  0.2098
   61SOL    HW1  182   1.355   2.667   0.458 -1.7947  2.2490 -0.2472
   61SOL    HW2  183   1.455   2.533   0.427  0.8000 -0.1137 -0.0541
   62SOL     OW  184   2.231   2.569   3.002  0.2026 -0.1314  0.3106
   62SOL    HW1  185   2.253   2.475   3.039 -1.7509 -0.8401 -1.8786
   62SOL    HW2  186   2.156   2.615   3.055 -2.4855 -0.6894 -2.2942
   63SOL     OW  187   2.615   0.906   0.625 -0.5424 -0.4752 -0.2629
   63SOL    HW1  188   2.609   0.849   0.538 -0.6124  0.5827  0.8129
   63SOL    HW2  189   2.711   0.929   0.656  1.1294  3.0706 -0.2473
   64SOL     OW  190   1.578   1.085   3.047  0.1715 -0.0305  0.4337
   64SOL    HW1  191   1.622   1.150   0.017  0.5730  1.0343  0.6962
   64SOL    HW2  192   1.494   1.047   3.086  2.3892 -3.3887  0.8327
   65SOL     OW  193   0.431   2.426   1.689  0.2153  0.3691 -0.4438
   65SOL    HW1  194   0.403   2.495   1.620 -0.1211  0.0613 -1.2053
   65SOL    HW2  195   0.395   2.456   1.783 -2.2745  0.8066  3.3927
   66SOL     OW  196   1.016   1.243   1.290 -0.4649 -0.0235  0.1576
   66SOL    HW1  197   1.021   1.137   1.278  1.0332 -3.7446  1.2987
   66SOL    HW2  198   1.004   1.291   1.204  0.1177 -0.9362  1.8637
   67SOL     OW  199   2.552   1.924   2.005 -0.4086 -0.3041 -0.0382
   67SOL    HW1  200   2.604   1.928   1.917  2.3905  0.8943  1.1127
   67SOL    HW2  201   2.547   1.830   2.044  1.9283 -2.3065  1.5650
   68SOL     OW  202   1.249   1.705   1.745 -0.2278 -0.3631 -0.1327
   68SOL    HW1  203   1.217   1.654   1.662  0.6944  1.4349 -1.0374
   68SOL    HW2  204   1.172   1.725   1.807  1.2074 -0.0628  1.0301
   69SOL     OW  205   2.663   0.438   0.061  0.4422  0.0003  0.2756
   69SOL    HW1  206   2.631   0.451   3.057 -5.2600  1.7829 -4.2252
   69SOL    HW2  207   2.670   0.343   0.092 -0.8759  1.0559  0.7569
   70SOL     OW  208   2.182   1.154   2.261 -0.3104 -0.5231 -0.1174
   70SOL    HW1  209   2.229   1.058   2.250  2.2472 -0.4450 -0.0951
   70SOL    HW2  210   2.139   1.164   2.352 -2.7657  0.1821 -3.2296
   71SOL     OW  211   1.057   2.128   0.676 -0.2481 -0.2096  0.7629
   71SOL    HW1  212   1.104   2.095   0.596 -1.9605  2.1297  0.2220
   71SOL    HW2  213   1.121   2.175   0.736 -0.6506  1.2021 -1.9996
   72SOL     OW  214   2.265   1.755   0.661  0.6263  0.3373  0.6357
   72SOL    HW1  215   2.333   1.833   0.662 -3.1297 -1.5792  0.2951
   72SOL    HW2  216   2.213   1.751   0.747 -0.9678 -1.7353  0.3552
   73SOL     OW  217   1.057   0.896   0.594  0.1152 -0.6154 -0.4274
   73SOL    HW1  218   0.990   0.955   0.637  1.4834 -2.5186  2.6149
   73SOL    HW2  219   1.019   0.864   0.505  2.5103 -0.8754  2.9096
   74SOL     OW  220   2.672   2.143   2.166 -0.2196 -0.5670  0.0308
   74SOL    HW1  221   2.647   2.044   2.174 -2.3280  1.1412  0.3038
   74SOL    HW2  222   2.710   2.174   2.077  0.8518  1.4752  1.4982
   75SOL     OW  223   1.664   1.644   1.983 -0.1205 -0.5049 -0.5379
   75SOL    HW1  224   1.573   1.610   1.952 -2.8573  0.9170 -1.3006
   75SOL    HW2  225   1.716   1.585   2.049  2.5277 -0.5502  0.0925
   76SOL     OW  226   1.208   1.603   1.142 -0.0030 -0.2624  0.1760
   76SOL    HW1  227   1.137   1.554   1.086  0.1364 -0.1177 -0.9479
   76SOL    HW2  228   1.270   1.652   1.073 -0.7094 -0.5520 -1.8645
   77SOL     OW  229   2.460   0.858   1.762  0.5561 -0.1026  0.0819
   77SOL    HW1  230   2.380   0.908   1.794  1.4370 -0.1020 -3.0180
   77SOL    HW2  231   2.447   0.761   1.772  1.7518 -0.5926  1.4177
   78SOL     OW  232   1.673   0.635   0.282  0.2532  0.4810 -0.2553
   78SOL    HW1  233   1.660   0.680   0.191  0.0607  2.8902 -2.9583
   78SOL    HW2  234   1.592   0.659   0.344 -0.5061 -2.7699 -0.7280
   79SOL     OW  235   1.034   1.729   1.911  0.4108 -0.1254  0.1825
   79SOL    HW1  236   1.070   1.794   1.983  1.0371  0.8665 -1.8452
   79SOL    HW2  237   0.928   1.725   1.908 -1.8265 -1.4561  1.2125
   80SOL     OW  238   0.949   0.368   1.477 -0.1232 -0.2528  0.2572
   80SOL    HW1  239   0.985   0.459   1.457 -1.7493 -0.8512  1.3975
   80SOL    HW2  240   1.004   0.339   1.560  2.5376  1.4050  0.1515
   81SOL     OW  241   0.264   2.478   0.250 -0.6957 -0.4165 -0.6187
   81SOL    HW1  242   0.332   2.498   0.175  0.1341  1.4947 -0.1014
   81SOL    HW2  243   0.315   2.468   0.336 -0.2203 -0.4113 -1.7626
   82SOL     OW  244   1.097   0.262   1.718 -0.0736  0.6684  0.4235
   82SOL    HW1  245   1.118   0.267   1.814  0.5523 -1.0557  0.0030
   82SOL    HW2  246   1.173   0.302   1.654 -1.3646 -1.0277  0.0242
   83SOL     OW  247   0.421   2.227   0.981 -0.4062  0.0588  0.3906
   83SOL    HW1  248   0.354   2.308   0.977  0.8876  2.9804 -0.9091
   83SOL    HW2  249   0.367   2.149   1.011  0.3847  0.8555 -0.5843
   84SOL     OW  250   2.550   1.267   0.956 -0.2245 -0.8497 -0.1509
   84SOL    HW1  251   2.533   1.190   1.020 -1.5510  1.2069 -0.1336
   84SOL    HW2  252   2.603   1.238   0.877 -0.6986  0.6446  2.2706
   85SOL     OW  253   2.226   1.926   1.143 -0.4865  0.1843 -0.7249
   85SOL    HW1  254   2.164   1.882   1.213 -1.1107 -1.1991  1.1529
   85SOL    HW2  255   2.295   1.855   1.119  1.1300 -0.6765 -2.0073
   86SOL     OW  256   1.226   2.160   2.209  0.6568 -0.8032  0.1242
   86SOL    HW1  257   1.156   2.180   2.132 -0.0170 -0.2533  2.0144
   86SOL    HW2  258   1.310   2.109   2.181  0.1496  0.8413  0.3450
   87SOL     OW  259   2.310   1.273   0.827 -0.3316 -0.4485 -0.1007
   87SOL    HW1  260   2.300   1.352   0.763  0.4925 -1.7406 -3.3993
   87SOL    HW2  261   2.404   1.267   0.872 -2.5943  0.9076  1.3756
   88SOL     OW  262   0.514   2.948   0.978  0.1973 -0.5682 -0.4287
   88SOL    HW1  263   0.429   2.990   0.946  0.6204  0.0151 -0.1375
   88SOL    HW2  264   0.547   2.997   1.060  1.7372  1.9231  2.2510
   89SOL     OW  265   0.523   1.104   1.539 -0.2301 -0.0734  0.4860
   89SOL    HW1  266   0.620   1.100   1.567 -0.6529 -2.0103  1.1731
   89SOL    HW2  267   0.504   1.045   1.458  0.8357 -0.4095 -0.9329
   90SOL     OW  268   2.692   1.830   0.362 -0.3338  0.1069 -0.2548
   90SOL    HW1  269   2.689   1.921   0.407 -2.4127 -2.8651 -2.4320
   90SOL    HW2  270   2.785   1.799   0.358 -3.7862  3.5633 -2.7658
   91SOL     OW  271   0.807   1.989   0.975  0.2147 -0.2718 -0.0589
   91SOL    HW1  272   0.765   2.082   0.993 -0.4475  2.6308  2.6226
   91SOL    HW2  273   0.804   1.932   1.057 -1.5888 -1.0566 -3.2636
   92SOL     OW  274   2.073   2.983   1.957  0.3667  0.1052 -0.0172
   92SOL    HW1  275   2.159   3.030   1.981 -2.1674 -2.7589  0.3763
   92SOL    HW2  276   2.046   2.908   2.023  0.8915  2.7308  1.7187
   93SOL     OW  277   0.604   1.961   2.792 -0.0812  0.3593  0.0551
   93SOL    HW1  278   0.612   1.946   2.893  0.5204  0.5092 -1.0848
   93SOL    HW2  279   0.531   1.893   2.760  1.3765 -3.4162  1.3682
   94SOL     OW  280   2.437   3.023   2.007  0.7886  0.5921  0.1659
   94SOL    HW1  281   2.398   0.006   2.054  0.7718 -2.2871 -3.3256
   94SOL    HW2  282   2.474   3.053   1.918  2.0135 -2.2580  0.1793
   95SOL     OW  283   1.916   0.012   1.777  0.1770 -0.2427  0.7534
   95SOL    HW1  284   1.937   0.111   1.784  1.9813 -0.3059  1.9387
   95SOL    HW2  285   1.961   3.053   1.854  1.8898  0.2586 -0.5626
   96SOL     OW  286   0.665   0.794   2.150 -0.3082 -0.1905 -0.4104
   96SOL    HW1  287   0.596   0.821   2.220 -0.4499  2.1724  1.3508
   96SOL    HW2  288   0.707   0.878   2.112  1.7347 -0.0433 -1.7602
   97SOL     OW  289   1.986   2.924   1.494 -0.2884  0.3400  0.1387
   97SOL    HW1  290   1.894   2.964   1.510  2.5739 -0.3208  0.0098
   97SOL    HW2  291   1.980   2.830   1.455  2.0408 -0.9179 -0.6891
   98SOL     OW  292   1.664   2.232   1.637  1.0107 -0.0804  0.0840
   98SOL    HW1  293   1.713   2.285   1.706  1.0582 -3.0590 -0.3219
   98SOL    HW2  294   1.647   2.135   1.667 -1.5360 -0.4906 -0.3419
   99SOL     OW  295   0.320   0.666   1.093 -0.0077 -0.4272  0.1331
   99SOL    HW1  296   0.269   0.745   1.055 -0.9099 -0.4853 -2.5722
   99SOL    HW2  297   0.370   0.620   1.016 -0.2507  1.3287  0.9295
  100SOL     OW  298   3.015   2.003   1.980  0.3477 -0.3493 -0.0763
  100SOL    HW1  299   2.968   1.915   1.981  0.2715  0.8108  0.2568
  100SOL    HW2  300   3.075   2.018   2.056 -1.6049 -2.8082 -1.7236
  101SOL     OW  301   1.110   0.325   3.077  0.3752  0.3988 -0.5704
  101SOL    HW1  302   1.207   0.352   3.076 -1.2445  2.5452 -0.7699
  101SOL    HW2  303   1.066   0.324   2.985  1.2510  1.3219 -1.6606
  102SOL     OW  304   2.868   0.111   1.193  0.3321 -0.5762 -0.0913
  102SOL    HW1  305   2.951   0.176   1.190 -1.7278 -1.1594  0.7402
  102SOL    HW2  306   2.802   0.149   1.264 -0.1232  0.9163  1.6484
  103SOL     OW  307   0.098   3.017   2.584  0.5535 -0.3192 -0.1188
  103SOL    HW1  308   0.104   0.023   2.562 -1.2463  5.1555 -1.9942
  103SOL    HW2  309   0.000   2.979   2.576 -2.1020 -1.7606 -0.3122
  104SOL     OW  310   0.181   2.454   1.243 -0.1189 -0.3413  0.4213
  104SOL    HW1  311   0.104   2.497   1.298  0.9576  0.6561 -0.9071
  104SOL    HW2  312   0.264   2.508   1.249 -1.7547  0.5349  1.3139
  105SOL     OW  313   0.498   1.578   2.044 -0.4088  0.5634 -0.5442
  105SOL    HW1  314   0.442   1.495   2.033 -0.3882 -1.8542 -2.3688
  105SOL    HW2  315   0.437   1.656   2.054  0.0282  1.4450 -0.2468
  106SOL     OW  316   2.600   2.766   0.562 -0.4871 -0.1624  0.6341
  106SOL    HW1  317   2.632   2.737   0.652  0.4104  0.7522  0.6872
  106SOL    HW2  318   2.627   2.865   0.551 -0.2148  0.7990  2.0866
  107SOL     OW  319   0.672   1.172   0.986  0.3260  0.5675  0.2655
  107SOL    HW1  320   0.640   1.213   1.072 -0.9091 -1.6356 -2.2020
  107SOL    HW2  321   0.766   1.135   0.996 -1.7441  1.7124  0.0782
  108SOL     OW  322   2.958   1.122   2.163 -0.3082  0.2896 -0.2757
  108SOL    HW1  323   2.910   1.206   2.132  2.0689 -0.7937  0.4360
  108SOL    HW2  324   3.058   1.139   2.191  1.2263  1.0100 -0.1989
  109SOL     OW  325   2.040   2.678   0.053  0.5337  0.1181  0.4044
  109SOL    HW1  326   1.947   2.700   0.013 -1.9719  0.6233  0.8278
  109SOL    HW2  327   2.033   2.630   0.143 -2.0559 -2.3607  0.0023
  110SOL     OW  328   0.232   2.191   0.045 -0.5306  0.6939  0.2934
  110SOL    HW1  329   0.211   2.103   3.095 -0.1910 -1.5838 -0.6293
  110SOL    HW2  330   0.150   2.235   0.083  0.3737  1.5167  0.8711
  111SOL     OW  331   2.742   1.043   2.692 -0.9874  0.3678 -0.2171
  111SOL    HW1  332   2.705   1.099   2.613 -1.1273 -2.3959 -0.3505
  111SOL    HW2  333   2.657   1.016   2.746 -0.5054 -0.6425 -0.3960
  112SOL     OW  334   2.224   2.586   1.687  0.0260  0.3557 -0.1998
  112SOL    HW1  335   2.212   2.687   1.671  1.9745  1.0673  1.8726
  112SOL    HW2  336   2.149   2.528   1.652  0.7737  1.2797 -0.4004
  113SOL     OW  337   2.238   1.845   2.663  0.5502  0.3878  0.4210
  113SOL    HW1  338   2.265   1.746   2.686  2.4739 -3.2202 -0.7941
  113SOL    HW2  339   2.287   1.873   2.576  0.1220  4.9272 -1.9914
  114SOL     OW  340   0.597   3.045   0.576 -0.4287  0.6772  0.2604
  114SOL    HW1  341   0.597   2.960   0.629 -1.4244  2.4421  0.1016
  114SOL    HW2  342   0.684   0.000   0.596 -0.4520 -1.0128  0.9943
  115SOL     OW  343   0.060   1.724   2.868  0.3574 -0.1717  0.3667
  115SOL    HW1  344   0.021   1.809   2.908 -0.4202  0.8896 -1.4091
  115SOL    HW2  345   0.157   1.707   2.899 -1.3445 -0.7199  1.5520
  116SOL     OW  346   2.865   1.307   1.640  0.2738  0.3478  0.4251
  116SOL    HW1  347   2.921   1.232   1.599  2.2422 -3.1152 -1.3377
  116SOL    HW2  348   2.926   1.359   1.698 -1.0641 -1.5415 -0.0832
  117SOL     OW  349   2.083   0.237   1.511 -0.3745  0.1384  0.3142
  117SOL    HW1  350   2.126   0.164   1.449 -1.8351  0.6598 -0.7372
  117SOL    HW2  351   2.005   0.272   1.462  0.4123 -2.2339  2.0059
  118SOL     OW  352   2.845   2.205   2.436 -0.3809 -0.4021 -0.2020
  118SOL    HW1  353   2.792   2.142   2.383  3.3851  1.4438 -3.0818
  118SOL    HW2  354   2.899   2.256   2.367  0.1425 -0.3656 -1.9153
  119SOL     OW  355   0.349   1.665   1.713  0.6668 -0.8837 -0.3718
  119SOL    HW1  356   0.329   1.738   1.648 -0.0815 -2.0670 -1.3462
  119SOL    HW2  357   0.448   1.652   1.721 -0.8099 -0.3160 -0.8055
  120SOL     OW  358   0.210   1.420   1.744 -0.2503  0.1046 -0.0006
  120SOL    HW1  359   0.222   1.359   1.663 -1.5489  1.7056 -0.8344
  120SOL    HW2  360   0.260   1.512   1.724 -0.4298 -0.2681  1.1799
  121SOL     OW  361   1.532   0.930   0.811 -0.4191 -0.5203 -0.4518
  121SOL    HW1  362   1.447   0.883   0.793  0.8982  0.8077  2.6083
  121SOL    HW2  363   1.608   0.896   0.751 -0.3400  2.7680 -1.6064
  122SOL     OW  364   2.466   2.361   2.671  0.3653 -0.1511  0.3902
  122SOL    HW1  365   2.413   2.434   2.625  0.0437  1.7326 -0.3534
  122SOL    HW2  366   2.410   2.277   2.674  3.8466  1.3144 -0.4999
  123SOL     OW  367   3.001   0.415   0.440 -0.1595  0.0428 -0.1377
  123SOL    HW1  368   2.971   0.422   0.539  1.8308 -1.4598  2.5789
  123SOL    HW2  369   3.006   0.318   0.414  0.9691  1.4193  1.6779
  124SOL     OW  370   1.667   1.300   0.130 -0.0031 -0.2099  0.4774
  124SOL    HW1  371   1.735   1.296   0.208  1.3913  0.5976  1.3008
  124SOL    HW2  372   1.703   1.365   0.056  0.4873  3.4500 -1.3105
  125SOL     OW  373   3.040   0.792   2.340  0.4802  0.0976  0.4658
  125SOL    HW1  374   3.093   0.861   2.394 -3.1439  1.1552 -1.5484
  125SOL    HW2  375   3.095   0.770   2.255  0.9043 -0.4911 -0.4383
  126SOL     OW  376   2.755   2.892   0.186 -0.4937 -0.3189  0.4737
  126SOL    HW1  377   2.770   2.869   0.089 -1.0279 -0.2361  1.0569
  126SOL    HW2  378   2.755   2.805   0.241  0.2602  0.5137 -2.4229
  127SOL     OW  379   2.732   1.827   3.046 -0.8742  0.2563  0.0180
  127SOL    HW1  380   2.639   1.837   3.072  2.6251 -0.0965 -0.1840
  127SOL    HW2  381   2.758   1.729   3.046  0.4249 -0.4385 -0.1166
  128SOL     OW  382   0.886   1.076   0.679  0.0023 -0.0913  0.0372
  128SOL    HW1  383   0.785   1.093   0.667  0.1127  0.5894 -0.7885
  128SOL    HW2  384   0.905   1.089   0.780 -1.1212  2.0816  3.2573
  129SOL     OW  385   2.138   2.037   0.906  0.3663 -0.1602  0.0419
  129SOL    HW1  386   2.173   1.988   0.990 -0.2122  1.1470  0.9496
  129SOL    HW2  387   2.047   2.081   0.924  2.5977 -2.5894 -0.1096
  130SOL     OW  388   1.918   0.878   0.186  0.0715 -0.1618  0.9645
  130SOL    HW1  389   2.009   0.851   0.143  0.3704  0.9994  2.0767
  130SOL    HW2  390   1.847   0.844   0.119 -0.5077 -0.4730 -2.1648
  131SOL     OW  391   0.014   1.699   2.610  0.2413 -0.5994 -0.0523
  131SOL    HW1  392   3.014   1.677   2.602  1.9810 -0.6666  1.0668
  131SOL    HW2  393   0.032   1.716   2.707 -1.9466 -0.8205 -0.0710
  132SOL     OW  394   1.273   1.209   1.770 -0.0397  0.5359 -0.4332
  132SOL    HW1  395   1.236   1.114   1.757 -0.9395 -0.9922  0.5041
  132SOL    HW2  396   1.191   1.272   1.760  0.1751 -0.7259 -0.5565
  133SOL     OW  397   0.396   1.095   0.915  0.4274  0.1214 -0.2861
  133SOL    HW1  398   0.497   1.089   0.919 -2.4911 -3.7425 -0.4336
  133SOL    HW2  399   0.362   1.178   0.963 -0.1137 -1.4452  1.8805
  134SOL     OW  400   0.018   1.392   0.141  0.0077  0.0104  0.9680
  134SOL    HW1  401   0.040   1.299   0.109 -1.2522  0.3502  3.1944
  134SOL    HW2  402   3.074   1.441   0.061  0.4166 -2.2633 -1.0701
  135SOL     OW  403   1.724   0.820   0.023  0.3021 -0.1634 -0.0667
  135SOL    HW1  404   1.668   0.904   0.006  0.7253  1.0872 -1.9710
  135SOL    HW2  405   1.694   0.744   3.057  1.3843  1.3869  0.3276
  136SOL     OW  406   2.156   2.129   1.464 -0.2739 -0.3576 -0.6072
  136SOL    HW1  407   2.145   2.091   1.559  1.7363 -1.7002  1.3396
  136SOL    HW2  408   2.077   2.176   1.415 -0.7079  2.1940 -0.2142
  137SOL     OW  409   2.272   2.460   0.661 -0.2014 -0.7063  0.2708
  137SOL    HW1  410   2.239   2.542   0.715 -0.0240  0.8651 -0.8246
  137SOL    HW2  411   2.313   2.497   0.572 -1.1675  0.7488 -2.3003
  138SOL     OW  412   2.389   0.254   1.793  0.0033 -0.0681  0.5025
  138SOL    HW1  413   2.447   0.175   1.777 -0.1654  3.4873  1.3379
  138SOL    HW2  414   2.354   0.291   1.707  5.0791 -1.2471  3.3642
  139SOL     OW  415   2.818   2.684   2.665  0.0762 -0.5795  0.8672
  139SOL    HW1  416   2.759   2.633   2.732  0.8481 -1.3764  0.6470
  139SOL    HW2  417   2.787   2.669   2.566 -1.5185 -2.3311  0.1007
  140SOL     OW  418   1.533   1.863   2.639  0.2744  0.4195 -0.0282
  140SOL    HW1  419   1.517   1.959   2.615 -1.5088 -1.2253  1.8856
  140SOL    HW2  420   1.604   1.814   2.583 -0.2631  1.5654 -0.4161
  141SOL     OW  421   1.476   1.447   2.550 -0.6732  0.3801 -0.7707
  141SOL    HW1  422   1.479   1.352   2.513  0.3128 -1.8003  1.1311
  141SOL    HW2  423   1.498   1.448   2.650  0.2444  0.2192 -1.3313
  142SOL     OW  424   2.045   2.373   2.051  0.2731  0.3585  0.6351
  142SOL    HW1  425   2.057   2.279   2.021  0.3648  0.8775 -2.9534
  142SOL    HW2  426   2.119   2.428   2.008 -3.0550  3.5945  2.4878
  143SOL     OW  427   1.028   2.520   0.494 -0.0072 -0.1056 -0.4962
  143SOL    HW1  428   1.079   2.513   0.580 -1.3080  0.7262  1.8331
  143SOL    HW2  429   0.956   2.446   0.495 -0.1492  1.6870  0.4834
  144SOL     OW  430   0.836   2.693   0.559 -0.4079 -0.1342  0.4222
  144SOL    HW1  431   0.812   2.777   0.509  3.2106 -1.3011 -1.8045
  144SOL    HW2  432   0.910   2.646   0.511 -2.8653  0.5836  1.2913
  145SOL     OW  433   1.846   2.270   3.070  0.1636  0.4058 -0.0753
  145SOL    HW1  434   1.752   2.224   3.071  0.0319 -1.3037  2.5752
  145SOL    HW2  435   1.835   2.364   3.028  0.2306  2.5479 -0.7244
  146SOL     OW  436   1.787   2.415   0.279 -0.0154 -0.2052  0.0188
  146SOL    HW1  437   1.791   2.498   0.216  0.3564  1.6068  1.7682
  146SOL    HW2  438   1.855   2.347   0.260 -0.5370  2.3065  0.5037
  147SOL     OW  439   0.313   1.785   1.976 -0.3680 -0.3252 -0.5420
  147SOL    HW1  440   0.299   1.742   1.888  1.2491  1.3181  0.0102
  147SOL    HW2  441   0.392   1.847   1.977  1.0662  0.4099 -3.8942
  148SOL     OW  442   1.138   0.039   0.261  0.3375 -0.3047 -0.3503
  148SOL    HW1  443   1.192   0.107   0.209  0.0104 -0.8513 -0.3198
  148SOL    HW2  444   1.046   0.036   0.222 -1.8673 -0.9155  0.8254
  149SOL     OW  445   0.459   2.111   0.178 -0.3797  0.4873 -0.0994
  149SOL    HW1  446   0.540   2.158   0.144 -0.3572 -0.1657  2.9082
  149SOL    HW2  447   0.379   2.158   0.136  1.0249  2.3831 -0.0002
  150SOL     OW  448   0.394   2.616   1.228 -0.5938 -0.1705 -0.2567
  150SOL    HW1  449   0.494   2.581   1.237  1.1423 -0.7030 -0.4874
  150SOL    HW2  450   0.372   2.664   1.140  0.7872  0.1832 -0.3092
  151SOL     OW  451   0.323   1.629   2.929 -0.2574  0.2387  0.1411
  151SOL    HW1  452   0.368   1.562   2.869  1.1502  1.8770 -0.2349
  151SOL    HW2  453   0.359   1.620   3.023 -0.3773 -1.0338  1.1111
  152SOL     OW  454   3.006   1.962   0.924 -0.1432 -0.0587 -0.8384
  152SOL    HW1  455   3.044   1.877   0.887  1.0557  0.7608  4.3570
  152SOL    HW2  456   2.902   1.962   0.941 -2.0226  0.6935  0.5468
  153SOL     OW  457   1.601   2.360   0.659 -0.1972 -0.1615  0.1180
  153SOL    HW1  458   1.702   2.337   0.645  1.8257  1.0798  0.3991
  153SOL    HW2  459   1.550   2.282   0.699 -1.8044  1.8672  2.6871
  154SOL     OW  460   0.822   3.054   1.494  0.1895 -0.5909 -0.3014
  154SOL    HW1  461   0.843   2.954   1.490 -1.1110  1.1282 -0.3873
  154SOL    HW2  462   0.726   3.068   1.513  1.1680  1.0669 -2.4245
  155SOL     OW  463   2.623   2.078   0.483  0.4386 -0.3347 -0.2715
  155SOL    HW1  464   2.701   2.132   0.521 -2.3818 -0.3986  1.8976
  155SOL    HW2  465   2.573   2.124   0.406  2.4539 -0.5829 -0.9163
  156SOL     OW  466   2.530   2.014   0.104  0.4391 -0.7008 -0.2078
  156SOL    HW1  467   2.497   2.045   0.011  0.9308 -1.3731 -2.6397
  156SOL    HW2  468   2.534   2.088   0.172  0.1733  0.3992  1.9427
  157SOL     OW  469   0.455   0.158   1.925 -0.0542 -0.5307  0.3367
  157SOL    HW1  470   0.508   0.240   1.960 -1.5504  2.2842 -2.9852
  157SOL    HW2  471   0.429   0.097   2.000  0.9266  1.8265  3.2160
  158SOL     OW  472   1.012   0.594   1.126 -0.4415 -0.0146  0.0421
  158SOL    HW1  473   1.075   0.536   1.077  0.6762  0.4576 -0.2319
  158SOL    HW2  474   1.023   0.575   1.229  1.4815 -0.6527  0.6522
  159SOL     OW  475   1.832   1.072   2.938 -0.3047  0.0050 -0.2063
  159SOL    HW1  476   1.857   0.984   2.886  2.3997 -0.5987  0.6961
  159SOL    HW2  477   1.735   1.062   2.972  0.1444 -2.1591  2.1351
  160SOL     OW  478   1.311   1.761   0.461  0.0131 -0.7952 -0.4429
  160SOL    HW1  479   1.372   1.687   0.434 -0.1991  0.4161  0.0682
  160SOL    HW2  480   1.221   1.739   0.421  0.1256  0.3826 -0.3135
  161SOL     OW  481   2.705   1.805   2.745 -0.3495 -0.2186  0.3618
  161SOL    HW1  482   2.746   1.881   2.689 -2.4503  1.6687 -1.9554
  161SOL    HW2  483   2.711   1.835   2.843 -1.3225 -2.8793 -0.3820
  162SOL     OW  484   3.066   2.278   1.150 -0.2983  0.4704  0.3535
  162SOL    HW1  485   0.038   2.327   1.211  0.9914  0.6042  0.2258
  162SOL    HW2  486   0.006   2.183   1.138  0.2699 -0.6452 -1.4249
  163SOL     OW  487   0.617   0.798   2.577  0.0646 -0.0334  0.1957
  163SOL    HW1  488   0.694   0.843   2.536 -0.9622 -2.2567 -0.9181
  163SOL    HW2  489   0.648   0.717   2.631 -2.8964  0.3953 -1.3738
  164SOL     OW  490   0.375   2.626   2.755  0.0682  0.1110  0.6708
  164SOL    HW1  491   0.302   2.596   2.822 -1.0543 -2.0633  0.0899
  164SOL    HW2  492   0.379   2.725   2.741 -2.6251  0.9961 -2.5484
  165SOL     OW  493   2.373   1.010   1.499 -0.6360 -0.1687  0.3784
  165SOL    HW1  494   2.411   0.969   1.582  1.7949 -0.6614  0.5964
  165SOL    HW2  495   2.407   1.107   1.487 -0.1627  0.1626  1.2665
  166SOL     OW  496   2.062   1.849   1.399  0.6517  0.0674  0.7644
  166SOL    HW1  497   2.106   1.928   1.437 -0.8098 -2.6470  0.6492
  166SOL    HW2  498   2.103   1.767   1.449  0.3393 -0.8989 -0.4641
  167SOL     OW  499   0.044   0.739   0.004 -0.1989  0.1765  0.1611
  167SOL    HW1  500   3.092   0.811   0.051  4.0734 -2.5876  0.7095
  167SOL    HW2  501   0.138   0.770   3.075 -0.9831  0.0388  0.2449
  168SOL     OW  502   2.227   0.401   2.647 -0.5946 -0.2746 -0.1196
  168SOL    HW1  503   2.132   0.428   2.608 -1.5638  1.9918 -2.1729
  168SOL    HW2  504   2.223   0.320   2.713 -1.2740 -1.9628  1.7673
  169SOL     OW  505   0.577   1.242   0.005  0.0140  0.0318 -0.1795
  169SOL    HW1  506   0.559   1.282   0.095 -1.2082 -0.3768 -1.7632
  169SOL    HW2  507   0.521   1.284   3.030  0.0268  1.4106  2.5503
  170SOL     OW  508   1.194   0.958   1.472 -0.5776  0.3449  0.2584
  170SOL    HW1  509   1.217   0.871   1.420  1.1410 -2.9187 -0.7417
  170SOL    HW2  510   1.272   1.023   1.459 -0.1952 -1.1398  0.4766
  171SOL     OW  511   1.664   2.648   1.021  0.4933  0.3117  0.0040
  171SOL    HW1  512   1.635   2.590   1.098  2.6240 -1.4283 -2.7920
  171SOL    HW2  513   1.603   2.627   0.940 -0.2285  1.1457  1.1889
  172SOL     OW  514   0.974   3.076   2.071  0.1228  0.4774 -0.0257
  172SOL    HW1  515   0.883   3.071   2.021 -2.0464  3.3750  0.9540
  172SOL    HW2  516   1.044   3.005   2.039 -1.0231 -0.3052 -0.2500
  173SOL     OW  517   0.817   2.494   1.000 -0.3351  0.1620 -0.8053
  173SOL    HW1  518   0.860   2.571   0.953  2.2873 -0.2551 -0.5781
  173SOL    HW2  519   0.728   2.472   0.956  1.9781  1.5684  0.9922
  174SOL     OW  520   2.106   0.149   0.279 -0.1487  0.3210 -0.5226
  174SOL    HW1  521   2.014   0.184   0.305  1.3743  0.6226 -0.5336
  174SOL    HW2  522   2.108   0.045   0.274  2.7298 -2.0367 -0.8900
  175SOL     OW  523   1.001   1.367   0.711 -0.0654  0.5984 -0.1680
  175SOL    HW1  524   1.010   1.458   0.668 -4.6184  2.3541  0.5122
  175SOL    HW2  525   0.899   1.350   0.725  1.7648 -0.3313  0.6112
  176SOL     OW  526   1.052   1.786   0.925 -0.1322  0.1182  0.0489
  176SOL    HW1  527   1.146   1.815   0.936 -0.4355  2.8961 -0.4647
  176SOL    HW2  528   0.986   1.868   0.918  0.2925 -0.1749 -1.8412
  177SOL     OW  529   1.290   0.879   1.072 -0.2183  0.0865 -0.0279
  177SOL    HW1  530   1.304   0.777   1.059 -0.6744 -0.7794  1.1426
  177SOL    HW2  531   1.381   0.923   1.098  2.0889  1.6595 -2.2935
  178SOL     OW  532   2.378   1.510   0.606  0.3647 -0.1151 -0.0982
  178SOL    HW1  533   2.324   1.593   0.612  0.1594  0.4965 -0.1468
  178SOL    HW2  534   2.339   1.439   0.546  3.9564  1.9641 -0.3819
  179SOL     OW  535   0.912   2.767   3.059  0.4378 -0.1451 -0.5361
  179SOL    HW1  536   0.848   2.725   0.029 -1.3730 -2.9013 -0.2561
  179SOL    HW2  537   0.999   2.720   3.051 -0.4608  0.8745  0.6642
  180SOL     OW  538   1.784   1.184   1.587 -0.0043  0.1394  0.4337
  180SOL    HW1  539   1.721   1.259   1.562  1.9754  3.0452  1.6957
  180SOL    HW2  540   1.862   1.224   1.636 -1.1446  0.7123  0.4853
  181SOL     OW  541   0.798   0.981   1.606  0.2093 -0.2546 -0.3643
  181SOL    HW1  542   0.833   0.888   1.580 -0.4949 -0.4962  2.8459
  181SOL    HW2  543   0.836   1.014   1.695  0.0227 -1.3242 -1.0597
  182SOL     OW  544   2.864   1.028   3.060  0.5814  0.0126 -0.0442
  182SOL    HW1  545   2.911   1.043   2.975 -1.0003  4.2120  0.2641
  182SOL    HW2  546   2.802   1.105   3.073  0.9963  0.7041 -0.3901
  183SOL     OW  547   1.889   0.027   2.153  0.6309 -0.2293 -0.4580
  183SOL    HW1  548   1.920   3.028   2.142 -1.7394  2.6067  1.4224
  183SOL    HW2  549   1.793   0.040   2.123  1.4481  1.3745 -0.5342
  184SOL     OW  550   0.990   0.823   0.974  0.6612  0.1630 -0.2699
  184SOL    HW1  551   0.948   0.773   0.899  1.5279 -2.7663  0.3332
  184SOL    HW2  552   0.987   0.751   1.048 -0.0414  2.6188 -4.1416
  185SOL     OW  553   2.070   1.097   0.488  0.1470  0.0169 -0.1893
  185SOL    HW1  554   2.116   1.075   0.575 -1.6007  1.5577 -0.6889
  185SOL    HW2  555   2.024   1.185   0.506  4.6844 -0.5957  1.0902
  186SOL     OW  556   0.311   2.184   0.436  0.3809  0.0110  0.0876
  186SOL    HW1  557   0.319   2.148   0.529  1.3453  0.6867  1.4133
  186SOL    HW2  558   0.361   2.134   0.362  0.9991 -0.3854 -1.7706
  187SOL     OW  559   1.773   1.673   2.721 -0.6779 -0.0244  0.2034
  187SOL    HW1  560   1.716   1.686   2.638 -1.5325  0.7494 -1.8602
  187SOL    HW2  561   1.833   1.754   2.729 -0.6485  1.6973  0.4459
  188SOL     OW  562   1.364   2.916   1.463  0.0865  0.0776 -0.0684
  188SOL    HW1  563   1.336   3.013   1.443  0.3743  0.7842 -1.2560
  188SOL    HW2  564   1.287   2.857   1.475  1.2770  0.3934 -2.9177
  189SOL     OW  565   2.892   1.382   2.563 -0.6426  0.4719 -0.5014
  189SOL    HW1  566   2.848   1.474   2.558 -0.8236  0.2466  0.3871
  189SOL    HW2  567   2.913   1.369   2.670  0.0087  2.0078  1.9040
  190SOL     OW  568   1.044   2.700   2.139  0.3572  0.2065  0.8722
  190SOL    HW1  569   1.013   2.601   2.152  3.3379  1.6114 -0.8930
  190SOL    HW2  570   1.142   2.693   2.128 -0.9780 -1.5545  1.0939
  191SOL     OW  571   2.395   0.886   1.238  0.0725  0.2437 -0.8859
  191SOL    HW1  572   2.303   0.874   1.205  2.9611  1.6757 -0.7254
  191SOL    HW2  573   2.400   0.915   1.334 -0.2933  2.8439  2.3217
  192SOL     OW  574   2.011   0.465   1.032 -0.2365 -0.1163 -0.9099
  192SOL    HW1  575   2.090   0.405   1.057 -0.7062 -0.3175 -0.9611
  192SOL    HW2  576   1.994   0.464   0.934  2.0977 -0.1339  3.2163
  193SOL     OW  577   0.826   0.094   0.353 -0.0490  0.1830 -0.1644
  193SOL    HW1  578   0.840   0.147   0.265  0.3145 -4.3049 -3.0939
  193SOL    HW2  579   0.864   0.148   0.427  1.8125  1.8588 -0.2526
  194SOL     OW  580   1.686   2.350   0.976 -0.1954 -0.0635  0.0461
  194SOL    HW1  581   1.635   2.413   0.915  1.7132  0.3005 -1.2355
  194SOL    HW2  582   1.613   2.318   1.041 -1.0057 -0.5202 -2.7920
  195SOL     OW  583   2.399   0.881   0.762 -0.1052 -0.3570  0.0585
  195SOL    HW1  584   2.469   0.916   0.695  0.2134  0.2085 -2.0112
  195SOL    HW2  585   2.323   0.950   0.772  0.7473 -0.7697 -1.8142
  196SOL     OW  586   1.003   2.368   1.774 -0.6109 -0.3571  0.1365
  196SOL    HW1  587   1.034   2.338   1.682  0.6877  1.7127 -1.5117
  196SOL    HW2  588   0.904   2.376   1.780  3.9657  0.7173  0.5500
  197SOL     OW  589   2.687   0.252   2.401 -0.0126  0.1031 -0.0444
  197SOL    HW1  590   2.629   0.338   2.409 -0.3618  1.5978 -0.9420
  197SOL    HW2  591   2.617   0.179   2.382  0.1129  0.0015  2.7393
  198SOL     OW  592   2.130   1.546   0.248 -0.5803 -0.0616 -0.1430
  198SOL    HW1  593   2.213   1.558   0.189  0.5469 -0.9801 -0.7584
  198SOL    HW2  594   2.063   1.501   0.196  1.3800  2.1739  2.0249
  199SOL     OW  595   2.397   0.588   1.787 -0.4958  0.3708 -0.2288
  199SOL    HW1  596   2.353   0.568   1.877  1.7087 -0.7825 -0.6006
  199SOL    HW2  597   2.352   0.541   1.709  0.4242  0.6069 -0.8183
  200SOL     OW  598   1.838   2.853   3.012 -1.1770 -0.3578  0.2225
  200SOL    HW1  599   1.775   2.922   3.046  1.9852 -2.0037  0.6844
  200SOL    HW2  600   1.937   2.881   3.019  1.6480  0.5733 -0.8167
  201SOL     OW  601   2.718   0.195   1.422  0.2799 -0.2801 -0.6647
  201SOL    HW1  602   2.632   0.171   1.473 -0.0978  0.0131  1.8708
  201SOL    HW2  603   2.704   0.279   1.372 -2.0537 -2.1922  1.7360
  202SOL     OW  604   2.709   2.990   0.542  0.0295  0.1954  0.5737
  202SOL    HW1  605   2.680   3.058   0.615 -0.5073  0.6775  0.6836
  202SOL    HW2  606   2.811   2.987   0.532  0.0559 -2.7106  0.6582
  203SOL     OW  607   1.500   1.566   0.436  0.4867  0.2842  0.2833
  203SOL    HW1  608   1.527   1.505   0.517  0.0389 -0.0870 -1.2396
  203SOL    HW2  609   1.571   1.634   0.419  1.8757 -1.6678  0.1443
  204SOL     OW  610   0.143   1.778   2.198  0.4617 -0.4382 -0.1158
  204SOL    HW1  611   0.145   1.882   2.195 -2.4006  2.0787 -3.3761
  204SOL    HW2  612   0.209   1.747   2.129 -0.6641  2.3585  0.8046
  205SOL     OW  613   0.456   0.680   0.833 -0.6322  0.6485  0.0633
  205SOL    HW1  614   0.521   0.603   0.834 -3.4688  1.0197  0.9216
  205SOL    HW2  615   0.367   0.657   0.792  1.5634  0.1081 -2.4663
  206SOL     OW  616   0.403   1.017   2.616  0.3026 -0.7937 -0.2581
  206SOL    HW1  617   0.430   1.108   2.575  0.7076  0.6679  0.2180
  206SOL    HW2  618   0.482   0.951   2.627  0.0653  2.4759 -1.0315
  207SOL     OW  619   1.340   2.292   1.669 -0.9456 -0.8379  0.1413
  207SOL    HW1  620   1.420   2.289   1.730  2.4402  1.0033  1.2984
  207SOL    HW2  621   1.266   2.252   1.716  0.3236 -0.4622 -1.5666
  208SOL     OW  622   2.237   0.313   1.036 -0.6901 -0.4786 -0.2079
  208SOL    HW1  623   2.315   0.277   1.090  1.2173  3.0167  1.4114
  208SOL    HW2  624   2.217   0.252   0.960  1.0410  1.1432  2.7925
  209SOL     OW  625   1.897   0.992   0.830 -0.5178  0.2522 -0.1763
  209SOL    HW1  626   1.927   0.914   0.894 -3.7033 -1.0404  1.0290
  209SOL    HW2  627   1.818   0.963   0.773 -0.9997  0.9461 -1.9955
  210SOL     OW  628   2.176   1.050   0.769  0.1215  0.0697  0.4117
  210SOL    HW1  629   2.085   1.034   0.819 -2.6768 -1.5299 -1.7809
  210SOL    HW2  630   2.224   1.134   0.795  1.7226  0.7018 -2.3995
  211SOL     OW  631   0.840   2.837   2.774 -0.6388 -0.0076 -0.4845
  211SOL    HW1  632   0.760   2.776   2.762 -0.1100  2.3979 -1.8544
  211SOL    HW2  633   0.884   2.824   2.864  1.2491  0.4265 -0.4103
  212SOL     OW  634   1.874   1.772   0.563 -0.5280  0.3682  0.1261
  212SOL    HW1  635   1.899   1.821   0.644  1.2064 -2.9412 -2.3447
  212SOL    HW2  636   1.958   1.760   0.506 -1.6628 -1.9308  0.5710
  213SOL     OW  637   2.286   2.769   0.191  0.4531 -0.6529  0.3740
  213SOL    HW1  638   2.217   2.693   0.195 -2.3667  2.8613 -0.9514
  213SOL    HW2  639   2.347   2.772   0.113  1.4331 -0.7315  0.2908
  214SOL     OW  640   1.307   2.426   2.282  0.2106 -0.4264 -0.2948
  214SOL    HW1  641   1.400   2.461   2.257 -0.8248 -0.3543 -0.4386
  214SOL    HW2  642   1.287   2.339   2.225 -3.1213 -2.0707 -0.2754
  215SOL     OW  643   0.347   1.365   1.020 -0.4364  0.4223  0.5387
  215SOL    HW1  644   0.254   1.379   1.060 -1.9599 -0.4477 -0.8364
  215SOL    HW2  645   0.371   1.434   0.950  0.2862 -1.2873  1.4147
  216SOL     OW  646   0.127   0.163   2.433  0.0374  0.0689 -0.5664
  216SOL    HW1  647   0.228   0.148   2.421 -0.8508  1.2848 -0.3050
  216SOL    HW2  648   0.073   0.145   2.350  2.2479  0.5264  0.0976
  217SOL     OW  649   2.940   1.517   1.451  0.3643 -0.5137 -0.1915
  217SOL    HW1  650   3.039   1.500   1.438  1.4924 -1.2239 -1.7419
  217SOL    HW2  651   2.892   1.433   1.490 -3.3047 -2.3339 -1.2850
  218SOL     OW  652   0.693   2.389   1.719 -0.0331 -0.3330  0.6209
  218SOL    HW1  653   0.596   2.392   1.689 -0.2633 -1.5876 -1.4630
  218SOL    HW2  654   0.709   2.323   1.789 -2.7424  2.0610  2.2701
  219SOL     OW  655   2.145   1.881   2.926 -0.3725 -0.1640 -0.3133
  219SOL    HW1  656   2.173   1.872   2.828  1.6486 -0.0963  0.0262
  219SOL    HW2  657   2.166   1.794   2.977 -0.5549  3.4811 -0.2462
  220SOL     OW  658   1.804   0.193   0.068  0.2241  0.4235 -0.4676
  220SOL    HW1  659   1.887   0.170   0.014 -0.5216 -0.4795 -0.2322
  220SOL    HW2  660   1.767   0.283   0.043  1.7486 -0.4849  1.3087
  221SOL     OW  661   2.842   1.091   0.253  0.3433 -0.2780  0.2365
  221SOL    HW1  662   2.815   0.998   0.222  0.6163  1.8228  1.0203
  221SOL    HW2  663   2.805   1.163   0.191  1.2800  1.1014 -1.9872
  222SOL     OW  664   1.599   1.400   0.635 -0.0067  0.2925 -0.3380
  222SOL    HW1  665   1.574   1.326   0.700 -3.4102 -0.0459 -0.5360
  222SOL    HW2  666   1.658   1.464   0.684 -1.4349 -1.4121 -1.4943
  223SOL     OW  667   0.808   0.299   2.948  0.2048  0.7311 -0.2838
  223SOL    HW1  668   0.869   0.253   2.885 -4.0730  1.2643  0.7791
  223SOL    HW2  669   0.814   0.398   2.949 -0.7195 -2.0358 -0.0230
  224SOL     OW  670   0.989   2.862   1.115 -0.1161 -0.4267  0.1472
  224SOL    HW1  671   0.994   2.962   1.147 -0.8273 -0.0052  0.7488
  224SOL    HW2  672   0.890   2.837   1.135 -0.0141  2.0212  1.1536
  225SOL     OW  673   0.921   0.145   2.280  0.2554  0.0307 -0.1097
  225SOL    HW1  674   0.951   0.076   2.208 -1.2098  0.3216 -0.0456
  225SOL    HW2  675   0.882   0.099   2.362  0.8287  1.4023  3.8803
  226SOL     OW  676   1.254   1.541   0.781 -0.2157 -0.3648 -0.2092
  226SOL    HW1  677   1.341   1.589   0.764 -0.2276 -0.5892  0.8881
  226SOL    HW2  678   1.248   1.471   0.712  1.3472  1.7882 -1.8647
  227SOL     OW  679   0.118   2.286   1.487  0.1968  0.1012  0.4289
  227SOL    HW1  680   0.151   2.344   1.412  0.1578  1.7387  3.1200
  227SOL    HW2  681   0.180   2.207   1.499  0.2575 -1.3667  2.4964
  228SOL     OW  682   0.081   1.873   0.355  0.3629 -0.9848  0.0557
  228SOL    HW1  683   0.062   1.967   0.324 -0.9646 -0.2041  0.8796
  228SOL    HW2  684   0.170   1.877   0.409 -0.6650 -0.2879 -0.8768
  229SOL     OW  685   2.412   0.188   2.982 -0.4762  0.1170  0.0147
  229SOL    HW1  686   2.483   0.239   2.936 -2.7803 -1.5994  0.0377
  229SOL    HW2  687   2.456   0.116   3.047  1.8778 -1.8154  2.7268
  230SOL     OW  688   2.646   0.776   0.374  0.2647 -0.4308  0.0542
  230SOL    HW1  689   2.696   0.775   0.282  2.1866 -3.6504 -0.1474
  230SOL    HW2  690   2.567   0.843   0.365 -1.6267  1.7958 -1.5474
  231SOL     OW  691   1.658   1.775   0.422 -0.1545  0.3993 -0.5477
  231SOL    HW1  692   1.744   1.774   0.481  0.3123 -1.1638 -1.5634
  231SOL    HW2  693   1.630   1.872   0.403  1.5513  3.4387 -0.0135
  232SOL     OW  694   1.797   2.008   1.051 -0.9273  0.3972  0.1174
  232SOL    HW1  695   1.854   2.075   1.004 -1.6812 -2.8855 -0.0011
  232SOL    HW2  696   1.848   1.927   1.083 -2.3371  0.6018  0.0234
  233SOL     OW  697   0.546   2.918   1.889  0.5119  0.1169  0.3761
  233SOL    HW1  698   0.613   2.993   1.878 -3.7115 -1.9036 -0.6559
  233SOL    HW2  699   0.540   2.872   1.796  0.0134  0.4774 -1.4916
  234SOL     OW  700   0.697   0.399   2.441 -0.3250  0.7456  0.0518
  234SOL    HW1  701   0.722   0.393   2.338  0.1597 -0.4558 -3.5851
  234SOL    HW2  702   0.778   0.436   2.493 -0.0865 -1.0507 -3.3447
  235SOL     OW  703   2.622   1.022   1.959 -0.0625  0.4990 -0.0856
  235SOL    HW1  704   2.722   1.005   1.976 -0.6353 -1.1463 -2.3098
  235SOL    HW2  705   2.585   0.967   1.886  0.3312  1.1119  0.7608
  236SOL     OW  706   1.648   2.776   1.395  0.0933  0.2146 -0.4274
  236SOL    HW1  707   1.726   2.803   1.345 -3.7316  0.5334  1.3873
  236SOL    HW2  708   1.579   2.851   1.389 -1.3669  0.6140 -0.0743
  237SOL     OW  709   0.417   1.596   2.527 -0.0607 -0.6034 -0.0280
  237SOL    HW1  710   0.493   1.626   2.464  1.5937 -0.4781  0.2051
  237SOL    HW2  711   0.334   1.577   2.477  2.1026  0.0057  1.9134
  238SOL     OW  712   1.110   0.966   2.140 -0.3597  0.0510 -0.0625
  238SOL    HW1  713   1.175   1.043   2.117  1.2382 -0.9233  0.6566
  238SOL    HW2  714   1.088   0.912   2.057  0.1256 -0.7151  1.2198
  239SOL     OW  715   0.879   1.698   2.458 -0.0711 -0.1940 -0.1148
  239SOL    HW1  716   0.891   1.723   2.555 -0.6901 -1.1859  0.9145
  239SOL    HW2  717   0.905   1.769   2.393  0.2708 -3.3605  1.6808
  240SOL     OW  718   2.402   2.564   0.422  0.2358 -0.1653  0.2943
  240SOL    HW1  719   2.304   2.574   0.408  1.6595 -0.3354  1.7260
  240SOL    HW2  720   2.441   2.655   0.453 -1.4357 -0.2328 -0.9940
  241SOL     OW  721   0.361   1.054   0.164  0.4648  0.4914 -0.9164
  241SOL    HW1  722   0.369   1.011   0.259 -1.7671  1.0944  0.4247
  241SOL    HW2  723   0.453   1.090   0.133  1.2826 -0.0335 -2.1814
  242SOL     OW  724   1.530   2.902   1.665  0.1837  0.1939  0.3143
  242SOL    HW1  725   1.455   2.915   1.597 -0.3800 -1.5285  2.8205
  242SOL    HW2  726   1.579   2.812   1.649  1.1483 -2.6111  0.1014
  243SOL     OW  727   1.173   2.591   1.742  0.0862 -0.0854  0.3406
  243SOL    HW1  728   1.124   2.683   1.746 -0.2294  2.7807  0.0513
  243SOL    HW2  729   1.105   2.519   1.764  1.3697 -1.9409  2.2631
  244SOL     OW  730   2.333   0.610   2.517  0.6133  0.0873  0.0822
  244SOL    HW1  731   2.287   0.700   2.540  0.1868  0.5998  0.7987
  244SOL    HW2  732   2.287   0.527   2.562  0.6855  0.4158 -0.5221
  245SOL     OW  733   1.474   2.279   1.150  0.1861  0.8560 -0.3824
  245SOL    HW1  734   1.511   2.294   1.244 -0.2214  1.7504 -1.2449
  245SOL    HW2  735   1.451   2.181   1.135 -1.1002 -0.6676  0.9862
  246SOL     OW  736   1.370   0.168   0.094 -0.4639 -0.4297 -0.0985
  246SOL    HW1  737   1.404   0.236   0.156 -2.5042 -3.3234  1.3014
  246SOL    HW2  738   1.396   0.187   3.095 -0.5864  2.0733 -0.0910
  247SOL     OW  739   1.722   0.320   1.935  0.4269  0.0643 -0.4060
  247SOL    HW1  740   1.804   0.329   1.875  1.4643  0.7962  0.8488
  247SOL    HW2  741   1.696   0.225   1.959  1.0931  3.3451 -0.4612
  248SOL     OW  742   3.095   2.462   1.681  0.7579  0.2464  0.4971
  248SOL    HW1  743   0.031   2.552   1.645  1.4930  1.5989 -0.2252
  248SOL    HW2  744   0.024   2.388   1.615  0.7896  0.4453 -0.0211
  249SOL     OW  745   0.570   0.274   0.369  0.0501  0.1884 -0.6400
  249SOL    HW1  746   0.468   0.271   0.374  1.0997 -0.0321 -2.6482
  249SOL    HW2  747   0.616   0.182   0.361  3.0038 -1.2111  0.1811
  250SOL     OW  748   2.377   0.140   2.177  0.0110 -0.3212 -0.4137
  250SOL    HW1  749   2.314   0.178   2.245  1.3818  1.8547 -4.7619
  250SOL    HW2  750   2.405   0.218   2.119 -1.3901 -1.0278  0.4797
  251SOL     OW  751   1.336   0.716   0.039  0.1980 -0.2420  0.0562
  251SOL    HW1  752   1.325   0.663   0.126 -1.0373  1.4734  0.7817
  251SOL    HW2  753   1.263   0.692   3.063 -1.4399 -0.7266 -1.2627
  252SOL     OW  754   1.578   2.477   2.226 -0.1541  0.1231  0.7112
  252SOL    HW1  755   1.662   2.521   2.264 -2.9406 -0.3089 -2.4989
  252SOL    HW2  756   1.594   2.440   2.133  1.0140  1.3093  0.3904
  253SOL     OW  757   2.783   2.648   0.369 -0.1568  0.5362 -0.3988
  253SOL    HW1  758   2.720   2.676   0.448 -0.2374  1.0372  3.8460
  253SOL    HW2  759   2.872   2.620   0.412 -0.8074  1.8123  3.3430
  254SOL     OW  760   2.099   1.004   1.411  0.2604 -0.5690 -0.0835
  254SOL    HW1  761   2.063   1.087   1.360  1.5667 -0.8344 -0.7288
  254SOL    HW2  762   2.196   1.016   1.439 -0.5384 -1.1194 -0.9634
  255SOL     OW  763   0.877   2.793   1.423 -0.0872 -0.5154 -0.1674
  255SOL    HW1  764   0.832   2.789   1.331  3.2388  0.9684 -1.1960
  255SOL    HW2  765   0.821   2.735   1.489  0.1449 -2.9756  1.4403
  256SOL     OW  766   2.421   1.615   1.683  0.2475  0.5268  0.4513
  256SOL    HW1  767   2.399   1.578   1.591 -1.6147 -0.2316  1.1720
  256SOL    HW2  768   2.474   1.701   1.678 -0.1752  0.9662 -0.2632
  257SOL     OW  769   0.440   2.414   2.614 -0.0365  0.2864 -0.5005
  257SOL    HW1  770   0.489   2.348   2.676 -1.9881 -0.2171  1.8980
  257SOL    HW2  771   0.400   2.495   2.667  0.5363 -1.0782 -0.1237
  258SOL     OW  772   0.560   2.485   0.884  0.0850  0.0741 -0.1077
  258SOL    HW1  773   0.487   2.556   0.900 -1.7833  3.1084  1.0357
  258SOL    HW2  774   0.523   2.394   0.857  1.2845  1.2836 -0.1314
  259SOL     OW  775   1.448   0.430   2.682 -0.0825  0.1209 -0.0854
  259SOL    HW1  776   1.545   0.407   2.697  1.9139  0.5122  0.8656
  259SOL    HW2  777   1.435   0.523   2.644  1.3221  0.1081  1.0863
  260SOL     OW  778   0.397   0.384   1.207  0.1960  0.2032  0.0581
  260SOL    HW1  779   0.490   0.386   1.168 -0.2653 -2.2382 -2.4099
  260SOL    HW2  780   0.329   0.396   1.126 -1.5268 -1.0676 -2.0380
  261SOL     OW  781   1.214   0.120   2.354  0.5751 -0.3237 -0.3072
  261SOL    HW1  782   1.210   0.021   2.373  0.4897  3.4615 -2.0334
  261SOL    HW2  783   1.119   0.155   2.350  2.7082 -1.6255  2.4775
  262SOL     OW  784   1.227   2.939   1.975 -0.0557 -0.7151  0.6108
  262SOL    HW1  785   1.229   2.874   2.051  1.3377 -2.7731  0.7180
  262SOL    HW2  786   1.184   2.900   1.888 -2.8161  0.3721  1.2037
  263SOL     OW  787   0.694   2.206   0.053  0.1928 -0.3417 -0.5254
  263SOL    HW1  788   0.741   2.297   0.039  3.3475  3.0824  0.9985
  263SOL    HW2  789   0.722   2.137   3.086  4.3669  0.9408  0.6811
  264SOL     OW  790   1.400   1.755   1.005 -0.3304 -0.3036 -0.1326
  264SOL    HW1  791   1.479   1.711   1.045 -5.4645  3.2661 -1.3377
  264SOL    HW2  792   1.405   1.770   0.901 -0.4652  3.3817  0.8644
  265SOL     OW  793   0.864   2.300   0.463  0.4222 -0.3178  0.1102
  265SOL    HW1  794   0.946   2.257   0.422 -0.0823  1.5293  0.7084
  265SOL    HW2  795   0.813   2.233   0.525  1.7055 -0.3987 -1.9020
  266SOL     OW  796   2.738   0.856   1.069 -0.3473 -0.3277 -0.6388
  266SOL    HW1  797   2.678   0.794   1.012 -0.5165 -1.9778 -1.9541
  266SOL    HW2  798   2.790   0.810   1.140 -1.8016  2.1435  2.7542
  267SOL     OW  799   0.268   1.437   0.256 -0.1942  0.2510 -0.2284
  267SOL    HW1  800   0.237   1.428   0.356 -2.2068  0.0153  1.1842
  267SOL    HW2  801   0.190   1.412   0.198 -0.5710  0.1256  3.9404
  268SOL     OW  802   1.288   0.574   0.266 -0.1762 -0.4005  0.3272
  268SOL    HW1  803   1.198   0.538   0.283  2.9723  1.0167 -0.6189
  268SOL    HW2  804   1.332   0.610   0.353  0.5310 -1.5019  2.0435
  269SOL     OW  805   2.571   0.656   2.185  0.1171  0.0833  0.5916
  269SOL    HW1  806   2.565   0.725   2.260  0.7600  0.7107  1.3402
  269SOL    HW2  807   2.651   0.684   2.128 -1.8412 -0.0044 -1.1082
  270SOL     OW  808   2.684   1.203   0.703  0.3643 -0.0598 -0.5646
  270SOL    HW1  809   2.700   1.294   0.660 -1.6971  2.0624  0.6541
  270SOL    HW2  810   2.646   1.141   0.629 -3.0243 -1.9359 -3.3513
  271SOL     OW  811   0.129   1.190   2.262 -0.6838 -0.3997 -0.0712
  271SOL    HW1  812   0.205   1.167   2.196  1.0987 -0.5244 -2.1665
  271SOL    HW2  813   0.083   1.280   2.235 -0.9506  0.6869 -0.3133
  272SOL     OW  814   2.556   2.232   1.835 -0.1162  0.6739  0.3088
  272SOL    HW1  815   2.494   2.273   1.908 -0.7253 -1.2458 -0.2382
  272SOL    HW2  816   2.647   2.194   1.864 -1.2035  2.4886  0.5764
  273SOL     OW  817   0.185   2.543   2.929 -0.4755  0.1991 -0.2300
  273SOL    HW1  818   0.226   2.478   2.989 -3.2454  3.4653 -1.4788
  273SOL    HW2  819   0.119   2.505   2.865 -1.5815 -0.9210 -1.0030
  274SOL     OW  820   0.803   2.289   0.781 -0.4049  0.1681  0.1940
  274SOL    HW1  821   0.810   2.315   0.877 -1.5068  0.4289 -2.4318
  274SOL    HW2  822   0.892   2.261   0.747 -1.5471  0.9877  2.1817
  275SOL     OW  823   1.427   2.100   2.551 -0.5156 -0.2094  0.2078
  275SOL    HW1  824   1.470   2.158   2.476  1.3749  1.5110 -1.6371
  275SOL    HW2  825   1.325   2.084   2.552 -2.2918 -2.8767 -1.4838
  276SOL     OW  826   2.824   1.797   2.018  0.3073 -0.8191 -0.1093
  276SOL    HW1  827   2.761   1.757   1.950  1.4050  1.2613  1.8020
  276SOL    HW2  828   2.769   1.858   2.083  0.7622 -0.6533  1.2172
  277SOL     OW  829   2.124   0.187   0.829  0.0013  0.0853  0.5098
  277SOL    HW1  830   2.199   0.211   0.769 -0.5698 -0.8463  0.0955
  277SOL    HW2  831   2.033   0.233   0.803 -3.5598  1.7222 -1.3226
  278SOL     OW  832   1.426   0.030   2.520  0.1855  0.3928  0.1532
  278SOL    HW1  833   1.343   0.077   2.482  0.9248 -0.3840 -0.7187
  278SOL    HW2  834   1.396   3.068   2.600  1.1742  0.3362  0.7689
  279SOL     OW  835   1.225   2.732   1.052 -0.1820  0.3360  0.0567
  279SOL    HW1  836   1.257   2.650   1.103 -0.4448 -0.4791  2.6711
  279SOL    HW2  837   1.137   2.764   1.097  0.4198 -0.5161 -0.6513
  280SOL     OW  838   1.235   1.094   0.501  0.4929  0.0806 -0.0728
  280SOL    HW1  839   1.168   1.033   0.547 -0.5609 -1.5567  1.9196
  280SOL    HW2  840   1.263   1.160   0.573 -0.9836 -1.1806 -1.2352
  281SOL     OW  841   2.093   1.732   0.426 -0.1786 -0.4288 -0.2621
  281SOL    HW1  842   2.164   1.741   0.504  3.2309  1.9769  1.7583
  281SOL    HW2  843   2.108   1.656   0.363  0.1639  0.7423 -1.2271
  282SOL     OW  844   2.825   1.427   0.569 -0.4619  0.2429 -0.5334
  282SOL    HW1  845   2.736   1.459   0.543  0.8880 -3.4776 -1.2148
  282SOL    HW2  846   2.887   1.447   0.493 -0.6388 -1.1659  0.4248
  283SOL     OW  847   1.786   2.505   2.940 -0.4012  0.4844 -0.3821
  283SOL    HW1  848   1.739   2.431   2.892  2.2397  2.1124 -0.1717
  283SOL    HW2  849   1.809   2.582   2.879 -3.4201 -1.4734  0.6477
  284SOL     OW  850   0.415   0.384   2.472 -0.1814 -0.0060  0.2613
  284SOL    HW1  851   0.512   0.418   2.481 -0.5191  1.1610  1.6791
  284SOL    HW2  852   0.358   0.408   2.555  0.1555 -2.2112 -0.2522
  285SOL     OW  853   1.947   1.382   0.110  0.4071  0.1589  0.1197
  285SOL    HW1  854   1.986   1.395   0.020 -0.7705  2.3053 -2.5138
  285SOL    HW2  855   1.951   1.282   0.134  0.5175 -4.3734 -1.5243
  286SOL     OW  856   1.122   2.015   1.774  0.8540 -0.1154  0.1324
  286SOL    HW1  857   1.167   1.923   1.783 -0.6044  0.8004  1.6664
  286SOL    HW2  858   1.092   2.028   1.678  0.2473  1.3926  0.0046
  287SOL     OW  859   1.826   2.866   1.194  0.1523  0.1614 -0.4414
  287SOL    HW1  860   1.802   2.831   1.102 -2.8724 -0.7822  2.6804
  287SOL    HW2  861   1.855   2.962   1.193 -0.9738 -0.4117  1.8694
  288SOL     OW  862   0.606   2.653   2.018 -0.2703 -0.2403 -0.1755
  288SOL    HW1  863   0.561   2.748   2.021 -1.9468  3.0118 -0.2426
  288SOL    HW2  864   0.548   2.587   1.969  1.7874  0.7742  0.9590
  289SOL     OW  865   3.073   1.737   0.778  0.2097  0.1520  0.2120
  289SOL    HW1  866   3.028   1.641   0.777  1.4081 -1.2188  1.4802
  289SOL    HW2  867   3.024   1.811   0.727  2.9896  2.4636  0.2199
  290SOL     OW  868   0.775   2.194   1.898  0.1372 -0.6091 -0.0478
  290SOL    HW1  869   0.828   2.112   1.867 -1.1342 -0.3352 -1.5326
  290SOL    HW2  870   0.783   2.193   2.002  1.5475 -0.4406 -0.1476
  291SOL     OW  871   1.869   0.264   0.336  0.0855  0.2183  0.5400
  291SOL    HW1  872   1.820   0.340   0.380  0.5362  0.5210 -2.8846
  291SOL    HW2  873   1.828   0.241   0.245  1.7670  0.7921  0.3680
  292SOL     OW  874   0.578   0.333   1.590  0.1587 -0.0394 -0.0307
  292SOL    HW1  875   0.511   0.258   1.599 -0.5002  3.8133  0.8682
  292SOL    HW2  876   0.665   0.311   1.639 -0.6212 -3.1270  0.0679
  293SOL     OW  877   2.271   1.345   1.122 -0.0197 -0.2524 -0.2986
  293SOL    HW1  878   2.357   1.394   1.157  2.3478 -0.9257 -0.9965
  293SOL    HW2  879   2.291   1.282   1.046 -0.8336  2.0082 -3.0922
  294SOL     OW  880   0.369   0.287   2.218 -0.1521 -0.3460  0.1498
  294SOL    HW1  881   0.279   0.325   2.189  0.2483 -0.6523  0.5707
  294SOL    HW2  882   0.392   0.308   2.314 -1.7581  0.7202  1.1611
  295SOL     OW  883   1.026   1.419   0.302  0.3862 -0.2115 -0.1236
  295SOL    HW1  884   1.089   1.340   0.277  0.2497  1.7300 -0.5370
  295SOL    HW2  885   0.968   1.393   0.382 -0.0522 -0.9201  0.1734
  296SOL     OW  886   1.851   1.073   1.153  0.1155 -0.0245 -0.0822
  296SOL    HW1  887   1.817   1.110   1.063 -2.1756  0.7014 -3.7382
  296SOL    HW2  888   1.918   1.131   1.200  0.1144 -0.2238 -1.2863
  297SOL     OW  889   1.881   0.870   2.487 -0.0980  0.1495  0.2298
  297SOL    HW1  890   1.979   0.859   2.505 -1.9875 -1.0225  1.8394
  297SOL    HW2  891   1.874   0.915   2.398  1.4190 -4.5092  0.3968
  298SOL     OW  892   0.937   0.516   2.593  0.1844  0.9146  0.3508
  298SOL    HW1  893   0.982   0.445   2.641  0.4800  0.5597  0.3270
  298SOL    HW2  894   1.003   0.591   2.568  1.0726 -2.0438 -1.1567
  299SOL     OW  895   1.338   0.353   2.030 -0.4137  0.4173  0.0065
  299SOL    HW1  896   1.239   0.336   2.019 -0.9376 -1.7765  0.8443
  299SOL    HW2  897   1.356   0.437   2.087  2.8256 -0.9383 -0.2159
  300SOL     OW  898   2.534   0.003   1.766  0.1177 -0.3144  0.3231
  300SOL    HW1  899   2.493   3.076   1.680  0.2827 -1.7499  2.2137
  300SOL    HW2  900   2.634   0.032   1.758 -1.8350 -1.4027  2.9137
  301SOL     OW  901   1.769   0.809   1.687  0.0254  0.0691 -0.1450
  301SOL    HW1  902   1.698   0.879   1.665 -0.7269  1.6658 -0.8860
  301SOL    HW2  903   1.809   0.816   1.780  2.7170 -2.1143  0.4646
  302SOL     OW  904   0.697   2.776   2.481  0.4184  0.0803 -0.0056
  302SOL    HW1  905   0.614   2.760   2.422 -0.8356 -0.2227 -0.4974
  302SOL    HW2  906   0.777   2.810   2.427  0.3007 -0.4566  0.6742
  303SOL     OW  907   1.639   1.961   1.693  0.0153  0.1618  0.2262
  303SOL    HW1  908   1.698   1.921   1.619  0.1086 -2.6600 -0.6129
  303SOL    HW2  909   1.543   1.932   1.678 -2.3230  0.4216 -3.2648
  304SOL     OW  910   0.217   2.839   0.710 -0.0845  0.0672 -0.3152
  304SOL    HW1  911   0.300   2.791   0.671  2.2118 -1.2727  0.0096
  304SOL    HW2  912   0.163   2.776   0.765 -0.2342  2.0270  1.1363
  305SOL     OW  913   1.475   0.689   0.437  0.1136  0.3675  0.6478
  305SOL    HW1  914   1.452   0.784   0.407  0.8886 -2.7155  1.5135
  305SOL    HW2  915   1.448   0.667   0.533  2.3409  1.5372 -0.6597
  306SOL     OW  916   0.414   1.619   0.089  0.1047  0.1958 -0.1049
  306SOL    HW1  917   0.514   1.612   0.107  3.5124 -1.6408  1.2811
  306SOL    HW2  918   0.353   1.563   0.154 -1.9771 -2.7643  1.2559
  307SOL     OW  919   0.569   1.002   1.802  0.6074 -0.1136 -0.1482
  307SOL    HW1  920   0.547   1.075   1.730  1.8227  0.1910 -2.5474
  307SOL    HW2  921   0.534   0.911   1.771  0.1520  1.5726 -1.3265
  308SOL     OW  922   0.746   0.184   1.121 -0.1200  0.0248 -0.0300
  308SOL    HW1  923   0.692   0.196   1.036  2.5104 -2.2566  2.3028
  308SOL    HW2  924   0.727   0.249   1.193  1.3805  0.0830  0.3421
  309SOL     OW  925   2.146   0.757   0.114  0.1638 -0.3614 -0.0764
  309SOL    HW1  926   2.235   0.709   0.131 -0.2484  2.8899 -2.2914
  309SOL    HW2  927   2.164   0.844   0.061 -0.0234  0.2187  2.6030
  310SOL     OW  928   1.088   1.047   0.100  0.3297  0.5730  0.1700
  310SOL    HW1  929   1.068   1.101   0.018  1.5633 -0.6758  0.3182
  310SOL    HW2  930   1.114   1.111   0.173 -0.1282  0.8261 -2.7819
  311SOL     OW  931   1.729   2.304   2.587 -0.3449  0.1464 -0.0475
  311SOL    HW1  932   1.691   2.292   2.496  1.3350  1.5185  1.9839
  311SOL    HW2  933   1.745   2.404   2.600 -0.5637  2.0889  1.4588
  312SOL     OW  934   2.059   3.021   3.063  0.1801  0.0441 -0.0037
  312SOL    HW1  935   2.033   0.017   3.032 -1.6878 -1.5632  0.2219
  312SOL    HW2  936   2.069   3.010   0.068 -0.0879  1.4285 -0.2091
  313SOL     OW  937   0.378   0.400   0.641 -0.2709  0.0319 -0.2328
  313SOL    HW1  938   0.312   0.467   0.686  2.5025 -0.4830  0.3633
  313SOL    HW2  939   0.450   0.447   0.589  0.1963  2.5439  0.1540
  314SOL     OW  940   2.553   1.290   2.872 -0.6852  0.1347 -0.2998
  314SOL    HW1  941   2.527   1.255   2.780  0.3435  3.6835  0.0884
  314SOL    HW2  942   2.581   1.388   2.866  1.1972  3.5414  0.5014
  315SOL     OW  943   1.907   0.831   1.915  0.1595  0.2082 -0.3574
  315SOL    HW1  944   1.944   0.759   1.977  1.1993 -0.5829  0.3838
  315SOL    HW2  945   1.883   0.915   1.970 -1.2102 -0.7247 -0.6538
  316SOL     OW  946   3.068   0.857   0.841 -0.2406 -0.2302  0.2203
  316SOL    HW1  947   2.997   0.932   0.846  0.5598  0.8426 -0.0129
  316SOL    HW2  948   0.006   0.840   0.747 -1.2012  0.0337  4.0554
  317SOL     OW  949   0.452   0.323   0.077  0.6580 -0.3338  0.6697
  317SOL    HW1  950   0.478   0.312   0.172 -0.6906  2.0127 -0.3267
  317SOL    HW2  951   0.491   0.254   0.015 -2.7388  2.9757  1.1006
  318SOL     OW  952   2.604   2.811   1.328 -0.0748  0.4733  0.2035
  318SOL    HW1  953   2.625   2.725   1.275  0.2283 -0.7213  1.4474
  318SOL    HW2  954   2.603   2.804   1.430 -2.6130 -0.8755  0.2115
  319SOL     OW  955   1.212   1.760   0.126  0.3469  0.1939  0.4102
  319SOL    HW1  956   1.181   1.854   0.103 -0.3436  0.6417 -0.5066
  319SOL    HW2  957   1.150   1.721   0.194  1.3652  0.3451 -2.7598
  320SOL     OW  958   0.677   2.204   1.065 -0.1684  0.2667  0.6146
  320SOL    HW1  959   0.676   2.189   1.167 -1.4570  0.6204  0.3611
  320SOL    HW2  960   0.585   2.221   1.024 -1.6710 -0.9619  0.0301
  321SOL     OW  961   2.220   2.277   2.444 -0.0114  0.2262 -0.3864
  321SOL    HW1  962   2.137   2.324   2.407 -3.3533 -0.9226 -1.7319
  321SOL    HW2  963   2.291   2.249   2.373  0.7183 -0.3675 -0.6418
  322SOL     OW  964   2.930   2.470   2.323 -0.0139 -0.3568  0.1113
  322SOL    HW1  965   3.007   2.454   2.391  0.0571  1.8652 -0.2360
  322SOL    HW2  966   2.848   2.518   2.366  0.9116  3.1499  0.2930
  323SOL     OW  967   2.760   0.383   0.876  0.1501  0.1947 -0.0298
  323SOL    HW1  968   2.836   0.382   0.811 -1.1892  0.8207 -0.0942
  323SOL    HW2  969   2.679   0.423   0.826  2.5299 -1.9686  0.9744
  324SOL     OW  970   2.550   1.719   2.377  0.2419  0.1424  0.3295
  324SOL    HW1  971   2.514   1.681   2.290  0.0855  1.2329  0.0790
  324SOL    HW2  972   2.521   1.656   2.452 -1.9344 -1.3837  0.5953
  325SOL     OW  973   1.607   0.479   2.349  0.0593 -0.3483  0.0762
  325SOL    HW1  974   1.655   0.561   2.380 -1.3658  1.1220 -2.5880
  325SOL    HW2  975   1.629   0.476   2.249  1.9412  1.2323 -1.3482
  326SOL     OW  976   2.868   2.207   0.580  0.0048  0.2142  0.5476
  326SOL    HW1  977   2.823   2.253   0.662  0.6220  1.2548  1.1250
  326SOL    HW2  978   2.926   2.273   0.525 -0.2068  2.6094 -0.3161
  327SOL     OW  979   2.559   3.083   0.019  0.6915  0.3894  0.5479
  327SOL    HW1  980   2.482   3.024   3.086 -1.2379  0.5654  0.1540
  327SOL    HW2  981   2.648   3.037   3.090 -0.7678 -0.5122  0.5419
  328SOL     OW  982   0.917   0.624   0.765 -0.0532  0.2850 -0.3970
  328SOL    HW1  983   0.855   0.658   0.694  1.8312 -2.0727  3.4759
  328SOL    HW2  984   1.003   0.572   0.738  2.7941  2.7378 -0.0624
  329SOL     OW  985   2.041   0.850   1.619 -0.1326 -0.2154 -0.0200
  329SOL    HW1  986   1.944   0.856   1.643  0.0637  0.1104 -1.0260
  329SOL    HW2  987   2.062   0.909   1.538  0.0441  0.2473  1.9450
  330SOL     OW  988   1.314   0.306   0.651  0.1188  0.1852  0.1478
  330SOL    HW1  989   1.249   0.385   0.649  1.2835  0.3199 -1.0941
  330SOL    HW2  990   1.380   0.318   0.574 -2.4548  1.1800 -0.0839
  331SOL     OW  991   0.550   1.951   1.961  0.3587  0.1635  0.7627
  331SOL    HW1  992   0.637   1.962   1.910  0.2563  0.1138 -0.6238
  331SOL    HW2  993   0.506   2.035   1.998 -1.6204 -1.7014  1.3967
  332SOL     OW  994   2.225   1.950   1.683 -0.7833  0.4876 -0.2591
  332SOL    HW1  995   2.220   1.881   1.756  1.0749 -2.0430 -2.3731
  332SOL    HW2  996   2.325   1.958   1.658  0.0670 -1.5199  1.1368
  333SOL     OW  997   2.886   3.035   0.920 -0.2912  0.1204 -0.1688
  333SOL    HW1  998   2.800   3.073   0.953 -0.3591 -3.5082 -2.2379
  333SOL    HW2  999   2.919   3.093   0.841 -1.2649  0.6034  0.0370
  334SOL     OW 1000   2.910   1.694   1.007  0.3427  0.2291  0.1119
  334SOL    HW1 1001   2.999   1.667   1.046  2.3645  1.1379  1.7916
  334SOL    HW2 1002   2.891   1.636   0.920  1.0865 -1.1061 -3.6991
  335SOL     OW 1003   0.560   2.986   2.635  0.2467 -0.9933  0.2864
  335SOL    HW1 1004   0.474   2.944   2.670  1.1267  2.0657  0.4569
  335SOL    HW2 1005   0.615   2.920   2.588 -1.4305  3.8541 -0.1487
  336SOL     OW 1006   0.102   2.709   1.599  0.4179  0.2860 -0.7457
  336SOL    HW1 1007   0.034   2.752   1.537  1.1811  1.4747  0.5214
  336SOL    HW2 1008   0.104   2.744   1.694  0.5553 -2.8245 -0.6001
  337SOL     OW 1009   0.931   1.910   2.279  0.7251  0.6780 -0.4466
  337SOL    HW1 1010   0.953   1.973   2.349 -2.3838  2.1790 -1.9873
  337SOL    HW2 1011   0.857   1.948   2.222  1.0143  0.3370 -1.8803
  338SOL     OW 1012   1.167   2.966   2.439  0.0229 -0.2399  0.2648
  338SOL    HW1 1013   1.245   2.903   2.445 -1.4028  4.1288  0.4866
  338SOL    HW2 1014   1.117   2.967   2.527 -2.5385  0.2986  0.6568
  339SOL     OW 1015   3.038   1.509   3.004 -0.0503 -0.3186 -0.2989
  339SOL    HW1 1016   3.023   1.434   2.934 -0.8503  0.4698 -2.2041
  339SOL    HW2 1017   3.088   1.588   2.962 -0.1013 -0.7551 -0.4868
  340SOL     OW 1018   1.928   0.539   1.272  0.4343 -0.5282  0.1051
  340SOL    HW1 1019   1.977   0.504   1.191 -0.9649  3.1048  3.6107
  340SOL    HW2 1020   1.997   0.564   1.337 -0.1160  0.3444 -0.7216
  341SOL     OW 1021   1.858   1.247   0.918 -0.5182  0.0513  0.2717
  341SOL    HW1 1022   1.884   1.334   0.873 -2.0486 -2.4624  1.2589
  341SOL    HW2 1023   1.874   1.174   0.851 -0.4841  0.8585  0.9838
  342SOL     OW 1024   2.237   2.130   2.677 -0.0690 -0.1636 -0.5442
  342SOL    HW1 1025   2.216   2.032   2.685 -0.5086  1.7639  0.4031
  342SOL    HW2 1026   2.257   2.149   2.580 -0.1142  0.2702  1.6457
  343SOL     OW 1027   3.035   2.636   1.094 -0.5119 -0.3669 -0.0959
  343SOL    HW1 1028   3.011   2.568   1.024 -0.9275  1.4683  0.1848
  343SOL    HW2 1029   2.998   2.602   1.183  2.3083 -2.1724 -1.2652
  344SOL     OW 1030   2.605   2.750   0.830 -0.3118  0.1738 -0.0948
  344SOL    HW1 1031   2.538   2.811   0.873  2.8109  2.5996 -0.3222
  344SOL    HW2 1032   2.697   2.735   0.879  2.7731  0.9344 -1.7286
  345SOL     OW 1033   2.470   2.209   0.276 -0.5730 -0.2267 -0.1325
  345SOL    HW1 1034   2.373   2.204   0.298  3.2005  1.2325  2.1933
  345SOL    HW2 1035   2.506   2.299   0.305 -1.8036 -0.0330  0.9835
  346SOL     OW 1036   1.062   2.196   2.000  0.4262 -0.0710  0.5536
  346SOL    HW1 1037   1.027   2.276   2.051  0.0044  1.5918  0.0681
  346SOL    HW2 1038   1.064   2.209   1.894  1.1212 -0.3845 -3.4541
  347SOL     OW 1039   1.708   1.983   2.309  0.3508  0.3730 -0.0767
  347SOL    HW1 1040   1.653   2.056   2.352 -1.8849 -0.2375  0.2779
  347SOL    HW2 1041   1.741   2.000   2.216 -1.2710 -0.0625  1.5069
  348SOL     OW 1042   0.464   1.889   1.182  0.0740  0.0523  0.5576
  348SOL    HW1 1043   0.462   1.967   1.115 -0.3349  1.8543  2.2852
  348SOL    HW2 1044   0.560   1.849   1.186  2.2407 -1.4497  0.5153
  349SOL     OW 1045   1.616   1.387   1.550  0.2819  0.1579  0.4794
  349SOL    HW1 1046   1.666   1.473   1.547 -0.4270 -2.5733  1.4961
  349SOL    HW2 1047   1.532   1.391   1.498 -1.0051 -1.0679 -0.0177
  350SOL     OW 1048   2.259   2.187   0.617 -0.0082  0.3988 -0.4718
  350SOL    HW1 1049   2.170   2.154   0.660 -1.9146 -0.3573 -0.2986
  350SOL    HW2 1050   2.273   2.285   0.646  1.5141 -0.0195 -0.5213
  351SOL     OW 1051   0.395   0.134   1.645  0.0921 -0.7392 -0.4003
  351SOL    HW1 1052   0.435   0.156   1.736  1.8075 -0.8512 -0.9475
  351SOL    HW2 1053   0.297   0.161   1.652 -1.6365  1.1715 -0.0470
  352SOL     OW 1054   0.625   1.116   0.341  0.0443 -0.3779  0.2708
  352SOL    HW1 1055   0.577   1.207   0.321 -0.5680  1.1119 -1.1179
  352SOL    HW2 1056   0.616   1.057   0.262  0.9255 -0.1047  0.3874
  353SOL     OW 1057   0.715   1.440   2.751 -0.0573 -0.5392 -0.8438
  353SOL    HW1 1058   0.781   1.518   2.740 -1.2672 -2.2426 -1.5290
  353SOL    HW2 1059   0.731   1.359   2.692 -1.7211 -0.4125  3.1269
  354SOL     OW 1060   1.771   2.286   1.869 -0.7742  0.0260 -0.5744
  354SOL    HW1 1061   1.794   2.387   1.854 -0.0859  0.4547 -3.5883
  354SOL    HW2 1062   1.854   2.230   1.893 -0.6772 -0.7089 -3.0490
  355SOL     OW 1063   2.268   0.851   2.805  0.0368 -0.1408 -0.2635
  355SOL    HW1 1064   2.281   0.761   2.848 -2.5035  0.5390 -2.4819
  355SOL    HW2 1065   2.219   0.833   2.715 -1.2424  2.2014  0.5366
  356SOL     OW 1066   0.725   2.169   1.331  0.4013  0.1578 -0.0389
  356SOL    HW1 1067   0.760   2.260   1.349 -0.7715 -2.1585 -1.7671
  356SOL    HW2 1068   0.691   2.122   1.419 -2.3717 -1.0772  2.0376
  357SOL     OW 1069   0.126   0.167   1.755 -0.0196  0.5465  0.1988
  357SOL    HW1 1070   0.114   0.097   1.828  1.1199  2.5133 -1.5743
  357SOL    HW2 1071   0.107   0.260   1.780  2.1666 -4.0927 -1.1321
  358SOL     OW 1072   2.470   1.923   1.531  0.3063  0.2178 -0.0172
  358SOL    HW1 1073   2.456   1.867   1.446 -0.0020  0.2504 -4.0744
  358SOL    HW2 1074   2.471   2.020   1.502  0.3190  0.8391 -0.1126
  359SOL     OW 1075   2.167   1.861   2.217  0.4681 -0.2192  0.8753
  359SOL    HW1 1076   2.084   1.890   2.268 -0.0944 -1.4755  2.0632
  359SOL    HW2 1077   2.209   1.935   2.158  1.7869  0.8190  1.5709
  360SOL     OW 1078   1.308   2.726   0.797 -0.1884 -0.3515 -0.2870
  360SOL    HW1 1079   1.287   2.750   0.895  1.4867  0.2474  0.4802
  360SOL    HW2 1080   1.310   2.811   0.745  1.3616 -3.3443  3.3940
  361SOL     OW 1081   2.105   2.969   0.233  0.4620  0.4870 -0.3355
  361SOL    HW1 1082   2.014   2.930   0.260  0.4666  1.2331 -0.2875
  361SOL    HW2 1083   2.178   2.895   0.230 -0.0843 -0.5845  0.3090
  362SOL     OW 1084   1.746   0.701   1.413 -0.0724  0.0766 -0.4752
  362SOL    HW1 1085   1.789   0.721   1.502  1.0590 -1.6979  1.7007
  362SOL    HW2 1086   1.786   0.622   1.360 -4.2816  1.3297  1.4786
  363SOL     OW 1087   1.775   1.511   2.188  0.0824 -0.3573  0.0103
  363SOL    HW1 1088   1.695   1.519   2.253 -3.5507 -1.4788  0.5663
  363SOL    HW2 1089   1.858   1.509   2.237 -6.9816 -2.5614 -0.9592
  364SOL     OW 1090   0.602   0.600   1.539  0.0205 -0.0983 -0.0722
  364SOL    HW1 1091   0.588   0.498   1.554  0.1351  0.0598  0.7338
  364SOL    HW2 1092   0.564   0.622   1.450  0.9410 -2.8136 -2.8230
  365SOL     OW 1093   0.910   0.785   2.845 -0.8474  0.2911 -1.0140
  365SOL    HW1 1094   0.901   0.757   2.746 -1.0124  2.8999  0.0281
  365SOL    HW2 1095   0.879   0.879   2.862  0.0134  0.9303  3.8726
  366SOL     OW 1096   2.241   1.165   2.733 -0.5078  0.0997  0.4417
  366SOL    HW1 1097   2.276   1.076   2.769  1.4107 -1.2906 -1.0422
  366SOL    HW2 1098   2.197   1.217   2.809  1.0755 -0.3198  3.1022
  367SOL     OW 1099   3.080   2.695   2.283  0.1907 -0.2820 -0.2797
  367SOL    HW1 1100   3.025   2.610   2.311 -1.6332 -0.5809 -1.4859
  367SOL    HW2 1101   3.025   2.780   2.273 -1.9205 -2.5786  1.4535
  368SOL     OW 1102   2.978   1.100   1.286 -0.0135  0.2138 -0.6566
  368SOL    HW1 1103   2.895   1.159   1.257 -1.0922  0.9489 -3.6371
  368SOL    HW2 1104   2.967   1.083   1.384  1.2175  0.1681 -0.9644
  369SOL     OW 1105   0.440   2.907   2.124  0.4009  0.0531 -0.1558
  369SOL    HW1 1106   0.472   2.910   2.029  1.2755  3.5616  0.7654
  369SOL    HW2 1107   0.486   2.980   2.182  2.7845 -1.8110  2.1007
  370SOL     OW 1108   2.694   0.199   0.528  0.4546 -0.3262 -0.1236
  370SOL    HW1 1109   2.629   0.263   0.486 -1.0550 -1.9879  2.6648
  370SOL    HW2 1110   2.668   0.157   0.617  1.4344 -1.2517 -0.6290
  371SOL     OW 1111   0.790   2.407   1.446  0.1249  0.4631  0.2391
  371SOL    HW1 1112   0.887   2.379   1.439  0.0288  0.2184  2.2474
  371SOL    HW2 1113   0.746   2.371   1.533 -2.0439 -1.7740  0.9102
  372SOL     OW 1114   2.216   0.216   2.397  0.5926  0.2346  0.1758
  372SOL    HW1 1115   2.241   0.256   2.489 -1.8248  1.4969 -0.7969
  372SOL    HW2 1116   2.115   0.205   2.396  1.3606 -0.7807 -0.1544
  373SOL     OW 1117   0.103   2.191   0.816  0.5935 -0.0770 -0.4032
  373SOL    HW1 1118   0.104   2.272   0.884  1.2058  2.6048  2.8477
  373SOL    HW2 1119   0.030   2.122   0.836  0.1418  2.1221 -0.0351
  374SOL     OW 1120   2.896   0.357   2.259  0.2765 -0.7290 -0.6827
  374SOL    HW1 1121   2.816   0.309   2.295  1.5512  0.7404 -1.3139
  374SOL    HW2 1122   2.940   0.416   2.329  1.2594 -0.0259 -0.5424
  375SOL     OW 1123   0.656   0.589   2.745  0.4746 -0.1045 -0.3235
  375SOL    HW1 1124   0.581   0.527   2.774  0.0403  2.0496 -0.5727
  375SOL    HW2 1125   0.742   0.564   2.796 -1.9151  2.3685  1.9324
  376SOL     OW 1126   2.875   2.366   1.753  0.2640 -0.0769  0.2229
  376SOL    HW1 1127   2.945   2.423   1.706  0.1875  1.2537 -0.6526
  376SOL    HW2 1128   2.798   2.356   1.690  1.4715 -0.3064  0.8620
  377SOL     OW 1129   1.155   0.407   2.764  0.3660 -0.1469 -0.6423
  377SOL    HW1 1130   1.099   0.321   2.760  0.5077  2.5557 -1.8115
  377SOL    HW2 1131   1.200   0.424   2.676  2.7583  0.9844  1.2887
  378SOL     OW 1132   2.990   1.051   2.843 -0.1519 -0.0054 -0.0396
  378SOL    HW1 1133   3.082   1.013   2.824  1.3993  0.7887  1.3793
  378SOL    HW2 1134   2.918   1.036   2.769  0.2319 -0.4810  1.1658
  379SOL     OW 1135   1.423   0.657   2.570  0.5257 -0.1228  0.7949
  379SOL    HW1 1136   1.339   0.639   2.506 -3.0205  0.0881 -1.2765
  379SOL    HW2 1137   1.411   0.740   2.629  0.3619 -0.0178 -1.3945
  380SOL     OW 1138   0.240   2.041   1.600  0.1408  0.2650  1.0593
  380SOL    HW1 1139   0.312   2.079   1.657 -3.8895 -1.4365 -3.0087
  380SOL    HW2 1140   0.151   2.029   1.650  1.8403 -1.0207 -1.9193
  381SOL     OW 1141   3.033   1.328   2.800 -0.2715  0.5078  0.2713
  381SOL    HW1 1142   3.083   1.359   2.715 -1.6463  0.2988 -0.6179
  381SOL    HW2 1143   3.013   1.225   2.803  0.7145 -1.3458 -1.2477
  382SOL     OW 1144   2.002   2.179   0.671  0.4800  0.0172 -0.3094
  382SOL    HW1 1145   1.921   2.125   0.629 -1.1320 -2.6229 -1.6338
  382SOL    HW2 1146   1.984   2.203   0.769 -0.6334  0.9487 -1.3084
  383SOL     OW 1147   0.663   1.644   0.213 -0.1655  0.4334  0.5423
  383SOL    HW1 1148   0.747   1.669   0.162 -0.4345  0.2098 -1.1578
  383SOL    HW2 1149   0.694   1.601   0.300  0.5235 -0.7801 -2.5067
  384SOL     OW 1150   0.856   2.443   2.400  0.0643  0.6015 -0.2325
  384SOL    HW1 1151   0.769   2.498   2.404 -0.4484  1.7065 -1.3109
  384SOL    HW2 1152   0.836   2.347   2.426  0.9482 -2.7607 -0.3020
  385SOL     OW 1153   2.434   1.984   0.645 -0.6389 -0.1315  0.5808
  385SOL    HW1 1154   2.367   2.059   0.630  3.0784 -1.3619 -2.4350
  385SOL    HW2 1155   2.521   2.001   0.589  1.9388  0.4064 -0.8333
  386SOL     OW 1156   2.386   0.529   0.968  0.3617 -0.3239 -0.5267
  386SOL    HW1 1157   2.324   0.449   0.982 -0.4085 -2.0474  0.1168
  386SOL    HW2 1158   2.360   0.582   0.887  1.8074 -0.5881  2.0156
  387SOL     OW 1159   0.717   1.027   2.016  0.7800 -0.3131 -0.0661
  387SOL    HW1 1160   0.644   1.043   2.093 -4.3772 -0.5476  1.0206
  387SOL    HW2 1161   0.663   1.013   1.930 -0.5333  0.1782  2.1966
  388SOL     OW 1162   1.002   1.451   2.510  0.1852  0.0061 -0.4593
  388SOL    HW1 1163   0.933   1.520   2.490 -1.6705 -0.2219  2.3838
  388SOL    HW2 1164   1.092   1.476   2.474 -1.9231  0.6116 -0.3966
  389SOL     OW 1165   1.033   1.333   1.767 -0.1751 -0.0834  0.3612
  389SOL    HW1 1166   0.996   1.239   1.777 -1.9526  0.5736 -1.1442
  389SOL    HW2 1167   0.999   1.374   1.681  0.4914 -1.5998  0.9742
  390SOL     OW 1168   0.050   3.058   1.039  0.1947  0.0178 -0.2239
  390SOL    HW1 1169   3.057   3.014   1.017 -0.8271  1.2242  0.4212
  390SOL    HW2 1170   0.079   0.031   0.965  2.6541  2.6794 -2.0908
  391SOL     OW 1171   1.551   1.242   1.028  0.1241 -0.3044  0.0723
  391SOL    HW1 1172   1.531   1.228   0.926  1.4173 -2.7535 -0.0998
  391SOL    HW2 1173   1.630   1.299   1.053  0.3964  0.4714 -1.4940
  392SOL     OW 1174   2.930   3.085   0.208 -0.7506 -0.1965  0.2903
  392SOL    HW1 1175   3.017   3.039   0.172  3.1694 -0.6053 -0.4948
  392SOL    HW2 1176   2.855   3.017   0.217 -1.7014 -0.5004 -0.6430
  393SOL     OW 1177   1.593   2.172   3.037 -0.0797 -0.0536  0.1877
  393SOL    HW1 1178   1.611   2.073   3.018  1.1042 -1.3859 -0.4417
  393SOL    HW2 1179   1.497   2.180   3.067 -0.3758 -0.2194 -1.9311
  394SOL     OW 1180   3.092   2.473   2.741 -0.4144 -0.1337  0.0558
  394SOL    HW1 1181   0.011   2.482   2.642  0.4406  1.6730  0.5511
  394SOL    HW2 1182   3.034   2.395   2.771 -1.7903  0.3739  0.7387
  395SOL     OW 1183   0.118   0.162   0.865  0.3204  0.0220  0.2675
  395SOL    HW1 1184   0.170   0.247   0.899  0.2184  3.5115  2.3066
  395SOL    HW2 1185   0.183   0.086   0.839 -0.7022  0.2973 -2.0682
  396SOL     OW 1186   2.188   0.531   0.520  0.2418 -0.4974 -0.2943
  396SOL    HW1 1187   2.118   0.531   0.452  1.2946 -1.2579  3.3039
  396SOL    HW2 1188   2.276   0.495   0.480  1.2817  1.3412 -1.3949
  397SOL     OW 1189   0.125   0.724   2.588 -0.1490 -0.4844  0.7120
  397SOL    HW1 1190   0.093   0.740   2.683 -1.1264 -0.1349 -1.1915
  397SOL    HW2 1191   0.146   0.812   2.545  0.3829 -0.0538 -2.8648
  398SOL     OW 1192   0.615   0.134   2.991 -0.3338 -0.8456 -0.4901
  398SOL    HW1 1193   0.561   0.126   2.906  3.0326 -1.2739 -0.0917
  398SOL    HW2 1194   0.687   0.201   2.968 -1.9254  0.0643 -2.8325
  399SOL     OW 1195   2.086   0.216   2.047 -0.0947  0.0244  0.0235
  399SOL    HW1 1196   2.030   0.136   2.081  0.4686 -1.7818  0.5846
  399SOL    HW2 1197   2.041   0.257   1.962  0.2400  1.2952 -1.9187
  400SOL     OW 1198   0.970   2.155   2.862 -0.1984 -0.8061 -0.1231
  400SOL    HW1 1199   1.011   2.188   2.777 -0.4361  2.6913 -0.9119
  400SOL    HW2 1200   0.958   2.237   2.922 -1.5582  1.2777  1.6900
  401SOL     OW 1201   0.302   1.261   2.516  0.1496 -0.2013  0.1071
  401SOL    HW1 1202   0.242   1.262   2.435  2.0590  0.7896 -1.6672
  401SOL    HW2 1203   0.240   1.277   2.595 -0.1449 -0.9929  3.9502
  402SOL     OW 1204   0.114   0.119   0.395 -0.0651 -0.0229  0.3959
  402SOL    HW1 1205   0.147   0.019   0.397 -0.3264 -2.2607 -0.7942
  402SOL    HW2 1206   0.011   0.131   0.397  0.7224 -0.7536 -1.4827
  403SOL     OW 1207   0.261   1.223   1.563 -0.5186 -0.0471  0.2652
  403SOL    HW1 1208   0.356   1.182   1.557  1.2157 -2.0087  1.8073
  403SOL    HW2 1209   0.207   1.208   1.481  0.1916  0.9927  1.9280
  404SOL     OW 1210   2.269   2.509   2.567 -0.1957 -0.3388 -0.4549
  404SOL    HW1 1211   2.200   2.555   2.627  2.3494 -0.7359 -3.3632
  404SOL    HW2 1212   2.239   2.412   2.550 -0.3109  0.6065  0.6827
  405SOL     OW 1213   0.141   0.468   1.994  0.3248 -0.3286  0.4851
  405SOL    HW1 1214   0.114   0.373   2.014  0.4019  0.3877 -0.3477
  405SOL    HW2 1215   0.158   0.460   1.896  1.6125 -1.8919 -0.2995
  406SOL     OW 1216   1.232   1.512   2.846  0.4494 -0.7164  0.4840
  406SOL    HW1 1217   1.314   1.571   2.819 -0.0552  0.3395  1.3309
  406SOL    HW2 1218   1.226   1.514   2.949  0.4758 -1.2467  2.8116
  407SOL     OW 1219   2.002   0.433   2.517  0.4479 -0.1074  0.6128
  407SOL    HW1 1220   1.957   0.356   2.462 -3.2921  1.0876  2.3289
  407SOL    HW2 1221   1.945   0.517   2.518 -2.4945 -0.4113 -0.5795
  408SOL     OW 1222   0.449   2.727   2.355  0.4760  0.5083  0.4823
  408SOL    HW1 1223   0.362   2.763   2.395 -2.3300 -0.7736  1.3234
  408SOL    HW2 1224   0.463   2.764   2.261 -1.0345 -0.0321 -2.0377
  409SOL     OW 1225   3.072   2.555   1.363 -0.6051  0.1882 -0.2995
  409SOL    HW1 1226   0.004   2.650   1.367 -1.5635 -1.0403 -0.3011
  409SOL    HW2 1227   2.980   2.539   1.411  0.3254  0.5697  1.0051
  410SOL     OW 1228   2.936   1.734   0.351  0.5851 -0.2845  0.1567
  410SOL    HW1 1229   3.011   1.795   0.322 -3.9405  0.8154 -1.9211
  410SOL    HW2 1230   2.969   1.640   0.372 -0.1800 -0.8442  0.9495
  411SOL     OW 1231   2.452   0.106   1.473 -0.2096 -0.4615 -0.2000
  411SOL    HW1 1232   2.439   0.121   1.375 -2.0584  0.7769 -1.5810
  411SOL    HW2 1233   2.414   0.019   1.505 -0.0723  2.2264 -1.0191
  412SOL     OW 1234   2.285   0.418   1.584  0.4791  0.1773  0.3965
  412SOL    HW1 1235   2.219   0.345   1.569  2.9851  1.9817  0.4076
  412SOL    HW2 1236   2.268   0.497   1.522  1.0239  2.2723 -1.8456
  413SOL     OW 1237   3.001   0.523   2.462 -0.1699 -0.1412  0.0029
  413SOL    HW1 1238   3.025   0.624   2.450 -0.9629  1.6198  1.0280
  413SOL    HW2 1239   3.014   0.495   2.559  0.7688 -1.2784 -0.0539
  414SOL     OW 1240   2.689   1.465   0.270  0.0749  0.1624  0.5061
  414SOL    HW1 1241   2.688   1.372   0.310 -0.0032  0.6170 -2.0207
  414SOL    HW2 1242   2.648   1.525   0.345  2.6752  0.7285  1.5759
  415SOL     OW 1243   0.742   2.487   0.212  0.2049  0.0868 -0.4163
  415SOL    HW1 1244   0.785   2.575   0.242  0.6389  4.3805  0.4947
  415SOL    HW2 1245   0.769   2.411   0.278  3.3374  0.9565 -2.0858
  416SOL     OW 1246   1.504   2.725   2.658  0.1167 -0.7835  0.7324
  416SOL    HW1 1247   1.460   2.645   2.708  0.9357  2.0806  0.3812
  416SOL    HW2 1248   1.587   2.758   2.702 -1.0441 -0.7839 -2.0632
  417SOL     OW 1249   0.271   0.983   1.257 -0.1546 -0.4283 -0.0638
  417SOL    HW1 1250   0.240   0.960   1.163 -1.9224  0.3092  2.2385
  417SOL    HW2 1251   0.375   0.984   1.270  1.4097  0.3265  1.2364
  418SOL     OW 1252   2.608   0.047   0.747  0.0161 -0.0328 -0.6138
  418SOL    HW1 1253   2.509   0.023   0.762  3.3117  0.5942  1.5255
  418SOL    HW2 1254   2.644   0.108   0.823  0.6568  1.5221  1.1384
  419SOL     OW 1255   0.312   0.040   0.153  0.0152 -0.2970  0.2709
  419SOL    HW1 1256   0.269   0.097   0.225 -0.1679  0.2701 -0.3132
  419SOL    HW2 1257   0.405   0.008   0.186  1.4927 -3.7914  1.5442
  420SOL     OW 1258   0.129   1.180   1.340 -0.0783  0.5759  0.6641
  420SOL    HW1 1259   0.182   1.108   1.293  1.9464  2.5295  1.2013
  420SOL    HW2 1260   0.033   1.145   1.347  1.1153 -0.0305 -2.7268
  421SOL     OW 1261   1.759   2.640   0.640 -0.2531 -0.4130  0.0299
  421SOL    HW1 1262   1.800   2.546   0.639  1.8054 -1.5568 -0.9287
  421SOL    HW2 1263   1.658   2.632   0.632 -2.1223 -3.6861  1.3765
  422SOL     OW 1264   0.245   0.372   1.466 -0.2244  0.1044 -0.0702
  422SOL    HW1 1265   0.318   0.361   1.396 -0.5416  1.0710 -0.3113
  422SOL    HW2 1266   0.174   0.444   1.443  0.3076  1.8045  1.0480
  423SOL     OW 1267   1.056   1.468   2.005  0.2445  0.1842  0.0053
  423SOL    HW1 1268   1.033   1.422   1.913 -0.1398 -0.1525 -0.5819
  423SOL    HW2 1269   1.090   1.560   1.988  0.1257  0.5310 -1.3229
  424SOL     OW 1270   1.765   2.064   0.620  0.0363  0.0192  0.1359
  424SOL    HW1 1271   1.707   2.066   0.531 -1.4575 -0.0435 -0.4482
  424SOL    HW2 1272   1.718   2.007   0.688 -0.9987  1.1700 -0.0769
  425SOL     OW 1273   2.895   2.929   2.083 -0.1569  0.8634 -0.2672
  425SOL    HW1 1274   2.801   2.905   2.116 -0.5166 -0.0500 -0.2141
  425SOL    HW2 1275   2.885   2.974   1.990 -0.9631  2.8776  0.0664
  426SOL     OW 1276   0.330   2.900   2.738 -0.2510 -0.2793 -0.2769
  426SOL    HW1 1277   0.339   2.895   2.839 -1.4133  1.9104  2.9336
  426SOL    HW2 1278   0.246   2.950   2.708  0.9171 -0.1083 -1.0184
  427SOL     OW 1279   0.926   3.027   0.054  0.0207 -0.3646  0.2600
  427SOL    HW1 1280   0.830   3.055   0.087  0.4864 -0.0730 -2.6673
  427SOL    HW2 1281   0.927   2.928   0.035  0.0693 -0.2174 -0.6273
  428SOL     OW 1282   2.808   0.486   1.565  0.0293  0.5381 -0.0200
  428SOL    HW1 1283   2.827   0.388   1.584 -1.3602  1.3178 -2.3818
  428SOL    HW2 1284   2.752   0.497   1.480 -1.7274 -1.1838 -0.5591
  429SOL     OW 1285   2.125   2.944   0.602 -0.4953  0.7958 -0.6350
  429SOL    HW1 1286   2.060   2.869   0.569 -0.0795 -0.0421 -1.4085
  429SOL    HW2 1287   2.201   2.938   0.536 -1.2853  0.2982 -0.3417
  430SOL     OW 1288   1.182   1.301   2.661 -0.6185  0.9151  0.6490
  430SOL    HW1 1289   1.213   1.358   2.737  0.9656 -0.0285  0.5014
  430SOL    HW2 1290   1.108   1.347   2.609  0.4014 -1.0554 -0.2259
  431SOL     OW 1291   2.782   2.272   1.194 -0.1510  0.4823 -0.2959
  431SOL    HW1 1292   2.878   2.286   1.170 -2.1691  0.1706  2.8923
  431SOL    HW2 1293   2.723   2.235   1.117 -0.9369 -0.2892  0.9866
  432SOL     OW 1294   1.592   2.336   2.818 -0.3462  0.2377  0.2733
  432SOL    HW1 1295   1.590   2.292   2.726 -3.3212  0.3107  0.1187
  432SOL    HW2 1296   1.587   2.270   2.894  0.7319  0.5055 -0.1497
  433SOL     OW 1297   1.245   0.394   2.516  0.9565 -0.2544 -0.1269
  433SOL    HW1 1298   1.250   0.414   2.417 -3.0294  1.5441 -3.5242
  433SOL    HW2 1299   1.328   0.398   2.570 -4.2179 -1.4338 -1.3481
  434SOL     OW 1300   1.332   2.748   2.170  0.1213 -0.2261 -0.2521
  434SOL    HW1 1301   1.367   2.764   2.267  1.6683  0.4810  2.1344
  434SOL    HW2 1302   1.412   2.747   2.107  0.9842  2.7198  0.8029
  435SOL     OW 1303   0.248   0.093   2.990  0.4650  0.2029 -0.2600
  435SOL    HW1 1304   0.263   0.090   3.091 -0.0077 -0.5600  1.8702
  435SOL    HW2 1305   0.166   0.153   2.968 -2.4768 -0.6770  3.3499
  436SOL     OW 1306   0.559   1.257   2.443  0.1765  0.0179  0.2356
  436SOL    HW1 1307   0.466   1.281   2.473 -2.1570 -0.7158  1.1167
  436SOL    HW2 1308   0.587   1.331   2.371 -0.2107  3.3403 -2.5757
  437SOL     OW 1309   1.224   2.468   2.540  0.2040  0.0099 -0.0540
  437SOL    HW1 1310   1.255   2.440   2.447 -1.4650  0.8470  1.3240
  437SOL    HW2 1311   1.142   2.533   2.535 -0.3483 -0.2177 -0.4042
  438SOL     OW 1312   0.585   0.885   0.670 -0.2449 -0.1814 -0.0320
  438SOL    HW1 1313   0.542   0.833   0.741 -0.5450  1.5464 -0.7936
  438SOL    HW2 1314   0.651   0.836   0.612 -2.0968  2.7377  2.3270
  439SOL     OW 1315   2.969   1.557   2.036  0.8505 -0.2687  0.5061
  439SOL    HW1 1316   2.923   1.485   2.096  2.9596 -1.8511 -0.0025
  439SOL    HW2 1317   2.911   1.635   2.015  3.6620  1.2434  0.7851
  440SOL     OW 1318   2.825   0.786   2.713  0.2758  0.4290  0.3834
  440SOL    HW1 1319   2.763   0.726   2.662 -0.8813  0.6245 -0.3113
  440SOL    HW2 1320   2.807   0.885   2.692  1.5426  1.2412 -1.4283
  441SOL     OW 1321   0.660   1.805   1.487 -0.3199  0.0939 -0.5079
  441SOL    HW1 1322   0.562   1.779   1.502  1.3317 -0.0332  1.4092
  441SOL    HW2 1323   0.676   1.897   1.523  0.1429 -0.7332  1.9354
  442SOL     OW 1324   1.936   1.469   0.773 -0.7650  0.1195  0.4230
  442SOL    HW1 1325   1.953   1.436   0.679 -2.6135 -1.4136 -0.8814
  442SOL    HW2 1326   1.846   1.518   0.781  1.5159 -0.1643 -1.9398
  443SOL     OW 1327   2.395   2.122   2.954 -0.4737  0.0336 -0.1152
  443SOL    HW1 1328   2.350   2.145   2.866 -2.1487  1.4331  0.0214
  443SOL    HW2 1329   2.496   2.124   2.941  2.0138 -0.0126  0.3853
  444SOL     OW 1330   1.714   1.475   3.002 -0.1856 -0.0794  0.0443
  444SOL    HW1 1331   1.660   1.562   2.995 -0.1731 -1.8549 -0.7478
  444SOL    HW2 1332   1.706   1.424   2.913  0.0365 -0.8649  0.4587
  445SOL     OW 1333   0.435   2.219   2.013  0.3812  0.4392  0.3374
  445SOL    HW1 1334   0.495   2.292   2.054  1.9707  0.6120 -1.1367
  445SOL    HW2 1335   0.345   2.207   2.062 -1.5786 -0.5785 -0.5437
  446SOL     OW 1336   0.925   1.079   1.832 -0.7572  0.0680 -0.1313
  446SOL    HW1 1337   1.006   1.015   1.812  0.9743 -0.6703 -0.7411
  446SOL    HW2 1338   0.864   1.041   1.901 -0.0495  0.9513 -0.4713
  447SOL     OW 1339   0.764   0.726   0.555  0.2995  0.3581  0.2578
  447SOL    HW1 1340   0.703   0.656   0.520  0.8215 -2.6989 -2.0200
  447SOL    HW2 1341   0.847   0.734   0.495  1.8684 -1.3642 -0.2153
  448SOL     OW 1342   1.317   1.119   2.032  0.3452  0.0245  0.0073
  448SOL    HW1 1343   1.283   1.155   1.941 -1.9482 -0.2290  1.7663
  448SOL    HW2 1344   1.417   1.098   2.033  1.8876  0.1982  0.5940
  449SOL     OW 1345   0.125   1.590   2.381  0.0378  0.0906  0.0825
  449SOL    HW1 1346   0.087   1.624   2.469 -1.0075  0.1704  0.5184
  449SOL    HW2 1347   0.129   1.664   2.311  0.2376  0.1051  1.4385
  450SOL     OW 1348   2.159   1.406   1.899 -0.2009  0.1930  0.1864
  450SOL    HW1 1349   2.128   1.499   1.928 -0.6852 -2.9295 -0.6855
  450SOL    HW2 1350   2.262   1.402   1.881  2.4513 -1.1948 -0.9593
  451SOL     OW 1351   2.401   1.482   1.386  0.3985  0.5103  0.0366
  451SOL    HW1 1352   2.450   1.398   1.411  0.2479  1.2707  0.6008
  451SOL    HW2 1353   2.450   1.531   1.313 -2.4616  0.0537  0.8922
  452SOL     OW 1354   0.787   1.021   1.338  0.2949 -0.4112 -0.4578
  452SOL    HW1 1355   0.791   1.017   1.439 -2.6758  0.2262 -0.7811
  452SOL    HW2 1356   0.879   1.013   1.296  2.2572 -1.5249  0.8541
  453SOL     OW 1357   0.273   1.985   0.998 -0.1391 -0.4832 -0.1908
  453SOL    HW1 1358   0.193   2.006   1.056  1.1331 -0.1171  0.5633
  453SOL    HW2 1359   0.262   1.989   0.897  2.6487  0.4264 -0.5923
  454SOL     OW 1360   1.188   1.211   0.271  0.8857 -0.8003 -0.8530
  454SOL    HW1 1361   1.275   1.256   0.239 -0.4866  0.9479 -1.3086
  454SOL    HW2 1362   1.212   1.161   0.361 -1.7021 -0.1860 -0.9352
  455SOL     OW 1363   1.807   0.496   0.755  0.0229 -0.0083  0.8565
  455SOL    HW1 1364   1.834   0.398   0.756 -0.0001  0.7125 -0.8931
  455SOL    HW2 1365   1.831   0.548   0.670  0.4828  2.4440  3.2071
  456SOL     OW 1366   1.852   2.885   0.278 -0.2092  0.5209 -0.2440
  456SOL    HW1 1367   1.822   2.799   0.233 -0.0991 -1.5239  0.8840
  456SOL    HW2 1368   1.783   2.961   0.277 -0.2943  1.4240 -0.0184
  457SOL     OW 1369   2.112   1.160   1.992  0.0866  0.0729 -0.1948
  457SOL    HW1 1370   2.132   1.257   1.966  0.7398 -0.5530 -1.4502
  457SOL    HW2 1371   2.134   1.151   2.092 -2.6957  2.0324  0.3108
  458SOL     OW 1372   2.539   0.466   2.402 -0.2074 -0.6522 -0.2113
  458SOL    HW1 1373   2.461   0.529   2.432  0.9590  1.4878  1.6334
  458SOL    HW2 1374   2.570   0.497   2.306  2.0724 -0.0035 -2.1900
  459SOL     OW 1375   2.509   1.532   2.572 -0.3784 -0.2482 -0.3615
  459SOL    HW1 1376   2.588   1.564   2.632  1.4482  1.1639  0.5168
  459SOL    HW2 1377   2.502   1.437   2.564  0.3222  5.4641  1.3659
  460SOL     OW 1378   0.905   0.875   2.537 -0.4051 -0.2085  0.0943
  460SOL    HW1 1379   0.896   0.948   2.467  0.4032 -1.2868  0.7017
  460SOL    HW2 1380   0.990   0.899   2.590  0.4233 -0.8624 -2.8962
  461SOL     OW 1381   0.047   2.368   0.137 -0.0687 -0.1830 -0.5198
  461SOL    HW1 1382   0.127   2.385   0.199  0.4178  2.4892 -1.2886
  461SOL    HW2 1383   3.090   2.448   0.118 -0.5364 -0.7980 -0.1431
  462SOL     OW 1384   1.419   2.803   2.423 -0.4989 -0.6515 -0.3779
  462SOL    HW1 1385   1.444   2.762   2.511  1.4095  1.6452 -0.8213
  462SOL    HW2 1386   1.472   2.888   2.403  2.9102  1.9660 -1.4257
  463SOL     OW 1387   2.051   2.117   1.971 -0.4837  0.3437 -0.1944
  463SOL    HW1 1388   1.988   2.037   1.978  3.3803  1.5306  2.1720
  463SOL    HW2 1389   2.143   2.096   2.014  0.7089 -0.7559  2.1397
  464SOL     OW 1390   2.538   2.489   0.781 -0.0698 -0.4164  0.2322
  464SOL    HW1 1391   2.444   2.477   0.747  2.2824  0.4757  1.8280
  464SOL    HW2 1392   2.559   2.587   0.798  1.6318  0.0031 -0.2980
  465SOL     OW 1393   0.031   0.082   1.499  0.3635 -0.3862 -0.0806
  465SOL    HW1 1394   0.078   0.048   1.416  0.5360  0.9967  0.9395
  465SOL    HW2 1395   0.101   0.110   1.563 -2.9327 -0.3907  0.8788
  466SOL     OW 1396   1.382   2.521   2.801 -0.1904 -0.7091  0.0212
  466SOL    HW1 1397   1.462   2.460   2.816  1.1759  1.1064 -0.5330
  466SOL    HW2 1398   1.317   2.482   2.736  1.6030  0.5585 -0.0497
  467SOL     OW 1399   3.081   2.116   0.254 -0.8016  0.1224 -0.7197
  467SOL    HW1 1400   2.990   2.085   0.228  0.1467  3.1842  0.0409
  467SOL    HW2 1401   0.001   2.210   0.220  1.8758 -0.5916  0.7751
  468SOL     OW 1402   2.095   2.312   2.824  0.4085  0.1679  0.0050
  468SOL    HW1 1403   2.154   2.248   2.766  1.0917 -2.7835 -2.7460
  468SOL    HW2 1404   1.996   2.283   2.806 -2.9400 -1.3379  0.9470
  469SOL     OW 1405   0.878   1.884   0.713 -0.4147  0.2126  0.6135
  469SOL    HW1 1406   0.818   1.911   0.785  3.5518  2.7442 -2.8709
  469SOL    HW2 1407   0.936   1.966   0.705 -0.2869  0.7637  0.2405
  470SOL     OW 1408   1.971   0.722   0.656  0.1205 -0.0874  0.4928
  470SOL    HW1 1409   2.061   0.684   0.618  0.3508 -0.2612 -1.2871
  470SOL    HW2 1410   1.978   0.754   0.748 -2.5148 -1.4112 -2.3263
  471SOL     OW 1411   0.303   1.910   0.534 -0.1162  0.3704  0.4174
  471SOL    HW1 1412   0.380   1.912   0.463 -3.1023  1.3797 -0.2806
  471SOL    HW2 1413   0.313   1.984   0.602 -0.4830 -3.3011 -0.0101
  472SOL     OW 1414   2.649   2.148   2.880  0.5270  0.3730 -0.3987
  472SOL    HW1 1415   2.724   2.152   2.944 -1.2326 -0.3089 -1.6289
  472SOL    HW2 1416   2.674   2.197   2.798  1.0622  0.2487  0.9924
  473SOL     OW 1417   1.388   1.773   0.736  0.0265 -0.4890  0.0513
  473SOL    HW1 1418   1.482   1.797   0.753 -1.1156  0.6585 -1.4521
  473SOL    HW2 1419   1.361   1.783   0.643  3.3618  0.1084 -0.1059
  474SOL     OW 1420   2.864   0.425   1.134  0.2466 -0.2999  0.2458
  474SOL    HW1 1421   2.831   0.418   1.037 -1.1838 -1.7167 -1.2130
  474SOL    HW2 1422   2.955   0.387   1.143  0.5241 -0.4037 -1.7345
  475SOL     OW 1423   2.898   3.050   1.831  0.7646  0.2553 -0.4927
  475SOL    HW1 1424   2.905   3.011   1.738 -0.2855 -1.2520 -1.4064
  475SOL    HW2 1425   2.845   0.037   1.829  0.6553 -3.7678  0.2287
  476SOL     OW 1426   0.543   0.294   0.941  0.0507 -0.0498  0.1076
  476SOL    HW1 1427   0.612   0.372   0.937 -0.4884  0.4266  0.7049
  476SOL    HW2 1428   0.542   0.236   0.855  0.1527  0.1134 -0.5005
  477SOL     OW 1429   1.307   2.494   1.191  0.4189  0.0149  0.1150
  477SOL    HW1 1430   1.302   2.485   1.290  0.5866  1.6774 -4.1700
  477SOL    HW2 1431   1.361   2.415   1.150 -0.9557 -0.4189  1.0174
  478SOL     OW 1432   1.178   2.681   0.147 -0.1504 -0.1353  0.1268
  478SOL    HW1 1433   1.198   2.673   0.049  1.6612 -0.5749  0.9669
  478SOL    HW2 1434   1.255   2.723   0.196 -1.2194 -0.2150  1.5929
  479SOL     OW 1435   2.562   1.160   2.193  0.4051  0.0107 -0.3035
  479SOL    HW1 1436   2.485   1.110   2.236  0.7449  0.2878  0.1792
  479SOL    HW2 1437   2.592   1.108   2.108 -0.4974 -1.1385 -1.2476
  480SOL     OW 1438   2.721   2.289   2.662  0.6672 -0.1455 -1.0054
  480SOL    HW1 1439   2.757   2.257   2.571 -0.2548  2.1519 -0.7751
  480SOL    HW2 1440   2.621   2.320   2.654 -0.8918  1.1630 -0.0539
  481SOL     OW 1441   1.606   2.659   1.629  0.5706 -0.2344 -0.0711
  481SOL    HW1 1442   1.691   2.612   1.665 -0.0535  0.8950  0.5588
  481SOL    HW2 1443   1.623   2.683   1.531  1.6049  1.4214 -1.1764
  482SOL     OW 1444   1.570   2.245   2.349  0.2315 -0.1887  0.0674
  482SOL    HW1 1445   1.574   2.200   2.261 -0.7145  1.2964  3.2957
  482SOL    HW2 1446   1.555   2.344   2.335  0.9942 -1.4500 -0.9962
  483SOL     OW 1447   1.204   2.675   2.951 -0.9304  0.2825  0.0670
  483SOL    HW1 1448   1.187   2.738   2.873  0.6824 -0.0813 -0.2777
  483SOL    HW2 1449   1.282   2.612   2.926  1.7737 -1.2122 -0.8013
  484SOL     OW 1450   2.385   2.975   1.575 -0.2963 -0.3063 -0.0216
  484SOL    HW1 1451   2.299   2.950   1.626 -4.3870 -1.6794  2.3623
  484SOL    HW2 1452   2.441   2.889   1.576  0.3327  0.0934 -0.0862
  485SOL     OW 1453   1.972   0.592   0.337  0.8265  0.5773  0.5446
  485SOL    HW1 1454   1.963   0.677   0.291  0.2332  1.3554 -0.7033
  485SOL    HW2 1455   1.890   0.569   0.392 -2.7250  0.5912  1.4136
  486SOL     OW 1456   2.423   2.698   2.475  0.2319 -0.2844  0.2018
  486SOL    HW1 1457   2.462   2.755   2.550  2.4606  2.3213 -0.8592
  486SOL    HW2 1458   2.370   2.613   2.504 -4.1518 -2.1638 -0.3542
  487SOL     OW 1459   1.260   0.868   0.775 -0.2284  0.4916 -0.0201
  487SOL    HW1 1460   1.180   0.877   0.713  1.7379 -0.5869 -2.1901
  487SOL    HW2 1461   1.229   0.879   0.873 -1.0548 -0.9122  3.1751
  488SOL     OW 1462   2.708   2.890   2.346  0.7294 -0.7250 -0.0369
  488SOL    HW1 1463   2.690   2.878   2.250 -0.2869  0.6949  4.3337
  488SOL    HW2 1464   2.624   2.934   2.381 -2.8181  2.0378  1.0248
  489SOL     OW 1465   1.194   2.747   0.464  0.8502 -0.2556 -0.1230
  489SOL    HW1 1466   1.142   2.793   0.539 -0.8668  0.6805  0.1784
  489SOL    HW2 1467   1.140   2.667   0.425  0.2723  0.8128  1.7933
  490SOL     OW 1468   1.567   0.644   2.977 -0.4656 -0.0563  0.2179
  490SOL    HW1 1469   1.569   0.728   2.917  1.2870  1.7482 -1.5970
  490SOL    HW2 1470   1.473   0.644   3.019 -2.6500  3.6090 -0.5471
  491SOL     OW 1471   0.912   3.095   1.240 -0.1932  0.4318 -0.4023
  491SOL    HW1 1472   0.834   0.053   1.199 -0.7921 -0.6627 -2.0407
  491SOL    HW2 1473   0.894   3.075   1.339 -1.1625  1.3043 -1.0282
  492SOL     OW 1474   1.547   2.723   0.187  0.5182  0.6004  0.3656
  492SOL    HW1 1475   1.513   2.707   0.281  2.4480 -0.0405  1.3278
  492SOL    HW2 1476   1.565   2.823   0.183  1.4290  1.4205  1.5323
  493SOL     OW 1477   1.010   1.912   2.955  0.8364 -0.3524  0.1463
  493SOL    HW1 1478   1.055   1.860   2.882  0.1306  2.6733 -0.1440
  493SOL    HW2 1479   0.997   2.010   2.927 -1.2185  2.5189  1.7802
  494SOL     OW 1480   0.879   0.361   0.499  0.1832 -0.1850 -0.3724
  494SOL    HW1 1481   0.822   0.445   0.487 -1.9797  3.1178 -2.3202
  494SOL    HW2 1482   0.958   0.372   0.430  1.2830  0.1922  0.4675
  495SOL     OW 1483   2.764   0.171   1.841  0.6583 -0.2673  0.2934
  495SOL    HW1 1484   2.829   0.226   1.784 -1.9400  3.3884  0.2850
  495SOL    HW2 1485   2.741   0.222   1.925  1.6235  1.2221  1.1770
  496SOL     OW 1486   2.358   1.913   2.443  0.1217  0.7573  0.8841
  496SOL    HW1 1487   2.292   1.888   2.371 -1.1367  2.8248  1.7263
  496SOL    HW2 1488   2.443   1.866   2.422  1.2554  2.8759  1.4120
  497SOL     OW 1489   1.551   1.159   2.725 -0.2310 -0.4964 -0.8965
  497SOL    HW1 1490   1.616   1.236   2.725 -0.3070  1.6361 -0.0347
  497SOL    HW2 1491   1.480   1.168   2.797 -1.3266  0.4730  1.6888
  498SOL     OW 1492   0.723   2.810   1.197 -0.1803  0.4561  0.6809
  498SOL    HW1 1493   0.657   2.881   1.169 -0.9626  1.9956 -3.3406
  498SOL    HW2 1494   0.694   2.711   1.170  1.6259 -2.7453 -1.7054
  499SOL     OW 1495   0.057   2.030   1.149  0.4588 -0.2976 -0.4297
  499SOL    HW1 1496   0.007   1.994   1.066  0.9900  0.2027 -0.5136
  499SOL    HW2 1497   0.031   1.970   1.230 -2.0343  1.7064  1.3700
  500SOL     OW 1498   0.651   2.652   2.714 -0.2907  0.7105  0.0303
  500SOL    HW1 1499   0.554   2.630   2.721 -0.9409  0.1187  3.4836
  500SOL    HW2 1500   0.677   2.675   2.618  0.4276 -1.5154 -0.9390
  501SOL     OW 1501   1.680   3.045   0.012 -0.2447  0.1443 -0.2391
  501SOL    HW1 1502   1.719   0.041   0.029  2.8431  1.5526 -0.3910
  501SOL    HW2 1503   1.617   3.015   0.089  0.3306 -2.7964 -0.0443
  502SOL     OW 1504   3.008   0.086   0.702 -0.5361 -0.2055 -0.2085
  502SOL    HW1 1505   3.002   0.141   0.614 -0.2131  1.4288 -1.6114
  502SOL    HW2 1506   3.077   0.133   0.763  3.6359 -0.8565  1.2648
  503SOL     OW 1507   1.999   2.857   2.195  0.0117 -0.0067  0.4038
  503SOL    HW1 1508   2.066   2.831   2.267  0.3240  2.3474 -0.8685
  503SOL    HW2 1509   1.906   2.827   2.223 -2.5782  1.8185 -1.2245
  504SOL     OW 1510   2.417   1.420   1.866 -0.1260  0.0383 -0.2191
  504SOL    HW1 1511   2.420   1.504   1.804 -0.0572  2.3135 -0.0527
  504SOL    HW2 1512   2.484   1.349   1.834  1.7951 -1.7713 -0.2378
  505SOL     OW 1513   1.727   2.789   2.187 -0.1616 -0.8396 -0.2465
  505SOL    HW1 1514   1.673   2.845   2.253 -0.6713 -1.1454  1.5937
  505SOL    HW2 1515   1.677   2.789   2.096  0.2446  2.5555 -2.6799
  506SOL     OW 1516   0.156   0.684   2.143  0.1491  0.5162  0.0070
  506SOL    HW1 1517   0.139   0.603   2.083  0.8193  0.2618 -0.1565
  506SOL    HW2 1518   0.206   0.656   2.227  1.6484 -1.0419 -0.0663
  507SOL     OW 1519   1.743   0.470   0.471 -0.3906 -0.4817 -0.1866
  507SOL    HW1 1520   1.719   0.534   0.397  0.0639  0.8888 -0.4668
  507SOL    HW2 1521   1.668   0.419   0.507  0.6064 -0.1620  1.1096
  508SOL     OW 1522   2.027   0.586   1.791  0.2217  0.4242 -0.2620
  508SOL    HW1 1523   2.007   0.671   1.743  0.7570 -1.2768 -2.0576
  508SOL    HW2 1524   2.112   0.596   1.848  0.4163  0.1017 -1.0715
  509SOL     OW 1525   0.625   1.923   3.058 -0.3319  0.6067 -0.0785
  509SOL    HW1 1526   0.709   1.880   0.001 -0.3839  1.5884  1.0538
  509SOL    HW2 1527   0.554   1.930   0.040  0.8989 -1.3679  0.2479
  510SOL     OW 1528   0.215   0.888   0.987 -0.3317  0.4327 -0.2547
  510SOL    HW1 1529   0.126   0.867   0.938 -1.5126 -1.0175  1.2424
  510SOL    HW2 1530   0.260   0.969   0.942 -0.4378 -1.1860 -0.7642
  511SOL     OW 1531   1.511   1.012   1.201  0.0198  0.0099  0.8917
  511SOL    HW1 1532   1.598   0.960   1.211  0.8483  2.4622 -0.9986
  511SOL    HW2 1533   1.520   1.088   1.133  0.2836  0.5700 -0.1265
  512SOL     OW 1534   0.333   2.132   0.682  0.1255 -0.3382 -0.0047
  512SOL    HW1 1535   0.261   2.192   0.715  2.8189 -0.2027 -0.4150
  512SOL    HW2 1536   0.417   2.157   0.730  2.3630 -0.4752 -3.4934
  513SOL     OW 1537   0.227   2.413   0.985 -0.0744  0.2022 -0.1386
  513SOL    HW1 1538   0.197   2.448   1.078 -1.9851 -0.5907 -0.0441
  513SOL    HW2 1539   0.224   2.488   0.914 -0.1227  2.2596  0.4429
  514SOL     OW 1540   0.605   2.170   0.670  0.0850  0.3046 -0.5122
  514SOL    HW1 1541   0.686   2.214   0.715  0.8133 -3.5479  1.0949
  514SOL    HW2 1542   0.625   2.124   0.585  2.0332  2.2925  1.4306
  515SOL     OW 1543   2.953   0.256   3.072 -0.3195 -0.1085 -0.0607
  515SOL    HW1 1544   2.887   0.234   0.049  2.3354  0.0499  0.3007
  515SOL    HW2 1545   3.007   0.343   3.095 -0.1583  1.1196 -0.1494
  516SOL     OW 1546   2.195   3.095   1.353 -0.0658 -0.6660  0.2941
  516SOL    HW1 1547   2.148   3.035   1.421  1.7748  0.2081 -2.0112
  516SOL    HW2 1548   2.141   3.086   1.268  0.0715 -1.3781  0.9168
  517SOL     OW 1549   1.728   1.628   0.784 -0.1748 -0.1464 -0.2355
  517SOL    HW1 1550   1.753   1.696   0.708 -2.1335  4.2116 -2.0978
  517SOL    HW2 1551   1.705   1.671   0.876  2.6530  1.7870  0.3597
  518SOL     OW 1552   1.797   2.822   0.861 -0.2005 -0.1115 -0.0649
  518SOL    HW1 1553   1.739   2.781   0.935 -1.6897  1.8464 -0.6588
  518SOL    HW2 1554   1.801   2.755   0.782  1.2096 -1.5720  0.2171
  519SOL     OW 1555   2.899   2.555   0.124  0.1043 -0.3336 -0.1781
  519SOL    HW1 1556   2.899   2.600   0.217 -2.0653  3.8731  0.3209
  519SOL    HW2 1557   2.871   2.619   0.049  0.0524  2.8209 -3.1827
  520SOL     OW 1558   2.214   1.604   2.128  0.7041  0.1133  0.2018
  520SOL    HW1 1559   2.201   1.685   2.185 -0.2973 -1.8225 -1.0552
  520SOL    HW2 1560   2.240   1.521   2.183 -2.9389 -1.1405 -0.4264
  521SOL     OW 1561   1.485   2.997   1.929 -0.4806 -0.2054 -0.2148
  521SOL    HW1 1562   1.501   2.981   1.829 -2.1236  3.7868  0.3829
  521SOL    HW2 1563   1.390   2.966   1.955 -1.1247  0.1708 -0.4309
  522SOL     OW 1564   0.367   2.534   1.948  0.2960 -0.5253 -0.3513
  522SOL    HW1 1565   0.356   2.496   2.039  0.1951  1.1300 -3.4192
  522SOL    HW2 1566   0.288   2.594   1.922 -1.9447  1.1477 -0.6056
  523SOL     OW 1567   0.606   2.389   2.128  0.1395 -0.5702 -0.2933
  523SOL    HW1 1568   0.619   2.428   2.224  1.7684  2.1109 -1.9799
  523SOL    HW2 1569   0.619   2.465   2.059 -0.2184  0.1396 -0.7218
  524SOL     OW 1570   2.211   2.177   0.350  0.2984 -0.0621  0.4792
  524SOL    HW1 1571   2.195   2.085   0.306 -0.4689 -1.8662 -1.2189
  524SOL    HW2 1572   2.198   2.176   0.450  2.2444 -0.3338 -0.5450
  525SOL     OW 1573   2.656   0.606   2.606 -0.1891 -0.2817  0.0851
  525SOL    HW1 1574   2.608   0.553   2.533 -0.3275  1.8206 -0.0852
  525SOL    HW2 1575   2.605   0.599   2.691 -0.7273  2.1509 -0.3706
  526SOL     OW 1576   0.410   2.449   0.491 -0.0667 -1.0421  0.3854
  526SOL    HW1 1577   0.504   2.444   0.530  1.6093 -0.5733 -1.5494
  526SOL    HW2 1578   0.372   2.353   0.489 -2.0278 -0.8354  0.4792
  527SOL     OW 1579   2.876   1.039   0.890 -0.1972 -0.1788 -0.0837
  527SOL    HW1 1580   2.814   1.085   0.823 -1.1145 -0.4711 -0.8210
  527SOL    HW2 1581   2.828   0.981   0.959 -0.1181 -0.2654  0.7622
  528SOL     OW 1582   1.102   1.301   2.219  0.1256  0.0087 -0.0069
  528SOL    HW1 1583   1.096   1.365   2.141 -3.5987  0.2977 -1.7084
  528SOL    HW2 1584   1.114   1.360   2.306 -0.6528  2.3141 -0.8109
  529SOL     OW 1585   0.858   1.294   0.469  0.4554 -0.1687 -0.5768
  529SOL    HW1 1586   0.929   1.267   0.543 -0.9909 -2.4734 -2.3402
  529SOL    HW2 1587   0.805   1.210   0.447 -0.7255 -0.9161  0.4084
  530SOL     OW 1588   1.390   0.606   1.652  0.7305 -0.5573  0.0950
  530SOL    HW1 1589   1.451   0.675   1.609  2.0964 -0.1941 -0.1805
  530SOL    HW2 1590   1.436   0.539   1.713  0.6927 -1.8266 -3.4216
  531SOL     OW 1591   1.078   2.230   0.323  0.3541  0.6331 -0.4000
  531SOL    HW1 1592   1.068   2.325   0.296 -1.0058 -0.2346 -0.1340
  531SOL    HW2 1593   1.178   2.208   0.322 -0.2329  0.7192  0.2495
  532SOL     OW 1594   2.575   0.796   2.424 -0.1247 -0.2874 -0.3319
  532SOL    HW1 1595   2.598   0.722   2.486  1.1095  0.4039 -3.2223
  532SOL    HW2 1596   2.659   0.855   2.417  2.2220  2.1845 -0.7326
  533SOL     OW 1597   0.034   0.248   2.132  0.6802 -0.0783  0.0763
  533SOL    HW1 1598   3.044   0.292   2.170 -0.3466 -1.6918  1.0232
  533SOL    HW2 1599   0.012   0.158   2.082 -0.4654 -1.2905  0.5916
  534SOL     OW 1600   2.222   0.184   2.795 -0.0802  0.4821 -0.0382
  534SOL    HW1 1601   2.291   0.181   2.868 -2.6517  0.1969 -0.1428
  534SOL    HW2 1602   2.224   0.091   2.755 -0.6571  0.9268  0.1409
  535SOL     OW 1603   0.249   0.394   3.013 -0.1155 -0.0873 -0.0293
  535SOL    HW1 1604   0.308   0.349   3.079  4.3251  2.1720  0.4313
  535SOL    HW2 1605   0.304   0.449   2.945  2.1236  2.9506  0.8868
  536SOL     OW 1606   1.118   2.096   1.061 -0.1105  0.0268  0.9287
  536SOL    HW1 1607   1.077   2.047   1.139 -0.2300  1.4311 -1.7941
  536SOL    HW2 1608   1.095   2.192   1.059  0.3997 -5.0490  1.2896
  537SOL     OW 1609   2.840   2.510   1.503 -0.3526  0.0639  0.5452
  537SOL    HW1 1610   2.863   2.582   1.577 -0.5178  1.0492  2.4533
  537SOL    HW2 1611   2.752   2.467   1.525 -2.6446  1.2923  0.4004
  538SOL     OW 1612   0.657   2.471   0.623 -0.0443  0.2398  0.2364
  538SOL    HW1 1613   0.703   2.401   0.683  0.6050 -3.7311 -0.7245
  538SOL    HW2 1614   0.723   2.538   0.580 -0.2724 -1.3344 -1.9118
  539SOL     OW 1615   1.852   1.297   2.502 -0.1974 -0.1361 -0.3967
  539SOL    HW1 1616   1.777   1.247   2.451 -1.6451 -0.2883  0.7565
  539SOL    HW2 1617   1.897   1.366   2.441 -0.8810  0.9202  0.8515
  540SOL     OW 1618   1.888   0.618   2.844 -0.0513 -0.4339  0.3968
  540SOL    HW1 1619   1.920   0.627   2.941  0.8884 -4.8513  2.1753
  540SOL    HW2 1620   1.893   0.708   2.794  1.8208  0.0233  0.6737
  541SOL     OW 1621   1.018   1.068   2.375  0.2871 -0.3120 -0.3615
  541SOL    HW1 1622   1.065   1.014   2.300  0.6357  0.4901  0.5448
  541SOL    HW2 1623   0.995   1.158   2.333 -0.0844  0.6797  1.2259
  542SOL     OW 1624   1.439   2.549   1.808 -0.2079  0.4716  0.2966
  542SOL    HW1 1625   1.344   2.560   1.773 -1.5965  0.6619  1.2413
  542SOL    HW2 1626   1.501   2.583   1.733 -1.7418 -0.2074 -0.8247
  543SOL     OW 1627   0.612   2.789   3.033 -0.3313  0.1764  0.2128
  543SOL    HW1 1628   0.683   2.833   2.975 -1.2210 -0.4510 -1.8469
  543SOL    HW2 1629   0.524   2.829   3.023  2.5588 -4.7278  1.2951
  544SOL     OW 1630   0.075   2.055   2.225  0.0201 -0.2400  0.4985
  544SOL    HW1 1631   0.044   2.040   2.320  1.6045  1.6020  0.4817
  544SOL    HW2 1632   0.107   2.151   2.221 -0.9728  0.4663 -0.4074
  545SOL     OW 1633   1.415   1.857   1.595 -0.3098  0.2516 -0.0078
  545SOL    HW1 1634   1.395   1.861   1.495 -1.9689 -0.0052  0.1164
  545SOL    HW2 1635   1.348   1.804   1.653  1.3731 -0.6364 -0.3415
  546SOL     OW 1636   2.802   0.244   2.649  0.4520  0.3850  0.0838
  546SOL    HW1 1637   2.769   0.255   2.552 -1.0953  0.9293  0.8626
  546SOL    HW2 1638   2.895   0.281   2.654 -0.8501  2.9977  2.3772
  547SOL     OW 1639   1.582   3.050   0.770  0.0840 -0.1975  0.1488
  547SOL    HW1 1640   1.581   3.085   0.868 -0.6106  0.6244  2.5116
  547SOL    HW2 1641   1.642   2.971   0.760  2.4302 -0.0332 -1.0723
  548SOL     OW 1642   1.334   2.211   0.029 -0.2540 -0.0013  0.0946
  548SOL    HW1 1643   1.276   2.131   0.031  2.3036  2.3943  0.6382
  548SOL    HW2 1644   1.280   2.298   0.043 -0.3008 -0.0386  4.2527
  549SOL     OW 1645   1.985   0.600   3.079 -0.3016 -0.4612 -0.3244
  549SOL    HW1 1646   2.031   0.517   0.019 -1.8201  0.9331  0.2902
  549SOL    HW2 1647   2.045   0.679   0.009 -0.3039  2.3364 -1.6269
  550SOL     OW 1648   2.538   1.838   0.842  0.1616  0.7448 -0.1379
  550SOL    HW1 1649   2.490   1.898   0.773  1.1783  0.7642  0.5820
  550SOL    HW2 1650   2.608   1.787   0.793 -2.3851  2.7064  0.1477
  551SOL     OW 1651   1.094   0.237   1.285 -0.2425  0.1562  0.5732
  551SOL    HW1 1652   1.020   0.285   1.331 -0.1348  0.7170  2.5947
  551SOL    HW2 1653   1.058   0.148   1.250  1.4350 -1.3268 -0.3881
  552SOL     OW 1654   0.408   1.799   2.723 -0.1502  0.4984 -0.1407
  552SOL    HW1 1655   0.409   1.750   2.634  2.7684  2.5233  1.0133
  552SOL    HW2 1656   0.399   1.734   2.802 -0.1195 -1.5040 -1.6171
  553SOL     OW 1657   2.559   2.448   0.013  0.2124  0.3807 -0.1229
  553SOL    HW1 1658   2.484   2.384   3.092  3.0364  0.8670  1.3455
  553SOL    HW2 1659   2.569   2.462   0.114 -2.2364  0.4189  1.4985
  554SOL     OW 1660   1.955   1.448   1.413 -0.0837 -0.4149 -0.3768
  554SOL    HW1 1661   1.981   1.400   1.500 -1.8466  1.9114  0.8464
  554SOL    HW2 1662   1.889   1.524   1.432  1.5895 -0.8653  1.1155
  555SOL     OW 1663   0.583   2.494   2.395 -0.0167  0.3168  0.3383
  555SOL    HW1 1664   0.557   2.441   2.482 -1.1697  0.6153 -0.0855
  555SOL    HW2 1665   0.511   2.566   2.380 -1.4632  1.5879 -0.2398
  556SOL     OW 1666   1.424   1.111   1.444 -0.1092  0.3555  0.0028
  556SOL    HW1 1667   1.448   1.069   1.355 -0.9639 -0.5797  1.6750
  556SOL    HW2 1668   1.413   1.211   1.439  0.0327 -3.3319 -1.1452
  557SOL     OW 1669   1.472   2.898   1.185  0.3870  0.0735  0.1230
  557SOL    HW1 1670   1.491   2.804   1.159  0.8416  1.1545  1.2158
  557SOL    HW2 1671   1.413   2.903   1.269 -1.5120  1.7598  0.9717
  558SOL     OW 1672   0.472   0.843   2.353  0.6538  0.0458  0.0121
  558SOL    HW1 1673   0.393   0.786   2.328  3.3427 -1.3001 -1.2665
  558SOL    HW2 1674   0.519   0.811   2.435  0.1647 -1.5388  2.5171
  559SOL     OW 1675   0.911   2.696   0.250  0.0261  0.0552 -0.8468
  559SOL    HW1 1676   0.896   2.787   0.299 -0.1607  2.6206 -0.6010
  559SOL    HW2 1677   1.007   2.687   0.219 -0.6121  0.0731  0.8321
  560SOL     OW 1678   1.635   2.057   0.389  0.4876  0.4921 -0.2973
  560SOL    HW1 1679   1.712   2.065   0.324 -2.2784 -1.8368  0.9496
  560SOL    HW2 1680   1.550   2.099   0.358  0.6852 -0.9164 -0.7071
  561SOL     OW 1681   1.054   2.929   0.582  0.1433 -0.6804  0.3801
  561SOL    HW1 1682   1.108   3.009   0.549 -2.4469 -2.0927 -1.3122
  561SOL    HW2 1683   1.038   2.934   0.681  1.2909  0.2634 -0.7890
  562SOL     OW 1684   0.551   1.060   2.246  0.1644  0.2261 -0.2963
  562SOL    HW1 1685   0.558   1.129   2.320 -1.8223 -0.2611  1.4348
  562SOL    HW2 1686   0.495   0.980   2.282 -0.6748  0.3782  1.1572
  563SOL     OW 1687   1.160   2.061   2.453 -0.3518  0.3251 -0.3634
  563SOL    HW1 1688   1.183   2.102   2.358  0.6379  2.3688 -2.7448
  563SOL    HW2 1689   1.189   1.961   2.462  0.1938 -1.9667 -0.8243
  564SOL     OW 1690   2.494   0.619   1.259  0.1198 -0.0346 -0.2482
  564SOL    HW1 1691   2.441   0.569   1.188 -0.1178 -2.6975 -0.9911
  564SOL    HW2 1692   2.478   0.714   1.255  0.3949 -1.9076  1.5375
  565SOL     OW 1693   1.398   0.934   0.333 -0.4685  0.0652 -0.4961
  565SOL    HW1 1694   1.374   0.950   0.236  1.0075  1.0066  2.1135
  565SOL    HW2 1695   1.334   0.983   0.398  1.8303 -2.1897  1.9308
  566SOL     OW 1696   2.437   2.715   2.900  0.0926  0.1093 -0.0767
  566SOL    HW1 1697   2.518   2.660   2.876  0.6365  0.2332 -0.7180
  566SOL    HW2 1698   2.362   2.659   2.945 -1.4876  0.6962 -4.3651
  567SOL     OW 1699   1.935   0.737   1.002 -0.2096  0.0671 -0.0772
  567SOL    HW1 1700   1.863   0.778   1.057  0.2055  2.9759 -2.5549
  567SOL    HW2 1701   1.965   0.650   1.043  1.1974  0.2395 -2.6768
  568SOL     OW 1702   1.162   1.047   2.623  0.0086  0.3073 -0.4970
  568SOL    HW1 1703   1.182   1.143   2.653  1.8024  1.3853  0.5768
  568SOL    HW2 1704   1.109   1.044   2.534  0.4181 -0.5268 -0.9789
  569SOL     OW 1705   2.108   1.637   0.900 -0.6881  0.2298 -0.2776
  569SOL    HW1 1706   2.055   1.561   0.854  0.2810  0.3517 -1.1353
  569SOL    HW2 1707   2.114   1.633   1.000 -1.2471 -0.8773 -3.2473
  570SOL     OW 1708   2.504   2.553   2.281 -0.2359 -0.2422  0.1743
  570SOL    HW1 1709   2.445   2.614   2.333 -1.5981  0.2971 -0.5957
  570SOL    HW2 1710   2.503   2.592   2.185  0.4679  3.1146 -2.0523
  571SOL     OW 1711   3.061   2.000   1.664  0.2147  0.5632 -0.3635
  571SOL    HW1 1712   3.004   2.053   1.604  0.4168 -1.6463  1.3448
  571SOL    HW2 1713   3.016   1.981   1.753 -2.3962 -0.7872 -0.1442
  572SOL     OW 1714   1.075   2.240   2.633  0.0867  0.5115 -0.3011
  572SOL    HW1 1715   1.122   2.331   2.610  1.6210  0.5941 -1.5489
  572SOL    HW2 1716   1.105   2.175   2.558  1.3699 -0.2305 -1.7374
  573SOL     OW 1717   1.530   2.313   1.416  0.1778  0.0697  0.3626
  573SOL    HW1 1718   1.445   2.362   1.448 -0.0724  0.4132  0.9823
  573SOL    HW2 1719   1.577   2.284   1.504  2.4065 -0.5175  1.9877
  574SOL     OW 1720   1.145   2.727   1.494 -0.2611  0.5875  0.6318
  574SOL    HW1 1721   1.054   2.751   1.451  0.4866 -0.3477  0.5632
  574SOL    HW2 1722   1.134   2.700   1.589  0.6579  1.6829 -0.6806
  575SOL     OW 1723   0.681   0.519   0.909 -0.5312 -0.3804 -0.2688
  575SOL    HW1 1724   0.758   0.526   0.843 -0.0291  0.3500  0.3499
  575SOL    HW2 1725   0.706   0.533   1.006  2.1305  2.7991  2.6827
  576SOL     OW 1726   2.148   0.630   1.448  0.1233  0.0025  0.3697
  576SOL    HW1 1727   2.113   0.693   1.514  1.8525 -0.3344 -0.9547
  576SOL    HW2 1728   2.201   0.684   1.384 -0.0292  1.6723  0.9901
  577SOL     OW 1729   1.978   0.170   2.963  0.5166 -0.1851  0.2485
  577SOL    HW1 1730   2.066   0.186   2.915 -0.7860 -0.7168  2.4879
  577SOL    HW2 1731   1.901   0.165   2.896 -1.9968 -1.4322  0.4589
  578SOL     OW 1732   1.636   1.908   1.971  0.5459  0.2403 -0.2700
  578SOL    HW1 1733   1.633   1.805   1.965 -0.7681 -0.3489 -1.8761
  578SOL    HW2 1734   1.664   1.951   1.887  0.4769 -0.9719  0.4204
  579SOL     OW 1735   0.848   1.631   1.004 -0.3852  0.0579 -0.3221
  579SOL    HW1 1736   0.935   1.664   0.968  0.0971 -1.6136  0.7793
  579SOL    HW2 1737   0.777   1.640   0.938  1.6544  0.1320 -0.1712
  580SOL     OW 1738   1.151   0.032   3.007 -0.0341  0.5656 -0.0534
  580SOL    HW1 1739   1.069   3.092   3.062 -3.2450 -2.9372 -0.0083
  580SOL    HW2 1740   1.207   0.095   3.067  0.3557 -0.8462  1.0013
  581SOL     OW 1741   1.156   0.962   1.731 -0.4073 -0.1606 -0.3888
  581SOL    HW1 1742   1.207   0.879   1.759  0.5066  1.7808 -1.0000
  581SOL    HW2 1743   1.155   0.970   1.628  0.4554  0.6293 -0.6409
  582SOL     OW 1744   0.294   0.382   0.964  0.1906  0.1877  0.0580
  582SOL    HW1 1745   0.277   0.434   0.880  3.1802  0.5762 -0.1211
  582SOL    HW2 1746   0.388   0.342   0.966 -0.3160 -0.1429 -0.6891
  583SOL     OW 1747   0.829   1.938   1.834 -0.2898  0.0993  0.6633
  583SOL    HW1 1748   0.775   1.850   1.815  0.9828  1.0102 -2.8071
  583SOL    HW2 1749   0.930   1.919   1.828  3.0025  0.8106  0.0719
  584SOL     OW 1750   2.601   2.477   0.273  0.4070 -0.2445  0.0960
  584SOL    HW1 1751   2.664   2.540   0.320 -2.2867 -0.7141 -1.0178
  584SOL    HW2 1752   2.509   2.502   0.309  1.6645  1.5218  0.5085
  585SOL     OW 1753   2.281   0.566   2.869  0.0975 -0.4475 -0.8967
  585SOL    HW1 1754   2.283   0.521   2.963  0.5778 -0.3753  0.5466
  585SOL    HW2 1755   2.274   0.503   2.788  1.4041 -0.9559 -1.1574
  586SOL     OW 1756   0.527   1.353   0.261 -0.1645  0.4389  0.3203
  586SOL    HW1 1757   0.567   1.424   0.329  2.3495  1.9065  2.8224
  586SOL    HW2 1758   0.430   1.375   0.252  1.8612 -3.6140 -0.0533
  587SOL     OW 1759   1.734   2.119   1.325  0.1086 -0.1009 -0.0458
  587SOL    HW1 1760   1.731   2.085   1.230  1.6456 -2.0273 -2.5925
  587SOL    HW2 1761   1.643   2.155   1.360 -1.2892 -2.4365 -1.7422
  588SOL     OW 1762   0.517   0.659   1.293 -0.0112 -0.3119 -0.6249
  588SOL    HW1 1763   0.606   0.629   1.249 -0.3185  1.0091 -0.3198
  588SOL    HW2 1764   0.441   0.661   1.225  1.7172 -1.7044  0.8905
  589SOL     OW 1765   2.065   2.884   0.862  0.1136 -0.0457  0.2583
  589SOL    HW1 1766   2.100   2.907   0.767 -1.6815 -0.8652 -1.9667
  589SOL    HW2 1767   1.959   2.871   0.859 -3.7691  0.7209 -1.0879
  590SOL     OW 1768   1.678   0.992   0.399  0.1631 -0.6534 -0.4337
  590SOL    HW1 1769   1.737   0.950   0.329  0.8808  3.2188 -0.3589
  590SOL    HW2 1770   1.575   0.981   0.381 -1.0248  1.8330 -1.0844
  591SOL     OW 1771   2.295   2.042   2.067 -0.2261 -0.0414 -0.3315
  591SOL    HW1 1772   2.345   1.956   2.054  3.1531  1.5178 -0.5852
  591SOL    HW2 1773   2.353   2.125   2.039  0.6061  3.0925  0.0305
  592SOL     OW 1774   1.387   2.022   1.115 -0.1906  0.6010 -0.3062
  592SOL    HW1 1775   1.422   1.945   1.057  0.6906 -2.0512  0.1882
  592SOL    HW2 1776   1.298   2.049   1.075 -1.9104  0.4658 -3.1639
  593SOL     OW 1777   0.652   2.854   0.744 -0.0263  0.2594  0.6330
  593SOL    HW1 1778   0.717   2.783   0.785  2.3911  1.2527  0.0632
  593SOL    HW2 1779   0.610   2.914   0.816  0.1141 -0.0552 -0.0353
  594SOL     OW 1780   2.801   0.931   2.402 -0.0807  0.2572  0.1867
  594SOL    HW1 1781   2.853   0.999   2.349  3.1526 -0.4286  2.0905
  594SOL    HW2 1782   2.862   0.866   2.448 -2.0939  0.0214  0.4088
  595SOL     OW 1783   2.979   2.978   0.527 -0.2685 -0.1181 -0.3529
  595SOL    HW1 1784   3.066   2.959   0.469  0.6433 -0.8213  0.0638
  595SOL    HW2 1785   2.992   3.060   0.585  0.6089 -0.0133  0.1252
  596SOL     OW 1786   0.008   0.526   1.448  0.3594 -0.1363 -0.6913
  596SOL    HW1 1787   0.005   0.626   1.474  1.1798 -2.5571 -1.5224
  596SOL    HW2 1788   3.043   0.468   1.503 -2.1723 -1.0068 -0.3285
  597SOL     OW 1789   2.647   1.204   0.398 -0.1751  0.2093 -0.2810
  597SOL    HW1 1790   2.716   1.126   0.381  0.7607  0.2409 -1.6494
  597SOL    HW2 1791   2.550   1.175   0.387 -0.6701 -0.8246  0.8546
  598SOL     OW 1792   0.571   0.375   2.044 -0.4012 -0.3807 -0.2784
  598SOL    HW1 1793   0.582   0.468   2.005  0.2562 -0.9891  2.7727
  598SOL    HW2 1794   0.488   0.380   2.096 -0.2244  1.3317 -2.3653
  599SOL     OW 1795   2.518   1.754   0.155  0.3415 -0.1112  0.0496
  599SOL    HW1 1796   2.504   1.854   0.137 -0.0128  2.7786  2.3992
  599SOL    HW2 1797   2.583   1.748   0.232  0.2135 -2.9051  0.3696
  600SOL     OW 1798   0.874   0.862   0.131 -0.7090 -0.1246  0.0957
  600SOL    HW1 1799   0.955   0.914   0.101  0.7695 -1.6993  0.6012
  600SOL    HW2 1800   0.789   0.922   0.129 -1.9599 -1.7312  1.8399
  601SOL     OW 1801   1.350   0.990   0.059  0.5011  0.1796  0.3462
  601SOL    HW1 1802   1.252   1.022   0.057 -0.6975 -2.7599 -1.9592
  601SOL    HW2 1803   1.355   0.891   0.041 -0.7934 -1.3605  0.2451
  602SOL     OW 1804   1.036   0.010   1.671  0.4514  0.0663  0.6492
  602SOL    HW1 1805   1.074   0.103   1.693  1.3928  2.6123 -2.1409
  602SOL    HW2 1806   0.958   0.017   1.604 -1.1995  3.3677  0.7542
  603SOL     OW 1807   0.939   2.835   2.342  0.5449 -0.0657 -0.4999
  603SOL    HW1 1808   1.011   2.903   2.349 -0.1115 -2.4008 -4.0336
  603SOL    HW2 1809   0.969   2.766   2.276 -2.3046 -3.1168  4.3984
  604SOL     OW 1810   0.024   0.032   1.985 -0.5028  0.3224 -0.3050
  604SOL    HW1 1811   0.097   3.071   2.028 -2.6771 -0.0979  1.9477
  604SOL    HW2 1812   3.057   3.069   1.928 -0.4072 -0.3650  0.2974
  605SOL     OW 1813   2.608   2.788   1.596  0.0857 -0.0855  0.5859
  605SOL    HW1 1814   2.556   2.733   1.667 -0.7712 -2.2798  1.1996
  605SOL    HW2 1815   2.706   2.803   1.615  0.1263  0.9149 -0.5263
  606SOL     OW 1816   0.041   1.959   2.487  0.4548  0.5716  0.0388
  606SOL    HW1 1817   0.029   1.866   2.532 -0.1114 -1.6389  1.4280
  606SOL    HW2 1818   0.129   1.998   2.523 -0.2496  0.1008 -2.2438
  607SOL     OW 1819   0.787   0.116   0.659  0.3473 -0.0496  0.1325
  607SOL    HW1 1820   0.783   0.212   0.625  1.1335  0.9847 -0.6277
  607SOL    HW2 1821   0.843   0.120   0.747 -0.3701 -0.1366  0.9325
  608SOL     OW 1822   1.697   1.749   2.477 -0.4778 -0.0065 -0.4147
  608SOL    HW1 1823   1.649   1.682   2.412 -1.1532 -1.0435 -1.1828
  608SOL    HW2 1824   1.739   1.817   2.413 -0.0641 -0.4249 -2.6304
  609SOL     OW 1825   0.004   0.274   1.210  0.5485 -0.0101 -0.4042
  609SOL    HW1 1826   0.058   0.356   1.192  0.2359 -0.4884  1.8146
  609SOL    HW2 1827   0.053   0.211   1.272  0.2671  0.5615 -4.1711
  610SOL     OW 1828   0.869   2.415   3.060 -0.2970 -0.3559  0.2086
  610SOL    HW1 1829   0.825   2.432   2.962 -0.9546 -3.1886 -1.4256
  610SOL    HW2 1830   0.811   2.453   0.040 -0.4625 -0.9009 -3.0338
  611SOL     OW 1831   1.986   1.366   0.518  0.4716  0.5441 -0.3447
  611SOL    HW1 1832   2.040   1.386   0.434 -0.9627 -0.7927 -0.7353
  611SOL    HW2 1833   1.901   1.324   0.481  1.4850 -1.1498 -0.1738
  612SOL     OW 1834   1.018   2.628   2.524  0.4251 -0.4744  0.0134
  612SOL    HW1 1835   1.004   2.718   2.480 -2.0154  0.9870 -3.0852
  612SOL    HW2 1836   0.947   2.562   2.494 -4.0069  2.9488  0.3442
  613SOL     OW 1837   1.151   2.032   0.084  0.1663 -0.3595  0.1364
  613SOL    HW1 1838   1.096   2.096   0.145 -1.4565  1.8181  1.4624
  613SOL    HW2 1839   1.097   2.013   3.094  0.2763 -0.8667 -1.7273
  614SOL     OW 1840   2.613   2.344   1.616 -0.2972  0.1861 -0.4217
  614SOL    HW1 1841   2.594   2.282   1.536 -2.0611 -0.5370 -0.5043
  614SOL    HW2 1842   2.590   2.298   1.701  2.9901  1.8471 -5.1596
  615SOL     OW 1843   2.449   1.308   0.051  0.3505  0.5973 -0.4932
  615SOL    HW1 1844   2.489   1.308   3.056 -2.3176 -2.6958 -1.0511
  615SOL    HW2 1845   2.383   1.234   0.067  1.7626  2.3344 -0.6886
  616SOL     OW 1846   1.639   0.027   0.494  0.0087 -0.1173 -0.3803
  616SOL    HW1 1847   1.601   0.005   0.586 -0.3777  0.3076 -2.1064
  616SOL    HW2 1848   1.740   0.025   0.496 -1.2269  0.1427  1.5857
  617SOL     OW 1849   0.446   1.473   2.751 -0.1703 -0.0192  0.0034
  617SOL    HW1 1850   0.428   1.515   2.659  1.3413 -2.6630 -1.6920
  617SOL    HW2 1851   0.547   1.459   2.759  1.9694  2.1828 -1.0842
  618SOL     OW 1852   0.480   0.760   1.718  0.5207 -0.3792 -0.1344
  618SOL    HW1 1853   0.379   0.755   1.702  0.4854 -1.1093  0.3498
  618SOL    HW2 1854   0.535   0.703   1.654 -1.5178 -1.2957  4.2643
  619SOL     OW 1855   2.898   0.934   1.990  0.4987  0.6367  0.4491
  619SOL    HW1 1856   2.933   0.997   2.060 -1.6157 -1.0608 -1.9641
  619SOL    HW2 1857   2.865   0.844   2.036  0.8105 -0.3420 -0.0166
  620SOL     OW 1858   2.113   0.953   3.023  0.0762  0.4890  0.4851
  620SOL    HW1 1859   2.149   0.944   2.928  0.2476 -2.4844 -0.6748
  620SOL    HW2 1860   2.018   0.968   3.029  0.4649 -1.0726  2.0684
  621SOL     OW 1861   2.431   3.003   1.231 -0.3797 -0.5819 -0.8800
  621SOL    HW1 1862   2.506   2.939   1.251 -2.3532  0.7195 -0.2479
  621SOL    HW2 1863   2.369   3.022   1.312 -1.0126 -1.8384  2.7266
  622SOL     OW 1864   1.657   0.521   2.089 -0.2865 -0.2385  0.2254
  622SOL    HW1 1865   1.685   0.441   2.030  0.5288  1.5639 -1.4624
  622SOL    HW2 1866   1.590   0.591   2.046 -2.4313  4.8560  1.2430
  623SOL     OW 1867   1.510   0.909   2.367 -0.3121  0.6140  0.3480
  623SOL    HW1 1868   1.564   0.952   2.288 -0.7259 -0.4824 -1.8931
  623SOL    HW2 1869   1.568   0.895   2.452 -0.3393 -0.2129 -0.7206
  624SOL     OW 1870   1.918   0.036   0.554  0.3679  0.0190  0.1777
  624SOL    HW1 1871   1.943   0.104   0.485 -0.1643 -1.0666  1.8564
  624SOL    HW2 1872   1.995   3.085   0.596 -2.0487  1.0539  0.2158
  625SOL     OW 1873   0.666   1.499   0.463  0.0338  0.4620  0.1082
  625SOL    HW1 1874   0.738   1.430   0.491 -1.6049 -4.1117  0.5142
  625SOL    HW2 1875   0.627   1.544   0.543  0.0351 -2.0134  0.6040
  626SOL     OW 1876   1.630   1.237   2.281 -0.1779  0.0386  0.3173
  626SOL    HW1 1877   1.658   1.253   2.187  0.0933 -0.7411  2.9004
  626SOL    HW2 1878   1.534   1.266   2.304 -1.0531 -1.0778  1.6823
  627SOL     OW 1879   0.865   0.570   1.878 -0.4491 -0.2328 -0.2685
  627SOL    HW1 1880   0.942   0.633   1.901  0.7620  0.4015 -0.2523
  627SOL    HW2 1881   0.777   0.617   1.903  1.4451 -0.6718 -0.5791
  628SOL     OW 1882   2.120   0.782   2.257 -0.1787 -0.1943  0.3396
  628SOL    HW1 1883   2.034   0.768   2.213  0.1830  1.5621 -1.2001
  628SOL    HW2 1884   2.198   0.805   2.191  3.2901 -0.4194 -0.5355
  629SOL     OW 1885   0.787   1.360   3.001  0.2033 -0.0001 -0.0597
  629SOL    HW1 1886   0.761   1.393   2.906  0.5237  0.2796  0.6547
  629SOL    HW2 1887   0.707   1.309   3.043 -2.1674 -0.8594 -3.6374
  630SOL     OW 1888   1.353   0.503   2.277 -0.0411  0.2194  0.0580
  630SOL    HW1 1889   1.334   0.603   2.266  1.7182  1.9063 -0.1687
  630SOL    HW2 1890   1.444   0.498   2.319 -1.6373 -0.5714 -2.3044
  631SOL     OW 1891   2.603   0.703   0.889 -0.0199 -0.3220 -0.6832
  631SOL    HW1 1892   2.582   0.607   0.917  0.1500 -0.8306 -0.0962
  631SOL    HW2 1893   2.522   0.760   0.859  1.0888 -2.3086  1.0087
  632SOL     OW 1894   2.758   1.727   0.723 -0.0927  0.7250 -0.0012
  632SOL    HW1 1895   2.771   1.649   0.660  0.4669 -1.7363  1.7935
  632SOL    HW2 1896   2.807   1.805   0.681 -1.8739 -0.1078 -0.9849
  633SOL     OW 1897   0.740   1.349   0.758  0.1668  1.0211  0.0372
  633SOL    HW1 1898   0.728   1.297   0.849 -1.6946 -2.0462  3.1380
  633SOL    HW2 1899   0.679   1.304   0.689 -1.2484  1.3791 -0.1917
  634SOL     OW 1900   1.577   3.009   0.266 -0.1393  0.2911  0.9527
  634SOL    HW1 1901   1.478   2.994   0.278  0.9366  0.4639 -2.0037
  634SOL    HW2 1902   1.612   3.075   0.337 -2.5527 -1.6008  0.0955
  635SOL     OW 1903   1.982   0.304   1.767 -0.1361  0.2559  0.2153
  635SOL    HW1 1904   2.023   0.267   1.679 -1.4610 -0.0813 -2.1980
  635SOL    HW2 1905   1.997   0.404   1.777  0.3029 -1.0167  0.2033
  636SOL     OW 1906   1.375   0.644   0.690  0.0965  0.2277  0.4305
  636SOL    HW1 1907   1.340   0.734   0.711  2.1012 -5.0416 -1.0387
  636SOL    HW2 1908   1.461   0.628   0.745  1.8896 -0.3439 -2.6895
  637SOL     OW 1909   1.965   1.493   2.943  0.1369  0.0865 -0.3010
  637SOL    HW1 1910   1.969   1.557   2.861  0.3035  0.8682 -2.4742
  637SOL    HW2 1911   1.870   1.497   2.981 -1.2242  0.9771  1.7572
  638SOL     OW 1912   0.950   3.069   2.617 -0.0490 -0.2310 -0.1687
  638SOL    HW1 1913   0.919   2.991   2.676  0.0458  0.1341  0.7832
  638SOL    HW2 1914   0.868   0.012   2.568  2.6633 -1.9791 -2.2290
  639SOL     OW 1915   1.107   2.025   1.507 -0.2280 -0.5725  0.3241
  639SOL    HW1 1916   1.033   2.023   1.428 -5.4497 -0.6765 -2.7246
  639SOL    HW2 1917   1.188   1.976   1.473  0.8505 -1.1011 -2.4334
  640SOL     OW 1918   0.447   0.110   2.788 -0.0643 -0.2618  0.1045
  640SOL    HW1 1919   0.380   0.067   2.849  0.1945 -0.2462 -2.2596
  640SOL    HW2 1920   0.486   0.050   2.717  1.8950 -0.3152 -0.1786
  641SOL     OW 1921   0.374   0.663   0.313 -0.0019  0.4045 -0.8093
  641SOL    HW1 1922   0.283   0.618   0.284 -2.7229  0.5229  0.3149
  641SOL    HW2 1923   0.361   0.754   0.346 -2.4266 -2.1994  0.1653
  642SOL     OW 1924   0.272   1.708   1.063  0.2297 -0.1610 -0.2405
  642SOL    HW1 1925   0.307   1.806   1.064  0.0175 -0.5181  1.2569
  642SOL    HW2 1926   0.309   1.651   0.987  0.1037  0.9913 -2.3230
  643SOL     OW 1927   0.865   1.686   2.738  0.5590 -0.0758 -0.1931
  643SOL    HW1 1928   0.799   1.766   2.760 -1.2849  2.0754  0.8503
  643SOL    HW2 1929   0.964   1.720   2.751  2.5793  0.3687 -0.7889
  644SOL     OW 1930   1.544   2.381   0.398 -0.2351  0.0633 -0.0846
  644SOL    HW1 1931   1.635   2.404   0.356  2.7017  2.8249 -1.1647
  644SOL    HW2 1932   1.561   2.355   0.492 -0.6977 -1.0141 -2.8561
  645SOL     OW 1933   1.049   2.294   1.487 -0.3941 -0.7828  0.0197
  645SOL    HW1 1934   1.069   2.195   1.512  0.0168  1.0639  1.9518
  645SOL    HW2 1935   1.124   2.351   1.455 -4.1632 -2.0419 -0.9662
  646SOL     OW 1936   0.485   2.578   0.110 -0.7643  0.1477 -0.1933
  646SOL    HW1 1937   0.547   2.575   0.191  1.7391 -0.4706 -0.2893
  646SOL    HW2 1938   0.526   2.620   0.028 -0.7609 -0.4818 -0.8383
  647SOL     OW 1939   0.179   2.928   2.063 -0.4470 -0.3194 -0.6630
  647SOL    HW1 1940   0.122   2.930   2.149 -2.1844 -0.6853  0.6816
  647SOL    HW2 1941   0.278   2.926   2.083  0.5584 -2.0847  2.0849
  648SOL     OW 1942   2.554   1.045   1.119 -0.7758 -0.3772 -0.1439
  648SOL    HW1 1943   2.624   0.978   1.090 -0.3647  3.7758 -0.8915
  648SOL    HW2 1944   2.486   0.990   1.172 -2.5713  1.8961 -0.7254
  649SOL     OW 1945   2.126   2.663   2.752  0.8445  0.0670  0.4265
  649SOL    HW1 1946   2.177   2.637   2.836 -1.0816  4.1517 -0.7148
  649SOL    HW2 1947   2.121   2.763   2.761  2.8949 -0.4970  1.5052
  650SOL     OW 1948   2.808   2.175   1.922 -0.0035 -0.1296 -0.4852
  650SOL    HW1 1949   2.887   2.120   1.941 -0.9601 -1.1830  1.6501
  650SOL    HW2 1950   2.835   2.245   1.854  1.9246 -0.3243  1.7578
  651SOL     OW 1951   1.138   1.787   2.753 -0.1136  0.6511 -0.3594
  651SOL    HW1 1952   1.173   1.786   2.655  0.6955 -0.7228 -1.7387
  651SOL    HW2 1953   1.161   1.696   2.793 -2.0913  0.0675 -1.0509
  652SOL     OW 1954   0.510   0.055   2.246 -0.5361  0.0325  0.4911
  652SOL    HW1 1955   0.469   0.144   2.234  0.3752  0.8494 -0.1448
  652SOL    HW2 1956   0.586   0.066   2.314 -1.0064  1.1317  0.7124
  653SOL     OW 1957   1.956   1.872   0.805 -0.2005 -0.4426 -0.5513
  653SOL    HW1 1958   1.980   1.790   0.856 -0.4288 -0.2185  1.5135
  653SOL    HW2 1959   2.038   1.926   0.789 -2.0529 -1.2699  0.3065
  654SOL     OW 1960   2.288   2.743   2.124  0.4536  0.0825  0.6184
  654SOL    HW1 1961   2.248   2.741   2.215 -0.6971 -0.7081 -2.0284
  654SOL    HW2 1962   2.304   2.842   2.102 -0.1714  0.6803  1.5386
  655SOL     OW 1963   2.398   2.168   0.908 -0.5235 -0.1617  0.9133
  655SOL    HW1 1964   2.387   2.260   0.940  1.3727 -3.5233 -0.8655
  655SOL    HW2 1965   2.328   2.135   0.842 -0.1178 -0.5274 -1.0687
  656SOL     OW 1966   2.645   1.550   2.861  0.0116 -0.6243  0.0085
  656SOL    HW1 1967   2.659   1.640   2.816  0.9189 -0.5885 -0.0562
  656SOL    HW2 1968   2.699   1.536   2.949 -2.3939 -0.8714  2.0169
  657SOL     OW 1969   0.065   1.236   0.669 -0.7714 -0.0721 -0.0791
  657SOL    HW1 1970   3.077   1.226   0.614  0.6067 -0.5813 -0.7205
  657SOL    HW2 1971   0.050   1.242   0.770  2.1102 -1.8755  0.3896
  658SOL     OW 1972   1.024   1.739   1.304  0.6134 -0.5312  0.0953
  658SOL    HW1 1973   1.096   1.691   1.254 -1.8815 -0.4911  1.2285
  658SOL    HW2 1974   0.952   1.684   1.342 -1.5089  0.1358 -2.6214
  659SOL     OW 1975   1.362   0.106   1.374  0.2253  0.2479 -0.3283
  659SOL    HW1 1976   1.275   0.159   1.384 -1.3495  0.7340 -0.2460
  659SOL    HW2 1977   1.425   0.141   1.301 -3.4590  0.6431 -0.0763
  660SOL     OW 1978   2.589   0.461   0.682  0.6257 -0.4149  0.6999
  660SOL    HW1 1979   2.502   0.500   0.704  4.2405 -1.6956  3.0245
  660SOL    HW2 1980   2.649   0.524   0.627  1.9006  1.9471 -0.4329
  661SOL     OW 1981   0.497   1.855   0.307 -0.0322  0.0768  0.1113
  661SOL    HW1 1982   0.573   1.794   0.278 -1.3096  2.1030 -1.1133
  661SOL    HW2 1983   0.487   1.941   0.252 -1.3020  0.9676  1.0957
  662SOL     OW 1984   2.325   0.854   2.071 -0.3765 -0.2478  0.6478
  662SOL    HW1 1985   2.348   0.761   2.032 -0.0014 -2.7367 -0.3823
  662SOL    HW2 1986   2.297   0.913   1.992 -1.1553  0.3191 -3.2987
  663SOL     OW 1987   1.761   1.416   1.147 -0.0591 -0.2635 -0.1315
  663SOL    HW1 1988   1.825   1.367   1.084  0.6584  1.3255  0.4734
  663SOL    HW2 1989   1.782   1.407   1.246 -0.1461  0.5740 -0.4967
  664SOL     OW 1990   0.582   3.063   1.212  0.2373 -0.2192  0.0715
  664SOL    HW1 1991   0.637   0.054   1.208 -1.1308  0.2983 -0.4912
  664SOL    HW2 1992   0.556   3.047   1.307  1.6370 -0.8806  1.5100
  665SOL     OW 1993   1.415   0.281   2.932 -0.0629 -0.2530  0.1093
  665SOL    HW1 1994   1.478   0.201   2.905  1.4014 -3.3409 -0.0678
  665SOL    HW2 1995   1.391   0.338   2.850  1.2878  2.0546 -1.1796
  666SOL     OW 1996   0.896   0.646   2.215  0.1856 -0.5980  0.5205
  666SOL    HW1 1997   0.868   0.551   2.195  0.6941  1.2604  0.9756
  666SOL    HW2 1998   0.816   0.704   2.207  1.9252 -0.2535  0.5198
  667SOL     OW 1999   1.390   1.400   1.403  0.0761  0.3551  0.4738
  667SOL    HW1 2000   1.325   1.465   1.452 -2.2456  4.0722  2.0187
  667SOL    HW2 2001   1.354   1.378   1.315 -0.0086 -0.8284  0.5983
  668SOL     OW 2002   0.330   1.104   2.089 -0.1133 -0.1800 -0.2997
  668SOL    HW1 2003   0.419   1.103   2.141  2.1805 -0.9675  0.9156
  668SOL    HW2 2004   0.327   1.187   2.037  0.8410 -2.2875  2.6157
  669SOL     OW 2005   2.645   2.528   2.855 -0.0594  0.4650  0.2708
  669SOL    HW1 2006   2.622   2.455   2.786 -2.0128 -0.5920  1.4934
  669SOL    HW2 2007   2.621   2.494   2.949 -0.8212  1.9562 -0.1626
  670SOL     OW 2008   2.639   1.280   1.764  0.0607  0.4442  0.6389
  670SOL    HW1 2009   2.730   1.291   1.716 -1.5166 -2.0150 -0.8250
  670SOL    HW2 2010   2.643   1.204   1.830  1.0846  2.8935  0.5081
  671SOL     OW 2011   2.936   1.911   0.607  0.1150  0.2618 -0.6269
  671SOL    HW1 2012   2.921   2.012   0.598  0.0142  2.6650 -0.9875
  671SOL    HW2 2013   2.933   1.869   0.517  0.4953 -1.9725  0.0282
  672SOL     OW 2014   1.565   0.974   1.937  0.3753  0.4455  0.0476
  672SOL    HW1 2015   1.660   1.002   1.971  3.6189  2.3991  2.2103
  672SOL    HW2 2016   1.558   0.984   1.836  2.2202 -1.6217  1.3594
  673SOL     OW 2017   2.881   2.150   1.490 -0.5422 -0.1177 -0.0675
  673SOL    HW1 2018   2.919   2.237   1.457 -0.3525 -0.3463 -1.6622
  673SOL    HW2 2019   2.822   2.105   1.418 -0.1627 -1.7112 -2.4848
  674SOL     OW 2020   0.674   2.064   1.590  0.3654  0.4385  0.4259
  674SOL    HW1 2021   0.742   2.062   1.667  1.0972  0.5828  3.2426
  674SOL    HW2 2022   0.580   2.070   1.625  0.1828  1.5298  2.5832
  675SOL     OW 2023   2.878   0.699   1.248  0.1804 -0.3265  0.1228
  675SOL    HW1 2024   2.968   0.739   1.255  0.0563 -0.6430  1.2926
  675SOL    HW2 2025   2.884   0.602   1.222  3.4644  3.8125  0.8672
  676SOL     OW 2026   2.875   0.866   1.725  0.0946 -0.0840  0.0020
  676SOL    HW1 2027   2.916   0.886   1.816 -1.4686  0.5709 -0.3042
  676SOL    HW2 2028   2.787   0.813   1.733 -3.3970 -2.1692  0.8148
  677SOL     OW 2029   2.088   1.146   2.513  0.3871  0.7611 -0.2457
  677SOL    HW1 2030   1.998   1.194   2.531 -1.9973  0.3062 -0.5467
  677SOL    HW2 2031   2.156   1.160   2.587 -0.5476  1.7290 -0.5093
  678SOL     OW 2032   2.549   1.505   1.130 -0.7455  0.6438  0.3616
  678SOL    HW1 2033   2.570   1.418   1.080 -0.6025 -0.3773 -1.1282
  678SOL    HW2 2034   2.629   1.541   1.184  0.7841 -0.4821  0.2890
  679SOL     OW 2035   0.143   2.748   0.012  0.2291  0.0355 -0.1272
  679SOL    HW1 2036   0.154   2.672   3.040  0.2177 -0.1804  4.5471
  679SOL    HW2 2037   0.106   2.700   0.097 -1.2340  0.2378 -0.3884
  680SOL     OW 2038   0.020   1.653   1.174 -0.3469  0.3530  0.2195
  680SOL    HW1 2039   0.116   1.652   1.136  2.2960  0.3413  1.3581
  680SOL    HW2 2040   0.016   1.720   1.253 -0.8766  1.4647 -1.2379
  681SOL     OW 2041   0.928   0.151   0.912 -0.1976 -0.1374 -0.3012
  681SOL    HW1 2042   0.883   0.185   0.997 -0.5574  0.6001 -0.1638
  681SOL    HW2 2043   1.027   0.171   0.926 -2.7775 -0.7266 -1.4334
  682SOL     OW 2044   2.057   2.403   1.576  0.1737  0.2405  0.5787
  682SOL    HW1 2045   2.118   2.343   1.624 -1.2984  1.6785  0.5080
  682SOL    HW2 2046   2.011   2.361   1.495  1.2504 -1.0955 -2.8904
  683SOL     OW 2047   2.692   1.860   1.728 -0.4922  0.1045 -0.1964
  683SOL    HW1 2048   2.647   1.928   1.668  1.8003 -0.5158  3.2470
  683SOL    HW2 2049   2.766   1.815   1.672 -2.7325 -1.4919 -0.2245
  684SOL     OW 2050   3.040   1.437   1.779  0.1889  0.1629 -0.0417
  684SOL    HW1 2051   2.994   1.484   1.855  1.3095 -2.3178  0.0924
  684SOL    HW2 2052   0.042   1.440   1.790 -0.8515  0.4994  0.5827
  685SOL     OW 2053   1.424   1.385   0.213  0.0614 -0.3105 -0.2994
  685SOL    HW1 2054   1.443   1.452   0.287 -0.3817  0.9348 -0.4116
  685SOL    HW2 2055   1.514   1.344   0.186  0.0941 -0.5318  0.0590
  686SOL     OW 2056   2.871   0.582   1.895 -0.5952  0.6347 -0.0832
  686SOL    HW1 2057   2.958   0.530   1.881  2.5701 -1.2050 -0.9189
  686SOL    HW2 2058   2.817   0.606   1.814 -0.6576  2.1468 -2.7325
  687SOL     OW 2059   1.580   0.068   2.863 -0.1503  0.1086  0.2534
  687SOL    HW1 2060   1.507   3.094   2.844 -0.0648  3.5495  0.5352
  687SOL    HW2 2061   1.612   0.053   2.957 -1.0328 -1.7691 -1.1217
  688SOL     OW 2062   1.237   1.801   2.479  0.3302 -0.5031  0.0767
  688SOL    HW1 2063   1.222   1.715   2.427  0.5977 -0.7555  0.6539
  688SOL    HW2 2064   1.328   1.795   2.524  1.7515  0.4137 -1.4112
  689SOL     OW 2065   2.193   1.637   1.487  0.0572 -0.1439  0.5660
  689SOL    HW1 2066   2.137   1.565   1.526  3.5948 -0.0526 -1.3242
  689SOL    HW2 2067   2.274   1.591   1.443 -0.3160 -3.6541  0.4350
  690SOL     OW 2068   2.345   2.146   1.273  0.4652 -0.0910  0.0432
  690SOL    HW1 2069   2.272   2.161   1.342 -1.7837 -2.5449  0.7874
  690SOL    HW2 2070   2.314   2.074   1.212  0.8137  1.5980  0.4098
  691SOL     OW 2071   0.233   1.683   0.649 -0.3458  0.1354 -0.3607
  691SOL    HW1 2072   0.267   1.767   0.599  1.4380  0.8873 -0.7951
  691SOL    HW2 2073   0.154   1.708   0.705  0.4594 -2.8377 -0.2316
  692SOL     OW 2074   2.764   3.002   2.951  0.3315  0.3296 -0.4661
  692SOL    HW1 2075   2.863   2.980   2.946 -1.9939 -0.2051  2.7250
  692SOL    HW2 2076   2.737   3.049   2.864  1.8081 -1.4627 -4.0319
  693SOL     OW 2077   0.283   1.353   1.994  0.0710  0.2775  0.4655
  693SOL    HW1 2078   0.252   1.375   1.900  0.6792  0.0687 -0.7979
  693SOL    HW2 2079   0.213   1.353   2.065  0.8707 -0.8851  2.7016
  694SOL     OW 2080   2.463   0.344   2.036 -0.4834 -0.2581 -0.2384
  694SOL    HW1 2081   2.565   0.353   2.052 -1.3755 -1.6904  0.7015
  694SOL    HW2 2082   2.438   0.316   1.941  0.2081 -1.7228 -1.1400
  695SOL     OW 2083   1.486   0.733   2.031  0.1694  0.1374  0.2128
  695SOL    HW1 2084   1.441   0.752   2.115  3.4201  0.9831  1.7474
  695SOL    HW2 2085   1.524   0.823   1.998  2.4098 -2.2858 -0.7199
  696SOL     OW 2086   2.158   2.884   1.700 -0.2089 -0.8948 -0.0497
  696SOL    HW1 2087   2.125   2.931   1.784 -1.0638  0.5231 -0.1171
  696SOL    HW2 2088   2.084   2.879   1.629 -2.7233 -1.4594 -1.3553
  697SOL     OW 2089   1.025   0.767   1.973  0.0410  0.2544 -0.3772
  697SOL    HW1 2090   0.988   0.747   2.066 -2.1326  0.0850 -0.8208
  697SOL    HW2 2091   1.117   0.724   1.959  1.1416 -0.9801 -1.8578
  698SOL     OW 2092   2.280   1.593   2.750  0.1874  0.2966  0.4529
  698SOL    HW1 2093   2.372   1.578   2.706 -0.3057 -5.3781 -1.1716
  698SOL    HW2 2094   2.278   1.603   2.853  0.2181  0.5977 -1.0726
  699SOL     OW 2095   2.446   0.992   0.329  0.2024  0.2134  0.0970
  699SOL    HW1 2096   2.353   0.957   0.362 -4.8754  1.5439 -1.6448
  699SOL    HW2 2097   2.437   1.012   0.228 -2.6146 -0.4128 -1.6117
  700SOL     OW 2098   1.290   3.050   0.988  0.2380  0.1296  0.2109
  700SOL    HW1 2099   1.303   3.012   0.894  1.8938 -0.0377 -0.1215
  700SOL    HW2 2100   1.310   2.982   1.063  0.0433 -1.7893  1.0386
  701SOL     OW 2101   2.975   0.464   0.718 -0.1931  0.1537 -0.4893
  701SOL    HW1 2102   2.925   0.538   0.673 -2.1575 -1.4906 -0.1909
  701SOL    HW2 2103   3.015   0.493   0.810 -1.2575 -0.7396 -0.3860
  702SOL     OW 2104   1.601   2.544   1.272  0.0858 -0.0267 -0.0199
  702SOL    HW1 2105   1.524   2.490   1.298  0.3482  1.4403  0.4942
  702SOL    HW2 2106   1.618   2.625   1.336 -1.0646  0.8595  0.5824
  703SOL     OW 2107   0.099   0.546   1.171  0.1454  0.5132 -0.1781
  703SOL    HW1 2108   0.066   0.559   1.265 -0.8686  0.2064 -0.9169
  703SOL    HW2 2109   0.186   0.594   1.154 -2.1815  1.1756 -2.4401
  704SOL     OW 2110   1.056   2.841   1.772 -0.6244 -0.0639  0.4793
  704SOL    HW1 2111   1.034   2.921   1.712  0.7490 -1.2593  2.0848
  704SOL    HW2 2112   0.976   2.805   1.821  2.3725 -3.0375  1.4720
  705SOL     OW 2113   0.017   1.917   3.062 -0.1573 -0.0559  0.9227
  705SOL    HW1 2114   0.093   1.880   0.027  1.1051 -0.1415  3.2029
  705SOL    HW2 2115   3.034   1.936   0.027  2.0229 -2.2408 -0.0418
  706SOL     OW 2116   0.097   0.547   0.304 -0.9876  0.3693 -0.0234
  706SOL    HW1 2117   0.098   0.488   0.219 -1.9335 -1.8296 -1.5015
  706SOL    HW2 2118   0.031   0.500   0.363  1.6108 -2.9994 -0.2442
  707SOL     OW 2119   1.890   2.636   1.981 -0.0647  0.3549  0.1870
  707SOL    HW1 2120   1.952   2.562   2.001  1.2568  1.4364 -3.7315
  707SOL    HW2 2121   1.919   2.729   2.008  1.5684 -3.0286 -1.2595
  708SOL     OW 2122   0.512   3.040   1.497  0.2734  0.3373 -0.7570
  708SOL    HW1 2123   0.515   2.959   1.559 -0.2325 -1.6615  0.1960
  708SOL    HW2 2124   0.466   0.020   1.544 -1.2417 -0.3510 -0.8829
  709SOL     OW 2125   0.228   0.735   1.742  0.7838  0.1544 -0.0004
  709SOL    HW1 2126   0.155   0.756   1.665 -2.6338  1.0747 -3.6532
  709SOL    HW2 2127   0.206   0.794   1.820  0.4793 -0.9189  0.1917
  710SOL     OW 2128   0.195   0.573   0.738 -0.0092  0.4301 -0.0219
  710SOL    HW1 2129   0.115   0.568   0.800  1.7700  0.7036  0.1807
  710SOL    HW2 2130   0.188   0.656   0.682 -0.6454 -1.5811 -0.6289
  711SOL     OW 2131   2.396   2.294   2.045 -0.2480 -0.4515 -0.0941
  711SOL    HW1 2132   2.429   2.308   2.138 -3.1142 -1.7671 -0.4193
  711SOL    HW2 2133   2.337   2.371   2.016 -0.6553 -4.0680 -0.1395
  712SOL     OW 2134   0.187   2.784   2.445  0.2079  0.2627  0.3745
  712SOL    HW1 2135   0.150   2.840   2.521 -0.9955 -2.1207 -2.4985
  712SOL    HW2 2136   0.118   2.773   2.373  2.2341  0.0240 -0.4168
  713SOL     OW 2137   2.319   0.261   0.664  0.1344  0.7324 -0.0309
  713SOL    HW1 2138   2.412   0.284   0.698  0.0311 -3.4026 -3.0557
  713SOL    HW2 2139   2.305   0.264   0.566 -1.0938 -1.3826  1.0929
  714SOL     OW 2140   1.728   1.372   2.739  0.0725  0.0415 -0.1420
  714SOL    HW1 2141   1.745   1.468   2.726 -0.5568 -1.7023  2.1891
  714SOL    HW2 2142   1.790   1.316   2.684 -1.1488 -1.6666  1.4407
  715SOL     OW 2143   0.004   0.579   0.919  0.3818 -0.0339 -0.1078
  715SOL    HW1 2144   0.035   0.561   1.017 -0.0877  1.0468 -2.2306
  715SOL    HW2 2145   3.059   0.672   0.922  0.5717 -0.2937  1.2823
  716SOL     OW 2146   0.879   0.686   1.618 -0.0850 -0.0198 -0.6519
  716SOL    HW1 2147   0.789   0.652   1.591  3.5073 -0.4702 -0.2198
  716SOL    HW2 2148   0.908   0.649   1.709 -0.0321 -1.2007 -1.2339
  717SOL     OW 2149   1.307   0.787   2.241  0.0063 -0.6820 -0.2613
  717SOL    HW1 2150   1.372   0.842   2.296 -0.4212  1.7197  0.7954
  717SOL    HW2 2151   1.220   0.833   2.228 -0.9007 -2.7253 -1.1143
  718SOL     OW 2152   1.188   0.081   0.539 -0.2421  0.2675  0.2445
  718SOL    HW1 2153   1.217   0.173   0.576  0.0711  0.8783  0.6039
  718SOL    HW2 2154   1.131   0.075   0.456 -0.5481 -3.3789 -0.9890
  719SOL     OW 2155   3.044   2.746   2.785  0.0263 -0.4950  0.1241
  719SOL    HW1 2156   2.949   2.718   2.763  2.9605 -0.3627  0.8985
  719SOL    HW2 2157   0.008   2.671   2.775 -2.5152  2.3578  1.6093
  720SOL     OW 2158   1.484   0.398   1.806 -0.0047  0.1905 -0.0730
  720SOL    HW1 2159   1.434   0.365   1.888 -0.7217  0.7447 -2.8751
  720SOL    HW2 2160   1.587   0.381   1.808  3.1090  0.7944  0.4930
  721SOL     OW 2161   0.148   2.793   1.035 -0.3902  0.8247  0.5948
  721SOL    HW1 2162   0.114   2.881   1.072  1.2001 -1.6312  1.2825
  721SOL    HW2 2163   0.078   2.719   1.048  1.5024 -3.2468 -0.3507
  722SOL     OW 2164   0.856   1.058   2.831  0.1234 -0.2601 -0.1747
  722SOL    HW1 2165   0.817   1.108   2.752 -0.8546 -2.5883  1.5647
  722SOL    HW2 2166   0.909   1.120   2.885 -0.4165 -1.8430 -0.8828
  723SOL     OW 2167   2.055   1.224   1.255 -0.1196 -0.8280  0.8413
  723SOL    HW1 2168   2.130   1.256   1.193 -1.4431 -3.9516 -0.2290
  723SOL    HW2 2169   2.043   1.282   1.337  1.0393 -1.0479  1.6621
  724SOL     OW 2170   0.874   1.898   0.317  0.2518  0.4873 -0.1487
  724SOL    HW1 2171   0.934   1.840   0.377 -0.0003 -1.2107 -0.0695
  724SOL    HW2 2172   0.893   1.880   0.219 -0.3318  0.5914 -1.7685
  725SOL     OW 2173   0.024   0.796   1.562  0.5379  0.2635  0.4591
  725SOL    HW1 2174   0.033   0.836   1.467 -0.3708  0.7867 -1.8636
  725SOL    HW2 2175   3.058   0.856   1.618 -2.1624  1.1574  0.0932
  726SOL     OW 2176   2.360   1.051   0.059 -0.5089 -0.4376  0.8673
  726SOL    HW1 2177   2.269   1.031   0.018 -2.2241  0.8874  0.6102
  726SOL    HW2 2178   2.429   0.976   0.043  0.4399 -1.5440 -2.9262
  727SOL     OW 2179   2.175   0.891   2.525 -0.0810 -0.1056 -0.0612
  727SOL    HW1 2180   2.156   0.991   2.524  0.0893 -2.9867  1.0594
  727SOL    HW2 2181   2.191   0.852   2.428 -0.0160  1.8885 -1.6340
  728SOL     OW 2182   1.775   1.891   1.470  0.2331 -0.2053  0.6384
  728SOL    HW1 2183   1.873   1.870   1.444  0.0871 -3.6607 -0.3973
  728SOL    HW2 2184   1.735   1.969   1.419  1.7480  2.4495  0.0453
  729SOL     OW 2185   1.853   1.067   2.021 -0.4956  0.0906  0.0555
  729SOL    HW1 2186   1.783   1.137   2.019  3.1229 -1.1430 -0.3408
  729SOL    HW2 2187   1.949   1.100   1.989  1.1870 -2.3254 -0.2277
  730SOL     OW 2188   1.366   0.623   1.094  0.3302  0.1671  0.5094
  730SOL    HW1 2189   1.359   0.533   1.142  1.4796  1.1371 -1.7508
  730SOL    HW2 2190   1.440   0.614   1.028 -1.5184  0.7793  0.1102
  731SOL     OW 2191   0.563   0.799   3.007  0.1656  0.4683 -0.1371
  731SOL    HW1 2192   0.607   0.781   2.921 -2.6862 -0.0521  1.0510
  731SOL    HW2 2193   0.554   0.723   3.070  0.2326  3.2207 -2.4373
  732SOL     OW 2194   0.358   0.933   0.432 -0.3183 -0.0504 -0.5169
  732SOL    HW1 2195   0.433   0.906   0.498 -0.1131  0.3914  0.1464
  732SOL    HW2 2196   0.287   0.981   0.491 -2.2667  1.2126 -0.3364
  733SOL     OW 2197   1.333   1.631   2.170 -0.2035  0.3353 -0.7179
  733SOL    HW1 2198   1.283   1.722   2.173  0.1964  1.2239  0.1189
  733SOL    HW2 2199   1.364   1.605   2.080  0.6278 -0.4086  1.1431
  734SOL     OW 2200   0.389   2.375   3.038 -0.4356 -0.6617 -0.3370
  734SOL    HW1 2201   0.442   2.426   0.010 -0.6171  0.2355 -0.3355
  734SOL    HW2 2202   0.327   2.304   3.070  1.7686  1.0274 -2.0454
  735SOL     OW 2203   2.684   0.164   1.002  0.4703  0.3723 -0.5833
  735SOL    HW1 2204   2.766   0.155   1.063 -0.7626  1.1926 -0.7319
  735SOL    HW2 2205   2.703   0.250   0.945 -1.3254 -2.1347 -1.5371
  736SOL     OW 2206   1.980   1.477   2.343  0.3417 -0.0390  0.6630
  736SOL    HW1 2207   2.064   1.458   2.292  1.8466 -0.6792  3.2506
  736SOL    HW2 2208   1.993   1.532   2.428 -2.8696 -0.0177 -0.5089
  737SOL     OW 2209   3.068   0.819   0.367  0.2472  0.1260 -0.0195
  737SOL    HW1 2210   3.093   0.887   0.295  1.3302  0.2117 -2.5019
  737SOL    HW2 2211   3.091   0.726   0.337 -0.5482  1.2888  0.9253
  738SOL     OW 2212   0.969   1.998   1.268  0.5448 -0.0619  0.1390
  738SOL    HW1 2213   0.971   1.898   1.266  1.5680  1.3520 -2.8676
  738SOL    HW2 2214   0.874   2.038   1.261  0.3647  2.7884 -0.2879
  739SOL     OW 2215   1.793   2.588   2.357 -0.4586  0.4765  0.6110
  739SOL    HW1 2216   1.838   2.626   2.439  0.9950 -1.3738 -3.2677
  739SOL    HW2 2217   1.767   2.660   2.289 -0.4635  1.0664 -1.8849
  740SOL     OW 2218   2.328   2.392   1.088 -0.0402 -0.1029  0.8028
  740SOL    HW1 2219   2.340   2.330   1.172 -1.6375  1.2728 -1.5023
  740SOL    HW2 2220   2.366   2.486   1.095 -1.8196 -0.8543 -0.1855
  741SOL     OW 2221   2.381   0.622   0.167 -0.3430  0.2471  0.0109
  741SOL    HW1 2222   2.373   0.538   0.102  2.0091 -0.3811  0.0752
  741SOL    HW2 2223   2.414   0.596   0.261 -0.7339 -0.8894  0.3950
  742SOL     OW 2224   1.134   2.397   0.074 -0.1607 -0.1586  0.2220
  742SOL    HW1 2225   1.048   2.413   0.021  1.3422  1.2000  2.1748
  742SOL    HW2 2226   1.159   2.483   0.117 -0.8442 -0.8135 -0.3061
  743SOL     OW 2227   2.549   1.406   2.116  0.4309 -0.3722 -0.0170
  743SOL    HW1 2228   2.525   1.410   2.017 -2.3901  0.0478 -1.0993
  743SOL    HW2 2229   2.535   1.309   2.157 -0.4431 -0.1143  1.4778
  744SOL     OW 2230   2.935   0.151   0.408 -0.4753 -0.5116  0.1169
  744SOL    HW1 2231   2.843   0.172   0.452 -0.4175  0.1730 -0.6011
  744SOL    HW2 2232   2.927   0.085   0.329  1.1660  2.1793  0.3983
  745SOL     OW 2233   2.550   1.769   1.318  0.0816 -0.0963  0.5256
  745SOL    HW1 2234   2.634   1.712   1.301  0.5522 -1.9858  2.5350
  745SOL    HW2 2235   2.490   1.761   1.233  1.4739 -1.0805 -0.6302
  746SOL     OW 2236   1.064   1.674   0.389 -0.2166 -0.0065 -0.0135
  746SOL    HW1 2237   1.068   1.660   0.489  0.3147  2.0039 -1.1743
  746SOL    HW2 2238   1.049   1.587   0.338 -1.6033  0.6246  0.3809
  747SOL     OW 2239   1.186   1.557   1.519  0.0671  0.4360  0.3710
  747SOL    HW1 2240   1.159   1.620   1.446  1.4464  0.4735 -1.1230
  747SOL    HW2 2241   1.124   1.477   1.529  0.1244 -2.3058  0.3846
  748SOL     OW 2242   0.355   2.879   3.012  0.3779  0.1855  0.1585
  748SOL    HW1 2243   0.292   2.812   3.052 -0.5058  2.3765 -3.0876
  748SOL    HW2 2244   0.321   2.971   3.050 -2.0386  0.4296 -1.4975
  749SOL     OW 2245   0.214   1.047   2.813  0.1316 -0.2074 -0.1164
  749SOL    HW1 2246   0.201   0.966   2.876 -1.9937 -3.6036  2.9166
  749SOL    HW2 2247   0.293   1.036   2.747 -2.2688 -0.4894 -2.5601
  750SOL     OW 2248   1.584   1.006   1.643  0.3322  0.0964  0.2456
  750SOL    HW1 2249   1.500   1.036   1.597 -0.1393 -1.0342  1.1086
  750SOL    HW2 2250   1.657   1.069   1.620  1.9231  0.8205  1.6098
  751SOL     OW 2251   2.907   0.923   0.590  0.4334 -0.3322  0.0201
  751SOL    HW1 2252   2.934   0.863   0.516  0.3374  1.6181  2.4365
  751SOL    HW2 2253   2.933   1.018   0.562  0.9812  0.6440  1.8378
  752SOL     OW 2254   2.873   2.766   0.923  0.0674  0.2775 -0.4420
  752SOL    HW1 2255   2.906   2.861   0.927  0.0736 -0.6924  2.6102
  752SOL    HW2 2256   2.918   2.703   0.994  1.9205 -2.1053  1.7871
  753SOL     OW 2257   0.649   2.535   1.224 -0.4967 -0.8663 -0.7129
  753SOL    HW1 2258   0.698   2.504   1.309  0.4762  1.1670 -0.9932
  753SOL    HW2 2259   0.685   2.491   1.140 -2.8697  1.1569 -0.3818
  754SOL     OW 2260   2.963   2.698   1.916 -0.0627  0.0995 -0.4107
  754SOL    HW1 2261   2.949   2.770   1.989 -1.1187 -0.3444  0.8510
  754SOL    HW2 2262   2.925   2.609   1.949  0.4089  1.6153 -0.1939
  755SOL     OW 2263   2.512   0.836   0.031  0.1760  0.1132  0.0504
  755SOL    HW1 2264   2.613   0.832   0.021 -0.7009  0.7881 -0.6903
  755SOL    HW2 2265   2.494   0.752   0.090  1.0361 -2.9970  2.7817
  756SOL     OW 2266   1.866   2.111   0.201  0.3586 -0.0515 -0.3382
  756SOL    HW1 2267   1.895   2.185   0.143 -1.4032 -1.7771  1.6953
  756SOL    HW2 2268   1.948   2.051   0.223  0.1807  0.1789  1.9408
  757SOL     OW 2269   2.704   0.530   0.432 -0.7330 -0.0240  0.1074
  757SOL    HW1 2270   2.688   0.625   0.405  2.4133  2.5187 -1.6214
  757SOL    HW2 2271   2.796   0.498   0.402  1.0558 -2.5228  0.6835
  758SOL     OW 2272   2.219   0.964   1.836  0.1069  0.0577  0.2628
  758SOL    HW1 2273   2.171   0.928   1.756 -1.0150 -1.9159  2.0795
  758SOL    HW2 2274   2.180   1.051   1.871  1.3645 -1.8545 -4.1817
  759SOL     OW 2275   2.696   0.454   1.332 -0.1607  0.2635 -0.6245
  759SOL    HW1 2276   2.607   0.495   1.311  0.8128  0.4499  1.6036
  759SOL    HW2 2277   2.753   0.456   1.247 -0.2979  2.8089 -0.5111
  760SOL     OW 2278   0.603   1.412   1.431 -0.2321 -0.2934  0.2466
  760SOL    HW1 2279   0.510   1.450   1.429 -1.2438  2.4287  0.5658
  760SOL    HW2 2280   0.613   1.313   1.466  0.0921  0.1930 -0.0851
  761SOL     OW 2281   0.809   0.606   0.138  0.2838 -0.1392 -0.5397
  761SOL    HW1 2282   0.710   0.582   0.135 -0.0761 -2.2732 -0.0319
  761SOL    HW2 2283   0.823   0.705   0.118  3.5927  1.2197 -0.3873
  762SOL     OW 2284   0.719   1.814   1.177 -0.2025 -0.1515  0.0605
  762SOL    HW1 2285   0.767   1.750   1.116 -0.8513  2.5222  1.9938
  762SOL    HW2 2286   0.706   1.774   1.267  2.2571 -2.1458 -1.0472
  763SOL     OW 2287   1.261   0.678   1.912 -0.1003  0.3225 -0.6006
  763SOL    HW1 2288   1.269   0.629   1.824 -0.8362  0.9423  3.9133
  763SOL    HW2 2289   1.354   0.706   1.954  0.6745 -1.8441  2.3863
  764SOL     OW 2290   3.032   2.977   2.913  0.4632  0.0641 -0.2923
  764SOL    HW1 2291   3.082   2.945   2.994  0.5550 -0.2175  1.0834
  764SOL    HW2 2292   3.048   2.906   2.840  0.3096  2.9038  0.5287
  765SOL     OW 2293   0.752   0.049   1.887  0.2189 -0.0147 -0.1477
  765SOL    HW1 2294   0.696   0.118   1.938 -0.4504  0.3642  1.1588
  765SOL    HW2 2295   0.803   0.095   1.815 -1.6720  1.3505  1.8058
  766SOL     OW 2296   2.725   1.861   2.256 -0.4428 -0.3128  0.1123
  766SOL    HW1 2297   2.659   1.797   2.300 -0.0656  0.4353  0.1861
  766SOL    HW2 2298   2.822   1.838   2.291  3.4846  0.3452  1.6363
  767SOL     OW 2299   1.367   1.232   2.364  0.2973  0.2712 -0.4236
  767SOL    HW1 2300   1.336   1.178   2.445  0.2190  1.0958  0.0876
  767SOL    HW2 2301   1.298   1.233   2.290 -0.8788  0.2268  0.5121
  768SOL     OW 2302   1.490   1.784   0.170 -0.0749 -0.4072  0.1449
  768SOL    HW1 2303   1.388   1.801   0.163  0.6079  1.1558 -0.2779
  768SOL    HW2 2304   1.512   1.751   0.262 -1.0636 -0.8850 -0.7227
  769SOL     OW 2305   0.372   1.590   0.850  0.0394 -0.4189 -0.0266
  769SOL    HW1 2306   0.316   1.605   0.764  2.0983 -0.7420 -0.1422
  769SOL    HW2 2307   0.464   1.616   0.837 -2.8698 -3.1947 -0.0790
  770SOL     OW 2308   1.692   0.678   2.516 -0.3219 -0.1609  0.2248
  770SOL    HW1 2309   1.757   0.755   2.529  0.8278 -0.7302  2.8045
  770SOL    HW2 2310   1.593   0.705   2.530 -0.7820  2.3680 -1.1623
  771SOL     OW 2311   2.484   3.068   2.376 -0.2427  0.4192  0.1946
  771SOL    HW1 2312   2.451   0.034   2.302  1.5024 -0.2672  0.6767
  771SOL    HW2 2313   2.428   3.061   2.460 -0.8137 -0.1119 -1.4633
  772SOL     OW 2314   2.494   1.680   2.108  0.3348 -0.6394 -0.1465
  772SOL    HW1 2315   2.394   1.665   2.086 -2.4797  1.5807 -1.2153
  772SOL    HW2 2316   2.539   1.590   2.113 -1.1013  0.1990 -0.2469
  773SOL     OW 2317   0.974   1.406   1.513  0.3254  0.6257 -0.0270
  773SOL    HW1 2318   0.989   1.330   1.448 -0.9926 -0.4905 -0.1591
  773SOL    HW2 2319   0.913   1.477   1.475 -0.2304 -0.7730  0.4358
  774SOL     OW 2320   1.200   0.654   2.884  0.2684  0.0641  0.6206
  774SOL    HW1 2321   1.192   0.554   2.856 -1.9860  1.2626 -1.6386
  774SOL    HW2 2322   1.111   0.704   2.890  0.9019  0.1072  1.3019
  775SOL     OW 2323   1.354   2.182   0.316  0.0246 -0.1550  0.8672
  775SOL    HW1 2324   1.410   2.267   0.339 -4.6034  3.4929  1.6193
  775SOL    HW2 2325   1.363   2.164   0.217  0.4480  0.5232  1.7324
  776SOL     OW 2326   2.991   1.082   1.564 -0.4216 -0.0679 -0.4073
  776SOL    HW1 2327   3.076   1.084   1.615 -0.7446 -0.8085 -0.9833
  776SOL    HW2 2328   2.938   1.006   1.604 -0.3709  0.2076 -1.3648
  777SOL     OW 2329   2.468   2.287   2.297  0.8162 -0.6017  0.0198
  777SOL    HW1 2330   2.502   2.383   2.298 -1.9974 -2.0603 -3.3214
  777SOL    HW2 2331   2.541   2.226   2.265  0.0010  0.9780 -0.2843
  778SOL     OW 2332   1.687   1.280   2.020 -0.4778  0.0647 -0.0057
  778SOL    HW1 2333   1.602   1.287   1.965  0.8196  2.3477 -1.4625
  778SOL    HW2 2334   1.742   1.366   2.024  1.1622  2.1070  0.4601
  779SOL     OW 2335   2.941   1.193   0.490 -0.4228 -0.1390  0.4660
  779SOL    HW1 2336   2.882   1.269   0.527  1.3504  1.0654  2.2904
  779SOL    HW2 2337   2.912   1.160   0.400 -0.9322  2.1006 -0.5768
  780SOL     OW 2338   2.112   2.930   2.796 -0.2960  0.1930  0.1823
  780SOL    HW1 2339   2.064   3.001   2.737  0.4106 -0.7369 -0.4871
  780SOL    HW2 2340   2.084   2.936   2.892  0.0610 -1.2037 -1.9821
  781SOL     OW 2341   2.767   1.618   1.261  0.0902 -0.0670 -0.4339
  781SOL    HW1 2342   2.833   1.661   1.197  0.0737  0.5955  1.2555
  781SOL    HW2 2343   2.823   1.573   1.331  0.7976  2.1960  0.1907
  782SOL     OW 2344   2.935   2.278   2.808  0.2033 -0.5752  0.1328
  782SOL    HW1 2345   2.898   2.288   2.905 -2.6667 -0.1703  2.2587
  782SOL    HW2 2346   2.853   2.287   2.746 -1.4798  1.4806  1.1470
  783SOL     OW 2347   0.682   1.604   0.806  0.0828  0.2052  0.1849
  783SOL    HW1 2348   0.704   1.511   0.773  0.5742  2.8788 -0.8062
  783SOL    HW2 2349   0.678   1.670   0.727 -1.4304  0.5372 -0.2051
  784SOL     OW 2350   2.271   1.372   0.406  0.5296  0.2030 -0.0758
  784SOL    HW1 2351   2.277   1.283   0.361 -2.1547 -0.6666 -0.5900
  784SOL    HW2 2352   2.231   1.435   0.339  1.3237 -0.8117  1.8514
  785SOL     OW 2353   1.962   2.756   0.513 -0.2366 -0.3003 -0.0429
  785SOL    HW1 2354   1.937   2.797   0.424 -1.2768 -0.1262  0.5317
  785SOL    HW2 2355   1.886   2.699   0.549 -0.0089 -2.6286  2.2165
  786SOL     OW 2356   0.671   2.004   2.541  0.5664  0.4239 -0.7237
  786SOL    HW1 2357   0.620   1.934   2.486  1.3792  0.2176 -0.2733
  786SOL    HW2 2358   0.634   2.002   2.639  0.9074  0.3553 -0.9792
  787SOL     OW 2359   1.299   0.406   1.228 -0.2069  0.0242 -0.1864
  787SOL    HW1 2360   1.378   0.343   1.237 -1.1092 -0.0496  1.3187
  787SOL    HW2 2361   1.215   0.354   1.252  1.1255 -0.9398 -0.2354
  788SOL     OW 2362   0.648   0.982   0.088 -0.0661 -0.0331  0.4863
  788SOL    HW1 2363   0.598   0.918   0.027  1.0662 -0.0489  1.1350
  788SOL    HW2 2364   0.635   1.082   0.053 -1.1166  1.4630  0.8160
  789SOL     OW 2365   2.749   1.973   1.302 -0.2163 -0.2963 -0.0970
  789SOL    HW1 2366   2.661   1.938   1.333 -1.0869  0.7049  2.0022
  789SOL    HW2 2367   2.754   1.977   1.201  0.7739  0.6428  0.3026
  790SOL     OW 2368   1.440   0.171   2.210  0.1477 -0.0295 -0.1875
  790SOL    HW1 2369   1.366   0.141   2.271  2.0603 -1.0162 -1.8793
  790SOL    HW2 2370   1.394   0.222   2.132 -0.7897 -1.8544 -2.2057
  791SOL     OW 2371   0.986   0.474   0.280  0.4561 -0.5425 -0.1768
  791SOL    HW1 2372   1.003   0.388   0.230 -1.1366  3.0246  0.4735
  791SOL    HW2 2373   0.920   0.533   0.227  1.0515 -2.9539 -0.1063
  792SOL     OW 2374   1.263   0.393   1.514  0.6559  0.2152 -0.2035
  792SOL    HW1 2375   1.280   0.417   1.417  0.1931 -2.1188  0.3443
  792SOL    HW2 2376   1.305   0.463   1.577 -0.2687 -1.8627  0.0213
  793SOL     OW 2377   0.976   2.933   0.853 -0.0992 -0.4965  0.3690
  793SOL    HW1 2378   0.935   3.025   0.853 -1.1510  0.6782 -0.4088
  793SOL    HW2 2379   0.995   2.908   0.952 -0.1719  0.6609  1.6186
  794SOL     OW 2380   0.590   1.309   1.840  0.1389  0.2655 -0.1530
  794SOL    HW1 2381   0.519   1.243   1.865  1.9224  1.5785  0.5465
  794SOL    HW2 2382   0.673   1.315   1.905  2.0123  2.5693  2.0789
  795SOL     OW 2383   0.076   1.427   2.162  0.6310  0.0059 -0.1289
  795SOL    HW1 2384   0.001   1.472   2.103 -3.8921  2.6071  1.3079
  795SOL    HW2 2385   0.085   1.484   2.245 -3.1421 -0.0021  0.0764
  796SOL     OW 2386   1.862   1.590   1.813 -0.2099 -0.2294 -0.5600
  796SOL    HW1 2387   1.937   1.657   1.826  2.6179 -0.6706 -1.2229
  796SOL    HW2 2388   1.788   1.608   1.880  0.1671  1.7295  1.0136
  797SOL     OW 2389   3.083   0.337   2.649 -0.1983 -0.0126  0.0121
  797SOL    HW1 2390   0.015   0.269   2.580  1.4084  1.1710  0.7148
  797SOL    HW2 2391   3.059   0.287   2.739 -0.4077  0.4641  2.1287
  798SOL     OW 2392   0.014   2.316   1.955 -0.3500 -0.0323  0.4399
  798SOL    HW1 2393   3.093   2.384   1.880  0.5965 -0.7389 -2.5106
  798SOL    HW2 2394   0.015   2.219   1.914 -0.7650 -4.0349 -2.6609
  799SOL     OW 2395   2.839   2.318   3.048  0.0272  0.5082 -0.0979
  799SOL    HW1 2396   2.917   2.308   0.018  2.0005 -0.3587  1.9906
  799SOL    HW2 2397   2.764   2.368   3.094  0.2182 -1.1423  0.8296
  800SOL     OW 2398   1.018   1.654   0.646  0.3125  0.3736  0.3705
  800SOL    HW1 2399   0.949   1.720   0.685  1.2716 -1.1680  0.1656
  800SOL    HW2 2400   1.104   1.663   0.703  1.7910 -1.5831  1.1497
  801SOL     OW 2401   2.783   0.658   0.701 -0.0435 -0.2610  0.1255
  801SOL    HW1 2402   2.834   0.734   0.660 -1.4249 -2.9621  0.1965
  801SOL    HW2 2403   2.700   0.679   0.759  0.1150 -0.1073 -0.1992
  802SOL     OW 2404   2.599   1.586   0.501 -0.5848  0.2092 -0.1007
  802SOL    HW1 2405   2.593   1.685   0.507  1.5580  0.3080 -0.1997
  802SOL    HW2 2406   2.513   1.549   0.532  0.6324 -1.4472 -1.4686
  803SOL     OW 2407   1.689   1.924   2.917  0.4230 -0.3805  0.1618
  803SOL    HW1 2408   1.676   1.938   2.817 -1.1166  1.0807  0.8064
  803SOL    HW2 2409   1.781   1.958   2.946  1.7493  1.1504  3.2178
  804SOL     OW 2410   2.094   1.950   0.233 -0.5995 -0.0413 -0.0132
  804SOL    HW1 2411   2.086   1.880   0.311  0.3962 -2.3381 -0.0118
  804SOL    HW2 2412   2.096   1.904   0.143 -0.5141 -0.5256  1.7542
  805SOL     OW 2413   2.842   1.641   2.579  0.4916 -0.1088 -0.8967
  805SOL    HW1 2414   2.794   1.701   2.642  2.8577 -0.6425  1.6335
  805SOL    HW2 2415   2.865   1.701   2.500  1.8426 -0.6745 -1.4674
  806SOL     OW 2416   0.308   0.287   0.401  0.1029 -0.2599 -0.1008
  806SOL    HW1 2417   0.314   0.301   0.502 -0.5624 -0.0601 -1.5768
  806SOL    HW2 2418   0.217   0.245   0.377  2.6777 -0.5311 -1.0715
  807SOL     OW 2419   2.439   1.260   2.571 -0.0072  0.1672 -0.0590
  807SOL    HW1 2420   2.371   1.218   2.631 -0.5151 -0.4377  1.0381
  807SOL    HW2 2421   2.515   1.196   2.534  1.8089 -0.6241 -0.5024
  808SOL     OW 2422   0.188   1.438   0.504 -0.4450 -0.0808 -0.5768
  808SOL    HW1 2423   0.145   1.370   0.563  0.2254  0.1128  0.3933
  808SOL    HW2 2424   0.225   1.513   0.564  2.5284  1.5792  2.1079
  809SOL     OW 2425   2.571   0.589   2.861  0.3951  0.3429 -0.1966
  809SOL    HW1 2426   2.638   0.643   2.922  0.9932  2.0884  1.1906
  809SOL    HW2 2427   2.474   0.597   2.891 -4.1308 -2.0729  0.5312
  810SOL     OW 2428   0.988   0.762   0.362 -0.0953  0.0421 -0.2013
  810SOL    HW1 2429   1.022   0.670   0.334 -0.9306 -0.0707 -2.1596
  810SOL    HW2 2430   0.946   0.812   0.281 -1.4454 -3.3897  0.9576
  811SOL     OW 2431   1.535   2.571   0.810  0.2017  0.7634  0.6113
  811SOL    HW1 2432   1.444   2.619   0.794  1.6804  1.3116 -1.1365
  811SOL    HW2 2433   1.542   2.485   0.756 -1.7974  1.2879  2.9240
  812SOL     OW 2434   0.760   2.660   1.675 -0.0213  0.6620  0.3540
  812SOL    HW1 2435   0.760   2.558   1.664  1.8605 -0.5571 -1.6222
  812SOL    HW2 2436   0.805   2.682   1.759 -1.4124  0.2940 -1.2547
  813SOL     OW 2437   1.056   0.270   1.988  0.1598  0.6631 -0.5605
  813SOL    HW1 2438   1.072   0.183   2.046 -0.6601 -1.9188  4.5671
  813SOL    HW2 2439   0.984   0.329   2.033  1.0442 -2.0231  0.3596
  814SOL     OW 2440   1.328   3.031   2.806 -0.2438  0.3382  0.5941
  814SOL    HW1 2441   1.275   3.052   2.893 -0.1362 -4.2035 -0.1067
  814SOL    HW2 2442   1.293   2.952   2.754  0.8099  3.3383  1.6017
  815SOL     OW 2443   0.579   0.614   1.959  0.0432  0.1191  0.6979
  815SOL    HW1 2444   0.508   0.643   1.897  1.0634 -2.5924  2.0965
  815SOL    HW2 2445   0.593   0.695   2.019  0.3191  3.2527  1.7714
  816SOL     OW 2446   2.319   0.417   0.008  0.5962  0.0972 -0.0892
  816SOL    HW1 2447   2.239   0.390   0.067  1.1517 -1.4651 -0.0050
  816SOL    HW2 2448   2.344   0.338   3.041 -2.3227  0.1301 -2.2905
  817SOL     OW 2449   1.795   0.172   2.753  0.1806  0.4240  1.0425
  817SOL    HW1 2450   1.798   0.263   2.712  0.7323 -2.9158 -0.9672
  817SOL    HW2 2451   1.705   0.146   2.790  0.9543  2.8379 -1.8800
  818SOL     OW 2452   2.093   0.402   0.160 -0.3928  0.0239 -0.7730
  818SOL    HW1 2453   2.108   0.305   0.192 -0.8639 -1.9582 -1.4031
  818SOL    HW2 2454   2.052   0.467   0.231  0.9961  0.8407  1.3618
  819SOL     OW 2455   2.360   1.543   0.107 -0.2140  0.2697 -0.6158
  819SOL    HW1 2456   2.422   1.620   0.116 -1.0100 -1.7247  1.4271
  819SOL    HW2 2457   2.412   1.460   0.098  1.2686  2.2647  1.9443
  820SOL     OW 2458   2.879   1.977   0.116 -0.3885 -0.3733 -0.5171
  820SOL    HW1 2459   2.831   1.912   0.179 -0.8478  0.2969  2.0917
  820SOL    HW2 2460   2.831   1.978   0.027  1.6365 -2.0267  2.6191
  821SOL     OW 2461   0.369   2.644   1.495  0.3495 -0.6475 -0.2132
  821SOL    HW1 2462   0.283   2.689   1.534 -0.6980 -2.3038  0.0528
  821SOL    HW2 2463   0.360   2.627   1.395 -0.7257  0.9824  1.7690
  822SOL     OW 2464   2.747   2.627   2.422 -0.2464 -0.8868  0.2455
  822SOL    HW1 2465   2.734   2.726   2.399 -1.3976 -0.3933 -0.6079
  822SOL    HW2 2466   2.661   2.582   2.403  1.5164  2.7892  0.0747
  823SOL     OW 2467   1.592   3.007   2.337 -0.3137  0.8907 -0.2129
  823SOL    HW1 2468   1.636   3.069   2.270 -1.3087 -0.3056 -3.1612
  823SOL    HW2 2469   1.538   3.064   2.399  2.0160  0.7633 -1.7455
  824SOL     OW 2470   2.434   1.746   1.075 -0.4966  0.1691  0.1603
  824SOL    HW1 2471   2.431   1.777   0.979 -4.0093 -2.7187  0.7837
  824SOL    HW2 2472   2.465   1.647   1.076  0.1548 -1.0413  0.9421
  825SOL     OW 2473   2.880   2.003   2.660 -0.3172  0.2777 -0.2503
  825SOL    HW1 2474   2.901   2.057   2.578 -0.4281  0.2767  1.0411
  825SOL    HW2 2475   2.958   2.026   2.723 -2.6565  1.4400  0.0887
  826SOL     OW 2476   2.813   1.414   2.207  0.1949  0.6885  0.5707
  826SOL    HW1 2477   2.717   1.395   2.168 -1.0555  0.8046 -0.8478
  826SOL    HW2 2478   2.816   1.429   2.310 -0.0329  2.3266  2.7996
  827SOL     OW 2479   2.507   2.559   1.726  0.0594  0.2997  0.6903
  827SOL    HW1 2480   2.534   2.478   1.665 -1.2918  0.0966  0.1486
  827SOL    HW2 2481   2.404   2.557   1.732 -2.1496  0.6150  0.0562
  828SOL     OW 2482   2.933   3.007   1.570  0.4999 -0.2055  0.0772
  828SOL    HW1 2483   2.867   3.009   1.497  4.0783  0.6204  1.5618
  828SOL    HW2 2484   3.011   3.062   1.540  1.2198  1.5431  0.4223
  829SOL     OW 2485   1.950   1.897   2.367 -0.4795 -0.1075  0.5583
  829SOL    HW1 2486   1.861   1.946   2.365 -0.7425  1.9839 -2.5832
  829SOL    HW2 2487   1.969   1.860   2.459 -2.2923  2.9505  1.1916
  830SOL     OW 2488   1.561   0.640   0.892  0.3402  0.3238  0.2467
  830SOL    HW1 2489   1.635   0.579   0.858 -0.6767  1.2095  2.4152
  830SOL    HW2 2490   1.599   0.721   0.940 -1.3743 -0.6479 -2.1416
  831SOL     OW 2491   2.947   1.509   0.817 -0.3900  0.0442 -0.4105
  831SOL    HW1 2492   2.997   1.437   0.870 -1.5655  0.0364  0.8680
  831SOL    HW2 2493   2.889   1.461   0.749  0.9730 -0.8541 -1.1549
  832SOL     OW 2494   1.513   2.305   1.911 -0.1707  0.3099  0.9208
  832SOL    HW1 2495   1.487   2.399   1.872 -0.8581  4.0357  1.5866
  832SOL    HW2 2496   1.614   2.283   1.910  1.3249 -0.0384 -0.5693
  833SOL     OW 2497   3.071   2.966   2.285 -0.0982  0.4025 -0.3280
  833SOL    HW1 2498   3.009   2.973   2.208  1.4853 -0.7194  0.3463
  833SOL    HW2 2499   3.032   2.973   2.380 -0.1629  1.6677  4.0301
  834SOL     OW 2500   1.052   0.976   1.236 -0.2330 -0.7358 -0.1095
  834SOL    HW1 2501   1.113   0.958   1.315 -2.0587 -0.2891  1.1357
  834SOL    HW2 2502   1.084   0.925   1.152  0.2575  1.1907  2.1767
  835SOL     OW 2503   3.091   0.774   2.822 -0.5159 -0.2805  0.2047
  835SOL    HW1 2504   2.994   0.789   2.796 -0.3269 -1.7168 -0.3715
  835SOL    HW2 2505   0.010   0.748   2.924 -0.1639  1.3176  1.8008
  836SOL     OW 2506   1.058   2.378   1.068 -0.2456 -0.1239  0.7054
  836SOL    HW1 2507   0.967   2.417   1.039 -1.9223  1.3041  0.0774
  836SOL    HW2 2508   1.119   2.448   1.109 -0.9909 -1.5390 -1.9530
  837SOL     OW 2509   2.143   0.843   1.165 -0.1449  0.2117  0.0749
  837SOL    HW1 2510   2.077   0.819   1.094  1.6519  1.5230  1.4190
  837SOL    HW2 2511   2.096   0.900   1.234  2.7936 -1.0812 -0.4744
  838SOL     OW 2512   1.416   1.694   2.807 -0.0960 -0.1694 -0.0633
  838SOL    HW1 2513   1.475   1.684   2.893 -1.6879  0.6059  1.6924
  838SOL    HW2 2514   1.452   1.769   2.750 -1.2450  0.2896 -1.0869
  839SOL     OW 2515   0.564   2.263   2.841 -0.0585 -0.2665  0.5319
  839SOL    HW1 2516   0.586   2.164   2.857  0.5716  1.8939  2.3347
  839SOL    HW2 2517   0.497   2.295   2.907  0.1261  4.6566  0.1613
  840SOL     OW 2518   0.765   2.441   2.836  0.1292 -0.4040 -0.0632
  840SOL    HW1 2519   0.683   2.385   2.818  0.3707  2.9649  1.1440
  840SOL    HW2 2520   0.765   2.530   2.789  0.2765 -0.5743 -0.1055
  841SOL     OW 2521   1.929   2.071   2.938 -0.2651  0.1207 -0.1543
  841SOL    HW1 2522   2.026   2.034   2.949  0.6979 -0.5480  1.8114
  841SOL    HW2 2523   1.914   2.150   3.003 -1.7283  1.8246 -0.1576
  842SOL     OW 2524   1.550   0.879   2.834  0.4844  0.2706 -0.1860
  842SOL    HW1 2525   1.578   0.973   2.814  0.5598 -0.3736  1.7675
  842SOL    HW2 2526   1.451   0.870   2.813  1.0805  3.2108  0.2564
  843SOL     OW 2527   1.325   2.994   0.721  0.2831 -0.1035 -0.0275
  843SOL    HW1 2528   1.427   3.011   0.728 -1.6969 -1.3276  1.6544
  843SOL    HW2 2529   1.287   3.059   0.649 -1.1863  3.4855 -3.3391
  844SOL     OW 2530   2.512   2.851   2.666  0.9863 -0.0037 -0.5075
  844SOL    HW1 2531   2.477   2.802   2.751  2.2880 -1.5538  1.7291
  844SOL    HW2 2532   2.542   2.947   2.685 -0.4059 -1.8706 -1.7939
  845SOL     OW 2533   2.843   2.951   1.305 -0.2720 -0.3972  0.1232
  845SOL    HW1 2534   2.839   3.036   1.253 -2.5281 -1.6471 -1.5761
  845SOL    HW2 2535   2.751   2.901   1.297  3.0815 -1.7060 -0.4820
  846SOL     OW 2536   0.253   2.271   2.200  0.0151  0.2420 -0.8000
  846SOL    HW1 2537   0.200   2.357   2.199 -0.1257  1.0222 -2.0242
  846SOL    HW2 2538   0.282   2.242   2.293 -0.9085 -0.2094 -0.9881
  847SOL     OW 2539   1.646   0.191   1.472 -0.1178 -0.0957 -0.0856
  847SOL    HW1 2540   1.577   0.241   1.529 -1.9973  0.0070  1.9706
  847SOL    HW2 2541   1.657   0.093   1.500 -3.4647  0.6238  0.4562
  848SOL     OW 2542   2.882   0.575   0.148 -0.2616 -0.4908 -0.1104
  848SOL    HW1 2543   2.958   0.515   0.108 -1.2632 -2.0802 -0.2631
  848SOL    HW2 2544   2.793   0.523   0.153  0.9828 -0.6766  0.2413
  849SOL     OW 2545   0.511   0.601   0.097 -0.2273  0.5872  0.5163
  849SOL    HW1 2546   0.456   0.635   0.173 -1.3238 -1.9776  2.6834
  849SOL    HW2 2547   0.471   0.516   0.061 -1.8643  0.7683 -0.8233
  850SOL     OW 2548   0.386   2.694   0.954  0.0877 -0.0480  0.2063
  850SOL    HW1 2549   0.300   2.733   0.990  1.2806 -1.6537  0.0732
  850SOL    HW2 2550   0.450   2.768   0.940 -1.6288 -2.5838  0.2718
  851SOL     OW 2551   1.921   0.180   2.379  0.5227 -0.1856 -0.2747
  851SOL    HW1 2552   1.823   0.175   2.419 -2.2027 -2.2343  1.7355
  851SOL    HW2 2553   1.921   0.132   2.290  1.0340  2.1257  0.8047
  852SOL     OW 2554   1.549   1.570   2.337  0.1313 -0.1628 -0.2568
  852SOL    HW1 2555   1.516   1.530   2.429 -1.3699  1.2194  0.7333
  852SOL    HW2 2556   1.473   1.574   2.273  0.7704  1.6783  0.0693
  853SOL     OW 2557   0.149   2.924   0.440  0.1054 -0.2140 -0.2941
  853SOL    HW1 2558   0.158   2.847   0.379 -1.2750  1.1236  2.0596
  853SOL    HW2 2559   0.184   2.900   0.530 -2.9236  2.6754 -0.2496
  854SOL     OW 2560   2.369   3.009   0.752  0.2212 -0.3668  0.2409
  854SOL    HW1 2561   2.281   3.056   0.725  1.9121  2.3222 -1.6780
  854SOL    HW2 2562   2.409   2.958   0.678 -1.7640  3.1420  1.6948
  855SOL     OW 2563   1.430   2.147   0.751 -0.4515 -0.7862  0.2175
  855SOL    HW1 2564   1.372   2.098   0.682  0.0173 -0.7801  0.4206
  855SOL    HW2 2565   1.369   2.210   0.801 -0.9955 -1.2059  2.4546
  856SOL     OW 2566   2.429   0.476   0.402 -0.0986 -0.2603  0.3243
  856SOL    HW1 2567   2.421   0.381   0.362 -1.7282  1.9833  1.5313
  856SOL    HW2 2568   2.526   0.492   0.440  1.1867 -0.4426 -0.2848
  857SOL     OW 2569   1.832   2.530   1.717  0.4432  0.1391  0.3937
  857SOL    HW1 2570   1.862   2.586   1.792 -2.1859 -0.0590 -3.8336
  857SOL    HW2 2571   1.913   2.507   1.663 -0.0949  0.9220 -2.2636
  858SOL     OW 2572   2.574   2.192   1.399  0.0681  0.2049  0.1054
  858SOL    HW1 2573   2.643   2.201   1.326  0.1920  0.0716  1.3953
  858SOL    HW2 2574   2.485   2.189   1.358  0.2656 -0.7414  0.2932
  859SOL     OW 2575   1.136   2.521   0.727 -0.0817  0.0864  0.1289
  859SOL    HW1 2576   1.046   2.549   0.774 -1.0495  1.0531 -0.8983
  859SOL    HW2 2577   1.208   2.592   0.738 -1.3375 -1.8086  1.3050
  860SOL     OW 2578   2.064   2.342   0.209  0.1260  0.6524  0.7731
  860SOL    HW1 2579   2.116   2.281   0.274 -1.5967 -0.2532  1.4572
  860SOL    HW2 2580   2.095   2.338   0.114 -1.9728  2.6100  1.6171
  861SOL     OW 2581   2.106   2.415   0.943  0.2751  0.5169  0.1863
  861SOL    HW1 2582   2.129   2.479   0.868 -3.0212  1.0588 -0.4659
  861SOL    HW2 2583   2.189   2.393   0.994 -4.2911  2.9448 -1.4060
  862SOL     OW 2584   1.727   2.770   2.772 -0.1097 -0.0096  0.0297
  862SOL    HW1 2585   1.738   2.842   2.700 -1.8146 -1.6405  1.3288
  862SOL    HW2 2586   1.755   2.804   2.862  0.2456  0.6141 -3.6475
  863SOL     OW 2587   0.530   3.091   0.321 -0.0147 -0.6264 -0.3449
  863SOL    HW1 2588   0.546   3.063   0.419 -2.2290 -2.8149 -1.1375
  863SOL    HW2 2589   0.611   3.062   0.266  1.3666 -1.4033 -1.2168
  864SOL     OW 2590   2.615   2.609   1.996  0.0096 -0.4060 -0.0167
  864SOL    HW1 2591   2.709   2.562   2.008  1.0308 -2.1044  0.5528
  864SOL    HW2 2592   2.574   2.591   1.905  0.8322 -0.4947 -1.3428
  865SOL     OW 2593   0.017   2.061   2.823  0.4789 -0.1733 -0.3951
  865SOL    HW1 2594   0.018   2.004   2.910  3.6842 -0.0168 -2.4811
  865SOL    HW2 2595   3.063   2.144   2.838 -1.1485 -2.7843 -0.3495
  866SOL     OW 2596   2.632   0.310   2.831  0.3038 -0.0030  0.6740
  866SOL    HW1 2597   2.708   0.295   2.760 -0.6284  0.9758  0.2699
  866SOL    HW2 2598   2.596   0.406   2.820 -0.4445 -0.9782 -1.6715
  867SOL     OW 2599   2.959   2.902   2.559 -0.1457  0.1036 -0.0995
  867SOL    HW1 2600   2.871   2.893   2.513  2.9882  0.1328  1.5971
  867SOL    HW2 2601   2.962   2.827   2.629  4.2274 -1.1674  1.6572
  868SOL     OW 2602   0.897   2.664   0.814  0.1700  0.0023 -0.5190
  868SOL    HW1 2603   0.924   2.753   0.849  1.7174  1.4056 -0.2960
  868SOL    HW2 2604   0.880   2.669   0.713 -1.1904 -0.2811 -0.2039
  869SOL     OW 2605   1.330   1.327   1.152  0.6875  0.0853 -0.5177
  869SOL    HW1 2606   1.308   1.419   1.114  1.1340  2.5469 -0.7187
  869SOL    HW2 2607   1.425   1.295   1.124 -2.7968  1.2120  0.4505
  870SOL     OW 2608   1.918   1.812   1.172 -0.3935  0.7188 -0.0004
  870SOL    HW1 2609   1.962   1.724   1.144  2.9702 -0.4234 -1.0674
  870SOL    HW2 2610   1.953   1.843   1.263  2.2825  1.0517 -0.9124
  871SOL     OW 2611   0.990   1.391   1.061  0.8108  0.4379  0.4834
  871SOL    HW1 2612   0.941   1.320   1.005 -2.4976  0.1253 -2.4895
  871SOL    HW2 2613   0.934   1.477   1.067  0.7336  0.9392  0.9535
  872SOL     OW 2614   1.145   0.501   0.722 -0.6523 -0.0541 -0.6521
  872SOL    HW1 2615   1.224   0.568   0.695  0.3879  1.4378 -0.7954
  872SOL    HW2 2616   1.157   0.473   0.820 -0.2894 -0.2551 -0.8966
  873SOL     OW 2617   1.719   0.468   2.699  0.0407  0.0677  0.3458
  873SOL    HW1 2618   1.774   0.504   2.776 -0.2512 -2.0653  2.1612
  873SOL    HW2 2619   1.700   0.541   2.630  0.8742 -1.4577  0.4514
  874SOL     OW 2620   0.561   1.305   1.197  0.4498  0.2149  0.0188
  874SOL    HW1 2621   0.583   1.367   1.275 -3.7332 -1.2607  0.3443
  874SOL    HW2 2622   0.493   1.336   1.128  0.2786  2.9268 -2.1708
  875SOL     OW 2623   2.801   2.715   3.031  0.3447  0.5795  0.1682
  875SOL    HW1 2624   2.785   2.632   2.974  4.2384  1.4397 -0.5466
  875SOL    HW2 2625   2.800   2.796   2.976  1.1735 -2.7177  3.0777
  876SOL     OW 2626   0.848   0.552   2.979  0.2953 -0.0265 -0.2731
  876SOL    HW1 2627   0.831   0.567   3.078  0.3298  0.6249  1.1263
  876SOL    HW2 2628   0.886   0.636   2.936 -1.3901 -0.6711 -0.7401
  877SOL     OW 2629   0.008   2.839   1.366  0.1784 -0.0406  0.5053
  877SOL    HW1 2630   0.076   2.909   1.342 -1.4100 -2.3870 -0.1430
  877SOL    HW2 2631   3.011   2.860   1.331 -0.5496  1.9764 -1.8636
  878SOL     OW 2632   1.972   1.862   2.633  0.2823 -0.0909 -0.5373
  878SOL    HW1 2633   1.908   1.936   2.666  2.0097 -2.5651 -2.0995
  878SOL    HW2 2634   2.069   1.872   2.660  1.3475  0.2817  2.0082
  879SOL     OW 2635   2.232   1.745   1.877 -0.5016  0.6213 -0.0467
  879SOL    HW1 2636   2.227   1.722   1.975 -2.2692  0.8690  1.7663
  879SOL    HW2 2637   2.297   1.684   1.821  0.6087 -2.5374 -1.0155
  880SOL     OW 2638   0.926   1.083   0.941 -0.1529 -0.0153  0.4496
  880SOL    HW1 2639   1.019   1.120   0.962  0.4202 -1.1945 -0.3967
  880SOL    HW2 2640   0.919   0.985   0.977 -0.7825  0.4995  3.4088
  881SOL     OW 2641   1.281   1.500   0.018  0.1672  0.0244 -0.0748
  881SOL    HW1 2642   1.244   1.591   0.043 -0.2551  0.2390 -0.3436
  881SOL    HW2 2643   1.327   1.450   0.096 -1.2450 -1.8179 -2.3775
  882SOL     OW 2644   1.844   0.076   1.154 -0.0245  0.6831  0.3395
  882SOL    HW1 2645   1.869   0.146   1.220 -0.8954  0.9352 -2.1904
  882SOL    HW2 2646   1.927   0.065   1.099  0.8533 -0.3466  1.5457
  883SOL     OW 2647   1.933   0.640   2.110  0.3310 -0.2811  0.3517
  883SOL    HW1 2648   1.840   0.604   2.103  1.4106  0.5239 -0.7812
  883SOL    HW2 2649   2.000   0.565   2.130 -0.1552  2.6491  1.3115
  884SOL     OW 2650   2.767   0.710   2.979 -0.3944  0.2006 -0.8955
  884SOL    HW1 2651   2.802   0.753   2.893 -0.1824 -0.4854  3.2144
  884SOL    HW2 2652   2.841   0.675   3.045  1.8496 -3.0308 -0.8726
  885SOL     OW 2653   1.221   2.298   0.832 -0.2249  0.5983  0.0191
  885SOL    HW1 2654   1.185   2.374   0.782 -0.6135 -1.1654  1.3430
  885SOL    HW2 2655   1.192   2.311   0.931 -2.0630 -1.4698 -0.8811
  886SOL     OW 2656   1.302   0.868   2.758 -0.1803 -0.5759 -0.0139
  886SOL    HW1 2657   1.255   0.787   2.797 -0.6762  0.6910  0.3171
  886SOL    HW2 2658   1.237   0.926   2.706 -1.1346 -0.3910 -1.4104
  887SOL     OW 2659   1.729   3.046   1.585 -0.1036 -0.2229 -0.2018
  887SOL    HW1 2660   1.788   3.074   1.661 -1.6746  0.4274 -0.3885
  887SOL    HW2 2661   1.643   3.001   1.619 -1.5500  0.0905  0.4493
  888SOL     OW 2662   2.890   1.737   1.603  0.2626  0.4067  0.0212
  888SOL    HW1 2663   2.978   1.751   1.657  0.1751 -1.3461 -1.4658
  888SOL    HW2 2664   2.893   1.643   1.557  0.9942 -3.0913 -0.9478
  889SOL     OW 2665   3.030   2.734   0.671  0.3916  0.2938  0.4025
  889SOL    HW1 2666   2.969   2.734   0.753 -0.9276  0.8658 -0.9046
  889SOL    HW2 2667   3.028   2.821   0.625  0.9830  0.4197 -0.5250
  890SOL     OW 2668   0.667   1.917   2.198  0.0246 -0.3313  0.0208
  890SOL    HW1 2669   0.676   2.018   2.218 -1.3394 -2.7515  0.3615
  890SOL    HW2 2670   0.637   1.909   2.098 -0.5349  0.1513  0.2604
  891SOL     OW 2671   0.662   1.759   0.598 -0.8288 -0.0399 -0.1528
  891SOL    HW1 2672   0.751   1.815   0.608  2.2341  1.6503  1.9858
  891SOL    HW2 2673   0.618   1.789   0.510 -0.4916 -0.3771 -0.5599
  892SOL     OW 2674   2.722   2.533   1.234  0.2552  0.6825  0.1630
  892SOL    HW1 2675   2.764   2.529   1.326 -1.2954 -0.2220 -1.3148
  892SOL    HW2 2676   2.752   2.444   1.188  1.2921  0.2790 -1.9261
  893SOL     OW 2677   0.203   0.461   1.722  0.0327 -0.2662  0.3990
  893SOL    HW1 2678   0.223   0.412   1.638  0.8699 -2.7474 -1.0764
  893SOL    HW2 2679   0.243   0.559   1.728  1.0114  1.7134  2.0543
  894SOL     OW 2680   2.746   1.906   1.016 -0.2051 -0.3180  0.4436
  894SOL    HW1 2681   2.665   1.865   0.962 -0.2849 -1.8183 -0.1332
  894SOL    HW2 2682   2.816   1.829   1.031  0.5136 -0.1259  1.1374
  895SOL     OW 2683   1.278   2.485   1.471 -0.1301  0.2873  0.3699
  895SOL    HW1 2684   1.306   2.444   1.563  0.2527 -2.5159  4.4888
  895SOL    HW2 2685   1.236   2.579   1.482  1.8586  1.8685 -0.2777
  896SOL     OW 2686   0.710   0.324   1.352  0.1037  0.4386 -0.1319
  896SOL    HW1 2687   0.627   0.314   1.414 -1.4872  0.7333 -1.1963
  896SOL    HW2 2688   0.789   0.339   1.415  0.6526  1.9611  2.2366
  897SOL     OW 2689   1.206   1.135   1.003  0.6336 -0.0583  0.4462
  897SOL    HW1 2690   1.262   1.200   1.058 -0.1558 -0.2779 -1.5197
  897SOL    HW2 2691   1.234   1.037   1.026 -0.3495 -1.3665 -0.6327
  898SOL     OW 2692   0.818   0.331   1.753  0.2412  0.2171 -0.0088
  898SOL    HW1 2693   0.837   0.416   1.808  1.5265 -0.8674  0.4524
  898SOL    HW2 2694   0.899   0.273   1.740  2.2970  1.5343  1.9458
  899SOL     OW 2695   1.493   0.352   0.233  0.1651 -0.4158 -0.5019
  899SOL    HW1 2696   1.565   0.372   0.166 -2.3894  1.0172 -4.1296
  899SOL    HW2 2697   1.433   0.436   0.247 -1.3845 -0.0491  0.3528
  900SOL     OW 2698   1.115   0.693   2.472 -0.1825  0.0306 -0.7893
  900SOL    HW1 2699   1.033   0.755   2.474  2.7748 -0.4576 -2.1610
  900SOL    HW2 2700   1.102   0.625   2.393 -3.4297  1.9636 -2.3738
  901SOL     OW 2701   0.676   2.089   0.405 -0.0461 -0.1406  0.1692
  901SOL    HW1 2702   0.753   2.022   0.402 -2.9652 -0.0536  2.6292
  901SOL    HW2 2703   0.653   2.125   0.312  1.0928 -0.2793 -0.7434
  902SOL     OW 2704   1.862   0.242   0.843 -0.2595  0.6255  0.3986
  902SOL    HW1 2705   1.840   0.149   0.801  0.1462 -2.3982 -0.5249
  902SOL    HW2 2706   1.821   0.250   0.931 -0.4205 -0.2572 -1.5226
  903SOL     OW 2707   0.062   1.392   2.562  0.0213  0.2017  0.2905
  903SOL    HW1 2708   0.093   1.485   2.540 -0.4270 -4.2185  0.3372
  903SOL    HW2 2709   3.060   1.381   2.531 -2.3715 -0.5288 -1.7194
  904SOL     OW 2710   1.749   1.266   0.426 -0.4168 -0.4200  0.4159
  904SOL    HW1 2711   1.683   1.318   0.486 -2.5750 -0.0743 -1.8203
  904SOL    HW2 2712   1.717   1.168   0.418 -2.4097  1.1549 -1.3715
  905SOL     OW 2713   1.970   2.688   1.354 -0.3026  0.2046  0.2596
  905SOL    HW1 2714   1.925   2.722   1.269 -1.7366  1.9209 -3.6234
  905SOL    HW2 2715   2.035   2.614   1.329 -0.5065  1.2622 -0.2728
  906SOL     OW 2716   2.247   2.650   0.855 -0.5625  0.8561  0.0832
  906SOL    HW1 2717   2.192   2.733   0.875  0.2654  0.4853 -0.7135
  906SOL    HW2 2718   2.334   2.649   0.909  2.4943  1.3015  2.6424
  907SOL     OW 2719   2.216   0.869   0.376  0.0612  0.1263  0.3582
  907SOL    HW1 2720   2.186   0.803   0.306 -0.9668 -0.5580  1.7668
  907SOL    HW2 2721   2.141   0.920   0.422 -0.1679  3.2809  0.3144
  908SOL     OW 2722   1.886   0.290   1.336 -0.3463 -0.1662  0.2514
  908SOL    HW1 2723   1.892   0.390   1.306 -1.9656  2.6192 -1.3366
  908SOL    HW2 2724   1.800   0.266   1.383  1.9385 -1.6339  1.3801
  909SOL     OW 2725   2.420   2.900   0.978 -0.3747 -0.6562 -0.5077
  909SOL    HW1 2726   2.408   2.958   0.895  0.4655  0.2605  0.4698
  909SOL    HW2 2727   2.404   2.958   1.063 -1.6394 -0.1000  1.9030
  910SOL     OW 2728   2.269   0.548   2.025 -0.2232  0.5105 -0.2630
  910SOL    HW1 2729   2.191   0.526   2.085  0.0976  2.1100 -1.9647
  910SOL    HW2 2730   2.352   0.489   2.048  2.5531 -0.3172  2.6844
  911SOL     OW 2731   2.002   0.027   2.628  0.1433  0.2961  0.1371
  911SOL    HW1 2732   1.917   0.075   2.668 -4.5387 -0.9634 -0.4616
  911SOL    HW2 2733   2.036   0.069   2.540 -0.8320  1.3129 -0.6805
  912SOL     OW 2734   0.523   0.957   1.304 -0.2094 -0.1746 -0.3966
  912SOL    HW1 2735   0.616   0.996   1.305 -3.3071  1.6694 -2.1974
  912SOL    HW2 2736   0.530   0.857   1.293  1.0011 -1.0477 -0.7572
  913SOL     OW 2737   2.474   2.613   1.111 -0.6047 -0.1141 -0.4097
  913SOL    HW1 2738   2.448   2.707   1.134 -0.8249 -2.1562 -1.1709
  913SOL    HW2 2739   2.574   2.600   1.103 -1.0896  2.0236 -0.5657
  914SOL     OW 2740   1.169   0.431   0.979 -0.0522 -0.3645 -0.0332
  914SOL    HW1 2741   1.249   0.482   1.018  3.1309  2.4208 -1.6039
  914SOL    HW2 2742   1.188   0.330   0.965  0.2482 -2.7093  0.1380
  915SOL     OW 2743   0.373   1.554   1.319  0.3554  0.2946  0.3961
  915SOL    HW1 2744   0.358   1.523   1.224 -1.2039 -0.0239 -4.1886
  915SOL    HW2 2745   0.362   1.658   1.325 -1.3631 -0.7779  1.2330
  916SOL     OW 2746   1.922   2.230   0.933 -0.1008  0.3983 -0.0478
  916SOL    HW1 2747   1.995   2.298   0.953  2.5255 -2.9304  0.5706
  916SOL    HW2 2748   1.826   2.265   0.950 -2.5262 -0.1212  0.6720
  917SOL     OW 2749   2.008   2.411   2.313 -0.0494 -0.3496  0.1976
  917SOL    HW1 2750   2.027   2.389   2.215  0.2345  0.3287 -0.3648
  917SOL    HW2 2751   1.921   2.469   2.316 -1.4598  2.0653  1.4268
  918SOL     OW 2752   2.040   1.575   2.576 -0.3991  0.0685  0.3572
  918SOL    HW1 2753   2.123   1.545   2.627 -3.8267  3.7714 -1.6635
  918SOL    HW2 2754   2.002   1.661   2.605  0.3423 -2.2202 -0.5506
  919SOL     OW 2755   0.743   0.530   1.184 -0.2342  0.2454  0.1198
  919SOL    HW1 2756   0.739   0.451   1.252 -0.0891 -1.8737 -0.9489
  919SOL    HW2 2757   0.836   0.554   1.150 -2.2657 -0.1724  2.1132
  920SOL     OW 2758   2.822   0.708   2.123 -0.4034  0.0437 -0.1332
  920SOL    HW1 2759   2.851   0.663   2.038 -0.0269  2.0188  1.2642
  920SOL    HW2 2760   2.888   0.682   2.194 -0.0426 -1.7896 -0.2711
  921SOL     OW 2761   2.519   1.246   1.505 -0.4466 -0.4239  0.1731
  921SOL    HW1 2762   2.589   1.209   1.441 -1.5449 -0.2942  1.1869
  921SOL    HW2 2763   2.558   1.285   1.593 -0.7983 -1.2069  1.8614
  922SOL     OW 2764   2.763   2.327   0.791 -0.3147 -0.1016 -0.4561
  922SOL    HW1 2765   2.740   2.243   0.847 -1.5835 -3.1998 -1.7544
  922SOL    HW2 2766   2.680   2.382   0.783  1.5134 -2.2916 -1.9844
  923SOL     OW 2767   0.067   2.324   0.537 -0.2131  0.2004  0.2108
  923SOL    HW1 2768   0.065   2.262   0.625 -0.7321 -1.6968  4.1993
  923SOL    HW2 2769   0.148   2.297   0.479  7.8783  2.2891 -0.7709
  924SOL     OW 2770   1.037   1.216   2.978 -0.5292 -0.0850  0.4662
  924SOL    HW1 2771   1.118   1.272   2.948 -0.3687  0.7412  1.5706
  924SOL    HW2 2772   0.956   1.269   2.983  3.6174 -0.8471 -2.3178
  925SOL     OW 2773   3.034   1.264   0.911  0.5861  0.1118 -0.4326
  925SOL    HW1 2774   3.088   1.272   0.996  0.3073  1.3488 -2.0377
  925SOL    HW2 2775   2.980   1.178   0.909 -0.4650 -2.1492  1.7842
  926SOL     OW 2776   0.174   0.029   1.276  0.0486 -0.1158  0.2344
  926SOL    HW1 2777   0.266   0.065   1.249 -0.6615 -1.3978 -0.6410
  926SOL    HW2 2778   0.126   0.017   1.184 -1.8623  1.7544  0.0061
  927SOL     OW 2779   0.616   1.742   2.405 -0.5813 -0.3314  0.0523
  927SOL    HW1 2780   0.710   1.717   2.433 -1.2938 -2.5373  3.9775
  927SOL    HW2 2781   0.619   1.787   2.309  0.4619  1.5583 -3.2726
  928SOL     OW 2782   0.293   0.629   2.365 -0.1673  0.0372  0.1658
  928SOL    HW1 2783   0.337   0.539   2.361 -0.9393 -1.1955  0.2052
  928SOL    HW2 2784   0.251   0.647   2.454  0.0839 -0.3403  1.1552
  929SOL     OW 2785   2.655   2.160   0.989  0.1903 -0.6460  0.5984
  929SOL    HW1 2786   2.558   2.152   0.948  0.7796 -0.6065  0.9362
  929SOL    HW2 2787   2.684   2.066   1.000 -1.7292  1.5348 -1.5277
  930SOL     OW 2788   1.655   0.195   2.444  0.2492  0.5971 -0.3885
  930SOL    HW1 2789   1.614   0.166   2.536  1.9461 -1.8119  1.4009
  930SOL    HW2 2790   1.606   0.271   2.395  0.8095  2.0264 -1.6747
  931SOL     OW 2791   2.498   0.995   2.820 -0.1448 -0.3296 -0.7578
  931SOL    HW1 2792   2.515   1.012   2.920  1.2186 -3.0053  2.1822
  931SOL    HW2 2793   2.412   0.939   2.801  0.8385 -1.0839  2.2414
  932SOL     OW 2794   1.740   0.862   0.646  0.1812 -0.1149  0.0003
  932SOL    HW1 2795   1.752   0.905   0.552  0.6158 -0.6807 -1.5882
  932SOL    HW2 2796   1.819   0.799   0.655 -0.7075 -1.6487 -1.0722
  933SOL     OW 2797   2.350   0.618   0.704 -0.2665 -0.1135 -0.0560
  933SOL    HW1 2798   2.294   0.597   0.625 -1.0037  1.5840  3.0353
  933SOL    HW2 2799   2.372   0.718   0.701 -1.3773  1.1549  0.1143
  934SOL     OW 2800   2.640   1.128   2.459  0.0980 -0.6474 -0.6859
  934SOL    HW1 2801   2.692   1.041   2.460 -2.3316  1.8696 -1.2468
  934SOL    HW2 2802   2.616   1.155   2.364 -0.5343 -0.2734  1.3936
  935SOL     OW 2803   0.083   1.358   1.123  0.6248 -0.1772 -0.4716
  935SOL    HW1 2804   0.033   1.445   1.137  0.1700 -0.3686 -1.9816
  935SOL    HW2 2805   0.103   1.310   1.211 -0.1159 -0.4787  2.3108
  936SOL     OW 2806   0.067   3.001   0.103  0.1022  0.1910  0.6327
  936SOL    HW1 2807   0.090   2.900   0.088 -0.1793 -2.2379  0.6087
  936SOL    HW2 2808   0.156   3.048   0.118  1.8654 -1.8870 -1.3042
  937SOL     OW 2809   2.848   2.493   2.054  0.3092  0.1670 -0.1628
  937SOL    HW1 2810   2.846   2.500   2.152  2.4241 -1.3749 -2.8641
  937SOL    HW2 2811   2.853   2.403   2.016 -0.6989  0.6652 -0.4537
  938SOL     OW 2812   2.238   2.307   3.055 -0.0012 -0.7357 -0.1665
  938SOL    HW1 2813   2.302   2.230   3.034 -0.4962  0.0211  0.5407
  938SOL    HW2 2814   2.182   2.328   2.973  0.3297 -1.1006  2.3768
  939SOL     OW 2815   1.050   0.614   1.405  0.0421 -0.1171  0.5624
  939SOL    HW1 2816   1.138   0.675   1.411  1.0908  1.2573  2.3681
  939SOL    HW2 2817   0.973   0.648   1.463  1.9714 -1.9135  1.9541
  940SOL     OW 2818   2.355   2.950   3.022 -0.6716  0.2914 -0.7675
  940SOL    HW1 2819   2.267   2.988   2.988 -1.7627  1.2201 -0.8162
  940SOL    HW2 2820   2.390   2.872   2.964  1.7114  0.2552 -2.3768
  941SOL     OW 2821   2.640   2.868   2.080  0.2135  0.2955 -0.2105
  941SOL    HW1 2822   2.552   2.922   2.072 -2.8564 -0.9758 -0.2581
  941SOL    HW2 2823   2.623   2.776   2.042 -1.0618 -0.7498 -1.0128
  942SOL     OW 2824   1.619   0.009   1.041 -0.1520 -0.0276  0.3328
  942SOL    HW1 2825   1.570   3.021   1.070  1.4945  1.1696  0.1500
  942SOL    HW2 2826   1.705   0.019   1.097 -2.2940 -2.4104 -0.4734
  943SOL     OW 2827   1.229   1.509   2.415  0.1897  0.2124 -0.5926
  943SOL    HW1 2828   1.308   1.493   2.480  2.1085  1.2513  1.2213
  943SOL    HW2 2829   1.266   1.548   2.324 -0.4879  0.7622 -2.8181
  944SOL     OW 2830   2.728   0.848   1.456 -0.1247  0.1946 -0.4657
  944SOL    HW1 2831   2.771   0.792   1.382 -2.3000  1.2568  0.6080
  944SOL    HW2 2832   2.758   0.808   1.542  0.5202  1.6408 -0.3514
  945SOL     OW 2833   2.625   0.008   2.714  0.1105  0.0477  0.3725
  945SOL    HW1 2834   2.585   0.088   2.759  1.5251 -0.2048 -0.1683
  945SOL    HW2 2835   2.680   0.038   2.635  1.9518 -1.3110  1.0480
  946SOL     OW 2836   0.125   1.470   1.428  0.5527  0.1210  0.1028
  946SOL    HW1 2837   0.207   1.532   1.417  0.2728  1.8631  3.6010
  946SOL    HW2 2838   0.140   1.376   1.403  2.2396 -0.2757  3.0107
  947SOL     OW 2839   0.452   0.421   2.797 -0.4778 -0.2808 -0.2848
  947SOL    HW1 2840   0.468   0.321   2.793 -0.8623 -2.3243  0.3488
  947SOL    HW2 2841   0.360   0.443   2.758 -1.8349 -1.0082  0.1144
  948SOL     OW 2842   2.107   1.555   1.149 -0.2792  0.1506  0.3340
  948SOL    HW1 2843   2.070   1.558   1.245 -1.2097  2.2224  1.9506
  948SOL    HW2 2844   2.171   1.476   1.140 -0.0460  1.5045 -0.9228
  949SOL     OW 2845   0.397   1.242   2.908  0.0401 -0.3363 -0.3505
  949SOL    HW1 2846   0.409   1.314   2.839 -0.3449 -1.8452 -0.0934
  949SOL    HW2 2847   0.326   1.172   2.890  1.4315 -0.8735  1.1447
  950SOL     OW 2848   0.539   2.812   1.644 -0.4818  0.9993 -0.3158
  950SOL    HW1 2849   0.470   2.757   1.594 -0.0912  0.3270  0.5520
  950SOL    HW2 2850   0.615   2.746   1.655 -2.0743 -0.0005 -0.4251
  951SOL     OW 2851   0.843   2.180   2.456  0.2411 -0.6379 -0.3562
  951SOL    HW1 2852   0.772   2.123   2.506  2.8348  1.1458 -0.3174
  951SOL    HW2 2853   0.923   2.202   2.517 -1.4230  2.9160  1.0187
  952SOL     OW 2854   0.606   1.149   0.619  0.2888 -0.4570  0.4911
  952SOL    HW1 2855   0.562   1.068   0.664  3.7418 -0.6799 -2.8404
  952SOL    HW2 2856   0.627   1.126   0.523 -1.8109  1.0240 -0.1586
  953SOL     OW 2857   2.198   1.608   2.999  0.0982  0.2288 -0.0767
  953SOL    HW1 2858   2.109   1.558   2.995  0.7083  0.7171 -0.1445
  953SOL    HW2 2859   2.252   1.586   3.084  0.3276 -2.6262 -1.1501
  954SOL     OW 2860   1.519   0.287   0.488 -0.2694  0.1359 -0.1031
  954SOL    HW1 2861   1.509   0.315   0.390 -0.3614  0.8825  0.5104
  954SOL    HW2 2862   1.566   0.192   0.488  2.5893 -0.5265 -2.6920
  955SOL     OW 2863   0.925   1.547   0.066 -0.0728 -0.5486  0.0976
  955SOL    HW1 2864   0.873   1.482   0.006 -0.0405  1.6813  1.2887
  955SOL    HW2 2865   0.972   1.494   0.143 -0.0049 -0.0169  1.6033
  956SOL     OW 2866   2.752   0.377   2.031  0.1837 -0.0331 -0.0786
  956SOL    HW1 2867   2.766   0.462   1.972  0.2537  1.7586 -0.0338
  956SOL    HW2 2868   2.805   0.381   2.118 -0.9771  0.8539  1.8977
  957SOL     OW 2869   1.905   1.885   2.000 -0.0690 -0.0360  0.2592
  957SOL    HW1 2870   1.810   1.883   2.009  1.5713 -0.2640  0.2949
  957SOL    HW2 2871   1.961   1.846   2.075 -2.2519  1.7897  0.6762
  958SOL     OW 2872   1.726   0.828   1.162  0.4440  0.0860 -0.1347
  958SOL    HW1 2873   1.760   0.927   1.164  2.2277  2.6634  2.3412
  958SOL    HW2 2874   1.746   0.782   1.245  1.5438  0.9057 -2.5314
  959SOL     OW 2875   1.520   2.115   2.102  0.4223 -0.0938 -0.3337
  959SOL    HW1 2876   1.548   2.028   2.059 -2.1464  1.6255  1.0896
  959SOL    HW2 2877   1.506   2.176   2.019  1.5726  3.0532 -1.3904
  960SOL     OW 2878   0.786   1.234   2.605 -0.0462 -0.2652  0.1993
  960SOL    HW1 2879   0.861   1.277   2.549 -1.1070  0.6049 -0.2420
  960SOL    HW2 2880   0.715   1.198   2.539  0.3964 -0.7166 -1.8765
  961SOL     OW 2881   2.739   1.262   0.063  0.1722  0.4774 -0.4061
  961SOL    HW1 2882   2.798   1.328   0.010  1.0466  2.6876 -1.0731
  961SOL    HW2 2883   2.659   1.313   0.102 -1.5701  1.0031  0.7346
  962SOL     OW 2884   0.855   1.803   0.052  0.2434  0.2209 -0.1680
  962SOL    HW1 2885   0.891   1.708   0.057 -2.2602  1.4592 -1.1874
  962SOL    HW2 2886   0.911   1.846   3.074  0.1502  0.6293  0.1933
  963SOL     OW 2887   2.765   1.542   0.007 -0.6956  0.4897  0.5136
  963SOL    HW1 2888   2.740   1.527   0.101  0.1171  1.7160 -1.4468
  963SOL    HW2 2889   2.869   1.541   3.086  2.6925  2.6127 -2.8538
  964SOL     OW 2890   0.752   2.189   2.187  0.5790  0.6431  0.1536
  964SOL    HW1 2891   0.780   2.196   2.282 -0.3914 -1.4893  1.3655
  964SOL    HW2 2892   0.698   2.268   2.155 -0.2313 -3.2802  1.2334
  965SOL     OW 2893   1.308   1.922   1.369  0.3339  0.1202  0.0961
  965SOL    HW1 2894   1.359   1.977   1.298 -2.1509 -0.2286 -0.3678
  965SOL    HW2 2895   1.277   1.837   1.328 -0.6925 -0.4877 -0.1262
  966SOL     OW 2896   3.024   1.477   0.390  0.1773 -0.0735 -0.2550
  966SOL    HW1 2897   0.013   1.459   0.442 -2.0885  3.0843 -1.8430
  966SOL    HW2 2898   3.027   1.449   0.290 -1.9118  1.9419 -1.7714
  967SOL     OW 2899   1.917   2.644   2.591 -0.1735  0.1523 -0.3170
  967SOL    HW1 2900   1.855   2.698   2.655  0.2581  2.3717 -0.8502
  967SOL    HW2 2901   2.001   2.639   2.640 -1.1754 -1.6809  0.1040
  968SOL     OW 2902   1.431   1.303   2.949 -0.1947  0.3863 -0.5567
  968SOL    HW1 2903   1.491   1.244   3.008  2.4237 -0.9655 -0.4150
  968SOL    HW2 2904   1.391   1.369   3.010 -0.4655  1.0340  0.7333
  969SOL     OW 2905   0.166   0.972   2.439 -0.5069 -0.3347  0.1991
  969SOL    HW1 2906   0.132   1.048   2.381  2.0375  1.4041  0.0857
  969SOL    HW2 2907   0.245   1.001   2.499  0.0262  0.4181  0.8967
  970SOL     OW 2908   2.381   0.200   0.340  0.1259 -0.6377  0.5241
  970SOL    HW1 2909   2.291   0.167   0.304 -0.5433 -2.4476  1.4643
  970SOL    HW2 2910   2.456   0.131   0.340 -2.1622 -0.1003 -0.4370
  971SOL     OW 2911   1.637   1.924   0.840  0.2574  0.0461 -0.2470
  971SOL    HW1 2912   1.568   2.000   0.822 -1.0290  1.9374  1.1609
  971SOL    HW2 2913   1.696   1.950   0.918  0.1757  0.5305  1.3448
  972SOL     OW 2914   0.247   2.026   2.670 -0.4038  0.1072 -0.0014
  972SOL    HW1 2915   0.177   2.023   2.739 -0.8302  0.0983  0.5577
  972SOL    HW2 2916   0.304   1.946   2.680  0.6989  1.2674 -0.5690
  973SOL     OW 2917   0.585   0.524   0.475 -0.2775  0.5120 -0.2561
  973SOL    HW1 2918   0.517   0.577   0.421  3.6197 -4.4338 -2.3720
  973SOL    HW2 2919   0.598   0.432   0.436  0.1583  0.4706  0.3056
  974SOL     OW 2920   2.689   0.665   1.730  0.7806  0.1205  0.7869
  974SOL    HW1 2921   2.709   0.599   1.655 -0.7830 -1.3646 -0.8865
  974SOL    HW2 2922   2.607   0.644   1.793  1.8155 -3.1166  1.1491
  975SOL     OW 2923   0.302   3.076   0.803 -0.3654  0.5354  0.0333
  975SOL    HW1 2924   0.268   2.991   0.756 -0.0219 -0.4756 -1.9042
  975SOL    HW2 2925   0.371   0.033   0.745  0.4952 -0.4803 -0.9471
  976SOL     OW 2926   0.800   1.588   1.381  0.5752  0.3726  0.2305
  976SOL    HW1 2927   0.739   1.508   1.372 -1.1335 -0.5288 -2.3527
  976SOL    HW2 2928   0.756   1.670   1.426  0.8889  0.6919  1.1165
  977SOL     OW 2929   1.296   2.031   0.542 -0.0804 -0.4220  0.2269
  977SOL    HW1 2930   1.324   2.085   0.458  0.0143  0.3829 -0.1760
  977SOL    HW2 2931   1.313   1.931   0.530 -0.3361 -0.1951  0.7870
  978SOL     OW 2932   0.159   1.178   0.034  0.3756 -0.1427  0.9786
  978SOL    HW1 2933   0.225   1.218   3.061  0.6431  1.6264 -0.8392
  978SOL    HW2 2934   0.205   1.128   0.106 -3.1067  2.4640 -0.7649
  979SOL     OW 2935   2.012   1.130   0.219  0.1994  0.1230 -0.6625
  979SOL    HW1 2936   1.965   1.042   0.187  0.3043 -4.0617 -1.5992
  979SOL    HW2 2937   2.046   1.122   0.315  1.7867  0.6115  0.5187
  980SOL     OW 2938   0.719   1.700   1.897 -0.8031  0.1462  0.4449
  980SOL    HW1 2939   0.701   1.647   1.810 -0.5979 -1.4497  1.0591
  980SOL    HW2 2940   0.652   1.671   1.969 -1.2355  0.8723 -0.3373
  981SOL     OW 2941   2.268   1.417   2.293 -0.1925 -0.1174 -0.2286
  981SOL    HW1 2942   2.320   1.426   2.386  2.3995 -1.6420  3.4957
  981SOL    HW2 2943   2.272   1.321   2.263 -0.7469  0.5345 -0.0528
  982SOL     OW 2944   0.425   2.169   1.733  0.2570  0.2693 -0.1229
  982SOL    HW1 2945   0.430   2.267   1.699 -0.6315  1.9484 -0.9739
  982SOL    HW2 2946   0.417   2.184   1.832 -0.8846  0.5022 -1.0580
  983SOL     OW 2947   1.536   2.722   2.000 -0.5530 -0.0352 -0.2950
  983SOL    HW1 2948   1.565   2.804   1.950  2.1406 -0.5838  1.6651
  983SOL    HW2 2949   1.523   2.646   1.934  1.4707  0.4522  1.1158
  984SOL     OW 2950   3.046   0.157   2.838 -0.2277  0.0226 -0.2667
  984SOL    HW1 2951   3.004   0.200   2.922  0.0046  1.9135  1.4282
  984SOL    HW2 2952   3.051   0.056   2.854  1.4640 -3.1800 -1.2197
  985SOL     OW 2953   1.510   1.327   1.801  0.4669  0.0931  0.6951
  985SOL    HW1 2954   1.547   1.345   1.710 -1.0703  0.7304  3.0731
  985SOL    HW2 2955   1.415   1.283   1.796 -2.9641 -1.0344  1.4473
  986SOL     OW 2956   1.710   0.444   0.063 -0.1596  0.4351 -0.0495
  986SOL    HW1 2957   1.787   0.492   0.111 -0.4809 -1.8710 -1.5827
  986SOL    HW2 2958   1.684   0.483   3.070  0.5764 -0.6649 -0.3684
  987SOL     OW 2959   0.242   2.262   2.483 -0.4444 -1.0013 -0.0782
  987SOL    HW1 2960   0.316   2.320   2.531  0.2828  1.1917  0.5050
  987SOL    HW2 2961   0.224   2.175   2.536 -0.9853 -2.8157 -1.4969
  988SOL     OW 2962   2.922   0.242   1.599  0.1113  0.1776  0.3568
  988SOL    HW1 2963   3.006   0.190   1.579 -1.5416 -1.6593  0.8491
  988SOL    HW2 2964   2.852   0.201   1.532 -1.5294 -1.0204 -2.6104
  989SOL     OW 2965   2.080   0.008   1.044 -0.1707 -0.8368  0.4286
  989SOL    HW1 2966   2.087   3.000   1.032  1.0481 -2.3255  1.1611
  989SOL    HW2 2967   2.083   0.051   0.951 -0.0394 -1.2259  1.9642
  990SOL     OW 2968   2.776   0.840   0.139 -0.2013  0.0443 -0.0495
  990SOL    HW1 2969   2.808   0.890   0.057 -0.1128  1.0880  1.3819
  990SOL    HW2 2970   2.799   0.738   0.129  0.0627 -3.4796 -1.5507
  991SOL     OW 2971   0.241   1.029   0.677  0.7240  0.1029  0.1941
  991SOL    HW1 2972   0.171   1.101   0.686  0.6945  1.9203 -1.0127
  991SOL    HW2 2973   0.322   1.049   0.735 -3.7413 -0.1289 -0.2282
  992SOL     OW 2974   1.776   1.612   1.558  0.5166  0.1073 -0.2526
  992SOL    HW1 2975   1.766   1.710   1.534 -2.8510 -1.5364 -1.5427
  992SOL    HW2 2976   1.813   1.603   1.653 -0.3892 -0.7694  0.6070
  993SOL     OW 2977   2.987   2.427   0.933 -0.3554 -0.7136 -0.0255
  993SOL    HW1 2978   3.029   2.362   0.993 -1.4178  1.3098 -3.3281
  993SOL    HW2 2979   2.918   2.388   0.867 -0.1678 -0.2090 -0.0359
  994SOL     OW 2980   3.020   1.866   1.331 -0.2843 -0.3157  0.1986
  994SOL    HW1 2981   2.935   1.915   1.296 -0.2811  3.0411  1.8760
  994SOL    HW2 2982   3.002   1.837   1.425 -0.0210 -1.6948 -1.0963
  995SOL     OW 2983   2.054   1.227   2.937  0.0968  0.1950 -0.2198
  995SOL    HW1 2984   1.981   1.158   2.940  3.7115  2.6772 -0.1300
  995SOL    HW2 2985   2.016   1.323   2.943  3.0453 -1.0481  0.3439
  996SOL     OW 2986   1.899   2.428   0.591  0.0840  0.0360  0.5746
  996SOL    HW1 2987   1.888   2.415   0.493  0.2346 -1.4265 -0.0259
  996SOL    HW2 2988   1.955   2.356   0.634  0.5877 -0.7332 -0.5481
  997SOL     OW 2989   1.424   1.549   1.919 -0.1288 -0.1646 -0.5561
  997SOL    HW1 2990   1.375   1.601   1.845  2.9676  0.1909 -1.6481
  997SOL    HW2 2991   1.447   1.456   1.885  0.1613  0.6475 -2.1647
  998SOL     OW 2992   3.038   2.568   0.443  0.2836  1.0083  0.0462
  998SOL    HW1 2993   3.063   2.468   0.456  2.3995 -1.7423  1.2057
  998SOL    HW2 2994   3.053   2.617   0.530  2.6403  0.0838 -1.1246
  999SOL     OW 2995   0.671   3.037   0.085  0.3272 -0.1891 -0.1228
  999SOL    HW1 2996   0.625   2.949   0.064 -2.7616 -1.9011 -0.8719
  999SOL    HW2 2997   0.654   0.011   0.021 -1.0610 -1.6921 -0.1201
 1000SOL     OW 2998   0.889   0.254   0.137 -0.0834 -0.2231 -0.6331
 1000SOL    HW1 2999   0.963   0.264   0.068 -1.2962  0.1028  4.0964
 1000SOL    HW2 3000   0.802   0.285   0.091  1.1089 -0.2605  0.6922
   3.09554   3.09554   3.09554
