1000 SPC/Fw water molecules t= 226.00000 step= 226000
 3000
    1SOL     OW    1   3.013   2.790   0.775 -0.6746 -0.4024  0.1895
    1SOL    HW1    2   3.078   2.740   0.832  1.3289  1.3619 -0.5091
    1SOL    HW2    3   3.017   2.891   0.779 -1.8466 -0.5862 -1.0646
    2SOL     OW    4   1.914   1.743   1.877 -0.1154  0.0036 -0.6223
    2SOL    HW1    5   1.859   1.717   1.962 -1.0556 -0.1470  0.9520
    2SOL    HW2    6   1.909   1.668   1.810  2.3466  0.5533  3.0142
    3SOL     OW    7   1.576   2.145   2.444 -0.2208 -0.0965  0.1706
    3SOL    HW1    8   1.508   2.166   2.517 -2.6795 -0.3617  0.1216
    3SOL    HW2    9   1.660   2.197   2.446 -1.0761 -1.7737  0.4669
    4SOL     OW   10   2.105   2.016   2.316  0.3157 -0.3611  0.5627
    4SOL    HW1   11   2.094   2.082   2.396 -3.1614  0.3338  1.6062
    4SOL    HW2   12   2.177   1.944   2.334 -0.1033 -0.6105 -0.1031
    5SOL     OW   13   1.514   1.029   1.600 -0.5546 -0.0248  1.0591
    5SOL    HW1   14   1.548   1.020   1.503 -1.6983  2.4586 -0.1823
    5SOL    HW2   15   1.414   1.016   1.600 -0.0882  0.5788 -2.6545
    6SOL     OW   16   2.743   0.244   2.999  0.1973  0.2340  0.1591
    6SOL    HW1   17   2.838   0.284   2.990 -0.0776 -0.4477 -1.1634
    6SOL    HW2   18   2.750   0.146   3.039 -1.1787 -1.9212  2.7732
    7SOL     OW   19   0.141   1.549   1.322  0.0759  0.3710 -0.1265
    7SOL    HW1   20   0.162   1.465   1.263  0.9344 -0.7243 -1.2218
    7SOL    HW2   21   0.176   1.635   1.279  1.8001 -1.7049  0.4172
    8SOL     OW   22   1.121   0.330   0.775 -0.3503 -0.7271  0.2606
    8SOL    HW1   23   1.217   0.371   0.791  0.2662 -0.2251 -1.9254
    8SOL    HW2   24   1.092   0.324   0.873  2.0496  3.7280  0.6860
    9SOL     OW   25   1.253   0.443   2.528  0.1211  0.9220  0.3442
    9SOL    HW1   26   1.288   0.535   2.547 -0.6916  0.4047 -2.2120
    9SOL    HW2   27   1.262   0.423   2.429 -2.2376 -0.7788 -0.1076
   10SOL     OW   28   0.672   2.470   3.030  0.1786  0.1087 -0.1267
   10SOL    HW1   29   0.770   2.457   3.005 -0.5454  1.3734  2.4309
   10SOL    HW2   30   0.664   2.482   0.053  1.2863 -3.1021 -0.7853
   11SOL     OW   31   0.906   0.814   0.049  0.3584  0.6827 -0.7486
   11SOL    HW1   32   0.918   0.847   3.036 -1.2021 -2.2767 -1.1810
   11SOL    HW2   33   0.821   0.749   0.059 -2.3263 -1.5315  3.7447
   12SOL     OW   34   0.039   0.155   1.732 -0.1525  0.0429 -0.2098
   12SOL    HW1   35   3.051   0.229   1.706 -2.4906  1.1238  1.1607
   12SOL    HW2   36   0.132   0.193   1.725  0.3712 -0.0381 -1.6694
   13SOL     OW   37   1.276   0.153   0.213 -0.2168  0.2353  0.3629
   13SOL    HW1   38   1.185   0.118   0.194  2.2088  1.2028  0.5574
   13SOL    HW2   39   1.275   0.200   0.301 -0.8084 -3.7431 -1.9716
   14SOL     OW   40   1.198   2.499   1.173  0.2668  0.0870  0.5260
   14SOL    HW1   41   1.164   2.495   1.270 -0.4504 -0.8331 -0.0210
   14SOL    HW2   42   1.238   2.408   1.145 -1.9953  0.8403  1.2471
   15SOL     OW   43   2.559   1.222   1.695  0.0157 -0.3356  0.3060
   15SOL    HW1   44   2.660   1.234   1.702  0.2615  3.2139 -0.6579
   15SOL    HW2   45   2.534   1.130   1.655 -0.5462 -0.4327 -0.4205
   16SOL     OW   46   1.802   2.978   2.910 -0.1767  0.0635  0.4833
   16SOL    HW1   47   1.861   2.913   2.853 -0.0001 -1.4536 -1.8345
   16SOL    HW2   48   1.823   3.075   2.882  1.3211 -1.4315  3.1719
   17SOL     OW   49   0.760   0.057   1.366 -0.4413  0.0611 -0.9337
   17SOL    HW1   50   0.734   0.025   1.276 -1.3547 -1.9215 -1.9568
   17SOL    HW2   51   0.806   3.068   1.423 -0.7368 -1.8021  0.1672
   18SOL     OW   52   1.475   0.575   3.046  0.0523  0.2510  0.1107
   18SOL    HW1   53   1.450   0.509   0.040 -0.5625  1.9127  0.4113
   18SOL    HW2   54   1.496   0.668   0.000 -1.3962 -0.7077 -2.7055
   19SOL     OW   55   2.222   1.831   0.150  0.1788 -0.2758 -0.2767
   19SOL    HW1   56   2.251   1.765   0.220  0.1620  2.4019 -2.9521
   19SOL    HW2   57   2.194   1.915   0.196  0.6990  0.2768  1.8612
   20SOL     OW   58   2.029   1.630   1.599 -0.2587  0.0131 -0.5013
   20SOL    HW1   59   2.107   1.675   1.647 -0.5567 -1.3861  0.3165
   20SOL    HW2   60   1.992   1.553   1.654 -1.9948 -1.2184 -4.0203
   21SOL     OW   61   0.941   0.974   2.881  0.3008 -0.2871  0.0959
   21SOL    HW1   62   1.029   0.922   2.883  4.7328 -2.5856  3.8132
   21SOL    HW2   63   0.952   1.066   2.922 -0.4306  1.3861 -0.6909
   22SOL     OW   64   2.089   3.016   1.406 -0.1869 -0.5917  0.1937
   22SOL    HW1   65   2.007   2.959   1.385 -0.5400 -0.9674  0.8243
   22SOL    HW2   66   2.091   0.012   1.341  0.8771 -0.0485 -3.6557
   23SOL     OW   67   2.974   0.378   1.706 -0.4227 -0.0119  0.0389
   23SOL    HW1   68   3.055   0.416   1.658 -0.8243 -1.0636  0.3489
   23SOL    HW2   69   2.955   0.431   1.793  2.2747 -1.5670 -0.7867
   24SOL     OW   70   2.231   2.587   1.074 -0.1823  0.2808  0.0493
   24SOL    HW1   71   2.294   2.547   1.147  0.9835  0.2812 -0.3747
   24SOL    HW2   72   2.155   2.636   1.122  0.5828  2.1100  0.4646
   25SOL     OW   73   1.608   2.755   2.433 -0.3179 -0.1769 -0.0968
   25SOL    HW1   74   1.675   2.731   2.355 -0.9209  1.5437  1.0781
   25SOL    HW2   75   1.534   2.683   2.440  1.1931  0.9433  0.2539
   26SOL     OW   76   1.596   2.621   3.006  0.6240  0.1099 -0.5682
   26SOL    HW1   77   1.559   2.652   2.919  0.5114 -2.6400 -0.1530
   26SOL    HW2   78   1.683   2.570   2.989 -1.1240  2.5119 -0.2829
   27SOL     OW   79   0.324   1.516   2.652  0.3875  0.5852 -0.0674
   27SOL    HW1   80   0.263   1.581   2.708  0.9686  2.7297  2.4870
   27SOL    HW2   81   0.413   1.561   2.622 -0.4928 -1.6852  1.0456
   28SOL     OW   82   2.886   1.119   1.471  0.1798  0.1950  0.3462
   28SOL    HW1   83   2.957   1.149   1.401  0.6444 -0.7153  0.1361
   28SOL    HW2   84   2.883   1.187   1.547  0.7982 -2.4260 -0.4437
   29SOL     OW   85   2.669   2.469   2.057  0.0507  0.7447 -0.0956
   29SOL    HW1   86   2.750   2.410   2.045  1.1209  2.5096 -0.7408
   29SOL    HW2   87   2.665   2.535   1.977 -0.0466 -2.5531 -1.3941
   30SOL     OW   88   1.664   0.220   3.036  0.5917  0.2553  0.4113
   30SOL    HW1   89   1.571   0.246   3.001 -3.1272 -0.7208 -0.5057
   30SOL    HW2   90   1.688   0.263   0.046  0.8554 -0.0287  0.4894
   31SOL     OW   91   2.709   2.608   1.787  0.0126  0.6059 -0.0263
   31SOL    HW1   92   2.789   2.654   1.829  1.4322  0.5129 -1.1473
   31SOL    HW2   93   2.660   2.668   1.720 -2.1724  1.9023 -1.5682
   32SOL     OW   94   1.256   1.421   1.424 -0.3910 -0.7138 -0.4179
   32SOL    HW1   95   1.295   1.496   1.364  2.1371  1.4030 -0.8302
   32SOL    HW2   96   1.177   1.374   1.382 -2.0094 -0.8489 -4.4850
   33SOL     OW   97   0.355   2.721   2.460  0.1869  0.2020 -0.0395
   33SOL    HW1   98   0.359   2.708   2.360 -3.0109 -0.0088  2.3296
   33SOL    HW2   99   0.320   2.645   2.519  1.4759  2.8198  2.1193
   34SOL     OW  100   1.744   0.078   0.742  0.3150 -0.5138 -0.0148
   34SOL    HW1  101   1.682   0.052   0.663 -3.2915 -1.0947 -1.9658
   34SOL    HW2  102   1.841   0.045   0.735  1.1138  0.3099 -0.0121
   35SOL     OW  103   2.000   0.004   0.730  0.0960 -0.7357  0.0523
   35SOL    HW1  104   2.042   0.032   0.637  1.0462 -1.1021 -3.9066
   35SOL    HW2  105   2.054   0.038   0.805  0.9800 -1.2359 -1.2326
   36SOL     OW  106   1.770   2.660   2.248  0.2993 -0.3651 -0.0049
   36SOL    HW1  107   1.857   2.610   2.229  0.7317 -2.2225 -0.5697
   36SOL    HW2  108   1.692   2.618   2.192 -0.6154 -2.0441  2.3011
   37SOL     OW  109   0.887   2.781   2.197  0.0942  0.1125 -0.0406
   37SOL    HW1  110   0.857   2.741   2.107  1.7932  1.1007 -3.1843
   37SOL    HW2  111   0.944   2.714   2.256  1.7664 -1.1579 -0.5687
   38SOL     OW  112   0.065   2.740   2.583  0.4504  0.6967  0.1836
   38SOL    HW1  113   0.094   2.644   2.558  1.3834 -0.8010 -0.5248
   38SOL    HW2  114   0.086   2.802   2.505  1.0719  1.0673 -0.9345
   39SOL     OW  115   2.284   1.365   1.977 -0.5107 -0.0407 -1.0273
   39SOL    HW1  116   2.379   1.394   1.947 -0.6641  1.5023 -0.4454
   39SOL    HW2  117   2.217   1.445   1.983 -1.6009  1.3933 -0.9594
   40SOL     OW  118   0.316   3.065   2.782  0.1106 -0.3540 -0.7258
   40SOL    HW1  119   0.275   0.070   2.751  0.1272  0.1253 -1.9562
   40SOL    HW2  120   0.413   3.059   2.747 -2.6698  1.5925  0.5178
   41SOL     OW  121   1.717   0.722   0.974  0.5789 -0.3414 -0.2997
   41SOL    HW1  122   1.767   0.789   0.913  1.4138 -0.9880 -0.0514
   41SOL    HW2  123   1.615   0.733   0.972 -1.7406  1.5996 -0.6238
   42SOL     OW  124   0.603   0.624   1.465 -0.4956  0.8267 -0.2469
   42SOL    HW1  125   0.701   0.610   1.439 -1.7295  0.5387  1.4841
   42SOL    HW2  126   0.553   0.634   1.378 -0.7314  2.1479  0.9369
   43SOL     OW  127   2.698   1.593   2.655 -0.1288 -0.2741  0.2243
   43SOL    HW1  128   2.761   1.517   2.639 -0.0036  2.1599 -0.4326
   43SOL    HW2  129   2.746   1.676   2.692 -0.8411 -0.0272 -0.8718
   44SOL     OW  130   3.045   2.481   0.384  0.3353 -0.2970 -0.4036
   44SOL    HW1  131   3.042   2.580   0.412  0.9699  0.3658 -0.7535
   44SOL    HW2  132   2.993   2.436   0.460 -2.7045 -0.4643  2.4385
   45SOL     OW  133   0.381   2.612   1.646 -0.7018 -0.1395 -0.3032
   45SOL    HW1  134   0.352   2.520   1.612 -1.1193 -2.0181  0.5888
   45SOL    HW2  135   0.310   2.687   1.650 -0.8672  0.5524  0.9922
   46SOL     OW  136   2.297   2.321   2.294  0.4827 -0.0600 -0.0960
   46SOL    HW1  137   2.375   2.259   2.315  2.1428 -2.2446  0.0004
   46SOL    HW2  138   2.310   2.361   2.199 -1.7090 -1.6927 -4.5170
   47SOL     OW  139   2.234   2.002   1.401 -0.4831  0.5604  0.1867
   47SOL    HW1  140   2.254   2.085   1.346 -2.5228 -1.5330 -0.0135
   47SOL    HW2  141   2.134   1.991   1.409  1.0201 -0.7526 -1.9296
   48SOL     OW  142   0.673   1.784   0.137 -0.2350  0.0057  0.7203
   48SOL    HW1  143   0.768   1.743   0.116  0.6233 -0.1105  1.8133
   48SOL    HW2  144   0.623   1.723   0.202 -0.2003 -1.0455  0.2834
   49SOL     OW  145   2.882   0.306   2.574  0.0962 -0.0875  0.2972
   49SOL    HW1  146   2.793   0.276   2.528 -1.3816  1.0391 -1.1618
   49SOL    HW2  147   2.939   0.345   2.501 -1.1994 -1.4196 -1.6138
   50SOL     OW  148   2.296   0.828   0.160 -0.4703  0.2835  0.5168
   50SOL    HW1  149   2.277   0.890   0.240  2.2289 -2.7554  0.4173
   50SOL    HW2  150   2.217   0.760   0.147 -3.6212 -3.2158  0.1097
   51SOL     OW  151   2.078   0.736   1.156 -0.0633  0.6032  0.3041
   51SOL    HW1  152   2.118   0.784   1.078 -0.7528 -2.6835 -1.4720
   51SOL    HW2  153   2.017   0.657   1.125 -2.7386 -1.5745 -0.6655
   52SOL     OW  154   1.164   1.292   2.749 -0.7621  0.3588  0.2731
   52SOL    HW1  155   1.229   1.368   2.723  0.3653  0.4230 -0.3311
   52SOL    HW2  156   1.215   1.202   2.749 -2.7821 -2.6372 -0.7405
   53SOL     OW  157   0.811   1.663   1.706  0.3364 -0.4191  0.0081
   53SOL    HW1  158   0.749   1.687   1.786 -2.0056 -0.5229  0.9499
   53SOL    HW2  159   0.754   1.646   1.622  0.8185  0.5801  1.3074
   54SOL     OW  160   1.966   0.344   0.891  0.2586 -0.2946  0.6664
   54SOL    HW1  161   2.011   0.254   0.873  0.9274  1.4121  0.0679
   54SOL    HW2  162   1.981   0.404   0.809  2.9220  2.5909  2.0595
   55SOL     OW  163   2.593   2.295   1.260  0.0337  0.1678 -0.6279
   55SOL    HW1  164   2.641   2.322   1.177 -0.1766  1.6801 -0.4771
   55SOL    HW2  165   2.620   2.199   1.295  0.4949 -2.2068  1.3154
   56SOL     OW  166   0.938   2.947   1.487  0.1376  0.2274  0.6427
   56SOL    HW1  167   0.920   2.890   1.404 -0.3807  0.0501 -3.3119
   56SOL    HW2  168   1.027   2.924   1.530  0.0244  0.7526  0.3876
   57SOL     OW  169   1.610   1.398   0.399  0.2551  0.0621 -0.0242
   57SOL    HW1  170   1.704   1.420   0.433 -2.8047  2.1265  1.2625
   57SOL    HW2  171   1.549   1.480   0.394 -0.6891  2.3253  0.4003
   58SOL     OW  172   3.016   0.397   2.330 -0.3485  0.1889  0.0910
   58SOL    HW1  173   3.014   0.377   2.230  0.2065  2.1100  0.3694
   58SOL    HW2  174   2.954   0.475   2.351  0.4321  1.5162 -0.1179
   59SOL     OW  175   1.051   2.613   2.353  0.1836  0.2782  0.3506
   59SOL    HW1  176   1.074   2.639   2.449 -0.6976  0.5905  1.3907
   59SOL    HW2  177   0.985   2.537   2.350  1.8444  0.3047 -0.5563
   60SOL     OW  178   2.562   2.565   0.739 -0.4497  0.3255  0.2556
   60SOL    HW1  179   2.510   2.533   0.822  0.6296  1.1184  2.6875
   60SOL    HW2  180   2.505   2.578   0.659  1.5854 -2.1805 -2.4136
   61SOL     OW  181   1.391   2.136   0.657 -0.8046 -0.7374  0.6985
   61SOL    HW1  182   1.327   2.209   0.627  1.3178 -1.4230 -0.8004
   61SOL    HW2  183   1.362   2.046   0.627 -1.5434  4.3435 -1.2145
   62SOL     OW  184   2.416   2.038   2.569 -0.5329 -0.1292  0.3327
   62SOL    HW1  185   2.438   1.943   2.590 -1.2260  3.2362 -0.6849
   62SOL    HW2  186   2.314   2.057   2.584 -2.7419  1.4879 -0.3451
   63SOL     OW  187   2.194   0.074   2.938  0.2206  0.2499  0.2201
   63SOL    HW1  188   2.192   0.171   2.977 -0.1035 -0.6226 -0.0274
   63SOL    HW2  189   2.288   0.039   2.914 -1.1404  0.6937 -0.3344
   64SOL     OW  190   1.174   0.854   2.707 -0.0676  0.5134  0.6415
   64SOL    HW1  191   1.199   0.864   2.805 -0.8665  3.5990 -0.9809
   64SOL    HW2  192   1.238   0.787   2.662 -0.3636 -2.7334  1.0121
   65SOL     OW  193   1.447   2.247   0.182  0.5328  0.0712 -0.0487
   65SOL    HW1  194   1.385   2.327   0.165 -0.8428 -1.3486 -1.3131
   65SOL    HW2  195   1.546   2.275   0.199  2.6960 -1.6133  1.1615
   66SOL     OW  196   0.081   1.185   1.747 -0.5725  0.5080  0.0476
   66SOL    HW1  197   0.135   1.174   1.834  1.9772  1.2874  0.4218
   66SOL    HW2  198   0.142   1.158   1.670  0.2072 -2.3992 -1.5132
   67SOL     OW  199   2.541   0.194   2.712  0.3543  0.7337  0.0449
   67SOL    HW1  200   2.602   0.267   2.750  0.1733 -0.7578  1.2653
   67SOL    HW2  201   2.547   0.183   2.609  2.1008  1.3816  2.9163
   68SOL     OW  202   0.572   2.448   1.197  0.2042 -0.1093 -0.0191
   68SOL    HW1  203   0.660   2.398   1.217  0.3507  0.2489 -0.5858
   68SOL    HW2  204   0.546   2.516   1.269 -1.5754  0.9502  1.8146
   69SOL     OW  205   0.993   2.548   0.407 -0.8223 -0.3568  0.7964
   69SOL    HW1  206   1.000   2.608   0.324 -2.6294 -2.2282  0.7481
   69SOL    HW2  207   0.999   2.598   0.495  0.2183  0.4328 -0.5593
   70SOL     OW  208   2.866   1.097   2.856 -0.0244 -0.2936  0.3974
   70SOL    HW1  209   2.802   1.065   2.930  1.6646  2.3325 -0.1285
   70SOL    HW2  210   2.874   1.031   2.774  1.5399 -3.0886  0.6965
   71SOL     OW  211   0.393   1.165   2.634  0.1399  0.2323  0.3524
   71SOL    HW1  212   0.354   1.223   2.562 -5.0287 -1.4853  4.5609
   71SOL    HW2  213   0.474   1.212   2.685  2.4479  1.2108  0.1255
   72SOL     OW  214   0.272   2.147   0.379  0.0262 -0.3183  0.1165
   72SOL    HW1  215   0.258   2.186   0.288  1.0759 -1.2990 -0.0815
   72SOL    HW2  216   0.360   2.103   0.385 -2.6098  1.2494 -2.2700
   73SOL     OW  217   0.669   1.350   0.253 -0.4533  0.5034  0.1657
   73SOL    HW1  218   0.722   1.436   0.269  4.0136 -0.4915  0.9401
   73SOL    HW2  219   0.732   1.274   0.253  1.7016  3.1219 -3.0553
   74SOL     OW  220   2.970   0.075   0.251  0.3374  0.2338  0.2139
   74SOL    HW1  221   3.016   0.035   0.169  0.1525 -0.8394  0.8034
   74SOL    HW2  222   3.035   0.143   0.290  2.1442 -1.2359  0.6916
   75SOL     OW  223   2.319   1.644   2.193 -0.6291 -0.4959 -0.4236
   75SOL    HW1  224   2.391   1.644   2.121 -0.1623 -0.4975 -0.8167
   75SOL    HW2  225   2.255   1.716   2.171  1.2466 -0.9908  3.3849
   76SOL     OW  226   2.104   2.564   1.498  0.0241 -0.2180 -0.1859
   76SOL    HW1  227   2.184   2.595   1.555 -1.4342  1.8290  0.1293
   76SOL    HW2  228   2.101   2.617   1.406  1.8579 -1.0755 -0.0353
   77SOL     OW  229   2.606   0.476   1.461  0.1446  0.0211 -0.0054
   77SOL    HW1  230   2.572   0.527   1.542 -0.8320 -2.0987  0.7423
   77SOL    HW2  231   2.676   0.409   1.496  0.6196 -0.0453  0.4825
   78SOL     OW  232   1.924   1.354   0.071  0.1923  0.0710 -0.0259
   78SOL    HW1  233   1.907   1.366   3.055  1.3408 -1.7999  0.4147
   78SOL    HW2  234   2.018   1.389   0.097  1.3512 -0.9513  1.5867
   79SOL     OW  235   0.757   1.762   2.140  0.4688  0.0369  0.4687
   79SOL    HW1  236   0.715   1.753   2.049  0.5117  0.9706 -2.3476
   79SOL    HW2  237   0.789   1.675   2.178 -1.4506  2.5780 -0.1639
   80SOL     OW  238   1.582   1.005   1.058  0.0485 -0.1868  0.2398
   80SOL    HW1  239   1.553   1.059   0.976 -1.4484 -0.7844  0.7419
   80SOL    HW2  240   1.676   1.037   1.081  1.0441  0.7956  0.1923
   81SOL     OW  241   0.860   0.486   1.365  0.3487 -0.0291  0.0452
   81SOL    HW1  242   0.778   0.427   1.359  0.3742 -1.8136 -1.3749
   81SOL    HW2  243   0.880   0.533   1.279 -1.1312  1.3680 -1.8304
   82SOL     OW  244   1.416   2.439   1.726 -0.3547  0.1476 -0.3133
   82SOL    HW1  245   1.381   2.343   1.734  1.0939 -1.6713 -0.9789
   82SOL    HW2  246   1.433   2.448   1.629 -0.7392 -2.8528 -1.8987
   83SOL     OW  247   0.654   3.080   1.092 -1.0593  0.4127 -0.0807
   83SOL    HW1  248   0.576   0.059   1.125 -1.6489 -0.3188 -1.0007
   83SOL    HW2  249   0.702   0.044   1.019 -0.3563 -1.9246 -1.0744
   84SOL     OW  250   3.066   0.919   3.030 -0.0614  0.1068  0.1000
   84SOL    HW1  251   0.075   0.883   3.000  2.2438  2.0525  0.1169
   84SOL    HW2  252   2.993   0.865   2.988 -1.4999 -0.7027  3.2120
   85SOL     OW  253   2.967   2.391   1.487  0.1106 -0.4342  0.5150
   85SOL    HW1  254   2.951   2.473   1.435  1.6962 -0.4613  0.1212
   85SOL    HW2  255   2.894   2.370   1.553  2.1004  1.4298 -3.5082
   86SOL     OW  256   0.017   2.617   1.723  0.6375 -0.0534 -0.3220
   86SOL    HW1  257   3.076   2.609   1.623 -0.2448  1.3965 -2.7027
   86SOL    HW2  258   0.093   2.685   1.737 -1.4887 -0.2456  1.2822
   87SOL     OW  259   2.868   2.534   2.921 -0.1530  0.1469  0.2024
   87SOL    HW1  260   2.867   2.614   2.853 -1.7858  1.3456 -0.0973
   87SOL    HW2  261   2.780   2.526   2.967  1.6485  0.3760  0.9245
   88SOL     OW  262   0.014   1.941   1.321 -0.1988  0.3158  0.2094
   88SOL    HW1  263   0.058   1.925   1.231  1.3720 -2.4792  1.6553
   88SOL    HW2  264   0.045   1.878   1.395 -1.4966 -1.7417  0.7034
   89SOL     OW  265   1.158   0.803   1.797  0.8026 -0.1303  0.7060
   89SOL    HW1  266   1.053   0.799   1.809 -3.1188  2.6899 -1.4970
   89SOL    HW2  267   1.202   0.716   1.769  2.9026  2.9181  0.4277
   90SOL     OW  268   2.853   1.419   1.867 -0.5931 -0.1838 -0.0821
   90SOL    HW1  269   2.867   1.381   1.961 -1.0103 -2.5855 -1.2144
   90SOL    HW2  270   2.878   1.516   1.866  0.7351 -1.3627 -1.0688
   91SOL     OW  271   1.053   1.963   0.681  0.3663  0.1727 -0.1882
   91SOL    HW1  272   1.083   1.994   0.587  2.1384 -0.3113 -1.1693
   91SOL    HW2  273   1.066   1.863   0.685 -1.8924 -1.1371 -0.5672
   92SOL     OW  274   2.270   0.370   1.035  0.4181 -0.5423 -0.5899
   92SOL    HW1  275   2.370   0.387   1.040  0.2050  0.8316 -1.4529
   92SOL    HW2  276   2.234   0.406   1.125  2.1854 -0.5980 -0.4531
   93SOL     OW  277   2.476   1.507   0.055 -0.5737  0.0874 -0.7018
   93SOL    HW1  278   2.405   1.448   0.017  0.2829  0.8067 -0.3277
   93SOL    HW2  279   2.454   1.608   0.029  0.3452  1.8613 -1.9329
   94SOL     OW  280   2.527   2.223   2.373 -0.6757  0.2001 -0.4216
   94SOL    HW1  281   2.492   2.156   2.440  0.0771  0.6429  0.0169
   94SOL    HW2  282   2.609   2.273   2.407  1.7215  2.2811 -3.0768
   95SOL     OW  283   1.894   0.565   1.060 -0.4562  0.2254  0.2555
   95SOL    HW1  284   1.822   0.634   1.029  0.4176  0.1821 -0.3464
   95SOL    HW2  285   1.898   0.486   0.998  1.7453  1.0070  1.4081
   96SOL     OW  286   2.734   0.013   1.708 -0.3895  0.6417  0.9692
   96SOL    HW1  287   2.776   3.057   1.794 -3.3640  0.5617 -0.5732
   96SOL    HW2  288   2.782   3.059   1.625  0.1114 -2.5810 -2.2757
   97SOL     OW  289   2.143   0.167   1.247  0.3540  0.0319 -0.7614
   97SOL    HW1  290   2.173   0.138   1.156 -1.4546  0.1331  1.7374
   97SOL    HW2  291   2.225   0.176   1.305 -0.3445 -1.6612 -1.3390
   98SOL     OW  292   1.413   2.388   1.459  0.1693  0.2207  0.4942
   98SOL    HW1  293   1.443   2.458   1.397 -0.5582 -2.2057  1.4950
   98SOL    HW2  294   1.471   2.304   1.447 -0.4745 -2.4292 -1.9280
   99SOL     OW  295   2.932   2.702   1.913  0.1458 -0.0615 -0.0058
   99SOL    HW1  296   2.983   2.643   1.848 -0.5198 -2.9435  0.2024
   99SOL    HW2  297   2.960   2.693   2.008  0.5488  2.1655 -3.9398
  100SOL     OW  298   0.199   0.640   2.722 -0.0307 -0.4786  0.3316
  100SOL    HW1  299   0.202   0.711   2.797  0.4977 -2.0864 -0.5411
  100SOL    HW2  300   0.290   0.625   2.678  3.9722 -1.4956  3.2421
  101SOL     OW  301   1.715   1.042   0.113 -0.9422 -0.2056 -0.0424
  101SOL    HW1  302   1.819   1.047   0.137  4.6752  1.2155  0.0641
  101SOL    HW2  303   1.673   1.133   0.131 -0.2177 -0.4003  2.0493
  102SOL     OW  304   0.242   0.406   1.373  0.0288  0.4280  0.3778
  102SOL    HW1  305   0.209   0.424   1.467 -0.9187  1.5506  0.2775
  102SOL    HW2  306   0.336   0.447   1.366  1.2287 -1.0430 -0.7700
  103SOL     OW  307   3.017   0.863   2.065  0.0221  0.2905  0.0376
  103SOL    HW1  308   3.063   0.772   2.048  1.3253 -3.9796 -2.1357
  103SOL    HW2  309   2.961   0.858   2.150  0.9068 -0.4276 -0.7476
  104SOL     OW  310   0.311   0.258   2.771 -0.1835  0.6439 -0.0749
  104SOL    HW1  311   0.347   0.280   2.677 -4.6954 -1.8409  0.5110
  104SOL    HW2  312   0.359   0.315   2.843  0.2100  0.4271 -0.7691
  105SOL     OW  313   2.235   1.687   1.770 -0.0785 -0.2894 -0.1025
  105SOL    HW1  314   2.179   1.654   1.852 -2.8754  0.1169  3.3248
  105SOL    HW2  315   2.278   1.773   1.805  0.5929  1.4406  0.5548
  106SOL     OW  316   1.519   0.466   0.431 -0.0899  0.0779  0.1884
  106SOL    HW1  317   1.604   0.408   0.430 -4.1733  2.1125  2.5411
  106SOL    HW2  318   1.487   0.489   0.526  0.5713  0.2618 -1.4784
  107SOL     OW  319   3.071   1.649   1.571 -0.1090  0.4242 -0.0110
  107SOL    HW1  320   2.989   1.605   1.539  2.2092  2.9681  0.5074
  107SOL    HW2  321   0.070   1.617   1.519 -1.0382  0.3258  1.8115
  108SOL     OW  322   3.017   2.693   2.172  0.4860  0.2054 -0.2894
  108SOL    HW1  323   0.019   2.636   2.195 -0.0451  2.7637  2.9838
  108SOL    HW2  324   3.023   2.778   2.229 -0.7254  2.1257 -0.5567
  109SOL     OW  325   1.752   0.384   0.150  1.0499 -0.3071 -0.2689
  109SOL    HW1  326   1.700   0.425   0.076  2.1152 -1.3052 -0.0822
  109SOL    HW2  327   1.848   0.362   0.118 -0.5531  1.0985 -0.4576
  110SOL     OW  328   0.445   2.228   2.486 -0.1285  0.0018  0.3124
  110SOL    HW1  329   0.496   2.192   2.401  0.5787  0.0765 -1.1205
  110SOL    HW2  330   0.511   2.282   2.549  0.3180  2.1898  3.1311
  111SOL     OW  331   1.551   2.554   2.135 -0.1716  0.0366  0.5720
  111SOL    HW1  332   1.578   2.458   2.117  1.8373  0.1695 -0.4039
  111SOL    HW2  333   1.495   2.588   2.058  0.6650 -0.0836 -1.5065
  112SOL     OW  334   1.929   2.523   2.511 -0.4669 -0.2939 -0.3986
  112SOL    HW1  335   2.010   2.560   2.562  0.8329 -2.1564 -0.0633
  112SOL    HW2  336   1.858   2.594   2.502  2.1605  1.5176 -1.2641
  113SOL     OW  337   1.888   2.588   1.700  0.2711  0.0683  0.0377
  113SOL    HW1  338   1.932   2.656   1.764 -1.8396 -2.5838  1.7283
  113SOL    HW2  339   1.947   2.567   1.617 -1.1924  0.0666 -0.0396
  114SOL     OW  340   2.934   0.597   0.468  0.3645 -0.6097 -0.1627
  114SOL    HW1  341   2.877   0.562   0.390 -5.3499  2.7343  0.9779
  114SOL    HW2  342   2.874   0.648   0.535 -1.6086  2.4133 -1.3528
  115SOL     OW  343   0.226   0.872   2.892  0.3027  0.3345  0.2654
  115SOL    HW1  344   0.222   0.908   2.797  1.2838  1.4996  0.4056
  115SOL    HW2  345   0.318   0.890   2.935  1.3262 -0.2613  0.5551
  116SOL     OW  346   0.181   1.244   1.983  0.0260  0.0046  0.2416
  116SOL    HW1  347   0.187   1.197   2.071 -0.5029  2.8783 -0.6616
  116SOL    HW2  348   0.263   1.292   1.954 -2.2474 -0.4978  1.4528
  117SOL     OW  349   2.581   0.015   0.421 -0.0989  0.5507  0.1449
  117SOL    HW1  350   2.530   3.032   0.354 -1.4164  0.6059 -3.2604
  117SOL    HW2  351   2.511   0.065   0.477 -3.7718  2.5341  2.6403
  118SOL     OW  352   1.169   1.789   1.555 -0.3262 -0.1870  0.2115
  118SOL    HW1  353   1.263   1.751   1.546  0.6681 -0.5930 -0.3556
  118SOL    HW2  354   1.128   1.766   1.650 -0.8867  1.4586  1.5156
  119SOL     OW  355   1.124   2.321   0.002 -0.0767 -0.2813 -0.7924
  119SOL    HW1  356   1.175   2.397   0.056  0.1094  1.3659 -0.8001
  119SOL    HW2  357   1.148   2.227   0.040 -0.0627  1.4125 -0.2441
  120SOL     OW  358   0.459   0.900   3.013  0.9449  0.1823 -0.2895
  120SOL    HW1  359   0.474   0.921   0.030 -1.7460  0.7719 -0.1146
  120SOL    HW2  360   0.538   0.911   2.956  1.8342  2.2313 -0.2778
  121SOL     OW  361   2.032   2.708   1.256 -0.5977 -0.0235  0.0584
  121SOL    HW1  362   2.003   2.739   1.163 -0.2238 -1.7955  2.3087
  121SOL    HW2  363   1.968   2.748   1.323 -0.7111  3.8254 -0.2065
  122SOL     OW  364   2.323   2.144   1.993  0.2007  0.3357  0.4286
  122SOL    HW1  365   2.408   2.115   2.044 -1.2621  1.1257 -2.3230
  122SOL    HW2  366   2.323   2.246   1.984 -0.5686  1.6584 -0.1751
  123SOL     OW  367   0.178   2.785   0.460  0.5975  0.7755 -0.4907
  123SOL    HW1  368   0.191   2.883   0.473 -2.1990 -2.9431 -2.5066
  123SOL    HW2  369   0.078   2.767   0.435 -1.7812 -1.1421 -1.8328
  124SOL     OW  370   1.989   0.783   2.273  0.2407 -0.2892 -1.3770
  124SOL    HW1  371   1.931   0.842   2.211  0.7590  3.0831  0.6699
  124SOL    HW2  372   2.068   0.748   2.221  0.0043 -2.5123 -0.7855
  125SOL     OW  373   0.389   1.359   0.631  0.2634  0.1985 -0.1352
  125SOL    HW1  374   0.399   1.317   0.534  1.1561  1.4407 -3.5320
  125SOL    HW2  375   0.364   1.460   0.630  3.4517 -1.1974  0.6269
  126SOL     OW  376   2.553   1.685   1.108  0.0660  0.2337 -0.0415
  126SOL    HW1  377   2.498   1.723   1.186  1.5255 -0.6179  0.6427
  126SOL    HW2  378   2.605   1.758   1.061  0.4916 -0.1915  2.1467
  127SOL     OW  379   0.087   2.159   1.720  0.3097 -0.0399  0.3601
  127SOL    HW1  380   0.072   2.209   1.631  2.5410  1.2613 -2.5564
  127SOL    HW2  381   0.105   2.233   1.789 -2.4635  1.8429  1.9524
  128SOL     OW  382   0.834   0.568   2.658 -0.0190  0.3734 -0.3034
  128SOL    HW1  383   0.742   0.560   2.701  0.1458 -1.6482 -0.3093
  128SOL    HW2  384   0.852   0.653   2.608  1.9650  2.4697  3.5819
  129SOL     OW  385   2.556   1.117   1.135  0.1622 -0.2407 -0.3437
  129SOL    HW1  386   2.640   1.084   1.080  0.2903  0.6110 -2.4055
  129SOL    HW2  387   2.583   1.127   1.234  0.0300 -1.9641 -0.1956
  130SOL     OW  388   2.334   1.337   1.581 -0.2367 -0.4305 -0.3320
  130SOL    HW1  389   2.422   1.308   1.617 -0.0618 -2.9212  0.6433
  130SOL    HW2  390   2.347   1.431   1.539 -0.8160  1.6244  1.8912
  131SOL     OW  391   2.492   0.310   0.015 -0.2234  0.0104  0.2607
  131SOL    HW1  392   2.540   0.402   0.029  1.5025 -2.4116 -2.0260
  131SOL    HW2  393   2.561   0.250   3.049 -0.8656 -2.4765 -0.3522
  132SOL     OW  394   2.717   2.207   1.897  0.0838 -0.2205 -0.0074
  132SOL    HW1  395   2.632   2.202   1.963 -2.9845  1.0680  3.3980
  132SOL    HW2  396   2.799   2.241   1.950  1.7075 -0.3308  1.2853
  133SOL     OW  397   0.748   0.908   1.116  0.4077 -0.0790 -0.0908
  133SOL    HW1  398   0.670   0.865   1.067  0.4934  0.2187 -2.8704
  133SOL    HW2  399   0.752   1.005   1.084  0.8466  1.4017  3.7153
  134SOL     OW  400   0.042   1.401   0.105 -0.1382  0.0013  0.4408
  134SOL    HW1  401   0.054   1.342   0.022  0.0285  2.3782  0.1237
  134SOL    HW2  402   0.051   1.349   0.190  1.5494  1.8772 -1.7774
  135SOL     OW  403   2.057   1.289   1.433  0.2539  0.0850 -0.0770
  135SOL    HW1  404   2.022   1.383   1.441  1.3822 -0.5064  0.7911
  135SOL    HW2  405   2.009   1.234   1.508 -4.0364  1.1474 -0.2318
  136SOL     OW  406   2.770   0.638   0.678 -0.2000  0.0762 -0.4864
  136SOL    HW1  407   2.669   0.618   0.661  0.6825 -3.4748 -0.3106
  136SOL    HW2  408   2.794   0.656   0.775  0.2335 -1.9295 -1.9023
  137SOL     OW  409   2.540   1.398   1.336 -0.0248 -0.5020  0.0076
  137SOL    HW1  410   2.610   1.468   1.364 -1.0334  0.3765 -0.6533
  137SOL    HW2  411   2.579   1.308   1.339  1.2241  0.6002 -1.4291
  138SOL     OW  412   1.782   0.761   1.359  0.0012  0.0404  0.1292
  138SOL    HW1  413   1.864   0.819   1.357  0.4473 -2.6645  0.8722
  138SOL    HW2  414   1.808   0.670   1.385 -2.2713  2.8908 -1.0947
  139SOL     OW  415   1.972   0.042   0.111  0.0401 -0.1391  0.2029
  139SOL    HW1  416   1.901   3.066   0.072  1.3373  1.7397 -0.1801
  139SOL    HW2  417   2.063   3.080   0.098  0.2184 -2.1129  0.9584
  140SOL     OW  418   1.547   1.807   1.893 -0.0175 -0.3189  1.1911
  140SOL    HW1  419   1.622   1.792   1.956 -3.3636  1.0473  2.1894
  140SOL    HW2  420   1.493   1.724   1.867  0.3466  1.7776 -2.7380
  141SOL     OW  421   2.037   1.841   0.945  0.1452  0.4909  0.3476
  141SOL    HW1  422   2.126   1.879   0.970 -2.3608  0.4730 -0.3609
  141SOL    HW2  423   1.991   1.810   1.032  1.9146 -2.8525  2.3350
  142SOL     OW  424   3.006   0.946   0.220 -0.0351  0.3179 -0.2743
  142SOL    HW1  425   3.019   0.949   0.119 -0.0023  1.4495  0.6057
  142SOL    HW2  426   3.041   0.862   0.269 -0.4155 -0.9235 -0.8774
  143SOL     OW  427   0.438   2.018   2.672  0.0046  0.4954 -0.4850
  143SOL    HW1  428   0.379   1.963   2.609 -0.9966  0.8827  0.0846
  143SOL    HW2  429   0.477   2.096   2.624 -1.2844 -2.1524 -0.3308
  144SOL     OW  430   0.869   0.130   1.743  0.3224  0.1500 -0.7833
  144SOL    HW1  431   0.872   0.183   1.661  1.2642 -1.1928  1.3595
  144SOL    HW2  432   0.948   0.059   1.754  0.1819 -0.4174  1.1029
  145SOL     OW  433   2.585   1.136   0.547 -0.0138 -0.2184  0.4735
  145SOL    HW1  434   2.642   1.054   0.562 -1.2097  1.6767 -0.2993
  145SOL    HW2  435   2.488   1.114   0.573  1.2710  1.3896  1.6437
  146SOL     OW  436   2.509   2.397   0.055  0.6194  0.4043 -0.3186
  146SOL    HW1  437   2.516   2.311   3.080 -0.4579 -0.6254  0.8985
  146SOL    HW2  438   2.421   2.453   0.035 -1.8155  0.6642 -0.7968
  147SOL     OW  439   2.539   2.755   1.308  0.4705 -0.2626 -0.4508
  147SOL    HW1  440   2.531   2.849   1.347 -0.4635  1.5263 -1.4160
  147SOL    HW2  441   2.568   2.767   1.211  0.7919  0.0745  2.6723
  148SOL     OW  442   1.516   3.006   2.364 -0.8155 -0.2359  0.1112
  148SOL    HW1  443   1.478   2.994   2.266  1.4547  0.5929 -2.5318
  148SOL    HW2  444   1.549   2.915   2.398  2.4664 -1.9117  0.6797
  149SOL     OW  445   1.092   0.520   2.752 -0.3586  0.6376 -0.2382
  149SOL    HW1  446   1.140   0.513   2.661 -2.0116  0.1864 -0.9495
  149SOL    HW2  447   0.998   0.558   2.738 -1.0896 -1.7270 -1.9242
  150SOL     OW  448   0.842   2.867   0.412  0.3297 -0.3667  0.1462
  150SOL    HW1  449   0.808   2.943   0.475 -0.7471  0.0130  0.3228
  150SOL    HW2  450   0.775   2.791   0.424 -0.0841 -0.0119 -2.0870
  151SOL     OW  451   0.012   1.685   0.161  0.1773 -0.5874  0.2311
  151SOL    HW1  452   3.068   1.680   0.064 -0.5080  1.5917  2.0087
  151SOL    HW2  453   0.026   1.592   0.200 -0.3635 -1.3818 -2.5788
  152SOL     OW  454   3.079   1.039   0.533  0.1028 -0.4583 -0.3415
  152SOL    HW1  455   0.073   1.104   0.517 -1.8776 -4.1433  0.1868
  152SOL    HW2  456   3.079   0.961   0.467  1.8365  0.4484  1.3038
  153SOL     OW  457   2.355   3.065   0.863  0.0551  0.6798  0.0402
  153SOL    HW1  458   2.422   3.053   0.787 -2.0610 -1.8939  2.6305
  153SOL    HW2  459   2.347   2.971   0.909 -0.2211 -1.1449 -1.4613
  154SOL     OW  460   0.908   0.741   1.834  0.2506  0.2736  0.3765
  154SOL    HW1  461   0.920   0.641   1.855 -1.5228 -1.6252  0.1230
  154SOL    HW2  462   0.848   0.750   1.750  0.0697 -1.6091 -0.8144
  155SOL     OW  463   2.895   1.669   1.035  0.0354 -0.1807 -0.3617
  155SOL    HW1  464   2.810   1.629   0.991 -1.7400 -0.4755 -0.0040
  155SOL    HW2  465   2.889   1.772   1.049  1.1122  2.2214 -1.5730
  156SOL     OW  466   2.450   1.973   0.399 -0.8134  0.2967 -0.0581
  156SOL    HW1  467   2.455   1.871   0.411 -0.9834  0.4623 -1.1898
  156SOL    HW2  468   2.467   1.991   0.299 -1.7272 -1.0178 -0.6452
  157SOL     OW  469   1.007   3.005   0.931 -0.0804  0.0664  0.5039
  157SOL    HW1  470   0.928   2.940   0.914 -0.1630  2.4421  3.9663
  157SOL    HW2  471   1.074   2.998   0.851  1.4843 -2.4197 -2.2872
  158SOL     OW  472   2.264   0.335   2.710 -0.0794 -0.0444  0.2332
  158SOL    HW1  473   2.272   0.440   2.698  0.5757  0.7590  0.3473
  158SOL    HW2  474   2.349   0.288   2.678  1.7374 -0.2262  0.4325
  159SOL     OW  475   0.471   2.987   0.351  0.1063 -0.7376  0.1278
  159SOL    HW1  476   0.409   3.046   0.291 -0.2821 -0.3152 -1.3845
  159SOL    HW2  477   0.462   2.893   0.315  2.3168  2.3768 -2.3747
  160SOL     OW  478   1.245   2.100   0.058  0.3920  0.3573 -0.6110
  160SOL    HW1  479   1.249   2.039   3.056 -0.3066 -0.3078  2.6807
  160SOL    HW2  480   1.336   2.118   0.101  0.9510  2.5067  1.7279
  161SOL     OW  481   2.552   1.885   2.353  0.8913  0.2474 -0.0092
  161SOL    HW1  482   2.629   1.930   2.406  2.6637 -0.4490 -0.3664
  161SOL    HW2  483   2.459   1.913   2.392 -2.3326  0.5246 -0.1802
  162SOL     OW  484   0.089   2.730   0.983  0.3184  0.3287  0.1148
  162SOL    HW1  485   0.132   2.665   1.048 -0.0181  1.1516  1.3040
  162SOL    HW2  486   0.152   2.754   0.908 -1.2498 -1.4230  0.6890
  163SOL     OW  487   2.000   0.389   2.772 -0.1448 -0.0958 -0.5797
  163SOL    HW1  488   1.955   0.305   2.814 -0.6863  0.9674  1.4496
  163SOL    HW2  489   2.098   0.369   2.745  0.3162  0.3778  0.7765
  164SOL     OW  490   2.960   1.903   0.786  0.0195  0.0003  0.0909
  164SOL    HW1  491   2.928   1.833   0.723  2.6045 -1.1827  2.9465
  164SOL    HW2  492   2.885   1.967   0.811 -1.5744  0.3584 -0.7919
  165SOL     OW  493   2.584   0.217   1.841  0.2372 -0.0903  0.5096
  165SOL    HW1  494   2.623   0.143   1.780 -0.8781  0.8371 -0.3507
  165SOL    HW2  495   2.501   0.256   1.815  3.8689 -1.6768  0.3688
  166SOL     OW  496   2.240   0.573   0.799 -0.3509  0.2511  0.4643
  166SOL    HW1  497   2.153   0.549   0.743 -3.4524  0.6798  0.7936
  166SOL    HW2  498   2.263   0.501   0.870  0.5927  1.3844 -1.4458
  167SOL     OW  499   0.413   0.225   0.880 -0.0480 -0.0397 -0.8688
  167SOL    HW1  500   0.440   0.194   0.974  0.8680 -2.5558 -1.9282
  167SOL    HW2  501   0.449   0.318   0.858 -0.9426  2.4787 -0.3789
  168SOL     OW  502   1.850   2.946   2.073  0.0011 -0.1921 -0.3459
  168SOL    HW1  503   1.863   2.867   2.139 -1.0089  0.7349 -0.1399
  168SOL    HW2  504   1.900   3.027   2.100 -0.5879 -2.3461 -1.9892
  169SOL     OW  505   0.225   1.223   0.835  0.1162  0.2161  0.2246
  169SOL    HW1  506   0.281   1.264   0.763 -0.7556 -0.7170 -1.8873
  169SOL    HW2  507   0.134   1.266   0.833  1.4241 -1.3111 -0.4438
  170SOL     OW  508   2.596   0.781   1.416 -0.0964  0.1805 -0.0164
  170SOL    HW1  509   2.535   0.745   1.340 -0.3180  2.8707  0.3618
  170SOL    HW2  510   2.589   0.718   1.499  1.4413 -0.9820  0.8875
  171SOL     OW  511   0.864   2.452   1.667 -0.2084  0.4540  0.2176
  171SOL    HW1  512   0.928   2.397   1.610  2.3391 -1.7018 -2.0149
  171SOL    HW2  513   0.909   2.477   1.755 -0.7980 -2.5218  2.0030
  172SOL     OW  514   0.237   2.583   1.349  1.0412 -0.5503  0.3622
  172SOL    HW1  515   0.268   2.521   1.420  1.6863  2.8328 -0.6149
  172SOL    HW2  516   0.203   2.673   1.385 -1.6141  1.9968 -0.9857
  173SOL     OW  517   1.390   0.209   2.931 -0.1643  0.2638 -0.2725
  173SOL    HW1  518   1.352   0.113   2.934 -1.1641  2.0332  1.1663
  173SOL    HW2  519   1.318   0.268   2.971  0.2375 -2.1552 -1.1506
  174SOL     OW  520   1.441   0.179   2.420  0.1008  0.0565  0.0447
  174SOL    HW1  521   1.451   0.212   2.516  2.7217  0.7964  0.1485
  174SOL    HW2  522   1.480   0.086   2.412 -0.9839  0.2043 -0.2998
  175SOL     OW  523   1.812   2.504   2.929 -0.3600 -0.1167  0.2766
  175SOL    HW1  524   1.800   2.399   2.924  0.0460 -2.7181  0.1181
  175SOL    HW2  525   1.909   2.533   2.951  1.9635  2.3085  0.6298
  176SOL     OW  526   1.834   0.166   2.838 -0.7370 -0.2844  0.6328
  176SOL    HW1  527   1.781   0.184   2.925  1.9513 -0.9380 -2.0078
  176SOL    HW2  528   1.785   0.208   2.758 -0.9011 -2.3657  1.3866
  177SOL     OW  529   0.845   1.569   0.356 -0.5851 -0.0981 -0.4386
  177SOL    HW1  530   0.946   1.555   0.379  0.8285 -1.7435 -0.4362
  177SOL    HW2  531   0.796   1.562   0.445  0.7803  1.6971 -3.4883
  178SOL     OW  532   0.010   1.864   2.542  0.1164  0.0401 -0.4001
  178SOL    HW1  533   3.063   1.879   2.636 -1.1476  0.5794 -3.0694
  178SOL    HW2  534   3.058   1.770   2.507  1.6317 -0.0350 -1.6789
  179SOL     OW  535   0.738   2.562   2.504 -0.2969  0.3508  0.3653
  179SOL    HW1  536   0.831   2.565   2.552 -0.5947 -0.9299 -1.5768
  179SOL    HW2  537   0.682   2.641   2.516  5.2590 -2.9912 -0.6317
  180SOL     OW  538   1.970   1.928   1.523 -0.3869 -0.0279  0.1574
  180SOL    HW1  539   1.962   1.960   1.619 -0.9163  0.9582 -0.9229
  180SOL    HW2  540   1.927   1.838   1.502  2.0151  0.3655 -3.8329
  181SOL     OW  541   1.689   1.208   2.228 -0.0475 -0.1373  0.5617
  181SOL    HW1  542   1.648   1.137   2.168 -1.9787 -2.0777  0.5825
  181SOL    HW2  543   1.786   1.184   2.242 -2.0418  0.1354  1.1629
  182SOL     OW  544   2.632   2.992   2.472 -0.3479 -0.6039  0.2185
  182SOL    HW1  545   2.678   2.927   2.403  0.5823 -2.6411 -4.8066
  182SOL    HW2  546   2.535   2.974   2.466 -1.2130  0.0688 -3.4571
  183SOL     OW  547   1.373   0.680   2.601  0.3657 -0.1382 -0.2751
  183SOL    HW1  548   1.424   0.749   2.545 -2.9611  0.4926 -1.3164
  183SOL    HW2  549   1.427   0.646   2.680 -1.5819  0.9174 -1.6508
  184SOL     OW  550   0.812   1.000   1.405  0.6150 -0.5438  0.2604
  184SOL    HW1  551   0.803   1.089   1.457 -1.0306 -0.3597  0.9387
  184SOL    HW2  552   0.750   0.990   1.327  1.4534  1.8833  1.3299
  185SOL     OW  553   2.319   0.953   1.124 -0.2076 -0.4513 -0.7244
  185SOL    HW1  554   2.240   1.004   1.163 -0.9894  0.0284 -0.2919
  185SOL    HW2  555   2.403   1.012   1.122  0.3019 -3.1011 -2.8385
  186SOL     OW  556   0.550   1.639   2.614  0.2072 -0.1637  0.3723
  186SOL    HW1  557   0.567   1.721   2.678 -1.9510  0.7347 -2.3989
  186SOL    HW2  558   0.603   1.646   2.523  1.4963 -0.8637 -0.4829
  187SOL     OW  559   2.596   1.449   0.278 -0.2472  0.1998  0.0474
  187SOL    HW1  560   2.696   1.433   0.256 -1.0585 -0.5837 -1.2418
  187SOL    HW2  561   2.541   1.483   0.202  0.6464 -0.6721 -0.0738
  188SOL     OW  562   0.100   1.725   0.494  0.2124 -0.3456  0.1013
  188SOL    HW1  563   0.087   1.788   0.571  1.7521 -0.9841 -3.3342
  188SOL    HW2  564   0.173   1.748   0.429 -1.3828 -0.8703 -0.2361
  189SOL     OW  565   2.448   0.527   0.413 -0.2797 -0.0785 -0.9610
  189SOL    HW1  566   2.358   0.513   0.367  1.5425 -1.1611 -1.6774
  189SOL    HW2  567   2.513   0.582   0.354  0.1531  2.1095  3.7931
  190SOL     OW  568   1.083   1.459   2.380 -0.5911 -0.3648 -0.0800
  190SOL    HW1  569   1.097   1.553   2.343  0.2848 -1.7391  0.3808
  190SOL    HW2  570   1.124   1.394   2.310  2.5254 -2.1836 -2.1029
  191SOL     OW  571   2.119   0.284   2.068  0.1426  0.3816  0.2204
  191SOL    HW1  572   2.148   0.380   2.071 -1.5171 -4.8382 -0.7023
  191SOL    HW2  573   2.111   0.253   1.967 -1.1306 -1.6970 -0.1137
  192SOL     OW  574   2.009   0.862   1.564 -0.5185 -0.0023 -0.2355
  192SOL    HW1  575   1.918   0.895   1.582 -0.8404  1.5805 -2.0690
  192SOL    HW2  576   2.041   0.888   1.470  0.5004 -0.7605 -0.1417
  193SOL     OW  577   0.574   0.426   0.810 -0.3661 -0.0602 -0.0915
  193SOL    HW1  578   0.578   0.493   0.734 -2.7638 -1.1899 -1.2470
  193SOL    HW2  579   0.647   0.355   0.800 -1.4714 -1.3141  0.5540
  194SOL     OW  580   1.281   2.761   0.778  0.5497  0.1375 -0.0172
  194SOL    HW1  581   1.349   2.764   0.704 -2.4706  1.3928  1.2219
  194SOL    HW2  582   1.328   2.795   0.865 -3.6078  1.2337  1.9184
  195SOL     OW  583   2.461   0.654   0.646 -0.3238  0.3802  0.0800
  195SOL    HW1  584   2.469   0.589   0.567  1.6115  1.2913 -2.3769
  195SOL    HW2  585   2.380   0.634   0.701  0.6376 -0.7519 -0.1313
  196SOL     OW  586   1.006   1.875   1.354 -0.0391  0.4439  0.4074
  196SOL    HW1  587   1.042   1.972   1.343 -0.4365  1.1674 -0.1432
  196SOL    HW2  588   1.057   1.830   1.432  1.0713  2.6266  0.5283
  197SOL     OW  589   0.385   2.742   0.265 -0.0747 -0.1094 -0.1807
  197SOL    HW1  590   0.299   2.753   0.325  1.4465  1.4382  0.7849
  197SOL    HW2  591   0.364   2.698   0.173 -0.8799 -1.3084 -1.0375
  198SOL     OW  592   0.807   0.985   0.745 -0.4120  0.2054 -0.5954
  198SOL    HW1  593   0.905   1.000   0.765 -2.8669  1.6564  0.6870
  198SOL    HW2  594   0.768   1.044   0.675  1.3431 -1.0397  2.1839
  199SOL     OW  595   0.036   3.006   1.576  0.5438 -0.1893  0.1062
  199SOL    HW1  596   0.043   0.016   1.623 -0.1069  0.5651  0.9807
  199SOL    HW2  597   3.024   2.989   1.547  2.5707  0.2608 -0.8054
  200SOL     OW  598   2.255   2.020   2.864 -0.2013  0.0252 -0.1651
  200SOL    HW1  599   2.197   1.942   2.896  1.1318 -2.0934  0.2988
  200SOL    HW2  600   2.228   2.053   2.770 -1.6495  1.5520  1.5783
  201SOL     OW  601   2.599   2.794   1.048 -0.4181  0.1111 -0.0344
  201SOL    HW1  602   2.516   2.845   1.021 -0.0067 -0.5722 -0.2371
  201SOL    HW2  603   2.659   2.784   0.962  0.1412  1.2034  0.1717
  202SOL     OW  604   2.779   0.466   0.290 -0.5624  0.6038 -0.1439
  202SOL    HW1  605   2.738   0.502   0.202  4.2012  0.7537 -1.7897
  202SOL    HW2  606   2.739   0.376   0.326 -0.9169  1.2474  1.0813
  203SOL     OW  607   1.387   1.576   2.152  0.2172  0.0049  0.1901
  203SOL    HW1  608   1.428   1.588   2.058  2.6935  0.7100 -2.0518
  203SOL    HW2  609   1.286   1.597   2.156 -1.4166 -0.4539 -1.3637
  204SOL     OW  610   0.850   1.396   2.039 -0.0493 -0.9502 -0.0741
  204SOL    HW1  611   0.897   1.465   1.978  1.7338  3.1063 -3.0311
  204SOL    HW2  612   0.913   1.315   2.057  2.0435 -3.3036 -0.6673
  205SOL     OW  613   1.198   2.058   1.520  0.8445  0.0006  0.9844
  205SOL    HW1  614   1.169   1.964   1.555  3.4526 -1.4488  2.1859
  205SOL    HW2  615   1.213   2.057   1.418 -1.1579 -3.0734  0.4352
  206SOL     OW  616   0.082   0.187   2.863 -0.2755  0.2582  0.2012
  206SOL    HW1  617   0.184   0.209   2.847  0.1088  3.9500 -1.2868
  206SOL    HW2  618   0.054   0.138   2.776  1.7350 -0.0924  0.6865
  207SOL     OW  619   1.569   3.056   2.071 -0.9073 -0.0431 -0.3673
  207SOL    HW1  620   1.560   0.077   2.081  2.4476 -3.1318 -1.2261
  207SOL    HW2  621   1.653   3.030   2.123 -0.9589 -1.0270  0.5111
  208SOL     OW  622   0.720   2.123   1.889  0.4510 -0.4423 -0.3367
  208SOL    HW1  623   0.769   2.053   1.830  1.1090 -1.7620 -0.3454
  208SOL    HW2  624   0.702   2.212   1.844  1.8896  0.1037  0.0196
  209SOL     OW  625   1.893   1.275   2.884 -0.7815  0.4088  0.0702
  209SOL    HW1  626   1.801   1.247   2.846 -1.2159 -0.5476  0.8877
  209SOL    HW2  627   1.971   1.229   2.841  0.6784  2.1002 -1.3388
  210SOL     OW  628   2.916   0.391   0.854 -0.1610  0.2414  0.1139
  210SOL    HW1  629   2.875   0.379   0.760 -1.4672 -1.7380  3.0389
  210SOL    HW2  630   2.909   0.489   0.890  0.0636  1.2670 -0.2102
  211SOL     OW  631   0.741   1.164   1.003 -0.1177 -0.4615  0.2034
  211SOL    HW1  632   0.695   1.212   0.926 -0.6167  2.4263  0.8886
  211SOL    HW2  633   0.829   1.217   1.019 -0.7389  0.0431 -0.9018
  212SOL     OW  634   1.182   1.710   0.673 -0.1423  0.2246  0.5406
  212SOL    HW1  635   1.152   1.659   0.756  0.2913 -0.2144  1.7499
  212SOL    HW2  636   1.170   1.650   0.593 -0.4927  0.7944  0.3715
  213SOL     OW  637   1.457   0.099   1.729  0.1760  0.1421 -0.3601
  213SOL    HW1  638   1.536   0.083   1.787 -2.6381  1.2413  1.4544
  213SOL    HW2  639   1.483   0.166   1.657 -1.1980  1.1506 -1.1913
  214SOL     OW  640   1.452   1.669   2.401  0.6006  0.5493  0.1391
  214SOL    HW1  641   1.421   1.645   2.305 -2.0475 -2.3901 -0.6009
  214SOL    HW2  642   1.372   1.697   2.459  2.4311  1.6290  0.9994
  215SOL     OW  643   0.221   1.768   1.187  0.3747  0.1717 -0.0358
  215SOL    HW1  644   0.224   1.760   1.087 -0.6644  1.2756  1.0702
  215SOL    HW2  645   0.290   1.817   1.244 -1.1748 -1.7843  0.9691
  216SOL     OW  646   0.706   2.973   2.027  0.6432 -0.0802  0.4451
  216SOL    HW1  647   0.686   3.023   1.941  2.2381 -1.4456  1.4365
  216SOL    HW2  648   0.777   3.012   2.086 -1.0357 -0.7488  1.8939
  217SOL     OW  649   2.225   0.341   2.998 -0.2082 -0.2752 -0.3982
  217SOL    HW1  650   2.225   0.378   2.902 -1.6388 -2.3670 -1.6173
  217SOL    HW2  651   2.321   0.335   3.038  0.6990  0.4720  2.3796
  218SOL     OW  652   2.087   1.779   2.129 -0.0334 -0.2251 -0.0017
  218SOL    HW1  653   2.049   1.779   2.218  1.0688 -0.8219  0.6808
  218SOL    HW2  654   2.075   1.868   2.085 -0.8995 -1.5563  0.5539
  219SOL     OW  655   1.467   1.146   0.449  0.1418  0.4491  0.2921
  219SOL    HW1  656   1.374   1.164   0.486  2.3034  0.0766 -2.6340
  219SOL    HW2  657   1.522   1.234   0.444  1.5970  2.2262  1.8382
  220SOL     OW  658   1.427   1.959   1.053  0.4235 -0.4491  0.3358
  220SOL    HW1  659   1.392   1.951   1.153 -1.1481  0.4043  0.5830
  220SOL    HW2  660   1.450   2.059   1.036 -1.4451  0.2940 -2.1228
  221SOL     OW  661   2.974   0.377   2.955  0.2751  0.0852 -0.1359
  221SOL    HW1  662   2.976   0.453   2.885 -1.1732  0.5802  1.0994
  221SOL    HW2  663   3.041   0.304   2.929  3.2312 -1.0742 -1.9328
  222SOL     OW  664   1.159   2.752   1.506  0.0960 -0.3173 -0.0902
  222SOL    HW1  665   1.154   2.649   1.503  1.0094  1.3044 -2.0781
  222SOL    HW2  666   1.145   2.789   1.412  0.3824 -0.2755 -1.4567
  223SOL     OW  667   1.347   2.893   2.633 -0.4512  0.0338  0.6358
  223SOL    HW1  668   1.419   2.963   2.662  3.0745  0.4263 -1.0031
  223SOL    HW2  669   1.327   2.910   2.535  0.9527  0.3477 -0.3403
  224SOL     OW  670   2.636   1.144   1.391  0.1173  0.2460  0.1558
  224SOL    HW1  671   2.577   1.101   1.460 -1.9939 -1.8743 -2.1781
  224SOL    HW2  672   2.734   1.128   1.402 -1.6145  0.3307  1.2155
  225SOL     OW  673   0.841   1.256   1.499  0.4082  0.3277  0.1157
  225SOL    HW1  674   0.849   1.251   1.598  2.1958  1.6553 -2.0904
  225SOL    HW2  675   0.930   1.244   1.451  0.0685  0.1822  2.4948
  226SOL     OW  676   1.519   2.670   2.752  0.3672 -0.1637  0.2798
  226SOL    HW1  677   1.442   2.721   2.704  0.1214  2.4157 -1.2787
  226SOL    HW2  678   1.534   2.581   2.706  2.0463  2.7563  0.6633
  227SOL     OW  679   0.760   2.106   1.074  0.3403 -0.2429  0.0725
  227SOL    HW1  680   0.698   2.112   0.991  0.0204 -0.1677 -1.3508
  227SOL    HW2  681   0.791   2.196   1.111 -0.0706 -0.5484  3.2730
  228SOL     OW  682   0.300   2.174   1.210  0.4387  0.4405  0.2727
  228SOL    HW1  683   0.253   2.225   1.288 -0.5303  2.0671  2.6242
  228SOL    HW2  684   0.345   2.237   1.147  0.9254 -1.1223 -0.0964
  229SOL     OW  685   2.337   1.283   0.207  0.4537  0.4029 -0.1194
  229SOL    HW1  686   2.425   1.303   0.167 -2.9954 -2.1122  1.2511
  229SOL    HW2  687   2.272   1.359   0.192  1.3295  1.3151 -1.4719
  230SOL     OW  688   0.971   1.169   2.097  0.7766  0.3523 -0.8618
  230SOL    HW1  689   0.902   1.098   2.124 -1.1561 -1.8281 -2.6354
  230SOL    HW2  690   1.052   1.167   2.152 -1.3683 -0.9137 -2.8252
  231SOL     OW  691   1.574   1.979   1.690  0.0363 -0.0102 -0.3201
  231SOL    HW1  692   1.648   2.038   1.728  2.1670  2.4913  0.1400
  231SOL    HW2  693   1.553   1.906   1.760 -0.0312  0.7062  2.0053
  232SOL     OW  694   2.061   2.308   1.160  0.7503  0.2332 -0.3826
  232SOL    HW1  695   1.962   2.315   1.163  2.3991 -3.5825  1.6471
  232SOL    HW2  696   2.095   2.268   1.070  0.4647 -2.3139 -0.6959
  233SOL     OW  697   1.559   2.424   2.640  0.1132  0.1103  0.8870
  233SOL    HW1  698   1.645   2.385   2.601 -0.3086  1.5533 -0.2228
  233SOL    HW2  699   1.476   2.367   2.615 -0.8769 -0.4243 -0.7940
  234SOL     OW  700   0.998   0.023   2.801  0.2095 -0.6505 -0.4724
  234SOL    HW1  701   1.038   0.104   2.739  1.5023  1.4201 -1.7881
  234SOL    HW2  702   0.992   3.013   2.757  1.9276  1.4217  1.1496
  235SOL     OW  703   2.665   2.646   3.036  0.1458 -0.0783  0.1580
  235SOL    HW1  704   2.708   2.699   0.035  0.1706  1.2301  4.2043
  235SOL    HW2  705   2.606   2.576   3.076  2.2012  3.4081 -2.4925
  236SOL     OW  706   2.021   2.322   2.336  0.5120  0.4198 -0.4209
  236SOL    HW1  707   2.124   2.311   2.337 -0.6961 -1.9656  1.5044
  236SOL    HW2  708   1.993   2.375   2.415  1.6277 -1.4759 -0.7523
  237SOL     OW  709   1.705   1.260   1.398  0.1779 -0.0847 -0.6907
  237SOL    HW1  710   1.666   1.187   1.335  1.2098 -0.7969 -3.1658
  237SOL    HW2  711   1.629   1.294   1.456  1.1822  1.3954 -0.8560
  238SOL     OW  712   1.836   0.188   2.216  0.5601 -0.1604  0.7359
  238SOL    HW1  713   1.929   0.148   2.209 -0.0732  1.4668 -1.1604
  238SOL    HW2  714   1.805   0.204   2.312  0.5531 -2.4063  0.9809
  239SOL     OW  715   0.613   1.701   1.898  0.1193  0.3333  0.7510
  239SOL    HW1  716   0.526   1.760   1.906  0.7726  4.2536 -1.6534
  239SOL    HW2  717   0.612   1.605   1.934 -0.6291  0.4908 -1.2935
  240SOL     OW  718   0.068   2.137   0.557  0.0998 -0.3285 -0.1817
  240SOL    HW1  719   0.070   2.217   0.624  0.5808  0.6798  1.8433
  240SOL    HW2  720   0.148   2.151   0.493 -0.8829  0.6812  0.3211
  241SOL     OW  721   1.931   2.055   0.832 -0.1265  0.1438  0.1728
  241SOL    HW1  722   1.951   1.972   0.883 -0.7998 -0.7636  0.7185
  241SOL    HW2  723   1.876   2.035   0.747 -2.4046 -0.1780  0.1986
  242SOL     OW  724   1.423   1.433   0.045  0.3058 -0.2675  0.4498
  242SOL    HW1  725   1.520   1.421   0.074 -0.7051 -1.6441 -0.5620
  242SOL    HW2  726   1.415   1.509   3.055 -0.9963 -1.3744 -2.5079
  243SOL     OW  727   0.761   2.723   1.960 -0.0874 -0.1301  0.1103
  243SOL    HW1  728   0.744   2.816   2.001  1.9454 -1.9971 -0.6607
  243SOL    HW2  729   0.750   2.731   1.857 -0.7352  1.0851  0.1971
  244SOL     OW  730   1.745   2.757   2.660  0.1642  0.3939  0.0322
  244SOL    HW1  731   1.664   2.756   2.722 -0.4698 -2.1466 -1.8655
  244SOL    HW2  732   1.716   2.775   2.563 -0.6448  1.4675 -0.0795
  245SOL     OW  733   1.412   2.991   0.246 -0.1279  0.2582  0.0604
  245SOL    HW1  734   1.508   2.984   0.273 -1.0979  0.3997 -2.5837
  245SOL    HW2  735   1.383   0.007   0.227 -3.1666  1.2056 -1.6816
  246SOL     OW  736   1.254   3.052   2.916 -0.4045  0.6385 -0.0557
  246SOL    HW1  737   1.160   3.063   2.881  2.0439  0.0043  1.0998
  246SOL    HW2  738   1.279   2.960   2.949  0.6996 -1.8148  0.9884
  247SOL     OW  739   0.049   0.605   2.011  0.1626  0.7349  0.1405
  247SOL    HW1  740   0.139   0.579   2.056 -2.5346 -5.0898 -1.8275
  247SOL    HW2  741   3.064   0.529   2.013 -0.0899 -0.7823  2.0614
  248SOL     OW  742   0.780   0.985   2.211 -0.1987 -0.7234  0.0157
  248SOL    HW1  743   0.802   1.005   2.309 -0.9156 -1.7728 -1.6533
  248SOL    HW2  744   0.815   0.892   2.185  0.4070 -1.5830  0.2322
  249SOL     OW  745   2.185   0.412   0.294 -0.2198  0.2830 -0.4728
  249SOL    HW1  746   2.120   0.400   0.216 -0.3517  2.4548 -1.9997
  249SOL    HW2  747   2.269   0.356   0.287 -2.2504  0.1423  0.9417
  250SOL     OW  748   0.460   0.224   0.431 -0.0118 -0.4179 -0.2068
  250SOL    HW1  749   0.543   0.174   0.458 -0.4638 -0.0937 -2.6258
  250SOL    HW2  750   0.409   0.175   0.357 -1.2562  1.0591  0.0871
  251SOL     OW  751   1.068   0.260   2.670  0.0399 -0.5081  0.1130
  251SOL    HW1  752   1.063   0.365   2.692  3.2583  3.0627  1.0453
  251SOL    HW2  753   1.129   0.236   2.589  0.6965  0.4449 -1.8095
  252SOL     OW  754   1.730   1.704   2.078  0.0693  0.3691 -0.4268
  252SOL    HW1  755   1.749   1.792   2.124 -1.9702  1.6326 -0.8807
  252SOL    HW2  756   1.730   1.628   2.151 -0.8335 -1.9721 -0.4521
  253SOL     OW  757   1.981   2.411   1.868  0.4115 -0.3838  0.1957
  253SOL    HW1  758   1.937   2.473   1.805  1.6534 -0.2759 -0.4059
  253SOL    HW2  759   2.044   2.348   1.825 -2.1007  2.1055  4.7390
  254SOL     OW  760   1.050   2.220   1.832  0.0573 -0.3546  0.6942
  254SOL    HW1  761   1.146   2.200   1.804  0.6333 -2.0605 -1.1615
  254SOL    HW2  762   1.040   2.320   1.849 -1.7507  1.0938  0.6852
  255SOL     OW  763   0.963   0.759   0.782 -0.0399 -0.6118  0.6804
  255SOL    HW1  764   0.893   0.819   0.728 -1.3387 -1.3424 -1.1474
  255SOL    HW2  765   0.946   0.653   0.776  0.1364 -3.2794 -1.5413
  256SOL     OW  766   1.774   1.920   2.214  0.5325 -0.0227 -0.0616
  256SOL    HW1  767   1.800   2.013   2.187 -0.8755  2.0039  0.3398
  256SOL    HW2  768   1.814   1.895   2.304  1.5813  0.3434 -0.3045
  257SOL     OW  769   0.584   2.400   2.652  0.1355 -0.1808  0.3253
  257SOL    HW1  770   0.649   2.462   2.600 -1.7769 -1.6194 -3.0456
  257SOL    HW2  771   0.519   2.446   2.718 -1.4329 -2.1443  0.4539
  258SOL     OW  772   0.711   0.373   2.166  0.3277  0.1797 -0.4046
  258SOL    HW1  773   0.781   0.404   2.235  0.7273 -1.3016 -1.0665
  258SOL    HW2  774   0.757   0.300   2.106  2.4439 -2.9079 -1.1801
  259SOL     OW  775   0.873   0.419   2.401  0.1887  0.0401  0.0179
  259SOL    HW1  776   0.833   0.466   2.477  2.4596 -0.5060  0.0324
  259SOL    HW2  777   0.944   0.477   2.363 -1.2917 -0.5763 -2.6207
  260SOL     OW  778   1.335   0.761   0.666 -0.4309 -0.1774 -0.3089
  260SOL    HW1  779   1.328   0.759   0.767 -1.5522 -0.2168 -0.7679
  260SOL    HW2  780   1.276   0.842   0.632  0.6664 -0.7093  1.0109
  261SOL     OW  781   0.594   3.030   2.703  0.7538 -0.5578 -0.6245
  261SOL    HW1  782   0.621   2.931   2.692  0.4173 -0.7282  0.1398
  261SOL    HW2  783   0.604   0.004   2.616 -0.5763 -0.9425  1.6816
  262SOL     OW  784   2.294   2.942   2.657 -0.6346  0.3552 -0.5998
  262SOL    HW1  785   2.351   2.999   2.717 -1.6770 -2.5869 -2.3790
  262SOL    HW2  786   2.198   2.968   2.663  3.0634 -0.9682 -0.6662
  263SOL     OW  787   0.280   1.830   2.520  0.5848  0.4907 -0.2562
  263SOL    HW1  788   0.187   1.853   2.561 -0.2426 -0.5953  2.6457
  263SOL    HW2  789   0.307   1.738   2.546 -0.5088 -0.3436  1.0151
  264SOL     OW  790   0.525   1.317   1.171 -0.2345  0.1527  0.4244
  264SOL    HW1  791   0.481   1.396   1.130 -0.7555 -0.6558 -0.0066
  264SOL    HW2  792   0.610   1.294   1.122  2.3226 -1.0875 -0.0910
  265SOL     OW  793   0.364   1.708   3.066  0.1331 -0.4680 -0.3652
  265SOL    HW1  794   0.335   1.633   0.044 -0.1035  1.0518  1.5345
  265SOL    HW2  795   0.463   1.713   3.066 -4.8290 -0.0668  1.2011
  266SOL     OW  796   1.195   1.166   0.510 -0.3078 -0.2123 -0.1674
  266SOL    HW1  797   1.185   1.235   0.583  0.9127 -3.1878 -0.7521
  266SOL    HW2  798   1.173   1.078   0.557  0.3109 -0.4278 -0.7056
  267SOL     OW  799   2.427   0.953   3.043  0.3671 -0.0427  0.4908
  267SOL    HW1  800   2.410   0.923   2.947 -0.0049 -0.1220 -0.1136
  267SOL    HW2  801   2.391   0.885   0.028 -0.9059  0.8149  0.0578
  268SOL     OW  802   2.930   3.016   2.845 -0.3894  0.4223 -0.0252
  268SOL    HW1  803   2.962   3.081   2.772 -1.5004  0.8829  0.8866
  268SOL    HW2  804   2.920   2.925   2.795  2.5186 -1.0952 -1.4213
  269SOL     OW  805   1.711   0.247   2.618 -0.2217 -0.4207  0.7010
  269SOL    HW1  806   1.737   0.344   2.597 -1.2431  0.5767  1.6291
  269SOL    HW2  807   1.607   0.251   2.632  1.5207  1.7892 -0.1650
  270SOL     OW  808   0.824   1.057   2.469 -0.1550 -0.3081  0.0449
  270SOL    HW1  809   0.739   1.043   2.526 -1.3905  1.1551 -0.8119
  270SOL    HW2  810   0.868   1.143   2.502 -0.9112  0.2659 -1.0837
  271SOL     OW  811   2.566   1.035   0.302  0.1721 -0.0284  0.3315
  271SOL    HW1  812   2.472   1.038   0.265  0.4615 -1.1964 -0.0797
  271SOL    HW2  813   2.571   1.095   0.384 -1.3432 -0.6701 -2.1261
  272SOL     OW  814   2.792   1.834   2.765 -0.0686  0.5898  0.0774
  272SOL    HW1  815   2.729   1.914   2.777  0.6123 -0.1636 -0.2214
  272SOL    HW2  816   2.892   1.865   2.773 -0.4738  1.1610  2.5336
  273SOL     OW  817   2.084   0.670   0.128  0.1751 -0.0237  0.2130
  273SOL    HW1  818   2.009   0.680   0.194 -2.2831  0.5541 -1.5615
  273SOL    HW2  819   2.045   0.625   0.042  1.5926  0.3799 -0.9092
  274SOL     OW  820   0.189   2.490   1.102 -0.7168 -0.1531 -0.2384
  274SOL    HW1  821   0.283   2.501   1.064  0.0003  0.7052  0.5892
  274SOL    HW2  822   0.197   2.511   1.202  0.6215 -1.5943  1.8984
  275SOL     OW  823   2.431   1.378   0.752 -0.3332  0.1840  0.2007
  275SOL    HW1  824   2.520   1.325   0.762  3.0036 -1.2540  0.6077
  275SOL    HW2  825   2.385   1.381   0.844 -0.0085 -0.5485 -1.3730
  276SOL     OW  826   0.191   0.990   2.643  0.4967  0.4071  0.1518
  276SOL    HW1  827   0.263   1.064   2.630  0.9423  4.1006  1.1149
  276SOL    HW2  828   0.132   0.990   2.555 -0.8602 -0.1200 -2.0698
  277SOL     OW  829   1.575   2.516   1.274 -0.5699  0.3122 -0.1726
  277SOL    HW1  830   1.588   2.603   1.327  3.8619 -0.9657 -0.5059
  277SOL    HW2  831   1.654   2.451   1.288  3.2532  1.0528 -0.3259
  278SOL     OW  832   1.230   0.552   1.705 -0.3788  0.1358 -0.5126
  278SOL    HW1  833   1.167   0.473   1.712  0.3063  0.0853  0.1373
  278SOL    HW2  834   1.310   0.524   1.652 -0.3264  2.4472 -0.0512
  279SOL     OW  835   1.634   1.776   0.581  0.4558 -0.4491  0.2073
  279SOL    HW1  836   1.641   1.724   0.666  0.3023  0.0800  0.2334
  279SOL    HW2  837   1.593   1.723   0.505 -0.3460  2.4925  1.9058
  280SOL     OW  838   0.659   1.731   0.728 -0.3752 -0.1561 -0.3492
  280SOL    HW1  839   0.720   1.806   0.701  1.6751  0.1899  0.5913
  280SOL    HW2  840   0.618   1.745   0.822 -0.6965 -1.7964 -0.1489
  281SOL     OW  841   3.023   0.070   2.644 -0.1698  0.0203  0.0309
  281SOL    HW1  842   2.962   0.152   2.617 -1.4411  1.3793 -3.6616
  281SOL    HW2  843   0.010   0.045   2.570 -0.4839 -0.0632 -0.0990
  282SOL     OW  844   0.310   0.973   0.846 -0.4918 -0.0722 -1.1433
  282SOL    HW1  845   0.271   0.919   0.772 -0.7417 -1.4275  1.8087
  282SOL    HW2  846   0.267   1.066   0.855  4.0350 -0.1996 -0.9538
  283SOL     OW  847   1.956   1.885   0.314  0.4353 -0.2228 -0.1973
  283SOL    HW1  848   2.040   1.948   0.321  1.1797  0.7508 -1.8045
  283SOL    HW2  849   1.894   1.907   0.233 -3.3054  2.4448 -1.7820
  284SOL     OW  850   1.089   1.162   0.244 -0.3510 -0.0313 -0.1247
  284SOL    HW1  851   1.117   1.166   0.340  0.6564  1.2423 -0.6112
  284SOL    HW2  852   1.169   1.140   0.182  3.2036 -1.2933 -0.0925
  285SOL     OW  853   2.321   0.586   2.651  0.5623 -0.3153  0.4621
  285SOL    HW1  854   2.367   0.653   2.715  1.0767  0.3802  2.6013
  285SOL    HW2  855   2.241   0.627   2.606 -1.7794  0.3442  2.6761
  286SOL     OW  856   1.320   2.923   1.224 -0.2054 -0.2456 -0.3365
  286SOL    HW1  857   1.219   2.937   1.207 -0.6776  1.3560 -1.3322
  286SOL    HW2  858   1.378   3.005   1.248  1.2335  0.6465  1.3129
  287SOL     OW  859   0.943   1.367   1.046  0.0131  0.1622  0.1423
  287SOL    HW1  860   1.031   1.419   1.044  0.0997  0.7765  0.5794
  287SOL    HW2  861   0.870   1.438   1.019 -1.2471  3.1334  0.8763
  288SOL     OW  862   1.544   3.051   2.752  0.5683  0.6137  0.1357
  288SOL    HW1  863   1.635   3.007   2.764 -0.9638 -1.8934  0.0902
  288SOL    HW2  864   1.526   0.034   2.829  0.0569 -2.5466  2.1783
  289SOL     OW  865   0.145   1.542   2.295 -0.4132 -0.0449 -0.0550
  289SOL    HW1  866   0.160   1.591   2.208 -2.7146  2.2999 -1.2157
  289SOL    HW2  867   0.072   1.586   2.351 -1.1219 -0.0122  2.9723
  290SOL     OW  868   1.758   2.277   0.943  0.3546  0.0200 -0.1322
  290SOL    HW1  869   1.811   2.364   0.949  0.3022  1.8521  0.8487
  290SOL    HW2  870   1.819   2.198   0.918  1.5637 -1.8267  0.1631
  291SOL     OW  871   2.365   2.157   3.065 -0.7281 -0.0289  0.0956
  291SOL    HW1  872   2.312   2.237   0.007  2.2977 -0.3896  1.2531
  291SOL    HW2  873   2.334   2.116   2.979  1.5842 -1.0453 -0.3611
  292SOL     OW  874   0.858   0.768   2.112 -0.4380  0.2873  0.4910
  292SOL    HW1  875   0.908   0.696   2.169 -0.2337  1.8423  0.8049
  292SOL    HW2  876   0.882   0.762   2.017 -1.6891 -1.8920  3.9913
  293SOL     OW  877   1.996   2.800   0.742 -0.4591 -0.3630 -0.1490
  293SOL    HW1  878   2.017   2.899   0.728 -0.0572  3.1619 -0.2551
  293SOL    HW2  879   2.067   2.736   0.703 -1.6412 -0.3745 -1.5919
  294SOL     OW  880   0.363   0.424   2.481  0.0237  0.2550 -0.3152
  294SOL    HW1  881   0.388   0.502   2.541 -2.0912  1.0826  0.9346
  294SOL    HW2  882   0.440   0.367   2.437  1.8218 -3.0056 -1.2297
  295SOL     OW  883   1.386   1.888   0.568  0.8788 -0.0491  0.0722
  295SOL    HW1  884   1.478   1.848   0.553 -0.5066  0.1371  0.7853
  295SOL    HW2  885   1.329   1.824   0.622  1.9070  0.6311 -0.1854
  296SOL     OW  886   2.624   1.717   0.512 -0.1967 -0.6086  0.0575
  296SOL    HW1  887   2.629   1.726   0.411 -1.1725 -0.4298 -1.3081
  296SOL    HW2  888   2.556   1.646   0.542  1.0178  1.0064  0.7191
  297SOL     OW  889   2.016   0.332   0.089  0.6095  0.1661 -0.3183
  297SOL    HW1  890   2.017   0.225   0.098  2.3962 -1.3702 -3.4728
  297SOL    HW2  891   2.096   0.373   0.040 -0.7316  0.7499  0.2094
  298SOL     OW  892   1.223   2.292   2.150 -0.2320  0.2572  0.0008
  298SOL    HW1  893   1.161   2.226   2.112  1.5209 -0.1587 -2.0574
  298SOL    HW2  894   1.321   2.254   2.161  4.3339 -1.7161 -3.5915
  299SOL     OW  895   1.208   2.668   2.569 -0.0066 -0.5597 -0.0031
  299SOL    HW1  896   1.241   2.754   2.611 -0.8881 -2.3015 -0.4125
  299SOL    HW2  897   1.273   2.644   2.496 -1.1222  1.3819  1.0607
  300SOL     OW  898   2.039   3.056   2.700 -0.1400  0.1973  0.3306
  300SOL    HW1  899   1.951   0.029   2.685  1.7464  5.0207 -0.5180
  300SOL    HW2  900   2.096   0.017   2.773 -0.6077  0.0665  0.2661
  301SOL     OW  901   1.492   1.360   1.538 -0.1869 -0.2051  0.1913
  301SOL    HW1  902   1.455   1.314   1.621 -0.9360  0.6554 -1.1549
  301SOL    HW2  903   1.408   1.378   1.477  0.8804 -1.5589  2.5338
  302SOL     OW  904   2.543   2.411   0.352  0.0748 -1.0897  0.1203
  302SOL    HW1  905   2.628   2.472   0.347  0.7374  0.1784 -1.3613
  302SOL    HW2  906   2.515   2.386   0.259 -1.7378 -2.2440  0.9391
  303SOL     OW  907   2.847   2.289   2.412 -0.3910  0.1766 -0.2757
  303SOL    HW1  908   2.852   2.385   2.380 -0.4440 -0.8832 -3.2620
  303SOL    HW2  909   2.927   2.230   2.379  1.1203 -2.3423 -2.0571
  304SOL     OW  910   2.852   0.572   1.904  0.1962  0.0015  0.3481
  304SOL    HW1  911   2.852   0.664   1.859 -2.1665  0.1418  0.5065
  304SOL    HW2  912   2.832   0.581   2.004 -1.2374 -2.3109  1.6319
  305SOL     OW  913   0.941   1.983   1.737  0.1584  0.2985  0.1631
  305SOL    HW1  914   1.011   1.916   1.770  0.4087 -0.4398  1.7282
  305SOL    HW2  915   0.965   2.081   1.764 -1.5118  1.2513 -0.2950
  306SOL     OW  916   2.781   0.827   1.797 -0.1340  0.2916 -0.0109
  306SOL    HW1  917   2.823   0.830   1.706  0.3616 -0.8785  0.7824
  306SOL    HW2  918   2.763   0.925   1.830 -1.9253  1.3658  1.9426
  307SOL     OW  919   1.502   1.143   1.870  0.4528  0.7957 -0.1106
  307SOL    HW1  920   1.412   1.157   1.919 -2.0660  1.1385 -1.1468
  307SOL    HW2  921   1.499   1.072   1.797  0.8494 -0.2278 -0.3937
  308SOL     OW  922   2.703   1.511   0.932 -0.2459  0.6749 -0.2961
  308SOL    HW1  923   2.628   1.538   0.993  0.2933 -1.0565 -2.1692
  308SOL    HW2  924   2.680   1.435   0.867  0.6076  2.6421 -1.5715
  309SOL     OW  925   2.303   1.526   1.288  0.1087  0.0428 -0.0079
  309SOL    HW1  926   2.334   1.575   1.374  0.9372 -0.6883  0.8610
  309SOL    HW2  927   2.361   1.443   1.268  1.6749  0.6286 -0.9360
  310SOL     OW  928   2.657   1.613   2.375 -0.4728  0.2799  0.5460
  310SOL    HW1  929   2.577   1.677   2.376 -3.2719 -0.1235 -1.5637
  310SOL    HW2  930   2.703   1.606   2.467  2.2408 -0.2367  3.3122
  311SOL     OW  931   0.138   2.170   2.958 -0.4566 -0.2358 -0.0401
  311SOL    HW1  932   0.096   2.222   3.038  2.0753 -1.3038  0.2491
  311SOL    HW2  933   0.188   2.091   2.993 -1.2798  0.4259  0.4232
  312SOL     OW  934   2.311   1.566   1.010 -0.6205  0.1280  0.1092
  312SOL    HW1  935   2.277   1.549   1.105 -0.4951 -0.8078 -1.7352
  312SOL    HW2  936   2.412   1.590   1.011 -0.3078 -1.8699 -0.0922
  313SOL     OW  937   2.572   0.125   1.031  0.1204  0.6436  0.0714
  313SOL    HW1  938   2.571   0.227   1.023 -3.1795  0.0296 -0.0733
  313SOL    HW2  939   2.494   0.077   0.991 -0.3241 -3.4736  1.8351
  314SOL     OW  940   1.119   1.559   0.445 -0.1638  0.6028  0.0845
  314SOL    HW1  941   1.150   1.641   0.401  0.1388 -1.3900  2.1934
  314SOL    HW2  942   1.178   1.478   0.420  0.0601 -0.0430 -1.6298
  315SOL     OW  943   1.137   2.537   2.110  0.3049  0.3259  0.2614
  315SOL    HW1  944   1.127   2.578   2.204  0.3965  1.0131  2.8493
  315SOL    HW2  945   1.181   2.447   2.114  1.6478  0.5458 -0.5509
  316SOL     OW  946   2.831   1.101   0.288 -0.1555 -0.2038 -0.1814
  316SOL    HW1  947   2.900   1.031   0.250 -0.0211 -0.0841 -3.5032
  316SOL    HW2  948   2.740   1.057   0.301 -1.1819 -0.3088 -0.0197
  317SOL     OW  949   0.798   0.284   0.442 -0.1350  0.0991  0.4636
  317SOL    HW1  950   0.757   0.241   0.359 -1.4780 -1.5457  0.4179
  317SOL    HW2  951   0.816   0.212   0.516 -0.7867 -1.3491  1.0223
  318SOL     OW  952   2.772   2.556   0.312 -0.7608 -0.7206 -0.1682
  318SOL    HW1  953   2.789   2.629   0.243  0.8777 -0.1822  0.0376
  318SOL    HW2  954   2.860   2.507   0.334  0.0322  1.0617  0.9581
  319SOL     OW  955   0.728   1.388   2.515 -0.0328  0.1022 -0.3019
  319SOL    HW1  956   0.681   1.394   2.604  0.8609 -0.8205  0.8985
  319SOL    HW2  957   0.823   1.353   2.532 -0.2905 -1.7723  2.3122
  320SOL     OW  958   0.634   2.353   1.793 -0.1452  0.3829  0.1950
  320SOL    HW1  959   0.709   2.410   1.749 -0.3761  0.5453 -0.3930
  320SOL    HW2  960   0.559   2.407   1.835 -0.6855 -2.9353  1.7062
  321SOL     OW  961   1.588   2.242   2.921 -0.5573 -0.4069  0.0628
  321SOL    HW1  962   1.593   2.289   2.829 -0.9335  0.1205 -0.0550
  321SOL    HW2  963   1.520   2.288   2.980  0.3667  0.5196  0.8542
  322SOL     OW  964   2.755   1.082   1.874 -0.1056  0.3587 -0.4813
  322SOL    HW1  965   2.666   1.110   1.917 -0.1382  1.8670  1.6879
  322SOL    HW2  966   2.835   1.118   1.931  1.8379  1.0054  0.9148
  323SOL     OW  967   2.411   0.879   0.776  0.1389  0.3233  0.0674
  323SOL    HW1  968   2.438   0.805   0.706  0.2235  0.9305 -2.0339
  323SOL    HW2  969   2.392   0.960   0.719 -1.3559 -0.7241 -0.4457
  324SOL     OW  970   0.401   2.746   2.964 -0.1351 -0.5865  0.1517
  324SOL    HW1  971   0.398   2.642   2.958 -0.9813  2.0149 -0.1378
  324SOL    HW2  972   0.325   2.774   2.900 -0.3162 -2.0111 -0.8282
  325SOL     OW  973   1.267   0.451   2.258  0.2123 -0.5169 -1.1520
  325SOL    HW1  974   1.346   0.482   2.198  0.9047 -0.9834 -0.0548
  325SOL    HW2  975   1.243   0.351   2.242 -1.5202 -0.4223 -0.1888
  326SOL     OW  976   2.307   2.646   1.675  0.0883  0.6746 -0.3531
  326SOL    HW1  977   2.402   2.663   1.646  1.5193  0.5013  1.9045
  326SOL    HW2  978   2.314   2.549   1.713  3.0684 -2.6556 -1.4588
  327SOL     OW  979   1.984   0.604   2.954 -0.2960  0.1018 -0.4875
  327SOL    HW1  980   1.892   0.619   2.994  0.6499 -0.8502 -0.3965
  327SOL    HW2  981   1.993   0.521   2.900 -0.7911 -0.5043 -1.7750
  328SOL     OW  982   2.805   0.895   2.258 -0.6843 -0.3817  0.2288
  328SOL    HW1  983   2.760   0.976   2.219 -2.3533 -3.4615  2.3708
  328SOL    HW2  984   2.766   0.879   2.351 -0.7632  1.0313 -0.5322
  329SOL     OW  985   1.242   0.152   1.863  0.1289 -0.3728  0.1044
  329SOL    HW1  986   1.187   0.069   1.839  0.0859 -0.7028  3.2632
  329SOL    HW2  987   1.334   0.145   1.808  3.3480  0.8160 -2.7397
  330SOL     OW  988   2.832   1.806   1.389  0.6736 -0.2948  0.2474
  330SOL    HW1  989   2.928   1.845   1.378  1.0442 -0.5174  0.2572
  330SOL    HW2  990   2.814   1.723   1.334 -0.7501 -0.9846  1.3380
  331SOL     OW  991   0.585   1.484   2.067  0.2310 -0.1420 -0.1445
  331SOL    HW1  992   0.552   1.492   2.162 -0.1266 -0.6459 -3.1411
  331SOL    HW2  993   0.680   1.444   2.052  1.4746 -1.6854  1.2467
  332SOL     OW  994   0.149   2.844   1.390 -0.4032 -1.0393  0.1612
  332SOL    HW1  995   0.114   2.889   1.474  1.5167 -0.6838 -2.6869
  332SOL    HW2  996   0.091   2.888   1.316 -2.6561  2.2322 -3.1641
  333SOL     OW  997   2.269   2.862   1.826  0.3736 -0.2251  0.5136
  333SOL    HW1  998   2.329   2.938   1.785  0.1785  2.2974 -2.2772
  333SOL    HW2  999   2.293   2.773   1.785  0.7671 -1.1905  1.8112
  334SOL     OW 1000   1.012   1.994   1.028 -0.2348  0.0824 -0.1702
  334SOL    HW1 1001   0.911   2.024   1.041 -2.5360  1.1018 -0.3646
  334SOL    HW2 1002   1.058   2.051   0.956  0.8125 -0.9145 -0.9587
  335SOL     OW 1003   0.811   2.275   2.718  0.3955 -0.0817 -0.3428
  335SOL    HW1 1004   0.713   2.307   2.706 -2.4280 -1.8016 -1.1973
  335SOL    HW2 1005   0.864   2.313   2.798 -1.8273  0.1037  1.0126
  336SOL     OW 1006   0.020   0.092   2.000  0.5996  0.0392 -0.3675
  336SOL    HW1 1007   0.027   0.115   1.900 -0.7563  1.1575 -2.3301
  336SOL    HW2 1008   0.101   0.036   2.030 -0.6290  2.1380 -1.3342
  337SOL     OW 1009   2.786   2.130   0.014 -0.4364  0.0130  0.1481
  337SOL    HW1 1010   2.822   2.197   0.085  2.6037 -4.6494 -0.2007
  337SOL    HW2 1011   2.847   2.050   0.002 -1.7920  1.5273  0.7104
  338SOL     OW 1012   1.168   2.088   1.236  0.0567  0.8222  0.1457
  338SOL    HW1 1013   1.221   2.161   1.183  0.7175  1.6891  0.7631
  338SOL    HW2 1014   1.119   2.035   1.166 -0.4807  0.6843 -1.4017
  339SOL     OW 1015   3.003   0.341   2.057  0.5876  0.6865  0.0931
  339SOL    HW1 1016   2.903   0.302   2.058 -3.0591 -0.6385  0.6687
  339SOL    HW2 1017   3.069   0.268   2.034  1.9773  1.4813  0.5696
  340SOL     OW 1018   1.706   2.675   0.435  0.2609  0.2709 -0.5093
  340SOL    HW1 1019   1.746   2.592   0.403  0.2081  0.5136 -2.6788
  340SOL    HW2 1020   1.631   2.660   0.505  0.1266  0.7087 -2.2481
  341SOL     OW 1021   1.577   1.514   1.074 -0.0347  0.0033  0.1836
  341SOL    HW1 1022   1.672   1.484   1.092  0.1737  0.8208  0.1698
  341SOL    HW2 1023   1.556   1.608   1.106 -0.1813  1.4111 -2.5916
  342SOL     OW 1024   0.405   1.637   0.646 -0.0109 -0.1283  0.0271
  342SOL    HW1 1025   0.407   1.644   0.543 -1.1705 -0.3322  2.6980
  342SOL    HW2 1026   0.483   1.686   0.685  0.0945  1.1200  0.5147
  343SOL     OW 1027   1.521   2.766   1.405 -0.1664 -0.3432 -0.4168
  343SOL    HW1 1028   1.540   2.776   1.506  0.1770 -1.0351  0.3467
  343SOL    HW2 1029   1.445   2.826   1.382  0.0299  0.0207  0.8272
  344SOL     OW 1030   2.328   2.826   0.984  0.2199  0.5290  0.4449
  344SOL    HW1 1031   2.309   2.726   0.978 -0.0688  1.9432  2.3694
  344SOL    HW2 1032   2.299   2.856   1.079 -4.1633 -1.4541 -0.7178
  345SOL     OW 1033   2.836   2.264   2.680  0.9365  0.1066 -0.0134
  345SOL    HW1 1034   2.820   2.289   2.583  0.0430 -1.2580 -1.3329
  345SOL    HW2 1035   2.935   2.252   2.698 -1.6650 -1.5754 -0.9223
  346SOL     OW 1036   0.384   2.041   0.750 -0.8356  0.0603  0.1510
  346SOL    HW1 1037   0.297   1.998   0.718  1.8834 -0.3525 -0.4454
  346SOL    HW2 1038   0.387   2.141   0.763  2.8631  0.2996 -1.8374
  347SOL     OW 1039   1.853   2.544   0.938 -0.2443 -0.1247  0.1784
  347SOL    HW1 1040   1.948   2.525   0.904  4.5411 -0.5708  1.4441
  347SOL    HW2 1041   1.852   2.642   0.965  2.0095  0.8124  1.4314
  348SOL     OW 1042   1.338   1.503   2.653  0.5797  0.5539  0.2172
  348SOL    HW1 1043   1.359   1.423   2.589 -0.4930  0.2280 -2.1452
  348SOL    HW2 1044   1.290   1.580   2.608 -0.1383  1.7494  2.6604
  349SOL     OW 1045   2.211   0.777   2.044  0.1538 -0.6911 -0.3568
  349SOL    HW1 1046   2.168   0.853   1.987 -0.4235  0.3855  1.3545
  349SOL    HW2 1047   2.314   0.787   2.041  0.4335 -1.3126  0.3530
  350SOL     OW 1048   3.014   2.619   1.321  0.1496  0.0351 -0.0943
  350SOL    HW1 1049   2.968   2.664   1.240 -1.2176 -0.2349  2.1118
  350SOL    HW2 1050   0.017   2.559   1.304  1.8022 -0.7055 -0.2808
  351SOL     OW 1051   0.535   0.328   2.935  0.3747  0.1382 -0.0847
  351SOL    HW1 1052   0.536   0.311   3.034 -0.1635  0.9268  1.7877
  351SOL    HW2 1053   0.628   0.314   2.899  1.6724 -2.0005  0.1111
  352SOL     OW 1054   0.800   2.569   1.434 -0.1141  0.6086 -0.0647
  352SOL    HW1 1055   0.832   2.532   1.526  0.5169 -1.2409 -0.4684
  352SOL    HW2 1056   0.729   2.642   1.444  2.0779 -0.6997 -0.4736
  353SOL     OW 1057   0.922   0.797   2.551  0.3722  0.3685  0.1299
  353SOL    HW1 1058   0.887   0.880   2.502  1.3528  0.1896  1.7205
  353SOL    HW2 1059   0.995   0.821   2.615 -1.3473 -1.3987 -0.9242
  354SOL     OW 1060   1.542   0.966   0.621  0.3425  0.2191  0.4230
  354SOL    HW1 1061   1.464   0.898   0.624 -1.1381  0.7187 -1.5123
  354SOL    HW2 1062   1.521   1.040   0.548 -1.0457  0.4148 -1.8494
  355SOL     OW 1063   2.731   0.225   0.369 -0.3478  0.2347  0.4929
  355SOL    HW1 1064   2.797   0.181   0.301  3.1875 -1.3555  0.0803
  355SOL    HW2 1065   2.670   0.151   0.409 -1.2967 -0.6071  1.4159
  356SOL     OW 1066   2.872   0.962   2.639  0.3818 -0.1389  0.2618
  356SOL    HW1 1067   2.954   0.913   2.598  1.0937 -1.2788 -1.6848
  356SOL    HW2 1068   2.855   1.042   2.578  0.8340 -1.8791  2.9729
  357SOL     OW 1069   0.760   2.776   1.692 -0.3562 -0.3479 -0.0311
  357SOL    HW1 1070   0.770   2.873   1.659 -1.5246  1.9577  0.0758
  357SOL    HW2 1071   0.726   2.723   1.615  0.9948  2.6811 -0.4430
  358SOL     OW 1072   2.529   1.381   2.430  0.3126 -0.2335  0.1236
  358SOL    HW1 1073   2.583   1.465   2.396  0.1156 -1.6869 -2.3949
  358SOL    HW2 1074   2.426   1.397   2.422 -0.6783 -2.4518  0.5167
  359SOL     OW 1075   2.400   2.563   2.774 -1.1681  0.4885 -0.5761
  359SOL    HW1 1076   2.427   2.628   2.699  0.0335  0.1671 -2.7809
  359SOL    HW2 1077   2.454   2.472   2.772  0.8204  0.1530  0.8538
  360SOL     OW 1078   2.157   0.844   0.882  0.0819  0.1491  0.2416
  360SOL    HW1 1079   2.206   0.765   0.852 -0.5787  2.6265  2.8771
  360SOL    HW2 1080   2.224   0.913   0.916 -0.8876  1.0444 -1.8232
  361SOL     OW 1081   1.927   2.795   1.006 -0.2667  0.4486  0.5108
  361SOL    HW1 1082   1.864   2.876   1.009  0.6858 -1.5805 -0.8803
  361SOL    HW2 1083   1.966   2.786   0.910  1.3521 -3.5410  0.2364
  362SOL     OW 1084   1.542   1.147   0.834  0.0338  0.3584 -0.2118
  362SOL    HW1 1085   1.546   1.085   0.750 -3.1428  0.2766 -0.0288
  362SOL    HW2 1086   1.616   1.216   0.830  0.4617 -2.0702 -0.5768
  363SOL     OW 1087   3.000   1.632   2.436  0.2673  0.2692  0.5199
  363SOL    HW1 1088   2.952   1.650   2.343 -1.8646  3.8479  0.8763
  363SOL    HW2 1089   2.967   1.546   2.479  0.4597  0.8108 -0.9583
  364SOL     OW 1090   1.303   0.592   1.343 -0.1218 -0.3622 -0.5837
  364SOL    HW1 1091   1.337   0.560   1.437  3.2621  0.7701 -0.0073
  364SOL    HW2 1092   1.378   0.642   1.294 -1.1003  3.0215  1.3345
  365SOL     OW 1093   3.070   2.941   1.200 -0.2457  0.0459  0.5907
  365SOL    HW1 1094   0.057   2.995   1.150 -1.1737 -1.6369  2.9770
  365SOL    HW2 1095   2.987   2.927   1.143  0.9453  2.5736 -0.9487
  366SOL     OW 1096   2.837   1.359   0.170  0.2031 -0.0059 -0.5975
  366SOL    HW1 1097   2.937   1.385   0.178  0.0120 -1.8246  1.9936
  366SOL    HW2 1098   2.816   1.265   0.203  0.8013  1.1736 -0.2005
  367SOL     OW 1099   3.037   1.964   2.789 -0.0362 -0.0927  0.1858
  367SOL    HW1 1100   3.076   2.056   2.771  0.7433  0.7465 -1.3295
  367SOL    HW2 1101   3.028   1.944   2.889 -0.2100 -0.9694 -0.7654
  368SOL     OW 1102   2.899   2.235   1.010  0.4364 -0.4062  0.2795
  368SOL    HW1 1103   2.817   2.287   1.037  0.8834 -1.8446 -0.6407
  368SOL    HW2 1104   2.966   2.290   0.959  3.0418  0.0715  0.3560
  369SOL     OW 1105   0.286   0.449   0.419 -0.3689 -0.1052  0.1432
  369SOL    HW1 1106   0.308   0.476   0.322 -3.7883 -2.2761  0.5641
  369SOL    HW2 1107   0.349   0.378   0.442 -1.5532 -0.3628  0.2339
  370SOL     OW 1108   0.519   0.870   1.548 -0.0667 -0.2557  0.6440
  370SOL    HW1 1109   0.458   0.906   1.474  0.2004 -0.6670 -0.8955
  370SOL    HW2 1110   0.533   0.774   1.527 -1.4659  0.9002 -0.0960
  371SOL     OW 1111   2.236   1.932   0.696 -0.7868  0.4173  0.7525
  371SOL    HW1 1112   2.251   1.984   0.779  1.4082 -0.4175 -1.1299
  371SOL    HW2 1113   2.260   1.834   0.713 -1.7414 -1.8638  0.9948
  372SOL     OW 1114   0.017   0.833   2.523  0.1836  0.0312  0.2949
  372SOL    HW1 1115   0.101   0.817   2.580  3.3658  0.3367 -0.5921
  372SOL    HW2 1116   0.046   0.831   2.424  0.4497  2.0951  2.3613
  373SOL     OW 1117   2.928   1.467   0.669 -0.1439  0.0459  0.1474
  373SOL    HW1 1118   2.909   1.565   0.658 -0.7980 -0.2773  0.0500
  373SOL    HW2 1119   2.873   1.401   0.606 -0.5224  1.7468 -3.0106
  374SOL     OW 1120   0.695   2.499   0.216  0.0072  0.6213 -0.0671
  374SOL    HW1 1121   0.788   2.503   0.174  0.8360  3.2818  0.3218
  374SOL    HW2 1122   0.699   2.559   0.295 -0.4389 -3.0559 -0.0893
  375SOL     OW 1123   0.589   0.321   0.140  0.3525  0.8823 -0.0656
  375SOL    HW1 1124   0.682   0.359   0.120  0.3544  0.6528 -0.7441
  375SOL    HW2 1125   0.598   0.223   0.156 -2.2163 -0.5657 -1.7549
  376SOL     OW 1126   0.204   3.003   2.120 -0.0319 -0.6093 -0.1617
  376SOL    HW1 1127   0.142   2.943   2.167 -1.2225 -0.1253 -1.0067
  376SOL    HW2 1128   0.296   2.964   2.094  1.2120  1.8049 -2.1535
  377SOL     OW 1129   0.792   2.004   2.262 -0.2806 -0.5872 -0.0629
  377SOL    HW1 1130   0.832   1.978   2.350  2.6350  0.3674 -0.3765
  377SOL    HW2 1131   0.778   1.923   2.201  0.3071 -1.6333 -0.2715
  378SOL     OW 1132   1.134   0.926   0.610 -0.2473 -0.3523 -0.1987
  378SOL    HW1 1133   1.132   0.884   0.517 -1.2689 -2.4637  0.4247
  378SOL    HW2 1134   1.071   0.875   0.671  0.8640  0.3050  1.1855
  379SOL     OW 1135   1.147   1.376   0.060 -0.4016 -0.2290  0.2769
  379SOL    HW1 1136   1.122   1.300   0.129 -1.3448 -4.9040  3.5684
  379SOL    HW2 1137   1.249   1.385   0.053 -1.2027 -1.0526  0.7828
  380SOL     OW 1138   3.064   2.027   1.935 -0.3440  0.3345 -0.4377
  380SOL    HW1 1139   3.005   1.949   1.898 -3.3529 -5.4691 -0.7098
  380SOL    HW2 1140   0.026   2.078   1.858 -0.1559  0.7145 -3.0286
  381SOL     OW 1141   0.257   0.831   1.958 -0.4577  0.5088  0.5359
  381SOL    HW1 1142   0.347   0.848   1.908  1.0890  1.4579 -1.6859
  381SOL    HW2 1143   0.182   0.850   1.892  0.6800 -1.7609  0.7451
  382SOL     OW 1144   2.676   2.192   2.863  0.2717  0.1770  1.2008
  382SOL    HW1 1145   2.743   2.221   2.789 -1.3035  0.6917 -0.7611
  382SOL    HW2 1146   2.730   2.166   2.947  0.0216 -2.0183 -1.0577
  383SOL     OW 1147   2.275   1.811   2.400 -0.3431  0.4949 -0.4182
  383SOL    HW1 1148   2.300   1.749   2.327 -1.9078 -0.6256  0.6296
  383SOL    HW2 1149   2.252   1.763   2.489 -0.8889 -1.0647 -0.9893
  384SOL     OW 1150   0.745   2.362   2.091 -0.1270 -0.1242 -0.1008
  384SOL    HW1 1151   0.684   2.446   2.097 -0.3072 -0.9001 -1.0207
  384SOL    HW2 1152   0.703   2.289   2.029 -0.4126 -1.0102  0.1540
  385SOL     OW 1153   2.540   1.972   1.030  0.4276  0.1020  0.0533
  385SOL    HW1 1154   2.628   1.994   0.982 -2.8888  0.8347 -1.1273
  385SOL    HW2 1155   2.549   1.992   1.128 -0.1504  3.4437 -3.7800
  386SOL     OW 1156   1.762   0.984   2.906  0.0061 -0.1469  0.2162
  386SOL    HW1 1157   1.688   0.933   2.852 -1.7522 -3.9562 -0.8573
  386SOL    HW2 1158   1.765   0.955   3.003  0.3516 -1.3757 -2.3862
  387SOL     OW 1159   0.472   0.875   1.812  0.4342 -0.0654 -0.2784
  387SOL    HW1 1160   0.484   0.880   1.708 -0.7116  0.3160  0.5857
  387SOL    HW2 1161   0.486   0.965   1.861  2.3749  0.5176  1.8645
  388SOL     OW 1162   2.848   0.846   1.492  0.3650 -0.4392 -0.1248
  388SOL    HW1 1163   2.756   0.831   1.450 -0.4054  0.8727  1.4753
  388SOL    HW2 1164   2.878   0.943   1.474 -1.0433  2.0219 -0.2944
  389SOL     OW 1165   1.757   1.010   2.502  0.3060 -0.3051 -0.1575
  389SOL    HW1 1166   1.812   1.045   2.423 -0.0225  1.2911 -1.1681
  389SOL    HW2 1167   1.742   1.086   2.570 -0.8622  0.4453 -0.9636
  390SOL     OW 1168   2.156   2.196   0.588  0.4230 -0.5690 -0.1864
  390SOL    HW1 1169   2.139   2.096   0.604  0.6665 -0.1634  0.8792
  390SOL    HW2 1170   2.232   2.222   0.646  1.3184 -0.6306 -3.8430
  391SOL     OW 1171   1.631   2.800   0.703 -0.5451  0.4393 -0.1051
  391SOL    HW1 1172   1.732   2.800   0.707 -0.1312  1.4909 -1.8962
  391SOL    HW2 1173   1.594   2.709   0.731  2.6304 -1.0650 -1.6884
  392SOL     OW 1174   2.554   2.740   1.623 -0.0340 -0.3853  0.7737
  392SOL    HW1 1175   2.616   2.745   1.543  1.8910 -2.5625  0.7898
  392SOL    HW2 1176   2.527   2.829   1.657  1.6127 -1.0197  0.8831
  393SOL     OW 1177   1.824   1.800   2.928  0.3805  0.0748  0.2059
  393SOL    HW1 1178   1.807   1.887   2.971  0.9516 -1.3402 -1.3347
  393SOL    HW2 1179   1.922   1.777   2.946  2.0643  0.6146 -0.2358
  394SOL     OW 1180   0.529   2.715   2.690 -0.1352 -0.0451 -0.1128
  394SOL    HW1 1181   0.517   2.652   2.769  1.1970 -0.4475  2.8473
  394SOL    HW2 1182   0.449   2.702   2.630 -0.3776  0.1583  1.7768
  395SOL     OW 1183   0.749   1.560   0.984 -0.0123  0.5378 -0.5247
  395SOL    HW1 1184   0.648   1.548   0.984 -0.2381 -1.4856 -0.2916
  395SOL    HW2 1185   0.781   1.632   1.049  0.5701  0.0732  0.0659
  396SOL     OW 1186   1.877   0.789   2.679  0.0302 -0.4048  0.0321
  396SOL    HW1 1187   1.851   0.833   2.591  1.0201 -2.0015 -2.1033
  396SOL    HW2 1188   1.902   0.853   2.752  0.6105 -0.1431  1.8755
  397SOL     OW 1189   2.859   0.743   2.823 -0.1326  0.0412 -0.1950
  397SOL    HW1 1190   2.854   0.816   2.748 -0.8647  4.0767 -0.3744
  397SOL    HW2 1191   2.912   0.665   2.796 -1.1583  0.2989  0.5065
  398SOL     OW 1192   1.247   0.377   0.392 -0.1408 -0.0961  0.3756
  398SOL    HW1 1193   1.340   0.406   0.416 -0.7728 -0.9478 -2.0280
  398SOL    HW2 1194   1.205   0.312   0.454  2.3852  1.6718 -0.9111
  399SOL     OW 1195   1.699   0.023   1.766 -0.0935 -0.4546 -0.4545
  399SOL    HW1 1196   1.678   0.003   1.665 -0.5251 -0.5755 -0.9721
  399SOL    HW2 1197   1.720   3.020   1.824  0.8974 -0.9691 -3.2682
  400SOL     OW 1198   3.050   2.131   2.364 -0.1411  0.3002  0.3670
  400SOL    HW1 1199   3.049   2.056   2.431  0.3002 -1.1685  1.7328
  400SOL    HW2 1200   3.012   2.092   2.274 -1.4651 -1.0395 -0.2282
  401SOL     OW 1201   0.698   0.087   0.262 -0.8473 -0.0028 -0.5263
  401SOL    HW1 1202   0.648   0.017   0.320  1.0755  0.9180 -0.5511
  401SOL    HW2 1203   0.777   0.044   0.214 -0.0218  0.8737  0.5964
  402SOL     OW 1204   0.302   2.377   1.521 -0.0456 -0.2350 -0.4228
  402SOL    HW1 1205   0.392   2.326   1.524 -0.0588  0.5761  1.0022
  402SOL    HW2 1206   0.229   2.312   1.497 -1.4744  3.2621  0.0504
  403SOL     OW 1207   0.093   0.884   1.375 -0.4870  1.3434  0.3491
  403SOL    HW1 1208   0.090   0.980   1.384  1.9890 -3.4966 -2.5436
  403SOL    HW2 1209   0.048   0.840   1.455 -0.8439  1.1133 -2.2287
  404SOL     OW 1210   0.064   2.360   2.110  0.2843 -0.7480  0.3885
  404SOL    HW1 1211   0.104   2.267   2.132  3.0220 -5.2156  0.4339
  404SOL    HW2 1212   0.095   2.414   2.191  0.9173  0.1306  0.6900
  405SOL     OW 1213   2.731   0.256   2.170 -0.4133 -0.2845  0.1801
  405SOL    HW1 1214   2.637   0.218   2.144  0.8987 -0.5061  0.5344
  405SOL    HW2 1215   2.732   0.345   2.216  0.1100 -1.7895 -0.8803
  406SOL     OW 1216   2.151   2.316   0.353  0.3545 -0.3595 -0.3841
  406SOL    HW1 1217   2.136   2.284   0.450 -0.0767 -0.3022  2.1980
  406SOL    HW2 1218   2.070   2.372   0.319  0.0482 -1.0845 -2.5127
  407SOL     OW 1219   1.960   1.668   0.735  0.4153 -0.1680  0.0294
  407SOL    HW1 1220   1.991   1.741   0.800  1.2865  0.8620  0.5379
  407SOL    HW2 1221   1.987   1.681   0.637 -1.2198 -2.2640  2.0183
  408SOL     OW 1222   0.527   0.269   2.328 -0.3996 -0.0760 -0.3624
  408SOL    HW1 1223   0.443   0.238   2.285 -0.8066  0.5769  0.5668
  408SOL    HW2 1224   0.588   0.326   2.271  0.2510 -1.9327 -0.6482
  409SOL     OW 1225   2.865   1.717   0.603 -0.1344 -0.0488 -0.5567
  409SOL    HW1 1226   2.765   1.734   0.599 -3.2086 -0.2452 -0.8271
  409SOL    HW2 1227   2.914   1.735   0.515 -0.5183 -0.3129 -1.3930
  410SOL     OW 1228   2.013   1.584   1.337  0.1391 -0.3809 -0.2948
  410SOL    HW1 1229   2.106   1.542   1.320  1.2507  0.2906 -0.3627
  410SOL    HW2 1230   2.007   1.625   1.432 -0.5945  0.3067 -0.7045
  411SOL     OW 1231   0.048   0.782   0.399 -0.7362 -0.5796  0.1572
  411SOL    HW1 1232   0.105   0.744   0.320  1.1535 -0.7051 -0.9080
  411SOL    HW2 1233   3.072   0.712   0.446  0.7799 -0.3692  2.1610
  412SOL     OW 1234   1.748   0.634   0.023  0.0383 -0.2109  0.5198
  412SOL    HW1 1235   1.661   0.675   0.004  1.8172 -0.5972  3.8551
  412SOL    HW2 1236   1.767   0.631   0.121 -1.4921 -0.1250 -1.7795
  413SOL     OW 1237   0.779   0.807   1.607 -0.4313 -0.3239 -0.3445
  413SOL    HW1 1238   0.682   0.818   1.602  2.3625 -1.3296 -0.0748
  413SOL    HW2 1239   0.823   0.866   1.537  0.0464  0.9042  0.9384
  414SOL     OW 1240   0.029   1.211   2.966  0.2686 -0.2772 -0.5318
  414SOL    HW1 1241   3.072   1.274   2.895 -0.1010 -1.8671 -1.5308
  414SOL    HW2 1242   0.003   1.115   2.943  1.4239 -1.0299  1.4612
  415SOL     OW 1243   0.325   1.489   0.155 -0.1110 -0.6393  0.5240
  415SOL    HW1 1244   0.403   1.461   0.102 -0.0766  2.9056  2.3611
  415SOL    HW2 1245   0.234   1.458   0.118  0.9122 -0.9085  2.7174
  416SOL     OW 1246   1.691   0.897   0.326  0.0033 -0.2944  0.1022
  416SOL    HW1 1247   1.594   0.871   0.329  0.0259  0.6658  2.3189
  416SOL    HW2 1248   1.725   0.935   0.241  0.7646 -1.8782  1.4260
  417SOL     OW 1249   0.179   0.283   0.795  0.5408 -0.1940 -0.0634
  417SOL    HW1 1250   0.128   0.286   0.883 -1.2354 -0.7890 -0.7528
  417SOL    HW2 1251   0.273   0.256   0.814 -0.9810  1.1115 -1.3140
  418SOL     OW 1252   2.010   1.013   2.815 -0.0831 -0.3580 -0.0800
  418SOL    HW1 1253   2.081   0.947   2.852  2.3548  1.1803 -0.4878
  418SOL    HW2 1254   1.917   1.001   2.860 -2.8633 -2.5469 -1.4454
  419SOL     OW 1255   0.353   0.493   0.161 -0.5956  0.2514  0.7133
  419SOL    HW1 1256   0.315   0.451   0.072 -2.4898 -2.7955 -0.5720
  419SOL    HW2 1257   0.449   0.447   0.174  1.9673 -2.6519  1.2972
  420SOL     OW 1258   0.474   1.522   1.002 -0.2132 -0.0286 -0.1669
  420SOL    HW1 1259   0.517   1.463   0.929  0.7860  0.9459  0.8681
  420SOL    HW2 1260   0.399   1.581   0.965 -2.8433  0.5965 -0.0710
  421SOL     OW 1261   0.395   2.193   0.120 -0.0287  0.3597  0.2288
  421SOL    HW1 1262   0.434   2.270   0.065 -1.6320 -0.2689 -0.4099
  421SOL    HW2 1263   0.356   2.119   0.058 -1.9666 -0.7843  1.7503
  422SOL     OW 1264   2.339   0.287   1.748  0.1499 -0.5534  0.4057
  422SOL    HW1 1265   2.348   0.388   1.756  2.7257 -0.8205 -1.1891
  422SOL    HW2 1266   2.249   0.251   1.791 -0.1042  0.2798  1.6379
  423SOL     OW 1267   2.081   1.450   0.856  0.3950  0.1436  0.1236
  423SOL    HW1 1268   2.047   1.542   0.820 -0.6858  0.8546 -1.0946
  423SOL    HW2 1269   2.171   1.453   0.902 -0.9215  0.0094 -1.2678
  424SOL     OW 1270   2.139   1.504   0.133  0.3501  0.6401  0.3566
  424SOL    HW1 1271   2.158   1.534   0.039 -0.8960  0.6346 -0.3315
  424SOL    HW2 1272   2.174   1.569   0.202  0.6725  1.5954 -0.2070
  425SOL     OW 1273   0.408   3.001   2.443 -0.2216  0.1490 -0.3827
  425SOL    HW1 1274   0.505   3.034   2.446 -0.8729 -0.2320  0.9419
  425SOL    HW2 1275   0.412   2.900   2.458 -0.2928 -0.6104 -0.6973
  426SOL     OW 1276   2.449   2.741   2.569  0.0177 -0.2290  0.0574
  426SOL    HW1 1277   2.389   2.818   2.600  2.7938  0.4743 -0.5714
  426SOL    HW2 1278   2.403   2.696   2.490  1.5836  3.2794 -0.0844
  427SOL     OW 1279   0.522   1.034   2.226  0.3913 -0.2009  0.9755
  427SOL    HW1 1280   0.618   1.009   2.195  1.3365 -1.5792  1.7568
  427SOL    HW2 1281   0.525   1.128   2.269 -0.6791  2.4986  1.3101
  428SOL     OW 1282   2.089   1.190   2.126 -0.0532 -0.2378 -0.2623
  428SOL    HW1 1283   2.073   1.114   2.063  1.6178  3.3108  0.6487
  428SOL    HW2 1284   2.159   1.254   2.084  2.7058  0.7276 -0.3842
  429SOL     OW 1285   2.396   0.225   0.455  0.1271 -0.7250 -0.5178
  429SOL    HW1 1286   2.389   0.206   0.357  0.4934 -1.8504  1.3192
  429SOL    HW2 1287   2.469   0.292   0.469 -0.5199  0.7662 -2.4569
  430SOL     OW 1288   1.604   1.400   1.976 -0.0421 -0.0836 -0.5686
  430SOL    HW1 1289   1.587   1.305   1.943 -1.3332  0.7981 -2.8421
  430SOL    HW2 1290   1.563   1.467   1.909 -0.0241  0.4042  2.9811
  431SOL     OW 1291   2.686   1.869   1.623 -0.0326 -0.3770  0.8991
  431SOL    HW1 1292   2.722   1.853   1.528 -0.2319 -1.9628 -1.5071
  431SOL    HW2 1293   2.593   1.924   1.620 -0.1358  0.3558  0.1729
  432SOL     OW 1294   1.056   2.740   1.752 -0.5487  0.2276  0.1976
  432SOL    HW1 1295   1.105   2.747   1.662 -2.2476  1.7339 -1.2237
  432SOL    HW2 1296   0.959   2.722   1.739  1.6031  0.8323  1.6567
  433SOL     OW 1297   1.698   2.960   0.945  0.5080  0.1338  0.1807
  433SOL    HW1 1298   1.701   3.034   0.876 -1.2014  0.0416 -1.5181
  433SOL    HW2 1299   1.606   2.927   0.938  2.9132 -3.0747 -0.2129
  434SOL     OW 1300   0.490   2.097   2.025 -0.8545 -0.4271  0.1804
  434SOL    HW1 1301   0.582   2.092   1.981  1.6296 -2.0370 -0.2284
  434SOL    HW2 1302   0.420   2.100   1.951  1.1153 -0.5166  2.4589
  435SOL     OW 1303   0.470   1.640   0.352 -1.0340 -0.0906  0.4497
  435SOL    HW1 1304   0.446   1.579   0.277 -1.0106  0.0238  1.0543
  435SOL    HW2 1305   0.411   1.721   0.358 -3.1180  0.0962  2.1369
  436SOL     OW 1306   0.423   1.357   1.878 -0.2466 -0.1497  0.4836
  436SOL    HW1 1307   0.430   1.397   1.781 -2.0139 -0.7080 -1.0661
  436SOL    HW2 1308   0.473   1.410   1.948 -0.4028  2.2119 -3.7238
  437SOL     OW 1309   1.220   0.449   3.000  0.2393  0.2682 -0.1950
  437SOL    HW1 1310   1.300   0.506   3.001  0.8043 -0.3990  0.8518
  437SOL    HW2 1311   1.167   0.464   2.916 -0.3786  2.9555  1.3581
  438SOL     OW 1312   0.484   1.977   1.583 -0.0550 -0.2864  0.5315
  438SOL    HW1 1313   0.444   1.961   1.485 -0.7574 -2.6787 -1.7550
  438SOL    HW2 1314   0.584   1.955   1.583 -2.5781 -1.7981  0.3007
  439SOL     OW 1315   2.113   1.802   2.971  0.8375  0.1050  0.1887
  439SOL    HW1 1316   2.164   1.821   3.052 -0.9806 -0.2069  0.0820
  439SOL    HW2 1317   2.153   1.724   2.918 -0.8257 -3.0323 -2.1688
  440SOL     OW 1318   1.489   0.535   0.686  0.2462  0.2422 -0.3107
  440SOL    HW1 1319   1.497   0.479   0.776  3.0551 -5.1361  3.3130
  440SOL    HW2 1320   1.434   0.624   0.688 -3.8097  1.6289 -1.9972
  441SOL     OW 1321   0.570   2.746   1.474 -0.7969  0.1493  0.5485
  441SOL    HW1 1322   0.491   2.703   1.526 -2.3358 -1.2091 -2.2869
  441SOL    HW2 1323   0.575   2.845   1.479 -1.0274 -1.4125 -0.3722
  442SOL     OW 1324   2.458   2.439   0.957 -0.5763  0.0226  0.0796
  442SOL    HW1 1325   2.374   2.470   1.004  2.2425 -2.6797  1.5976
  442SOL    HW2 1326   2.443   2.355   0.900  0.4541 -1.1159  1.9924
  443SOL     OW 1327   2.661   0.792   2.477  0.3929  0.0764 -0.3031
  443SOL    HW1 1328   2.576   0.778   2.423 -2.4466  2.3692 -2.9305
  443SOL    HW2 1329   2.635   0.864   2.548 -0.6058  2.4038  1.5275
  444SOL     OW 1330   1.516   0.849   2.415 -0.0127  0.3813  0.1848
  444SOL    HW1 1331   1.612   0.884   2.426  0.8592  0.0134  0.8848
  444SOL    HW2 1332   1.508   0.821   2.317 -0.6024  2.2765 -1.1648
  445SOL     OW 1333   2.774   2.373   1.690  0.2068  0.4692  0.1362
  445SOL    HW1 1334   2.751   2.300   1.765 -3.4146  1.5255  0.1752
  445SOL    HW2 1335   2.747   2.465   1.729  0.3209 -0.4838  0.1871
  446SOL     OW 1336   0.051   1.447   0.492  0.0663 -0.3133  0.4376
  446SOL    HW1 1337   0.085   1.543   0.478 -0.5509 -1.4940  1.9180
  446SOL    HW2 1338   0.005   1.437   0.582 -0.5115 -0.3420  1.5086
  447SOL     OW 1339   0.773   2.368   0.802 -0.0736 -0.6999  0.7754
  447SOL    HW1 1340   0.826   2.356   0.886  0.7370 -1.0010 -3.7026
  447SOL    HW2 1341   0.721   2.280   0.782 -2.1750 -2.6940  0.7098
  448SOL     OW 1342   1.674   1.537   1.655 -0.3754 -0.1883  0.1391
  448SOL    HW1 1343   1.754   1.479   1.688 -0.5532  1.3081 -0.0870
  448SOL    HW2 1344   1.620   1.480   1.589 -0.2386  2.6175 -0.2198
  449SOL     OW 1345   0.794   1.625   2.804 -0.2568 -0.1441  0.1117
  449SOL    HW1 1346   0.717   1.692   2.786 -1.2201 -0.9572 -2.3132
  449SOL    HW2 1347   0.859   1.631   2.724  0.5700  2.6866 -0.1744
  450SOL     OW 1348   2.887   2.038   2.154 -0.0088 -0.6160 -0.2135
  450SOL    HW1 1349   2.821   1.960   2.161 -1.7023 -2.3931  0.3099
  450SOL    HW2 1350   2.953   2.017   2.081 -1.2690  0.5054  0.7614
  451SOL     OW 1351   1.907   0.383   1.635  0.3900 -0.2126 -0.2903
  451SOL    HW1 1352   1.909   0.329   1.551 -0.5111  2.0298  4.0127
  451SOL    HW2 1353   1.940   0.478   1.622 -1.7302  1.4588  1.7162
  452SOL     OW 1354   0.896   2.773   1.280  0.6100  0.3297 -0.0424
  452SOL    HW1 1355   0.888   2.690   1.336  0.5159  0.2960  0.0092
  452SOL    HW2 1356   0.806   2.789   1.227 -3.2231  2.4944 -1.3374
  453SOL     OW 1357   0.980   1.709   0.875  0.7236 -0.2746  0.4514
  453SOL    HW1 1358   0.912   1.638   0.919 -3.8679 -3.2996  0.6218
  453SOL    HW2 1359   0.988   1.799   0.922  2.4469 -0.6816 -2.9161
  454SOL     OW 1360   2.946   1.063   0.754  0.1768  0.1366  0.5303
  454SOL    HW1 1361   3.002   1.043   0.673  3.1287 -0.7727 -1.0896
  454SOL    HW2 1362   2.982   1.146   0.801  0.2015  1.6483  2.4805
  455SOL     OW 1363   0.416   0.762   0.445 -0.3611  0.2120  1.2021
  455SOL    HW1 1364   0.348   0.776   0.518  0.3456 -1.9777  1.3254
  455SOL    HW2 1365   0.377   0.808   0.362  0.5803  1.6550 -2.5961
  456SOL     OW 1366   2.110   2.493   0.856  0.2510 -0.5964  0.4884
  456SOL    HW1 1367   2.146   2.536   0.944  2.1524  1.3322 -0.0661
  456SOL    HW2 1368   2.139   2.396   0.839 -0.2060 -3.6446 -0.7151
  457SOL     OW 1369   1.384   2.784   0.039  0.5585  0.4944  0.0894
  457SOL    HW1 1370   1.406   2.869   0.096  2.9809  1.0714  0.1482
  457SOL    HW2 1371   1.463   2.731   0.001  0.0120 -3.1084  1.2338
  458SOL     OW 1372   2.750   3.043   3.053 -0.2786 -0.6875 -0.0072
  458SOL    HW1 1373   2.682   2.970   3.044 -0.7198  0.0146  1.5699
  458SOL    HW2 1374   2.806   3.045   2.970  0.8268  2.1574 -1.9558
  459SOL     OW 1375   2.086   0.216   1.808  0.1743 -0.0160  0.4449
  459SOL    HW1 1376   2.072   0.127   1.763 -0.4361  0.1840 -1.7720
  459SOL    HW2 1377   2.030   0.286   1.759 -1.9832 -2.0775  0.4970
  460SOL     OW 1378   2.998   0.446   0.124 -0.2861 -0.0200 -0.4482
  460SOL    HW1 1379   2.978   0.406   0.024 -0.0201 -3.8610 -2.1298
  460SOL    HW2 1380   2.918   0.454   0.191 -0.3013  0.6957  0.7856
  461SOL     OW 1381   2.867   1.946   1.115 -0.2263  0.4222 -0.0140
  461SOL    HW1 1382   2.863   2.027   1.050 -2.5082  0.2358 -0.5536
  461SOL    HW2 1383   2.924   1.969   1.191  0.4509 -1.2170  0.9992
  462SOL     OW 1384   3.015   3.051   0.878 -0.1475  0.1855 -0.2768
  462SOL    HW1 1385   0.018   3.050   0.938 -0.3462  0.6695  1.7630
  462SOL    HW2 1386   2.968   0.059   0.898  1.4639  1.8995  0.6659
  463SOL     OW 1387   2.427   1.312   2.940  0.4531  0.4414  0.2055
  463SOL    HW1 1388   2.344   1.258   2.971 -1.2232 -0.6693  1.7316
  463SOL    HW2 1389   2.497   1.245   2.906  1.1400  0.6738  0.6822
  464SOL     OW 1390   0.655   2.810   1.145 -0.0937  0.0928  0.2831
  464SOL    HW1 1391   0.651   2.911   1.135 -2.6602  1.6817 -4.0335
  464SOL    HW2 1392   0.568   2.780   1.184  2.8064 -0.8893 -2.3279
  465SOL     OW 1393   0.871   0.564   1.090 -0.1874  0.2190 -0.2419
  465SOL    HW1 1394   0.934   0.643   1.100  2.0064 -0.5766  1.1627
  465SOL    HW2 1395   0.784   0.594   1.045  2.3947  1.5834 -0.8818
  466SOL     OW 1396   1.474   2.172   2.175  0.3561 -0.0961  0.1631
  466SOL    HW1 1397   1.543   2.227   2.124  0.1466  1.1062  0.2279
  466SOL    HW2 1398   1.501   2.166   2.273 -1.6382 -0.2298 -0.7336
  467SOL     OW 1399   0.795   0.191   1.992  0.0011  0.6653  0.3676
  467SOL    HW1 1400   0.847   0.129   2.057  0.1196 -0.2074 -0.2324
  467SOL    HW2 1401   0.830   0.191   1.895 -0.3498 -1.1896  0.4616
  468SOL     OW 1402   0.084   1.166   2.321  0.2145  0.2104  0.3718
  468SOL    HW1 1403   0.132   1.117   2.243  0.1131 -2.4081 -2.0455
  468SOL    HW2 1404   0.151   1.216   2.382  0.3008  0.8185  1.0488
  469SOL     OW 1405   1.006   2.697   0.612 -0.5011  0.1634 -0.2396
  469SOL    HW1 1406   0.994   2.789   0.653  2.4185 -2.4728  2.0260
  469SOL    HW2 1407   1.066   2.631   0.657 -1.6869 -0.9558 -2.1709
  470SOL     OW 1408   2.277   1.395   2.340 -0.7640 -0.0660  0.1478
  470SOL    HW1 1409   2.295   1.480   2.284  1.8373 -0.3106 -0.0676
  470SOL    HW2 1410   2.176   1.378   2.353  0.9927  1.1944  0.1430
  471SOL     OW 1411   0.950   2.427   2.884  0.2091  0.2674 -0.0279
  471SOL    HW1 1412   1.003   2.385   2.964 -1.7078  0.7298  0.3257
  471SOL    HW2 1413   0.946   2.531   2.881 -2.9838  1.4262 -1.2076
  472SOL     OW 1414   0.402   2.488   1.908 -0.0391  0.2375 -0.1984
  472SOL    HW1 1415   0.313   2.437   1.913 -2.3392 -0.8310 -0.1880
  472SOL    HW2 1416   0.403   2.555   1.829  2.9222 -1.0878 -0.1983
  473SOL     OW 1417   0.856   0.034   3.029 -0.5765 -0.2778  0.4719
  473SOL    HW1 1418   0.916   0.021   2.946  0.3752  1.5653 -2.3963
  473SOL    HW2 1419   0.763   0.017   3.003  3.1599  1.9098  1.1703
  474SOL     OW 1420   1.725   0.242   0.943  0.3807 -0.7310 -0.1312
  474SOL    HW1 1421   1.721   0.200   0.853  0.5132 -1.1500  0.8826
  474SOL    HW2 1422   1.818   0.292   0.950  3.1420 -2.5907 -0.1677
  475SOL     OW 1423   1.540   0.376   1.291 -0.5215  0.2702 -0.2093
  475SOL    HW1 1424   1.553   0.469   1.257  0.0103 -0.9581  0.4201
  475SOL    HW2 1425   1.620   0.315   1.276  1.6792 -0.6476  2.3009
  476SOL     OW 1426   0.172   0.833   1.041 -0.4642  0.1041 -0.2501
  476SOL    HW1 1427   0.160   0.896   1.120 -2.5279  1.5684  0.6686
  476SOL    HW2 1428   0.238   0.871   0.975 -1.7854 -0.5754 -0.5607
  477SOL     OW 1429   1.251   2.373   0.549 -0.2116  0.4158 -0.0755
  477SOL    HW1 1430   1.287   2.434   0.476  0.3000  0.0006 -3.2606
  477SOL    HW2 1431   1.217   2.430   0.630 -2.3300  0.0697  3.1349
  478SOL     OW 1432   0.156   2.524   2.288  0.0655  0.1176 -0.1797
  478SOL    HW1 1433   0.173   2.497   2.383  1.8193 -1.8460 -1.9111
  478SOL    HW2 1434   0.233   2.571   2.246 -2.5901 -1.2775 -0.4406
  479SOL     OW 1435   2.723   0.390   1.235 -0.0838 -0.8109 -0.0458
  479SOL    HW1 1436   2.658   0.418   1.310 -1.3180  3.8334  0.4198
  479SOL    HW2 1437   2.816   0.438   1.245  0.8700 -0.1296  0.4502
  480SOL     OW 1438   0.003   2.305   0.081 -0.8045 -0.4217 -0.4079
  480SOL    HW1 1439   0.073   2.352   0.146  4.3562  1.1875  1.1393
  480SOL    HW2 1440   2.989   2.302   0.128 -1.0412  0.9809  0.4740
  481SOL     OW 1441   2.418   1.901   1.848 -0.0965  0.2879  0.1957
  481SOL    HW1 1442   2.425   1.925   1.748 -3.1790  2.7686 -3.2563
  481SOL    HW2 1443   2.390   1.985   1.899  0.5444 -1.0555 -0.9323
  482SOL     OW 1444   1.588   1.877   2.526 -0.2514  0.4092 -0.2753
  482SOL    HW1 1445   1.561   1.965   2.486  1.2727 -2.4305 -1.1766
  482SOL    HW2 1446   1.559   1.802   2.468  1.4089  2.0865 -2.2590
  483SOL     OW 1447   0.748   1.669   1.448  0.3756 -0.1673  0.3048
  483SOL    HW1 1448   0.783   1.691   1.355  1.0322 -1.5660  1.5274
  483SOL    HW2 1449   0.700   1.581   1.442  2.5119 -1.7884  0.3020
  484SOL     OW 1450   0.415   0.472   1.613  0.0698  0.5334 -0.0176
  484SOL    HW1 1451   0.365   0.525   1.688 -2.9978 -0.8881  0.4274
  484SOL    HW2 1452   0.511   0.504   1.583  3.9705  0.1419  0.7919
  485SOL     OW 1453   2.204   1.129   2.988  0.1895 -0.8991  0.0094
  485SOL    HW1 1454   2.149   1.081   2.919  4.4626  1.0278  1.1132
  485SOL    HW2 1455   2.275   1.072   3.037  4.2924  0.9896 -1.2970
  486SOL     OW 1456   1.209   3.060   1.584  0.2494 -0.0377  0.1152
  486SOL    HW1 1457   1.299   3.080   1.629 -0.8439  0.9957 -0.1134
  486SOL    HW2 1458   1.200   0.023   1.494  3.0365  2.0735 -0.4654
  487SOL     OW 1459   0.534   2.263   1.557  0.4257 -0.4751 -0.2640
  487SOL    HW1 1460   0.558   2.313   1.642 -3.2154  1.0061 -1.2140
  487SOL    HW2 1461   0.545   2.164   1.572 -0.8375  0.7858  1.3807
  488SOL     OW 1462   2.518   1.968   2.906 -0.4540  0.0034 -0.1851
  488SOL    HW1 1463   2.432   1.963   2.870  1.1837  0.9613  2.1610
  488SOL    HW2 1464   2.554   2.065   2.912  1.6813  1.1566 -2.7441
  489SOL     OW 1465   2.177   0.066   0.519  0.0802  0.2123 -0.1635
  489SOL    HW1 1466   2.192   3.058   0.469  0.6805 -0.8330 -0.2828
  489SOL    HW2 1467   2.257   0.131   0.505  0.0499  0.5849  0.9801
  490SOL     OW 1468   1.212   2.234   2.833 -0.1027  0.2476 -0.6522
  490SOL    HW1 1469   1.208   2.137   2.865 -1.8252 -0.8385  1.0042
  490SOL    HW2 1470   1.182   2.301   2.902 -0.2977  1.2656 -1.3039
  491SOL     OW 1471   0.429   1.448   1.631  0.8170 -0.2982 -0.0213
  491SOL    HW1 1472   0.388   1.539   1.629  0.9591  0.5803 -0.2874
  491SOL    HW2 1473   0.496   1.436   1.552 -1.5219 -1.0096  0.6573
  492SOL     OW 1474   1.256   1.213   1.969  0.1192  0.1318 -0.2893
  492SOL    HW1 1475   1.188   1.196   1.892  0.6605 -0.4721  1.3113
  492SOL    HW2 1476   1.208   1.259   2.053 -1.6603  1.1607  1.1766
  493SOL     OW 1477   2.300   1.669   0.749  0.1045  0.3572 -0.1797
  493SOL    HW1 1478   2.361   1.600   0.713 -0.3477  2.6445 -0.5063
  493SOL    HW2 1479   2.294   1.651   0.849  1.1797  1.7115 -2.1850
  494SOL     OW 1480   0.504   1.828   0.950 -0.3702 -0.0636  0.4910
  494SOL    HW1 1481   0.421   1.770   0.952 -0.9994  0.1443  0.4431
  494SOL    HW2 1482   0.489   1.909   0.889 -1.7182 -2.4639  0.8765
  495SOL     OW 1483   2.150   2.610   0.607 -0.1950  0.3340  0.1868
  495SOL    HW1 1484   2.243   2.588   0.573  1.4264  0.4913 -0.2317
  495SOL    HW2 1485   2.124   2.543   0.680  0.0375 -0.2886 -0.7071
  496SOL     OW 1486   2.512   2.992   1.469  0.2378 -0.7598  0.2374
  496SOL    HW1 1487   2.590   3.052   1.444 -1.4878 -0.6663  1.5029
  496SOL    HW2 1488   2.451   3.046   1.533 -1.0488  3.1490  3.2474
  497SOL     OW 1489   2.286   0.960   2.390 -0.0789  0.0116 -0.1126
  497SOL    HW1 1490   2.334   1.029   2.332 -0.8931  2.1265  0.5024
  497SOL    HW2 1491   2.328   0.872   2.376  1.1589  0.3451  2.4679
  498SOL     OW 1492   0.104   2.222   1.443  0.7098 -0.3488  0.2133
  498SOL    HW1 1493   0.067   2.132   1.415  2.2655 -2.0199 -2.2271
  498SOL    HW2 1494   0.031   2.295   1.437 -0.7679  4.5992 -1.5190
  499SOL     OW 1495   0.942   2.461   1.924  0.5773 -0.0614 -0.0253
  499SOL    HW1 1496   0.874   2.427   1.994 -1.5148 -1.5456 -0.6298
  499SOL    HW2 1497   1.011   2.526   1.964 -2.5898  0.2299  0.8030
  500SOL     OW 1498   1.075   2.175   0.483  0.5884  0.1050 -0.4134
  500SOL    HW1 1499   0.981   2.212   0.494 -0.8518 -1.0885  0.5502
  500SOL    HW2 1500   1.137   2.250   0.504  0.7580 -2.8156  2.7612
  501SOL     OW 1501   1.852   2.869   1.401 -0.5082 -0.2697 -0.4607
  501SOL    HW1 1502   1.783   2.888   1.328  1.0824 -0.6067  0.5004
  501SOL    HW2 1503   1.808   2.837   1.489 -0.3848  0.1092 -0.1769
  502SOL     OW 1504   2.393   0.544   1.825  0.4839 -0.2706 -0.2606
  502SOL    HW1 1505   2.308   0.554   1.886 -2.6591  0.0790  2.5319
  502SOL    HW2 1506   2.477   0.513   1.875 -3.9379 -1.5394  0.2266
  503SOL     OW 1507   2.701   1.134   2.177  0.2078 -0.1000  0.1881
  503SOL    HW1 1508   2.711   1.235   2.187 -2.4405  0.8488 -5.2877
  503SOL    HW2 1509   2.630   1.107   2.105  0.8662 -1.8405  0.2085
  504SOL     OW 1510   1.582   0.983   1.340 -0.0298 -0.1388 -1.0582
  504SOL    HW1 1511   1.612   0.895   1.385 -0.2542  1.3470  0.9896
  504SOL    HW2 1512   1.569   0.976   1.236 -0.1925 -1.0648 -3.1578
  505SOL     OW 1513   0.554   3.021   1.504 -0.2529 -0.8158 -0.1487
  505SOL    HW1 1514   0.616   0.017   1.472  0.3762  0.7545 -1.0337
  505SOL    HW2 1515   0.460   3.056   1.478 -1.1634 -0.8213  0.9707
  506SOL     OW 1516   0.087   0.248   0.296 -0.2035  0.3082 -0.3268
  506SOL    HW1 1517   0.031   0.314   0.247  2.4059  0.5772  0.5977
  506SOL    HW2 1518   0.125   0.291   0.382  0.8656 -0.3332  0.8611
  507SOL     OW 1519   2.596   2.844   2.851  0.6516  0.2262 -0.3494
  507SOL    HW1 1520   2.594   2.836   2.750 -0.4907 -1.2747  0.4461
  507SOL    HW2 1521   2.643   2.761   2.884 -2.4359  4.5692 -0.6906
  508SOL     OW 1522   1.081   0.336   1.750 -0.0350 -0.7025 -0.4883
  508SOL    HW1 1523   1.022   0.294   1.680  2.9597 -1.3845  0.9662
  508SOL    HW2 1524   1.147   0.272   1.797 -1.3947 -0.7547  1.8642
  509SOL     OW 1525   1.641   1.741   1.230 -0.6113 -0.1555 -0.4673
  509SOL    HW1 1526   1.699   1.742   1.315  2.0550  1.2178  1.1950
  509SOL    HW2 1527   1.566   1.811   1.234  3.4783 -1.6364 -0.5389
  510SOL     OW 1528   2.480   0.998   1.562 -0.3999 -0.2428  0.1928
  510SOL    HW1 1529   2.503   0.903   1.535 -2.5561  0.3936  0.2455
  510SOL    HW2 1530   2.383   1.023   1.542  0.1163 -0.5684  0.1240
  511SOL     OW 1531   1.451   1.943   1.343 -0.6772 -0.0304  0.0084
  511SOL    HW1 1532   1.486   2.032   1.383 -1.3916  0.6329 -0.9543
  511SOL    HW2 1533   1.415   1.886   1.419  0.5128 -0.5747 -0.6132
  512SOL     OW 1534   3.056   1.300   0.854 -0.3329  0.0635 -0.2980
  512SOL    HW1 1535   3.039   1.379   0.792  2.0459  0.6702  0.0441
  512SOL    HW2 1536   3.001   1.305   0.943  0.3990  0.6804  3.2501
  513SOL     OW 1537   3.077   1.624   2.979  0.5564  0.0561  0.3053
  513SOL    HW1 1538   0.028   1.539   2.936 -1.1835  0.6888 -1.0682
  513SOL    HW2 1539   2.979   1.635   2.968  1.4060 -1.3751 -0.8520
  514SOL     OW 1540   2.562   2.106   2.120 -0.7531 -0.1340 -0.2016
  514SOL    HW1 1541   2.564   2.149   2.211 -3.0289  0.0621 -2.1297
  514SOL    HW2 1542   2.621   2.028   2.118 -2.6374 -1.4763 -1.7508
  515SOL     OW 1543   2.176   1.215   0.748  0.1022  0.0215  0.0661
  515SOL    HW1 1544   2.123   1.301   0.750 -0.2974 -0.2712  2.2540
  515SOL    HW2 1545   2.249   1.224   0.816 -1.4636  0.5079  0.2932
  516SOL     OW 1546   2.419   2.839   3.058  0.0493  0.6981  0.4592
  516SOL    HW1 1547   2.492   2.838   2.980  1.7891 -0.8077  0.2581
  516SOL    HW2 1548   2.363   2.748   3.061  0.1089 -0.9348  0.5099
  517SOL     OW 1549   1.017   1.594   2.640 -0.4065 -0.1459 -0.5338
  517SOL    HW1 1550   1.043   1.500   2.629 -0.5554  1.7198 -0.8737
  517SOL    HW2 1551   0.998   1.652   2.553 -0.2758  1.5261  0.8699
  518SOL     OW 1552   0.280   0.184   2.206 -0.0173 -0.2241 -0.1144
  518SOL    HW1 1553   0.254   0.092   2.175  0.6771  1.9833  0.2794
  518SOL    HW2 1554   0.224   0.191   2.294 -3.5780 -0.1169  0.5192
  519SOL     OW 1555   0.760   1.379   2.927  0.0175  0.3473  0.2645
  519SOL    HW1 1556   0.845   1.330   2.947 -3.1600 -0.4938  1.5523
  519SOL    HW2 1557   0.784   1.478   2.899  1.8778 -0.2875  0.1574
  520SOL     OW 1558   2.882   2.319   2.077 -0.5444 -0.6032 -0.4129
  520SOL    HW1 1559   2.873   2.226   2.118  1.0364  0.4770 -1.7349
  520SOL    HW2 1560   2.976   2.355   2.087 -3.4000  2.6127 -0.8368
  521SOL     OW 1561   0.545   2.106   2.272 -0.7404  0.2839 -0.2544
  521SOL    HW1 1562   0.644   2.078   2.266 -0.0825 -0.4896  1.7633
  521SOL    HW2 1563   0.507   2.099   2.175 -1.0524  2.0737 -1.8925
  522SOL     OW 1564   1.981   2.834   1.832  0.2062 -0.2869 -0.4143
  522SOL    HW1 1565   2.080   2.850   1.851 -3.8275  0.3010  2.0012
  522SOL    HW2 1566   1.921   2.881   1.901  0.0250  0.6580  0.9953
  523SOL     OW 1567   2.009   1.970   1.802 -0.0177  0.2863  0.3798
  523SOL    HW1 1568   2.063   1.978   1.890  0.5922  1.4155  0.0434
  523SOL    HW2 1569   1.954   1.883   1.808 -0.2256 -0.2100  0.1448
  524SOL     OW 1570   0.636   2.681   0.407 -0.2196  0.1937  0.2265
  524SOL    HW1 1571   0.556   2.700   0.350  2.4766  0.2235 -0.1707
  524SOL    HW2 1572   0.612   2.611   0.483 -1.9572 -2.6663  3.0084
  525SOL     OW 1573   0.129   0.643   0.197 -0.5111 -0.1990  0.6167
  525SOL    HW1 1574   0.048   0.587   0.171 -0.8066 -0.8305 -0.5498
  525SOL    HW2 1575   0.215   0.591   0.177  3.7989 -0.8446  0.7415
  526SOL     OW 1576   0.811   0.089   0.617 -0.0417 -0.0144 -0.4863
  526SOL    HW1 1577   0.727   0.035   0.603 -2.2725 -0.3347  0.3172
  526SOL    HW2 1578   0.821   0.109   0.719  0.3479  1.3023  0.5920
  527SOL     OW 1579   1.921   1.778   1.176  0.2787 -0.2648  0.1874
  527SOL    HW1 1580   1.962   1.707   1.235 -0.9051 -1.2272 -1.1290
  527SOL    HW2 1581   1.824   1.763   1.172  2.9409  0.8980 -0.0389
  528SOL     OW 1582   2.799   2.572   2.286  0.2198  0.2248  0.4016
  528SOL    HW1 1583   2.750   2.528   2.211 -0.7219 -0.2570  1.3853
  528SOL    HW2 1584   2.892   2.607   2.260  1.5796 -0.0637 -0.5359
  529SOL     OW 1585   1.130   1.676   2.242 -0.0306  0.6488 -0.1016
  529SOL    HW1 1586   1.157   1.760   2.192  1.0516 -0.8253  1.0505
  529SOL    HW2 1587   1.052   1.701   2.302  2.3728  0.5654  1.3557
  530SOL     OW 1588   1.365   1.128   0.188 -0.1733 -1.0827 -0.2781
  530SOL    HW1 1589   1.422   1.122   0.273 -1.0143 -2.8441  0.6061
  530SOL    HW2 1590   1.423   1.159   0.111  0.0388  1.2965  2.3546
  531SOL     OW 1591   0.261   1.202   3.076 -0.2631  1.1587 -0.5956
  531SOL    HW1 1592   0.332   1.166   3.020 -0.7906  0.8059  2.1390
  531SOL    HW2 1593   0.174   1.195   3.028  0.1360  0.6712  0.4819
  532SOL     OW 1594   1.723   1.352   0.804  0.2270  0.0917 -0.3716
  532SOL    HW1 1595   1.809   1.328   0.858  1.6631  1.6309 -1.0070
  532SOL    HW2 1596   1.701   1.450   0.813 -1.0317  1.9152 -1.0198
  533SOL     OW 1597   0.655   0.093   2.484 -0.3114  0.4137 -0.4341
  533SOL    HW1 1598   0.591   0.150   2.428  0.2100 -0.1426  1.4365
  533SOL    HW2 1599   0.749   0.117   2.449  2.9070  0.7635  0.0735
  534SOL     OW 1600   0.954   2.701   2.890  0.3044  0.4314  0.3998
  534SOL    HW1 1601   0.857   2.737   2.885  1.7994  0.0415 -0.1069
  534SOL    HW2 1602   1.016   2.755   2.954  0.6618  1.0169  0.1265
  535SOL     OW 1603   0.302   0.081   0.230  0.0225 -0.3792 -0.0032
  535SOL    HW1 1604   0.222   0.146   0.238 -0.2223 -0.2560  1.0596
  535SOL    HW2 1605   0.282   0.022   0.151  1.8982  1.1951 -0.6638
  536SOL     OW 1606   0.108   0.800   2.287 -0.4625 -0.0287  0.1518
  536SOL    HW1 1607   0.128   0.892   2.247 -2.0059  1.1793 -1.0654
  536SOL    HW2 1608   0.157   0.721   2.244  0.7848 -1.0760 -2.1589
  537SOL     OW 1609   1.146   0.127   1.333 -0.1167 -0.0614 -0.0018
  537SOL    HW1 1610   1.092   0.064   1.277  1.0525  1.4265  1.3252
  537SOL    HW2 1611   1.159   0.221   1.289 -0.4688 -0.9727  1.6722
  538SOL     OW 1612   0.795   1.978   0.327  0.4961 -0.3676 -0.0090
  538SOL    HW1 1613   0.899   1.976   0.313  3.3229  0.4656 -2.7304
  538SOL    HW2 1614   0.753   1.926   0.250  0.4424 -1.2612  1.5698
  539SOL     OW 1615   2.509   1.186   1.981 -0.0817  0.8857 -0.5319
  539SOL    HW1 1616   2.480   1.175   1.883 -0.9874  1.6327 -0.2363
  539SOL    HW2 1617   2.437   1.185   2.053 -2.2431 -1.2994 -0.3923
  540SOL     OW 1618   2.127   1.563   1.976  0.2562  0.7754 -0.1329
  540SOL    HW1 1619   2.037   1.518   1.990  1.5260  0.9228 -0.2263
  540SOL    HW2 1620   2.132   1.640   2.036 -3.1421 -0.9333 -1.4096
  541SOL     OW 1621   0.632   1.421   1.433 -0.1128 -0.6067 -0.2750
  541SOL    HW1 1622   0.703   1.357   1.458 -2.1170 -1.1806 -1.6249
  541SOL    HW2 1623   0.596   1.402   1.339  1.6481  2.2331 -1.2166
  542SOL     OW 1624   1.490   0.514   2.123 -0.7261 -0.1052  0.2861
  542SOL    HW1 1625   1.579   0.471   2.155 -1.4560  0.8507  1.5573
  542SOL    HW2 1626   1.486   0.515   2.017 -0.5642 -0.6589 -2.7589
  543SOL     OW 1627   1.041   0.592   0.401  0.5146  0.4261 -0.6487
  543SOL    HW1 1628   1.075   0.498   0.393 -1.4821  0.8266  0.9776
  543SOL    HW2 1629   0.943   0.588   0.429  0.5517 -1.8647  0.1707
  544SOL     OW 1630   2.708   1.844   2.132 -0.1058 -0.6076 -0.4821
  544SOL    HW1 1631   2.651   1.800   2.063  0.6026  1.8055 -0.4179
  544SOL    HW2 1632   2.654   1.842   2.220 -0.9820 -0.7138  5.1346
  545SOL     OW 1633   1.801   2.137   1.748  0.2757  0.1182 -0.1754
  545SOL    HW1 1634   1.879   2.085   1.788 -1.2251 -2.4099  0.0235
  545SOL    HW2 1635   1.785   2.226   1.789 -0.8469  0.4697 -2.1028
  546SOL     OW 1636   0.330   3.009   3.072  0.2249 -0.1048 -0.6820
  546SOL    HW1 1637   0.239   3.021   3.032  4.8821  2.6242  0.2975
  546SOL    HW2 1638   0.367   2.912   3.054  3.0260 -2.9559  0.5593
  547SOL     OW 1639   2.216   1.055   0.299 -1.2065 -0.1272 -0.1716
  547SOL    HW1 1640   2.122   1.035   0.265  0.0866  1.2213  2.5291
  547SOL    HW2 1641   2.250   1.142   0.256 -0.2877  1.5000 -2.0568
  548SOL     OW 1642   2.241   1.706   2.646 -0.3932  0.5502  0.0721
  548SOL    HW1 1643   2.149   1.675   2.681 -0.7773 -0.5761  0.8092
  548SOL    HW2 1644   2.313   1.637   2.668  2.4256  1.4383  1.2485
  549SOL     OW 1645   2.006   0.494   0.651 -0.5640  0.2238  0.5466
  549SOL    HW1 1646   2.022   0.426   0.577 -0.7589  0.7998 -2.4288
  549SOL    HW2 1647   1.914   0.535   0.649  1.9685 -1.4330  0.3057
  550SOL     OW 1648   2.438   2.195   0.826  0.2183  0.1511  0.6142
  550SOL    HW1 1649   2.481   2.110   0.862  0.3902 -0.0411  2.5189
  550SOL    HW2 1650   2.449   2.197   0.725 -1.2064  1.2985  0.8920
  551SOL     OW 1651   0.955   0.269   1.527 -0.5682  0.5835  0.6199
  551SOL    HW1 1652   0.989   0.215   1.448  2.7646 -2.2529  3.2269
  551SOL    HW2 1653   0.931   0.365   1.494  0.2179  0.5764  0.3912
  552SOL     OW 1654   0.203   2.502   2.580  1.3428 -0.3296 -0.0545
  552SOL    HW1 1655   0.169   2.513   2.679  0.5962 -0.3656  2.0842
  552SOL    HW2 1656   0.190   2.400   2.551 -0.3926 -2.7688 -4.0785
  553SOL     OW 1657   0.600   3.026   0.589  0.1147  0.0953  0.1119
  553SOL    HW1 1658   0.559   3.006   0.496 -0.3382  0.7525 -0.0288
  553SOL    HW2 1659   0.522   3.022   0.660  2.4726  0.9276 -0.4817
  554SOL     OW 1660   2.172   2.244   1.694 -0.6741 -0.6052 -0.5247
  554SOL    HW1 1661   2.180   2.142   1.704 -0.8810  0.5614  0.8449
  554SOL    HW2 1662   2.129   2.266   1.601  2.0960 -0.1171  0.1656
  555SOL     OW 1663   1.313   2.190   1.727 -0.5129  0.2461 -0.2853
  555SOL    HW1 1664   1.284   2.133   1.647  2.1063 -0.8905 -2.0243
  555SOL    HW2 1665   1.369   2.128   1.792  1.3500 -0.0748  0.0281
  556SOL     OW 1666   1.351   1.601   1.273 -0.0214  0.2023 -0.2882
  556SOL    HW1 1667   1.294   1.631   1.199  2.7342 -0.5015  2.7916
  556SOL    HW2 1668   1.444   1.591   1.236  0.3636  1.1379 -0.8462
  557SOL     OW 1669   1.879   2.178   2.157  0.0509  0.5490  0.4880
  557SOL    HW1 1670   1.942   2.141   2.086  1.5383 -1.0171 -1.6618
  557SOL    HW2 1671   1.933   2.222   2.228 -1.1528 -2.2784 -0.5390
  558SOL     OW 1672   0.330   0.328   1.997  0.1982 -0.5127  0.7336
  558SOL    HW1 1673   0.306   0.275   2.079 -0.1912  2.5326  0.9183
  558SOL    HW2 1674   0.307   0.429   2.004  1.6197  0.5348 -0.6243
  559SOL     OW 1675   2.314   2.947   1.244 -0.2521 -0.0110 -0.2516
  559SOL    HW1 1676   2.392   2.989   1.298 -0.3565 -0.8507 -0.4207
  559SOL    HW2 1677   2.234   2.952   1.305  1.0699  0.3460 -1.0490
  560SOL     OW 1678   0.846   2.314   0.448 -0.4227 -0.5293 -0.1076
  560SOL    HW1 1679   0.890   2.402   0.420 -3.0658 -0.8246 -0.3278
  560SOL    HW2 1680   0.750   2.329   0.474 -2.5659  0.9095 -1.4055
  561SOL     OW 1681   1.101   0.430   0.155 -0.0188  0.0329 -0.5399
  561SOL    HW1 1682   1.150   0.428   0.068 -1.4606  0.3512 -0.1714
  561SOL    HW2 1683   1.167   0.415   0.232 -0.5592 -0.3320  0.1013
  562SOL     OW 1684   0.805   0.322   2.849 -0.3006 -0.1049  0.1372
  562SOL    HW1 1685   0.799   0.219   2.831 -0.8397 -3.0389  0.9688
  562SOL    HW2 1686   0.840   0.370   2.765 -0.8211  2.2758 -0.8466
  563SOL     OW 1687   1.527   1.846   2.806 -0.3422 -0.4403  0.0265
  563SOL    HW1 1688   1.615   1.880   2.838 -2.6675 -4.1316 -1.3513
  563SOL    HW2 1689   1.529   1.817   2.705 -0.3496 -0.4099 -0.7480
  564SOL     OW 1690   2.722   0.922   0.597  0.1793  0.1236  0.4492
  564SOL    HW1 1691   2.708   0.829   0.636  1.4287 -0.6389  0.5696
  564SOL    HW2 1692   2.801   0.966   0.640 -0.0720 -1.7361  1.3346
  565SOL     OW 1693   1.458   0.290   2.692 -0.1258 -0.4387 -0.5832
  565SOL    HW1 1694   1.428   0.258   2.785  0.8800  1.3043 -3.1061
  565SOL    HW2 1695   1.393   0.362   2.649  0.6938  2.0988 -2.6072
  566SOL     OW 1696   1.182   0.213   2.147  0.0223 -0.2464  0.4177
  566SOL    HW1 1697   1.114   0.150   2.189  0.1504 -1.8248  0.4069
  566SOL    HW2 1698   1.226   0.177   2.058  3.6252  1.5198 -1.8929
  567SOL     OW 1699   2.680   1.267   0.780  0.2398  0.0640 -0.0760
  567SOL    HW1 1700   2.687   1.185   0.837  1.6736  0.2729 -0.0594
  567SOL    HW2 1701   2.757   1.276   0.715 -0.3122 -0.4852 -1.5442
  568SOL     OW 1702   1.821   1.980   0.576  0.0705 -0.0472  0.2165
  568SOL    HW1 1703   1.887   1.985   0.498  0.6707 -0.9707  0.7739
  568SOL    HW2 1704   1.744   1.913   0.560  1.7390 -1.7961  2.6098
  569SOL     OW 1705   2.231   1.541   2.964 -0.0305  0.4648  0.2642
  569SOL    HW1 1706   2.155   1.503   2.908  0.8362  0.0162  1.1615
  569SOL    HW2 1707   2.316   1.543   2.906  0.2376 -0.9862  3.1295
  570SOL     OW 1708   0.197   2.810   1.717 -0.2170 -0.0674  0.1704
  570SOL    HW1 1709   0.269   2.874   1.757  0.0485  1.6317 -2.0973
  570SOL    HW2 1710   0.125   2.870   1.674 -1.3955  3.0124 -0.2806
  571SOL     OW 1711   0.159   0.274   2.438 -0.1058  0.6201  0.4696
  571SOL    HW1 1712   0.077   0.310   2.386  2.0077  2.4164  1.8148
  571SOL    HW2 1713   0.221   0.353   2.450 -1.8111 -2.8017  0.0911
  572SOL     OW 1714   0.685   1.502   0.589 -0.1616  0.1261  0.0661
  572SOL    HW1 1715   0.601   1.473   0.537 -1.8153  3.9952  0.0593
  572SOL    HW2 1716   0.659   1.580   0.646 -0.0826  0.9805  0.2865
  573SOL     OW 1717   1.298   2.500   0.144  0.0732  0.1575  0.4118
  573SOL    HW1 1718   1.309   2.581   0.082 -2.9862 -0.0585 -3.1121
  573SOL    HW2 1719   1.312   2.528   0.238 -0.8430  0.3640 -3.9129
  574SOL     OW 1720   0.824   0.136   0.892 -0.6322 -0.1188 -0.4081
  574SOL    HW1 1721   0.857   0.225   0.935 -0.1316  1.0193 -1.1747
  574SOL    HW2 1722   0.876   0.053   0.923 -2.6420  1.8822 -0.7087
  575SOL     OW 1723   3.075   0.750   1.598  0.2986 -0.0075 -0.2091
  575SOL    HW1 1724   2.986   0.767   1.550 -1.5861 -0.3218  3.0436
  575SOL    HW2 1725   0.003   0.800   1.687  0.4955 -0.5806  0.7561
  576SOL     OW 1726   1.659   3.069   1.515  0.0638  0.3241 -0.0455
  576SOL    HW1 1727   1.746   3.045   1.468 -1.4609  0.8240 -0.3632
  576SOL    HW2 1728   1.580   0.001   1.456 -1.1555 -1.2821  1.0918
  577SOL     OW 1729   3.007   1.165   2.028  0.5017  0.0891  0.5628
  577SOL    HW1 1730   2.997   1.079   2.080  1.4577  3.0869 -0.8362
  577SOL    HW2 1731   0.021   1.178   1.999 -2.2678 -1.5759  3.0627
  578SOL     OW 1732   1.795   0.015   2.511  0.5198  0.5230 -0.1362
  578SOL    HW1 1733   1.773   0.103   2.555 -1.6600 -1.6112  0.0049
  578SOL    HW2 1734   1.713   3.045   2.474 -3.5245 -3.0011 -0.7915
  579SOL     OW 1735   2.085   2.048   2.054  0.3844 -0.1356  0.1880
  579SOL    HW1 1736   2.178   2.080   2.026 -2.4985  0.4969  3.9993
  579SOL    HW2 1737   2.085   2.048   2.155  2.3239 -3.9441 -1.5206
  580SOL     OW 1738   2.025   1.567   2.760  0.5244 -0.4516 -0.7394
  580SOL    HW1 1739   1.927   1.576   2.788  2.2218  0.6213 -2.4960
  580SOL    HW2 1740   2.041   1.488   2.697  2.4874 -3.6224 -1.1243
  581SOL     OW 1741   1.376   1.096   2.782 -0.1009 -0.1553 -1.0863
  581SOL    HW1 1742   1.442   1.170   2.808 -0.7931 -1.2282  1.2234
  581SOL    HW2 1743   1.432   1.020   2.745  1.9616  1.5848 -2.2307
  582SOL     OW 1744   0.792   2.142   1.390 -0.0176  0.7072 -0.2479
  582SOL    HW1 1745   0.715   2.208   1.384 -0.6666 -0.7926 -2.6489
  582SOL    HW2 1746   0.769   2.058   1.446 -1.2258  0.0847  0.3525
  583SOL     OW 1747   1.238   1.137   1.162  0.1765  0.4873 -0.6916
  583SOL    HW1 1748   1.279   1.063   1.107 -0.3028 -0.9021 -1.7382
  583SOL    HW2 1749   1.284   1.220   1.122 -1.9668 -0.9997 -0.4495
  584SOL     OW 1750   1.538   2.462   0.589  0.0190  0.1689 -0.0023
  584SOL    HW1 1751   1.572   2.368   0.570  0.8004  0.2201 -1.0231
  584SOL    HW2 1752   1.562   2.492   0.682 -0.8420  1.0048 -0.3393
  585SOL     OW 1753   2.309   2.588   3.025  0.4799 -0.3017 -0.0564
  585SOL    HW1 1754   2.356   2.578   2.936  0.1087  0.0161  1.3761
  585SOL    HW2 1755   2.215   2.629   3.003 -0.6803  0.7002  1.4399
  586SOL     OW 1756   2.746   2.064   0.840  0.3031 -0.7520  0.0735
  586SOL    HW1 1757   2.691   2.002   0.781  1.6515 -1.7425  0.2553
  586SOL    HW2 1758   2.747   2.166   0.809  1.5652  4.1210 -1.4380
  587SOL     OW 1759   1.172   1.658   0.012 -0.2853 -0.3127  0.0161
  587SOL    HW1 1760   1.187   1.680   2.992  1.1119  0.9861 -2.3997
  587SOL    HW2 1761   1.138   1.565   0.027 -2.2957 -0.0075  2.5336
  588SOL     OW 1762   0.470   0.195   1.140  0.1246 -0.2689 -0.0311
  588SOL    HW1 1763   0.521   0.261   1.197  0.7646  0.3762  2.5346
  588SOL    HW2 1764   0.367   0.198   1.157  0.7676  1.0078  0.7314
  589SOL     OW 1765   0.925   0.496   0.762  0.3122  0.4088 -0.1559
  589SOL    HW1 1766   0.897   0.503   0.663 -2.9695  0.0142  0.5852
  589SOL    HW2 1767   0.999   0.427   0.771  1.7218 -0.7269 -0.4081
  590SOL     OW 1768   2.201   2.360   0.082 -0.1778 -0.3665 -0.5539
  590SOL    HW1 1769   2.199   2.342   0.181  1.9995 -2.2624 -1.1295
  590SOL    HW2 1770   2.201   2.459   0.057  0.9102 -1.4945  0.9976
  591SOL     OW 1771   0.352   2.672   2.184  0.1649 -0.5551  0.2069
  591SOL    HW1 1772   0.363   2.762   2.139  0.0586 -1.4687 -0.3117
  591SOL    HW2 1773   0.424   2.612   2.148 -2.8753  2.2720 -0.4419
  592SOL     OW 1774   3.020   1.408   2.126  0.1864  0.5934  0.1749
  592SOL    HW1 1775   3.020   1.308   2.089  0.2398 -1.6054 -0.5231
  592SOL    HW2 1776   0.020   1.433   2.185  1.6166 -2.3432 -0.3871
  593SOL     OW 1777   1.808   1.441   1.212 -0.3775  0.3136  0.0440
  593SOL    HW1 1778   1.872   1.511   1.249  0.3058  2.6919 -1.3459
  593SOL    HW2 1779   1.774   1.377   1.286 -0.9542 -0.4401  1.3922
  594SOL     OW 1780   2.766   1.332   2.787 -0.5345 -0.3460  0.1327
  594SOL    HW1 1781   2.729   1.371   2.875 -0.7012  1.4170  0.3132
  594SOL    HW2 1782   2.803   1.244   2.808 -0.5784  0.7903 -1.8984
  595SOL     OW 1783   0.683   1.127   0.517 -0.0643 -0.6318 -0.6801
  595SOL    HW1 1784   0.583   1.134   0.489  0.6550 -2.6726 -4.2516
  595SOL    HW2 1785   0.740   1.123   0.431  2.1645  3.2089 -0.9451
  596SOL     OW 1786   3.025   1.190   1.260  0.1887  0.5988  0.0644
  596SOL    HW1 1787   2.951   1.219   1.200  1.4065  1.1566  0.3202
  596SOL    HW2 1788   0.034   1.228   1.227 -0.0588  0.8090 -0.1293
  597SOL     OW 1789   1.000   2.282   1.496 -0.2402 -0.3646  0.1082
  597SOL    HW1 1790   0.921   2.224   1.465 -0.1720  1.5561  2.8862
  597SOL    HW2 1791   1.065   2.223   1.546 -0.4736 -0.6780  1.3665
  598SOL     OW 1792   2.391   2.383   1.775  0.9295  0.5266 -0.1771
  598SOL    HW1 1793   2.300   2.338   1.766 -0.1507  1.9630  0.7339
  598SOL    HW2 1794   2.453   2.375   1.699 -0.5825  0.2988 -0.0638
  599SOL     OW 1795   0.571   1.451   0.036  0.8363 -0.0274 -0.4592
  599SOL    HW1 1796   0.630   1.412   3.044 -2.3411  0.5294 -1.0021
  599SOL    HW2 1797   0.603   1.415   0.129 -0.9907  1.3338  0.1241
  600SOL     OW 1798   0.704   0.624   0.028  0.2718  0.3668  0.5251
  600SOL    HW1 1799   0.751   0.534   0.044 -2.6575 -0.9845 -1.0342
  600SOL    HW2 1800   0.671   0.666   0.112  2.6226 -1.8672  2.5861
  601SOL     OW 1801   0.561   0.635   1.877 -1.1185  0.2328  0.2240
  601SOL    HW1 1802   0.546   0.724   1.834 -2.7369 -0.0881  0.0235
  601SOL    HW2 1803   0.557   0.643   1.976 -1.1240  0.9890 -2.8661
  602SOL     OW 1804   0.365   2.463   0.433 -0.2609 -0.0584  0.5088
  602SOL    HW1 1805   0.302   2.482   0.507  2.3680 -1.3371 -0.2567
  602SOL    HW2 1806   0.327   2.483   0.341 -0.9008  0.5810  2.1243
  603SOL     OW 1807   1.174   2.786   1.983  0.1110 -0.3985 -1.0432
  603SOL    HW1 1808   1.142   2.768   1.888 -0.3518 -0.3797 -0.8032
  603SOL    HW2 1809   1.149   2.709   2.047 -0.3050 -0.3212  0.5768
  604SOL     OW 1810   0.352   2.221   2.814  0.0748 -0.2525 -0.7668
  604SOL    HW1 1811   0.400   2.138   2.786 -0.1289  1.6855  0.6135
  604SOL    HW2 1812   0.267   2.202   2.870  3.3030 -1.3976 -0.6825
  605SOL     OW 1813   2.168   0.934   1.771  0.3614 -0.0936 -0.2417
  605SOL    HW1 1814   2.130   0.912   1.678 -0.8485 -0.3238  3.3970
  605SOL    HW2 1815   2.201   1.029   1.777 -2.1214 -0.9586 -2.2390
  606SOL     OW 1816   0.704   0.849   2.878 -0.4151  0.3472 -0.1882
  606SOL    HW1 1817   0.797   0.885   2.849 -2.0588 -1.5963  0.4758
  606SOL    HW2 1818   0.705   0.751   2.900 -0.3509  0.9061  3.3466
  607SOL     OW 1819   1.009   0.785   1.166  0.0762 -0.0049 -0.0657
  607SOL    HW1 1820   1.073   0.796   1.245 -0.3867 -0.6338 -1.4435
  607SOL    HW2 1821   0.942   0.858   1.171  0.2967  1.4559 -0.0629
  608SOL     OW 1822   2.836   1.939   1.831  0.4240 -0.6131 -0.0033
  608SOL    HW1 1823   2.789   2.002   1.893  0.2738 -1.3132  0.1064
  608SOL    HW2 1824   2.775   1.923   1.747 -0.7019 -0.4947  2.1674
  609SOL     OW 1825   2.332   0.177   0.192 -0.2698 -0.0968 -0.2851
  609SOL    HW1 1826   2.379   0.220   0.110  1.9707 -0.7441 -0.4834
  609SOL    HW2 1827   2.296   0.085   0.170 -1.7627  0.5695  2.1911
  610SOL     OW 1828   2.781   2.697   1.434 -0.0785  0.2475  0.0558
  610SOL    HW1 1829   2.709   2.668   1.370  1.5652  2.0481 -0.5000
  610SOL    HW2 1830   2.874   2.677   1.398 -2.6026 -1.2178  1.2879
  611SOL     OW 1831   1.721   2.251   0.315 -0.1378  0.2002  0.7186
  611SOL    HW1 1832   1.753   2.162   0.273 -0.6736  2.5063  1.2636
  611SOL    HW2 1833   1.709   2.241   0.418  1.0206  0.2027  0.2083
  612SOL     OW 1834   0.632   3.057   1.775  0.2780  0.4553  0.0844
  612SOL    HW1 1835   0.593   3.041   1.685  2.2061  1.8011  2.0466
  612SOL    HW2 1836   0.701   0.050   1.779 -2.2396 -1.9355  0.7031
  613SOL     OW 1837   0.140   1.909   0.680  0.5491  0.3937  0.0485
  613SOL    HW1 1838   0.125   1.998   0.628 -0.8114 -2.5103 -0.5506
  613SOL    HW2 1839   0.066   1.887   0.745  2.1885  0.3440  1.4462
  614SOL     OW 1840   1.648   0.359   1.716 -0.0320 -0.2550  0.0226
  614SOL    HW1 1841   1.731   0.400   1.688 -4.6297  0.5789  3.4677
  614SOL    HW2 1842   1.663   0.305   1.799  0.0554 -2.5429 -0.0230
  615SOL     OW 1843   1.189   1.465   0.987  0.5743  0.5806  0.4465
  615SOL    HW1 1844   1.229   1.560   0.985 -0.8445 -0.2218 -1.4401
  615SOL    HW2 1845   1.266   1.401   0.991  4.8514 -0.7757 -2.3019
  616SOL     OW 1846   1.971   1.651   0.458  0.2677  0.5068 -0.4732
  616SOL    HW1 1847   1.929   1.736   0.415  1.4984  1.5567 -2.7519
  616SOL    HW2 1848   1.915   1.567   0.458 -0.1740 -2.2837 -1.9330
  617SOL     OW 1849   1.525   0.814   0.076 -0.1073 -0.0142 -0.3653
  617SOL    HW1 1850   1.504   0.771   0.162 -0.7143 -1.1207 -1.3989
  617SOL    HW2 1851   1.586   0.895   0.091  0.5319  0.0895  0.4904
  618SOL     OW 1852   0.517   0.800   2.356 -0.2413 -0.4456  0.5056
  618SOL    HW1 1853   0.555   0.736   2.284  2.5498 -2.5086 -1.2522
  618SOL    HW2 1854   0.544   0.894   2.335  1.7248 -2.1115 -0.6116
  619SOL     OW 1855   2.930   1.569   1.291 -0.2210  0.0703  0.4396
  619SOL    HW1 1856   3.028   1.540   1.302  1.2848  0.2030  0.8584
  619SOL    HW2 1857   2.919   1.609   1.197 -1.6379 -0.2217  0.9640
  620SOL     OW 1858   2.148   2.619   2.655  0.3884 -0.2511  0.2098
  620SOL    HW1 1859   2.241   2.609   2.698  1.6465 -1.0691  0.1332
  620SOL    HW2 1860   2.102   2.708   2.690 -1.0705 -0.5138 -0.3577
  621SOL     OW 1861   2.965   1.926   3.052 -0.4157  0.3132  0.5663
  621SOL    HW1 1862   2.925   1.833   3.045 -1.0410  0.4835 -2.4538
  621SOL    HW2 1863   3.044   1.933   0.037  1.3474  0.5979 -0.1114
  622SOL     OW 1864   1.499   0.216   2.175  0.2317 -0.0711  0.3261
  622SOL    HW1 1865   1.486   0.201   2.278 -0.9068  2.2375 -0.5363
  622SOL    HW2 1866   1.441   0.294   2.152  0.2671  1.3647 -0.4398
  623SOL     OW 1867   0.825   2.344   1.188  0.0881 -0.0343 -0.5901
  623SOL    HW1 1868   0.869   2.294   1.264 -1.3357  0.4498 -2.2550
  623SOL    HW2 1869   0.885   2.417   1.149  2.2842  1.7987 -0.1635
  624SOL     OW 1870   0.180   2.832   2.822 -0.6653 -0.8299  0.3168
  624SOL    HW1 1871   0.117   2.825   2.741 -2.3470 -1.3299  1.1899
  624SOL    HW2 1872   0.223   2.926   2.826  3.7014 -1.3444  0.4868
  625SOL     OW 1873   0.780   1.954   0.598  0.1143 -0.0176 -0.4036
  625SOL    HW1 1874   0.880   1.962   0.604 -1.1114 -1.1194 -1.6917
  625SOL    HW2 1875   0.765   1.945   0.500 -0.0946  0.6744  1.7053
  626SOL     OW 1876   2.727   0.381   2.764  0.2341 -0.3813  0.1598
  626SOL    HW1 1877   2.742   0.335   2.855 -0.5276 -2.4259  1.9555
  626SOL    HW2 1878   2.810   0.370   2.703  2.4270 -1.7316 -2.7533
  627SOL     OW 1879   1.289   1.978   2.905 -0.4983 -0.2557  0.7391
  627SOL    HW1 1880   1.388   1.982   2.871  2.2558  1.1422 -0.0713
  627SOL    HW2 1881   1.231   1.912   2.849  1.6000 -0.6489  0.2690
  628SOL     OW 1882   0.039   2.493   2.813 -0.1253  0.3211 -0.0705
  628SOL    HW1 1883   0.030   2.405   2.768 -0.1809 -0.6564  0.1676
  628SOL    HW2 1884   3.039   2.521   2.869 -2.1682 -1.2499  2.5221
  629SOL     OW 1885   0.953   2.857   2.670  0.1770 -0.1350 -0.0869
  629SOL    HW1 1886   0.970   2.784   2.736 -1.6735 -0.9843 -0.0353
  629SOL    HW2 1887   0.866   2.840   2.622  0.8720  0.7893  0.9543
  630SOL     OW 1888   1.252   0.903   2.055 -0.6383 -0.0737  0.1555
  630SOL    HW1 1889   1.202   0.850   1.984  1.4180 -0.9881  3.4634
  630SOL    HW2 1890   1.244   1.001   2.048 -0.8282 -1.6937 -1.5525
  631SOL     OW 1891   1.951   1.129   0.234  0.3552 -0.4266  0.0738
  631SOL    HW1 1892   1.965   1.132   0.336  3.2201 -1.5374  2.2890
  631SOL    HW2 1893   1.938   1.218   0.184  0.9313 -0.1663  0.9225
  632SOL     OW 1894   2.613   0.447   1.950 -0.3690 -0.3920  0.3777
  632SOL    HW1 1895   2.699   0.498   1.936 -0.7006  0.7204 -0.0938
  632SOL    HW2 1896   2.635   0.344   1.939  0.2371 -1.5716  0.5456
  633SOL     OW 1897   0.909   1.650   0.112 -0.3205  0.0030 -0.1083
  633SOL    HW1 1898   1.005   1.654   0.085 -0.7758  3.0311 -0.7961
  633SOL    HW2 1899   0.901   1.623   0.213  1.7622 -0.0033 -2.2349
  634SOL     OW 1900   2.351   2.609   2.356  0.4152  0.4259  0.0271
  634SOL    HW1 1901   2.346   2.508   2.351 -1.6179  3.2054  0.8782
  634SOL    HW2 1902   2.270   2.652   2.308  0.1523  0.3459  1.7911
  635SOL     OW 1903   1.789   0.644   0.289  0.4518 -0.7607  0.0595
  635SOL    HW1 1904   1.776   0.592   0.373  0.4005 -2.9298 -1.3860
  635SOL    HW2 1905   1.771   0.745   0.303  0.9482  1.0436 -1.4375
  636SOL     OW 1906   0.573   1.338   0.828  0.6391 -0.1836 -0.2639
  636SOL    HW1 1907   0.486   1.327   0.776 -1.6929  0.6543  1.8918
  636SOL    HW2 1908   0.645   1.378   0.766  1.2806 -1.1354 -1.3612
  637SOL     OW 1909   2.862   2.288   0.219 -0.0291 -0.4744 -0.2895
  637SOL    HW1 1910   2.868   2.205   0.280 -0.9250  3.0203 -1.8549
  637SOL    HW2 1911   2.784   2.345   0.251  2.2699  1.4948  1.9097
  638SOL     OW 1912   1.387   2.570   2.371 -0.8401 -0.9574 -0.3101
  638SOL    HW1 1913   1.458   2.566   2.295  0.0838  1.2267 -1.5891
  638SOL    HW2 1914   1.323   2.492   2.377  0.2722  3.3208  0.4121
  639SOL     OW 1915   1.447   2.011   0.331 -0.2546 -0.1936 -0.0958
  639SOL    HW1 1916   1.426   2.110   0.313 -0.6425  2.2429  0.5657
  639SOL    HW2 1917   1.392   1.969   0.402  2.4374  0.9760 -0.8426
  640SOL     OW 1918   2.019   0.297   0.464  0.2824  0.3541  0.4350
  640SOL    HW1 1919   2.071   0.215   0.485 -0.0696 -1.7388 -1.1106
  640SOL    HW2 1920   2.069   0.362   0.399 -0.3763  1.0797 -2.7694
  641SOL     OW 1921   2.845   2.960   0.396 -0.3021  0.2449 -0.1087
  641SOL    HW1 1922   2.849   2.989   0.495 -1.1824  0.5700 -0.7218
  641SOL    HW2 1923   2.869   3.040   0.336 -1.4185  0.8693  0.6133
  642SOL     OW 1924   0.573   0.235   1.616 -0.1527 -0.4150  0.0385
  642SOL    HW1 1925   0.638   0.273   1.690  4.1747 -0.3505  1.7373
  642SOL    HW2 1926   0.475   0.222   1.656 -0.9034  0.4912  1.3389
  643SOL     OW 1927   0.539   1.283   2.342 -0.0687  0.5368  0.5511
  643SOL    HW1 1928   0.598   1.280   2.428  0.9528  0.9136  1.2715
  643SOL    HW2 1929   0.474   1.365   2.346 -0.7122 -1.6790  2.7141
  644SOL     OW 1930   1.362   2.557   0.408 -0.3680  1.0218 -0.4611
  644SOL    HW1 1931   1.328   2.655   0.407  1.5670 -0.9225 -2.5093
  644SOL    HW2 1932   1.426   2.529   0.482 -0.5912  1.0427  1.2165
  645SOL     OW 1933   1.773   1.993   0.158 -0.7316 -0.2925  0.1996
  645SOL    HW1 1934   1.798   2.030   0.065 -0.4739  0.8374 -0.3457
  645SOL    HW2 1935   1.680   1.955   0.146 -1.2001  0.9456 -0.6303
  646SOL     OW 1936   0.078   1.437   2.774 -0.8268 -0.4590  0.4713
  646SOL    HW1 1937   0.169   1.408   2.745  0.1568 -1.6412 -0.9708
  646SOL    HW2 1938   0.017   1.449   2.692 -2.3452 -1.5425 -0.1856
  647SOL     OW 1939   0.958   0.333   1.010  0.6501 -0.4158 -0.1418
  647SOL    HW1 1940   0.935   0.432   1.035  0.8657  1.4599 -1.1157
  647SOL    HW2 1941   1.006   0.289   1.085 -2.5049 -0.9012 -3.8740
  648SOL     OW 1942   1.566   0.645   1.245  0.0383 -0.2004  0.7972
  648SOL    HW1 1943   1.563   0.676   1.147 -3.7333  1.2512 -0.7762
  648SOL    HW2 1944   1.649   0.679   1.293  1.4980  0.5091 -1.9413
  649SOL     OW 1945   1.240   1.770   0.273  0.5890 -0.1653  0.0886
  649SOL    HW1 1946   1.182   1.850   0.285  3.0425 -1.2717  1.1808
  649SOL    HW2 1947   1.242   1.737   0.177 -1.5477  1.8616  2.1291
  650SOL     OW 1948   2.756   1.417   2.219  0.1060  0.5739 -0.1938
  650SOL    HW1 1949   2.717   1.503   2.258 -1.1371  1.7143  1.0939
  650SOL    HW2 1950   2.854   1.435   2.198 -2.3782  2.3855  0.4524
  651SOL     OW 1951   1.361   2.238   2.624 -0.0455  0.1618 -0.2426
  651SOL    HW1 1952   1.300   2.246   2.706 -4.2499  4.8696 -0.9757
  651SOL    HW2 1953   1.302   2.246   2.538 -1.8276  1.3079 -1.6614
  652SOL     OW 1954   2.640   1.783   0.261  0.0513 -0.6791  0.4283
  652SOL    HW1 1955   2.623   1.710   0.195 -0.1130  1.5258  1.9934
  652SOL    HW2 1956   2.603   1.873   0.224  0.8768  0.6104  1.2096
  653SOL     OW 1957   0.165   0.006   1.013  0.0671 -0.1862  0.2692
  653SOL    HW1 1958   0.244   3.049   0.962  0.5212  1.0365  1.5932
  653SOL    HW2 1959   0.196   0.061   1.092 -1.0111  0.4373  0.8584
  654SOL     OW 1960   2.281   0.255   2.333 -0.3118  0.2513 -0.5946
  654SOL    HW1 1961   2.293   0.156   2.353  0.7549 -1.5204 -1.6885
  654SOL    HW2 1962   2.199   0.268   2.273  0.9057  2.0877 -1.9457
  655SOL     OW 1963   0.372   2.866   0.942 -0.0540 -0.1961 -0.0310
  655SOL    HW1 1964   0.451   2.800   0.922 -0.8597 -1.3918  0.1006
  655SOL    HW2 1965   0.382   2.941   0.871 -1.4460  0.7972  0.6243
  656SOL     OW 1966   3.053   2.943   2.278  0.0985 -0.4249 -0.4238
  656SOL    HW1 1967   2.977   2.976   2.219 -0.0832 -0.7015 -1.3538
  656SOL    HW2 1968   3.080   3.011   2.352  1.3008  0.7198  0.0330
  657SOL     OW 1969   2.434   0.790   2.811 -0.2283 -0.3143  0.6571
  657SOL    HW1 1970   2.456   0.849   2.732  2.0043 -1.8951  0.8954
  657SOL    HW2 1971   2.521   0.736   2.827 -0.2387 -0.0707  0.0288
  658SOL     OW 1972   2.282   1.981   1.023 -0.2555 -0.1666  0.2789
  658SOL    HW1 1973   2.256   1.985   1.117 -1.3271 -2.9218  0.9002
  658SOL    HW2 1974   2.387   1.979   1.009  4.2954  2.4268  0.9347
  659SOL     OW 1975   2.216   2.919   0.385  1.0439  0.3527 -0.2073
  659SOL    HW1 1976   2.132   2.861   0.381  1.1088 -0.0787 -0.0038
  659SOL    HW2 1977   2.287   2.875   0.446  1.8916 -1.9425  2.5593
  660SOL     OW 1978   1.688   1.227   2.669 -0.3602 -0.1958 -0.0428
  660SOL    HW1 1979   1.754   1.291   2.623  1.3554 -0.3798  1.0830
  660SOL    HW2 1980   1.591   1.246   2.640 -0.5401 -2.4689 -0.8005
  661SOL     OW 1981   2.552   2.306   1.562  0.1474  0.3502  0.3255
  661SOL    HW1 1982   2.545   2.325   1.460  1.0167  1.1523  0.0692
  661SOL    HW2 1983   2.634   2.357   1.600  1.1348  0.4239 -1.2820
  662SOL     OW 1984   0.647   0.706   0.273  0.2595 -0.5405  0.5265
  662SOL    HW1 1985   0.562   0.723   0.328  3.3539 -1.2395 -1.6117
  662SOL    HW2 1986   0.719   0.658   0.327  0.0084  0.1176 -0.8750
  663SOL     OW 1987   2.146   2.204   0.934 -0.5004  0.2829 -0.1579
  663SOL    HW1 1988   2.070   2.152   0.891 -0.1646  0.4832  1.2432
  663SOL    HW2 1989   2.214   2.149   0.977  1.8384  1.1204 -1.1680
  664SOL     OW 1990   0.818   1.724   1.190  0.3714 -0.1613 -0.3481
  664SOL    HW1 1991   0.726   1.772   1.183 -3.8909  0.9228 -1.0468
  664SOL    HW2 1992   0.896   1.782   1.232 -0.0612  3.0104  0.2588
  665SOL     OW 1993   1.672   2.320   2.078  0.1010 -0.7084  0.2818
  665SOL    HW1 1994   1.690   2.350   1.978 -0.9807  1.2655  0.1630
  665SOL    HW2 1995   1.754   2.273   2.110  0.7350  2.0172 -1.1530
  666SOL     OW 1996   0.002   2.653   3.053 -0.3264 -0.0388  0.3918
  666SOL    HW1 1997   0.024   2.702   2.962  1.9123  1.7112 -0.9442
  666SOL    HW2 1998   3.033   2.567   3.037  3.2040 -0.6855  1.5672
  667SOL     OW 1999   2.542   1.449   1.863 -0.4451 -0.5131 -0.2873
  667SOL    HW1 2000   2.601   1.371   1.883  0.6158  0.8028 -0.3408
  667SOL    HW2 2001   2.560   1.494   1.771 -2.0504 -0.9868  0.5756
  668SOL     OW 2002   0.472   0.642   2.596 -0.3447  0.4102 -0.2224
  668SOL    HW1 2003   0.498   0.707   2.524  0.9413 -1.1758  2.6952
  668SOL    HW2 2004   0.540   0.644   2.668  0.3148 -2.9099 -1.9637
  669SOL     OW 2005   2.009   2.256   2.973  0.6450 -0.3560  0.3081
  669SOL    HW1 2006   2.050   2.276   2.887 -1.3904 -0.8250  2.0486
  669SOL    HW2 2007   2.079   2.277   3.039 -3.2993 -0.9743  0.2349
  670SOL     OW 2008   2.430   1.549   2.775 -0.8724  0.2297  0.3731
  670SOL    HW1 2009   2.427   1.452   2.809 -0.2165 -2.2949 -0.8755
  670SOL    HW2 2010   2.529   1.574   2.759  0.3091  1.0468 -0.4533
  671SOL     OW 2011   0.269   1.682   0.932  0.3853  0.4049  0.1502
  671SOL    HW1 2012   0.265   1.703   0.830  1.0244  1.4677 -3.0749
  671SOL    HW2 2013   0.190   1.630   0.967  1.7197  2.8170  2.5939
  672SOL     OW 2014   2.559   0.801   2.068  0.0474  0.3196 -0.1459
  672SOL    HW1 2015   2.640   0.743   2.072 -4.5021  1.2997  1.2694
  672SOL    HW2 2016   2.547   0.840   1.977  3.2535 -0.3232 -1.1538
  673SOL     OW 2017   2.398   2.415   2.058  0.3676 -0.2310 -0.1711
  673SOL    HW1 2018   2.478   2.468   2.095 -0.1568 -1.9363  0.3322
  673SOL    HW2 2019   2.386   2.431   1.959 -1.5374  2.2036  3.3311
  674SOL     OW 2020   1.400   2.668   1.911  0.3266  0.5607 -0.7227
  674SOL    HW1 2021   1.368   2.614   1.831  0.6054 -2.1683  2.2629
  674SOL    HW2 2022   1.313   2.705   1.957 -4.4847 -0.8917 -0.0566
  675SOL     OW 2023   0.565   0.855   0.802 -0.0729 -0.0374 -0.1361
  675SOL    HW1 2024   0.639   0.922   0.779  1.5464 -0.0765  0.6702
  675SOL    HW2 2025   0.478   0.905   0.811 -0.0839  0.7693 -0.7062
  676SOL     OW 2026   1.998   1.139   0.492 -0.2831 -0.1033 -0.1376
  676SOL    HW1 2027   1.976   1.051   0.539  0.3123  0.0918  0.0102
  676SOL    HW2 2028   2.058   1.199   0.552 -1.0279  2.4599 -0.3838
  677SOL     OW 2029   2.960   1.392   2.591  0.3276 -0.0800 -0.5077
  677SOL    HW1 2030   2.903   1.358   2.669 -0.2235  0.2662  2.0607
  677SOL    HW2 2031   2.970   1.305   2.533  2.5703 -0.2073 -1.7166
  678SOL     OW 2032   2.610   1.993   1.317 -0.1028  0.5794 -0.3943
  678SOL    HW1 2033   2.695   1.936   1.323  3.9082  1.1773  1.3640
  678SOL    HW2 2034   2.529   1.935   1.334  1.6517  3.4345  2.7818
  679SOL     OW 2035   2.002   2.737   0.415 -0.1763  0.0372  0.2996
  679SOL    HW1 2036   2.052   2.686   0.489 -0.9669  0.1442 -3.0750
  679SOL    HW2 2037   1.925   2.790   0.457  1.5873 -2.0718  0.3696
  680SOL     OW 2038   0.152   2.099   2.130  0.3779 -0.2767 -0.3812
  680SOL    HW1 2039   0.091   2.090   2.049 -1.7709  0.4685  1.3545
  680SOL    HW2 2040   0.201   2.014   2.146 -0.0345 -0.2599 -0.2006
  681SOL     OW 2041   2.958   1.321   1.639  0.3033  0.2247 -0.0416
  681SOL    HW1 2042   3.046   1.272   1.655  0.7171 -0.8529 -2.6388
  681SOL    HW2 2043   2.908   1.342   1.729 -1.3722 -0.6830 -0.1672
  682SOL     OW 2044   1.110   2.200   0.861  0.4436  0.0104  0.0434
  682SOL    HW1 2045   1.099   2.296   0.830  0.1765  1.4577 -0.3483
  682SOL    HW2 2046   1.105   2.141   0.780  2.0174  1.6943  0.1444
  683SOL     OW 2047   2.135   1.258   1.173  0.3002 -0.0698  0.0517
  683SOL    HW1 2048   2.052   1.269   1.117 -2.9323  0.1374 -1.2802
  683SOL    HW2 2049   2.102   1.247   1.267  0.4560 -0.4979 -0.7477
  684SOL     OW 2050   0.216   1.726   2.831 -0.3235  0.4185 -0.5770
  684SOL    HW1 2051   0.127   1.681   2.861  0.3782  0.7279 -1.2749
  684SOL    HW2 2052   0.286   1.734   2.910  3.1376  1.9516  3.6348
  685SOL     OW 2053   1.665   1.325   0.146  0.0864  0.8229  0.1936
  685SOL    HW1 2054   1.762   1.351   0.125  0.7927 -2.0973  1.2301
  685SOL    HW2 2055   1.651   1.339   0.249 -0.7761  0.1454  2.8290
  686SOL     OW 2056   3.018   0.718   1.197  0.0843 -0.0976 -0.0211
  686SOL    HW1 2057   3.006   0.629   1.248 -0.4044 -2.4178  3.2026
  686SOL    HW2 2058   3.072   0.778   1.261  0.4885 -1.7366 -1.9922
  687SOL     OW 2059   0.921   2.197   2.504  0.2757  0.1730 -1.0847
  687SOL    HW1 2060   0.877   2.217   2.592 -1.5778 -2.8537 -1.9761
  687SOL    HW2 2061   0.896   2.274   2.441 -0.0969  4.7863 -0.9951
  688SOL     OW 2062   0.320   1.709   1.587  0.1431 -0.1927  0.2102
  688SOL    HW1 2063   0.224   1.727   1.604 -0.9574  1.6378  2.0930
  688SOL    HW2 2064   0.386   1.786   1.586  1.4812  0.8511  0.3298
  689SOL     OW 2065   1.764   0.943   1.666 -0.6236  0.3115 -0.3922
  689SOL    HW1 2066   1.662   0.965   1.653 -3.5414  1.0918  0.4894
  689SOL    HW2 2067   1.769   0.872   1.740  0.1598  0.4480  0.2098
  690SOL     OW 2068   2.446   0.721   1.200 -0.0211  0.2723  0.1359
  690SOL    HW1 2069   2.387   0.635   1.211  0.0827 -0.9728 -0.4016
  690SOL    HW2 2070   2.385   0.803   1.176 -1.1689  3.1624  1.5829
  691SOL     OW 2071   0.738   1.928   1.551 -0.1513  0.1188  0.3867
  691SOL    HW1 2072   0.743   1.837   1.505  0.9357 -0.9852  0.4138
  691SOL    HW2 2073   0.805   1.919   1.627  1.3942 -1.0753 -1.0843
  692SOL     OW 2074   1.915   0.252   1.365 -0.2115  0.2415 -0.0168
  692SOL    HW1 2075   1.833   0.199   1.333 -1.6469  1.4061  0.1611
  692SOL    HW2 2076   2.004   0.218   1.325  0.1332 -0.7593  0.9024
  693SOL     OW 2077   0.246   1.019   2.185  0.1830 -0.3748  0.2902
  693SOL    HW1 2078   0.339   1.047   2.219  3.3677  1.4075 -0.9674
  693SOL    HW2 2079   0.263   0.942   2.120  3.9443  1.9005 -0.8733
  694SOL     OW 2080   1.698   0.144   1.195 -0.3076 -0.1356 -0.3625
  694SOL    HW1 2081   1.701   0.180   1.102 -1.8231  1.2255  1.9310
  694SOL    HW2 2082   1.663   0.048   1.188  1.7169 -0.8423 -0.0411
  695SOL     OW 2083   1.242   1.446   1.705 -0.5630  0.1661 -0.1755
  695SOL    HW1 2084   1.235   1.447   1.606 -0.4000 -2.4945 -1.4203
  695SOL    HW2 2085   1.206   1.358   1.735  0.0417  4.4654 -1.3522
  696SOL     OW 2086   1.702   2.842   0.041  0.1095 -0.2141 -0.0954
  696SOL    HW1 2087   1.667   2.754   3.078  1.2118  0.2191  0.1450
  696SOL    HW2 2088   1.715   2.910   3.041 -0.0160  2.2777 -1.2014
  697SOL     OW 2089   0.786   0.547   0.511  0.3973 -0.4686  0.3227
  697SOL    HW1 2090   0.781   0.449   0.481  0.3445  2.1618 -0.6747
  697SOL    HW2 2091   0.696   0.571   0.551  1.1077 -1.3497 -0.6501
  698SOL     OW 2092   1.396   1.256   2.517 -0.3385 -0.1348  0.4749
  698SOL    HW1 2093   1.451   1.290   2.434  1.4696  0.1440 -4.0032
  698SOL    HW2 2094   1.358   1.164   2.499 -0.3246 -1.5149  0.9736
  699SOL     OW 2095   1.423   1.300   1.029 -0.1430 -0.0893 -0.0115
  699SOL    HW1 2096   1.484   1.376   1.051 -3.4598  1.1046  0.3894
  699SOL    HW2 2097   1.445   1.259   0.940 -1.1610 -0.2872  0.9955
  700SOL     OW 2098   1.630   0.050   0.461  0.2984 -0.5996 -0.4177
  700SOL    HW1 2099   1.693   3.079   0.400  3.1208 -1.1288  2.8159
  700SOL    HW2 2100   1.641   0.150   0.463 -1.5630 -0.6487 -2.9059
  701SOL     OW 2101   2.290   3.066   2.383 -0.7546  0.2398 -0.2499
  701SOL    HW1 2102   2.309   2.983   2.331 -0.6602 -0.4707  1.2481
  701SOL    HW2 2103   2.227   3.047   2.457 -1.4605 -2.1311 -0.9484
  702SOL     OW 2104   0.978   0.131   0.176  0.3839 -0.1599 -0.3167
  702SOL    HW1 2105   0.986   0.228   0.198  0.3554  1.7009  0.1308
  702SOL    HW2 2106   0.926   0.113   0.092 -0.3084 -0.5812 -1.5042
  703SOL     OW 2107   2.130   2.719   2.261  0.3967 -0.0271 -0.2163
  703SOL    HW1 2108   2.089   2.636   2.212 -1.9126 -2.0146 -0.4908
  703SOL    HW2 2109   2.085   2.746   2.348 -1.3009  3.2895  1.7069
  704SOL     OW 2110   0.439   2.489   0.974  0.3742 -0.0922  0.5910
  704SOL    HW1 2111   0.461   2.424   0.901  2.3634 -1.7460  1.0930
  704SOL    HW2 2112   0.499   2.461   1.047 -0.8734  1.1644 -1.6700
  705SOL     OW 2113   2.495   0.147   2.092 -0.3164 -0.3670  0.7761
  705SOL    HW1 2114   2.516   0.153   1.991  1.0513  1.2061 -1.1296
  705SOL    HW2 2115   2.411   0.203   2.112 -2.4540  4.3912 -0.6587
  706SOL     OW 2116   1.746   0.319   0.397 -0.2611 -0.5449 -0.5704
  706SOL    HW1 2117   1.845   0.320   0.435  2.0000  0.9267  1.4144
  706SOL    HW2 2118   1.749   0.334   0.297 -0.5443 -1.7257  0.9743
  707SOL     OW 2119   1.212   1.898   2.124  0.2047 -0.2947 -0.2808
  707SOL    HW1 2120   1.297   1.917   2.071 -1.6740  0.3628  2.6746
  707SOL    HW2 2121   1.146   1.981   2.128 -2.2094 -0.6560 -0.1192
  708SOL     OW 2122   0.103   2.398   1.852  0.4991 -0.0107 -0.3019
  708SOL    HW1 2123   0.090   2.393   1.953  1.8153  0.2873 -2.9782
  708SOL    HW2 2124   0.056   2.476   1.810  1.7915 -1.2535  0.5121
  709SOL     OW 2125   1.758   0.225   1.927  0.2979 -0.2277 -0.9164
  709SOL    HW1 2126   1.781   0.184   2.018 -0.5175 -1.5892  2.6133
  709SOL    HW2 2127   1.743   0.151   1.855 -0.0048  2.7993 -1.5023
  710SOL     OW 2128   1.853   0.497   1.944  0.1629 -0.4152  0.5436
  710SOL    HW1 2129   1.822   0.404   1.910  2.3740 -2.2454  0.2923
  710SOL    HW2 2130   1.828   0.500   2.040  1.1450 -0.8217  1.5513
  711SOL     OW 2131   0.732   2.187   0.080 -0.4102  0.7014 -0.2776
  711SOL    HW1 2132   0.766   2.178   0.175  0.4063  1.1749 -0.4567
  711SOL    HW2 2133   0.706   2.282   0.072  0.3138  1.9545  2.8048
  712SOL     OW 2134   0.574   2.578   2.083  0.3119 -0.2228  0.6862
  712SOL    HW1 2135   0.510   2.535   2.017  0.8745 -0.8451 -1.5222
  712SOL    HW2 2136   0.639   2.646   2.041 -1.2905  2.3543  1.2267
  713SOL     OW 2137   1.864   1.388   0.512  0.1762  0.1396 -0.1790
  713SOL    HW1 2138   1.861   1.374   0.610  2.2140 -1.3448 -1.3647
  713SOL    HW2 2139   1.906   1.310   0.464  1.0340  0.2950  0.3491
  714SOL     OW 2140   0.629   1.893   1.172 -0.4348 -0.2869 -0.0063
  714SOL    HW1 2141   0.586   1.868   1.081 -0.4454 -0.2837 -1.9793
  714SOL    HW2 2142   0.684   1.978   1.160 -0.1590  1.0027  0.4296
  715SOL     OW 2143   1.976   2.810   2.771  0.5128 -0.4117  0.0599
  715SOL    HW1 2144   2.004   2.892   2.725 -1.3721 -1.4697  1.3398
  715SOL    HW2 2145   1.889   2.776   2.736  1.5291  1.5924  2.2087
  716SOL     OW 2146   2.821   2.952   1.927  0.6491  0.2650 -0.1105
  716SOL    HW1 2147   2.873   2.868   1.921 -2.4677  1.5909  0.3619
  716SOL    HW2 2148   2.817   2.998   2.021  0.0507  1.2371 -0.9727
  717SOL     OW 2149   0.221   1.113   0.241  0.2285  0.0947  0.1012
  717SOL    HW1 2150   0.237   1.147   0.149 -1.1639  0.2339 -0.8794
  717SOL    HW2 2151   0.125   1.132   0.273  1.3726 -3.0696 -0.2927
  718SOL     OW 2152   1.284   1.013   2.447  0.0996 -0.3114  0.3601
  718SOL    HW1 2153   1.209   0.984   2.509 -1.6254  2.6998  0.1510
  718SOL    HW2 2154   1.356   0.939   2.427 -0.6345  0.4904 -2.5697
  719SOL     OW 2155   2.717   1.449   3.027  0.3363  0.7508  0.8585
  719SOL    HW1 2156   2.777   1.403   0.016 -0.3429 -1.8047 -1.0943
  719SOL    HW2 2157   2.626   1.467   3.074 -0.2005 -0.3137  0.0241
  720SOL     OW 2158   1.185   0.756   0.952  0.1322 -0.0369  0.7907
  720SOL    HW1 2159   1.120   0.781   1.024 -0.4097 -0.5157 -2.0447
  720SOL    HW2 2160   1.125   0.733   0.865 -3.2131  0.3737 -0.3115
  721SOL     OW 2161   2.620   0.546   0.053  0.2470  0.0702  0.2180
  721SOL    HW1 2162   2.616   0.564   3.031  1.3226 -0.8124  1.6800
  721SOL    HW2 2163   2.600   0.629   0.105 -2.4696 -2.3534 -0.7205
  722SOL     OW 2164   1.576   0.899   2.725 -0.2131 -0.0785  0.3595
  722SOL    HW1 2165   1.546   0.801   2.735 -0.7819 -3.3532 -3.1356
  722SOL    HW2 2166   1.584   0.920   2.624 -0.8360 -0.0015  2.8399
  723SOL     OW 2167   3.074   1.248   0.305 -0.1101 -0.2322  0.6929
  723SOL    HW1 2168   0.000   1.299   0.394 -0.3418  1.4212  3.0801
  723SOL    HW2 2169   2.996   1.181   0.311 -0.8628 -0.5863  1.0460
  724SOL     OW 2170   0.425   1.520   2.305 -0.1650 -0.5793 -0.1800
  724SOL    HW1 2171   0.325   1.528   2.290 -0.0122  0.9659  1.1884
  724SOL    HW2 2172   0.471   1.610   2.310  0.1869 -2.6587  1.4676
  725SOL     OW 2173   2.041   0.611   1.684 -0.3556  0.3672  0.4326
  725SOL    HW1 2174   2.058   0.705   1.652  0.8243  0.5588 -0.5175
  725SOL    HW2 2175   2.072   0.598   1.782  1.9519  0.5340 -0.2262
  726SOL     OW 2176   1.676   2.924   0.295 -0.1099 -0.3111 -0.0293
  726SOL    HW1 2177   1.684   2.888   0.200 -0.5385  1.9357 -0.6646
  726SOL    HW2 2178   1.696   2.851   0.359  1.3947 -1.8297  2.5662
  727SOL     OW 2179   1.468   1.342   2.284 -0.1472 -0.3942 -0.1512
  727SOL    HW1 2180   1.557   1.299   2.256 -0.3016 -1.4789 -0.9676
  727SOL    HW2 2181   1.453   1.424   2.224  1.5944  0.1158 -0.7133
  728SOL     OW 2182   1.439   2.583   1.043 -0.9841 -0.2847 -0.2193
  728SOL    HW1 2183   1.357   2.566   1.103  0.3276 -0.7655  1.8099
  728SOL    HW2 2184   1.517   2.560   1.102  1.2526  1.6387  1.8030
  729SOL     OW 2185   2.051   0.964   1.315  0.6171 -0.0874 -0.2398
  729SOL    HW1 2186   2.009   1.049   1.278  1.3212  1.7570 -2.3316
  729SOL    HW2 2187   2.051   0.882   1.255  2.7376 -0.3348  1.9323
  730SOL     OW 2188   0.562   1.745   2.354  0.4743  0.2136  0.1996
  730SOL    HW1 2189   0.628   1.759   2.275  0.7026 -1.7060  0.8648
  730SOL    HW2 2190   0.488   1.812   2.359  0.3958  0.2670  1.4257
  731SOL     OW 2191   0.223   0.532   0.669  0.1918 -0.0047  0.4411
  731SOL    HW1 2192   0.201   0.442   0.704  0.5777  1.1200  1.7837
  731SOL    HW2 2193   0.246   0.528   0.568 -1.2757 -1.9490  2.7462
  732SOL     OW 2194   1.164   0.715   0.104  0.2627 -0.0555  0.4530
  732SOL    HW1 2195   1.167   0.612   0.108 -2.6245 -0.9611  1.4311
  732SOL    HW2 2196   1.066   0.749   0.115  1.7680  2.1784  0.5359
  733SOL     OW 2197   0.670   2.103   0.806 -0.1285 -0.2049 -0.0588
  733SOL    HW1 2198   0.722   2.041   0.739  0.5070 -2.5855 -2.4173
  733SOL    HW2 2199   0.572   2.105   0.785  0.2837  0.4895  2.8926
  734SOL     OW 2200   0.017   2.216   2.729 -0.0376  0.5426 -0.4298
  734SOL    HW1 2201   0.073   2.221   2.643  1.0330  0.4002  0.1756
  734SOL    HW2 2202   0.081   2.221   2.809  0.6734  2.7648 -1.2539
  735SOL     OW 2203   1.142   0.797   1.406 -0.6443  0.0651 -0.0436
  735SOL    HW1 2204   1.066   0.800   1.474 -1.3161  0.0054 -0.8935
  735SOL    HW2 2205   1.184   0.709   1.382  0.1124  0.5063 -2.5884
  736SOL     OW 2206   2.056   2.663   2.989  0.0218  0.2781  0.1310
  736SOL    HW1 2207   1.997   2.702   3.062 -0.7760  2.2854  1.4002
  736SOL    HW2 2208   2.034   2.710   2.905 -0.0786 -2.0874  6.0211
  737SOL     OW 2209   0.063   0.170   0.574 -0.2845 -0.3771  0.6678
  737SOL    HW1 2210   3.062   0.223   0.546 -0.7085 -0.2881  0.1689
  737SOL    HW2 2211   0.097   0.205   0.665  0.3532  3.3056 -1.5111
  738SOL     OW 2212   2.141   0.137   0.932  0.3675  0.2318 -0.6210
  738SOL    HW1 2213   2.171   0.228   0.965 -0.3821 -0.2128 -0.9537
  738SOL    HW2 2214   2.215   0.071   0.910 -1.1983 -0.4645 -0.8987
  739SOL     OW 2215   1.935   2.431   0.279 -0.2310  0.0990 -0.2762
  739SOL    HW1 2216   1.848   2.380   0.300 -0.0260 -0.2026  0.6288
  739SOL    HW2 2217   1.917   2.526   0.236  2.2035  0.3569 -3.0029
  740SOL     OW 2218   1.488   0.391   0.917 -0.0587 -0.9829  0.3895
  740SOL    HW1 2219   1.435   0.323   0.863  0.9412  1.2947 -0.6386
  740SOL    HW2 2220   1.572   0.350   0.962  2.8448 -2.7012  2.0151
  741SOL     OW 2221   2.613   0.693   0.943  0.3317  0.3230 -0.8458
  741SOL    HW1 2222   2.553   0.727   1.017 -0.9441 -0.9225 -0.9936
  741SOL    HW2 2223   2.574   0.709   0.852 -2.5156 -0.9177  0.3344
  742SOL     OW 2224   1.025   2.093   2.084 -0.3266  0.3729 -0.2223
  742SOL    HW1 2225   0.934   2.063   2.125 -0.5754 -0.5141 -0.3090
  742SOL    HW2 2226   1.014   2.134   1.995  0.3021  0.4241  0.8472
  743SOL     OW 2227   1.720   0.746   1.851 -0.2569  0.3590 -0.3143
  743SOL    HW1 2228   1.768   0.657   1.860 -2.1955 -0.7744 -1.5854
  743SOL    HW2 2229   1.631   0.718   1.809 -1.9240 -1.5437 -4.1542
  744SOL     OW 2230   2.250   0.532   1.267 -0.2416 -0.7122  0.1014
  744SOL    HW1 2231   2.201   0.619   1.243  0.1523 -0.3872  0.9857
  744SOL    HW2 2232   2.260   0.519   1.368  1.2370 -0.1486  2.7766
  745SOL     OW 2233   1.875   1.196   1.619  0.0557 -0.3001 -0.2304
  745SOL    HW1 2234   1.856   1.106   1.669  0.0567  2.0986 -1.4305
  745SOL    HW2 2235   1.808   1.199   1.538 -1.3295  1.4995  2.9758
  746SOL     OW 2236   1.714   1.615   0.822 -0.4194 -0.0319 -0.4034
  746SOL    HW1 2237   1.811   1.646   0.794  1.0477 -0.1258 -1.3757
  746SOL    HW2 2238   1.661   1.696   0.852 -1.5362  0.4948  1.5781
  747SOL     OW 2239   1.915   1.294   0.997 -0.2079 -0.1442 -0.5942
  747SOL    HW1 2240   1.985   1.362   0.966 -1.7426  1.5871 -1.1806
  747SOL    HW2 2241   1.861   1.342   1.071  3.0764 -1.5722  3.8741
  748SOL     OW 2242   0.426   2.334   0.746  0.0542 -0.0122  0.0290
  748SOL    HW1 2243   0.354   2.395   0.714  1.5233 -0.3011  2.1700
  748SOL    HW2 2244   0.500   2.324   0.674 -0.9530 -0.2596  1.6350
  749SOL     OW 2245   2.470   2.859   2.256  0.1584  0.3734  0.2514
  749SOL    HW1 2246   2.489   2.758   2.253  0.7981  2.7007 -0.6590
  749SOL    HW2 2247   2.427   2.891   2.170  2.6894 -0.0194  0.1204
  750SOL     OW 2248   2.543   0.411   1.034 -0.9492 -0.2962  0.2070
  750SOL    HW1 2249   2.598   0.410   1.123 -2.2604 -0.1644  2.1516
  750SOL    HW2 2250   2.566   0.490   0.975  2.6454 -2.1463  2.4900
  751SOL     OW 2251   2.510   2.890   0.227 -0.4057  0.3760 -0.0390
  751SOL    HW1 2252   2.612   2.889   0.222  0.6963  2.2430  1.4461
  751SOL    HW2 2253   2.472   2.855   0.142  0.5130 -1.1011  0.9137
  752SOL     OW 2254   0.216   2.727   0.720 -0.1568 -0.9150  0.1559
  752SOL    HW1 2255   0.314   2.725   0.739  0.5404  1.5774 -0.5962
  752SOL    HW2 2256   0.196   2.747   0.621  1.2250  2.0326 -2.0872
  753SOL     OW 2257   1.507   0.584   1.805  0.1871 -0.5003  0.4354
  753SOL    HW1 2258   1.411   0.569   1.786  1.7787  1.6040 -0.0793
  753SOL    HW2 2259   1.563   0.507   1.775  1.1207  0.6757 -0.4232
  754SOL     OW 2260   1.699   2.405   1.818 -0.4838 -0.3169  0.8418
  754SOL    HW1 2261   1.756   2.470   1.765 -0.0111 -3.6803  0.1721
  754SOL    HW2 2262   1.606   2.404   1.784  3.5244  1.4412  0.3310
  755SOL     OW 2263   2.898   0.336   0.571 -0.5019  0.4773 -0.4618
  755SOL    HW1 2264   2.935   0.428   0.560  0.2616 -0.1116  1.6849
  755SOL    HW2 2265   2.868   0.291   0.485  3.3529  1.1778  0.9239
  756SOL     OW 2266   1.426   1.596   2.901 -0.1144 -0.0559  0.3470
  756SOL    HW1 2267   1.385   1.545   2.821 -0.7533  0.5326  1.7617
  756SOL    HW2 2268   1.447   1.695   2.876  0.3006  1.0732  1.0785
  757SOL     OW 2269   1.424   0.080   1.331 -0.1743  0.0598 -0.4509
  757SOL    HW1 2270   1.470   0.169   1.304  1.7217  1.3965 -1.7352
  757SOL    HW2 2271   1.320   0.090   1.328  2.1933 -1.4890 -1.3160
  758SOL     OW 2272   0.653   0.320   1.362 -0.1553  0.1456  0.5061
  758SOL    HW1 2273   0.617   0.327   1.461 -1.6458 -1.6292  3.6239
  758SOL    HW2 2274   0.695   0.226   1.360  0.3950 -3.0404  2.1506
  759SOL     OW 2275   0.432   0.619   1.168 -0.4761  0.4102  0.2524
  759SOL    HW1 2276   0.500   0.645   1.094  0.0676 -1.6052 -0.1921
  759SOL    HW2 2277   0.353   0.573   1.122  1.5628  1.7982 -0.2969
  760SOL     OW 2278   2.352   1.276   1.000  0.1520 -0.3810 -0.0565
  760SOL    HW1 2279   2.431   1.237   1.050 -0.4455  3.4766 -0.2020
  760SOL    HW2 2280   2.271   1.289   1.065 -2.1557 -0.2627 -1.2561
  761SOL     OW 2281   1.466   0.731   0.330  0.5339 -0.3495 -0.4029
  761SOL    HW1 2282   1.498   0.636   0.362  3.4253  1.1681  0.2630
  761SOL    HW2 2283   1.365   0.745   0.337 -0.7526 -3.8544 -0.1793
  762SOL     OW 2284   2.295   2.223   1.259 -0.0941  0.1031  0.4234
  762SOL    HW1 2285   2.238   2.279   1.193 -1.0360  0.3886 -1.2254
  762SOL    HW2 2286   2.388   2.255   1.268 -2.5779  2.9843  1.5415
  763SOL     OW 2287   1.450   1.567   1.830  0.7222  0.3458  0.3798
  763SOL    HW1 2288   1.517   1.562   1.751  0.4433 -1.2968  1.0273
  763SOL    HW2 2289   1.360   1.546   1.790  0.2184  0.9956 -0.2283
  764SOL     OW 2290   2.785   1.989   2.487  0.2093  0.1817  0.3972
  764SOL    HW1 2291   2.861   1.926   2.492 -2.5074  0.8094 -1.4403
  764SOL    HW2 2292   2.790   2.071   2.548  0.6440  3.1378 -0.3882
  765SOL     OW 2293   0.966   2.541   1.008  0.2455  0.4087 -0.1827
  765SOL    HW1 2294   1.053   2.550   1.064  0.7181 -1.4650  1.3454
  765SOL    HW2 2295   0.916   2.631   1.004 -1.5527  0.9707 -1.5641
  766SOL     OW 2296   0.828   1.930   2.546 -0.3232  0.4133  0.2194
  766SOL    HW1 2297   0.800   1.916   2.645 -0.8055 -3.5287  1.3107
  766SOL    HW2 2298   0.882   2.019   2.545 -3.9242  1.4047 -1.2281
  767SOL     OW 2299   1.829   0.604   2.371  0.1604  0.0313 -0.1147
  767SOL    HW1 2300   1.870   0.691   2.334  2.1319  0.2489 -0.4996
  767SOL    HW2 2301   1.807   0.605   2.470 -1.5566 -0.0491 -2.1801
  768SOL     OW 2302   0.968   2.534   2.618 -0.4557 -0.3047 -1.1256
  768SOL    HW1 2303   1.051   2.584   2.648  0.7316  0.3156 -2.5276
  768SOL    HW2 2304   0.948   2.453   2.674 -1.6062  1.8248  1.5257
  769SOL     OW 2305   3.044   2.464   0.930 -0.0467 -0.1657 -0.5825
  769SOL    HW1 2306   2.977   2.525   0.969  0.4835 -0.7576 -2.7818
  769SOL    HW2 2307   0.053   2.476   0.980  1.5586  1.1391  0.4319
  770SOL     OW 2308   0.679   2.807   2.917 -0.2395  0.8378  0.2922
  770SOL    HW1 2309   0.604   2.757   2.958 -2.6222  1.9965 -0.3666
  770SOL    HW2 2310   0.671   2.903   2.945  0.7403 -0.1380 -0.9922
  771SOL     OW 2311   1.177   2.261   2.416 -0.3297 -0.4902 -0.1314
  771SOL    HW1 2312   1.192   2.270   2.310  0.6862 -1.2060 -5.0667
  771SOL    HW2 2313   1.074   2.268   2.439 -1.0005  1.4421  1.0144
  772SOL     OW 2314   2.073   0.065   2.185  0.1002  0.2943 -0.2745
  772SOL    HW1 2315   2.093   0.153   2.140 -0.0322  1.7328 -0.5900
  772SOL    HW2 2316   2.147   0.004   2.149  0.4026  1.1909  0.0397
  773SOL     OW 2317   1.053   3.041   1.790  0.1146 -0.1847  0.6354
  773SOL    HW1 2318   1.114   3.046   1.707  0.8880  0.4733  0.2985
  773SOL    HW2 2319   1.056   2.952   1.844  0.4762 -0.9893  2.8052
  774SOL     OW 2320   1.484   0.775   2.151  0.4133  0.0225  0.4911
  774SOL    HW1 2321   1.397   0.817   2.111 -0.7610  1.8410 -0.1576
  774SOL    HW2 2322   1.481   0.673   2.151  1.0430 -0.9646 -2.9194
  775SOL     OW 2323   2.239   3.013   0.111 -0.2604  0.0336 -0.2765
  775SOL    HW1 2324   2.302   2.960   0.047  2.1898 -0.2563  0.8247
  775SOL    HW2 2325   2.209   2.951   0.192 -2.2651 -0.6993  1.9487
  776SOL     OW 2326   2.436   0.906   1.848  0.2572  0.0994  0.6986
  776SOL    HW1 2327   2.487   0.929   1.764 -1.9491  0.3692  1.5815
  776SOL    HW2 2328   2.333   0.896   1.826  1.4932  1.0852 -0.2153
  777SOL     OW 2329   2.902   1.172   2.415 -0.1748  0.6168 -0.0889
  777SOL    HW1 2330   2.986   1.178   2.358 -0.7583  2.6411 -1.4712
  777SOL    HW2 2331   2.821   1.169   2.357  4.7067 -0.3432  1.3739
  778SOL     OW 2332   2.399   0.468   2.134 -0.5725  0.5670 -0.0583
  778SOL    HW1 2333   2.371   0.405   2.212 -0.0546 -1.0760  1.6124
  778SOL    HW2 2334   2.496   0.461   2.101 -1.7111 -3.1500 -1.9880
  779SOL     OW 2335   0.041   3.069   3.080 -0.1676 -0.7684 -0.0826
  779SOL    HW1 2336   0.060   0.059   3.014 -2.1497 -1.4225  1.5378
  779SOL    HW2 2337   3.058   3.004   3.035 -3.2188 -1.7700  0.2679
  780SOL     OW 2338   1.991   2.968   2.388 -0.0706  0.4543 -0.7194
  780SOL    HW1 2339   2.019   3.019   2.303 -0.8382 -1.0924  0.4772
  780SOL    HW2 2340   1.901   3.006   2.424  1.8342  1.5485 -1.4745
  781SOL     OW 2341   0.086   0.511   1.588  0.2544  0.2471 -0.3894
  781SOL    HW1 2342   0.034   0.596   1.592  0.9055 -2.5260 -0.8982
  781SOL    HW2 2343   0.181   0.535   1.602  0.5505 -0.8532  1.3760
  782SOL     OW 2344   2.181   2.039   0.337  0.0270  0.3972 -0.3889
  782SOL    HW1 2345   2.267   2.036   0.397  1.9730  0.4668  0.6894
  782SOL    HW2 2346   2.151   2.134   0.327  0.4779  0.4314 -2.2485
  783SOL     OW 2347   0.382   1.945   1.310  0.2617  0.2380 -0.5877
  783SOL    HW1 2348   0.348   2.029   1.258 -0.0301  0.0608 -1.2176
  783SOL    HW2 2349   0.465   1.911   1.258 -0.7508  0.2285 -1.0878
  784SOL     OW 2350   2.447   0.740   2.324 -0.0458  0.2264 -0.0922
  784SOL    HW1 2351   2.408   0.646   2.304  0.6379  1.3750  1.0326
  784SOL    HW2 2352   2.493   0.773   2.236  2.2957  0.2747 -1.4107
  785SOL     OW 2353   0.187   0.202   1.224 -0.1341  0.0476  0.0232
  785SOL    HW1 2354   0.109   0.220   1.159  0.1227 -1.8842 -0.0254
  785SOL    HW2 2355   0.210   0.283   1.280  1.7780 -2.0749 -0.4676
  786SOL     OW 2356   1.912   2.683   0.171 -0.0469 -0.0035  0.2444
  786SOL    HW1 2357   1.829   2.748   0.166 -1.3047 -0.0601 -0.0380
  786SOL    HW2 2358   1.962   2.698   0.260  0.3246  0.3754  2.1906
  787SOL     OW 2359   1.387   0.210   0.717 -0.3841 -0.2465 -0.2200
  787SOL    HW1 2360   1.305   0.200   0.658  1.6782  0.1237  4.5863
  787SOL    HW2 2361   1.463   0.141   0.708 -1.0648 -1.2362  1.3290
  788SOL     OW 2362   0.058   1.569   1.032  0.1346  0.1639 -0.2733
  788SOL    HW1 2363   3.055   1.627   1.017  1.0032  0.3081  2.3261
  788SOL    HW2 2364   0.030   1.500   1.104 -0.8928 -0.7260  2.5930
  789SOL     OW 2365   2.773   0.613   2.144  0.5014 -0.4340 -0.3708
  789SOL    HW1 2366   2.748   0.558   2.232 -2.4593 -1.7169  0.8585
  789SOL    HW2 2367   2.791   0.711   2.161  0.4070 -0.9918 -1.5865
  790SOL     OW 2368   0.854   0.376   0.077 -0.7261 -0.0166 -0.3731
  790SOL    HW1 2369   0.859   0.337   3.068 -0.1502  2.6886  0.1436
  790SOL    HW2 2370   0.947   0.394   0.108 -0.3564 -0.6572 -0.4043
  791SOL     OW 2371   2.445   3.081   2.839 -0.1722 -0.2520 -0.0258
  791SOL    HW1 2372   2.487   0.082   2.789  1.7815  1.1050 -0.0327
  791SOL    HW2 2373   2.505   2.998   2.852  0.2102 -1.1399  3.1524
  792SOL     OW 2374   1.251   0.952   1.581  0.2588  0.5425  0.0650
  792SOL    HW1 2375   1.213   0.899   1.501  0.9619  1.1439  2.1235
  792SOL    HW2 2376   1.256   0.888   1.662  0.1305 -0.8322  1.7367
  793SOL     OW 2377   2.708   0.112   1.371 -0.1057  0.1962 -0.6846
  793SOL    HW1 2378   2.756   0.182   1.428  1.5032  2.8304 -1.4517
  793SOL    HW2 2379   2.740   0.123   1.274  2.3484  3.7467 -1.7803
  794SOL     OW 2380   2.894   0.021   2.150 -0.0347  0.5545 -0.3330
  794SOL    HW1 2381   2.827   0.095   2.168 -1.1461 -1.3558 -1.4074
  794SOL    HW2 2382   2.976   0.053   2.100  1.2911  0.0382  0.9553
  795SOL     OW 2383   0.642   1.861   2.772  0.1125 -0.3805 -0.0818
  795SOL    HW1 2384   0.686   1.897   2.858 -1.9792  0.9388 -1.8853
  795SOL    HW2 2385   0.574   1.933   2.734 -0.9176  2.3406 -0.4526
  796SOL     OW 2386   2.122   0.750   2.556  0.4638 -0.9639 -0.3339
  796SOL    HW1 2387   2.100   0.770   2.456  1.4224  0.3685 -2.7307
  796SOL    HW2 2388   2.045   0.771   2.620 -0.6799  0.1407  2.7647
  797SOL     OW 2389   2.553   2.035   0.155 -0.5906 -0.0823 -0.0200
  797SOL    HW1 2390   2.634   2.076   0.110  1.0094 -0.3881  1.0190
  797SOL    HW2 2391   2.473   2.050   0.098  0.6037 -0.8905 -0.1360
  798SOL     OW 2392   3.029   0.479   1.295 -0.8340  0.3754 -0.2905
  798SOL    HW1 2393   0.019   0.465   1.368 -0.6334 -0.5222 -1.0951
  798SOL    HW2 2394   3.047   0.422   1.213  1.2658  0.0608  1.2757
  799SOL     OW 2395   0.305   0.263   1.734  0.4085 -0.4659 -0.4335
  799SOL    HW1 2396   0.351   0.325   1.667 -0.6099 -1.7309  1.4058
  799SOL    HW2 2397   0.317   0.289   1.834  2.5249 -3.8219  2.8008
  800SOL     OW 2398   0.289   1.980   0.005 -0.5327  0.2803  0.1693
  800SOL    HW1 2399   0.218   1.964   0.069  2.7004 -1.2569 -3.2050
  800SOL    HW2 2400   0.329   1.886   3.061  1.5988 -4.4115  0.2627
  801SOL     OW 2401   1.550   1.843   0.841  0.1974  0.0270  0.2463
  801SOL    HW1 2402   1.499   1.883   0.923  1.0161 -1.6124 -0.1895
  801SOL    HW2 2403   1.533   1.889   0.752 -3.1169  0.7349  1.3113
  802SOL     OW 2404   1.181   0.811   0.368  0.3327 -0.0364 -0.3929
  802SOL    HW1 2405   1.170   0.847   0.272 -0.7636  1.3610 -3.9147
  802SOL    HW2 2406   1.126   0.724   0.381  0.3562 -0.2160 -0.5527
  803SOL     OW 2407   0.999   1.531   1.856 -0.4878  0.5217  0.2381
  803SOL    HW1 2408   0.927   1.560   1.790 -3.7301 -0.0708 -0.4137
  803SOL    HW2 2409   1.079   1.507   1.799  0.4581  2.8309 -3.6833
  804SOL     OW 2410   1.779   2.316   1.221 -0.3252  0.1341 -0.8357
  804SOL    HW1 2411   1.773   2.228   1.274  0.9480  0.2304 -0.0212
  804SOL    HW2 2412   1.719   2.325   1.141 -1.0459 -0.5598  0.7052
  805SOL     OW 2413   0.181   2.249   2.489 -0.0984 -0.4852 -0.3589
  805SOL    HW1 2414   0.125   2.219   2.408  3.3030  0.7440 -2.5467
  805SOL    HW2 2415   0.278   2.228   2.478 -3.2104  2.5663 -1.2322
  806SOL     OW 2416   1.032   2.945   0.235  0.2688  0.2142  0.1388
  806SOL    HW1 2417   1.012   3.042   0.231 -0.5768 -2.8383 -0.8493
  806SOL    HW2 2418   0.978   2.907   0.312  2.5799  0.7827 -2.0144
  807SOL     OW 2419   2.467   0.972   2.613 -0.0449  0.2470 -0.7094
  807SOL    HW1 2420   2.494   1.069   2.632  1.1036 -0.9870 -1.0273
  807SOL    HW2 2421   2.392   0.966   2.548 -0.3659  2.2505  1.2275
  808SOL     OW 2422   1.510   2.199   0.923  0.1888 -0.1842 -0.1393
  808SOL    HW1 2423   1.491   2.188   0.825 -0.8913 -1.5227  1.3300
  808SOL    HW2 2424   1.612   2.226   0.934  2.3305 -0.1037  1.3039
  809SOL     OW 2425   0.233   3.060   0.498 -0.0218 -0.2159 -0.1705
  809SOL    HW1 2426   0.288   0.019   0.420  0.6578 -0.5801 -1.3491
  809SOL    HW2 2427   0.155   0.037   0.521  0.7596 -1.7668  1.0088
  810SOL     OW 2428   1.143   1.300   0.729 -0.2560  0.4371 -0.3944
  810SOL    HW1 2429   1.170   1.360   0.802  0.3272  2.7715 -0.6662
  810SOL    HW2 2430   1.042   1.284   0.732 -2.5878 -1.9553 -2.1702
  811SOL     OW 2431   1.446   2.842   0.989 -0.3418 -0.3033 -0.0168
  811SOL    HW1 2432   1.449   2.739   0.986 -0.5594 -1.0017  1.4297
  811SOL    HW2 2433   1.398   2.877   1.071  3.5306  2.6715 -2.6552
  812SOL     OW 2434   1.101   0.175   0.549  0.3003 -0.0293 -0.5609
  812SOL    HW1 2435   1.091   0.213   0.644  1.8103  1.1112  0.1370
  812SOL    HW2 2436   1.020   0.123   0.510  1.9562 -0.5772  0.0901
  813SOL     OW 2437   1.145   2.901   2.349  0.1955  0.4828 -0.2093
  813SOL    HW1 2438   1.065   2.850   2.318  3.4239 -3.1648  1.0129
  813SOL    HW2 2439   1.206   2.938   2.274 -2.0079  1.5654  1.0533
  814SOL     OW 2440   1.056   2.981   1.194  0.5751  0.1978  0.3569
  814SOL    HW1 2441   0.993   2.900   1.206  0.9249  0.1386  3.8919
  814SOL    HW2 2442   1.045   3.014   1.099 -1.4188  0.2371  1.0941
  815SOL     OW 2443   0.179   2.509   0.227 -0.2743 -0.2263  0.0174
  815SOL    HW1 2444   0.149   2.555   0.142  0.9546 -0.5684  1.3761
  815SOL    HW2 2445   0.106   2.506   0.300 -1.0186  2.5092  2.0936
  816SOL     OW 2446   2.096   1.110   2.556  0.2899  0.4437 -0.9697
  816SOL    HW1 2447   2.065   1.075   2.646 -2.5873  2.5039 -1.6128
  816SOL    HW2 2448   2.143   1.040   2.499  0.2645  1.4055  1.8326
  817SOL     OW 2449   1.790   2.292   2.549  0.5567  0.8065  0.8540
  817SOL    HW1 2450   1.837   2.216   2.605 -1.0025 -3.1235  0.9043
  817SOL    HW2 2451   1.839   2.380   2.548  0.0190 -1.8703  0.6866
  818SOL     OW 2452   0.809   1.127   0.245 -0.0773  0.1377  0.0805
  818SOL    HW1 2453   0.773   1.062   0.173  0.2948 -2.6368  0.8654
  818SOL    HW2 2454   0.913   1.125   0.245  0.9687 -2.2149  1.8583
  819SOL     OW 2455   1.531   1.880   0.123 -0.3060  0.3674 -0.0158
  819SOL    HW1 2456   1.488   1.916   0.208 -0.7708 -0.5422 -0.1543
  819SOL    HW2 2457   1.472   1.900   0.043 -1.0586 -2.1979 -0.6630
  820SOL     OW 2458   0.305   0.854   0.217  0.1592 -0.2752  0.4055
  820SOL    HW1 2459   0.241   0.782   0.178  1.3861 -1.5721  0.9001
  820SOL    HW2 2460   0.266   0.946   0.201  0.7631 -0.0382  0.6573
  821SOL     OW 2461   0.324   0.029   1.399  0.1763  0.1765 -0.7675
  821SOL    HW1 2462   0.253   0.097   1.378  1.8184  3.3644 -0.9566
  821SOL    HW2 2463   0.349   3.043   1.328 -0.3545 -1.8133  0.2491
  822SOL     OW 2464   2.160   2.109   2.624 -0.1598  0.0817 -0.2218
  822SOL    HW1 2465   2.169   2.201   2.675  0.6570  2.1396 -1.6569
  822SOL    HW2 2466   2.071   2.064   2.634  1.6366 -0.3033 -0.6267
  823SOL     OW 2467   0.626   0.645   2.165 -0.6819 -0.4012 -0.3910
  823SOL    HW1 2468   0.706   0.701   2.137  1.7087  2.6348 -1.3193
  823SOL    HW2 2469   0.659   0.550   2.158 -3.3565  0.0876 -0.8805
  824SOL     OW 2470   2.335   3.069   1.657 -0.2702  0.1876 -0.2085
  824SOL    HW1 2471   2.341   0.078   1.699 -1.1479  1.3973 -0.9272
  824SOL    HW2 2472   2.237   3.054   1.642  0.3806  1.8942 -1.0718
  825SOL     OW 2473   0.567   1.332   2.746  0.5412 -0.1022  0.1866
  825SOL    HW1 2474   0.514   1.419   2.737 -0.0418  2.5216  1.2390
  825SOL    HW2 2475   0.633   1.340   2.822 -3.8706 -0.1296 -1.7190
  826SOL     OW 2476   1.811   0.540   2.638  0.2328 -0.3370  0.2466
  826SOL    HW1 2477   1.820   0.640   2.665  2.2375 -0.2985  1.7853
  826SOL    HW2 2478   1.882   0.484   2.682  1.4541 -0.6387  3.3463
  827SOL     OW 2479   0.874   2.398   2.330  0.8444 -0.4972 -0.1712
  827SOL    HW1 2480   0.811   2.456   2.395  0.2194 -0.0045  0.7061
  827SOL    HW2 2481   0.830   2.380   2.239 -3.0216  0.8358 -2.2611
  828SOL     OW 2482   2.835   2.970   1.494 -0.1945  0.0218  0.4604
  828SOL    HW1 2483   2.810   2.872   1.469 -1.5498  0.2631  0.8616
  828SOL    HW2 2484   2.783   3.039   1.438  0.0613 -4.2334 -0.5624
  829SOL     OW 2485   1.425   1.692   1.521  0.7352  0.5478  0.5948
  829SOL    HW1 2486   1.527   1.697   1.521  2.4600 -1.3884  0.5527
  829SOL    HW2 2487   1.389   1.637   1.439  1.3172  0.8688 -0.1176
  830SOL     OW 2488   0.867   1.154   1.781  0.4192 -0.0469 -0.6166
  830SOL    HW1 2489   0.808   1.072   1.804  1.8327  0.3800  3.2378
  830SOL    HW2 2490   0.870   1.209   1.863 -0.0976 -0.6084 -2.5480
  831SOL     OW 2491   2.921   1.781   0.351 -0.5871 -0.2657  0.3950
  831SOL    HW1 2492   2.834   1.783   0.301 -0.3898 -3.1506 -0.3294
  831SOL    HW2 2493   2.993   1.737   0.293 -0.8345  1.4734  0.4330
  832SOL     OW 2494   1.272   2.821   0.406  0.1591 -0.2076 -0.5962
  832SOL    HW1 2495   1.176   2.850   0.379 -0.1254  1.9739  2.3050
  832SOL    HW2 2496   1.336   2.881   0.352  2.6999  2.3835 -2.3669
  833SOL     OW 2497   2.766   0.275   1.572 -0.1441  0.5162 -0.2985
  833SOL    HW1 2498   2.758   0.183   1.617 -2.2077 -0.3579 -0.6214
  833SOL    HW2 2499   2.845   0.327   1.615  0.2997 -0.0850  1.9751
  834SOL     OW 2500   0.186   0.569   1.019  0.3956 -0.5525  0.2714
  834SOL    HW1 2501   0.159   0.667   1.028  0.3567  1.3956 -1.6887
  834SOL    HW2 2502   0.202   0.556   0.918 -1.6005  0.5849 -1.4026
  835SOL     OW 2503   2.568   3.000   0.685  0.0120  0.0517  0.5134
  835SOL    HW1 2504   2.632   3.040   0.623  0.5730 -0.1752  2.1596
  835SOL    HW2 2505   2.612   2.936   0.752 -2.4298 -2.0252 -0.5645
  836SOL     OW 2506   1.127   1.792   2.808  0.1592 -0.2836  0.1813
  836SOL    HW1 2507   1.072   1.874   2.794  1.5595 -0.7306  0.1326
  836SOL    HW2 2508   1.080   1.711   2.767 -4.1731  0.2119  1.8800
  837SOL     OW 2509   1.489   1.677   0.349 -0.2443  0.5861 -0.0117
  837SOL    HW1 2510   1.534   1.731   0.274 -0.0010 -0.6709 -2.1564
  837SOL    HW2 2511   1.391   1.696   0.367  1.9364  0.8499 -1.7298
  838SOL     OW 2512   2.867   0.631   2.478 -0.0983  0.3152  0.0700
  838SOL    HW1 2513   2.956   0.683   2.481 -0.5961 -1.5617 -0.1177
  838SOL    HW2 2514   2.782   0.691   2.479 -2.8858  0.9505  1.1529
  839SOL     OW 2515   0.625   0.994   2.632  0.2168 -0.2283  0.3857
  839SOL    HW1 2516   0.526   1.024   2.635 -0.1454 -2.5222  1.3422
  839SOL    HW2 2517   0.654   0.953   2.720  2.3010 -1.0272  0.4716
  840SOL     OW 2518   1.194   0.900   2.987  0.0398 -0.6319  0.1142
  840SOL    HW1 2519   1.252   0.978   3.021  0.9206 -0.9172  0.5258
  840SOL    HW2 2520   1.195   0.822   3.055  1.1549  1.4493  1.2646
  841SOL     OW 2521   0.724   2.601   0.682  0.0191  0.2070 -0.0721
  841SOL    HW1 2522   0.745   2.518   0.736  0.9107 -1.7727  3.4992
  841SOL    HW2 2523   0.797   2.630   0.618 -0.7006 -0.1579  0.5988
  842SOL     OW 2524   0.567   0.648   0.654 -0.0689 -0.4398  0.5397
  842SOL    HW1 2525   0.565   0.730   0.713 -1.8139 -0.0950 -0.1930
  842SOL    HW2 2526   0.508   0.658   0.570 -0.1408  1.4506 -0.2883
  843SOL     OW 2527   0.372   0.836   1.318 -0.1725  0.0162  0.6983
  843SOL    HW1 2528   0.390   0.758   1.256 -2.6533 -1.6305 -1.1826
  843SOL    HW2 2529   0.276   0.858   1.330 -1.8387  0.5005  1.6364
  844SOL     OW 2530   2.162   2.354   2.758 -0.1345 -0.3846 -0.1831
  844SOL    HW1 2531   2.152   2.448   2.709 -0.7867  2.3364  2.5550
  844SOL    HW2 2532   2.257   2.352   2.798  1.0697 -1.6748 -0.6164
  845SOL     OW 2533   2.052   3.070   1.662 -0.0508 -0.2063  0.2141
  845SOL    HW1 2534   2.055   3.057   1.561  0.4497  2.3528  2.0534
  845SOL    HW2 2535   2.016   2.981   1.696 -1.9812 -1.2927 -0.0684
  846SOL     OW 2536   1.948   1.114   2.319 -0.0161  0.6426 -0.2391
  846SOL    HW1 2537   2.006   1.152   2.240  0.1956 -0.7495  0.7614
  846SOL    HW2 2538   2.011   1.105   2.399  0.5130  1.2520 -0.5362
  847SOL     OW 2539   2.233   2.913   2.091  0.3246  0.2902 -0.7740
  847SOL    HW1 2540   2.209   2.847   2.164 -0.6526 -3.6796 -0.7915
  847SOL    HW2 2541   2.243   2.864   1.997 -0.7438 -0.9771 -2.7378
  848SOL     OW 2542   0.025   2.837   0.161  0.2272 -0.8699  0.1721
  848SOL    HW1 2543   0.003   2.760   0.097 -0.1848 -1.4536  1.1817
  848SOL    HW2 2544   0.084   2.909   0.117  0.5707  2.1248 -0.6247
  849SOL     OW 2545   0.370   2.913   1.207  0.1489  0.2074  0.0792
  849SOL    HW1 2546   0.308   2.850   1.255  1.2528  0.4909 -0.1829
  849SOL    HW2 2547   0.367   2.888   1.105 -0.8637 -1.8410  1.2978
  850SOL     OW 2548   0.330   1.872   0.356  0.4027 -0.0360 -0.1860
  850SOL    HW1 2549   0.291   1.920   0.271 -1.2385  0.8860 -0.5986
  850SOL    HW2 2550   0.397   1.937   0.396 -1.2107  2.7599 -2.8666
  851SOL     OW 2551   2.158   0.806   2.889 -0.9051  0.4659  0.4651
  851SOL    HW1 2552   2.099   0.727   2.908  1.5358  1.0547  1.3082
  851SOL    HW2 2553   2.255   0.782   2.857  3.4433 -1.3255  2.4626
  852SOL     OW 2554   1.890   2.037   2.677 -0.2039  0.0542  0.1831
  852SOL    HW1 2555   1.874   1.957   2.612 -1.1958  0.3286  0.5266
  852SOL    HW2 2556   1.836   2.021   2.762 -0.7826 -0.3070  0.6266
  853SOL     OW 2557   0.545   2.077   0.336  0.1533  0.1102 -0.0388
  853SOL    HW1 2558   0.522   2.088   0.233  0.2512 -1.3715 -3.3131
  853SOL    HW2 2559   0.641   2.043   0.344  0.1848  2.0108  0.0430
  854SOL     OW 2560   1.670   1.003   2.016  0.2414  0.1871  0.3491
  854SOL    HW1 2561   1.639   0.906   2.014  0.5801 -0.6856 -0.9378
  854SOL    HW2 2562   1.607   1.053   1.954 -2.9613 -1.4123  0.5903
  855SOL     OW 2563   0.448   2.481   2.861 -0.2137 -0.3461  0.3222
  855SOL    HW1 2564   0.525   2.472   2.928 -2.5999  0.3305 -1.5742
  855SOL    HW2 2565   0.397   2.394   2.852  0.6756  2.1869 -2.3880
  856SOL     OW 2566   0.442   2.890   2.051  0.5417  0.1521  0.0418
  856SOL    HW1 2567   0.418   2.937   1.964  0.9682 -1.7592 -1.2484
  856SOL    HW2 2568   0.533   2.920   2.081 -0.8146 -1.6769 -0.6937
  857SOL     OW 2569   0.667   0.387   1.828  0.3280  0.0887  0.1229
  857SOL    HW1 2570   0.666   0.329   1.910 -0.0261 -1.3171 -0.8846
  857SOL    HW2 2571   0.603   0.466   1.830 -0.5323 -1.4899  0.0883
  858SOL     OW 2572   0.384   1.836   1.982  0.0982 -0.5663 -0.3239
  858SOL    HW1 2573   0.355   1.855   2.080 -0.7904  2.7971 -1.0399
  858SOL    HW2 2574   0.393   1.924   1.931  1.6026  0.6321 -1.8591
  859SOL     OW 2575   2.068   2.295   1.452 -0.1797 -0.2196  0.5153
  859SOL    HW1 2576   2.112   2.297   1.357  1.2760  0.1805 -0.2853
  859SOL    HW2 2577   2.069   2.388   1.501  1.0050  1.4267 -1.6274
  860SOL     OW 2578   1.769   0.626   0.672  0.0603  0.1097  0.6323
  860SOL    HW1 2579   1.786   0.724   0.662 -1.1646 -0.0803  1.4409
  860SOL    HW2 2580   1.673   0.608   0.706 -0.6799 -1.9962 -0.1830
  861SOL     OW 2581   0.038   0.348   1.039 -0.2726  0.1537  0.3920
  861SOL    HW1 2582   0.103   0.424   1.056 -0.2184 -1.8369  3.0912
  861SOL    HW2 2583   3.056   0.363   0.957 -1.0023 -1.9083 -1.4210
  862SOL     OW 2584   2.221   1.079   1.499 -0.2526 -0.5504 -0.1499
  862SOL    HW1 2585   2.156   1.033   1.433 -1.1505  1.3725 -0.0659
  862SOL    HW2 2586   2.212   1.184   1.491 -0.4421  1.0907  1.4383
  863SOL     OW 2587   0.347   1.127   1.288 -0.3871  0.0973 -0.2515
  863SOL    HW1 2588   0.376   1.030   1.286  0.4686 -1.8189 -0.2159
  863SOL    HW2 2589   0.424   1.192   1.272  2.3343 -0.9239 -0.8353
  864SOL     OW 2590   2.544   2.967   2.002 -0.0603  0.4272 -0.2857
  864SOL    HW1 2591   2.630   2.960   1.951  0.4695  1.1583  0.5013
  864SOL    HW2 2592   2.534   3.051   2.062  0.8513  0.2843  3.7929
  865SOL     OW 2593   0.986   0.550   2.197 -0.1085 -0.6807 -0.3215
  865SOL    HW1 2594   0.962   0.522   2.103 -1.4429 -1.4759  1.0628
  865SOL    HW2 2595   1.085   0.535   2.216  1.4501 -1.8592 -1.6164
  866SOL     OW 2596   2.470   2.819   0.498 -0.0339 -0.1056  0.2138
  866SOL    HW1 2597   2.500   2.899   0.566  0.7529  1.4237  1.3729
  866SOL    HW2 2598   2.483   2.844   0.398 -2.4726 -1.4452 -1.6296
  867SOL     OW 2599   2.717   2.788   0.797 -0.1498 -0.6577 -0.4884
  867SOL    HW1 2600   2.671   2.702   0.776  2.1031  2.2321  0.8335
  867SOL    HW2 2601   2.818   2.778   0.804 -1.4705 -1.1753 -0.2393
  868SOL     OW 2602   1.732   1.604   2.744  0.4404 -0.0485  0.5377
  868SOL    HW1 2603   1.758   1.681   2.799  1.8354 -1.4571 -0.3642
  868SOL    HW2 2604   1.663   1.547   2.793 -2.0575 -0.0905  0.8665
  869SOL     OW 2605   2.742   2.364   0.658 -0.1836 -0.5452 -0.9203
  869SOL    HW1 2606   2.686   2.285   0.633  1.3372 -1.7285  1.2057
  869SOL    HW2 2607   2.683   2.448   0.676  1.1409  0.9998  0.0711
  870SOL     OW 2608   2.963   2.076   0.353  0.2030  0.2445  0.1885
  870SOL    HW1 2609   3.021   2.092   0.438  0.7198  3.2004  1.6693
  870SOL    HW2 2610   2.923   1.981   0.350 -2.2037 -1.9749  0.2253
  871SOL     OW 2611   0.185   1.293   1.156 -0.1225  0.1358 -0.1467
  871SOL    HW1 2612   0.247   1.234   1.213  1.6917 -0.2655  1.6831
  871SOL    HW2 2613   0.194   1.276   1.058 -0.9524  2.1363 -1.1496
  872SOL     OW 2614   0.920   1.726   2.404  0.3756  0.0837 -0.1352
  872SOL    HW1 2615   0.855   1.653   2.376  1.1405  2.5860 -2.9624
  872SOL    HW2 2616   0.869   1.803   2.453  1.8850 -2.5573 -2.7435
  873SOL     OW 2617   0.353   3.044   1.830 -0.4656 -0.1290 -0.3375
  873SOL    HW1 2618   0.304   0.048   1.810  1.0260  2.3455  0.8886
  873SOL    HW2 2619   0.451   3.070   1.819  2.1365 -1.6498 -1.4247
  874SOL     OW 2620   0.925   0.475   1.936 -0.0523  0.1819  0.3371
  874SOL    HW1 2621   0.842   0.454   1.878  0.0141 -1.5110 -1.2017
  874SOL    HW2 2622   1.005   0.436   1.880  1.5492 -2.7360 -2.9020
  875SOL     OW 2623   2.856   0.165   0.984  0.2922  1.1278 -0.3492
  875SOL    HW1 2624   2.886   0.261   0.960  0.9405 -0.3548 -2.4935
  875SOL    HW2 2625   2.756   0.162   0.999 -1.8991  0.4009  1.6150
  876SOL     OW 2626   0.423   1.252   0.394  0.2342  0.7355 -0.6759
  876SOL    HW1 2627   0.360   1.181   0.354  0.5049  1.5731  0.1541
  876SOL    HW2 2628   0.486   1.286   0.322  1.4930 -2.0104 -0.6930
  877SOL     OW 2629   1.132   1.178   1.705  0.5073 -0.1535 -0.8146
  877SOL    HW1 2630   1.166   1.100   1.646  0.6872 -0.4496  0.2088
  877SOL    HW2 2631   1.032   1.173   1.712  3.5029  1.2351 -2.9331
  878SOL     OW 2632   2.488   2.197   0.531 -0.1975 -0.3599 -0.4465
  878SOL    HW1 2633   2.477   2.103   0.491  1.5589  0.6382 -0.1548
  878SOL    HW2 2634   2.486   2.270   0.459  0.9186 -1.8803  1.4827
  879SOL     OW 2635   2.629   1.583   1.653 -0.4053  0.3334 -0.6623
  879SOL    HW1 2636   2.693   1.531   1.594  2.1220  0.9403  0.7708
  879SOL    HW2 2637   2.674   1.675   1.666 -0.1425 -1.0771  1.7575
  880SOL     OW 2638   1.135   2.518   0.782 -0.1351 -0.1791  0.1408
  880SOL    HW1 2639   1.052   2.535   0.844  0.6424  1.7022  1.1403
  880SOL    HW2 2640   1.210   2.581   0.803  3.2075 -0.0496 -0.6679
  881SOL     OW 2641   0.562   2.284   0.505  0.4315 -0.4025  0.5217
  881SOL    HW1 2642   0.551   2.206   0.443  1.1511  0.7669  3.3755
  881SOL    HW2 2643   0.493   2.357   0.477  0.8933 -0.7194  0.1688
  882SOL     OW 2644   1.914   0.915   0.842  0.4287  0.2101 -0.5067
  882SOL    HW1 2645   1.903   0.913   0.742  2.0379  0.5641  1.5574
  882SOL    HW2 2646   2.013   0.885   0.855  0.1950  1.8349  0.8834
  883SOL     OW 2647   1.446   0.779   1.014 -0.1665 -0.2072  0.3206
  883SOL    HW1 2648   1.346   0.782   1.004  2.7568  0.9032  1.3331
  883SOL    HW2 2649   1.484   0.876   1.032  0.9517  6.9983  1.2212
  884SOL     OW 2650   2.828   2.798   0.184 -0.4361  0.2618 -0.2129
  884SOL    HW1 2651   2.929   2.798   0.157  3.0286 -2.1578  0.5047
  884SOL    HW2 2652   2.817   2.862   0.266  1.5482  0.6246 -0.1199
  885SOL     OW 2653   0.978   1.285   2.552 -0.3204 -0.0378  0.0957
  885SOL    HW1 2654   1.041   1.271   2.632  1.5365  1.7119  1.9969
  885SOL    HW2 2655   1.025   1.340   2.477  0.2977 -0.3950 -0.1268
  886SOL     OW 2656   1.257   1.773   2.561  0.4235 -0.7000 -0.0320
  886SOL    HW1 2657   1.205   1.790   2.649 -0.6815  2.4368 -0.1194
  886SOL    HW2 2658   1.266   1.854   2.499  3.3343 -1.7826  2.6824
  887SOL     OW 2659   1.181   0.396   1.213  0.7671  0.0604 -0.2509
  887SOL    HW1 2660   1.200   0.426   1.117 -0.3976 -0.6136  2.0334
  887SOL    HW2 2661   1.210   0.467   1.277  0.1630 -1.6189  0.2751
  888SOL     OW 2662   2.120   0.555   1.933 -0.0117  0.5185 -0.1705
  888SOL    HW1 2663   2.158   0.637   1.984  0.9030  1.7808  0.5628
  888SOL    HW2 2664   2.019   0.550   1.934 -1.1601 -1.3000  1.5410
  889SOL     OW 2665   0.180   2.472   0.631  0.3991  0.5799 -0.0291
  889SOL    HW1 2666   0.188   2.570   0.648 -0.9828 -1.1151  0.2544
  889SOL    HW2 2667   0.081   2.443   0.630 -1.7700  1.0565 -0.0546
  890SOL     OW 2668   1.644   2.211   0.580  0.0167  0.6633  0.0810
  890SOL    HW1 2669   1.708   2.139   0.613  1.9955 -1.6099 -2.1250
  890SOL    HW2 2670   1.549   2.178   0.606 -0.2968 -0.2091 -0.5706
  891SOL     OW 2671   2.723   1.015   3.067 -0.5684  0.7610  0.1693
  891SOL    HW1 2672   2.761   1.057   0.070  1.8875  1.3533  0.6580
  891SOL    HW2 2673   2.622   0.991   3.074 -2.7033 -0.2320  0.4617
  892SOL     OW 2674   2.736   2.449   1.069  0.5877 -0.4350  0.2375
  892SOL    HW1 2675   2.673   2.462   0.992 -0.4393  0.5594  0.4829
  892SOL    HW2 2676   2.779   2.535   1.100  2.0575  1.1587 -0.8824
  893SOL     OW 2677   1.237   0.492   0.974 -0.3122 -0.6263  0.1111
  893SOL    HW1 2678   1.338   0.478   0.973  0.8993  2.0569  0.3341
  893SOL    HW2 2679   1.219   0.595   0.970  1.5150  2.7676 -0.1826
  894SOL     OW 2680   2.896   0.640   0.961 -0.7289  0.0177 -0.3624
  894SOL    HW1 2681   2.815   0.693   0.969  3.2651  0.7483 -1.6861
  894SOL    HW2 2682   2.974   0.672   1.015  1.1266  2.3327  0.5432
  895SOL     OW 2683   1.709   1.518   2.302  0.2327 -0.1934 -0.1040
  895SOL    HW1 2684   1.623   1.567   2.326  2.7231 -2.3162  1.7868
  895SOL    HW2 2685   1.702   1.462   2.220  0.5316  3.0710  1.2967
  896SOL     OW 2686   1.861   0.519   1.344  0.1522 -0.1729  0.1941
  896SOL    HW1 2687   1.911   0.435   1.376 -2.3372  1.4466 -0.5824
  896SOL    HW2 2688   1.852   0.516   1.242 -0.3405 -1.2815 -1.1352
  897SOL     OW 2689   0.280   1.220   1.551  0.0308 -0.4001 -0.3268
  897SOL    HW1 2690   0.337   1.304   1.578 -0.4122  1.2663  0.4818
  897SOL    HW2 2691   0.298   1.197   1.456 -0.2444 -2.2877  2.7634
  898SOL     OW 2692   2.003   2.518   2.144  0.9508 -0.0328 -0.3493
  898SOL    HW1 2693   1.991   2.485   2.047  0.0942  0.2366 -3.5176
  898SOL    HW2 2694   2.017   2.441   2.206  0.1389  0.5461  1.5037
  899SOL     OW 2695   1.264   1.729   1.033  0.2784 -0.3727  0.3595
  899SOL    HW1 2696   1.347   1.787   1.007  1.8900 -1.1997 -1.7958
  899SOL    HW2 2697   1.185   1.790   1.019  0.0266  0.3444  0.6710
  900SOL     OW 2698   1.245   2.001   2.406  0.0361  0.1857  0.1692
  900SOL    HW1 2699   1.254   1.968   2.309 -1.2712 -0.0456 -1.5014
  900SOL    HW2 2700   1.223   2.100   2.408  0.0103  1.8096 -2.1465
  901SOL     OW 2701   0.771   1.528   2.292 -0.6757 -0.0763  0.1670
  901SOL    HW1 2702   0.808   1.462   2.227 -1.0791  0.6960 -2.8663
  901SOL    HW2 2703   0.749   1.472   2.368  1.3054  3.4308 -2.0442
  902SOL     OW 2704   2.430   1.496   0.504 -0.0580 -0.2809  0.3868
  902SOL    HW1 2705   2.477   1.467   0.418  1.3757 -0.2503  0.9157
  902SOL    HW2 2706   2.450   1.437   0.582 -0.5399  2.1571 -1.1197
  903SOL     OW 2707   2.236   1.643   0.352  0.1623  0.4737  0.1963
  903SOL    HW1 2708   2.291   1.577   0.402 -1.4211 -1.2713 -0.6484
  903SOL    HW2 2709   2.154   1.663   0.409 -1.5871  0.4354 -0.0343
  904SOL     OW 2710   1.217   1.197   2.253  0.3783 -0.5418  0.3029
  904SOL    HW1 2711   1.288   1.263   2.262 -0.8144  0.3293 -1.5601
  904SOL    HW2 2712   1.243   1.116   2.309  2.3048 -0.8773 -3.4956
  905SOL     OW 2713   2.828   0.037   0.640 -0.3551  0.2182 -0.1641
  905SOL    HW1 2714   2.863   0.127   0.617  0.1009 -2.1664  2.0322
  905SOL    HW2 2715   2.894   3.075   0.708 -1.7418 -2.7330  0.5504
  906SOL     OW 2716   0.063   1.974   0.163 -0.3086  0.1335 -0.0477
  906SOL    HW1 2717   0.041   1.874   0.185  1.1588 -1.1523  1.5709
  906SOL    HW2 2718   3.068   2.040   0.185  0.3871  0.9067 -1.2528
  907SOL     OW 2719   1.441   0.376   0.153 -0.2440 -0.0686 -0.2430
  907SOL    HW1 2720   1.401   0.284   0.150  0.7773  1.1412  0.4341
  907SOL    HW2 2721   1.474   0.402   0.247  0.5329  0.9443  1.2737
  908SOL     OW 2722   1.686   2.767   1.635 -0.0830  0.2397  0.2862
  908SOL    HW1 2723   1.761   2.703   1.659 -0.6122  0.4006  0.0425
  908SOL    HW2 2724   1.633   2.797   1.719 -2.1123 -2.4198  2.4170
  909SOL     OW 2725   2.576   0.666   1.673  0.6392 -0.2077  0.8449
  909SOL    HW1 2726   2.495   0.623   1.721  0.7159 -0.2123 -0.9943
  909SOL    HW2 2727   2.630   0.727   1.737  1.1418 -0.2189  0.6889
  910SOL     OW 2728   1.186   0.099   2.442 -0.2790 -0.5519  0.1537
  910SOL    HW1 2729   1.272   0.133   2.403 -2.6703 -2.3141  0.1026
  910SOL    HW2 2730   1.169   0.000   2.445  0.5503  2.8631 -0.4245
  911SOL     OW 2731   2.395   1.163   2.243  0.9226  0.5095  0.5631
  911SOL    HW1 2732   2.482   1.202   2.279  0.9065  0.6309 -0.6121
  911SOL    HW2 2733   2.324   1.230   2.277 -0.0041 -1.8098 -0.0026
  912SOL     OW 2734   2.430   2.031   1.602 -0.0853 -0.1230 -0.0832
  912SOL    HW1 2735   2.471   2.125   1.587  0.2866  1.1857  0.2945
  912SOL    HW2 2736   2.349   2.018   1.541  1.2634  0.8623 -0.8380
  913SOL     OW 2737   2.432   2.511   1.249 -0.1358 -0.4264  0.3871
  913SOL    HW1 2738   2.505   2.442   1.269 -3.3518 -1.2187 -0.0729
  913SOL    HW2 2739   2.469   2.608   1.261  2.8933 -2.1523 -0.2347
  914SOL     OW 2740   2.400   1.808   1.338 -0.1558  0.0003 -0.1854
  914SOL    HW1 2741   2.387   1.731   1.398  2.3852  1.6237 -1.4155
  914SOL    HW2 2742   2.327   1.878   1.356 -0.4747 -0.2368  0.8976
  915SOL     OW 2743   1.162   2.488   1.477  0.4630 -0.1249  0.2067
  915SOL    HW1 2744   1.097   2.407   1.477  2.9596  0.5383  3.2571
  915SOL    HW2 2745   1.260   2.456   1.486  1.6600  0.5196 -0.4892
  916SOL     OW 2746   2.899   2.686   1.061  0.0115  0.2784  0.2851
  916SOL    HW1 2747   2.995   2.708   1.025  0.3572 -0.6495  2.5266
  916SOL    HW2 2748   2.853   2.776   1.080 -2.2351 -1.6921 -0.2605
  917SOL     OW 2749   2.553   1.231   2.654 -0.3407 -0.2499  0.3355
  917SOL    HW1 2750   2.626   1.279   2.715  2.8031  0.6825  0.3444
  917SOL    HW2 2751   2.539   1.283   2.566 -0.9512  0.5244  3.0222
  918SOL     OW 2752   1.856   1.832   2.493  0.2004  0.0002  0.3578
  918SOL    HW1 2753   1.755   1.826   2.505  0.0462  0.9572  1.4620
  918SOL    HW2 2754   1.902   1.742   2.477  1.2107 -1.7278 -0.7680
  919SOL     OW 2755   1.583   2.160   1.457 -0.4836 -0.0649  0.1364
  919SOL    HW1 2756   1.582   2.115   1.549  1.8084 -0.3028 -1.5534
  919SOL    HW2 2757   1.679   2.160   1.422  0.9244 -3.6465  0.4358
  920SOL     OW 2758   0.601   3.076   2.951  0.4581  0.0808 -0.2851
  920SOL    HW1 2759   0.587   3.071   2.849 -0.4487  1.2842 -0.4700
  920SOL    HW2 2760   0.513   3.075   2.998  5.0820 -1.2504  0.8065
  921SOL     OW 2761   2.675   0.183   2.447  0.0749 -0.3647 -0.3053
  921SOL    HW1 2762   2.667   0.082   2.450  0.7447  0.4098 -0.9412
  921SOL    HW2 2763   2.635   0.218   2.359 -0.1351 -0.4054 -0.1486
  922SOL     OW 2764   2.399   1.644   1.554 -0.2019  0.4981  0.2597
  922SOL    HW1 2765   2.489   1.612   1.584  0.8527 -0.6714 -0.2589
  922SOL    HW2 2766   2.342   1.674   1.635  1.2899 -0.2158  3.0836
  923SOL     OW 2767   1.064   1.997   0.281  0.4304 -0.2992 -0.5744
  923SOL    HW1 2768   1.075   2.068   0.357  0.2840  0.7062  2.5496
  923SOL    HW2 2769   1.122   2.017   0.200  0.4516 -2.7989 -0.2719
  924SOL     OW 2770   1.556   0.629   2.797 -0.0557  0.2253  0.4313
  924SOL    HW1 2771   1.524   0.607   2.894 -0.7220  0.8878  1.4306
  924SOL    HW2 2772   1.640   0.576   2.773  2.0141  1.8841 -0.4776
  925SOL     OW 2773   2.549   0.723   0.236 -0.0710 -0.1760 -0.0182
  925SOL    HW1 2774   2.591   0.781   0.310 -0.6135 -0.1640 -1.5724
  925SOL    HW2 2775   2.468   0.758   0.193  0.8516 -1.2658  2.6762
  926SOL     OW 2776   0.215   0.794   0.629  0.3618  0.4035  0.2604
  926SOL    HW1 2777   0.196   0.694   0.653  0.5646 -0.6963  0.7129
  926SOL    HW2 2778   0.166   0.822   0.547  2.5198 -0.1504  2.4151
  927SOL     OW 2779   0.878   1.280   0.693  0.0870  0.2141  0.0313
  927SOL    HW1 2780   0.806   1.230   0.644 -0.4352  0.9545  1.5767
  927SOL    HW2 2781   0.873   1.379   0.675  1.0150 -0.7249 -0.1298
  928SOL     OW 2782   0.151   0.016   2.458  0.2280  0.4250 -0.1794
  928SOL    HW1 2783   0.243   3.051   2.448 -1.9745  0.9939 -1.4093
  928SOL    HW2 2784   0.158   0.118   2.471 -0.3716  0.1687  0.0392
  929SOL     OW 2785   2.415   0.210   1.351 -0.2944  0.5781 -0.0476
  929SOL    HW1 2786   2.422   0.277   1.428 -0.7692  0.3797  4.0897
  929SOL    HW2 2787   2.507   0.176   1.323  0.3056  0.7956  2.4775
  930SOL     OW 2788   1.850   2.133   1.412  0.2785  0.5378 -0.2747
  930SOL    HW1 2789   1.922   2.210   1.407  1.8450  0.7338 -0.9383
  930SOL    HW2 2790   1.874   2.059   1.481 -1.1042  1.0968 -0.2270
  931SOL     OW 2791   1.888   1.046   1.097  0.1344  0.4381  0.1680
  931SOL    HW1 2792   1.925   0.980   1.023  2.0059 -0.0077 -2.7129
  931SOL    HW2 2793   1.889   1.139   1.062  0.0211  0.5547  1.4330
  932SOL     OW 2794   2.777   0.851   1.158  0.0771  0.1113  0.5779
  932SOL    HW1 2795   2.708   0.862   1.234 -1.6855  1.9579 -0.3419
  932SOL    HW2 2796   2.864   0.819   1.190 -3.7662  1.2684 -1.2338
  933SOL     OW 2797   2.502   1.686   1.997 -0.3574 -0.0847 -0.5083
  933SOL    HW1 2798   2.548   1.606   1.949  2.0319  1.3388 -0.5001
  933SOL    HW2 2799   2.489   1.768   1.933 -0.3557  2.9004 -4.0146
  934SOL     OW 2800   1.681   2.933   1.213  0.1490  0.4997 -0.3391
  934SOL    HW1 2801   1.612   2.863   1.245  0.7050 -2.3534 -1.5545
  934SOL    HW2 2802   1.666   2.955   1.112 -0.2212 -1.4492 -0.4963
  935SOL     OW 2803   2.775   1.045   0.966  0.0372  0.0073  0.2700
  935SOL    HW1 2804   2.788   0.959   1.025  0.7179 -0.6751  2.0604
  935SOL    HW2 2805   2.811   1.039   0.870 -0.3163 -0.4831 -2.1729
  936SOL     OW 2806   2.875   1.304   1.076  0.4284  0.3223 -0.5090
  936SOL    HW1 2807   2.823   1.228   1.035 -0.2554  1.0900 -1.3448
  936SOL    HW2 2808   2.823   1.393   1.080  0.8131 -0.9365 -0.5587
  937SOL     OW 2809   1.456   3.004   0.655 -0.0752  0.6452  0.1498
  937SOL    HW1 2810   1.499   3.037   0.564  2.9613 -0.1731 -1.6030
  937SOL    HW2 2811   1.518   2.933   0.693 -0.6677 -0.1970 -0.4319
  938SOL     OW 2812   3.012   2.407   0.683 -0.0655 -0.1759  0.3278
  938SOL    HW1 2813   2.913   2.390   0.668 -0.5952  1.8066 -0.9339
  938SOL    HW2 2814   3.037   2.421   0.782  0.0093  3.2457  1.8556
  939SOL     OW 2815   0.929   2.048   2.812 -0.3366 -0.0013  0.4817
  939SOL    HW1 2816   0.890   2.015   2.899  1.6827 -1.5148  1.3350
  939SOL    HW2 2817   0.884   2.136   2.778  0.5284 -1.1758  0.4730
  940SOL     OW 2818   2.710   2.668   2.528  0.1489 -0.4841 -0.5506
  940SOL    HW1 2819   2.736   2.639   2.438 -0.9859 -0.2608  2.2604
  940SOL    HW2 2820   2.614   2.705   2.528 -1.5338  0.2699  2.2085
  941SOL     OW 2821   1.098   2.793   0.020  0.0473 -0.4377  0.3440
  941SOL    HW1 2822   1.071   2.855   0.091  2.7454 -3.2798 -3.7176
  941SOL    HW2 2823   1.196   2.801   0.002 -0.4556  1.4865  3.8528
  942SOL     OW 2824   1.717   1.764   1.501  0.0399 -0.2618  0.0288
  942SOL    HW1 2825   1.736   1.678   1.549 -1.4598 -3.2813  0.8639
  942SOL    HW2 2826   1.713   1.847   1.567  0.6358  3.3359  0.3760
  943SOL     OW 2827   2.210   1.191   1.774  0.1300  0.5300 -0.1787
  943SOL    HW1 2828   2.236   1.244   1.688 -1.0598  1.5395 -2.4511
  943SOL    HW2 2829   2.233   1.260   1.846  0.5679  1.1146 -1.3298
  944SOL     OW 2830   2.006   1.010   1.959  0.1433  0.0876  0.0881
  944SOL    HW1 2831   2.062   0.971   1.886 -1.1085  1.6932  2.6815
  944SOL    HW2 2832   1.905   0.988   1.951 -2.3056 -0.0550 -0.2143
  945SOL     OW 2833   2.789   2.959   1.115  0.2709 -0.0075 -1.0608
  945SOL    HW1 2834   2.701   2.907   1.123  0.3008 -1.3839  1.6585
  945SOL    HW2 2835   2.793   3.049   1.069 -1.2216 -1.8102  3.8314
  946SOL     OW 2836   0.467   1.098   1.932  0.0886  0.1684 -0.4920
  946SOL    HW1 2837   0.433   1.188   1.908 -1.0626 -1.1839  2.0118
  946SOL    HW2 2838   0.503   1.099   2.027 -1.5426 -0.8001 -0.7651
  947SOL     OW 2839   0.483   2.682   0.781 -0.5376  0.5792  0.5616
  947SOL    HW1 2840   0.557   2.645   0.716  0.2868 -0.6974 -1.6937
  947SOL    HW2 2841   0.462   2.616   0.850 -0.3511  1.2059 -0.2950
  948SOL     OW 2842   0.020   0.945   1.813  0.3063  0.1035  0.8984
  948SOL    HW1 2843   3.055   0.915   1.898 -0.6639 -1.9897 -1.5871
  948SOL    HW2 2844   0.001   1.043   1.792 -1.0477 -0.5797  2.2957
  949SOL     OW 2845   0.295   0.597   2.238 -0.4811  0.1538  0.1831
  949SOL    HW1 2846   0.362   0.675   2.262  0.9255 -0.9086 -1.5304
  949SOL    HW2 2847   0.323   0.515   2.290 -0.7922  0.0933 -0.8248
  950SOL     OW 2848   0.626   0.649   0.967  0.1818  0.3688 -0.2902
  950SOL    HW1 2849   0.619   0.727   0.901 -1.7724 -1.3021  1.2820
  950SOL    HW2 2850   0.603   0.566   0.912  0.9656  0.6258 -0.1603
  951SOL     OW 2851   1.106   1.797   1.843  0.3356 -0.0567 -0.2010
  951SOL    HW1 2852   1.144   1.844   1.926  1.6749  0.3595  2.7381
  951SOL    HW2 2853   1.044   1.719   1.869 -0.4185 -2.1246  0.8880
  952SOL     OW 2854   1.005   1.252   2.952 -0.2647  0.0469  0.8114
  952SOL    HW1 2855   1.040   1.312   3.027 -0.8941  0.7957  2.7905
  952SOL    HW2 2856   1.067   1.261   2.871  0.4591  3.3931  2.1767
  953SOL     OW 2857   1.316   2.978   2.141  0.7530 -0.1934 -0.4473
  953SOL    HW1 2858   1.266   2.909   2.081 -2.2528 -0.4252 -1.8420
  953SOL    HW2 2859   1.408   2.999   2.107 -2.2424  0.7155  1.3059
  954SOL     OW 2860   2.320   1.069   0.577 -0.0669 -0.2878 -0.3793
  954SOL    HW1 2861   2.273   1.066   0.486  1.2862 -1.5370  1.1521
  954SOL    HW2 2862   2.275   1.118   0.655  1.7592 -2.1957  0.2110
  955SOL     OW 2863   0.317   1.900   2.251  0.1838 -0.6475 -0.7959
  955SOL    HW1 2864   0.375   1.988   2.271  3.1226  3.3120 -2.2545
  955SOL    HW2 2865   0.282   1.856   2.337  0.3706 -0.7432  1.1464
  956SOL     OW 2866   1.036   1.275   1.314  0.1943  0.0243  0.2316
  956SOL    HW1 2867   1.113   1.219   1.275 -1.3382 -0.6080 -1.6089
  956SOL    HW2 2868   0.966   1.297   1.243 -0.6931  0.6940 -0.1818
  957SOL     OW 2869   2.063   1.385   2.550  0.4957 -0.1970 -0.2896
  957SOL    HW1 2870   1.957   1.377   2.547  3.2236 -0.6020 -2.8768
  957SOL    HW2 2871   2.099   1.285   2.564 -1.4519 -2.3973 -1.8058
  958SOL     OW 2872   1.605   2.544   0.832 -0.2278  0.0586  0.3664
  958SOL    HW1 2873   1.539   2.525   0.904  1.3947  1.9666 -1.0264
  958SOL    HW2 2874   1.699   2.539   0.863  2.8123 -0.8034 -2.4845
  959SOL     OW 2875   1.983   1.603   2.388 -0.1296 -0.2764 -0.5026
  959SOL    HW1 2876   2.004   1.528   2.452 -0.5259 -0.2486  0.3740
  959SOL    HW2 2877   1.898   1.594   2.334 -0.8502 -1.5143  1.0718
  960SOL     OW 2878   3.029   0.533   2.723 -0.6098  0.4475 -0.3002
  960SOL    HW1 2879   0.045   0.578   2.723  3.0084  0.5698 -3.8393
  960SOL    HW2 2880   2.992   0.510   2.633  1.8680 -0.4598  0.5619
  961SOL     OW 2881   0.303   0.588   1.822 -0.2458  0.2259  0.0862
  961SOL    HW1 2882   0.234   0.649   1.864  0.6545 -1.9041  1.1524
  961SOL    HW2 2883   0.398   0.599   1.866 -0.5211 -0.2513  0.2743
  962SOL     OW 2884   1.319   1.399   0.316  0.4050 -0.6260  0.0838
  962SOL    HW1 2885   1.329   1.415   0.216 -0.7701 -0.5452  0.7262
  962SOL    HW2 2886   1.339   1.302   0.339 -1.6285  0.0278  1.0278
  963SOL     OW 2887   1.790   2.067   2.972  0.2147  0.4111 -0.1974
  963SOL    HW1 2888   1.875   2.123   2.985  2.1250 -0.4569  1.9465
  963SOL    HW2 2889   1.701   2.116   2.950 -0.2875  0.7240 -2.4652
  964SOL     OW 2890   1.086   2.942   0.674  0.3182  0.2067  0.0475
  964SOL    HW1 2891   1.109   2.998   0.590 -0.1310  1.1119 -1.6733
  964SOL    HW2 2892   1.167   2.887   0.706 -1.4338  1.4188 -2.4365
  965SOL     OW 2893   0.797   2.807   0.917 -0.4464  0.2709  0.3780
  965SOL    HW1 2894   0.761   2.762   0.833  0.3271  0.5897 -1.6626
  965SOL    HW2 2895   0.734   2.789   0.998 -1.3688 -1.1976  0.5585
  966SOL     OW 2896   2.823   1.705   3.005  0.2274 -0.5196 -0.4315
  966SOL    HW1 2897   2.768   1.747   2.930 -0.5823  1.6708  1.6682
  966SOL    HW2 2898   2.796   1.607   3.031 -1.6031 -0.1663  1.7684
  967SOL     OW 2899   1.580   2.867   1.882 -0.5553  0.5200  0.3068
  967SOL    HW1 2900   1.523   2.785   1.904  0.5939 -2.3919  0.1734
  967SOL    HW2 2901   1.568   2.937   1.953  0.4704 -0.2819 -1.1721
  968SOL     OW 2902   1.813   0.932   0.582  0.4816  0.5794 -0.4533
  968SOL    HW1 2903   1.809   0.926   0.483 -0.2930  2.8087  0.7731
  968SOL    HW2 2904   1.717   0.950   0.617 -1.7270  0.3662  0.9839
  969SOL     OW 2905   0.184   1.661   2.057  0.1581  0.5098  0.7294
  969SOL    HW1 2906   0.110   1.634   1.992 -1.9448 -0.7294 -0.4513
  969SOL    HW2 2907   0.242   1.736   2.025  1.6047 -1.2909  1.1049
  970SOL     OW 2908   2.807   1.475   1.486  0.7357 -0.6785 -0.0804
  970SOL    HW1 2909   2.860   1.513   1.405 -1.5521 -2.8190  1.8230
  970SOL    HW2 2910   2.872   1.420   1.543 -1.8198 -0.3376  0.2969
  971SOL     OW 2911   1.447   0.465   1.530  0.2867 -0.1127 -0.4591
  971SOL    HW1 2912   1.456   0.423   1.439 -2.7919 -1.1845  1.6605
  971SOL    HW2 2913   1.520   0.435   1.597 -2.1319 -1.1877  3.5841
  972SOL     OW 2914   0.922   0.154   2.413 -0.1484  0.3930 -0.1213
  972SOL    HW1 2915   1.020   0.142   2.432  2.1450  1.5049 -0.2466
  972SOL    HW2 2916   0.903   0.255   2.411 -0.8465  1.8452  1.5046
  973SOL     OW 2917   2.785   1.302   0.504  0.1247 -0.2280 -0.5622
  973SOL    HW1 2918   2.693   1.261   0.520  0.2744 -1.3176 -1.7242
  973SOL    HW2 2919   2.840   1.254   0.437 -0.1991  0.4448  3.4432
  974SOL     OW 2920   1.883   1.416   2.016 -0.3939  0.2585  0.0238
  974SOL    HW1 2921   1.782   1.410   1.994 -0.4188 -0.6671 -0.1827
  974SOL    HW2 2922   1.921   1.326   2.046 -0.1085  0.9568 -0.5287
  975SOL     OW 2923   3.005   2.719   0.479 -0.0506  0.0795  0.1625
  975SOL    HW1 2924   3.006   2.717   0.580  1.5560 -1.0548 -1.3592
  975SOL    HW2 2925   2.942   2.792   0.444  1.0183  2.0872 -2.8285
  976SOL     OW 2926   2.973   1.691   1.832  0.2349 -0.1354 -0.1566
  976SOL    HW1 2927   3.013   1.667   1.741  2.9830 -0.2528 -1.0893
  976SOL    HW2 2928   2.932   1.783   1.827 -0.8992 -0.8838 -1.8268
  977SOL     OW 2929   0.928   2.540   0.096 -0.6344  0.0104  0.6845
  977SOL    HW1 2930   1.023   2.494   0.095  0.6523 -3.5782  0.1427
  977SOL    HW2 2931   0.933   2.639   0.075 -0.9928  0.2544  1.0157
  978SOL     OW 2932   0.747   1.959   3.002  0.7684  0.0187  0.1266
  978SOL    HW1 2933   0.735   1.890   3.075  0.2067  1.2267  2.8951
  978SOL    HW2 2934   0.735   2.053   3.043 -2.8334  1.2474 -0.1988
  979SOL     OW 2935   1.282   2.251   1.056 -0.3905 -0.9443  0.3792
  979SOL    HW1 2936   1.377   2.245   1.013 -0.4374  1.6883 -0.7608
  979SOL    HW2 2937   1.206   2.242   0.985 -0.7472  1.1474 -1.7407
  980SOL     OW 2938   0.237   1.332   2.455 -0.0567  0.2311 -0.4681
  980SOL    HW1 2939   0.284   1.398   2.520  2.1693  0.7537 -0.1305
  980SOL    HW2 2940   0.201   1.384   2.372 -2.0937 -1.3707  0.0374
  981SOL     OW 2941   2.623   0.621   2.874  0.2657 -0.1433 -0.5286
  981SOL    HW1 2942   2.704   0.688   2.881  3.2628  3.5181 -0.2036
  981SOL    HW2 2943   2.655   0.533   2.835  1.3703  0.6033 -0.3837
  982SOL     OW 2944   2.897   2.739   2.731 -0.0249  0.3647  0.4493
  982SOL    HW1 2945   2.990   2.729   2.691 -0.3942 -0.9489 -0.2478
  982SOL    HW2 2946   2.822   2.727   2.659 -2.4046 -0.1116 -0.8331
  983SOL     OW 2947   2.264   0.492   1.540 -0.7566  0.0215  0.8221
  983SOL    HW1 2948   2.185   0.520   1.600 -0.3872 -0.2958  0.8770
  983SOL    HW2 2949   2.291   0.393   1.557 -0.9198 -3.7744 -1.4991
  984SOL     OW 2950   0.925   3.080   2.203  0.0433  0.0061  0.4620
  984SOL    HW1 2951   0.928   0.044   2.294  1.6854 -1.3278  1.4994
  984SOL    HW2 2952   0.929   2.978   2.210  3.9763 -3.2329  0.0538
  985SOL     OW 2953   1.409   2.029   1.962 -0.0898 -0.4135  0.2410
  985SOL    HW1 2954   1.473   1.952   1.940 -2.0842 -0.0041 -0.7543
  985SOL    HW2 2955   1.439   2.084   2.042 -0.7205 -2.0240 -2.7206
  986SOL     OW 2956   1.728   0.440   2.189 -0.2174  0.0651  0.1306
  986SOL    HW1 2957   1.773   0.500   2.254 -2.0646 -3.0056  0.8644
  986SOL    HW2 2958   1.749   0.341   2.198  0.3617  0.0943  1.5229
  987SOL     OW 2959   2.424   0.456   2.415 -0.1992 -0.5266 -0.4899
  987SOL    HW1 2960   2.392   0.497   2.505 -0.2544  0.8275 -2.1528
  987SOL    HW2 2961   2.352   0.393   2.384 -1.1735  1.8217 -0.5818
  988SOL     OW 2962   2.686   0.468   2.343 -0.8557  0.2132 -0.0568
  988SOL    HW1 2963   2.716   0.515   2.426 -0.2924 -3.2029 -1.7440
  988SOL    HW2 2964   2.589   0.442   2.355  2.4006 -0.2861  1.3196
  989SOL     OW 2965   2.441   2.299   2.727  0.2387  0.1495  0.0239
  989SOL    HW1 2966   2.524   2.278   2.796  3.7365  3.4837  2.2404
  989SOL    HW2 2967   2.409   2.210   2.684  1.3583 -1.4615 -0.9994
  990SOL     OW 2968   0.224   0.371   3.038 -0.0704  0.2637  0.6579
  990SOL    HW1 2969   0.188   0.456   3.000 -1.6059 -2.2519  0.1182
  990SOL    HW2 2970   0.177   0.287   3.000 -0.8503 -0.0393  2.4797
  991SOL     OW 2971   0.579   0.597   2.857 -1.2987 -0.1144 -0.6997
  991SOL    HW1 2972   0.560   0.497   2.875  0.5932 -1.7016  0.6250
  991SOL    HW2 2973   0.574   0.644   2.949  3.1417  2.2294  3.3882
  992SOL     OW 2974   2.915   1.667   2.187 -0.2139  0.4141 -0.1544
  992SOL    HW1 2975   2.838   1.721   2.146 -1.5724 -1.4272 -0.4109
  992SOL    HW2 2976   2.975   1.613   2.117  3.8315 -4.7052 -4.2894
  993SOL     OW 2977   0.362   3.054   0.746  0.7303  0.2388 -0.0066
  993SOL    HW1 2978   0.314   3.052   0.656  0.5716  0.9108 -2.4765
  993SOL    HW2 2979   0.384   0.070   0.776 -1.8308 -2.2963 -0.0855
  994SOL     OW 2980   0.349   2.063   1.796  0.2012  0.4894  0.6437
  994SOL    HW1 2981   0.273   2.064   1.726 -0.6700  0.4769 -0.3796
  994SOL    HW2 2982   0.428   2.032   1.737 -1.4499  1.3854  0.8697
  995SOL     OW 2983   2.450   1.774   0.014  0.5045  0.2463 -0.0550
  995SOL    HW1 2984   2.487   1.834   3.020  1.4837 -0.7549 -2.5923
  995SOL    HW2 2985   2.386   1.816   0.085 -0.5208  1.6836  0.9433
  996SOL     OW 2986   1.788   1.427   2.535 -0.3513 -0.0699 -0.4808
  996SOL    HW1 2987   1.743   1.514   2.573 -0.7983  1.3541  0.2052
  996SOL    HW2 2988   1.765   1.426   2.434 -0.2683  0.7711 -0.1176
  997SOL     OW 2989   1.907   1.424   1.746 -0.0044 -0.2836  0.2005
  997SOL    HW1 2990   1.918   1.405   1.847  0.4576 -2.0263  0.8229
  997SOL    HW2 2991   1.913   1.337   1.693  1.0516 -0.8504  1.3548
  998SOL     OW 2992   2.540   1.912   0.709  0.0456 -0.3959 -0.6129
  998SOL    HW1 2993   2.447   1.869   0.699  0.6966 -1.7402 -0.1753
  998SOL    HW2 2994   2.589   1.910   0.618 -0.4517 -1.8413  0.4679
  999SOL     OW 2995   2.398   2.562   0.512  0.0738 -0.2147 -0.5918
  999SOL    HW1 2996   2.415   2.663   0.502  1.0733 -0.0227  0.2424
  999SOL    HW2 2997   2.440   2.502   0.444 -1.3030 -0.4409 -1.7409
 1000SOL     OW 2998   0.779   2.892   2.423 -0.5750  0.1537  0.3575
 1000SOL    HW1 2999   0.734   2.981   2.425 -1.7669  1.0536 -1.3005
 1000SOL    HW2 3000   0.799   2.861   2.330  0.2915  0.5101 -2.0761
   3.08119   3.08119   3.08119
