1000 SPC/Fw water molecules t= 203.00000 step= 203000
 3000
    1SOL     OW    1   2.880   0.011   1.033  0.5505 -0.6113  0.1061
    1SOL    HW1    2   2.895   0.100   1.081  1.5511 -2.1734  0.7861
    1SOL    HW2    3   2.911   0.025   0.935  1.3856 -0.9677 -1.5079
    2SOL     OW    4   1.909   1.629   2.124 -0.8085 -0.0120 -0.6193
    2SOL    HW1    5   1.928   1.691   2.206  2.5331 -0.9004 -2.0636
    2SOL    HW2    6   1.932   1.534   2.154 -1.2238  1.7679  1.2127
    3SOL     OW    7   2.052   2.531   2.340 -0.2922  0.9019 -0.1162
    3SOL    HW1    8   2.078   2.507   2.245 -0.1264  1.7466 -0.4419
    3SOL    HW2    9   1.984   2.470   2.368  1.9369  3.0416 -2.1068
    4SOL     OW   10   2.005   1.797   2.320  0.8356 -0.3683 -0.2504
    4SOL    HW1   11   2.083   1.846   2.272 -1.9342  0.4977 -0.9854
    4SOL    HW2   12   2.038   1.741   2.400  1.6336  0.3452 -2.2092
    5SOL     OW   13   1.376   0.607   1.732  0.7514 -0.0450 -0.0945
    5SOL    HW1   14   1.312   0.669   1.682  0.8611  0.1959  1.8648
    5SOL    HW2   15   1.429   0.550   1.665  0.1678 -1.8844 -3.2555
    6SOL     OW   16   2.778   0.731   2.942 -0.3239  0.4215 -0.0183
    6SOL    HW1   17   2.787   0.707   2.840  3.9139  0.5463 -4.5183
    6SOL    HW2   18   2.785   0.640   2.995  0.6432  1.0969  2.9921
    7SOL     OW   19   0.622   1.148   1.231  0.1145  0.6806  0.0528
    7SOL    HW1   20   0.598   1.134   1.134  2.1122 -2.5293 -0.1663
    7SOL    HW2   21   0.561   1.217   1.273  1.7283  2.1387  2.1892
    8SOL     OW   22   1.339   0.576   0.858 -0.3276  0.0659 -0.2088
    8SOL    HW1   23   1.328   0.553   0.959 -1.9377 -2.5182  1.8687
    8SOL    HW2   24   1.438   0.590   0.833  2.1814  0.4428 -0.3331
    9SOL     OW   25   1.033   0.863   2.765 -0.2992  0.1215 -0.6251
    9SOL    HW1   26   1.051   0.804   2.844  1.7837  1.0491 -3.0965
    9SOL    HW2   27   1.048   0.813   2.679  0.1564 -2.1360  0.1893
   10SOL     OW   28   0.236   2.486   0.381  0.2614 -0.2744 -0.0509
   10SOL    HW1   29   0.312   2.423   0.394 -3.1573 -0.4371  1.3749
   10SOL    HW2   30   0.247   2.532   0.293  0.2753  0.7151  2.7612
   11SOL     OW   31   0.553   1.541   2.982 -0.7074 -0.7553 -0.1923
   11SOL    HW1   32   0.522   1.452   3.019  0.3729 -2.2073 -0.2494
   11SOL    HW2   33   0.480   1.595   2.939  1.7421  1.0607  0.0195
   12SOL     OW   34   0.496   0.293   1.442 -0.0582  0.3014 -0.6839
   12SOL    HW1   35   0.415   0.225   1.447 -2.1567 -2.6019 -0.0453
   12SOL    HW2   36   0.531   0.321   1.534  0.6044 -0.0736 -0.8970
   13SOL     OW   37   1.006   0.152   0.312 -0.6987  0.1367 -0.0368
   13SOL    HW1   38   1.052   0.108   0.234  0.0737 -0.5254  0.6795
   13SOL    HW2   39   0.958   0.085   0.372  0.3451 -1.3901 -0.8608
   14SOL     OW   40   1.325   2.366   1.153  0.4025  0.3975  0.5089
   14SOL    HW1   41   1.233   2.349   1.110 -0.3044 -3.7149 -0.0667
   14SOL    HW2   42   1.324   2.338   1.253 -1.1140 -2.6139  1.6073
   15SOL     OW   43   2.582   0.886   1.948  0.2921 -0.0707 -0.0222
   15SOL    HW1   44   2.668   0.844   1.981 -1.3074  1.5414 -1.3339
   15SOL    HW2   45   2.565   0.870   1.851 -0.3162  2.7003  0.7554
   16SOL     OW   46   1.292   2.747   0.022  0.6777  0.0118  0.2703
   16SOL    HW1   47   1.285   2.774   0.121  0.7518 -0.2815 -1.6196
   16SOL    HW2   48   1.279   2.641   0.012  0.4973 -4.2192 -0.8873
   17SOL     OW   49   0.821   0.169   1.352  0.5115 -0.0155  0.2313
   17SOL    HW1   50   0.747   0.113   1.391 -0.9906  0.6147  0.2071
   17SOL    HW2   51   0.802   0.269   1.368  0.0839  0.2381  1.9126
   18SOL     OW   52   1.082   0.754   0.194  0.2798  0.4843  0.2099
   18SOL    HW1   53   1.001   0.817   0.194 -1.2958  1.2899 -1.7717
   18SOL    HW2   54   1.163   0.797   0.152 -1.7184 -0.7461  0.2367
   19SOL     OW   55   2.033   1.487   0.173 -0.2173 -0.2866  0.0988
   19SOL    HW1   56   2.009   1.554   0.097 -2.0087  0.6148 -2.6425
   19SOL    HW2   57   1.950   1.473   0.231  1.9214 -0.1371 -0.9544
   20SOL     OW   58   1.797   1.696   1.605 -0.4176 -0.1813 -0.0659
   20SOL    HW1   59   1.855   1.634   1.661  0.9799  3.9324 -0.4270
   20SOL    HW2   60   1.726   1.642   1.548  1.5827 -0.4871  0.1065
   21SOL     OW   61   0.669   1.208   0.135 -0.0053  0.2436 -0.2864
   21SOL    HW1   62   0.767   1.246   0.144  3.7949  3.8248 -1.2561
   21SOL    HW2   63   0.643   1.219   0.039 -1.8110  2.3851  1.9413
   22SOL     OW   64   2.328   2.994   1.410 -0.0943 -0.3255  0.2879
   22SOL    HW1   65   2.226   2.988   1.402  3.9207  0.2943  0.5017
   22SOL    HW2   66   2.377   2.939   1.339  0.0612  2.2909 -1.5722
   23SOL     OW   67   0.054   0.915   1.686  0.1714  0.7867  0.2877
   23SOL    HW1   68   0.103   0.841   1.636  1.2896 -2.2031  4.3760
   23SOL    HW2   69   0.030   0.990   1.624  2.0004 -1.3897  2.2120
   24SOL     OW   70   2.390   2.580   1.156 -0.3998  0.1400  0.0946
   24SOL    HW1   71   2.399   2.675   1.160  1.8092 -3.7733 -2.3620
   24SOL    HW2   72   2.317   2.554   1.085 -1.7266 -2.0764  0.7653
   25SOL     OW   73   2.009   2.898   2.751  0.2553 -0.1925  0.5419
   25SOL    HW1   74   1.969   2.991   2.734 -0.5368  1.0063 -0.8594
   25SOL    HW2   75   2.011   2.844   2.667 -2.3031 -2.2003 -0.1661
   26SOL     OW   76   1.257   2.493   0.066 -0.0097  0.4312  0.1964
   26SOL    HW1   77   1.203   2.425   0.009  0.4708  0.6609 -1.9519
   26SOL    HW2   78   1.226   2.492   0.165  0.8904 -3.4094  0.5599
   27SOL     OW   79   0.432   1.879   2.496 -0.7402 -0.0518 -0.4255
   27SOL    HW1   80   0.376   1.811   2.447 -1.7669 -1.8632  0.3121
   27SOL    HW2   81   0.447   1.855   2.595  0.6299  2.2335 -1.4890
   28SOL     OW   82   0.079   1.372   1.684 -0.0327 -0.0192 -0.3628
   28SOL    HW1   83   0.035   1.459   1.687  1.1821 -0.4115  1.3297
   28SOL    HW2   84   0.176   1.372   1.662 -2.1023 -1.8437  0.1286
   29SOL     OW   85   2.567   2.177   2.091 -0.5717 -0.4503 -0.1036
   29SOL    HW1   86   2.599   2.147   2.185 -1.9401 -1.4210  4.2111
   29SOL    HW2   87   2.641   2.214   2.028 -0.4829 -0.0862 -2.2070
   30SOL     OW   88   1.432   2.999   0.276  0.0190  0.8910  0.0157
   30SOL    HW1   89   1.345   2.940   0.282 -0.7170 -1.9697  0.0368
   30SOL    HW2   90   1.437   3.058   0.358 -1.9436  1.8012  3.4384
   31SOL     OW   91   2.562   2.597   1.805 -0.6675  0.0570 -0.0333
   31SOL    HW1   92   2.598   2.530   1.738 -1.9018  3.2763  0.8614
   31SOL    HW2   93   2.627   2.669   1.836  0.7863 -0.4846  1.6555
   32SOL     OW   94   1.217   1.106   1.675  0.2206 -0.4733  0.2322
   32SOL    HW1   95   1.190   1.205   1.682 -0.9182  0.1987  2.1666
   32SOL    HW2   96   1.131   1.053   1.692 -2.5094  0.6713  2.0760
   33SOL     OW   97   0.225   2.774   2.648 -0.4594  0.9129 -0.0308
   33SOL    HW1   98   0.247   2.672   2.625  1.2572 -1.7919 -1.6903
   33SOL    HW2   99   0.127   2.802   2.627  0.3134 -3.3893  1.2457
   34SOL     OW  100   1.902   0.241   0.907 -0.2692  0.7789 -0.1428
   34SOL    HW1  101   1.980   0.300   0.875 -0.2950 -1.6084 -1.2932
   34SOL    HW2  102   1.926   0.142   0.918 -0.2060  1.9067  0.4397
   35SOL     OW  103   2.315   0.241   0.691  0.0344  0.0312 -0.1294
   35SOL    HW1  104   2.324   0.157   0.744 -2.1181  1.8031 -0.5316
   35SOL    HW2  105   2.373   0.242   0.607  0.1382  1.8544  0.9766
   36SOL     OW  106   1.931   2.782   2.505 -0.3689  0.6886  0.1190
   36SOL    HW1  107   1.984   2.721   2.448 -0.6651  1.6639 -2.1668
   36SOL    HW2  108   1.838   2.747   2.508  0.5485  2.0850  2.3970
   37SOL     OW  109   1.018   2.509   2.382  0.4936  0.0525 -0.8778
   37SOL    HW1  110   0.958   2.496   2.462  1.1447  1.2480 -0.2673
   37SOL    HW2  111   1.104   2.555   2.403  2.0941  2.4347  1.9955
   38SOL     OW  112   2.797   0.387   2.712 -0.3800 -0.0912  0.1902
   38SOL    HW1  113   2.733   0.367   2.792 -0.3324 -1.6024 -2.2839
   38SOL    HW2  114   2.893   0.367   2.738 -2.2137  1.4299 -0.5832
   39SOL     OW  115   2.200   1.605   1.615  0.1271  0.1509  0.5954
   39SOL    HW1  116   2.225   1.703   1.625  2.8726  1.1837 -0.0780
   39SOL    HW2  117   2.280   1.545   1.640  0.6386 -1.0186  0.7798
   40SOL     OW  118   0.318   2.946   2.831 -0.3185 -0.0144  0.4134
   40SOL    HW1  119   0.323   3.044   2.812  0.9932  0.9176  0.5224
   40SOL    HW2  120   0.290   2.894   2.745  0.4627  0.9154 -4.6425
   41SOL     OW  121   1.847   0.542   0.939  0.3102 -0.5612  0.3397
   41SOL    HW1  122   1.829   0.470   1.008 -1.0007  0.1999  2.2176
   41SOL    HW2  123   1.931   0.596   0.963  1.6781 -1.3198 -2.3728
   42SOL     OW  124   0.557   0.450   1.238  0.1009  0.5054 -0.5187
   42SOL    HW1  125   0.518   0.386   1.314 -3.0469 -1.4172  2.2516
   42SOL    HW2  126   0.657   0.462   1.255 -2.6204  1.0824 -1.2680
   43SOL     OW  127   2.510   1.342   2.110  0.3069  0.3942  0.0944
   43SOL    HW1  128   2.469   1.403   2.046  1.8084 -2.6449  0.6350
   43SOL    HW2  129   2.561   1.263   2.070 -0.0735  0.0798  0.5419
   44SOL     OW  130   2.937   2.857   0.372  0.0633  0.1560  0.1324
   44SOL    HW1  131   2.920   2.958   0.348  0.7686  0.4812 -0.2880
   44SOL    HW2  132   2.991   2.855   0.459  0.0308 -0.2359  1.5524
   45SOL     OW  133   2.970   2.439   1.905 -0.0488  0.2154 -0.3398
   45SOL    HW1  134   2.928   2.530   1.897  0.2161 -4.0922  0.7638
   45SOL    HW2  135   3.021   2.406   1.822 -2.0624 -0.7194  0.5420
   46SOL     OW  136   2.117   2.290   2.229 -0.5329 -0.4918  0.2645
   46SOL    HW1  137   2.051   2.236   2.287  0.7102  0.8868  0.5942
   46SOL    HW2  138   2.168   2.354   2.292 -2.3775  0.2794 -0.8368
   47SOL     OW  139   1.648   2.142   1.588  0.4718  0.2290  0.0689
   47SOL    HW1  140   1.653   2.051   1.639 -0.7984 -1.7192  0.2066
   47SOL    HW2  141   1.621   2.122   1.489  0.1649 -0.8216 -0.7023
   48SOL     OW  142   0.592   1.607   0.379  0.2838  0.4214 -0.4368
   48SOL    HW1  143   0.635   1.615   0.289  0.1637  0.3913  2.0225
   48SOL    HW2  144   0.659   1.621   0.454  1.0863 -1.9316  1.7519
   49SOL     OW  145   2.701   0.305   2.465 -0.0846  0.8448  0.3158
   49SOL    HW1  146   2.765   0.318   2.539 -2.0094 -1.8056  0.1562
   49SOL    HW2  147   2.615   0.358   2.478  2.1711  0.6502  0.1791
   50SOL     OW  148   2.243   0.764   0.354  0.8713  0.2863  0.1671
   50SOL    HW1  149   2.310   0.780   0.426 -0.5815  0.2515  1.5771
   50SOL    HW2  150   2.280   0.799   0.267 -0.4979 -0.9286  2.0051
   51SOL     OW  151   1.892   0.638   1.237 -0.1702 -0.2787 -0.1461
   51SOL    HW1  152   1.887   0.630   1.336 -1.6310  0.5332 -0.3266
   51SOL    HW2  153   1.971   0.582   1.199  1.2104 -1.0011  0.5546
   52SOL     OW  154   0.954   1.268   2.962 -0.3280 -0.1560  0.4896
   52SOL    HW1  155   0.926   1.171   2.987 -1.8732 -0.7232 -0.4266
   52SOL    HW2  156   1.015   1.296   3.039  0.3193  0.7279  2.7640
   53SOL     OW  157   0.950   1.513   2.230  0.5596 -0.2002 -0.0525
   53SOL    HW1  158   0.941   1.602   2.186 -0.1945  0.8028 -1.3763
   53SOL    HW2  159   0.866   1.457   2.218 -0.1231 -0.5283 -2.6868
   54SOL     OW  160   2.193   0.288   1.151  0.0031 -0.2423  0.1449
   54SOL    HW1  161   2.164   0.192   1.162  1.0581 -1.3521 -0.9022
   54SOL    HW2  162   2.247   0.291   1.062 -1.4817  1.6854 -1.3368
   55SOL     OW  163   2.581   3.019   0.631 -0.1489  0.3382 -0.3452
   55SOL    HW1  164   2.593   2.941   0.562  1.1030 -2.9527 -3.9223
   55SOL    HW2  165   2.653   3.089   0.626 -0.2561 -1.5932 -0.4267
   56SOL     OW  166   0.817   2.832   1.470 -0.2412  0.4070  0.0702
   56SOL    HW1  167   0.839   2.747   1.417  0.6450 -1.0082 -1.7408
   56SOL    HW2  168   0.901   2.883   1.472 -0.4806 -2.6484  0.2113
   57SOL     OW  169   1.455   1.287   0.457 -0.7015 -0.1244 -0.2018
   57SOL    HW1  170   1.397   1.229   0.517 -1.0029 -3.4552  1.2576
   57SOL    HW2  171   1.510   1.359   0.508  0.9442  0.7826  1.2315
   58SOL     OW  172   3.066   0.600   2.253 -0.1155 -0.5075 -0.2155
   58SOL    HW1  173   3.018   0.685   2.222  0.9195 -2.6588 -0.2506
   58SOL    HW2  174   3.012   0.515   2.276 -1.8289  0.1185 -0.3278
   59SOL     OW  175   0.973   2.734   2.670  0.3307 -0.2778  0.2922
   59SOL    HW1  176   1.032   2.760   2.751  3.9748  1.0607  1.1983
   59SOL    HW2  177   0.948   2.635   2.670  1.2090  2.0828  1.1026
   60SOL     OW  178   2.291   2.661   0.622  0.5156 -0.4505  0.3494
   60SOL    HW1  179   2.359   2.592   0.604 -2.4924  2.1036  2.0465
   60SOL    HW2  180   2.277   2.727   0.544  1.5091 -0.4985  1.1821
   61SOL     OW  181   1.136   2.307   0.718 -0.2411 -0.3158  0.0172
   61SOL    HW1  182   1.171   2.315   0.621  2.1760  1.1826  0.0890
   61SOL    HW2  183   1.159   2.395   0.768 -0.1243 -1.7118  2.4244
   62SOL     OW  184   2.274   2.158   2.597  0.5001  0.0220 -0.3750
   62SOL    HW1  185   2.252   2.087   2.526 -1.4981 -0.0072  0.7981
   62SOL    HW2  186   2.316   2.111   2.677  2.0707  0.2787 -1.2372
   63SOL     OW  187   2.340   0.651   2.659  0.3018 -0.5539  0.5174
   63SOL    HW1  188   2.395   0.659   2.575 -0.5652  0.3008  1.5090
   63SOL    HW2  189   2.273   0.724   2.654  2.9743  1.1303 -1.7807
   64SOL     OW  190   1.103   0.661   2.988 -0.3494 -0.1676 -0.5472
   64SOL    HW1  191   1.091   0.620   3.075  2.2359  2.7247 -6.2131
   64SOL    HW2  192   1.198   0.688   2.968 -2.8917 -1.1261  2.4806
   65SOL     OW  193   0.912   2.043   0.486 -0.5186  0.6820  0.0845
   65SOL    HW1  194   0.844   2.000   0.426  1.5117 -0.2996  2.0488
   65SOL    HW2  195   1.007   2.009   0.466 -0.7250  0.4031  0.5391
   66SOL     OW  196   0.382   1.142   1.909 -0.0553 -0.2940 -0.3003
   66SOL    HW1  197   0.421   1.237   1.927  1.9272  3.9159  0.9152
   66SOL    HW2  198   0.453   1.072   1.888  3.2227  0.7549 -1.2945
   67SOL     OW  199   2.351   2.840   2.667 -1.0762  1.0057  0.6405
   67SOL    HW1  200   2.367   2.940   2.650  0.3305 -1.7917  0.6266
   67SOL    HW2  201   2.318   2.794   2.582  1.0047 -0.5346  1.6828
   68SOL     OW  202   0.700   1.981   1.265  0.9549  0.7758 -0.2993
   68SOL    HW1  203   0.792   1.957   1.304 -2.0979  0.5812 -0.4055
   68SOL    HW2  204   0.666   1.900   1.210 -0.4233 -5.3756  3.7492
   69SOL     OW  205   1.180   2.576   0.308  0.0682 -0.4209 -0.4661
   69SOL    HW1  206   1.089   2.619   0.329  0.1890  2.2849 -1.5861
   69SOL    HW2  207   1.253   2.609   0.372  1.0064 -1.1981 -0.2194
   70SOL     OW  208   3.011   1.146   2.832  0.0594 -0.1093 -0.0518
   70SOL    HW1  209   3.053   1.193   2.910 -1.8985  0.3131 -0.3836
   70SOL    HW2  210   3.080   1.117   2.764  1.3967  0.2449  0.7945
   71SOL     OW  211   2.882   1.379   2.747 -0.0653  0.4982 -0.0265
   71SOL    HW1  212   2.916   1.292   2.789 -0.5960 -0.7039  3.1408
   71SOL    HW2  213   2.822   1.362   2.673  1.9339  2.5907  4.5942
   72SOL     OW  214   2.692   2.198   0.349 -0.8624  0.2549  0.2023
   72SOL    HW1  215   2.656   2.132   0.416  0.0987  2.1916  0.1758
   72SOL    HW2  216   2.792   2.184   0.334 -1.3198  0.8385 -1.0401
   73SOL     OW  217   0.922   1.284   0.202  0.8310  0.4607  0.0466
   73SOL    HW1  218   0.897   1.328   0.291  0.4378 -0.1358  0.8456
   73SOL    HW2  219   1.014   1.305   0.169 -1.8148 -0.7176  1.5356
   74SOL     OW  220   0.072   0.824   2.952 -0.0700  0.0137 -0.6721
   74SOL    HW1  221   0.042   0.781   3.039  1.3051 -0.3863 -0.6799
   74SOL    HW2  222   0.059   0.770   2.870 -0.8758  1.0415  3.3300
   75SOL     OW  223   1.986   1.570   1.760 -0.2475  0.0041  0.6082
   75SOL    HW1  224   2.073   1.585   1.705  2.0546  0.5610  1.3230
   75SOL    HW2  225   1.990   1.637   1.832  0.5938 -0.3012 -1.0445
   76SOL     OW  226   2.046   2.687   1.460  0.4069 -0.3271  0.1440
   76SOL    HW1  227   2.092   2.658   1.547  0.7167 -2.8286  0.0892
   76SOL    HW2  228   1.954   2.645   1.474 -0.2878  0.2487 -0.3508
   77SOL     OW  229   2.566   0.407   1.272 -0.5365 -0.1584  0.1184
   77SOL    HW1  230   2.647   0.381   1.211  0.4286 -0.2202 -0.8708
   77SOL    HW2  231   2.529   0.322   1.314  0.1801 -2.0456 -1.6900
   78SOL     OW  232   1.291   0.874   0.054  0.1777  0.0409 -0.4962
   78SOL    HW1  233   1.392   0.868   0.042 -1.4094  1.0868  1.5447
   78SOL    HW2  234   1.248   0.951   3.091 -1.0038  0.7984  1.4775
   79SOL     OW  235   0.529   1.960   1.794  0.0633 -0.4948 -0.4334
   79SOL    HW1  236   0.535   2.061   1.784  0.5627  2.0512 -0.3854
   79SOL    HW2  237   0.623   1.922   1.787 -0.4334  2.8006 -0.9255
   80SOL     OW  238   1.604   1.022   1.155 -0.2858 -0.5765  0.1659
   80SOL    HW1  239   1.583   1.003   1.257 -0.6924 -2.0796 -1.1194
   80SOL    HW2  240   1.601   0.935   1.098 -4.3217  0.0406 -2.3779
   81SOL     OW  241   0.516   3.040   1.001 -0.1529 -0.0214  0.4592
   81SOL    HW1  242   0.429   3.031   0.951  0.6867 -0.1509 -1.1887
   81SOL    HW2  243   0.574   0.019   0.964 -1.5697 -0.8350  2.3410
   82SOL     OW  244   1.721   2.678   1.720 -0.2599  0.0265  0.6611
   82SOL    HW1  245   1.635   2.730   1.723 -0.2238  1.3959  1.0302
   82SOL    HW2  246   1.773   2.673   1.812  2.3328 -1.8181  2.8265
   83SOL     OW  247   0.852   2.766   1.107  0.1229  0.3168  0.5218
   83SOL    HW1  248   0.754   2.746   1.089  0.1498  1.2741  2.0847
   83SOL    HW2  249   0.877   2.744   1.201 -0.2093 -0.3893 -1.2640
   84SOL     OW  250   0.418   1.319   2.723  0.1148 -0.2854  0.0998
   84SOL    HW1  251   0.385   1.397   2.662  0.7524  3.8757 -2.3053
   84SOL    HW2  252   0.501   1.285   2.673 -0.9838 -0.3687  1.4276
   85SOL     OW  253   0.112   2.206   1.432  0.7948 -0.0668  0.2535
   85SOL    HW1  254   0.185   2.169   1.489 -4.3382 -3.8070 -2.1440
   85SOL    HW2  255   0.153   2.246   1.351 -1.3373  1.2278  4.0051
   86SOL     OW  256   2.677   2.428   1.648  0.3742 -0.4027  0.3138
   86SOL    HW1  257   2.765   2.452   1.603  1.8626  1.3500 -0.7333
   86SOL    HW2  258   2.633   2.358   1.592 -0.2244 -0.9435 -0.9710
   87SOL     OW  259   2.617   2.189   2.895 -0.2743 -0.3414  0.2126
   87SOL    HW1  260   2.615   2.259   2.967  0.5715  0.6007  1.0051
   87SOL    HW2  261   2.591   2.102   2.931 -0.3496 -0.2437 -0.2335
   88SOL     OW  262   0.552   1.776   1.139 -0.1758 -0.3152 -0.2245
   88SOL    HW1  263   0.546   1.747   1.237 -0.0760  2.9718  0.1082
   88SOL    HW2  264   0.565   1.695   1.076 -3.5810  1.9415 -1.2034
   89SOL     OW  265   0.969   0.109   1.727 -0.3515 -0.2042 -0.2240
   89SOL    HW1  266   1.024   0.165   1.661  1.2631  0.4500 -0.8796
   89SOL    HW2  267   1.006   0.019   1.749  0.1395 -0.0007 -0.6033
   90SOL     OW  268   0.062   1.821   1.620  0.3847  0.2796  1.3067
   90SOL    HW1  269   0.001   1.743   1.651 -0.4027 -1.2418 -0.1486
   90SOL    HW2  270   0.041   1.909   1.667 -1.5406 -0.2126 -0.3606
   91SOL     OW  271   1.140   1.531   0.801 -0.2325  0.2327 -0.3707
   91SOL    HW1  272   1.142   1.493   0.705 -2.7745 -1.0081 -1.7703
   91SOL    HW2  273   1.117   1.629   0.809  0.2990 -0.3096 -0.3273
   92SOL     OW  274   2.498   0.141   1.318  0.6731  0.1139  0.4916
   92SOL    HW1  275   2.420   0.080   1.352 -3.2392 -1.4631  2.5609
   92SOL    HW2  276   2.497   0.147   1.216 -1.9983 -1.8583 -0.5917
   93SOL     OW  277   2.599   1.507   3.019  0.3618  0.6129  0.6718
   93SOL    HW1  278   2.628   1.414   3.042 -2.0922  0.4399  1.3646
   93SOL    HW2  279   2.600   1.516   2.915 -2.5332  1.3827 -2.2929
   94SOL     OW  280   2.684   2.537   2.476 -0.2851 -0.0560  0.2356
   94SOL    HW1  281   2.617   2.463   2.504 -1.0278 -1.5666  1.4286
   94SOL    HW2  282   2.642   2.631   2.477 -2.0333  1.2559 -1.2675
   95SOL     OW  283   1.792   0.522   1.485 -0.0227  0.9150 -0.3801
   95SOL    HW1  284   1.773   0.495   1.583 -0.4242  1.8181  2.7508
   95SOL    HW2  285   1.854   0.460   1.433 -0.9921  0.2980 -0.1582
   96SOL     OW  286   2.929   2.826   1.584 -0.0534  0.0763 -0.1344
   96SOL    HW1  287   2.905   2.774   1.497  0.3536  0.2354 -1.6257
   96SOL    HW2  288   2.912   2.925   1.573  1.1319 -0.0669  1.4744
   97SOL     OW  289   2.431   0.220   1.652  0.4903 -0.0220 -0.8291
   97SOL    HW1  290   2.383   0.129   1.640 -3.1023 -1.2301  2.0834
   97SOL    HW2  291   2.372   0.291   1.623  0.5076 -3.2258  0.4991
   98SOL     OW  292   1.363   2.167   1.638 -0.0959 -0.0976  0.9551
   98SOL    HW1  293   1.460   2.193   1.619  2.0116  1.2711 -0.4205
   98SOL    HW2  294   1.352   2.065   1.644 -2.4852 -3.0156 -0.4335
   99SOL     OW  295   0.110   2.788   1.700 -0.5565 -0.0214 -0.1472
   99SOL    HW1  296   0.179   2.797   1.623 -3.0198 -0.4925 -0.4933
   99SOL    HW2  297   0.017   2.806   1.671  0.9416  0.1089  1.6258
  100SOL     OW  298   3.093   1.090   2.394  0.1109  0.7815 -0.0547
  100SOL    HW1  299   0.040   1.058   2.304  3.2798 -0.5719 -0.8542
  100SOL    HW2  300   0.018   1.188   2.409 -0.1462 -1.6920 -2.0941
  101SOL     OW  301   2.055   0.670   0.184 -0.2429  0.8303  0.1161
  101SOL    HW1  302   1.961   0.647   0.214  0.7495  1.4249 -2.3236
  101SOL    HW2  303   2.103   0.720   0.262  4.0849  1.1523  3.2659
  102SOL     OW  304   0.226   0.522   1.025 -0.1151 -0.1888 -0.6591
  102SOL    HW1  305   0.304   0.469   1.053  0.3386  0.1205 -2.2962
  102SOL    HW2  306   0.237   0.621   1.048  0.3237  1.6682  1.6423
  103SOL     OW  307   2.503   0.714   2.425  0.3735 -0.3791  0.1022
  103SOL    HW1  308   2.488   0.772   2.345 -0.8261  0.6469  1.5305
  103SOL    HW2  309   2.564   0.772   2.482  0.8312  0.0310  0.9862
  104SOL     OW  310   0.320   0.191   2.494 -0.1987  0.2452 -0.1105
  104SOL    HW1  311   0.415   0.168   2.457 -1.4828  0.6299 -0.7329
  104SOL    HW2  312   0.320   0.197   2.593 -0.0292 -0.3251 -4.0151
  105SOL     OW  313   2.082   1.122   1.544 -0.1529 -0.3274 -0.5110
  105SOL    HW1  314   2.059   1.030   1.518 -3.1270  2.5101 -0.1971
  105SOL    HW2  315   1.995   1.177   1.548  2.0318 -1.9354 -0.0736
  106SOL     OW  316   1.180   2.898   0.286  0.0927  0.5882 -0.1745
  106SOL    HW1  317   1.166   2.959   0.366  1.2263 -2.1675 -0.0062
  106SOL    HW2  318   1.090   2.851   0.263 -2.5879  2.2447  0.3296
  107SOL     OW  319   0.502   1.707   1.415  0.7471  0.2720 -0.2939
  107SOL    HW1  320   0.441   1.741   1.492 -1.8237  0.3295 -0.3216
  107SOL    HW2  321   0.569   1.634   1.452  1.3861  0.6975  0.4473
  108SOL     OW  322   0.240   3.029   2.351 -0.0855 -0.1124 -0.6282
  108SOL    HW1  323   0.317   2.961   2.332 -3.6147 -2.1812  2.1602
  108SOL    HW2  324   0.281   0.021   2.392 -2.0440  3.3967 -1.0253
  109SOL     OW  325   2.079   0.261   0.100 -0.4210  0.3894 -0.1083
  109SOL    HW1  326   1.980   0.292   0.109 -0.4310  0.1637 -1.2333
  109SOL    HW2  327   2.118   0.270   0.008 -1.5608 -1.4718  3.7471
  110SOL     OW  328   0.327   2.540   2.508 -0.2505  0.4941 -0.1903
  110SOL    HW1  329   0.328   2.447   2.555  1.1438 -4.1531 -2.3050
  110SOL    HW2  330   0.397   2.541   2.433  1.4227 -2.4148  0.0117
  111SOL     OW  331   1.505   2.918   2.129 -0.2325  0.0130 -0.0614
  111SOL    HW1  332   1.442   2.998   2.122 -0.2406  0.1342  0.2494
  111SOL    HW2  333   1.596   2.942   2.168 -0.0126  2.9097 -0.4469
  112SOL     OW  334   1.890   2.121   2.524  0.2505 -0.3677 -0.1822
  112SOL    HW1  335   1.955   2.067   2.586  1.3558  2.7123  0.6157
  112SOL    HW2  336   1.820   2.064   2.476  1.1928  1.1151 -0.2485
  113SOL     OW  337   2.314   2.687   2.011 -0.5321 -0.0696  0.0309
  113SOL    HW1  338   2.375   2.609   1.983 -0.8188 -0.2011 -1.5690
  113SOL    HW2  339   2.216   2.664   2.002  0.6185 -2.7273 -0.7991
  114SOL     OW  340   2.828   0.883   0.747  0.1567 -0.5309 -0.4565
  114SOL    HW1  341   2.895   0.936   0.794 -2.8891 -2.4015  1.2783
  114SOL    HW2  342   2.856   0.858   0.653  0.2877  0.4557 -2.1477
  115SOL     OW  343   0.199   1.689   2.783 -0.0628  0.0661  0.2325
  115SOL    HW1  344   0.248   1.774   2.812 -2.2786  0.2240 -1.2607
  115SOL    HW2  345   0.122   1.719   2.719 -1.3216 -1.1238 -0.8821
  116SOL     OW  346   0.421   1.398   1.988  0.1744 -0.1187 -0.6653
  116SOL    HW1  347   0.426   1.467   1.916 -0.3136 -2.1041  0.9067
  116SOL    HW2  348   0.327   1.386   2.024  0.4567 -0.0691  0.8352
  117SOL     OW  349   2.770   0.110   0.627  0.2287 -0.1197 -0.4616
  117SOL    HW1  350   2.701   0.175   0.664  2.0521 -1.2693 -0.4980
  117SOL    HW2  351   2.833   0.158   0.562  3.4408  1.0231  0.4578
  118SOL     OW  352   1.332   1.791   1.867  0.3866 -0.6927  0.0049
  118SOL    HW1  353   1.259   1.721   1.886  0.1393 -0.3701  1.7921
  118SOL    HW2  354   1.315   1.867   1.938 -3.5342 -0.4317  1.2461
  119SOL     OW  355   1.205   2.184   0.240  0.6247 -0.5278 -0.2306
  119SOL    HW1  356   1.229   2.091   0.278  0.5485 -4.0024  0.0314
  119SOL    HW2  357   1.102   2.190   0.244 -1.5601  1.6392 -0.0950
  120SOL     OW  358   0.075   1.358   2.462  0.4207 -0.1296 -0.5050
  120SOL    HW1  359   0.093   1.457   2.445 -1.2838 -1.1626  0.3702
  120SOL    HW2  360   0.146   1.304   2.416 -0.5875 -1.0564  2.4315
  121SOL     OW  361   2.254   2.828   1.036  0.2142 -0.0420 -0.6085
  121SOL    HW1  362   2.243   2.896   0.960  1.6930 -0.0214 -1.7220
  121SOL    HW2  363   2.345   2.838   1.085  1.3179 -1.8825 -0.1177
  122SOL     OW  364   2.125   2.025   1.911 -0.0659  0.7833  0.2410
  122SOL    HW1  365   2.208   2.048   1.964  0.3171  0.4741  1.0660
  122SOL    HW2  366   2.087   2.103   1.860 -0.8436  0.1226  1.1092
  123SOL     OW  367   2.950   3.053   0.753 -0.0026 -0.0591 -0.1578
  123SOL    HW1  368   2.883   0.017   0.698 -0.5751  0.9470  2.7936
  123SOL    HW2  369   2.994   2.979   0.699  1.8765  2.4859 -1.2506
  124SOL     OW  370   1.830   0.743   2.373 -0.7090 -0.2130  0.0489
  124SOL    HW1  371   1.734   0.728   2.361 -0.3147  0.3966 -0.3552
  124SOL    HW2  372   1.883   0.709   2.289  2.4016 -0.1040 -1.2092
  125SOL     OW  373   0.451   1.150   0.538 -0.3972  0.2950  0.0615
  125SOL    HW1  374   0.495   1.215   0.467  1.3755  0.2831 -1.9155
  125SOL    HW2  375   0.392   1.195   0.609 -3.4197 -0.5132 -0.0532
  126SOL     OW  376   2.523   1.655   0.355  0.2540 -0.1548  0.3035
  126SOL    HW1  377   2.612   1.606   0.342 -1.7937 -2.2651 -1.5359
  126SOL    HW2  378   2.462   1.617   0.424  1.3893  3.4431  0.7534
  127SOL     OW  379   0.172   1.893   1.377 -0.1517  0.4174  0.5793
  127SOL    HW1  380   0.130   1.865   1.467  0.7163 -1.1906 -0.8152
  127SOL    HW2  381   0.109   1.948   1.322  0.5811 -2.0849 -1.9559
  128SOL     OW  382   0.940   0.556   2.792  0.3937 -0.6586 -0.1841
  128SOL    HW1  383   0.981   0.568   2.698  0.6657  0.1995 -0.8838
  128SOL    HW2  384   0.998   0.585   2.870  1.2813 -0.7079 -2.3227
  129SOL     OW  385   2.194   1.467   1.157  0.7995 -0.1938 -0.0867
  129SOL    HW1  386   2.258   1.419   1.220  0.7874 -0.5470 -0.1003
  129SOL    HW2  387   2.114   1.519   1.202  0.1059 -0.5327 -1.6334
  130SOL     OW  388   2.465   1.418   1.538  0.1932  0.1305  0.2987
  130SOL    HW1  389   2.465   1.345   1.610 -0.0426  0.8286 -0.4525
  130SOL    HW2  390   2.522   1.496   1.567 -1.9530 -1.9603 -0.3619
  131SOL     OW  391   2.783   0.997   2.994  0.3664  0.2104  0.2102
  131SOL    HW1  392   2.868   1.035   2.951 -0.2899  2.2245 -1.7892
  131SOL    HW2  393   2.771   0.898   2.971 -0.2729  0.4594  0.4016
  132SOL     OW  394   2.465   2.437   2.005 -0.0925  0.4419  0.2297
  132SOL    HW1  395   2.528   2.459   1.927  0.2975  0.4719  1.9221
  132SOL    HW2  396   2.490   2.345   2.046 -0.4271 -3.6671 -0.2925
  133SOL     OW  397   0.555   1.063   0.964 -0.3132  0.7679 -0.0237
  133SOL    HW1  398   0.613   1.105   0.891  0.8369 -0.1001  1.1002
  133SOL    HW2  399   0.583   0.965   0.979  0.2248 -2.9244  0.1604
  134SOL     OW  400   0.112   1.194   0.354  0.2196  0.3909  0.0152
  134SOL    HW1  401   0.083   1.189   0.452 -1.1288  0.5801 -0.9133
  134SOL    HW2  402   0.024   1.197   0.305 -0.2614  0.0213  2.2001
  135SOL     OW  403   1.988   1.571   1.335 -0.3263 -0.5050 -0.4224
  135SOL    HW1  404   2.021   1.491   1.389  2.4167 -1.2025  1.1069
  135SOL    HW2  405   1.911   1.549   1.273  0.2308  1.3010  0.4973
  136SOL     OW  406   2.290   1.002   0.703 -0.5302 -0.5957 -0.3779
  136SOL    HW1  407   2.276   0.917   0.652 -1.4094  2.0808 -3.1618
  136SOL    HW2  408   2.200   1.046   0.730 -0.6444 -0.6014  0.5496
  137SOL     OW  409   2.574   1.632   0.875  0.4938 -0.0168  0.0836
  137SOL    HW1  410   2.503   1.682   0.822 -5.5314 -2.4431  1.0559
  137SOL    HW2  411   2.572   1.657   0.975  2.0362  2.1246  0.8607
  138SOL     OW  412   1.764   0.575   1.774 -0.3692  0.2314 -0.4517
  138SOL    HW1  413   1.731   0.585   1.871 -1.1887  1.5051 -2.3065
  138SOL    HW2  414   1.855   0.530   1.768 -0.8760 -3.6346  0.8679
  139SOL     OW  415   2.395   2.699   2.879  0.1946 -0.2966  0.3438
  139SOL    HW1  416   2.489   2.715   2.909 -0.2609  0.7427 -0.9183
  139SOL    HW2  417   2.380   2.765   2.802  0.9173 -2.5474  1.3841
  140SOL     OW  418   1.588   1.741   2.156 -0.1241  1.0520  0.1462
  140SOL    HW1  419   1.633   1.702   2.239  1.5663 -1.5765 -1.0822
  140SOL    HW2  420   1.492   1.740   2.186  0.3815  1.5536  1.9219
  141SOL     OW  421   1.755   1.872   1.253 -0.0987  0.6812  0.4209
  141SOL    HW1  422   1.842   1.866   1.314  0.1055 -0.5319  1.0375
  141SOL    HW2  423   1.700   1.784   1.251 -1.3943 -2.2933 -1.1728
  142SOL     OW  424   0.123   0.316   0.060  0.2306 -0.3043  0.7092
  142SOL    HW1  425   0.048   0.386   0.063 -1.4556 -0.3223  3.7239
  142SOL    HW2  426   0.081   0.224   0.070 -1.5081  0.0782 -0.3412
  143SOL     OW  427   0.158   2.111   2.787  0.0903  0.0266  0.5052
  143SOL    HW1  428   0.205   2.031   2.836  3.3765 -2.1480 -0.0462
  143SOL    HW2  429   0.218   2.188   2.770 -3.5822 -1.7002  1.1418
  144SOL     OW  430   1.132   2.943   1.769 -0.0824  0.0299 -0.5432
  144SOL    HW1  431   1.230   2.974   1.796  2.7384  0.4555  0.9923
  144SOL    HW2  432   1.108   2.860   1.823  2.6723 -3.0336 -0.7896
  145SOL     OW  433   2.281   1.182   0.338 -0.4389 -0.5866  0.0409
  145SOL    HW1  434   2.290   1.226   0.245 -1.0209  0.7439  0.5992
  145SOL    HW2  435   2.367   1.215   0.392 -0.0812  1.2278  2.0988
  146SOL     OW  436   2.788   2.973   2.834 -0.1577  0.6075 -0.2213
  146SOL    HW1  437   2.797   2.996   2.733  1.2171  1.5993 -2.3268
  146SOL    HW2  438   2.865   2.919   2.863 -1.8471  0.2594  1.1830
  147SOL     OW  439   2.889   2.474   1.009  0.1056  0.0011 -0.1458
  147SOL    HW1  440   2.825   2.514   1.079  0.0770 -4.0177  2.4238
  147SOL    HW2  441   2.835   2.416   0.944  1.0071 -0.7343  2.0689
  148SOL     OW  442   1.789   0.088   2.876  0.0407 -0.1549 -0.0677
  148SOL    HW1  443   1.800   0.051   2.972 -0.4320  1.5574 -0.3492
  148SOL    HW2  444   1.721   0.039   2.820  1.2766  0.0428  1.1011
  149SOL     OW  445   1.184   0.384   2.495 -0.2636 -0.1557 -0.2681
  149SOL    HW1  446   1.241   0.399   2.579  2.3311  1.1432  1.8085
  149SOL    HW2  447   1.089   0.394   2.513  0.7151 -0.2121 -1.3883
  150SOL     OW  448   0.912   2.611   0.409  0.1238  0.0373 -0.3008
  150SOL    HW1  449   0.876   2.517   0.409 -0.9464  0.4116  0.8176
  150SOL    HW2  450   0.880   2.657   0.497 -0.2788 -0.7599 -0.5308
  151SOL     OW  451   2.814   1.870   0.157 -0.0936 -0.9826  0.0188
  151SOL    HW1  452   2.794   1.802   0.083 -0.2219 -3.5979 -1.3250
  151SOL    HW2  453   2.900   1.917   0.124  1.8331 -0.7934 -2.1577
  152SOL     OW  454   0.217   1.045   0.791 -0.9672  0.5195  0.1944
  152SOL    HW1  455   0.251   0.965   0.731  0.4507 -0.6757 -1.1601
  152SOL    HW2  456   0.293   1.114   0.804  2.0060 -1.1873 -0.8989
  153SOL     OW  457   2.240   2.841   0.422 -0.5345  0.1172 -0.1435
  153SOL    HW1  458   2.250   2.943   0.421  0.8683 -0.7930  1.5690
  153SOL    HW2  459   2.150   2.809   0.389  4.4750  1.0511 -1.0606
  154SOL     OW  460   0.777   0.625   1.619 -0.3565 -0.1683  0.0048
  154SOL    HW1  461   0.829   0.670   1.696  2.3769  2.3279 -1.0499
  154SOL    HW2  462   0.716   0.691   1.571  0.7051  1.8636 -0.3169
  155SOL     OW  463   3.079   2.013   1.183  0.3772 -0.2333  0.1035
  155SOL    HW1  464   3.021   1.944   1.133 -1.1896  0.2745 -3.1926
  155SOL    HW2  465   3.018   2.064   1.250  0.5129 -4.1488 -0.0804
  156SOL     OW  466   1.913   1.994   0.011  0.2384  0.2760  0.5771
  156SOL    HW1  467   1.992   1.958   0.061 -1.2010  0.0157  0.2830
  156SOL    HW2  468   1.935   2.074   3.048 -0.8380 -1.8912  0.1091
  157SOL     OW  469   1.036   2.722   0.888 -0.6422  0.0342  0.0412
  157SOL    HW1  470   0.987   2.711   0.978 -0.5726  1.6855  0.5891
  157SOL    HW2  471   1.073   2.815   0.875 -0.2074 -1.6724 -0.8278
  158SOL     OW  472   2.440   0.457   2.389  0.1826 -0.2077  0.0182
  158SOL    HW1  473   2.364   0.424   2.446 -1.4973 -0.2932 -1.3086
  158SOL    HW2  474   2.454   0.558   2.396  0.9649 -1.3659 -1.4801
  159SOL     OW  475   0.612   0.233   2.859  0.1535 -0.0915 -0.9541
  159SOL    HW1  476   0.655   0.321   2.830  1.5445  0.8405  0.6917
  159SOL    HW2  477   0.508   0.242   2.864 -4.1509 -0.3428  2.1239
  160SOL     OW  478   0.710   1.997   0.037  0.2038 -0.3555 -0.4306
  160SOL    HW1  479   0.702   2.064   3.054  0.6637 -2.3645 -0.4932
  160SOL    HW2  480   0.754   1.915   3.092  0.3863 -1.1693 -1.6539
  161SOL     OW  481   2.989   2.110   2.881  0.4517 -0.1777  0.0359
  161SOL    HW1  482   3.082   2.122   2.845 -1.9377 -0.9491 -2.7241
  161SOL    HW2  483   2.928   2.187   2.846 -0.2644  1.2934 -1.1394
  162SOL     OW  484   0.594   2.763   1.008 -0.0040  0.3703  0.0568
  162SOL    HW1  485   0.531   2.767   1.091 -1.9058  0.2458  1.5942
  162SOL    HW2  486   0.574   2.848   0.952 -2.0438  0.2924  1.1772
  163SOL     OW  487   2.348   0.581   2.923 -0.0507  0.1406  0.0484
  163SOL    HW1  488   2.337   0.597   2.823  0.3177  2.1914  0.2235
  163SOL    HW2  489   2.307   0.490   2.946  1.8744  1.1648  0.1646
  164SOL     OW  490   2.927   2.153   0.709 -0.0924 -0.3023 -0.3125
  164SOL    HW1  491   3.002   2.107   0.761  0.5797  0.0351  1.4383
  164SOL    HW2  492   2.859   2.185   0.774  1.7198  1.9540 -1.3148
  165SOL     OW  493   2.968   0.049   1.510 -0.0483  0.4204  0.0335
  165SOL    HW1  494   3.035   0.054   1.590  1.0535  1.3359  0.3716
  165SOL    HW2  495   3.015   0.028   1.421 -1.5094 -3.4540  0.4092
  166SOL     OW  496   2.080   0.401   0.774 -0.3612 -0.4600 -0.2015
  166SOL    HW1  497   2.123   0.488   0.808 -0.1110  3.6653  1.5063
  166SOL    HW2  498   2.148   0.341   0.727  0.2075 -0.5535  1.0202
  167SOL     OW  499   0.469   0.364   0.984  0.3388 -0.2070 -0.7840
  167SOL    HW1  500   0.506   0.401   1.073 -0.2284  1.3161  1.2319
  167SOL    HW2  501   0.533   0.297   0.940 -0.0479  0.1527  1.5238
  168SOL     OW  502   2.394   2.952   2.252 -0.1836  0.2600 -0.2922
  168SOL    HW1  503   2.321   2.966   2.318 -1.0267 -1.4208 -1.2168
  168SOL    HW2  504   2.433   2.856   2.265  1.6507  0.0505  2.3731
  169SOL     OW  505   0.137   1.495   0.641 -0.7174  0.6092 -0.5511
  169SOL    HW1  506   0.131   1.532   0.544  0.3264 -0.4514  1.2616
  169SOL    HW2  507   0.198   1.560   0.695  1.3291  3.7676  3.8437
  170SOL     OW  508   2.722   0.869   1.224 -0.2324 -0.5303  0.0152
  170SOL    HW1  509   2.728   0.777   1.183 -0.7735 -0.8166  0.6129
  170SOL    HW2  510   2.672   0.869   1.308  0.7641  1.8978 -4.3030
  171SOL     OW  511   1.223   2.538   1.570 -0.5280 -0.8528  0.4971
  171SOL    HW1  512   1.265   2.469   1.503  0.2721  1.6193 -2.2616
  171SOL    HW2  513   1.191   2.625   1.527  2.4988 -0.1801 -1.7857
  172SOL     OW  514   0.300   2.521   1.323  0.2171  0.6139  0.1423
  172SOL    HW1  515   0.351   2.438   1.291 -1.5815  2.2615  0.6252
  172SOL    HW2  516   0.331   2.602   1.272 -2.9011 -0.9134  1.2526
  173SOL     OW  517   1.407   0.040   0.036 -0.6609  0.4363 -0.5799
  173SOL    HW1  518   1.454   3.076   3.057  1.8280 -2.8103 -0.8612
  173SOL    HW2  519   1.427   3.086   0.124 -0.8138 -3.5012  1.2396
  174SOL     OW  520   1.187   2.282   2.838  0.2381 -0.0023  0.0082
  174SOL    HW1  521   1.242   2.260   2.923  0.0207 -1.0501  0.1575
  174SOL    HW2  522   1.090   2.266   2.863 -0.1309 -3.0102 -0.6451
  175SOL     OW  523   1.788   3.085   0.038  0.7239  1.1973  0.0870
  175SOL    HW1  524   1.801   3.074   0.140 -1.1629 -1.6178  1.4720
  175SOL    HW2  525   1.709   3.031   0.007 -0.8716  0.6639 -1.8366
  176SOL     OW  526   1.520   0.292   0.038 -0.1235 -0.2598 -0.7423
  176SOL    HW1  527   1.486   0.194   0.026 -1.0848  1.2032  0.8826
  176SOL    HW2  528   1.443   0.345   0.082 -2.5731  0.0904  3.2959
  177SOL     OW  529   0.757   1.672   0.573 -0.3944 -0.0641 -0.1989
  177SOL    HW1  530   0.747   1.662   0.676  0.8630 -0.1613  1.0224
  177SOL    HW2  531   0.847   1.707   0.549 -3.0015 -1.6685  1.9072
  178SOL     OW  532   2.746   1.778   2.160  0.1424  0.0973  0.3025
  178SOL    HW1  533   2.825   1.726   2.119  0.4818  1.1856  1.3046
  178SOL    HW2  534   2.685   1.719   2.219 -0.7518 -0.4018  1.4540
  179SOL     OW  535   0.557   2.525   2.752  0.1388  0.2433 -0.7995
  179SOL    HW1  536   0.565   2.619   2.796  0.7928 -0.1793  1.0913
  179SOL    HW2  537   0.600   2.522   2.662 -1.0923 -1.3171  0.0314
  180SOL     OW  538   1.742   1.865   1.943  0.2295 -0.9714  0.2594
  180SOL    HW1  539   1.837   1.833   1.963  1.2767  0.1943 -1.2185
  180SOL    HW2  540   1.680   1.803   1.997  1.4488  2.2710 -0.7295
  181SOL     OW  541   1.117   1.096   2.343 -0.1541  0.7709 -0.2535
  181SOL    HW1  542   1.134   1.111   2.443 -1.1575 -2.5227  1.9236
  181SOL    HW2  543   1.142   1.180   2.295 -0.3068 -1.9045  0.9082
  182SOL     OW  544   0.125   0.471   2.596  0.0189 -0.0339 -0.3579
  182SOL    HW1  545   0.104   0.404   2.518  0.9503 -0.5153 -1.9621
  182SOL    HW2  546   0.201   0.434   2.655  1.0078 -0.7954  2.2853
  183SOL     OW  547   1.157   0.252   2.837 -0.3444  0.3581 -0.3298
  183SOL    HW1  548   1.113   0.318   2.900 -2.2060 -1.5277  2.1974
  183SOL    HW2  549   1.222   0.304   2.779 -0.3690 -0.4055  1.9343
  184SOL     OW  550   1.093   1.111   1.416 -0.2742 -0.1735 -0.2101
  184SOL    HW1  551   1.153   1.182   1.373  0.3168 -1.0111  0.0080
  184SOL    HW2  552   1.120   1.097   1.514  0.1887  0.4301 -0.5073
  185SOL     OW  553   2.995   1.280   1.238  0.3045  0.4022  0.4992
  185SOL    HW1  554   3.075   1.327   1.287  3.3154 -0.6933 -2.2812
  185SOL    HW2  555   2.911   1.285   1.294  0.0599 -1.7352  1.7501
  186SOL     OW  556   0.618   1.612   2.590 -0.1255 -0.1868 -0.5338
  186SOL    HW1  557   0.657   1.638   2.497  2.9367  1.0641  2.1991
  186SOL    HW2  558   0.521   1.588   2.575  4.2033  2.1115 -1.9165
  187SOL     OW  559   2.691   1.447   0.344  0.5167  0.0399  0.6243
  187SOL    HW1  560   2.709   1.391   0.264 -0.2711  0.1597  4.3828
  187SOL    HW2  561   2.780   1.479   0.384  1.1899 -0.9149  1.4870
  188SOL     OW  562   0.133   2.383   0.746  0.3546  0.1629  0.4832
  188SOL    HW1  563   0.196   2.314   0.704 -1.2280  1.0087 -0.6869
  188SOL    HW2  564   0.048   2.402   0.692 -0.5464  0.1731 -0.3140
  189SOL     OW  565   2.604   1.065   0.102 -0.1425  0.5952 -0.5899
  189SOL    HW1  566   2.675   1.025   0.044 -2.8135 -2.4202  3.0709
  189SOL    HW2  567   2.598   1.026   0.200 -0.9277 -0.6808  0.8503
  190SOL     OW  568   1.135   1.315   2.199 -0.1495  0.2562 -0.2047
  190SOL    HW1  569   1.167   1.325   2.108 -2.0250  2.6770  1.1230
  190SOL    HW2  570   1.063   1.384   2.227  2.3544  2.0476  0.6589
  191SOL     OW  571   2.364   0.302   2.005 -0.4996  0.3787  0.1947
  191SOL    HW1  572   2.399   0.279   1.912 -1.7956 -0.5857 -2.7226
  191SOL    HW2  573   2.355   0.224   2.071  1.2917  0.3231  4.0178
  192SOL     OW  574   2.043   0.280   1.623 -0.3381  0.0891  0.1034
  192SOL    HW1  575   2.056   0.203   1.693  0.6186  0.7166  1.8345
  192SOL    HW2  576   2.001   0.362   1.663  2.6960  1.7294  1.5515
  193SOL     OW  577   0.856   0.453   0.685  0.4657  0.5990  0.5960
  193SOL    HW1  578   0.883   0.518   0.760  1.1170 -1.4188 -3.3734
  193SOL    HW2  579   0.906   0.483   0.598  1.8994 -1.7800 -0.9661
  194SOL     OW  580   1.327   3.013   1.144 -0.8210 -0.0706  0.0474
  194SOL    HW1  581   1.339   0.020   1.164 -1.2344  1.9743  1.7630
  194SOL    HW2  582   1.240   2.997   1.100  0.8188  2.5229 -0.8955
  195SOL     OW  583   2.489   0.771   0.496 -0.2413  0.2081 -0.5765
  195SOL    HW1  584   2.533   0.848   0.448  0.0996  1.3793  2.4284
  195SOL    HW2  585   2.533   0.761   0.589 -0.2651  0.6740  3.6261
  196SOL     OW  586   1.536   1.581   1.783  0.6962 -0.5263 -0.5473
  196SOL    HW1  587   1.621   1.572   1.838 -0.6191 -0.0093 -0.0185
  196SOL    HW2  588   1.466   1.649   1.817 -1.0233 -1.0930 -0.6482
  197SOL     OW  589   0.012   2.905   0.566  0.1922  0.1956  0.2702
  197SOL    HW1  590   0.063   2.982   0.526 -0.6819 -0.2569  3.5765
  197SOL    HW2  591   0.079   2.837   0.595 -1.1251 -0.1570 -1.8159
  198SOL     OW  592   0.820   1.359   0.510  0.0873 -0.3553  0.0963
  198SOL    HW1  593   0.812   1.449   0.557  0.3871  1.7067 -0.2072
  198SOL    HW2  594   0.738   1.335   0.452 -1.4513 -2.0403 -0.3591
  199SOL     OW  595   2.906   0.774   1.745 -0.7712 -0.1082  0.1118
  199SOL    HW1  596   2.874   0.754   1.839 -0.3401 -0.9197  0.3104
  199SOL    HW2  597   3.000   0.807   1.750 -0.3848 -2.5619 -0.1180
  200SOL     OW  598   2.076   1.968   2.658 -0.0294 -0.1248 -0.0495
  200SOL    HW1  599   2.118   1.902   2.589  1.7413 -3.7620 -1.0087
  200SOL    HW2  600   2.145   2.021   2.712 -0.4107 -0.4763  0.2064
  201SOL     OW  601   2.413   0.014   0.821  0.3882  0.1722 -0.4665
  201SOL    HW1  602   2.490   3.087   0.757  1.2838 -1.3524  0.5143
  201SOL    HW2  603   2.344   3.037   0.793  1.4775 -1.2132 -0.2210
  202SOL     OW  604   2.798   0.798   0.165 -0.3851 -0.1876 -0.2184
  202SOL    HW1  605   2.773   0.698   0.169  0.6480 -2.1547 -0.3363
  202SOL    HW2  606   2.895   0.816   0.145  0.9474 -0.8287  1.2619
  203SOL     OW  607   1.388   1.468   2.268  0.5524 -0.8019  0.0087
  203SOL    HW1  608   1.356   1.384   2.221 -0.3272 -1.4482  2.0956
  203SOL    HW2  609   1.489   1.484   2.276  1.7666 -0.6309  2.8535
  204SOL     OW  610   0.919   1.760   2.163 -0.3054 -0.0941  0.3409
  204SOL    HW1  611   0.905   1.835   2.097  0.3437 -3.6159  3.7054
  204SOL    HW2  612   0.972   1.798   2.245  1.0053  1.6899 -0.5333
  205SOL     OW  613   1.402   1.872   1.618 -0.0664 -0.6951 -0.1157
  205SOL    HW1  614   1.382   1.848   1.712  1.6527 -0.6260  0.0434
  205SOL    HW2  615   1.502   1.878   1.607  0.7810 -2.2766 -0.7287
  206SOL     OW  616   0.014   0.693   2.703 -0.4256 -0.6695 -0.0737
  206SOL    HW1  617   0.067   0.620   2.654  4.2521  0.1479 -0.7422
  206SOL    HW2  618   0.037   0.788   2.666  2.2491  0.6806  3.5037
  207SOL     OW  619   1.688   2.702   2.435 -0.2042 -0.2035  0.1539
  207SOL    HW1  620   1.634   2.622   2.472  0.0138  0.3174 -1.9470
  207SOL    HW2  621   1.719   2.674   2.339  1.7509  0.7689 -3.1620
  208SOL     OW  622   0.311   2.209   1.612  0.5173  0.2802 -0.0471
  208SOL    HW1  623   0.406   2.164   1.611  1.0357 -0.5977  1.4022
  208SOL    HW2  624   0.322   2.307   1.638  1.6936 -0.2280  0.7031
  209SOL     OW  625   1.656   0.806   2.814  0.2524 -0.4334 -0.5426
  209SOL    HW1  626   1.636   0.900   2.771 -0.9824 -1.5439  1.5665
  209SOL    HW2  627   1.638   0.737   2.742 -0.4705  0.9478 -0.5665
  210SOL     OW  628   2.582   0.758   0.751 -0.4071 -0.5176 -0.2730
  210SOL    HW1  629   2.573   0.699   0.835 -0.4619  0.2589 -0.5190
  210SOL    HW2  630   2.663   0.819   0.763  1.8039  1.6653 -1.5483
  211SOL     OW  631   0.892   0.621   0.904  0.1489  0.4933  0.0124
  211SOL    HW1  632   0.836   0.698   0.876 -0.5393 -1.3662  1.3286
  211SOL    HW2  633   0.828   0.551   0.950 -1.8764 -0.3166  2.4315
  212SOL     OW  634   1.134   1.473   0.529  0.4626 -0.0555  0.4152
  212SOL    HW1  635   1.103   1.375   0.538 -0.1236 -2.9248 -0.1436
  212SOL    HW2  636   1.177   1.491   0.439  1.5919 -1.3528 -0.2060
  213SOL     OW  637   1.373   3.034   1.803 -0.3031 -0.2354  0.7096
  213SOL    HW1  638   1.357   0.029   1.751  0.2986 -0.7552  0.8844
  213SOL    HW2  639   1.437   3.059   1.875  0.0029  0.9329 -1.5363
  214SOL     OW  640   1.543   1.184   2.465 -0.3610 -0.4674  0.3451
  214SOL    HW1  641   1.461   1.237   2.430 -1.3550  0.9276 -0.6040
  214SOL    HW2  642   1.601   1.255   2.512  1.8009  1.5821 -1.2360
  215SOL     OW  643   0.555   1.522   1.037 -0.0106 -0.1038  0.7079
  215SOL    HW1  644   0.580   1.507   1.134 -0.0980 -0.6362 -2.1209
  215SOL    HW2  645   0.456   1.493   1.019  0.1360 -0.8105  1.3474
  216SOL     OW  646   0.715   2.756   2.235  0.2736  0.1136  0.6724
  216SOL    HW1  647   0.726   2.781   2.135  0.1187 -0.4404 -1.1793
  216SOL    HW2  648   0.703   2.845   2.289 -0.1916  2.3571  0.8735
  217SOL     OW  649   2.348   0.863   0.131 -0.5054 -0.4232  0.0880
  217SOL    HW1  650   2.418   0.806   0.073  2.0415  0.9005  0.2979
  217SOL    HW2  651   2.317   0.937   0.070 -0.7966 -1.5202  0.1789
  218SOL     OW  652   2.252   1.892   2.198  0.8933  0.6106  0.2931
  218SOL    HW1  653   2.307   1.814   2.165  1.3681 -0.4780  0.0404
  218SOL    HW2  654   2.289   1.977   2.157 -0.3457  0.4106 -1.7701
  219SOL     OW  655   1.611   1.084   0.287  0.4784 -0.6924 -0.4515
  219SOL    HW1  656   1.535   1.126   0.342 -0.4752 -3.1084 -0.8273
  219SOL    HW2  657   1.700   1.121   0.321 -0.3124 -1.0086 -1.5060
  220SOL     OW  658   1.307   1.667   1.191  0.3328 -0.0875  0.4542
  220SOL    HW1  659   1.320   1.768   1.200 -1.3092 -0.5275  0.2778
  220SOL    HW2  660   1.323   1.631   1.097  0.4802 -0.3913 -0.6262
  221SOL     OW  661   0.312   0.642   2.893  0.1925  0.6693  0.3072
  221SOL    HW1  662   0.253   0.723   2.899 -0.0056 -0.9768 -0.2567
  221SOL    HW2  663   0.364   0.626   2.982 -0.1952 -3.6660  0.1577
  222SOL     OW  664   1.268   2.336   1.425 -0.3251 -0.0124  0.3182
  222SOL    HW1  665   1.171   2.310   1.422  1.9544 -0.9276  0.1960
  222SOL    HW2  666   1.317   2.262   1.482  0.8047 -1.6737  4.9121
  223SOL     OW  667   1.327   2.495   2.703 -0.2749 -0.0183 -0.2327
  223SOL    HW1  668   1.336   2.567   2.777  1.9515  3.3814  2.9724
  223SOL    HW2  669   1.297   2.405   2.742 -0.5883 -0.8894 -0.8139
  224SOL     OW  670   2.885   1.181   1.001  0.2025 -0.3753 -0.0269
  224SOL    HW1  671   2.907   1.219   1.096  0.5033 -1.1221  0.2760
  224SOL    HW2  672   2.803   1.233   0.967  1.4471  0.8699 -0.7572
  225SOL     OW  673   1.446   1.129   1.508  0.3679 -0.2831  0.3700
  225SOL    HW1  674   1.367   1.114   1.571 -0.0073  0.5029  1.2889
  225SOL    HW2  675   1.478   1.040   1.465 -0.0691  0.2490 -1.8980
  226SOL     OW  676   1.434   1.898   2.945  0.2617 -0.4334  0.2747
  226SOL    HW1  677   1.448   1.901   3.044 -0.3303 -2.9802 -0.3231
  226SOL    HW2  678   1.510   1.959   2.907 -1.1968  0.4509 -1.8508
  227SOL     OW  679   0.982   2.022   1.343 -0.1875  0.3457  0.0755
  227SOL    HW1  680   1.060   1.961   1.372 -0.1104 -1.3669 -1.5925
  227SOL    HW2  681   0.980   2.102   1.404 -0.1574 -0.0557  2.9387
  228SOL     OW  682   0.462   2.045   1.067 -0.2134 -0.7744  0.5230
  228SOL    HW1  683   0.367   2.076   1.092  2.0907  0.9812  1.5231
  228SOL    HW2  684   0.490   1.958   1.108  3.9131  1.8206 -2.7062
  229SOL     OW  685   2.118   0.752   3.020 -0.5455 -0.1173 -0.4021
  229SOL    HW1  686   2.204   0.713   2.974  2.4014 -0.6724 -1.2522
  229SOL    HW2  687   2.112   0.717   0.022 -0.8010  1.5510 -1.3357
  230SOL     OW  688   1.124   0.938   2.125 -1.0323  0.3548 -0.4740
  230SOL    HW1  689   1.199   0.975   2.072 -0.3076  0.6293 -1.1938
  230SOL    HW2  690   1.104   0.999   2.204 -0.3210 -1.1399  5.8763
  231SOL     OW  691   1.245   1.692   2.172  0.2925 -0.1185 -0.0569
  231SOL    HW1  692   1.203   1.672   2.080  1.5157  0.6608 -0.8454
  231SOL    HW2  693   1.275   1.605   2.211  1.5851 -1.8580  0.5044
  232SOL     OW  694   2.119   2.245   1.365  0.2549 -0.4286  0.0068
  232SOL    HW1  695   2.063   2.267   1.445  1.3871  1.2207 -2.1483
  232SOL    HW2  696   2.067   2.260   1.277 -0.9887 -0.7278  0.7241
  233SOL     OW  697   1.751   2.294   2.715 -0.3294  0.5546  0.2336
  233SOL    HW1  698   1.811   2.246   2.648 -1.5196  0.7093 -0.7363
  233SOL    HW2  699   1.810   2.368   2.758  1.1472 -0.0112  0.1417
  234SOL     OW  700   1.101   2.810   2.924 -0.1628  0.1934 -0.1352
  234SOL    HW1  701   1.178   2.818   2.990 -0.7468 -0.3941 -0.3574
  234SOL    HW2  702   1.038   2.890   2.936  0.4933  0.3060  1.0090
  235SOL     OW  703   2.441   3.050   0.111  0.0396  0.4155  0.3283
  235SOL    HW1  704   2.437   2.965   0.161 -0.2555  0.6152 -0.7498
  235SOL    HW2  705   2.348   0.003   0.106  0.1946  2.4400  0.7781
  236SOL     OW  706   2.338   2.394   2.322 -0.7741  0.0411 -0.2274
  236SOL    HW1  707   2.371   2.476   2.273 -0.6204 -1.0370  2.0698
  236SOL    HW2  708   2.394   2.361   2.401 -2.0463  1.2835 -1.9182
  237SOL     OW  709   1.565   1.253   1.790 -0.1965  0.2319 -0.5679
  237SOL    HW1  710   1.564   1.151   1.795  0.5438  0.9561  0.4582
  237SOL    HW2  711   1.500   1.287   1.721  1.7411  1.7951  1.0211
  238SOL     OW  712   2.143   0.366   2.321 -0.8954 -0.0140  0.6989
  238SOL    HW1  713   2.143   0.396   2.223 -0.6208 -3.2966  2.1731
  238SOL    HW2  714   2.126   0.443   2.386 -1.6675  2.5946  3.6671
  239SOL     OW  715   0.372   1.714   2.243 -0.5626 -0.6250  0.1653
  239SOL    HW1  716   0.472   1.737   2.244  0.7844  2.2524  1.6496
  239SOL    HW2  717   0.332   1.732   2.150 -0.0248 -3.3932  0.6165
  240SOL     OW  718   2.695   2.662   0.776 -0.4239  0.2586  0.2430
  240SOL    HW1  719   2.796   2.662   0.785 -0.6581 -1.1343  0.7222
  240SOL    HW2  720   2.673   2.697   0.682  0.1031 -2.3196 -0.9573
  241SOL     OW  721   1.627   2.164   0.868  0.0145 -0.3259 -0.2318
  241SOL    HW1  722   1.660   2.087   0.925 -0.8153  0.4336 -0.7658
  241SOL    HW2  723   1.685   2.171   0.782 -0.1241  1.7488 -1.2895
  242SOL     OW  724   1.223   1.458   2.926  0.1536 -0.2737 -0.5445
  242SOL    HW1  725   1.281   1.534   2.966  1.2349  1.2156 -2.0536
  242SOL    HW2  726   1.152   1.493   2.859 -1.2496  1.6190 -0.2638
  243SOL     OW  727   0.955   2.652   2.127  0.4114 -0.6837 -0.4101
  243SOL    HW1  728   0.896   2.696   2.202  0.0055  0.4115  0.6759
  243SOL    HW2  729   0.973   2.556   2.146 -1.3156 -1.7285  0.0463
  244SOL     OW  730   1.939   0.075   2.656  0.0838  0.1156  0.1473
  244SOL    HW1  731   2.023   0.135   2.646 -0.0344  1.3106  1.8071
  244SOL    HW2  732   1.886   0.090   2.744  0.1634  0.2359  0.5920
  245SOL     OW  733   1.396   2.674   0.460  0.0450  0.5796 -0.3247
  245SOL    HW1  734   1.404   2.582   0.508 -2.8740 -1.0764  1.7855
  245SOL    HW2  735   1.466   2.691   0.391 -1.3987  0.8619  2.6415
  246SOL     OW  736   0.962   3.016   3.013  0.3210 -0.3595 -0.5425
  246SOL    HW1  737   0.880   3.073   3.038 -1.2736 -0.6222 -0.8080
  246SOL    HW2  738   1.034   3.029   3.087  1.0481 -1.3553 -0.6029
  247SOL     OW  739   0.358   0.746   2.144 -0.5939  0.4473  0.9111
  247SOL    HW1  740   0.362   0.752   2.040 -0.5367  0.2181 -2.1914
  247SOL    HW2  741   0.426   0.685   2.190  1.0713  1.5153 -3.1553
  248SOL     OW  742   0.745   1.185   1.931  0.1639  0.2346  0.3929
  248SOL    HW1  743   0.711   1.180   2.030 -0.6795  0.7109  1.5716
  248SOL    HW2  744   0.825   1.125   1.918 -0.6929 -0.7275 -0.9305
  249SOL     OW  745   2.197   0.448   0.253  0.0636 -0.5769  0.2526
  249SOL    HW1  746   2.173   0.541   0.219 -3.8367  0.2123 -1.8929
  249SOL    HW2  747   2.163   0.378   0.189 -2.8410 -0.7945 -2.3380
  250SOL     OW  748   0.854   3.044   0.455 -0.3401 -0.1314 -0.0944
  250SOL    HW1  749   0.797   3.007   0.524  0.7893  1.8660 -3.3875
  250SOL    HW2  750   0.814   3.015   0.365 -0.5933 -2.3515  0.0445
  251SOL     OW  751   1.588   2.906   2.794 -0.4057 -0.3453  0.3002
  251SOL    HW1  752   1.584   2.930   2.692  1.2849  1.3406 -0.4417
  251SOL    HW2  753   1.551   2.810   2.807  3.2244 -0.8746 -3.5130
  252SOL     OW  754   1.896   1.375   2.213 -0.1109  0.8164  0.2336
  252SOL    HW1  755   1.948   1.385   2.305 -0.5965 -2.0783 -1.4445
  252SOL    HW2  756   1.856   1.279   2.202 -2.5552  0.1774 -1.1578
  253SOL     OW  757   2.445   2.689   2.242 -0.0634 -0.0700  0.0158
  253SOL    HW1  758   2.548   2.693   2.218  1.7708 -1.1192 -0.0481
  253SOL    HW2  759   2.387   2.676   2.160 -0.0255 -1.4822  0.3085
  254SOL     OW  760   1.144   1.953   1.580 -0.2872 -0.0168 -0.2108
  254SOL    HW1  761   1.128   2.016   1.657  0.7109  0.9054  0.5758
  254SOL    HW2  762   1.238   1.911   1.585  0.6323 -1.9951  1.1889
  255SOL     OW  763   1.083   0.810   1.027  0.0039 -0.5324  0.6817
  255SOL    HW1  764   1.065   0.908   0.995  0.2561 -1.0801 -1.1120
  255SOL    HW2  765   1.042   0.741   0.970  2.9461  1.3548  1.2009
  256SOL     OW  766   1.642   2.044   2.157  0.2746  0.1065  0.1584
  256SOL    HW1  767   1.685   2.136   2.152  2.1969 -0.9197 -1.3409
  256SOL    HW2  768   1.663   1.993   2.071  2.3071 -1.8813 -1.9374
  257SOL     OW  769   0.168   2.769   2.988  0.0909 -0.8551  0.5092
  257SOL    HW1  770   0.234   2.814   2.926  0.4328 -1.8540 -0.5729
  257SOL    HW2  771   0.130   2.687   2.946 -1.0741  2.0635 -1.3893
  258SOL     OW  772   0.944   3.014   2.002  0.3087 -0.1481  0.4115
  258SOL    HW1  773   1.003   3.077   2.056 -0.9970 -0.8058 -0.3982
  258SOL    HW2  774   1.000   2.945   1.949 -1.4949 -1.5081 -0.3998
  259SOL     OW  775   1.088   0.075   2.158 -0.5524 -0.1609 -0.2085
  259SOL    HW1  776   1.190   0.087   2.173  0.7635 -0.9596  0.5214
  259SOL    HW2  777   1.048   0.080   2.248 -0.4388 -0.4589 -1.0517
  260SOL     OW  778   1.597   0.576   0.789 -0.3631 -0.4020 -0.2136
  260SOL    HW1  779   1.616   0.602   0.693 -1.8296 -0.7091 -1.0909
  260SOL    HW2  780   1.685   0.583   0.842 -0.0511  0.3160  2.4086
  261SOL     OW  781   0.318   0.400   2.775  0.2257 -0.5663  0.2031
  261SOL    HW1  782   0.314   0.314   2.831 -0.8623  0.1286  1.5555
  261SOL    HW2  783   0.297   0.487   2.824  1.1155  1.0961  0.4636
  262SOL     OW  784   2.708   2.711   2.113 -0.2291 -0.5360 -0.0619
  262SOL    HW1  785   2.763   2.769   2.055 -2.0921 -2.5047  0.9794
  262SOL    HW2  786   2.720   2.622   2.078 -3.6475  2.4503 -1.6240
  263SOL     OW  787   2.916   1.943   2.019 -0.1205  0.0633  0.0193
  263SOL    HW1  788   2.959   2.025   2.061 -2.5939 -0.3983 -3.0334
  263SOL    HW2  789   2.837   1.913   2.075 -1.8679  0.8885 -2.3983
  264SOL     OW  790   0.880   1.044   1.265  0.6376 -0.5367  0.1849
  264SOL    HW1  791   0.785   1.088   1.273 -2.2486 -0.9298  0.6967
  264SOL    HW2  792   0.957   1.100   1.305 -2.8971 -1.5447  2.5053
  265SOL     OW  793   0.417   1.981   0.022 -0.5325  0.0684  0.4297
  265SOL    HW1  794   0.519   1.970   0.021  2.6483 -4.0228  4.1345
  265SOL    HW2  795   0.395   2.071   0.064 -1.5066  0.1355  1.5387
  266SOL     OW  796   1.068   0.994   0.455  0.0932 -0.2068 -0.6416
  266SOL    HW1  797   1.152   0.970   0.405 -0.3399  1.4465 -0.1612
  266SOL    HW2  798   1.051   0.926   0.525  1.1613  1.7866 -0.2417
  267SOL     OW  799   3.007   1.382   0.148  0.7573  0.0615  0.0961
  267SOL    HW1  800   3.020   1.472   0.195  0.9054 -0.8382 -1.6109
  267SOL    HW2  801   3.083   1.365   0.081  0.9071 -1.1888 -0.8493
  268SOL     OW  802   2.253   0.111   2.834 -0.4743 -0.4504 -0.2975
  268SOL    HW1  803   2.317   0.095   2.754 -1.9311  2.8923  1.3954
  268SOL    HW2  804   2.226   0.019   2.873 -1.5429 -0.4757 -1.3248
  269SOL     OW  805   1.637   0.640   2.619 -0.0369  0.3524  0.5090
  269SOL    HW1  806   1.666   0.540   2.631  1.2333 -3.4024  1.3520
  269SOL    HW2  807   1.623   0.666   2.523 -2.2127  0.0484  0.6654
  270SOL     OW  808   0.759   0.785   2.907 -0.4611  0.4701  0.1050
  270SOL    HW1  809   0.812   0.704   2.872  1.2113 -0.4912 -3.0795
  270SOL    HW2  810   0.716   0.769   3.000 -2.1848  1.2213 -3.6938
  271SOL     OW  811   2.966   1.122   0.233  0.3774 -0.1791 -0.3523
  271SOL    HW1  812   3.001   1.033   0.197  1.7710 -1.6708 -0.3897
  271SOL    HW2  813   2.976   1.199   0.167  1.2107  0.4806 -3.0044
  272SOL     OW  814   2.992   1.608   2.881 -0.3254 -0.1741 -0.0646
  272SOL    HW1  815   2.942   1.523   2.858  2.3294  0.0798  0.1041
  272SOL    HW2  816   3.036   1.648   2.798  1.9929 -0.1984  0.3417
  273SOL     OW  817   2.294   0.026   0.432 -0.3216  0.3463 -0.1916
  273SOL    HW1  818   2.374   0.092   0.434  2.6450  0.8105  0.3471
  273SOL    HW2  819   2.262   0.019   0.337  3.3975  0.1237  0.1006
  274SOL     OW  820   0.447   2.452   0.965  0.0120  0.4565  0.6091
  274SOL    HW1  821   0.412   2.403   1.048  0.2256 -3.4134 -0.5088
  274SOL    HW2  822   0.546   2.440   0.944 -1.0418 -0.0126 -0.5211
  275SOL     OW  823   2.484   1.354   0.509  0.1680 -0.6036  0.1343
  275SOL    HW1  824   2.562   1.395   0.452  0.4639  0.6898  1.2602
  275SOL    HW2  825   2.508   1.271   0.560 -0.5630 -0.0704 -0.1287
  276SOL     OW  826   2.840   1.221   2.360  0.3442  0.3039 -0.2378
  276SOL    HW1  827   2.936   1.194   2.390 -0.0798 -2.5750  1.4778
  276SOL    HW2  828   2.784   1.137   2.360 -1.0419 -1.7220  0.7569
  277SOL     OW  829   2.057   2.669   1.151 -0.6030 -0.3325 -0.7694
  277SOL    HW1  830   2.124   2.716   1.091  0.2492  1.0610  1.2472
  277SOL    HW2  831   2.096   2.662   1.247  1.7842 -1.9595 -0.1786
  278SOL     OW  832   1.365   0.094   2.198  0.1818 -0.5144  0.1505
  278SOL    HW1  833   1.435   0.104   2.120  1.0365  1.5947  3.0718
  278SOL    HW2  834   1.375   0.176   2.261  0.6636  3.5216  0.3490
  279SOL     OW  835   1.598   1.770   0.570 -0.0960  0.0001  0.3877
  279SOL    HW1  836   1.587   1.813   0.659 -1.2514  0.1955  1.2919
  279SOL    HW2  837   1.671   1.820   0.522 -0.1566  1.3919  1.6819
  280SOL     OW  838   0.286   1.634   0.791  0.6248  0.5050 -0.1539
  280SOL    HW1  839   0.344   1.697   0.737 -2.3077 -2.6306 -1.9947
  280SOL    HW2  840   0.240   1.675   0.874  1.4528 -0.4162 -2.2841
  281SOL     OW  841   2.925   0.367   2.324  0.5482  1.0025  0.5030
  281SOL    HW1  842   3.005   0.312   2.365  0.7103 -0.3568 -0.0565
  281SOL    HW2  843   2.839   0.347   2.377  2.5773  0.1408  1.5216
  282SOL     OW  844   0.353   0.638   0.485 -0.4353  0.3002  0.1022
  282SOL    HW1  845   0.368   0.621   0.583  2.5129 -1.0232  0.2596
  282SOL    HW2  846   0.281   0.573   0.456 -4.1305 -1.6532 -0.9607
  283SOL     OW  847   1.667   1.717   0.053 -0.0522  0.7608  0.0409
  283SOL    HW1  848   1.675   1.812   0.079  1.7651 -1.5045 -0.3609
  283SOL    HW2  849   1.750   1.680   0.005  2.7122 -0.9812  0.9173
  284SOL     OW  850   1.290   0.932   0.321 -0.0865 -0.0831  0.3125
  284SOL    HW1  851   1.292   0.940   0.222  0.5612  0.8790 -0.9140
  284SOL    HW2  852   1.389   0.924   0.355 -0.2319  1.0855 -1.8935
  285SOL     OW  853   2.138   0.823   2.571  0.1447  0.2080 -0.2486
  285SOL    HW1  854   2.142   0.892   2.502 -0.0320 -3.0921 -0.4500
  285SOL    HW2  855   2.043   0.812   2.611 -3.0085 -1.0508  2.5120
  286SOL     OW  856   1.659   2.722   1.314 -0.5422 -0.6743  0.2733
  286SOL    HW1  857   1.703   2.684   1.396  2.1515  0.0260 -1.8121
  286SOL    HW2  858   1.723   2.780   1.256  0.7041  1.3236  0.1669
  287SOL     OW  859   1.016   1.037   0.902 -0.6483  0.0407 -0.1153
  287SOL    HW1  860   0.933   1.045   0.848  1.7097  0.4199  0.1837
  287SOL    HW2  861   1.050   1.128   0.927  0.1245 -0.7144  0.8231
  288SOL     OW  862   0.952   2.795   0.201  0.2088  0.0872  0.4186
  288SOL    HW1  863   0.950   2.751   0.111  0.0155  2.5810  1.6812
  288SOL    HW2  864   0.911   2.726   0.265  0.6361 -1.9179  0.2722
  289SOL     OW  865   0.430   1.580   1.797  0.4886  0.6477  0.3947
  289SOL    HW1  866   0.530   1.590   1.799 -1.0772 -0.8413 -0.2495
  289SOL    HW2  867   0.397   1.652   1.735 -2.8716 -2.6371 -2.1455
  290SOL     OW  868   1.597   2.426   0.932  0.0228 -0.3921  0.0516
  290SOL    HW1  869   1.585   2.333   0.901  1.4918  3.7661  0.0187
  290SOL    HW2  870   1.509   2.477   0.965 -1.4115  1.7574  1.0791
  291SOL     OW  871   1.727   2.594   3.006 -0.0576  0.0283 -0.1282
  291SOL    HW1  872   1.819   2.619   2.973 -1.7076  0.4707  1.8526
  291SOL    HW2  873   1.732   2.508   3.064 -1.8118  0.6854 -1.4253
  292SOL     OW  874   1.146   0.499   1.862  0.6186 -0.7259 -0.0474
  292SOL    HW1  875   1.232   0.538   1.829 -0.7544 -2.5242  2.4358
  292SOL    HW2  876   1.082   0.573   1.891  1.3168  1.0862 -1.9525
  293SOL     OW  877   1.841   2.500   0.816  0.1600 -0.4786 -0.2714
  293SOL    HW1  878   1.749   2.494   0.866 -2.7838 -2.8485 -0.3003
  293SOL    HW2  879   1.886   2.590   0.821  2.1972 -0.4533 -0.9558
  294SOL     OW  880   0.400   0.964   2.497 -0.1247 -0.1618  0.2325
  294SOL    HW1  881   0.301   0.941   2.491 -0.7540 -0.9931  0.1386
  294SOL    HW2  882   0.456   0.883   2.470 -1.8824  3.1819  0.3040
  295SOL     OW  883   1.380   1.605   0.913  0.6199 -0.1298  0.8100
  295SOL    HW1  884   1.454   1.528   0.916  0.8738 -1.5546  1.4390
  295SOL    HW2  885   1.289   1.565   0.895  0.4596 -0.1411  1.1190
  296SOL     OW  886   2.132   1.916   0.167  0.2997 -0.3085  0.0839
  296SOL    HW1  887   2.220   1.953   0.126  2.6337 -0.4794  3.5087
  296SOL    HW2  888   2.154   1.869   0.253 -0.6743 -0.2341 -1.8418
  297SOL     OW  889   2.168   0.026   0.193 -0.3116 -0.1436  0.1096
  297SOL    HW1  890   2.133   0.118   0.172  0.4983  0.6300  0.4608
  297SOL    HW2  891   2.098   3.047   0.171 -4.2231  2.6174 -1.9145
  298SOL     OW  892   1.305   2.100   2.675 -0.2739  0.8835  0.1677
  298SOL    HW1  893   1.258   2.167   2.733  2.4980 -2.1119 -0.2112
  298SOL    HW2  894   1.396   2.074   2.714 -1.4810 -0.2116  1.1252
  299SOL     OW  895   1.278   2.600   2.474 -0.1272 -0.2089  0.0570
  299SOL    HW1  896   1.265   2.701   2.478 -2.5294  0.1743 -2.5319
  299SOL    HW2  897   1.334   2.572   2.557  0.2928 -1.5734 -0.0654
  300SOL     OW  898   2.371   3.093   2.581  0.1929 -0.1716 -0.3997
  300SOL    HW1  899   2.296   0.049   2.531 -0.6734 -2.6353  0.1792
  300SOL    HW2  900   2.457   0.025   2.530  0.3483 -0.3263 -0.5101
  301SOL     OW  901   1.434   0.857   2.188 -0.5451  0.4451  0.1119
  301SOL    HW1  902   1.510   0.921   2.214  1.4782  0.1506 -0.7604
  301SOL    HW2  903   1.460   0.822   2.094  3.2377  0.5433 -1.9210
  302SOL     OW  904   2.460   2.293   0.244 -0.5268  0.0255  0.2096
  302SOL    HW1  905   2.390   2.296   0.313  2.8067  0.4747 -1.9662
  302SOL    HW2  906   2.545   2.245   0.274  0.0497 -0.2791  1.2934
  303SOL     OW  907   2.947   2.555   2.415 -0.2550 -0.1935 -0.6094
  303SOL    HW1  908   2.975   2.516   2.323  1.0238  0.3738  0.5754
  303SOL    HW2  909   2.848   2.541   2.431  1.6309  0.4911 -3.2496
  304SOL     OW  910   2.950   0.573   1.526  0.0119 -0.1879 -0.4185
  304SOL    HW1  911   2.956   0.632   1.609  1.2352  0.0205 -1.8563
  304SOL    HW2  912   2.862   0.526   1.520  1.3402  1.7516 -1.1572
  305SOL     OW  913   0.537   2.237   1.785  0.8698  0.1570  0.1882
  305SOL    HW1  914   0.531   2.303   1.858 -1.4812 -1.2395 -2.7040
  305SOL    HW2  915   0.550   2.283   1.692 -0.1266  1.7993 -2.0522
  306SOL     OW  916   2.773   1.018   1.608  0.7155  0.3046 -0.3547
  306SOL    HW1  917   2.692   0.979   1.562 -0.8691  1.4420 -2.6117
  306SOL    HW2  918   2.853   0.957   1.607  2.3241  1.6067  3.5691
  307SOL     OW  919   1.504   0.761   1.944  0.1705 -0.2524 -0.3905
  307SOL    HW1  920   1.576   0.703   1.994 -0.0777 -1.0197 -1.8409
  307SOL    HW2  921   1.444   0.708   1.886 -0.7211  1.4155 -0.1735
  308SOL     OW  922   2.925   1.597   1.113 -0.1859 -0.3894  0.4481
  308SOL    HW1  923   2.952   1.604   1.016 -2.2074  1.4068 -3.0454
  308SOL    HW2  924   2.842   1.545   1.132  0.5871 -1.8896 -1.6207
  309SOL     OW  925   2.474   1.375   0.851 -0.4196 -0.0988  0.1644
  309SOL    HW1  926   2.382   1.361   0.824  3.9300  0.1051 -0.6184
  309SOL    HW2  927   2.497   1.475   0.862  2.7919  0.4100 -0.2278
  310SOL     OW  928   2.804   1.671   2.622  0.2798 -0.6391 -0.0178
  310SOL    HW1  929   2.756   1.600   2.679 -2.3158 -0.7284  0.5559
  310SOL    HW2  930   2.825   1.760   2.673  2.9492  1.3797 -1.5026
  311SOL     OW  931   3.024   2.584   2.883 -0.3043 -0.9495 -0.1349
  311SOL    HW1  932   2.951   2.556   2.817 -0.7242  1.3447 -1.8116
  311SOL    HW2  933   0.015   2.526   2.875  0.8469  1.4719 -2.6523
  312SOL     OW  934   1.855   1.773   0.849  0.3484  0.0762 -0.3846
  312SOL    HW1  935   1.889   1.753   0.755  1.5090 -2.2818 -2.6136
  312SOL    HW2  936   1.859   1.685   0.900  0.0406  2.3622 -1.9270
  313SOL     OW  937   2.507   0.138   1.043  0.0015 -0.1401  0.1619
  313SOL    HW1  938   2.496   0.054   0.988 -1.4074  0.5438 -2.0047
  313SOL    HW2  939   2.562   0.201   0.988  0.5696 -0.3182 -0.8282
  314SOL     OW  940   1.321   1.462   0.297  0.6617 -0.6157  0.0928
  314SOL    HW1  941   1.351   1.396   0.365  1.6189 -2.1546 -3.4734
  314SOL    HW2  942   1.397   1.489   0.238 -0.3744 -0.0359 -0.3859
  315SOL     OW  943   1.309   2.443   2.199  0.0588 -0.4029  0.1315
  315SOL    HW1  944   1.274   2.501   2.281  0.3638  0.6563  0.8645
  315SOL    HW2  945   1.242   2.430   2.128  0.1104  0.8382  0.1271
  316SOL     OW  946   0.016   0.864   0.500 -0.5754  0.3719  0.2538
  316SOL    HW1  947   3.053   0.951   0.487 -1.8859  0.3567 -0.8973
  316SOL    HW2  948   0.115   0.884   0.508 -0.9370  0.7392 -1.5727
  317SOL     OW  949   0.517   2.960   0.341 -0.1224 -0.1159  0.0670
  317SOL    HW1  950   0.528   2.894   0.420 -0.1598 -0.7487  0.6133
  317SOL    HW2  951   0.595   2.941   0.277 -0.9849 -3.5130 -1.6798
  318SOL     OW  952   2.290   2.305   0.474 -0.2008  0.6344 -0.3522
  318SOL    HW1  953   2.289   2.215   0.527  1.9118  0.4596  0.6711
  318SOL    HW2  954   2.200   2.346   0.466  3.8896 -0.7180  0.3491
  319SOL     OW  955   0.749   1.375   2.579 -0.1288 -0.1093 -0.0596
  319SOL    HW1  956   0.707   1.464   2.605  1.9951 -2.9448 -0.2109
  319SOL    HW2  957   0.685   1.293   2.579  1.0677 -2.8299  0.4555
  320SOL     OW  958   0.137   2.577   1.886 -0.3040  0.3205  0.1686
  320SOL    HW1  959   0.139   2.643   1.810  1.1282 -2.9680  0.4299
  320SOL    HW2  960   0.047   2.533   1.900  2.5214 -0.9558  0.4542
  321SOL     OW  961   1.574   2.248   3.058 -0.8717  0.2206 -0.5724
  321SOL    HW1  962   1.659   2.281   0.015  0.6426 -1.8257  0.1978
  321SOL    HW2  963   1.603   2.213   2.969  2.8233  3.0171  0.8620
  322SOL     OW  964   2.959   1.362   2.171  0.7711 -0.4528  0.6083
  322SOL    HW1  965   2.917   1.322   2.260 -0.7948 -1.4039 -0.0802
  322SOL    HW2  966   2.920   1.307   2.096 -1.6849 -0.5957 -1.1247
  323SOL     OW  967   2.528   1.110   0.600 -0.1173  0.5510  0.1889
  323SOL    HW1  968   2.448   1.061   0.650 -1.7199 -2.3853  0.0555
  323SOL    HW2  969   2.577   1.057   0.529 -1.7856  2.4661 -0.2244
  324SOL     OW  970   0.011   2.991   2.954 -0.2182 -0.0123 -0.1879
  324SOL    HW1  971   3.044   2.911   2.979 -1.2383 -0.3257 -1.8023
  324SOL    HW2  972   0.108   2.963   2.935  1.3363 -0.7966 -0.4741
  325SOL     OW  973   1.403   0.257   2.399 -0.3716 -0.4058  0.3489
  325SOL    HW1  974   1.469   0.235   2.471 -0.6576  0.0829 -0.1871
  325SOL    HW2  975   1.312   0.297   2.436 -0.0339  0.6801  1.6411
  326SOL     OW  976   2.169   2.610   1.680 -0.2149 -0.5585 -0.3514
  326SOL    HW1  977   2.125   2.663   1.753 -0.6644 -2.6792 -1.2787
  326SOL    HW2  978   2.218   2.535   1.726 -0.1946  0.3664  2.7223
  327SOL     OW  979   1.842   0.348   2.871  0.1959  0.3269  0.4043
  327SOL    HW1  980   1.823   0.249   2.882 -1.4727 -2.0690  0.2607
  327SOL    HW2  981   1.833   0.402   2.958 -0.5843 -4.1272  0.9898
  328SOL     OW  982   2.917   0.838   2.213 -0.4262 -0.1602  0.1991
  328SOL    HW1  983   2.992   0.906   2.189 -1.0607  2.0641 -1.9802
  328SOL    HW2  984   2.849   0.881   2.274  0.8110 -0.1800 -1.8449
  329SOL     OW  985   1.545   0.081   2.002  0.5177 -0.1971 -0.2963
  329SOL    HW1  986   1.515   0.164   1.956  0.0542 -1.1062  1.7913
  329SOL    HW2  987   1.640   0.086   2.035 -1.5913 -0.0599 -2.2793
  330SOL     OW  988   2.811   1.846   1.175  0.0439 -0.0206 -0.0149
  330SOL    HW1  989   2.872   1.770   1.148  0.3000  1.9336  0.5098
  330SOL    HW2  990   2.816   1.872   1.273  0.8697  0.1758  0.6295
  331SOL     OW  991   0.670   1.644   2.332  0.0977 -0.1845  0.6437
  331SOL    HW1  992   0.747   1.698   2.293 -1.2801 -0.0339  1.7587
  331SOL    HW2  993   0.655   1.555   2.284 -1.1925 -1.1408 -0.4237
  332SOL     OW  994   0.312   2.853   1.461  0.0538 -0.5945 -0.5284
  332SOL    HW1  995   0.371   2.825   1.541  0.3785 -0.7673  1.9704
  332SOL    HW2  996   0.279   2.949   1.476  0.8635 -0.3316  2.4830
  333SOL     OW  997   2.519   2.657   1.450 -0.0866  0.3452 -0.1582
  333SOL    HW1  998   2.521   2.560   1.435  0.7624  0.8199  1.0378
  333SOL    HW2  999   2.442   2.684   1.508  0.1466 -0.9408 -2.1543
  334SOL     OW 1000   0.881   1.804   0.970  0.6628  0.1680  0.5347
  334SOL    HW1 1001   0.889   1.897   1.016  0.7803  3.9617 -1.3685
  334SOL    HW2 1002   0.927   1.804   0.882 -0.8122  1.1474  0.9103
  335SOL     OW 1003   0.136   2.316   0.044 -0.2543  0.0893  0.4317
  335SOL    HW1 1004   0.060   2.266   3.088  3.3372  1.8800  0.1682
  335SOL    HW2 1005   0.103   2.359   0.129 -2.1329  1.5192 -0.6474
  336SOL     OW 1006   0.442   0.059   1.732 -0.3727  0.3866  0.2505
  336SOL    HW1 1007   0.386   0.142   1.710  1.2216 -0.4993 -0.1554
  336SOL    HW2 1008   0.541   0.075   1.723 -0.9401  0.5564 -1.5953
  337SOL     OW 1009   2.601   1.869   2.937 -0.0763 -0.0133 -0.0366
  337SOL    HW1 1010   2.513   1.828   2.917  0.5388  0.1739  0.9403
  337SOL    HW2 1011   2.659   1.812   3.000  2.1712 -3.4962 -0.6641
  338SOL     OW 1012   1.041   1.642   1.242  0.0687  0.1374  0.2628
  338SOL    HW1 1013   1.139   1.669   1.258 -0.6627 -1.2864  0.8913
  338SOL    HW2 1014   1.004   1.690   1.159  0.3520  2.1240 -1.6997
  339SOL     OW 1015   0.074   0.558   1.815 -0.3475 -0.6920 -0.4315
  339SOL    HW1 1016   3.073   0.530   1.834 -1.3301 -0.4805 -1.6040
  339SOL    HW2 1017   0.129   0.555   1.900 -0.9800 -2.5119  2.9856
  340SOL     OW 1018   1.605   2.514   0.304 -0.5368  0.4978  0.0667
  340SOL    HW1 1019   1.537   2.436   0.306  1.1122  0.3700  0.4997
  340SOL    HW2 1020   1.668   2.505   0.383 -1.0768 -0.1271 -0.4862
  341SOL     OW 1021   1.821   1.409   1.183 -0.2943  0.2250 -0.2471
  341SOL    HW1 1022   1.878   1.320   1.180  2.0738 -1.0923 -0.0677
  341SOL    HW2 1023   1.720   1.395   1.182 -1.2668  2.2080 -0.4740
  342SOL     OW 1024   2.991   2.394   0.612  0.6349 -0.1401  0.3964
  342SOL    HW1 1025   2.974   2.301   0.654 -3.0867 -1.0707 -0.8252
  342SOL    HW2 1026   2.912   2.432   0.557 -0.2614  1.1536 -1.5418
  343SOL     OW 1027   1.378   2.587   1.030  0.4759  0.0479  0.2840
  343SOL    HW1 1028   1.387   2.659   1.099 -1.3660  0.3810  0.2632
  343SOL    HW2 1029   1.359   2.504   1.088 -1.1750 -0.8005 -1.2634
  344SOL     OW 1030   2.261   2.913   0.764 -0.0727  0.1548 -0.2068
  344SOL    HW1 1031   2.182   2.932   0.706  2.9181  0.0514 -2.1810
  344SOL    HW2 1032   2.306   2.823   0.737  0.9940 -4.0874  0.2610
  345SOL     OW 1033   2.806   1.942   2.765  0.5405 -0.7128  0.7433
  345SOL    HW1 1034   2.730   1.926   2.830  0.9999 -2.2604 -0.9531
  345SOL    HW2 1035   2.876   2.001   2.810 -0.2771 -1.8017  1.7160
  346SOL     OW 1036   0.054   1.777   0.946 -0.3426 -0.2014 -0.3226
  346SOL    HW1 1037   0.032   1.688   0.898  2.8277 -0.3179 -0.2015
  346SOL    HW2 1038   0.108   1.757   1.033 -1.1286 -0.9315 -2.8980
  347SOL     OW 1039   1.868   2.493   1.213  0.1798  1.3095 -0.3849
  347SOL    HW1 1040   1.801   2.536   1.273 -0.2632  1.0658 -0.8212
  347SOL    HW2 1041   1.938   2.560   1.198 -1.2904 -0.9511  2.6159
  348SOL     OW 1042   1.045   1.568   2.752 -0.2141  0.3703 -0.6505
  348SOL    HW1 1043   1.035   1.530   2.660  0.4769 -2.0770  0.4963
  348SOL    HW2 1044   0.952   1.550   2.795 -1.1063 -0.9776  1.0187
  349SOL     OW 1045   2.356   1.481   1.891 -0.1339  0.2687 -0.1241
  349SOL    HW1 1046   2.264   1.452   1.923  0.7148  2.6431  1.7387
  349SOL    HW2 1047   2.368   1.582   1.880 -0.1485  0.8955 -1.3151
  350SOL     OW 1048   0.034   2.549   1.374  0.3621  0.0648  0.4451
  350SOL    HW1 1049   0.000   2.611   1.298 -0.8300 -0.9899 -1.3214
  350SOL    HW2 1050   0.117   2.507   1.341 -3.1673 -0.4555  0.0322
  351SOL     OW 1051   0.341   0.594   2.448 -0.2665 -0.3331  0.3257
  351SOL    HW1 1052   0.274   0.668   2.430 -0.3500 -1.6217 -0.1636
  351SOL    HW2 1053   0.297   0.519   2.498 -1.2414 -0.8208 -1.3079
  352SOL     OW 1054   0.552   2.389   1.544  0.1261  0.3329 -0.1075
  352SOL    HW1 1055   0.596   2.461   1.599 -0.8183 -3.0766  1.7359
  352SOL    HW2 1056   0.465   2.422   1.505  1.5942 -0.6642  1.3900
  353SOL     OW 1057   1.002   1.490   2.509 -0.5505  0.0719 -0.1904
  353SOL    HW1 1058   0.917   1.439   2.539 -3.2039  0.2265  0.6978
  353SOL    HW2 1059   0.991   1.540   2.421 -0.9954 -0.2257  0.0470
  354SOL     OW 1060   1.468   0.923   0.530 -0.2383 -0.1482 -0.4947
  354SOL    HW1 1061   1.524   0.975   0.590  0.1348 -0.4989 -2.5215
  354SOL    HW2 1062   1.384   0.892   0.579 -1.0556 -2.0446  0.9705
  355SOL     OW 1063   2.656   0.957   0.346 -0.0828  0.4637  0.2668
  355SOL    HW1 1064   2.710   0.898   0.283  1.3558 -1.2312 -0.7328
  355SOL    HW2 1065   2.713   1.010   0.413  0.2209 -0.1286  2.0874
  356SOL     OW 1066   2.586   1.000   2.800 -0.2895  0.1403  0.0340
  356SOL    HW1 1067   2.659   1.018   2.871  2.0081  0.4605 -3.4837
  356SOL    HW2 1068   2.489   1.014   2.831  1.5956  0.2061 -1.4655
  357SOL     OW 1069   0.691   2.630   1.615  0.7135 -0.1134  0.3535
  357SOL    HW1 1070   0.724   2.699   1.549  3.2814  2.4640 -0.1617
  357SOL    HW2 1071   0.757   2.617   1.687 -0.6592 -1.5110  0.3198
  358SOL     OW 1072   2.113   1.300   1.976  0.2486  0.3863 -0.7013
  358SOL    HW1 1073   2.011   1.297   1.961 -0.4828  0.2143  2.2673
  358SOL    HW2 1074   2.167   1.244   1.911 -1.0902 -1.5578  1.8018
  359SOL     OW 1075   1.981   2.228   2.995  0.5488  0.0517 -0.1862
  359SOL    HW1 1076   1.972   2.288   2.913 -0.4571 -0.4016 -0.5633
  359SOL    HW2 1077   2.077   2.221   3.027 -2.7004 -1.2439 -0.3148
  360SOL     OW 1078   2.254   0.621   0.813  0.4031 -0.1454  0.4134
  360SOL    HW1 1079   2.310   0.682   0.880  2.0148  4.1897  1.6449
  360SOL    HW2 1080   2.228   0.666   0.727  0.8865 -1.0891  1.2973
  361SOL     OW 1081   1.950   3.013   0.896 -0.6875 -0.3497 -0.5760
  361SOL    HW1 1082   1.996   3.013   0.803 -0.5194  1.3421 -0.8780
  361SOL    HW2 1083   1.875   2.947   0.904  2.5728  1.8324  0.0536
  362SOL     OW 1084   1.308   1.234   0.696  0.0303 -0.2938  0.0849
  362SOL    HW1 1085   1.216   1.235   0.652  1.2218  1.9551 -0.9952
  362SOL    HW2 1086   1.317   1.165   0.770  1.4748  2.0995 -2.2122
  363SOL     OW 1087   2.600   1.624   2.329  0.7151  0.9365  0.7347
  363SOL    HW1 1088   2.612   1.530   2.362  0.4110 -0.5487  0.2382
  363SOL    HW2 1089   2.577   1.679   2.408 -0.3867 -1.2824 -2.9427
  364SOL     OW 1090   1.309   0.724   1.348  0.4272  0.3591 -0.0073
  364SOL    HW1 1091   1.387   0.655   1.347 -0.1248 -2.8660 -0.7028
  364SOL    HW2 1092   1.232   0.691   1.288 -0.6901 -1.7792  1.3478
  365SOL     OW 1093   0.261   3.020   0.898  0.0102  0.2627 -0.2778
  365SOL    HW1 1094   0.179   3.077   0.914  2.1087  0.9756 -1.0782
  365SOL    HW2 1095   0.244   2.919   0.909 -1.3120 -0.4174 -0.1399
  366SOL     OW 1096   2.868   1.595   0.498 -0.4027  0.0165  0.7521
  366SOL    HW1 1097   2.852   1.555   0.591  0.4745 -2.1230 -0.0832
  366SOL    HW2 1098   2.854   1.697   0.493 -2.7137  1.1942 -2.4194
  367SOL     OW 1099   2.845   2.302   2.799 -0.4741  0.5600 -0.4603
  367SOL    HW1 1100   2.827   2.392   2.760  1.6115  1.6519  2.7339
  367SOL    HW2 1101   2.758   2.252   2.827 -0.4997 -2.5524 -2.5182
  368SOL     OW 1102   0.081   2.381   1.031 -0.3365  0.1974  0.0377
  368SOL    HW1 1103   0.109   2.368   0.937 -2.9123 -0.1661  4.4985
  368SOL    HW2 1104   3.086   2.428   1.049 -1.0351 -2.8632  0.7492
  369SOL     OW 1105   0.575   0.152   0.404 -0.8281  0.0690  0.6629
  369SOL    HW1 1106   0.543   0.054   0.413  0.9374  0.5484 -1.4657
  369SOL    HW2 1107   0.625   0.167   0.315 -2.9492 -1.1978 -1.3636
  370SOL     OW 1108   0.286   0.898   1.486  0.1299 -0.1747 -0.2131
  370SOL    HW1 1109   0.241   0.817   1.521 -1.4982  0.1941  0.7660
  370SOL    HW2 1110   0.346   0.940   1.555  1.0045 -1.0775  1.4797
  371SOL     OW 1111   2.051   2.350   0.863  0.2709 -0.1102  0.0947
  371SOL    HW1 1112   2.052   2.274   0.795  1.8618 -1.4117  2.1104
  371SOL    HW2 1113   1.958   2.392   0.855  1.2796 -3.7323  0.5717
  372SOL     OW 1114   0.164   1.208   2.674 -0.2292 -0.1489 -0.2434
  372SOL    HW1 1115   0.110   1.265   2.604 -2.1921 -0.7582 -1.9046
  372SOL    HW2 1116   0.246   1.259   2.717  1.4936  1.2276  1.8665
  373SOL     OW 1117   2.791   1.504   0.739  0.1477  0.4587  0.4944
  373SOL    HW1 1118   2.720   1.553   0.799  0.1746  0.7082 -0.6452
  373SOL    HW2 1119   2.769   1.405   0.742 -0.0659 -4.4939  0.8851
  374SOL     OW 1120   0.445   2.287   0.372 -0.2617 -0.5546  0.0572
  374SOL    HW1 1121   0.505   2.221   0.425  0.6820 -1.0044  0.4401
  374SOL    HW2 1122   0.422   2.250   0.280  0.5044  1.5736 -0.9791
  375SOL     OW 1123   0.754   0.232   0.190  0.3850  0.0122  0.0119
  375SOL    HW1 1124   0.842   0.213   0.241  1.8121 -0.5013  1.0978
  375SOL    HW2 1125   0.735   0.336   0.185 -0.1936  0.9147 -0.4283
  376SOL     OW 1126   0.460   2.919   1.918 -0.0351  0.1937 -0.0304
  376SOL    HW1 1127   0.458   3.000   1.858 -1.2715  0.3835 -0.3072
  376SOL    HW2 1128   0.361   2.907   1.952 -1.2113  0.4492  1.1985
  377SOL     OW 1129   0.954   2.238   2.356  0.1809 -0.5968 -0.4258
  377SOL    HW1 1130   1.037   2.194   2.397 -1.3111 -0.7882  0.5378
  377SOL    HW2 1131   0.965   2.341   2.354  2.1022  0.9432 -1.4069
  378SOL     OW 1132   0.971   0.807   0.623  0.3311  0.1421 -0.5365
  378SOL    HW1 1133   0.890   0.823   0.680  2.0788 -1.6093 -0.0554
  378SOL    HW2 1134   1.054   0.775   0.679  2.1603  0.5648  0.3025
  379SOL     OW 1135   0.795   1.792   2.974  0.5457  0.5911 -0.2377
  379SOL    HW1 1136   0.792   1.690   2.951 -0.9566 -0.1817  0.4457
  379SOL    HW2 1137   0.837   1.855   2.907 -0.5729  2.6116  0.2212
  380SOL     OW 1138   2.755   1.956   1.441  0.5560  0.1424 -0.0113
  380SOL    HW1 1139   2.759   1.918   1.538  0.6652 -0.0811  1.1729
  380SOL    HW2 1140   2.834   2.016   1.419 -0.5539 -3.7925 -1.2532
  381SOL     OW 1141   0.163   0.977   1.933 -0.3359  0.3741 -0.2828
  381SOL    HW1 1142   0.235   1.049   1.928 -0.8975  1.0729 -0.9910
  381SOL    HW2 1143   0.146   0.945   1.837  1.2166  1.2272 -1.1167
  382SOL     OW 1144   2.284   2.247   0.015  0.2501 -0.8802 -0.2893
  382SOL    HW1 1145   2.304   2.304   3.023  0.3184  0.8892 -1.0018
  382SOL    HW2 1146   2.332   2.282   0.097  0.5318  0.8323  0.3759
  383SOL     OW 1147   2.301   2.123   2.101 -0.4395 -0.6901  0.2702
  383SOL    HW1 1148   2.400   2.140   2.099 -0.3179 -0.8541 -1.2121
  383SOL    HW2 1149   2.247   2.193   2.155  1.1611  0.7956 -0.8537
  384SOL     OW 1150   0.885   2.232   2.088 -0.2333  0.0253  0.2215
  384SOL    HW1 1151   0.881   2.219   2.189 -0.5668  1.0978  2.5173
  384SOL    HW2 1152   0.809   2.297   2.061  1.8699 -0.9261 -0.6406
  385SOL     OW 1153   2.651   2.073   1.080 -0.0402 -0.0882  0.2185
  385SOL    HW1 1154   2.584   2.068   1.001  2.9877 -1.5754 -0.8788
  385SOL    HW2 1155   2.688   1.987   1.119 -1.9136 -0.4687  1.9808
  386SOL     OW 1156   1.761   0.592   2.990 -0.2693 -0.5735 -0.1674
  386SOL    HW1 1157   1.740   0.669   2.926 -1.0836  0.1827 -2.7757
  386SOL    HW2 1158   1.803   0.617   3.079  1.4479  1.2286  0.4522
  387SOL     OW 1159   0.619   0.700   1.983  0.2482  0.2559  0.8027
  387SOL    HW1 1160   0.527   0.674   1.940  0.1384 -0.2245 -2.0525
  387SOL    HW2 1161   0.621   0.656   2.078  0.5698  0.3311  1.9707
  388SOL     OW 1162   2.802   1.202   1.791  0.1227  0.2685 -0.3284
  388SOL    HW1 1163   2.803   1.117   1.725  0.9924 -1.5228 -4.3516
  388SOL    HW2 1164   2.896   1.223   1.829 -0.8999  2.0155  0.9305
  389SOL     OW 1165   1.567   0.666   2.345  0.5225  0.2239  0.0318
  389SOL    HW1 1166   1.513   0.725   2.277  0.5270  3.2585 -2.8337
  389SOL    HW2 1167   1.565   0.566   2.316 -0.3173  0.1380 -0.6277
  390SOL     OW 1168   1.900   2.311   0.377  0.0265  0.4292  0.0361
  390SOL    HW1 1169   1.923   2.218   0.335 -0.1627 -2.8709 -1.4840
  390SOL    HW2 1170   1.967   2.380   0.339  3.7495 -1.8228  1.3883
  391SOL     OW 1171   1.848   2.819   1.126 -0.5437  0.4576  0.0204
  391SOL    HW1 1172   1.817   2.804   1.033  2.2309  0.3250  4.2167
  391SOL    HW2 1173   1.935   2.754   1.140  1.5831 -1.6277 -1.8481
  392SOL     OW 1174   2.691   2.553   1.193  0.3877 -0.3441 -0.3563
  392SOL    HW1 1175   2.611   2.606   1.152  2.1157  0.4350 -3.1036
  392SOL    HW2 1176   2.664   2.456   1.214  0.0942 -0.1038  0.4733
  393SOL     OW 1177   1.815   1.548   2.732  0.3272  0.0481  0.0094
  393SOL    HW1 1178   1.817   1.648   2.760  0.7271 -1.7161 -1.9326
  393SOL    HW2 1179   1.814   1.491   2.816 -0.0581  0.1004  1.7702
  394SOL     OW 1180   0.159   2.736   0.154 -0.5120 -0.0365 -0.3506
  394SOL    HW1 1181   0.163   2.754   0.053  0.3814 -1.7708  0.9727
  394SOL    HW2 1182   0.065   2.716   0.181  1.5639 -1.2327 -0.3003
  395SOL     OW 1183   1.284   1.290   1.300  0.3614 -0.8516  0.4809
  395SOL    HW1 1184   1.371   1.261   1.337  3.3138  0.2688  1.7200
  395SOL    HW2 1185   1.288   1.285   1.197 -1.8135  2.2394  0.3429
  396SOL     OW 1186   1.943   0.768   2.776 -0.2527  0.0845 -0.0312
  396SOL    HW1 1187   1.849   0.803   2.764 -0.0937  1.4209  0.2648
  396SOL    HW2 1188   1.988   0.771   2.868  3.3812 -0.6527  1.5254
  397SOL     OW 1189   0.093   0.953   2.603  0.1308  0.4352  0.0018
  397SOL    HW1 1190   0.037   1.003   2.535 -0.3235 -1.6073 -2.0659
  397SOL    HW2 1191   0.149   1.022   2.661  1.7407  0.6665  2.8188
  398SOL     OW 1192   1.316   0.500   0.103  0.7080  0.2812 -0.3266
  398SOL    HW1 1193   1.343   0.557   0.025 -1.9544 -1.9088 -1.0841
  398SOL    HW2 1194   1.217   0.505   0.113  2.7714 -0.8833 -1.7357
  399SOL     OW 1195   2.058   0.087   1.806 -0.4519 -0.1036 -0.0769
  399SOL    HW1 1196   2.136   0.042   1.760 -0.9546  2.2104  2.2676
  399SOL    HW2 1197   1.969   0.054   1.771  0.7662  2.1894  2.1617
  400SOL     OW 1198   3.084   1.710   2.225 -0.1818  0.3896 -0.0198
  400SOL    HW1 1199   0.006   1.697   2.124  1.0814 -1.8243  0.5520
  400SOL    HW2 1200   2.995   1.672   2.262 -0.0864  2.8437  0.2475
  401SOL     OW 1201   0.718   0.059   3.066 -0.1385  0.0516  0.2109
  401SOL    HW1 1202   0.742   0.118   0.056  4.4791  0.5411  0.7059
  401SOL    HW2 1203   0.677   0.115   2.994 -0.8801 -3.2732  0.1245
  402SOL     OW 1204   0.279   2.485   1.621  0.1233 -0.4834 -0.2862
  402SOL    HW1 1205   0.258   2.507   1.525  0.9479 -1.7373 -0.8399
  402SOL    HW2 1206   0.302   2.571   1.676 -1.2295  1.5273  1.3215
  403SOL     OW 1207   0.657   1.453   1.258  0.0878  0.5317 -0.5873
  403SOL    HW1 1208   0.570   1.407   1.286 -2.1039 -1.0460  0.2705
  403SOL    HW2 1209   0.703   1.500   1.338 -0.0933  1.2860  0.5763
  404SOL     OW 1210   2.848   2.673   1.817 -1.0911 -0.7471 -0.8419
  404SOL    HW1 1211   2.845   2.715   1.727 -2.3668 -1.4127 -1.0227
  404SOL    HW2 1212   2.863   2.742   1.895  1.9364  2.5390  0.9511
  405SOL     OW 1213   2.785   0.451   2.111  0.4201  0.2948 -0.5821
  405SOL    HW1 1214   2.681   0.449   2.114 -2.0861 -2.2019  0.6448
  405SOL    HW2 1215   2.836   0.425   2.197 -0.3474 -3.6088 -0.8251
  406SOL     OW 1216   1.807   2.359   0.063 -0.7118 -0.3833 -0.0813
  406SOL    HW1 1217   1.832   2.366   0.163 -0.0004 -0.7315 -0.5900
  406SOL    HW2 1218   1.879   2.308   0.008  1.7513 -1.4687  0.1454
  407SOL     OW 1219   1.690   1.936   0.973 -0.2184 -0.2703  0.3243
  407SOL    HW1 1220   1.723   1.857   0.916 -0.3321 -1.4117 -0.8939
  407SOL    HW2 1221   1.725   1.921   1.070 -1.4883  0.0813  0.4305
  408SOL     OW 1222   0.608   0.247   2.201 -0.4286  0.6793  0.4613
  408SOL    HW1 1223   0.679   0.322   2.214  1.7203  1.3139 -0.7118
  408SOL    HW2 1224   0.646   0.190   2.127  1.0093 -1.4572 -4.0255
  409SOL     OW 1225   2.457   2.009   0.643  0.4389  0.4916 -0.2278
  409SOL    HW1 1226   2.464   2.052   0.735 -1.2178 -0.7133 -0.5595
  409SOL    HW2 1227   2.549   1.989   0.602  2.5141  2.6215 -0.7403
  410SOL     OW 1228   2.324   1.588   0.539 -0.3146 -0.0060 -0.5781
  410SOL    HW1 1229   2.362   1.491   0.538  2.9450 -1.7148 -1.8009
  410SOL    HW2 1230   2.369   1.640   0.611  1.1929 -0.4965 -1.5838
  411SOL     OW 1231   2.967   0.652   0.622 -0.3583  0.5204  0.3081
  411SOL    HW1 1232   3.028   0.586   0.667 -2.0213 -0.8667 -1.1414
  411SOL    HW2 1233   3.023   0.739   0.595  0.3686  2.1935 -0.6610
  412SOL     OW 1234   1.783   0.574   0.197  0.0680 -0.6131  0.2864
  412SOL    HW1 1235   1.805   0.475   0.182 -0.0419  1.0348 -1.1105
  412SOL    HW2 1236   1.690   0.584   0.236  2.2083 -2.5018 -0.2426
  413SOL     OW 1237   0.866   0.860   1.451  0.2360 -0.5823  0.3372
  413SOL    HW1 1238   0.766   0.845   1.450 -0.4115 -0.4261 -1.0153
  413SOL    HW2 1239   0.879   0.930   1.373 -1.9007 -2.7557  0.0317
  414SOL     OW 1240   0.206   1.523   2.997  0.1065 -0.3612  0.5191
  414SOL    HW1 1241   0.186   1.592   3.068 -0.3911 -1.8048  1.1704
  414SOL    HW2 1242   0.177   1.557   2.906  1.1477  0.1090 -1.6292
  415SOL     OW 1243   0.155   1.928   0.142 -0.5086  0.1315  0.1567
  415SOL    HW1 1244   0.243   1.957   0.104 -1.6177  0.9937  1.8087
  415SOL    HW2 1245   0.129   1.834   0.106 -2.9068 -3.0265 -0.2550
  416SOL     OW 1246   1.771   0.893   0.135  0.1118 -0.0528 -0.1055
  416SOL    HW1 1247   1.765   0.798   0.173 -1.3846 -1.2743 -0.5220
  416SOL    HW2 1248   1.723   0.960   0.200 -1.9024  1.5835 -0.1522
  417SOL     OW 1249   0.307   0.789   1.054 -0.2970  0.1688  0.5192
  417SOL    HW1 1250   0.246   0.870   1.077  0.8194  0.6237  1.5255
  417SOL    HW2 1251   0.357   0.804   0.965 -0.3836 -0.9511 -0.7970
  418SOL     OW 1252   2.230   1.193   2.654  0.3393  0.0749  0.0392
  418SOL    HW1 1253   2.129   1.194   2.634  0.8419 -0.4640 -2.8347
  418SOL    HW2 1254   2.258   1.115   2.707 -3.4353  1.2992 -2.5102
  419SOL     OW 1255   0.398   0.364   0.334  0.4486 -0.3110  0.2740
  419SOL    HW1 1256   0.477   0.304   0.340 -1.3221 -0.2020  0.3422
  419SOL    HW2 1257   0.378   0.373   0.231  0.6225  0.9837  0.3692
  420SOL     OW 1258   0.338   1.301   0.767  0.6401 -0.3592 -0.5512
  420SOL    HW1 1259   0.256   1.332   0.714 -2.3216  3.0923 -2.0881
  420SOL    HW2 1260   0.336   1.348   0.858  2.1695 -0.3556  1.7002
  421SOL     OW 1261   0.588   2.113   0.551 -0.1957  0.1846 -0.0768
  421SOL    HW1 1262   0.607   2.119   0.654  2.5371  0.0888  4.1729
  421SOL    HW2 1263   0.656   2.051   0.510 -0.0486 -3.0933  1.2924
  422SOL     OW 1264   2.705   0.460   1.520 -0.3817 -0.4376  0.6068
  422SOL    HW1 1265   2.662   0.458   1.424 -0.8322 -1.8727 -3.3845
  422SOL    HW2 1266   2.720   0.363   1.555 -2.7167 -1.1058  0.5224
  423SOL     OW 1267   1.932   1.541   0.970 -0.7969 -0.2011 -0.1083
  423SOL    HW1 1268   1.872   1.497   1.038  1.7101  1.0903 -0.7199
  423SOL    HW2 1269   2.017   1.490   0.942  1.4372  0.5198  1.0047
  424SOL     OW 1270   1.836   1.165   0.413 -0.0520 -0.4508 -0.5442
  424SOL    HW1 1271   1.929   1.122   0.396  0.7046  1.0058  0.2936
  424SOL    HW2 1272   1.836   1.264   0.385  2.8285  1.7002  1.7944
  425SOL     OW 1273   0.183   2.903   1.923 -0.4064 -0.1358  0.2807
  425SOL    HW1 1274   0.121   2.914   1.999  2.5103  0.6170 -3.7767
  425SOL    HW2 1275   0.147   2.836   1.852 -2.3719  2.2491  0.0583
  426SOL     OW 1276   2.661   2.731   2.943  0.2465 -0.4783 -0.0128
  426SOL    HW1 1277   2.688   2.713   3.039 -1.3551 -0.5337 -2.0474
  426SOL    HW2 1278   2.696   2.819   2.911 -3.4375 -2.3707  0.2654
  427SOL     OW 1279   0.801   0.730   2.318  0.0321 -0.1998  0.3990
  427SOL    HW1 1280   0.724   0.740   2.384  0.6656 -0.5184 -0.7826
  427SOL    HW2 1281   0.838   0.826   2.308 -1.0295  2.1698  1.1314
  428SOL     OW 1282   2.152   0.854   2.225 -0.2103  0.5505  0.2687
  428SOL    HW1 1283   2.230   0.802   2.186 -1.3948  1.5466 -2.3148
  428SOL    HW2 1284   2.151   0.954   2.204  1.7460  3.1657 -0.5442
  429SOL     OW 1285   2.481   0.224   0.458  0.4476  0.5736 -0.2356
  429SOL    HW1 1286   2.553   0.170   0.411  0.9001  0.6935 -2.1817
  429SOL    HW2 1287   2.476   0.317   0.416  0.1479 -1.4141  0.2569
  430SOL     OW 1288   1.894   1.088   2.178 -0.3700 -0.4535 -0.4730
  430SOL    HW1 1289   1.995   1.121   2.176  0.2262 -1.2773  0.4385
  430SOL    HW2 1290   1.866   1.078   2.080  2.7605  0.9710  0.7719
  431SOL     OW 1291   2.941   2.153   1.373  0.1084 -0.9753 -0.2795
  431SOL    HW1 1292   3.042   2.162   1.387 -0.9550  0.1196  0.4438
  431SOL    HW2 1293   2.898   2.248   1.374  0.3894  3.0608  0.8987
  432SOL     OW 1294   1.589   2.934   2.527  0.2865  0.4764  0.1138
  432SOL    HW1 1295   1.633   2.857   2.482  2.3518  0.8396  2.8541
  432SOL    HW2 1296   1.511   2.956   2.467  0.6221 -0.1439 -0.6554
  433SOL     OW 1297   1.797   0.070   1.458  0.1673  0.4648 -0.2361
  433SOL    HW1 1298   1.806   0.062   1.355 -0.9959 -0.6525  0.4566
  433SOL    HW2 1299   1.738   3.085   1.487 -1.5781 -1.5222  0.0323
  434SOL     OW 1300   3.010   2.409   2.188  0.0972  0.3390  0.3041
  434SOL    HW1 1301   2.983   2.434   2.090 -1.8417  0.9715 -2.7493
  434SOL    HW2 1302   3.041   2.311   2.188  1.7071  1.0015 -1.3739
  435SOL     OW 1303   0.245   2.004   0.432  0.1536  1.1164  0.5969
  435SOL    HW1 1304   0.300   1.923   0.462  2.1120  0.4956 -1.5330
  435SOL    HW2 1305   0.224   1.993   0.331 -0.4246 -1.0252  1.8401
  436SOL     OW 1306   0.609   1.246   1.681 -0.2138 -0.9181 -0.7918
  436SOL    HW1 1307   0.698   1.256   1.625  2.3192  1.5808 -1.6617
  436SOL    HW2 1308   0.626   1.250   1.784  1.1624 -1.3206  3.4427
  437SOL     OW 1309   0.690   0.474   2.749  0.3264  0.4274  0.6309
  437SOL    HW1 1310   0.787   0.498   2.740 -3.0443 -0.2564 -0.0072
  437SOL    HW2 1311   0.633   0.538   2.695  0.8984 -0.3096  1.6525
  438SOL     OW 1312   0.802   2.046   1.611 -0.5676 -0.4863 -0.0187
  438SOL    HW1 1313   0.710   2.036   1.573 -0.3477 -0.8525  1.0574
  438SOL    HW2 1314   0.853   1.960   1.597  2.3832 -0.0358  0.8104
  439SOL     OW 1315   1.836   1.384   2.948  0.1133  0.4819 -0.9342
  439SOL    HW1 1316   1.912   1.334   2.998  2.0493 -1.9733  2.8247
  439SOL    HW2 1317   1.753   1.371   3.001  2.3443  1.1345 -1.1150
  440SOL     OW 1318   1.252   0.655   0.448  0.1347  0.6715  0.0238
  440SOL    HW1 1319   1.280   0.727   0.378  2.3471  0.5961 -2.9833
  440SOL    HW2 1320   1.191   0.581   0.409  1.9417 -0.5124 -1.9972
  441SOL     OW 1321   0.426   2.732   1.687 -0.0340 -0.2030  0.1147
  441SOL    HW1 1322   0.510   2.677   1.657 -0.3406 -2.1256 -1.3157
  441SOL    HW2 1323   0.450   2.809   1.744  1.4908  2.0283 -0.2259
  442SOL     OW 1324   2.256   2.553   0.890 -0.5284 -0.4357 -0.6562
  442SOL    HW1 1325   2.184   2.485   0.866  0.6412  1.7451 -0.5670
  442SOL    HW2 1326   2.239   2.643   0.840 -0.2178 -0.9858 -2.9745
  443SOL     OW 1327   2.637   1.234   2.657  0.2932 -0.2083  0.1995
  443SOL    HW1 1328   2.647   1.136   2.689  1.1851 -1.9117  1.0150
  443SOL    HW2 1329   2.617   1.246   2.557  1.0663  3.9484 -0.2576
  444SOL     OW 1330   1.358   0.703   2.630  0.2009  0.0570 -0.3545
  444SOL    HW1 1331   1.454   0.683   2.608 -0.7779 -0.4877 -1.0209
  444SOL    HW2 1332   1.312   0.733   2.547  2.6671 -2.3385  1.2333
  445SOL     OW 1333   2.303   2.356   1.787  0.5659 -0.0558 -0.1201
  445SOL    HW1 1334   2.366   2.353   1.710 -1.4237 -0.5685  1.1348
  445SOL    HW2 1335   2.349   2.383   1.877 -0.0717  1.5138  1.2911
  446SOL     OW 1336   2.848   1.860   0.424  0.1311 -0.1539 -0.6955
  446SOL    HW1 1337   2.833   1.866   0.323 -0.9518  1.5516  1.4394
  446SOL    HW2 1338   2.923   1.919   0.459  1.2535 -0.7575 -1.6073
  447SOL     OW 1339   1.149   2.726   1.366  0.1932  0.8390  0.3104
  447SOL    HW1 1340   1.248   2.717   1.335 -0.9158  0.3886 -0.1598
  447SOL    HW2 1341   1.135   2.808   1.421  2.5355 -2.5363 -3.6307
  448SOL     OW 1342   1.702   1.573   1.977 -0.3688 -0.1351  0.0303
  448SOL    HW1 1343   1.793   1.589   2.018  1.8749  2.7102  2.2700
  448SOL    HW2 1344   1.635   1.624   2.040 -2.4761  0.1806  1.0156
  449SOL     OW 1345   0.322   2.065   2.271 -0.4076 -0.0033 -0.0697
  449SOL    HW1 1346   0.228   2.033   2.288 -2.9442  0.8330 -0.6900
  449SOL    HW2 1347   0.374   2.060   2.356 -0.7286  1.0935 -0.4621
  450SOL     OW 1348   2.962   1.546   2.416 -0.4698 -0.3257  0.7787
  450SOL    HW1 1349   3.005   1.464   2.452 -2.0569 -0.0798  0.7319
  450SOL    HW2 1350   2.877   1.571   2.463  2.6241  1.2462 -3.5617
  451SOL     OW 1351   2.443   0.658   1.247 -0.6840 -0.1797 -0.2932
  451SOL    HW1 1352   2.482   0.565   1.234 -2.4905  3.1473 -0.2712
  451SOL    HW2 1353   2.496   0.705   1.322 -0.9274 -3.6797 -0.0015
  452SOL     OW 1354   0.991   2.278   1.455 -0.3839 -0.1879 -0.0669
  452SOL    HW1 1355   0.994   2.261   1.555  1.3624  1.0982 -0.6443
  452SOL    HW2 1356   0.903   2.320   1.434  1.6711  0.0399 -2.1100
  453SOL     OW 1357   1.142   2.058   0.848  0.2874 -0.5109  0.4842
  453SOL    HW1 1358   1.230   2.064   0.901  1.1326 -1.2680 -0.6741
  453SOL    HW2 1359   1.115   2.150   0.816  0.9727 -0.5984 -0.4353
  454SOL     OW 1360   0.016   1.247   0.620  0.1835 -0.1322  0.6978
  454SOL    HW1 1361   0.046   1.203   0.708 -1.3638 -0.8102 -1.4857
  454SOL    HW2 1362   0.031   1.345   0.619 -0.0049 -2.1990 -1.0689
  455SOL     OW 1363   0.542   0.789   0.379 -0.2869  0.5321  0.2336
  455SOL    HW1 1364   0.539   0.842   0.292  1.5304 -1.6691  2.6415
  455SOL    HW2 1365   0.460   0.729   0.394  0.8105 -2.3779 -0.9271
  456SOL     OW 1366   2.016   2.286   1.132  0.1526  0.2318  0.1526
  456SOL    HW1 1367   1.949   2.349   1.166  2.1588 -3.8759 -1.0079
  456SOL    HW2 1368   2.022   2.293   1.029 -1.4207  0.3985  0.5997
  457SOL     OW 1369   1.481   2.661   2.890 -0.3513 -0.6555 -0.5100
  457SOL    HW1 1370   1.564   2.634   2.948  0.7128 -2.1629  0.6632
  457SOL    HW2 1371   1.404   2.683   2.955  0.3770  1.0069 -0.5442
  458SOL     OW 1372   2.673   0.047   3.053 -0.3788  0.8354  0.0842
  458SOL    HW1 1373   2.593   0.003   0.004 -1.4817  1.3621  2.1644
  458SOL    HW2 1374   2.738   3.072   3.005  0.3834  0.2478 -1.5896
  459SOL     OW 1375   2.283   0.112   2.182 -0.8427  0.1466  0.2376
  459SOL    HW1 1376   2.259   0.135   2.275  0.9076 -2.0094 -1.8397
  459SOL    HW2 1377   2.330   0.024   2.183  0.1399  0.6732 -2.4617
  460SOL     OW 1378   2.835   0.653   2.705  0.1373 -0.2107 -0.4753
  460SOL    HW1 1379   2.932   0.660   2.701 -1.5864  0.0429 -1.4108
  460SOL    HW2 1380   2.799   0.559   2.691 -1.4940  1.1205  0.8895
  461SOL     OW 1381   0.060   1.988   0.792  0.2098 -0.9294 -0.3528
  461SOL    HW1 1382   0.149   2.031   0.798 -0.8009  0.3746 -0.5414
  461SOL    HW2 1383   0.049   1.910   0.859 -1.8216 -0.4523  1.3700
  462SOL     OW 1384   0.057   0.104   0.856 -0.8301 -0.0325  0.0609
  462SOL    HW1 1385   0.001   0.037   0.803  0.8997  0.7196  1.9229
  462SOL    HW2 1386   0.011   0.191   0.880  2.1318 -0.7331 -1.8498
  463SOL     OW 1387   2.266   1.317   0.123  0.5298  0.6531  0.4477
  463SOL    HW1 1388   2.179   1.344   0.168  1.1558 -1.6702 -1.7453
  463SOL    HW2 1389   2.326   1.396   0.099 -4.3342 -2.4541 -0.1775
  464SOL     OW 1390   0.880   3.063   1.079  0.5953 -0.0821  0.1308
  464SOL    HW1 1391   0.868   2.961   1.093 -0.4255  3.2314 -1.0638
  464SOL    HW2 1392   0.918   0.022   1.155  0.4137 -0.3528 -0.7475
  465SOL     OW 1393   1.150   0.474   1.189 -0.5878  0.2350  0.0574
  465SOL    HW1 1394   1.098   0.543   1.242  0.1185  2.2531 -0.1414
  465SOL    HW2 1395   1.125   0.469   1.093  0.1677 -1.3869 -2.8835
  466SOL     OW 1396   1.514   2.660   2.033  0.1435 -0.1494  0.5043
  466SOL    HW1 1397   1.517   2.762   2.054 -1.3070 -3.0808  0.1933
  466SOL    HW2 1398   1.423   2.631   2.009 -1.0315 -2.2032  0.7793
  467SOL     OW 1399   0.832   2.596   1.864  0.0722  0.2570 -0.1003
  467SOL    HW1 1400   0.790   2.674   1.920 -2.7731  1.8203 -0.1563
  467SOL    HW2 1401   0.930   2.610   1.845  1.2444  1.7193 -0.3518
  468SOL     OW 1402   0.158   1.422   2.091  0.4901 -0.6946 -0.2629
  468SOL    HW1 1403   0.072   1.399   2.135 -0.4987 -0.9575 -0.5887
  468SOL    HW2 1404   0.153   1.520   2.055  1.5566  2.3690  0.6327
  469SOL     OW 1405   1.031   1.783   0.739  0.2872  0.1297 -0.0827
  469SOL    HW1 1406   1.040   1.768   0.638 -0.8353 -1.2808 -2.3357
  469SOL    HW2 1407   1.061   1.874   0.764 -1.8269  0.9943 -1.7771
  470SOL     OW 1408   2.162   1.133   2.182  0.4158  0.0139 -0.1618
  470SOL    HW1 1409   2.159   1.201   2.110 -0.3919  0.0605  1.5867
  470SOL    HW2 1410   2.212   1.154   2.262 -1.2176 -3.6024 -0.9564
  471SOL     OW 1411   0.405   2.247   0.095 -0.0168  0.6005 -0.1517
  471SOL    HW1 1412   0.310   2.267   0.065 -0.9380 -2.1547 -0.1326
  471SOL    HW2 1413   0.462   2.310   0.040 -1.4085  0.0040 -2.0311
  472SOL     OW 1414   0.071   2.887   2.182  0.1562 -0.5211 -0.1637
  472SOL    HW1 1415   0.070   2.788   2.204 -5.1546 -0.5541 -1.5938
  472SOL    HW2 1416   0.129   2.945   2.246 -0.3852  0.2157  0.4666
  473SOL     OW 1417   0.654   2.688   0.003  0.6230 -0.2202  0.0827
  473SOL    HW1 1418   0.615   2.712   3.005  1.8355  0.1599  0.7143
  473SOL    HW2 1419   0.756   2.680   0.003 -1.0995  1.1431  0.3760
  474SOL     OW 1420   1.686   0.169   0.721  0.0955  0.3054 -0.0885
  474SOL    HW1 1421   1.697   0.216   0.634 -2.3327 -2.9120 -0.6262
  474SOL    HW2 1422   1.764   0.197   0.783  1.0677  2.9129 -0.4420
  475SOL     OW 1423   1.564   0.195   1.421  0.0867  0.7095  0.2515
  475SOL    HW1 1424   1.543   0.186   1.324  0.3721 -0.2995 -2.1499
  475SOL    HW2 1425   1.649   0.143   1.440 -1.6526 -2.0302  0.7700
  476SOL     OW 1426   0.348   1.173   1.122 -0.1594  0.1622 -0.5853
  476SOL    HW1 1427   0.298   1.087   1.152  1.8234 -0.8110  1.5266
  476SOL    HW2 1428   0.419   1.140   1.053  0.6914 -0.4288  0.9564
  477SOL     OW 1429   0.491   1.846   0.739  0.1234  0.2879  0.0674
  477SOL    HW1 1430   0.555   1.776   0.781  2.6890 -0.5676  3.0804
  477SOL    HW2 1431   0.512   1.937   0.780  1.4241 -0.4677 -0.3625
  478SOL     OW 1432   0.107   2.617   2.202  0.1274  1.1224  0.2980
  478SOL    HW1 1433   0.050   2.540   2.238 -0.4038  1.1536  2.6974
  478SOL    HW2 1434   0.152   2.600   2.114 -1.2481  0.1846  0.3177
  479SOL     OW 1435   3.087   0.485   1.162 -0.3687  0.3392  0.0732
  479SOL    HW1 1436   3.061   0.577   1.192  3.4212 -0.4779  0.0536
  479SOL    HW2 1437   0.073   0.491   1.098 -1.1787 -1.1589 -1.6492
  480SOL     OW 1438   2.619   2.386   0.019 -0.5233 -0.3332  0.4197
  480SOL    HW1 1439   2.582   2.326   0.095  2.8049 -2.4842 -1.9634
  480SOL    HW2 1440   2.700   2.442   0.053  1.4418  0.8431  0.8656
  481SOL     OW 1441   2.216   1.861   1.657 -0.1944 -0.3091  0.8634
  481SOL    HW1 1442   2.216   1.921   1.573  1.5684 -1.7233 -1.8832
  481SOL    HW2 1443   2.143   1.876   1.725  0.1179 -0.5902 -1.1320
  482SOL     OW 1444   1.649   1.487   2.310 -0.0033  0.5413  0.9311
  482SOL    HW1 1445   1.718   1.460   2.245 -2.3034 -1.4214 -0.2901
  482SOL    HW2 1446   1.679   1.479   2.406  0.3661 -0.7663 -1.3392
  483SOL     OW 1447   0.906   1.418   1.868  0.2700 -0.0617  0.2417
  483SOL    HW1 1448   0.970   1.414   1.790 -2.0064  0.1215  0.9838
  483SOL    HW2 1449   0.850   1.334   1.876 -0.5547 -0.6515  0.9863
  484SOL     OW 1450   0.235   0.509   1.364 -0.2293 -0.1082  0.0092
  484SOL    HW1 1451   0.322   0.456   1.370 -2.2060  1.6096  0.0432
  484SOL    HW2 1452   0.157   0.454   1.343  1.6297  3.0115 -0.2091
  485SOL     OW 1453   2.348   1.108   3.087  0.2228 -0.1285  0.4430
  485SOL    HW1 1454   2.444   1.069   0.008 -0.1194  0.7392 -0.5225
  485SOL    HW2 1455   2.324   1.187   0.058 -1.9885  3.6349 -2.3437
  486SOL     OW 1456   1.389   0.170   1.650 -0.3724  0.3321 -0.4216
  486SOL    HW1 1457   1.293   0.189   1.607  0.4153 -0.5943 -2.6143
  486SOL    HW2 1458   1.454   0.162   1.575 -2.7474 -2.7892 -0.6192
  487SOL     OW 1459   0.834   2.283   1.709  0.4451  0.2888 -0.9328
  487SOL    HW1 1460   0.767   2.291   1.787 -1.1611 -0.2700  0.0123
  487SOL    HW2 1461   0.831   2.188   1.670 -0.8152  0.7280 -1.9366
  488SOL     OW 1462   2.592   1.484   2.736 -0.3015  0.0146  0.6857
  488SOL    HW1 1463   2.641   1.398   2.712  1.0532  0.4943 -0.5642
  488SOL    HW2 1464   2.494   1.458   2.713 -0.6991  0.3583  2.2038
  489SOL     OW 1465   2.024   2.983   0.629  0.5252 -0.4661  0.4324
  489SOL    HW1 1466   1.946   2.930   0.600  0.0329  2.2012  1.8073
  489SOL    HW2 1467   2.014   3.085   0.617  1.2212  2.3712  2.3227
  490SOL     OW 1468   0.652   2.204   2.939  0.2665 -0.0874 -0.6301
  490SOL    HW1 1469   0.624   2.182   2.843 -0.9241  1.8945  1.7781
  490SOL    HW2 1470   0.608   2.294   2.966  0.1972  0.3463 -0.7440
  491SOL     OW 1471   0.864   1.260   1.514 -0.0555 -0.4433 -0.0599
  491SOL    HW1 1472   0.925   1.333   1.484  1.2647  1.8271  0.1019
  491SOL    HW2 1473   0.909   1.171   1.490 -0.0064 -1.0984 -0.4868
  492SOL     OW 1474   1.033   0.673   2.082  0.5176 -0.0393  0.2136
  492SOL    HW1 1475   1.072   0.600   2.147 -0.3666 -3.5253  0.9466
  492SOL    HW2 1476   1.075   0.762   2.105 -0.4395 -0.7835 -0.1877
  493SOL     OW 1477   2.057   2.042   0.817  0.0116  0.4020  0.3379
  493SOL    HW1 1478   1.974   2.000   0.869 -1.3380  0.6541  0.2908
  493SOL    HW2 1479   2.130   2.077   0.888  1.7148  0.7967  1.6946
  494SOL     OW 1480   0.710   1.192   0.767  0.1014 -0.1895 -0.1187
  494SOL    HW1 1481   0.714   1.248   0.680  0.9053 -2.6136 -2.4966
  494SOL    HW2 1482   0.739   1.242   0.850  2.7469 -0.4815  2.7015
  495SOL     OW 1483   2.490   2.440   0.589 -0.4676  0.0459 -0.0215
  495SOL    HW1 1484   2.412   2.391   0.548  1.9091  1.5336  2.2352
  495SOL    HW2 1485   2.506   2.423   0.688 -2.3948 -2.2461 -2.6335
  496SOL     OW 1486   2.778   0.189   1.372 -0.4030  0.5329  0.6582
  496SOL    HW1 1487   2.682   0.153   1.356  0.0579 -0.6949 -0.5822
  496SOL    HW2 1488   2.837   0.125   1.423 -2.3315  1.1527 -1.1898
  497SOL     OW 1489   2.308   1.199   2.394  0.2644 -0.0286 -0.0780
  497SOL    HW1 1490   2.363   1.288   2.400  2.5365 -1.6886  0.9914
  497SOL    HW2 1491   2.271   1.186   2.487  1.3112 -2.0990 -1.4722
  498SOL     OW 1492   0.426   2.305   1.230 -0.2906  0.1986 -0.8114
  498SOL    HW1 1493   0.364   2.236   1.183 -1.6784 -1.8967  1.1240
  498SOL    HW2 1494   0.499   2.259   1.279 -2.4345  1.2692  0.6926
  499SOL     OW 1495   1.321   2.580   1.822 -0.4831 -0.0019 -0.2911
  499SOL    HW1 1496   1.356   2.487   1.841  1.3973  1.1296  0.3380
  499SOL    HW2 1497   1.280   2.586   1.726  2.0992  2.4364 -2.3650
  500SOL     OW 1498   0.718   1.951   0.331  0.0071 -0.5515 -0.1659
  500SOL    HW1 1499   0.714   1.977   0.231  1.6463  2.1682 -1.8651
  500SOL    HW2 1500   0.662   1.869   0.354  0.4886  3.0943 -0.7054
  501SOL     OW 1501   2.105   0.027   1.131 -0.4996 -0.0808 -0.2372
  501SOL    HW1 1502   2.074   3.075   1.042  0.8531 -1.0938  0.5601
  501SOL    HW2 1503   2.087   3.068   1.223 -0.0285 -0.3524  1.5914
  502SOL     OW 1504   2.876   0.299   1.689 -0.4176  0.1945  0.6633
  502SOL    HW1 1505   2.955   0.263   1.629 -0.0742 -0.8632 -1.0443
  502SOL    HW2 1506   2.909   0.333   1.781  1.0151 -0.0337  0.1149
  503SOL     OW 1507   2.487   1.272   1.768 -0.1720  0.2476  0.4991
  503SOL    HW1 1508   2.490   1.365   1.808  2.7851 -0.3097 -0.3480
  503SOL    HW2 1509   2.555   1.215   1.821  0.9416 -1.2702  1.2715
  504SOL     OW 1510   1.595   0.981   1.755 -0.0984  0.1091 -0.4534
  504SOL    HW1 1511   1.580   0.903   1.818  2.5337  2.1527  0.1736
  504SOL    HW2 1512   1.638   0.944   1.669  1.2923 -1.3999 -0.7980
  505SOL     OW 1513   0.699   0.082   1.707  0.0653 -0.0940 -0.2943
  505SOL    HW1 1514   0.679   0.022   1.627 -0.1901  1.4503 -0.2579
  505SOL    HW2 1515   0.798   0.094   1.726 -0.1975 -0.0684 -0.9465
  506SOL     OW 1516   0.199   0.312   0.514 -0.1430 -0.4216 -0.6042
  506SOL    HW1 1517   0.270   0.351   0.453  1.7132 -1.5061  1.7951
  506SOL    HW2 1518   0.222   0.317   0.617 -2.5231  0.9953 -1.6144
  507SOL     OW 1519   2.500   0.742   3.058 -0.3073  0.2255 -0.1060
  507SOL    HW1 1520   2.602   0.757   3.038  3.0485  2.5252  0.7176
  507SOL    HW2 1521   2.463   0.666   3.001 -1.2925 -2.5199 -0.1030
  508SOL     OW 1522   1.488   0.305   1.855 -0.2324  0.6914 -0.4229
  508SOL    HW1 1523   1.439   0.268   1.773  1.1437  3.5149  0.2009
  508SOL    HW2 1524   1.534   0.394   1.829 -0.2045  1.5319  0.4528
  509SOL     OW 1525   1.586   1.654   1.232 -0.1197  0.1043  0.0924
  509SOL    HW1 1526   1.581   1.617   1.326 -1.7954  0.5946 -0.1709
  509SOL    HW2 1527   1.494   1.681   1.194  2.1517 -1.5370 -1.2914
  510SOL     OW 1528   2.608   1.239   1.270 -0.2731 -0.2000 -0.2062
  510SOL    HW1 1529   2.511   1.222   1.286  2.7294 -0.2909 -1.9555
  510SOL    HW2 1530   2.642   1.177   1.198  0.3072  0.6003 -0.8357
  511SOL     OW 1531   1.590   2.089   1.340  0.5139 -0.1508 -0.3709
  511SOL    HW1 1532   1.660   2.011   1.320 -2.0395 -2.0819 -0.2280
  511SOL    HW2 1533   1.607   2.176   1.286  0.8639 -1.6861  0.6014
  512SOL     OW 1534   0.196   1.623   0.418 -0.0456  0.8117 -0.2993
  512SOL    HW1 1535   0.263   1.553   0.384 -1.1694  0.2071  2.7382
  512SOL    HW2 1536   0.250   1.687   0.470 -1.0505  0.2144 -3.9657
  513SOL     OW 1537   3.021   2.049   0.079 -0.1234 -0.6744  0.1324
  513SOL    HW1 1538   3.024   2.075   3.070 -0.4902 -0.4358 -0.9351
  513SOL    HW2 1539   0.013   2.003   0.112  0.1582 -2.0318  0.4331
  514SOL     OW 1540   2.655   2.029   2.296 -0.1482 -0.5270 -0.0553
  514SOL    HW1 1541   2.667   2.048   2.395  0.6942 -1.7610 -0.8846
  514SOL    HW2 1542   2.700   1.947   2.263 -0.3963  0.5489  1.7411
  515SOL     OW 1543   2.074   1.147   0.836  0.2340  0.0732 -0.4489
  515SOL    HW1 1544   1.997   1.160   0.772  1.5128 -0.1159  0.3136
  515SOL    HW2 1545   2.061   1.063   0.890  0.2715  0.8950 -1.4794
  516SOL     OW 1546   2.002   2.737   0.337  0.7333  0.3865  0.2260
  516SOL    HW1 1547   1.957   2.739   0.242  2.1127  0.4109 -1.6510
  516SOL    HW2 1548   1.933   2.725   0.409  0.0760 -1.7722  0.9971
  517SOL     OW 1549   0.864   1.856   2.480 -0.1663 -0.2274 -0.7462
  517SOL    HW1 1550   0.946   1.859   2.424 -1.2508 -1.0075  0.3074
  517SOL    HW2 1551   0.780   1.896   2.435 -1.1420 -1.8402 -1.3992
  518SOL     OW 1552   0.372   0.203   2.030 -0.4331 -0.3423  0.4595
  518SOL    HW1 1553   0.438   0.211   2.108 -0.4314 -0.5092 -1.4870
  518SOL    HW2 1554   0.418   0.237   1.948 -0.0915  0.5247  0.4980
  519SOL     OW 1555   0.297   1.399   0.328 -0.3291 -0.1099 -0.3188
  519SOL    HW1 1556   0.221   1.338   0.347  0.0977  0.2803  0.7646
  519SOL    HW2 1557   0.382   1.347   0.305  1.5085 -0.3695 -1.1649
  520SOL     OW 1558   2.664   1.872   1.732  0.2444  0.0857 -0.4550
  520SOL    HW1 1559   2.659   1.895   1.830 -0.9976 -0.4872 -2.2052
  520SOL    HW2 1560   2.587   1.916   1.683  0.2017 -0.9385  0.9528
  521SOL     OW 1561   0.649   2.491   2.505  0.2220 -0.1167 -0.2096
  521SOL    HW1 1562   0.659   2.398   2.463 -0.6206 -1.1987 -2.2083
  521SOL    HW2 1563   0.589   2.544   2.442 -2.9226 -2.1178  0.4233
  522SOL     OW 1564   1.789   0.137   2.118  0.0321 -0.4363 -0.3731
  522SOL    HW1 1565   1.884   0.142   2.080 -1.2248 -0.8425  3.5169
  522SOL    HW2 1566   1.787   0.187   2.209 -0.1085  1.6902  2.3887
  523SOL     OW 1567   2.014   1.769   1.941 -0.3474 -0.8041 -0.2449
  523SOL    HW1 1568   2.077   1.850   1.956 -0.6087  0.4706  1.0955
  523SOL    HW2 1569   1.983   1.723   2.028 -0.5950 -1.3417 -2.3193
  524SOL     OW 1570   0.743   2.953   0.180 -0.1294 -0.1368 -0.3230
  524SOL    HW1 1571   0.825   2.889   0.178 -0.2660  2.1730  0.5785
  524SOL    HW2 1572   0.734   2.995   0.087 -1.8035 -0.3755 -0.4162
  525SOL     OW 1573   0.092   0.531   0.387 -0.1732  0.0305  0.4755
  525SOL    HW1 1574   0.109   0.443   0.427 -0.0539  4.0564  0.4492
  525SOL    HW2 1575   0.030   0.592   0.437 -1.8719  2.4024 -0.4905
  526SOL     OW 1576   0.849   2.739   0.636  0.7375 -0.7200  0.4065
  526SOL    HW1 1577   0.915   2.752   0.708 -2.5575  2.3308 -3.2864
  526SOL    HW2 1578   0.779   2.814   0.649 -0.7642  0.5486  1.0114
  527SOL     OW 1579   2.143   1.788   0.982 -0.0966 -0.0357 -0.3461
  527SOL    HW1 1580   2.065   1.739   0.936 -0.2575 -1.3969  1.0644
  527SOL    HW2 1581   2.174   1.740   1.063 -0.6834  2.4483 -0.8847
  528SOL     OW 1582   3.028   2.806   2.685 -0.1798  0.4637  0.5207
  528SOL    HW1 1583   2.929   2.829   2.665 -0.3238  0.8394  0.5803
  528SOL    HW2 1584   3.045   2.721   2.736 -1.7314 -3.4733 -0.2832
  529SOL     OW 1585   1.266   1.579   2.482 -0.1690 -0.1769  0.5193
  529SOL    HW1 1586   1.178   1.527   2.494 -1.4087  1.2020  1.1657
  529SOL    HW2 1587   1.331   1.528   2.419  0.7127  0.1705  0.6953
  530SOL     OW 1588   1.395   1.261   2.975  0.2789 -0.3618  0.3413
  530SOL    HW1 1589   1.350   1.345   2.934 -1.8687 -1.3818 -3.1627
  530SOL    HW2 1590   1.337   1.182   2.963 -1.3066  0.7525 -1.0141
  531SOL     OW 1591   0.525   1.250   2.959 -0.3649  0.0721 -0.0978
  531SOL    HW1 1592   0.486   1.259   2.867  1.2128 -0.3414  1.9482
  531SOL    HW2 1593   0.448   1.204   3.013 -1.5107  3.1466  0.6266
  532SOL     OW 1594   1.590   1.490   0.576  0.2626  0.4828 -0.1944
  532SOL    HW1 1595   1.581   1.466   0.677 -1.0638  2.2575  0.9956
  532SOL    HW2 1596   1.602   1.591   0.560 -2.0639 -0.6185 -0.3772
  533SOL     OW 1597   0.570   0.135   2.438 -0.0753 -0.5460 -0.3903
  533SOL    HW1 1598   0.591   0.184   2.352  1.4320 -1.6393 -0.3306
  533SOL    HW2 1599   0.647   0.157   2.505 -0.7696  0.1109 -2.1391
  534SOL     OW 1600   0.527   2.433   3.036 -0.2497  0.1461  0.1033
  534SOL    HW1 1601   0.487   2.465   2.946 -0.5102  0.9322 -0.5142
  534SOL    HW2 1602   0.580   2.506   3.083  1.4759  2.2266  0.2249
  535SOL     OW 1603   0.192   0.034   0.505 -0.0714 -0.1873 -0.8495
  535SOL    HW1 1604   0.286   0.010   0.543  3.3179 -0.7672  1.5541
  535SOL    HW2 1605   0.183   0.128   0.475  0.3461 -2.3043  0.1788
  536SOL     OW 1606   0.059   0.954   2.163 -0.1237  0.3328  0.4044
  536SOL    HW1 1607   0.101   0.955   2.067  3.9633 -1.5496 -2.1559
  536SOL    HW2 1608   0.122   0.895   2.216 -1.5665  2.7069 -3.0372
  537SOL     OW 1609   1.074   0.079   1.335  0.1023 -0.0415  0.0173
  537SOL    HW1 1610   0.974   0.103   1.341 -1.5720  0.5349  2.1920
  537SOL    HW2 1611   1.127   0.124   1.257 -1.0144  1.3804 -2.5873
  538SOL     OW 1612   3.079   2.012   0.500  0.8722 -0.2444  0.0398
  538SOL    HW1 1613   0.075   1.991   0.461 -1.4530  1.4135  4.4132
  538SOL    HW2 1614   3.087   2.024   0.602 -1.3544  0.0269  0.6430
  539SOL     OW 1615   2.624   1.136   1.983 -0.0653 -0.1902  0.2868
  539SOL    HW1 1616   2.714   1.150   1.942  0.3585 -2.2007 -0.0898
  539SOL    HW2 1617   2.607   1.037   1.968  0.3959 -0.1182 -3.1551
  540SOL     OW 1618   1.624   1.021   2.250  0.1456  0.0532  0.0711
  540SOL    HW1 1619   1.603   1.074   2.334  2.8859  1.2002  0.3568
  540SOL    HW2 1620   1.722   1.016   2.236  0.5858 -0.2702  3.0754
  541SOL     OW 1621   0.904   0.945   1.933 -0.6462 -0.1308 -0.4376
  541SOL    HW1 1622   0.939   0.937   2.029  0.7595  0.3857  0.8684
  541SOL    HW2 1623   0.886   0.852   1.897  3.0576 -2.1723 -1.6093
  542SOL     OW 1624   1.834   0.313   2.384  0.1255 -0.0442 -0.8739
  542SOL    HW1 1625   1.791   0.354   2.469 -1.9435  0.6773 -0.5746
  542SOL    HW2 1626   1.920   0.366   2.366 -1.1732  1.0613 -0.0311
  543SOL     OW 1627   1.182   0.383   0.416  0.0100 -0.2126 -0.0522
  543SOL    HW1 1628   1.121   0.321   0.366 -0.6829  1.1006  2.0334
  543SOL    HW2 1629   1.282   0.358   0.410  1.6828 -0.0127 -0.3554
  544SOL     OW 1630   2.568   1.915   2.006 -0.4817 -0.1859  0.0079
  544SOL    HW1 1631   2.640   1.865   2.061  0.3616  1.3907 -2.3249
  544SOL    HW2 1632   2.556   2.010   2.044  1.0955  0.1441 -2.2525
  545SOL     OW 1633   1.942   2.365   2.024 -0.0192  0.1870 -0.2455
  545SOL    HW1 1634   1.993   2.321   2.104  0.8013 -1.1334  1.8333
  545SOL    HW2 1635   1.845   2.386   2.046 -0.5499  0.5842  0.6100
  546SOL     OW 1636   0.284   0.149   2.849 -0.1250  0.1011  0.1808
  546SOL    HW1 1637   0.315   0.100   2.934 -1.3027  1.1004  0.9430
  546SOL    HW2 1638   0.181   0.145   2.833 -0.6725 -0.0312  0.9318
  547SOL     OW 1639   1.730   0.877   0.448 -0.3852  0.0717  0.3378
  547SOL    HW1 1640   1.633   0.905   0.471 -1.7453 -0.1361 -0.2687
  547SOL    HW2 1641   1.789   0.959   0.438  1.6648  0.7726  1.1914
  548SOL     OW 1642   2.354   1.631   2.152  0.2184  0.7762 -0.1650
  548SOL    HW1 1643   2.379   1.631   2.052  1.2559 -0.9172  0.3515
  548SOL    HW2 1644   2.438   1.638   2.210 -1.7925 -1.7119 -0.9465
  549SOL     OW 1645   1.993   0.401   0.459  0.3421 -0.0059 -0.5704
  549SOL    HW1 1646   2.065   0.429   0.395 -3.9662 -1.3064  1.0294
  549SOL    HW2 1647   1.955   0.477   0.514  0.7920 -0.3420  2.0127
  550SOL     OW 1648   2.422   2.131   0.888  0.2166 -0.4106  0.2100
  550SOL    HW1 1649   2.363   2.097   0.962  2.2429  2.4278 -4.0360
  550SOL    HW2 1650   2.396   2.229   0.864 -1.0251  0.4789 -0.1142
  551SOL     OW 1651   1.058   2.953   1.513  0.1518 -0.4505  0.2191
  551SOL    HW1 1652   1.067   3.044   1.462 -0.4355  2.0912  0.2941
  551SOL    HW2 1653   1.063   2.968   1.611  1.0320 -0.8554 -1.8351
  552SOL     OW 1654   2.734   2.102   2.546 -0.0448 -0.7291  0.0547
  552SOL    HW1 1655   2.734   2.029   2.620 -1.2961 -0.1123  0.2107
  552SOL    HW2 1656   2.813   2.162   2.556 -0.4594  0.6194 -0.0887
  553SOL     OW 1657   0.444   3.089   0.667  0.6815  0.1585 -0.0401
  553SOL    HW1 1658   0.491   0.083   0.675 -0.7829 -1.2238  1.1455
  553SOL    HW2 1659   0.369   3.080   0.746 -3.2253  1.3720  2.3175
  554SOL     OW 1660   2.038   2.260   1.780 -0.1843 -0.2112  0.0225
  554SOL    HW1 1661   1.994   2.278   1.871  0.0423  2.0083  1.0690
  554SOL    HW2 1662   2.129   2.306   1.779  2.4921 -3.4854  3.7624
  555SOL     OW 1663   1.106   2.371   2.027  0.8478 -1.2149  0.1383
  555SOL    HW1 1664   1.109   2.383   1.926 -1.2866  1.4327 -3.2111
  555SOL    HW2 1665   1.024   2.315   2.049  1.2886 -0.4242 -0.8546
  556SOL     OW 1666   1.388   1.414   1.659  0.0550  0.1129  0.3315
  556SOL    HW1 1667   1.355   1.473   1.583 -0.8680  0.1645 -1.3034
  556SOL    HW2 1668   1.454   1.460   1.722  0.4594 -0.1603 -0.3944
  557SOL     OW 1669   1.846   2.349   2.376  0.1161  0.2071 -0.2067
  557SOL    HW1 1670   1.856   2.272   2.442  2.1327  1.3497  1.8826
  557SOL    HW2 1671   1.748   2.364   2.355 -1.1679 -0.0616 -0.8484
  558SOL     OW 1672   0.722   2.834   1.986 -0.0247 -0.1468  0.0065
  558SOL    HW1 1673   0.624   2.835   1.957  2.6398  0.5172  0.0250
  558SOL    HW2 1674   0.769   2.923   1.967 -1.1088 -2.1288 -0.7834
  559SOL     OW 1675   2.485   2.830   1.217 -0.2598 -0.2795  0.3068
  559SOL    HW1 1676   2.506   2.788   1.309  1.4788  0.1222  2.5996
  559SOL    HW2 1677   2.573   2.864   1.168  2.2582 -2.9579 -1.7251
  560SOL     OW 1678   1.198   2.344   0.462 -0.3487 -0.4864  0.7583
  560SOL    HW1 1679   1.168   2.437   0.424  0.9665  1.6205 -0.2742
  560SOL    HW2 1680   1.202   2.283   0.383  3.1923 -0.2905  2.4467
  561SOL     OW 1681   1.039   0.511   0.111 -0.3608  0.3263 -0.3274
  561SOL    HW1 1682   0.941   0.490   0.121 -0.4050 -0.8623  2.0392
  561SOL    HW2 1683   1.053   0.605   0.141 -3.5475 -3.3524 -2.6986
  562SOL     OW 1684   0.762   0.168   2.631  0.2077 -0.2571 -0.3506
  562SOL    HW1 1685   0.710   0.183   2.718  1.4750  0.2724  1.0840
  562SOL    HW2 1686   0.852   0.127   2.657 -0.0111  0.3658 -0.3618
  563SOL     OW 1687   1.397   1.644   3.019 -0.5632 -0.2217 -0.6252
  563SOL    HW1 1688   1.445   1.619   0.012  1.0253 -2.6328  3.1451
  563SOL    HW2 1689   1.413   1.737   2.977 -1.3443  1.8875 -0.8577
  564SOL     OW 1690   2.370   1.038   0.986 -0.3792 -0.1391  0.0842
  564SOL    HW1 1691   2.473   1.045   0.990  1.7174 -1.2907  0.9017
  564SOL    HW2 1692   2.339   1.039   0.886 -1.8011  0.9614 -1.4576
  565SOL     OW 1693   0.984   0.067   2.730 -0.7456 -0.5642 -0.0539
  565SOL    HW1 1694   0.956   0.003   2.806  0.7866 -0.8548 -1.0150
  565SOL    HW2 1695   1.057   0.136   2.760 -0.6256  0.7009  1.4930
  566SOL     OW 1696   1.604   0.152   2.558 -0.2216  0.2052 -0.2661
  566SOL    HW1 1697   1.600   0.053   2.574 -2.1461  0.6328 -0.0992
  566SOL    HW2 1698   1.661   0.180   2.482 -1.4485 -1.6308  1.7833
  567SOL     OW 1699   1.988   1.450   0.658 -0.9020  0.9400  0.2488
  567SOL    HW1 1700   2.092   1.440   0.660  1.6083 -1.1133 -0.9649
  567SOL    HW2 1701   1.965   1.540   0.700  0.3904 -0.3930  1.0825
  568SOL     OW 1702   1.800   1.963   0.518  0.5302  0.3128  0.1134
  568SOL    HW1 1703   1.867   2.006   0.449  0.7842  1.7226 -0.8598
  568SOL    HW2 1704   1.761   2.032   0.579 -0.2495 -3.1411 -1.8950
  569SOL     OW 1705   2.036   1.226   3.036  0.0206 -0.1692  0.6838
  569SOL    HW1 1706   2.027   1.126   3.013  0.3333  2.1434 -0.9493
  569SOL    HW2 1707   2.116   1.255   0.001  0.9684 -2.0752  1.7129
  570SOL     OW 1708   0.019   2.401   1.658  0.4703 -0.0979  0.3163
  570SOL    HW1 1709   0.021   2.423   1.560  1.0232  0.1895 -0.5199
  570SOL    HW2 1710   0.116   2.399   1.688  2.7263  0.6366 -0.4571
  571SOL     OW 1711   0.156   0.557   2.076 -0.2402 -0.4660  0.2093
  571SOL    HW1 1712   0.228   0.624   2.090 -1.9507 -0.7625  0.8005
  571SOL    HW2 1713   0.091   0.568   2.147  1.4368  0.2332 -2.3817
  572SOL     OW 1714   1.050   1.320   0.950  0.0154  0.2804 -0.1639
  572SOL    HW1 1715   0.955   1.333   0.980  1.0986  1.4877  1.9333
  572SOL    HW2 1716   1.085   1.402   0.900 -2.8848 -0.3588  0.2753
  573SOL     OW 1717   1.141   1.846   0.034 -0.7931 -0.0464  0.2767
  573SOL    HW1 1718   1.136   1.858   3.026  0.5305 -0.2833  1.3459
  573SOL    HW2 1719   1.237   1.863   0.057 -3.1789 -1.6013 -2.8137
  574SOL     OW 1720   1.118   3.038   0.539  0.0070 -0.2255  0.2371
  574SOL    HW1 1721   1.018   3.021   0.526 -1.0800  0.1647 -2.4664
  574SOL    HW2 1722   1.140   3.051   0.635  0.6785 -1.7468  0.4993
  575SOL     OW 1723   3.083   1.143   1.549  0.3266  0.3737  0.4122
  575SOL    HW1 1724   3.013   1.168   1.485 -3.3306 -0.3673  1.8470
  575SOL    HW2 1725   0.027   1.229   1.589  0.2430 -1.1903  0.6150
  576SOL     OW 1726   2.048   2.962   1.368 -0.0934 -0.2156  0.1176
  576SOL    HW1 1727   2.039   2.866   1.407 -0.2846  1.3398 -0.4008
  576SOL    HW2 1728   1.955   3.001   1.348 -1.5728 -1.7389 -0.8663
  577SOL     OW 1729   0.582   0.955   1.876 -0.3645  0.3960 -0.0024
  577SOL    HW1 1730   0.584   0.868   1.928  1.0374  0.4216 -2.2638
  577SOL    HW2 1731   0.660   1.015   1.901  2.4140 -1.3519 -1.6441
  578SOL     OW 1732   2.088   0.549   2.502 -0.4150 -0.5587  0.9142
  578SOL    HW1 1733   2.088   0.531   2.599 -1.0029  1.8358  0.0277
  578SOL    HW2 1734   2.118   0.649   2.490 -1.9088  1.9224 -1.0284
  579SOL     OW 1735   2.458   2.234   1.575  0.0310 -0.2874  0.9400
  579SOL    HW1 1736   2.444   2.132   1.555  1.4706  0.6655  1.6366
  579SOL    HW2 1737   2.427   2.280   1.490 -2.9079 -0.3919 -0.9079
  580SOL     OW 1738   1.961   1.188   2.606  0.1111 -0.1841  0.0632
  580SOL    HW1 1739   1.906   1.164   2.686  1.4629 -1.0389 -0.9550
  580SOL    HW2 1740   1.950   1.117   2.536  0.6400  2.9871  2.2331
  581SOL     OW 1741   1.180   1.047   2.973  0.0478 -0.1148  0.3843
  581SOL    HW1 1742   1.083   1.028   2.999  3.3910  1.6784  1.0513
  581SOL    HW2 1743   1.213   1.001   2.888  1.1166 -0.4825 -0.8736
  582SOL     OW 1744   1.087   1.405   1.670 -0.4059 -0.1481  0.3277
  582SOL    HW1 1745   1.054   1.428   1.576  1.1345 -2.4600  0.6187
  582SOL    HW2 1746   1.184   1.425   1.686 -0.9123  0.1632  3.5525
  583SOL     OW 1747   1.615   1.316   1.421 -0.3363 -0.0115 -0.3716
  583SOL    HW1 1748   1.557   1.247   1.476  0.1035 -1.6454 -1.6767
  583SOL    HW2 1749   1.564   1.347   1.340  0.1322 -2.0549 -0.0767
  584SOL     OW 1750   1.702   2.564   0.569  0.3977  0.5587 -0.0534
  584SOL    HW1 1751   1.603   2.542   0.591 -1.0235  1.0595 -0.2324
  584SOL    HW2 1752   1.765   2.523   0.639  3.9170 -1.4603  0.8311
  585SOL     OW 1753   1.959   2.672   2.911 -0.4364  0.5082  0.5337
  585SOL    HW1 1754   1.979   2.741   2.838 -2.0395  2.3028 -0.9692
  585SOL    HW2 1755   2.036   2.666   2.978 -0.9279  1.3149  0.6804
  586SOL     OW 1756   2.746   2.252   0.900  0.5015 -0.2333  0.3777
  586SOL    HW1 1757   2.669   2.319   0.894  0.8613  3.1320 -1.8692
  586SOL    HW2 1758   2.724   2.176   0.968  0.8049 -0.2897 -0.8284
  587SOL     OW 1759   1.016   1.658   0.171 -0.1883 -0.0827 -0.0835
  587SOL    HW1 1760   1.056   1.736   0.120 -1.2059 -2.9545 -1.0617
  587SOL    HW2 1761   1.068   1.574   0.147  2.0102  2.0090  0.8461
  588SOL     OW 1762   0.702   0.133   0.919  0.4105  0.3150 -0.5861
  588SOL    HW1 1763   0.766   0.083   0.981  1.5749  0.5552 -0.8623
  588SOL    HW2 1764   0.754   0.155   0.835  0.5029  2.2370 -3.7738
  589SOL     OW 1765   1.226   0.747   0.688  0.6088 -0.1177  0.0478
  589SOL    HW1 1766   1.225   0.724   0.589 -0.7916  0.7937  1.2322
  589SOL    HW2 1767   1.267   0.677   0.747 -0.3689  2.1504  0.4501
  590SOL     OW 1768   1.605   2.915   3.060  0.1835  0.3995 -0.3236
  590SOL    HW1 1769   1.601   2.914   2.958 -1.1643  0.5287 -0.3633
  590SOL    HW2 1770   1.555   2.838   0.007  1.0944  1.9464  1.4695
  591SOL     OW 1771   0.052   2.493   2.570  0.3505 -0.3543  0.3320
  591SOL    HW1 1772   0.128   2.497   2.509  1.1692 -0.1542  3.0066
  591SOL    HW2 1773   3.064   2.537   2.524  0.5431  0.8257  1.5547
  592SOL     OW 1774   2.906   1.574   2.013  0.1313 -0.1334  0.2524
  592SOL    HW1 1775   2.824   1.539   1.965  0.4950 -2.6095  1.9405
  592SOL    HW2 1776   2.946   1.505   2.075 -1.8284 -1.0640 -2.8954
  593SOL     OW 1777   1.588   1.577   1.489  0.2535 -0.1467  0.1541
  593SOL    HW1 1778   1.603   1.479   1.466  2.3106  0.0004  1.7687
  593SOL    HW2 1779   1.529   1.579   1.572 -1.2548  1.9484 -1.8639
  594SOL     OW 1780   2.720   1.306   0.067 -0.4574 -0.2550 -0.0828
  594SOL    HW1 1781   2.822   1.306   0.076  2.1959 -1.7943  0.6933
  594SOL    HW2 1782   2.686   1.214   0.055  0.7711 -2.5846 -1.1679
  595SOL     OW 1783   0.848   0.644   0.433  0.3162 -0.0591 -0.1775
  595SOL    HW1 1784   0.749   0.640   0.470 -5.1245 -0.0749 -0.1757
  595SOL    HW2 1785   0.899   0.715   0.478 -2.5304 -2.6372 -2.8734
  596SOL     OW 1786   0.140   1.451   1.304 -0.3522 -0.4234  0.2430
  596SOL    HW1 1787   0.155   1.469   1.201 -1.1464  1.1911 -0.5918
  596SOL    HW2 1788   0.214   1.503   1.354 -0.6814  1.8359  1.2074
  597SOL     OW 1789   0.969   2.040   1.065  0.3230 -0.8486  0.3191
  597SOL    HW1 1790   0.977   2.056   1.166 -0.2622 -1.4610  1.7609
  597SOL    HW2 1791   1.048   2.068   1.011 -3.2238 -0.1875  1.5885
  598SOL     OW 1792   0.100   0.032   1.729  0.2310 -0.3833  0.0699
  598SOL    HW1 1793   0.165   3.063   1.774  0.3705 -0.9213 -2.2080
  598SOL    HW2 1794   0.024   0.040   1.797  1.6233 -4.2359 -2.5741
  599SOL     OW 1795   0.345   1.543   2.590 -0.2194 -0.0069 -0.8004
  599SOL    HW1 1796   0.295   1.574   2.673  0.5813 -0.7689 -0.9979
  599SOL    HW2 1797   0.288   1.569   2.506 -1.1984 -2.6036 -1.3438
  600SOL     OW 1798   0.535   0.739   2.762 -0.0321  0.3913  0.4713
  600SOL    HW1 1799   0.459   0.702   2.819  1.0445 -1.3342  1.8741
  600SOL    HW2 1800   0.618   0.761   2.817  2.0579  0.1436  0.2305
  601SOL     OW 1801   0.485   1.015   1.633  0.4149 -0.1769  0.5785
  601SOL    HW1 1802   0.528   1.106   1.646 -1.4942 -1.1807  0.7732
  601SOL    HW2 1803   0.518   0.958   1.707 -3.1674  1.6832 -2.8218
  602SOL     OW 1804   0.403   0.058   0.019 -0.2600  0.1817 -0.1658
  602SOL    HW1 1805   0.492   0.007   0.022 -2.0827  1.7155 -0.7214
  602SOL    HW2 1806   0.339   0.015   0.086 -0.0564 -1.5321  3.7870
  603SOL     OW 1807   1.588   2.463   2.574  0.6020 -0.0358 -0.0123
  603SOL    HW1 1808   1.665   2.410   2.617  0.3384 -1.7516 -2.0630
  603SOL    HW2 1809   1.512   2.480   2.642  1.0172  3.2320  0.2457
  604SOL     OW 1810   0.157   2.444   2.888  0.3999 -0.2987 -0.6205
  604SOL    HW1 1811   0.150   2.413   2.985  0.6044  0.4454 -0.0162
  604SOL    HW2 1812   0.225   2.394   2.831  0.9530 -2.1870  2.2013
  605SOL     OW 1813   2.329   1.001   1.409 -0.4638 -0.5638 -0.0073
  605SOL    HW1 1814   2.300   1.058   1.329 -2.4740 -1.2948 -0.5447
  605SOL    HW2 1815   2.267   1.015   1.491 -0.9389 -0.1907  0.0170
  606SOL     OW 1816   0.825   1.019   2.681  0.5743  0.0829 -0.8086
  606SOL    HW1 1817   0.863   1.112   2.693 -1.4522  1.7300 -0.1729
  606SOL    HW2 1818   0.882   0.947   2.719 -2.3574  0.1727  1.0837
  607SOL     OW 1819   0.793   0.377   1.016  0.3017 -0.4079 -1.1469
  607SOL    HW1 1820   0.738   0.303   1.063 -2.4722  1.1543  2.2308
  607SOL    HW2 1821   0.879   0.347   0.976 -2.9437 -0.9574 -0.0102
  608SOL     OW 1822   3.030   1.614   1.753 -0.6532 -0.0944 -0.1057
  608SOL    HW1 1823   2.979   1.635   1.838 -0.7939 -0.2248 -3.4541
  608SOL    HW2 1824   2.961   1.570   1.696 -1.5253 -0.0188  2.4123
  609SOL     OW 1825   2.457   0.515   0.345 -0.0039 -0.2610 -0.6921
  609SOL    HW1 1826   2.363   0.504   0.307  0.4619  2.7504  0.2749
  609SOL    HW2 1827   2.457   0.603   0.390 -0.9726  1.2371 -2.2711
  610SOL     OW 1828   0.395   2.773   1.223 -0.4377  0.2715  0.1022
  610SOL    HW1 1829   0.364   2.808   1.313  0.9426 -1.0283  0.2591
  610SOL    HW2 1830   0.327   2.805   1.152 -0.3166  1.0707  0.3162
  611SOL     OW 1831   1.408   1.900   0.140 -0.3833  0.0489  0.0260
  611SOL    HW1 1832   1.498   1.940   0.131 -1.7516 -0.2820 -2.6630
  611SOL    HW2 1833   1.412   1.834   0.214  0.3543 -1.2502  0.4570
  612SOL     OW 1834   0.712   0.078   2.023 -0.0432  0.1547  0.1288
  612SOL    HW1 1835   0.809   0.040   2.040  2.9212 -0.2202 -1.0472
  612SOL    HW2 1836   0.683   0.075   1.923 -2.9387 -0.9292 -0.3566
  613SOL     OW 1837   0.521   2.132   0.828 -0.3888  0.0763 -0.4937
  613SOL    HW1 1838   0.511   2.087   0.923  0.9863 -0.6306 -1.4200
  613SOL    HW2 1839   0.549   2.228   0.839 -1.1190  0.0098 -1.0652
  614SOL     OW 1840   2.056   0.140   2.066  0.0628 -0.1338 -0.0738
  614SOL    HW1 1841   2.147   0.121   2.114  0.6130 -2.8365  0.3266
  614SOL    HW2 1842   2.062   0.126   1.964  0.9332  0.0459  1.7058
  615SOL     OW 1843   1.520   1.410   0.840  0.1742 -0.4811 -0.5201
  615SOL    HW1 1844   1.558   1.318   0.868 -0.5095  2.8177 -0.5968
  615SOL    HW2 1845   1.425   1.394   0.810 -0.0631  0.4295  0.8411
  616SOL     OW 1846   1.838   1.445   0.411  0.2348 -0.0077 -0.5911
  616SOL    HW1 1847   1.905   1.458   0.486 -1.5021 -1.0295  2.3933
  616SOL    HW2 1848   1.742   1.456   0.451 -1.9683  1.3251  0.9181
  617SOL     OW 1849   1.551   0.857   3.055  0.4747 -0.1402 -0.3175
  617SOL    HW1 1850   1.623   0.894   0.024 -0.3671  0.5148 -3.2917
  617SOL    HW2 1851   1.575   0.883   2.958  1.4101  2.1611  1.2695
  618SOL     OW 1852   0.884   0.691   1.860  0.8101 -0.1231  0.1888
  618SOL    HW1 1853   0.937   0.667   1.945 -1.5033  0.8251  2.3167
  618SOL    HW2 1854   0.784   0.678   1.873 -0.8759  0.1971 -0.3710
  619SOL     OW 1855   2.990   1.656   1.378  0.6748  0.5792  0.5140
  619SOL    HW1 1856   3.066   1.596   1.407 -0.4168  2.3446  3.4333
  619SOL    HW2 1857   2.967   1.634   1.281  1.1293  2.0668 -0.0395
  620SOL     OW 1858   2.801   2.985   2.551 -0.1040  0.2856 -0.6186
  620SOL    HW1 1859   2.844   2.935   2.478 -0.7461 -1.4071  2.3041
  620SOL    HW2 1860   2.734   3.047   2.513 -0.8608 -4.3023 -0.5088
  621SOL     OW 1861   2.340   1.756   2.998  0.3237  0.1241  0.4043
  621SOL    HW1 1862   2.335   1.690   3.076 -0.6441  0.2758  1.9518
  621SOL    HW2 1863   2.357   1.847   3.030  0.5298 -2.7984 -0.6787
  622SOL     OW 1864   1.338   0.446   2.703 -0.0135  0.3522 -0.1951
  622SOL    HW1 1865   1.416   0.414   2.767 -0.7456 -1.0962  2.9310
  622SOL    HW2 1866   1.342   0.537   2.666 -1.9380 -3.3895 -1.9913
  623SOL     OW 1867   0.705   1.575   1.493  0.4492  0.5660  0.0229
  623SOL    HW1 1868   0.782   1.632   1.458  1.2487 -1.0488  2.1689
  623SOL    HW2 1869   0.722   1.537   1.585  0.3914 -2.4326 -1.0029
  624SOL     OW 1870   2.925   0.040   0.298  0.1600 -0.2587 -0.0799
  624SOL    HW1 1871   3.012   0.027   0.248  2.1780 -1.0511 -1.3679
  624SOL    HW2 1872   2.925   0.125   0.354  0.8103  3.0028 -3.0311
  625SOL     OW 1873   0.865   2.243   0.671  0.7473  0.6191  0.1458
  625SOL    HW1 1874   0.955   2.296   0.682  2.3251  1.5476 -1.5342
  625SOL    HW2 1875   0.883   2.158   0.619  0.0975  0.7956 -0.3591
  626SOL     OW 1876   2.667   0.846   2.608  0.1616  0.5717  0.1860
  626SOL    HW1 1877   2.729   0.773   2.648 -0.8040 -3.1671 -2.2184
  626SOL    HW2 1878   2.635   0.906   2.681 -2.3070 -2.2925 -1.5082
  627SOL     OW 1879   1.146   1.822   2.841  0.5861 -0.1082  0.4598
  627SOL    HW1 1880   1.244   1.838   2.850 -0.5693 -1.0466  0.4876
  627SOL    HW2 1881   1.127   1.727   2.809 -0.5739  0.4928 -0.4588
  628SOL     OW 1882   2.803   2.561   2.720 -0.3195  0.4363  0.3739
  628SOL    HW1 1883   2.775   2.573   2.623 -2.6846 -0.4978  1.4669
  628SOL    HW2 1884   2.761   2.620   2.788  1.8327 -0.8055 -2.6467
  629SOL     OW 1885   0.722   2.872   2.640 -0.0050  0.3909 -0.4136
  629SOL    HW1 1886   0.819   2.847   2.620 -2.6460 -0.2476  1.1018
  629SOL    HW2 1887   0.686   2.919   2.564 -1.2062 -3.9311  2.6749
  630SOL     OW 1888   0.983   0.309   2.060  0.0368 -0.2506  0.0583
  630SOL    HW1 1889   0.969   0.308   1.959 -0.1684 -1.1881  1.7737
  630SOL    HW2 1890   1.028   0.225   2.093  0.5712  0.6050  1.6982
  631SOL     OW 1891   2.070   1.050   0.375  0.2747  0.1608 -0.3639
  631SOL    HW1 1892   2.072   0.974   0.313 -1.9955  2.6278  1.4626
  631SOL    HW2 1893   2.155   1.106   0.379  2.4160  2.1086  0.9002
  632SOL     OW 1894   2.699   0.105   1.647  0.2710  0.4420 -0.2136
  632SOL    HW1 1895   2.613   0.158   1.652 -0.3992 -0.6343 -2.6737
  632SOL    HW2 1896   2.776   0.170   1.639  1.6201  0.6218 -0.2507
  633SOL     OW 1897   1.053   1.217   0.595 -0.6584  0.2575 -0.1601
  633SOL    HW1 1898   0.960   1.254   0.581 -0.2300  2.6128 -1.6190
  633SOL    HW2 1899   1.071   1.133   0.541  0.9471  1.3396  0.6637
  634SOL     OW 1900   2.830   2.815   2.347  0.7768 -0.0634  0.6182
  634SOL    HW1 1901   2.903   2.755   2.383  0.1836  0.2771 -0.6111
  634SOL    HW2 1902   2.770   2.761   2.281 -1.2229 -1.3856  1.2429
  635SOL     OW 1903   1.918   0.587   0.660  0.2708  0.2920 -0.3802
  635SOL    HW1 1904   1.951   0.510   0.714  0.8238 -0.6483  0.2417
  635SOL    HW2 1905   1.816   0.575   0.633 -4.2573 -0.6599 -0.9816
  636SOL     OW 1906   0.561   0.917   0.624  0.3162  0.0014 -0.3809
  636SOL    HW1 1907   0.552   1.016   0.622  0.9346 -3.6590 -1.8729
  636SOL    HW2 1908   0.587   0.887   0.527 -1.6618  2.3286 -0.3309
  637SOL     OW 1909   2.375   1.990   0.017  0.5488 -0.1601 -0.4322
  637SOL    HW1 1910   2.415   1.966   0.108  1.1961  1.1276 -1.1237
  637SOL    HW2 1911   2.345   2.093   0.011 -1.4956  4.1848  0.6240
  638SOL     OW 1912   1.552   2.384   2.286  0.0647 -0.3788  0.5203
  638SOL    HW1 1913   1.485   2.427   2.226  0.1932  0.2879  1.7505
  638SOL    HW2 1914   1.543   2.422   2.383  2.6091  1.7588 -0.5556
  639SOL     OW 1915   1.347   2.030   0.654  0.0306  0.1199 -0.1524
  639SOL    HW1 1916   1.256   2.054   0.706 -4.2002  0.0224  0.4401
  639SOL    HW2 1917   1.403   1.958   0.699  0.5455  0.6310  0.0071
  640SOL     OW 1918   2.028   0.131   0.504  0.0035  0.1626 -0.0295
  640SOL    HW1 1919   2.129   0.114   0.502 -0.9159  0.0334 -1.9694
  640SOL    HW2 1920   2.010   0.230   0.500  0.2660 -1.3655  1.5838
  641SOL     OW 1921   3.070   0.525   3.080 -0.0609 -0.1369 -0.0189
  641SOL    HW1 1922   2.972   0.535   3.077  0.8250 -0.3735 -2.0754
  641SOL    HW2 1923   0.004   0.484   2.990  0.8246  0.0211 -1.2357
  642SOL     OW 1924   0.539   0.719   1.233 -0.5071 -0.1834  0.1682
  642SOL    HW1 1925   0.447   0.732   1.193  0.6645 -2.2097  0.2438
  642SOL    HW2 1926   0.541   0.625   1.268 -2.0338  3.0145 -0.5846
  643SOL     OW 1927   0.666   1.134   2.183 -0.3560  0.2853 -0.0789
  643SOL    HW1 1928   0.746   1.104   2.246  0.2419 -2.8956 -0.8036
  643SOL    HW2 1929   0.572   1.090   2.197  0.8047  2.3195 -0.5679
  644SOL     OW 1930   1.506   2.222   0.571  0.3479  0.2210 -0.4185
  644SOL    HW1 1931   1.484   2.246   0.474  0.9881  2.8969  1.8299
  644SOL    HW2 1932   1.447   2.148   0.609  2.0270  0.1524 -0.1975
  645SOL     OW 1933   1.251   1.963   0.402  0.3323  0.3085  0.2244
  645SOL    HW1 1934   1.292   1.874   0.367 -1.7154  1.2519 -1.3321
  645SOL    HW2 1935   1.286   1.991   0.497  2.3075  1.6636  0.0135
  646SOL     OW 1936   3.081   1.744   2.644  0.0104  0.1961  0.8828
  646SOL    HW1 1937   3.000   1.693   2.601 -0.3976 -0.1569 -0.1093
  646SOL    HW2 1938   3.071   1.846   2.632  1.2728 -1.4922 -0.2598
  647SOL     OW 1939   1.061   0.330   0.931 -0.4499  0.0837 -0.0807
  647SOL    HW1 1940   1.096   0.244   0.974  0.3640  0.8028  1.5805
  647SOL    HW2 1941   1.096   0.346   0.836  0.9326  0.4087 -2.2458
  648SOL     OW 1942   1.571   0.466   1.069  0.8176 -0.3948 -0.2273
  648SOL    HW1 1943   1.575   0.488   0.967  1.3693  0.0635  1.2754
  648SOL    HW2 1944   1.657   0.422   1.104  2.0500 -0.5334  0.9584
  649SOL     OW 1945   1.006   1.708   0.456 -0.0413  0.0943  0.3610
  649SOL    HW1 1946   1.012   1.724   0.357 -1.5185  0.0671  2.7660
  649SOL    HW2 1947   1.054   1.621   0.474 -1.0837  2.7619 -4.3259
  650SOL     OW 1948   2.405   1.753   1.858 -0.2501  0.1511  0.6413
  650SOL    HW1 1949   2.459   1.805   1.920 -1.2496 -3.9871 -3.3608
  650SOL    HW2 1950   2.363   1.814   1.784  0.8883  0.3130 -0.1380
  651SOL     OW 1951   1.596   2.094   2.806 -0.4702 -0.0717 -0.0890
  651SOL    HW1 1952   1.661   2.159   2.769  1.3596 -2.0506 -0.2810
  651SOL    HW2 1953   1.600   2.010   2.748  0.1587 -1.7491  2.7574
  652SOL     OW 1954   2.412   1.575   0.104  0.2632 -0.3928  0.0130
  652SOL    HW1 1955   2.479   1.548   0.029 -0.5721  0.0734 -1.6893
  652SOL    HW2 1956   2.460   1.611   0.182  1.8719 -2.9878  0.2267
  653SOL     OW 1957   0.274   0.288   0.799  0.1311 -0.0470  0.3124
  653SOL    HW1 1958   0.342   0.294   0.875 -0.6105  1.1609 -0.2304
  653SOL    HW2 1959   0.213   0.209   0.814  1.2707 -1.6248  0.2023
  654SOL     OW 1960   2.796   3.091   2.191  0.5803 -0.3282 -0.0864
  654SOL    HW1 1961   2.878   0.057   2.162  0.7606  2.7694 -1.6412
  654SOL    HW2 1962   2.832   3.012   2.240 -1.6462  1.6658  0.4734
  655SOL     OW 1963   0.696   2.590   0.845  0.1556  0.2869  0.0394
  655SOL    HW1 1964   0.719   2.632   0.756 -0.3728 -1.5051  0.5410
  655SOL    HW2 1965   0.657   2.664   0.901  0.9021 -0.5063 -1.2283
  656SOL     OW 1966   0.026   0.118   2.800  0.4034  0.4859 -0.0259
  656SOL    HW1 1967   0.025   0.065   2.706 -0.9764 -0.0510 -3.8111
  656SOL    HW2 1968   0.007   0.052   2.874  1.4795 -0.0803 -1.6387
  657SOL     OW 1969   0.071   1.292   3.021 -0.1554  0.2796  0.6376
  657SOL    HW1 1970   0.131   1.371   3.013 -0.3066 -1.6586 -0.0764
  657SOL    HW2 1971   0.119   1.206   2.998  4.1923  2.1124 -0.9597
  658SOL     OW 1972   2.375   1.737   1.356 -0.4668 -0.0087  0.1044
  658SOL    HW1 1973   2.312   1.816   1.355  1.8466  2.2884  0.7758
  658SOL    HW2 1974   2.321   1.660   1.403 -0.4244 -0.2206  0.4735
  659SOL     OW 1975   1.751   2.697   0.170  0.1782  0.1451  0.5565
  659SOL    HW1 1976   1.699   2.626   0.222 -0.2862 -1.8868  1.3228
  659SOL    HW2 1977   1.733   2.691   0.068 -2.3483 -1.0275 -1.7073
  660SOL     OW 1978   1.593   1.026   2.695  0.1392 -0.3098 -0.2272
  660SOL    HW1 1979   1.669   1.078   2.740 -2.9061 -1.7063 -2.2871
  660SOL    HW2 1980   1.561   1.081   2.613  1.0032  2.3302 -1.8828
  661SOL     OW 1981   0.211   2.158   1.125  0.6027 -0.3234 -0.3775
  661SOL    HW1 1982   0.159   2.237   1.084 -0.0208  0.2918 -3.3841
  661SOL    HW2 1983   0.141   2.080   1.127 -2.5496  1.0544 -1.2812
  662SOL     OW 1984   0.402   0.602   0.075 -0.2494  0.1489  0.0263
  662SOL    HW1 1985   0.311   0.619   0.110 -0.8552 -0.4342 -0.1510
  662SOL    HW2 1986   0.418   0.498   0.071  1.2834 -1.8426  0.6975
  663SOL     OW 1987   2.194   1.957   1.369 -0.1629  0.4356 -0.0069
  663SOL    HW1 1988   2.175   2.056   1.376  1.9047 -4.1956 -0.7068
  663SOL    HW2 1989   2.111   1.899   1.380 -0.1569 -2.1213 -0.2786
  664SOL     OW 1990   0.789   1.312   1.003 -0.0350  0.3105  0.7716
  664SOL    HW1 1991   0.704   1.366   0.998  0.2449 -1.3948 -2.7278
  664SOL    HW2 1992   0.793   1.247   1.085  0.2202 -1.2454  2.5569
  665SOL     OW 1993   1.740   2.693   2.173  0.1217 -0.4431 -0.0449
  665SOL    HW1 1994   1.744   2.793   2.198  0.1799 -1.2246  2.2339
  665SOL    HW2 1995   1.660   2.672   2.112 -0.5933  1.0269 -0.6437
  666SOL     OW 1996   2.971   2.644   0.205 -0.2850  0.2886  0.0038
  666SOL    HW1 1997   3.023   2.563   0.237 -0.1044  1.3110 -0.1678
  666SOL    HW2 1998   2.957   2.717   0.273  0.3650  0.5412 -2.0745
  667SOL     OW 1999   2.827   1.239   1.446  0.2343  0.4023 -0.0929
  667SOL    HW1 2000   2.747   1.265   1.385  1.5610  0.0114  0.7812
  667SOL    HW2 2001   2.802   1.156   1.500 -1.4197 -1.1188  2.1476
  668SOL     OW 2002   0.154   0.793   2.398 -0.3328  0.1719 -0.0688
  668SOL    HW1 2003   0.109   0.850   2.467  3.0522 -1.9135  0.0476
  668SOL    HW2 2004   0.098   0.708   2.366 -3.9306 -3.9934  1.1315
  669SOL     OW 2005   2.280   1.950   2.451 -0.8771 -0.3103 -0.4430
  669SOL    HW1 2006   2.350   1.883   2.479 -0.3574  2.5823 -0.5517
  669SOL    HW2 2007   2.246   1.940   2.356 -1.2647  0.5048  2.2931
  670SOL     OW 2008   2.703   1.464   1.857 -0.1694  0.4340  0.0197
  670SOL    HW1 2009   2.651   1.511   1.783  1.0322 -1.3489  0.7054
  670SOL    HW2 2010   2.741   1.376   1.834 -0.7798  1.3911 -0.3671
  671SOL     OW 2011   3.047   1.550   0.826  0.0285  0.4197 -0.2294
  671SOL    HW1 2012   0.032   1.535   0.759  0.9548 -1.1563 -0.3082
  671SOL    HW2 2013   2.955   1.555   0.777 -1.2593  0.2504  0.2277
  672SOL     OW 2014   2.348   0.669   2.068 -0.3999  0.1546 -0.0633
  672SOL    HW1 2015   2.394   0.754   2.034  1.2862  0.2629 -0.0940
  672SOL    HW2 2016   2.419   0.606   2.105 -0.1599  2.7706 -1.9436
  673SOL     OW 2017   2.425   2.929   1.853  0.3052  0.2884  0.1968
  673SOL    HW1 2018   2.486   2.980   1.914 -2.4176 -0.4521 -2.2786
  673SOL    HW2 2019   2.383   2.844   1.893 -0.6627 -1.2969 -0.2593
  674SOL     OW 2020   1.795   2.584   1.498  0.0334  0.1961 -0.0986
  674SOL    HW1 2021   1.759   2.617   1.585 -2.5608 -2.2731 -1.1578
  674SOL    HW2 2022   1.819   2.486   1.507 -1.3158 -2.0307  0.8904
  675SOL     OW 2023   0.769   0.859   0.792 -0.7278  0.0212 -0.3428
  675SOL    HW1 2024   0.738   0.864   0.891 -0.3901  0.9478 -0.1638
  675SOL    HW2 2025   0.693   0.885   0.730 -1.2898  1.7591 -1.8763
  676SOL     OW 2026   1.664   1.038   0.707  0.0338  0.5190  0.3126
  676SOL    HW1 2027   1.729   1.114   0.703 -0.4283  0.1875 -2.4130
  676SOL    HW2 2028   1.714   0.956   0.677  0.1104  0.1352  1.2951
  677SOL     OW 2029   2.594   1.344   2.371  0.5829 -0.6082  0.6019
  677SOL    HW1 2030   2.560   1.330   2.273  0.0613 -1.7851 -1.8070
  677SOL    HW2 2031   2.690   1.309   2.376  0.7785  0.9012  1.2013
  678SOL     OW 2032   2.561   1.705   1.154  0.4516  0.2847 -0.0159
  678SOL    HW1 2033   2.644   1.762   1.177  1.9357  0.2083 -0.4181
  678SOL    HW2 2034   2.486   1.715   1.220  1.9195  1.5297 -0.6535
  679SOL     OW 2035   2.083   2.479   0.271 -0.2585  0.2010 -0.4469
  679SOL    HW1 2036   2.176   2.502   0.235  2.0599  1.5095  1.1154
  679SOL    HW2 2037   2.041   2.568   0.294  1.3833 -1.3408 -2.4087
  680SOL     OW 2038   2.744   2.273   1.911 -0.5528  0.3156 -0.1602
  680SOL    HW1 2039   2.835   2.323   1.904  2.5942  1.1423  1.3906
  680SOL    HW2 2040   2.740   2.208   1.836  0.7895  0.6650  1.5570
  681SOL     OW 2041   0.358   1.369   1.634  0.5024 -0.0055 -1.2884
  681SOL    HW1 2042   0.427   1.297   1.646  0.9888  0.3466 -2.1904
  681SOL    HW2 2043   0.384   1.451   1.689  1.3599  0.2763  2.2338
  682SOL     OW 2044   1.333   2.804   0.681 -0.1729 -0.2216 -0.1184
  682SOL    HW1 2045   1.341   2.790   0.585  0.5120  1.1799  2.5586
  682SOL    HW2 2046   1.305   2.715   0.722 -0.4086 -1.5153  0.1657
  683SOL     OW 2047   2.190   1.376   0.883 -0.1848 -0.2537 -0.3517
  683SOL    HW1 2048   2.221   1.386   0.983 -0.2630 -1.0123  0.8948
  683SOL    HW2 2049   2.152   1.279   0.868 -2.5202 -1.6784 -0.8297
  684SOL     OW 2050   0.350   2.224   2.062 -0.0454  0.3572 -0.0041
  684SOL    HW1 2051   0.350   2.173   2.146  2.7080 -1.0127 -0.5143
  684SOL    HW2 2052   0.269   2.207   1.998 -1.8500  1.8829 -4.0641
  685SOL     OW 2053   1.536   1.513   0.157  0.0243  0.4615  0.3428
  685SOL    HW1 2054   1.579   1.606   0.130 -1.2623  2.0852 -0.2903
  685SOL    HW2 2055   1.589   1.434   0.120  2.2153  0.7267 -0.1797
  686SOL     OW 2056   2.998   0.696   1.290 -0.3803  0.3388 -0.4785
  686SOL    HW1 2057   2.967   0.656   1.377 -0.0746 -0.5796 -3.2374
  686SOL    HW2 2058   3.015   0.800   1.300  0.6649  3.0610 -0.0955
  687SOL     OW 2059   0.900   2.252   2.864  0.3007  0.0010  0.0081
  687SOL    HW1 2060   0.810   2.225   2.903 -1.6170 -0.5144  2.0868
  687SOL    HW2 2061   0.941   2.171   2.815  0.3608  0.5834  1.2381
  688SOL     OW 2062   3.024   2.001   1.777  0.0163 -0.3039  0.1488
  688SOL    HW1 2063   2.974   2.076   1.730 -1.2284 -0.3497 -0.1781
  688SOL    HW2 2064   2.966   1.956   1.847  2.8264 -1.5955  0.9838
  689SOL     OW 2065   1.960   0.875   1.940 -0.3290  0.3805 -0.1955
  689SOL    HW1 2066   1.941   0.871   2.041 -0.1771  1.1424  0.3134
  689SOL    HW2 2067   1.909   0.953   1.902 -2.7262  1.1089 -2.6593
  690SOL     OW 2068   2.298   0.791   1.058 -0.4369  0.0160 -0.3824
  690SOL    HW1 2069   2.326   0.736   1.137  0.0092  0.6281 -0.3664
  690SOL    HW2 2070   2.363   0.872   1.038 -0.1513  0.7998  0.7845
  691SOL     OW 2071   0.789   1.848   1.809 -0.1269  0.5438  0.1245
  691SOL    HW1 2072   0.828   1.897   1.886 -2.5422  0.8972 -0.5427
  691SOL    HW2 2073   0.870   1.823   1.752 -0.4224  1.7013 -1.3571
  692SOL     OW 2074   2.299   0.410   1.490  0.1182  0.3325 -0.1883
  692SOL    HW1 2075   2.205   0.389   1.514  3.8809 -0.1715 -0.3205
  692SOL    HW2 2076   2.338   0.349   1.420  2.3215  0.5562  0.9211
  693SOL     OW 2077   0.262   1.265   2.310 -0.0338 -0.0899 -0.6781
  693SOL    HW1 2078   0.291   1.170   2.276  0.7676 -0.8591 -0.5851
  693SOL    HW2 2079   0.265   1.323   2.228 -0.7061  0.8481 -0.5362
  694SOL     OW 2080   1.788   3.069   1.188  0.6353  0.2266  0.0698
  694SOL    HW1 2081   1.761   0.018   1.098  0.1139  0.1491 -1.4537
  694SOL    HW2 2082   1.822   2.976   1.184  2.0124  1.3519 -0.6989
  695SOL     OW 2083   1.315   1.029   1.923  0.4033 -0.1594  0.7984
  695SOL    HW1 2084   1.322   1.050   1.822  0.2890  0.5318 -0.2338
  695SOL    HW2 2085   1.394   0.975   1.958 -1.0667  2.7730 -4.2742
  696SOL     OW 2086   1.361   0.075   0.496 -0.1930 -0.2394 -0.5278
  696SOL    HW1 2087   1.371   0.112   0.586  0.8938 -0.5798 -0.5026
  696SOL    HW2 2088   1.270   0.019   0.497 -2.4686  0.4949 -0.5601
  697SOL     OW 2089   1.211   0.407   0.685 -0.5034 -0.1733  1.2030
  697SOL    HW1 2090   1.255   0.485   0.734 -0.4952 -0.3130  0.9462
  697SOL    HW2 2091   1.192   0.433   0.586  0.1538 -0.2770 -4.2988
  698SOL     OW 2092   1.201   1.139   2.595  0.0429  0.3301 -0.2799
  698SOL    HW1 2093   1.126   1.190   2.644  2.3503 -1.7486 -0.1790
  698SOL    HW2 2094   1.234   1.054   2.644 -0.7522 -1.8549  0.9840
  699SOL     OW 2095   1.548   1.371   1.174 -0.2276 -0.0565 -0.2607
  699SOL    HW1 2096   1.545   1.472   1.163 -0.8493  0.8830  2.1049
  699SOL    HW2 2097   1.480   1.331   1.113  1.5991  1.3336  2.3814
  700SOL     OW 2098   1.443   0.321   0.440  0.0928 -0.6651  0.6166
  700SOL    HW1 2099   1.412   0.227   0.449 -0.0414  3.4405  0.7919
  700SOL    HW2 2100   1.529   0.337   0.489 -0.8705 -3.2803 -0.2436
  701SOL     OW 2101   3.049   0.065   2.112 -0.5173 -0.6798 -0.1736
  701SOL    HW1 2102   0.027   0.138   2.122 -0.9831 -1.1022  2.9363
  701SOL    HW2 2103   3.084   3.081   2.160  0.3035  0.9787 -2.2452
  702SOL     OW 2104   1.132   0.017   0.115 -0.5469 -0.6684 -0.1731
  702SOL    HW1 2105   1.206   0.063   0.062 -0.4058  1.5582 -2.6844
  702SOL    HW2 2106   1.177   3.044   0.173 -2.0382  3.0945 -1.0073
  703SOL     OW 2107   2.611   2.781   2.556 -0.2114  0.1536 -0.0770
  703SOL    HW1 2108   2.537   2.787   2.627  0.3829 -0.0060 -1.1369
  703SOL    HW2 2109   2.669   2.863   2.548 -0.5010 -0.6622  2.9289
  704SOL     OW 2110   0.763   2.250   1.147  0.5835  0.1540  0.5484
  704SOL    HW1 2111   0.729   2.265   1.056  4.2366 -2.8628  2.4331
  704SOL    HW2 2112   0.761   2.154   1.167  2.0805 -2.4427 -0.9575
  705SOL     OW 2113   2.967   0.398   1.933  0.0104  0.1252 -0.1596
  705SOL    HW1 2114   3.037   0.332   1.973  1.5950 -1.7853 -0.9462
  705SOL    HW2 2115   2.892   0.418   1.994  0.2763  0.1982 -3.2530
  706SOL     OW 2116   1.744   0.244   0.468 -0.4145  0.2894  0.1274
  706SOL    HW1 2117   1.748   0.178   0.389  0.7512 -0.7699  1.2858
  706SOL    HW2 2118   1.829   0.305   0.463 -1.7150  1.6496 -2.6718
  707SOL     OW 2119   1.242   1.943   2.064 -0.2161 -0.2346 -0.1015
  707SOL    HW1 2120   1.227   1.865   2.126 -0.7907  1.7249  1.7772
  707SOL    HW2 2121   1.301   2.015   2.112 -0.0150  1.4835  0.6325
  708SOL     OW 2122   2.894   2.196   1.650 -0.1144 -0.0470  0.0197
  708SOL    HW1 2123   2.852   2.160   1.564  0.6874  3.0252  0.8139
  708SOL    HW2 2124   2.948   2.280   1.627 -1.3046 -1.2118 -1.4446
  709SOL     OW 2125   2.028   0.468   1.799  0.0672 -0.4303 -0.2958
  709SOL    HW1 2126   2.092   0.539   1.764 -0.1506 -1.8881 -0.1080
  709SOL    HW2 2127   2.067   0.421   1.880 -1.7739 -2.5889 -1.1570
  710SOL     OW 2128   2.468   0.530   1.671  0.1449 -0.7266 -0.2787
  710SOL    HW1 2129   2.420   0.503   1.584 -0.6889 -0.9918  0.1240
  710SOL    HW2 2130   2.560   0.484   1.665 -2.7184  0.7009  1.8496
  711SOL     OW 2131   0.295   2.176   0.673 -0.0221  0.2711  0.0440
  711SOL    HW1 2132   0.377   2.160   0.730 -3.5060 -1.4447  0.0480
  711SOL    HW2 2133   0.298   2.135   0.577 -1.2832 -1.8148 -0.7842
  712SOL     OW 2134   0.500   2.601   2.294 -0.1585 -0.0052 -0.1112
  712SOL    HW1 2135   0.442   2.560   2.217 -2.9412 -2.3913 -0.8085
  712SOL    HW2 2136   0.591   2.633   2.260 -0.8299 -0.9156  0.5827
  713SOL     OW 2137   1.951   0.965   3.016  0.3769 -0.2860 -0.4742
  713SOL    HW1 2138   1.890   0.954   0.007 -1.3717  1.4865 -0.7436
  713SOL    HW2 2139   2.024   0.889   3.016 -0.6101 -0.9060 -0.9940
  714SOL     OW 2140   0.685   1.664   0.844 -0.1173  0.3141  0.0023
  714SOL    HW1 2141   0.754   1.720   0.896 -0.2110 -0.3705  1.3050
  714SOL    HW2 2142   0.644   1.594   0.907 -1.4927 -1.0768 -0.9059
  715SOL     OW 2143   2.037   2.904   0.063  0.1518  0.7277 -0.2596
  715SOL    HW1 2144   2.088   2.825   0.029  2.1339  2.3935 -1.5120
  715SOL    HW2 2145   1.968   2.937   3.093  0.7356  0.0669  2.2673
  716SOL     OW 2146   0.242   0.255   1.668  0.1514  0.2966  0.2587
  716SOL    HW1 2147   0.186   0.340   1.640  0.5694  3.6873 -1.1626
  716SOL    HW2 2148   0.179   0.187   1.709  4.2831  0.1991  0.4317
  717SOL     OW 2149   0.158   0.672   0.128  0.5885  0.5678 -0.4169
  717SOL    HW1 2150   0.092   0.600   0.092 -0.4224 -0.2611  1.9496
  717SOL    HW2 2151   0.164   0.666   0.229  1.0570  0.9079  0.7223
  718SOL     OW 2152   1.322   0.943   2.749  0.0041 -0.3749  0.0804
  718SOL    HW1 2153   1.324   0.844   2.722 -1.1524 -0.2105  0.2018
  718SOL    HW2 2154   1.416   0.981   2.736 -1.5937  1.2556  1.7804
  719SOL     OW 2155   2.799   1.682   3.066  0.7454  0.1111  0.1374
  719SOL    HW1 2156   2.709   1.631   3.070 -0.9183  0.6022 -0.9913
  719SOL    HW2 2157   2.866   1.635   3.006  0.1697  1.2724 -1.7731
  720SOL     OW 2158   1.596   0.843   0.951  0.1439  0.0422 -0.0593
  720SOL    HW1 2159   1.682   0.869   0.905 -2.4543  0.1848  2.4865
  720SOL    HW2 2160   1.568   0.748   0.917 -0.0476 -0.8638 -2.6249
  721SOL     OW 2161   3.084   0.874   0.203 -0.3000 -0.0624  0.2776
  721SOL    HW1 2162   0.048   0.801   0.163 -0.9686 -0.1048 -2.6353
  721SOL    HW2 2163   0.002   0.886   0.305 -1.5787 -2.4612  0.7886
  722SOL     OW 2164   0.922   0.971   3.045  0.4519  0.1775  0.8375
  722SOL    HW1 2165   0.897   0.950   0.046 -1.1684  1.0023 -5.7317
  722SOL    HW2 2166   0.878   0.904   2.979 -1.6202 -0.9852 -1.1288
  723SOL     OW 2167   0.276   0.927   0.540  0.1021 -0.1795 -0.4310
  723SOL    HW1 2168   0.345   1.002   0.521 -0.7362  3.6387  1.5922
  723SOL    HW2 2169   0.326   0.837   0.535 -0.8458  0.0391 -1.2542
  724SOL     OW 2170   1.044   2.425   1.762 -0.1915 -0.1149  0.2002
  724SOL    HW1 2171   0.968   2.360   1.749  1.0800  4.7421  0.3241
  724SOL    HW2 2172   1.105   2.425   1.680  1.7984 -0.4207 -1.5122
  725SOL     OW 2173   2.551   0.838   1.439 -0.3864  0.8482  0.2877
  725SOL    HW1 2174   2.474   0.901   1.424 -0.4234  0.2842 -0.4878
  725SOL    HW2 2175   2.549   0.814   1.536 -0.3823  2.7147  1.7911
  726SOL     OW 2176   1.794   2.827   0.556 -0.1324 -0.2736  0.5128
  726SOL    HW1 2177   1.743   2.740   0.569 -0.9481 -0.7988  0.2150
  726SOL    HW2 2178   1.768   2.877   0.473 -1.4200 -0.1068  2.3847
  727SOL     OW 2179   1.235   0.822   2.405  0.9985  0.6376 -0.5069
  727SOL    HW1 2180   1.235   0.918   2.424  1.7449 -2.0401  1.4847
  727SOL    HW2 2181   1.271   0.813   2.312 -1.4021 -0.9958  0.7781
  728SOL     OW 2182   1.392   2.774   1.281  0.1249  0.6396 -0.1160
  728SOL    HW1 2183   1.489   2.749   1.304 -1.5298  0.4476  1.3849
  728SOL    HW2 2184   1.384   2.862   1.228  2.6296 -0.5168  1.1567
  729SOL     OW 2185   1.841   0.892   1.171  0.2341  0.3230  0.0422
  729SOL    HW1 2186   1.749   0.918   1.154  3.6716 -0.0740 -0.8136
  729SOL    HW2 2187   1.846   0.792   1.205 -0.8282  0.5395 -1.4552
  730SOL     OW 2188   0.611   2.063   2.083 -0.1135  0.0654  0.3799
  730SOL    HW1 2189   0.646   2.136   2.024 -0.8150 -0.9160  0.0443
  730SOL    HW2 2190   0.511   2.049   2.077  0.5008  2.7218  0.8953
  731SOL     OW 2191   0.549   0.270   0.655  0.1874  0.4334  0.3898
  731SOL    HW1 2192   0.552   0.220   0.563  2.9600  1.0559 -2.0002
  731SOL    HW2 2193   0.638   0.288   0.698  0.7936  1.4537 -0.3027
  732SOL     OW 2194   0.633   0.734   0.030 -0.1301  0.3543 -0.4323
  732SOL    HW1 2195   0.560   0.666   0.039 -0.4737  0.1008 -2.3658
  732SOL    HW2 2196   0.608   0.818   0.081 -2.2337 -0.1616  2.0364
  733SOL     OW 2197   1.064   2.390   1.083  0.4593  0.1289 -0.4821
  733SOL    HW1 2198   0.983   2.368   1.028  1.1596 -0.4990 -1.8242
  733SOL    HW2 2199   1.034   2.436   1.171 -1.7799 -0.2050  1.4271
  734SOL     OW 2200   0.020   2.014   2.584  0.0782 -0.0054 -0.0933
  734SOL    HW1 2201   3.068   2.104   2.563  0.5826 -1.5469 -1.3755
  734SOL    HW2 2202   0.082   2.028   2.666  0.0572  0.5971  0.4229
  735SOL     OW 2203   1.099   2.974   0.973 -0.0973 -0.0924  0.2844
  735SOL    HW1 2204   1.011   3.013   1.004 -0.6483 -0.1885 -2.9380
  735SOL    HW2 2205   1.140   3.032   0.903  1.0218 -1.5426  0.7083
  736SOL     OW 2206   1.796   0.294   0.090  0.1381  0.3553  0.2096
  736SOL    HW1 2207   1.822   0.196   0.091  0.3843  2.3785  0.1023
  736SOL    HW2 2208   1.698   0.307   0.068  1.8151 -0.3966 -0.3782
  737SOL     OW 2209   2.969   0.229   0.495  0.2359 -0.3915  0.4279
  737SOL    HW1 2210   3.055   0.212   0.542  2.2173 -0.0187  0.3982
  737SOL    HW2 2211   2.949   0.328   0.493 -2.5269  0.9307  0.1561
  738SOL     OW 2212   2.678   2.900   1.038  0.9672 -0.1447 -0.1517
  738SOL    HW1 2213   2.761   2.959   1.030  1.4962  0.7568  0.3053
  738SOL    HW2 2214   2.655   2.875   0.942  2.2356 -0.7568 -1.5541
  739SOL     OW 2215   1.479   2.255   0.288 -0.1570  0.2584 -0.1821
  739SOL    HW1 2216   1.389   2.210   0.276  1.6308  1.5399  0.8766
  739SOL    HW2 2217   1.524   2.258   0.194 -0.5390 -0.7604 -0.3205
  740SOL     OW 2218   1.588   0.066   0.962  0.0659 -0.2658  0.3148
  740SOL    HW1 2219   1.540   3.068   0.947  1.2794 -3.4986  0.8303
  740SOL    HW2 2220   1.620   0.099   0.872 -0.0120  0.8982 -0.3873
  741SOL     OW 2221   2.139   0.749   0.614 -0.2026  0.1366 -0.1882
  741SOL    HW1 2222   2.165   0.746   0.517  1.9632 -0.1116  0.9551
  741SOL    HW2 2223   2.056   0.692   0.627  0.7401 -1.6086 -1.5171
  742SOL     OW 2224   1.198   2.104   2.432  0.0329  0.5660 -0.0963
  742SOL    HW1 2225   1.232   2.116   2.529 -1.2008  1.6805  2.8833
  742SOL    HW2 2226   1.267   2.135   2.361  0.1619  0.5329  0.0593
  743SOL     OW 2227   2.239   0.641   1.753 -0.0928  0.1127  0.4394
  743SOL    HW1 2228   2.237   0.727   1.808 -0.3949 -3.5138 -3.6059
  743SOL    HW2 2229   2.332   0.599   1.746  0.0628 -0.0591 -0.2475
  744SOL     OW 2230   2.368   0.356   0.946 -0.0991 -0.2840  0.4956
  744SOL    HW1 2231   2.340   0.347   0.846 -1.5525 -0.7354 -0.9618
  744SOL    HW2 2232   2.406   0.268   0.979 -1.8858 -1.8975  2.4441
  745SOL     OW 2233   1.845   1.276   1.544  0.3468  0.2970  0.0388
  745SOL    HW1 2234   1.822   1.320   1.632  0.2874  1.4068 -2.2333
  745SOL    HW2 2235   1.768   1.288   1.479  3.1063  0.2511  0.5523
  746SOL     OW 2236   1.302   1.272   1.030  0.3812  0.0825 -0.4122
  746SOL    HW1 2237   1.205   1.295   1.005  0.3898 -1.0256 -0.2981
  746SOL    HW2 2238   1.330   1.191   0.976  0.0730 -0.3087 -0.5900
  747SOL     OW 2239   2.008   1.148   1.255 -0.0075 -0.3071 -0.0251
  747SOL    HW1 2240   2.023   1.144   1.358  0.6479  0.5065  1.0994
  747SOL    HW2 2241   1.942   1.078   1.216 -5.9667 -1.1503  1.8422
  748SOL     OW 2242   0.302   2.593   0.784  0.2043  0.1989  0.1168
  748SOL    HW1 2243   0.381   2.554   0.832 -1.4622  0.7883 -2.2101
  748SOL    HW2 2244   0.237   2.513   0.757 -1.0293 -1.2328 -0.0167
  749SOL     OW 2245   0.043   3.036   2.600  0.0435 -0.2697  0.3232
  749SOL    HW1 2246   3.077   2.958   2.606  1.9908  2.3309 -3.5842
  749SOL    HW2 2247   0.124   3.019   2.541  0.5709  2.3922 -2.1423
  750SOL     OW 2248   2.549   0.566   0.977  0.1083 -0.3551 -0.0839
  750SOL    HW1 2249   2.623   0.569   1.046  0.1642  1.0920 -0.0505
  750SOL    HW2 2250   2.475   0.492   0.980 -0.4824 -1.0140 -0.0572
  751SOL     OW 2251   2.806   0.510   0.492  0.2771  0.3615  0.6180
  751SOL    HW1 2252   2.862   0.591   0.530  2.5645  0.0023 -0.4186
  751SOL    HW2 2253   2.740   0.479   0.564 -0.8431  2.4742 -1.8147
  752SOL     OW 2254   0.201   2.775   0.996 -0.2653  0.1395  0.2672
  752SOL    HW1 2255   0.098   2.777   1.014  1.1844  2.0286 -0.9121
  752SOL    HW2 2256   0.223   2.687   0.939  1.4078 -0.5411  1.1449
  753SOL     OW 2257   1.288   0.353   2.043 -0.4581 -0.2723  0.1058
  753SOL    HW1 2258   1.216   0.404   1.983 -1.7273  0.1408 -0.6980
  753SOL    HW2 2259   1.369   0.322   1.982  4.2792 -1.1722 -0.9992
  754SOL     OW 2260   1.674   2.354   2.052  0.3372  0.0887  0.2950
  754SOL    HW1 2261   1.630   2.367   2.143 -0.5557  2.0455  0.8269
  754SOL    HW2 2262   1.608   2.374   1.976 -0.5437 -0.4412 -1.6972
  755SOL     OW 2263   2.926   1.073   0.484 -0.4852 -0.2725  0.6704
  755SOL    HW1 2264   2.980   1.128   0.549 -1.4580 -2.3843  0.5191
  755SOL    HW2 2265   2.923   1.109   0.387 -0.9037  0.1424 -1.0355
  756SOL     OW 2266   1.412   1.373   2.625  0.0120 -0.0367 -0.0249
  756SOL    HW1 2267   1.340   1.302   2.627  0.8883 -1.2527  0.4865
  756SOL    HW2 2268   1.374   1.465   2.600 -0.3258  1.2793 -1.6814
  757SOL     OW 2269   1.688   2.911   0.308  0.1584 -0.2833 -0.5881
  757SOL    HW1 2270   1.597   2.953   0.280  0.2496 -0.5747  0.7465
  757SOL    HW2 2271   1.719   2.836   0.239 -0.1712 -1.7031 -0.3760
  758SOL     OW 2272   0.461   3.046   1.288  0.3789  0.7780 -0.3770
  758SOL    HW1 2273   0.393   2.977   1.322  3.9293  0.5321  1.9291
  758SOL    HW2 2274   0.487   3.031   1.192 -1.2873 -0.7676 -0.0737
  759SOL     OW 2275   0.183   0.956   1.236  0.1315  0.1107 -0.1977
  759SOL    HW1 2276   0.224   0.910   1.314 -3.1791 -2.6499 -0.3955
  759SOL    HW2 2277   0.084   0.967   1.242  4.3041 -0.9322 -4.3496
  760SOL     OW 2278   2.298   1.163   1.198 -0.2710 -0.4126  0.1168
  760SOL    HW1 2279   2.200   1.188   1.210  0.3642  0.1986  0.1942
  760SOL    HW2 2280   2.324   1.128   1.107 -0.3902 -2.8054  0.0670
  761SOL     OW 2281   1.321   1.015   0.883 -0.4838  0.0199  0.2002
  761SOL    HW1 2282   1.395   0.968   0.936 -0.4242 -3.6492  0.0537
  761SOL    HW2 2283   1.246   0.953   0.855 -3.5697 -2.0327  0.6274
  762SOL     OW 2284   2.358   2.388   1.359 -0.1098  0.2438  0.1318
  762SOL    HW1 2285   2.271   2.342   1.358  1.6060 -1.5327  0.0315
  762SOL    HW2 2286   2.358   2.475   1.302  0.0054  0.8187 -1.4086
  763SOL     OW 2287   1.540   1.257   2.093  0.1482 -0.6150 -0.1386
  763SOL    HW1 2288   1.564   1.178   2.156 -1.5339 -0.1345  0.1260
  763SOL    HW2 2289   1.597   1.260   2.009  0.5680 -0.7745  0.9021
  764SOL     OW 2290   0.060   1.955   2.294  0.2245 -0.1679  0.4645
  764SOL    HW1 2291   0.049   1.863   2.248  1.0933  2.9785  0.7784
  764SOL    HW2 2292   0.034   1.952   2.392 -2.8190  1.2722 -0.2430
  765SOL     OW 2293   0.900   2.631   1.322 -0.2434 -0.1166 -0.2314
  765SOL    HW1 2294   1.001   2.653   1.329  0.8605 -0.0761 -0.6922
  765SOL    HW2 2295   0.881   2.536   1.346 -1.2405  3.3045  0.8923
  766SOL     OW 2296   0.705   2.203   2.462  0.1671  0.4140  0.4586
  766SOL    HW1 2297   0.804   2.200   2.457 -2.8347  1.7738  0.1352
  766SOL    HW2 2298   0.658   2.128   2.412 -0.8257  1.0101  0.3612
  767SOL     OW 2299   1.727   0.380   2.630  0.4981 -0.5934  0.1198
  767SOL    HW1 2300   1.680   0.291   2.611  1.6332  2.1619  0.4490
  767SOL    HW2 2301   1.784   0.377   2.720 -0.0106 -1.1065  2.5833
  768SOL     OW 2302   1.312   2.228   3.057 -0.2087  0.5334  0.0365
  768SOL    HW1 2303   1.282   2.223   0.061  2.6423  1.2720  0.6264
  768SOL    HW2 2304   1.416   2.223   3.056 -0.5528  0.6979 -1.2793
  769SOL     OW 2305   3.023   2.751   1.225  0.1739  0.6378 -0.0677
  769SOL    HW1 2306   2.944   2.739   1.285  2.1171 -0.6976 -0.0192
  769SOL    HW2 2307   3.004   2.741   1.127  1.9230  0.2384  1.1883
  770SOL     OW 2308   0.570   2.788   2.861  0.4169  0.3246 -0.0498
  770SOL    HW1 2309   0.493   2.852   2.860 -0.1026 -1.1750  1.5701
  770SOL    HW2 2310   0.647   2.812   2.793  1.4759  1.6480 -1.1778
  771SOL     OW 2311   0.873   2.477   2.649  0.2711  0.4713  0.3515
  771SOL    HW1 2312   0.892   2.402   2.714  2.6703 -0.6725 -0.6831
  771SOL    HW2 2313   0.778   2.475   2.605  1.1692  0.4965  0.9101
  772SOL     OW 2314   2.730   3.007   1.826 -0.7941 -0.0729  0.3570
  772SOL    HW1 2315   2.663   2.998   1.902 -0.6567 -3.5873 -0.7323
  772SOL    HW2 2316   2.701   3.072   1.754  2.0377  1.5003 -2.2587
  773SOL     OW 2317   1.090   2.717   1.905 -0.4013 -0.6302 -0.0073
  773SOL    HW1 2318   1.165   2.657   1.872  1.0322 -0.4728  2.0954
  773SOL    HW2 2319   1.041   2.686   1.992 -3.2759 -1.3648  4.1006
  774SOL     OW 2320   1.534   0.434   2.213  0.3695  0.3688  0.0170
  774SOL    HW1 2321   1.519   0.353   2.272  0.8098  1.8357 -0.7909
  774SOL    HW2 2322   1.453   0.446   2.151 -0.0376 -0.5232  0.0622
  775SOL     OW 2323   2.183   2.670   3.054  0.1527 -0.1839 -0.7191
  775SOL    HW1 2324   2.229   2.626   0.042  0.1110 -0.9208 -1.4513
  775SOL    HW2 2325   2.261   2.704   3.000 -1.2323  2.3469  1.9222
  776SOL     OW 2326   2.237   0.885   1.902  0.3757  0.1646 -0.3595
  776SOL    HW1 2327   2.141   0.862   1.941 -2.6130 -0.7525 -3.2716
  776SOL    HW2 2328   2.236   0.982   1.863 -0.8791  3.7060 -2.6055
  777SOL     OW 2329   2.731   0.971   2.351  0.2421  0.1901  0.0163
  777SOL    HW1 2330   2.720   0.933   2.446 -0.8625 -0.1140  0.7227
  777SOL    HW2 2331   2.644   0.970   2.298 -1.2222  2.5919  1.7343
  778SOL     OW 2332   2.173   0.472   2.073 -0.2653  0.2038  0.1048
  778SOL    HW1 2333   2.221   0.562   2.064 -1.2153  1.0272 -0.3044
  778SOL    HW2 2334   2.247   0.404   2.044  1.1707  0.4121  1.7356
  779SOL     OW 2335   0.057   0.038   0.095 -0.6454 -0.3441 -0.3577
  779SOL    HW1 2336   0.028   3.080   0.013 -1.4195  1.4340 -2.1359
  779SOL    HW2 2337   0.145   0.006   0.131 -0.3881  1.3677 -1.0487
  780SOL     OW 2338   2.165   0.108   2.444  0.4107 -0.8299  0.3411
  780SOL    HW1 2339   2.143   0.205   2.413 -0.9250  0.7507  1.2816
  780SOL    HW2 2340   2.102   0.039   2.407  1.2773  0.0048 -0.8430
  781SOL     OW 2341   0.399   0.422   1.813 -0.1024 -0.1267 -0.5911
  781SOL    HW1 2342   0.492   0.420   1.775 -2.3358 -0.0363  2.3840
  781SOL    HW2 2343   0.327   0.373   1.754 -1.4687  0.1148 -3.2355
  782SOL     OW 2344   1.658   2.005   0.083  0.3136 -0.7342 -0.2321
  782SOL    HW1 2345   1.755   2.017   0.063 -0.9015 -1.5232  2.0861
  782SOL    HW2 2346   1.607   2.089   0.055 -1.2914  4.2355  2.8107
  783SOL     OW 2347   1.002   1.727   1.665 -0.0469 -0.1945 -0.1674
  783SOL    HW1 2348   1.051   1.641   1.684 -0.0692 -4.7998 -3.0494
  783SOL    HW2 2349   1.069   1.795   1.622  2.1405  0.6056  0.0066
  784SOL     OW 2350   1.988   0.661   2.157  0.3034  0.0341 -0.4673
  784SOL    HW1 2351   2.034   0.579   2.121 -2.4786  0.6854  0.6821
  784SOL    HW2 2352   2.059   0.725   2.194 -1.1172 -0.2808 -1.8241
  785SOL     OW 2353   2.965   0.312   0.892 -0.2269  0.0503 -0.1933
  785SOL    HW1 2354   2.971   0.315   0.995 -0.6545  0.9860  1.3918
  785SOL    HW2 2355   2.957   0.407   0.856 -0.5191 -1.2875 -1.0505
  786SOL     OW 2356   1.840   0.054   0.308 -0.1001 -0.0144  0.3681
  786SOL    HW1 2357   1.919   0.080   0.367 -0.5389  0.7978  3.6944
  786SOL    HW2 2358   1.803   3.055   0.336  0.2075  0.6150  0.7438
  787SOL     OW 2359   1.185   0.058   0.798 -0.0399 -0.3985 -0.8005
  787SOL    HW1 2360   1.273   0.108   0.790 -0.5519 -0.5761  4.1383
  787SOL    HW2 2361   1.102   0.113   0.776 -0.8893 -3.0081 -1.6329
  788SOL     OW 2362   0.253   1.735   1.147  0.3622 -0.0690  0.6502
  788SOL    HW1 2363   0.241   1.780   1.239 -1.1134  1.2840  1.4457
  788SOL    HW2 2364   0.340   1.682   1.151 -0.0867  0.0130  0.1723
  789SOL     OW 2365   2.800   0.712   1.983 -0.2070  0.3319  0.5898
  789SOL    HW1 2366   2.769   0.614   1.988 -0.2788  0.0461  0.8992
  789SOL    HW2 2367   2.850   0.741   2.068  0.8458 -2.7813  0.5086
  790SOL     OW 2368   0.571   0.754   2.487  0.3066  0.6202 -0.0517
  790SOL    HW1 2369   0.589   0.761   2.588  1.3630  0.4904  0.9174
  790SOL    HW2 2370   0.500   0.686   2.462 -0.5244  3.7406  1.8367
  791SOL     OW 2371   2.662   0.274   2.920 -0.6276  0.7668 -0.2874
  791SOL    HW1 2372   2.583   0.333   2.941 -0.4057  0.3765  1.2562
  791SOL    HW2 2373   2.653   0.179   2.966  1.0149  0.1930 -0.6571
  792SOL     OW 2374   1.564   0.555   1.330  0.7425  0.8811 -0.1027
  792SOL    HW1 2375   1.577   0.516   1.237  1.1348 -0.0210 -0.0588
  792SOL    HW2 2376   1.651   0.551   1.381 -1.9706  0.8325 -0.7202
  793SOL     OW 2377   0.232   0.022   1.482 -0.5694  0.2370 -0.2806
  793SOL    HW1 2378   0.252   0.074   1.568  0.1707 -1.9113 -1.6394
  793SOL    HW2 2379   0.175   0.075   1.414  0.5820 -1.3415  1.3767
  794SOL     OW 2380   0.113   0.277   2.101  0.1658  0.2280 -0.1737
  794SOL    HW1 2381   0.121   0.375   2.088  2.9407 -1.0998 -1.4322
  794SOL    HW2 2382   0.199   0.240   2.064 -0.4555 -0.5727  5.5579
  795SOL     OW 2383   0.384   2.300   2.729 -0.1937  0.0108  0.4354
  795SOL    HW1 2384   0.462   2.233   2.716  0.2393  1.1426 -2.2033
  795SOL    HW2 2385   0.427   2.384   2.753 -0.7318 -1.6771 -0.5135
  796SOL     OW 2386   2.047   0.496   2.769  0.1538  0.8870 -0.5200
  796SOL    HW1 2387   2.012   0.584   2.747  2.4087 -2.4741  0.0917
  796SOL    HW2 2388   1.968   0.436   2.807 -2.8223 -2.1825  0.5023
  797SOL     OW 2389   2.326   1.997   2.825 -0.4657  0.0538  0.1517
  797SOL    HW1 2390   2.378   2.030   2.908 -2.2133  0.2195  1.6613
  797SOL    HW2 2391   2.324   1.893   2.822 -1.0031 -2.7942 -0.7548
  798SOL     OW 2392   0.156   0.683   1.567  0.1438  0.0235  0.0403
  798SOL    HW1 2393   0.174   0.626   1.480 -2.3476 -0.0532  0.4378
  798SOL    HW2 2394   0.128   0.632   1.648  0.3861  1.3265  0.7302
  799SOL     OW 2395   0.652   0.372   1.676  0.4262  0.5373 -0.0050
  799SOL    HW1 2396   0.701   0.457   1.668 -0.9375 -1.4284  1.1854
  799SOL    HW2 2397   0.708   0.288   1.699  0.6952 -1.8322  1.5878
  800SOL     OW 2398   3.085   2.418   0.280  0.3351  0.7779  0.0085
  800SOL    HW1 2399   3.019   2.341   0.307 -1.4926 -0.6301  0.8803
  800SOL    HW2 2400   0.059   2.433   0.354 -0.2815  0.4515 -1.7491
  801SOL     OW 2401   1.462   1.851   0.814  0.0326  0.1253 -0.6373
  801SOL    HW1 2402   1.515   1.893   0.889 -1.8378  0.3667  3.2570
  801SOL    HW2 2403   1.430   1.762   0.846 -1.7091 -4.0033  0.1126
  802SOL     OW 2404   0.758   0.519   0.193  0.3968 -0.9039  0.1938
  802SOL    HW1 2405   0.820   0.566   0.261  0.9033  1.7376  0.2135
  802SOL    HW2 2406   0.717   0.586   0.124 -1.2133 -2.3789  1.6214
  803SOL     OW 2407   1.287   1.316   1.945  0.1726  0.4550 -0.2621
  803SOL    HW1 2408   1.271   1.215   1.957  1.2431 -3.3601  0.3078
  803SOL    HW2 2409   1.389   1.327   1.943  1.6178 -1.1966 -0.2262
  804SOL     OW 2410   1.667   2.292   1.184 -0.1286 -0.4069 -0.5053
  804SOL    HW1 2411   1.736   2.359   1.222  0.8459  1.5226  2.8033
  804SOL    HW2 2412   1.643   2.316   1.087  0.1940 -1.9828 -1.7490
  805SOL     OW 2413   2.987   2.253   2.507 -0.0392  0.2531 -0.0071
  805SOL    HW1 2414   2.965   2.277   2.410  1.1314 -0.5654 -3.3595
  805SOL    HW2 2415   3.027   2.328   2.564  0.8647 -1.8422 -0.8706
  806SOL     OW 2416   0.554   2.546   0.432  0.2131  0.3147 -0.3940
  806SOL    HW1 2417   0.512   2.598   0.355  2.6715  2.6561  1.1160
  806SOL    HW2 2418   0.537   2.449   0.417 -1.3218  2.0916  0.5927
  807SOL     OW 2419   2.320   0.985   2.841 -0.2620  0.0477 -0.1680
  807SOL    HW1 2420   2.308   1.038   2.927 -0.8876 -1.8770 -2.8508
  807SOL    HW2 2421   2.332   0.883   2.850 -0.1326 -0.5910  1.2833
  808SOL     OW 2422   1.375   2.129   0.979 -0.3165  0.0984  0.3743
  808SOL    HW1 2423   1.458   2.135   0.916 -1.0831  0.5559  1.6131
  808SOL    HW2 2424   1.389   2.188   1.064  2.0337  0.5616  2.8355
  809SOL     OW 2425   0.084   0.496   0.763 -0.0431  0.0896  0.1475
  809SOL    HW1 2426   0.077   0.539   0.855  1.1944 -1.8802  2.8913
  809SOL    HW2 2427   0.151   0.424   0.767  0.1106  2.0479  2.9666
  810SOL     OW 2428   1.164   1.381   0.096 -0.0480 -0.7933  0.9852
  810SOL    HW1 2429   1.234   1.403   0.162 -0.2490  2.0817 -1.2596
  810SOL    HW2 2430   1.202   1.409   0.002 -1.7461  1.2484 -0.8685
  811SOL     OW 2431   1.641   2.942   1.529 -0.1732 -0.6515 -0.4113
  811SOL    HW1 2432   1.624   2.894   1.443 -1.1970 -0.3702 -0.7370
  811SOL    HW2 2433   1.570   2.916   1.598  0.3445  0.2196  1.5067
  812SOL     OW 2434   1.396   0.233   0.797 -0.1350 -0.3134 -0.1872
  812SOL    HW1 2435   1.355   0.310   0.741  1.3574  1.3299 -0.4093
  812SOL    HW2 2436   1.501   0.239   0.806  1.4605 -1.0956 -0.9170
  813SOL     OW 2437   1.355   2.998   2.417 -0.4188  0.1267 -0.2396
  813SOL    HW1 2438   1.268   2.948   2.403  1.6583  0.6912 -0.7325
  813SOL    HW2 2439   1.366   3.071   2.346 -0.2723 -0.3381  0.7746
  814SOL     OW 2440   1.468   2.798   1.725  0.1166 -0.1685  0.1121
  814SOL    HW1 2441   1.414   2.725   1.772 -1.5835  3.6555 -1.1962
  814SOL    HW2 2442   1.419   2.887   1.734 -0.6499 -3.5011  1.5976
  815SOL     OW 2443   0.281   2.974   0.190 -0.5033  0.9231 -0.0801
  815SOL    HW1 2444   0.357   2.952   0.255  2.0313 -0.0484  2.1168
  815SOL    HW2 2445   0.216   2.893   0.189 -2.5867 -0.8451  1.7688
  816SOL     OW 2446   2.325   1.458   2.639 -0.0558 -0.1257  0.4468
  816SOL    HW1 2447   2.290   1.371   2.669  1.0981  1.2799  0.9902
  816SOL    HW2 2448   2.307   1.474   2.538 -0.2069 -1.9828 -1.5454
  817SOL     OW 2449   2.506   2.295   2.535 -0.3456  0.0881 -0.1657
  817SOL    HW1 2450   2.429   2.239   2.571  2.0138  0.3013 -0.2664
  817SOL    HW2 2451   2.591   2.236   2.542 -2.0161 -2.0900 -0.8469
  818SOL     OW 2452   0.878   0.953   0.224 -0.2034 -0.6052  0.1026
  818SOL    HW1 2453   0.925   1.022   0.288 -0.2627 -0.0050  2.3149
  818SOL    HW2 2454   0.781   0.931   0.250 -1.4655 -0.2604 -1.1991
  819SOL     OW 2455   1.603   1.261   0.056  0.2862 -0.1858 -0.2528
  819SOL    HW1 2456   1.525   1.245   3.080 -2.6665  0.8618  0.1600
  819SOL    HW2 2457   1.596   1.197   0.131 -1.3266  0.5900 -1.7613
  820SOL     OW 2458   0.445   0.804   0.825  0.2701  0.2743  0.5766
  820SOL    HW1 2459   0.473   0.861   0.744  0.6770 -0.0230  1.4589
  820SOL    HW2 2460   0.440   0.706   0.795  1.1818 -2.3997 -0.9785
  821SOL     OW 2461   0.668   3.067   1.454  0.0090 -0.1841 -0.5750
  821SOL    HW1 2462   0.583   3.088   1.402  0.9571 -0.2921  0.3036
  821SOL    HW2 2463   0.700   2.973   1.441  2.2250  1.0025  1.4957
  822SOL     OW 2464   1.844   1.806   2.767  0.4183 -0.7820 -0.2166
  822SOL    HW1 2465   1.750   1.829   2.726 -0.6324 -2.4218 -0.2721
  822SOL    HW2 2466   1.902   1.891   2.770  1.1121  1.3171 -0.2888
  823SOL     OW 2467   0.820   0.440   2.239  0.0692  0.5324 -0.0027
  823SOL    HW1 2468   0.896   0.401   2.180 -1.5499  2.8195 -1.3552
  823SOL    HW2 2469   0.834   0.537   2.260 -0.9004  2.3449  0.2520
  824SOL     OW 2470   2.636   2.964   1.489  0.5103 -0.2429 -0.2134
  824SOL    HW1 2471   2.641   3.060   1.517 -0.0427 -1.2354  0.9533
  824SOL    HW2 2472   2.614   2.903   1.564  0.7893 -0.1228 -1.3251
  825SOL     OW 2473   0.187   1.614   2.397 -0.1560  0.3201  0.2200
  825SOL    HW1 2474   0.252   1.622   2.324 -0.7519  1.0185  2.4701
  825SOL    HW2 2475   0.100   1.667   2.382 -0.0671  1.1049 -1.5941
  826SOL     OW 2476   1.538   0.426   2.882 -0.3282 -0.8165  0.0447
  826SOL    HW1 2477   1.623   0.486   2.878 -1.3876 -1.2016  1.7077
  826SOL    HW2 2478   1.534   0.367   2.964  0.4995 -0.6403  0.3007
  827SOL     OW 2479   0.008   2.165   2.147 -0.4049 -0.0409  0.8015
  827SOL    HW1 2480   0.036   2.166   2.048 -2.1130  0.0709 -0.2747
  827SOL    HW2 2481   0.036   2.077   2.199  0.4597 -2.0914  3.8907
  828SOL     OW 2482   0.165   0.175   1.252  0.4510 -0.4439  0.4235
  828SOL    HW1 2483   0.236   0.159   1.183  2.9431  2.2026 -0.9277
  828SOL    HW2 2484   0.087   0.112   1.244 -0.6715 -1.5220 -1.5248
  829SOL     OW 2485   1.154   1.610   1.926 -0.1975 -0.0798 -0.2463
  829SOL    HW1 2486   1.201   1.520   1.924  0.6374 -1.2127  1.9662
  829SOL    HW2 2487   1.056   1.591   1.931  0.0508 -1.7556 -0.0743
  830SOL     OW 2488   1.004   0.951   1.666 -0.0138 -0.2571 -0.1581
  830SOL    HW1 2489   0.946   0.910   1.591  0.0599  0.6197  0.2258
  830SOL    HW2 2490   0.953   0.961   1.756 -3.0835  1.9174  3.2769
  831SOL     OW 2491   2.504   1.903   0.224  0.1394  0.2128  0.1654
  831SOL    HW1 2492   2.593   1.901   0.180 -1.7992  0.1600  4.1947
  831SOL    HW2 2493   2.496   1.821   0.284  1.5596  0.0792 -2.0066
  832SOL     OW 2494   1.006   2.364   0.007 -0.8939  0.2660 -0.2313
  832SOL    HW1 2495   0.984   2.317   0.093 -0.6214  1.2083  0.1580
  832SOL    HW2 2496   0.938   2.338   3.022 -3.7669 -0.5234 -3.1948
  833SOL     OW 2497   0.004   0.335   1.529 -0.0131  0.6726 -0.3730
  833SOL    HW1 2498   0.044   0.300   1.441 -0.1999  2.0339 -3.4394
  833SOL    HW2 2499   3.073   0.433   1.518  0.3283  0.4748  2.2343
  834SOL     OW 2500   3.085   0.771   0.982  0.0249 -0.3478  0.4911
  834SOL    HW1 2501   0.052   0.786   1.057 -1.6567 -1.3548 -1.8019
  834SOL    HW2 2502   3.077   0.852   0.918 -0.1731 -0.8192 -0.0208
  835SOL     OW 2503   2.707   0.522   0.236  0.1784 -0.2774  0.0451
  835SOL    HW1 2504   2.719   0.532   0.337 -1.7716  2.0331 -0.9617
  835SOL    HW2 2505   2.607   0.502   0.220 -0.9610  1.0384  1.3024
  836SOL     OW 2506   0.592   2.117   2.690  0.6400 -0.2070  0.3928
  836SOL    HW1 2507   0.619   2.024   2.706 -1.9701  2.3962  0.4119
  836SOL    HW2 2508   0.622   2.149   2.598  1.4380 -2.1976 -2.3467
  837SOL     OW 2509   1.419   1.750   0.355  0.3344  0.2239 -0.5370
  837SOL    HW1 2510   1.457   1.777   0.446  2.2183  1.9466 -0.7355
  837SOL    HW2 2511   1.442   1.654   0.334  1.6048  0.9843 -1.4318
  838SOL     OW 2512   2.489   0.985   2.228  0.5498  0.0593  0.1221
  838SOL    HW1 2513   2.437   1.065   2.265 -1.8632 -0.9001  1.0076
  838SOL    HW2 2514   2.515   0.991   2.130 -2.8689 -0.5343  1.2927
  839SOL     OW 2515   0.849   1.022   2.360  0.0776  0.1735  0.3225
  839SOL    HW1 2516   0.947   1.055   2.350 -0.0615 -0.0958  0.4735
  839SOL    HW2 2517   0.824   0.989   2.456  1.0047 -0.8268  1.6565
  840SOL     OW 2518   0.560   0.958   0.160  0.5201 -0.3250 -0.5738
  840SOL    HW1 2519   0.463   0.981   0.131 -2.4801  3.2840 -3.6118
  840SOL    HW2 2520   0.617   1.045   0.152 -2.0576  2.2272  1.4129
  841SOL     OW 2521   0.922   2.216   0.226  0.1938 -0.3146  0.4135
  841SOL    HW1 2522   0.900   2.259   0.315 -1.3456 -0.9444  0.8179
  841SOL    HW2 2523   0.857   2.145   0.197 -4.8045 -1.6479 -1.1277
  842SOL     OW 2524   0.429   0.538   0.734  0.1921  0.2377  0.5023
  842SOL    HW1 2525   0.383   0.518   0.822  1.7257 -1.2137  2.8106
  842SOL    HW2 2526   0.460   0.455   0.684 -1.1393  0.7291 -0.7722
  843SOL     OW 2527   0.591   0.800   1.496  0.6092  0.7854  0.0641
  843SOL    HW1 2528   0.578   0.896   1.521 -0.3318 -0.3236  1.1088
  843SOL    HW2 2529   0.559   0.773   1.407  0.9521  0.6705  3.1871
  844SOL     OW 2530   1.977   2.427   2.791 -0.3936 -0.2639 -0.2205
  844SOL    HW1 2531   1.973   2.522   2.833  2.8539  0.9764 -0.8975
  844SOL    HW2 2532   2.039   2.438   2.711 -3.0739 -0.3686  0.9836
  845SOL     OW 2533   2.293   3.067   1.663 -0.2998 -0.7895 -0.0374
  845SOL    HW1 2534   2.351   3.008   1.723  0.5766 -0.0862 -0.2405
  845SOL    HW2 2535   2.315   3.037   1.569 -1.5494  2.3747  2.9711
  846SOL     OW 2536   1.911   1.002   2.428  0.5034 -0.1890 -0.0597
  846SOL    HW1 2537   1.891   0.904   2.449 -0.3497  2.3227 -1.5948
  846SOL    HW2 2538   1.903   1.027   2.328 -1.4110  1.7440  0.6665
  847SOL     OW 2539   2.971   0.054   1.869  0.3989  0.2423 -0.0372
  847SOL    HW1 2540   2.986   0.073   1.967  0.2216  0.4605  0.1994
  847SOL    HW2 2541   2.881   0.023   1.846  1.0490  0.4647 -0.3867
  848SOL     OW 2542   2.702   2.654   0.125 -0.1736 -0.5072  0.2873
  848SOL    HW1 2543   2.797   2.665   0.164  1.4622  2.3491  2.0306
  848SOL    HW2 2544   2.624   2.638   0.190 -2.6714  1.8847 -1.4012
  849SOL     OW 2545   0.668   2.943   0.629 -0.0680 -0.1792 -0.5669
  849SOL    HW1 2546   0.614   2.857   0.627  1.9452  2.1489  1.5458
  849SOL    HW2 2547   0.594   3.013   0.637 -1.1548 -2.7339  0.0064
  850SOL     OW 2548   0.709   2.336   0.884 -0.3226  0.6400  0.1786
  850SOL    HW1 2549   0.720   2.438   0.875 -3.2625  2.6191 -0.3153
  850SOL    HW2 2550   0.772   2.289   0.817  2.7747 -0.7505 -3.0841
  851SOL     OW 2551   2.183   0.355   2.958 -0.0872 -0.2340 -0.2993
  851SOL    HW1 2552   2.130   0.403   2.888  0.6679  1.6363 -1.9501
  851SOL    HW2 2553   2.219   0.268   2.919 -1.4940  2.3710  1.7176
  852SOL     OW 2554   1.617   1.895   2.623 -0.4126 -0.3689 -0.0300
  852SOL    HW1 2555   1.525   1.856   2.613 -2.3464 -1.3654 -1.0256
  852SOL    HW2 2556   1.667   1.914   2.533  0.0768  1.7923 -1.8272
  853SOL     OW 2557   2.959   2.162   0.318  0.0096  0.3176  0.4101
  853SOL    HW1 2558   2.970   2.125   0.222 -0.5772 -0.2624 -2.5906
  853SOL    HW2 2559   3.005   2.107   0.390  0.1127  0.7921  2.2510
  854SOL     OW 2560   1.719   0.598   2.048  0.7087 -0.1962 -0.4856
  854SOL    HW1 2561   1.682   0.524   2.107  1.8333 -2.2228 -1.5896
  854SOL    HW2 2562   1.819   0.611   2.074  1.1635 -1.0719  3.1371
  855SOL     OW 2563   0.172   2.683   0.581 -0.3203  0.1491  0.3164
  855SOL    HW1 2564   0.225   2.667   0.669  1.4838  0.6273 -1.1840
  855SOL    HW2 2565   0.195   2.609   0.511 -0.2416 -1.9516 -0.9193
  856SOL     OW 2566   0.393   2.818   2.411 -0.0452 -0.7970  0.1024
  856SOL    HW1 2567   0.445   2.750   2.355 -0.7516 -2.7999 -0.2106
  856SOL    HW2 2568   0.344   2.772   2.484 -0.9209  4.7989  1.1693
  857SOL     OW 2569   1.150   0.231   1.551  0.3119  0.0452  0.5200
  857SOL    HW1 2570   1.118   0.330   1.545 -1.6024  2.5747 -1.9672
  857SOL    HW2 2571   1.139   0.190   1.460 -0.8998  1.0069  2.1401
  858SOL     OW 2572   0.164   2.145   1.867  0.2255  0.0532  0.3342
  858SOL    HW1 2573   0.090   2.078   1.838  0.7658 -3.7406 -0.2028
  858SOL    HW2 2574   0.222   2.170   1.787  2.3900 -0.3491  0.4644
  859SOL     OW 2575   2.024   2.646   2.016 -0.1419 -0.1214  0.5646
  859SOL    HW1 2576   1.952   2.700   2.063 -0.8515  0.7008  0.6910
  859SOL    HW2 2577   1.991   2.555   1.998  2.4683 -1.1466  0.1542
  860SOL     OW 2578   1.663   0.621   0.533  0.0769 -0.3509  0.4385
  860SOL    HW1 2579   1.686   0.718   0.507 -0.6827  0.8757 -0.1702
  860SOL    HW2 2580   1.604   0.582   0.458 -2.3718  0.2211 -0.4969
  861SOL     OW 2581   2.907   0.591   0.893 -0.2248 -0.0002  0.3893
  861SOL    HW1 2582   2.973   0.649   0.940  0.6151  0.7910 -0.2732
  861SOL    HW2 2583   2.885   0.635   0.800  1.0845  1.0752 -1.3003
  862SOL     OW 2584   2.150   0.710   1.501 -0.1682  0.4342  0.1131
  862SOL    HW1 2585   2.222   0.695   1.432 -3.5933  1.4959  2.0557
  862SOL    HW2 2586   2.184   0.686   1.594 -1.1809  0.4048 -2.1195
  863SOL     OW 2587   0.707   0.847   1.062 -0.0262  0.4152 -0.0379
  863SOL    HW1 2588   0.663   0.780   1.129  0.2171  0.9954 -1.1582
  863SOL    HW2 2589   0.799   0.878   1.096  1.8521 -2.8356 -1.0595
  864SOL     OW 2590   2.897   2.845   1.997  0.8047 -0.0264 -0.3936
  864SOL    HW1 2591   2.958   2.870   2.072 -0.1907 -0.9332 -0.2453
  864SOL    HW2 2592   2.907   2.904   1.913  0.2816 -2.9275  1.7503
  865SOL     OW 2593   1.160   0.502   2.234 -0.2084 -0.0098  0.0069
  865SOL    HW1 2594   1.195   0.464   2.321  0.1555  0.6987 -1.4238
  865SOL    HW2 2595   1.200   0.442   2.160  0.2316 -0.7257  0.9307
  866SOL     OW 2596   2.464   2.803   0.273  0.5545 -0.1903 -0.7784
  866SOL    HW1 2597   2.379   2.827   0.329 -1.2186  0.6444  1.1253
  866SOL    HW2 2598   2.543   2.816   0.327 -2.1744  1.1919  0.2310
  867SOL     OW 2599   2.707   2.758   0.503  0.2419  0.1594 -0.7209
  867SOL    HW1 2600   2.682   2.663   0.474 -1.9711  1.9989  0.9214
  867SOL    HW2 2601   2.787   2.795   0.452 -0.1565 -2.2970  1.9437
  868SOL     OW 2602   1.796   1.124   2.832  0.1399 -0.1227  0.4176
  868SOL    HW1 2603   1.843   1.063   2.897  1.3576 -0.0230 -0.5353
  868SOL    HW2 2604   1.800   1.217   2.872  0.9623  1.1535  1.2492
  869SOL     OW 2605   2.659   2.503   0.410 -0.0649 -0.2495 -0.5161
  869SOL    HW1 2606   2.587   2.475   0.489  0.3635 -2.0013  3.3735
  869SOL    HW2 2607   2.685   2.426   0.351 -1.4494  2.1046  0.7169
  870SOL     OW 2608   2.195   2.056   0.579  0.7142 -0.5279 -0.6999
  870SOL    HW1 2609   2.134   2.056   0.660 -1.3358 -2.7632 -0.6821
  870SOL    HW2 2610   2.284   2.012   0.597  0.4364  1.6751 -0.9853
  871SOL     OW 2611   0.424   1.317   1.347  0.2119 -0.5442  0.7403
  871SOL    HW1 2612   0.353   1.282   1.281 -0.7641 -0.6373  0.2296
  871SOL    HW2 2613   0.388   1.314   1.444 -1.3068 -0.3478 -0.7754
  872SOL     OW 2614   1.098   1.861   2.353  0.0658 -0.2249  0.1895
  872SOL    HW1 2615   1.141   1.951   2.368 -0.8578  0.9276 -0.2677
  872SOL    HW2 2616   1.157   1.809   2.288 -2.0209 -0.9660 -1.0865
  873SOL     OW 2617   0.692   2.400   2.007 -0.6182 -0.0613 -0.0699
  873SOL    HW1 2618   0.745   2.466   1.957  0.3171 -0.5596  2.5631
  873SOL    HW2 2619   0.600   2.446   2.029 -2.5268 -1.2220 -1.7802
  874SOL     OW 2620   0.804   0.445   1.351  0.0922 -0.3613 -0.2744
  874SOL    HW1 2621   0.864   0.470   1.269 -1.2761 -1.2459 -1.3081
  874SOL    HW2 2622   0.829   0.500   1.435  1.9026  1.0761  3.0856
  875SOL     OW 2623   2.948   0.244   1.161 -0.7364  0.2295  0.3006
  875SOL    HW1 2624   3.005   0.330   1.174 -2.0176 -0.4833 -0.1853
  875SOL    HW2 2625   2.883   0.233   1.239  3.2088  2.4069 -0.9014
  876SOL     OW 2626   0.310   1.111   0.125  0.4108 -0.1423  0.5118
  876SOL    HW1 2627   0.277   1.108   0.028 -0.2134 -0.4403 -0.4923
  876SOL    HW2 2628   0.238   1.098   0.193 -1.0409 -1.0988 -1.2881
  877SOL     OW 2629   1.178   0.737   1.590  0.1239  0.7210  0.1800
  877SOL    HW1 2630   1.219   0.749   1.496  0.5238 -0.7999  2.0139
  877SOL    HW2 2631   1.136   0.823   1.624 -0.2778  1.0156 -0.4629
  878SOL     OW 2632   1.982   2.052   0.363  0.1332  0.0128 -0.0931
  878SOL    HW1 2633   2.015   1.994   0.286 -1.5428  1.7608  1.8113
  878SOL    HW2 2634   2.050   2.060   0.439  1.7464 -0.0742 -4.4059
  879SOL     OW 2635   2.845   1.492   1.574 -0.3779 -0.1061  0.3230
  879SOL    HW1 2636   2.876   1.552   1.493  3.0483  1.5594 -1.7267
  879SOL    HW2 2637   2.825   1.396   1.548 -1.6444  1.6973  0.1307
  880SOL     OW 2638   1.448   2.480   0.632  0.1324 -0.1828 -0.2061
  880SOL    HW1 2639   1.371   2.520   0.686  2.0345  0.4018 -1.3218
  880SOL    HW2 2640   1.463   2.383   0.642 -1.9491 -0.5975 -1.7413
  881SOL     OW 2641   0.789   2.375   0.437 -0.2269 -0.3033  0.0964
  881SOL    HW1 2642   0.787   2.313   0.521  2.0142 -0.3497  4.2684
  881SOL    HW2 2643   0.727   2.454   0.448 -0.8672  3.0402  2.9077
  882SOL     OW 2644   2.040   0.925   0.986 -0.1365  0.5265  0.4008
  882SOL    HW1 2645   2.130   0.890   1.014  1.2570  2.1088  2.8108
  882SOL    HW2 2646   1.970   0.914   1.065 -0.7797 -0.2803  4.3640
  883SOL     OW 2647   1.721   0.813   1.552 -0.3085  0.4919 -0.5856
  883SOL    HW1 2648   1.741   0.739   1.620  0.9090 -3.0496  0.8059
  883SOL    HW2 2649   1.808   0.849   1.505  1.2988  2.2286 -0.9875
  884SOL     OW 2650   2.775   0.491   3.077  0.7926  0.2065 -0.3867
  884SOL    HW1 2651   2.760   0.482   0.087 -1.9412 -1.3479  4.0949
  884SOL    HW2 2652   2.785   0.397   3.037  0.9598  0.7696 -2.0188
  885SOL     OW 2653   0.974   1.248   2.695  0.3172 -0.0924 -0.0979
  885SOL    HW1 2654   0.976   1.266   2.796  1.8434  1.5617 -1.3209
  885SOL    HW2 2655   0.892   1.289   2.646 -1.4167 -3.4711 -0.8542
  886SOL     OW 2656   1.344   1.811   2.603 -0.2132 -0.4829 -0.0842
  886SOL    HW1 2657   1.316   1.723   2.562  0.5760  0.3651 -3.2264
  886SOL    HW2 2658   1.262   1.866   2.614  1.9628 -0.3305 -0.2818
  887SOL     OW 2659   1.226   0.198   1.140 -0.3560  0.3148 -0.2259
  887SOL    HW1 2660   1.324   0.195   1.102  0.3704 -1.3312 -1.4033
  887SOL    HW2 2661   1.213   0.297   1.170 -0.0195  4.5437  0.8402
  888SOL     OW 2662   2.605   0.777   1.706  0.4120  0.4472 -0.1084
  888SOL    HW1 2663   2.706   0.774   1.717  0.1548  0.5010 -0.3310
  888SOL    HW2 2664   2.555   0.687   1.687  0.5466 -0.0399 -0.9274
  889SOL     OW 2665   2.979   2.651   0.788 -0.0270  0.4143 -0.0953
  889SOL    HW1 2666   3.028   2.636   0.700 -0.4366  0.3016  2.6881
  889SOL    HW2 2667   2.991   2.570   0.846  0.8294 -2.7315  0.9355
  890SOL     OW 2668   1.759   2.229   0.631 -0.0932 -0.1462  0.2568
  890SOL    HW1 2669   1.809   2.238   0.543 -0.3833  1.0225 -0.5200
  890SOL    HW2 2670   1.656   2.246   0.623 -0.6973 -0.3952  1.1553
  891SOL     OW 2671   0.373   1.003   2.782 -0.4645  0.0681 -0.0151
  891SOL    HW1 2672   0.376   0.997   2.683  0.1934  1.7833 -1.8419
  891SOL    HW2 2673   0.454   0.952   2.813 -0.0276  2.3651 -3.7776
  892SOL     OW 2674   2.864   2.425   1.443  0.2017  0.2882 -0.4540
  892SOL    HW1 2675   2.959   2.460   1.421  0.7354  2.3176  0.6009
  892SOL    HW2 2676   2.787   2.475   1.399  1.9392 -2.7756 -0.8567
  893SOL     OW 2677   1.488   0.211   1.158  0.6001  0.4353 -0.0187
  893SOL    HW1 2678   1.536   0.160   1.084 -0.7359  0.0020 -0.3166
  893SOL    HW2 2679   1.502   0.309   1.147 -1.7699  0.0578 -0.9487
  894SOL     OW 2680   2.591   0.438   0.663  0.6834 -0.1330  0.6693
  894SOL    HW1 2681   2.584   0.486   0.752 -0.5971  0.0221  2.6346
  894SOL    HW2 2682   2.520   0.473   0.598 -1.3922  1.9089 -0.5421
  895SOL     OW 2683   1.991   1.393   2.449 -0.1428 -0.2608 -0.2806
  895SOL    HW1 2684   1.985   1.482   2.502  0.8147  0.9455  0.3099
  895SOL    HW2 2685   1.960   1.315   2.513 -1.1826 -0.7714  4.2716
  896SOL     OW 2686   1.515   0.415   1.585 -0.0104 -0.2338  0.7221
  896SOL    HW1 2687   1.507   0.483   1.511 -3.2556 -0.4608  2.4173
  896SOL    HW2 2688   1.535   0.324   1.545 -2.3734  0.2196  1.9433
  897SOL     OW 2689   0.706   1.567   1.807  0.4720  0.0352  0.0032
  897SOL    HW1 2690   0.789   1.520   1.837 -3.1235 -2.7713 -1.4804
  897SOL    HW2 2691   0.727   1.666   1.826  1.6264  3.3812  1.2213
  898SOL     OW 2692   2.241   2.749   2.416  0.0629  0.5208 -0.3660
  898SOL    HW1 2693   2.176   2.675   2.401  2.1147 -1.8748 -1.1621
  898SOL    HW2 2694   2.326   2.723   2.363  2.2303  3.0795 -1.4762
  899SOL     OW 2695   1.042   1.426   1.395 -0.0292  0.5229 -0.6736
  899SOL    HW1 2696   1.114   1.366   1.354 -2.5072  0.5185  0.8769
  899SOL    HW2 2697   1.018   1.506   1.338 -1.3281 -1.1044  2.0873
  900SOL     OW 2698   0.919   1.948   2.790  0.3478  0.4658  0.0553
  900SOL    HW1 2699   1.012   1.906   2.794  1.1365  1.8200  1.1255
  900SOL    HW2 2700   0.869   1.907   2.713 -0.9679 -2.5893 -1.2226
  901SOL     OW 2701   0.638   1.975   2.332  0.2700  0.0952  0.5162
  901SOL    HW1 2702   0.643   2.001   2.237 -0.9840 -0.5034  1.5179
  901SOL    HW2 2703   0.549   1.930   2.353 -2.1061  0.0205 -1.6873
  902SOL     OW 2704   2.116   1.699   0.390 -0.1805 -0.4900 -0.1962
  902SOL    HW1 2705   2.088   1.632   0.322 -1.7721  3.0416  2.1972
  902SOL    HW2 2706   2.186   1.677   0.455 -0.7217  3.2067 -1.9335
  903SOL     OW 2707   1.915   1.729   0.589  0.3287 -0.4863  0.0800
  903SOL    HW1 2708   1.854   1.801   0.545 -0.2257  1.3882  0.2053
  903SOL    HW2 2709   1.993   1.699   0.528 -3.0400 -1.9704 -0.2148
  904SOL     OW 2710   1.041   0.672   2.525 -0.1371  0.4801 -0.3204
  904SOL    HW1 2711   0.976   0.668   2.454 -0.1445 -0.6921 -0.2992
  904SOL    HW2 2712   1.129   0.707   2.486 -0.8262  0.1408  0.4618
  905SOL     OW 2713   2.674   0.290   0.896  0.0682  0.1272 -0.5778
  905SOL    HW1 2714   2.615   0.328   0.823  1.0775  0.8632 -1.0291
  905SOL    HW2 2715   2.772   0.272   0.875 -2.4408 -0.5293 -2.0404
  906SOL     OW 2716   2.704   2.027   0.563  0.3916 -0.5410  0.5194
  906SOL    HW1 2717   2.762   1.956   0.512  3.0050 -0.9872  1.0780
  906SOL    HW2 2718   2.763   2.090   0.618 -0.1637  3.4460 -0.5725
  907SOL     OW 2719   1.532   0.540   0.293  0.1252 -0.5759  0.0081
  907SOL    HW1 2720   1.477   0.478   0.356 -0.9879  0.6750  0.1491
  907SOL    HW2 2721   1.475   0.543   0.208  0.6394 -1.9182  0.0129
  908SOL     OW 2722   1.972   0.341   1.359  0.2056 -0.4182 -0.3198
  908SOL    HW1 2723   2.053   0.325   1.300 -1.2360 -0.6698 -0.4450
  908SOL    HW2 2724   1.996   0.314   1.458  1.9853  1.1648 -1.1910
  909SOL     OW 2725   2.786   0.591   1.142  0.8061  0.1409  0.0434
  909SOL    HW1 2726   2.816   0.545   1.053 -2.0071  2.3147 -2.5174
  909SOL    HW2 2727   2.866   0.614   1.202  0.0503 -0.5677 -0.2471
  910SOL     OW 2728   1.098   2.864   2.454  0.6994 -0.8139  0.5885
  910SOL    HW1 2729   1.059   2.854   2.545 -1.6031 -0.2468 -0.0944
  910SOL    HW2 2730   1.038   2.844   2.376  1.9939  1.7939 -2.1900
  911SOL     OW 2731   2.240   1.135   1.799  0.0127 -0.7126 -0.2477
  911SOL    HW1 2732   2.334   1.178   1.792  3.2457  0.2597 -1.6740
  911SOL    HW2 2733   2.192   1.128   1.710 -0.6697  1.3501  0.5514
  912SOL     OW 2734   2.501   1.950   1.513  0.0881 -0.5123 -0.1608
  912SOL    HW1 2735   2.462   1.874   1.457 -1.2465 -1.2857  0.0903
  912SOL    HW2 2736   2.597   1.972   1.482  0.7586 -1.2138 -2.5768
  913SOL     OW 2737   2.628   2.277   1.260 -0.1862  0.5736 -0.1227
  913SOL    HW1 2738   2.546   2.285   1.317  2.4676  1.4974 -0.4206
  913SOL    HW2 2739   2.619   2.206   1.187 -2.4201  1.1539 -1.8102
  914SOL     OW 2740   1.964   1.819   1.430 -0.4226  0.8075  0.7393
  914SOL    HW1 2741   1.973   1.732   1.379  0.0415 -0.6145  1.0655
  914SOL    HW2 2742   1.911   1.797   1.515  3.3860 -3.0565 -2.7102
  915SOL     OW 2743   1.317   1.622   1.514 -0.6777 -0.1068  0.3027
  915SOL    HW1 2744   1.365   1.700   1.550 -2.7871  0.2776  0.3013
  915SOL    HW2 2745   1.295   1.631   1.417 -1.6274 -0.7857  0.5340
  916SOL     OW 2746   2.801   2.739   1.359 -0.0446  0.3881 -0.0317
  916SOL    HW1 2747   2.749   2.671   1.309 -0.8724  4.7556  1.4974
  916SOL    HW2 2748   2.732   2.806   1.393 -1.2992 -1.2539 -2.8295
  917SOL     OW 2749   2.531   1.732   2.575  0.2132  0.3253  0.3258
  917SOL    HW1 2750   2.616   1.729   2.628  0.3286  0.9189 -1.3685
  917SOL    HW2 2751   2.453   1.690   2.624  1.0977 -0.9498 -0.2467
  918SOL     OW 2752   1.748   1.938   2.380 -0.0432  0.0847  0.2583
  918SOL    HW1 2753   1.713   1.964   2.285 -0.1130 -0.2664 -0.6341
  918SOL    HW2 2754   1.825   1.868   2.380  0.1802 -0.7240  2.2829
  919SOL     OW 2755   1.372   2.313   1.873  0.7980 -0.6635 -0.1391
  919SOL    HW1 2756   1.291   2.286   1.928 -0.3012 -2.3323 -0.0653
  919SOL    HW2 2757   1.381   2.253   1.793  2.1442  2.2759  0.7421
  920SOL     OW 2758   3.051   0.371   2.812 -0.2486 -0.0602  0.7243
  920SOL    HW1 2759   3.090   0.426   2.740 -1.4695  0.7382  1.3035
  920SOL    HW2 2760   3.088   0.275   2.816  1.8209 -2.8381  2.9924
  921SOL     OW 2761   2.606   0.053   2.404 -0.2061 -0.0104  0.2123
  921SOL    HW1 2762   2.641   0.017   2.317  0.5316 -0.3127  0.1047
  921SOL    HW2 2763   2.652   0.140   2.428 -0.9500  1.9960  0.2812
  922SOL     OW 2764   2.380   1.774   0.752 -0.6208  0.1318 -0.3682
  922SOL    HW1 2765   2.399   1.855   0.693  0.0968 -0.7483 -0.0675
  922SOL    HW2 2766   2.310   1.796   0.823  1.5509  0.7296 -1.7805
  923SOL     OW 2767   0.407   1.798   0.495 -0.2421  0.1018  0.5942
  923SOL    HW1 2768   0.469   1.737   0.443  0.7800  2.0762  2.0982
  923SOL    HW2 2769   0.442   1.819   0.587 -2.8922  2.3168  1.3426
  924SOL     OW 2770   1.384   0.645   2.963 -0.0568 -0.3648 -0.3800
  924SOL    HW1 2771   1.449   0.721   2.985 -0.3670 -0.8837  1.5148
  924SOL    HW2 2772   1.426   0.582   2.896 -2.4606 -0.8753  1.5506
  925SOL     OW 2773   2.704   1.226   0.798  0.1793 -0.1021  0.1132
  925SOL    HW1 2774   2.619   1.257   0.846  1.5321 -2.1986  0.3235
  925SOL    HW2 2775   2.682   1.155   0.728  0.7843  2.3725  1.0969
  926SOL     OW 2776   2.635   1.028   1.027  0.4937  0.1004 -0.4461
  926SOL    HW1 2777   2.682   0.971   1.100  0.8204 -0.5522  0.8153
  926SOL    HW2 2778   2.695   1.030   0.949 -1.1458  0.0004  0.2966
  927SOL     OW 2779   0.571   1.322   0.357  0.2000  0.2214  0.1017
  927SOL    HW1 2780   0.587   1.291   0.259 -1.3554 -2.2685 -1.8524
  927SOL    HW2 2781   0.557   1.424   0.360  0.7346  1.7186  2.4323
  928SOL     OW 2782   0.077   0.294   2.392  0.6666  0.4448  0.5968
  928SOL    HW1 2783   0.164   0.250   2.426  2.7610  2.2914  1.1937
  928SOL    HW2 2784   0.084   0.313   2.293 -0.5128  1.1224  2.9035
  929SOL     OW 2785   3.047   3.037   1.248  0.2480 -0.0978  0.1353
  929SOL    HW1 2786   2.997   3.047   1.157  0.6873  0.8901 -3.2205
  929SOL    HW2 2787   3.058   2.938   1.264  0.6937  2.1397  0.7526
  930SOL     OW 2788   1.855   2.317   1.565 -0.0796  0.5193 -0.2159
  930SOL    HW1 2789   1.763   2.268   1.561  0.1204  1.3636 -0.3772
  930SOL    HW2 2790   1.897   2.300   1.658  1.5175 -1.9812  4.8964
  931SOL     OW 2791   1.605   1.173   0.940  0.2639 -0.0024  0.9363
  931SOL    HW1 2792   1.628   1.130   1.027 -0.6229 -0.6215 -2.8833
  931SOL    HW2 2793   1.627   1.100   0.871  0.3288 -0.5034  1.4474
  932SOL     OW 2794   2.979   0.986   1.255  0.0940  0.2675 -0.1628
  932SOL    HW1 2795   2.893   0.936   1.227  0.0581  0.1325 -0.1490
  932SOL    HW2 2796   2.973   1.079   1.226 -0.0077 -1.0811  1.2943
  933SOL     OW 2797   2.600   1.619   1.641 -0.4671  0.5197  0.1785
  933SOL    HW1 2798   2.602   1.706   1.691  2.4162  0.0199 -1.3852
  933SOL    HW2 2799   2.693   1.586   1.609  2.3711 -0.0262  0.0802
  934SOL     OW 2800   1.794   0.333   1.137 -0.2798  0.2631  0.8880
  934SOL    HW1 2801   1.851   0.333   1.218  1.7228 -3.6958 -2.3362
  934SOL    HW2 2802   1.818   0.266   1.063 -1.4334  2.5486  0.9259
  935SOL     OW 2803   0.289   1.412   1.046 -0.0344  0.3051 -1.0648
  935SOL    HW1 2804   0.192   1.413   1.004 -3.1041  1.7079  0.2919
  935SOL    HW2 2805   0.312   1.312   1.072  1.4845 -2.2230  5.2072
  936SOL     OW 2806   3.052   1.007   0.860 -0.0225  0.5238 -0.1485
  936SOL    HW1 2807   2.996   1.078   0.905  3.4240  1.8730  1.7465
  936SOL    HW2 2808   0.059   1.030   0.854  0.5645  0.4673  1.7212
  937SOL     OW 2809   1.722   2.834   0.850 -0.0765  0.1617  0.2431
  937SOL    HW1 2810   1.628   2.837   0.889  0.6250 -0.1986  0.9020
  937SOL    HW2 2811   1.733   2.874   0.759 -0.3929 -0.9224 -0.7974
  938SOL     OW 2812   2.534   2.455   0.879 -0.4564  0.2475 -0.4901
  938SOL    HW1 2813   2.601   2.530   0.862 -1.0555  0.3284  0.8538
  938SOL    HW2 2814   2.436   2.484   0.884 -0.3296 -2.1433  1.4154
  939SOL     OW 2815   0.343   1.906   2.865  0.1998  0.4981  0.1856
  939SOL    HW1 2816   0.428   1.901   2.809  1.1179  0.8863  4.1035
  939SOL    HW2 2817   0.370   1.930   2.960  2.0272  1.4053  0.4337
  940SOL     OW 2818   2.934   2.789   3.042  0.5330  0.5543 -0.3446
  940SOL    HW1 2819   2.903   2.775   0.042  1.5784 -0.3701 -0.5195
  940SOL    HW2 2820   2.964   2.695   3.006 -0.1254 -0.5357  1.8565
  941SOL     OW 2821   0.946   2.641   3.080  0.1189 -0.1487 -0.1294
  941SOL    HW1 2822   0.980   2.547   3.081  1.2145  0.4695  1.8289
  941SOL    HW2 2823   0.997   2.693   3.006  1.0013 -0.0700 -0.3439
  942SOL     OW 2824   1.660   1.892   1.693  0.2231 -0.2870  0.3929
  942SOL    HW1 2825   1.686   1.916   1.787  2.0692  1.4057  0.0531
  942SOL    HW2 2826   1.714   1.808   1.662  0.0603 -2.3475 -0.0034
  943SOL     OW 2827   2.217   1.350   1.408  0.2686 -0.1027 -0.2953
  943SOL    HW1 2828   2.313   1.369   1.433 -1.4777 -0.4229 -1.1560
  943SOL    HW2 2829   2.193   1.254   1.433  0.3768 -0.8441  0.4033
  944SOL     OW 2830   1.946   0.881   1.445  0.2863 -0.2271 -1.2247
  944SOL    HW1 2831   1.924   0.867   1.346 -0.4207  0.5793  0.8274
  944SOL    HW2 2832   2.024   0.816   1.476  0.8172 -1.5108 -0.3437
  945SOL     OW 2833   3.025   2.832   0.969  0.1816  0.4275  0.2720
  945SOL    HW1 2834   3.013   2.779   0.882 -0.5310  0.9494  0.8653
  945SOL    HW2 2835   3.004   2.930   0.957 -0.7127  0.5174 -0.4779
  946SOL     OW 2836   0.368   0.686   1.880 -0.5335  0.2036  0.2045
  946SOL    HW1 2837   0.328   0.751   1.812 -1.3767  1.2585 -1.5670
  946SOL    HW2 2838   0.360   0.590   1.848 -2.7288  1.8948 -0.4780
  947SOL     OW 2839   0.523   2.733   0.634 -0.4015 -0.1777 -0.8262
  947SOL    HW1 2840   0.541   2.667   0.559 -0.4479  0.0985  0.4825
  947SOL    HW2 2841   0.448   2.691   0.690  1.0349  0.7000  1.7360
  948SOL     OW 2842   3.033   1.280   1.889  0.1290 -0.0115  0.6770
  948SOL    HW1 2843   3.068   1.315   1.804  0.8520 -0.0088  2.2219
  948SOL    HW2 2844   0.016   1.271   1.953  2.2612 -0.1611 -2.3519
  949SOL     OW 2845   0.402   1.039   2.227 -0.0971  0.3079 -0.6036
  949SOL    HW1 2846   0.400   1.000   2.319  0.8383 -1.5813 -0.6063
  949SOL    HW2 2847   0.385   0.962   2.156 -0.4469 -2.6878 -0.8853
  950SOL     OW 2848   0.978   0.698   1.278 -0.3400  0.1578 -0.8361
  950SOL    HW1 2849   0.948   0.742   1.366 -2.5349 -0.4798  1.6018
  950SOL    HW2 2850   1.014   0.760   1.210  2.7151 -0.4202  1.9160
  951SOL     OW 2851   0.964   1.991   2.001 -0.7648 -0.5126  0.5011
  951SOL    HW1 2852   1.062   1.981   2.013 -0.8591 -0.6026 -2.2520
  951SOL    HW2 2853   0.939   2.087   2.017  0.4802 -1.0669  3.3540
  952SOL     OW 2854   0.594   1.823   2.753 -0.4359  0.3371 -0.1157
  952SOL    HW1 2855   0.637   1.787   2.839  1.0122 -0.0404 -0.3043
  952SOL    HW2 2856   0.601   1.751   2.684 -0.4530 -1.3542  0.2948
  953SOL     OW 2857   1.787   2.975   2.208  0.0152  0.7444 -0.2678
  953SOL    HW1 2858   1.844   2.993   2.290  0.8201 -0.5261 -1.7423
  953SOL    HW2 2859   1.780   3.050   2.144 -0.9801 -2.1361  2.1758
  954SOL     OW 2860   1.859   1.211   0.683  0.2345 -0.6519 -0.3411
  954SOL    HW1 2861   1.917   1.293   0.704  1.2180 -0.6520  1.4807
  954SOL    HW2 2862   1.852   1.199   0.585 -0.0102 -3.3662  1.4001
  955SOL     OW 2863   0.357   2.504   2.069  0.0146  0.3365  0.5148
  955SOL    HW1 2864   0.347   2.405   2.060 -4.0542  0.2031  0.4091
  955SOL    HW2 2865   0.326   2.538   1.980 -0.2847  0.2178 -1.9091
  956SOL     OW 2866   1.532   0.908   1.380  0.2130 -0.7889 -0.2243
  956SOL    HW1 2867   1.478   0.834   1.338 -1.4813  0.3814  2.1150
  956SOL    HW2 2868   1.593   0.873   1.457  1.5932  0.9817 -0.3848
  957SOL     OW 2869   2.247   1.505   2.386  0.4125  0.0349 -0.2158
  957SOL    HW1 2870   2.279   1.525   2.292 -0.5905  0.5014  1.3604
  957SOL    HW2 2871   2.159   1.456   2.389  0.6452 -1.1232  2.5761
  958SOL     OW 2872   1.230   2.559   0.810 -0.3278 -0.1494  0.2858
  958SOL    HW1 2873   1.153   2.613   0.847  1.8042 -1.2657 -0.3515
  958SOL    HW2 2874   1.309   2.556   0.876  0.7114  0.2682 -0.1188
  959SOL     OW 2875   1.668   1.413   2.571 -0.2803  0.0378 -0.7728
  959SOL    HW1 2876   1.578   1.384   2.608 -0.2084 -0.0804  1.8290
  959SOL    HW2 2877   1.709   1.484   2.634  1.3276  2.9547  1.7579
  960SOL     OW 2878   0.382   0.325   0.053 -0.5709  0.5250  0.3085
  960SOL    HW1 2879   0.286   0.325   0.056  3.4141 -1.9376 -0.5881
  960SOL    HW2 2880   0.409   0.224   0.036 -0.1089 -1.4041 -0.3005
  961SOL     OW 2881   0.529   0.550   2.258 -0.1909 -0.5180 -0.2778
  961SOL    HW1 2882   0.601   0.477   2.269 -1.9960 -0.3456 -3.2629
  961SOL    HW2 2883   0.449   0.533   2.319  0.8317  0.7734 -1.8657
  962SOL     OW 2884   0.814   1.516   2.926  0.5543 -0.0609  0.4873
  962SOL    HW1 2885   0.869   1.432   2.943  0.9670  1.9852 -0.1015
  962SOL    HW2 2886   0.712   1.503   2.934  0.2890 -0.2045 -2.0484
  963SOL     OW 2887   1.931   1.668   3.062  0.0149 -0.0675 -0.1818
  963SOL    HW1 2888   1.955   1.619   2.973  0.0292 -1.5535 -1.7099
  963SOL    HW2 2889   1.936   1.769   3.049 -0.3549  1.4075  1.7803
  964SOL     OW 2890   1.467   2.907   0.893 -0.6305 -0.0268  0.3229
  964SOL    HW1 2891   1.438   2.872   0.806  0.3610  4.0092  1.5089
  964SOL    HW2 2892   1.385   2.910   0.954 -0.1029  1.3375 -0.1086
  965SOL     OW 2893   0.768   2.378   1.404  0.0243 -0.0850 -0.3103
  965SOL    HW1 2894   0.680   2.384   1.457 -0.5080  0.1780  1.5986
  965SOL    HW2 2895   0.752   2.341   1.311  1.6983  1.4826 -0.1031
  966SOL     OW 2896   0.034   1.723   0.026 -0.5163  0.1498  0.1994
  966SOL    HW1 2897   3.085   1.680   3.037  1.7085 -1.8555 -1.3919
  966SOL    HW2 2898   3.081   1.700   0.113  3.5931  0.2449 -0.5247
  967SOL     OW 2899   1.890   3.040   1.673 -0.2027  0.5929  0.5935
  967SOL    HW1 2900   1.865   0.018   1.603 -2.4278  1.7508  1.0718
  967SOL    HW2 2901   1.825   2.964   1.678  1.1618 -1.5578  2.3424
  968SOL     OW 2902   1.860   0.827   0.775 -0.3796  1.0039 -0.6863
  968SOL    HW1 2903   1.886   0.765   0.704 -2.4829  2.1260  1.9690
  968SOL    HW2 2904   1.941   0.842   0.835 -0.1389 -1.0485 -0.1462
  969SOL     OW 2905   0.288   1.885   1.938 -0.5319 -0.0162  0.1859
  969SOL    HW1 2906   0.390   1.887   1.935  0.5077  0.7001 -0.7287
  969SOL    HW2 2907   0.251   1.982   1.932  0.0313  1.6923 -0.5511
  970SOL     OW 2908   2.718   1.481   1.251  0.2731 -0.3601 -0.0725
  970SOL    HW1 2909   2.662   1.399   1.269  0.7659  0.8563  0.0377
  970SOL    HW2 2910   2.665   1.561   1.229  1.8794 -2.0089  1.0414
  971SOL     OW 2911   1.076   0.483   1.581 -0.1004  0.4157  0.7062
  971SOL    HW1 2912   1.069   0.457   1.678  2.0242 -2.1481 -0.9584
  971SOL    HW2 2913   1.101   0.582   1.568 -0.0328  1.6086  1.9134
  972SOL     OW 2914   0.892   0.394   2.498  0.0140  0.2241 -0.2794
  972SOL    HW1 2915   0.825   0.329   2.540 -1.2368 -2.0052 -2.0846
  972SOL    HW2 2916   0.862   0.424   2.405 -0.8062  0.6766 -0.5957
  973SOL     OW 2917   0.057   1.317   0.928  0.2098  0.1043 -0.3218
  973SOL    HW1 2918   0.006   1.261   1.000 -2.6264 -1.9277  2.0794
  973SOL    HW2 2919   3.086   1.391   0.887 -0.2404 -3.1401  2.5408
  974SOL     OW 2920   1.803   1.099   1.922 -0.5587  0.8404  0.3749
  974SOL    HW1 2921   1.831   1.198   1.895  1.1159  2.5992 -0.2431
  974SOL    HW2 2922   1.721   1.078   1.867 -1.1907  0.6085 -0.6646
  975SOL     OW 2923   2.637   0.046   0.302 -0.0422 -0.0416  0.2136
  975SOL    HW1 2924   2.590   0.007   0.221 -1.1230 -0.8699  0.8613
  975SOL    HW2 2925   2.735   0.069   0.277  1.1761  2.8042 -0.3064
  976SOL     OW 2926   0.367   1.812   1.637  0.3252  0.0789 -0.4908
  976SOL    HW1 2927   0.413   1.889   1.685 -0.3856 -2.6852 -2.9146
  976SOL    HW2 2928   0.277   1.842   1.597  2.0780  0.2568 -2.6309
  977SOL     OW 2929   0.430   2.645   0.198  0.0294  0.0638  0.0836
  977SOL    HW1 2930   0.498   2.687   0.134 -1.3469  1.2334  2.5100
  977SOL    HW2 2931   0.334   2.685   0.185  1.4437  1.1207  0.0554
  978SOL     OW 2932   0.730   1.593   0.141  0.4340  0.1372 -0.5084
  978SOL    HW1 2933   0.690   1.600   0.048 -0.0833 -1.7538 -0.4025
  978SOL    HW2 2934   0.822   1.627   0.156 -0.5489  2.0846 -0.0390
  979SOL     OW 2935   1.395   1.924   1.161 -0.1860  0.5523 -0.0574
  979SOL    HW1 2936   1.394   1.975   1.073 -1.6822 -0.8650  0.6770
  979SOL    HW2 2937   1.462   1.964   1.227 -0.6891 -0.6905  0.2679
  980SOL     OW 2938   0.651   1.407   2.148 -0.2439 -1.0796  0.2357
  980SOL    HW1 2939   0.578   1.418   2.079  4.5630 -0.0912  0.2812
  980SOL    HW2 2940   0.650   1.308   2.171  1.0098  0.1273  0.0637
  981SOL     OW 2941   3.066   1.622   0.272  0.7230  0.3808  0.2516
  981SOL    HW1 2942   0.061   1.629   0.321 -1.5860  0.2769  1.9156
  981SOL    HW2 2943   2.987   1.638   0.339 -0.1382  0.5388 -0.9539
  982SOL     OW 2944   2.352   2.406   2.897  0.2410 -0.0650 -0.4428
  982SOL    HW1 2945   2.285   2.429   2.829 -0.2787 -0.4620  3.0751
  982SOL    HW2 2946   2.429   2.469   2.903 -1.0034  1.7680 -0.4281
  983SOL     OW 2947   2.114   0.555   1.072 -0.0069 -0.6073  0.5566
  983SOL    HW1 2948   2.185   0.601   1.017  0.6128  1.6441  1.1220
  983SOL    HW2 2949   2.157   0.471   1.119  1.5105 -1.3819  1.5853
  984SOL     OW 2950   1.019   0.031   2.429 -0.1957 -0.1877  0.3991
  984SOL    HW1 2951   1.053   0.076   2.510  0.8058 -1.2020 -1.9413
  984SOL    HW2 2952   1.057   3.031   2.421 -0.5343 -0.4288 -1.9265
  985SOL     OW 2953   1.367   2.138   2.198 -0.0798 -0.4391  0.0189
  985SOL    HW1 2954   1.345   2.238   2.199 -1.7889  1.9728 -1.5778
  985SOL    HW2 2955   1.469   2.113   2.187  1.0055 -1.8662 -0.2105
  986SOL     OW 2956   1.922   3.033   2.425 -0.1321 -0.4072 -0.2669
  986SOL    HW1 2957   1.921   3.073   2.522 -0.8438 -2.1523  0.9122
  986SOL    HW2 2958   1.936   2.934   2.442 -0.1178 -1.1769  1.4111
  987SOL     OW 2959   2.570   3.019   2.053 -0.5370  0.0699 -0.6695
  987SOL    HW1 2960   2.653   3.068   2.097  2.3796  1.7595  0.0752
  987SOL    HW2 2961   2.497   2.992   2.120  1.3054 -1.3887 -1.2413
  988SOL     OW 2962   2.520   0.464   2.134  0.0009 -0.5040  0.4086
  988SOL    HW1 2963   2.510   0.438   2.232 -3.3185  0.9135  1.9207
  988SOL    HW2 2964   2.481   0.388   2.077  0.9189  2.6320  0.0646
  989SOL     OW 2965   2.130   2.421   2.586  0.0565 -0.2238  0.0356
  989SOL    HW1 2966   2.170   2.484   2.517 -1.8153 -2.4813 -0.6980
  989SOL    HW2 2967   2.157   2.326   2.567 -2.2276 -0.1128 -1.0330
  990SOL     OW 2968   0.192   1.066   2.970  0.0068 -0.1191  0.0430
  990SOL    HW1 2969   0.150   0.971   2.975 -1.1721 -2.5548  0.7721
  990SOL    HW2 2970   0.271   1.060   2.908 -1.1183 -0.5778  1.1291
  991SOL     OW 2971   0.597   1.148   2.600  0.3137 -0.4453  0.3302
  991SOL    HW1 2972   0.536   1.114   2.527 -1.2007  1.7277  0.0513
  991SOL    HW2 2973   0.669   1.082   2.630  1.2747  2.4294  0.1626
  992SOL     OW 2974   0.132   1.663   1.955  0.1512 -0.0225  0.2216
  992SOL    HW1 2975   0.207   1.727   1.937 -0.1582  0.9088  1.3260
  992SOL    HW2 2976   0.081   1.634   1.873  0.4980 -1.8958  0.6877
  993SOL     OW 2977   0.843   0.168   0.681  0.1502 -0.1515  0.2357
  993SOL    HW1 2978   0.853   0.269   0.675 -0.3477 -0.1488  0.3733
  993SOL    HW2 2979   0.841   0.135   0.583 -1.6710  0.0777 -1.1502
  994SOL     OW 2980   0.537   2.016   1.474 -0.0406 -0.2616  0.2596
  994SOL    HW1 2981   0.481   1.935   1.449 -0.2734  1.6763  0.2053
  994SOL    HW2 2982   0.596   2.047   1.399 -0.6620  0.3575  1.7654
  995SOL     OW 2983   2.245   1.694   2.751 -0.5321  0.0205  0.3011
  995SOL    HW1 2984   2.288   1.601   2.733  1.1453 -1.7518 -1.0477
  995SOL    HW2 2985   2.258   1.726   2.848  1.8682 -0.6753  2.7937
  996SOL     OW 2986   2.026   1.646   2.565  0.6526  0.5358  0.0499
  996SOL    HW1 2987   1.960   1.610   2.636 -1.7529 -0.0794  2.9743
  996SOL    HW2 2988   2.112   1.665   2.613 -3.5355 -1.5584  1.0487
  997SOL     OW 2989   1.847   1.360   1.867  0.3309 -0.2733 -0.6095
  997SOL    HW1 2990   1.918   1.422   1.825  1.0808  2.7216  0.4699
  997SOL    HW2 2991   1.749   1.387   1.866 -3.0767  0.1845  0.6207
  998SOL     OW 2992   2.284   2.016   1.070 -0.3417 -0.6352 -0.3900
  998SOL    HW1 2993   2.274   2.029   1.169 -0.1908 -0.1992  1.2588
  998SOL    HW2 2994   2.236   1.929   1.050  1.0275 -2.2507 -0.7373
  999SOL     OW 2995   2.328   2.541   0.151 -0.0249  0.0782 -0.6232
  999SOL    HW1 2996   2.365   2.631   0.191 -0.7084  0.5006  1.4612
  999SOL    HW2 2997   2.390   2.466   0.170 -0.0044  1.9490  0.1405
 1000SOL     OW 2998   0.735   2.999   2.379 -0.3704  0.4785  0.2048
 1000SOL    HW1 2999   0.651   3.062   2.390 -1.2546  2.8798  0.3684
 1000SOL    HW2 3000   0.825   3.041   2.417  1.3533  0.9753  0.2688
   3.09305   3.09305   3.09305
