1000 SPC/Fw water molecules t= 328.00000 step= 328000
 3000
    1SOL     OW    1   2.344   0.203   1.217  0.1238  0.3063  0.0213
    1SOL    HW1    2   2.313   0.125   1.274  0.1828 -0.4999 -0.7841
    1SOL    HW2    3   2.435   0.179   1.180 -3.5029  0.1215  1.4075
    2SOL     OW    4   2.752   2.466   0.834 -0.2868 -0.2812  0.0388
    2SOL    HW1    5   2.665   2.422   0.817  2.1581  0.7762  3.6322
    2SOL    HW2    6   2.799   2.425   0.915  3.2069  0.4237  3.6051
    3SOL     OW    7   1.012   0.135   3.090  0.0374 -0.0688 -0.4563
    3SOL    HW1    8   1.051   0.042   3.109  1.6276 -1.9921  1.8274
    3SOL    HW2    9   0.917   0.150   0.014  1.6789 -0.7943  2.6354
    4SOL     OW   10   1.893   2.625   2.156  0.4023 -0.2684  0.0787
    4SOL    HW1   11   1.946   2.670   2.082 -0.1277 -2.3836 -0.7667
    4SOL    HW2   12   1.885   2.525   2.148  2.2857  2.3229  0.0489
    5SOL     OW   13   1.811   0.853   1.845 -0.3487 -0.1362  0.1631
    5SOL    HW1   14   1.727   0.908   1.855  0.4940 -1.8506  0.2624
    5SOL    HW2   15   1.817   0.808   1.752  2.1242  0.1159 -1.6361
    6SOL     OW   16   1.976   2.634   0.825 -0.1753  0.2105  0.0010
    6SOL    HW1   17   1.947   2.554   0.770  1.8575  3.7407  2.5913
    6SOL    HW2   18   2.012   2.607   0.915  0.3202 -0.8402 -2.7551
    7SOL     OW   19   2.353   1.536   1.115  0.1104  0.3282  0.2651
    7SOL    HW1   20   2.429   1.529   1.178  0.0274  0.1753  0.3803
    7SOL    HW2   21   2.277   1.497   1.168  3.3354 -3.1619  0.1047
    8SOL     OW   22   0.695   1.785   1.497 -0.1417 -0.4853 -0.1101
    8SOL    HW1   23   0.702   1.692   1.529 -1.1585  1.5759 -0.7932
    8SOL    HW2   24   0.679   1.787   1.392 -0.4402  0.5229 -3.0783
    9SOL     OW   25   1.379   2.656   2.274  0.0135  0.4879 -0.4238
    9SOL    HW1   26   1.335   2.583   2.329 -3.3938 -3.6721  0.0990
    9SOL    HW2   27   1.312   2.675   2.197 -1.8809 -1.2726  0.8230
   10SOL     OW   28   0.360   1.949   0.915  0.7217 -0.0043  0.0814
   10SOL    HW1   29   0.420   1.943   0.998  0.9104 -0.7971  0.9998
   10SOL    HW2   30   0.336   2.044   0.889  0.1934 -1.9448 -3.2484
   11SOL     OW   31   1.713   1.835   0.942 -0.3769  0.1517  0.2571
   11SOL    HW1   32   1.775   1.768   0.996 -0.6146 -1.3182  0.1194
   11SOL    HW2   33   1.634   1.867   1.004 -1.8913  0.0828 -2.3014
   12SOL     OW   34   2.619   2.717   1.839 -0.6794 -0.5965  0.4423
   12SOL    HW1   35   2.581   2.622   1.834 -2.2743  1.7414 -0.4544
   12SOL    HW2   36   2.713   2.721   1.801  1.2019 -0.8628 -1.4401
   13SOL     OW   37   2.543   2.977   0.444 -0.4696 -0.3131  0.2806
   13SOL    HW1   38   2.448   3.002   0.410  0.5269  0.5907  1.7513
   13SOL    HW2   39   2.545   2.984   0.547 -2.0738  0.0087  3.1552
   14SOL     OW   40   1.557   1.911   0.001  0.7023 -0.1067 -0.2887
   14SOL    HW1   41   1.586   1.931   0.099  0.5521  0.3595 -1.0616
   14SOL    HW2   42   1.616   1.840   3.064  0.3930 -2.6648 -1.9746
   15SOL     OW   43   2.851   2.497   1.498  0.0398 -0.3867 -0.1967
   15SOL    HW1   44   2.862   2.529   1.596 -1.0533  1.8621 -0.2168
   15SOL    HW2   45   2.841   2.582   1.441  0.6347  0.0867 -0.5492
   16SOL     OW   46   2.656   0.007   0.245  0.2233 -0.3084 -0.6480
   16SOL    HW1   47   2.626   3.051   0.314  2.6298 -4.1540 -1.8725
   16SOL    HW2   48   2.757   0.006   0.241 -0.0705  0.3321 -1.6153
   17SOL     OW   49   0.155   0.297   1.314 -0.5074 -0.1563  0.0221
   17SOL    HW1   50   0.250   0.270   1.291  1.0047 -0.1438  0.0132
   17SOL    HW2   51   0.091   0.220   1.329  1.1937  0.5432  2.3915
   18SOL     OW   52   2.096   0.846   0.382  0.9387  0.2756 -0.5382
   18SOL    HW1   53   2.194   0.839   0.360 -0.2404 -0.3895 -1.7722
   18SOL    HW2   54   2.072   0.906   0.460 -2.7266  2.6055  1.9543
   19SOL     OW   55   1.546   1.806   0.463  0.0804  0.4210 -0.1084
   19SOL    HW1   56   1.558   1.708   0.490  2.2203  1.5119 -0.3670
   19SOL    HW2   57   1.606   1.825   0.382  1.9443 -2.8462 -0.5720
   20SOL     OW   58   2.457   2.081   2.174  0.1738 -0.2147  0.3316
   20SOL    HW1   59   2.477   1.989   2.213  0.1047 -3.0006 -0.8941
   20SOL    HW2   60   2.465   2.158   2.239  1.9511  0.9079 -0.1624
   21SOL     OW   61   1.804   0.103   0.635  0.8245 -0.5727 -0.3060
   21SOL    HW1   62   1.786   0.026   0.701  0.4156 -0.9672 -0.4030
   21SOL    HW2   63   1.806   0.071   0.538  1.9299  0.6715  0.4022
   22SOL     OW   64   2.654   0.252   1.497 -0.1063 -0.2781 -0.5218
   22SOL    HW1   65   2.696   0.334   1.537  2.0302 -1.8353  2.2820
   22SOL    HW2   66   2.552   0.256   1.514  1.3403  1.2726 -0.4967
   23SOL     OW   67   0.328   0.409   1.699 -0.4395 -0.1079  0.6855
   23SOL    HW1   68   0.273   0.448   1.775  0.2543 -1.5606 -0.3609
   23SOL    HW2   69   0.307   0.454   1.608  1.2990 -0.6175 -0.6239
   24SOL     OW   70   2.461   2.721   0.387 -0.0725  0.2479 -0.4593
   24SOL    HW1   71   2.511   2.660   0.446 -2.5430  2.8879 -3.3002
   24SOL    HW2   72   2.482   2.818   0.409  3.4254 -4.0871 -0.0347
   25SOL     OW   73   1.399   2.882   2.531 -0.2122  0.2985  0.1790
   25SOL    HW1   74   1.459   2.805   2.500  0.7473  0.4090 -1.7433
   25SOL    HW2   75   1.429   2.934   2.612 -1.4946  0.7192  1.0849
   26SOL     OW   76   1.378   2.281   0.253  0.8986 -0.9175  0.7913
   26SOL    HW1   77   1.473   2.261   0.278  1.3765  0.1111 -1.7120
   26SOL    HW2   78   1.373   2.298   0.155  3.8393 -1.5347 -0.0441
   27SOL     OW   79   2.361   1.068   2.794  0.1802  0.4035  0.5064
   27SOL    HW1   80   2.308   1.150   2.825 -0.6462  1.3795  2.5781
   27SOL    HW2   81   2.440   1.101   2.741  1.4568 -1.3390 -1.8649
   28SOL     OW   82   1.091   1.493   1.148 -0.1259 -0.1199 -0.0585
   28SOL    HW1   83   1.127   1.454   1.236 -1.2121  3.2178  1.7165
   28SOL    HW2   84   1.002   1.451   1.124 -0.3614  0.3686  3.7175
   29SOL     OW   85   3.031   2.606   1.841 -0.2099  0.8009  0.4160
   29SOL    HW1   86   0.003   2.668   1.850  1.6221 -2.3412 -2.4061
   29SOL    HW2   87   3.065   2.506   1.851  1.0211 -1.8176 -1.5115
   30SOL     OW   88   1.414   3.032   1.236 -0.2522 -0.6544  0.3165
   30SOL    HW1   89   1.363   3.068   1.158  0.5763  1.5376  1.0685
   30SOL    HW2   90   1.469   3.103   1.280 -3.6134 -1.4489  1.0601
   31SOL     OW   91   2.170   2.979   2.056 -0.2767 -0.0667 -0.1442
   31SOL    HW1   92   2.179   2.960   2.158  2.8152  1.7926 -0.7954
   31SOL    HW2   93   2.184   3.077   2.031 -0.3148 -0.2405  1.9737
   32SOL     OW   94   0.944   1.654   0.425  0.0745  0.4664 -0.3667
   32SOL    HW1   95   1.033   1.641   0.474 -1.0721  2.3873  0.2981
   32SOL    HW2   96   0.877   1.662   0.500  3.7305 -0.9816 -0.5500
   33SOL     OW   97   0.392   0.856   2.461 -0.1934  0.0748 -0.6049
   33SOL    HW1   98   0.365   0.791   2.531 -0.2407 -1.1806  1.8307
   33SOL    HW2   99   0.326   0.862   2.383 -1.7501  1.4955  0.7343
   34SOL     OW  100   2.309   3.051   0.386 -0.1002  0.2458  0.2613
   34SOL    HW1  101   2.232   3.035   0.451 -0.2709 -0.4823  0.2802
   34SOL    HW2  102   2.299   0.035   0.345 -0.1061  3.6633 -0.4098
   35SOL     OW  103   2.000   2.591   1.742  0.2710 -0.0770  0.2254
   35SOL    HW1  104   1.916   2.647   1.754  0.2756  0.0144 -0.6892
   35SOL    HW2  105   1.980   2.508   1.793 -2.3997  2.5884 -0.1013
   36SOL     OW  106   1.818   2.220   0.031  0.4485 -0.5019  0.0073
   36SOL    HW1  107   1.795   2.243   3.045  3.3090 -1.4778 -2.1438
   36SOL    HW2  108   1.874   2.136   0.038  0.6371 -0.0149  0.4145
   37SOL     OW  109   1.411   0.448   2.354  0.3682 -0.5710 -0.2302
   37SOL    HW1  110   1.357   0.531   2.378 -0.3058 -1.1753  0.3406
   37SOL    HW2  111   1.361   0.363   2.381 -0.1754 -2.0174  0.5206
   38SOL     OW  112   0.318   0.449   2.815  0.2739  0.2643  0.1499
   38SOL    HW1  113   0.365   0.530   2.767  1.5364  1.9118 -1.6183
   38SOL    HW2  114   0.355   0.360   2.784 -1.6687  0.2114  2.8700
   39SOL     OW  115   2.178   1.475   1.854  0.4678 -0.6812 -0.2081
   39SOL    HW1  116   2.228   1.529   1.782  0.7233 -1.8362  0.5521
   39SOL    HW2  117   2.123   1.541   1.909  0.3708  0.4755  0.2122
   40SOL     OW  118   1.337   2.662   0.279 -0.1375 -0.1227 -0.3487
   40SOL    HW1  119   1.297   2.591   0.339 -1.6799  0.8417 -0.0818
   40SOL    HW2  120   1.286   2.674   0.194 -1.5834 -0.5394 -1.0286
   41SOL     OW  121   2.295   1.576   0.862 -0.0591 -0.3875 -0.5075
   41SOL    HW1  122   2.305   1.573   0.966 -0.1689  2.7980  2.3145
   41SOL    HW2  123   2.371   1.632   0.835 -1.4842 -0.5732 -0.8670
   42SOL     OW  124   0.615   0.162   1.453  0.3496 -0.1656 -0.4486
   42SOL    HW1  125   0.604   0.207   1.542  2.6975 -3.4236 -0.5958
   42SOL    HW2  126   0.619   0.064   1.474 -0.1028 -0.1807  0.7331
   43SOL     OW  127   0.171   1.451   2.386 -0.5175 -0.3456 -0.2264
   43SOL    HW1  128   0.192   1.475   2.483  2.3497 -0.8588  0.9129
   43SOL    HW2  129   0.245   1.478   2.319  2.5169  0.5493 -3.9221
   44SOL     OW  130   2.410   2.975   1.624  0.2692 -0.1444  0.3819
   44SOL    HW1  131   2.412   3.055   1.686 -0.9572 -1.4888 -1.7482
   44SOL    HW2  132   2.366   2.898   1.672 -1.7895 -1.9735  0.5192
   45SOL     OW  133   1.301   3.108   2.184 -0.6192 -0.0106 -0.0185
   45SOL    HW1  134   1.340   0.038   2.104 -0.5966 -0.5592  4.0950
   45SOL    HW2  135   1.367   3.035   2.217  0.9674  2.6579 -0.9746
   46SOL     OW  136   1.065   2.621   2.552  0.0825  1.1734  0.5499
   46SOL    HW1  137   1.117   2.700   2.514 -0.8898  0.6897  1.8511
   46SOL    HW2  138   0.967   2.630   2.526 -0.5465  1.6664 -0.1141
   47SOL     OW  139   1.824   1.527   0.681 -0.0621 -0.0630 -0.8720
   47SOL    HW1  140   1.862   1.600   0.744  1.6774 -1.2845  0.1605
   47SOL    HW2  141   1.893   1.518   0.605  1.0267 -0.0898  0.6246
   48SOL     OW  142   1.124   2.093   0.662 -0.4347  0.8634 -0.3651
   48SOL    HW1  143   1.146   2.092   0.566 -2.7479 -1.4606  3.1790
   48SOL    HW2  144   1.085   2.000   0.686 -0.0244 -0.8706 -1.3187
   49SOL     OW  145   2.179   0.174   2.773 -0.4383 -0.8179  0.3537
   49SOL    HW1  146   2.104   0.117   2.732  1.0139  2.8381  0.0610
   49SOL    HW2  147   2.265   0.148   2.726  0.9485 -1.9380  0.3255
   50SOL     OW  148   1.845   2.940   0.113  0.0577  0.1433 -0.0235
   50SOL    HW1  149   1.879   3.013   0.045  1.2150  0.3559 -0.5803
   50SOL    HW2  150   1.922   2.892   0.153 -1.6312 -0.4047  0.0234
   51SOL     OW  151   2.113   0.783   1.182 -0.1451  0.2408 -0.1573
   51SOL    HW1  152   2.145   0.780   1.278 -0.4107  0.8932  1.2197
   51SOL    HW2  153   2.063   0.870   1.162  2.3740  1.1499  0.7472
   52SOL     OW  154   0.961   1.640   0.861 -0.3529  0.0403 -0.4920
   52SOL    HW1  155   1.058   1.618   0.879  0.7213  0.0594  0.1230
   52SOL    HW2  156   0.905   1.593   0.926  0.1248  0.7528 -0.6308
   53SOL     OW  157   0.537   1.596   2.465 -0.1656 -0.0651 -0.1612
   53SOL    HW1  158   0.497   1.689   2.478  0.0156  1.3012 -2.3562
   53SOL    HW2  159   0.513   1.533   2.541 -2.7540  4.6309  0.9894
   54SOL     OW  160   2.756   1.301   1.692  0.3206 -0.5105  0.1029
   54SOL    HW1  161   2.789   1.202   1.700  1.6718 -4.4239  2.3293
   54SOL    HW2  162   2.787   1.365   1.768  3.6106 -0.4476  0.5885
   55SOL     OW  163   2.397   1.911   0.396 -0.4120 -0.3121  0.5237
   55SOL    HW1  164   2.370   1.812   0.400 -2.7816  0.6061  2.2808
   55SOL    HW2  165   2.325   1.969   0.436  2.6159  0.7424  0.4961
   56SOL     OW  166   1.480   0.262   1.636  0.2441 -0.1111  0.5969
   56SOL    HW1  167   1.471   0.364   1.603 -2.1414  3.5249 -2.7855
   56SOL    HW2  168   1.469   0.255   1.741  2.3099  3.1159  2.2107
   57SOL     OW  169   1.443   1.322   2.686 -0.7062 -0.0704 -0.4761
   57SOL    HW1  170   1.517   1.376   2.637  1.7287 -1.6185 -0.8024
   57SOL    HW2  171   1.415   1.239   2.634 -0.9594 -0.3731  1.0606
   58SOL     OW  172   0.085   0.552   1.526 -0.0882 -0.3104 -0.1456
   58SOL    HW1  173   0.171   0.546   1.470 -0.0614 -1.8069  3.2517
   58SOL    HW2  174   0.065   0.650   1.555  0.6979  1.0728  2.5236
   59SOL     OW  175   1.596   2.577   0.290  0.0772  0.3677 -0.2240
   59SOL    HW1  176   1.623   2.509   0.214  1.4976 -3.6989  0.2624
   59SOL    HW2  177   1.504   2.618   0.275 -0.8471  0.2786 -0.4471
   60SOL     OW  178   0.001   1.807   3.078 -0.9334 -0.0057  0.6059
   60SOL    HW1  179   3.067   1.875   0.028  1.4649 -0.1842  0.6292
   60SOL    HW2  180   3.049   1.733   3.044  0.7131  1.2736  0.9115
   61SOL     OW  181   0.868   2.540   0.780 -0.6080  0.3913  0.6517
   61SOL    HW1  182   0.829   2.524   0.868 -0.5841  0.8037 -2.1553
   61SOL    HW2  183   0.894   2.460   0.727 -1.0397  4.2277  0.7197
   62SOL     OW  184   1.864   1.423   2.494  0.3066 -0.2500 -0.7059
   62SOL    HW1  185   1.943   1.369   2.455 -1.0346 -0.5147 -1.9530
   62SOL    HW2  186   1.907   1.513   2.529 -0.5253  3.0711 -0.4125
   63SOL     OW  187   2.139   2.255   0.321  0.3686  1.1713  0.0936
   63SOL    HW1  188   2.189   2.277   0.408 -0.3349  0.3293 -0.4307
   63SOL    HW2  189   2.054   2.209   0.349 -1.3306  3.5810 -2.2920
   64SOL     OW  190   1.789   1.142   3.059 -0.2394  0.3520  0.9373
   64SOL    HW1  191   1.730   1.131   0.029 -1.3420  1.0035 -1.3272
   64SOL    HW2  192   1.873   1.082   3.054  0.3991  1.8138 -0.4291
   65SOL     OW  193   1.936   1.839   2.332  0.7208 -0.2957 -0.3466
   65SOL    HW1  194   1.970   1.749   2.296 -0.7222  1.4782 -1.3255
   65SOL    HW2  195   1.951   1.911   2.258  0.8336  1.9858 -3.2759
   66SOL     OW  196   0.427   0.998   1.204  0.3730 -0.5921  0.7299
   66SOL    HW1  197   0.526   0.972   1.184  3.2487 -0.4252  0.2656
   66SOL    HW2  198   0.421   1.071   1.275  1.4362 -0.2962 -1.7718
   67SOL     OW  199   2.279   2.891   2.733  0.0455  0.2666 -0.0636
   67SOL    HW1  200   2.234   2.978   2.741 -0.7957 -0.1025 -1.4078
   67SOL    HW2  201   2.297   2.856   2.643  0.8518  0.0272 -0.1477
   68SOL     OW  202   1.274   2.332   1.498 -0.0540 -0.1315 -0.1392
   68SOL    HW1  203   1.284   2.226   1.497  1.7494  0.5143  0.3654
   68SOL    HW2  204   1.358   2.374   1.461 -1.8689  0.2351 -0.1105
   69SOL     OW  205   0.654   2.558   0.061  0.3401  0.1223 -0.4664
   69SOL    HW1  206   0.740   2.504   0.074  1.4038 -0.9007  1.2972
   69SOL    HW2  207   0.579   2.496   0.095 -0.1017 -1.2475  0.9994
   70SOL     OW  208   2.865   0.492   2.456  0.2688 -0.0762  0.7282
   70SOL    HW1  209   2.842   0.443   2.369 -0.1438 -1.3606 -2.6481
   70SOL    HW2  210   2.926   0.572   2.443 -0.7360  1.1675 -0.0628
   71SOL     OW  211   0.503   1.372   2.639 -0.2330  0.2261  0.4006
   71SOL    HW1  212   0.570   1.341   2.570 -3.8500 -1.5142 -0.1758
   71SOL    HW2  213   0.531   1.327   2.730  4.2104  0.0860 -0.9599
   72SOL     OW  214   0.146   1.849   2.408 -0.3532 -0.1326  0.0104
   72SOL    HW1  215   0.191   1.835   2.319  0.6617  1.7644  0.9714
   72SOL    HW2  216   0.113   1.944   2.411  0.0386 -0.9716 -0.0238
   73SOL     OW  217   1.592   1.484   0.237 -0.0645 -0.3336  0.1731
   73SOL    HW1  218   1.591   1.484   0.339 -0.7969  1.2477  0.0549
   73SOL    HW2  219   1.513   1.545   0.208  0.3047 -0.7953  0.8159
   74SOL     OW  220   2.208   2.657   2.861  0.3294 -0.0280 -0.6154
   74SOL    HW1  221   2.231   2.739   2.803  1.2655 -1.0798  1.3260
   74SOL    HW2  222   2.154   2.697   2.935  0.6258  1.8140  0.3619
   75SOL     OW  223   2.087   2.171   0.950 -0.1532 -0.4635  0.6778
   75SOL    HW1  224   2.044   2.104   1.013  0.4128 -0.8057  1.7541
   75SOL    HW2  225   2.183   2.150   0.937 -2.7921  2.5299  1.3694
   76SOL     OW  226   2.173   2.234   2.052 -0.6083  0.0360 -0.5967
   76SOL    HW1  227   2.270   2.209   2.078  3.8890 -2.2584  1.8239
   76SOL    HW2  228   2.154   2.331   2.070 -1.4660 -2.4440  2.0873
   77SOL     OW  229   2.626   0.184   2.300  0.1779  0.0033 -0.3207
   77SOL    HW1  230   2.600   0.125   2.226  1.4701  3.1241  2.0495
   77SOL    HW2  231   2.666   0.131   2.380  0.7406 -1.2337 -0.5659
   78SOL     OW  232   2.044   1.034   2.957 -0.0116 -0.3989  0.7880
   78SOL    HW1  233   2.104   1.033   3.037 -1.0072 -0.1722 -1.4114
   78SOL    HW2  234   2.032   0.944   2.906  1.7616 -3.2572  0.4789
   79SOL     OW  235   2.806   1.464   2.530  0.4163  0.3065 -0.1309
   79SOL    HW1  236   2.852   1.397   2.467  2.3102 -1.0207 -1.1901
   79SOL    HW2  237   2.808   1.560   2.504 -0.3647  0.1070  0.7726
   80SOL     OW  238   1.589   1.706   1.527 -0.6644 -0.3181 -0.5342
   80SOL    HW1  239   1.521   1.701   1.603 -1.9172 -0.7079 -0.8288
   80SOL    HW2  240   1.683   1.668   1.551  0.0958  0.2260 -1.4033
   81SOL     OW  241   1.910   0.632   1.958  0.2303  0.0166 -0.8535
   81SOL    HW1  242   1.991   0.608   2.017  0.3510 -1.4203  1.5035
   81SOL    HW2  243   1.884   0.733   1.950 -0.9444  2.7655 -0.7528
   82SOL     OW  244   1.730   1.983   1.626  0.1887 -0.0154 -0.0086
   82SOL    HW1  245   1.772   1.943   1.541 -0.7641 -0.2183 -0.8529
   82SOL    HW2  246   1.797   2.002   1.701  1.6613  1.4931 -1.1485
   83SOL     OW  247   2.922   0.040   0.165 -0.2676 -0.1912  0.0403
   83SOL    HW1  248   2.974   0.051   0.252 -0.4852 -0.0982 -0.8844
   83SOL    HW2  249   2.900   0.127   0.121 -1.5621 -0.7206  0.2033
   84SOL     OW  250   0.551   1.093   0.148 -0.2335  0.1436 -0.2000
   84SOL    HW1  251   0.556   1.003   0.101  1.9531 -0.4182  1.2081
   84SOL    HW2  252   0.546   1.079   0.248 -1.2899 -0.8290  0.1781
   85SOL     OW  253   2.710   2.141   1.431 -0.6625 -0.0527 -0.5520
   85SOL    HW1  254   2.660   2.055   1.412  3.6518  2.1728  0.1030
   85SOL    HW2  255   2.676   2.206   1.362 -1.4866 -1.6688  0.3315
   86SOL     OW  256   0.521   2.643   1.425 -0.3985 -0.5080 -0.2163
   86SOL    HW1  257   0.528   2.648   1.323 -0.5951 -1.6433  2.0148
   86SOL    HW2  258   0.484   2.725   1.473 -0.1871  2.2771  2.7872
   87SOL     OW  259   0.474   2.536   2.436  0.1627  0.5148  0.0930
   87SOL    HW1  260   0.520   2.480   2.368 -0.0709  1.7845 -1.1470
   87SOL    HW2  261   0.462   2.474   2.518  2.1993 -4.0521  1.8724
   88SOL     OW  262   0.240   2.273   0.489  0.5218 -0.0920 -0.2983
   88SOL    HW1  263   0.278   2.201   0.548 -3.8198  0.1499  0.9241
   88SOL    HW2  264   0.315   2.329   0.445  1.4104 -0.9702  0.0450
   89SOL     OW  265   0.896   0.532   1.223 -0.0442 -0.1583 -0.1772
   89SOL    HW1  266   1.000   0.517   1.229  1.1043 -0.2754  0.9272
   89SOL    HW2  267   0.843   0.447   1.229 -0.5352 -1.9560 -0.6775
   90SOL     OW  268   0.152   1.021   1.717 -0.1421  0.3475  0.4350
   90SOL    HW1  269   0.139   1.080   1.632 -0.3407  0.0826 -2.9537
   90SOL    HW2  270   0.250   1.031   1.749  0.4573  0.4697  2.0036
   91SOL     OW  271   1.187   0.935   0.966  0.3399 -0.1484 -0.0481
   91SOL    HW1  272   1.271   0.973   1.006 -1.2831 -0.0587  1.7425
   91SOL    HW2  273   1.191   0.836   0.949  3.4363 -0.3298  0.8340
   92SOL     OW  274   1.931   1.142   0.929 -0.4663  0.1699 -0.0987
   92SOL    HW1  275   1.989   1.061   0.907  0.3929  0.8107 -0.7827
   92SOL    HW2  276   1.895   1.184   0.845  1.2082  2.8270  1.9436
   93SOL     OW  277   2.449   0.798   2.441 -0.3150 -0.4009  0.0375
   93SOL    HW1  278   2.530   0.743   2.410 -1.1651  0.1451 -1.1128
   93SOL    HW2  279   2.396   0.741   2.504 -3.7310  0.7170 -2.7020
   94SOL     OW  280   2.361   1.829   2.411  0.2585  0.4878  0.4085
   94SOL    HW1  281   2.301   1.910   2.431  1.0819  2.0835  1.2602
   94SOL    HW2  282   2.394   1.791   2.498  0.1805  0.1144 -1.0586
   95SOL     OW  283   2.702   0.838   1.127 -0.1166 -0.4350  0.1530
   95SOL    HW1  284   2.731   0.861   1.030  2.4740 -0.6535  2.2337
   95SOL    HW2  285   2.637   0.760   1.127 -3.9402 -1.0871 -1.4369
   96SOL     OW  286   2.595   2.790   1.537 -0.6788 -0.5328  0.1636
   96SOL    HW1  287   2.533   2.866   1.551  0.7532  0.1007  1.7896
   96SOL    HW2  288   2.655   2.792   1.621 -0.1208 -1.0742  1.8920
   97SOL     OW  289   2.523   1.071   1.307 -0.5691  0.3774  0.0441
   97SOL    HW1  290   2.607   1.038   1.260  2.8698 -3.5126  0.8574
   97SOL    HW2  291   2.555   1.141   1.374 -1.8802  0.2386  1.5801
   98SOL     OW  292   1.491   2.246   1.880 -0.4054 -0.2891 -0.2520
   98SOL    HW1  293   1.491   2.182   1.801  2.9963  1.9124  1.8073
   98SOL    HW2  294   1.424   2.318   1.862  0.8947 -1.1216 -2.3095
   99SOL     OW  295   0.502   2.401   1.550 -0.6253  0.3482  0.0356
   99SOL    HW1  296   0.559   2.335   1.495 -1.6650  0.0070  2.0033
   99SOL    HW2  297   0.497   2.489   1.501  0.2163 -2.5909  2.5243
  100SOL     OW  298   1.325   0.439   3.097  0.0123  0.0374 -0.4809
  100SOL    HW1  299   1.325   0.534   0.020  0.7330 -3.2322 -0.6426
  100SOL    HW2  300   1.408   0.421   3.039  0.0078  0.7242 -1.0861
  101SOL     OW  301   2.451   0.079   2.694  0.1144  0.0808  0.5034
  101SOL    HW1  302   2.478   0.005   2.630 -2.6870 -1.7558  0.3276
  101SOL    HW2  303   2.457   0.173   2.656 -1.6139 -1.7520  1.8908
  102SOL     OW  304   0.344   0.531   1.446 -0.2732 -0.1748 -0.1063
  102SOL    HW1  305   0.391   0.451   1.411 -0.2312  2.0336 -0.3722
  102SOL    HW2  306   0.394   0.616   1.420 -4.6407  0.0679  1.8574
  103SOL     OW  307   0.392   0.680   2.683 -0.0306  0.8093 -0.0597
  103SOL    HW1  308   0.335   0.723   2.759  0.1622 -2.8348 -0.9589
  103SOL    HW2  309   0.492   0.710   2.678 -0.7486 -1.3014 -0.4018
  104SOL     OW  310   0.757   0.579   2.519 -0.8340  0.5126  0.0334
  104SOL    HW1  311   0.738   0.534   2.430  1.9125  2.3144  1.6089
  104SOL    HW2  312   0.751   0.511   2.597 -0.7764 -1.9228  1.5280
  105SOL     OW  313   1.971   2.071   1.763 -0.0152 -0.0998 -0.3889
  105SOL    HW1  314   2.045   2.028   1.822  0.3288 -1.7749 -2.0038
  105SOL    HW2  315   2.007   2.147   1.708 -2.9280 -1.4121  1.9381
  106SOL     OW  316   2.081   3.043   0.531  0.1696 -0.5775  0.3872
  106SOL    HW1  317   2.016   2.961   0.513  0.7553 -2.3285 -2.2905
  106SOL    HW2  318   2.053   0.020   0.490  2.4610 -2.2379  0.6828
  107SOL     OW  319   2.779   2.036   1.119  0.3685  0.4680 -0.0901
  107SOL    HW1  320   2.726   2.123   1.103 -0.2685 -1.0762  0.7281
  107SOL    HW2  321   2.878   2.056   1.107 -2.2067  1.0364 -2.3393
  108SOL     OW  322   2.757   2.709   1.333 -0.1144 -0.2580  0.5036
  108SOL    HW1  323   2.689   2.740   1.403  0.2472 -1.8130  0.4300
  108SOL    HW2  324   2.832   2.780   1.324 -0.3200  4.8353 -1.4912
  109SOL     OW  325   1.985   2.639   1.116  0.3445 -0.0502  0.2491
  109SOL    HW1  326   1.967   2.620   1.213 -0.8403  0.4420 -2.8540
  109SOL    HW2  327   2.070   2.691   1.101 -2.9152  0.5495  0.7833
  110SOL     OW  328   0.804   1.664   2.338 -0.6334 -0.1271  0.4248
  110SOL    HW1  329   0.713   1.642   2.373  0.4707  0.6482 -0.2805
  110SOL    HW2  330   0.828   1.761   2.331  0.0843 -0.5055  2.9297
  111SOL     OW  331   1.710   2.576   2.425 -0.0739 -0.2316 -0.3858
  111SOL    HW1  332   1.796   2.626   2.427  2.5080 -0.4857 -1.9957
  111SOL    HW2  333   1.674   2.575   2.330 -1.4939  0.8074 -1.6026
  112SOL     OW  334   1.969   1.606   2.641  0.4730  0.0338  0.2100
  112SOL    HW1  335   2.057   1.564   2.666 -1.7268  1.0315  0.3925
  112SOL    HW2  336   1.987   1.708   2.624  0.4202 -0.5176  0.6115
  113SOL     OW  337   1.481   2.053   1.690 -0.8029 -0.0798 -0.4133
  113SOL    HW1  338   1.422   2.013   1.760  2.5843 -3.3853 -2.8268
  113SOL    HW2  339   1.571   2.003   1.683 -1.9699  1.5424  1.3225
  114SOL     OW  340   3.056   0.921   0.834  0.2250  0.9120  0.3187
  114SOL    HW1  341   3.055   0.827   0.791  0.5634  0.9380  0.8147
  114SOL    HW2  342   3.051   0.916   0.936 -0.6362  3.1942  1.7315
  115SOL     OW  343   0.811   0.569   0.390  0.0378 -0.0754  0.1590
  115SOL    HW1  344   0.787   0.502   0.459  3.4461 -1.5862  1.3657
  115SOL    HW2  345   0.740   0.579   0.314 -2.3702  3.1499 -1.4280
  116SOL     OW  346   2.860   1.714   2.444  0.4221  0.1258 -0.4153
  116SOL    HW1  347   2.815   1.787   2.502 -3.4686  0.6547  2.5700
  116SOL    HW2  348   2.961   1.711   2.475  3.1152  0.6511  2.9822
  117SOL     OW  349   2.903   2.913   0.651  0.6758  0.8201 -0.1253
  117SOL    HW1  350   2.925   2.888   0.551  0.3483 -0.4612 -2.3262
  117SOL    HW2  351   2.870   2.835   0.711 -0.3015  2.3768  3.0744
  118SOL     OW  352   1.000   1.586   2.858  0.1375  0.1955 -0.0137
  118SOL    HW1  353   0.986   1.619   2.763  0.7084  0.2918 -2.6251
  118SOL    HW2  354   0.911   1.587   2.904  0.2634  3.7473 -1.6851
  119SOL     OW  355   0.277   2.083   3.077  0.3848 -0.4677 -0.2312
  119SOL    HW1  356   0.175   2.097   3.085 -1.0715 -0.2387 -0.1617
  119SOL    HW2  357   0.300   1.984   3.099 -0.9279  1.0080 -0.3977
  120SOL     OW  358   1.339   0.752   0.308 -0.0200 -0.0004 -0.0636
  120SOL    HW1  359   1.442   0.748   0.301  3.5881 -0.5344 -0.4659
  120SOL    HW2  360   1.309   0.798   0.395  2.5581  1.0289 -0.7100
  121SOL     OW  361   1.238   2.451   0.417 -0.3298 -0.4881  0.4660
  121SOL    HW1  362   1.275   2.464   0.512  0.7140  0.3920  2.6361
  121SOL    HW2  363   1.297   2.380   0.368 -0.1152 -0.2613 -2.2981
  122SOL     OW  364   2.336   2.351   1.747 -0.4719  0.3315  0.0072
  122SOL    HW1  365   2.282   2.283   1.686 -0.8866 -1.1454 -0.0109
  122SOL    HW2  366   2.308   2.440   1.711  0.9932 -2.6436  1.7027
  123SOL     OW  367   0.760   2.070   0.525 -0.2518 -0.1327 -0.0687
  123SOL    HW1  368   0.745   2.066   0.423  2.7716  1.0951 -1.2566
  123SOL    HW2  369   0.717   2.153   0.568  0.9153 -0.8103 -2.5038
  124SOL     OW  370   2.935   0.714   0.244  0.1213  0.3722  0.0448
  124SOL    HW1  371   3.023   0.668   0.234 -0.6281  0.7509 -0.3166
  124SOL    HW2  372   2.938   0.794   0.305  1.0125  0.1280 -0.2931
  125SOL     OW  373   0.386   0.743   0.404 -0.1267 -0.0086  0.0567
  125SOL    HW1  374   0.335   0.740   0.315  0.7418 -0.4598  0.1289
  125SOL    HW2  375   0.458   0.815   0.406 -1.5300 -1.3794  1.7667
  126SOL     OW  376   3.050   1.872   0.774  0.1319  0.1423 -0.3566
  126SOL    HW1  377   0.018   1.861   0.841 -0.6151 -2.2332 -0.6868
  126SOL    HW2  378   3.084   1.852   0.677  0.1227  0.5704 -2.1813
  127SOL     OW  379   1.310   1.940   1.867  0.1223  0.5620 -0.0193
  127SOL    HW1  380   1.365   1.923   1.954  1.3724 -1.9268  1.8294
  127SOL    HW2  381   1.223   1.986   1.883  1.9757 -0.6013  0.4436
  128SOL     OW  382   0.996   0.976   0.185 -0.1687  0.3498 -0.6807
  128SOL    HW1  383   0.936   1.052   0.159  0.9898 -0.0448  1.4483
  128SOL    HW2  384   1.089   1.014   0.207  1.7989  1.9991 -1.4297
  129SOL     OW  385   1.915   1.305   1.255 -0.0064 -0.1196  0.4457
  129SOL    HW1  386   1.925   1.364   1.173 -0.0443  0.8163 -0.3591
  129SOL    HW2  387   1.827   1.310   1.309 -0.1414  2.6000 -0.6536
  130SOL     OW  388   2.301   1.605   1.658 -0.4091  0.1705  0.2986
  130SOL    HW1  389   2.266   1.676   1.595 -0.0938  0.0444  1.9322
  130SOL    HW2  390   2.383   1.639   1.713  2.4600  1.3678  0.7546
  131SOL     OW  391   3.005   2.656   2.737  0.2165 -0.2148 -0.6357
  131SOL    HW1  392   2.918   2.705   2.751  1.8242  1.4443 -1.9536
  131SOL    HW2  393   3.050   2.704   2.660 -1.8324 -1.1354  0.1648
  132SOL     OW  394   2.980   1.548   0.391 -0.0119 -0.6011  0.6247
  132SOL    HW1  395   2.933   1.606   0.327  1.2290  0.9766  0.2851
  132SOL    HW2  396   2.959   1.573   0.487  0.7901 -0.2811 -1.7108
  133SOL     OW  397   0.475   0.028   1.745 -0.1021 -0.4110 -0.1889
  133SOL    HW1  398   0.498   3.098   1.652 -1.9590 -0.5262 -1.7046
  133SOL    HW2  399   0.371   0.040   1.749  1.4723 -1.1511 -0.8499
  134SOL     OW  400   0.299   1.816   2.674  0.8912 -0.3246 -0.2097
  134SOL    HW1  401   0.235   1.835   2.597 -1.3465 -0.1856 -0.8993
  134SOL    HW2  402   0.365   1.892   2.700 -0.2740  0.2688  1.4495
  135SOL     OW  403   1.485   0.655   1.957 -0.1927 -0.3514 -0.1177
  135SOL    HW1  404   1.506   0.736   2.012 -1.5692 -3.0454 -1.8096
  135SOL    HW2  405   1.534   0.574   1.995 -0.0700  0.2015  1.0469
  136SOL     OW  406   2.922   1.370   0.218  0.1054  0.1615  0.4242
  136SOL    HW1  407   2.977   1.422   0.292  2.6973  1.0357  1.6358
  136SOL    HW2  408   2.934   1.428   0.132  1.7242  0.9912  1.3200
  137SOL     OW  409   0.121   1.810   0.951 -0.5695  0.7016  0.0932
  137SOL    HW1  410   0.131   1.729   1.021  1.2168 -2.1242  1.2835
  137SOL    HW2  411   0.206   1.861   0.942 -2.7365 -1.2915  1.1344
  138SOL     OW  412   2.225   0.739   1.425  0.2780 -0.1923  0.3336
  138SOL    HW1  413   2.316   0.786   1.415  1.2269  2.6766 -0.3250
  138SOL    HW2  414   2.244   0.641   1.445  0.0105  0.6492  1.9115
  139SOL     OW  415   1.226   2.708   0.042 -0.2839  0.5746 -0.0870
  139SOL    HW1  416   1.310   2.691   3.099 -0.9125 -3.1915  0.9289
  139SOL    HW2  417   1.143   2.700   3.091 -2.4202  0.5183  0.0592
  140SOL     OW  418   1.106   1.758   1.233 -0.5131 -0.1061  0.0753
  140SOL    HW1  419   1.091   1.662   1.209 -1.2452 -0.0988 -0.5230
  140SOL    HW2  420   1.109   1.821   1.151  0.0281 -0.7959 -3.5546
  141SOL     OW  421   1.197   2.126   0.384 -0.3055  0.2074 -0.1022
  141SOL    HW1  422   1.104   2.169   0.372  3.2483  0.0331 -0.9327
  141SOL    HW2  423   1.273   2.189   0.358  0.6412 -0.6029  1.8259
  142SOL     OW  424   0.955   0.129   0.731  0.3413 -0.1917  0.4011
  142SOL    HW1  425   1.044   0.085   0.747 -0.2904  0.1804  0.0410
  142SOL    HW2  426   0.954   0.196   0.654  1.4733  2.1828  3.0604
  143SOL     OW  427   0.706   1.835   2.980  0.0336 -0.1191 -0.4902
  143SOL    HW1  428   0.794   1.875   2.946  1.9360  1.5823  0.6289
  143SOL    HW2  429   0.642   1.910   3.004 -2.4113 -0.3588 -2.8177
  144SOL     OW  430   1.562   2.528   0.779 -0.4814 -0.0711 -0.4159
  144SOL    HW1  431   1.562   2.626   0.815 -3.0559 -0.4037  3.2189
  144SOL    HW2  432   1.646   2.510   0.726 -3.6584  0.4257  1.8600
  145SOL     OW  433   1.978   0.682   2.570  0.7732  0.4814  0.1758
  145SOL    HW1  434   2.079   0.700   2.574  0.1601 -1.0688 -0.6278
  145SOL    HW2  435   1.962   0.579   2.584  2.2808 -3.3679  0.8842
  146SOL     OW  436   0.305   3.054   0.799 -0.3576 -0.6929  0.3310
  146SOL    HW1  437   0.235   2.999   0.843  2.7124  2.2845 -2.9206
  146SOL    HW2  438   0.330   3.014   0.710 -1.8431 -0.0602  4.5021
  147SOL     OW  439   2.235   0.140   2.031 -0.0782  0.5184 -0.2290
  147SOL    HW1  440   2.133   0.144   2.039  0.7466  0.2686 -1.4322
  147SOL    HW2  441   2.271   0.231   2.004 -2.3880  0.4965 -0.9365
  148SOL     OW  442   1.068   2.983   2.137 -0.0595  0.3174  0.3421
  148SOL    HW1  443   0.996   3.053   2.124  0.5798  1.1297  0.1717
  148SOL    HW2  444   1.154   3.021   2.173  1.2081  0.9602 -1.6346
  149SOL     OW  445   1.582   0.445   2.113 -0.3888  0.4322  0.1853
  149SOL    HW1  446   1.527   0.374   2.064 -0.3512 -1.4711 -0.5679
  149SOL    HW2  447   1.539   0.471   2.205  0.3471 -1.1333  0.1098
  150SOL     OW  448   3.084   0.227   3.100 -0.6131  0.0477  0.4141
  150SOL    HW1  449   2.991   0.261   0.009 -1.2169 -1.1749  0.6100
  150SOL    HW2  450   0.020   0.286   3.032  2.0522 -1.0146 -0.4400
  151SOL     OW  451   0.753   1.504   0.296  0.0395 -0.1176 -0.0014
  151SOL    HW1  452   0.746   1.495   0.196  1.0404 -1.8910  3.7275
  151SOL    HW2  453   0.824   1.570   0.326  0.6296 -0.2726 -1.0545
  152SOL     OW  454   2.993   0.335   0.411 -0.0928 -0.4354  0.1007
  152SOL    HW1  455   2.920   0.373   0.352 -0.0568  0.4952  0.9470
  152SOL    HW2  456   3.049   0.414   0.441  0.0030  1.1446 -0.8723
  153SOL     OW  457   2.480   0.822   1.392 -0.2086  0.8352 -0.5368
  153SOL    HW1  458   2.501   0.910   1.347 -3.8112 -0.1084  0.4384
  153SOL    HW2  459   2.521   0.827   1.488 -0.3405  1.6469 -1.0242
  154SOL     OW  460   1.773   3.104   2.217  0.0349 -0.1672  0.8169
  154SOL    HW1  461   1.747   3.021   2.269  0.3957  1.1076 -1.3920
  154SOL    HW2  462   1.734   3.097   2.121  0.3182 -3.5495 -0.8494
  155SOL     OW  463   0.149   1.849   0.530  0.5584 -0.1567  0.1462
  155SOL    HW1  464   0.210   1.833   0.452 -0.9286  1.0307  0.1800
  155SOL    HW2  465   0.168   1.771   0.591  0.1639 -1.2177 -0.7967
  156SOL     OW  466   1.915   2.049   2.820 -0.1488  0.7417  0.2953
  156SOL    HW1  467   1.924   1.973   2.753  0.4309 -0.8206 -1.0372
  156SOL    HW2  468   1.875   2.127   2.771  2.8089 -0.5943  1.6469
  157SOL     OW  469   1.028   0.317   0.537  0.4298 -0.1500 -0.1533
  157SOL    HW1  470   1.013   0.410   0.576  1.7238  0.3761 -1.1665
  157SOL    HW2  471   1.125   0.312   0.518 -0.4611 -1.5164  0.3482
  158SOL     OW  472   2.284   0.361   2.410 -0.0907  0.4534  0.8470
  158SOL    HW1  473   2.242   0.270   2.388  0.9234 -0.5673  0.3938
  158SOL    HW2  474   2.340   0.401   2.336  1.7843 -0.4182  2.9852
  159SOL     OW  475   3.080   0.085   0.382  0.1543  0.5100  0.2552
  159SOL    HW1  476   3.049   0.182   0.387  1.1397  2.5308 -1.4338
  159SOL    HW2  477   0.052   0.073   0.442 -1.0572 -1.4633 -2.7216
  160SOL     OW  478   1.622   1.988   2.316 -0.1970  0.0698 -0.6649
  160SOL    HW1  479   1.579   1.963   2.224 -2.4076  0.5092 -2.1907
  160SOL    HW2  480   1.719   2.009   2.296  0.0154 -4.1024 -0.9634
  161SOL     OW  481   2.690   0.821   2.700 -0.1985 -0.1070  0.5031
  161SOL    HW1  482   2.789   0.842   2.692  0.6271 -0.6432 -1.6321
  161SOL    HW2  483   2.676   0.723   2.677 -1.0413 -2.6831  1.1970
  162SOL     OW  484   0.855   2.623   1.419 -0.7033  0.3129 -0.3749
  162SOL    HW1  485   0.945   2.566   1.403  1.7808 -3.4741  0.8765
  162SOL    HW2  486   0.795   2.609   1.342  1.6147  0.5658  2.1592
  163SOL     OW  487   2.474   0.355   2.635 -0.2251  0.0754 -0.2886
  163SOL    HW1  488   2.436   0.409   2.711  1.9056  1.5647  1.3503
  163SOL    HW2  489   2.417   0.356   2.551  0.6610  1.8925  0.9577
  164SOL     OW  490   2.016   1.784   2.942 -0.3145  0.0165 -0.1581
  164SOL    HW1  491   1.959   1.773   2.857  0.3484  0.4123 -0.7052
  164SOL    HW2  492   2.091   1.844   2.921  0.9804 -3.5889  0.1794
  165SOL     OW  493   2.775   0.512   1.579 -0.7877 -0.0003 -0.0801
  165SOL    HW1  494   2.735   0.541   1.491  1.3371 -1.4359  2.0969
  165SOL    HW2  495   2.865   0.465   1.568 -1.6060  1.8012  1.5728
  166SOL     OW  496   2.491   0.886   2.956 -0.5467  0.2615 -0.4186
  166SOL    HW1  497   2.524   0.794   2.930  1.3089 -1.4935  2.7110
  166SOL    HW2  498   2.453   0.935   2.875 -4.3674 -0.1179  0.1842
  167SOL     OW  499   2.827   0.683   3.103 -0.0101  0.4129  0.1528
  167SOL    HW1  500   2.858   0.698   0.089  1.1519 -0.0563 -0.5287
  167SOL    HW2  501   2.887   0.618   3.053 -0.0250  0.5267 -0.3462
  168SOL     OW  502   1.886   2.934   2.883  0.5261  0.3930 -0.4742
  168SOL    HW1  503   1.934   2.858   2.932 -2.1774 -0.8593  2.4996
  168SOL    HW2  504   1.863   3.016   2.940  0.2436  0.0393 -2.3607
  169SOL     OW  505   3.017   1.391   0.765 -0.8109  0.2601  0.8706
  169SOL    HW1  506   2.969   1.474   0.722  0.0732 -1.4602 -0.9160
  169SOL    HW2  507   2.984   1.308   0.717 -0.7083  0.5901  1.1101
  170SOL     OW  508   2.748   0.580   1.305  0.1501 -0.0522 -0.0016
  170SOL    HW1  509   2.810   0.653   1.272 -1.6100  1.5795  0.6582
  170SOL    HW2  510   2.660   0.595   1.255  3.4383 -0.9735  2.5842
  171SOL     OW  511   1.919   2.335   2.207 -0.0943  0.1048 -0.0785
  171SOL    HW1  512   1.847   2.318   2.275  1.6521 -1.2577 -1.7194
  171SOL    HW2  513   2.004   2.353   2.262 -1.1144  0.5655  0.3864
  172SOL     OW  514   0.090   2.714   1.461  0.3632 -0.2273  0.4171
  172SOL    HW1  515   0.177   2.754   1.491 -1.6159  0.6980  0.5538
  172SOL    HW2  516   0.026   2.778   1.422  2.2884 -0.9610  2.0139
  173SOL     OW  517   1.255   1.120   0.197  0.0596  0.4188 -0.1462
  173SOL    HW1  518   1.334   1.172   0.237  2.8015 -0.6280  0.6013
  173SOL    HW2  519   1.264   1.096   0.102 -0.1429  1.4999  2.0483
  174SOL     OW  520   1.489   3.079   2.722  0.0290  0.0117  0.6552
  174SOL    HW1  521   1.454   3.076   2.814 -1.4695  2.1620 -2.4090
  174SOL    HW2  522   1.426   0.018   2.662  1.4649 -2.1726  1.0898
  175SOL     OW  523   2.015   1.929   0.694  0.5162  0.1108 -0.1986
  175SOL    HW1  524   1.968   1.975   0.772 -0.4354  0.2161 -0.2461
  175SOL    HW2  525   2.048   1.836   0.724  0.1218 -0.5564 -0.4838
  176SOL     OW  526   1.492   0.283   0.330 -0.2309 -0.2496  0.0936
  176SOL    HW1  527   1.531   0.284   0.234 -2.9354 -0.4808  0.3220
  176SOL    HW2  528   1.431   0.364   0.347  1.4809 -1.0994 -1.6978
  177SOL     OW  529   0.766   1.440   0.032  0.4996  0.3315 -0.6740
  177SOL    HW1  530   0.682   1.486   0.007  0.9461 -0.5726 -1.7762
  177SOL    HW2  531   0.845   1.504   0.027 -1.3539 -3.4479  2.6811
  178SOL     OW  532   2.745   2.248   2.665  0.4427  0.6688  0.2361
  178SOL    HW1  533   2.724   2.147   2.676 -0.6067 -1.8536  0.6904
  178SOL    HW2  534   2.721   2.283   2.570 -1.8140 -0.9860 -3.0877
  179SOL     OW  535   2.761   0.086   2.765  0.9179  0.1843 -0.3916
  179SOL    HW1  536   2.793   0.177   2.727  0.4573  0.3625 -0.8422
  179SOL    HW2  537   2.703   0.092   2.846  0.6042 -0.4687  0.7767
  180SOL     OW  538   1.321   1.508   0.581 -0.3212  0.0424  0.5010
  180SOL    HW1  539   1.271   1.433   0.538 -2.2854  1.9711 -0.8722
  180SOL    HW2  540   1.262   1.576   0.620 -1.1328 -0.6407  3.2232
  181SOL     OW  541   1.645   1.018   2.478 -0.3229  0.7182 -0.7947
  181SOL    HW1  542   1.673   0.929   2.446  1.5214  2.7870 -0.3753
  181SOL    HW2  543   1.714   1.050   2.547  0.9577 -0.4388 -2.1409
  182SOL     OW  544   2.631   2.827   2.617 -0.2616 -0.2839 -0.2571
  182SOL    HW1  545   2.677   2.766   2.686 -0.0819 -0.8551  0.3838
  182SOL    HW2  546   2.692   2.849   2.540 -0.0883 -1.1926  3.7807
  183SOL     OW  547   2.072   0.685   2.251  0.1554 -1.0060 -0.7156
  183SOL    HW1  548   2.058   0.782   2.291 -2.6573 -1.1244  1.1258
  183SOL    HW2  549   2.038   0.616   2.319  0.4959 -2.0670 -0.3511
  184SOL     OW  550   0.134   1.220   1.541  0.2890 -0.1773 -0.6345
  184SOL    HW1  551   0.052   1.236   1.486  0.4094  2.2391 -1.2637
  184SOL    HW2  552   0.128   1.262   1.633  0.5267  1.8462 -2.2336
  185SOL     OW  553   1.759   0.462   0.788 -0.6904 -0.1940  0.1280
  185SOL    HW1  554   1.848   0.425   0.821 -0.0064  1.3671 -0.7631
  185SOL    HW2  555   1.724   0.410   0.707  1.4831 -1.5997  0.9981
  186SOL     OW  556   0.305   2.518   2.910  0.4679  0.3347  0.3584
  186SOL    HW1  557   0.217   2.570   2.917  0.1132  4.9221  0.9095
  186SOL    HW2  558   0.295   2.421   2.884  2.1133  3.2400  2.0382
  187SOL     OW  559   2.789   1.135   0.255  0.0168  0.1161  0.1810
  187SOL    HW1  560   2.835   1.224   0.243  0.5973 -0.8034  0.5443
  187SOL    HW2  561   2.781   1.086   0.165  1.2779 -0.5493 -0.0393
  188SOL     OW  562   2.789   1.617   1.431  0.3018  0.0515 -0.1938
  188SOL    HW1  563   2.842   1.533   1.435  0.3252 -0.1182  0.0173
  188SOL    HW2  564   2.848   1.697   1.410  0.4451  0.1835  2.3363
  189SOL     OW  565   2.673   0.537   2.659  0.2792  0.0799 -0.5010
  189SOL    HW1  566   2.579   0.491   2.656 -1.4589 -0.7875 -1.3882
  189SOL    HW2  567   2.729   0.493   2.590 -0.4391  1.4408  0.6572
  190SOL     OW  568   1.658   1.562   2.074 -0.7223 -0.1577 -0.1203
  190SOL    HW1  569   1.666   1.463   2.082  0.1075  0.4559  3.3718
  190SOL    HW2  570   1.595   1.597   2.143 -1.5032 -1.3518 -1.9153
  191SOL     OW  571   0.526   0.362   2.071  0.3383 -0.7173  0.6506
  191SOL    HW1  572   0.426   0.340   2.073 -0.5406 -0.7256 -0.4105
  191SOL    HW2  573   0.559   0.372   1.978  1.1633  0.7781 -0.1858
  192SOL     OW  574   1.895   1.700   1.090 -0.8444 -0.0011 -0.3453
  192SOL    HW1  575   1.877   1.600   1.072 -1.2523 -2.2852 -1.9907
  192SOL    HW2  576   1.932   1.713   1.183  0.1139  0.9419  0.5198
  193SOL     OW  577   1.585   0.804   1.238  0.1008 -0.2439 -0.7261
  193SOL    HW1  578   1.615   0.898   1.238  0.7184 -1.6314  0.7667
  193SOL    HW2  579   1.600   0.753   1.150 -0.2549  0.8462 -1.2954
  194SOL     OW  580   0.542   2.061   1.362 -0.0564  0.1907 -0.0006
  194SOL    HW1  581   0.587   2.148   1.358  1.0064 -1.0195 -0.0012
  194SOL    HW2  582   0.591   2.001   1.294  0.3892  0.3872 -2.5751
  195SOL     OW  583   1.781   0.205   0.270  0.1375  0.0493 -0.7166
  195SOL    HW1  584   1.853   0.137   0.283  1.4571 -0.6833 -0.5768
  195SOL    HW2  585   1.821   0.301   0.262 -0.0532  2.9114 -1.3596
  196SOL     OW  586   0.365   1.203   1.371  0.2400  0.6293 -0.5542
  196SOL    HW1  587   0.275   1.212   1.421 -3.2468 -0.9317 -0.6879
  196SOL    HW2  588   0.441   1.197   1.439  0.6547 -1.4618  0.1170
  197SOL     OW  589   1.180   0.088   1.682  0.6174 -0.3995 -0.0977
  197SOL    HW1  590   1.216   0.026   1.610 -2.2232 -1.2148 -0.9405
  197SOL    HW2  591   1.186   0.040   1.774 -2.2117 -0.8149 -2.0927
  198SOL     OW  592   0.699   0.974   1.129 -0.1225 -0.8968 -0.4208
  198SOL    HW1  593   0.761   1.039   1.174 -0.0854 -0.6580  4.4667
  198SOL    HW2  594   0.663   1.003   1.037 -0.1110  0.2368  2.0272
  199SOL     OW  595   0.237   2.295   1.606  0.1492  0.0161  0.2371
  199SOL    HW1  596   0.284   2.243   1.678  0.8563  1.5738  3.2358
  199SOL    HW2  597   0.306   2.354   1.558  1.6050 -0.3543  1.1540
  200SOL     OW  598   1.799   1.943   1.936  0.3789  0.4374 -0.1468
  200SOL    HW1  599   1.787   1.841   1.913 -0.1890  0.2750  0.8664
  200SOL    HW2  600   1.889   1.975   1.899 -0.2343  0.2042  2.1119
  201SOL     OW  601   0.304   1.726   2.213  0.4619  0.0498  0.4352
  201SOL    HW1  602   0.236   1.736   2.141 -1.9791  0.6200  2.1744
  201SOL    HW2  603   0.353   1.638   2.205  1.4330  0.5810  0.6417
  202SOL     OW  604   1.750   0.656   0.088  0.4527  0.2861 -0.4802
  202SOL    HW1  605   1.689   0.708   0.029 -2.0359  1.0469 -0.1368
  202SOL    HW2  606   1.821   0.604   0.038 -0.3054  2.9755 -1.3980
  203SOL     OW  607   1.208   2.649   1.821  0.0229 -0.8325  0.4534
  203SOL    HW1  608   1.189   2.654   1.922  0.7415 -0.6203  1.0842
  203SOL    HW2  609   1.121   2.671   1.763  0.2842  1.3793 -1.9930
  204SOL     OW  610   0.648   1.829   1.936 -0.0817 -0.5815 -0.1202
  204SOL    HW1  611   0.751   1.823   1.930  1.9333 -0.9839  0.8050
  204SOL    HW2  612   0.602   1.864   1.851 -1.1199  2.0192 -1.2962
  205SOL     OW  613   1.530   1.898   2.046 -0.0191  0.0594 -0.3806
  205SOL    HW1  614   1.614   1.936   2.013 -1.8596 -0.8105  0.3477
  205SOL    HW2  615   1.541   1.814   2.100 -2.3806 -0.3637 -1.4251
  206SOL     OW  616   0.065   1.196   2.358 -0.8399  0.1969  0.4511
  206SOL    HW1  617   0.127   1.111   2.353  2.7646 -2.2482 -2.1181
  206SOL    HW2  618   0.117   1.282   2.374  0.3869  1.7085 -0.1855
  207SOL     OW  619   0.797   2.839   2.035 -0.4506 -0.3252 -0.0132
  207SOL    HW1  620   0.801   2.908   1.965 -3.0051  1.4196  0.4919
  207SOL    HW2  621   0.714   2.842   2.095 -0.5782 -0.5181 -0.8970
  208SOL     OW  622   0.415   2.432   2.047 -0.4430 -0.0513 -0.1015
  208SOL    HW1  623   0.435   2.524   2.084 -1.2043 -0.1572  3.4442
  208SOL    HW2  624   0.460   2.412   1.960 -0.6357  0.9001  0.8530
  209SOL     OW  625   1.521   0.015   0.384 -0.0942  0.0779  0.3165
  209SOL    HW1  626   1.615   3.085   0.400 -1.1908  1.5469 -1.3214
  209SOL    HW2  627   1.544   0.111   0.356 -2.5494 -2.7258  0.6742
  210SOL     OW  628   2.642   0.904   0.801  0.7434 -0.4366 -0.1412
  210SOL    HW1  629   2.725   0.888   0.747  1.2067  1.3772 -0.1708
  210SOL    HW2  630   2.576   0.826   0.799  0.7105 -1.0267  1.4602
  211SOL     OW  631   0.621   0.336   1.666 -0.1170 -0.2032 -0.2451
  211SOL    HW1  632   0.525   0.360   1.689  2.0382 -1.8929  2.6729
  211SOL    HW2  633   0.679   0.416   1.639 -0.5897  0.3462  0.3967
  212SOL     OW  634   1.628   1.804   1.282 -0.6423  0.4783 -0.1663
  212SOL    HW1  635   1.582   1.779   1.370 -1.0348 -1.9424 -0.5793
  212SOL    HW2  636   1.576   1.871   1.229 -0.8915 -1.4587 -0.0473
  213SOL     OW  637   2.774   0.685   1.775 -0.2805 -0.0175 -0.1846
  213SOL    HW1  638   2.775   0.610   1.702  0.5097 -0.3963 -2.5638
  213SOL    HW2  639   2.821   0.662   1.862  0.4650  0.3769 -0.5971
  214SOL     OW  640   0.606   2.322   2.322 -0.3675  0.3930 -0.0885
  214SOL    HW1  641   0.611   2.318   2.220 -1.2360  1.3128  3.1013
  214SOL    HW2  642   0.697   2.336   2.368 -1.7289 -1.1396  1.7653
  215SOL     OW  643   2.707   1.737   1.663  0.2542 -0.1150 -0.2733
  215SOL    HW1  644   2.774   1.702   1.725 -0.7304 -0.9709 -2.8960
  215SOL    HW2  645   2.725   1.694   1.571  1.0753 -0.6616  0.2115
  216SOL     OW  646   0.598   0.726   1.914  0.1180 -0.3141 -0.4357
  216SOL    HW1  647   0.529   0.721   1.839 -0.6625 -1.5485  0.0986
  216SOL    HW2  648   0.552   0.703   2.002 -2.6960 -0.4913  2.0546
  217SOL     OW  649   2.597   0.394   0.996 -0.1192  0.4636 -0.6015
  217SOL    HW1  650   2.688   0.381   0.956  1.4711  2.1596  0.9423
  217SOL    HW2  651   2.594   0.349   1.089 -0.5927  2.4343  0.8996
  218SOL     OW  652   1.512   1.923   1.087 -0.3829  0.0164 -0.1701
  218SOL    HW1  653   1.419   1.951   1.088  2.3000 -1.0489 -2.8214
  218SOL    HW2  654   1.570   2.005   1.087 -0.2660 -1.9224  0.5123
  219SOL     OW  655   1.903   2.841   0.545 -0.5868 -0.1618  0.1861
  219SOL    HW1  656   1.919   2.807   0.639  1.6410  0.8895 -0.1409
  219SOL    HW2  657   1.869   2.762   0.494  1.5485  0.2589  0.9794
  220SOL     OW  658   1.642   2.221   0.287  0.4488  0.0694 -0.1696
  220SOL    HW1  659   1.682   2.271   0.367  0.4778  1.1308  1.3341
  220SOL    HW2  660   1.696   2.250   0.205 -1.5013 -0.4540  2.1178
  221SOL     OW  661   2.908   1.726   0.193  0.1090 -0.2727  0.3836
  221SOL    HW1  662   2.815   1.767   0.182  0.2391  3.3029 -3.3579
  221SOL    HW2  663   2.936   1.664   0.115 -1.1330 -3.2559 -0.7428
  222SOL     OW  664   0.661   2.429   0.938  0.0376  0.4390 -0.2888
  222SOL    HW1  665   0.628   2.446   0.846  2.9664  2.4213  0.4682
  222SOL    HW2  666   0.726   2.346   0.936 -0.0385 -3.8166 -1.8231
  223SOL     OW  667   1.268   0.165   0.521  0.0023  0.4069  0.0187
  223SOL    HW1  668   1.358   0.166   0.470  1.0725 -0.4326  1.0741
  223SOL    HW2  669   1.197   0.140   0.449 -0.3843 -1.7646  1.3003
  224SOL     OW  670   2.936   1.139   0.672  1.0784  0.6564  0.3948
  224SOL    HW1  671   2.841   1.164   0.706 -2.5204 -2.0249 -0.2448
  224SOL    HW2  672   2.989   1.092   0.745  0.2072 -1.8181  0.2181
  225SOL     OW  673   0.045   1.514   1.362 -0.7561 -0.2945 -0.3222
  225SOL    HW1  674   3.089   1.489   1.435 -2.1080 -1.5324  0.7468
  225SOL    HW2  675   0.139   1.538   1.395 -2.2666 -1.1263 -0.9446
  226SOL     OW  676   0.424   2.943   1.040  0.0331  0.0603 -0.2275
  226SOL    HW1  677   0.391   2.979   0.949  1.2972  1.3894 -2.3126
  226SOL    HW2  678   0.410   3.014   1.112 -1.6580 -0.3519  2.2843
  227SOL     OW  679   1.190   1.476   1.759 -0.1064  0.3240 -0.0024
  227SOL    HW1  680   1.177   1.555   1.819  0.8012  0.0993 -0.1516
  227SOL    HW2  681   1.118   1.462   1.690  4.2396  1.9220 -0.3845
  228SOL     OW  682   0.760   0.112   1.822 -0.4552 -0.1988  0.1270
  228SOL    HW1  683   0.668   0.095   1.785  1.0244  0.6258  1.6907
  228SOL    HW2  684   0.807   0.182   1.766  0.3034 -2.0483 -1.4254
  229SOL     OW  685   3.015   0.740   2.440  0.4052  0.1125 -0.1494
  229SOL    HW1  686   2.983   0.792   2.521  1.3024  0.4611  0.1142
  229SOL    HW2  687   3.044   0.801   2.366  2.4057  1.3387 -2.2173
  230SOL     OW  688   0.356   0.873   0.968 -0.1643  0.1220  0.1577
  230SOL    HW1  689   0.325   0.946   0.907  0.3391 -2.6434  2.4803
  230SOL    HW2  690   0.390   0.908   1.057 -0.9008 -1.1885  0.7682
  231SOL     OW  691   1.181   2.999   1.884  0.4457  1.2129  0.4390
  231SOL    HW1  692   1.143   3.010   1.977  1.5331  0.0492  0.3565
  231SOL    HW2  693   1.251   2.927   1.883 -0.4872  1.4696 -0.4012
  232SOL     OW  694   3.012   2.020   0.098 -0.5900 -0.7807  0.6782
  232SOL    HW1  695   3.016   2.009   0.199 -0.6335  1.5662  0.0102
  232SOL    HW2  696   2.925   2.057   0.065 -0.1330 -1.1545  1.4263
  233SOL     OW  697   1.411   2.491   2.867  0.2746  0.0671 -0.0555
  233SOL    HW1  698   1.451   2.472   2.773  0.9303  0.8684  1.1993
  233SOL    HW2  699   1.415   2.591   2.899 -1.3030  0.9932  0.2450
  234SOL     OW  700   0.439   1.016   1.722 -0.0160 -0.5597 -0.2117
  234SOL    HW1  701   0.475   1.072   1.645 -2.2654 -2.8277 -0.6110
  234SOL    HW2  702   0.479   1.052   1.808  2.7708 -0.2450 -2.4868
  235SOL     OW  703   0.004   2.386   2.497  0.1594 -0.0297  0.6326
  235SOL    HW1  704   0.095   2.337   2.509 -1.5083 -0.5805 -1.8654
  235SOL    HW2  705   3.053   2.392   2.577 -1.5027 -2.3243 -1.4629
  236SOL     OW  706   1.658   1.863   2.689  0.0314  0.0062 -0.2063
  236SOL    HW1  707   1.640   1.820   2.596 -0.3130 -0.3938 -1.6743
  236SOL    HW2  708   1.688   1.959   2.681 -2.1861 -0.1142  0.5492
  237SOL     OW  709   1.535   0.756   0.955  0.0283  0.0655 -0.0378
  237SOL    HW1  710   1.479   0.686   0.917  4.6598  2.3009  0.8819
  237SOL    HW2  711   1.485   0.839   0.980 -0.9775  4.8213 -4.4129
  238SOL     OW  712   1.170   2.699   2.094  1.2367  0.4554  0.0889
  238SOL    HW1  713   1.106   2.776   2.083  0.9820  1.0961 -1.0588
  238SOL    HW2  714   1.133   2.642   2.166 -1.2093 -2.5621 -2.2385
  239SOL     OW  715   0.872   2.597   1.919 -0.1785 -0.5489 -0.2721
  239SOL    HW1  716   0.860   2.593   1.821  1.1077  0.0585  0.3746
  239SOL    HW2  717   0.850   2.689   1.956 -0.0670  1.4110  0.8520
  240SOL     OW  718   2.272   0.003   0.733 -0.1477 -0.2614 -0.3582
  240SOL    HW1  719   2.204   3.069   0.673  2.0666  0.9681  0.9450
  240SOL    HW2  720   2.283   0.100   0.699 -2.5078 -1.4374 -1.6699
  241SOL     OW  721   1.137   1.382   2.707 -0.1256 -0.3802 -0.3100
  241SOL    HW1  722   1.098   1.450   2.772  0.4106  0.6413  1.1241
  241SOL    HW2  723   1.240   1.392   2.694 -0.7249  0.7061 -2.2097
  242SOL     OW  724   2.620   0.638   2.926 -0.0260  0.0440  0.0149
  242SOL    HW1  725   2.696   0.645   2.986 -5.1976 -1.3944 -3.2031
  242SOL    HW2  726   2.655   0.623   2.830 -0.8874 -0.2856 -1.7308
  243SOL     OW  727   0.837   0.506   1.631  0.2554 -0.5823 -0.5756
  243SOL    HW1  728   0.848   0.576   1.557 -0.9249 -0.1923  0.9006
  243SOL    HW2  729   0.885   0.420   1.620 -1.8358  1.6424  1.2265
  244SOL     OW  730   1.416   3.020   2.986 -0.6266 -0.5665  0.2438
  244SOL    HW1  731   1.344   3.041   3.056  1.6929  0.4095  0.0976
  244SOL    HW2  732   1.509   3.005   3.032  2.3428  2.3474  0.3630
  245SOL     OW  733   1.671   2.725   3.100 -0.4886 -0.1443  0.3932
  245SOL    HW1  734   1.696   2.650   0.056  0.6328  1.9211 -3.2994
  245SOL    HW2  735   1.728   2.810   0.006 -1.1479 -0.7993 -1.3539
  246SOL     OW  736   0.704   0.873   1.581  0.2205  0.2480 -0.0343
  246SOL    HW1  737   0.733   0.852   1.676  1.3957 -0.6352  0.8038
  246SOL    HW2  738   0.768   0.832   1.511 -0.7070 -2.3155 -2.5846
  247SOL     OW  739   0.217   0.349   2.103 -0.2525  0.0444  0.2337
  247SOL    HW1  740   0.150   0.285   2.060 -0.4567 -0.1343  1.3655
  247SOL    HW2  741   0.218   0.439   2.058  0.2930 -1.4818  0.5467
  248SOL     OW  742   3.035   1.326   1.971 -0.8066  0.1378 -0.2810
  248SOL    HW1  743   2.942   1.353   1.944 -0.1966  0.3060  3.7562
  248SOL    HW2  744   3.065   1.373   2.057 -2.4385 -2.1510  0.6806
  249SOL     OW  745   0.185   0.358   0.149  0.4664  0.7774  0.1690
  249SOL    HW1  746   0.223   0.302   0.225 -1.4601  0.1690  0.7846
  249SOL    HW2  747   0.102   0.302   0.112 -2.6078 -0.0536  1.5784
  250SOL     OW  748   2.845   0.321   0.050  0.5492  0.1316 -0.3907
  250SOL    HW1  749   2.837   0.375   0.137 -1.9747  0.1434  1.5551
  250SOL    HW2  750   2.756   0.274   0.040 -2.1821 -2.3423  0.7905
  251SOL     OW  751   0.926   1.826   1.861 -0.3580  0.2833 -0.2695
  251SOL    HW1  752   0.876   1.885   1.796 -1.4266  2.0548 -2.8662
  251SOL    HW2  753   1.004   1.879   1.906  1.2564  1.8384 -0.8746
  252SOL     OW  754   1.978   1.983   1.118 -0.2226  0.3719  0.4539
  252SOL    HW1  755   1.907   1.913   1.098 -2.3415  1.9486  1.0497
  252SOL    HW2  756   1.958   2.039   1.200 -3.5466  0.1819 -1.9769
  253SOL     OW  757   1.699   2.299   2.364  0.5788  0.4365 -0.0771
  253SOL    HW1  758   1.689   2.399   2.377  1.5093  0.7338 -0.9395
  253SOL    HW2  759   1.643   2.271   2.279  1.4027  1.3169 -2.1587
  254SOL     OW  760   0.755   2.208   2.075  0.2280  0.4151  0.0872
  254SOL    HW1  761   0.736   2.181   1.980  0.9212 -1.0222  1.0179
  254SOL    HW2  762   0.824   2.281   2.078 -1.9797  0.3969 -2.1249
  255SOL     OW  763   1.030   0.100   1.244 -0.6271 -0.4753 -0.4818
  255SOL    HW1  764   1.058   0.140   1.148 -0.0035  0.2998 -5.1844
  255SOL    HW2  765   1.031   0.003   1.232 -0.2310  3.4904 -0.0555
  256SOL     OW  766   2.176   2.178   1.588 -0.0934  0.0121  0.1324
  256SOL    HW1  767   2.203   2.190   1.490  1.0184 -0.7330  1.6203
  256SOL    HW2  768   2.230   2.103   1.628 -0.7953 -2.4237  1.7785
  257SOL     OW  769   0.724   2.345   2.703  0.4172 -0.1397  0.3378
  257SOL    HW1  770   0.695   2.430   2.750 -1.4607  0.1973  1.2575
  257SOL    HW2  771   0.804   2.299   2.752 -0.0904 -0.2966 -2.2098
  258SOL     OW  772   0.644   0.942   2.172  0.0002 -0.0609 -0.1154
  258SOL    HW1  773   0.641   0.975   2.269  1.6542  2.7015 -0.7430
  258SOL    HW2  774   0.612   0.847   2.166 -1.1665  1.5514  2.2857
  259SOL     OW  775   0.629   1.360   2.022 -0.7056 -0.1772 -0.6634
  259SOL    HW1  776   0.606   1.451   1.987 -1.0967 -2.9427  0.8982
  259SOL    HW2  777   0.710   1.365   2.088  0.4301  0.9724 -0.3304
  260SOL     OW  778   1.886   1.000   1.149 -0.3471 -0.0601  1.0239
  260SOL    HW1  779   1.908   1.069   1.076 -1.6238 -0.5750  1.1960
  260SOL    HW2  780   1.926   1.026   1.236  0.1217  0.4715 -1.1243
  261SOL     OW  781   0.831   2.822   0.848  0.3752 -0.6382  0.2614
  261SOL    HW1  782   0.814   2.915   0.879  1.5559 -2.4943  1.3229
  261SOL    HW2  783   0.905   2.828   0.779  0.1665 -0.8857  1.1600
  262SOL     OW  784   2.165   2.676   2.510  0.4492 -0.1951 -0.6950
  262SOL    HW1  785   2.158   2.605   2.578 -0.2839  2.1894  1.8441
  262SOL    HW2  786   2.261   2.710   2.513 -0.5154 -1.2080  0.6061
  263SOL     OW  787   0.346   1.581   2.765 -0.7261  0.2213  0.2380
  263SOL    HW1  788   0.335   1.675   2.732 -0.2034 -0.9064  1.4911
  263SOL    HW2  789   0.395   1.515   2.706 -2.9496  0.4856  0.7399
  264SOL     OW  790   0.367   1.906   1.470  0.3413  0.2210 -0.1646
  264SOL    HW1  791   0.450   1.965   1.444  0.9858  0.5276 -1.6177
  264SOL    HW2  792   0.284   1.958   1.439  1.1921  1.5196 -0.8698
  265SOL     OW  793   0.677   0.923   0.564  0.5823 -0.2754 -0.2231
  265SOL    HW1  794   0.664   0.855   0.638  0.2875 -2.3605 -1.7019
  265SOL    HW2  795   0.775   0.941   0.561 -2.0423  1.7719  2.3698
  266SOL     OW  796   1.297   1.789   3.109  0.1689 -0.2442  0.1796
  266SOL    HW1  797   1.395   1.825   0.001  2.4212  3.1985 -1.4076
  266SOL    HW2  798   1.286   1.720   3.036 -0.8900  0.9703 -2.1174
  267SOL     OW  799   0.649   0.763   2.698 -0.3611 -0.0600 -0.0997
  267SOL    HW1  800   0.701   0.715   2.773  0.8469  2.2898 -1.5933
  267SOL    HW2  801   0.682   0.728   2.605  0.9546 -0.0921 -0.1331
  268SOL     OW  802   1.032   0.495   3.065 -0.1234 -0.2791 -0.3632
  268SOL    HW1  803   1.029   0.581   0.017  1.8147  1.1711  1.6142
  268SOL    HW2  804   1.124   0.457   3.070 -2.2006 -3.2850  0.7322
  269SOL     OW  805   1.998   0.003   2.678  0.0884 -0.6123 -0.0564
  269SOL    HW1  806   1.933   0.028   2.603  1.7447  0.9480 -2.1783
  269SOL    HW2  807   1.967   3.030   2.731 -0.7900 -0.7081  0.2440
  270SOL     OW  808   0.949   0.850   2.785 -0.0658  0.4142 -0.1894
  270SOL    HW1  809   1.049   0.826   2.804 -1.4015  1.3703 -0.1058
  270SOL    HW2  810   0.892   0.765   2.798  0.0702  2.6650 -1.5424
  271SOL     OW  811   0.108   0.633   0.220  0.0051  0.3442 -0.4109
  271SOL    HW1  812   0.157   0.703   0.168 -2.1328 -1.2482 -1.6227
  271SOL    HW2  813   0.123   0.540   0.180 -1.3420 -0.4211  1.9234
  272SOL     OW  814   2.389   1.286   2.461 -0.2440 -0.3972  0.3546
  272SOL    HW1  815   2.295   1.279   2.417 -0.6014 -1.5360 -1.9394
  272SOL    HW2  816   2.439   1.197   2.442 -1.8957  0.0481  1.0139
  273SOL     OW  817   3.071   0.201   2.347  0.1957  0.2383 -0.0191
  273SOL    HW1  818   0.033   0.271   2.342 -2.5374  2.4852  0.6250
  273SOL    HW2  819   3.097   0.110   2.383  0.8933  1.3308  1.0308
  274SOL     OW  820   0.118   0.213   1.876 -0.4077  0.3379 -0.2419
  274SOL    HW1  821   0.177   0.210   1.790  0.5651 -0.3675  1.6432
  274SOL    HW2  822   0.039   0.147   1.867 -0.9390  0.4847 -3.4931
  275SOL     OW  823   1.957   1.285   0.291  0.6299  0.2682  0.2270
  275SOL    HW1  824   1.956   1.186   0.288 -0.6851  4.1107  2.5619
  275SOL    HW2  825   1.912   1.319   0.205  3.7813 -0.7540 -3.0263
  276SOL     OW  826   0.514   0.989   2.786 -0.0386 -0.8643  0.1085
  276SOL    HW1  827   0.572   0.909   2.760 -0.5874  2.7770  1.3211
  276SOL    HW2  828   0.420   0.982   2.748 -0.9707 -0.7368 -0.7270
  277SOL     OW  829   1.695   2.926   2.421 -0.1099  0.2090 -0.0219
  277SOL    HW1  830   1.795   2.896   2.406  2.5182  0.1214 -0.1807
  277SOL    HW2  831   1.669   2.941   2.518  0.6095  0.1512  1.5539
  278SOL     OW  832   1.844   0.097   1.534  0.1531  0.2547 -0.0749
  278SOL    HW1  833   1.871   0.128   1.624 -1.1383  1.5004 -2.4709
  278SOL    HW2  834   1.832   3.106   1.535 -1.6377  2.2009  2.5339
  279SOL     OW  835   1.426   1.225   2.953  0.5686 -0.1542  0.3884
  279SOL    HW1  836   1.412   1.247   2.853 -2.1969  0.0284  0.9094
  279SOL    HW2  837   1.515   1.186   2.967 -2.1831  0.8307 -1.6588
  280SOL     OW  838   0.793   1.198   0.138 -0.3612  0.1094  0.2238
  280SOL    HW1  839   0.778   1.293   0.099 -2.3809  1.4112  0.8685
  280SOL    HW2  840   0.697   1.157   0.138 -1.2889 -2.3234 -0.9945
  281SOL     OW  841   0.091   2.990   1.736  0.4973  0.1723  0.0239
  281SOL    HW1  842   0.123   2.984   1.835 -2.3130 -1.3182 -3.5516
  281SOL    HW2  843   3.100   3.011   1.718  1.2870 -0.6079  0.4635
  282SOL     OW  844   0.007   2.393   0.839 -0.6733 -0.0366 -0.0933
  282SOL    HW1  845   3.081   2.310   0.787 -0.6530  1.4310  1.3306
  282SOL    HW2  846   0.110   2.400   0.828  1.9324 -0.1257  0.2528
  283SOL     OW  847   1.134   2.287   1.994 -0.4002  0.2004  0.1286
  283SOL    HW1  848   1.062   2.347   2.031  2.4311 -1.0737 -0.6435
  283SOL    HW2  849   1.190   2.337   1.926 -1.5024  3.5257 -2.5132
  284SOL     OW  850   2.357   0.605   0.563  0.0315 -0.0332  0.2902
  284SOL    HW1  851   2.271   0.592   0.613  4.0136  1.3059 -2.7287
  284SOL    HW2  852   2.355   0.690   0.504  2.0626 -0.1482  0.8462
  285SOL     OW  853   3.045   2.821   2.503  0.2880  0.1694 -0.6499
  285SOL    HW1  854   0.003   2.780   2.437  3.2646  0.3682 -2.5893
  285SOL    HW2  855   3.082   2.911   2.532  2.7569  4.9875 -1.5334
  286SOL     OW  856   1.965   2.516   1.377  0.0654  0.0083  0.5046
  286SOL    HW1  857   2.032   2.563   1.438  0.7258  0.1283 -0.2329
  286SOL    HW2  858   1.886   2.484   1.431  1.0860  0.1290  0.5730
  287SOL     OW  859   0.803   1.463   1.069  0.4365  0.3284  0.3384
  287SOL    HW1  860   0.741   1.439   0.991 -0.6875  0.2013  3.0441
  287SOL    HW2  861   0.752   1.530   1.128 -2.6429 -0.1130 -0.6450
  288SOL     OW  862   1.794   2.485   0.110 -0.5845  0.5865  0.9136
  288SOL    HW1  863   1.884   2.529   0.110 -0.9669 -1.7831  1.9233
  288SOL    HW2  864   1.809   2.385   0.090  0.2107  0.0113 -0.8307
  289SOL     OW  865   0.687   2.097   2.553 -0.3484  0.1717 -0.3104
  289SOL    HW1  866   0.710   2.080   2.457  0.2244 -1.7427  1.5974
  289SOL    HW2  867   0.692   2.192   2.582  0.9780 -0.5431 -1.0816
  290SOL     OW  868   1.254   2.053   1.224 -0.2501  0.2321  0.3302
  290SOL    HW1  869   1.305   2.131   1.184  0.7791 -0.2937  3.7140
  290SOL    HW2  870   1.204   1.996   1.158  1.6004  1.1174  0.8540
  291SOL     OW  871   1.633   1.478   2.868  0.8022 -0.0609  0.6766
  291SOL    HW1  872   1.619   1.507   2.770 -0.5775  0.1533 -1.4206
  291SOL    HW2  873   1.558   1.416   2.887 -3.6162 -0.1176 -0.1164
  292SOL     OW  874   1.472   1.628   0.944  0.1457 -0.0325  0.0775
  292SOL    HW1  875   1.437   1.724   0.938  1.1485  2.3554 -0.6089
  292SOL    HW2  876   1.499   1.608   1.037  0.9543  1.2394 -0.4148
  293SOL     OW  877   1.879   2.875   0.890 -0.4241  0.4303 -0.2426
  293SOL    HW1  878   1.965   2.921   0.923  0.3087  2.4897  0.2585
  293SOL    HW2  879   1.897   2.782   0.850  2.4144  0.7023  1.4461
  294SOL     OW  880   3.055   1.164   2.629 -0.0682 -0.1007 -0.4745
  294SOL    HW1  881   2.958   1.188   2.647 -1.3224 -1.7381  1.5592
  294SOL    HW2  882   3.092   1.197   2.540  1.9314 -1.8277 -0.9845
  295SOL     OW  883   1.411   2.137   2.697  0.0867 -0.1563 -0.3164
  295SOL    HW1  884   1.389   2.231   2.670  0.2127 -4.5471  3.8362
  295SOL    HW2  885   1.455   2.131   2.791  0.5729  0.1376  0.6686
  296SOL     OW  886   2.009   1.287   2.103 -0.5445  0.1789 -0.5953
  296SOL    HW1  887   1.961   1.207   2.062 -2.0524  1.9215  1.3903
  296SOL    HW2  888   2.009   1.365   2.042  1.1650 -0.9015  0.7206
  297SOL     OW  889   0.217   0.641   2.223 -0.3555 -0.1778 -0.8199
  297SOL    HW1  890   0.245   0.561   2.278  2.3425 -0.0027  0.8239
  297SOL    HW2  891   0.127   0.630   2.172 -1.1661 -1.2157 -0.2450
  298SOL     OW  892   0.937   2.412   2.086  0.1367 -0.3314 -0.2756
  298SOL    HW1  893   0.916   2.487   2.024 -0.8708 -1.2156  1.1136
  298SOL    HW2  894   0.925   2.439   2.185  1.4755  2.0250 -0.5859
  299SOL     OW  895   0.802   2.893   2.934  0.2396 -0.0116  0.5931
  299SOL    HW1  896   0.817   2.800   2.975 -0.2324 -4.7547  1.0994
  299SOL    HW2  897   0.732   2.943   2.985  0.9855  0.9296  0.8938
  300SOL     OW  898   0.242   0.797   2.870 -0.1873  0.6003  0.5063
  300SOL    HW1  899   0.149   0.831   2.852  1.0707 -0.6741  1.5495
  300SOL    HW2  900   0.252   0.774   2.969  2.0348 -1.1892  0.7239
  301SOL     OW  901   1.773   1.159   1.583  1.1366  0.4158  0.3028
  301SOL    HW1  902   1.748   1.237   1.518 -1.6896  0.8867 -3.0033
  301SOL    HW2  903   1.733   1.177   1.678 -1.7887 -0.3059 -0.5897
  302SOL     OW  904   2.572   1.975   2.655 -0.5085 -0.7376  0.4516
  302SOL    HW1  905   2.614   1.972   2.563 -0.4524 -1.0960  3.3917
  302SOL    HW2  906   2.509   1.900   2.666  1.0290 -0.1120 -2.5493
  303SOL     OW  907   0.053   0.241   2.672 -0.2657 -0.1241 -0.2433
  303SOL    HW1  908   3.103   0.176   2.619 -1.8978 -1.3196  0.6290
  303SOL    HW2  909   0.097   0.318   2.614 -0.4121  1.9582 -1.1686
  304SOL     OW  910   2.902   0.852   1.583  0.8612  0.2155 -0.0324
  304SOL    HW1  911   2.998   0.849   1.553 -3.9466  3.5379 -0.2732
  304SOL    HW2  912   2.878   0.792   1.664 -1.4071 -0.7091  1.1513
  305SOL     OW  913   2.923   3.036   1.682  0.0249 -0.6680  0.3666
  305SOL    HW1  914   2.923   3.089   1.766  1.7684 -0.7982 -4.3004
  305SOL    HW2  915   2.838   3.047   1.629 -0.1104  0.0260  1.1163
  306SOL     OW  916   2.933   1.395   1.503 -0.3169 -0.2352  0.3579
  306SOL    HW1  917   2.871   1.382   1.580 -1.6893  0.3883 -0.2359
  306SOL    HW2  918   2.957   1.316   1.454 -2.0157  1.5647  0.2812
  307SOL     OW  919   1.973   0.483   1.314 -0.7126  0.6053 -0.2093
  307SOL    HW1  920   1.915   0.494   1.396  1.3899 -2.3491  1.1444
  307SOL    HW2  921   1.967   0.570   1.263  0.2238 -0.0363 -0.9461
  308SOL     OW  922   0.012   1.944   1.150 -0.1364 -0.0474 -0.4339
  308SOL    HW1  923   0.075   1.897   1.086  1.5462 -1.1514  3.9960
  308SOL    HW2  924   3.082   2.029   1.108  0.6777 -1.1410 -0.5859
  309SOL     OW  925   2.223   1.818   1.509  0.2175 -0.1046 -0.4861
  309SOL    HW1  926   2.254   1.865   1.427 -2.1315 -0.5637  0.6720
  309SOL    HW2  927   2.254   1.873   1.590  0.9139 -2.5053  0.4839
  310SOL     OW  928   2.432   1.801   2.986  0.3534 -0.7338  0.6417
  310SOL    HW1  929   2.364   1.875   2.997 -2.1520 -0.1618 -0.5201
  310SOL    HW2  930   2.528   1.842   2.971  0.8092  0.7404 -2.0604
  311SOL     OW  931   2.216   1.478   2.668  0.3887  0.4161  0.0334
  311SOL    HW1  932   2.260   1.429   2.588  0.2571  0.3035  1.3630
  311SOL    HW2  933   2.193   1.402   2.738  0.0597 -0.3376 -1.0180
  312SOL     OW  934   1.598   2.151   1.402 -0.3589  0.6146  0.1492
  312SOL    HW1  935   1.556   2.242   1.389 -1.2337  0.7474  2.5116
  312SOL    HW2  936   1.564   2.105   1.490 -0.2641 -0.2222 -0.0735
  313SOL     OW  937   0.304   2.529   1.115 -0.0346 -0.5367 -0.5580
  313SOL    HW1  938   0.397   2.487   1.139  2.9684 -1.2073  1.0879
  313SOL    HW2  939   0.228   2.490   1.174  1.2459 -1.5476 -2.0326
  314SOL     OW  940   0.940   1.685   1.589 -0.0566 -0.0481  0.0118
  314SOL    HW1  941   0.862   1.734   1.544 -0.7830 -1.0687 -1.6437
  314SOL    HW2  942   0.958   1.742   1.673  0.2372  1.2522  0.0509
  315SOL     OW  943   0.648   2.961   2.492  0.1108 -0.0615  0.1715
  315SOL    HW1  944   0.730   3.019   2.516  1.0265  3.4481  1.0208
  315SOL    HW2  945   0.623   2.897   2.569 -1.5637 -2.1799 -2.9538
  316SOL     OW  946   3.008   2.146   0.715  0.0855  0.5571 -0.2089
  316SOL    HW1  947   2.960   2.142   0.629 -0.9972  0.6508  0.8649
  316SOL    HW2  948   3.027   2.054   0.761  0.9822  2.1012  1.8329
  317SOL     OW  949   1.924   0.647   0.457 -0.2049 -0.1883 -0.7036
  317SOL    HW1  950   1.926   0.673   0.559 -3.0630 -1.5627  1.4845
  317SOL    HW2  951   1.979   0.711   0.404 -0.4464 -1.6507  2.5280
  318SOL     OW  952   2.806   2.535   0.154  0.9098 -0.0296 -0.5727
  318SOL    HW1  953   2.748   2.605   0.109  0.8973  0.3223  0.8012
  318SOL    HW2  954   2.814   2.546   0.255 -0.6597 -0.5684 -4.0162
  319SOL     OW  955   1.253   1.669   0.234 -0.6064 -0.3178  0.1520
  319SOL    HW1  956   1.269   1.710   0.145 -1.9661 -0.5643 -1.3059
  319SOL    HW2  957   1.240   1.727   0.311 -1.1012 -2.1291  0.7304
  320SOL     OW  958   0.533   2.743   2.657  0.0722 -0.1807  0.2415
  320SOL    HW1  959   0.498   2.714   2.562 -4.2799 -1.2682 -4.5748
  320SOL    HW2  960   0.566   2.660   2.715  2.8217 -1.7580  0.1096
  321SOL     OW  961   1.068   0.005   0.396  0.1276  0.5729 -0.8193
  321SOL    HW1  962   0.980   3.079   0.430 -1.0891  0.6684  1.7227
  321SOL    HW2  963   1.133   3.038   0.370  0.9297  2.1634 -1.0354
  322SOL     OW  964   2.253   1.198   2.149  0.1889  0.0759 -0.4514
  322SOL    HW1  965   2.152   1.207   2.134 -0.4721  1.1092 -0.9670
  322SOL    HW2  966   2.267   1.104   2.179 -0.2356  1.9519  0.8462
  323SOL     OW  967   2.821   0.832   0.602  0.3608  1.1442  0.0422
  323SOL    HW1  968   2.888   0.773   0.651  3.3427 -3.1359  1.0010
  323SOL    HW2  969   2.863   0.885   0.528 -3.2809 -1.0942  0.9194
  324SOL     OW  970   0.114   0.455   2.514 -0.2862 -0.2201 -0.0219
  324SOL    HW1  971   0.064   0.540   2.537  2.8426 -0.6419 -0.8753
  324SOL    HW2  972   0.216   0.470   2.477  2.3393 -2.8887 -1.9730
  325SOL     OW  973   0.921   3.059   2.444  0.2055 -0.4293 -0.7524
  325SOL    HW1  974   0.921   0.024   2.370 -0.2829  0.5799 -2.4108
  325SOL    HW2  975   0.927   3.093   2.541 -1.0482  2.1323  0.1439
  326SOL     OW  976   2.445   2.806   1.280  0.7373  0.0976  0.7130
  326SOL    HW1  977   2.417   2.758   1.192 -1.2165  1.2162  0.0576
  326SOL    HW2  978   2.435   2.746   1.362 -0.7881  0.7917 -1.3831
  327SOL     OW  979   1.944   0.875   0.153  0.3296 -0.0594  0.1101
  327SOL    HW1  980   1.983   0.864   0.244 -1.0536  0.6699  0.8032
  327SOL    HW2  981   1.885   0.797   0.134  2.9709 -0.4188  0.9557
  328SOL     OW  982   2.988   1.933   1.935 -0.3145  0.1237  0.0407
  328SOL    HW1  983   3.050   1.939   2.017  1.1489 -0.0001 -1.0900
  328SOL    HW2  984   2.898   1.970   1.958 -0.6231 -0.0166  0.3897
  329SOL     OW  985   1.793   2.776   1.806  0.3838 -0.1649  0.1869
  329SOL    HW1  986   1.727   2.753   1.876  2.2895  2.1072 -1.0111
  329SOL    HW2  987   1.760   2.849   1.738  0.1511  1.2264 -0.8870
  330SOL     OW  988   2.495   1.663   1.845 -0.0009 -0.0553 -0.2944
  330SOL    HW1  989   2.528   1.596   1.913  1.1526  0.6047  0.1230
  330SOL    HW2  990   2.563   1.689   1.773 -1.5291  0.2822 -0.6115
  331SOL     OW  991   2.998   2.153   1.024  0.5010 -0.2799  0.0902
  331SOL    HW1  992   3.035   2.165   0.935 -0.9950 -0.1488  2.0847
  331SOL    HW2  993   2.969   2.243   1.059  0.6379 -1.0335 -0.9537
  332SOL     OW  994   0.338   2.978   0.535 -0.1531 -0.0659  0.1681
  332SOL    HW1  995   0.377   3.044   0.465  0.8644 -0.5788  1.6415
  332SOL    HW2  996   0.335   2.885   0.497  0.7904  2.8140  0.1901
  333SOL     OW  997   1.966   0.352   2.391  0.3517  0.0585  0.1263
  333SOL    HW1  998   1.917   0.260   2.395 -0.9116  0.2637  0.8394
  333SOL    HW2  999   2.066   0.337   2.388 -2.2020 -2.1701  2.9580
  334SOL     OW 1000   0.669   1.430   0.798  0.0054 -0.0763  0.3227
  334SOL    HW1 1001   0.729   1.349   0.797 -1.4710 -0.2967  0.8229
  334SOL    HW2 1002   0.681   1.473   0.708  0.3794 -2.4845 -0.3692
  335SOL     OW 1003   0.117   2.741   2.264 -0.6399 -0.0832 -0.3636
  335SOL    HW1 1004   0.067   2.822   2.223 -0.3816  1.4340 -1.1382
  335SOL    HW2 1005   0.134   2.661   2.197  0.8017 -1.9387  2.4404
  336SOL     OW 1006   2.989   0.081   1.924  0.2139 -0.1760 -0.0777
  336SOL    HW1 1007   2.952   0.019   1.997 -0.5012 -0.8016  0.3273
  336SOL    HW2 1008   2.958   0.174   1.926  1.1927 -4.4047 -0.6017
  337SOL     OW 1009   1.996   1.481   0.481  0.4002 -0.0981  0.1335
  337SOL    HW1 1010   2.081   1.471   0.537  1.7657 -1.0204 -0.6208
  337SOL    HW2 1011   1.993   1.409   0.411 -0.5172  1.8479 -0.8471
  338SOL     OW 1012   0.720   1.921   1.210  0.2611 -0.1941  0.7548
  338SOL    HW1 1013   0.721   1.820   1.190  1.2795 -0.1821  0.0609
  338SOL    HW2 1014   0.805   1.963   1.257 -0.7932  0.2309  0.3887
  339SOL     OW 1015   3.047   0.862   1.141 -0.1697  0.4156  0.6623
  339SOL    HW1 1016   0.030   0.864   1.186  2.8886 -3.0972 -0.6845
  339SOL    HW2 1017   2.978   0.906   1.203 -0.3720 -1.1356  1.6034
  340SOL     OW 1018   1.469   2.903   2.230 -0.2079 -0.0662  0.0050
  340SOL    HW1 1019   1.423   2.815   2.256  0.5316  0.9301 -0.0610
  340SOL    HW2 1020   1.548   2.917   2.297  0.3437  0.5780  0.2674
  341SOL     OW 1021   2.235   1.430   0.605  0.0657  0.0914  0.1658
  341SOL    HW1 1022   2.246   1.463   0.703  2.4742 -0.7520 -1.6287
  341SOL    HW2 1023   2.250   1.329   0.596 -2.1213  1.1344  0.7749
  342SOL     OW 1024   2.918   1.649   0.650  0.0858  0.7385 -0.2216
  342SOL    HW1 1025   2.816   1.659   0.652 -0.5886  0.2773 -1.5309
  342SOL    HW2 1026   2.955   1.721   0.707 -0.0862 -0.0840 -1.2922
  343SOL     OW 1027   2.527   1.225   1.587  0.5287  0.2837  0.1637
  343SOL    HW1 1028   2.485   1.153   1.648  2.6728  1.5485  0.8874
  343SOL    HW2 1029   2.610   1.261   1.635  0.7003  1.4936  2.5555
  344SOL     OW 1030   1.767   0.868   0.917  0.5354 -0.3625 -0.1372
  344SOL    HW1 1031   1.687   0.803   0.925  0.8048 -2.0633 -0.1878
  344SOL    HW2 1032   1.801   0.895   1.008  1.0000 -1.5173  0.5875
  345SOL     OW 1033   0.116   0.002   2.440 -0.0056  0.6887 -0.3552
  345SOL    HW1 1034   0.108   3.063   2.532  0.7265  0.8596  0.8238
  345SOL    HW2 1035   0.207   0.045   2.429 -0.0357 -0.1042 -0.6618
  346SOL     OW 1036   2.997   1.536   0.015 -0.4464  0.4463 -0.2393
  346SOL    HW1 1037   3.098   1.530   0.022  2.7778 -0.1957 -1.4010
  346SOL    HW2 1038   2.962   1.471   3.053  1.8368  0.4041  1.9551
  347SOL     OW 1039   1.508   2.677   1.633 -0.0732  0.2706  0.1887
  347SOL    HW1 1040   1.568   2.617   1.690  3.3009 -0.2216  1.8088
  347SOL    HW2 1041   1.552   2.685   1.542  0.1195  3.7485 -3.9862
  348SOL     OW 1042   1.345   1.272   1.823  0.4653  0.4747 -0.0324
  348SOL    HW1 1043   1.291   1.353   1.799  0.6344 -3.6657  0.8604
  348SOL    HW2 1044   1.311   1.228   1.909  0.3314  0.7442  0.4691
  349SOL     OW 1045   2.185   1.625   2.432 -0.6625 -0.0621 -0.2725
  349SOL    HW1 1046   2.210   1.589   2.522 -1.1011  0.7399 -2.6505
  349SOL    HW2 1047   2.242   1.707   2.416  1.0349  0.3123 -1.0713
  350SOL     OW 1048   2.435   2.347   0.345 -0.7872 -0.1885 -0.3498
  350SOL    HW1 1049   2.460   2.422   0.279 -0.4085  1.1525 -2.2287
  350SOL    HW2 1050   2.336   2.348   0.365  2.0545 -0.5289  0.1363
  351SOL     OW 1051   0.224   0.160   1.637  0.7339  0.0753 -0.0624
  351SOL    HW1 1052   0.266   0.248   1.624 -2.6024 -0.3838 -2.1201
  351SOL    HW2 1053   0.144   0.150   1.572 -2.9535 -2.1494  2.7535
  352SOL     OW 1054   1.281   2.390   1.774  0.1613 -0.1399 -0.1031
  352SOL    HW1 1055   1.260   2.488   1.786  0.5350 -0.8969 -0.8318
  352SOL    HW2 1056   1.268   2.368   1.672  0.7054  0.6044 -0.5918
  353SOL     OW 1057   0.951   1.030   2.400 -0.5111  0.0768  0.1575
  353SOL    HW1 1058   0.902   1.016   2.488  0.7355 -1.2124  2.4741
  353SOL    HW2 1059   0.976   0.936   2.360  0.0652 -2.1246 -1.7465
  354SOL     OW 1060   1.166   1.738   0.627 -0.4174 -0.1999  0.1970
  354SOL    HW1 1061   1.208   1.789   0.544  0.0420  2.8282 -1.6618
  354SOL    HW2 1062   1.078   1.781   0.650  2.7781 -2.0080 -0.6027
  355SOL     OW 1063   1.966   0.288   0.835  0.2847 -0.1881  0.0095
  355SOL    HW1 1064   1.920   0.239   0.912 -0.0323 -0.6347 -0.3792
  355SOL    HW2 1065   1.964   0.224   0.754 -1.5141  0.9043 -1.2159
  356SOL     OW 1066   0.024   1.318   2.911 -0.0329  0.2190  0.0190
  356SOL    HW1 1067   0.107   1.260   2.943  0.7620 -2.9239 -0.3488
  356SOL    HW2 1068   3.048   1.263   2.923 -0.1706 -1.0987  1.2638
  357SOL     OW 1069   0.183   3.024   1.980 -0.2039  0.6159 -0.2864
  357SOL    HW1 1070   0.258   3.091   1.974  1.1401  1.9557  0.3497
  357SOL    HW2 1071   0.127   3.044   2.057 -0.3627 -1.6415 -0.1689
  358SOL     OW 1072   0.560   1.248   2.857 -0.5372 -0.1921  0.4252
  358SOL    HW1 1073   0.561   1.149   2.839 -0.0699 -0.1005 -1.9405
  358SOL    HW2 1074   0.504   1.274   2.937  0.4495 -0.3149  1.8786
  359SOL     OW 1075   2.810   2.603   2.243  0.1776  0.3135  0.1725
  359SOL    HW1 1076   2.729   2.547   2.218 -0.5385 -1.5702 -1.3664
  359SOL    HW2 1077   2.895   2.547   2.252 -0.3023 -0.8177 -0.9096
  360SOL     OW 1078   1.590   1.333   1.095  0.3768 -0.0112  0.0355
  360SOL    HW1 1079   1.507   1.299   1.046 -2.1684  0.6138  1.3300
  360SOL    HW2 1080   1.576   1.426   1.129 -0.9028 -0.5836 -0.7629
  361SOL     OW 1081   1.927   2.145   1.331  0.1816  0.1387 -0.4990
  361SOL    HW1 1082   1.862   2.102   1.395  1.6200 -2.4911 -0.1542
  361SOL    HW2 1083   1.981   2.211   1.380 -4.8481 -1.1784 -3.6015
  362SOL     OW 1084   1.601   1.423   0.791 -0.1711  0.5139 -0.3443
  362SOL    HW1 1085   1.686   1.456   0.743  1.2719  0.2548  0.1483
  362SOL    HW2 1086   1.547   1.501   0.832 -1.4573  0.7752 -2.4212
  363SOL     OW 1087   2.272   2.333   0.566  0.7730  0.2540 -0.1120
  363SOL    HW1 1088   2.375   2.360   0.561  1.1690 -0.3109  0.1145
  363SOL    HW2 1089   2.224   2.378   0.642  0.2865 -3.9649  0.3925
  364SOL     OW 1090   3.101   0.199   1.064  0.1212 -0.3277  0.2082
  364SOL    HW1 1091   3.089   0.105   1.100  0.5934 -2.4263 -3.3686
  364SOL    HW2 1092   0.037   0.253   1.136  0.1305 -0.5146  0.2381
  365SOL     OW 1093   0.543   2.736   0.866 -0.1291  0.0633 -0.6032
  365SOL    HW1 1094   0.519   2.789   0.950  0.0107  1.4894  3.6140
  365SOL    HW2 1095   0.646   2.743   0.853  1.8555  1.1888  0.9388
  366SOL     OW 1096   0.302   1.417   0.512  0.4977 -0.1051  0.2284
  366SOL    HW1 1097   0.371   1.453   0.448 -1.7206 -0.4022  3.7868
  366SOL    HW2 1098   0.298   1.475   0.596 -1.8203 -0.6929  0.4753
  367SOL     OW 1099   2.667   2.437   2.828  0.0913 -0.1279  0.4128
  367SOL    HW1 1100   2.668   2.394   2.922 -1.8689 -1.4447  0.2943
  367SOL    HW2 1101   2.686   2.364   2.758 -0.6518 -0.2058  0.5778
  368SOL     OW 1102   2.466   1.900   0.722  0.2790  0.2846  0.0632
  368SOL    HW1 1103   2.383   1.920   0.665 -3.0775 -0.6760 -1.4324
  368SOL    HW2 1104   2.485   1.801   0.716  0.3050 -0.0686 -0.2353
  369SOL     OW 1105   0.957   0.991   0.497 -0.2189  0.8209 -0.4362
  369SOL    HW1 1106   0.936   1.012   0.400  3.1456  0.6656 -0.0935
  369SOL    HW2 1107   1.041   1.037   0.520 -2.4625  1.1047 -1.9612
  370SOL     OW 1108   0.210   2.792   1.154 -0.6468 -0.1883  0.3326
  370SOL    HW1 1109   0.284   2.814   1.084 -0.8252  0.0687  0.1886
  370SOL    HW2 1110   0.208   2.690   1.160 -0.0892  2.6628  2.1459
  371SOL     OW 1111   2.794   1.252   2.696 -0.3142 -0.1237 -0.4711
  371SOL    HW1 1112   2.791   1.344   2.652  3.0893 -2.0972  0.1537
  371SOL    HW2 1113   2.708   1.200   2.674 -1.4643  0.1652 -0.3631
  372SOL     OW 1114   0.629   0.444   2.301  0.8519  0.1907 -0.2353
  372SOL    HW1 1115   0.602   0.401   2.215  0.8645 -0.6890  2.4893
  372SOL    HW2 1116   0.649   0.364   2.368 -1.1087 -1.5786 -0.5176
  373SOL     OW 1117   0.817   0.366   0.077  0.5233 -0.4189 -0.2030
  373SOL    HW1 1118   0.896   0.416   0.030 -0.8855 -0.7511 -0.7203
  373SOL    HW2 1119   0.843   0.305   0.154 -3.3554  1.3367 -4.3321
  374SOL     OW 1120   1.129   2.245   0.060 -0.6367  0.0525  0.5904
  374SOL    HW1 1121   1.218   2.252   0.013  0.1610  0.6194  0.2186
  374SOL    HW2 1122   1.109   2.145   0.073  1.8786 -1.2898  2.2281
  375SOL     OW 1123   0.949   2.945   1.307 -0.3158 -0.2396 -0.3405
  375SOL    HW1 1124   1.020   2.885   1.269  1.0003  0.2946 -1.4786
  375SOL    HW2 1125   0.854   2.910   1.288 -0.8906  0.0650  0.6059
  376SOL     OW 1126   0.350   2.172   2.084  0.2290 -0.5886 -0.0116
  376SOL    HW1 1127   0.384   2.269   2.098 -0.4694  0.3527 -1.9258
  376SOL    HW2 1128   0.378   2.114   2.159 -1.2214 -1.5182  1.2336
  377SOL     OW 1129   2.102   2.235   2.957  0.2586 -0.0395  0.0982
  377SOL    HW1 1130   2.043   2.162   2.917  0.3153  4.1631  0.8028
  377SOL    HW2 1131   2.071   2.323   2.914  0.2582 -1.3273  0.7931
  378SOL     OW 1132   2.218   0.341   0.634  0.1583  0.0315  0.3245
  378SOL    HW1 1133   2.166   0.423   0.671  0.7580  2.8601  0.0483
  378SOL    HW2 1134   2.311   0.333   0.668 -1.5400 -0.3150  0.0177
  379SOL     OW 1135   1.223   0.645   0.977  0.2759  0.0197 -0.0207
  379SOL    HW1 1136   1.240   0.567   0.912  0.8350  0.9355 -2.0927
  379SOL    HW2 1137   1.225   0.610   1.073 -1.1415  0.6547 -2.5578
  380SOL     OW 1138   2.817   2.347   1.829 -0.3569  0.2589  0.5219
  380SOL    HW1 1139   2.889   2.365   1.900  0.4055 -0.2829  2.7351
  380SOL    HW2 1140   2.839   2.283   1.755  0.9610 -1.5157  2.3021
  381SOL     OW 1141   2.817   1.498   1.900  0.2196  0.0346 -0.0325
  381SOL    HW1 1142   2.878   1.570   1.869 -1.3962  1.7185  0.6481
  381SOL    HW2 1143   2.748   1.525   1.969 -2.8257 -5.5164 -1.1568
  382SOL     OW 1144   3.107   2.157   2.811  0.0667 -0.4305  0.3303
  382SOL    HW1 1145   3.064   2.250   2.795  0.9618  2.9064  0.5947
  382SOL    HW2 1146   0.021   2.153   2.908 -2.8703  0.7871 -4.0906
  383SOL     OW 1147   1.273   0.657   2.452 -0.0218  0.4981  0.1356
  383SOL    HW1 1148   1.271   0.752   2.490 -1.7910  3.2665 -0.3623
  383SOL    HW2 1149   1.184   0.611   2.465  1.7304 -0.9749 -1.5169
  384SOL     OW 1150   1.297   2.086   2.224 -0.1729 -0.3910  0.0905
  384SOL    HW1 1151   1.322   2.069   2.320 -0.5849  2.3829  1.2878
  384SOL    HW2 1152   1.257   2.004   2.179  1.0484 -1.6777  2.2057
  385SOL     OW 1153   2.423   2.780   0.105 -0.3181 -0.3480  0.0185
  385SOL    HW1 1154   2.419   2.678   0.076 -0.1716 -0.7335 -1.9612
  385SOL    HW2 1155   2.395   2.791   0.199 -2.2450 -0.0969 -1.9223
  386SOL     OW 1156   1.493   1.224   0.629  0.0614  0.2938 -0.1379
  386SOL    HW1 1157   1.527   1.296   0.690 -0.5656 -1.6496 -0.2821
  386SOL    HW2 1158   1.548   1.138   0.642  0.0365 -1.3605 -1.1206
  387SOL     OW 1159   0.010   1.698   1.613  0.8056  0.6725 -0.0656
  387SOL    HW1 1160   0.099   1.650   1.594  1.3940  2.2775  1.8720
  387SOL    HW2 1161   3.083   1.743   1.527 -0.4457  2.0072 -1.0687
  388SOL     OW 1162   0.595   1.138   1.533  0.3065 -0.2754  0.2857
  388SOL    HW1 1163   0.668   1.183   1.484 -1.9541  0.3637  1.4828
  388SOL    HW2 1164   0.636   1.048   1.553  0.2504 -0.3967 -0.0120
  389SOL     OW 1165   2.027   1.064   2.562  0.2098 -0.3947 -0.0413
  389SOL    HW1 1166   2.086   0.988   2.600 -0.0889  0.5782 -2.4015
  389SOL    HW2 1167   1.935   1.060   2.614 -4.9945 -1.7877  0.5068
  390SOL     OW 1168   0.937   1.889   0.255  0.3854 -0.4002  0.0565
  390SOL    HW1 1169   0.838   1.911   0.263  1.1943 -0.6788 -0.6445
  390SOL    HW2 1170   0.961   1.814   0.321 -0.5395  0.7362  1.3535
  391SOL     OW 1171   0.956   1.887   0.716  0.0180 -0.1173  0.2785
  391SOL    HW1 1172   0.878   1.956   0.697 -0.7209  1.3660 -2.2384
  391SOL    HW2 1173   0.929   1.823   0.792 -0.8626 -0.4458  2.2183
  392SOL     OW 1174   2.891   2.771   2.048  0.1298  0.4750 -0.1094
  392SOL    HW1 1175   2.945   2.721   1.983 -0.4089  0.9273  0.8853
  392SOL    HW2 1176   2.849   2.716   2.120 -0.7606  1.9594 -2.4622
  393SOL     OW 1177   1.534   2.128   2.938 -0.6900 -0.2027 -0.3301
  393SOL    HW1 1178   1.565   2.047   2.992 -1.0309  1.1687  0.8760
  393SOL    HW2 1179   1.607   2.195   2.916 -1.8093  4.8180  3.2998
  394SOL     OW 1180   0.429   0.042   2.493  0.6892  0.0651  0.4180
  394SOL    HW1 1181   0.396   0.085   2.406  0.0702  1.1054  2.6022
  394SOL    HW2 1182   0.509   3.094   2.473 -1.2705  0.3911  1.4742
  395SOL     OW 1183   3.094   1.319   1.166  0.0722 -0.2085  0.4107
  395SOL    HW1 1184   3.098   1.404   1.223 -0.8817  1.0858  0.9249
  395SOL    HW2 1185   0.079   1.290   1.143  1.0274 -0.1576  0.0341
  396SOL     OW 1186   2.178   1.306   2.868  0.1281 -0.6252  0.1891
  396SOL    HW1 1187   2.084   1.270   2.888 -0.4483 -2.2117  0.3185
  396SOL    HW2 1188   2.220   1.352   2.951 -1.0923 -2.2412 -0.1621
  397SOL     OW 1189   0.521   0.861   3.093  0.0943 -0.3301  0.2138
  397SOL    HW1 1190   0.616   0.844   0.014 -1.2866 -0.2825 -2.3863
  397SOL    HW2 1191   0.515   0.893   2.998  0.1563 -0.9475 -3.6374
  398SOL     OW 1192   0.995   2.545   0.316 -0.3386  0.1444 -0.4123
  398SOL    HW1 1193   1.089   2.524   0.351  1.2345  0.9297  3.9932
  398SOL    HW2 1194   0.943   2.589   0.390 -0.4725 -1.3467  0.1442
  399SOL     OW 1195   1.926   2.734   2.408 -0.1028  0.2722 -0.1360
  399SOL    HW1 1196   2.012   2.727   2.469  5.5472 -0.6401 -0.7570
  399SOL    HW2 1197   1.941   2.697   2.313 -0.0690  0.4634  1.7750
  400SOL     OW 1198   0.065   1.074   1.978  0.5123 -0.0487 -0.0260
  400SOL    HW1 1199   0.019   1.169   1.981 -0.4316  0.8640 -1.7938
  400SOL    HW2 1200   0.077   1.047   1.885 -0.3342 -1.7563  2.0501
  401SOL     OW 1201   0.649   0.804   0.818 -0.1415  0.6566  0.4831
  401SOL    HW1 1202   0.609   0.739   0.882  1.6274  0.6230  0.3784
  401SOL    HW2 1203   0.746   0.818   0.847  1.0328 -3.3125 -2.4452
  402SOL     OW 1204   0.869   3.089   2.736 -0.2249  0.0239 -0.1761
  402SOL    HW1 1205   0.812   0.060   2.769 -0.2190  2.0027  3.2625
  402SOL    HW2 1206   0.844   3.008   2.797  1.0289  0.6380  1.5970
  403SOL     OW 1207   2.603   1.974   1.777  0.5896  0.5496  0.5837
  403SOL    HW1 1208   2.674   2.003   1.851  0.6044  1.1224  1.8301
  403SOL    HW2 1209   2.641   1.899   1.714 -1.9292 -3.1172 -0.9238
  404SOL     OW 1210   2.588   2.413   1.500 -0.1234 -0.2557  0.0281
  404SOL    HW1 1211   2.679   2.452   1.479  0.2426 -2.7929 -1.4596
  404SOL    HW2 1212   2.600   2.315   1.526 -1.6129  2.8408  1.1633
  405SOL     OW 1213   1.799   0.289   2.751  0.1302  0.4881  0.4324
  405SOL    HW1 1214   1.818   0.274   2.655 -0.8284  2.1126  0.3224
  405SOL    HW2 1215   1.705   0.321   2.760  2.6293  0.3698 -1.6724
  406SOL     OW 1216   1.113   1.972   0.063  0.7751 -0.1091  0.1690
  406SOL    HW1 1217   1.184   1.902   0.052  1.2691 -1.8498 -1.3815
  406SOL    HW2 1218   1.045   1.943   0.137 -0.5621 -1.1762  1.2229
  407SOL     OW 1219   1.606   1.547   0.490  0.1418  0.1481 -0.2301
  407SOL    HW1 1220   1.521   1.509   0.535  0.5926 -0.4068  0.1143
  407SOL    HW2 1221   1.674   1.567   0.564  1.8600  2.4398 -0.4338
  408SOL     OW 1222   3.004   0.376   1.534 -0.1638  0.1853  0.0073
  408SOL    HW1 1223   3.091   0.430   1.541  1.7952  0.1339  1.7326
  408SOL    HW2 1224   3.006   0.319   1.454 -1.7722  0.8020  3.4712
  409SOL     OW 1225   2.622   1.346   3.023 -0.3293 -0.6345 -0.1262
  409SOL    HW1 1226   2.625   1.267   3.083  0.1076  2.0799 -0.3758
  409SOL    HW2 1227   2.562   1.425   3.059  1.5431  4.1369  0.3304
  410SOL     OW 1228   2.513   2.323   0.822  0.4698 -0.5646 -0.0449
  410SOL    HW1 1229   2.440   2.312   0.893 -1.1649  0.5997  2.7058
  410SOL    HW2 1230   2.558   2.234   0.801  0.0608  0.6254  2.2035
  411SOL     OW 1231   0.458   0.009   0.318 -0.1816 -0.1748 -0.3161
  411SOL    HW1 1232   0.444   0.109   0.307 -3.0207 -0.0846 -0.7036
  411SOL    HW2 1233   0.538   3.089   0.266 -1.1665 -1.6917  0.3343
  412SOL     OW 1234   1.797   3.029   0.384 -0.5661 -0.2603  0.1273
  412SOL    HW1 1235   1.802   2.997   0.284 -1.0367 -0.5346 -1.8462
  412SOL    HW2 1236   1.837   2.955   0.441  0.1668 -0.7842  1.4519
  413SOL     OW 1237   1.800   0.548   2.273 -0.2870 -0.0089 -0.6967
  413SOL    HW1 1238   1.854   0.469   2.303 -0.2106  0.0737 -0.7629
  413SOL    HW2 1239   1.737   0.517   2.203  5.5372  1.5381  1.7915
  414SOL     OW 1240   0.044   0.534   0.496 -0.5668 -0.6858 -0.1763
  414SOL    HW1 1241   0.081   0.582   0.411  0.2622  1.5398 -1.4615
  414SOL    HW2 1242   0.116   0.508   0.559 -2.9772  1.4895  0.1842
  415SOL     OW 1243   2.955   0.999   0.430  0.0914 -0.1307  0.4235
  415SOL    HW1 1244   2.901   1.042   0.356 -0.3339  1.5626  2.3971
  415SOL    HW2 1245   2.956   1.047   0.525 -0.3629  2.1672  1.8434
  416SOL     OW 1246   0.066   0.364   2.898  0.3436  0.0406  0.0199
  416SOL    HW1 1247   0.054   0.312   2.814  1.2603  0.0665  0.4784
  416SOL    HW2 1248   0.162   0.412   2.886  2.3483  0.5230  1.8830
  417SOL     OW 1249   2.431   0.291   0.792  0.4135 -0.1827  0.3722
  417SOL    HW1 1250   2.355   0.278   0.859 -2.2017  1.9269 -1.1605
  417SOL    HW2 1251   2.503   0.351   0.829  2.4298 -2.1619 -0.4411
  418SOL     OW 1252   0.630   3.052   3.059 -0.3225  0.0993 -0.0583
  418SOL    HW1 1253   0.636   3.053   0.053 -0.8303 -0.1806 -0.8616
  418SOL    HW2 1254   0.554   2.988   3.030 -1.4079  0.2419 -0.3986
  419SOL     OW 1255   0.233   0.611   0.939  0.5230  0.3381 -0.3481
  419SOL    HW1 1256   0.234   0.714   0.940  0.3615 -1.6378  2.0308
  419SOL    HW2 1257   0.326   0.567   0.940  1.3779 -0.7075  1.3262
  420SOL     OW 1258   3.007   1.182   1.368 -0.4169  0.1458  0.0613
  420SOL    HW1 1259   3.022   1.247   1.287  0.1136  1.1831  0.5040
  420SOL    HW2 1260   2.951   1.099   1.348 -2.4360  0.9156  0.2901
  421SOL     OW 1261   0.960   1.984   2.943 -0.3010  0.1110  0.0984
  421SOL    HW1 1262   1.003   1.964   3.032  1.5662 -1.4556  1.0922
  421SOL    HW2 1263   1.024   1.981   2.866 -0.4683 -1.4201 -0.0015
  422SOL     OW 1264   2.513   0.431   2.225 -0.4239  0.3813 -0.1897
  422SOL    HW1 1265   2.537   0.336   2.252  0.9932  0.9404 -2.1560
  422SOL    HW2 1266   2.463   0.419   2.139  1.4746 -1.6433 -0.1243
  423SOL     OW 1267   2.030   1.535   0.006 -0.4019 -0.0530 -0.6886
  423SOL    HW1 1268   2.028   1.607   3.042  2.6768 -0.2632 -2.9497
  423SOL    HW2 1269   1.936   1.493   0.025 -1.9422 -1.9765 -0.6798
  424SOL     OW 1270   1.009   1.187   1.910  0.2646 -0.2499 -0.2896
  424SOL    HW1 1271   0.948   1.128   1.963  0.0774  3.1011 -1.9146
  424SOL    HW2 1272   1.103   1.174   1.947 -3.3979 -0.3714  2.3445
  425SOL     OW 1273   0.132   2.530   2.074 -0.2438 -0.0049  0.3444
  425SOL    HW1 1274   0.206   2.462   2.084  0.9574  1.6495 -1.7006
  425SOL    HW2 1275   0.150   2.595   1.995 -1.3553  3.8164 -1.6112
  426SOL     OW 1276   2.195   2.637   0.660  0.6493 -0.3320 -0.5828
  426SOL    HW1 1277   2.285   2.633   0.708 -1.3547 -2.0524 -0.6315
  426SOL    HW2 1278   2.114   2.635   0.725  0.5222  2.3096 -2.5458
  427SOL     OW 1279   0.772   0.662   2.931  0.3729  1.0311  0.6274
  427SOL    HW1 1280   0.780   0.732   3.011 -2.2918  3.6483 -0.7079
  427SOL    HW2 1281   0.719   0.581   2.957 -0.4339  1.1657 -0.7673
  428SOL     OW 1282   2.861   1.461   2.879 -0.0784 -0.1944 -0.0866
  428SOL    HW1 1283   2.770   1.426   2.923 -4.3413 -3.7557 -0.2894
  428SOL    HW2 1284   2.875   1.413   2.791 -0.9509 -0.5168 -2.2442
  429SOL     OW 1285   2.556   0.450   0.440 -0.6110 -0.1539 -0.2894
  429SOL    HW1 1286   2.566   0.358   0.480 -0.5771 -0.5024  0.0065
  429SOL    HW2 1287   2.480   0.503   0.483  0.0943  0.2799  3.4043
  430SOL     OW 1288   1.400   1.995   2.481 -0.1688 -0.0313  0.5064
  430SOL    HW1 1289   1.487   2.003   2.433 -2.0006  1.5389 -2.4960
  430SOL    HW2 1290   1.409   2.052   2.566  1.8518  1.9734 -2.5572
  431SOL     OW 1291   0.128   1.997   1.373 -0.2381 -0.7736 -0.2286
  431SOL    HW1 1292   0.082   1.972   1.289  0.9864  0.7728 -1.1764
  431SOL    HW2 1293   0.068   2.012   1.453  1.0996 -0.9736  1.0317
  432SOL     OW 1294   1.699   2.813   2.065  0.4024 -0.1479 -0.1693
  432SOL    HW1 1295   1.745   2.736   2.112 -0.8491  0.5787  0.2011
  432SOL    HW2 1296   1.605   2.821   2.096  1.8640  0.3321 -0.9554
  433SOL     OW 1297   0.928   2.215   0.290  0.1124  0.4647  0.3479
  433SOL    HW1 1298   0.977   2.249   0.209 -1.8059 -1.6115 -1.8913
  433SOL    HW2 1299   0.850   2.156   0.258 -1.7889  2.0114 -2.2755
  434SOL     OW 1300   0.451   2.342   2.643 -0.6219  0.4227  0.0892
  434SOL    HW1 1301   0.552   2.330   2.647  0.2422 -0.9751  2.0070
  434SOL    HW2 1302   0.405   2.299   2.722  2.3906  0.6335  2.5450
  435SOL     OW 1303   0.173   0.794   0.592  0.0407 -0.2408  0.4325
  435SOL    HW1 1304   0.134   0.704   0.613  1.2459 -1.9067  1.7737
  435SOL    HW2 1305   0.254   0.774   0.529  1.0840 -1.7949 -0.5210
  436SOL     OW 1306   0.443   2.686   1.791 -0.3732  0.1955  0.4274
  436SOL    HW1 1307   0.475   2.590   1.793  0.6988 -0.4151  1.5114
  436SOL    HW2 1308   0.522   2.749   1.798  0.7313  0.4024  1.4948
  437SOL     OW 1309   0.753   3.102   0.857  0.2889 -0.1484  0.1839
  437SOL    HW1 1310   0.826   0.038   0.804 -0.3825 -1.0719  1.0074
  437SOL    HW2 1311   0.660   0.025   0.830 -2.0836 -1.2060 -0.7271
  438SOL     OW 1312   0.422   2.073   0.637  0.0774 -0.6382 -0.4791
  438SOL    HW1 1313   0.450   2.142   0.707 -1.1563  1.9652  0.8432
  438SOL    HW2 1314   0.365   1.998   0.682 -2.0893 -1.1097  1.7044
  439SOL     OW 1315   0.753   2.518   1.664 -0.2605  0.1630  0.4473
  439SOL    HW1 1316   0.676   2.522   1.730 -0.2322  2.5771 -0.9588
  439SOL    HW2 1317   0.739   2.572   1.576  1.3766  0.6139  0.1678
  440SOL     OW 1318   1.833   3.091   1.856 -0.2970 -0.1682 -0.1249
  440SOL    HW1 1319   1.832   3.022   1.927 -0.1473  2.8105 -1.5874
  440SOL    HW2 1320   1.762   3.070   1.787 -0.7352 -1.2755  1.2746
  441SOL     OW 1321   2.999   0.336   1.794  0.6893 -0.0582 -0.2763
  441SOL    HW1 1322   3.082   0.289   1.819 -2.0454  3.5377 -3.6330
  441SOL    HW2 1323   2.983   0.334   1.693 -0.3709  3.1215 -0.6215
  442SOL     OW 1324   2.018   2.362   0.751 -0.2684 -0.0807 -0.4260
  442SOL    HW1 1325   1.973   2.309   0.675  0.1448  0.5202 -0.9041
  442SOL    HW2 1326   2.044   2.296   0.829  0.9491 -0.9199  0.2124
  443SOL     OW 1327   2.707   0.835   2.159 -0.0171  0.3238 -0.4705
  443SOL    HW1 1328   2.617   0.845   2.114  2.1239 -0.2680  0.3343
  443SOL    HW2 1329   2.694   0.765   2.236  0.1080  0.0845 -0.8450
  444SOL     OW 1330   1.897   1.045   2.033  0.4266  0.2899  0.1442
  444SOL    HW1 1331   1.915   1.035   1.935 -0.5038 -1.0563 -1.3119
  444SOL    HW2 1332   1.853   0.961   2.070  1.5348 -2.1496 -3.4885
  445SOL     OW 1333   2.961   2.454   1.043 -0.2845  0.0723  0.4893
  445SOL    HW1 1334   2.984   2.548   1.074  0.3575  0.0381 -1.7081
  445SOL    HW2 1335   3.028   2.422   0.969  2.1077  0.0978 -1.3332
  446SOL     OW 1336   2.705   1.581   0.969  0.0677  0.3218 -0.1271
  446SOL    HW1 1337   2.739   1.673   0.994 -1.2257  0.2892  2.3462
  446SOL    HW2 1338   2.777   1.509   0.983  1.4944 -2.2163 -1.5453
  447SOL     OW 1339   0.594   1.063   0.873 -0.3136 -0.1270  0.5331
  447SOL    HW1 1340   0.593   0.968   0.835  0.5194  0.9272 -1.5992
  447SOL    HW2 1341   0.683   1.105   0.846 -0.6415  0.2755 -0.2383
  448SOL     OW 1342   1.616   1.291   1.798  0.6018 -0.1394 -0.1141
  448SOL    HW1 1343   1.514   1.293   1.791  0.7041 -1.1980 -1.5356
  448SOL    HW2 1344   1.643   1.298   1.896  0.5116  0.6138  1.4433
  449SOL     OW 1345   1.243   1.352   3.101 -0.4844  0.6206  0.0152
  449SOL    HW1 1346   1.313   1.298   3.043  1.9365 -3.2276 -0.6919
  449SOL    HW2 1347   1.163   1.291   3.109  0.6759 -0.6863  2.0806
  450SOL     OW 1348   2.959   2.272   2.097 -0.3809 -0.0837  0.3976
  450SOL    HW1 1349   2.988   2.363   2.138  1.1118 -0.0379 -0.1101
  450SOL    HW2 1350   3.042   2.220   2.072 -1.7408  1.6285  3.4645
  451SOL     OW 1351   2.163   2.920   2.325  0.2905  0.7252  0.0874
  451SOL    HW1 1352   2.079   2.861   2.342  0.1672 -0.4932  1.9796
  451SOL    HW2 1353   2.247   2.879   2.361 -2.5686  2.2133 -0.7265
  452SOL     OW 1354   1.747   3.044   1.309 -0.5553 -0.1059  0.4716
  452SOL    HW1 1355   1.693   0.021   1.322  0.4822 -0.1215 -3.4114
  452SOL    HW2 1356   1.833   3.050   1.359 -1.4526  0.3595 -1.2548
  453SOL     OW 1357   1.632   1.078   1.206  0.0411 -0.3245  0.3976
  453SOL    HW1 1358   1.730   1.049   1.193 -1.1531  0.4817 -3.6171
  453SOL    HW2 1359   1.611   1.166   1.168  0.2898 -0.8870  0.3529
  454SOL     OW 1360   0.123   1.548   0.312  0.1863 -0.2056 -0.3166
  454SOL    HW1 1361   0.164   1.479   0.373 -2.3046  0.8179 -0.8852
  454SOL    HW2 1362   0.029   1.566   0.344  0.7498 -2.9848  0.0029
  455SOL     OW 1363   2.838   0.027   0.490  0.4410  0.2473  0.3919
  455SOL    HW1 1364   2.931   0.049   0.447  0.1570  0.1319 -1.3679
  455SOL    HW2 1365   2.843   3.055   0.553  0.8322 -0.3016  1.6519
  456SOL     OW 1366   2.996   2.726   1.131  0.0863 -0.3444 -0.1485
  456SOL    HW1 1367   3.053   2.782   1.188 -2.1422  0.6771 -0.6946
  456SOL    HW2 1368   2.912   2.767   1.088  1.6922 -1.2764  1.7322
  457SOL     OW 1369   1.225   3.101   0.731  0.4422 -0.0499  0.1419
  457SOL    HW1 1370   1.229   0.052   0.651 -0.7511 -0.4647  1.2382
  457SOL    HW2 1371   1.307   3.108   0.786 -2.7021  0.1518 -2.3491
  458SOL     OW 1372   2.611   0.182   0.499 -0.0711  0.1351 -0.0298
  458SOL    HW1 1373   2.706   0.150   0.499 -1.2140  0.3846 -2.6212
  458SOL    HW2 1374   2.571   0.139   0.415 -0.8105  0.6289  0.6420
  459SOL     OW 1375   2.290   0.618   2.601  0.0288  0.1262 -0.0333
  459SOL    HW1 1376   2.258   0.540   2.547  0.2516  0.7981 -0.5251
  459SOL    HW2 1377   2.320   0.581   2.694  2.1432 -1.5845  1.8801
  460SOL     OW 1378   2.939   3.006   2.846 -0.4465 -0.3664  0.5069
  460SOL    HW1 1379   2.880   3.087   2.828 -1.1506  0.1053 -0.6617
  460SOL    HW2 1380   2.890   2.922   2.868  0.8999  2.4201 -0.8963
  461SOL     OW 1381   0.794   1.642   0.649  0.2245  0.0319  0.6006
  461SOL    HW1 1382   0.870   1.643   0.716  1.3138  1.5330 -0.4373
  461SOL    HW2 1383   0.739   1.722   0.673 -1.7522 -1.5026  1.3543
  462SOL     OW 1384   2.377   2.251   1.055 -0.1903 -0.1539 -0.1732
  462SOL    HW1 1385   2.331   2.245   1.147 -0.2832 -2.7069 -0.4018
  462SOL    HW2 1386   2.362   2.169   1.002  0.5588 -0.1504  0.4748
  463SOL     OW 1387   2.494   1.071   0.643 -0.7206 -0.3322  0.3088
  463SOL    HW1 1388   2.526   1.054   0.550  0.7226 -1.6608 -1.1124
  463SOL    HW2 1389   2.552   1.025   0.710 -0.0303  0.6994  0.7458
  464SOL     OW 1390   0.270   2.983   1.357 -0.7962 -0.2561 -0.1162
  464SOL    HW1 1391   0.224   2.902   1.312 -1.3271 -0.3390  0.9103
  464SOL    HW2 1392   0.281   2.946   1.448 -0.6523  1.0133  0.8794
  465SOL     OW 1393   0.188   1.533   2.973 -0.7023 -0.6271 -0.1150
  465SOL    HW1 1394   0.129   1.454   2.958 -0.7608  1.3534  0.2045
  465SOL    HW2 1395   0.251   1.554   2.894  0.4095 -1.2161  2.5544
  466SOL     OW 1396   1.880   0.045   3.029 -0.6768  0.2770  0.4854
  466SOL    HW1 1397   1.964   0.104   3.043  1.3138 -1.2812 -1.8983
  466SOL    HW2 1398   1.802   0.110   3.012 -1.9771 -1.8932  0.0610
  467SOL     OW 1399   0.858   0.796   1.869 -0.5072  0.5363 -0.1739
  467SOL    HW1 1400   0.762   0.760   1.874 -2.6607  1.8850 -1.4206
  467SOL    HW2 1401   0.886   0.814   1.962 -3.3155 -3.3409  1.1727
  468SOL     OW 1402   0.618   1.001   2.439 -0.0148  0.0983  0.2590
  468SOL    HW1 1403   0.650   1.016   2.533  0.8287 -0.1683 -2.1810
  468SOL    HW2 1404   0.540   0.934   2.438  0.6299 -0.9896  1.6431
  469SOL     OW 1405   0.027   2.207   3.068  0.0154  0.1296  0.0481
  469SOL    HW1 1406   0.004   2.302   3.094  0.3766 -3.1815  1.8265
  469SOL    HW2 1407   3.084   2.141   0.015  0.9577  0.1303  0.8329
  470SOL     OW 1408   2.403   1.746   2.688  0.4477  0.0332  0.1391
  470SOL    HW1 1409   2.406   1.647   2.675  0.6256  0.3389 -0.3546
  470SOL    HW2 1410   2.357   1.778   2.778  2.3568  1.1504  2.6182
  471SOL     OW 1411   2.273   0.921   2.239 -0.0194  0.0926 -0.0515
  471SOL    HW1 1412   2.321   0.907   2.324  0.9546  0.3704 -2.2527
  471SOL    HW2 1413   2.332   0.906   2.160 -0.0597 -0.2955  0.5477
  472SOL     OW 1414   0.399   2.624   0.680  0.0121 -0.4021 -0.0512
  472SOL    HW1 1415   0.375   2.680   0.599  2.1200  4.5900  3.8146
  472SOL    HW2 1416   0.455   2.678   0.746  0.1318 -1.2169 -0.9365
  473SOL     OW 1417   0.647   0.139   2.888 -0.0944  0.1620 -0.1519
  473SOL    HW1 1418   0.643   0.066   2.954  0.5726 -0.9963 -1.1870
  473SOL    HW2 1419   0.659   0.224   2.946  0.7522 -0.7224  1.2026
  474SOL     OW 1420   1.804   0.135   2.443  0.3330  0.2592  0.4591
  474SOL    HW1 1421   1.719   0.187   2.463  0.0385 -0.3956 -1.2087
  474SOL    HW2 1422   1.783   0.081   2.358 -2.1172 -0.7752 -4.3564
  475SOL     OW 1423   1.792   2.504   0.609 -0.1644 -0.0083  1.2625
  475SOL    HW1 1424   1.793   2.402   0.585 -0.6895 -0.6400  1.5614
  475SOL    HW2 1425   1.826   2.555   0.526  4.1205 -2.4083  0.4470
  476SOL     OW 1426   3.067   0.623   0.990  0.5394 -0.0857  0.1677
  476SOL    HW1 1427   3.040   0.706   1.045  0.6287  1.4467  4.1411
  476SOL    HW2 1428   0.052   0.589   1.006  0.2612 -1.5018 -0.4641
  477SOL     OW 1429   1.352   2.198   0.743 -0.2362 -0.0755 -0.2927
  477SOL    HW1 1430   1.424   2.128   0.728 -3.1048  2.3272  1.4256
  477SOL    HW2 1431   1.263   2.151   0.730 -0.1111  0.5885  2.4606
  478SOL     OW 1432   0.240   2.246   2.466  0.6177  0.5091  0.0179
  478SOL    HW1 1433   0.309   2.305   2.507  0.0060  0.6159 -0.2357
  478SOL    HW2 1434   0.283   2.184   2.402  2.2732 -0.3829  2.0048
  479SOL     OW 1435   2.224   0.648   0.976  0.6886 -0.5693  0.5961
  479SOL    HW1 1436   2.233   0.548   0.982  0.6304  0.9721  1.4317
  479SOL    HW2 1437   2.197   0.693   1.065 -0.7267 -1.0590 -0.5714
  480SOL     OW 1438   2.895   2.899   0.108  0.1805 -0.8854 -0.1984
  480SOL    HW1 1439   2.905   3.000   0.122 -1.9689  0.3098 -0.9559
  480SOL    HW2 1440   2.990   2.863   0.074  0.8602 -1.2819  0.6564
  481SOL     OW 1441   2.694   2.535   1.140 -0.2319 -0.1289  0.2491
  481SOL    HW1 1442   2.693   2.598   1.219 -0.2836  0.0401 -0.8630
  481SOL    HW2 1443   2.783   2.520   1.100 -2.3808  0.9383  0.4151
  482SOL     OW 1444   1.117   2.481   2.795  0.1644 -0.1888  0.2247
  482SOL    HW1 1445   1.213   2.494   2.825  1.0745  0.7543 -0.2788
  482SOL    HW2 1446   1.103   2.535   2.708  1.8326  0.7362 -0.6693
  483SOL     OW 1447   0.487   2.000   2.712  0.2392 -0.5349  0.2900
  483SOL    HW1 1448   0.513   2.005   2.810  0.1994  0.5734  1.4741
  483SOL    HW2 1449   0.556   2.035   2.642  0.0930  0.2678  2.8566
  484SOL     OW 1450   1.096   0.950   1.436 -0.0377  0.4675 -0.0254
  484SOL    HW1 1451   1.170   0.884   1.410 -0.6956  0.0904 -3.7879
  484SOL    HW2 1452   1.097   0.976   1.535  0.6575 -0.0786  0.0121
  485SOL     OW 1453   2.402   0.779   0.084  0.7014 -0.0906 -0.3354
  485SOL    HW1 1454   2.390   0.686   0.051 -1.4778  1.6936 -0.8957
  485SOL    HW2 1455   2.439   0.831   0.006 -0.8804  0.5610  2.2854
  486SOL     OW 1456   2.042   0.017   1.179 -0.1657  0.0436 -0.0720
  486SOL    HW1 1457   2.069   3.045   1.236 -1.1633 -2.2538  1.7393
  486SOL    HW2 1458   1.989   0.085   1.236  1.7160 -0.8341 -0.5747
  487SOL     OW 1459   0.229   2.200   1.196 -0.0892 -0.5540 -0.2510
  487SOL    HW1 1460   0.212   2.138   1.276  0.2483 -1.5588 -1.6525
  487SOL    HW2 1461   0.202   2.293   1.227 -0.1523  0.0359 -1.4271
  488SOL     OW 1462   2.792   0.988   0.024 -0.0358  0.6297  0.2571
  488SOL    HW1 1463   2.695   1.016   0.017  0.5193 -0.8810  1.3501
  488SOL    HW2 1464   2.810   0.896   3.099 -0.6358  1.6111 -1.5388
  489SOL     OW 1465   1.804   0.171   1.023  0.3418  0.4831 -0.4494
  489SOL    HW1 1466   1.852   0.166   1.111  0.6813  1.9614 -1.5615
  489SOL    HW2 1467   1.727   0.234   1.028  1.8912 -4.0868  1.6765
  490SOL     OW 1468   0.925   0.501   0.721  0.2617  0.1898  0.1198
  490SOL    HW1 1469   0.849   0.467   0.667 -1.8779  1.5685  0.4187
  490SOL    HW2 1470   0.952   0.596   0.695 -0.6448  0.5761 -1.0001
  491SOL     OW 1471   0.574   2.430   0.678 -1.2635 -0.0553  0.4547
  491SOL    HW1 1472   0.617   2.413   0.587 -1.4221  1.3315  1.7909
  491SOL    HW2 1473   0.499   2.501   0.671 -1.8798 -0.3994  0.0516
  492SOL     OW 1474   1.475   1.653   2.250 -0.0083  0.4084 -0.3474
  492SOL    HW1 1475   1.397   1.622   2.196  0.5180 -0.7098  1.6398
  492SOL    HW2 1476   1.438   1.681   2.340 -2.0728 -0.5149 -1.8591
  493SOL     OW 1477   3.106   2.641   0.750  0.1107  0.2073 -0.2858
  493SOL    HW1 1478   3.009   2.668   0.761 -1.2806  0.9713  0.5375
  493SOL    HW2 1479   0.012   2.554   0.802 -1.0030  1.8028  2.1522
  494SOL     OW 1480   2.735   2.090   0.016  0.1463 -0.2726  0.2601
  494SOL    HW1 1481   2.701   2.026   0.089 -1.4097 -1.5891  1.9799
  494SOL    HW2 1482   2.744   2.042   3.036  0.2379 -0.4648 -1.0193
  495SOL     OW 1483   2.661   1.904   2.890 -0.1395  0.3433  0.1975
  495SOL    HW1 1484   2.631   1.934   2.798 -1.2238 -1.2170 -3.4180
  495SOL    HW2 1485   2.743   1.844   2.874  0.1754  0.6650 -0.4612
  496SOL     OW 1486   2.765   0.017   1.442  0.6904  0.4010 -0.4368
  496SOL    HW1 1487   2.713   0.098   1.482 -0.4185  1.5464  3.2625
  496SOL    HW2 1488   2.692   3.070   1.399 -0.3419 -3.2808  1.0817
  497SOL     OW 1489   2.908   1.143   2.909  0.2683  0.1778 -0.1340
  497SOL    HW1 1490   2.838   1.183   2.843  1.0595  0.2910 -0.5117
  497SOL    HW2 1491   2.854   1.095   2.977  1.4528  2.1215 -2.5756
  498SOL     OW 1492   0.023   1.980   2.156  0.5192 -0.2366  0.5206
  498SOL    HW1 1493   0.051   2.064   2.108 -1.5200 -0.8857  2.2027
  498SOL    HW2 1494   0.007   2.007   2.257  0.3124 -0.0930  2.8581
  499SOL     OW 1495   0.963   2.257   2.774  0.3805  0.2824 -0.3908
  499SOL    HW1 1496   1.023   2.188   2.817 -0.7353  0.0518 -1.3996
  499SOL    HW2 1497   1.008   2.344   2.772 -2.0066 -0.5990  1.2044
  500SOL     OW 1498   1.617   0.229   0.055  0.0210 -0.4397 -0.3356
  500SOL    HW1 1499   1.619   0.124   0.048 -4.2229 -1.8165  0.5908
  500SOL    HW2 1500   1.667   0.253   0.142  0.2157  0.6326 -3.2913
  501SOL     OW 1501   1.483   3.077   1.620  0.1130  0.0103  0.1285
  501SOL    HW1 1502   1.397   3.050   1.572  0.8732  3.4743  0.7906
  501SOL    HW2 1503   1.496   0.066   1.631  2.5991  0.2892  0.9764
  502SOL     OW 1504   2.458   0.893   2.046 -0.6022  0.1628  0.0324
  502SOL    HW1 1505   2.511   0.965   2.000  1.8104 -1.5718  0.1965
  502SOL    HW2 1506   2.410   0.834   1.978  0.0889  3.9847 -1.4039
  503SOL     OW 1507   2.182   2.380   2.344  0.0739  0.6208 -0.3705
  503SOL    HW1 1508   2.272   2.378   2.397  2.6511  2.8026 -0.0324
  503SOL    HW2 1509   2.195   2.423   2.251  1.1583  0.0761 -1.0655
  504SOL     OW 1510   1.339   0.655   1.716  0.0602  0.1207 -0.6049
  504SOL    HW1 1511   1.350   0.746   1.671 -1.0201  0.1334 -0.4665
  504SOL    HW2 1512   1.409   0.632   1.785 -0.2508  2.1780 -1.8762
  505SOL     OW 1513   0.895   0.720   1.437  0.0877 -0.0374  0.2664
  505SOL    HW1 1514   0.970   0.792   1.414  2.2397 -0.0269 -1.8917
  505SOL    HW2 1515   0.895   0.644   1.366 -1.2100 -1.2163 -1.7798
  506SOL     OW 1516   0.379   0.502   2.453 -0.4510 -0.3644  0.0784
  506SOL    HW1 1517   0.471   0.493   2.401 -0.3232  0.5686  0.6049
  506SOL    HW2 1518   0.391   0.572   2.524 -1.3443 -3.3330 -1.3491
  507SOL     OW 1519   0.025   2.840   0.031  0.3546  0.0198 -0.0962
  507SOL    HW1 1520   0.113   2.842   0.084 -0.2104  0.5639  0.5972
  507SOL    HW2 1521   0.027   2.916   3.075  0.0989  1.4301  0.9073
  508SOL     OW 1522   1.363   0.949   1.665 -0.0953  0.2631  0.7947
  508SOL    HW1 1523   1.275   0.983   1.696  0.8614  0.9882 -2.0388
  508SOL    HW2 1524   1.411   1.019   1.608  0.3471  0.6914 -2.4675
  509SOL     OW 1525   1.262   2.078   1.514 -0.3163  0.5349 -0.1243
  509SOL    HW1 1526   1.270   2.042   1.421 -0.6407  0.6709  1.3661
  509SOL    HW2 1527   1.325   2.036   1.584 -1.0304 -1.0876  0.5681
  510SOL     OW 1528   2.441   1.401   2.225 -0.1834 -0.4811  0.2175
  510SOL    HW1 1529   2.453   1.405   2.326  0.6591 -2.7606  0.1868
  510SOL    HW2 1530   2.372   1.341   2.195 -1.2534  0.7989 -0.4840
  511SOL     OW 1531   0.695   1.642   1.235 -0.5117 -0.0537 -0.0121
  511SOL    HW1 1532   0.605   1.661   1.187 -0.8892  0.7184  0.8765
  511SOL    HW2 1533   0.679   1.579   1.314 -4.0013  1.3180  1.5001
  512SOL     OW 1534   2.624   2.112   0.403  0.0106  0.0613  0.1233
  512SOL    HW1 1535   2.585   2.206   0.390  0.6771 -0.5978  0.0620
  512SOL    HW2 1536   2.557   2.040   0.419  2.4079 -0.3861 -1.4868
  513SOL     OW 1537   3.073   1.725   2.615 -0.0664  0.4007  0.1326
  513SOL    HW1 1538   0.033   1.768   2.551 -0.4033  2.2305 -0.5148
  513SOL    HW2 1539   0.004   1.638   2.647  2.3955  0.6767 -0.3473
  514SOL     OW 1540   3.054   2.465   2.240  0.2680  0.2483 -0.1496
  514SOL    HW1 1541   3.081   2.444   2.338  0.3912 -3.5791  2.7184
  514SOL    HW2 1542   0.018   2.502   2.177  0.8302  0.3598  0.9399
  515SOL     OW 1543   2.172   1.416   1.275 -0.0884 -0.1018 -0.0154
  515SOL    HW1 1544   2.097   1.346   1.275 -2.4658 -0.9172 -0.9739
  515SOL    HW2 1545   2.250   1.393   1.340  2.0757  2.4193  0.5458
  516SOL     OW 1546   2.188   2.367   0.094 -0.0072  0.2840  0.4115
  516SOL    HW1 1547   2.168   2.321   0.181  1.3021 -0.0864  1.5643
  516SOL    HW2 1548   2.152   2.313   0.015  1.0671 -1.4523  2.6212
  517SOL     OW 1549   1.233   1.039   3.043 -0.0689  0.3984 -0.5503
  517SOL    HW1 1550   1.311   1.097   3.018 -2.5048  0.4432  0.1092
  517SOL    HW2 1551   1.143   1.085   3.037  0.7227 -0.4128 -0.6144
  518SOL     OW 1552   3.109   2.994   2.184 -0.4993  0.4889  0.3061
  518SOL    HW1 1553   0.018   3.024   2.274  1.4545 -2.7306 -0.2285
  518SOL    HW2 1554   3.019   3.027   2.147  0.5013 -0.2186  1.6492
  519SOL     OW 1555   1.691   1.724   2.448 -0.5814 -0.1085  0.0388
  519SOL    HW1 1556   1.779   1.767   2.413 -0.5397  4.2830  0.9888
  519SOL    HW2 1557   1.620   1.749   2.383  0.6082  2.5665  2.4614
  520SOL     OW 1558   2.799   2.863   2.395 -0.1202  0.3863 -0.5120
  520SOL    HW1 1559   2.787   2.790   2.317 -1.7701 -0.0619 -0.6118
  520SOL    HW2 1560   2.883   2.837   2.445 -1.8747 -2.3387  2.2857
  521SOL     OW 1561   0.180   1.687   1.836  0.4267 -0.3579 -0.0438
  521SOL    HW1 1562   0.139   1.701   1.925  0.3437 -0.1743 -2.4139
  521SOL    HW2 1563   0.109   1.686   1.763 -0.1476 -1.2039 -1.1431
  522SOL     OW 1564   0.997   2.714   1.633  0.3449  0.4115 -0.6348
  522SOL    HW1 1565   0.931   2.703   1.555 -2.8181 -0.3081  1.3755
  522SOL    HW2 1566   0.964   2.794   1.689 -2.9217 -5.3153 -0.0429
  523SOL     OW 1567   0.138   2.467   1.300 -0.1996 -0.0778  0.6748
  523SOL    HW1 1568   0.133   2.550   1.357  1.8119 -2.0153  2.0283
  523SOL    HW2 1569   0.060   2.411   1.325  1.2486 -0.6938 -0.7378
  524SOL     OW 1570   1.311   2.483   0.700 -0.1175  0.5265 -0.2950
  524SOL    HW1 1571   1.408   2.501   0.720 -4.2697 -0.6033 -0.4301
  524SOL    HW2 1572   1.296   2.382   0.724  0.1052 -2.4518  2.0614
  525SOL     OW 1573   2.415   1.290   0.927 -0.3907  0.1995 -0.1840
  525SOL    HW1 1574   2.474   1.322   1.002  0.0150  0.5734 -1.0457
  525SOL    HW2 1575   2.373   1.371   0.883  3.0783 -3.5396  0.9960
  526SOL     OW 1576   0.905   2.295   0.698 -0.1591  0.1867  0.4643
  526SOL    HW1 1577   0.829   2.312   0.637  4.0287 -0.9738  2.4887
  526SOL    HW2 1578   0.955   2.214   0.660  1.8120 -2.1751  1.4205
  527SOL     OW 1579   2.626   2.084   0.855 -0.3304 -0.9802  0.2320
  527SOL    HW1 1580   2.679   2.033   0.924  1.8424 -0.6673 -2.1699
  527SOL    HW2 1581   2.577   2.016   0.798 -0.3743  2.3685  1.0233
  528SOL     OW 1582   1.985   0.576   3.024 -0.4498  0.2751  0.6786
  528SOL    HW1 1583   2.005   0.508   2.947  0.2860  1.2410  1.2967
  528SOL    HW2 1584   2.046   0.544   3.095 -1.8378 -1.4375 -0.8318
  529SOL     OW 1585   1.329   1.302   2.210  0.6382  0.0629  0.3224
  529SOL    HW1 1586   1.357   1.315   2.310 -0.0042  1.4076  1.5499
  529SOL    HW2 1587   1.296   1.386   2.167  0.7515 -1.1432 -2.2841
  530SOL     OW 1588   2.543   1.076   2.394  0.0177  0.2221  0.4918
  530SOL    HW1 1589   2.615   1.097   2.321  0.4402  0.5385  0.4957
  530SOL    HW2 1590   2.519   0.980   2.391  2.3726  1.9548  0.9925
  531SOL     OW 1591   0.965   0.657   0.197 -0.6459  0.0661 -0.4360
  531SOL    HW1 1592   1.042   0.703   0.243  0.3769 -0.3553 -2.8041
  531SOL    HW2 1593   0.903   0.609   0.263 -0.6617 -0.9075  0.0447
  532SOL     OW 1594   1.650   1.005   0.665  0.1863  0.5650 -0.1871
  532SOL    HW1 1595   1.719   0.975   0.736  1.9989  0.0442 -0.8627
  532SOL    HW2 1596   1.589   0.926   0.650  0.8845  1.3537  0.0071
  533SOL     OW 1597   0.521   0.677   2.174  0.7026 -0.8749  0.2655
  533SOL    HW1 1598   0.424   0.656   2.184  0.1149 -1.0617  0.1614
  533SOL    HW2 1599   0.578   0.602   2.213 -0.4220  1.6743  0.7106
  534SOL     OW 1600   1.593   0.277   2.476 -0.0320 -0.5298 -0.1899
  534SOL    HW1 1601   1.563   0.341   2.404 -1.6820 -1.7453 -1.9929
  534SOL    HW2 1602   1.540   0.272   2.559  0.3440  0.9159 -2.4425
  535SOL     OW 1603   0.713   0.128   0.545  0.2302  0.1730  0.8268
  535SOL    HW1 1604   0.753   0.043   0.501 -2.4849  0.7711 -2.1710
  535SOL    HW2 1605   0.623   0.104   0.580 -2.0856  1.7332 -1.4825
  536SOL     OW 1606   1.077   0.179   0.980  0.6375  1.0225 -0.1936
  536SOL    HW1 1607   1.165   0.125   0.987  1.7924 -0.4289  2.3225
  536SOL    HW2 1608   1.029   0.153   0.893 -0.5676  1.3458 -0.9020
  537SOL     OW 1609   1.516   3.058   2.006 -0.2474 -0.3376 -0.3571
  537SOL    HW1 1610   1.495   3.007   2.095 -2.6506  2.4580  0.7724
  537SOL    HW2 1611   1.492   2.993   1.931  0.9483  0.6228 -1.6888
  538SOL     OW 1612   0.378   2.737   3.044 -0.2017 -0.1686  0.1741
  538SOL    HW1 1613   0.374   2.644   3.001 -0.1622 -2.1387  1.2425
  538SOL    HW2 1614   0.404   2.811   2.980  1.2896  0.3260  0.8741
  539SOL     OW 1615   2.950   1.706   1.816 -0.0417  0.0783 -0.1321
  539SOL    HW1 1616   3.005   1.714   1.732  0.7667  1.0705  0.4237
  539SOL    HW2 1617   2.972   1.787   1.878 -1.4794  1.1481  1.0830
  540SOL     OW 1618   2.568   2.479   2.134 -0.3412 -0.7839  0.1144
  540SOL    HW1 1619   2.572   2.482   2.031 -0.6238 -1.2815 -2.0871
  540SOL    HW2 1620   2.512   2.397   2.164 -1.0681 -0.8795 -1.4672
  541SOL     OW 1621   0.290   2.844   1.606 -0.0188  0.0640  0.2766
  541SOL    HW1 1622   0.208   2.893   1.653 -0.4520 -1.0883 -0.5182
  541SOL    HW2 1623   0.359   2.820   1.681 -1.2584  1.2161  1.1696
  542SOL     OW 1624   2.887   0.502   1.975  0.4150  0.0884  0.2895
  542SOL    HW1 1625   2.852   0.442   2.047  0.5019  0.8316 -0.4819
  542SOL    HW2 1626   2.934   0.443   1.904 -0.2309 -0.5894  1.4311
  543SOL     OW 1627   0.835   0.348   0.967 -0.3654 -0.0871 -0.4878
  543SOL    HW1 1628   0.927   0.325   0.996 -0.1552  0.5037  1.9693
  543SOL    HW2 1629   0.848   0.373   0.872  1.3664 -1.9961  1.3474
  544SOL     OW 1630   2.240   2.188   1.307  0.3321  0.7313  0.8416
  544SOL    HW1 1631   2.285   2.097   1.317  2.1216 -0.7382 -1.7584
  544SOL    HW2 1632   2.151   2.188   1.262  0.1463  1.2076 -0.6998
  545SOL     OW 1633   1.220   1.535   0.916 -0.0103  0.0567  0.1634
  545SOL    HW1 1634   1.300   1.597   0.903  4.0829  1.5968 -1.4190
  545SOL    HW2 1635   1.205   1.499   1.009  2.5003  1.4576 -1.4450
  546SOL     OW 1636   2.846   0.319   2.228  0.0886 -0.8368  0.0962
  546SOL    HW1 1637   2.760   0.273   2.254  1.5106  3.4099 -0.1068
  546SOL    HW2 1638   2.923   0.279   2.277 -0.4868  0.2450 -1.8945
  547SOL     OW 1639   2.952   0.508   2.915  0.0991 -0.4020 -0.4757
  547SOL    HW1 1640   2.899   0.447   2.850 -0.4004 -0.1053  0.0905
  547SOL    HW2 1641   3.051   0.483   2.918 -2.8625  1.4129 -1.4180
  548SOL     OW 1642   2.387   2.190   2.641  0.2034 -0.0117  0.0912
  548SOL    HW1 1643   2.458   2.133   2.684  0.4602 -2.4373 -0.9813
  548SOL    HW2 1644   2.377   2.281   2.683 -1.2574 -0.4927 -0.3257
  549SOL     OW 1645   2.131   0.575   0.735  0.0519 -0.1153  0.1563
  549SOL    HW1 1646   2.039   0.614   0.720 -2.4955  0.2630 -0.8390
  549SOL    HW2 1647   2.172   0.597   0.822 -1.1656 -0.5126 -0.9354
  550SOL     OW 1648   2.628   1.407   0.231  0.5842 -0.1167 -0.2893
  550SOL    HW1 1649   2.574   1.325   0.271  1.7095 -1.4378 -0.7756
  550SOL    HW2 1650   2.725   1.382   0.234 -2.2388 -0.7958 -0.6478
  551SOL     OW 1651   1.492   2.409   1.308 -0.2380  0.1783  0.1349
  551SOL    HW1 1652   1.511   2.385   1.209  2.0397 -1.1978  2.1054
  551SOL    HW2 1653   1.503   2.507   1.330 -0.0746  1.2371 -0.4206
  552SOL     OW 1654   2.695   2.434   2.448 -0.2966  0.7856  0.2135
  552SOL    HW1 1655   2.746   2.355   2.405 -0.5943  0.3158 -0.3305
  552SOL    HW2 1656   2.735   2.521   2.416  0.4113  0.0529  1.0347
  553SOL     OW 1657   0.603   2.930   0.602 -0.8665  0.4099  0.6621
  553SOL    HW1 1658   0.505   2.952   0.591 -0.5877 -1.3885  1.8274
  553SOL    HW2 1659   0.648   3.000   0.662  1.0806 -2.4104  0.8413
  554SOL     OW 1660   1.660   2.449   1.809 -0.7206  0.2443 -0.0031
  554SOL    HW1 1661   1.583   2.389   1.835  1.8505  1.4278  2.1093
  554SOL    HW2 1662   1.737   2.417   1.868 -1.7542 -1.7787 -0.2879
  555SOL     OW 1663   1.595   2.531   2.176  0.1054  0.0161  0.3267
  555SOL    HW1 1664   1.566   2.434   2.163  0.8024  0.5086  0.8330
  555SOL    HW2 1665   1.509   2.587   2.173 -0.4202  1.1712 -0.6125
  556SOL     OW 1666   1.487   0.493   0.869  0.5978  0.0728 -0.2988
  556SOL    HW1 1667   1.585   0.493   0.834  0.8899  0.6592  2.4346
  556SOL    HW2 1668   1.413   0.492   0.799 -0.4893  0.9108 -1.7813
  557SOL     OW 1669   0.997   2.114   1.588  0.3531 -0.0285  0.1157
  557SOL    HW1 1670   1.095   2.095   1.573 -0.8473 -1.6612 -0.7403
  557SOL    HW2 1671   0.976   2.203   1.635  0.7274 -0.1681  0.0709
  558SOL     OW 1672   2.908   1.301   2.319  0.3097  0.1685  0.1328
  558SOL    HW1 1673   2.830   1.263   2.269  1.5903 -2.5692  2.4194
  558SOL    HW2 1674   2.986   1.235   2.330 -1.3148 -0.7793 -0.5065
  559SOL     OW 1675   2.442   2.707   2.232 -0.0754 -0.2842 -0.8185
  559SOL    HW1 1676   2.493   2.623   2.199  2.1601  0.1626  1.0521
  559SOL    HW2 1677   2.481   2.791   2.184  1.8895 -3.4245  1.6016
  560SOL     OW 1678   0.422   0.193   2.718 -0.2317  0.0745 -0.3236
  560SOL    HW1 1679   0.427   0.130   2.639  0.3335 -0.4371  0.9497
  560SOL    HW2 1680   0.507   0.161   2.775  2.8045  0.6869 -1.3471
  561SOL     OW 1681   1.340   0.570   0.617 -0.5373  0.1700  0.6430
  561SOL    HW1 1682   1.300   0.661   0.602 -0.0054 -2.6464  0.2351
  561SOL    HW2 1683   1.320   0.517   0.532  0.9520 -1.7841  0.2048
  562SOL     OW 1684   0.848   1.387   1.825 -0.0837 -0.2317 -0.6292
  562SOL    HW1 1685   0.916   1.323   1.864 -3.6546 -0.1498  0.0913
  562SOL    HW2 1686   0.760   1.345   1.842  2.9977 -1.0631  0.7390
  563SOL     OW 1687   1.908   1.952   0.067  0.0997 -0.0358  0.4384
  563SOL    HW1 1688   1.937   1.892   3.096  1.1735 -1.5351  1.7518
  563SOL    HW2 1689   1.975   1.930   0.141  0.1741 -2.8609 -2.8194
  564SOL     OW 1690   3.069   2.376   0.479 -0.5989 -0.5546  0.4520
  564SOL    HW1 1691   3.003   2.304   0.507  1.0604  2.1140  1.0888
  564SOL    HW2 1692   0.050   2.333   0.477 -0.2282  1.9623 -2.3692
  565SOL     OW 1693   0.448   2.930   2.874  0.5380 -0.1718  0.3393
  565SOL    HW1 1694   0.377   3.003   2.856  0.9462 -0.2004  0.7877
  565SOL    HW2 1695   0.461   2.872   2.793  0.4152 -0.1791  0.8682
  566SOL     OW 1696   1.438   2.740   2.954  0.8756 -0.1587 -0.5384
  566SOL    HW1 1697   1.529   2.760   3.001 -0.5144  0.0284 -0.1568
  566SOL    HW2 1698   1.384   2.827   2.939 -0.4962 -2.9452  0.6951
  567SOL     OW 1699   2.352   1.949   1.290 -0.5286  0.1766  0.4271
  567SOL    HW1 1700   2.455   1.941   1.291 -0.1671 -2.1516 -0.5097
  567SOL    HW2 1701   2.317   1.918   1.193 -2.3923  0.9575 -1.6775
  568SOL     OW 1702   1.711   0.955   2.882 -0.2292 -0.0256 -0.7896
  568SOL    HW1 1703   1.795   0.905   2.860 -1.2778  1.8883 -0.0165
  568SOL    HW2 1704   1.723   1.034   2.946 -1.4470  0.6857  0.6293
  569SOL     OW 1705   2.213   1.991   1.901  0.0708 -0.0630  0.4703
  569SOL    HW1 1706   2.244   1.908   1.951 -0.5571 -0.4949 -0.3680
  569SOL    HW2 1707   2.214   2.073   1.958  1.4891  1.4139  0.1250
  570SOL     OW 1708   2.847   2.762   1.695 -0.0492  0.0316 -0.3658
  570SOL    HW1 1709   2.899   2.849   1.683  2.1295 -0.9134 -2.0334
  570SOL    HW2 1710   2.910   2.683   1.714 -0.9407  0.1884  0.2323
  571SOL     OW 1711   0.188   0.862   1.263  0.3501  0.0302 -0.8037
  571SOL    HW1 1712   0.262   0.927   1.242 -1.4885  0.8710  0.9281
  571SOL    HW2 1713   0.229   0.770   1.251  1.5736  1.1828  0.6921
  572SOL     OW 1714   0.144   1.453   0.890  0.0079  0.7811 -0.5766
  572SOL    HW1 1715   0.062   1.435   0.834  2.2076  1.0768  0.3094
  572SOL    HW2 1716   0.214   1.382   0.876 -1.9492 -0.2220  0.2266
  573SOL     OW 1717   0.975   0.728   0.586  0.5134  0.3157  0.0710
  573SOL    HW1 1718   0.936   0.668   0.514  0.8381 -0.3795 -0.6294
  573SOL    HW2 1719   0.931   0.821   0.585 -0.4398 -0.6582  1.0201
  574SOL     OW 1720   0.324   0.281   0.394 -0.1190 -0.0242  0.2556
  574SOL    HW1 1721   0.371   0.338   0.461 -0.5140 -0.7946 -5.1478
  574SOL    HW2 1722   0.234   0.249   0.432 -0.6778  1.0147 -0.4886
  575SOL     OW 1723   0.850   2.238   0.975  0.1119  0.1598  0.1857
  575SOL    HW1 1724   0.900   2.272   0.894 -0.1313  1.6724 -2.9291
  575SOL    HW2 1725   0.892   2.264   1.066 -0.5299  2.7200  0.8619
  576SOL     OW 1726   2.944   2.945   1.329 -0.0929 -0.1476 -0.0461
  576SOL    HW1 1727   2.871   3.013   1.353  1.7124  2.1175 -0.7993
  576SOL    HW2 1728   2.991   2.963   1.239  1.0739 -0.3312 -0.2314
  577SOL     OW 1729   2.761   2.081   1.992 -0.5910 -0.0773  0.2009
  577SOL    HW1 1730   2.674   2.073   2.049 -0.8855 -1.2790  0.2199
  577SOL    HW2 1731   2.794   2.180   1.997  0.6429  0.3519  1.8006
  578SOL     OW 1732   1.069   0.140   2.814 -0.4612 -0.2299 -0.6310
  578SOL    HW1 1733   1.001   0.085   2.766  3.1321  2.4980 -1.2568
  578SOL    HW2 1734   1.061   0.129   2.917 -3.5955 -2.1831  3.9832
  579SOL     OW 1735   1.882   2.054   2.172  0.3380 -0.1901 -0.0204
  579SOL    HW1 1736   1.912   2.148   2.190 -1.7211 -0.3572 -0.6143
  579SOL    HW2 1737   1.828   2.045   2.086  3.2005  1.3167 -2.7531
  580SOL     OW 1738   1.778   0.869   2.226 -0.7441 -0.1690  0.1099
  580SOL    HW1 1739   1.872   0.905   2.248 -0.3533  0.6152 -0.1328
  580SOL    HW2 1740   1.778   0.763   2.224  1.6267 -3.7372 -0.0097
  581SOL     OW 1741   1.039   1.266   2.281 -0.7137  0.3165  0.2889
  581SOL    HW1 1742   1.142   1.274   2.289  2.8831 -0.6272 -1.2355
  581SOL    HW2 1743   1.000   1.191   2.341 -0.0817 -0.6041  0.1205
  582SOL     OW 1744   0.182   2.735   1.897  0.1637  0.5508  0.3713
  582SOL    HW1 1745   0.272   2.722   1.843  5.3324 -2.0465  0.5203
  582SOL    HW2 1746   0.163   2.832   1.911 -1.7750 -0.0348 -2.1606
  583SOL     OW 1747   1.432   1.143   1.484 -0.0973  0.5914  0.4985
  583SOL    HW1 1748   1.473   1.110   1.402 -0.9890 -0.0202  1.0449
  583SOL    HW2 1749   1.400   1.240   1.491 -1.1709  1.5059  0.3316
  584SOL     OW 1750   1.180   1.961   2.767  0.0826  0.2027  0.1017
  584SOL    HW1 1751   1.230   1.870   2.762 -0.8399  2.5667  2.6839
  584SOL    HW2 1752   1.243   2.042   2.766 -1.3870  2.1935 -0.8188
  585SOL     OW 1753   0.139   2.427   0.201  0.4875 -0.0915 -0.2288
  585SOL    HW1 1754   0.056   2.442   0.135 -0.7701 -0.7608 -3.1540
  585SOL    HW2 1755   0.122   2.363   0.281  1.5414  0.4700  1.2827
  586SOL     OW 1756   2.088   1.644   0.261  0.4984  0.2498 -0.0504
  586SOL    HW1 1757   2.082   1.611   0.166 -1.7460 -0.6553  0.6822
  586SOL    HW2 1758   2.042   1.580   0.329  0.2298  0.4613 -1.1303
  587SOL     OW 1759   2.893   2.135   0.486  0.3197  0.2023  0.0356
  587SOL    HW1 1760   2.944   2.070   0.426 -1.0699  2.2293  0.9949
  587SOL    HW2 1761   2.793   2.133   0.467  2.8149  1.2856  1.0726
  588SOL     OW 1762   2.231   0.374   1.002 -0.0424  0.0203  0.1016
  588SOL    HW1 1763   2.239   0.308   1.082  0.3842 -1.3083  0.4141
  588SOL    HW2 1764   2.149   0.349   0.949 -1.4051 -2.0564  2.0164
  589SOL     OW 1765   0.896   0.820   0.920 -0.3008  0.0729 -0.0030
  589SOL    HW1 1766   0.953   0.903   0.926 -1.1225 -1.2960 -1.1876
  589SOL    HW2 1767   0.953   0.739   0.929 -0.5066  3.2818 -1.1770
  590SOL     OW 1768   2.434   2.487   0.059  0.4736 -0.5373  0.3822
  590SOL    HW1 1769   2.347   2.429   0.069 -0.5032 -1.8312 -0.6486
  590SOL    HW2 1770   2.517   2.434   0.024 -0.7598 -3.7132  0.3131
  591SOL     OW 1771   0.552   2.391   1.824 -0.8774 -0.2337 -0.4947
  591SOL    HW1 1772   0.631   2.327   1.826 -2.4999  2.5050 -0.3132
  591SOL    HW2 1773   0.494   2.369   1.741  1.0049 -0.8276 -0.6561
  592SOL     OW 1774   0.798   1.285   1.394 -0.6003 -0.0462 -0.3490
  592SOL    HW1 1775   0.871   1.310   1.459 -1.5710  2.5579  0.9204
  592SOL    HW2 1776   0.828   1.264   1.298 -1.1733  1.2915 -0.3302
  593SOL     OW 1777   0.945   2.020   1.357  0.0517 -0.0036 -0.0707
  593SOL    HW1 1778   1.023   1.964   1.324 -0.1787  0.1844 -0.0766
  593SOL    HW2 1779   0.969   2.056   1.450 -1.2992 -2.8107  0.7843
  594SOL     OW 1780   0.809   1.016   2.640  0.0677  1.1066  0.3181
  594SOL    HW1 1781   0.856   0.934   2.683  0.2416  1.4140  1.0624
  594SOL    HW2 1782   0.811   1.095   2.702  1.1422 -0.0911 -0.6728
  595SOL     OW 1783   1.569   0.330   1.080  0.3605 -0.7997 -0.1161
  595SOL    HW1 1784   1.556   0.394   1.158  0.3951  3.8886  1.8013
  595SOL    HW2 1785   1.550   0.382   0.994  0.7986  1.1371 -0.6198
  596SOL     OW 1786   0.334   1.183   0.888  0.2544  0.3290 -0.2848
  596SOL    HW1 1787   0.436   1.167   0.890 -2.8888  1.4749 -2.5009
  596SOL    HW2 1788   0.285   1.116   0.834  2.6538  2.2160  1.7733
  597SOL     OW 1789   0.272   2.248   2.859  0.6133  0.1114  0.0131
  597SOL    HW1 1790   0.202   2.208   2.799  1.9791  1.2845  2.2647
  597SOL    HW2 1791   0.288   2.189   2.940  1.5322  0.6535  0.0942
  598SOL     OW 1792   2.206   2.034   2.523 -0.6522  0.4471 -0.3188
  598SOL    HW1 1793   2.142   2.106   2.507  4.5929 -2.1754  0.4368
  598SOL    HW2 1794   2.289   2.078   2.564 -1.2289  1.1401  2.2147
  599SOL     OW 1795   1.564   0.745   0.573 -0.0038 -0.9343 -0.3499
  599SOL    HW1 1796   1.486   0.684   0.597 -0.7462 -2.3679  1.5866
  599SOL    HW2 1797   1.655   0.699   0.579  1.1332 -1.7670  0.0294
  600SOL     OW 1798   0.865   2.992   0.522 -0.4812 -0.2508 -0.0680
  600SOL    HW1 1799   0.799   2.916   0.512  1.4430 -1.1804 -2.0680
  600SOL    HW2 1800   0.932   2.966   0.593 -0.5632 -0.3065  0.5391
  601SOL     OW 1801   0.485   0.359   1.289  0.3741  0.3743  0.0936
  601SOL    HW1 1802   0.529   0.398   1.205 -2.6542  0.2818  0.1248
  601SOL    HW2 1803   0.546   0.290   1.341  1.4288 -2.5803 -1.4321
  602SOL     OW 1804   0.107   2.888   0.865 -0.0019  0.2911  1.0808
  602SOL    HW1 1805   0.097   2.794   0.826 -0.5751  0.6191 -1.3851
  602SOL    HW2 1806   0.019   2.930   0.862  0.9908 -4.4202  3.2797
  603SOL     OW 1807   0.780   2.634   2.464  0.0460 -0.0200  0.4201
  603SOL    HW1 1808   0.822   2.670   2.375  1.2574  0.1653 -0.3340
  603SOL    HW2 1809   0.680   2.633   2.467 -1.4313  3.1474  1.7199
  604SOL     OW 1810   0.996   2.615   2.990  0.2128  0.3814 -0.2891
  604SOL    HW1 1811   0.950   2.557   3.060  1.6197 -1.0342 -1.6127
  604SOL    HW2 1812   1.042   2.557   2.916  2.0486 -2.2331  0.6290
  605SOL     OW 1813   1.084   1.003   1.707 -0.3813 -0.0357  0.6192
  605SOL    HW1 1814   1.022   0.925   1.726  0.6434  0.5034 -0.1921
  605SOL    HW2 1815   1.080   1.070   1.787  1.1333  1.0390 -0.3082
  606SOL     OW 1816   1.288   0.154   2.650 -0.6111 -0.5699 -0.5482
  606SOL    HW1 1817   1.201   0.159   2.697  1.1305  1.3191 -0.2366
  606SOL    HW2 1818   1.339   0.242   2.647 -0.8391 -0.7632 -0.9707
  607SOL     OW 1819   0.234   1.260   1.105 -0.4932 -0.5368  0.0442
  607SOL    HW1 1820   0.283   1.255   1.195 -2.3330 -0.7305  0.8373
  607SOL    HW2 1821   0.287   1.225   1.023  2.3928  0.6015 -2.4939
  608SOL     OW 1822   2.820   2.221   2.344 -0.0374  0.5157  0.3270
  608SOL    HW1 1823   2.842   2.212   2.245  0.8615  2.9862 -2.0771
  608SOL    HW2 1824   2.901   2.205   2.400  0.0253  0.2592  3.0403
  609SOL     OW 1825   1.967   0.418   0.299  0.2286  0.1236 -0.0012
  609SOL    HW1 1826   2.043   0.421   0.232 -0.0661  0.8932 -0.7457
  609SOL    HW2 1827   1.959   0.499   0.356 -0.5754  0.9706 -3.6103
  610SOL     OW 1828   0.865   2.704   1.101 -0.4819  0.1997 -0.4935
  610SOL    HW1 1829   0.837   2.733   1.012 -0.8366 -1.6319  0.2705
  610SOL    HW2 1830   0.966   2.697   1.112 -2.1908 -1.1458 -0.9926
  611SOL     OW 1831   0.777   1.253   0.478 -0.0796  0.0940  0.1700
  611SOL    HW1 1832   0.750   1.327   0.415 -1.9027 -0.4264  0.4061
  611SOL    HW2 1833   0.713   1.174   0.476  0.5284 -0.0999  1.0021
  612SOL     OW 1834   0.832   0.194   2.311  0.7032  0.1682 -0.3584
  612SOL    HW1 1835   0.761   0.220   2.375  1.7370 -3.6588 -1.6323
  612SOL    HW2 1836   0.911   0.260   2.307  4.8992  1.1265 -0.1596
  613SOL     OW 1837   2.456   1.280   0.402 -0.4097  0.3516  0.0702
  613SOL    HW1 1838   2.443   1.243   0.495  0.9891 -0.9264  2.2765
  613SOL    HW2 1839   2.395   1.236   0.337  1.8165 -0.1848  0.5273
  614SOL     OW 1840   1.817   0.457   1.767  0.2520 -0.1142  0.1392
  614SOL    HW1 1841   1.734   0.397   1.773  0.2960 -0.9082  2.3503
  614SOL    HW2 1842   1.828   0.523   1.842 -0.9965 -1.1061 -2.0197
  615SOL     OW 1843   0.681   2.023   0.933 -0.4527  0.4382  0.3485
  615SOL    HW1 1844   0.685   1.964   1.016 -1.6449  0.2147  0.3920
  615SOL    HW2 1845   0.738   2.105   0.948 -0.6298 -2.1502 -1.8101
  616SOL     OW 1846   1.398   1.124   2.524  0.3690  0.1633 -0.0276
  616SOL    HW1 1847   1.491   1.093   2.489  3.1231 -0.4771 -1.7183
  616SOL    HW2 1848   1.343   1.039   2.546 -1.3878  0.9257  1.2661
  617SOL     OW 1849   1.837   2.646   0.378  0.1465  0.4410 -0.1745
  617SOL    HW1 1850   1.743   2.649   0.339 -0.2191 -0.5344  0.0568
  617SOL    HW2 1851   1.912   2.624   0.314 -1.5664  0.6439  2.7697
  618SOL     OW 1852   0.803   0.828   0.053 -0.3982  0.6875  0.2813
  618SOL    HW1 1853   0.895   0.873   0.075  0.5043  1.1235  1.0919
  618SOL    HW2 1854   0.790   0.750   0.117 -1.1974  0.0481  1.2017
  619SOL     OW 1855   2.591   1.452   0.558  0.4867 -0.2055  0.9349
  619SOL    HW1 1856   2.652   1.385   0.593  0.1291  2.8842  0.2205
  619SOL    HW2 1857   2.531   1.418   0.483  1.4155  0.6494 -2.3656
  620SOL     OW 1858   2.404   2.979   3.021  0.2706  0.4444  0.1048
  620SOL    HW1 1859   2.416   2.905   3.085 -2.3793  1.7394  0.6714
  620SOL    HW2 1860   2.351   2.938   2.941 -1.8142  1.1946 -4.3568
  621SOL     OW 1861   2.309   1.149   0.192  0.5547  0.2779  0.1809
  621SOL    HW1 1862   2.270   1.073   0.140  0.1146  2.7328  0.8363
  621SOL    HW2 1863   2.280   1.234   0.144 -2.0293 -2.2275  0.1091
  622SOL     OW 1864   1.123   2.202   2.422 -0.0437 -0.6040 -0.2234
  622SOL    HW1 1865   1.077   2.142   2.493  2.1663 -0.7995 -2.6157
  622SOL    HW2 1866   1.160   2.159   2.338 -0.3096  0.7665  1.8748
  623SOL     OW 1867   0.574   1.606   3.019 -0.1588  0.3080  0.1588
  623SOL    HW1 1868   0.637   1.692   3.007  1.2716  3.7448  0.9894
  623SOL    HW2 1869   0.509   1.585   2.942 -1.4139 -3.2916  0.7981
  624SOL     OW 1870   0.245   3.109   2.846 -0.1156 -0.3113 -0.1088
  624SOL    HW1 1871   0.275   0.088   2.808 -2.2944 -1.9962  0.0278
  624SOL    HW2 1872   0.192   0.015   2.933 -1.0538  1.1586  0.1867
  625SOL     OW 1873   0.725   2.046   0.239 -0.3300 -0.4196  0.1496
  625SOL    HW1 1874   0.698   2.085   0.149 -0.2780 -1.5721 -1.5751
  625SOL    HW2 1875   0.641   2.022   0.288  0.5954  0.8343 -0.4130
  626SOL     OW 1876   2.422   0.399   0.202 -0.4348 -0.1865  0.6036
  626SOL    HW1 1877   2.465   0.321   0.149  1.8663  0.0489 -0.9620
  626SOL    HW2 1878   2.488   0.442   0.267 -1.6444 -0.5236  1.0895
  627SOL     OW 1879   1.261   0.883   2.614  0.1790 -0.1138 -0.0650
  627SOL    HW1 1880   1.206   0.964   2.653 -1.2014  1.5447  1.0385
  627SOL    HW2 1881   1.313   0.841   2.689 -2.2156 -0.8680 -2.6595
  628SOL     OW 1882   1.026   0.540   2.513 -0.0519  0.0598  0.6268
  628SOL    HW1 1883   1.026   0.512   2.609 -0.1771  0.0615 -0.5257
  628SOL    HW2 1884   0.934   0.571   2.478  0.2101 -1.5398 -0.1693
  629SOL     OW 1885   0.465   0.007   2.055 -0.2419  0.0003  0.2746
  629SOL    HW1 1886   0.527   3.038   2.075  1.0859 -0.5434  1.2059
  629SOL    HW2 1887   0.494   0.055   1.967 -1.7797 -0.2939  0.0538
  630SOL     OW 1888   2.420   1.047   1.748  0.0667  0.2414 -0.3246
  630SOL    HW1 1889   2.375   1.116   1.807  1.3986 -0.9280 -1.1596
  630SOL    HW2 1890   2.340   0.981   1.722 -2.1138  2.0224 -3.6777
  631SOL     OW 1891   2.239   1.166   0.611  0.0571  0.2098  0.1957
  631SOL    HW1 1892   2.154   1.103   0.610 -1.6808 -0.5535  0.0962
  631SOL    HW2 1893   2.326   1.112   0.625  3.5553  0.3857 -0.9020
  632SOL     OW 1894   2.524   0.530   1.831 -0.7786 -0.5442  0.3933
  632SOL    HW1 1895   2.609   0.584   1.809  1.7632  0.5116  0.7238
  632SOL    HW2 1896   2.502   0.457   1.759  0.9371  2.4001  1.1803
  633SOL     OW 1897   0.914   2.884   0.182  0.3784 -0.5350  0.0438
  633SOL    HW1 1898   0.834   2.826   0.179  0.6399  1.6130  1.1098
  633SOL    HW2 1899   0.988   2.844   0.239  3.5093 -1.8776  1.7216
  634SOL     OW 1900   1.616   3.057   0.075 -0.1191 -0.1789  0.5144
  634SOL    HW1 1901   1.545   3.051   0.151 -1.6988 -1.4762 -1.5422
  634SOL    HW2 1902   1.701   3.007   0.100  0.2825 -1.4302  2.6428
  635SOL     OW 1903   2.791   0.472   0.295  0.2293  0.4062 -0.3124
  635SOL    HW1 1904   2.825   0.566   0.283 -0.3832  0.7378  0.9905
  635SOL    HW2 1905   2.713   0.471   0.363 -1.3506  1.3365 -0.8539
  636SOL     OW 1906   0.509   1.646   0.847 -0.0592  0.1467 -0.2304
  636SOL    HW1 1907   0.558   1.715   0.794  0.4459 -1.5550  0.2453
  636SOL    HW2 1908   0.536   1.553   0.815 -0.1163 -3.3423 -0.4389
  637SOL     OW 1909   0.295   2.711   0.453 -0.3084  0.0452  0.7691
  637SOL    HW1 1910   0.310   2.707   0.352  1.3401  1.5188 -0.8500
  637SOL    HW2 1911   0.206   2.671   0.479 -1.0573 -0.3656 -0.5299
  638SOL     OW 1912   2.958   2.811   0.404 -0.0736 -0.1332 -0.0660
  638SOL    HW1 1913   2.927   2.841   0.313  0.7277 -1.2899  2.0270
  638SOL    HW2 1914   3.041   2.762   0.400 -1.9719 -1.0117  0.3489
  639SOL     OW 1915   1.226   1.410   0.305  0.0845 -0.1711 -0.4243
  639SOL    HW1 1916   1.231   1.361   0.219 -0.0877  2.8659 -1.2054
  639SOL    HW2 1917   1.214   1.509   0.293  1.5500 -1.7183  0.2164
  640SOL     OW 1918   1.335   2.231   1.007  0.1762  0.3867 -0.6547
  640SOL    HW1 1919   1.402   2.299   1.023  0.7412 -0.4723  0.3798
  640SOL    HW2 1920   1.336   2.213   0.910  0.1736  0.3936  2.4333
  641SOL     OW 1921   2.857   2.711   0.829  0.4368 -0.0209 -0.1551
  641SOL    HW1 1922   2.829   2.612   0.834  0.6213  0.2303 -3.0276
  641SOL    HW2 1923   2.807   2.771   0.896 -1.9329  0.8754 -0.5444
  642SOL     OW 1924   0.910   2.973   1.819  0.1223 -0.5000  0.6824
  642SOL    HW1 1925   0.858   3.064   1.813 -2.5636  1.8737 -0.6245
  642SOL    HW2 1926   1.009   2.989   1.843  0.0889  2.9342 -0.3409
  643SOL     OW 1927   0.901   2.365   2.392  0.4392 -0.0439  0.2468
  643SOL    HW1 1928   0.986   2.304   2.400 -1.8489  0.2511  1.1521
  643SOL    HW2 1929   0.883   2.426   2.476 -1.1133 -0.9349  2.5303
  644SOL     OW 1930   0.872   2.642   0.527  0.0392  0.4173 -0.2441
  644SOL    HW1 1931   0.883   2.635   0.629 -0.1741  1.3712  1.9571
  644SOL    HW2 1932   0.775   2.629   0.500 -4.3196 -0.9523  1.5301
  645SOL     OW 1933   1.230   1.574   2.161 -0.2419 -0.2327  0.1406
  645SOL    HW1 1934   1.176   1.571   2.078  0.7874 -0.6612  2.8017
  645SOL    HW2 1935   1.170   1.563   2.243 -2.5310 -0.9952 -0.0912
  646SOL     OW 1936   0.511   1.039   0.410 -0.2480 -0.0626  0.3568
  646SOL    HW1 1937   0.569   0.994   0.479 -0.1463  0.2679 -1.2422
  646SOL    HW2 1938   0.426   1.065   0.454  2.5017 -0.5452 -1.2779
  647SOL     OW 1939   1.482   0.071   0.794  0.8489 -0.0759 -0.1196
  647SOL    HW1 1940   1.565   0.023   0.827  0.9491 -0.6858 -1.4430
  647SOL    HW2 1941   1.504   0.119   0.708 -1.1515 -0.8269 -1.2030
  648SOL     OW 1942   2.400   2.580   1.568 -0.3228 -0.9391 -0.0346
  648SOL    HW1 1943   2.465   2.662   1.575  2.0998  1.3096  1.4725
  648SOL    HW2 1944   2.457   2.499   1.546 -0.2943  3.1549 -0.2352
  649SOL     OW 1945   0.745   2.194   3.055  0.1413 -0.1917 -0.3764
  649SOL    HW1 1946   0.758   2.294   3.078 -1.8441 -1.0119 -0.6963
  649SOL    HW2 1947   0.819   2.151   2.998  2.0107 -3.5389 -2.0272
  650SOL     OW 1948   2.969   2.107   1.411 -0.3203 -0.2710 -0.1149
  650SOL    HW1 1949   2.992   2.192   1.360  1.3291  1.9693  1.0004
  650SOL    HW2 1950   2.868   2.095   1.421  1.2309 -0.6151  0.9213
  651SOL     OW 1951   0.026   3.082   3.037  0.2207  0.9191  0.1232
  651SOL    HW1 1952   3.066   3.052   2.971  1.9780 -1.4433 -0.4426
  651SOL    HW2 1953   3.104   0.059   3.081  0.5948 -0.8311 -2.1881
  652SOL     OW 1954   2.250   2.018   3.005 -0.5455  0.4509 -0.1107
  652SOL    HW1 1955   2.216   2.108   2.975  0.9533 -1.5821  3.3072
  652SOL    HW2 1956   2.280   2.022   3.100 -2.1144 -0.1243 -1.9390
  653SOL     OW 1957   0.341   0.231   0.990 -0.5879 -0.0471 -0.7910
  653SOL    HW1 1958   0.430   0.281   0.991  1.6260 -2.3584  0.7731
  653SOL    HW2 1959   0.350   0.157   1.057  0.6968  3.1992 -1.8843
  654SOL     OW 1960   1.267   2.946   0.319 -0.5020  0.0180  0.4648
  654SOL    HW1 1961   1.305   2.845   0.314  1.1293 -4.3657  1.2435
  654SOL    HW2 1962   1.338   2.997   0.368 -1.0099 -1.8907  1.1295
  655SOL     OW 1963   0.611   2.661   1.163  0.3822 -0.2174 -0.0757
  655SOL    HW1 1964   0.593   2.590   1.092 -0.6336  0.0972  1.1570
  655SOL    HW2 1965   0.707   2.680   1.170 -4.3048 -1.4014 -1.2646
  656SOL     OW 1966   0.583   2.892   2.206 -0.1354 -0.6412  0.5174
  656SOL    HW1 1967   0.501   2.832   2.205 -0.8510 -2.2809 -1.2078
  656SOL    HW2 1968   0.609   2.918   2.298 -2.4311  0.3485 -0.0311
  657SOL     OW 1969   1.726   0.701   2.483 -0.2004 -0.5891 -0.2955
  657SOL    HW1 1970   1.742   0.639   2.400 -0.4579 -1.9549 -1.5419
  657SOL    HW2 1971   1.815   0.707   2.538  0.7527 -1.0083 -1.2555
  658SOL     OW 1972   2.220   1.843   1.090  0.3348  0.2253 -0.7955
  658SOL    HW1 1973   2.124   1.879   1.082 -1.2878  1.3540 -0.6806
  658SOL    HW2 1974   2.217   1.750   1.136  0.4336 -1.7439 -1.0231
  659SOL     OW 1975   2.700   2.768   3.086 -0.0408 -0.3347  0.8092
  659SOL    HW1 1976   2.776   2.811   0.031 -0.4950 -0.9954  0.6759
  659SOL    HW2 1977   2.614   2.788   0.024  1.1616  0.5210 -4.0393
  660SOL     OW 1978   1.301   0.697   0.029  0.0778 -0.4776 -0.7771
  660SOL    HW1 1979   1.376   0.740   3.085 -1.0797  0.6622  0.3798
  660SOL    HW2 1980   1.309   0.729   0.128  2.0199  1.1231  1.7859
  661SOL     OW 1981   2.474   2.658   1.040  0.3677 -0.4258 -0.5136
  661SOL    HW1 1982   2.475   2.647   0.938  1.1660 -0.5864  0.1032
  661SOL    HW2 1983   2.560   2.617   1.083  0.2376 -3.2115 -0.8621
  662SOL     OW 1984   0.729   0.395   0.572  0.0103 -0.4194  0.5234
  662SOL    HW1 1985   0.729   0.292   0.559 -0.7570  0.2993  1.6322
  662SOL    HW2 1986   0.633   0.430   0.569  2.6386 -0.3424  3.3551
  663SOL     OW 1987   1.463   2.411   2.623 -0.2368  0.2199 -0.5006
  663SOL    HW1 1988   1.559   2.432   2.590  1.1889 -0.6361 -2.3343
  663SOL    HW2 1989   1.396   2.440   2.557  0.6144 -1.9591 -0.0779
  664SOL     OW 1990   0.674   2.323   1.355  0.0153  0.8383 -0.2520
  664SOL    HW1 1991   0.763   2.324   1.308 -0.7608 -2.9701  0.1216
  664SOL    HW2 1992   0.604   2.347   1.282 -0.7868  0.5231  0.2394
  665SOL     OW 1993   1.373   1.755   1.686 -0.1834  0.3255 -0.1163
  665SOL    HW1 1994   1.334   1.807   1.761  0.9963 -0.7471 -1.9786
  665SOL    HW2 1995   1.312   1.758   1.603  1.0706  1.6187 -1.5789
  666SOL     OW 1996   0.271   2.683   0.170 -0.6734 -0.0975 -0.0620
  666SOL    HW1 1997   0.301   2.708   0.079 -1.5098 -2.7224  0.2643
  666SOL    HW2 1998   0.235   2.585   0.173 -0.3920 -3.9404  0.3571
  667SOL     OW 1999   1.696   1.361   1.420  0.1005  0.4610  0.3191
  667SOL    HW1 2000   1.733   1.399   1.510  2.2841  1.3637  3.0496
  667SOL    HW2 2001   1.600   1.382   1.408  0.9974 -1.7199 -0.8690
  668SOL     OW 2002   0.356   0.152   2.264 -0.2571  0.0851  0.1427
  668SOL    HW1 2003   0.297   0.229   2.232  3.4036 -0.8025 -2.4487
  668SOL    HW2 2004   0.382   0.092   2.180 -2.0503  0.5161 -1.6115
  669SOL     OW 2005   2.227   2.530   2.126  0.2230 -0.5240  0.4189
  669SOL    HW1 2006   2.151   2.588   2.092 -0.5371  1.9767  0.4814
  669SOL    HW2 2007   2.297   2.590   2.165 -2.7709 -3.3586  1.7782
  670SOL     OW 2008   2.315   2.063   0.161  0.4114 -0.4306  0.3862
  670SOL    HW1 2009   2.283   2.151   0.201 -1.4850 -0.5771 -1.0116
  670SOL    HW2 2010   2.383   2.017   0.222 -2.5249  2.1600 -0.5134
  671SOL     OW 2011   1.118   1.172   1.201  0.0011  0.0184 -0.0454
  671SOL    HW1 2012   1.109   1.162   1.100 -0.8486 -1.7601 -2.3840
  671SOL    HW2 2013   1.103   1.090   1.251 -1.3758  0.8992 -1.9725
  672SOL     OW 2014   2.602   1.530   2.049  0.3410  0.3327  0.1632
  672SOL    HW1 2015   2.678   1.550   2.110 -1.3436 -0.0590  0.3676
  672SOL    HW2 2016   2.535   1.469   2.095  0.0672 -0.8732 -0.4234
  673SOL     OW 2017   2.805   1.618   2.196 -0.4292  0.0689 -0.5659
  673SOL    HW1 2018   2.824   1.667   2.287 -1.2016  1.4183  1.2052
  673SOL    HW2 2019   2.893   1.581   2.155 -1.3950 -1.0940 -0.3241
  674SOL     OW 2020   1.151   2.878   2.422 -0.2045 -0.5815 -0.9817
  674SOL    HW1 2021   1.080   2.940   2.461 -1.6979  0.9500  1.3161
  674SOL    HW2 2022   1.250   2.885   2.451  4.0966  1.1183  1.0030
  675SOL     OW 2023   0.501   0.741   1.396  0.3409 -0.5380  0.5166
  675SOL    HW1 2024   0.560   0.712   1.319 -0.0666 -1.1254 -1.5078
  675SOL    HW2 2025   0.558   0.792   1.467  1.0482 -0.4994 -0.1472
  676SOL     OW 2026   1.872   0.703   0.715 -0.2464  0.4685  0.0526
  676SOL    HW1 2027   1.802   0.627   0.721  2.2287  0.5758  0.3370
  676SOL    HW2 2028   1.870   0.755   0.799 -0.1909 -0.0205  0.5107
  677SOL     OW 2029   2.882   1.724   2.847 -0.4530  0.1460 -0.1275
  677SOL    HW1 2030   2.880   1.626   2.872  1.0935  2.7921 -1.2836
  677SOL    HW2 2031   2.948   1.745   2.768 -0.0589  1.3280  0.3036
  678SOL     OW 2032   3.097   3.009   1.122  0.4432 -0.0378 -0.0530
  678SOL    HW1 2033   3.051   3.013   1.033  1.1740  1.4143  0.2919
  678SOL    HW2 2034   0.072   2.956   1.111 -2.0964  0.2571 -0.9956
  679SOL     OW 2035   2.279   0.188   0.290  0.2091  0.1111 -0.0957
  679SOL    HW1 2036   2.324   0.279   0.271 -1.1626  2.0005 -0.5748
  679SOL    HW2 2037   2.203   0.189   0.358 -3.0415 -1.5692 -0.9256
  680SOL     OW 2038   0.410   2.084   2.345  0.4591  0.2136  0.4204
  680SOL    HW1 2039   0.470   2.163   2.366 -2.9655  1.1899  0.0159
  680SOL    HW2 2040   0.459   1.995   2.314  2.4095 -2.9432 -1.2998
  681SOL     OW 2041   2.822   1.825   0.959 -0.6618  0.2635 -0.2878
  681SOL    HW1 2042   2.812   1.885   1.041 -0.1025 -2.2463 -0.9185
  681SOL    HW2 2043   2.917   1.822   0.920  0.7594 -0.4724 -0.0608
  682SOL     OW 2044   0.325   2.139   1.805  0.1905  0.6251 -0.2532
  682SOL    HW1 2045   0.325   2.142   1.908 -2.5305 -1.4033 -0.6129
  682SOL    HW2 2046   0.380   2.058   1.779  0.0046  4.3439  0.8635
  683SOL     OW 2047   2.989   2.148   1.739 -0.1475  0.2995  0.1773
  683SOL    HW1 2048   3.019   2.118   1.644  0.8934  0.5315  1.1426
  683SOL    HW2 2049   2.970   2.065   1.797  1.2063 -1.6854 -2.0743
  684SOL     OW 2050   2.547   1.497   2.590  0.3841  0.6205 -0.5190
  684SOL    HW1 2051   2.647   1.482   2.575 -1.9544 -1.1494 -0.1363
  684SOL    HW2 2052   2.496   1.423   2.545 -0.4728  1.8328  0.2627
  685SOL     OW 2053   1.497   1.219   0.305 -0.1197  0.0465  0.1875
  685SOL    HW1 2054   1.504   1.231   0.406  0.2787  1.1050 -2.4047
  685SOL    HW2 2055   1.505   1.307   0.255  0.6508 -0.0835  2.1757
  686SOL     OW 2056   0.528   0.124   0.793 -0.1764  0.2290 -0.0187
  686SOL    HW1 2057   0.523   0.212   0.843 -2.3344  1.7091 -0.3056
  686SOL    HW2 2058   0.442   0.075   0.797 -1.9273 -3.6464  1.2779
  687SOL     OW 2059   1.242   1.334   2.466  0.8738 -0.2757 -0.1381
  687SOL    HW1 2060   1.165   1.348   2.533 -1.6557  2.2956  3.5534
  687SOL    HW2 2061   1.276   1.239   2.469 -3.3262  2.2187  2.1991
  688SOL     OW 2062   1.197   1.759   1.487  0.0878  0.0487  0.2241
  688SOL    HW1 2063   1.205   1.754   1.383 -1.4272 -0.5262 -2.9270
  688SOL    HW2 2064   1.111   1.720   1.526  0.3499 -2.4268  1.0404
  689SOL     OW 2065   2.270   0.430   1.382 -0.2067  0.1894  0.3770
  689SOL    HW1 2066   2.299   0.353   1.327 -1.2789  2.9097  1.7081
  689SOL    HW2 2067   2.173   0.448   1.358  0.5117 -1.3230 -1.1398
  690SOL     OW 2068   2.877   1.370   0.980  0.6640 -0.3058 -0.3149
  690SOL    HW1 2069   2.941   1.342   1.057  0.2871 -2.1503 -0.7700
  690SOL    HW2 2070   2.924   1.361   0.892  0.9903  0.4070 -0.3465
  691SOL     OW 2071   0.518   2.354   1.145 -0.1659  0.0043 -0.7268
  691SOL    HW1 2072   0.572   2.383   1.059  0.3153 -2.1480  1.9727
  691SOL    HW2 2073   0.478   2.262   1.123  0.4039  1.8178 -0.5687
  692SOL     OW 2074   2.427   0.380   1.598  0.1295  0.1539  0.4430
  692SOL    HW1 2075   2.381   0.417   1.513 -1.5993  0.4038  0.1828
  692SOL    HW2 2076   2.364   0.316   1.642  1.6369  0.6028 -1.8157
  693SOL     OW 2077   0.070   1.716   2.099 -0.0117 -0.0469  0.0732
  693SOL    HW1 2078   0.026   1.643   2.154 -0.4296  1.1728 -0.1385
  693SOL    HW2 2079   0.014   1.803   2.101  0.4099 -2.3068 -3.5510
  694SOL     OW 2080   1.746   1.483   1.664  0.2626 -0.3695  0.1182
  694SOL    HW1 2081   1.689   1.417   1.716  0.2104 -0.1503  0.4635
  694SOL    HW2 2082   1.840   1.453   1.681 -0.3990  1.0778 -2.1169
  695SOL     OW 2083   0.698   0.710   1.163  0.5657  0.1614 -0.1746
  695SOL    HW1 2084   0.720   0.805   1.142 -1.4255 -0.7378 -1.5701
  695SOL    HW2 2085   0.778   0.650   1.142 -1.2276 -0.5080  0.5808
  696SOL     OW 2086   1.702   3.058   0.870  0.2679  0.3608  0.1282
  696SOL    HW1 2087   1.734   0.024   0.928  0.5923 -3.3569 -1.9444
  696SOL    HW2 2088   1.770   2.978   0.876  0.5602  0.2314  1.4140
  697SOL     OW 2089   1.178   0.270   1.422  0.4258  0.3696  0.5553
  697SOL    HW1 2090   1.214   0.215   1.498 -0.8935 -0.9228  0.9532
  697SOL    HW2 2091   1.133   0.213   1.350  2.9007  0.2043  1.9976
  698SOL     OW 2092   1.624   1.283   2.078  0.4151 -0.1992 -0.1262
  698SOL    HW1 2093   1.538   1.315   2.126 -1.5960 -2.0945 -1.6006
  698SOL    HW2 2094   1.694   1.254   2.148 -3.2790 -1.7020  0.1567
  699SOL     OW 2095   1.824   0.886   1.510  0.2067  0.3621  0.1987
  699SOL    HW1 2096   1.803   0.979   1.533 -2.4604 -1.3604 -1.2280
  699SOL    HW2 2097   1.896   0.876   1.441 -0.3553  0.2815  0.3802
  700SOL     OW 2098   0.896   2.416   0.071  0.1473  0.3669 -0.0971
  700SOL    HW1 2099   0.920   2.463   0.156 -1.1017  1.4028 -2.0565
  700SOL    HW2 2100   0.973   2.349   0.048 -0.4308 -4.3935  0.7670
  701SOL     OW 2101   2.394   2.467   2.739  0.0071  0.5129  0.0179
  701SOL    HW1 2102   2.325   2.519   2.790 -0.1035 -0.4085 -4.4364
  701SOL    HW2 2103   2.489   2.495   2.763  1.9369 -1.7257 -2.5389
  702SOL     OW 2104   0.671   0.071   1.110  0.3476  0.6122 -0.1425
  702SOL    HW1 2105   0.738   0.137   1.153 -2.4148 -1.4857  0.6491
  702SOL    HW2 2106   0.715   0.039   1.024  1.7070 -0.1953  1.1517
  703SOL     OW 2107   2.245   0.078   2.328 -0.6012 -0.1162  0.0345
  703SOL    HW1 2108   2.207   3.092   2.335 -0.4534  0.2822 -0.2487
  703SOL    HW2 2109   2.304   0.087   2.246  0.4880 -2.6682  1.0345
  704SOL     OW 2110   2.854   2.554   0.431 -0.0037 -0.5778 -0.7306
  704SOL    HW1 2111   2.893   2.644   0.455  0.0852 -0.8793 -0.7412
  704SOL    HW2 2112   2.928   2.482   0.446 -0.0290  1.5974  1.1589
  705SOL     OW 2113   2.851   3.027   2.092 -0.7379 -0.2119 -0.1606
  705SOL    HW1 2114   2.758   3.048   2.126 -1.2871  0.2862 -0.1585
  705SOL    HW2 2115   2.862   2.924   2.074  0.1664 -0.6534 -0.8361
  706SOL     OW 2116   2.145   2.885   1.319  0.3028  0.1903  0.0812
  706SOL    HW1 2117   2.122   2.819   1.393  0.1549 -1.3853  0.1929
  706SOL    HW2 2118   2.152   2.833   1.231 -1.8483 -1.5918  1.9093
  707SOL     OW 2119   0.947   2.740   2.261  0.5685  0.5712 -0.1240
  707SOL    HW1 2120   0.873   2.780   2.200 -0.4088  1.1705 -0.1513
  707SOL    HW2 2121   1.025   2.802   2.285  0.1935  0.1434 -0.5868
  708SOL     OW 2122   0.039   2.355   1.805 -0.2179 -0.4714  0.4858
  708SOL    HW1 2123   3.083   2.283   1.774 -2.2998  0.7094  1.1285
  708SOL    HW2 2124   0.118   2.369   1.736  2.3407  1.9706 -3.0128
  709SOL     OW 2125   1.975   0.241   1.767 -0.0695  0.0065  0.0504
  709SOL    HW1 2126   1.931   0.327   1.733 -0.3550 -0.9303 -0.5842
  709SOL    HW2 2127   1.976   0.244   1.871 -0.3863  1.2648  0.3135
  710SOL     OW 2128   1.453   0.376   2.688  0.7098 -0.6108 -0.4417
  710SOL    HW1 2129   1.466   0.365   2.790  0.3384  0.6144  1.6302
  710SOL    HW2 2130   1.455   0.474   2.665 -1.5136 -2.8919 -1.7961
  711SOL     OW 2131   0.936   1.698   2.615 -0.4198  0.5194 -0.2980
  711SOL    HW1 2132   0.867   1.767   2.594 -0.4338 -1.9619  3.3361
  711SOL    HW2 2133   0.993   1.669   2.535 -1.6330  0.1712  1.3994
  712SOL     OW 2134   0.988   2.037   2.576  0.0389 -0.7387 -0.2652
  712SOL    HW1 2135   1.050   1.980   2.630  1.1420  0.4780  1.0084
  712SOL    HW2 2136   0.921   2.088   2.632  0.9327  1.5906 -1.5619
  713SOL     OW 2137   1.784   1.120   2.679 -0.7393  0.1865  0.3543
  713SOL    HW1 2138   1.740   1.068   2.757 -2.8240 -0.6419  0.6722
  713SOL    HW2 2139   1.836   1.208   2.702 -0.6290  1.2006 -2.0130
  714SOL     OW 2140   1.030   1.585   1.965  0.0334 -1.0829  0.1450
  714SOL    HW1 2141   0.968   1.508   1.965  0.0610 -0.0601 -0.5049
  714SOL    HW2 2142   0.979   1.673   1.946  2.6479 -0.1582 -0.5071
  715SOL     OW 2143   2.035   0.402   2.838 -0.3012 -0.0200 -0.9315
  715SOL    HW1 2144   2.079   0.309   2.833  1.6885 -0.9414 -1.2760
  715SOL    HW2 2145   1.937   0.398   2.822  1.3630 -0.3450  0.3008
  716SOL     OW 2146   3.007   2.352   1.309  0.5783 -0.3966  0.4197
  716SOL    HW1 2147   2.960   2.395   1.387  2.6064 -3.4006 -1.5859
  716SOL    HW2 2148   2.975   2.384   1.218  0.8933 -0.4875  0.3428
  717SOL     OW 2149   2.698   1.228   0.738  0.5888 -0.3243 -0.0069
  717SOL    HW1 2150   2.673   1.278   0.820 -0.5769  1.1201  0.9482
  717SOL    HW2 2151   2.613   1.188   0.702  0.8868 -0.0304  0.3310
  718SOL     OW 2152   1.066   2.028   1.998 -0.8912 -0.1475 -0.4807
  718SOL    HW1 2153   1.092   2.129   2.010 -1.0056 -1.0573  0.8785
  718SOL    HW2 2154   1.129   1.977   2.058 -3.5722  1.2324 -0.6841
  719SOL     OW 2155   2.305   0.460   2.833  0.1154  0.5233  0.1352
  719SOL    HW1 2156   2.208   0.450   2.838  3.3297 -0.8939 -0.4122
  719SOL    HW2 2157   2.352   0.477   2.921  0.8458  0.1135  1.7874
  720SOL     OW 2158   0.818   0.258   1.271  0.0538  0.3397 -0.2886
  720SOL    HW1 2159   0.770   0.229   1.352  1.9287 -1.1393  1.0971
  720SOL    HW2 2160   0.913   0.219   1.271 -2.6160  0.8396 -0.9108
  721SOL     OW 2161   2.634   0.947   0.430  0.0113 -0.2955  0.3757
  721SOL    HW1 2162   2.689   1.019   0.380 -0.1304 -0.2985  1.6593
  721SOL    HW2 2163   2.696   0.889   0.482  0.4018 -0.2986 -4.2119
  722SOL     OW 2164   0.052   2.998   2.683 -0.2333  0.1148  0.3408
  722SOL    HW1 2165   3.090   2.969   2.749 -0.7551 -2.4473 -1.0273
  722SOL    HW2 2166   0.135   3.027   2.732  0.5749  1.0775  1.7046
  723SOL     OW 2167   1.672   0.338   0.572 -0.3706  0.2699 -0.0961
  723SOL    HW1 2168   1.734   0.265   0.605  1.5649 -2.1769  0.6843
  723SOL    HW2 2169   1.615   0.308   0.491  1.6121 -2.1942  0.4165
  724SOL     OW 2170   0.826   1.411   2.200  0.3918  0.8918 -0.4603
  724SOL    HW1 2171   0.904   1.348   2.226 -0.6103 -2.6392 -0.8242
  724SOL    HW2 2172   0.839   1.505   2.233 -0.8802 -3.5377 -1.8479
  725SOL     OW 2173   1.569   2.809   0.972  0.5691 -0.2106 -0.2511
  725SOL    HW1 2174   1.613   2.810   1.066  0.7446  2.2391 -0.8523
  725SOL    HW2 2175   1.587   2.894   0.918  0.2556 -0.1700  0.2993
  726SOL     OW 2176   2.213   0.002   0.101 -0.8355 -0.5605  0.3100
  726SOL    HW1 2177   2.229   0.075   0.170 -0.7558  1.1780  0.3111
  726SOL    HW2 2178   2.301   3.093   0.050  1.0164  1.9546 -2.1714
  727SOL     OW 2179   1.302   1.843   0.834  0.0252  0.0763  0.1235
  727SOL    HW1 2180   1.387   1.891   0.804  1.1704 -1.7978  3.7861
  727SOL    HW2 2181   1.256   1.796   0.757  0.5416  0.1469 -0.1124
  728SOL     OW 2182   2.065   2.739   1.980  0.1744  0.1727  0.2091
  728SOL    HW1 2183   2.025   2.736   1.886  0.3107  1.7475 -0.9948
  728SOL    HW2 2184   2.089   2.839   1.999 -0.4990  2.2518 -3.2819
  729SOL     OW 2185   1.847   1.876   1.416  0.0163 -0.4102  0.1049
  729SOL    HW1 2186   1.766   1.852   1.354  1.5276  0.3356 -1.0854
  729SOL    HW2 2187   1.935   1.833   1.390 -0.0743 -2.0576  0.5399
  730SOL     OW 2188   1.640   1.030   0.167  0.7959 -0.4023 -0.0136
  730SOL    HW1 2189   1.609   1.117   0.215  0.8663  2.2094  0.5795
  730SOL    HW2 2190   1.658   0.949   0.224  1.2577  0.8054 -0.7586
  731SOL     OW 2191   0.636   2.951   1.276  0.3818  0.6385  0.1828
  731SOL    HW1 2192   0.660   3.037   1.223 -0.0916 -0.6687 -0.4535
  731SOL    HW2 2193   0.586   2.883   1.215  0.8752 -1.0529 -1.7391
  732SOL     OW 2194   1.331   0.117   1.022 -0.2071 -0.1334 -0.2440
  732SOL    HW1 2195   1.362   0.208   1.062  3.5128  3.7805  1.3673
  732SOL    HW2 2196   1.384   0.098   0.935  1.3646 -0.5003 -1.2875
  733SOL     OW 2197   0.834   1.212   1.118  0.1592  0.0377 -0.0798
  733SOL    HW1 2198   0.792   1.305   1.105 -1.1303  1.0122  0.9128
  733SOL    HW2 2199   0.890   1.186   1.041 -1.0932 -1.6508  0.5884
  734SOL     OW 2200   2.762   2.711   2.827 -0.2238  0.1155 -0.2272
  734SOL    HW1 2201   2.744   2.763   2.913 -0.9045  0.6524  2.6136
  734SOL    HW2 2202   2.727   2.620   2.835  1.4394 -0.1184  0.0758
  735SOL     OW 2203   1.135   2.731   1.227  0.2981  0.2156  0.6695
  735SOL    HW1 2204   1.172   2.750   1.317 -0.7521  1.0691  1.6168
  735SOL    HW2 2205   1.206   2.733   1.154  0.4394 -1.2567 -1.0587
  736SOL     OW 2206   1.681   1.944   0.230 -0.2243 -0.3885  0.7196
  736SOL    HW1 2207   1.657   2.043   0.252 -0.7535  2.3135 -0.8652
  736SOL    HW2 2208   1.771   1.931   0.180  4.3527 -0.0030 -0.4351
  737SOL     OW 2209   2.995   1.823   1.386  0.0099  0.3762  0.3795
  737SOL    HW1 2210   3.070   1.819   1.311  2.0060  0.7300 -3.0423
  737SOL    HW2 2211   2.974   1.922   1.398 -0.1875  0.6860 -2.6256
  738SOL     OW 2212   2.061   2.280   2.556 -0.4491 -0.5265  0.7597
  738SOL    HW1 2213   2.044   2.350   2.626  2.7139  1.0362 -2.4759
  738SOL    HW2 2214   2.113   2.323   2.480  1.6975 -0.1326  1.1876
  739SOL     OW 2215   1.354   1.738   2.474  0.2349  0.0372 -0.3698
  739SOL    HW1 2216   1.365   1.841   2.469  2.3256 -0.3986 -0.0682
  739SOL    HW2 2217   1.337   1.714   2.574 -3.0826 -2.8589 -0.1698
  740SOL     OW 2218   1.309   2.776   1.006 -0.0654 -0.0376 -0.8080
  740SOL    HW1 2219   1.407   2.794   0.986 -0.8708  0.7430  1.1572
  740SOL    HW2 2220   1.249   2.742   0.929  0.7254 -0.4118  0.5048
  741SOL     OW 2221   0.082   1.013   0.320 -0.3187  0.3867 -0.2284
  741SOL    HW1 2222   3.106   0.984   0.370  0.1890  0.2358  1.0031
  741SOL    HW2 2223   0.146   1.063   0.381  0.4839 -3.5153 -1.5315
  742SOL     OW 2224   1.132   1.574   2.427  0.6669  0.5746 -0.2380
  742SOL    HW1 2225   1.183   1.484   2.444  0.8246 -1.1513 -1.2226
  742SOL    HW2 2226   1.196   1.650   2.423 -0.0886  0.8790 -0.3670
  743SOL     OW 2227   1.059   0.821   2.256 -0.2636 -0.8344  0.0626
  743SOL    HW1 2228   1.003   0.762   2.195  0.7879  2.7031  1.7116
  743SOL    HW2 2229   1.149   0.845   2.209 -0.4200  1.6642  0.9589
  744SOL     OW 2230   2.301   0.005   1.426  0.5305 -0.0638  0.2178
  744SOL    HW1 2231   2.242   3.051   1.367  0.9701 -2.3417 -1.8256
  744SOL    HW2 2232   2.363   3.070   1.492 -3.0112 -0.1168 -2.3857
  745SOL     OW 2233   2.064   1.669   1.329  0.0035  0.0722  0.1527
  745SOL    HW1 2234   2.112   1.717   1.403 -2.4055 -3.1027  1.2017
  745SOL    HW2 2235   2.107   1.578   1.319 -1.7822  0.3654 -1.9460
  746SOL     OW 2236   1.843   1.201   0.673 -0.4820  0.1192 -0.4378
  746SOL    HW1 2237   1.849   1.265   0.595  1.1981 -0.8880 -1.6973
  746SOL    HW2 2238   1.749   1.164   0.689 -2.7613  2.0845  0.3687
  747SOL     OW 2239   2.344   1.640   0.386 -0.2161 -0.8325 -0.4480
  747SOL    HW1 2240   2.352   1.558   0.446 -0.6383 -0.9424 -0.3106
  747SOL    HW2 2241   2.248   1.662   0.364  0.8866 -2.2296  1.2311
  748SOL     OW 2242   0.337   1.766   0.333 -0.5788  0.8250 -0.0067
  748SOL    HW1 2243   0.304   1.782   0.235 -2.2543 -1.7442 -2.5705
  748SOL    HW2 2244   0.339   1.666   0.350 -0.3606  0.8384 -0.1995
  749SOL     OW 2245   2.969   2.370   2.724 -0.6150  0.3409 -0.0784
  749SOL    HW1 2246   2.874   2.333   2.725  0.6175  1.8231  0.5573
  749SOL    HW2 2247   2.971   2.469   2.754 -0.2341  3.4425  0.2717
  750SOL     OW 2248   2.031   0.988   0.611 -0.4668 -0.0744  0.0433
  750SOL    HW1 2249   2.056   0.951   0.702 -4.2737  1.2533  1.6040
  750SOL    HW2 2250   1.965   1.062   0.615  5.1672 -3.0481  0.4188
  751SOL     OW 2251   2.576   0.197   0.068  0.0914  0.1780 -0.2168
  751SOL    HW1 2252   2.564   0.173   3.081 -0.8310  1.9543  2.7650
  751SOL    HW2 2253   2.607   0.111   0.122  1.3701 -2.1783 -0.0553
  752SOL     OW 2254   2.474   2.699   0.781  0.3022  0.4694  0.1421
  752SOL    HW1 2255   2.475   2.798   0.778 -0.2860  1.1003 -0.8980
  752SOL    HW2 2256   2.526   2.669   0.699 -0.5656  1.9623 -3.3771
  753SOL     OW 2257   1.735   1.244   2.322  0.1689  0.0946  0.4199
  753SOL    HW1 2258   1.699   1.174   2.386 -2.4515 -0.5686  1.7152
  753SOL    HW2 2259   1.775   1.320   2.372  1.3232  0.5716 -0.4532
  754SOL     OW 2260   1.889   2.320   1.919 -0.1544 -0.3470  0.2735
  754SOL    HW1 2261   1.888   2.230   1.870 -0.3839 -1.5795 -1.6548
  754SOL    HW2 2262   1.921   2.308   2.017 -0.1333 -1.3812 -0.4788
  755SOL     OW 2263   2.335   1.030   0.919 -0.3636 -0.3655  0.2215
  755SOL    HW1 2264   2.420   0.976   0.914 -0.3386 -1.2064  0.5526
  755SOL    HW2 2265   2.355   1.127   0.917 -0.5694 -1.1553  0.4099
  756SOL     OW 2266   1.002   1.181   3.036  0.1128 -0.1297  0.1805
  756SOL    HW1 2267   0.925   1.188   3.104  3.7779 -0.0812  0.7389
  756SOL    HW2 2268   0.964   1.193   2.936 -1.2654  0.7206 -2.3997
  757SOL     OW 2269   1.824   2.359   1.115  0.2813 -0.4457 -0.5361
  757SOL    HW1 2270   1.870   2.300   1.182 -1.1769 -1.4099  1.8696
  757SOL    HW2 2271   1.886   2.438   1.104  0.8283 -1.8424  1.9688
  758SOL     OW 2272   0.917   2.274   1.252  0.1132  0.2485  0.0602
  758SOL    HW1 2273   0.963   2.347   1.300 -1.8215  0.3073 -1.2616
  758SOL    HW2 2274   0.934   2.183   1.297  1.8667 -0.2606 -0.6850
  759SOL     OW 2275   2.645   1.293   1.104 -0.1521  0.2320  0.7629
  759SOL    HW1 2276   2.633   1.359   1.185 -1.3148 -2.0894  0.4213
  759SOL    HW2 2277   2.735   1.309   1.057  0.1751 -0.2800  0.4794
  760SOL     OW 2278   2.037   1.122   1.606 -0.1324 -0.5712  0.3585
  760SOL    HW1 2279   2.067   1.099   1.509 -1.6115 -1.7502 -0.0006
  760SOL    HW2 2280   1.936   1.109   1.615  0.1491 -0.2407 -0.7335
  761SOL     OW 2281   2.078   2.902   0.226 -0.0092  0.3425 -0.1801
  761SOL    HW1 2282   2.146   2.851   0.281  3.2122 -1.1224  0.5470
  761SOL    HW2 2283   2.124   2.989   0.198 -1.1528 -1.9067  0.1376
  762SOL     OW 2284   1.999   1.878   2.611 -0.0724  0.0898  0.1925
  762SOL    HW1 2285   1.959   1.857   2.515 -0.6551 -0.4143 -1.2895
  762SOL    HW2 2286   2.079   1.936   2.598 -1.0993 -2.6289  2.4207
  763SOL     OW 2287   0.635   1.487   1.446  0.1525 -0.0423  0.6651
  763SOL    HW1 2288   0.707   1.415   1.431 -1.2939 -1.0267 -0.6588
  763SOL    HW2 2289   0.574   1.461   1.523  0.3146  1.9577  0.3054
  764SOL     OW 2290   3.043   2.457   0.038 -0.2836  0.4159  0.0707
  764SOL    HW1 2291   2.955   2.484   0.078 -0.2858  3.1444 -0.2956
  764SOL    HW2 2292   3.075   2.509   3.065  1.2896  0.5742 -1.5408
  765SOL     OW 2293   0.657   3.027   1.522 -0.6888  0.4434  0.2793
  765SOL    HW1 2294   0.635   2.978   1.434  2.0004  1.5190 -0.2327
  765SOL    HW2 2295   0.753   3.049   1.529 -0.4937  1.2643 -0.7363
  766SOL     OW 2296   0.091   2.203   2.022  0.2294 -0.3178 -0.2494
  766SOL    HW1 2297   0.192   2.201   2.044  1.0132  0.2066 -0.5584
  766SOL    HW2 2298   0.082   2.260   1.940 -0.6124 -1.8911 -0.0361
  767SOL     OW 2299   2.642   1.123   1.933  0.0538 -0.7999  0.0171
  767SOL    HW1 2300   2.572   1.153   1.867  2.0005 -0.1897  0.2218
  767SOL    HW2 2301   2.711   1.069   1.883  1.2625 -1.1321 -0.0421
  768SOL     OW 2302   0.734   0.416   2.741 -0.6914 -0.4124  0.0160
  768SOL    HW1 2303   0.673   0.430   2.825  0.2259  0.4068  1.6271
  768SOL    HW2 2304   0.834   0.434   2.751 -0.5183 -2.8350  0.2021
  769SOL     OW 2305   2.218   2.773   1.085  0.2220  0.0103 -0.4746
  769SOL    HW1 2306   2.316   2.745   1.071  2.7051  0.8841 -0.6850
  769SOL    HW2 2307   2.199   2.855   1.033 -1.2327  1.3339  2.0871
  770SOL     OW 2308   2.862   0.303   2.669 -0.6958  0.2996  0.8692
  770SOL    HW1 2309   2.839   0.360   2.589 -0.5886 -0.4581 -0.7521
  770SOL    HW2 2310   2.959   0.304   2.684  1.1769  0.0798 -0.6265
  771SOL     OW 2311   1.529   2.266   2.146 -0.0112 -0.3619 -0.1860
  771SOL    HW1 2312   1.512   2.249   2.044  2.6504  0.0734 -4.3854
  771SOL    HW2 2313   1.458   2.211   2.200  0.2293 -1.7948 -0.1162
  772SOL     OW 2314   1.285   0.453   0.366  0.5625  0.0762  0.5245
  772SOL    HW1 2315   1.221   0.380   0.334  0.5842  1.5916 -2.2573
  772SOL    HW2 2316   1.280   0.537   0.309  0.1777 -0.8563 -1.2452
  773SOL     OW 2317   2.556   0.837   1.639  0.3664 -0.0388  0.1641
  773SOL    HW1 2318   2.638   0.812   1.688 -2.9692 -0.5202 -0.9834
  773SOL    HW2 2319   2.502   0.901   1.693 -0.7059 -1.7321  2.2008
  774SOL     OW 2320   1.009   1.116   0.927 -0.6355  0.5518  0.3709
  774SOL    HW1 2321   1.050   1.186   0.863 -1.5783 -0.6704 -0.4165
  774SOL    HW2 2322   1.072   1.033   0.951  0.3948 -2.7547 -2.2587
  775SOL     OW 2323   2.537   0.092   2.933 -0.3799 -0.0614 -0.3218
  775SOL    HW1 2324   2.495   0.104   2.843 -0.6924  0.8732 -0.5968
  775SOL    HW2 2325   2.505   0.004   2.971  0.4072 -0.2263  0.5360
  776SOL     OW 2326   2.319   1.249   1.889  0.0045 -0.7685 -0.2725
  776SOL    HW1 2327   2.288   1.241   1.989  0.3633  0.0473  0.7184
  776SOL    HW2 2328   2.303   1.348   1.858  0.5538 -0.3149  0.4935
  777SOL     OW 2329   0.347   1.180   2.429 -0.2067 -0.4430 -0.3934
  777SOL    HW1 2330   0.316   1.211   2.337 -0.4809 -0.9970  1.8216
  777SOL    HW2 2331   0.403   1.102   2.416 -1.4247  1.6999  2.8469
  778SOL     OW 2332   0.632   0.551   0.174  0.2007  0.0933 -0.5723
  778SOL    HW1 2333   0.699   0.478   0.153  3.8688 -1.2364  0.1915
  778SOL    HW2 2334   0.542   0.539   0.130 -0.0126  0.2193 -3.6405
  779SOL     OW 2335   0.647   0.259   2.501 -0.6439  0.0728 -0.1336
  779SOL    HW1 2336   0.675   0.302   2.590 -1.0397 -0.9039  1.8362
  779SOL    HW2 2337   0.568   0.197   2.512 -0.0401 -0.4590  1.8995
  780SOL     OW 2338   2.200   0.874   2.661  0.3477 -0.0171 -0.3450
  780SOL    HW1 2339   2.266   0.923   2.723  1.6526 -1.1198  0.7987
  780SOL    HW2 2340   2.250   0.793   2.623  2.3830  0.1595 -1.2403
  781SOL     OW 2341   2.858   1.043   1.786  0.3960 -0.5343 -0.2458
  781SOL    HW1 2342   2.863   0.980   1.704  3.1735 -0.9227  0.1872
  781SOL    HW2 2343   2.906   1.002   1.869  3.4178 -0.5936 -0.3415
  782SOL     OW 2344   0.845   1.245   2.801  0.1256  0.3384 -0.3438
  782SOL    HW1 2345   0.751   1.255   2.832  2.5196 -0.5522  0.3588
  782SOL    HW2 2346   0.866   1.310   2.722 -0.7774  2.4800 -3.8311
  783SOL     OW 2347   1.053   2.478   1.369 -0.4025 -0.1118  0.2300
  783SOL    HW1 2348   1.107   2.538   1.309 -0.7085  0.6253 -0.0272
  783SOL    HW2 2349   1.108   2.408   1.417 -1.6767 -0.4072  0.3994
  784SOL     OW 2350   1.572   0.390   2.935  0.0078 -0.2373 -0.3709
  784SOL    HW1 2351   1.609   0.330   3.005 -2.6168 -0.0167 -2.0280
  784SOL    HW2 2352   1.631   0.469   2.920 -0.9055  1.1319  0.8857
  785SOL     OW 2353   0.940   0.121   2.073 -0.4487 -0.3798 -0.3444
  785SOL    HW1 2354   0.904   0.147   2.169  2.3727 -0.2207  3.3202
  785SOL    HW2 2355   0.888   0.173   2.000  0.1496  1.7917 -1.7125
  786SOL     OW 2356   0.502   1.974   0.378 -0.2454  0.1339 -0.4573
  786SOL    HW1 2357   0.459   1.883   0.358 -0.0649 -1.8434 -0.7888
  786SOL    HW2 2358   0.463   2.012   0.461  0.6480  0.2573  0.1118
  787SOL     OW 2359   1.232   0.812   0.563 -0.3421  0.1327 -0.1792
  787SOL    HW1 2360   1.249   0.915   0.557  1.3945  3.3446  1.3473
  787SOL    HW2 2361   1.128   0.801   0.562 -1.0432 -1.5496  1.9795
  788SOL     OW 2362   2.584   1.497   1.303  0.3065  0.4412 -0.3895
  788SOL    HW1 2363   2.648   1.549   1.363 -0.1314  0.9215 -0.1957
  788SOL    HW2 2364   2.512   1.463   1.363  1.3095 -1.4616 -2.5380
  789SOL     OW 2365   2.671   1.234   2.174 -0.0135  0.6284 -0.1645
  789SOL    HW1 2366   2.684   1.195   2.079 -0.6312 -1.9079 -0.7339
  789SOL    HW2 2367   2.587   1.285   2.192  1.5148  0.8516 -1.0341
  790SOL     OW 2368   0.723   3.102   0.220  0.1829 -0.2591 -0.3947
  790SOL    HW1 2369   0.785   3.023   0.217  1.4225  1.5953  0.8904
  790SOL    HW2 2370   0.767   0.079   0.255 -0.1373  0.4349 -1.9534
  791SOL     OW 2371   0.284   0.800   0.102  0.3280 -0.3462 -0.1820
  791SOL    HW1 2372   0.233   0.892   0.100  1.2178  2.4308  0.2917
  791SOL    HW2 2373   0.373   0.807   0.056  1.5971  3.8647  0.5842
  792SOL     OW 2374   1.506   0.617   2.590  0.8172  0.2577  0.5176
  792SOL    HW1 2375   1.424   0.636   2.535  0.1017 -1.4566  1.9728
  792SOL    HW2 2376   1.590   0.647   2.537  2.1515 -1.9416  1.3974
  793SOL     OW 2377   2.871   0.194   0.698 -0.2964  1.1119  0.2438
  793SOL    HW1 2378   2.866   0.141   0.609 -2.1945 -0.2339 -0.4463
  793SOL    HW2 2379   2.879   0.289   0.675  1.2362 -1.6547  2.0721
  794SOL     OW 2380   0.219   0.563   1.904 -0.4098  0.0112 -0.2958
  794SOL    HW1 2381   0.266   0.626   1.835 -0.5787 -3.1172 -1.9387
  794SOL    HW2 2382   0.119   0.585   1.916 -0.1933  1.4856  0.1164
  795SOL     OW 2383   0.425   1.262   3.095  0.1478 -0.1754  0.4767
  795SOL    HW1 2384   0.485   1.212   0.051 -2.0165 -0.1667 -0.2796
  795SOL    HW2 2385   0.381   1.345   0.031  1.7172 -0.1459  0.9261
  796SOL     OW 2386   0.101   0.991   0.054 -0.5076  0.0670 -1.2419
  796SOL    HW1 2387   0.086   0.995   0.156 -0.7737 -0.3228  2.4137
  796SOL    HW2 2388   0.125   1.076   0.016  1.7218 -2.5568  1.1745
  797SOL     OW 2389   1.775   2.579   2.872  0.3150 -0.0198 -0.2635
  797SOL    HW1 2390   1.726   2.619   2.956 -1.1847 -0.0026  0.5909
  797SOL    HW2 2391   1.721   2.602   2.790  0.3007 -0.6515  2.0252
  798SOL     OW 2392   0.211   0.592   1.196 -0.0745 -0.2838 -0.0385
  798SOL    HW1 2393   0.190   0.589   1.094 -0.1682  1.8215 -0.7169
  798SOL    HW2 2394   0.213   0.500   1.239  1.4408  1.2472 -0.0037
  799SOL     OW 2395   2.198   0.568   2.026 -0.2018 -0.3698  0.0066
  799SOL    HW1 2396   2.162   0.607   2.113 -0.9108  0.4127  0.8106
  799SOL    HW2 2397   2.237   0.641   1.959 -0.1668  0.1459  0.4868
  800SOL     OW 2398   3.033   1.949   0.365 -0.1990  0.2306 -0.2487
  800SOL    HW1 2399   0.020   1.942   0.402  3.7951 -0.8643  1.3297
  800SOL    HW2 2400   3.000   1.860   0.345 -1.0399  0.5115  0.4405
  801SOL     OW 2401   1.507   1.973   0.683  0.1654 -0.2764  0.1359
  801SOL    HW1 2402   1.527   1.924   0.591 -1.5682 -0.4792 -1.7768
  801SOL    HW2 2403   1.575   2.047   0.705  0.2150  2.1414 -0.5045
  802SOL     OW 2404   1.256   1.580   2.923 -0.2225 -0.0023  0.5872
  802SOL    HW1 2405   1.275   1.501   2.982 -1.7365  2.1036 -0.0425
  802SOL    HW2 2406   1.153   1.594   2.906 -2.1657  1.8154 -2.4856
  803SOL     OW 2407   0.405   1.840   1.776 -0.0950  0.3948  0.6177
  803SOL    HW1 2408   0.323   1.780   1.795 -1.6778 -2.3190 -0.6932
  803SOL    HW2 2409   0.416   1.852   1.677  0.9684  1.6768  2.5506
  804SOL     OW 2410   1.546   2.396   1.026  0.5269 -0.0874  0.0048
  804SOL    HW1 2411   1.642   2.370   1.047 -2.4018  1.1232  0.6176
  804SOL    HW2 2412   1.535   2.426   0.927 -3.6015  0.3641 -3.0531
  805SOL     OW 2413   2.448   2.335   2.397  0.1080  0.2741 -0.5063
  805SOL    HW1 2414   2.534   2.379   2.431  0.2460  0.8496  1.0905
  805SOL    HW2 2415   2.429   2.248   2.453  1.3416 -1.5065 -1.1118
  806SOL     OW 2416   2.511   2.983   0.740 -0.3898 -0.0461  0.1992
  806SOL    HW1 2417   2.414   3.020   0.754  1.6125  1.6641  0.7494
  806SOL    HW2 2418   2.572   3.043   0.792 -0.3472 -0.6222 -0.5940
  807SOL     OW 2419   0.250   1.077   2.677  0.1985  0.6127  0.1377
  807SOL    HW1 2420   0.297   1.085   2.590  0.3331  0.2603 -0.3502
  807SOL    HW2 2421   0.160   1.123   2.670 -0.5391  2.1927  0.0969
  808SOL     OW 2422   0.649   1.866   0.714 -0.0789 -0.2238  0.3280
  808SOL    HW1 2423   0.642   1.923   0.802  0.4233  1.6788  0.3131
  808SOL    HW2 2424   0.634   1.921   0.629  0.8062  0.9415  1.5240
  809SOL     OW 2425   2.568   0.010   2.094 -0.4552  0.3078  0.0956
  809SOL    HW1 2426   2.572   0.082   2.024 -1.4834  0.7124  2.3090
  809SOL    HW2 2427   2.545   3.025   2.060  2.9175 -0.4265 -0.9887
  810SOL     OW 2428   1.354   0.468   1.482  0.1137 -0.2703  0.4193
  810SOL    HW1 2429   1.292   0.384   1.462 -1.5732 -0.4133  1.6037
  810SOL    HW2 2430   1.326   0.525   1.560  2.0145 -0.5379 -0.0917
  811SOL     OW 2431   1.961   0.152   2.037 -0.6801 -0.0546 -0.3917
  811SOL    HW1 2432   1.945   0.095   1.957 -2.1298  1.0910  0.4988
  811SOL    HW2 2433   1.905   0.119   2.115  2.0392  2.2954 -0.4188
  812SOL     OW 2434   1.964   2.049   0.440  0.3573 -0.0605  0.0686
  812SOL    HW1 2435   2.001   2.011   0.351 -1.8317  1.5418 -2.1564
  812SOL    HW2 2436   1.975   1.987   0.519 -2.2002 -0.4062 -2.0015
  813SOL     OW 2437   1.140   0.480   1.906 -0.2969 -0.8115  0.0812
  813SOL    HW1 2438   1.072   0.512   1.975 -2.6826  0.6452 -0.5283
  813SOL    HW2 2439   1.208   0.550   1.882 -1.1896  2.6287 -1.4408
  814SOL     OW 2440   0.397   0.056   1.190 -0.3212 -0.1520 -0.1383
  814SOL    HW1 2441   0.342   3.104   1.245 -0.5165  0.4437 -2.4382
  814SOL    HW2 2442   0.495   0.063   1.219  0.8390 -1.3083 -1.1216
  815SOL     OW 2443   0.146   0.120   0.572  0.2193  0.8822 -0.5923
  815SOL    HW1 2444   0.215   0.048   0.570 -1.2954 -3.0328 -1.7531
  815SOL    HW2 2445   0.146   0.163   0.665  0.4797 -3.5181 -0.4171
  816SOL     OW 2446   2.591   1.834   2.215 -0.4079  0.5938 -0.1351
  816SOL    HW1 2447   2.659   1.761   2.182  0.2164 -3.1678  0.8102
  816SOL    HW2 2448   2.520   1.796   2.280 -0.3743 -0.5846  0.5319
  817SOL     OW 2449   1.044   2.905   0.704 -0.1822 -1.0337 -0.0603
  817SOL    HW1 2450   1.113   2.981   0.700 -0.7460  1.0657  0.6648
  817SOL    HW2 2451   1.085   2.825   0.752 -1.6427 -1.7317 -0.7695
  818SOL     OW 2452   1.698   0.628   2.842  0.4271  0.1289 -0.2202
  818SOL    HW1 2453   1.642   0.662   2.763 -1.1314 -1.4860 -1.2510
  818SOL    HW2 2454   1.781   0.686   2.854 -0.7208 -0.7386  3.4545
  819SOL     OW 2455   2.153   0.446   0.104 -0.1643 -0.6752  0.1602
  819SOL    HW1 2456   2.250   0.454   0.127 -1.1570  0.1763 -1.5562
  819SOL    HW2 2457   2.135   0.357   0.059 -1.2939  0.9778 -0.4666
  820SOL     OW 2458   1.935   0.790   2.871  0.4201 -0.0387 -0.4395
  820SOL    HW1 2459   1.967   0.725   2.943 -1.7078 -2.0202  0.9213
  820SOL    HW2 2460   1.978   0.774   2.775  0.6680 -1.4535 -1.9447
  821SOL     OW 2461   2.891   0.420   0.966  0.2116 -0.2052  0.1056
  821SOL    HW1 2462   2.924   0.331   0.941 -0.9160 -0.7533  0.6337
  821SOL    HW2 2463   2.964   0.486   0.968  0.0715 -0.5456 -1.3975
  822SOL     OW 2464   1.261   2.470   2.420 -0.2416  0.0423 -0.0584
  822SOL    HW1 2465   1.231   2.385   2.371 -1.2628 -0.9117  0.2208
  822SOL    HW2 2466   1.177   2.514   2.458  0.5656 -1.1979  0.7802
  823SOL     OW 2467   0.457   1.434   1.666  0.0229  0.0420  0.4304
  823SOL    HW1 2468   0.502   1.458   1.755  0.1477  1.8272 -0.3681
  823SOL    HW2 2469   0.399   1.351   1.682  0.5019  1.6696  2.2947
  824SOL     OW 2470   1.620   2.663   2.670 -0.4985  0.1985  0.9856
  824SOL    HW1 2471   1.660   2.643   2.579  0.3705  3.1108  1.5748
  824SOL    HW2 2472   1.637   2.761   2.680  1.0716  0.8622  1.4259
  825SOL     OW 2473   1.608   0.743   0.282 -0.2799  0.3562 -0.0879
  825SOL    HW1 2474   1.669   0.757   0.362 -3.8183 -1.3742  0.2231
  825SOL    HW2 2475   1.658   0.696   0.204  1.1472  1.1862  2.8574
  826SOL     OW 2476   2.187   0.953   0.064 -0.1497 -0.1663  0.1198
  826SOL    HW1 2477   2.088   0.932   0.084 -0.3473  0.8117 -0.4121
  826SOL    HW2 2478   2.231   0.860   0.060  0.4536 -0.5126  1.3493
  827SOL     OW 2479   0.849   1.412   2.603  0.1629 -0.3477  0.8397
  827SOL    HW1 2480   0.811   1.373   2.520 -0.5838 -0.6232 -0.2135
  827SOL    HW2 2481   0.887   1.505   2.578  0.4822  1.2267  0.6151
  828SOL     OW 2482   2.363   1.417   1.479  0.0290 -0.2243 -0.4414
  828SOL    HW1 2483   2.328   1.490   1.537  1.6060 -0.6272 -1.5393
  828SOL    HW2 2484   2.422   1.348   1.530 -0.0183  1.3357 -0.7740
  829SOL     OW 2485   0.251   1.643   0.711 -0.0470  0.8579 -0.3547
  829SOL    HW1 2486   0.192   1.582   0.760 -1.4631 -0.2175 -1.7461
  829SOL    HW2 2487   0.334   1.663   0.770 -0.8028 -2.5704  2.2006
  830SOL     OW 2488   1.420   0.992   1.049 -0.5113 -0.6117  0.2552
  830SOL    HW1 2489   1.418   1.076   0.991 -1.2501 -0.1118  1.4796
  830SOL    HW2 2490   1.499   0.996   1.111 -2.9834 -0.3618 -3.8810
  831SOL     OW 2491   0.274   1.808   0.044  0.3587 -0.1268  0.3062
  831SOL    HW1 2492   0.191   1.801   3.094  1.1441 -0.1227 -0.7763
  831SOL    HW2 2493   0.319   1.717   0.047 -0.0101 -3.1308  1.4268
  832SOL     OW 2494   0.891   0.202   0.296  0.0589 -0.1275  1.0503
  832SOL    HW1 2495   0.913   0.249   0.384  0.9086 -1.9514  1.1778
  832SOL    HW2 2496   0.960   0.126   0.292  3.7953  0.7730 -0.0086
  833SOL     OW 2497   0.766   0.495   1.883  0.3303 -0.0148 -0.9215
  833SOL    HW1 2498   0.713   0.577   1.901  1.3868 -0.4010  1.8286
  833SOL    HW2 2499   0.802   0.492   1.786  0.0294 -0.9468 -0.0483
  834SOL     OW 2500   0.137   0.232   0.811  0.1099 -0.2861  0.0666
  834SOL    HW1 2501   0.051   0.237   0.869 -1.6385 -1.1079 -0.9566
  834SOL    HW2 2502   0.226   0.215   0.867  0.2344 -1.6724  1.2611
  835SOL     OW 2503   2.605   0.092   1.078  0.5130 -0.7055  0.3429
  835SOL    HW1 2504   2.654   0.159   1.132 -4.0879 -2.1819 -2.7369
  835SOL    HW2 2505   2.614   0.109   0.981  0.5406 -2.2513 -0.7787
  836SOL     OW 2506   0.527   2.049   2.996  0.2497  0.4943 -0.3510
  836SOL    HW1 2507   0.589   2.125   3.017 -0.1974 -0.7472  0.5017
  836SOL    HW2 2508   0.426   2.063   3.017  1.9609 -0.1102 -0.7590
  837SOL     OW 2509   1.614   1.485   2.562 -0.4055 -0.0011 -0.1883
  837SOL    HW1 2510   1.627   1.585   2.527 -1.2547  2.1102  0.2748
  837SOL    HW2 2511   1.696   1.431   2.536 -0.1270  0.6208 -0.7439
  838SOL     OW 2512   0.051   0.811   1.529 -0.1983 -0.0005 -0.4525
  838SOL    HW1 2513   0.087   0.809   1.436 -0.9460  0.2311  2.9554
  838SOL    HW2 2514   0.104   0.871   1.589  0.0895 -2.0426 -3.0989
  839SOL     OW 2515   0.823   1.220   0.757 -0.0564 -0.1734  0.1034
  839SOL    HW1 2516   0.829   1.232   0.659  1.7978  2.8082 -0.1342
  839SOL    HW2 2517   0.901   1.161   0.789  1.7464  1.1028 -1.9981
  840SOL     OW 2518   1.453   2.888   1.798 -0.6051 -0.4158 -0.0391
  840SOL    HW1 2519   1.445   2.802   1.749  2.4002  2.1524 -0.8129
  840SOL    HW2 2520   1.457   2.964   1.728  3.3536  0.2561 -1.1106
  841SOL     OW 2521   0.548   2.445   0.315  0.5477  0.6517  0.8173
  841SOL    HW1 2522   0.530   2.525   0.373 -0.7642 -1.4402 -4.3641
  841SOL    HW2 2523   0.469   2.422   0.251 -2.2000  0.6815 -0.3013
  842SOL     OW 2524   0.565   0.382   0.950 -0.6116 -0.1206  0.1730
  842SOL    HW1 2525   0.541   0.485   0.948 -1.0868  2.8736 -2.1606
  842SOL    HW2 2526   0.666   0.366   0.942  1.1722  0.5879 -2.3887
  843SOL     OW 2527   0.902   1.012   2.115  0.5696  0.3049 -0.0650
  843SOL    HW1 2528   0.809   0.966   2.130 -0.4200  1.2589 -0.7074
  843SOL    HW2 2529   0.955   1.011   2.196 -1.2367  0.1923 -5.0601
  844SOL     OW 2530   1.390   2.302   3.081 -0.1263 -0.3340 -0.2650
  844SOL    HW1 2531   1.444   2.237   3.027 -2.6749 -0.1584  0.4130
  844SOL    HW2 2532   1.378   2.383   3.019  1.3370 -0.3795  0.1536
  845SOL     OW 2533   2.396   2.777   2.512  0.0420  0.0942  0.5980
  845SOL    HW1 2534   2.419   2.740   2.420  0.2203 -0.3211  0.2292
  845SOL    HW2 2535   2.481   2.799   2.558 -1.8312 -0.3202 -1.5362
  846SOL     OW 2536   1.678   1.732   2.928 -0.2171  0.2402  0.1261
  846SOL    HW1 2537   1.704   1.784   2.843 -0.2926 -1.0645 -0.9256
  846SOL    HW2 2538   1.671   1.637   2.905  0.1255  2.4836  0.5884
  847SOL     OW 2539   2.133   0.211   3.058  0.7582  0.1742 -0.3552
  847SOL    HW1 2540   2.157   0.127   0.000  0.3346 -1.0498  0.2244
  847SOL    HW2 2541   2.182   0.212   2.969  2.0013  0.9932  0.6300
  848SOL     OW 2542   0.215   0.455   0.690  0.6685  0.3105 -0.5820
  848SOL    HW1 2543   0.226   0.506   0.780  0.6530 -1.9049 -0.7773
  848SOL    HW2 2544   0.205   0.356   0.710 -0.4269 -1.5864 -2.5232
  849SOL     OW 2545   1.230   2.740   1.502  0.1941 -0.7378  0.1131
  849SOL    HW1 2546   1.315   2.715   1.554  0.5590  0.5476 -0.5067
  849SOL    HW2 2547   1.144   2.737   1.560 -2.3295 -0.4048 -1.4846
  850SOL     OW 2548   0.487   1.460   0.313 -0.1523  0.7256  0.1944
  850SOL    HW1 2549   0.448   1.501   0.229 -0.4349 -1.5971 -0.1591
  850SOL    HW2 2550   0.587   1.470   0.322 -1.9566 -1.8600  0.3439
  851SOL     OW 2551   0.194   1.001   0.760 -0.5331  0.4387  0.0549
  851SOL    HW1 2552   0.196   0.922   0.699 -0.2769 -1.1739  4.7462
  851SOL    HW2 2553   0.116   0.992   0.822  1.6761  0.2723  0.6690
  852SOL     OW 2554   1.727   2.422   1.530  0.2888 -0.3124  0.0792
  852SOL    HW1 2555   1.708   2.425   1.630  0.0740 -0.2689  3.4956
  852SOL    HW2 2556   1.675   2.350   1.479 -0.3937  0.3614  1.2001
  853SOL     OW 2557   0.305   1.531   0.124 -0.3454 -0.3921  0.3335
  853SOL    HW1 2558   0.273   1.505   0.030  2.2081 -0.6679 -0.0372
  853SOL    HW2 2559   0.229   1.563   0.187  0.2729  0.9631 -0.8255
  854SOL     OW 2560   1.573   1.006   1.828 -0.5425 -0.9488 -0.5559
  854SOL    HW1 2561   1.485   0.980   1.788  0.7578  0.0023 -0.4141
  854SOL    HW2 2562   1.595   1.101   1.807 -0.6110 -3.4719 -1.1702
  855SOL     OW 2563   0.597   2.522   2.865  0.5572  0.4691 -0.2827
  855SOL    HW1 2564   0.494   2.515   2.864 -2.8712  0.7614  1.2467
  855SOL    HW2 2565   0.625   2.519   2.966  0.6775  1.2550 -0.1332
  856SOL     OW 2566   3.072   0.635   2.106 -0.0008  0.6229  0.0201
  856SOL    HW1 2567   2.998   0.579   2.064 -3.0918  0.4389  2.7918
  856SOL    HW2 2568   3.032   0.728   2.109 -0.2134 -1.0665  0.1606
  857SOL     OW 2569   0.540   1.111   1.964  0.5031  0.0843 -0.0374
  857SOL    HW1 2570   0.569   1.049   2.040 -2.8281  1.2386  2.4681
  857SOL    HW2 2571   0.589   1.199   1.970 -1.2369 -1.2427  0.2396
  858SOL     OW 2572   0.402   1.474   2.222  0.2257  0.7323  0.2944
  858SOL    HW1 2573   0.475   1.449   2.291 -0.4428 -0.0796 -1.6149
  858SOL    HW2 2574   0.408   1.414   2.142  0.4621  0.6175  0.9299
  859SOL     OW 2575   2.647   0.096   0.811  0.0549 -0.0494  0.2704
  859SOL    HW1 2576   2.573   0.161   0.785  1.0344 -1.4348 -1.7595
  859SOL    HW2 2577   2.737   0.117   0.776 -1.9776 -1.0863  1.5683
  860SOL     OW 2578   2.041   2.776   3.062 -0.3279  0.0995  0.4332
  860SOL    HW1 2579   2.081   2.851   0.007  0.2958 -0.0119 -0.7762
  860SOL    HW2 2580   2.031   2.698   0.013  1.2190  1.2661  1.3131
  861SOL     OW 2581   0.471   0.476   0.542  0.0423 -0.1311 -0.1630
  861SOL    HW1 2582   0.464   0.551   0.481  1.9444 -4.8405  1.0750
  861SOL    HW2 2583   0.392   0.465   0.604  2.7639 -1.0851  0.6055
  862SOL     OW 2584   1.458   0.202   1.895  0.0542 -0.1138 -0.4868
  862SOL    HW1 2585   1.498   0.111   1.919 -2.2912  1.8838 -0.0778
  862SOL    HW2 2586   1.362   0.209   1.929  2.4688 -0.8495  1.0569
  863SOL     OW 2587   2.635   2.257   1.177 -0.2407  0.1966  0.0857
  863SOL    HW1 2588   2.537   2.239   1.148 -1.6192 -2.0434 -0.9858
  863SOL    HW2 2589   2.657   2.355   1.168  1.2621  0.6681  0.9706
  864SOL     OW 2590   2.476   2.874   2.015 -0.3066  0.1501  0.2516
  864SOL    HW1 2591   2.380   2.896   1.982 -3.3457 -1.3703 -1.4189
  864SOL    HW2 2592   2.527   2.809   1.951 -2.2072  0.1930 -1.3332
  865SOL     OW 2593   1.005   0.285   1.737  0.1777  0.3002  0.5130
  865SOL    HW1 2594   1.078   0.212   1.727 -0.1440 -0.8256 -2.5529
  865SOL    HW2 2595   1.038   0.357   1.800 -1.9023 -0.7246  2.5099
  866SOL     OW 2596   2.141   2.994   0.937  0.4722 -0.0738 -0.7181
  866SOL    HW1 2597   2.204   3.041   0.876  0.8871 -2.8595 -0.7000
  866SOL    HW2 2598   2.099   3.048   1.012  2.4253 -0.8279 -2.3709
  867SOL     OW 2599   2.603   2.570   0.561 -0.2003 -0.5888  0.4311
  867SOL    HW1 2600   2.669   2.554   0.482  0.6725  0.0915 -0.8749
  867SOL    HW2 2601   2.623   2.516   0.644 -2.0674  5.3953  1.8453
  868SOL     OW 2602   0.798   1.968   1.681 -0.4540 -0.8101 -0.2786
  868SOL    HW1 2603   0.874   2.032   1.652 -0.8739 -2.1474  0.3476
  868SOL    HW2 2604   0.757   1.923   1.600 -2.6203 -0.9160  3.5409
  869SOL     OW 2605   2.051   2.599   0.180  0.4447 -0.3806 -0.3470
  869SOL    HW1 2606   2.104   2.526   0.141  0.4380 -0.4701  3.3993
  869SOL    HW2 2607   2.102   2.634   0.263 -1.1707 -2.1845 -0.1436
  870SOL     OW 2608   2.333   2.014   0.928 -0.6638 -0.0086 -0.5244
  870SOL    HW1 2609   2.386   1.971   0.857  0.7250  0.7062  0.1099
  870SOL    HW2 2610   2.290   1.940   0.987 -0.3170 -2.9040  0.5654
  871SOL     OW 2611   0.265   1.598   1.530  0.5585 -0.0057 -0.2371
  871SOL    HW1 2612   0.319   1.677   1.493  0.4949  1.2104 -0.7075
  871SOL    HW2 2613   0.320   1.530   1.583  0.5911 -0.4864 -0.0527
  872SOL     OW 2614   0.676   1.293   2.417  0.2100 -0.1975 -0.3842
  872SOL    HW1 2615   0.723   1.311   2.325  2.7348  0.3825 -2.1796
  872SOL    HW2 2616   0.644   1.198   2.422 -1.5258  2.3836 -0.1735
  873SOL     OW 2617   0.951   2.338   1.710  0.1096 -0.3775 -0.1176
  873SOL    HW1 2618   0.880   2.414   1.692 -1.2971  2.9208  1.3997
  873SOL    HW2 2619   1.047   2.368   1.739 -0.8182 -1.6775  0.3675
  874SOL     OW 2620   1.248   1.118   2.038  0.2665  0.0666 -0.0196
  874SOL    HW1 2621   1.297   1.167   2.114  1.8234  0.0921  1.7570
  874SOL    HW2 2622   1.241   1.021   2.061 -2.5295  2.7800 -0.1035
  875SOL     OW 2623   2.798   2.894   1.054 -0.5494 -0.6657 -0.2103
  875SOL    HW1 2624   2.723   2.908   1.126  0.0914  0.4001  0.8926
  875SOL    HW2 2625   2.821   2.983   1.016  3.1932 -0.7727  0.4151
  876SOL     OW 2626   1.064   1.298   0.477  0.7724 -0.6701 -0.4052
  876SOL    HW1 2627   1.112   1.314   0.393 -0.3210 -0.8774  1.7926
  876SOL    HW2 2628   0.961   1.306   0.464 -0.5756  0.5500  0.3322
  877SOL     OW 2629   2.702   0.295   1.237  0.4228  0.0649  0.3371
  877SOL    HW1 2630   2.743   0.390   1.235  0.0491  0.8192 -0.5583
  877SOL    HW2 2631   2.697   0.258   1.330  0.7150  0.3719 -3.1551
  878SOL     OW 2632   2.585   1.683   0.258  0.9488 -0.2982  0.2145
  878SOL    HW1 2633   2.611   1.589   0.235 -0.1200  0.1030 -0.6739
  878SOL    HW2 2634   2.490   1.671   0.303  0.5325  2.0840  0.6163
  879SOL     OW 2635   2.631   1.895   1.294  0.2887 -0.2830  0.1109
  879SOL    HW1 2636   2.650   1.794   1.312  2.9486 -1.1415  2.8962
  879SOL    HW2 2637   2.704   1.933   1.231  0.4948  0.7054 -2.4482
  880SOL     OW 2638   0.265   2.481   0.858 -0.3575 -0.0709  0.0991
  880SOL    HW1 2639   0.282   2.516   0.953  2.0128 -0.5873 -0.5026
  880SOL    HW2 2640   0.312   2.536   0.782  0.9853  1.8383 -0.4154
  881SOL     OW 2641   1.394   1.235   0.918 -0.3161  0.1490 -0.0975
  881SOL    HW1 2642   1.458   1.301   0.875  0.6805  1.4484 -0.5016
  881SOL    HW2 2643   1.306   1.222   0.870  0.6493 -0.5087 -0.8053
  882SOL     OW 2644   2.593   1.072   2.656  0.4288  0.4883 -0.4270
  882SOL    HW1 2645   2.587   1.068   2.554  0.4798 -2.9014 -3.5978
  882SOL    HW2 2646   2.619   0.983   2.694  2.5232  4.1398  0.5024
  883SOL     OW 2647   1.250   3.012   1.490 -0.3022  0.2350 -0.3151
  883SOL    HW1 2648   1.254   2.911   1.474  1.1894  0.7636 -1.1862
  883SOL    HW2 2649   1.272   3.056   1.404 -0.4954 -0.0931 -1.8226
  884SOL     OW 2650   2.964   3.060   0.862 -0.2919 -0.0714 -0.4151
  884SOL    HW1 2651   2.928   3.017   0.778  1.0556 -2.8501 -0.9853
  884SOL    HW2 2652   2.990   0.046   0.843 -2.2462 -0.1819  1.2027
  885SOL     OW 2653   1.317   0.796   1.390 -0.1071  0.0937  0.3650
  885SOL    HW1 2654   1.354   0.825   1.478 -1.1140 -0.4998  0.5330
  885SOL    HW2 2655   1.383   0.811   1.311  0.8696 -2.3293  0.7839
  886SOL     OW 2656   1.541   0.832   3.076 -0.2215  0.5058 -0.5098
  886SOL    HW1 2657   1.557   0.884   2.993  4.1038  1.3665  0.1744
  886SOL    HW2 2658   1.555   0.887   0.049  1.0486  2.5008 -1.3772
  887SOL     OW 2659   1.567   0.510   1.312  0.3706  0.1404  0.5721
  887SOL    HW1 2660   1.641   0.565   1.355  1.2144 -0.6668 -1.0106
  887SOL    HW2 2661   1.491   0.498   1.378  1.5302  0.3585  0.7653
  888SOL     OW 2662   2.013   1.603   2.001  0.4544  0.4214  0.5542
  888SOL    HW1 2663   1.995   1.601   2.100 -0.0744 -1.1166  1.1605
  888SOL    HW2 2664   1.930   1.614   1.940 -2.0353 -2.6728 -0.8535
  889SOL     OW 2665   2.255   2.039   0.599  0.5953  0.6058  0.6231
  889SOL    HW1 2666   2.288   2.132   0.620 -0.9390  1.8584 -2.3782
  889SOL    HW2 2667   2.164   2.025   0.643  1.4437 -0.1783 -0.9217
  890SOL     OW 2668   1.123   1.897   1.018  0.2117  0.5101 -0.2572
  890SOL    HW1 2669   1.194   1.862   0.951  2.0842 -0.7836 -0.1105
  890SOL    HW2 2670   1.074   1.983   0.981 -2.5716  3.5834  0.7695
  891SOL     OW 2671   2.642   0.630   2.365  0.5129  0.1421 -0.1175
  891SOL    HW1 2672   2.721   0.588   2.404 -0.7460 -1.2786 -0.9877
  891SOL    HW2 2673   2.582   0.559   2.319 -1.3514 -0.4798 -0.4991
  892SOL     OW 2674   1.041   0.368   2.300  0.1478 -0.5598  0.3618
  892SOL    HW1 2675   1.113   0.299   2.315  0.1095 -0.0158  3.3349
  892SOL    HW2 2676   1.040   0.429   2.383 -0.6257 -1.2115 -0.7775
  893SOL     OW 2677   1.564   0.153   1.357 -0.5344  0.6099 -0.1782
  893SOL    HW1 2678   1.555   0.217   1.437  1.3939  2.6142  0.8048
  893SOL    HW2 2679   1.574   0.209   1.271 -0.3649  0.4499 -0.5721
  894SOL     OW 2680   2.449   0.705   0.791 -0.7179 -0.2066  0.5144
  894SOL    HW1 2681   2.364   0.693   0.841  0.9267 -2.3297  0.3470
  894SOL    HW2 2682   2.439   0.674   0.696  0.8119 -1.5832  2.2694
  895SOL     OW 2683   2.013   2.487   2.763 -0.6146  0.1462 -0.3720
  895SOL    HW1 2684   2.090   2.547   2.791 -2.0770  0.3548  0.7611
  895SOL    HW2 2685   1.924   2.528   2.779 -1.1768 -0.3925  1.2049
  896SOL     OW 2686   1.718   2.947   1.579 -0.0837  0.8579 -0.2413
  896SOL    HW1 2687   1.627   2.991   1.587  1.6901 -0.1335  0.8477
  896SOL    HW2 2688   1.717   2.896   1.491 -0.4303  0.6185 -2.4596
  897SOL     OW 2689   0.534   1.864   2.211 -0.2081  0.1220 -0.4143
  897SOL    HW1 2690   0.443   1.826   2.243  0.7073  0.9288  2.4883
  897SOL    HW2 2691   0.552   1.848   2.110 -1.2882 -0.5718 -1.3072
  898SOL     OW 2692   2.288   1.771   2.009  0.1641  0.1485  0.2764
  898SOL    HW1 2693   2.280   1.695   2.079 -0.0070  0.9579  1.9161
  898SOL    HW2 2694   2.363   1.743   1.949 -0.7766 -2.6629 -1.4452
  899SOL     OW 2695   1.812   2.224   0.582 -0.2611 -0.0506 -0.5285
  899SOL    HW1 2696   1.779   2.163   0.660  0.9234 -3.5824  1.3234
  899SOL    HW2 2697   1.878   2.179   0.522 -0.1348 -0.0474 -2.0119
  900SOL     OW 2698   1.196   0.280   0.164 -0.6299  0.0386  0.5395
  900SOL    HW1 2699   1.260   0.320   0.096 -0.7147 -1.3884  0.5772
  900SOL    HW2 2700   1.122   0.228   0.117 -1.3186  2.3682 -0.9073
  901SOL     OW 2701   1.185   1.848   2.169 -0.0718 -0.5354 -0.4319
  901SOL    HW1 2702   1.107   1.867   2.240  0.3897 -1.6349  0.4066
  901SOL    HW2 2703   1.203   1.748   2.165 -0.8995  2.6626  1.4460
  902SOL     OW 2704   2.434   0.532   3.064  0.2039 -0.8496 -0.0824
  902SOL    HW1 2705   2.510   0.574   3.012 -4.4057  0.3658  1.5851
  902SOL    HW2 2706   2.468   0.499   0.044 -0.5225 -1.4683 -0.9260
  903SOL     OW 2707   2.016   0.946   2.337  0.3783  0.0746 -0.1514
  903SOL    HW1 2708   2.108   0.952   2.288  1.9654  0.6838 -0.3242
  903SOL    HW2 2709   2.023   0.999   2.424  1.2665  0.9769 -1.9606
  904SOL     OW 2710   1.531   0.912   2.113  0.6375  0.3646  0.6820
  904SOL    HW1 2711   1.530   0.995   2.055 -0.7733  0.2589 -1.4329
  904SOL    HW2 2712   1.617   0.907   2.165 -0.4181  0.2538 -0.0691
  905SOL     OW 2713   2.213   0.209   1.637 -0.1205 -0.3425  0.5084
  905SOL    HW1 2714   2.204   0.173   1.541 -0.2699 -0.3529 -1.7707
  905SOL    HW2 2715   2.126   0.221   1.690 -1.7214  0.1556  0.2803
  906SOL     OW 2716   2.092   1.904   0.247  0.3139 -0.3240  0.3478
  906SOL    HW1 2717   2.178   1.931   0.194  1.7193  1.2801  1.0739
  906SOL    HW2 2718   2.087   1.805   0.263 -0.0607  1.6638  0.2108
  907SOL     OW 2719   1.144   2.657   0.803 -0.0027  0.0056  0.1967
  907SOL    HW1 2720   1.227   2.615   0.764 -0.1017  1.4102 -1.3702
  907SOL    HW2 2721   1.067   2.602   0.775  2.7493  1.7032  2.5783
  908SOL     OW 2722   1.784   2.190   2.580  0.3134  0.6393 -0.5565
  908SOL    HW1 2723   1.882   2.197   2.555  3.6961 -0.5674 -0.8025
  908SOL    HW2 2724   1.717   2.223   2.513  2.4157 -1.1277  1.9263
  909SOL     OW 2725   2.373   0.374   1.989  0.3005 -0.5652 -0.4885
  909SOL    HW1 2726   2.293   0.439   2.004  0.6928 -0.0884 -0.7521
  909SOL    HW2 2727   2.432   0.411   1.913  0.4038 -0.4234  2.8281
  910SOL     OW 2728   1.198   0.791   2.914  0.2981  0.2194  0.2449
  910SOL    HW1 2729   1.234   0.732   2.988  3.9650  0.5228  1.4101
  910SOL    HW2 2730   1.179   0.883   2.952 -2.0221 -2.5567  1.4235
  911SOL     OW 2731   3.097   0.928   2.928 -0.6297 -0.2517 -0.1420
  911SOL    HW1 2732   0.031   0.943   3.019 -3.4374 -1.1062 -0.7152
  911SOL    HW2 2733   3.030   0.999   2.915  2.1020  0.2124 -0.5418
  912SOL     OW 2734   0.043   2.629   0.492 -0.4045  0.8689 -0.3649
  912SOL    HW1 2735   0.003   2.532   0.488 -1.4490 -2.2403  1.7322
  912SOL    HW2 2736   0.042   2.651   0.592 -3.5596  0.2712 -0.1226
  913SOL     OW 2737   2.688   2.005   2.430  0.4157  0.3206  0.1410
  913SOL    HW1 2738   2.662   1.960   2.343  0.3706 -0.0540  2.1965
  913SOL    HW2 2739   2.738   2.088   2.409 -1.4878  0.5585 -1.5571
  914SOL     OW 2740   1.842   1.438   1.013 -0.5617 -0.3434  0.4004
  914SOL    HW1 2741   1.889   1.379   0.943 -0.4968 -0.7579 -1.8972
  914SOL    HW2 2742   1.749   1.402   1.033 -2.9331 -0.7416  1.0731
  915SOL     OW 2743   0.389   2.699   2.218 -0.3012 -0.1218 -0.4484
  915SOL    HW1 2744   0.401   2.633   2.294  0.3274 -2.2381 -2.2514
  915SOL    HW2 2745   0.305   2.755   2.228  0.4115 -0.3844 -0.0860
  916SOL     OW 2746   0.906   0.051   1.524 -0.4415  0.4308  0.3801
  916SOL    HW1 2747   0.956   0.004   1.449 -0.9185  2.0642  3.1808
  916SOL    HW2 2748   0.964   0.116   1.574  0.6527  0.7324  1.6483
  917SOL     OW 2749   2.401   0.793   0.371  0.0953 -0.2903  0.1589
  917SOL    HW1 2750   2.489   0.833   0.408  0.3025  0.5989  2.1737
  917SOL    HW2 2751   2.389   0.787   0.270  0.9463 -2.3519 -1.9037
  918SOL     OW 2752   1.746   2.315   2.845 -0.5492 -0.1345  0.4441
  918SOL    HW1 2753   1.771   2.415   2.852 -1.2800  2.4993 -1.9828
  918SOL    HW2 2754   1.742   2.287   2.747 -1.9159 -0.5355  2.8835
  919SOL     OW 2755   1.750   2.790   1.202  0.5258 -0.3389  0.1817
  919SOL    HW1 2756   1.747   2.883   1.238 -1.5099 -4.1162 -1.8464
  919SOL    HW2 2757   1.827   2.778   1.134  0.8793 -0.7664 -0.8066
  920SOL     OW 2758   1.242   0.212   2.384 -0.6033 -0.1752  0.3890
  920SOL    HW1 2759   1.248   0.209   2.485 -3.4676  1.3838  1.6956
  920SOL    HW2 2760   1.268   0.131   2.331  3.8825  0.7707 -1.0989
  921SOL     OW 2761   2.966   0.880   2.691  0.7155  0.3480 -0.0235
  921SOL    HW1 2762   3.003   0.978   2.687  2.7005 -0.9511  2.0819
  921SOL    HW2 2763   3.013   0.832   2.769 -1.7958  0.0356 -1.9622
  922SOL     OW 2764   0.270   2.222   0.937 -0.0353 -0.1894 -0.7436
  922SOL    HW1 2765   0.262   2.220   1.038  1.0991  3.6444  1.5704
  922SOL    HW2 2766   0.282   2.322   0.909  2.3410 -0.8742 -0.7158
  923SOL     OW 2767   0.520   1.585   1.897  0.2742  0.7482  0.3496
  923SOL    HW1 2768   0.573   1.646   1.956 -0.7357 -2.1090 -1.1580
  923SOL    HW2 2769   0.489   1.635   1.816  0.9627  0.3800  0.3204
  924SOL     OW 2770   1.688   2.926   2.700 -0.1339 -0.1284  0.3088
  924SOL    HW1 2771   1.610   2.992   2.718 -0.7471 -1.0129  1.7043
  924SOL    HW2 2772   1.752   2.924   2.781 -2.3211  0.1599  2.8890
  925SOL     OW 2773   2.561   1.630   0.758 -0.2253 -0.0175  0.5906
  925SOL    HW1 2774   2.569   1.553   0.690  1.6137 -2.3218 -2.2524
  925SOL    HW2 2775   2.604   1.611   0.849 -1.4779 -0.3520  0.2866
  926SOL     OW 2776   2.099   0.920   0.898 -0.2679 -0.5262 -0.1817
  926SOL    HW1 2777   2.122   0.824   0.919  2.2638  1.4229 -2.6494
  926SOL    HW2 2778   2.179   0.980   0.880 -0.5084 -0.0571 -0.6409
  927SOL     OW 2779   1.916   0.216   1.311 -0.1421 -0.4304 -0.1199
  927SOL    HW1 2780   1.939   0.315   1.307  0.0092  0.9055  0.3782
  927SOL    HW2 2781   1.867   0.188   1.396  0.8026 -0.2914 -0.1126
  928SOL     OW 2782   0.168   0.906   2.308 -0.5662 -0.0984 -0.1714
  928SOL    HW1 2783   0.185   0.813   2.272  2.1331 -0.9315 -0.8272
  928SOL    HW2 2784   0.199   0.976   2.242 -0.2930 -0.5181  1.2821
  929SOL     OW 2785   2.264   1.051   1.199  0.9251 -0.2962  0.6615
  929SOL    HW1 2786   2.295   1.039   1.102  2.8165 -0.1381  1.6522
  929SOL    HW2 2787   2.333   1.043   1.265 -2.3582 -1.2427 -2.8001
  930SOL     OW 2788   2.568   2.449   1.868 -0.2794 -0.1062 -0.0556
  930SOL    HW1 2789   2.655   2.402   1.837  0.5437 -0.0126 -0.5477
  930SOL    HW2 2790   2.473   2.416   1.828 -5.1351 -0.9995  2.3802
  931SOL     OW 2791   2.039   1.086   1.346  0.3669  0.4450 -0.0819
  931SOL    HW1 2792   2.130   1.086   1.301 -0.0874 -1.2864 -1.3738
  931SOL    HW2 2793   1.982   1.169   1.320 -0.6004  3.4214 -0.3176
  932SOL     OW 2794   0.371   0.724   1.750  0.2336  0.3924  0.0683
  932SOL    HW1 2795   0.353   0.692   1.655  1.9999 -0.1805 -2.5016
  932SOL    HW2 2796   0.392   0.819   1.742  0.3163 -2.2097 -1.2833
  933SOL     OW 2797   2.368   1.995   1.669  0.6560 -0.1981  0.1028
  933SOL    HW1 2798   2.471   1.988   1.686  3.2482  0.0589 -0.0456
  933SOL    HW2 2799   2.323   1.980   1.755  1.4695  0.2003 -5.1150
  934SOL     OW 2800   0.731   2.191   1.806  0.0479 -0.4986  0.1711
  934SOL    HW1 2801   0.813   2.252   1.787 -0.8228  2.9671  2.2466
  934SOL    HW2 2802   0.753   2.095   1.775  0.1116  0.4716 -1.7916
  935SOL     OW 2803   0.186   1.398   1.782  0.5882 -0.2414  0.1617
  935SOL    HW1 2804   0.110   1.357   1.827  2.6454 -1.4689 -1.9228
  935SOL    HW2 2805   0.192   1.494   1.804  0.4386 -1.4504  0.6123
  936SOL     OW 2806   2.855   0.958   1.323  0.2580  0.1759  0.0204
  936SOL    HW1 2807   2.792   0.916   1.253  1.3248  1.3138 -1.3827
  936SOL    HW2 2808   2.830   0.922   1.419 -0.3598 -0.4064  0.6341
  937SOL     OW 2809   1.755   0.593   1.496 -0.4112  0.3603 -1.0103
  937SOL    HW1 2810   1.760   0.695   1.494 -0.1856  0.1084 -2.5025
  937SOL    HW2 2811   1.739   0.557   1.590  0.4291 -0.8809  1.6973
  938SOL     OW 2812   0.627   2.708   0.432 -0.3366 -0.1786 -0.4815
  938SOL    HW1 2813   0.609   2.760   0.344 -0.5912  0.7326 -0.9796
  938SOL    HW2 2814   0.649   2.764   0.514  2.6035 -2.4254  0.3230
  939SOL     OW 2815   2.995   2.009   2.628 -0.0220  0.6664 -0.7105
  939SOL    HW1 2816   3.020   1.910   2.658  1.0460 -2.9932  0.4904
  939SOL    HW2 2817   3.039   2.073   2.695 -0.2752  0.4388  0.4347
  940SOL     OW 2818   1.277   1.870   0.431 -0.0180 -0.1406  0.2915
  940SOL    HW1 2819   1.377   1.870   0.435 -0.7143  0.2743 -3.6413
  940SOL    HW2 2820   1.237   1.959   0.393 -1.9784  3.3581  2.1071
  941SOL     OW 2821   2.199   2.737   0.400  0.0960 -0.0647  0.4078
  941SOL    HW1 2822   2.302   2.716   0.395  1.5927 -1.3287 -0.1485
  941SOL    HW2 2823   2.171   2.695   0.489  1.6796 -1.1764  0.1235
  942SOL     OW 2824   1.727   2.086   0.808  0.6468  0.0512 -0.3677
  942SOL    HW1 2825   1.734   1.991   0.849  1.7831 -3.7582 -0.4820
  942SOL    HW2 2826   1.709   2.163   0.868 -1.1740 -1.2418 -0.0440
  943SOL     OW 2827   2.200   0.888   1.661  0.5035  0.0308 -0.1226
  943SOL    HW1 2828   2.165   0.834   1.582 -2.3548  0.3845 -0.0719
  943SOL    HW2 2829   2.149   0.978   1.672 -0.3185 -0.6909  0.7741
  944SOL     OW 2830   1.275   0.831   2.074 -0.1862 -0.1423  0.1363
  944SOL    HW1 2831   1.364   0.872   2.100 -3.1215 -0.6376 -2.1119
  944SOL    HW2 2832   1.292   0.788   1.985  0.7405  0.2930  3.0146
  945SOL     OW 2833   2.141   2.679   1.508  0.0108  0.0328 -0.2171
  945SOL    HW1 2834   2.237   2.650   1.522 -1.5002  0.3400  2.9116
  945SOL    HW2 2835   2.089   2.656   1.594  1.0845 -2.4055 -0.3298
  946SOL     OW 2836   0.266   1.150   0.508  0.5584 -0.3829  0.8579
  946SOL    HW1 2837   0.285   1.250   0.515 -1.4787  0.0184  0.0340
  946SOL    HW2 2838   0.227   1.106   0.590  1.0464  2.5166 -1.5157
  947SOL     OW 2839   1.649   2.136   1.138  0.3523 -0.2707  0.5369
  947SOL    HW1 2840   1.625   2.136   1.241 -1.0361  1.3840 -0.5146
  947SOL    HW2 2841   1.722   2.200   1.119  0.0443 -1.6057 -0.6766
  948SOL     OW 2842   0.168   1.612   1.119 -0.0334 -0.7897  0.5142
  948SOL    HW1 2843   0.118   1.576   1.199  2.5825  2.1291 -0.0456
  948SOL    HW2 2844   0.164   1.547   1.038 -2.8283  2.6306 -0.1698
  949SOL     OW 2845   1.177   1.352   1.398  0.0676  0.2784 -0.9032
  949SOL    HW1 2846   1.102   1.376   1.465 -0.1201  0.1556 -2.8877
  949SOL    HW2 2847   1.147   1.272   1.341 -3.0781 -2.0008 -1.7909
  950SOL     OW 2848   0.507   0.644   0.985  0.1951 -0.1486 -0.1363
  950SOL    HW1 2849   0.565   0.672   1.061 -2.5138 -1.4196 -2.3762
  950SOL    HW2 2850   0.449   0.722   0.963  2.4123 -2.0618  1.5831
  951SOL     OW 2851   0.724   2.033   2.297  0.7026 -0.3045  0.1847
  951SOL    HW1 2852   0.660   1.964   2.267  3.4598  1.4318  0.6291
  951SOL    HW2 2853   0.758   2.095   2.220  2.3477  2.8081  1.7396
  952SOL     OW 2854   0.956   1.616   0.055  0.1136  0.0773 -0.2190
  952SOL    HW1 2855   0.973   1.708   0.084 -0.2958 -1.1712 -0.5776
  952SOL    HW2 2856   1.028   1.548   0.080  0.1831 -0.3422 -0.7959
  953SOL     OW 2857   1.173   2.998   3.109 -0.2227  0.2743  0.1162
  953SOL    HW1 2858   1.173   2.985   0.100 -0.3966  1.2546  5.0215
  953SOL    HW2 2859   1.105   2.937   3.068 -0.8190  2.3820  0.1292
  954SOL     OW 2860   1.811   1.417   0.089  0.5701 -0.4576 -0.2864
  954SOL    HW1 2861   1.786   1.379   3.103 -0.2599 -0.0245 -4.4542
  954SOL    HW2 2862   1.728   1.461   0.134 -2.5721  1.2287  1.3565
  955SOL     OW 2863   0.055   2.628   2.944 -0.2808  0.4139  0.3487
  955SOL    HW1 2864   0.046   2.710   3.000 -1.1098 -2.2315 -0.4863
  955SOL    HW2 2865   0.001   2.630   2.855  0.6336 -0.7992 -0.0100
  956SOL     OW 2866   1.187   0.537   1.239  0.5773 -0.5122 -0.0344
  956SOL    HW1 2867   1.231   0.623   1.280 -1.2198 -0.5416  2.5882
  956SOL    HW2 2868   1.221   0.455   1.301  2.2633 -1.3936  1.0465
  957SOL     OW 2869   1.404   1.473   1.416  0.0429 -0.2013 -0.2076
  957SOL    HW1 2870   1.325   1.411   1.401 -1.3204 -1.1434 -2.2489
  957SOL    HW2 2871   1.373   1.547   1.477  3.5081  0.5045  0.3213
  958SOL     OW 2872   0.430   1.689   1.103 -0.5962  0.0930 -0.1015
  958SOL    HW1 2873   0.334   1.663   1.116 -1.0412  0.4390 -0.3831
  958SOL    HW2 2874   0.451   1.668   1.005 -0.3641 -0.6531  1.1264
  959SOL     OW 2875   1.520   1.558   1.195 -0.3632 -0.2257 -0.3179
  959SOL    HW1 2876   1.567   1.637   1.240  0.7869  1.4241  1.8281
  959SOL    HW2 2877   1.497   1.496   1.273 -0.2346 -0.8568 -0.6646
  960SOL     OW 2878   0.214   1.149   2.975  0.1851  0.4825  0.0281
  960SOL    HW1 2879   0.302   1.171   3.022 -1.3291 -2.4096 -0.5673
  960SOL    HW2 2880   0.221   1.094   2.888 -0.3501 -1.3266 -0.5106
  961SOL     OW 2881   0.983   1.426   1.571  0.0390  0.0593 -0.0354
  961SOL    HW1 2882   0.939   1.408   1.658  1.0279  3.6858 -0.4241
  961SOL    HW2 2883   0.977   1.529   1.561  1.9748  1.1265 -2.6483
  962SOL     OW 2884   1.163   1.295   0.779 -0.2473  0.6604  0.5306
  962SOL    HW1 2885   1.169   1.386   0.822  1.1131  1.1192  0.4325
  962SOL    HW2 2886   1.136   1.304   0.680 -1.7991  2.4228 -1.7471
  963SOL     OW 2887   1.351   1.742   2.732 -0.0823  0.1871  0.0469
  963SOL    HW1 2888   1.448   1.769   2.718  2.8046 -0.5440 -2.6535
  963SOL    HW2 2889   1.342   1.669   2.800  1.2493 -0.6613 -0.3752
  964SOL     OW 2890   0.600   2.788   0.171  0.3975  0.0654 -0.0252
  964SOL    HW1 2891   0.514   2.801   0.122  2.0920  2.3874  0.2431
  964SOL    HW2 2892   0.641   2.699   0.151 -0.6384 -1.9676 -2.9605
  965SOL     OW 2893   0.399   2.353   0.114  0.7079  0.2302 -0.9326
  965SOL    HW1 2894   0.389   2.268   0.061  4.8677  0.9929 -0.6752
  965SOL    HW2 2895   0.309   2.395   0.126  0.5882 -2.1844 -2.2122
  966SOL     OW 2896   0.109   1.484   2.661  0.1971 -0.8850  0.6840
  966SOL    HW1 2897   0.051   1.421   2.715  1.9685  0.2921 -0.8758
  966SOL    HW2 2898   0.188   1.515   2.714 -3.7034 -1.9924  1.7206
  967SOL     OW 2899   2.716   0.016   2.499 -0.3446 -0.3588  0.3079
  967SOL    HW1 2900   2.735   3.033   2.455  0.9298 -0.9156  0.7108
  967SOL    HW2 2901   2.711   0.012   2.597 -0.8707 -0.1952 -0.4537
  968SOL     OW 2902   2.072   0.223   0.460  0.4989  0.6484 -0.1720
  968SOL    HW1 2903   2.012   0.294   0.417 -0.5649  0.3106  0.4786
  968SOL    HW2 2904   2.129   0.263   0.536  0.2205 -1.1569 -1.1309
  969SOL     OW 2905   0.294   1.116   2.120 -0.1441 -0.2980  0.5185
  969SOL    HW1 2906   0.203   1.099   2.081 -0.0036 -0.0663  1.2640
  969SOL    HW2 2907   0.370   1.130   2.053  0.2173 -1.3390  1.3919
  970SOL     OW 2908   2.050   1.680   0.842  0.1204 -0.4228  0.1641
  970SOL    HW1 2909   2.141   1.634   0.863  2.0609  1.0922 -0.7588
  970SOL    HW2 2910   1.984   1.678   0.918  0.0927  0.1503  0.2813
  971SOL     OW 2911   2.622   3.000   1.251 -0.4295  0.3944  0.7336
  971SOL    HW1 2912   2.564   2.919   1.272 -1.0686  0.0648 -1.5449
  971SOL    HW2 2913   2.591   3.057   1.173  0.6238  0.1053 -2.5486
  972SOL     OW 2914   0.615   2.896   1.764  0.2005  0.4571 -0.0950
  972SOL    HW1 2915   0.692   2.933   1.822 -0.0366  0.9098 -0.6063
  972SOL    HW2 2916   0.620   2.926   1.667 -1.3951 -0.5943  1.4243
  973SOL     OW 2917   0.632   0.409   2.990 -0.0224 -0.0635 -0.3621
  973SOL    HW1 2918   0.694   0.390   3.069  0.5868 -1.1287  0.6227
  973SOL    HW2 2919   0.538   0.429   3.033  0.8906  0.5899  0.1721
  974SOL     OW 2920   1.981   1.583   2.270  0.3251  0.5496  0.3102
  974SOL    HW1 2921   1.965   1.483   2.277 -0.8888  3.0605 -1.2209
  974SOL    HW2 2922   2.061   1.600   2.336  2.8504  0.4224  0.9611
  975SOL     OW 2923   0.018   0.062   1.405  0.2707  0.0762 -0.1934
  975SOL    HW1 2924   0.083   3.098   1.408 -1.3197  0.1610 -0.4594
  975SOL    HW2 2925   3.032   0.020   1.415 -0.6394 -2.1824  0.5530
  976SOL     OW 2926   0.977   1.930   2.344  0.2929  0.0849 -0.0371
  976SOL    HW1 2927   0.882   1.969   2.313 -1.3491 -0.4211  1.8429
  976SOL    HW2 2928   0.991   1.958   2.441 -1.7110 -0.1100 -1.8918
  977SOL     OW 2929   0.747   2.354   0.480  0.4755 -0.2150 -0.2963
  977SOL    HW1 2930   0.691   2.391   0.404 -1.6827  0.7353  0.1701
  977SOL    HW2 2931   0.814   2.292   0.439 -1.3200  0.0399 -0.1859
  978SOL     OW 2932   3.044   1.496   2.227  0.1240 -0.5521  0.0067
  978SOL    HW1 2933   0.008   1.502   2.300  2.9417  1.1767  0.5335
  978SOL    HW2 2934   2.976   1.426   2.257 -0.1020  2.1203 -0.9117
  979SOL     OW 2935   1.633   2.648   1.388  0.1569 -0.0187 -0.6060
  979SOL    HW1 2936   1.667   2.669   1.293 -1.9817 -1.5820  0.6238
  979SOL    HW2 2937   1.689   2.571   1.430  6.0215  0.6835 -0.5678
  980SOL     OW 2938   1.118   1.105   2.719  0.1416 -0.2961 -0.1392
  980SOL    HW1 2939   1.114   1.206   2.714  2.8832  1.2724 -0.9602
  980SOL    HW2 2940   1.028   1.073   2.747  0.2892  3.1497  0.8126
  981SOL     OW 2941   2.374   0.084   1.820 -0.7928  0.2109 -0.3584
  981SOL    HW1 2942   2.354   0.089   1.920  2.7665 -0.1435 -2.2846
  981SOL    HW2 2943   2.299   0.122   1.761  0.3962 -3.3762 -0.3215
  982SOL     OW 2944   0.389   0.466   3.109 -0.1630 -0.0059  0.3741
  982SOL    HW1 2945   0.323   0.420   0.060  0.8103 -0.6361  2.0870
  982SOL    HW2 2946   0.346   0.481   3.015 -0.5451 -1.5057  3.7379
  983SOL     OW 2947   2.081   1.278   2.410 -0.4606  0.2977 -0.4143
  983SOL    HW1 2948   2.043   1.262   2.317  0.2716  0.4403  1.2437
  983SOL    HW2 2949   2.086   1.188   2.465  0.1780 -1.1484 -0.9352
  984SOL     OW 2950   1.196   0.226   1.992 -0.1101 -0.6789 -0.1962
  984SOL    HW1 2951   1.177   0.321   1.968 -0.4282 -1.0896 -1.9603
  984SOL    HW2 2952   1.117   0.182   2.037 -1.2413 -0.4376 -2.2717
  985SOL     OW 2953   1.784   1.664   1.874 -0.1647  1.0864 -0.3713
  985SOL    HW1 2954   1.721   1.646   1.957 -0.5288  0.7677  5.2023
  985SOL    HW2 2955   1.748   1.624   1.786  1.7061  3.1719 -1.0164
  986SOL     OW 2956   2.331   0.725   1.862 -0.4840 -0.1924  0.1368
  986SOL    HW1 2957   2.398   0.652   1.828 -0.7636  0.5771 -0.0593
  986SOL    HW2 2958   2.279   0.754   1.783 -1.3119 -1.5265  1.6218
  987SOL     OW 2959   2.527   0.624   1.159  0.9061 -0.1531 -0.5172
  987SOL    HW1 2960   2.458   0.635   1.235 -0.7800 -1.8169  2.4830
  987SOL    HW2 2961   2.484   0.599   1.070 -0.3649 -3.6432 -0.8187
  988SOL     OW 2962   2.924   0.947   2.032  0.3578  0.4409  0.4678
  988SOL    HW1 2963   2.853   0.914   2.097  0.3704 -0.9339  0.7507
  988SOL    HW2 2964   2.991   1.014   2.069  0.7033  1.9869 -0.1132
  989SOL     OW 2965   2.450   1.558   0.012  0.2268 -0.3208  0.1251
  989SOL    HW1 2966   2.432   1.577   0.111  1.8639 -2.7296 -0.9480
  989SOL    HW2 2967   2.452   1.641   3.067 -0.9054 -2.1352  1.1417
  990SOL     OW 2968   1.005   0.419   2.777  0.2747  0.0574  0.1030
  990SOL    HW1 2969   1.036   0.322   2.792 -0.1225 -1.7639 -3.2638
  990SOL    HW2 2970   1.029   0.474   2.857 -2.7742  0.7388  0.5321
  991SOL     OW 2971   1.266   1.080   0.517 -0.7401  0.2358  0.3665
  991SOL    HW1 2972   1.254   1.106   0.418 -1.4187 -0.5999  2.4165
  991SOL    HW2 2973   1.325   1.147   0.565  3.0476  1.7382 -1.9533
  992SOL     OW 2974   2.255   1.382   0.030 -0.0504 -0.1861 -0.0133
  992SOL    HW1 2975   2.179   1.444   0.056  0.2966  2.0975 -0.6675
  992SOL    HW2 2976   2.332   1.436   0.005 -1.3823 -0.3102  0.4801
  993SOL     OW 2977   3.021   0.667   0.726 -0.1421 -0.5186  0.4166
  993SOL    HW1 2978   3.040   0.602   0.649 -3.6619 -2.0908  1.0527
  993SOL    HW2 2979   3.032   0.622   0.818  1.4724 -1.2789 -0.4237
  994SOL     OW 2980   0.014   2.083   2.410  0.1672  0.2388 -0.2808
  994SOL    HW1 2981   3.055   2.067   2.486  0.9202 -1.4632  0.3673
  994SOL    HW2 2982   0.060   2.170   2.432 -1.4105 -1.5748 -0.7160
  995SOL     OW 2983   1.888   1.375   2.793  0.2570  0.3744  0.0362
  995SOL    HW1 2984   1.814   1.410   2.846  1.1566 -1.4737 -0.1470
  995SOL    HW2 2985   1.910   1.450   2.726 -0.2957 -0.1225 -1.7846
  996SOL     OW 2986   2.536   1.085   0.041 -0.3622 -0.1034 -0.2455
  996SOL    HW1 2987   2.462   1.082   0.112 -1.8175 -1.4123  0.3885
  996SOL    HW2 2988   2.507   1.026   3.076 -0.2406  2.1992 -0.0083
  997SOL     OW 2989   1.977   1.364   1.717  0.4922  0.4318 -0.6120
  997SOL    HW1 2990   2.016   1.283   1.665 -0.4591 -0.6292 -1.4527
  997SOL    HW2 2991   2.055   1.406   1.772  1.3422  0.3558 -2.1709
  998SOL     OW 2992   2.692   1.916   0.214 -0.2062 -0.1823 -0.1007
  998SOL    HW1 2993   2.633   1.828   0.211 -0.4326 -0.4829 -4.5362
  998SOL    HW2 2994   2.678   1.972   0.298  2.0930 -1.2906  2.3279
  999SOL     OW 2995   2.660   2.355   3.094  0.3775 -0.2858 -0.4738
  999SOL    HW1 2996   2.671   2.251   3.098 -1.3248 -0.0740 -0.0062
  999SOL    HW2 2997   2.751   2.392   0.017  0.1312  3.3062  3.2677
 1000SOL     OW 2998   0.958   0.531   2.099  0.4395 -0.0659  0.1269
 1000SOL    HW1 2999   0.977   0.466   2.175 -0.7086  0.0524 -3.5101
 1000SOL    HW2 3000   0.881   0.498   2.043 -0.2521 -1.9169 -0.3154
   3.10953   3.10953   3.10953
