1000 SPC/Fw water molecules t= 351.00000 step= 351000
 3000
    1SOL     OW    1   2.226   0.063   1.214 -0.0925  0.5626  0.0928
    1SOL    HW1    2   2.216   0.135   1.285 -1.2181  0.5370  2.7651
    1SOL    HW2    3   2.271   3.064   1.256 -0.8572  0.9733 -0.7251
    2SOL     OW    4   2.878   2.361   0.969  0.1998  0.0428 -0.4954
    2SOL    HW1    5   2.845   2.455   0.938 -1.6262  0.2061  0.0391
    2SOL    HW2    6   2.809   2.291   0.979  1.6548 -0.4889  2.1483
    3SOL     OW    7   1.327   2.892   2.876  0.0113 -1.0236  0.2682
    3SOL    HW1    8   1.370   2.971   2.832 -3.0105 -0.9119 -0.2428
    3SOL    HW2    9   1.289   2.925   2.965  0.5047  4.6823 -0.3531
    4SOL     OW   10   1.682   2.589   2.561 -0.1824  0.2973 -0.2157
    4SOL    HW1   11   1.636   2.527   2.492 -0.7480  3.6162  1.4479
    4SOL    HW2   12   1.786   2.598   2.549  2.9157 -2.2002 -1.5613
    5SOL     OW   13   1.732   0.503   1.837 -0.0568 -0.0685  0.1784
    5SOL    HW1   14   1.802   0.495   1.914  1.4740 -0.6711 -1.9628
    5SOL    HW2   15   1.752   0.586   1.779 -2.4982  0.2052  0.5271
    6SOL     OW   16   2.269   2.636   0.489 -0.0726 -0.1268  0.0350
    6SOL    HW1   17   2.240   2.686   0.402 -1.2005  0.7791 -1.9286
    6SOL    HW2   18   2.295   2.703   0.558  3.3485 -2.7991 -2.9206
    7SOL     OW   19   1.567   1.108   1.131  0.4780 -0.1256 -0.1126
    7SOL    HW1   20   1.583   1.165   1.214  0.0538 -1.2026  0.4365
    7SOL    HW2   21   1.520   1.164   1.060 -0.6048  1.3803 -0.4000
    8SOL     OW   22   0.701   1.939   1.254 -0.2761 -0.3237  0.1293
    8SOL    HW1   23   0.673   1.839   1.262 -1.0353 -0.7720 -0.2550
    8SOL    HW2   24   0.803   1.945   1.254  0.9785 -0.8242  0.5239
    9SOL     OW   25   1.272   2.185   1.892 -0.6072  0.6300  0.6805
    9SOL    HW1   26   1.191   2.224   1.935  0.3154 -2.0861  0.0510
    9SOL    HW2   27   1.252   2.162   1.793 -2.4362  0.3244  1.4783
   10SOL     OW   28   0.725   2.035   0.654 -0.3484 -0.2397 -0.1549
   10SOL    HW1   29   0.743   2.069   0.749  0.5355  0.5298 -0.3752
   10SOL    HW2   30   0.726   2.112   0.587 -2.1885  0.9747 -0.0409
   11SOL     OW   31   1.542   1.982   1.534 -0.4580  0.2742 -0.1905
   11SOL    HW1   32   1.562   2.043   1.453 -1.9991 -2.0377 -0.6793
   11SOL    HW2   33   1.443   1.956   1.531  3.1331  2.7110  0.1223
   12SOL     OW   34   2.433   0.447   2.322 -0.4020 -0.8672  0.0838
   12SOL    HW1   35   2.361   0.413   2.387 -1.9038  0.4060 -1.7741
   12SOL    HW2   36   2.419   0.413   2.230  0.0455  2.3626  3.9895
   13SOL     OW   37   2.820   2.942   0.673 -0.4591 -0.0754  0.6283
   13SOL    HW1   38   2.856   2.868   0.731  0.6436  2.5748 -1.0741
   13SOL    HW2   39   2.872   3.030   0.681  0.3060  0.5863 -0.6778
   14SOL     OW   40   1.447   1.514   2.861 -0.6993 -0.2213 -0.3054
   14SOL    HW1   41   1.534   1.524   2.810  1.4037 -0.5194  2.0935
   14SOL    HW2   42   1.370   1.516   2.797 -0.7469  2.3342 -2.8014
   15SOL     OW   43   2.458   2.746   1.145  0.4648 -0.0119  0.3320
   15SOL    HW1   44   2.552   2.781   1.123 -1.3344 -0.4784  1.6564
   15SOL    HW2   45   2.466   2.657   1.196 -0.7950 -1.3467  0.9723
   16SOL     OW   46   2.766   2.875   0.409  0.2840  0.3585  0.0807
   16SOL    HW1   47   2.767   2.889   0.511 -0.3019  0.2536  2.0692
   16SOL    HW2   48   2.859   2.843   0.374 -0.5093 -1.6561 -0.1411
   17SOL     OW   49   0.307   0.588   1.221  0.0857 -0.1907 -0.2708
   17SOL    HW1   50   0.385   0.625   1.275 -1.8857 -3.6188 -2.1822
   17SOL    HW2   51   0.279   0.501   1.264 -0.1594  1.2641 -1.8917
   18SOL     OW   52   2.184   0.359   0.451  0.6712 -0.2169  0.6151
   18SOL    HW1   53   2.135   0.278   0.482  0.6343  2.2731  0.0998
   18SOL    HW2   54   2.269   0.390   0.506  0.9229  1.9696 -1.7389
   19SOL     OW   55   1.852   1.651   2.992 -0.7645  0.2680  0.2463
   19SOL    HW1   56   1.760   1.691   2.978  0.3542 -0.1652 -1.6851
   19SOL    HW2   57   1.844   1.577   3.064 -0.6870  1.3731 -1.6213
   20SOL     OW   58   2.331   1.742   2.267  0.6638  0.4961 -0.4164
   20SOL    HW1   59   2.324   1.650   2.317  1.9420 -1.8601 -0.9503
   20SOL    HW2   60   2.344   1.736   2.161  0.1447 -0.7838 -0.0210
   21SOL     OW   61   1.687   3.076   0.666  0.4463  0.1111 -0.0670
   21SOL    HW1   62   1.754   3.007   0.695  0.1436 -0.3106 -3.4088
   21SOL    HW2   63   1.688   3.079   0.565 -1.3415  0.4671  2.3193
   22SOL     OW   64   2.568   0.518   1.643  0.2434 -0.2308 -0.3545
   22SOL    HW1   65   2.648   0.477   1.590  0.7293  1.0094 -0.3118
   22SOL    HW2   66   2.566   0.618   1.621  0.3702 -2.8720 -0.2964
   23SOL     OW   67   0.390   0.620   2.003 -0.0321  0.0394  0.2757
   23SOL    HW1   68   0.332   0.651   2.081  2.0444  0.9717 -0.1731
   23SOL    HW2   69   0.338   0.551   1.949 -0.3428 -2.0530  1.1556
   24SOL     OW   70   2.982   2.524   0.362 -0.0039  0.1463  0.2283
   24SOL    HW1   71   3.059   2.475   0.405 -1.8818 -0.0340  0.1688
   24SOL    HW2   72   2.991   2.622   0.345  0.3889  1.4210  0.2485
   25SOL     OW   73   0.789   2.734   2.865  0.0571 -0.3135 -0.0690
   25SOL    HW1   74   0.721   2.794   2.917 -0.3884  0.4803  0.8766
   25SOL    HW2   75   0.875   2.783   2.849 -0.6032 -1.4234  3.5158
   26SOL     OW   76   1.230   2.587   0.455  0.3063 -0.0359 -0.2674
   26SOL    HW1   77   1.260   2.492   0.470 -1.3866  0.4360 -1.3677
   26SOL    HW2   78   1.304   2.657   0.459 -1.8537  0.7466  0.6047
   27SOL     OW   79   2.276   0.786   0.426 -0.2282  0.0609  0.1258
   27SOL    HW1   80   2.200   0.808   0.360  0.7052  0.4232 -1.2777
   27SOL    HW2   81   2.341   0.864   0.423  1.4989 -0.7129  0.2087
   28SOL     OW   82   0.970   1.542   0.923 -0.5226  0.0881  0.1878
   28SOL    HW1   83   0.927   1.481   0.854  1.7937 -0.7699  1.2388
   28SOL    HW2   84   1.072   1.555   0.909 -0.6397  0.4998  0.5213
   29SOL     OW   85   0.044   2.882   1.539 -0.5324  0.3763 -0.0775
   29SOL    HW1   86   0.119   2.885   1.474  0.1197  0.6831  2.5492
   29SOL    HW2   87   3.032   2.883   1.499  2.4142 -2.3200  0.1873
   30SOL     OW   88   1.340   0.017   1.406  0.6672 -0.0412  0.0014
   30SOL    HW1   89   1.366   3.067   1.309 -2.5069  0.7955 -2.2605
   30SOL    HW2   90   1.274   3.030   1.444  3.0304 -0.4621 -1.4340
   31SOL     OW   91   2.102   3.020   2.248  0.1223  0.3800  0.5026
   31SOL    HW1   92   2.002   2.994   2.271 -1.7575 -2.2258  0.4224
   31SOL    HW2   93   2.163   2.971   2.310 -0.7862 -0.8330 -0.8295
   32SOL     OW   94   1.046   1.299   0.181  0.4772  0.1559 -0.4845
   32SOL    HW1   95   1.040   1.271   0.086 -0.0460  1.6606  0.6146
   32SOL    HW2   96   0.956   1.328   0.217 -0.8553 -2.7339 -0.2855
   33SOL     OW   97   3.068   0.914   2.567  0.4191 -0.0115 -0.4651
   33SOL    HW1   98   2.999   0.931   2.500  1.6439  1.1566 -0.3975
   33SOL    HW2   99   3.075   0.816   2.576  1.3151  1.1604 -0.4667
   34SOL     OW  100   2.657   0.203   0.656  0.2079  0.7213 -0.8696
   34SOL    HW1  101   2.578   0.159   0.614  0.5263  1.4730 -1.0830
   34SOL    HW2  102   2.641   0.307   0.658  1.5136 -0.5107 -1.2188
   35SOL     OW  103   2.323   2.661   1.816 -0.4426 -0.3658 -0.2540
   35SOL    HW1  104   2.368   2.595   1.877  0.3837  0.4039 -3.5389
   35SOL    HW2  105   2.224   2.641   1.797  0.3843 -1.7972 -0.1741
   36SOL     OW  106   2.254   1.938   3.048  0.2441 -0.3190 -0.2866
   36SOL    HW1  107   2.295   1.934   2.951  1.9778 -2.7132 -2.1984
   36SOL    HW2  108   2.151   1.928   3.046  0.9854 -3.8072  0.7969
   37SOL     OW  109   1.813   0.020   2.064 -0.5354  0.4967 -0.2477
   37SOL    HW1  110   1.868   0.103   2.064 -3.1412 -3.2628 -0.3210
   37SOL    HW2  111   1.732   0.037   2.004  0.4502 -0.2814 -2.3936
   38SOL     OW  112   0.317   0.577   2.876 -0.8710 -0.3266  0.3034
   38SOL    HW1  113   0.276   0.545   2.786 -1.2796  0.5192 -0.8527
   38SOL    HW2  114   0.239   0.567   2.941  2.0454  1.4442  0.5590
   39SOL     OW  115   1.750   1.151   1.536  0.5091  0.3575 -0.2548
   39SOL    HW1  116   1.840   1.148   1.491 -0.2392  0.0209 -0.8524
   39SOL    HW2  117   1.770   1.160   1.637  0.8284  0.2754 -0.7064
   40SOL     OW  118   1.266   2.326   0.527 -0.4070 -0.0781  0.4065
   40SOL    HW1  119   1.191   2.305   0.594  0.5647  0.0399  0.7826
   40SOL    HW2  120   1.297   2.234   0.492 -2.5965 -0.9379 -1.9003
   41SOL     OW  121   1.947   1.251   0.847 -0.1313  0.3026  0.8216
   41SOL    HW1  122   1.853   1.298   0.858 -3.0737 -0.4381  1.1868
   41SOL    HW2  123   2.016   1.326   0.823 -0.1606  0.2667 -0.4347
   42SOL     OW  124   0.858   0.252   1.152  0.1072 -0.4801  0.5412
   42SOL    HW1  125   0.920   0.292   1.077  0.6617  1.6686  0.7634
   42SOL    HW2  126   0.906   0.200   1.221 -0.1711  0.1349  0.5302
   43SOL     OW  127   0.149   1.578   2.529  0.1059 -0.1279 -0.3647
   43SOL    HW1  128   0.163   1.516   2.612 -1.3284 -1.2933 -3.8220
   43SOL    HW2  129   0.237   1.623   2.508 -0.4907 -0.2964  1.0036
   44SOL     OW  130   2.001   2.948   1.331 -0.2524  0.3839 -0.6018
   44SOL    HW1  131   1.941   3.026   1.310  2.4692  0.4166  1.1299
   44SOL    HW2  132   2.099   2.963   1.326 -2.5166 -1.7405  2.4194
   45SOL     OW  133   1.141   0.013   2.458 -0.6440  0.4772  0.5291
   45SOL    HW1  134   1.236   0.038   2.436  0.6262 -0.4467 -0.9920
   45SOL    HW2  135   1.125   2.995   2.447  2.0555  1.8215  1.2973
   46SOL     OW  136   1.061   2.345   2.279  0.5874 -0.0996  0.0390
   46SOL    HW1  137   1.118   2.266   2.321  2.3349 -2.8319  2.1366
   46SOL    HW2  138   1.001   2.388   2.353 -0.1825  0.9220  0.3069
   47SOL     OW  139   1.128   1.735   0.615 -0.5448  0.1304  0.1170
   47SOL    HW1  140   1.215   1.721   0.562 -0.1694 -0.1265  0.5428
   47SOL    HW2  141   1.141   1.681   0.699  0.0260  0.0926 -1.5843
   48SOL     OW  142   1.276   2.461   1.040  0.1532 -0.4700  0.5204
   48SOL    HW1  143   1.287   2.491   0.943 -0.9732  0.3505  2.0875
   48SOL    HW2  144   1.362   2.461   1.094 -0.7044 -0.4468  0.8508
   49SOL     OW  145   2.378   0.339   2.791  0.4420  0.1023 -0.2029
   49SOL    HW1  146   2.308   0.361   2.863 -0.8417  1.4252  1.2841
   49SOL    HW2  147   2.416   0.422   2.747 -0.6020 -1.6344  1.8810
   50SOL     OW  148   1.497   0.052   0.072  1.0447 -0.3193  0.8205
   50SOL    HW1  149   1.522   0.150   0.083  1.7013  1.6383  0.2462
   50SOL    HW2  150   1.408   0.049   0.024 -1.0560 -1.8285 -0.8107
   51SOL     OW  151   2.292   0.580   1.450  0.3566 -0.2601  0.0291
   51SOL    HW1  152   2.359   0.619   1.513  2.5587 -1.8703  1.9630
   51SOL    HW2  153   2.346   0.519   1.391 -2.5513 -1.5566 -2.8845
   52SOL     OW  154   0.756   1.575   0.070  0.5491 -0.0547  0.8080
   52SOL    HW1  155   0.792   1.595   0.162  0.5850  2.0929 -0.5696
   52SOL    HW2  156   0.815   1.502   0.021  0.3572 -1.6966  0.7038
   53SOL     OW  157   0.152   1.422   2.743  0.2813 -0.8979 -0.2577
   53SOL    HW1  158   0.103   1.333   2.736 -0.4187 -0.9309  0.6343
   53SOL    HW2  159   0.216   1.417   2.821  1.6418 -0.5640  1.0025
   54SOL     OW  160   2.765   1.313   1.623 -0.0817 -0.2754 -0.1787
   54SOL    HW1  161   2.823   1.229   1.641 -0.5107 -2.2124 -2.1250
   54SOL    HW2  162   2.707   1.339   1.702  0.2200  0.8356 -0.0720
   55SOL     OW  163   2.132   2.000   0.415  0.2280 -0.0362 -0.1054
   55SOL    HW1  164   2.226   1.965   0.415 -0.2406  0.8949 -0.9625
   55SOL    HW2  165   2.104   2.035   0.507 -2.1451  0.5492  2.0113
   56SOL     OW  166   1.656   0.282   1.721 -0.3927  0.4253  0.1859
   56SOL    HW1  167   1.703   0.364   1.754  0.8745  1.4088  2.5826
   56SOL    HW2  168   1.558   0.304   1.693  0.8336  0.2084  0.4394
   57SOL     OW  169   1.339   1.256   2.594  0.0510 -0.2397 -0.5765
   57SOL    HW1  170   1.389   1.223   2.509 -1.0501  3.2836  1.7159
   57SOL    HW2  171   1.388   1.217   2.676 -0.6155  1.5185  0.0725
   58SOL     OW  172   0.078   0.753   1.250  0.7862  0.3084  0.1163
   58SOL    HW1  173   0.030   0.722   1.334  0.1842  1.2095  0.2586
   58SOL    HW2  174   0.158   0.698   1.227 -1.8944 -0.0264 -1.6675
   59SOL     OW  175   1.397   2.743   0.082 -0.1433  0.2216  0.3085
   59SOL    HW1  176   1.491   2.779   0.092  0.3896 -2.1943  1.0922
   59SOL    HW2  177   1.327   2.821   0.085 -1.3641  2.4602 -1.4240
   60SOL     OW  178   3.038   1.845   2.732 -0.3033 -0.0125  0.2487
   60SOL    HW1  179   0.061   1.855   2.752  0.8194  1.3967  0.1040
   60SOL    HW2  180   2.988   1.930   2.724 -1.2042 -2.5767 -0.0913
   61SOL     OW  181   0.732   2.638   0.945 -0.7640  0.0299 -0.3846
   61SOL    HW1  182   0.791   2.665   0.866 -0.5822  0.4062  0.4615
   61SOL    HW2  183   0.751   2.696   1.028  0.2165  0.5643  1.6312
   62SOL     OW  184   1.701   1.514   2.748  0.4515  0.1832  0.3524
   62SOL    HW1  185   1.770   1.581   2.708 -0.4815 -1.0625  0.0865
   62SOL    HW2  186   1.737   1.433   2.792 -2.4819  0.6717 -0.5351
   63SOL     OW  187   2.287   1.822   0.246 -0.1347  0.0352 -0.5308
   63SOL    HW1  188   2.297   1.837   0.150 -0.5629 -0.5595  0.9004
   63SOL    HW2  189   2.236   1.899   0.286  0.7130 -0.0491 -0.0065
   64SOL     OW  190   1.733   0.848   2.943  0.3595  0.6303  0.2157
   64SOL    HW1  191   1.669   0.771   2.970 -0.4439 -1.1115  0.0748
   64SOL    HW2  192   1.683   0.937   2.931 -0.9664  0.4347 -0.5186
   65SOL     OW  193   2.133   1.914   2.291 -0.1117 -0.3710 -0.3308
   65SOL    HW1  194   2.229   1.876   2.288 -1.4688  0.5710 -2.3339
   65SOL    HW2  195   2.073   1.872   2.220 -0.3317 -0.3263  1.2750
   66SOL     OW  196   0.338   1.119   1.336  0.5288  0.1934  0.0795
   66SOL    HW1  197   0.258   1.097   1.397  0.6659  1.0301 -2.8167
   66SOL    HW2  198   0.322   1.077   1.245 -0.5153 -0.7389  0.3773
   67SOL     OW  199   2.172   3.067   2.562  0.2347  0.2188 -0.2350
   67SOL    HW1  200   2.095   0.058   2.572 -2.9457 -0.0154  0.3708
   67SOL    HW2  201   2.143   2.987   2.615 -1.5450  1.2383 -0.4766
   68SOL     OW  202   1.124   2.377   1.475 -0.0313 -0.3201 -0.5636
   68SOL    HW1  203   1.199   2.446   1.465 -1.2103 -2.0376  1.6397
   68SOL    HW2  204   1.157   2.285   1.513  0.7327 -1.1957  0.2403
   69SOL     OW  205   0.830   2.539   0.065 -0.1338  0.2895  0.2717
   69SOL    HW1  206   0.772   2.509   0.145 -2.6075 -1.2760 -1.8925
   69SOL    HW2  207   0.925   2.550   0.087 -0.5113 -0.0872  2.2743
   70SOL     OW  208   0.239   0.668   2.236 -0.0831  0.0670 -0.3943
   70SOL    HW1  209   0.149   0.647   2.276  2.0488 -0.1551 -0.5568
   70SOL    HW2  210   0.289   0.734   2.293  0.3886 -1.2156 -0.8417
   71SOL     OW  211   0.574   1.361   2.677 -0.1816  0.0066 -0.2514
   71SOL    HW1  212   0.676   1.371   2.678  0.1276  1.4419  0.0645
   71SOL    HW2  213   0.544   1.377   2.583 -0.5860 -3.1835  4.5342
   72SOL     OW  214   2.982   1.462   2.269 -0.4290  0.0943  0.5208
   72SOL    HW1  215   3.076   1.489   2.248  2.3407 -1.0287 -1.6953
   72SOL    HW2  216   2.922   1.544   2.272  2.4499 -1.4977 -1.6468
   73SOL     OW  217   1.591   1.478   0.444 -0.1104 -0.7819 -0.2633
   73SOL    HW1  218   1.684   1.457   0.480  1.0194 -2.6194  0.0125
   73SOL    HW2  219   1.522   1.423   0.494  4.6856  1.2602 -0.5511
   74SOL     OW  220   2.590   2.870   2.649  0.2751  0.2212 -0.2775
   74SOL    HW1  221   2.620   2.971   2.652  1.3886  3.3149  0.0811
   74SOL    HW2  222   2.528   2.856   2.571  0.6150  1.0246 -0.8668
   75SOL     OW  223   1.960   2.205   0.978  0.1488  0.4629  0.7087
   75SOL    HW1  224   1.945   2.241   1.068  3.0625 -0.7107 -2.7459
   75SOL    HW2  225   1.988   2.109   0.987 -2.1038  2.3879 -1.1386
   76SOL     OW  226   2.904   2.231   1.979  0.4381 -0.1945 -0.1341
   76SOL    HW1  227   2.897   2.141   1.936  0.4879  2.1712 -1.4778
   76SOL    HW2  228   2.887   2.312   1.918 -0.9929  2.5669  1.7687
   77SOL     OW  229   3.056   0.146   1.854  0.1262 -0.2319  0.5212
   77SOL    HW1  230   3.077   0.114   1.754 -1.1331  0.9261 -0.7564
   77SOL    HW2  231   2.964   0.189   1.856  0.4481 -2.1247  0.7709
   78SOL     OW  232   2.341   1.153   2.966 -0.0362  0.0301  0.5631
   78SOL    HW1  233   2.407   1.226   2.996  4.2987  1.2048  1.6240
   78SOL    HW2  234   2.265   1.208   2.932  3.0787 -1.8962  0.8078
   79SOL     OW  235   2.854   1.311   2.474  0.0574  0.4993  0.4860
   79SOL    HW1  236   2.814   1.380   2.539  1.0776  0.8211 -0.8556
   79SOL    HW2  237   2.909   1.361   2.401  3.4668 -2.3556  0.7188
   80SOL     OW  238   1.354   1.361   1.436 -0.5539  0.4171 -0.3963
   80SOL    HW1  239   1.359   1.440   1.497 -1.5516  1.5095 -1.5902
   80SOL    HW2  240   1.273   1.304   1.446  1.9003 -0.9777  1.1675
   81SOL     OW  241   2.008   0.847   1.948 -0.3995 -0.2755 -0.5253
   81SOL    HW1  242   1.966   0.774   2.008  2.3783  0.7839  1.6414
   81SOL    HW2  243   2.106   0.819   1.929 -2.4312  1.0843  2.4747
   82SOL     OW  244   1.696   1.508   1.651 -0.0573 -0.1442 -0.0924
   82SOL    HW1  245   1.777   1.447   1.645  0.5799 -2.6946 -0.9310
   82SOL    HW2  246   1.703   1.566   1.732 -1.3031 -0.2317 -2.4775
   83SOL     OW  247   0.237   0.173   0.400  0.1385  0.0240  0.0271
   83SOL    HW1  248   0.158   0.127   0.345 -1.0847  0.7729 -3.6862
   83SOL    HW2  249   0.274   0.252   0.350  0.2372 -1.9456  3.2636
   84SOL     OW  250   0.448   0.964   0.062  0.2660  0.0332 -0.0435
   84SOL    HW1  251   0.381   0.951   3.067  1.6110 -0.4752 -0.4634
   84SOL    HW2  252   0.464   0.873   0.108  4.1485  1.4480 -2.4606
   85SOL     OW  253   2.311   1.964   1.117 -0.0378  0.3444  0.3257
   85SOL    HW1  254   2.339   1.884   1.056 -0.8493 -0.9870 -3.4432
   85SOL    HW2  255   2.391   2.008   1.164  0.8702  0.0382  0.9039
   86SOL     OW  256   0.460   2.524   1.317 -0.0918  0.2110  0.5154
   86SOL    HW1  257   0.488   2.423   1.336 -0.3614 -1.2765 -0.1880
   86SOL    HW2  258   0.492   2.546   1.221  0.6481 -0.2747  2.2626
   87SOL     OW  259   0.588   2.418   2.445  0.7610 -0.0079 -0.1020
   87SOL    HW1  260   0.520   2.354   2.409  0.7572 -0.4648  0.7589
   87SOL    HW2  261   0.633   2.370   2.526  0.1835  1.0822  1.8032
   88SOL     OW  262   3.028   1.841   0.216 -0.4856 -0.6184 -0.0901
   88SOL    HW1  263   3.040   1.937   0.261 -0.7413  0.5847  3.8152
   88SOL    HW2  264   2.995   1.844   0.120  0.5875 -0.7999  0.0115
   89SOL     OW  265   0.860   1.000   1.029  0.5046  0.2399  0.2030
   89SOL    HW1  266   0.955   0.984   0.994 -1.8688 -1.1065 -1.0453
   89SOL    HW2  267   0.801   0.995   0.944  1.4614 -0.7293  2.9898
   90SOL     OW  268   0.179   1.336   1.856 -0.1310  0.3408 -0.6685
   90SOL    HW1  269   0.172   1.266   1.929 -0.9369  2.0380 -1.0730
   90SOL    HW2  270   0.094   1.390   1.840 -0.3686  1.0078  0.4301
   91SOL     OW  271   1.125   0.946   0.975 -0.0181 -0.1731  0.2748
   91SOL    HW1  272   1.099   0.849   0.963 -1.2394  0.2345 -0.4572
   91SOL    HW2  273   1.202   0.975   0.914  0.5006 -0.9937  3.5017
   92SOL     OW  274   1.768   0.980   0.959 -0.1964 -0.0963  0.3770
   92SOL    HW1  275   1.688   1.041   0.986 -1.6155  1.6485  1.1897
   92SOL    HW2  276   1.859   1.019   0.988  0.6989  0.9001  0.4630
   93SOL     OW  277   2.739   0.888   2.466 -0.0639  0.2588  0.3469
   93SOL    HW1  278   2.660   0.824   2.449  2.4361 -0.6497 -0.4147
   93SOL    HW2  279   2.820   0.855   2.408  0.3495 -1.6458  0.8408
   94SOL     OW  280   2.139   1.729   2.679 -0.0783 -0.4032  0.0220
   94SOL    HW1  281   2.219   1.745   2.616 -0.0078  0.0280 -0.4390
   94SOL    HW2  282   2.084   1.814   2.700  1.6209  2.4118  3.2090
   95SOL     OW  283   2.774   0.761   1.288  0.9312  0.0954 -0.5732
   95SOL    HW1  284   2.802   0.738   1.190 -0.1518 -0.5470 -1.8958
   95SOL    HW2  285   2.694   0.819   1.280 -1.4205  0.4262  0.5988
   96SOL     OW  286   2.348   2.940   1.342  0.7865 -0.3351 -0.2838
   96SOL    HW1  287   2.337   2.925   1.440 -0.8744  1.0664  1.2194
   96SOL    HW2  288   2.401   2.871   1.297 -3.3094  1.2408  0.6350
   97SOL     OW  289   2.386   1.266   1.499  0.2321 -0.3251 -0.2499
   97SOL    HW1  290   2.454   1.208   1.451  1.8136  0.1380  2.2270
   97SOL    HW2  291   2.432   1.358   1.523  1.0941 -1.3807 -1.4619
   98SOL     OW  292   1.453   2.527   2.069  0.4989  0.1858  0.1013
   98SOL    HW1  293   1.548   2.568   2.074  2.2664 -2.2115  0.5638
   98SOL    HW2  294   1.458   2.454   1.998 -0.5935 -0.4104  1.5810
   99SOL     OW  295   0.205   2.606   1.448 -0.1501 -0.1012  0.0521
   99SOL    HW1  296   0.269   2.565   1.383 -0.6764 -1.4147  1.9726
   99SOL    HW2  297   0.260   2.640   1.523  0.5762  1.9793  1.2880
  100SOL     OW  298   1.550   0.441   2.610  0.4620 -0.3756 -0.6788
  100SOL    HW1  299   1.579   0.348   2.635 -0.8537  1.8546 -1.3558
  100SOL    HW2  300   1.594   0.501   2.680 -1.1683  2.4681  0.7860
  101SOL     OW  301   2.446   0.173   2.491 -0.1757 -0.2762 -0.1341
  101SOL    HW1  302   2.360   0.224   2.505  0.0418  2.5730 -0.4575
  101SOL    HW2  303   2.478   0.173   2.391  2.0015  0.7624 -3.1472
  102SOL     OW  304   0.255   0.739   1.546 -0.0136  0.2658 -0.3824
  102SOL    HW1  305   0.298   0.744   1.640  1.2460 -0.8157  2.7456
  102SOL    HW2  306   0.219   0.832   1.519 -1.6331  1.0406 -1.2030
  103SOL     OW  307   0.660   0.937   2.413 -0.0277 -0.1865  0.2866
  103SOL    HW1  308   0.582   0.904   2.357 -3.4811 -0.3447 -0.4606
  103SOL    HW2  309   0.633   0.962   2.507 -1.1137 -0.1816 -2.9926
  104SOL     OW  310   0.264   0.922   2.647  0.0134  0.0072 -0.2837
  104SOL    HW1  311   0.169   0.905   2.619  3.4397  1.1538 -1.9240
  104SOL    HW2  312   0.284   1.014   2.690  3.5722  3.2040 -2.1016
  105SOL     OW  313   1.976   2.153   1.609 -0.6776  0.0785 -0.0531
  105SOL    HW1  314   2.016   2.061   1.643 -1.2488 -2.3683 -0.8414
  105SOL    HW2  315   1.950   2.149   1.511  0.1599  0.1938 -1.8160
  106SOL     OW  316   1.746   2.998   0.416  0.3723  0.4737  0.7138
  106SOL    HW1  317   1.753   2.895   0.413  1.1417 -0.8127 -2.8573
  106SOL    HW2  318   1.829   3.040   0.376 -3.7796 -0.2001 -0.1561
  107SOL     OW  319   2.047   1.938   1.062 -0.7716 -0.0173  0.7459
  107SOL    HW1  320   2.146   1.941   1.085 -0.7887 -2.3420  1.4907
  107SOL    HW2  321   2.034   1.876   0.981 -2.1207  0.3447 -4.2292
  108SOL     OW  322   2.778   2.881   1.518  0.3834  0.1962 -0.2853
  108SOL    HW1  323   2.770   2.778   1.539  0.9320 -2.1768 -1.5765
  108SOL    HW2  324   2.687   2.925   1.530 -1.7719 -0.6612  0.5247
  109SOL     OW  325   2.005   2.440   0.842 -0.6675  0.2746 -0.0298
  109SOL    HW1  326   1.990   2.348   0.897 -0.9510 -1.8508  1.4219
  109SOL    HW2  327   2.064   2.419   0.766 -0.4436  0.2966  2.4279
  110SOL     OW  328   1.073   1.811   2.041  0.3920  0.3585  0.6964
  110SOL    HW1  329   1.077   1.713   2.006 -0.1369 -0.7727 -1.2556
  110SOL    HW2  330   0.986   1.852   2.003  0.0017 -1.7828 -2.2442
  111SOL     OW  331   1.837   2.149   2.089 -0.4831  0.5020  0.3908
  111SOL    HW1  332   1.858   2.209   2.010 -0.4422  1.5162  0.3326
  111SOL    HW2  333   1.755   2.183   2.138 -2.1095 -0.7098 -0.3666
  112SOL     OW  334   1.797   1.774   2.619  0.3553  0.2121 -0.4273
  112SOL    HW1  335   1.866   1.822   2.677 -2.8597 -1.9079  0.4622
  112SOL    HW2  336   1.839   1.736   2.537 -0.9571 -2.2486 -0.1591
  113SOL     OW  337   1.686   1.662   1.861 -0.3077 -0.3622  0.5795
  113SOL    HW1  338   1.707   1.748   1.917 -3.7741  0.6976  0.7367
  113SOL    HW2  339   1.591   1.660   1.832  1.1858 -2.3018  0.6740
  114SOL     OW  340   0.023   1.249   1.074 -0.6046  0.0048 -0.0655
  114SOL    HW1  341   3.075   1.223   0.979  0.1108  2.9192  2.2270
  114SOL    HW2  342   0.048   1.168   1.126 -0.8941 -0.1209  0.5081
  115SOL     OW  343   0.753   0.488   0.313  0.3131  0.0147 -0.0959
  115SOL    HW1  344   0.689   0.516   0.387 -0.4033  0.7754 -1.0455
  115SOL    HW2  345   0.831   0.444   0.353 -0.0056  2.0337 -3.0186
  116SOL     OW  346   2.852   1.900   2.291 -0.2561  0.3402  0.4690
  116SOL    HW1  347   2.784   1.936   2.353  2.1592 -0.5273 -3.6220
  116SOL    HW2  348   2.907   1.830   2.338 -2.1609  1.3240 -0.3025
  117SOL     OW  349   0.039   2.665   0.659  0.1373 -0.2201 -0.2395
  117SOL    HW1  350   0.063   2.603   0.587  2.2078  1.5369  0.5954
  117SOL    HW2  351   0.099   2.644   0.737  0.9611 -0.5542 -2.2415
  118SOL     OW  352   0.432   1.707   2.726 -0.1149  0.1341  0.7658
  118SOL    HW1  353   0.437   1.796   2.778  1.1353  0.7155 -0.6050
  118SOL    HW2  354   0.410   1.624   2.783 -0.7008 -0.5242  2.9633
  119SOL     OW  355   0.645   1.813   0.469 -0.5791 -0.3083 -0.0778
  119SOL    HW1  356   0.697   1.872   0.530  1.5765 -1.5679 -0.1749
  119SOL    HW2  357   0.593   1.880   0.410 -3.1967 -0.1141 -0.0689
  120SOL     OW  358   1.596   0.411   0.295 -0.1190  0.2037 -0.2080
  120SOL    HW1  359   1.691   0.379   0.318  4.3651  0.5051 -1.5087
  120SOL    HW2  360   1.590   0.509   0.314  0.2046  0.6330  0.8867
  121SOL     OW  361   1.548   2.459   0.675 -0.4738 -0.4656  0.1715
  121SOL    HW1  362   1.587   2.389   0.743  0.1310 -2.4225  0.2728
  121SOL    HW2  363   1.557   2.428   0.576 -0.8806 -1.1812  3.0599
  122SOL     OW  364   2.498   2.541   1.617  0.7893 -0.2834 -0.4970
  122SOL    HW1  365   2.424   2.584   1.677 -2.8005  1.5829  0.2657
  122SOL    HW2  366   2.485   2.440   1.620 -0.4148 -1.7376 -1.6534
  123SOL     OW  367   0.593   1.607   0.739  0.3775 -0.0170 -0.0588
  123SOL    HW1  368   0.648   1.529   0.710 -1.3414  1.9682 -1.2894
  123SOL    HW2  369   0.649   1.690   0.745  0.5206 -1.4620  0.1347
  124SOL     OW  370   3.011   0.802   0.416  0.1845  0.2587 -0.0579
  124SOL    HW1  371   2.953   0.721   0.389  0.4257  0.0868 -1.2772
  124SOL    HW2  372   2.969   0.883   0.384  2.3139 -3.0073 -0.6703
  125SOL     OW  373   0.508   0.500   0.512 -0.0613 -0.1178  0.1468
  125SOL    HW1  374   0.556   0.445   0.585 -0.0678 -0.7192 -1.1497
  125SOL    HW2  375   0.424   0.549   0.550 -3.6100 -0.0253  0.7708
  126SOL     OW  376   2.745   1.926   0.541  0.2933  0.3218 -0.1072
  126SOL    HW1  377   2.697   1.851   0.499  3.0749  3.0779  2.2644
  126SOL    HW2  378   2.776   1.994   0.469 -0.0220  3.0007 -2.8602
  127SOL     OW  379   1.512   2.340   1.880  0.0050  0.0389  0.3181
  127SOL    HW1  380   1.440   2.269   1.879 -0.0543  2.8928  5.0387
  127SOL    HW2  381   1.603   2.313   1.834  3.0751  1.2323 -1.6938
  128SOL     OW  382   1.023   1.050   0.331  0.0269  0.1617 -0.0858
  128SOL    HW1  383   0.949   0.984   0.349 -1.3947  2.8679 -1.1093
  128SOL    HW2  384   0.986   1.137   0.299 -0.0346 -0.6876  3.0566
  129SOL     OW  385   1.778   1.825   1.539 -0.2430  0.4317 -0.7211
  129SOL    HW1  386   1.711   1.903   1.550 -4.0010  0.4940  0.4343
  129SOL    HW2  387   1.748   1.746   1.597  1.3220 -2.1059  1.9849
  130SOL     OW  388   2.004   1.454   1.584 -0.0286 -0.7684  0.1178
  130SOL    HW1  389   1.983   1.499   1.677 -0.8585  1.7579  1.7168
  130SOL    HW2  390   2.058   1.366   1.599  2.0573 -1.3544  0.5129
  131SOL     OW  391   2.951   2.954   2.872 -0.4265  0.2550  0.2031
  131SOL    HW1  392   2.943   2.954   2.769 -1.8654  0.7970 -0.5305
  131SOL    HW2  393   2.916   2.861   2.899 -1.1607 -0.2088  1.8278
  132SOL     OW  394   2.365   1.852   0.560  0.2901  0.5432 -0.3950
  132SOL    HW1  395   2.407   1.942   0.534  2.4491  2.2423 -1.2513
  132SOL    HW2  396   2.437   1.781   0.563  1.2635 -3.0742  1.0952
  133SOL     OW  397   0.374   0.159   1.951 -0.4388 -0.1000  0.1479
  133SOL    HW1  398   0.291   0.142   2.006  0.3811 -2.5325  0.6979
  133SOL    HW2  399   0.450   0.208   2.001 -0.8932  1.1883 -0.6770
  134SOL     OW  400   2.799   2.054   2.981  0.0266  0.8217 -0.2492
  134SOL    HW1  401   2.829   1.958   3.012  2.1857 -0.1108  1.3005
  134SOL    HW2  402   2.698   2.053   2.955  0.6466 -2.1495  1.5101
  135SOL     OW  403   1.486   0.512   1.953 -0.8188  0.0789  0.3402
  135SOL    HW1  404   1.573   0.496   1.908 -0.9559 -0.3991  1.1814
  135SOL    HW2  405   1.476   0.610   1.984  0.1010 -0.4331 -0.0492
  136SOL     OW  406   2.425   1.520   0.584 -0.4650 -0.5432 -0.0635
  136SOL    HW1  407   2.402   1.422   0.569  2.0322 -0.1926  1.5029
  136SOL    HW2  408   2.434   1.533   0.685  0.2090 -1.3624  1.3270
  137SOL     OW  409   2.872   1.629   0.675  0.3463 -0.2009 -0.4378
  137SOL    HW1  410   2.891   1.528   0.696 -1.8907 -0.2364 -1.1086
  137SOL    HW2  411   2.878   1.685   0.759 -0.9760  1.8144 -1.1957
  138SOL     OW  412   2.524   0.901   1.183 -0.2033  0.2630  0.4541
  138SOL    HW1  413   2.423   0.895   1.190  0.8896 -0.5428 -1.9911
  138SOL    HW2  414   2.564   0.896   1.087 -1.3139 -0.1643 -0.7650
  139SOL     OW  415   0.540   2.596   3.026  0.1202 -0.0425 -0.9079
  139SOL    HW1  416   0.512   2.585   0.044 -0.0626 -0.6773 -0.9338
  139SOL    HW2  417   0.639   2.602   3.005 -1.3534  0.6593  1.9086
  140SOL     OW  418   1.114   1.963   1.027  0.4288 -0.5582  0.4116
  140SOL    HW1  419   1.167   2.032   0.976 -0.0155 -2.5007  3.0474
  140SOL    HW2  420   1.069   1.899   0.964  0.0611 -0.2332 -1.7585
  141SOL     OW  421   1.266   2.048   0.468  0.2369  0.1716  0.8045
  141SOL    HW1  422   1.201   2.036   0.547 -0.9973  0.3973  1.0211
  141SOL    HW2  423   1.236   1.985   0.395  1.5062 -0.9100  2.1399
  142SOL     OW  424   1.073   0.695   0.958  0.0229  0.1458 -0.3389
  142SOL    HW1  425   1.103   0.649   0.874  0.8983  3.4700  0.8829
  142SOL    HW2  426   0.979   0.656   0.986 -2.5126  0.5392 -1.9981
  143SOL     OW  427   0.862   1.146   2.890  0.3436  0.0405  0.3742
  143SOL    HW1  428   0.764   1.171   2.874 -1.1818  0.8556  0.9597
  143SOL    HW2  429   0.900   1.099   2.812 -0.3512 -0.9918 -0.4704
  144SOL     OW  430   1.867   2.652   0.720  0.2020 -0.3121  0.1582
  144SOL    HW1  431   1.767   2.654   0.746  0.1964  0.9404 -2.8751
  144SOL    HW2  432   1.906   2.567   0.765 -0.1705 -1.7858 -2.6515
  145SOL     OW  433   1.924   0.743   2.630  0.0491  0.2568 -0.1847
  145SOL    HW1  434   2.008   0.702   2.595 -2.0140 -1.0466 -0.6329
  145SOL    HW2  435   1.943   0.796   2.718  2.0768 -0.8214 -1.1416
  146SOL     OW  436   0.062   2.945   0.505 -0.1770  0.0546  0.2587
  146SOL    HW1  437   0.006   3.028   0.485 -2.7970  0.2971  0.6768
  146SOL    HW2  438   0.059   2.925   0.603  1.2237  0.0362  0.5627
  147SOL     OW  439   1.696   0.351   2.160  0.0470 -0.1312 -0.2480
  147SOL    HW1  440   1.605   0.395   2.138  0.5497 -0.6275 -1.8702
  147SOL    HW2  441   1.751   0.398   2.235  1.3149  1.2621  3.0779
  148SOL     OW  442   1.210   0.397   1.924  0.5680  0.0438 -0.3109
  148SOL    HW1  443   1.294   0.453   1.952 -0.1560  0.5668  0.6239
  148SOL    HW2  444   1.184   0.337   2.005 -0.3889  1.7277  0.2208
  149SOL     OW  445   1.386   0.164   2.377 -0.0780 -0.0920 -0.2057
  149SOL    HW1  446   1.420   0.162   2.277 -0.9025 -1.4531  0.1237
  149SOL    HW2  447   1.439   0.090   2.425  0.3786 -1.8704 -0.1297
  150SOL     OW  448   2.794   0.037   3.008 -0.3886 -0.1336 -0.3849
  150SOL    HW1  449   2.845   3.043   2.958 -0.1324 -0.4457  1.4081
  150SOL    HW2  450   2.704   0.003   3.052 -2.7004  0.7259  0.4336
  151SOL     OW  451   0.696   1.083   0.143  0.7324  0.0831  0.2902
  151SOL    HW1  452   0.604   1.047   0.113  0.3540 -1.4769  0.8019
  151SOL    HW2  453   0.770   1.045   0.083 -1.9764  0.9554 -2.5479
  152SOL     OW  454   0.151   0.374   0.623 -0.2934 -0.4134  0.2007
  152SOL    HW1  455   0.115   0.387   0.716 -0.0385 -1.4997 -0.7515
  152SOL    HW2  456   0.214   0.293   0.612  0.7823 -0.9763 -0.0518
  153SOL     OW  457   2.496   0.419   1.358  0.0237  0.3187 -0.0887
  153SOL    HW1  458   2.585   0.461   1.383 -2.6255  0.5977 -2.6625
  153SOL    HW2  459   2.508   0.317   1.354 -2.4728 -0.1062  0.0617
  154SOL     OW  460   1.464   0.083   2.131 -0.0154 -0.1355 -0.2836
  154SOL    HW1  461   1.520   0.088   2.047 -3.4444 -1.4105  1.0142
  154SOL    HW2  462   1.405   0.001   2.130  2.6383  1.7581  0.9543
  155SOL     OW  463   2.984   1.616   0.402  0.2110 -0.4838  0.1404
  155SOL    HW1  464   2.961   1.654   0.492 -0.7799 -0.5838  1.4806
  155SOL    HW2  465   2.959   1.684   0.331  1.0708  2.6797  1.7455
  156SOL     OW  466   2.572   1.770   2.983  0.3954 -0.2896 -0.3808
  156SOL    HW1  467   2.610   1.684   3.021  0.5432 -0.4213 -2.2268
  156SOL    HW2  468   2.470   1.772   3.001 -1.8732 -1.4894  3.0403
  157SOL     OW  469   0.898   0.129   0.734  0.5413 -0.0082 -0.0351
  157SOL    HW1  470   0.878   0.173   0.645 -2.3007 -0.0708  0.6504
  157SOL    HW2  471   0.971   0.060   0.721 -0.9971 -3.1617 -1.0600
  158SOL     OW  472   2.412   0.373   2.071 -0.3488 -0.0683 -0.1051
  158SOL    HW1  473   2.363   0.325   1.997 -0.7480 -2.5912 -0.8059
  158SOL    HW2  474   2.481   0.436   2.034  0.0030  0.0544 -0.9804
  159SOL     OW  475   0.376   0.194   0.639 -0.0113  0.7408 -0.4160
  159SOL    HW1  476   0.362   0.193   0.535 -1.2003 -2.2516 -1.7454
  159SOL    HW2  477   0.422   0.111   0.675  0.0463  0.9639 -0.7735
  160SOL     OW  478   1.875   1.872   1.930  0.2527 -0.0211  0.3163
  160SOL    HW1  479   1.861   1.964   1.970 -1.6470 -0.3152 -1.8505
  160SOL    HW2  480   1.906   1.805   1.997 -1.3774 -0.1896 -0.7811
  161SOL     OW  481   2.842   0.309   2.487 -0.4678  0.5229  0.3239
  161SOL    HW1  482   2.823   0.294   2.585 -1.5814  0.1420  1.6935
  161SOL    HW2  483   2.921   0.255   2.449 -0.3587  1.1136 -1.1740
  162SOL     OW  484   1.070   2.751   1.662  0.6887 -0.0434 -0.0431
  162SOL    HW1  485   1.060   2.670   1.726  1.7009  0.7058 -0.4226
  162SOL    HW2  486   1.034   2.832   1.705  0.1475 -0.4210 -0.4091
  163SOL     OW  487   2.751   0.265   2.217 -0.9092 -0.2017  0.8888
  163SOL    HW1  488   2.654   0.229   2.219 -2.0204 -0.3306  0.9267
  163SOL    HW2  489   2.783   0.289   2.309 -1.5766  0.8117  0.4010
  164SOL     OW  490   2.241   1.586   0.380 -0.0290 -0.4683  0.7005
  164SOL    HW1  491   2.263   1.671   0.332 -0.1730 -2.0558 -0.0294
  164SOL    HW2  492   2.294   1.566   0.465 -0.1279  1.3013 -1.7445
  165SOL     OW  493   2.751   0.502   1.432  0.2532  0.1160  0.1534
  165SOL    HW1  494   2.794   0.420   1.395 -1.7326  2.5476 -0.1385
  165SOL    HW2  495   2.772   0.584   1.374 -1.3452  0.9652  2.8441
  166SOL     OW  496   2.293   0.694   0.035  0.1727  0.1193  0.1843
  166SOL    HW1  497   2.388   0.711   0.001  0.6799 -0.6925 -0.9044
  166SOL    HW2  498   2.268   0.765   0.104  1.1014 -1.6381 -0.5952
  167SOL     OW  499   2.691   0.931   0.105  0.0322  0.4700 -0.1765
  167SOL    HW1  500   2.706   0.987   0.019 -2.2594  0.9307 -2.5011
  167SOL    HW2  501   2.754   0.955   0.181 -0.3383 -0.6520  0.0459
  168SOL     OW  502   1.671   2.971   2.704 -0.3153  0.0944  0.1612
  168SOL    HW1  503   1.612   2.890   2.709  0.3930 -0.2175  2.0743
  168SOL    HW2  504   1.628   3.042   2.642 -0.7028 -2.9314 -1.6781
  169SOL     OW  505   0.040   1.490   0.873 -0.4676  0.0241  0.2869
  169SOL    HW1  506   3.043   1.447   0.821 -0.2170  1.2481  1.3538
  169SOL    HW2  507   0.112   1.424   0.903 -0.4355 -2.4053  1.3029
  170SOL     OW  508   0.068   1.025   1.238  0.1550 -0.1591  0.0430
  170SOL    HW1  509   0.082   1.062   1.329 -2.2213 -0.3701 -0.7619
  170SOL    HW2  510   0.087   0.924   1.243  1.9850 -0.3839  2.5925
  171SOL     OW  511   2.418   2.190   1.893 -0.2865 -0.0262 -0.2590
  171SOL    HW1  512   2.475   2.212   1.815 -0.1156 -0.7379  0.7505
  171SOL    HW2  513   2.369   2.100   1.880 -1.5706 -0.0970  1.2486
  172SOL     OW  514   0.188   2.295   1.513  0.1820  0.0848  0.5737
  172SOL    HW1  515   0.214   2.230   1.439  0.8512 -1.0943 -0.5808
  172SOL    HW2  516   0.131   2.375   1.488  0.0679  1.3876  1.0080
  173SOL     OW  517   1.198   1.173   2.976 -0.1729  0.0806  0.2224
  173SOL    HW1  518   1.256   1.124   2.907 -0.6052 -1.2183  0.7480
  173SOL    HW2  519   1.179   1.271   2.946 -1.2970  5.6687  0.9275
  174SOL     OW  520   1.276   0.564   2.840 -0.2005 -0.0397  0.7008
  174SOL    HW1  521   1.240   0.597   2.929 -0.1798 -1.3239 -0.1191
  174SOL    HW2  522   1.365   0.603   2.817  0.3129 -0.9806 -0.3783
  175SOL     OW  523   1.526   1.904   1.010  0.3436 -0.7370 -0.0515
  175SOL    HW1  524   1.615   1.861   1.016 -1.9215 -0.7648 -1.2893
  175SOL    HW2  525   1.450   1.844   1.028 -0.0805  1.3640 -2.3536
  176SOL     OW  526   1.504   2.962   0.275  0.0824  0.2718  0.2253
  176SOL    HW1  527   1.581   3.004   0.320  1.2354  0.3262 -0.5753
  176SOL    HW2  528   1.495   3.017   0.187 -1.2987 -1.4028 -0.4514
  177SOL     OW  529   0.576   0.996   2.674  0.0155 -0.2449  0.5197
  177SOL    HW1  530   0.605   0.933   2.747 -2.8886  1.1702 -0.6306
  177SOL    HW2  531   0.494   1.048   2.699  3.0164 -1.0777  2.1245
  178SOL     OW  532   2.205   2.356   2.378  0.2050  0.1741 -1.0353
  178SOL    HW1  533   2.287   2.413   2.360 -2.2938 -1.5994 -2.1113
  178SOL    HW2  534   2.198   2.279   2.316  0.9319  2.6507  2.4300
  179SOL     OW  535   0.011   0.235   2.711  0.0765  0.2916  0.2160
  179SOL    HW1  536   2.991   0.222   2.748 -1.5208  1.1367  0.5713
  179SOL    HW2  537   0.015   0.209   2.610  0.2889  1.6857 -0.7824
  180SOL     OW  538   1.928   0.996   0.706 -0.0061 -0.4731 -0.6548
  180SOL    HW1  539   1.918   0.898   0.728  0.0787 -1.3848 -0.7478
  180SOL    HW2  540   1.904   1.055   0.782 -1.4977 -1.0115  2.8017
  181SOL     OW  541   2.030   1.199   2.532  0.6380  0.1393 -0.1464
  181SOL    HW1  542   2.064   1.296   2.524  0.0378 -1.8858  0.8557
  181SOL    HW2  543   1.929   1.198   2.514 -1.3725 -0.2899 -0.8934
  182SOL     OW  544   2.654   2.511   2.106 -0.1231 -0.0481  0.6369
  182SOL    HW1  545   2.730   2.533   2.035  0.8784  3.2455 -0.4274
  182SOL    HW2  546   2.668   2.418   2.148 -0.5073  1.3924  1.4323
  183SOL     OW  547   1.925   0.584   2.047  0.1307  0.0273  0.4988
  183SOL    HW1  548   1.877   0.613   2.130 -1.1176  0.4288 -0.4145
  183SOL    HW2  549   1.997   0.519   2.066 -2.0197 -0.5910 -0.3970
  184SOL     OW  550   0.006   1.762   1.297 -0.4141  0.2709 -0.1512
  184SOL    HW1  551   0.033   1.755   1.197 -1.6966  1.2064 -0.3135
  184SOL    HW2  552   0.079   1.798   1.362  0.5299  0.4264  1.7915
  185SOL     OW  553   2.109   0.125   0.750 -0.3451 -0.3360  0.1483
  185SOL    HW1  554   2.092   0.064   0.830 -1.2490  3.1981  0.3079
  185SOL    HW2  555   2.157   0.067   0.681 -0.6778 -3.0204  2.2856
  186SOL     OW  556   3.046   2.699   2.789  0.4100 -0.1599 -0.0998
  186SOL    HW1  557   2.954   2.684   2.744  0.1169  0.0100 -0.8316
  186SOL    HW2  558   0.044   2.702   2.720  1.0334 -0.2405 -0.3626
  187SOL     OW  559   2.682   1.209   0.470 -0.0337  0.2499  0.3895
  187SOL    HW1  560   2.754   1.275   0.442 -3.1373 -0.6800  2.4913
  187SOL    HW2  561   2.590   1.236   0.435 -0.6532 -0.5690 -1.0105
  188SOL     OW  562   2.323   1.377   0.999  0.5644  0.1798 -0.2610
  188SOL    HW1  563   2.296   1.353   1.093 -1.3985 -0.0610 -1.2186
  188SOL    HW2  564   2.249   1.435   0.958 -1.6440 -3.0496 -0.3329
  189SOL     OW  565   0.010   0.173   2.456  0.3589 -0.5107 -0.6862
  189SOL    HW1  566   3.032   0.108   2.401 -1.4895  1.4218 -0.3082
  189SOL    HW2  567   0.109   0.160   2.439 -1.6958  2.2998 -0.5928
  190SOL     OW  568   1.454   1.074   1.837 -0.7183 -0.8109  0.5051
  190SOL    HW1  569   1.363   1.058   1.884 -2.7587  1.5467 -1.9331
  190SOL    HW2  570   1.467   1.175   1.813  0.5312  0.3268 -3.3538
  191SOL     OW  571   0.890   0.316   2.002 -0.0943  0.1089 -0.3329
  191SOL    HW1  572   0.959   0.246   2.038 -0.4633  0.0424  2.1510
  191SOL    HW2  573   0.930   0.408   2.000 -1.3427 -0.0392  3.2826
  192SOL     OW  574   1.586   2.057   1.800  0.6020 -0.0090 -0.3123
  192SOL    HW1  575   1.536   1.999   1.870  0.2367 -1.7854 -0.1526
  192SOL    HW2  576   1.575   2.017   1.710 -0.2785  1.6035  2.3041
  193SOL     OW  577   1.741   0.606   1.208 -0.4339 -0.3472 -0.7572
  193SOL    HW1  578   1.763   0.524   1.267  0.9321 -1.6716 -3.1883
  193SOL    HW2  579   1.644   0.631   1.217 -1.3861  0.7189 -1.6556
  194SOL     OW  580   0.493   1.959   1.456  0.4168 -0.4580  0.4647
  194SOL    HW1  581   0.469   1.867   1.487  1.4676  2.3445 -0.8316
  194SOL    HW2  582   0.544   1.959   1.368  0.1458 -1.6351  1.7792
  195SOL     OW  583   1.852   0.308   0.297  0.3190 -0.2112 -0.7207
  195SOL    HW1  584   1.832   0.236   0.226  0.4674  1.5684 -0.2841
  195SOL    HW2  585   1.873   0.265   0.387  2.3890  1.8691 -4.3169
  196SOL     OW  586   0.185   1.474   1.353  0.3787 -0.0095  0.4957
  196SOL    HW1  587   0.213   1.555   1.406 -3.5535  0.4863 -0.6621
  196SOL    HW2  588   0.141   1.411   1.418  0.2500  1.9184 -0.9266
  197SOL     OW  589   0.928   0.197   1.743  0.2062  0.0786  0.7371
  197SOL    HW1  590   0.942   0.272   1.672  0.7560 -0.3237 -2.8076
  197SOL    HW2  591   0.896   0.236   1.830 -0.1276 -0.3588 -1.5031
  198SOL     OW  592   0.643   1.351   1.118  0.4439 -0.0402 -0.9045
  198SOL    HW1  593   0.622   1.447   1.127 -2.6883 -2.9071 -1.8274
  198SOL    HW2  594   0.623   1.306   1.209  1.2878  1.2018  1.7231
  199SOL     OW  595   2.985   2.407   1.734  0.4581  0.3372 -0.0519
  199SOL    HW1  596   2.998   2.505   1.725 -0.6990 -0.2338  0.9121
  199SOL    HW2  597   3.069   2.360   1.775 -0.1809 -1.1469  0.0255
  200SOL     OW  598   1.809   1.153   1.789 -0.6037  0.0530 -0.2513
  200SOL    HW1  599   1.892   1.131   1.846  3.5959 -0.5388  2.9853
  200SOL    HW2  600   1.757   1.224   1.839 -1.1328  1.2836 -0.8273
  201SOL     OW  601   0.758   1.850   2.046  0.0392  0.6911  0.1813
  201SOL    HW1  602   0.786   1.774   2.114 -0.7829  2.1234  0.6524
  201SOL    HW2  603   0.711   1.808   1.966  1.2984  0.8548 -1.4458
  202SOL     OW  604   1.554   0.340   0.030  0.2656 -0.6536  0.0106
  202SOL    HW1  605   1.639   0.352   3.054  1.0421  2.7959 -3.1783
  202SOL    HW2  606   1.567   0.375   0.127 -2.2831  1.2574  0.7620
  203SOL     OW  607   1.422   2.725   2.360 -0.0878 -0.3077 -0.1670
  203SOL    HW1  608   1.378   2.636   2.334  0.5840  0.7893  2.9797
  203SOL    HW2  609   1.434   2.723   2.461  0.5597 -1.6080 -2.1075
  204SOL     OW  610   0.729   1.738   1.799 -0.0198 -0.1394 -0.0910
  204SOL    HW1  611   0.795   1.780   1.734 -1.0458  0.5357  0.5065
  204SOL    HW2  612   0.721   1.639   1.788  0.9748  0.1958 -0.0289
  205SOL     OW  613   1.734   1.602   2.138 -0.8623  0.7180  0.5877
  205SOL    HW1  614   1.664   1.673   2.143 -1.3193  0.4180  2.0503
  205SOL    HW2  615   1.693   1.517   2.176 -0.1321 -0.8500  0.6952
  206SOL     OW  616   0.171   1.509   2.269 -0.1679  0.1474  0.5100
  206SOL    HW1  617   0.264   1.529   2.230  0.8193  0.9818  1.2005
  206SOL    HW2  618   0.162   1.533   2.367  1.8062 -3.5130 -0.7625
  207SOL     OW  619   0.901   2.899   1.996  0.1757 -0.0867 -0.7916
  207SOL    HW1  620   0.863   2.861   1.908  1.2860 -0.8280 -1.0793
  207SOL    HW2  621   0.902   2.830   2.073 -0.8813 -2.1705 -0.0422
  208SOL     OW  622   0.500   2.505   1.763  0.3264 -0.7493  0.3359
  208SOL    HW1  623   0.574   2.493   1.836  2.2654 -0.1374  1.7072
  208SOL    HW2  624   0.519   2.449   1.681  2.7619 -1.8200  1.6851
  209SOL     OW  625   1.434   2.758   0.454  0.2967 -0.0297 -0.9724
  209SOL    HW1  626   1.455   2.821   0.533 -2.0422 -0.1081  0.3430
  209SOL    HW2  627   1.476   2.801   0.369 -0.3769 -0.0276 -2.0285
  210SOL     OW  628   2.705   0.805   0.979 -0.5498  0.3672 -0.0825
  210SOL    HW1  629   2.762   0.721   0.979 -1.6862  1.7219  1.0665
  210SOL    HW2  630   2.731   0.859   0.896 -1.3011 -1.1804  1.0449
  211SOL     OW  631   0.634   0.269   1.979 -0.5044  0.7593 -0.3049
  211SOL    HW1  632   0.732   0.295   1.981  0.9506  0.0631 -0.3551
  211SOL    HW2  633   0.620   0.198   1.908  1.8351  0.2253 -0.7733
  212SOL     OW  634   1.454   2.596   1.752 -0.3823 -0.7385 -0.4941
  212SOL    HW1  635   1.389   2.573   1.682  1.9018 -0.9321  2.2126
  212SOL    HW2  636   1.476   2.508   1.797  0.3050  2.3590  0.1503
  213SOL     OW  637   2.962   0.554   1.672 -0.1544  0.0146  0.2483
  213SOL    HW1  638   3.029   0.547   1.596 -2.4975 -1.5171  1.0873
  213SOL    HW2  639   2.874   0.511   1.643 -0.9173  1.1983 -1.2697
  214SOL     OW  640   0.706   2.502   1.971 -0.0596 -0.3608 -0.0310
  214SOL    HW1  641   0.804   2.494   1.941  0.0046 -1.9167 -3.0795
  214SOL    HW2  642   0.696   2.533   2.070  2.1714 -0.3597  4.2511
  215SOL     OW  643   2.459   1.597   1.790 -0.0181  0.3350 -0.1790
  215SOL    HW1  644   2.421   1.499   1.792  0.4640 -1.7620  0.4890
  215SOL    HW2  645   2.415   1.660   1.717 -1.3015  1.4040 -1.6221
  216SOL     OW  646   0.487   1.202   2.191 -0.2058  0.3922 -0.3309
  216SOL    HW1  647   0.477   1.269   2.111 -0.8461  1.1464  0.7154
  216SOL    HW2  648   0.585   1.208   2.222  3.0332  3.8555  1.3062
  217SOL     OW  649   2.557   0.140   1.344  0.0072  0.1467 -0.4193
  217SOL    HW1  650   2.491   0.091   1.405  0.0458 -0.5162 -2.2976
  217SOL    HW2  651   2.572   0.085   1.257 -1.6339 -1.8135 -2.3840
  218SOL     OW  652   1.448   2.146   1.097 -0.1572  0.5068  0.3500
  218SOL    HW1  653   1.484   2.051   1.073  1.2199 -3.3172 -2.4939
  218SOL    HW2  654   1.374   2.164   1.035 -1.0224 -0.6808  0.4947
  219SOL     OW  655   1.801   2.734   0.452 -0.1433  0.2055 -0.2299
  219SOL    HW1  656   1.829   2.730   0.548  0.2280  0.1638 -0.8115
  219SOL    HW2  657   1.729   2.666   0.429 -0.7743 -3.6262 -2.4202
  220SOL     OW  658   1.580   2.456   0.141  0.1322 -0.1930  0.6207
  220SOL    HW1  659   1.524   2.431   0.056 -0.9411 -0.0440 -3.5546
  220SOL    HW2  660   1.669   2.502   0.112 -1.0303  0.0959 -0.0113
  221SOL     OW  661   2.645   1.674   0.505 -0.4807 -0.5860  0.0761
  221SOL    HW1  662   2.719   1.673   0.574  0.1084  1.9887 -2.0862
  221SOL    HW2  663   2.564   1.615   0.526  1.3774  0.6301  0.3806
  222SOL     OW  664   0.866   2.393   0.945 -0.0186  0.1049 -0.3569
  222SOL    HW1  665   0.797   2.468   0.948  0.5216  0.3576  0.6384
  222SOL    HW2  666   0.931   2.402   1.019 -2.8575  1.6131 -1.9812
  223SOL     OW  667   1.027   2.806   0.112  0.6826  0.3903 -0.1792
  223SOL    HW1  668   0.968   2.827   0.035 -0.3081 -1.5378  1.0340
  223SOL    HW2  669   1.050   2.708   0.104 -0.8297  2.8629  0.9181
  224SOL     OW  670   2.812   1.068   1.106 -0.2847 -0.2126  0.5670
  224SOL    HW1  671   2.729   1.102   1.061 -0.6972 -3.7488  0.1021
  224SOL    HW2  672   2.825   1.104   1.199  0.2516 -1.3244 -1.1644
  225SOL     OW  673   2.908   1.753   0.901 -0.2004 -0.3524  0.6834
  225SOL    HW1  674   2.901   1.850   0.871  1.4400  2.2671 -0.1332
  225SOL    HW2  675   2.985   1.734   0.968  1.5443  0.2231 -0.1774
  226SOL     OW  676   0.851   2.959   1.017 -0.3934  0.1293  0.0576
  226SOL    HW1  677   0.826   2.898   1.093  1.0985  0.1708 -1.1169
  226SOL    HW2  678   0.793   3.039   1.026 -1.0824 -1.0470  0.0530
  227SOL     OW  679   0.957   1.633   1.342 -0.3301  0.3998  0.2380
  227SOL    HW1  680   0.984   1.564   1.273 -1.5242  0.1327  0.5990
  227SOL    HW2  681   0.890   1.591   1.401  2.6547  0.9898 -2.1441
  228SOL     OW  682   1.140   0.229   2.122 -0.3260 -0.1715 -0.3219
  228SOL    HW1  683   1.131   0.134   2.100 -0.0860  3.8605  1.7222
  228SOL    HW2  684   1.141   0.250   2.222  0.0965 -0.2537  1.4835
  229SOL     OW  685   2.959   0.820   2.304  0.3785 -0.7195  0.0104
  229SOL    HW1  686   2.983   0.723   2.318  1.6648  1.6470  1.1397
  229SOL    HW2  687   3.009   0.863   2.222 -0.3240  2.7045 -3.1234
  230SOL     OW  688   3.020   0.963   0.966  0.5230 -0.1635 -0.2524
  230SOL    HW1  689   0.001   0.929   1.043  1.0004  0.1888  1.0378
  230SOL    HW2  690   2.931   0.996   1.007 -2.5006  0.5804  1.3279
  231SOL     OW  691   1.454   3.047   2.547  0.1325  0.0439 -0.1397
  231SOL    HW1  692   1.425   2.952   2.542  0.2668  1.5799 -0.6263
  231SOL    HW2  693   1.415   0.020   2.627  2.0538  1.1794  3.0358
  232SOL     OW  694   0.096   1.474   0.053  0.1793  0.3457  0.2824
  232SOL    HW1  695   0.138   1.569   0.065 -0.3768 -2.9390  0.9570
  232SOL    HW2  696   0.165   1.402   0.070  2.0314  2.5180 -0.4094
  233SOL     OW  697   1.144   2.334   2.921 -0.4829  0.8118 -0.1030
  233SOL    HW1  698   1.185   2.337   2.830 -2.7626 -1.5336  1.0376
  233SOL    HW2  699   1.057   2.384   2.913  1.2896 -0.2408  1.6074
  234SOL     OW  700   0.786   1.417   1.852  0.1070 -0.2242  0.0519
  234SOL    HW1  701   0.803   1.318   1.856 -0.3848  2.0559  1.4715
  234SOL    HW2  702   0.835   1.472   1.923  0.5700  1.3817  2.2109
  235SOL     OW  703   0.496   2.342   2.043  0.1025  0.1148 -0.0508
  235SOL    HW1  704   0.454   2.355   1.950  1.3254 -0.2453 -1.4336
  235SOL    HW2  705   0.582   2.386   2.027 -0.5696 -1.8766 -0.1755
  236SOL     OW  706   1.720   2.006   2.817 -0.2935  0.9379  0.3383
  236SOL    HW1  707   1.692   1.934   2.881  0.7283  3.8767 -0.1665
  236SOL    HW2  708   1.681   2.097   2.851 -0.1568 -0.2932 -0.3832
  237SOL     OW  709   1.524   0.698   0.358  0.5632 -0.2975  0.7460
  237SOL    HW1  710   1.615   0.708   0.398 -2.5777 -2.0631 -0.1262
  237SOL    HW2  711   1.514   0.746   0.267 -0.1857  0.9519 -1.8301
  238SOL     OW  712   0.914   2.693   2.176 -0.6920  0.2103 -0.7741
  238SOL    HW1  713   0.992   2.632   2.145  1.6690 -2.4794 -0.8345
  238SOL    HW2  714   0.829   2.640   2.201 -0.0329 -0.1820  0.8467
  239SOL     OW  715   1.149   2.598   2.060 -0.2879  0.5756  0.0510
  239SOL    HW1  716   1.129   2.569   1.963  1.0069 -0.0540 -1.1308
  239SOL    HW2  717   1.221   2.669   2.077  0.6637 -3.4379 -1.2968
  240SOL     OW  718   1.911   2.909   0.756  0.0482  0.1759  0.6586
  240SOL    HW1  719   1.899   2.809   0.772  0.2161  1.1962 -1.2998
  240SOL    HW2  720   1.950   2.955   0.838 -0.5369 -1.4909  0.7227
  241SOL     OW  721   1.396   1.498   1.973 -0.2670  0.4615 -0.1578
  241SOL    HW1  722   1.329   1.425   1.945  1.3287 -2.3174  0.9581
  241SOL    HW2  723   1.398   1.508   2.076 -1.5536  1.5946  0.1784
  242SOL     OW  724   2.554   0.758   3.000  0.3660  0.2304 -0.2786
  242SOL    HW1  725   2.577   0.806   0.008  0.9359  0.2655 -1.7010
  242SOL    HW2  726   2.522   0.822   2.927 -0.0719  1.8341 -2.7430
  243SOL     OW  727   0.755   1.009   1.284  0.1290  0.1113  0.7202
  243SOL    HW1  728   0.807   1.003   1.192 -0.7656  1.8270 -1.0446
  243SOL    HW2  729   0.801   0.949   1.356  0.8214 -2.1820 -0.7459
  244SOL     OW  730   1.378   0.074   2.801 -0.6371 -0.0185 -0.1520
  244SOL    HW1  731   1.333   0.161   2.839  2.4308 -0.1482 -2.1622
  244SOL    HW2  732   1.473   0.108   2.780 -1.8540 -0.6683  0.8416
  245SOL     OW  733   2.095   0.082   2.935  0.6916 -0.2716  0.2554
  245SOL    HW1  734   2.049   0.011   2.994  0.1156 -2.2635 -0.1893
  245SOL    HW2  735   2.181   0.050   2.908 -4.1239  1.4451 -1.9591
  246SOL     OW  736   0.850   0.899   1.499 -0.5706 -1.1294  0.5960
  246SOL    HW1  737   0.948   0.877   1.501 -4.1389 -0.9072 -1.7970
  246SOL    HW2  738   0.795   0.816   1.525 -1.6597 -0.1124  1.4023
  247SOL     OW  739   0.276   0.420   1.824 -0.2275  0.1823 -0.5350
  247SOL    HW1  740   0.304   0.335   1.874 -1.1997  1.4218  0.5100
  247SOL    HW2  741   0.351   0.444   1.767  0.0798 -3.1170  0.2500
  248SOL     OW  742   2.934   1.929   2.025  0.1415 -0.6716 -0.3467
  248SOL    HW1  743   3.007   1.857   2.012  0.6661  1.2450 -0.9611
  248SOL    HW2  744   2.899   1.940   2.119 -1.3590  1.0966 -0.2231
  249SOL     OW  745   2.959   0.262   3.052  0.5901 -0.0729 -0.1233
  249SOL    HW1  746   3.060   0.254   3.059  1.5057 -0.1760 -1.3192
  249SOL    HW2  747   2.921   0.169   3.042  0.7498  1.6086  0.1380
  250SOL     OW  748   2.877   0.033   0.274  0.0654  0.1567 -0.2999
  250SOL    HW1  749   2.836   0.029   0.185 -0.7274  3.3384 -1.1667
  250SOL    HW2  750   2.977   0.022   0.259 -0.9627 -0.6589  0.6016
  251SOL     OW  751   0.750   1.510   1.452  0.9091 -0.4476 -0.5958
  251SOL    HW1  752   0.681   1.573   1.418 -2.2297  2.8182 -1.0687
  251SOL    HW2  753   0.761   1.425   1.400  0.8583 -2.8754  0.5289
  252SOL     OW  754   1.770   2.612   1.419  0.6178 -0.2152 -0.2801
  252SOL    HW1  755   1.861   2.633   1.460 -1.5820  1.3971 -0.2998
  252SOL    HW2  756   1.729   2.683   1.355 -0.8789 -0.6426  1.3810
  253SOL     OW  757   2.322   1.862   2.522  0.0936 -0.3686 -0.0458
  253SOL    HW1  758   2.363   1.952   2.495 -0.5634 -1.7727 -1.7096
  253SOL    HW2  759   2.340   1.806   2.438  0.1556 -0.8647 -0.0708
  254SOL     OW  760   0.796   2.136   2.022  0.0953  0.4720 -0.3214
  254SOL    HW1  761   0.791   2.038   2.050 -1.5196 -0.5864  2.2170
  254SOL    HW2  762   0.732   2.150   1.944 -0.1045 -0.8408  0.5231
  255SOL     OW  763   1.019   0.271   1.479  0.4653 -0.0586 -0.3272
  255SOL    HW1  764   1.118   0.288   1.503  0.6895 -0.8461  1.1937
  255SOL    HW2  765   0.999   0.175   1.448  0.1550  2.6139 -0.0618
  256SOL     OW  766   2.170   2.089   1.305  0.1800 -0.3818 -0.5300
  256SOL    HW1  767   2.076   2.064   1.276 -0.3590 -2.6273  0.6511
  256SOL    HW2  768   2.238   2.049   1.241  0.9776 -1.0351 -1.7722
  257SOL     OW  769   0.536   2.144   2.891 -0.0722  0.7647  0.0242
  257SOL    HW1  770   0.627   2.174   2.850 -1.0992  2.4074 -0.6768
  257SOL    HW2  771   0.517   2.205   2.972 -1.1255  0.6037 -0.4209
  258SOL     OW  772   0.420   1.469   2.870 -0.2871 -0.0975  0.1263
  258SOL    HW1  773   0.472   1.431   2.788 -1.0878 -1.5018  1.8040
  258SOL    HW2  774   0.429   1.420   2.959 -0.5763  1.5249  2.0764
  259SOL     OW  775   0.856   1.419   2.681  0.5151  0.2361  0.0903
  259SOL    HW1  776   0.937   1.357   2.657  1.1732  0.4004  2.0500
  259SOL    HW2  777   0.839   1.487   2.611  0.7546 -0.6244  1.1943
  260SOL     OW  778   1.906   0.804   1.466 -0.3887 -0.5331  0.4050
  260SOL    HW1  779   1.878   0.756   1.549  1.7530 -1.4083 -1.8989
  260SOL    HW2  780   1.826   0.843   1.425  1.5302  1.3705  2.4755
  261SOL     OW  781   1.182   0.202   1.022 -0.3308  0.2325  0.9630
  261SOL    HW1  782   1.109   0.258   0.982 -0.3199 -0.3439  1.5154
  261SOL    HW2  783   1.225   0.254   1.096 -2.5140 -2.2550  1.4296
  262SOL     OW  784   2.063   2.067   2.511  0.4078 -0.1485 -0.1053
  262SOL    HW1  785   1.987   2.106   2.454  0.8576  1.7362  0.2867
  262SOL    HW2  786   2.121   2.004   2.456 -1.6755  0.2157  0.2437
  263SOL     OW  787   2.941   1.543   3.017 -0.1131 -0.6428  0.0576
  263SOL    HW1  788   2.954   1.544   2.913 -0.7461  0.8889  0.9478
  263SOL    HW2  789   3.031   1.521   3.064  1.5450  1.4110 -1.5210
  264SOL     OW  790   0.263   1.857   0.919 -0.3875 -0.2696 -0.2461
  264SOL    HW1  791   0.358   1.848   0.956  0.0142 -2.0585 -1.5297
  264SOL    HW2  792   0.263   1.811   0.829  1.1936  2.3188  1.1295
  265SOL     OW  793   0.661   1.000   0.812  0.9757 -0.5908 -0.4320
  265SOL    HW1  794   0.637   0.990   0.714  2.8083  2.8855 -0.6700
  265SOL    HW2  795   0.602   1.066   0.859 -1.7678 -2.7264 -3.2338
  266SOL     OW  796   1.374   1.605   0.039  0.3906  0.0396 -0.1448
  266SOL    HW1  797   1.411   1.572   3.029  1.4105  1.1588  0.5306
  266SOL    HW2  798   1.318   1.689   0.033 -2.1213 -2.2382  1.1062
  267SOL     OW  799   0.751   1.167   2.277  0.1944 -0.7384 -0.6362
  267SOL    HW1  800   0.847   1.140   2.253 -1.2727 -1.1196 -0.0608
  267SOL    HW2  801   0.702   1.095   2.326  2.2197  1.1849 -1.5359
  268SOL     OW  802   0.645   0.757   3.041  0.0876  0.0202 -0.1349
  268SOL    HW1  803   0.727   0.797   3.004  0.1901  0.2884 -2.4578
  268SOL    HW2  804   0.565   0.824   3.029  0.6514  0.0693  0.7880
  269SOL     OW  805   1.926   2.917   2.601  0.4436  0.3633 -0.5480
  269SOL    HW1  806   1.927   2.934   2.503  1.7773  1.4548  1.8592
  269SOL    HW2  807   1.840   2.944   2.645  1.0979 -0.9728 -0.4418
  270SOL     OW  808   1.072   1.257   2.602  0.9528  0.1248 -0.2632
  270SOL    HW1  809   1.174   1.251   2.586  1.1984  0.5089  1.4755
  270SOL    HW2  810   1.035   1.163   2.626 -0.3884 -2.4569 -0.3016
  271SOL     OW  811   0.136   0.270   0.036  0.0525 -0.6091  0.1466
  271SOL    HW1  812   0.131   0.344   0.109 -0.1024 -0.0367 -0.9373
  271SOL    HW2  813   0.222   0.278   3.061  1.8385  0.1952  0.9169
  272SOL     OW  814   2.411   0.915   2.847  0.4247 -0.2717 -0.4323
  272SOL    HW1  815   2.400   0.996   2.909 -0.0293 -2.1165  2.5268
  272SOL    HW2  816   2.481   0.928   2.780 -2.4651  0.8530 -0.9509
  273SOL     OW  817   0.141   0.182   2.067 -0.2914  0.2025  0.7873
  273SOL    HW1  818   0.060   0.163   2.005 -1.2294 -0.8264  0.1719
  273SOL    HW2  819   0.120   0.264   2.127  1.0685  0.7187 -0.0968
  274SOL     OW  820   0.065   0.467   2.052 -0.5077  0.1235  0.1413
  274SOL    HW1  821   0.115   0.414   1.978  1.5497  1.4981  0.5556
  274SOL    HW2  822   0.024   0.555   2.010 -1.4681  2.1874 -0.9475
  275SOL     OW  823   1.550   1.688   0.639 -0.2885  0.2992 -0.3428
  275SOL    HW1  824   1.558   1.619   0.563  2.4113  0.9149  1.3786
  275SOL    HW2  825   1.508   1.768   0.596  1.7915  1.3005  1.6589
  276SOL     OW  826   0.722   1.436   2.280  0.2740 -0.1698 -0.2308
  276SOL    HW1  827   0.770   1.349   2.270 -0.2889  3.1617  2.1464
  276SOL    HW2  828   0.634   1.425   2.326  2.3737 -1.1800 -1.7134
  277SOL     OW  829   1.928   2.669   2.487 -0.1003 -0.0597 -1.0866
  277SOL    HW1  830   1.902   2.706   2.398 -0.5161 -1.5463  0.7449
  277SOL    HW2  831   1.943   2.746   2.553 -2.1348  0.8640 -1.3017
  278SOL     OW  832   2.101   2.985   1.766 -0.1379 -0.1852 -0.0742
  278SOL    HW1  833   2.008   2.953   1.732 -0.4227 -1.4912 -2.3465
  278SOL    HW2  834   2.097   3.024   1.861 -0.4608 -1.0060  0.8760
  279SOL     OW  835   1.587   1.330   2.975  0.3255 -0.0028 -0.6476
  279SOL    HW1  836   1.527   1.397   2.930  0.1590 -1.4369 -0.6648
  279SOL    HW2  837   1.579   1.329   3.077 -0.8030  0.7764 -0.1350
  280SOL     OW  838   0.889   0.950   0.003  0.4613 -0.2824  0.0724
  280SOL    HW1  839   0.891   1.007   3.002  1.7627 -3.4961 -1.4714
  280SOL    HW2  840   0.980   0.916   0.040 -1.6046 -0.6786 -0.0607
  281SOL     OW  841   0.034   0.000   1.145  0.1522  0.3766 -0.4690
  281SOL    HW1  842   0.111   3.045   1.198 -2.5660  0.7206 -0.3651
  281SOL    HW2  843   3.077   0.079   1.200  0.6776 -0.5452  1.5729
  282SOL     OW  844   2.845   1.998   0.809  0.1956  0.5032  0.0524
  282SOL    HW1  845   2.923   2.062   0.806  0.9017 -0.4644  1.9951
  282SOL    HW2  846   2.815   1.978   0.718  1.0980 -1.3094 -0.2874
  283SOL     OW  847   1.404   1.911   1.969  0.3357 -0.4992  0.3849
  283SOL    HW1  848   1.461   1.877   2.045 -1.0983 -1.9268  0.4995
  283SOL    HW2  849   1.310   1.934   2.007 -3.1937  0.9183 -2.2555
  284SOL     OW  850   1.960   3.048   0.243  0.2004 -0.0702  0.8128
  284SOL    HW1  851   2.056   3.071   0.278 -0.1966  2.8523 -0.3053
  284SOL    HW2  852   1.962   3.018   0.143 -1.5510 -1.8702 -2.9961
  285SOL     OW  853   3.008   2.715   2.445  0.5067 -0.4546  0.4161
  285SOL    HW1  854   0.017   2.731   2.491 -1.1646 -0.5420 -2.5679
  285SOL    HW2  855   2.934   2.716   2.514  0.9015  0.0809  0.8098
  286SOL     OW  856   2.084   2.529   1.309  0.0217 -0.4719 -0.2588
  286SOL    HW1  857   2.082   2.607   1.372  2.0771 -0.1509  0.9284
  286SOL    HW2  858   2.098   2.450   1.370  0.9145  0.8373 -0.5897
  287SOL     OW  859   0.344   1.518   0.664 -0.2586  0.1878 -0.2363
  287SOL    HW1  860   0.310   1.475   0.747  1.4902  1.4403 -1.3630
  287SOL    HW2  861   0.430   1.570   0.687 -2.4065  2.2605 -0.7415
  288SOL     OW  862   1.985   1.926   2.740  0.1227 -0.0951 -0.5155
  288SOL    HW1  863   1.900   1.971   2.762 -1.6848  0.7727 -0.3479
  288SOL    HW2  864   2.032   1.984   2.669 -0.1216  0.8893  2.5745
  289SOL     OW  865   0.402   1.698   2.468  0.0192  0.4511 -0.6973
  289SOL    HW1  866   0.460   1.766   2.416  1.8766 -0.0936 -2.6665
  289SOL    HW2  867   0.424   1.703   2.567  1.2034 -1.4127 -0.8627
  290SOL     OW  868   1.228   2.162   1.269  0.3967 -0.2645 -1.0520
  290SOL    HW1  869   1.309   2.202   1.218 -0.3969  0.8242  1.0165
  290SOL    HW2  870   1.165   2.108   1.213  0.4699  2.0377  1.8180
  291SOL     OW  871   1.810   1.146   3.003 -0.2951 -0.1264  0.6748
  291SOL    HW1  872   1.877   1.145   2.926  1.8108  1.0666 -0.6495
  291SOL    HW2  873   1.745   1.223   2.991  1.9347 -0.3830 -1.1819
  292SOL     OW  874   0.856   1.384   0.709  0.0225 -0.0983 -0.2794
  292SOL    HW1  875   0.773   1.352   0.657 -2.0484  0.1345 -0.0454
  292SOL    HW2  876   0.883   1.324   0.788  0.8354  1.0188  2.1735
  293SOL     OW  877   1.513   2.839   1.332 -0.2745  0.5696 -0.4036
  293SOL    HW1  878   1.608   2.841   1.303 -2.1926  0.6953 -1.7682
  293SOL    HW2  879   1.462   2.882   1.252  0.8799 -1.7937 -1.5440
  294SOL     OW  880   2.795   1.038   2.953 -0.2289 -0.3950  0.8966
  294SOL    HW1  881   2.723   1.013   2.884  1.6078  1.2585  0.4643
  294SOL    HW2  882   2.887   1.017   2.911 -2.6416 -1.8075 -0.6617
  295SOL     OW  883   1.592   2.129   2.595  0.6496 -0.1182 -0.5380
  295SOL    HW1  884   1.647   2.096   2.674  0.3523 -0.5141  1.5989
  295SOL    HW2  885   1.652   2.138   2.511  2.4521  1.5561  0.4671
  296SOL     OW  886   1.737   0.789   2.154 -0.1336  0.1873  0.3265
  296SOL    HW1  887   1.717   0.870   2.092 -0.8661  2.3472 -1.7366
  296SOL    HW2  888   1.805   0.824   2.226  1.1158  1.8802 -0.7970
  297SOL     OW  889   0.019   0.896   2.081 -0.0007  0.1003 -0.2265
  297SOL    HW1  890   0.006   0.819   2.013 -0.2771 -0.2261  0.8081
  297SOL    HW2  891   0.092   0.954   2.039  0.2516 -1.3580  1.5839
  298SOL     OW  892   1.406   2.175   2.125  0.1122  0.2528 -0.6357
  298SOL    HW1  893   1.360   2.181   2.037  2.0049  1.0153 -1.0801
  298SOL    HW2  894   1.347   2.143   2.199 -1.2225  0.7459 -1.1696
  299SOL     OW  895   0.725   2.590   2.666 -0.5210  0.1402 -0.0470
  299SOL    HW1  896   0.742   2.651   2.747  0.0615  0.8494  1.7575
  299SOL    HW2  897   0.674   2.641   2.593 -0.2122  1.2877 -2.0546
  300SOL     OW  898   3.048   0.962   2.835  0.6584 -0.5126  0.1776
  300SOL    HW1  899   3.037   0.867   2.865 -0.2857  0.6059 -0.5664
  300SOL    HW2  900   3.046   0.976   2.733 -3.2275 -1.1597 -0.3986
  301SOL     OW  901   1.520   1.014   1.567 -0.8287 -0.2242  0.8875
  301SOL    HW1  902   1.501   1.006   1.668  1.9607 -0.0609 -1.4382
  301SOL    HW2  903   1.595   1.081   1.549  0.3041  2.1976  1.1492
  302SOL     OW  904   2.675   2.004   2.480  0.9117 -0.3901  0.2694
  302SOL    HW1  905   2.659   1.949   2.567 -0.8426 -0.1395 -1.0712
  302SOL    HW2  906   2.580   2.033   2.446 -1.8501  0.6516 -0.0480
  303SOL     OW  907   0.454   3.046   2.330 -0.1035  0.0135 -0.2619
  303SOL    HW1  908   0.450   3.004   2.425 -1.1586  1.3449  1.5283
  303SOL    HW2  909   0.397   0.051   2.333  1.1702  1.4379  0.2875
  304SOL     OW  910   0.139   1.068   1.509  0.5464  0.2535 -0.2112
  304SOL    HW1  911   0.128   1.170   1.519 -1.6232  1.1570 -1.4733
  304SOL    HW2  912   0.128   1.032   1.604 -0.4586  0.1284  0.3607
  305SOL     OW  913   3.009   0.192   1.301  0.4675  0.2015 -0.0043
  305SOL    HW1  914   3.024   0.278   1.252 -0.2751 -1.2065 -0.0454
  305SOL    HW2  915   2.939   0.204   1.375  1.1200  0.1546  2.4754
  306SOL     OW  916   2.240   1.300   1.268 -0.1756 -0.0989  0.6651
  306SOL    HW1  917   2.304   1.251   1.329 -2.1160  0.4641  2.2088
  306SOL    HW2  918   2.229   1.397   1.294 -0.9486  0.8322 -0.8116
  307SOL     OW  919   2.078   3.034   0.989  0.1415  0.2559  0.0763
  307SOL    HW1  920   2.134   2.952   0.995 -1.5985  1.0614 -1.6712
  307SOL    HW2  921   2.090   0.012   1.068  0.8239 -2.9912 -1.5079
  308SOL     OW  922   2.549   2.064   1.214 -0.1102 -0.0419  0.2017
  308SOL    HW1  923   2.595   2.130   1.151 -0.9100  0.5833 -1.7262
  308SOL    HW2  924   2.598   1.977   1.210  0.8049  0.0892 -1.0929
  309SOL     OW  925   2.076   1.928   1.730 -0.5364  0.0213 -0.1308
  309SOL    HW1  926   2.092   1.847   1.670  1.6147  0.6968 -2.7620
  309SOL    HW2  927   1.987   1.914   1.783 -1.5409 -2.1107  2.5971
  310SOL     OW  928   2.359   1.451   2.784  0.2760 -0.4739  0.3191
  310SOL    HW1  929   2.404   1.428   2.874 -6.2220  1.4116  0.4415
  310SOL    HW2  930   2.262   1.436   2.804  3.2993  0.1799  0.1662
  311SOL     OW  931   1.971   1.089   2.794  1.0997  0.0151 -0.4066
  311SOL    HW1  932   1.936   1.124   2.709 -0.2373 -1.4567  2.5177
  311SOL    HW2  933   2.022   1.003   2.778 -1.6806  0.0271 -1.8185
  312SOL     OW  934   1.631   2.243   2.215  0.6840 -0.3986 -0.1225
  312SOL    HW1  935   1.603   2.339   2.242 -0.5832  1.3736 -0.2594
  312SOL    HW2  936   1.548   2.202   2.168 -0.1706 -0.8659  1.6206
  313SOL     OW  937   0.430   2.931   1.119 -0.5533 -0.2139  0.2630
  313SOL    HW1  938   0.372   2.890   1.043  0.1515  2.4305  0.3380
  313SOL    HW2  939   0.459   2.861   1.186 -1.4056 -0.9551  0.6726
  314SOL     OW  940   0.594   1.684   1.286 -0.0735 -0.1306  0.0509
  314SOL    HW1  941   0.511   1.672   1.347 -1.4391  0.9722 -1.5982
  314SOL    HW2  942   0.575   1.648   1.191 -1.6111  0.3339 -0.4611
  315SOL     OW  943   0.683   2.551   2.229  0.0625  0.0759  0.0809
  315SOL    HW1  944   0.640   2.496   2.302 -1.5666  0.3140 -2.3017
  315SOL    HW2  945   0.632   2.640   2.226  2.9046  1.3661 -1.0916
  316SOL     OW  946   0.053   2.283   0.874 -0.2992 -0.2304  0.0433
  316SOL    HW1  947   3.046   2.326   0.907 -0.2580  0.3867 -2.7890
  316SOL    HW2  948   0.099   2.216   0.934  0.3730  0.7120  0.9083
  317SOL     OW  949   1.969   0.559   0.394 -0.3982  0.3446  0.3566
  317SOL    HW1  950   1.912   0.510   0.329  2.1985  2.6820  0.5271
  317SOL    HW2  951   2.040   0.494   0.436  0.3702 -2.3620 -0.2793
  318SOL     OW  952   2.805   2.760   3.029  0.2289  0.6600 -0.1543
  318SOL    HW1  953   2.735   2.779   0.023 -2.6492 -0.2835 -1.1215
  318SOL    HW2  954   2.866   2.684   3.060 -0.7710 -1.5730 -0.3084
  319SOL     OW  955   1.510   1.738   0.275 -0.1488 -0.0388  0.3874
  319SOL    HW1  956   1.505   1.805   0.351  1.5601 -0.1050  1.8132
  319SOL    HW2  957   1.457   1.764   0.192 -2.3578 -1.3726 -0.8092
  320SOL     OW  958   0.745   2.242   2.592  0.5886  0.6396 -0.5686
  320SOL    HW1  959   0.746   2.164   2.525 -1.6906 -1.8292  1.7614
  320SOL    HW2  960   0.759   2.208   2.688  1.3054 -0.1847 -3.2391
  321SOL     OW  961   1.122   2.555   0.155 -1.0258  0.1555 -0.4978
  321SOL    HW1  962   1.114   2.454   0.174  2.0324  0.8763  1.1017
  321SOL    HW2  963   1.165   2.600   0.235 -0.6692 -1.9795 -1.2211
  322SOL     OW  964   2.145   0.430   2.110 -0.5167  1.0482 -0.0818
  322SOL    HW1  965   2.129   0.340   2.162 -1.1733 -2.6368  0.2064
  322SOL    HW2  966   2.244   0.446   2.089  3.6537 -2.5253 -0.0565
  323SOL     OW  967   2.703   1.052   0.697  0.0845  0.3935  0.2175
  323SOL    HW1  968   2.802   1.022   0.712  1.3139 -1.9074  0.3734
  323SOL    HW2  969   2.696   1.116   0.617  0.2026  1.2350  1.2105
  324SOL     OW  970   0.332   0.408   2.276  0.6095 -0.0269 -0.0852
  324SOL    HW1  971   0.245   0.453   2.252 -0.7241  1.1138 -0.2137
  324SOL    HW2  972   0.411   0.449   2.230  1.2775  0.0790  1.9673
  325SOL     OW  973   0.756   2.983   2.420 -0.6369 -0.2867 -0.1453
  325SOL    HW1  974   0.777   3.055   2.357  1.0946 -0.8500  4.1557
  325SOL    HW2  975   0.731   3.027   2.507  1.7494 -0.6350 -1.8355
  326SOL     OW  976   2.586   2.315   0.580  0.3340  0.1721  0.4535
  326SOL    HW1  977   2.549   2.272   0.667  2.3180 -1.4412 -1.7696
  326SOL    HW2  978   2.656   2.389   0.598 -0.8259  0.8484 -0.7815
  327SOL     OW  979   1.819   0.978   0.157  0.2980 -0.5141  0.2746
  327SOL    HW1  980   1.727   0.954   0.189  1.7059 -0.8479 -0.8795
  327SOL    HW2  981   1.808   1.032   0.071 -0.9238 -3.1299 -0.3699
  328SOL     OW  982   0.297   1.929   2.128  0.1793 -0.0179 -0.2025
  328SOL    HW1  983   0.365   1.867   2.175  0.9490 -1.6971 -2.7590
  328SOL    HW2  984   0.210   1.930   2.182 -0.5631  1.4953 -1.1190
  329SOL     OW  985   2.756   2.619   1.602  0.1420  0.6534  0.3401
  329SOL    HW1  986   2.817   2.573   1.532  2.1037 -0.3862 -1.0260
  329SOL    HW2  987   2.656   2.583   1.599 -0.0491 -1.3592  1.5517
  330SOL     OW  988   2.371   1.355   1.803 -0.3207  0.3174 -0.1511
  330SOL    HW1  989   2.314   1.292   1.859 -0.1643  0.1531 -1.4665
  330SOL    HW2  990   2.469   1.332   1.814  1.2973 -2.6472 -1.0723
  331SOL     OW  991   2.700   2.174   0.980  0.4944 -0.1905 -0.0746
  331SOL    HW1  992   2.751   2.091   0.958 -0.4030  1.8375 -0.0312
  331SOL    HW2  993   2.603   2.183   0.939 -2.5754  0.7498 -0.2385
  332SOL     OW  994   0.645   2.514   0.280 -0.1666 -0.1701 -0.5300
  332SOL    HW1  995   0.546   2.544   0.265  1.4001  2.0766 -0.9698
  332SOL    HW2  996   0.692   2.594   0.315 -1.1262 -0.8927 -0.4129
  333SOL     OW  997   2.192   0.214   2.272  0.2634 -0.0083 -0.0350
  333SOL    HW1  998   2.185   0.227   2.374 -1.6315 -0.3085  0.8733
  333SOL    HW2  999   2.165   0.118   2.252  3.7670  0.6994  0.1352
  334SOL     OW 1000   0.851   0.837   0.412  0.1328  0.5250  0.0801
  334SOL    HW1 1001   0.883   0.877   0.498 -0.6126 -1.0692 -0.6376
  334SOL    HW2 1002   0.756   0.854   0.393  4.6577 -2.2296 -1.8556
  335SOL     OW 1003   0.298   2.693   2.273  0.0395 -0.8655 -0.3680
  335SOL    HW1 1004   0.289   2.781   2.220  0.2062  0.6803 -1.3049
  335SOL    HW2 1005   0.253   2.619   2.221 -0.1251  0.3647  3.5948
  336SOL     OW 1006   2.744   2.890   2.365  0.2878 -0.1098  0.1312
  336SOL    HW1 1007   2.712   2.842   2.279  0.9167 -0.7268 -3.0206
  336SOL    HW2 1008   2.716   2.830   2.445  1.2951 -3.1573  1.6926
  337SOL     OW 1009   1.218   1.597   0.859  0.0377 -0.3752 -0.6947
  337SOL    HW1 1010   1.253   1.665   0.926 -0.2706  0.6535 -1.0506
  337SOL    HW2 1011   1.295   1.556   0.808  1.3834  1.1559 -0.3163
  338SOL     OW 1012   0.915   1.809   0.891  0.0005  1.0119  0.3295
  338SOL    HW1 1013   0.934   1.708   0.899 -0.0751  1.4983 -0.0864
  338SOL    HW2 1014   0.816   1.835   0.889  0.0821  2.9222 -1.4625
  339SOL     OW 1015   0.060   1.350   1.573 -0.6990 -0.1542 -0.0079
  339SOL    HW1 1016   0.014   1.436   1.544 -0.0565 -1.8450  0.4420
  339SOL    HW2 1017   0.028   1.330   1.670 -1.2752 -1.8358  0.4961
  340SOL     OW 1018   1.685   2.737   2.316  0.0575  0.2688  0.3688
  340SOL    HW1 1019   1.696   2.678   2.229  1.3654 -1.8598 -1.4314
  340SOL    HW2 1020   1.586   2.751   2.338  0.3126  2.3119 -2.8909
  341SOL     OW 1021   1.698   1.392   0.892 -0.0891  0.5832 -0.2320
  341SOL    HW1 1022   1.719   1.396   0.994  1.9106 -2.8414  0.4413
  341SOL    HW2 1023   1.603   1.412   0.867 -0.6379 -1.6069  0.9135
  342SOL     OW 1024   2.908   1.378   0.738  0.3147 -0.0459  0.1658
  342SOL    HW1 1025   2.915   1.332   0.649  0.8364  1.4665  1.3987
  342SOL    HW2 1026   2.845   1.330   0.802 -1.6456 -3.1393 -0.6770
  343SOL     OW 1027   2.837   1.127   1.372 -0.1256 -0.2673  0.2356
  343SOL    HW1 1028   2.856   1.173   1.458 -1.0714 -1.2218 -2.4325
  343SOL    HW2 1029   2.863   1.030   1.378 -0.9179  0.2887  0.7394
  344SOL     OW 1030   1.937   0.700   1.065 -0.2998  0.6276 -0.3207
  344SOL    HW1 1031   1.858   0.684   1.131  1.5475  0.4636  2.1793
  344SOL    HW2 1032   1.993   0.782   1.093 -0.3525 -0.0365 -1.9028
  345SOL     OW 1033   0.492   2.953   2.579 -0.0954 -0.5387 -0.3290
  345SOL    HW1 1034   0.510   2.853   2.559 -3.6526  2.8018  1.2814
  345SOL    HW2 1035   0.562   2.991   2.645  0.0687 -0.2872 -2.1527
  346SOL     OW 1036   2.265   1.375   0.157  0.1539 -0.5383 -0.1979
  346SOL    HW1 1037   2.238   1.446   0.227 -0.7381 -0.6230  1.0918
  346SOL    HW2 1038   2.218   1.285   0.176  0.3523  1.0966  1.8169
  347SOL     OW 1039   1.896   2.842   2.004 -0.0380  0.5379  0.4727
  347SOL    HW1 1040   1.863   2.928   2.039  1.1514 -4.6704  2.3092
  347SOL    HW2 1041   1.913   2.843   1.901 -0.1687  1.3579 -0.5113
  348SOL     OW 1042   0.872   1.271   1.305  0.0134  0.2832  0.0457
  348SOL    HW1 1043   0.945   1.267   1.376  0.5866  0.6097 -0.1226
  348SOL    HW2 1044   0.804   1.196   1.323 -0.6251 -0.1841  0.8745
  349SOL     OW 1045   2.508   0.958   1.741  0.1985  0.1972  0.3545
  349SOL    HW1 1046   2.564   0.888   1.690  0.9364 -2.2966 -0.6051
  349SOL    HW2 1047   2.459   1.025   1.678  1.2317 -0.7195 -1.4078
  350SOL     OW 1048   2.395   2.137   0.069 -0.0614  0.0093 -0.4578
  350SOL    HW1 1049   2.318   2.069   0.046  2.4047  5.0566 -1.9956
  350SOL    HW2 1050   2.352   2.224   0.092  1.8446 -0.8813 -1.2486
  351SOL     OW 1051   0.495   0.229   1.509 -0.0583  0.1616 -0.3043
  351SOL    HW1 1052   0.500   0.159   1.583 -0.1991 -1.6508  0.6876
  351SOL    HW2 1053   0.395   0.265   1.504 -2.9339  2.4073  1.0181
  352SOL     OW 1054   1.894   2.442   1.962  0.1565 -0.2973 -0.2094
  352SOL    HW1 1055   1.992   2.426   1.986 -0.3260  4.0395 -1.1697
  352SOL    HW2 1056   1.865   2.375   1.890 -1.4007 -1.6361  1.3630
  353SOL     OW 1057   0.854   1.650   2.208 -0.3039  0.0897  0.1816
  353SOL    HW1 1058   0.806   1.560   2.227 -0.1289 -1.6804 -0.2834
  353SOL    HW2 1059   0.954   1.634   2.226 -2.0308 -0.4660  2.4164
  354SOL     OW 1060   1.195   1.877   0.279  0.3170 -0.0433 -0.5928
  354SOL    HW1 1061   1.207   1.779   0.262 -0.2715  1.8652  0.0156
  354SOL    HW2 1062   1.097   1.896   0.250  0.2553  1.1355  0.4151
  355SOL     OW 1063   1.792   0.106   0.904 -0.0638 -0.1172  0.5889
  355SOL    HW1 1064   1.745   0.085   0.817  5.2210  0.8593  2.1035
  355SOL    HW2 1065   1.815   0.202   0.908 -1.6111 -1.4818  1.5093
  356SOL     OW 1066   2.761   1.294   2.946  0.3918  0.5504  0.2172
  356SOL    HW1 1067   2.799   1.202   2.971 -2.5095  2.1257 -0.9079
  356SOL    HW2 1068   2.753   1.353   3.029  2.9661  0.8144 -0.2011
  357SOL     OW 1069   3.002   3.026   2.041 -0.3480 -0.5538  1.1109
  357SOL    HW1 1070   3.031   0.029   1.987 -2.4839  1.5103  0.7783
  357SOL    HW2 1071   2.947   2.969   1.979  1.4133 -0.6187 -2.8826
  358SOL     OW 1072   0.384   1.309   0.502  0.1333  0.6773  0.7616
  358SOL    HW1 1073   0.335   1.222   0.535  0.0394 -2.1355 -1.8077
  358SOL    HW2 1074   0.368   1.395   0.554 -0.7221 -3.0468 -1.7489
  359SOL     OW 1075   2.605   0.052   2.670 -0.2882 -0.1659  0.1820
  359SOL    HW1 1076   2.581   0.093   2.579  1.9268  0.7365  1.0619
  359SOL    HW2 1077   2.522   0.049   2.730  1.1024  2.0728 -0.9357
  360SOL     OW 1078   1.168   1.001   1.228 -0.4698 -0.1236  0.4088
  360SOL    HW1 1079   1.268   0.995   1.244 -0.5358  3.0863  1.1604
  360SOL    HW2 1080   1.147   0.976   1.129 -0.1438  1.0668 -0.8327
  361SOL     OW 1081   2.326   2.407   1.015  0.3688 -0.3764 -0.0710
  361SOL    HW1 1082   2.388   2.406   1.099  2.0966  1.6599  0.7221
  361SOL    HW2 1083   2.251   2.476   1.015  0.6309 -0.3128  0.1763
  362SOL     OW 1084   1.328   0.376   1.196  0.0603 -0.4654 -0.4309
  362SOL    HW1 1085   1.352   0.379   1.297 -2.7833  0.6342  2.9834
  362SOL    HW2 1086   1.413   0.378   1.143 -0.4202  1.2810  0.2498
  363SOL     OW 1087   2.003   2.236   0.294 -0.9360 -0.0785 -0.2313
  363SOL    HW1 1088   2.063   2.161   0.332  1.4488  0.4635 -1.9826
  363SOL    HW2 1089   1.940   2.286   0.358 -0.4454 -0.3918  1.3907
  364SOL     OW 1090   0.207   0.505   0.979  0.3599  0.2295  0.5390
  364SOL    HW1 1091   0.272   0.426   0.957 -1.1785  1.3780 -1.4679
  364SOL    HW2 1092   0.243   0.544   1.067  0.5575  0.9620  2.3922
  365SOL     OW 1093   0.524   2.830   0.742 -0.2323 -0.0892 -0.3296
  365SOL    HW1 1094   0.455   2.832   0.820 -1.0459  2.1547  2.4494
  365SOL    HW2 1095   0.573   2.919   0.736 -2.3655 -0.4980 -0.6893
  366SOL     OW 1096   2.955   1.290   0.167 -0.0915  0.3555 -0.1849
  366SOL    HW1 1097   3.035   1.232   0.143 -1.0514 -2.2930 -1.0691
  366SOL    HW2 1098   2.956   1.372   0.108 -2.7025  0.5831  1.9998
  367SOL     OW 1099   2.579   2.530   2.395  0.1854 -0.1253  0.0913
  367SOL    HW1 1100   2.486   2.569   2.415  0.5316 -1.7509  0.2991
  367SOL    HW2 1101   2.624   2.586   2.324 -0.0533 -2.2949 -0.8358
  368SOL     OW 1102   2.154   1.686   0.661  0.2026  0.2358  0.5637
  368SOL    HW1 1103   2.090   1.651   0.582 -0.3457  2.5058 -0.4907
  368SOL    HW2 1104   2.230   1.749   0.626  1.8157  1.3745  0.5644
  369SOL     OW 1105   1.556   0.644   3.079  0.1817 -0.4512  0.0801
  369SOL    HW1 1106   1.521   0.551   3.058 -0.4489 -1.3580  0.7523
  369SOL    HW2 1107   1.626   0.641   0.072 -1.0482  0.0659 -0.4662
  370SOL     OW 1108   0.611   0.047   1.049 -0.1924  0.8145  0.2516
  370SOL    HW1 1109   0.604   0.098   1.137 -0.3288 -3.0198 -1.5366
  370SOL    HW2 1110   0.553   3.042   1.051  0.0176 -0.8310  0.1730
  371SOL     OW 1111   2.748   1.479   2.708 -0.4205  0.0945  0.2311
  371SOL    HW1 1112   2.813   1.553   2.710  0.6986  1.9844 -0.5950
  371SOL    HW2 1113   2.737   1.425   2.794 -0.8819  0.6480  1.0042
  372SOL     OW 1114   0.534   0.616   2.461  0.2641 -0.2538 -0.4910
  372SOL    HW1 1115   0.598   0.643   2.537 -0.5971 -0.3832  0.8002
  372SOL    HW2 1116   0.512   0.518   2.458 -0.5486  1.6970 -0.4337
  373SOL     OW 1117   0.547   0.278   0.068 -0.0408 -0.3548 -0.2623
  373SOL    HW1 1118   0.597   0.367   0.055  0.3472 -0.5200  0.4992
  373SOL    HW2 1119   0.609   0.207   0.105 -0.5092 -0.0119 -2.1732
  374SOL     OW 1120   1.299   1.848   3.042 -0.7945  0.0064 -0.0661
  374SOL    HW1 1121   1.218   1.851   2.978  1.4612 -2.1010 -0.4366
  374SOL    HW2 1122   1.338   1.942   3.060  0.3330  2.8505  1.7481
  375SOL     OW 1123   0.727   0.013   1.696  0.1364  0.1073  0.0405
  375SOL    HW1 1124   0.712   0.001   1.598 -3.0379 -0.1160 -0.0845
  375SOL    HW2 1125   0.811   0.060   1.720 -2.5307 -1.4014 -0.4211
  376SOL     OW 1126   0.200   2.760   1.911  0.3670 -0.0728  0.5526
  376SOL    HW1 1127   0.207   2.659   1.938 -1.0928 -3.4277 -0.8127
  376SOL    HW2 1128   0.226   2.820   1.991  3.8206  1.8625  0.4447
  377SOL     OW 1129   2.602   2.325   2.776 -0.1912  0.2799 -0.2743
  377SOL    HW1 1130   2.557   2.393   2.841 -1.7264  1.9111  1.1460
  377SOL    HW2 1131   2.607   2.232   2.816 -1.0129 -3.7943  2.1344
  378SOL     OW 1132   2.424   0.411   0.560  0.4775 -0.5549  0.2061
  378SOL    HW1 1133   2.489   0.448   0.626 -0.8443 -0.3625 -1.9041
  378SOL    HW2 1134   2.465   0.363   0.478 -0.5067 -1.8635  1.2239
  379SOL     OW 1135   1.325   0.665   0.536  0.1507 -0.0570 -0.0121
  379SOL    HW1 1136   1.403   0.659   0.469 -0.2286 -1.7083  0.4793
  379SOL    HW2 1137   1.272   0.755   0.525  1.3975 -1.1900 -1.4599
  380SOL     OW 1138   2.508   2.256   1.634  0.0890  0.1514 -0.6920
  380SOL    HW1 1139   2.610   2.251   1.647  2.5655 -3.1925  0.8472
  380SOL    HW2 1140   2.476   2.177   1.576  0.8760 -0.4017 -0.9247
  381SOL     OW 1141   2.647   1.354   1.895 -0.7607  0.1895  0.3164
  381SOL    HW1 1142   2.651   1.453   1.912  1.1333 -0.3150  2.6674
  381SOL    HW2 1143   2.688   1.301   1.970  2.7215  3.9006  0.2300
  382SOL     OW 1144   2.825   2.338   2.606 -0.1058  0.4294  0.2701
  382SOL    HW1 1145   2.731   2.335   2.651 -1.1743  1.5524  2.5256
  382SOL    HW2 1146   2.833   2.271   2.525  1.3341 -1.8707 -3.2611
  383SOL     OW 1147   1.337   0.907   2.591  0.2771  0.5020  0.1780
  383SOL    HW1 1148   1.305   0.846   2.515 -3.2678 -4.5418  1.8937
  383SOL    HW2 1149   1.411   0.972   2.563 -0.3335  1.5904 -1.2030
  384SOL     OW 1150   1.798   1.928   2.264  0.4961 -0.2066 -0.0157
  384SOL    HW1 1151   1.886   1.895   2.314  1.7009  0.1648  2.2977
  384SOL    HW2 1152   1.812   2.009   2.206  0.4216  0.0502 -0.4147
  385SOL     OW 1153   2.638   2.794   0.151 -0.2047  0.0239 -0.2635
  385SOL    HW1 1154   2.601   2.699   0.171 -0.0919 -0.4123  1.3817
  385SOL    HW2 1155   2.685   2.834   0.232 -1.6941 -1.9276  0.8195
  386SOL     OW 1156   1.775   1.197   0.586  0.3265  0.7652 -0.3855
  386SOL    HW1 1157   1.841   1.140   0.628 -1.8128  1.7071 -0.1357
  386SOL    HW2 1158   1.786   1.294   0.608 -3.8693 -2.9807 -0.9968
  387SOL     OW 1159   2.627   1.793   1.187 -0.1203 -0.2664  0.4194
  387SOL    HW1 1160   2.630   1.788   1.289 -0.0192 -1.2294  0.5047
  387SOL    HW2 1161   2.671   1.715   1.143 -1.4331  0.0286  0.4810
  388SOL     OW 1162   0.538   1.002   1.728  0.3175  0.1236 -0.2463
  388SOL    HW1 1163   0.472   1.072   1.701 -0.2686  0.1482  0.1817
  388SOL    HW2 1164   0.626   1.032   1.694  1.3817 -1.6070  1.6480
  389SOL     OW 1165   2.362   0.848   2.542  0.4290 -0.0279  0.0154
  389SOL    HW1 1166   2.341   0.867   2.639 -2.5182  1.9966 -0.7100
  389SOL    HW2 1167   2.323   0.922   2.478 -0.2212 -0.5217 -1.8470
  390SOL     OW 1168   0.905   1.384   3.010 -0.1912  0.1573  0.2561
  390SOL    HW1 1169   0.990   1.431   2.982 -0.7434 -0.7583  0.7711
  390SOL    HW2 1170   0.893   1.294   2.962  1.0287  0.2887  0.8100
  391SOL     OW 1171   0.934   1.848   0.251 -0.3155 -0.5345  0.7535
  391SOL    HW1 1172   0.888   1.883   0.164  0.3164 -1.8922 -2.3748
  391SOL    HW2 1173   0.884   1.761   0.275  1.3380  0.0318 -1.2313
  392SOL     OW 1174   2.700   2.795   2.124  1.1748  0.2683 -0.3368
  392SOL    HW1 1175   2.800   2.784   2.150  1.0705  0.2652  1.0941
  392SOL    HW2 1176   2.676   2.715   2.066  0.0524 -1.1285  0.1556
  393SOL     OW 1177   1.596   2.188   0.272 -0.2998 -0.1537  0.5778
  393SOL    HW1 1178   1.616   2.282   0.241  2.3262 -0.3776  1.8583
  393SOL    HW2 1179   1.519   2.148   0.219 -0.6166 -1.5478 -2.6482
  394SOL     OW 1180   0.842   0.151   2.295 -0.3763 -0.7862 -0.0297
  394SOL    HW1 1181   0.933   0.195   2.327  3.4388 -1.3792  0.3921
  394SOL    HW2 1182   0.807   0.214   2.222 -0.7805  0.0297  0.1043
  395SOL     OW 1183   0.175   1.871   1.479  0.5730 -0.1972 -0.5252
  395SOL    HW1 1184   0.158   1.905   1.574  0.3243 -1.4463  0.2832
  395SOL    HW2 1185   0.199   1.955   1.421 -1.6796 -2.4862  0.6516
  396SOL     OW 1186   2.128   1.295   2.840  0.3532 -0.3273  0.4926
  396SOL    HW1 1187   2.079   1.208   2.822  1.7153  1.0755  1.6457
  396SOL    HW2 1188   2.061   1.378   2.835 -0.0713  3.8583 -0.6094
  397SOL     OW 1189   0.108   0.454   0.229 -0.2811 -0.1508  0.4265
  397SOL    HW1 1190   0.202   0.482   0.266  1.7579  3.8308 -2.5460
  397SOL    HW2 1191   0.036   0.456   0.302  0.2961  1.7367  1.8788
  398SOL     OW 1192   0.962   2.464   0.440 -0.4443  0.0264  0.5710
  398SOL    HW1 1193   1.024   2.419   0.370  2.2091  0.0568 -5.5911
  398SOL    HW2 1194   0.916   2.538   0.390  0.4176 -1.1592  1.3577
  399SOL     OW 1195   1.901   2.389   2.745  0.0682 -0.1111  0.5325
  399SOL    HW1 1196   1.886   2.486   2.778  0.2914  1.6092  1.5813
  399SOL    HW2 1197   1.925   2.391   2.645 -1.4847 -0.9236 -0.6076
  400SOL     OW 1198   3.016   1.616   1.573 -0.7009 -0.7511  0.4721
  400SOL    HW1 1199   2.920   1.622   1.605  1.5073 -1.4078 -1.6147
  400SOL    HW2 1200   3.025   1.657   1.481  1.0068 -0.5024 -2.0357
  401SOL     OW 1201   1.189   0.574   0.744 -0.0172 -0.4627  0.3708
  401SOL    HW1 1202   1.116   0.513   0.704  1.5248 -2.1247  1.3736
  401SOL    HW2 1203   1.254   0.607   0.674 -0.6747  0.2987  4.1921
  402SOL     OW 1204   0.715   3.069   2.686  0.1336  0.3868 -0.4632
  402SOL    HW1 1205   0.808   3.036   2.707  1.2776 -2.6534  1.3298
  402SOL    HW2 1206   0.709   0.087   2.712 -1.9832 -0.3356 -2.6464
  403SOL     OW 1207   2.747   1.586   1.758  0.6028  0.4153 -0.1321
  403SOL    HW1 1208   2.648   1.581   1.733  1.9344 -0.0682 -0.8210
  403SOL    HW2 1209   2.762   1.683   1.782 -2.0553  2.0184 -2.2505
  404SOL     OW 1210   2.403   2.090   1.464 -0.0705 -0.0072  0.0572
  404SOL    HW1 1211   2.309   2.104   1.422 -0.3697 -1.5300  0.9678
  404SOL    HW2 1212   2.460   2.078   1.384  1.3435  1.7445  0.0460
  405SOL     OW 1213   2.205   0.349   2.530  0.4685  0.1217 -0.3573
  405SOL    HW1 1214   2.117   0.300   2.540  0.2119  0.0118  0.8835
  405SOL    HW2 1215   2.214   0.435   2.583 -0.7024 -2.2604 -2.4179
  406SOL     OW 1216   1.160   1.444   2.936 -0.1966 -0.0734 -0.0590
  406SOL    HW1 1217   1.221   1.481   3.004 -0.5575  0.7959 -1.9235
  406SOL    HW2 1218   1.182   1.485   2.841  0.3662  3.0540 -1.4091
  407SOL     OW 1219   1.758   1.775   0.781 -0.6481 -0.0198 -0.2299
  407SOL    HW1 1220   1.677   1.740   0.730  0.7298 -1.4440  1.1504
  407SOL    HW2 1221   1.795   1.862   0.745 -0.3877 -1.0814 -0.1363
  408SOL     OW 1222   3.016   0.416   1.150  0.0384  0.3440  0.2229
  408SOL    HW1 1223   2.953   0.439   1.075 -0.4318 -0.1440 -1.2699
  408SOL    HW2 1224   0.013   0.481   1.143 -2.3993 -0.3000  2.7478
  409SOL     OW 1225   1.824   1.468   0.604 -0.2979  0.0142 -0.5717
  409SOL    HW1 1226   1.848   1.486   0.701  4.2759 -0.2684 -2.1869
  409SOL    HW2 1227   1.870   1.536   0.542 -0.7510  2.3540 -0.0121
  410SOL     OW 1228   2.236   2.341   0.171  0.0443 -0.1163  0.1669
  410SOL    HW1 1229   2.143   2.308   0.195 -1.2596  1.3407 -2.5162
  410SOL    HW2 1230   2.278   2.374   0.256 -1.0830  3.1424 -0.7316
  411SOL     OW 1231   0.354   3.000   0.418 -0.2877  0.0138  0.2166
  411SOL    HW1 1232   0.332   0.021   0.401  0.1219  1.1995 -1.8633
  411SOL    HW2 1233   0.283   2.961   0.472  0.4770  2.0144 -0.0895
  412SOL     OW 1234   1.464   2.920   0.668 -0.2527  0.1138  0.1222
  412SOL    HW1 1235   1.395   2.990   0.647  1.4329 -2.9986 -0.7009
  412SOL    HW2 1236   1.555   2.967   0.676  1.2947  0.9052  1.8093
  413SOL     OW 1237   1.724   0.130   2.414 -0.1997  0.5764  0.5464
  413SOL    HW1 1238   1.699   0.188   2.338  0.1668 -1.5312  0.3811
  413SOL    HW2 1239   1.738   0.033   2.388  1.1427  1.3306 -2.5807
  414SOL     OW 1240   0.075   0.778   0.632  0.0562 -0.1549  0.0020
  414SOL    HW1 1241   0.033   0.765   0.538  2.4560 -0.8339 -0.4516
  414SOL    HW2 1242   0.174   0.763   0.619  0.6929 -1.9908 -1.3722
  415SOL     OW 1243   2.999   1.466   1.218 -0.2149 -0.1864  0.5023
  415SOL    HW1 1244   3.021   1.372   1.185  3.4007  1.4691 -1.4401
  415SOL    HW2 1245   0.001   1.523   1.217  0.0468  3.2229 -1.3105
  416SOL     OW 1246   0.358   0.842   2.917 -0.5409 -0.3078 -0.4177
  416SOL    HW1 1247   0.366   0.739   2.925 -1.1929  0.0479 -4.0048
  416SOL    HW2 1248   0.315   0.858   2.825 -1.9575 -0.6241 -0.3059
  417SOL     OW 1249   2.604   0.488   0.733  0.5168 -0.0115  0.2242
  417SOL    HW1 1250   2.698   0.514   0.701 -1.5287  0.8173 -1.0797
  417SOL    HW2 1251   2.567   0.547   0.807  1.0363 -0.7303  1.3277
  418SOL     OW 1252   0.624   0.264   2.438  0.0396  0.2547 -0.6086
  418SOL    HW1 1253   0.686   0.184   2.415  1.0218  0.3555 -1.4835
  418SOL    HW2 1254   0.613   0.327   2.360 -4.5847  1.2794  1.7789
  419SOL     OW 1255   0.279   1.095   0.609 -0.5117  0.1855  0.1352
  419SOL    HW1 1256   0.183   1.115   0.573  1.8880 -1.5302 -1.4855
  419SOL    HW2 1257   0.279   1.050   0.698 -0.5378  0.8935 -0.9782
  420SOL     OW 1258   2.296   1.572   1.304  0.1444  0.3256 -0.4505
  420SOL    HW1 1259   2.255   1.588   1.212  0.5036 -1.2250  0.0630
  420SOL    HW2 1260   2.227   1.606   1.370  0.6859  1.2813 -0.6870
  421SOL     OW 1261   1.052   1.873   2.874 -0.8580 -0.3470  0.1156
  421SOL    HW1 1262   1.083   1.942   2.809  0.5022  1.5173  1.6388
  421SOL    HW2 1263   0.989   1.797   2.836 -0.4911 -2.0529  0.7324
  422SOL     OW 1264   2.476   0.577   2.723  0.6585  0.3198  0.0209
  422SOL    HW1 1265   2.570   0.598   2.683  2.1754  2.2539 -3.1466
  422SOL    HW2 1266   2.461   0.639   2.802  3.4475 -0.4008  1.4808
  423SOL     OW 1267   1.783   1.436   0.095 -0.7739  0.0993  0.2818
  423SOL    HW1 1268   1.817   1.352   0.145  0.9497  0.4327  1.0696
  423SOL    HW2 1269   1.756   1.511   0.160  0.4713  0.7486  1.1787
  424SOL     OW 1270   0.962   0.965   2.020 -0.1913 -0.0118 -0.0697
  424SOL    HW1 1271   0.865   0.955   1.984 -0.3000  2.8306 -1.3626
  424SOL    HW2 1272   0.965   0.983   2.123 -1.5125 -1.2308 -0.0468
  425SOL     OW 1273   2.962   2.791   2.177  0.1479 -0.3661 -0.1572
  425SOL    HW1 1274   2.985   2.889   2.156 -0.0420  0.3402  0.5743
  425SOL    HW2 1275   2.982   2.763   2.272  0.4761  0.7242  0.6935
  426SOL     OW 1276   1.982   2.620   0.280 -0.9953  0.1578 -0.0412
  426SOL    HW1 1277   2.058   2.685   0.255  1.1058 -2.0122  1.2855
  426SOL    HW2 1278   1.927   2.664   0.351  0.6901  0.2862  0.4155
  427SOL     OW 1279   0.684   0.506   0.036  0.2493  0.7343 -0.4264
  427SOL    HW1 1280   0.709   0.529   0.134 -1.0388 -1.3519 -0.1720
  427SOL    HW2 1281   0.672   0.601   3.077  2.6491 -0.1800  0.0265
  428SOL     OW 1282   2.502   1.206   2.641 -0.8265  0.0640 -0.4315
  428SOL    HW1 1283   2.544   1.293   2.618 -0.0684 -2.8791 -2.2617
  428SOL    HW2 1284   2.415   1.219   2.690  0.5861  0.3337 -0.8430
  429SOL     OW 1285   2.572   0.454   0.116  0.2386  0.4414 -0.1640
  429SOL    HW1 1286   2.529   0.522   0.178  0.9533  1.0175  1.4756
  429SOL    HW2 1287   2.665   0.482   0.080  1.1341 -0.4324  0.9854
  430SOL     OW 1288   1.300   2.497   2.283 -0.3709 -0.2766  0.0540
  430SOL    HW1 1289   1.206   2.466   2.258  0.5655  0.4891 -1.1534
  430SOL    HW2 1290   1.358   2.512   2.201  3.8147  1.1634  4.6684
  431SOL     OW 1291   2.901   1.919   1.153 -0.6019 -0.2341  0.0897
  431SOL    HW1 1292   2.813   1.868   1.158  1.4976  1.5021 -2.2220
  431SOL    HW2 1293   2.972   1.869   1.204 -1.3538  0.2910  0.2388
  432SOL     OW 1294   2.418   2.453   1.979 -0.2980 -0.1633  0.1272
  432SOL    HW1 1295   2.504   2.471   2.029  0.0455 -0.5256 -2.3635
  432SOL    HW2 1296   2.421   2.366   1.930 -0.6618  3.7721  2.5034
  433SOL     OW 1297   1.386   2.083   0.143  0.0601 -0.3985  0.0018
  433SOL    HW1 1298   1.315   2.027   0.190 -0.3662  0.0154  0.0280
  433SOL    HW2 1299   1.334   2.150   0.082 -1.4016  0.6265  1.0595
  434SOL     OW 1300   0.140   2.146   2.693 -0.1387 -0.1361 -0.2840
  434SOL    HW1 1301   0.185   2.161   2.786  1.6809  2.2917  1.5223
  434SOL    HW2 1302   0.043   2.116   2.708 -2.5948 -0.3758  0.4642
  435SOL     OW 1303   0.025   1.123   0.491 -0.1804 -0.9744  0.1363
  435SOL    HW1 1304   3.057   1.177   0.421 -2.3234 -4.4019 -1.3905
  435SOL    HW2 1305   3.040   1.049   0.525 -2.9033 -0.4214  0.4890
  436SOL     OW 1306   0.750   2.689   1.537 -0.0373 -0.0822 -0.6534
  436SOL    HW1 1307   0.836   2.708   1.481  1.0246 -0.6004 -0.5505
  436SOL    HW2 1308   0.754   2.747   1.622  0.9998 -1.1578 -0.2242
  437SOL     OW 1309   0.922   2.849   0.782  0.3022 -0.1482 -0.5341
  437SOL    HW1 1310   0.884   2.875   0.874  2.6809  0.7153  2.6863
  437SOL    HW2 1311   0.997   2.913   0.749  0.2804 -0.3867  2.7710
  438SOL     OW 1312   0.148   2.144   0.634  0.0558  0.2456 -0.6399
  438SOL    HW1 1313   0.095   2.059   0.654 -1.4204 -3.0976  0.8917
  438SOL    HW2 1314   0.144   2.210   0.713 -0.1834  0.1713  0.3539
  439SOL     OW 1315   0.965   2.487   1.861  0.2642 -0.0306  0.3711
  439SOL    HW1 1316   0.930   2.453   1.767 -2.1431 -1.0725 -2.0190
  439SOL    HW2 1317   1.004   2.407   1.915 -1.8474 -1.7655  1.4776
  440SOL     OW 1318   2.284   2.821   2.052 -0.7399 -0.0539 -0.8612
  440SOL    HW1 1319   2.325   2.792   1.962  0.1906 -1.5270  1.9917
  440SOL    HW2 1320   2.192   2.787   2.076  0.5659  3.7245  0.1889
  441SOL     OW 1321   0.064   0.556   1.483 -0.0944  0.0594 -0.6458
  441SOL    HW1 1322   0.137   0.627   1.505  1.3278 -1.2755  1.1005
  441SOL    HW2 1323   0.107   0.479   1.433  1.3258 -0.3318 -0.2531
  442SOL     OW 1324   1.822   2.376   0.421  0.3554  0.3835  0.3585
  442SOL    HW1 1325   1.740   2.410   0.372 -1.5448 -0.9216  0.7595
  442SOL    HW2 1326   1.861   2.453   0.474  0.3525  1.6900 -1.1039
  443SOL     OW 1327   3.073   0.649   2.635  0.2352  0.1596  1.4906
  443SOL    HW1 1328   0.025   0.554   2.637 -1.1384 -2.2331  0.2351
  443SOL    HW2 1329   3.061   0.679   2.731  1.5107 -0.0129  1.3627
  444SOL     OW 1330   1.659   0.985   1.983  0.0940  0.1681 -0.2730
  444SOL    HW1 1331   1.745   1.023   1.952 -2.4599  1.2088  0.0873
  444SOL    HW2 1332   1.584   1.013   1.917 -0.9127  1.4967 -0.4706
  445SOL     OW 1333   3.020   2.582   1.412 -0.0565  0.8852 -0.7175
  445SOL    HW1 1334   0.037   2.580   1.450 -4.4003 -2.3262 -0.7610
  445SOL    HW2 1335   3.009   2.661   1.346 -0.4093 -1.3199  1.5454
  446SOL     OW 1336   2.766   1.589   1.077  0.6522 -0.1586 -0.0951
  446SOL    HW1 1337   2.835   1.537   1.128 -0.4634  0.6457 -0.6257
  446SOL    HW2 1338   2.798   1.619   0.983  1.6852 -0.2842  0.2041
  447SOL     OW 1339   0.545   0.976   0.577  0.1882  0.2465  0.2590
  447SOL    HW1 1340   0.465   1.035   0.586  1.2735  1.5683  0.6084
  447SOL    HW2 1341   0.567   0.952   0.482 -0.5231 -0.4384  1.0825
  448SOL     OW 1342   1.361   1.705   1.790  0.5859  0.1257  0.0079
  448SOL    HW1 1343   1.363   1.795   1.841 -2.0491 -1.1577  1.1312
  448SOL    HW2 1344   1.349   1.632   1.858  0.8903  0.2734 -0.9752
  449SOL     OW 1345   1.298   1.617   0.380 -0.1671 -0.3324 -0.0460
  449SOL    HW1 1346   1.387   1.640   0.335 -0.9999 -3.5366  0.6514
  449SOL    HW2 1347   1.275   1.517   0.374 -1.1134 -0.9161  0.8847
  450SOL     OW 1348   2.830   2.911   1.838 -0.1201  0.3435 -0.2888
  450SOL    HW1 1349   2.883   2.845   1.784  0.6297 -0.6359  1.5132
  450SOL    HW2 1350   2.762   2.858   1.894 -0.1449 -0.4286 -0.9072
  451SOL     OW 1351   2.201   0.641   2.613  0.5802 -0.3497 -0.2712
  451SOL    HW1 1352   2.278   0.689   2.565 -1.5006 -0.2162 -0.7341
  451SOL    HW2 1353   2.203   0.642   2.717  0.1957  0.7251 -0.9692
  452SOL     OW 1354   1.813   0.373   0.951  0.5887 -0.0489  0.4274
  452SOL    HW1 1355   1.781   0.460   0.903  1.4920  2.2798  0.7779
  452SOL    HW2 1356   1.912   0.372   0.948 -3.2883  0.4814 -0.8080
  453SOL     OW 1357   1.902   0.715   1.732 -0.5101  0.2544 -0.5949
  453SOL    HW1 1358   1.943   0.781   1.794  0.3932 -0.9787  0.4328
  453SOL    HW2 1359   1.971   0.644   1.699  0.9171 -0.7989  1.6679
  454SOL     OW 1360   2.897   1.360   0.409 -0.2667  0.2648 -0.6922
  454SOL    HW1 1361   2.919   1.332   0.312  2.0434  0.3468 -3.5064
  454SOL    HW2 1362   2.938   1.451   0.419 -0.3982 -1.6132 -1.0002
  455SOL     OW 1363   3.017   0.087   0.670 -0.5798 -0.1483  0.5856
  455SOL    HW1 1364   0.015   0.136   0.719  2.0501  1.4783 -0.1078
  455SOL    HW2 1365   2.967   0.154   0.609 -2.8480 -0.5173  0.3687
  456SOL     OW 1366   0.248   2.976   1.308  0.4738  0.4222 -0.1030
  456SOL    HW1 1367   0.315   2.970   1.233 -0.4946 -2.0281  1.3761
  456SOL    HW2 1368   0.281   2.990   1.404  0.6283  0.7519  2.4952
  457SOL     OW 1369   1.251   3.010   0.359 -0.7149  0.3891 -0.1928
  457SOL    HW1 1370   1.187   2.934   0.387 -0.9299 -0.0900  2.4766
  457SOL    HW2 1371   1.345   2.985   0.326 -0.3419  0.6785  0.7531
  458SOL     OW 1372   2.327   2.827   0.685  0.0818 -0.1122 -0.1171
  458SOL    HW1 1373   2.303   2.791   0.778  2.0569 -0.5168  0.8072
  458SOL    HW2 1374   2.428   2.856   0.685  0.1007  0.6365  1.9951
  459SOL     OW 1375   2.203   0.594   2.880 -0.0432  0.0047 -0.1155
  459SOL    HW1 1376   2.182   0.497   2.897  1.9365 -1.5028 -0.3395
  459SOL    HW2 1377   2.229   0.639   2.968 -0.7356 -1.9962 -1.9014
  460SOL     OW 1378   2.334   2.943   2.896 -0.4814  0.2653 -0.2896
  460SOL    HW1 1379   2.327   3.030   2.840 -1.4266 -1.2197 -1.2825
  460SOL    HW2 1380   2.296   2.862   2.842  0.7572 -2.9660 -1.2181
  461SOL     OW 1381   0.803   1.629   0.341  0.0872  0.1160 -0.1377
  461SOL    HW1 1382   0.860   1.561   0.390 -0.0133  0.3814 -0.8537
  461SOL    HW2 1383   0.757   1.690   0.407 -2.8481  1.4109  1.5861
  462SOL     OW 1384   2.125   2.145   0.654  0.1050  0.1209  0.0711
  462SOL    HW1 1385   2.154   2.115   0.745  0.5681 -0.2015 -2.9779
  462SOL    HW2 1386   2.155   2.245   0.633  1.2091 -0.6048 -1.4847
  463SOL     OW 1387   2.325   1.012   0.612 -0.0291  0.1238  0.0975
  463SOL    HW1 1388   2.319   1.035   0.711 -0.8640 -0.8834  0.3506
  463SOL    HW2 1389   2.394   0.937   0.603 -0.1601 -0.5229  1.1406
  464SOL     OW 1390   0.627   0.185   1.266 -0.3586 -0.4679 -0.0936
  464SOL    HW1 1391   0.598   0.213   1.361 -1.2204 -3.1726  1.6643
  464SOL    HW2 1392   0.691   0.257   1.227 -0.0538 -0.6556  1.2143
  465SOL     OW 1393   2.456   1.398   3.045 -0.2608 -0.6501  0.2172
  465SOL    HW1 1394   2.376   1.393   0.025 -1.4190 -1.6175  1.2240
  465SOL    HW2 1395   2.539   1.433   0.017 -0.8212 -0.6787 -0.5520
  466SOL     OW 1396   1.864   0.199   2.838 -0.1367 -0.1813 -0.4037
  466SOL    HW1 1397   1.938   0.156   2.889 -1.4670  2.9283 -1.7840
  466SOL    HW2 1398   1.825   0.269   2.899 -0.7080 -1.6289 -2.3373
  467SOL     OW 1399   0.918   0.481   1.330  0.2086 -0.3234 -0.1165
  467SOL    HW1 1400   0.967   0.417   1.397  0.1928 -1.6298 -1.3556
  467SOL    HW2 1401   0.984   0.530   1.271  0.0326 -0.3148  0.3279
  468SOL     OW 1402   0.360   1.148   2.755 -0.2712 -0.1569  0.3156
  468SOL    HW1 1403   0.410   1.214   2.813 -1.6618  0.2606 -2.6248
  468SOL    HW2 1404   0.357   1.193   2.660  0.5785  1.9808 -3.0294
  469SOL     OW 1405   0.550   2.030   0.337 -0.4390  0.1482  0.1462
  469SOL    HW1 1406   0.479   2.058   0.408 -0.4916  0.2429  1.9901
  469SOL    HW2 1407   0.602   2.114   0.308  1.1249 -0.7635 -0.5275
  470SOL     OW 1408   2.353   1.507   2.423 -0.3148 -0.4875 -0.2715
  470SOL    HW1 1409   2.397   1.549   2.507  1.7950  0.8890  2.0495
  470SOL    HW2 1410   2.409   1.434   2.386  1.6745 -1.6536 -0.0526
  471SOL     OW 1411   2.723   1.154   2.090  0.0675  0.5008 -0.1132
  471SOL    HW1 1412   2.660   1.077   2.068 -1.9407  0.2316 -1.3391
  471SOL    HW2 1413   2.731   1.161   2.194 -2.1443  0.3023 -0.3473
  472SOL     OW 1414   0.426   2.628   0.552 -0.6634 -0.1386  0.1319
  472SOL    HW1 1415   0.411   2.664   0.457 -0.9496 -1.1592 -1.0139
  472SOL    HW2 1416   0.454   2.702   0.618 -2.4859  0.6721 -1.6702
  473SOL     OW 1417   0.692   0.093   0.175 -0.3322 -0.0741  0.2572
  473SOL    HW1 1418   0.669   0.062   0.270 -0.0170 -0.5189  1.3773
  473SOL    HW2 1419   0.795   0.110   0.168  0.8107 -0.1497  0.2198
  474SOL     OW 1420   1.834   2.970   2.310 -0.3105  0.5712  0.3384
  474SOL    HW1 1421   1.793   2.876   2.320 -0.6046 -1.7974  2.7974
  474SOL    HW2 1422   1.800   3.017   2.225 -1.4319  2.7842  0.3667
  475SOL     OW 1423   1.568   2.536   0.400  0.2543  0.2200 -0.3968
  475SOL    HW1 1424   1.501   2.592   0.457 -0.5453 -1.6900 -0.2894
  475SOL    HW2 1425   1.532   2.517   0.307 -0.9648 -3.4353  0.2455
  476SOL     OW 1426   0.182   1.048   0.871 -0.6694  0.7619 -0.4169
  476SOL    HW1 1427   0.094   1.013   0.897  2.6500 -1.1661  1.3051
  476SOL    HW2 1428   0.249   1.026   0.945 -0.3930 -2.3428  0.3827
  477SOL     OW 1429   1.518   2.403   1.136  0.2860  0.0458  0.2538
  477SOL    HW1 1430   1.519   2.307   1.115  1.5288 -0.1887 -0.6346
  477SOL    HW2 1431   1.593   2.448   1.087 -1.0855 -3.5910  3.5246
  478SOL     OW 1432   0.527   1.905   2.347  0.4580 -0.6936  0.1044
  478SOL    HW1 1433   0.621   1.929   2.314  3.8743  1.4010  0.9585
  478SOL    HW2 1434   0.509   1.956   2.429 -0.7706  0.6887 -1.6250
  479SOL     OW 1435   2.452   0.427   1.062 -0.6531 -0.1330 -0.2742
  479SOL    HW1 1436   2.441   0.523   1.021 -1.5252 -0.4378  1.5439
  479SOL    HW2 1437   2.445   0.433   1.164  0.5365 -1.7918  0.9578
  480SOL     OW 1438   2.999   2.803   0.310  0.2738  0.3088  1.1292
  480SOL    HW1 1439   3.072   2.845   0.363 -0.9640  0.0050 -2.8849
  480SOL    HW2 1440   3.013   2.837   0.215  1.9794  0.2831  1.4940
  481SOL     OW 1441   2.724   2.575   0.899  0.8101 -0.1009 -0.2125
  481SOL    HW1 1442   2.660   2.524   0.836 -1.3460 -0.9450 -2.6684
  481SOL    HW2 1443   2.684   2.654   0.945  3.3854 -1.2310 -2.5622
  482SOL     OW 1444   1.331   2.186   2.590  0.1344  0.1838  0.4897
  482SOL    HW1 1445   1.432   2.174   2.605 -1.8044 -1.0731  1.6954
  482SOL    HW2 1446   1.308   2.285   2.601  2.0704  1.7059  2.5519
  483SOL     OW 1447   0.500   2.025   2.628 -0.6861  0.4232 -0.1456
  483SOL    HW1 1448   0.476   2.069   2.715 -0.0824  0.8587  0.6061
  483SOL    HW2 1449   0.430   2.048   2.555 -2.3577  1.6599  0.3888
  484SOL     OW 1450   0.816   1.151   1.860 -0.6182  0.8513  0.2802
  484SOL    HW1 1451   0.758   1.069   1.868  0.5665  0.7512 -1.2265
  484SOL    HW2 1452   0.905   1.127   1.906 -2.2469  0.7137  0.4514
  485SOL     OW 1453   2.442   0.591   0.309 -0.2982 -0.1645 -0.1688
  485SOL    HW1 1454   2.432   0.521   0.382  1.5315  2.1482 -1.7041
  485SOL    HW2 1455   2.385   0.670   0.333 -0.2684 -2.2614  2.3756
  486SOL     OW 1456   1.636   2.986   0.994 -0.2813 -0.3903 -0.1769
  486SOL    HW1 1457   1.545   2.988   0.957  1.5603 -2.5786  1.6314
  486SOL    HW2 1458   1.698   3.065   0.959  1.2619  0.1952 -1.5644
  487SOL     OW 1459   0.436   2.217   1.025 -0.2439 -0.2663  0.1089
  487SOL    HW1 1460   0.439   2.299   0.960  1.7680  1.5201  2.2430
  487SOL    HW2 1461   0.490   2.242   1.108 -2.2914 -0.5210 -0.9244
  488SOL     OW 1462   2.253   1.283   0.626 -0.0140 -0.3717  0.0589
  488SOL    HW1 1463   2.224   1.283   0.527  0.5153 -1.9013 -0.2145
  488SOL    HW2 1464   2.261   1.187   0.660  0.0986 -0.2287 -0.2553
  489SOL     OW 1465   1.573   0.297   1.043  0.1706  0.0811  0.2922
  489SOL    HW1 1466   1.576   0.263   1.139  2.5195 -1.5580  0.7733
  489SOL    HW2 1467   1.668   0.314   1.009 -2.0405  0.8425 -1.3009
  490SOL     OW 1468   1.255   0.249   0.517  0.0617 -0.3373  0.2563
  490SOL    HW1 1469   1.164   0.283   0.534  0.5472 -0.2012  1.7194
  490SOL    HW2 1470   1.289   0.278   0.424  3.1377 -1.1186  1.2834
  491SOL     OW 1471   0.534   2.382   0.610 -0.2803 -0.0708  0.7259
  491SOL    HW1 1472   0.622   2.352   0.573 -1.9322 -0.0433 -0.7935
  491SOL    HW2 1473   0.511   2.477   0.582 -1.5971  0.3770 -0.2900
  492SOL     OW 1474   1.111   1.465   2.400 -0.8125 -0.1321 -0.3087
  492SOL    HW1 1475   1.060   1.385   2.444  3.0633 -0.4504  1.5209
  492SOL    HW2 1476   1.106   1.547   2.458  2.4733  1.4150 -1.0406
  493SOL     OW 1477   0.166   2.535   0.884 -0.3317 -0.0500 -0.4035
  493SOL    HW1 1478   0.119   2.445   0.881  2.1590 -2.3118 -2.0414
  493SOL    HW2 1479   0.182   2.557   0.985  2.0448 -0.1571  1.7547
  494SOL     OW 1480   2.539   2.090   2.932  0.1777 -0.4685 -0.0743
  494SOL    HW1 1481   2.483   2.018   2.891  0.9974  0.3219  0.9004
  494SOL    HW2 1482   2.499   2.116   3.022  1.9675  0.6859 -1.9347
  495SOL     OW 1483   2.636   1.843   2.702 -0.5425 -0.3484 -0.4047
  495SOL    HW1 1484   2.646   1.842   2.803 -0.7434 -0.6108  2.3778
  495SOL    HW2 1485   2.583   1.760   2.675 -1.7441 -2.3399 -0.4177
  496SOL     OW 1486   2.787   0.191   1.483  0.0288 -0.4444 -0.0989
  496SOL    HW1 1487   2.708   0.156   1.428  0.9956  1.2870  0.3254
  496SOL    HW2 1488   2.779   0.164   1.580 -1.9723  2.2520 -0.0645
  497SOL     OW 1489   2.451   0.997   0.329  0.3093 -0.2598  0.0854
  497SOL    HW1 1490   2.394   0.985   0.242  1.5770 -2.6396 -1.0996
  497SOL    HW2 1491   2.534   0.941   0.333  1.0696 -0.8854 -1.2994
  498SOL     OW 1492   0.459   2.241   2.313 -0.5973 -0.5408  0.4109
  498SOL    HW1 1493   0.449   2.262   2.218  0.3873 -3.0704 -0.5557
  498SOL    HW2 1494   0.377   2.192   2.346 -0.4275 -0.0467  0.0217
  499SOL     OW 1495   1.015   2.279   0.235 -0.6549 -0.8023  0.0284
  499SOL    HW1 1496   0.989   2.216   0.309 -1.3623  0.8330 -2.6283
  499SOL    HW2 1497   1.074   2.233   0.165  1.3026 -0.1418 -1.1143
  500SOL     OW 1498   1.227   2.964   0.018  0.0213  0.1456  0.6043
  500SOL    HW1 1499   1.222   3.064   0.033 -0.1780  0.5618  0.1292
  500SOL    HW2 1500   1.148   2.919   0.074  0.1130  1.2077  1.1119
  501SOL     OW 1501   1.602   0.060   1.882 -0.1857  0.1391 -0.0481
  501SOL    HW1 1502   1.538   0.001   1.829 -1.0122  0.2996  0.9622
  501SOL    HW2 1503   1.635   0.138   1.827 -0.7246  0.9728 -0.5636
  502SOL     OW 1504   3.019   0.562   2.305  0.3961 -0.1390  0.2229
  502SOL    HW1 1505   2.991   0.489   2.368 -0.2898  0.8285 -1.6410
  502SOL    HW2 1506   3.046   0.524   2.214  0.3530 -1.4902 -0.7930
  503SOL     OW 1507   2.423   2.087   2.417 -0.0649 -0.1873 -0.6426
  503SOL    HW1 1508   2.414   2.125   2.322  2.5859  2.6289 -0.1318
  503SOL    HW2 1509   2.405   2.167   2.479 -2.3347 -1.4215  0.4791
  504SOL     OW 1510   1.367   0.363   1.457  0.0642  0.3561  0.2872
  504SOL    HW1 1511   1.416   0.446   1.490  1.1613  0.5999 -1.0620
  504SOL    HW2 1512   1.344   0.299   1.530 -0.2235  3.0474 -0.2257
  505SOL     OW 1513   0.747   0.524   1.760  0.0305 -0.0789  0.1106
  505SOL    HW1 1514   0.851   0.517   1.760  1.2770  1.1454 -0.4997
  505SOL    HW2 1515   0.721   0.563   1.851  3.7773 -0.8006 -0.9835
  506SOL     OW 1516   0.367   0.827   2.410 -0.0034  0.0107 -0.1819
  506SOL    HW1 1517   0.340   0.866   2.503  0.5026 -0.6585  0.9571
  506SOL    HW2 1518   0.416   0.736   2.433  1.2826 -1.6203  1.1377
  507SOL     OW 1519   0.311   3.035   2.970 -0.1608  0.2177  0.3950
  507SOL    HW1 1520   0.228   0.003   2.938 -0.2460 -2.4728 -0.8636
  507SOL    HW2 1521   0.337   2.960   2.910  3.4192 -1.1089 -2.1360
  508SOL     OW 1522   1.406   0.749   1.714 -0.1443 -0.0132 -0.1833
  508SOL    HW1 1523   1.483   0.695   1.675  0.8586  3.4072  0.4410
  508SOL    HW2 1524   1.403   0.745   1.820  1.7017  2.0707 -0.5153
  509SOL     OW 1525   0.902   1.859   1.613  0.4548  0.2847  0.1796
  509SOL    HW1 1526   0.930   1.940   1.667  0.7537 -0.0965  1.4331
  509SOL    HW2 1527   0.887   1.873   1.515 -0.1148 -0.7422 -0.6729
  510SOL     OW 1528   2.357   1.118   2.170  0.4898 -0.2111  0.1061
  510SOL    HW1 1529   2.406   1.199   2.214  0.2609 -0.8533 -0.1186
  510SOL    HW2 1530   2.429   1.062   2.120  0.5776 -0.7097 -1.5942
  511SOL     OW 1531   0.494   1.956   1.020  0.0840  0.2095 -0.3653
  511SOL    HW1 1532   0.470   2.058   1.022 -0.3450 -0.1366  1.8285
  511SOL    HW2 1533   0.545   1.930   1.104  1.6772  1.4820  0.0651
  512SOL     OW 1534   2.571   2.535   0.153  0.1215 -0.5519 -0.1158
  512SOL    HW1 1535   2.511   2.528   0.069 -2.5360  0.1733 -1.6341
  512SOL    HW2 1536   2.515   2.508   0.235  0.4750  0.3528  1.3759
  513SOL     OW 1537   3.003   1.740   2.434  0.3989 -1.0443 -0.2668
  513SOL    HW1 1538   0.004   1.680   2.439 -2.5885  0.5365  0.2157
  513SOL    HW2 1539   3.008   1.799   2.518 -1.2819 -0.2378  0.4634
  514SOL     OW 1540   0.148   2.640   2.601  0.4931  0.0910 -0.2997
  514SOL    HW1 1541   0.099   2.550   2.585  1.5116  2.2885  2.7730
  514SOL    HW2 1542   0.245   2.634   2.577 -1.0689  0.7514  0.9951
  515SOL     OW 1543   1.979   1.240   1.319  0.5678  0.8600 -0.2985
  515SOL    HW1 1544   1.932   1.329   1.315 -1.1560  0.1965  1.1015
  515SOL    HW2 1545   2.082   1.248   1.310  0.9265 -1.6255  1.5029
  516SOL     OW 1546   2.449   2.336   2.555 -0.0973 -0.4187 -0.0456
  516SOL    HW1 1547   2.493   2.384   2.476 -0.5980  0.9981 -0.7705
  516SOL    HW2 1548   2.510   2.342   2.635  1.4848  1.1915  2.2064
  517SOL     OW 1549   1.450   0.891   3.013  0.0649  0.0654 -0.4590
  517SOL    HW1 1550   1.451   0.959   0.007 -1.7555 -1.8519  1.1759
  517SOL    HW2 1551   1.427   0.800   3.056 -0.0704 -4.2442  0.6205
  518SOL     OW 1552   2.945   3.067   2.320 -0.2975  0.2115 -0.7947
  518SOL    HW1 1553   2.970   3.078   2.218  2.3144 -1.7154 -0.7070
  518SOL    HW2 1554   2.861   3.010   2.340 -1.0245 -2.4749  0.5488
  519SOL     OW 1555   1.553   1.834   2.164  0.8129 -0.5686  0.1138
  519SOL    HW1 1556   1.480   1.810   2.234 -2.2004  1.6983  1.3231
  519SOL    HW2 1557   1.638   1.875   2.207 -0.6047  0.6151  0.2450
  520SOL     OW 1558   2.898   3.016   2.626 -0.3218 -0.8084  0.5705
  520SOL    HW1 1559   2.805   3.062   2.621 -1.4072  0.8635 -0.0588
  520SOL    HW2 1560   2.946   3.020   2.537 -1.8046  0.1536 -1.4067
  521SOL     OW 1561   0.368   1.603   1.712 -0.5252  0.4664  0.3000
  521SOL    HW1 1562   0.384   1.673   1.787  1.6260 -3.1176  0.6557
  521SOL    HW2 1563   0.446   1.535   1.717  0.1133  0.1064  0.3372
  522SOL     OW 1564   1.096   3.062   1.763 -0.0647  0.7592  0.3546
  522SOL    HW1 1565   1.036   0.065   1.750 -2.3068  1.3378  1.1157
  522SOL    HW2 1566   1.123   3.044   1.860  0.2305  2.4591 -3.1839
  523SOL     OW 1567   0.234   2.616   1.144 -0.3913  0.5369 -0.3803
  523SOL    HW1 1568   0.189   2.664   1.219 -0.8537 -2.6592  1.4355
  523SOL    HW2 1569   0.336   2.636   1.139  0.5296  1.0261  0.9806
  524SOL     OW 1570   1.623   2.643   0.857  0.3865 -0.0896 -0.0395
  524SOL    HW1 1571   1.575   2.590   0.784 -0.0214  0.5870 -1.9734
  524SOL    HW2 1572   1.570   2.728   0.875  0.2640  0.9567 -0.8724
  525SOL     OW 1573   2.333   1.079   0.891  0.5818 -0.0308 -0.6396
  525SOL    HW1 1574   2.314   1.169   0.930  1.5083 -0.2105  0.7721
  525SOL    HW2 1575   2.279   1.011   0.948 -1.9018  0.4344  0.1180
  526SOL     OW 1576   1.067   2.311   0.726  0.2991  0.0960  0.8974
  526SOL    HW1 1577   1.069   2.411   0.712 -0.8824  0.6804  2.8116
  526SOL    HW2 1578   0.978   2.280   0.773  1.1962  2.5275  0.9312
  527SOL     OW 1579   2.426   1.987   0.793  0.0933  0.5311  0.1012
  527SOL    HW1 1580   2.403   1.948   0.700  1.3248 -0.8927 -1.7921
  527SOL    HW2 1581   2.453   1.914   0.859 -2.7627 -2.7037 -1.7733
  528SOL     OW 1582   2.238   0.403   0.165 -0.4629 -0.0091 -0.2966
  528SOL    HW1 1583   2.317   0.467   0.154  2.3850  1.9001 -0.2416
  528SOL    HW2 1584   2.223   0.378   0.260 -0.9931 -0.9796 -1.2763
  529SOL     OW 1585   1.212   1.028   1.958  0.5456  0.3727 -0.2226
  529SOL    HW1 1586   1.116   0.985   1.952 -0.0268  3.1506 -1.2226
  529SOL    HW2 1587   1.241   1.015   2.058 -2.1270 -0.9503  0.1605
  530SOL     OW 1588   2.636   0.962   2.706 -0.1030 -0.2261  0.2234
  530SOL    HW1 1589   2.598   1.056   2.696 -0.8201  0.6937 -0.5796
  530SOL    HW2 1590   2.688   0.943   2.620  2.0470  1.6553 -0.3812
  531SOL     OW 1591   1.146   0.960   0.078  0.5437 -0.0439  0.2206
  531SOL    HW1 1592   1.158   1.035   0.011 -1.9204 -1.5743  0.1745
  531SOL    HW2 1593   1.130   0.995   0.176 -2.3347  0.9396  1.5097
  532SOL     OW 1594   2.228   0.373   0.785  0.0246 -0.0023 -0.2278
  532SOL    HW1 1595   2.322   0.356   0.747  0.3890 -1.6509  2.7304
  532SOL    HW2 1596   2.180   0.283   0.784 -2.4461 -3.0063  3.3185
  533SOL     OW 1597   0.724   0.898   1.899 -0.3153  0.1648 -0.5605
  533SOL    HW1 1598   0.630   0.921   1.871  1.8533  0.6798  0.9893
  533SOL    HW2 1599   0.722   0.803   1.928 -2.2298  2.0406 -3.0784
  534SOL     OW 1600   1.637   0.193   2.667  0.2562 -0.0479 -0.3769
  534SOL    HW1 1601   1.651   0.163   2.573  2.1172  1.0647  2.3151
  534SOL    HW2 1602   1.725   0.194   2.723  2.0627 -1.2507  0.9564
  535SOL     OW 1603   0.631   0.005   0.455  0.0436 -0.2822 -0.1131
  535SOL    HW1 1604   0.538   3.045   0.442  0.4461 -0.6472  1.4326
  535SOL    HW2 1605   0.686   3.006   0.487 -2.6570  0.7896 -0.6662
  536SOL     OW 1606   0.975   2.704   1.388 -0.1668 -0.0775  0.5822
  536SOL    HW1 1607   1.057   2.705   1.324  1.5064 -0.2547  0.8758
  536SOL    HW2 1608   1.005   2.714   1.483  1.6246 -1.7062 -2.4621
  537SOL     OW 1609   2.032   2.716   2.196  0.3405  0.6544  0.1590
  537SOL    HW1 1610   1.986   2.771   2.121  1.5201  2.2943  0.1188
  537SOL    HW2 1611   2.019   2.614   2.182 -0.7574  2.3611 -0.7016
  538SOL     OW 1612   0.166   2.611   0.050 -0.9958 -0.2005  0.5094
  538SOL    HW1 1613   0.220   2.567   3.053  2.6766 -0.8221 -0.7028
  538SOL    HW2 1614   0.070   2.589   0.034  0.4637  1.9966 -0.4640
  539SOL     OW 1615   2.841   1.831   1.783 -0.6543  0.1363  0.1505
  539SOL    HW1 1616   2.865   1.908   1.720 -0.1890  0.9535 -1.6327
  539SOL    HW2 1617   2.854   1.861   1.880 -0.6383  0.9273  2.0301
  540SOL     OW 1618   2.790   2.622   1.870 -0.2908 -0.7524  0.1525
  540SOL    HW1 1619   2.889   2.628   1.886  1.1850  0.3477 -1.8065
  540SOL    HW2 1620   2.772   2.644   1.772 -0.0312 -2.3907  1.8694
  541SOL     OW 1621   3.047   0.075   1.598 -0.1807 -0.0135 -0.0358
  541SOL    HW1 1622   2.966   0.096   1.537  0.0071 -2.7927 -3.5247
  541SOL    HW2 1623   0.002   3.060   1.583 -0.1789 -2.0215 -3.4539
  542SOL     OW 1624   3.004   0.657   1.930  0.0038 -0.2873 -0.2282
  542SOL    HW1 1625   2.921   0.657   1.989 -0.4127 -0.0633 -0.8864
  542SOL    HW2 1626   2.990   0.635   1.832  2.7066 -0.3534  1.7827
  543SOL     OW 1627   0.552   0.859   1.176  0.2623  0.1748 -0.3227
  543SOL    HW1 1628   0.631   0.917   1.206  2.2145  3.0535 -1.2509
  543SOL    HW2 1629   0.529   0.795   1.252 -0.9146  1.9439 -0.8947
  544SOL     OW 1630   2.154   1.667   1.091 -0.1463 -0.5564 -0.2277
  544SOL    HW1 1631   2.117   1.740   1.152  2.7742  0.4275 -1.1794
  544SOL    HW2 1632   2.093   1.648   1.014  0.9910 -1.2149  2.2660
  545SOL     OW 1633   1.004   1.523   0.522 -0.6638 -0.1471  0.8245
  545SOL    HW1 1634   1.055   1.610   0.547  2.0292  0.1475 -0.0137
  545SOL    HW2 1635   0.958   1.482   0.601  0.7596 -0.5334 -0.8764
  546SOL     OW 1636   2.748   0.248   1.939 -0.3112  0.4073  0.1082
  546SOL    HW1 1637   2.689   0.330   1.922  1.6717  1.1855  0.5972
  546SOL    HW2 1638   2.787   0.242   2.035  3.8153 -0.0482 -0.8506
  547SOL     OW 1639   0.269   0.179   2.412 -0.1031 -0.3809 -0.7116
  547SOL    HW1 1640   0.319   0.176   2.503  1.4463  0.2989  0.5305
  547SOL    HW2 1641   0.303   0.253   2.353 -0.3107  0.6535  0.0481
  548SOL     OW 1642   2.258   2.152   2.681  0.0643 -1.2392  0.0387
  548SOL    HW1 1643   2.319   2.232   2.652 -1.0774  0.1755 -0.1209
  548SOL    HW2 1644   2.190   2.125   2.611  2.2525  0.1046  1.0794
  549SOL     OW 1645   2.444   0.676   0.942 -0.1061 -0.0847  0.3333
  549SOL    HW1 1646   2.364   0.720   0.900  0.1884 -0.3013  1.7166
  549SOL    HW2 1647   2.526   0.734   0.947  1.8175  0.9780 -0.7188
  550SOL     OW 1648   2.123   1.439   0.823  0.3514 -0.4356  0.1900
  550SOL    HW1 1649   2.110   1.537   0.807 -2.4157 -0.4694  1.3016
  550SOL    HW2 1650   2.171   1.386   0.752  1.0286 -1.4025  3.6847
  551SOL     OW 1651   1.271   2.861   1.505  0.3725 -0.1538 -0.2866
  551SOL    HW1 1652   1.203   2.801   1.549 -0.8197  0.4229 -1.9380
  551SOL    HW2 1653   1.328   2.813   1.437 -2.6410 -0.7624 -3.5114
  552SOL     OW 1654   1.965   2.402   2.468 -0.0506 -0.1948 -1.2753
  552SOL    HW1 1655   1.973   2.506   2.480 -1.4162  0.4782  1.1879
  552SOL    HW2 1656   2.056   2.370   2.435 -0.7075 -1.0090 -4.3237
  553SOL     OW 1657   0.723   2.818   0.553 -0.3825  0.4179 -0.2212
  553SOL    HW1 1658   0.799   2.854   0.611  0.1525  1.6231 -0.6330
  553SOL    HW2 1659   0.639   2.796   0.612 -0.3646 -1.4032  3.0681
  554SOL     OW 1660   1.718   2.602   2.089  0.6419  0.0382  0.2311
  554SOL    HW1 1661   1.760   2.512   2.063 -0.9118  0.7155 -2.0388
  554SOL    HW2 1662   1.767   2.672   2.030 -0.1996  2.3180 -0.1246
  555SOL     OW 1663   2.152   2.387   2.021 -0.2082  0.1836  0.8045
  555SOL    HW1 1664   2.249   2.415   2.019  0.1705 -0.7644  2.5760
  555SOL    HW2 1665   2.140   2.300   2.070  2.6422  2.5646 -1.0999
  556SOL     OW 1666   1.075   3.015   0.630  0.3681  0.8018 -0.0488
  556SOL    HW1 1667   1.159   3.073   0.639 -2.0576  0.3725 -1.3518
  556SOL    HW2 1668   1.092   2.948   0.555 -0.3841  2.3853 -0.9556
  557SOL     OW 1669   0.729   2.216   1.713  0.2432  0.2218  0.3970
  557SOL    HW1 1670   0.772   2.298   1.677 -0.7972 -4.0678 -1.2241
  557SOL    HW2 1671   0.642   2.195   1.662  0.5806 -2.2785  1.5654
  558SOL     OW 1672   2.677   1.144   2.372  0.5486  0.9068  0.0500
  558SOL    HW1 1673   2.702   1.049   2.399 -0.6426  3.0247  0.4357
  558SOL    HW2 1674   2.746   1.210   2.410 -1.2592  1.6715 -0.5445
  559SOL     OW 1675   2.445   2.197   2.167  0.3154 -0.0968 -0.2136
  559SOL    HW1 1676   2.419   2.161   2.076 -2.6256 -1.6845  2.7188
  559SOL    HW2 1677   2.536   2.245   2.168  0.9026  2.5090  0.1240
  560SOL     OW 1678   0.606   0.435   2.224  0.1403  0.1323 -1.0213
  560SOL    HW1 1679   0.608   0.371   2.145  1.0564 -0.8208 -1.3303
  560SOL    HW2 1680   0.688   0.492   2.229 -0.6861 -0.8430  1.6321
  561SOL     OW 1681   1.328   0.320   0.273  0.2173 -0.3058 -0.3874
  561SOL    HW1 1682   1.427   0.346   0.281 -1.5373 -0.2440  0.9470
  561SOL    HW2 1683   1.311   0.240   0.211  1.7594  1.2542 -0.2634
  562SOL     OW 1684   1.107   1.392   1.671 -0.5485 -0.3357 -0.3349
  562SOL    HW1 1685   1.117   1.494   1.665  1.1533  2.8979  0.2138
  562SOL    HW2 1686   1.055   1.366   1.587 -0.1876  1.1711 -3.3082
  563SOL     OW 1687   1.832   2.509   0.063 -0.2308  0.1281  0.4685
  563SOL    HW1 1688   1.872   2.415   0.037 -0.0716  1.1465 -0.9029
  563SOL    HW2 1689   1.892   2.558   0.132  2.0301 -0.1520  1.9469
  564SOL     OW 1690   2.837   2.199   0.450  0.2302 -0.1251 -0.7344
  564SOL    HW1 1691   2.781   2.195   0.539 -1.0330 -0.7601  2.2322
  564SOL    HW2 1692   2.804   2.276   0.396 -3.4961  1.2763 -0.1083
  565SOL     OW 1693   0.615   2.824   2.240 -0.3834 -0.2407 -0.1097
  565SOL    HW1 1694   0.685   2.871   2.305  1.6113  0.6096 -0.5796
  565SOL    HW2 1695   0.532   2.881   2.243  0.1287 -2.5558  0.0931
  566SOL     OW 1696   1.524   2.419   2.724 -0.0373  0.0729  0.4492
  566SOL    HW1 1697   1.580   2.371   2.793 -1.0728 -1.4011  0.1152
  566SOL    HW2 1698   1.588   2.487   2.687 -1.6828  0.8368  3.5601
  567SOL     OW 1699   1.927   1.773   1.318 -0.2746  0.1165 -0.4130
  567SOL    HW1 1700   1.933   1.839   1.238  0.2919  0.4494  0.2282
  567SOL    HW2 1701   1.860   1.804   1.390 -1.4175 -0.3809 -0.6648
  568SOL     OW 1702   2.137   0.877   2.797  0.0338 -0.4262  0.4981
  568SOL    HW1 1703   2.089   0.842   2.880 -0.1717 -2.0315 -1.3652
  568SOL    HW2 1704   2.234   0.884   2.829  0.0262  1.4524 -0.5612
  569SOL     OW 1705   2.609   1.539   2.206  0.6913  0.1892 -0.3448
  569SOL    HW1 1706   2.695   1.582   2.186 -3.7668  0.2058 -0.2192
  569SOL    HW2 1707   2.534   1.609   2.211 -0.7731  0.1092 -0.8684
  570SOL     OW 1708   2.568   3.020   1.592  0.4597  0.1149 -0.1104
  570SOL    HW1 1709   2.465   3.007   1.610 -3.3572 -1.9012  2.0759
  570SOL    HW2 1710   2.610   0.019   1.636 -1.7806  0.8701  0.0094
  571SOL     OW 1711   0.196   0.349   1.324 -0.1187 -0.4076  0.7049
  571SOL    HW1 1712   0.169   0.280   1.391 -1.1057  0.8039 -3.6923
  571SOL    HW2 1713   0.265   0.303   1.265 -2.0173 -1.8239  1.3846
  572SOL     OW 1714   0.017   1.910   0.586  0.6392 -0.0022  0.4208
  572SOL    HW1 1715   3.035   1.874   0.516 -0.2693 -1.3000  0.1632
  572SOL    HW2 1716   0.068   1.831   0.623  3.7496  1.9910  1.0144
  573SOL     OW 1717   1.158   0.491   0.151 -0.9855  0.0237  0.4684
  573SOL    HW1 1718   1.102   0.534   0.224 -0.8626 -1.5333  0.3640
  573SOL    HW2 1719   1.232   0.432   0.195  2.2040  0.2957  0.2697
  574SOL     OW 1720   0.080   0.044   0.194  0.3720 -0.8718 -0.3161
  574SOL    HW1 1721   0.091   0.120   0.132  0.1964  2.0252  2.8244
  574SOL    HW2 1722   0.091   3.033   0.146 -0.6199 -0.2927 -0.3006
  575SOL     OW 1723   1.057   2.350   1.149 -0.1901  0.2277  0.3508
  575SOL    HW1 1724   1.095   2.330   1.239 -1.0757  0.5152 -0.6936
  575SOL    HW2 1725   1.131   2.395   1.092  1.6656  1.3406 -0.6373
  576SOL     OW 1726   2.954   2.821   1.298 -0.6660  0.1975  0.1224
  576SOL    HW1 1727   2.901   2.883   1.357 -0.0655 -0.5512 -2.4408
  576SOL    HW2 1728   3.002   2.873   1.227 -3.7182 -1.2413  0.0802
  577SOL     OW 1729   2.726   1.765   1.466  0.3177  0.5981 -0.1876
  577SOL    HW1 1730   2.737   1.662   1.453  2.0483 -3.1506 -2.9909
  577SOL    HW2 1731   2.811   1.810   1.493  1.0762  0.1303  1.7114
  578SOL     OW 1732   1.086   2.759   2.867 -0.6205  0.0942  0.0256
  578SOL    HW1 1733   1.079   2.701   2.787 -1.0132 -0.8510  3.9527
  578SOL    HW2 1734   1.183   2.783   2.878  0.5679 -0.5090 -1.6273
  579SOL     OW 1735   1.980   1.704   2.131  0.2128  0.1677 -0.0639
  579SOL    HW1 1736   1.888   1.663   2.150 -0.0293 -1.9799 -2.2687
  579SOL    HW2 1737   2.050   1.629   2.104 -0.6592  0.1904  0.2548
  580SOL     OW 1738   1.931   0.251   2.014 -0.3780  0.3063 -0.0480
  580SOL    HW1 1739   1.972   0.294   1.936 -1.2376  1.0693  2.5627
  580SOL    HW2 1740   1.846   0.300   2.051  1.3262  0.7715  2.0267
  581SOL     OW 1741   1.065   1.557   1.932  0.6445  0.6286 -0.6489
  581SOL    HW1 1742   1.080   1.587   1.836 -1.4655 -0.4170  0.3957
  581SOL    HW2 1743   1.090   1.455   1.930  0.4662  2.0043 -1.6658
  582SOL     OW 1744   3.056   2.738   1.748 -0.3094  0.1236  0.2629
  582SOL    HW1 1745   0.039   2.752   1.825  0.5698  2.0464 -2.2591
  582SOL    HW2 1746   3.079   2.806   1.675 -0.4984 -1.0407 -1.7953
  583SOL     OW 1747   1.325   1.444   1.151 -0.0021 -0.0561  0.0757
  583SOL    HW1 1748   1.352   1.423   1.246  1.7082 -0.5129 -0.0431
  583SOL    HW2 1749   1.227   1.473   1.141 -0.8337  0.9681  2.8554
  584SOL     OW 1750   1.190   1.926   2.623  0.2920  0.0263 -0.0468
  584SOL    HW1 1751   1.285   1.894   2.638  0.5309  2.5572 -0.8356
  584SOL    HW2 1752   1.182   2.023   2.605 -4.0467 -1.7378  0.3155
  585SOL     OW 1753   0.300   2.273   0.213  0.2535  0.0887  0.2479
  585SOL    HW1 1754   0.342   2.220   0.288  0.7851  1.9254  0.4246
  585SOL    HW2 1755   0.217   2.224   0.174 -1.8305 -0.0981 -1.3346
  586SOL     OW 1756   1.915   2.243   0.043 -0.0162 -0.1233 -0.3361
  586SOL    HW1 1757   1.961   2.237   0.134  1.1099 -1.6905  2.9532
  586SOL    HW2 1758   1.980   2.237   3.047 -0.0070  1.6663  0.3574
  587SOL     OW 1759   2.454   2.087   0.466 -0.4210  0.3081 -0.3963
  587SOL    HW1 1760   2.495   2.167   0.512 -0.7928 -3.2259 -3.0655
  587SOL    HW2 1761   2.503   2.080   0.376  3.0785 -1.0363  0.6980
  588SOL     OW 1762   2.091   0.414   1.045 -0.5292  0.3344  0.0859
  588SOL    HW1 1763   2.027   0.496   1.048 -1.1206  0.3616 -0.5005
  588SOL    HW2 1764   2.153   0.410   0.957  1.3622 -1.4765  1.0742
  589SOL     OW 1765   0.617   0.754   0.932  0.1209  0.9933  0.3555
  589SOL    HW1 1766   0.597   0.791   1.027 -1.9319  0.2791  0.4385
  589SOL    HW2 1767   0.623   0.836   0.870 -0.7164 -0.0326  3.5885
  590SOL     OW 1768   2.770   2.388   0.243  0.9241  0.6415  0.3740
  590SOL    HW1 1769   2.702   2.450   0.205 -0.4013 -2.6150  0.9447
  590SOL    HW2 1770   2.842   2.442   0.287 -1.3237  0.5412  1.2106
  591SOL     OW 1771   0.361   2.713   1.676  0.4799  0.2632  0.1161
  591SOL    HW1 1772   0.419   2.633   1.700 -0.7797  1.3566 -1.7844
  591SOL    HW2 1773   0.315   2.755   1.760  1.0864  1.5045  2.5260
  592SOL     OW 1774   0.575   1.234   1.373 -0.1465  0.0795 -0.5159
  592SOL    HW1 1775   0.487   1.186   1.352  1.6442 -1.8305  1.2879
  592SOL    HW2 1776   0.623   1.186   1.453  3.8921 -0.2139  0.9127
  593SOL     OW 1777   0.963   1.891   1.283 -0.9025 -0.7498 -0.0263
  593SOL    HW1 1778   0.965   1.789   1.299  1.4602  2.7779 -0.9180
  593SOL    HW2 1779   1.027   1.910   1.205 -0.0084  0.6987  1.3716
  594SOL     OW 1780   0.191   1.876   2.859 -0.3031  0.2019 -0.0615
  594SOL    HW1 1781   0.183   1.966   2.906  0.0393 -2.0264 -2.9280
  594SOL    HW2 1782   0.250   1.822   2.921  1.5139 -2.0289  0.2320
  595SOL     OW 1783   1.507   0.590   0.990 -0.6313  0.1117 -0.1804
  595SOL    HW1 1784   1.566   0.638   0.929 -1.6369  1.1794  0.0531
  595SOL    HW2 1785   1.498   0.493   0.956 -1.0133 -0.2079 -1.0791
  596SOL     OW 1786   0.179   1.600   0.438  0.7986  0.1160  0.2489
  596SOL    HW1 1787   0.089   1.575   0.401  0.7609  2.2021 -3.3526
  596SOL    HW2 1788   0.210   1.524   0.499 -0.7395 -0.7070 -0.0212
  597SOL     OW 1789   2.946   2.112   2.739 -0.1449  0.4214  0.4943
  597SOL    HW1 1790   2.900   2.191   2.690 -1.3644  0.6761  0.7782
  597SOL    HW2 1791   2.909   2.107   2.837 -0.4108  0.1231  1.5050
  598SOL     OW 1792   2.106   2.172   2.207 -0.1305 -0.4247  0.1402
  598SOL    HW1 1793   2.014   2.166   2.164  2.0543  0.8137 -1.6196
  598SOL    HW2 1794   2.146   2.082   2.238  0.3489 -1.7428  0.1055
  599SOL     OW 1795   1.678   0.281   0.624  0.6818  0.0271  0.5983
  599SOL    HW1 1796   1.661   0.196   0.684 -0.9277 -2.2319 -0.0081
  599SOL    HW2 1797   1.596   0.341   0.621 -0.6490  0.8321  0.8631
  600SOL     OW 1798   0.838   2.712   0.339 -0.0459 -0.0679 -0.0675
  600SOL    HW1 1799   0.804   2.753   0.429 -1.3799  2.7692  3.2391
  600SOL    HW2 1800   0.796   2.770   0.266 -2.3515  2.3387  0.7142
  601SOL     OW 1801   0.513   0.644   1.382  0.1743  0.5652 -0.3961
  601SOL    HW1 1802   0.440   0.675   1.450 -0.6472  0.4010  0.9813
  601SOL    HW2 1803   0.604   0.651   1.426 -0.8470 -1.6345 -1.4245
  602SOL     OW 1804   0.302   2.828   0.908 -0.0797  0.3964 -0.1391
  602SOL    HW1 1805   0.293   2.728   0.890  1.1811  0.6691 -0.1882
  602SOL    HW2 1806   0.218   2.882   0.889  0.6171 -2.3422  1.5035
  603SOL     OW 1807   1.056   2.640   2.602  0.4695 -0.3204  0.3808
  603SOL    HW1 1808   0.976   2.587   2.572  1.0564 -0.7993 -0.4250
  603SOL    HW2 1809   1.092   2.695   2.525  0.6983  0.7761 -0.5011
  604SOL     OW 1810   0.563   2.900   2.972 -0.0599 -0.3711  0.0295
  604SOL    HW1 1811   0.495   2.950   3.024  1.2374 -1.3543  0.7930
  604SOL    HW2 1812   0.526   2.811   2.937  0.5126 -1.3128 -1.5051
  605SOL     OW 1813   0.990   0.680   2.007  0.0058 -0.2377 -0.1964
  605SOL    HW1 1814   0.991   0.634   1.915 -1.8943 -0.5680  1.4117
  605SOL    HW2 1815   1.001   0.778   1.999 -1.9347  1.6130  0.6969
  606SOL     OW 1816   1.986   0.183   2.560  0.3668 -0.5364 -0.0168
  606SOL    HW1 1817   1.946   0.195   2.655 -1.2344  0.2604  2.0420
  606SOL    HW2 1818   1.918   0.155   2.493  0.1714 -0.3216  3.3948
  607SOL     OW 1819   0.333   1.379   1.146  0.4259  0.0564 -0.2808
  607SOL    HW1 1820   0.272   1.409   1.221  3.1085 -1.1723 -0.8332
  607SOL    HW2 1821   0.388   1.302   1.176 -0.8506  1.6226 -1.1795
  608SOL     OW 1822   0.082   2.410   2.280 -0.7073  0.1150 -0.0388
  608SOL    HW1 1823   0.031   2.495   2.266  3.0328 -1.3011  2.4626
  608SOL    HW2 1824   0.076   2.384   2.379 -0.4498 -0.9509 -0.3879
  609SOL     OW 1825   1.766   0.643   0.158 -0.8309 -0.1785 -0.9565
  609SOL    HW1 1826   1.854   0.629   0.116  0.0086  0.9662  0.1428
  609SOL    HW2 1827   1.787   0.699   0.246  1.4663  0.6854  4.6340
  610SOL     OW 1828   0.777   2.761   1.194  0.0224  0.0027  0.3512
  610SOL    HW1 1829   0.853   2.759   1.259 -0.0604 -2.6830 -0.9991
  610SOL    HW2 1830   0.685   2.758   1.240  0.6820  0.1082 -0.5403
  611SOL     OW 1831   1.060   0.632   0.381  0.2806 -0.8623  0.2986
  611SOL    HW1 1832   0.968   0.669   0.376 -0.0329 -1.0255  1.1685
  611SOL    HW2 1833   1.120   0.704   0.430 -1.1202  0.9351  0.9606
  612SOL     OW 1834   1.470   0.774   2.769 -0.2676  0.1154  0.0871
  612SOL    HW1 1835   1.425   0.824   2.695  1.2315 -0.5209  2.9459
  612SOL    HW2 1836   1.463   0.829   2.855 -0.3227  0.6463  1.1921
  613SOL     OW 1837   2.093   0.786   0.240 -0.1936 -0.3796 -0.7720
  613SOL    HW1 1838   2.003   0.829   0.257 -1.2107  0.2582  0.3630
  613SOL    HW2 1839   2.083   0.686   0.250  0.2332 -0.1436  3.7496
  614SOL     OW 1840   2.036   0.318   1.785 -0.2115 -0.6741 -0.2368
  614SOL    HW1 1841   2.006   0.254   1.714  0.7419 -0.7542  1.7051
  614SOL    HW2 1842   2.020   0.417   1.756 -2.0678 -0.7841  0.8683
  615SOL     OW 1843   0.902   2.133   0.866  0.5347 -0.5688  0.1452
  615SOL    HW1 1844   0.921   2.073   0.944 -1.6562 -1.9958 -1.3983
  615SOL    HW2 1845   0.863   2.223   0.895 -1.1429 -1.6765  1.6993
  616SOL     OW 1846   1.519   1.150   2.181 -0.1941 -0.2506 -0.0015
  616SOL    HW1 1847   1.537   1.250   2.194 -1.6958  1.4270  0.2389
  616SOL    HW2 1848   1.568   1.110   2.100  0.3443 -2.8880  1.9435
  617SOL     OW 1849   1.703   3.036   2.985 -0.2409  0.0272 -0.2414
  617SOL    HW1 1850   1.608   3.049   3.026 -0.6698 -0.9023  0.1220
  617SOL    HW2 1851   1.701   3.027   2.884 -0.2374 -0.5045 -1.2318
  618SOL     OW 1852   0.978   1.026   2.683  0.4147  0.0715  0.1341
  618SOL    HW1 1853   1.064   0.978   2.718  2.0188  1.5042 -2.0760
  618SOL    HW2 1854   0.936   0.970   2.612  2.0440  2.3021  2.7219
  619SOL     OW 1855   2.497   1.524   0.865  0.1386 -0.1050  0.5507
  619SOL    HW1 1856   2.428   1.458   0.902  1.5282  3.4739  0.5734
  619SOL    HW2 1857   2.589   1.477   0.845  3.2577 -1.0709  0.1266
  620SOL     OW 1858   2.460   2.500   2.984  0.0442 -0.4891  0.0305
  620SOL    HW1 1859   2.496   2.572   2.921  0.2097  0.3008  0.7189
  620SOL    HW2 1860   2.364   2.520   3.018 -1.5088 -0.4531  3.4484
  621SOL     OW 1861   2.118   1.168   0.246  0.1471  0.2303 -0.4151
  621SOL    HW1 1862   2.025   1.198   0.219 -2.6830 -2.1240 -2.5088
  621SOL    HW2 1863   2.115   1.120   0.336  1.5022 -1.6195 -1.9655
  622SOL     OW 1864   1.244   2.420   2.682  0.2328 -0.9205 -0.4575
  622SOL    HW1 1865   1.199   2.511   2.663 -2.4103  3.9147 -0.0866
  622SOL    HW2 1866   1.340   2.427   2.709  0.8014 -3.6505  0.2590
  623SOL     OW 1867   0.203   2.116   2.954  0.2642 -0.3680 -0.0301
  623SOL    HW1 1868   0.286   2.167   2.982  0.5062  2.1035  0.5380
  623SOL    HW2 1869   0.135   2.116   3.032 -2.1820 -0.2985 -1.3289
  624SOL     OW 1870   0.382   0.222   2.950  0.4036  0.0363 -0.2446
  624SOL    HW1 1871   0.440   0.253   3.032 -0.1755 -1.3346 -0.1277
  624SOL    HW2 1872   0.361   0.123   2.953  0.9004 -1.7906  2.3607
  625SOL     OW 1873   0.704   1.873   0.079  0.0184  0.0195 -0.0359
  625SOL    HW1 1874   0.609   1.896   0.100 -1.0961 -2.0529 -1.2785
  625SOL    HW2 1875   0.697   1.778   0.036  0.0587 -0.4696  0.6456
  626SOL     OW 1876   2.879   0.593   0.298 -0.1258 -0.8911  0.3110
  626SOL    HW1 1877   2.873   0.557   0.205 -2.6003  1.6028  1.6377
  626SOL    HW2 1878   2.929   0.525   0.361 -3.7427 -4.6509  0.9186
  627SOL     OW 1879   1.483   1.127   2.800 -0.1362 -0.2463 -0.2062
  627SOL    HW1 1880   1.482   1.027   2.820 -2.2720  2.5999  1.2476
  627SOL    HW2 1881   1.526   1.183   2.873  0.2545 -1.2308  1.4899
  628SOL     OW 1882   1.157   0.836   2.797 -0.0959  0.0595 -0.1633
  628SOL    HW1 1883   1.203   0.791   2.878  2.6851  0.5226  1.8743
  628SOL    HW2 1884   1.218   0.845   2.713  1.5544  1.4873 -2.0718
  629SOL     OW 1885   0.191   0.271   1.613 -0.0392  0.2035 -0.1963
  629SOL    HW1 1886   0.112   0.208   1.606  2.4689  1.2959  0.0704
  629SOL    HW2 1887   0.186   0.338   1.691  1.5864 -2.4911 -1.5089
  630SOL     OW 1888   2.453   0.698   2.125  0.0507 -0.0454  0.4740
  630SOL    HW1 1889   2.357   0.689   2.090 -4.4986 -0.8611  0.1121
  630SOL    HW2 1890   2.460   0.681   2.224  0.4413 -1.6074  2.1437
  631SOL     OW 1891   1.927   0.625   0.818  0.2978  0.3575  0.3424
  631SOL    HW1 1892   1.939   0.649   0.919  0.0943 -0.9349 -1.1480
  631SOL    HW2 1893   2.018   0.629   0.774  1.8173 -1.7601  3.0211
  632SOL     OW 1894   2.881   0.836   1.527  0.4060  0.6030 -0.1298
  632SOL    HW1 1895   2.935   0.777   1.588  0.5949  1.9802 -1.8460
  632SOL    HW2 1896   2.869   0.787   1.433  0.9263  1.0801 -2.1915
  633SOL     OW 1897   0.958   0.142   0.037 -0.3361 -0.4775 -0.3380
  633SOL    HW1 1898   0.917   0.213   3.054  1.2034 -0.8860 -0.6083
  633SOL    HW2 1899   0.938   0.049   0.006  0.5310  0.4701 -1.2551
  634SOL     OW 1900   0.897   2.454   2.880 -0.1249 -0.0296 -0.2427
  634SOL    HW1 1901   0.857   2.465   2.974 -0.1356 -0.7218  1.5571
  634SOL    HW2 1902   0.850   2.517   2.813  0.0088  1.6723 -0.2757
  635SOL     OW 1903   3.039   0.411   0.440 -0.5558 -0.0987  0.9305
  635SOL    HW1 1904   0.026   0.402   0.515  2.2857  0.2107  0.4804
  635SOL    HW2 1905   2.965   0.340   0.446  2.3895 -1.9794 -1.3652
  636SOL     OW 1906   0.609   0.891   0.335  0.4614  0.1960  0.3094
  636SOL    HW1 1907   0.648   0.952   0.268 -1.4828 -0.1622  3.1629
  636SOL    HW2 1908   0.546   0.829   0.283  0.5824  1.5328 -1.5206
  637SOL     OW 1909   0.372   2.561   0.245  0.4380  0.2886 -0.2935
  637SOL    HW1 1910   0.341   2.464   0.247  0.9942 -0.6682  0.6770
  637SOL    HW2 1911   0.301   2.614   0.187 -4.2060  0.6560  0.1588
  638SOL     OW 1912   0.111   2.412   0.506  0.0202  0.4246 -0.2402
  638SOL    HW1 1913   0.191   2.409   0.564 -0.5162 -0.8670 -2.0155
  638SOL    HW2 1914   0.073   2.319   0.504 -1.6259  0.7607 -0.6081
  639SOL     OW 1915   1.399   1.164   0.113  0.1695 -0.2951  0.0858
  639SOL    HW1 1916   1.337   1.170   0.033 -2.8817  0.6051 -0.9448
  639SOL    HW2 1917   1.402   1.253   0.165 -1.3427  0.5373  1.0308
  640SOL     OW 1918   1.580   2.151   1.348  0.0183 -0.1695  0.4539
  640SOL    HW1 1919   1.588   2.242   1.397 -1.8521 -0.6490 -1.9077
  640SOL    HW2 1920   1.542   2.165   1.250  3.7522  2.1795 -2.1353
  641SOL     OW 1921   2.951   2.375   1.265 -0.3861  0.3235  0.1748
  641SOL    HW1 1922   2.990   2.458   1.312 -0.8500  0.1499 -1.4526
  641SOL    HW2 1923   2.943   2.385   1.166  1.8060  0.8163  0.3224
  642SOL     OW 1924   0.760   2.830   1.769  0.0398 -0.5421  0.2425
  642SOL    HW1 1925   0.734   2.929   1.765  0.4993 -0.5466  0.9401
  642SOL    HW2 1926   0.710   2.784   1.842  2.8169 -1.2299 -0.3920
  643SOL     OW 1927   0.792   2.200   2.853 -0.8431 -0.7090  0.2668
  643SOL    HW1 1928   0.817   2.298   2.837 -2.0632 -0.1105  4.7844
  643SOL    HW2 1929   0.848   2.156   2.921  1.6869  0.5888 -0.1565
  644SOL     OW 1930   1.262   2.590   0.789  0.0115 -0.5303 -0.3012
  644SOL    HW1 1931   1.306   2.570   0.699  1.4232 -0.3985  0.0969
  644SOL    HW2 1932   1.168   2.617   0.771  0.1707  0.1255  0.4820
  645SOL     OW 1933   1.205   1.318   1.909 -0.3079 -0.3546  0.3844
  645SOL    HW1 1934   1.171   1.339   1.813 -1.3547  1.0163 -0.1945
  645SOL    HW2 1935   1.208   1.219   1.930  2.2687 -0.9269 -0.2087
  646SOL     OW 1936   0.415   0.730   0.226 -0.2704 -0.2634 -0.1387
  646SOL    HW1 1937   0.422   0.627   0.236 -0.2895 -1.0618  0.7854
  646SOL    HW2 1938   0.327   0.767   0.262 -2.4825  0.0863 -2.5744
  647SOL     OW 1939   1.437   0.400   0.697  0.0312  0.0159 -0.5942
  647SOL    HW1 1940   1.371   0.467   0.738  0.4944 -0.6151 -0.9556
  647SOL    HW2 1941   1.390   0.326   0.647  2.5196 -0.1431 -2.0874
  648SOL     OW 1942   2.110   2.598   1.045 -0.1420  0.4119  0.0909
  648SOL    HW1 1943   2.091   2.582   1.143  2.2426 -0.1550 -1.0481
  648SOL    HW2 1944   2.052   2.539   0.987  2.0597 -0.5330  1.6087
  649SOL     OW 1945   0.488   1.868   2.925  0.0756 -0.0793  0.3265
  649SOL    HW1 1946   0.518   1.966   2.928 -0.4320  0.4001  2.9341
  649SOL    HW2 1947   0.464   1.836   3.021 -2.0380 -1.5148  0.6889
  650SOL     OW 1948   2.313   1.938   1.855 -0.3255 -0.1440 -0.7510
  650SOL    HW1 1949   2.212   1.944   1.843 -2.2457  0.6891  0.8928
  650SOL    HW2 1950   2.350   1.897   1.772 -1.2845 -0.4192 -0.0732
  651SOL     OW 1951   0.097   0.038   2.862 -0.1166  0.4931  0.3951
  651SOL    HW1 1952   0.012   3.058   2.877  0.2159 -2.1288  0.3394
  651SOL    HW2 1953   0.079   0.109   2.790  0.5688 -3.7172 -1.1034
  652SOL     OW 1954   2.595   1.706   0.246 -0.6544  0.0896  0.3040
  652SOL    HW1 1955   2.614   1.695   0.350  0.1105 -0.1979  2.8232
  652SOL    HW2 1956   2.523   1.773   0.224 -2.5699 -0.5469 -0.6339
  653SOL     OW 1957   0.019   0.228   0.898  0.3862 -0.0734  0.1773
  653SOL    HW1 1958   3.015   0.248   0.949 -1.9419 -0.1873  0.4776
  653SOL    HW2 1959   0.103   0.257   0.951 -0.6757 -0.6177  1.0774
  654SOL     OW 1960   1.081   2.820   0.442 -0.0259  1.1497  0.1446
  654SOL    HW1 1961   1.119   2.729   0.471 -0.1587  1.5943  0.8289
  654SOL    HW2 1962   1.002   2.805   0.378 -3.4582 -1.6322 -1.0722
  655SOL     OW 1963   0.532   2.782   1.312 -0.2903 -0.4765  0.7529
  655SOL    HW1 1964   0.525   2.830   1.404 -0.8024  0.8823  0.8622
  655SOL    HW2 1965   0.518   2.684   1.326 -1.6053  1.6118 -1.8033
  656SOL     OW 1966   0.241   2.921   2.143 -0.1221  0.4599 -0.0443
  656SOL    HW1 1967   0.322   2.965   2.185  0.8258  1.2938  0.3595
  656SOL    HW2 1968   0.161   2.983   2.132 -2.3896  0.9383 -0.0178
  657SOL     OW 1969   1.789   0.487   2.370 -0.3274  0.3502  0.8675
  657SOL    HW1 1970   1.778   0.448   2.466 -0.5424  1.2379  2.3600
  657SOL    HW2 1971   1.890   0.500   2.355 -0.2868 -0.8307  2.8967
  658SOL     OW 1972   1.738   1.457   1.155 -0.2024 -0.3632 -0.0675
  658SOL    HW1 1973   1.675   1.416   1.220  1.8293 -1.4983 -0.1284
  658SOL    HW2 1974   1.823   1.479   1.207 -1.5285  0.6124  0.1027
  659SOL     OW 1975   2.598   2.652   2.832 -0.4287  0.2891  0.2418
  659SOL    HW1 1976   2.565   2.733   2.785  1.0618 -2.1897  0.5295
  659SOL    HW2 1977   2.690   2.672   2.874  3.5231 -0.2732  0.4979
  660SOL     OW 1978   1.206   0.703   3.060 -0.3658 -0.1045 -0.2953
  660SOL    HW1 1979   1.210   0.639   0.063 -0.0209  4.3176 -0.3592
  660SOL    HW2 1980   1.187   0.800   0.012 -0.3572  0.7820  1.4707
  661SOL     OW 1981   2.581   2.883   0.769  0.0047 -0.4100 -0.6834
  661SOL    HW1 1982   2.663   2.914   0.714 -0.3014 -1.3842  0.2357
  661SOL    HW2 1983   2.596   2.914   0.867  0.9840  0.4494 -1.1968
  662SOL     OW 1984   0.831   0.579   0.983 -0.3559 -0.5312 -0.9144
  662SOL    HW1 1985   0.811   0.527   1.069 -1.6941  1.7878  0.9925
  662SOL    HW2 1986   0.750   0.638   0.959 -1.6387 -1.0904  0.1586
  663SOL     OW 1987   1.530   2.423   2.421  0.0006 -0.2728  0.0975
  663SOL    HW1 1988   1.517   2.367   2.505  0.6398 -0.6220 -0.4484
  663SOL    HW2 1989   1.438   2.431   2.371  0.9173  0.7737 -1.5468
  664SOL     OW 1990   0.580   2.267   1.253  0.3392  0.1758  0.1004
  664SOL    HW1 1991   0.663   2.333   1.242 -1.7513  0.0798 -1.4795
  664SOL    HW2 1992   0.597   2.181   1.303 -1.9494 -1.3417  1.0034
  665SOL     OW 1993   1.184   2.154   1.611  0.0018  0.2742 -0.4296
  665SOL    HW1 1994   1.106   2.106   1.659 -3.0951 -1.1089 -2.3222
  665SOL    HW2 1995   1.235   2.086   1.552  1.1722  0.4889 -1.4818
  666SOL     OW 1996   0.319   2.824   2.801  0.1008  0.4408  0.6187
  666SOL    HW1 1997   0.352   2.847   2.711 -0.7717  0.1790 -1.3832
  666SOL    HW2 1998   0.248   2.757   2.802 -0.8563  1.1992 -1.0612
  667SOL     OW 1999   1.338   1.715   1.087 -0.1398  0.0752  0.1163
  667SOL    HW1 2000   1.405   1.638   1.087  0.1686  1.0524  0.1327
  667SOL    HW2 2001   1.279   1.710   1.168 -0.5675  0.8612 -0.4494
  668SOL     OW 2002   1.071   0.251   2.409  0.1565  0.1340 -0.7011
  668SOL    HW1 2003   1.121   0.309   2.477 -0.5453 -0.6962  0.9611
  668SOL    HW2 2004   1.103   0.155   2.420 -2.0564  1.5821 -0.1755
  669SOL     OW 2005   1.980   2.454   1.570 -0.6120  0.5017 -0.4470
  669SOL    HW1 2006   1.893   2.419   1.530 -0.0448  0.5373  0.4037
  669SOL    HW2 2007   2.042   2.372   1.580 -0.7061 -1.6771 -0.8921
  670SOL     OW 2008   1.943   1.903   0.247 -0.5978 -0.3504  0.1336
  670SOL    HW1 2009   2.002   1.946   0.311 -0.9480 -0.2192 -4.1759
  670SOL    HW2 2010   1.969   1.914   0.148  0.5243 -0.8851 -1.8813
  671SOL     OW 2011   1.296   1.043   0.814 -0.1572  0.3230  0.5491
  671SOL    HW1 2012   1.364   0.971   0.791  0.0830  0.0676 -1.0012
  671SOL    HW2 2013   1.347   1.122   0.851  0.2727  2.2943 -0.5423
  672SOL     OW 2014   2.490   1.302   2.308  0.1996 -0.3595  0.2829
  672SOL    HW1 2015   2.536   1.372   2.251 -0.2610  0.3318  1.2153
  672SOL    HW2 2016   2.561   1.237   2.335 -0.5818  2.3217  0.4814
  673SOL     OW 2017   2.839   1.675   2.137  0.1429  0.1510 -0.0511
  673SOL    HW1 2018   2.916   1.685   2.073 -1.8567  1.3843 -0.0469
  673SOL    HW2 2019   2.817   1.763   2.185  0.5642 -2.8039 -1.1795
  674SOL     OW 2020   0.895   2.458   2.480  0.0463  0.8379 -0.0801
  674SOL    HW1 2021   0.813   2.482   2.430  3.8492 -1.9194  1.3995
  674SOL    HW2 2022   0.872   2.399   2.557 -1.2122 -0.7180 -3.1489
  675SOL     OW 2023   0.746   1.135   1.582  0.7792  0.2489 -0.2251
  675SOL    HW1 2024   0.796   1.059   1.540 -0.0546  0.6673  0.0931
  675SOL    HW2 2025   0.791   1.174   1.663 -0.1798  0.9639  1.3672
  676SOL     OW 2026   2.174   0.661   0.731 -0.9237 -0.0348  0.1974
  676SOL    HW1 2027   2.178   0.689   0.635 -0.9951 -1.1132 -2.7262
  676SOL    HW2 2028   2.210   0.567   0.738  1.8853 -0.8681 -1.6445
  677SOL     OW 2029   2.514   1.617   2.633  0.6966 -0.7490 -0.2655
  677SOL    HW1 2030   2.601   1.569   2.655 -0.0998  1.8275  2.2248
  677SOL    HW2 2031   2.437   1.569   2.685 -4.0249 -0.1097  1.7235
  678SOL     OW 2032   0.060   2.940   0.921  0.0126 -0.3156 -0.2688
  678SOL    HW1 2033   3.047   2.895   0.901 -2.7134 -1.1845 -2.3702
  678SOL    HW2 2034   0.043   3.020   0.982 -0.3508 -0.9015  0.0137
  679SOL     OW 2035   2.541   0.297   0.333  0.7748  0.0014  0.0654
  679SOL    HW1 2036   2.560   0.348   0.246  0.5019  2.8560  0.0649
  679SOL    HW2 2037   2.556   0.194   0.327  0.4509  3.3386 -0.6615
  680SOL     OW 2038   0.181   2.468   1.994 -0.2554 -0.4840 -0.1138
  680SOL    HW1 2039   0.170   2.406   1.909  0.5075 -1.0043 -0.8602
  680SOL    HW2 2040   0.180   2.408   2.077  0.5116 -2.5072  0.1162
  681SOL     OW 2041   2.117   1.706   1.542  0.2854 -0.2845 -0.0065
  681SOL    HW1 2042   2.054   1.716   1.464  0.3161 -0.8547 -0.3575
  681SOL    HW2 2043   2.082   1.628   1.593  0.0898 -0.2485  0.6145
  682SOL     OW 2044   3.070   2.149   2.176 -0.0542 -0.8415  1.2921
  682SOL    HW1 2045   2.991   2.159   2.108 -0.5424 -0.5707 -0.6967
  682SOL    HW2 2046   0.034   2.242   2.198  0.2026 -2.2467  2.5375
  683SOL     OW 2047   2.983   2.115   1.350 -0.3636 -0.6027 -0.4481
  683SOL    HW1 2048   2.962   2.059   1.268  0.9174 -1.9293  1.3544
  683SOL    HW2 2049   2.976   2.218   1.330  0.2504  2.3896 -3.4412
  684SOL     OW 2050   2.194   1.007   2.367 -0.7517 -0.3959 -0.2909
  684SOL    HW1 2051   2.158   1.069   2.439  0.8094 -2.5363 -0.8949
  684SOL    HW2 2052   2.233   1.061   2.290 -1.8161 -2.4417  0.8761
  685SOL     OW 2053   1.552   1.071   0.503 -0.3331  0.2721  0.2624
  685SOL    HW1 2054   1.527   0.995   0.561 -1.4689  1.9396  2.6243
  685SOL    HW2 2055   1.628   1.128   0.534 -1.0849 -0.6980 -0.3286
  686SOL     OW 2056   0.629   0.006   0.784 -0.2032 -0.1195 -0.1537
  686SOL    HW1 2057   0.614   0.012   0.888 -2.7362 -1.0617 -0.0476
  686SOL    HW2 2058   0.709   0.066   0.750  2.4080  0.0183 -2.7225
  687SOL     OW 2059   1.578   1.390   2.248  0.7921 -0.6714 -0.1318
  687SOL    HW1 2060   1.603   1.403   2.346 -3.1428 -0.6275 -0.3495
  687SOL    HW2 2061   1.481   1.428   2.237 -2.7446 -0.2249  0.2732
  688SOL     OW 2062   1.241   1.667   1.353 -0.2470 -0.0411  0.0650
  688SOL    HW1 2063   1.148   1.626   1.371 -0.6637  2.7294 -1.7060
  688SOL    HW2 2064   1.311   1.634   1.423  0.9009  0.8654 -1.7874
  689SOL     OW 2065   1.994   0.342   1.307  0.2291 -0.3293  0.8065
  689SOL    HW1 2066   2.025   0.389   1.219 -0.8632  1.6507  0.6162
  689SOL    HW2 2067   2.073   0.304   1.355 -1.6439 -2.2608  0.1493
  690SOL     OW 2068   0.070   1.716   1.037  0.0787 -0.3760  0.0920
  690SOL    HW1 2069   0.132   1.788   0.991 -1.3109  1.9107 -1.3788
  690SOL    HW2 2070   0.087   1.623   0.997  0.5921 -0.6233 -1.4334
  691SOL     OW 2071   0.504   2.602   1.062  0.6599 -0.5494  0.4748
  691SOL    HW1 2072   0.602   2.620   1.036  1.9644  1.3080 -0.5111
  691SOL    HW2 2073   0.465   2.542   0.991  0.5739 -0.7021 -0.0946
  692SOL     OW 2074   2.287   0.248   1.860 -0.3455  0.0550  0.1318
  692SOL    HW1 2075   2.271   0.154   1.893 -0.2548 -2.8332  0.6096
  692SOL    HW2 2076   2.193   0.292   1.845 -3.2307  0.9973 -2.8720
  693SOL     OW 2077   0.279   2.083   1.909 -0.0015 -0.0182  0.2295
  693SOL    HW1 2078   0.373   2.114   1.884  0.7238 -0.0705  2.4823
  693SOL    HW2 2079   0.275   2.031   1.996 -0.9014  1.0070 -1.0643
  694SOL     OW 2080   1.520   1.306   1.705 -0.1095 -0.0823 -0.6599
  694SOL    HW1 2081   1.439   1.292   1.645 -0.4459  0.6719  0.2790
  694SOL    HW2 2082   1.582   1.378   1.666  0.4486 -2.5283 -0.2594
  695SOL     OW 2083   0.510   1.218   0.923 -0.3760  0.6003  0.2122
  695SOL    HW1 2084   0.442   1.267   0.863  1.4120 -0.7201  0.0497
  695SOL    HW2 2085   0.575   1.282   0.968  0.4823 -2.0477  0.5978
  696SOL     OW 2086   1.300   0.065   0.684  0.4617 -0.0463  0.0050
  696SOL    HW1 2087   1.301   0.141   0.609  1.0756  2.4093 -1.0853
  696SOL    HW2 2088   1.341   0.097   0.770  1.1690  0.9841  1.3076
  697SOL     OW 2089   1.333   0.252   1.699  0.1473 -0.0764 -0.0695
  697SOL    HW1 2090   1.310   0.303   1.784 -1.0403  1.3640 -2.7652
  697SOL    HW2 2091   1.339   0.151   1.722  1.5967  0.2000  0.2178
  698SOL     OW 2092   1.887   1.204   2.251  0.3130 -0.4639 -0.0264
  698SOL    HW1 2093   1.857   1.167   2.340  0.2842  0.4136 -1.3079
  698SOL    HW2 2094   1.846   1.295   2.236  2.9896 -0.5434 -1.3359
  699SOL     OW 2095   2.210   0.239   1.425  0.1720 -0.6771  0.0952
  699SOL    HW1 2096   2.292   0.274   1.475 -2.2177 -1.0229  1.7856
  699SOL    HW2 2097   2.152   0.200   1.493  1.1950  1.3323 -1.5173
  700SOL     OW 2098   0.965   2.077   0.418  0.0905  0.5193  0.6451
  700SOL    HW1 2099   0.944   1.977   0.389  0.4032 -2.9481 -1.0049
  700SOL    HW2 2100   1.003   2.079   0.512 -3.8245 -1.3712  3.4819
  701SOL     OW 2101   2.209   2.780   2.716 -0.1393  0.0212 -0.4146
  701SOL    HW1 2102   2.241   2.697   2.665 -0.1549 -0.7140 -1.6164
  701SOL    HW2 2103   2.123   2.766   2.771  2.0590 -2.9026 -0.1164
  702SOL     OW 2104   1.097   3.040   1.108  0.1903 -0.0536 -0.4326
  702SOL    HW1 2105   1.019   3.002   1.059  1.0272  0.7724 -0.4593
  702SOL    HW2 2106   1.134   0.045   1.057 -2.2386  1.7583 -0.7581
  703SOL     OW 2107   2.502   0.139   2.230 -0.1815 -0.2820  0.0480
  703SOL    HW1 2108   2.428   0.181   2.181  4.2644 -1.6913  1.3192
  703SOL    HW2 2109   2.504   0.038   2.220  1.7142  1.2807  3.2674
  704SOL     OW 2110   0.060   2.175   0.111  0.0828  0.1247  0.2306
  704SOL    HW1 2111   0.047   2.123   0.197  1.9286 -2.9695  1.5909
  704SOL    HW2 2112   3.049   2.205   0.072 -1.5028 -0.5004  1.5954
  705SOL     OW 2113   2.476   2.956   2.182  0.6546 -0.0669  0.7795
  705SOL    HW1 2114   2.391   2.903   2.144  0.9364 -2.0034  0.7874
  705SOL    HW2 2115   2.558   2.907   2.144  0.2304  0.9700 -1.0124
  706SOL     OW 2116   2.258   2.806   0.974 -0.7719  0.1816  0.2809
  706SOL    HW1 2117   2.184   2.739   1.006 -0.5219  3.6306 -0.8763
  706SOL    HW2 2118   2.347   2.788   1.021  1.9021 -2.0318  0.8347
  707SOL     OW 2119   0.991   2.856   2.417 -0.0754 -0.1694 -0.5193
  707SOL    HW1 2120   0.965   2.787   2.346 -0.5335  1.1003  1.5754
  707SOL    HW2 2121   0.928   2.935   2.426  0.2171 -1.4341  0.1169
  708SOL     OW 2122   2.769   2.261   1.646 -0.2329  0.0312 -0.1490
  708SOL    HW1 2123   2.834   2.323   1.700 -0.6582 -0.7285 -1.0324
  708SOL    HW2 2124   2.818   2.170   1.643  0.6096 -0.1926 -0.1497
  709SOL     OW 2125   1.560   0.581   1.521  0.9500 -0.4340  0.7173
  709SOL    HW1 2126   1.536   0.644   1.444  1.4360  1.0467 -1.1175
  709SOL    HW2 2127   1.636   0.519   1.500 -1.7761 -0.0868  0.3807
  710SOL     OW 2128   0.983   3.043   2.776 -0.3577  0.2491  0.0297
  710SOL    HW1 2129   1.067   2.986   2.784  1.9801  0.0435 -0.1677
  710SOL    HW2 2130   1.007   0.061   2.785  1.7971 -1.4915  0.8872
  711SOL     OW 2131   0.747   1.879   2.620 -0.1561  0.3475 -0.0003
  711SOL    HW1 2132   0.662   1.933   2.634  0.7104  2.2836 -0.6847
  711SOL    HW2 2133   0.753   1.805   2.692  0.2881  0.2378 -0.2293
  712SOL     OW 2134   0.899   2.047   3.041  0.0154 -1.1518  0.8922
  712SOL    HW1 2135   0.828   2.005   0.022  2.1939 -1.9050  4.8575
  712SOL    HW2 2136   0.946   1.975   2.989 -0.1163 -0.8854  0.1579
  713SOL     OW 2137   1.944   0.803   2.315 -0.1328 -0.0814 -0.3372
  713SOL    HW1 2138   2.013   0.874   2.335 -1.6249 -2.9836  1.5391
  713SOL    HW2 2139   1.969   0.716   2.360 -1.6256  2.8968 -0.0852
  714SOL     OW 2140   1.103   1.654   1.663 -0.9520 -0.3426 -0.3645
  714SOL    HW1 2141   1.196   1.693   1.673  0.5449  0.2336  0.6061
  714SOL    HW2 2142   1.040   1.732   1.634 -1.3604  0.8949  0.6226
  715SOL     OW 2143   2.173   0.347   2.974 -0.2394 -0.4145 -0.0718
  715SOL    HW1 2144   2.190   0.340   3.074 -0.3096 -0.4565  0.5442
  715SOL    HW2 2145   2.138   0.257   2.943  0.2091  1.1321  1.7152
  716SOL     OW 2146   2.695   2.374   1.392  0.0933  0.6839 -0.4535
  716SOL    HW1 2147   2.714   2.340   1.486 -0.4734 -0.5225  0.3241
  716SOL    HW2 2148   2.778   2.379   1.335  0.6230  1.2097  2.1151
  717SOL     OW 2149   2.588   1.112   0.913  0.0364 -0.1068 -0.7119
  717SOL    HW1 2150   2.489   1.086   0.909 -1.7576 -0.5591  0.9205
  717SOL    HW2 2151   2.628   1.080   0.824 -0.7008 -1.9569  2.4594
  718SOL     OW 2152   1.430   1.598   1.549 -0.1295 -0.5844 -0.0261
  718SOL    HW1 2153   1.534   1.592   1.538  0.8123  0.3062 -0.6294
  718SOL    HW2 2154   1.414   1.655   1.628 -2.0491 -2.0055 -1.8718
  719SOL     OW 2155   2.836   0.474   0.034  0.1815 -0.2941 -0.3811
  719SOL    HW1 2156   2.824   0.527   3.027  0.8384 -0.8408  1.1385
  719SOL    HW2 2157   2.892   0.389   0.011 -1.3650 -0.4220  1.0183
  720SOL     OW 2158   0.987   0.361   0.913  0.0804  0.0734 -0.2455
  720SOL    HW1 2159   0.929   0.446   0.923 -2.2339 -1.3022  0.8152
  720SOL    HW2 2160   0.964   0.316   0.828  1.0818  1.5360 -0.3154
  721SOL     OW 2161   2.544   0.824   0.631 -0.2900  0.0556  0.2110
  721SOL    HW1 2162   2.599   0.770   0.560 -0.4686 -0.7770 -1.9081
  721SOL    HW2 2163   2.593   0.905   0.671  1.1149  0.2730 -1.0807
  722SOL     OW 2164   0.409   2.651   2.504  0.4970  0.1233  0.1618
  722SOL    HW1 2165   0.468   2.573   2.501 -0.3742  0.7227 -0.2486
  722SOL    HW2 2166   0.373   2.663   2.407  0.9392 -1.7354 -0.3788
  723SOL     OW 2167   1.935   0.226   0.571 -0.3756 -0.6856  0.3202
  723SOL    HW1 2168   1.995   0.198   0.648 -1.6522 -2.1636 -3.5962
  723SOL    HW2 2169   1.843   0.255   0.601  0.9168  1.1202  2.4134
  724SOL     OW 2170   1.156   1.853   2.293 -0.5371  0.7811 -0.0265
  724SOL    HW1 2171   1.073   1.878   2.346  0.0724 -0.8574  0.5374
  724SOL    HW2 2172   1.136   1.813   2.200  0.9723  1.0647  0.3264
  725SOL     OW 2173   1.581   2.947   1.565  0.4641 -0.1072 -0.0703
  725SOL    HW1 2174   1.535   2.922   1.477 -2.0376  0.6798 -0.1007
  725SOL    HW2 2175   1.625   2.860   1.605 -1.1057 -3.3206  3.5789
  726SOL     OW 2176   2.359   2.802   0.051 -0.3957 -0.1464  0.2154
  726SOL    HW1 2177   2.338   2.865   3.053  0.0879  0.9159  1.8055
  726SOL    HW2 2178   2.456   2.816   0.081  0.2327  0.9904  1.9794
  727SOL     OW 2179   1.266   2.138   0.880 -0.0874 -0.1229 -0.1760
  727SOL    HW1 2180   1.351   2.104   0.830  1.5730 -0.6689  0.0556
  727SOL    HW2 2181   1.213   2.203   0.820  1.2434  0.4544  1.4823
  728SOL     OW 2182   2.334   2.640   2.436 -0.0325  0.0215 -0.2055
  728SOL    HW1 2183   2.356   2.739   2.448  1.7605 -0.0995 -0.2160
  728SOL    HW2 2184   2.246   2.627   2.394  2.5993  0.4328  2.4454
  729SOL     OW 2185   1.865   2.184   1.361 -0.5590  0.2927 -0.2697
  729SOL    HW1 2186   1.875   2.252   1.282  1.7237  3.4917 -1.5357
  729SOL    HW2 2187   1.771   2.146   1.371  1.9754 -2.7757 -1.6184
  730SOL     OW 2188   1.722   0.604   2.753 -0.0466 -0.0600  0.6605
  730SOL    HW1 2189   1.663   0.678   2.784  3.2154 -2.6578 -0.6131
  730SOL    HW2 2190   1.805   0.636   2.703 -1.5895  0.7689  0.1080
  731SOL     OW 2191   0.984   0.012   1.364 -0.8992  0.0664 -0.0107
  731SOL    HW1 2192   1.027   3.033   1.297 -0.3547  1.3524  1.3170
  731SOL    HW2 2193   0.889   3.063   1.387  1.9870 -0.8994  1.8231
  732SOL     OW 2194   1.418   0.129   0.913 -0.1000  0.5488  0.0254
  732SOL    HW1 2195   1.324   0.164   0.939 -1.6901  0.2501  0.7994
  732SOL    HW2 2196   1.488   0.194   0.951 -1.4745  1.2772 -0.9494
  733SOL     OW 2197   0.845   1.274   0.966 -0.1469  0.2987 -0.6272
  733SOL    HW1 2198   0.862   1.183   1.005  0.1755  2.3352 -0.8308
  733SOL    HW2 2199   0.783   1.328   1.022  2.1877  2.4554 -0.7789
  734SOL     OW 2200   2.808   2.692   2.624 -0.5997 -0.3390  0.4074
  734SOL    HW1 2201   2.773   2.600   2.612 -1.0705  3.4243 -0.7680
  734SOL    HW2 2202   2.735   2.763   2.652  0.4281  2.4468  1.3039
  735SOL     OW 2203   0.718   3.021   1.394 -0.3444  0.3730 -0.0083
  735SOL    HW1 2204   0.651   2.951   1.434 -0.1416 -1.3541  0.8877
  735SOL    HW2 2205   0.671   3.077   1.327  3.0953  0.3939  0.0561
  736SOL     OW 2206   1.640   1.830   3.030  0.4099  0.2585 -0.5774
  736SOL    HW1 2207   1.546   1.812   3.065 -0.1389  0.2341 -0.4996
  736SOL    HW2 2208   1.678   1.914   3.070 -2.2602 -3.6898 -0.3862
  737SOL     OW 2209   0.181   2.089   1.306  0.0017  0.3624  0.3360
  737SOL    HW1 2210   0.192   2.103   1.204  0.2249 -1.0474 -1.9526
  737SOL    HW2 2211   0.080   2.108   1.328 -0.5789 -0.9362  0.3728
  738SOL     OW 2212   1.765   2.621   2.905  0.6683  0.2823  0.6954
  738SOL    HW1 2213   1.663   2.644   2.890  1.1448 -0.9364  0.1558
  738SOL    HW2 2214   1.772   2.570   2.993  0.3893  1.4717 -3.0347
  739SOL     OW 2215   1.228   2.122   2.333  0.5490 -0.2540 -0.0337
  739SOL    HW1 2216   1.257   2.142   2.428 -1.7883 -0.4580 -1.9985
  739SOL    HW2 2217   1.198   2.025   2.323 -0.6449 -0.2482  1.4684
  740SOL     OW 2218   1.198   2.660   1.223  0.2186 -0.0832 -0.3347
  740SOL    HW1 2219   1.206   2.580   1.162  2.3711  1.8815 -0.6557
  740SOL    HW2 2220   1.239   2.743   1.178 -1.2239  1.4796 -1.4510
  741SOL     OW 2221   2.858   1.037   0.298  0.2408  0.4388  0.7206
  741SOL    HW1 2222   2.804   1.082   0.369 -0.3452 -0.6747 -0.5061
  741SOL    HW2 2223   2.906   1.098   0.232  0.0786  0.0494  1.1350
  742SOL     OW 2224   0.816   1.629   2.482 -0.0922  0.1682  0.5647
  742SOL    HW1 2225   0.805   1.634   2.379  1.8393  0.4215 -0.0104
  742SOL    HW2 2226   0.761   1.707   2.525  0.8308  0.6232 -0.4669
  743SOL     OW 2227   0.918   0.870   2.485 -0.1322  0.2040 -0.7914
  743SOL    HW1 2228   0.821   0.875   2.452 -0.5207  1.4655  0.7910
  743SOL    HW2 2229   0.945   0.773   2.501 -0.8140  2.0213 -0.6883
  744SOL     OW 2230   2.023   2.740   1.492  0.1670  0.3692 -0.0834
  744SOL    HW1 2231   2.032   2.752   1.594  1.5847 -0.5543 -0.3654
  744SOL    HW2 2232   2.027   2.828   1.436 -2.9252 -0.2129 -0.7313
  745SOL     OW 2233   1.580   1.265   1.350 -0.0797  0.1779 -0.1229
  745SOL    HW1 2234   1.483   1.284   1.378  2.0317  0.6704  1.6491
  745SOL    HW2 2235   1.627   1.223   1.428 -3.2787 -0.0518 -2.2189
  746SOL     OW 2236   1.685   0.743   0.850  0.0697 -0.3466  0.1164
  746SOL    HW1 2237   1.689   0.822   0.919 -1.5832  1.7121  1.2535
  746SOL    HW2 2238   1.773   0.686   0.846  0.3572 -1.0156  0.0610
  747SOL     OW 2239   2.008   1.771   0.863 -0.1719 -0.1076 -0.7125
  747SOL    HW1 2240   2.074   1.762   0.784 -1.5051 -3.4667 -0.7341
  747SOL    HW2 2241   1.917   1.750   0.820  0.8404 -3.0366 -0.0477
  748SOL     OW 2242   0.529   1.437   0.160  0.3320 -0.0336  0.2124
  748SOL    HW1 2243   0.495   1.484   0.248  2.3848 -0.7137  1.4231
  748SOL    HW2 2244   0.600   1.502   0.126 -0.4954  1.7394 -0.7519
  749SOL     OW 2245   0.013   2.394   2.586  0.2404  0.1622 -0.0713
  749SOL    HW1 2246   0.070   2.331   2.642  0.5237  1.6846 -0.0691
  749SOL    HW2 2247   2.994   2.372   2.584  1.0529  3.2702 -1.7794
  750SOL     OW 2248   2.147   0.779   1.327 -0.0736  0.2003  0.2216
  750SOL    HW1 2249   2.217   0.710   1.362  4.0334 -2.8670 -0.9961
  750SOL    HW2 2250   2.059   0.774   1.377  0.7863 -1.8196 -1.1104
  751SOL     OW 2251   2.533   0.010   0.302 -0.3191 -0.7716  0.5320
  751SOL    HW1 2252   2.505   3.056   0.209 -0.5392 -2.9978 -0.6139
  751SOL    HW2 2253   2.601   3.029   0.341 -2.9741  1.1636 -2.1225
  752SOL     OW 2254   2.444   2.433   0.377  0.3019 -0.0916 -0.1609
  752SOL    HW1 2255   2.388   2.503   0.428 -3.1237 -1.3054 -1.5065
  752SOL    HW2 2256   2.502   2.388   0.444 -0.9666  1.9888 -1.3528
  753SOL     OW 2257   1.930   1.652   2.419  0.1157  0.0449  0.0196
  753SOL    HW1 2258   1.987   1.582   2.466 -1.2168 -3.2198 -1.6550
  753SOL    HW2 2259   1.974   1.685   2.334 -0.5012 -3.7535 -0.7223
  754SOL     OW 2260   2.213   2.312   1.450 -0.5579  0.2563  0.4926
  754SOL    HW1 2261   2.185   2.235   1.383  1.2317  0.9898 -1.7641
  754SOL    HW2 2262   2.291   2.290   1.516  0.3284 -0.5553 -1.2920
  755SOL     OW 2263   2.223   0.934   1.117  0.1949  0.0373  0.1038
  755SOL    HW1 2264   2.141   0.999   1.112 -1.5534 -0.9431  1.7217
  755SOL    HW2 2265   2.198   0.852   1.174 -0.8566 -0.6110  1.6825
  756SOL     OW 2266   1.255   1.492   2.681  0.4275  0.1357  0.1824
  756SOL    HW1 2267   1.280   1.405   2.636  1.4366  0.4638 -1.0554
  756SOL    HW2 2268   1.198   1.551   2.620 -2.8650 -0.8090  2.6391
  757SOL     OW 2269   1.740   2.569   1.076 -0.1174 -0.1885  0.2413
  757SOL    HW1 2270   1.768   2.649   1.133 -1.7108 -0.0445 -1.4072
  757SOL    HW2 2271   1.698   2.604   0.989  0.4870  0.5989  0.3999
  758SOL     OW 2272   0.798   2.448   1.236  0.3620  0.2093 -0.2870
  758SOL    HW1 2273   0.794   2.553   1.233 -1.0134  0.2247 -1.0204
  758SOL    HW2 2274   0.890   2.402   1.224  3.0044 -0.3967 -1.0945
  759SOL     OW 2275   2.020   1.104   1.081 -0.5899  0.5610 -0.2728
  759SOL    HW1 2276   2.005   1.146   1.171  4.4063  0.4086  1.4496
  759SOL    HW2 2277   2.008   1.167   1.003 -0.7044 -2.0116 -1.5455
  760SOL     OW 2278   2.126   0.943   1.596  0.2033  0.1666  0.2682
  760SOL    HW1 2279   2.044   0.909   1.552  2.2083  2.1135  0.0758
  760SOL    HW2 2280   2.121   1.043   1.612 -0.4958 -0.5705 -0.4360
  761SOL     OW 2281   2.212   2.793   0.277  0.2660  0.1333 -0.3190
  761SOL    HW1 2282   2.223   2.881   0.326  1.0348 -0.9775  0.2517
  761SOL    HW2 2283   2.276   2.791   0.199 -1.0473  2.6964  4.4576
  762SOL     OW 2284   1.993   1.539   2.797  0.5195  0.6472  0.0416
  762SOL    HW1 2285   2.046   1.615   2.748  0.8282  0.2047 -0.9056
  762SOL    HW2 2286   1.949   1.576   2.883  0.1070  0.8398  0.5017
  763SOL     OW 2287   0.389   1.703   1.472  0.4280 -0.0757  0.3018
  763SOL    HW1 2288   0.304   1.760   1.458  0.3809 -2.1062 -2.2187
  763SOL    HW2 2289   0.388   1.657   1.561 -0.8514  2.4642 -1.2763
  764SOL     OW 2290   2.989   2.567   3.056  0.2045 -0.3962 -0.2568
  764SOL    HW1 2291   2.955   2.475   3.073 -2.6288  2.0177 -0.4075
  764SOL    HW2 2292   3.023   2.581   2.963  1.1128  0.3269 -1.1802
  765SOL     OW 2293   0.460   0.063   1.721  0.1485 -0.0100 -0.0349
  765SOL    HW1 2294   0.545   0.015   1.753 -4.1029 -0.3256 -1.1514
  765SOL    HW2 2295   0.403   0.106   1.797  1.2375 -1.4633  0.9511
  766SOL     OW 2296   0.096   1.943   2.318 -0.3130  0.0565 -0.1697
  766SOL    HW1 2297   0.044   2.023   2.275 -2.0810  0.4349 -0.9794
  766SOL    HW2 2298   0.034   1.869   2.349 -1.7496  0.3069 -1.5797
  767SOL     OW 2299   2.987   1.393   1.815 -0.3027 -0.5187  0.1578
  767SOL    HW1 2300   2.965   1.361   1.906 -1.8814  0.5068 -2.8059
  767SOL    HW2 2301   2.905   1.439   1.774 -1.9958  2.0147 -0.7920
  768SOL     OW 2302   0.955   0.438   3.027  0.0347 -0.3600  0.4276
  768SOL    HW1 2303   0.863   0.468   3.056 -0.7563  0.2079 -1.6944
  768SOL    HW2 2304   1.019   0.463   0.024  0.1304  0.0844  0.7619
  769SOL     OW 2305   2.241   2.405   0.652  0.5807  0.1483  0.3132
  769SOL    HW1 2306   2.300   2.405   0.734  0.0914 -2.3149 -2.5334
  769SOL    HW2 2307   2.246   2.495   0.601 -0.7249  0.7853 -2.3545
  770SOL     OW 2308   2.798   0.223   2.749 -0.0556 -0.2972 -0.1314
  770SOL    HW1 2309   2.793   0.234   2.849  0.5374 -0.2016 -1.9510
  770SOL    HW2 2310   2.708   0.170   2.736 -0.3284 -2.5230  1.8210
  771SOL     OW 2311   1.805   2.233   1.805 -0.1079  0.1256 -0.1581
  771SOL    HW1 2312   1.863   2.216   1.722 -1.3649  0.0616 -0.3342
  771SOL    HW2 2313   1.736   2.156   1.809 -2.7736  1.6622  2.3343
  772SOL     OW 2314   0.965   0.227   2.776 -0.1815 -0.1856  0.1908
  772SOL    HW1 2315   0.885   0.215   2.717  0.8537  0.5878 -3.4435
  772SOL    HW2 2316   0.971   0.323   2.805  0.9039  0.7678  0.1162
  773SOL     OW 2317   2.934   1.111   1.679 -0.8946 -0.3652 -0.3296
  773SOL    HW1 2318   2.917   1.020   1.634 -1.5212 -0.8557 -2.0606
  773SOL    HW2 2319   3.010   1.099   1.742  0.5956 -0.5630  1.7364
  774SOL     OW 2320   1.174   0.892   0.535  1.3021  0.2191 -0.1104
  774SOL    HW1 2321   1.181   0.967   0.468  0.1145 -0.7686  1.4911
  774SOL    HW2 2322   1.095   0.916   0.600 -1.0401  0.9524 -1.8115
  775SOL     OW 2323   2.542   3.069   0.017 -0.1554 -0.3850 -0.2530
  775SOL    HW1 2324   2.561   0.089   0.008  0.9375 -0.5390 -0.5980
  775SOL    HW2 2325   2.500   3.027   3.014 -1.4520  1.2383  0.1630
  776SOL     OW 2326   2.541   0.960   2.028 -0.4815  0.1008 -0.3161
  776SOL    HW1 2327   2.520   0.959   1.930 -1.8715  0.7651  1.2564
  776SOL    HW2 2328   2.528   0.871   2.072 -4.5392  2.4341  0.6118
  777SOL     OW 2329   0.002   1.221   2.649 -0.7011  0.3753 -0.0693
  777SOL    HW1 2330   0.031   1.121   2.627 -0.3029 -2.3748 -1.2346
  777SOL    HW2 2331   2.985   1.234   2.617 -0.4400 -0.2540  0.3304
  778SOL     OW 2332   0.807   0.211   0.481  0.3328  0.0438 -0.0539
  778SOL    HW1 2333   0.867   0.167   0.412  1.0230  0.6900  0.5278
  778SOL    HW2 2334   0.714   0.171   0.477 -3.6470 -2.9068  1.1543
  779SOL     OW 2335   0.577   0.470   2.829 -0.0870  0.0337  0.3571
  779SOL    HW1 2336   0.622   0.494   2.909 -3.7379 -4.7300 -1.1780
  779SOL    HW2 2337   0.480   0.494   2.846  2.3274 -1.7830 -0.1035
  780SOL     OW 2338   1.710   0.883   2.479  0.2712  0.2586 -0.0887
  780SOL    HW1 2339   1.659   0.802   2.443  2.1678 -0.2217  1.7192
  780SOL    HW2 2340   1.802   0.861   2.513  0.9988 -0.1139  0.7942
  781SOL     OW 2341   0.147   1.003   1.764 -0.0007 -0.2852 -0.2102
  781SOL    HW1 2342   0.215   0.929   1.764 -0.3982 -0.4862 -0.7516
  781SOL    HW2 2343   0.147   1.047   1.855 -3.3488 -0.7233 -4.4040
  782SOL     OW 2344   0.737   1.717   2.843  0.1706  0.1185 -0.0694
  782SOL    HW1 2345   0.637   1.728   2.843 -2.2190 -1.4867  1.6217
  782SOL    HW2 2346   0.767   1.635   2.899  1.5685 -1.8226 -0.3924
  783SOL     OW 2347   0.881   2.438   1.595 -0.0610 -0.0354  0.0604
  783SOL    HW1 2348   0.832   2.506   1.535 -1.1429  0.6629 -0.5499
  783SOL    HW2 2349   0.972   2.410   1.556  0.3687 -0.9010  0.5135
  784SOL     OW 2350   1.330   0.311   2.937 -0.0471  0.1960 -0.4443
  784SOL    HW1 2351   1.296   0.397   2.891  1.7653  3.6549  0.0304
  784SOL    HW2 2352   1.416   0.333   2.993 -1.0914 -1.8023  0.8400
  785SOL     OW 2353   1.085   0.493   2.649  0.1297  0.2263  0.8034
  785SOL    HW1 2354   1.115   0.534   2.736  0.3938 -1.7338  0.1280
  785SOL    HW2 2355   1.158   0.424   2.614  2.7996 -4.1152  1.0810
  786SOL     OW 2356   0.476   1.607   0.378 -0.0467 -0.0952  0.2057
  786SOL    HW1 2357   0.397   1.605   0.440  2.5660  1.0843  1.5406
  786SOL    HW2 2358   0.555   1.658   0.417 -3.4609 -1.1021 -1.8398
  787SOL     OW 2359   1.559   0.987   0.225 -0.3156  0.1748  0.3970
  787SOL    HW1 2360   1.501   1.059   0.179  1.1231  1.4327  1.3195
  787SOL    HW2 2361   1.564   1.003   0.325 -1.6995  0.1955 -1.8865
  788SOL     OW 2362   1.933   1.516   1.336 -0.2092  0.0873  0.1646
  788SOL    HW1 2363   1.922   1.614   1.325  1.8505 -2.2919  2.1413
  788SOL    HW2 2364   1.961   1.488   1.430 -0.1750  0.9433 -0.5281
  789SOL     OW 2365   0.032   1.725   2.035  0.3403  1.0290  0.2425
  789SOL    HW1 2366   0.052   1.683   1.940  0.0218 -0.2450 -0.5355
  789SOL    HW2 2367   0.105   1.709   2.101 -1.5246  1.5284 -1.1087
  790SOL     OW 2368   0.663   2.841   0.171 -0.4722  0.1552  0.0846
  790SOL    HW1 2369   0.732   2.897   0.116  4.8842 -0.6176 -0.9228
  790SOL    HW2 2370   0.566   2.861   0.142  1.2695  0.0372  1.6953
  791SOL     OW 2371   0.389   0.419   0.288  0.0435  0.0103 -0.3162
  791SOL    HW1 2372   0.438   0.446   0.373 -1.0611  0.4104  2.4606
  791SOL    HW2 2373   0.445   0.354   0.233 -0.2097  0.2584 -0.1485
  792SOL     OW 2374   1.604   0.672   2.351 -0.3526  0.0512  0.1571
  792SOL    HW1 2375   1.649   0.585   2.377  0.0670 -0.0398 -2.0144
  792SOL    HW2 2376   1.654   0.716   2.272 -2.0549  2.3031  1.1307
  793SOL     OW 2377   3.062   0.646   0.829  0.0340 -0.3880 -0.6981
  793SOL    HW1 2378   0.018   0.709   0.758 -1.3577 -2.5583  0.0095
  793SOL    HW2 2379   0.048   0.611   0.896 -0.3332  1.1395  0.1425
  794SOL     OW 2380   0.492   0.466   1.675  0.4320 -0.2170  0.0006
  794SOL    HW1 2381   0.587   0.490   1.703 -1.2823 -0.7187 -1.9647
  794SOL    HW2 2382   0.497   0.376   1.626 -0.8158 -0.9548 -3.3278
  795SOL     OW 2383   0.100   1.138   0.144 -0.1883 -0.1362 -0.1274
  795SOL    HW1 2384   0.176   1.176   0.197 -0.8879 -0.9919 -3.7355
  795SOL    HW2 2385   0.131   1.107   0.052  2.4775  2.5347 -0.8247
  796SOL     OW 2386   0.112   0.635   0.014  0.4003 -1.0236 -0.1210
  796SOL    HW1 2387   0.088   0.559   0.081 -2.2480 -2.2521 -2.3995
  796SOL    HW2 2388   0.125   0.722   0.069  0.0817  3.4284  1.6639
  797SOL     OW 2389   1.363   2.489   3.023  0.2184  0.2507 -0.3812
  797SOL    HW1 2390   1.337   2.573   3.074 -0.0348  0.8199  0.2638
  797SOL    HW2 2391   1.285   2.426   3.002  0.6547 -0.8595  1.4857
  798SOL     OW 2392   2.860   0.600   1.005 -0.4223  0.3205 -0.3618
  798SOL    HW1 2393   2.815   0.507   0.998 -0.1280 -1.7092 -0.3970
  798SOL    HW2 2394   2.932   0.617   0.932  0.3014 -0.6000 -0.8364
  799SOL     OW 2395   2.781   0.679   2.073  0.3874 -0.1862  0.4156
  799SOL    HW1 2396   2.791   0.777   2.096  2.4934  0.9148  0.1903
  799SOL    HW2 2397   2.756   0.622   2.150 -2.0877  3.3632 -1.9094
  800SOL     OW 2398   3.067   2.070   0.356  0.1487 -0.3217  0.1398
  800SOL    HW1 2399   0.049   2.040   0.429  0.9583  0.1106 -0.1000
  800SOL    HW2 2400   2.998   2.140   0.379 -1.1035 -0.5226 -2.1343
  801SOL     OW 2401   1.488   2.031   0.754  0.5245  0.2140 -0.3265
  801SOL    HW1 2402   1.504   1.978   0.672  0.4684  2.1713  0.3527
  801SOL    HW2 2403   1.513   1.978   0.839  1.4882  0.1522 -1.6225
  802SOL     OW 2404   1.100   1.674   2.564 -0.0049  0.3544 -0.2108
  802SOL    HW1 2405   0.998   1.671   2.543  2.1500  0.8416  3.6048
  802SOL    HW2 2406   1.131   1.770   2.587 -0.1684  1.5288  0.1517
  803SOL     OW 2407   2.966   2.048   1.634 -0.0613 -0.5830  0.4964
  803SOL    HW1 2408   2.980   2.081   1.538 -0.4997  1.9893  1.8934
  803SOL    HW2 2409   3.057   2.025   1.682  3.3122 -4.3671  1.2092
  804SOL     OW 2410   1.343   2.532   1.485  0.4612 -0.2625  0.8956
  804SOL    HW1 2411   1.407   2.458   1.504  0.6496 -0.5405  0.4622
  804SOL    HW2 2412   1.356   2.564   1.389  1.2686 -1.6025 -0.0211
  805SOL     OW 2413   2.361   1.936   2.812  0.6821  0.2540  0.1031
  805SOL    HW1 2414   2.321   2.013   2.753 -0.2964  1.0287 -3.4004
  805SOL    HW2 2415   2.400   1.871   2.742  1.8720  0.4824 -0.6692
  806SOL     OW 2416   2.147   3.003   0.579 -0.1151 -0.1994 -0.4789
  806SOL    HW1 2417   2.211   2.938   0.627 -1.4758 -1.5791 -0.9157
  806SOL    HW2 2418   2.051   2.991   0.613  0.8973  0.5998 -0.6816
  807SOL     OW 2419   2.755   0.619   2.892 -0.8396  0.5365  0.1156
  807SOL    HW1 2420   2.741   0.609   2.790  1.1260  1.1080  1.8420
  807SOL    HW2 2421   2.675   0.663   2.937  0.3767 -0.0291 -0.1638
  808SOL     OW 2422   0.638   1.339   0.552  0.2132 -0.6859  0.0872
  808SOL    HW1 2423   0.708   1.315   0.477  2.2531 -0.0969 -3.1310
  808SOL    HW2 2424   0.539   1.334   0.521  0.2137  3.4518 -0.1764
  809SOL     OW 2425   2.617   0.482   1.910  0.2586  0.3442  0.3599
  809SOL    HW1 2426   2.647   0.560   1.967  1.2095  0.8521 -2.2451
  809SOL    HW2 2427   2.578   0.512   1.823 -0.9557 -1.3540  3.6346
  810SOL     OW 2428   1.128   0.603   1.213  0.0833  0.3104  0.5773
  810SOL    HW1 2429   1.139   0.648   1.119  2.6615  0.2652  0.1779
  810SOL    HW2 2430   1.191   0.524   1.225  1.5839  0.0207 -0.4347
  811SOL     OW 2431   2.311   2.898   1.618 -0.1270  0.0545 -0.2646
  811SOL    HW1 2432   2.243   2.938   1.685  0.6854 -0.7089 -0.5684
  811SOL    HW2 2433   2.366   2.825   1.662  2.8277  2.0747  0.8011
  812SOL     OW 2434   1.712   2.077   0.043  0.0698 -0.0598  0.6341
  812SOL    HW1 2435   1.668   2.088   0.136  0.0737 -0.5415  1.2534
  812SOL    HW2 2436   1.807   2.123   0.046  0.6909  0.4718  1.4653
  813SOL     OW 2437   1.130   0.750   1.660 -0.1905  0.0592  0.8215
  813SOL    HW1 2438   1.122   0.770   1.555 -0.3203  0.4157 -3.0925
  813SOL    HW2 2439   1.224   0.764   1.685 -1.0217  0.0810  2.5361
  814SOL     OW 2440   0.671   0.472   1.213  0.3627 -0.1968  0.5151
  814SOL    HW1 2441   0.605   0.520   1.274 -0.8506 -1.1163  2.7280
  814SOL    HW2 2442   0.761   0.454   1.258  0.0041 -0.2233 -3.1267
  815SOL     OW 2443   0.655   0.352   0.687  0.1333 -0.2645  0.2331
  815SOL    HW1 2444   0.742   0.298   0.677  1.0654 -1.8678  2.7039
  815SOL    HW2 2445   0.640   0.375   0.783 -1.3170 -0.1116  0.3423
  816SOL     OW 2446   2.101   1.472   2.523  0.4953 -0.0957 -0.5855
  816SOL    HW1 2447   2.114   1.503   2.619 -0.8858 -0.1858 -0.4698
  816SOL    HW2 2448   2.190   1.482   2.473  0.0683  0.2913  2.2088
  817SOL     OW 2449   1.385   2.827   0.928  0.1836 -0.4567  0.5146
  817SOL    HW1 2450   1.305   2.765   0.925 -2.1634 -0.3970  0.7350
  817SOL    HW2 2451   1.421   2.851   0.833  0.9995  0.6040 -4.0864
  818SOL     OW 2452   1.797   0.429   2.967 -0.1109 -0.0897 -0.1680
  818SOL    HW1 2453   1.858   0.473   3.039  3.5849 -1.6846  0.0165
  818SOL    HW2 2454   1.785   0.487   2.886  3.8921 -0.7109  3.0908
  819SOL     OW 2455   1.788   0.119   0.117 -0.5440  0.0167  0.0067
  819SOL    HW1 2456   1.757   0.083   0.024  2.4444  2.7619 -2.1076
  819SOL    HW2 2457   1.846   0.047   0.168  1.8769 -2.8453  0.1071
  820SOL     OW 2458   2.000   0.559   0.056  0.0844 -0.2619  0.0507
  820SOL    HW1 2459   2.032   0.640   0.002  0.8357  1.1968 -1.2032
  820SOL    HW2 2460   2.080   0.509   0.087 -0.5404  1.6140 -1.7242
  821SOL     OW 2461   2.857   0.566   0.664 -0.1098  0.1841 -0.1676
  821SOL    HW1 2462   2.933   0.608   0.722  1.6873 -1.1245 -0.5198
  821SOL    HW2 2463   2.891   0.515   0.582 -0.2397  0.6366  0.6116
  822SOL     OW 2464   1.031   2.262   2.004  0.0788  0.0876 -0.3112
  822SOL    HW1 2465   1.061   2.291   2.097 -1.4733  0.1553  0.7905
  822SOL    HW2 2466   0.936   2.223   2.008  1.4537 -2.9236 -0.0844
  823SOL     OW 2467   0.116   1.643   1.789 -0.3614  0.7850 -0.1639
  823SOL    HW1 2468   0.205   1.592   1.758  1.8978 -1.9283 -1.3359
  823SOL    HW2 2469   0.045   1.636   1.720  0.6156 -1.5385  1.6436
  824SOL     OW 2470   1.488   2.772   2.626  1.0229  0.1906 -0.5961
  824SOL    HW1 2471   1.562   2.706   2.603 -0.2300  1.3109 -0.2082
  824SOL    HW2 2472   1.453   2.754   2.724  1.8913 -2.0218  0.8026
  825SOL     OW 2473   1.794   0.781   0.426  0.0153  0.0505 -0.0261
  825SOL    HW1 2474   1.841   0.688   0.431  1.3320 -3.7070  0.1790
  825SOL    HW2 2475   1.836   0.843   0.494  0.5093  0.6564  3.0637
  826SOL     OW 2476   1.987   0.821   3.008  0.0623 -0.2809  0.0028
  826SOL    HW1 2477   2.001   0.868   0.017 -0.0788 -0.6084 -1.8342
  826SOL    HW2 2478   1.889   0.822   2.982 -1.3450  0.2059 -1.3752
  827SOL     OW 2479   0.404   1.742   1.936  0.0075  0.0092 -0.0584
  827SOL    HW1 2480   0.374   1.838   1.956 -4.6119 -0.4049  1.7718
  827SOL    HW2 2481   0.400   1.679   2.017 -0.6368 -1.8774 -0.6521
  828SOL     OW 2482   2.164   1.200   1.647 -0.0760 -0.2003  0.0620
  828SOL    HW1 2483   2.207   1.198   1.742  0.7708 -1.5590  1.9970
  828SOL    HW2 2484   2.235   1.238   1.585  1.0457  0.9934  0.9227
  829SOL     OW 2485   0.195   1.709   0.174  0.0271  0.0741 -0.5666
  829SOL    HW1 2486   0.218   1.647   0.256  1.1945 -1.4071  3.6712
  829SOL    HW2 2487   0.106   1.755   0.179  0.5883  0.9307  1.3157
  830SOL     OW 2488   1.482   0.859   0.715  0.3655  0.2180  0.1701
  830SOL    HW1 2489   1.560   0.809   0.761  0.9578 -1.3331 -1.1100
  830SOL    HW2 2490   1.427   0.799   0.653 -1.7224 -0.3633 -1.0011
  831SOL     OW 2491   2.970   1.817   3.004  0.3904  0.0709 -0.4936
  831SOL    HW1 2492   3.006   1.833   2.909 -1.6041 -2.6159 -0.4455
  831SOL    HW2 2493   2.957   1.715   3.005  0.3750  0.9340 -2.9465
  832SOL     OW 2494   0.983   0.085   0.307 -0.1373  0.1718 -0.6008
  832SOL    HW1 2495   1.078   0.061   0.344  0.9056  0.8761 -0.6355
  832SOL    HW2 2496   0.981   0.095   0.209  0.5205  1.1741  2.8176
  833SOL     OW 2497   0.664   0.646   1.983  0.4570  0.0264  0.5406
  833SOL    HW1 2498   0.705   0.645   2.074 -0.0973 -0.0875  3.4012
  833SOL    HW2 2499   0.559   0.645   1.985  1.2170 -1.8497 -0.6511
  834SOL     OW 2500   0.358   0.292   0.907 -0.6113  0.3657 -0.4754
  834SOL    HW1 2501   0.461   0.302   0.920  2.6876  3.0298  2.4680
  834SOL    HW2 2502   0.333   0.263   0.811 -0.4813  1.1845  2.3275
  835SOL     OW 2503   2.702   2.820   1.112  0.2908  0.4185  0.2064
  835SOL    HW1 2504   2.778   2.794   1.179  0.5149 -1.8753  0.5931
  835SOL    HW2 2505   2.690   2.919   1.129  0.3093 -0.7333  0.0052
  836SOL     OW 2506   0.413   1.859   0.104  0.1554  0.8073  0.3931
  836SOL    HW1 2507   0.438   1.937   0.159 -1.7441 -2.0712 -2.3882
  836SOL    HW2 2508   0.323   1.812   0.129  0.9678 -1.5203  1.1651
  837SOL     OW 2509   1.688   1.487   2.476  0.5885  0.1470  0.0185
  837SOL    HW1 2510   1.661   1.498   2.574 -0.9399 -1.4165 -2.1585
  837SOL    HW2 2511   1.765   1.552   2.447  1.8709 -0.4953  1.8672
  838SOL     OW 2512   0.510   1.369   1.988 -0.3889  1.1564  0.4786
  838SOL    HW1 2513   0.610   1.365   1.956  0.2026  0.1449 -1.3720
  838SOL    HW2 2514   0.448   1.350   1.905 -0.3475 -0.6252 -0.2209
  839SOL     OW 2515   0.268   1.328   0.878 -0.2266  0.4539 -0.8831
  839SOL    HW1 2516   0.306   1.351   0.971 -0.1855 -2.5952  0.5286
  839SOL    HW2 2517   0.243   1.235   0.873 -2.1314  3.0519  1.9077
  840SOL     OW 2518   2.009   0.150   1.578  0.1331  0.4923  0.5065
  840SOL    HW1 2519   1.907   0.127   1.560 -4.0341 -3.2949 -0.5691
  840SOL    HW2 2520   2.066   0.072   1.607  0.4057 -0.4044  0.3299
  841SOL     OW 2521   0.757   2.265   0.506  0.2596 -0.5042  0.4204
  841SOL    HW1 2522   0.818   2.351   0.514  2.1664  3.0154 -0.5932
  841SOL    HW2 2523   0.786   2.202   0.430  0.1252 -3.5255  0.4261
  842SOL     OW 2524   0.612   0.354   0.971 -0.4555  0.6953 -0.0195
  842SOL    HW1 2525   0.620   0.415   1.050 -0.6699 -3.0554 -4.6282
  842SOL    HW2 2526   0.684   0.283   0.978 -1.0275 -0.0408  0.4880
  843SOL     OW 2527   0.478   1.246   3.053  0.0636  0.2783  0.2042
  843SOL    HW1 2528   0.469   1.154   0.017 -0.0683  1.7336  1.8794
  843SOL    HW2 2529   0.531   1.307   0.035 -0.4545 -1.8816  0.9806
  844SOL     OW 2530   1.154   2.150   0.021  0.2638 -0.3346 -0.2289
  844SOL    HW1 2531   1.061   2.119   0.038  0.9960  3.0227 -2.0609
  844SOL    HW2 2532   1.156   2.219   3.027  1.2908 -4.6352 -0.3896
  845SOL     OW 2533   2.395   2.893   2.444  0.1380 -0.0256 -0.4342
  845SOL    HW1 2534   2.440   2.921   2.358  0.8045  0.4040  3.2632
  845SOL    HW2 2535   2.354   2.978   2.487  1.7981  2.6840 -0.5162
  846SOL     OW 2536   1.976   1.912   3.038 -0.1548  0.4052  0.2391
  846SOL    HW1 2537   1.996   1.939   2.942  1.4593  1.2660  1.7122
  846SOL    HW2 2538   1.931   1.824   3.025  2.0143  1.9692 -0.5558
  847SOL     OW 2539   2.533   0.250   3.025 -0.1907  0.0787 -0.5531
  847SOL    HW1 2540   2.488   0.275   2.935 -2.2868  1.8363 -2.0418
  847SOL    HW2 2541   2.540   0.329   0.009  1.0688  0.3977 -1.1482
  848SOL     OW 2542   0.391   0.639   0.805 -0.0327 -0.1702  0.0342
  848SOL    HW1 2543   0.480   0.659   0.846 -3.2530 -1.1569  0.0274
  848SOL    HW2 2544   0.331   0.608   0.880  1.3911 -2.2027 -0.1445
  849SOL     OW 2545   1.308   2.885   2.166  0.1083 -0.4347 -0.3585
  849SOL    HW1 2546   1.353   2.830   2.235 -0.9154  1.4051 -1.5597
  849SOL    HW2 2547   1.346   2.858   2.071 -1.3833  0.4981 -1.9223
  850SOL     OW 2548   0.796   1.300   0.312  0.6099 -0.0386 -0.7328
  850SOL    HW1 2549   0.751   1.214   0.273 -0.9995 -0.3431  0.8115
  850SOL    HW2 2550   0.745   1.385   0.284  0.1137 -3.0739  1.4441
  851SOL     OW 2551   0.297   1.288   0.238 -0.2680  0.4248  0.0400
  851SOL    HW1 2552   0.384   1.289   0.192 -4.7909 -0.6349  1.4182
  851SOL    HW2 2553   0.314   1.306   0.336  0.5021 -0.2126 -0.4153
  852SOL     OW 2554   1.389   2.843   1.914 -0.1827 -0.1714  0.8499
  852SOL    HW1 2555   1.418   2.764   1.859  1.8422  0.6910 -0.5300
  852SOL    HW2 2556   1.389   2.928   1.856 -3.0204  0.8174  0.5722
  853SOL     OW 2557   2.689   1.537   0.048  0.0887  0.3616 -0.6945
  853SOL    HW1 2558   2.788   1.538   0.022  0.0448  0.2810 -0.1452
  853SOL    HW2 2559   2.670   1.615   0.113  0.9139  1.8862  0.8972
  854SOL     OW 2560   1.702   1.359   1.939  0.3494 -0.3832 -0.4271
  854SOL    HW1 2561   1.710   1.456   1.974 -0.9885 -0.7381  0.6906
  854SOL    HW2 2562   1.614   1.349   1.886 -0.6692 -1.2527 -1.4586
  855SOL     OW 2563   0.425   2.306   3.062 -0.0037  0.3525  0.2703
  855SOL    HW1 2564   0.384   2.312   0.076  1.6580  1.0523  1.9668
  855SOL    HW2 2565   0.387   2.382   3.006 -1.2166  0.5189  0.3293
  856SOL     OW 2566   0.342   0.811   1.785 -0.3475  0.5675  0.2832
  856SOL    HW1 2567   0.355   0.736   1.849  0.0677  0.2015  2.1870
  856SOL    HW2 2568   0.428   0.870   1.774  2.3326  0.6909  1.5699
  857SOL     OW 2569   1.273   1.018   2.239 -0.1247  0.4997  0.4039
  857SOL    HW1 2570   1.262   0.915   2.221  0.7629  0.7784  0.7648
  857SOL    HW2 2571   1.368   1.056   2.221  0.2753  4.5043  0.7552
  858SOL     OW 2572   0.252   1.266   2.428 -0.6874  0.4564  0.4924
  858SOL    HW1 2573   0.167   1.310   2.402  2.4883  0.8980  2.4529
  858SOL    HW2 2574   0.267   1.187   2.372  1.7375  2.0404 -0.5591
  859SOL     OW 2575   2.647   0.002   1.101 -0.2112 -0.7864  1.1624
  859SOL    HW1 2576   2.569   0.064   1.078 -0.1252  0.8250  2.0966
  859SOL    HW2 2577   2.730   0.024   1.046  1.9925 -1.8689  1.1371
  860SOL     OW 2578   1.962   2.959   3.052  0.3063  0.1412  0.3908
  860SOL    HW1 2579   2.015   2.891   3.000  1.0023  0.3938 -0.1811
  860SOL    HW2 2580   1.860   2.970   3.034  0.7704  1.5943  2.1378
  861SOL     OW 2581   1.007   0.379   0.524 -0.2389 -0.3772  0.5226
  861SOL    HW1 2582   0.913   0.347   0.511  1.6648 -1.3876 -0.6643
  861SOL    HW2 2583   1.016   0.472   0.485  0.3070  0.4396 -3.8457
  862SOL     OW 2584   1.301   0.393   2.507  0.1381 -0.2003 -0.0063
  862SOL    HW1 2585   1.391   0.416   2.547  0.5745 -0.4992 -0.5500
  862SOL    HW2 2586   1.312   0.323   2.430  2.1523  0.9817  0.2899
  863SOL     OW 2587   2.475   2.261   0.830 -0.0073  0.6735 -0.1008
  863SOL    HW1 2588   2.424   2.310   0.903  0.0384  3.3521  2.9813
  863SOL    HW2 2589   2.430   2.173   0.809  3.0556  2.3269 -0.2400
  864SOL     OW 2590   2.738   0.080   1.742 -0.1620 -0.1363 -0.5616
  864SOL    HW1 2591   2.799   3.074   1.762 -1.0731 -1.6872 -0.4195
  864SOL    HW2 2592   2.731   0.139   1.825 -0.1406 -0.3893  2.5036
  865SOL     OW 2593   1.013   0.526   1.792 -0.1543  0.1672  0.0914
  865SOL    HW1 2594   1.091   0.470   1.839  1.9430 -3.3154  3.7748
  865SOL    HW2 2595   1.044   0.602   1.730 -0.7010  1.9621 -1.8764
  866SOL     OW 2596   1.773   2.835   1.249  0.0332  0.2312  0.0904
  866SOL    HW1 2597   1.860   2.874   1.289 -1.4683 -0.4066 -0.5717
  866SOL    HW2 2598   1.753   2.890   1.165  1.9562 -1.4490  0.2886
  867SOL     OW 2599   2.797   2.504   0.597 -0.1800  0.0670 -0.0951
  867SOL    HW1 2600   2.828   2.507   0.499  3.5891  0.9979  0.2878
  867SOL    HW2 2601   2.877   2.532   0.656  2.8742 -0.4631  0.3341
  868SOL     OW 2602   0.471   2.199   1.580 -0.3379 -0.1109  0.0325
  868SOL    HW1 2603   0.375   2.222   1.599 -1.1827  0.1028  0.3152
  868SOL    HW2 2604   0.478   2.109   1.528  2.9133  1.2464 -0.9220
  869SOL     OW 2605   2.060   2.214   2.896  0.0554  0.4585 -0.2005
  869SOL    HW1 2606   2.157   2.218   2.868  0.5672  3.6392  1.2808
  869SOL    HW2 2607   2.004   2.269   2.833 -1.1987 -1.3563  0.0695
  870SOL     OW 2608   1.729   1.740   1.046  0.6278 -0.7794 -0.0439
  870SOL    HW1 2609   1.754   1.754   0.948 -0.5132 -0.4447 -0.8867
  870SOL    HW2 2610   1.736   1.647   1.080 -2.5272  2.1918  0.9496
  871SOL     OW 2611   0.128   1.930   1.743  0.2799 -0.3104  0.8793
  871SOL    HW1 2612   0.109   1.838   1.786 -0.1385 -1.0946  0.9087
  871SOL    HW2 2613   0.186   1.997   1.799  1.0155  0.5764  1.9875
  872SOL     OW 2614   0.479   1.443   2.399 -0.2494  0.4981  0.5696
  872SOL    HW1 2615   0.476   1.536   2.432 -1.0967 -0.1485  1.2666
  872SOL    HW2 2616   0.390   1.389   2.405 -2.2074  0.7963 -2.1913
  873SOL     OW 2617   0.961   2.058   1.765 -0.2970 -0.1998  0.0992
  873SOL    HW1 2618   0.976   2.057   1.866 -0.1088 -0.1633  0.0297
  873SOL    HW2 2619   0.882   2.113   1.739  2.1852 -2.1005 -1.9829
  874SOL     OW 2620   1.467   0.780   1.997  0.5503  0.2453 -0.3724
  874SOL    HW1 2621   1.409   0.813   2.074 -0.6374  3.0927  1.2654
  874SOL    HW2 2622   1.542   0.845   1.981 -2.3565 -0.4356  0.8234
  875SOL     OW 2623   2.952   2.773   0.836 -0.0680 -0.7896  0.2030
  875SOL    HW1 2624   2.890   2.710   0.891  0.8261 -2.1030  0.6631
  875SOL    HW2 2625   3.021   2.728   0.778 -0.5328 -1.0881  3.8406
  876SOL     OW 2626   1.198   1.350   0.400 -0.2513 -0.1446 -0.5617
  876SOL    HW1 2627   1.191   1.299   0.316 -1.2613  0.5057 -0.7654
  876SOL    HW2 2628   1.124   1.418   0.411  1.9653  0.3958  1.9328
  877SOL     OW 2629   2.751   0.349   1.019  0.4094  0.3370  0.2867
  877SOL    HW1 2630   2.779   0.252   0.983  1.9761 -5.1698 -0.8665
  877SOL    HW2 2631   2.649   0.356   1.019  1.3802 -0.6970 -1.8495
  878SOL     OW 2632   1.995   1.636   0.458 -0.0044  0.1675 -0.0577
  878SOL    HW1 2633   1.927   1.657   0.382 -3.0452  0.0503  0.3980
  878SOL    HW2 2634   2.091   1.607   0.429  1.2128  1.1049 -0.2049
  879SOL     OW 2635   2.468   1.773   0.967 -0.4507  0.1635 -0.1825
  879SOL    HW1 2636   2.528   1.797   1.046  0.5975  0.3246  2.0683
  879SOL    HW2 2637   2.489   1.681   0.928  0.6615 -1.6059 -0.6217
  880SOL     OW 2638   0.436   2.437   0.852 -0.3859 -0.4539  0.2411
  880SOL    HW1 2639   0.335   2.458   0.838  0.8223  0.2066  0.4189
  880SOL    HW2 2640   0.474   2.411   0.759 -0.8897  3.3910  1.4198
  881SOL     OW 2641   1.073   1.197   0.798  0.3990  0.0428  0.0492
  881SOL    HW1 2642   1.052   1.238   0.888 -1.8793  1.7670 -0.2493
  881SOL    HW2 2643   1.169   1.159   0.786 -2.2176 -2.5807  0.6662
  882SOL     OW 2644   2.277   0.968   0.101  0.1111  0.0178  0.5553
  882SOL    HW1 2645   2.302   1.012   0.012 -2.5928 -0.1045 -4.4640
  882SOL    HW2 2646   2.219   1.036   0.155 -1.7160 -0.1668  3.1691
  883SOL     OW 2647   1.383   3.047   1.733  0.1158  0.2673 -0.4188
  883SOL    HW1 2648   1.282   3.041   1.721 -0.4989 -0.1714 -0.4663
  883SOL    HW2 2649   1.430   3.010   1.651 -2.5856  2.1376 -1.8923
  884SOL     OW 2650   2.814   0.128   0.886 -0.0358 -0.4091  0.4988
  884SOL    HW1 2651   2.900   0.092   0.840  0.7330  2.1397 -1.5375
  884SOL    HW2 2652   2.751   0.166   0.821  0.4602  2.4998  1.5718
  885SOL     OW 2653   1.241   1.015   1.575 -0.2539 -0.3953  0.2323
  885SOL    HW1 2654   1.341   1.014   1.554 -2.5947  3.7402 -1.1982
  885SOL    HW2 2655   1.206   0.943   1.634  0.9614  0.4210  0.0556
  886SOL     OW 2656   1.538   1.090   2.457 -0.1972 -0.0712 -0.1222
  886SOL    HW1 2657   1.544   1.114   2.357  0.8996  0.5372  0.1194
  886SOL    HW2 2658   1.608   1.013   2.472  0.9443 -3.5534  2.0625
  887SOL     OW 2659   1.486   0.693   1.251 -0.2129 -0.8354  0.6224
  887SOL    HW1 2660   1.473   0.659   1.156  1.3460  0.1101  1.3384
  887SOL    HW2 2661   1.453   0.793   1.253  1.0042  0.0314 -0.7148
  888SOL     OW 2662   2.154   1.533   2.047 -0.1909 -0.0868 -0.3141
  888SOL    HW1 2663   2.144   1.433   2.020  0.1120 -2.8004 -0.9748
  888SOL    HW2 2664   2.249   1.566   2.048 -1.5586  2.2636  0.1028
  889SOL     OW 2665   1.863   1.997   0.667  0.6437 -0.1864 -0.2272
  889SOL    HW1 2666   1.960   2.025   0.687  2.1411 -3.8938  1.6733
  889SOL    HW2 2667   1.826   2.009   0.570 -3.1948  3.6562 -3.5780
  890SOL     OW 2668   1.075   1.995   0.661  0.1130 -0.0534  0.0434
  890SOL    HW1 2669   1.059   1.894   0.654 -0.0290  0.6699 -0.4442
  890SOL    HW2 2670   1.018   2.035   0.732  0.2329  1.5740  0.8401
  891SOL     OW 2671   2.740   0.576   2.621  0.2041  0.2454  0.1324
  891SOL    HW1 2672   2.786   0.490   2.599  1.4878  3.5436 -0.0453
  891SOL    HW2 2673   2.798   0.655   2.588  3.1907  1.0913 -0.2576
  892SOL     OW 2674   0.886   0.593   2.491 -0.0510  0.0276 -0.9677
  892SOL    HW1 2675   0.812   0.558   2.549 -1.0353 -0.2207  0.8484
  892SOL    HW2 2676   0.970   0.560   2.538  0.9662 -2.9875  2.4005
  893SOL     OW 2677   1.578   0.192   1.313  0.3316  0.7216  0.1920
  893SOL    HW1 2678   1.650   0.130   1.353  1.0710  1.9095  3.2965
  893SOL    HW2 2679   1.485   0.164   1.353 -1.4488  1.1137 -1.1783
  894SOL     OW 2680   2.861   0.223   0.479 -0.0738  0.1209  0.3555
  894SOL    HW1 2681   2.777   0.209   0.528  3.2792 -0.9149  2.8853
  894SOL    HW2 2682   2.867   0.170   0.391  3.0925  0.0892 -0.8958
  895SOL     OW 2683   2.031   2.734   2.924 -0.1566 -0.1682 -0.3115
  895SOL    HW1 2684   1.937   2.702   2.905  0.1791  2.2117  1.7508
  895SOL    HW2 2685   2.084   2.682   2.993  0.3700 -0.9280  0.3364
  896SOL     OW 2686   1.742   0.079   1.558 -0.1996 -0.0253 -0.3857
  896SOL    HW1 2687   1.726   0.156   1.621 -0.2159 -1.3133 -0.7229
  896SOL    HW2 2688   1.663   0.011   1.557  3.0304  2.3865  0.5703
  897SOL     OW 2689   0.143   2.286   1.790  0.7358 -0.1154 -0.1381
  897SOL    HW1 2690   0.161   2.282   1.686  2.1066  1.6674 -3.0086
  897SOL    HW2 2691   0.178   2.206   1.845  3.0334 -3.5546  2.7123
  898SOL     OW 2692   2.373   1.719   2.003  0.2406 -0.2175 -0.5550
  898SOL    HW1 2693   2.415   1.659   1.932  0.3935  0.7245 -1.6251
  898SOL    HW2 2694   2.354   1.814   1.972  2.4884 -0.1530  2.9254
  899SOL     OW 2695   1.658   2.244   0.832 -0.4791  0.6870 -0.1656
  899SOL    HW1 2696   1.751   2.210   0.856  1.7519  0.4861  1.3911
  899SOL    HW2 2697   1.597   2.172   0.792  0.6429  2.1608  0.8099
  900SOL     OW 2698   0.842   2.999   3.033  0.0807  0.1025  0.0104
  900SOL    HW1 2699   0.752   2.990   2.989  1.5997  1.8246  2.3344
  900SOL    HW2 2700   0.916   2.990   2.959 -0.7301 -1.6445 -0.1414
  901SOL     OW 2701   1.403   1.767   2.388 -0.1036  0.7125  0.5149
  901SOL    HW1 2702   1.433   1.782   2.487 -1.9418 -1.0490  1.1249
  901SOL    HW2 2703   1.301   1.779   2.379 -2.5127  1.0610  1.1215
  902SOL     OW 2704   0.195   0.421   2.688  0.2580 -0.2158 -0.0025
  902SOL    HW1 2705   0.120   0.355   2.713 -0.9079  1.1455  2.8989
  902SOL    HW2 2706   0.275   0.362   2.669 -0.3534 -0.4100  0.5163
  903SOL     OW 2707   2.058   0.539   2.342 -0.3100 -0.1061  0.1915
  903SOL    HW1 2708   2.118   0.528   2.420 -0.4439 -2.5297 -0.1966
  903SOL    HW2 2709   2.103   0.494   2.263  1.6908  0.0271 -2.1259
  904SOL     OW 2710   1.316   0.643   2.391  0.9789 -0.4666 -1.2819
  904SOL    HW1 2711   1.412   0.676   2.381  2.1120 -0.4488 -1.6707
  904SOL    HW2 2712   1.308   0.566   2.460 -0.9708 -4.5627  1.3648
  905SOL     OW 2713   2.039   2.611   1.792  0.3041  0.2432 -0.1301
  905SOL    HW1 2714   1.990   2.564   1.870  2.2270  2.3519  0.3312
  905SOL    HW2 2715   2.013   2.567   1.706 -2.0797  0.2594  1.6647
  906SOL     OW 2716   1.763   2.021   0.426  0.1523  0.3657  0.1739
  906SOL    HW1 2717   1.816   1.967   0.359 -1.4766 -0.4156  0.6731
  906SOL    HW2 2718   1.713   2.096   0.382  1.4066  0.8199  0.7282
  907SOL     OW 2719   1.362   2.980   1.164 -0.3307 -0.6412  0.0093
  907SOL    HW1 2720   1.264   3.004   1.163  0.2795  0.3720  0.0432
  907SOL    HW2 2721   1.399   2.959   1.070 -0.2734 -0.4992 -2.2715
  908SOL     OW 2722   1.814   2.192   2.396 -0.3459  0.5921  0.7009
  908SOL    HW1 2723   1.867   2.280   2.424  1.4481  1.7263 -1.4651
  908SOL    HW2 2724   1.748   2.200   2.317 -1.5783 -0.9660  1.3580
  909SOL     OW 2725   2.091   0.043   1.994 -0.0951 -0.6535 -0.7350
  909SOL    HW1 2726   2.102   3.078   2.087 -0.4225 -1.4060  0.7739
  909SOL    HW2 2727   2.025   0.124   2.002 -1.3769  1.3615 -0.8115
  910SOL     OW 2728   0.910   0.687   2.897  0.1710 -0.3445  0.3828
  910SOL    HW1 2729   0.944   0.604   2.949 -0.7028 -1.5977 -1.0094
  910SOL    HW2 2730   0.984   0.756   2.884 -3.7899 -0.9031  0.2081
  911SOL     OW 2731   0.135   0.823   0.249  0.3412  0.8779  0.2401
  911SOL    HW1 2732   0.126   0.921   0.224 -0.0708 -0.0027  1.0667
  911SOL    HW2 2733   0.065   0.802   0.319  0.8222 -1.9878 -3.3747
  912SOL     OW 2734   0.399   2.157   0.515 -0.4971 -0.4482 -0.0517
  912SOL    HW1 2735   0.307   2.152   0.565 -0.4188  2.9247  1.3649
  912SOL    HW2 2736   0.458   2.232   0.555 -1.9972  0.9904 -1.6732
  913SOL     OW 2737   2.703   2.258   2.183 -0.3018  0.3598  0.3845
  913SOL    HW1 2738   2.721   2.234   2.278  0.0798  2.8575 -0.2110
  913SOL    HW2 2739   2.780   2.243   2.115  2.1492  0.0462  1.9172
  914SOL     OW 2740   1.292   1.935   1.439  0.1446  0.2900  1.0569
  914SOL    HW1 2741   1.274   2.007   1.363 -2.2544 -0.9563  0.9803
  914SOL    HW2 2742   1.275   1.839   1.399 -1.9335 -4.1898  0.6715
  915SOL     OW 2743   0.533   2.843   1.948  0.0486  0.5296  0.3961
  915SOL    HW1 2744   0.485   2.930   1.970  1.8574  1.2390 -1.4596
  915SOL    HW2 2745   0.576   2.804   2.033  1.5269  1.3646 -1.0511
  916SOL     OW 2746   0.750   0.637   1.513  0.2206 -0.2273 -0.6776
  916SOL    HW1 2747   0.814   0.579   1.457  0.3822  2.1040 -0.1250
  916SOL    HW2 2748   0.755   0.604   1.609 -0.7833  1.6638  0.5459
  917SOL     OW 2749   2.672   0.734   0.403 -0.3089  0.5314  0.1265
  917SOL    HW1 2750   2.748   0.680   0.359  0.7420  0.5131 -0.1197
  917SOL    HW2 2751   2.586   0.690   0.379  1.7095 -2.1736  2.7303
  918SOL     OW 2752   1.672   2.273   2.904  0.3382  0.4404  0.7182
  918SOL    HW1 2753   1.764   2.302   2.869  2.7797 -1.2597  0.2651
  918SOL    HW2 2754   1.671   2.247   3.002  1.6132  0.0915 -1.5497
  919SOL     OW 2755   1.599   2.409   1.405 -0.5041 -0.3241 -0.2465
  919SOL    HW1 2756   1.572   2.410   1.311  3.2819  2.6115  2.6961
  919SOL    HW2 2757   1.678   2.471   1.412 -2.5544 -0.8564 -0.9750
  920SOL     OW 2758   0.690   0.697   2.708 -0.3785  0.1021  0.1276
  920SOL    HW1 2759   0.645   0.614   2.745 -1.5713 -0.3923  0.8588
  920SOL    HW2 2760   0.767   0.718   2.766 -1.1639  0.0574 -1.7189
  921SOL     OW 2761   3.017   0.713   2.918 -0.0159 -0.2636 -0.0742
  921SOL    HW1 2762   2.919   0.687   2.929 -2.8676  1.1456  1.7369
  921SOL    HW2 2763   0.007   0.667   2.979 -0.5031  1.0511 -2.1126
  922SOL     OW 2764   0.175   2.105   1.025  0.4071 -0.0753 -0.0424
  922SOL    HW1 2765   0.171   2.006   1.002  3.0085 -0.0063  0.3132
  922SOL    HW2 2766   0.272   2.139   1.024  0.4247  0.0123 -1.4607
  923SOL     OW 2767   0.562   1.414   1.680  0.2745  0.2225 -0.5853
  923SOL    HW1 2768   0.592   1.419   1.584  0.0945 -1.1663  1.8523
  923SOL    HW2 2769   0.636   1.406   1.743 -0.8639 -2.4618  0.1040
  924SOL     OW 2770   1.509   2.678   2.876  0.3325 -0.2115  0.1495
  924SOL    HW1 2771   1.466   2.591   2.909 -1.8877  2.6159 -0.7474
  924SOL    HW2 2772   1.470   2.758   2.927 -0.7990  0.6400  0.5444
  925SOL     OW 2773   2.721   1.350   0.933 -0.2686  1.0277  0.2750
  925SOL    HW1 2774   2.661   1.264   0.937 -1.8023  0.4589  1.5917
  925SOL    HW2 2775   2.731   1.390   1.026 -1.2982 -0.7844 -1.1395
  926SOL     OW 2776   2.053   0.524   1.600  0.2858  0.0215 -0.4649
  926SOL    HW1 2777   2.153   0.523   1.579  0.3316  1.0732 -1.7886
  926SOL    HW2 2778   2.003   0.480   1.522 -1.2659 -3.0781  0.3053
  927SOL     OW 2779   1.892   0.100   1.201 -0.1160 -0.5311 -0.1695
  927SOL    HW1 2780   1.922   0.197   1.213 -0.3334 -1.5649  0.5575
  927SOL    HW2 2781   1.851   0.083   1.105 -1.2883 -2.0853 -2.8234
  928SOL     OW 2782   0.281   1.047   2.268 -0.3044  0.0989  0.1007
  928SOL    HW1 2783   0.370   1.097   2.252  0.3763 -1.5063  0.8197
  928SOL    HW2 2784   0.301   0.957   2.310  2.2542  0.5011 -1.0678
  929SOL     OW 2785   2.368   0.898   1.453  0.1554 -0.2781  0.3625
  929SOL    HW1 2786   2.266   0.879   1.456  1.2231 -0.2734 -0.6244
  929SOL    HW2 2787   2.389   0.984   1.402 -0.2394 -0.5298 -0.1525
  930SOL     OW 2788   3.014   2.561   2.021 -0.0493  0.1051  0.0147
  930SOL    HW1 2789   3.007   2.652   2.077 -2.0158  2.0126  2.6216
  930SOL    HW2 2790   0.034   2.538   2.010  1.8010 -0.8481 -2.1117
  931SOL     OW 2791   1.431   0.964   1.302  0.1558 -0.2870  0.3281
  931SOL    HW1 2792   1.469   0.964   1.399  1.4766 -3.8194  1.8224
  931SOL    HW2 2793   1.477   1.029   1.237  0.0164  1.0228  0.5971
  932SOL     OW 2794   0.391   1.213   1.698 -0.2816  0.0929  0.2511
  932SOL    HW1 2795   0.297   1.235   1.733 -2.4523 -2.2952 -0.4293
  932SOL    HW2 2796   0.442   1.301   1.674  1.3042  1.3863 -4.5308
  933SOL     OW 2797   2.367   1.810   1.613  0.6092 -0.0437  0.1967
  933SOL    HW1 2798   2.365   1.892   1.556  0.2302 -0.6445  0.6384
  933SOL    HW2 2799   2.286   1.751   1.588 -1.5852  0.4555  2.1902
  934SOL     OW 2800   0.554   2.015   1.865 -0.0475  0.2196 -0.0012
  934SOL    HW1 2801   0.542   1.915   1.874  1.5574 -1.2370  0.0413
  934SOL    HW2 2802   0.620   2.042   1.798 -0.7462 -0.3753 -0.8652
  935SOL     OW 2803   2.511   1.513   1.494  0.0043  0.5647 -0.0722
  935SOL    HW1 2804   2.468   1.567   1.422  0.5381  0.4197 -1.1797
  935SOL    HW2 2805   2.609   1.516   1.470  1.9091  0.1463  2.2438
  936SOL     OW 2806   2.782   1.491   1.434 -1.2017  0.5626 -0.2035
  936SOL    HW1 2807   2.792   1.410   1.501 -1.7394 -1.5735 -0.6733
  936SOL    HW2 2808   2.849   1.481   1.355  1.1268  0.6139  1.5458
  937SOL     OW 2809   1.754   0.392   1.395  0.3911  0.4527 -0.6561
  937SOL    HW1 2810   1.841   0.355   1.354 -0.8767 -1.2374  0.2949
  937SOL    HW2 2811   1.680   0.323   1.387 -0.0558 -1.0123 -1.6725
  938SOL     OW 2812   0.389   2.944   0.135 -0.0390 -0.1776 -0.1890
  938SOL    HW1 2813   0.354   2.956   0.233  0.1446  1.2284  1.8926
  938SOL    HW2 2814   0.339   2.999   0.070 -0.6446 -1.7344  0.1145
  939SOL     OW 2815   2.854   2.180   2.387 -0.4299 -0.5238 -0.1094
  939SOL    HW1 2816   2.933   2.161   2.326  1.0117  0.2203  1.6018
  939SOL    HW2 2817   2.796   2.098   2.406 -0.2084  0.6478  0.5828
  940SOL     OW 2818   1.497   1.922   0.474  0.2200  0.0417  0.2478
  940SOL    HW1 2819   1.429   1.996   0.458  1.2660 -0.8954  2.0613
  940SOL    HW2 2820   1.593   1.957   0.451 -0.3581 -0.2803 -1.7191
  941SOL     OW 2821   2.225   2.562   0.012  0.0470  0.3780 -0.0679
  941SOL    HW1 2822   2.224   2.485   0.080 -0.4508 -0.5150 -2.0461
  941SOL    HW2 2823   2.260   2.653   0.051  0.8453 -2.2525  1.7740
  942SOL     OW 2824   1.901   2.382   1.181  0.0992 -1.0252  0.0632
  942SOL    HW1 2825   1.835   2.450   1.144  0.7077  2.5190  2.1441
  942SOL    HW2 2826   1.973   2.439   1.222 -2.0855 -3.6459 -3.5125
  943SOL     OW 2827   2.258   0.841   1.837  0.0293  0.1927 -0.7100
  943SOL    HW1 2828   2.195   0.867   1.764  2.0090 -2.0862 -2.4758
  943SOL    HW2 2829   2.352   0.868   1.822 -3.2649 -1.7977  0.3998
  944SOL     OW 2830   1.227   0.748   2.159  0.7988 -0.3571  0.7132
  944SOL    HW1 2831   1.255   0.685   2.233 -0.4706  0.5129  0.2924
  944SOL    HW2 2832   1.156   0.703   2.102  1.3628  0.0665 -3.8844
  945SOL     OW 2833   2.500   2.506   1.248  0.0222  0.1176 -0.1330
  945SOL    HW1 2834   2.579   2.446   1.271  0.0741 -3.8047 -1.9164
  945SOL    HW2 2835   2.436   2.523   1.327  0.0873  0.7239  1.0189
  946SOL     OW 2836   0.347   0.746   0.567 -0.2175 -0.1891  0.7079
  946SOL    HW1 2837   0.420   0.809   0.550 -1.5358 -0.9749 -1.3327
  946SOL    HW2 2838   0.356   0.711   0.663  2.8536  1.3049 -2.8995
  947SOL     OW 2839   1.856   2.933   1.695 -0.2754  0.0028 -0.0953
  947SOL    HW1 2840   1.792   2.852   1.707 -0.7043  0.2852 -0.5930
  947SOL    HW2 2841   1.814   3.014   1.649 -0.4668  0.8405  1.6628
  948SOL     OW 2842   0.143   1.695   0.715 -0.5129 -0.3054  0.3384
  948SOL    HW1 2843   0.219   1.670   0.657  0.2880  0.2368 -2.2150
  948SOL    HW2 2844   0.094   1.618   0.753  0.9319  1.4049 -0.4714
  949SOL     OW 2845   1.089   1.177   1.443 -0.3146  0.0552 -0.1791
  949SOL    HW1 2846   1.099   1.128   1.354  1.6138 -0.4358 -0.2663
  949SOL    HW2 2847   1.155   1.131   1.509  0.0799  0.4754 -0.9146
  950SOL     OW 2848   0.365   1.040   1.065 -0.5559  0.3005 -0.3607
  950SOL    HW1 2849   0.417   0.972   1.125  2.6486 -1.6218 -0.4377
  950SOL    HW2 2850   0.430   1.099   1.021 -1.2437 -2.2291  1.0851
  951SOL     OW 2851   0.721   2.138   2.297 -0.5001  0.2314 -0.2448
  951SOL    HW1 2852   0.629   2.178   2.306  0.1027  0.4761  0.5555
  951SOL    HW2 2853   0.748   2.158   2.199  1.9578 -1.1303  0.1654
  952SOL     OW 2854   1.438   1.397   0.215  0.7885  0.7000 -0.6515
  952SOL    HW1 2855   1.510   1.418   0.283 -1.2756  0.7341 -0.8289
  952SOL    HW2 2856   1.402   1.485   0.173  0.7987  0.4734  0.3710
  953SOL     OW 2857   1.210   0.149   0.044 -0.3072  0.8228 -0.3723
  953SOL    HW1 2858   1.222   0.209   3.045 -0.5212  1.6305  3.8484
  953SOL    HW2 2859   1.110   0.157   0.068 -1.4253 -2.2776  1.2436
  954SOL     OW 2860   1.832   1.226   0.302 -0.0816  0.6310 -0.2119
  954SOL    HW1 2861   1.802   1.147   0.243  0.1233 -0.9397 -0.6645
  954SOL    HW2 2862   1.835   1.201   0.402  0.1196 -4.4012  0.3253
  955SOL     OW 2863   0.075   2.888   0.057 -0.3634  0.2329 -0.2189
  955SOL    HW1 2864   0.057   2.921   3.045  1.8573 -0.4725  0.1856
  955SOL    HW2 2865   0.127   2.797   0.052  1.6511 -2.3139 -3.3896
  956SOL     OW 2866   1.106   0.796   1.400 -0.0310  0.0103  0.2555
  956SOL    HW1 2867   1.127   0.878   1.342 -1.4583  1.1004 -0.0893
  956SOL    HW2 2868   1.106   0.707   1.344 -1.0759 -4.6349 -2.3351
  957SOL     OW 2869   1.048   1.440   1.188  0.6476  0.2008  0.0462
  957SOL    HW1 2870   0.986   1.370   1.234 -1.7828 -1.5874 -2.5274
  957SOL    HW2 2871   1.013   1.452   1.089  1.4351  0.3477 -1.6440
  958SOL     OW 2872   0.666   1.848   0.838  0.1836  0.2620 -0.1190
  958SOL    HW1 2873   0.594   1.883   0.905 -2.3205  2.7368  0.5865
  958SOL    HW2 2874   0.672   1.908   0.756 -0.4316 -3.1315  2.5008
  959SOL     OW 2875   1.386   1.264   0.954 -0.1159  0.5305 -0.7189
  959SOL    HW1 2876   1.412   1.347   0.902 -0.1409  0.0868 -1.1834
  959SOL    HW2 2877   1.336   1.299   1.030 -1.6693  0.9185 -1.7312
  960SOL     OW 2878   0.173   1.077   2.979  0.2948  0.2728  0.3897
  960SOL    HW1 2879   0.232   1.123   2.907 -0.0988  0.1876 -0.2038
  960SOL    HW2 2880   0.107   1.011   2.934  0.5648 -3.2965 -3.0582
  961SOL     OW 2881   0.511   1.598   1.030 -0.0703  0.0807 -0.4101
  961SOL    HW1 2882   0.425   1.552   1.039  4.8239  1.8471 -2.5588
  961SOL    HW2 2883   0.533   1.612   0.933  0.2676 -0.5486 -0.5786
  962SOL     OW 2884   0.896   0.985   0.619 -0.2255  0.7527 -0.3178
  962SOL    HW1 2885   0.938   1.074   0.592 -1.5607  2.8088 -1.9897
  962SOL    HW2 2886   0.857   0.994   0.711  0.2439 -0.7368 -1.4105
  963SOL     OW 2887   1.494   1.845   2.640  0.0080  0.1502  0.2100
  963SOL    HW1 2888   1.523   1.940   2.618 -1.4142 -4.3882 -0.1830
  963SOL    HW2 2889   1.573   1.793   2.675 -0.5161 -0.1673  1.3677
  964SOL     OW 2890   0.322   2.492   2.903  0.4850 -0.0219  0.4763
  964SOL    HW1 2891   0.405   2.541   2.932 -1.0800 -0.1663 -0.2295
  964SOL    HW2 2892   0.323   2.469   2.802  1.4070  0.5092  0.6972
  965SOL     OW 2893   0.647   2.245   0.224 -0.2077 -0.0748  0.6341
  965SOL    HW1 2894   0.672   2.337   0.262  1.7725  0.6411 -0.9882
  965SOL    HW2 2895   0.637   2.256   0.123 -1.8794 -2.0362 -0.0791
  966SOL     OW 2896   2.989   1.597   2.759 -0.2311  0.2622 -0.7299
  966SOL    HW1 2897   3.065   1.527   2.750 -0.1167 -0.0938  0.9524
  966SOL    HW2 2898   3.024   1.692   2.746 -0.7407 -0.1992  2.5684
  967SOL     OW 2899   2.338   0.082   2.758 -0.1050 -0.1574  0.4029
  967SOL    HW1 2900   2.301   0.064   2.667  2.1715 -1.1585 -0.1446
  967SOL    HW2 2901   2.356   0.186   2.765  1.2500  1.3647  0.9341
  968SOL     OW 2902   2.212   0.023   0.340  0.5360  0.1649 -0.0565
  968SOL    HW1 2903   2.191   0.021   0.437 -0.7709 -2.7931  0.1042
  968SOL    HW2 2904   2.295   0.075   0.314  1.5002  1.7143 -0.1244
  969SOL     OW 2905   0.414   1.566   2.147 -0.3953 -0.0433 -0.7225
  969SOL    HW1 2906   0.408   1.486   2.081 -0.0977 -1.9989  0.3419
  969SOL    HW2 2907   0.494   1.547   2.210 -0.1549  0.5714  1.6367
  970SOL     OW 2908   1.450   1.483   0.777  0.2009  0.3719 -0.1142
  970SOL    HW1 2909   1.494   1.566   0.743 -3.2736 -0.4658 -0.2697
  970SOL    HW2 2910   1.443   1.412   0.703  2.0704 -0.9383 -0.2109
  971SOL     OW 2911   2.434   0.158   1.047 -0.5617 -0.2594  0.0339
  971SOL    HW1 2912   2.349   0.119   1.090  0.5792 -0.7606  0.8496
  971SOL    HW2 2913   2.446   0.256   1.058 -0.3896 -0.0944  0.5081
  972SOL     OW 2914   0.501   2.906   1.537  0.3580  0.4220  0.2343
  972SOL    HW1 2915   0.438   2.836   1.585 -2.4400  1.0224 -0.3159
  972SOL    HW2 2916   0.491   2.995   1.581  2.9706  0.0147  0.6085
  973SOL     OW 2917   0.705   0.267   2.690 -0.2948  0.1853  0.7642
  973SOL    HW1 2918   0.691   0.270   2.590 -1.0556 -0.1857 -1.8044
  973SOL    HW2 2919   0.637   0.324   2.741  0.7865 -1.6588  3.8738
  974SOL     OW 2920   2.214   1.254   1.999  0.0324 -0.0059 -0.3109
  974SOL    HW1 2921   2.118   1.219   2.015 -2.3510 -0.4056 -1.1519
  974SOL    HW2 2922   2.274   1.199   2.062 -2.0018 -1.9251 -0.7078
  975SOL     OW 2923   0.396   0.266   1.168  0.2850 -0.0477 -0.2606
  975SOL    HW1 2924   0.482   0.224   1.198  0.2330 -0.0714  3.0023
  975SOL    HW2 2925   0.389   0.271   1.069  2.2128 -0.8826  1.0408
  976SOL     OW 2926   0.912   1.949   2.400  0.2584 -0.5780  0.2581
  976SOL    HW1 2927   0.877   1.940   2.493  0.2120  1.6929 -1.4636
  976SOL    HW2 2928   0.855   2.007   2.341 -0.2780 -1.2030  1.2842
  977SOL     OW 2929   1.013   2.604   0.680  0.0457  0.3128  0.1354
  977SOL    HW1 2930   0.972   2.694   0.693 -0.6784 -3.1779 -0.2261
  977SOL    HW2 2931   1.014   2.570   0.582  1.3172 -0.7614 -1.1719
  978SOL     OW 2932   2.985   1.253   2.077  0.5042  0.3329 -0.2653
  978SOL    HW1 2933   2.896   1.202   2.070  0.4615  0.4157 -0.9918
  978SOL    HW2 2934   2.981   1.323   2.150  0.8892  0.7995 -0.5537
  979SOL     OW 2935   1.688   2.731   1.674 -0.5340 -0.2239 -0.3229
  979SOL    HW1 2936   1.738   2.675   1.605  1.3969  0.9211 -2.4371
  979SOL    HW2 2937   1.611   2.669   1.691  0.2199  1.6456  1.1983
  980SOL     OW 2938   1.340   1.522   2.259 -0.1194  0.2881 -0.1484
  980SOL    HW1 2939   1.261   1.485   2.311 -1.9975  1.2610  4.8545
  980SOL    HW2 2940   1.359   1.611   2.308  0.5613  2.1550 -0.4101
  981SOL     OW 2941   2.382   0.290   1.610 -0.1394  1.0177 -0.6184
  981SOL    HW1 2942   2.341   0.276   1.704 -1.6308 -0.2703 -0.3677
  981SOL    HW2 2943   2.460   0.350   1.611 -4.5552 -1.7600 -1.5426
  982SOL     OW 2944   0.408   0.236   2.673  0.5716  0.3243 -0.1054
  982SOL    HW1 2945   0.398   0.205   2.771 -1.6597  1.8961  2.5286
  982SOL    HW2 2946   0.498   0.206   2.635 -0.1272  1.5002  0.7922
  983SOL     OW 2947   2.557   0.691   2.419  0.5095  0.3320  0.0871
  983SOL    HW1 2948   2.481   0.751   2.444  2.5282 -0.5625 -0.6219
  983SOL    HW2 2949   2.539   0.598   2.449  0.7520  0.9040 -0.3764
  984SOL     OW 2950   1.104   3.048   2.057  0.3263 -0.0376 -0.5804
  984SOL    HW1 2951   1.170   2.985   2.100  4.3155  1.7835 -1.5818
  984SOL    HW2 2952   1.020   2.996   2.046  0.8141  1.8361 -3.2382
  985SOL     OW 2953   1.959   1.592   1.803 -0.2632  0.1768 -0.4023
  985SOL    HW1 2954   1.879   1.640   1.847  2.9612  0.9380  0.6578
  985SOL    HW2 2955   2.039   1.593   1.872  0.4403  0.8395  2.4497
  986SOL     OW 2956   2.600   0.762   1.562  0.3079  0.2008 -0.2226
  986SOL    HW1 2957   2.696   0.781   1.532 -0.4715 -2.4184 -2.4416
  986SOL    HW2 2958   2.532   0.810   1.507 -0.9230  0.6042  0.1919
  987SOL     OW 2959   2.554   1.111   1.343  0.3401 -0.2715 -0.2314
  987SOL    HW1 2960   2.643   1.156   1.345  0.9514 -0.4432  1.1102
  987SOL    HW2 2961   2.556   1.035   1.265  2.9922 -2.1884  0.7811
  988SOL     OW 2962   0.149   1.129   2.021 -0.2190  0.0656 -0.6232
  988SOL    HW1 2963   0.057   1.165   2.059  0.6502 -0.5899  2.1230
  988SOL    HW2 2964   0.206   1.099   2.104 -1.3088  1.6635 -0.1950
  989SOL     OW 2965   1.784   1.667   0.275  0.0581  0.5121 -0.3391
  989SOL    HW1 2966   1.817   1.742   0.214 -0.7072  0.4772 -2.4060
  989SOL    HW2 2967   1.682   1.672   0.290 -0.3378  0.7151  3.6143
  990SOL     OW 2968   0.823   0.581   2.209 -0.0373  0.1275 -0.8525
  990SOL    HW1 2969   0.849   0.584   2.308 -0.3977 -0.2007  2.6818
  990SOL    HW2 2970   0.896   0.630   2.150  2.5275  0.2618 -0.4426
  991SOL     OW 2971   1.405   1.317   0.574 -0.0888  0.3053  0.4157
  991SOL    HW1 2972   1.446   1.228   0.549 -2.2730 -2.4853 -0.8443
  991SOL    HW2 2973   1.327   1.337   0.511 -1.7776  0.9574 -0.3438
  992SOL     OW 2974   2.105   1.035   0.474 -0.1078  0.2792  0.1959
  992SOL    HW1 2975   2.191   1.018   0.525 -1.5263 -1.0754 -3.1416
  992SOL    HW2 2976   2.025   1.025   0.539 -0.6078  2.0160  2.1054
  993SOL     OW 2977   2.960   0.966   0.704 -0.0674  0.4141 -0.1033
  993SOL    HW1 2978   2.985   0.967   0.802 -2.5691  0.6463 -0.8525
  993SOL    HW2 2979   3.029   0.900   0.659  0.6595 -2.5745 -1.5912
  994SOL     OW 2980   0.290   2.083   2.460  0.0631  0.3408  0.5142
  994SOL    HW1 2981   0.247   2.014   2.394 -1.7607 -1.3659 -1.8974
  994SOL    HW2 2982   0.218   2.109   2.526  2.7194  0.6192  0.0482
  995SOL     OW 2983   1.753   1.241   2.545 -0.2063 -0.4793  0.2054
  995SOL    HW1 2984   1.672   1.186   2.518 -0.7708  2.5532  0.7306
  995SOL    HW2 2985   1.730   1.335   2.513 -2.0198  1.6651  0.1462
  996SOL     OW 2986   2.437   1.276   0.361 -0.3958 -0.4312 -0.3184
  996SOL    HW1 2987   2.387   1.315   0.284 -0.5284  0.2976  1.6146
  996SOL    HW2 2988   2.447   1.180   0.352  1.6478  3.5707 -0.1171
  997SOL     OW 2989   1.972   1.116   2.005  0.2439  0.3840  0.2935
  997SOL    HW1 2990   1.975   1.014   1.991  0.5552  0.6033 -0.7826
  997SOL    HW2 2991   1.947   1.144   2.102 -0.2058 -0.2981  0.7923
  998SOL     OW 2992   2.612   2.097   0.255  0.6488  0.0966 -0.1265
  998SOL    HW1 2993   2.549   2.115   0.171 -1.9724  1.1660 -1.2388
  998SOL    HW2 2994   2.678   2.167   0.267 -2.1136 -1.5134 -0.7294
  999SOL     OW 2995   2.897   2.287   0.021  0.1739 -0.6508  0.3116
  999SOL    HW1 2996   2.857   2.203   3.054 -0.0640  0.5335 -2.7361
  999SOL    HW2 2997   2.839   2.327   0.095 -2.4075  1.0756  0.1157
 1000SOL     OW 2998   1.008   1.059   2.289  0.4955 -0.4077 -0.0989
 1000SOL    HW1 2999   1.007   0.990   2.367  1.2107 -1.0862 -2.5006
 1000SOL    HW2 3000   1.104   1.084   2.271 -1.8765 -1.3167 -0.4083
   3.07989   3.07989   3.07989
