1000 SPC/Fw water molecules t=  75.00000 step= 75000
 3000
    1SOL     OW    1   1.909   2.629   0.828 -0.1016  0.1075  0.2167
    1SOL    HW1    2   1.858   2.576   0.757  1.2872  1.0661 -0.8227
    1SOL    HW2    3   1.943   2.714   0.778 -2.8098  0.5406  0.3778
    2SOL     OW    4   0.881   1.264   2.303 -0.6404 -0.0121  0.3993
    2SOL    HW1    5   0.804   1.283   2.367  0.9115  0.4641  0.8279
    2SOL    HW2    6   0.900   1.347   2.255  0.7808 -4.1714 -2.0950
    3SOL     OW    7   1.565   2.839   2.449  0.3520 -0.6529 -0.3999
    3SOL    HW1    8   1.616   2.883   2.523 -0.3394 -0.9111 -2.5170
    3SOL    HW2    9   1.513   2.760   2.489 -1.5950 -0.0112  0.8054
    4SOL     OW   10   1.115   1.984   2.797  0.0006  0.4989 -0.5781
    4SOL    HW1   11   1.177   2.004   2.721 -1.2455 -0.4885  0.4329
    4SOL    HW2   12   1.132   1.890   2.835 -2.0162  0.0326 -0.6788
    5SOL     OW   13   0.548   0.773   1.757  0.7085 -0.0819  0.4716
    5SOL    HW1   14   0.604   0.815   1.678  3.9415  0.8440 -2.2962
    5SOL    HW2   15   0.546   0.834   1.837 -1.9104 -2.6414 -2.8936
    6SOL     OW   16   1.853   0.496   2.669 -0.2236 -0.2486 -0.2326
    6SOL    HW1   17   1.918   0.504   2.593 -0.2232  1.4854  2.9967
    6SOL    HW2   18   1.776   0.448   2.635  2.4881 -2.1655  0.3390
    7SOL     OW   19   0.402   0.341   1.542  0.2370 -0.0362 -0.6673
    7SOL    HW1   20   0.302   0.334   1.524  2.7360 -0.8822  0.9323
    7SOL    HW2   21   0.422   0.432   1.578 -1.9727 -2.1964 -0.1501
    8SOL     OW   22   1.738   0.217   1.792 -0.3558 -0.1907  0.5322
    8SOL    HW1   23   1.742   0.118   1.786 -1.3286  4.2639 -0.4968
    8SOL    HW2   24   1.826   0.262   1.781  1.2453  0.1395 -0.6541
    9SOL     OW   25   0.351   0.040   0.535 -0.0958  0.3022 -0.0674
    9SOL    HW1   26   0.368   0.101   0.616  3.1081 -0.2344 -2.5589
    9SOL    HW2   27   0.252   0.016   0.526 -0.7756 -2.2180  1.8301
   10SOL     OW   28   0.409   2.298   2.385 -0.3612 -0.0386  0.3611
   10SOL    HW1   29   0.505   2.330   2.391  1.5416  2.8481  0.2200
   10SOL    HW2   30   0.384   2.272   2.289 -0.5240 -1.3775 -0.7866
   11SOL     OW   31   0.513   1.573   0.105 -0.1722  0.2065 -0.1307
   11SOL    HW1   32   0.496   1.496   0.048 -0.0337  0.8483  2.7784
   11SOL    HW2   33   0.610   1.580   0.119 -2.1031 -0.5707  0.4931
   12SOL     OW   34   2.942   2.890   1.264 -0.0267  0.1164 -0.1369
   12SOL    HW1   35   2.899   2.911   1.175 -1.4792  2.3898  0.8120
   12SOL    HW2   36   3.034   2.854   1.248 -0.2637  1.4059  1.6995
   13SOL     OW   37   0.909   2.815   0.460 -0.3359  0.6864 -0.5002
   13SOL    HW1   38   0.894   2.760   0.377 -0.6246 -0.0895  1.0058
   13SOL    HW2   39   0.879   2.912   0.442 -3.2100  0.7579  0.9499
   14SOL     OW   40   1.501   1.708   1.356 -0.3116  0.5058  0.4248
   14SOL    HW1   41   1.445   1.625   1.347 -2.4246  2.2273 -0.2959
   14SOL    HW2   42   1.602   1.692   1.366  0.1375 -0.2843 -0.1564
   15SOL     OW   43   0.117   1.835   2.624  0.5050 -0.5532  0.5405
   15SOL    HW1   44   0.198   1.889   2.651  3.1508 -0.8534  0.9737
   15SOL    HW2   45   0.060   1.811   2.708 -1.8727  2.0985  2.5940
   16SOL     OW   46   1.530   0.680   2.682 -0.1327 -0.0922  0.6843
   16SOL    HW1   47   1.513   0.743   2.609  0.1121 -1.9528 -0.3946
   16SOL    HW2   48   1.604   0.704   2.750 -0.7401 -3.8145  2.9332
   17SOL     OW   49   3.047   2.218   2.453 -0.2144  0.0136  0.2748
   17SOL    HW1   50   0.023   2.294   2.459  0.7448 -1.6758  0.2296
   17SOL    HW2   51   3.068   2.153   2.377  0.4624  1.3448  3.0344
   18SOL     OW   52   1.082   1.291   0.771  0.2219  0.0285  0.3739
   18SOL    HW1   53   1.106   1.382   0.727  1.5276 -1.4525 -0.1534
   18SOL    HW2   54   1.105   1.284   0.868 -0.7632  0.7664 -2.5911
   19SOL     OW   55   2.816   1.989   2.360  0.1580 -0.3470  0.0322
   19SOL    HW1   56   2.892   1.935   2.404  2.6719  0.0899  1.9355
   19SOL    HW2   57   2.813   1.988   2.254 -1.0848 -0.5577 -0.4468
   20SOL     OW   58   2.402   2.102   2.423 -0.2921  0.0727 -0.3530
   20SOL    HW1   59   2.487   2.146   2.450  0.4226 -1.8271 -0.4915
   20SOL    HW2   60   2.317   2.132   2.468  0.1363 -1.7908 -2.2181
   21SOL     OW   61   1.345   1.725   0.253  0.4297 -0.2967  0.5066
   21SOL    HW1   62   1.277   1.653   0.271 -1.4537  3.1211 -0.6938
   21SOL    HW2   63   1.355   1.787   0.332 -0.9734  0.7787  4.0800
   22SOL     OW   64   2.263   2.303   1.562  0.0100 -0.0540 -0.4686
   22SOL    HW1   65   2.282   2.382   1.501  1.4419  4.1071 -4.3691
   22SOL    HW2   66   2.164   2.276   1.564  0.2638 -1.5824 -1.0306
   23SOL     OW   67   0.130   1.301   1.162  0.4998 -0.3510 -0.2438
   23SOL    HW1   68   0.089   1.240   1.096 -1.2164  0.3425 -0.6511
   23SOL    HW2   69   0.215   1.334   1.121 -0.9180  5.3654 -1.3682
   24SOL     OW   70   2.468   1.528   2.018 -0.3950 -0.1953 -0.3722
   24SOL    HW1   71   2.484   1.562   1.927  1.1608  0.2892  0.8638
   24SOL    HW2   72   2.542   1.568   2.074 -2.0143  1.1314 -0.7929
   25SOL     OW   73   1.938   0.240   2.270  0.2579 -0.1499 -0.3146
   25SOL    HW1   74   2.037   0.234   2.296 -1.1957  0.2970 -0.4579
   25SOL    HW2   75   1.908   0.329   2.228 -1.6864  1.0439 -2.2779
   26SOL     OW   76   1.106   0.096   0.660 -0.2425  0.1459 -0.0010
   26SOL    HW1   77   1.047   0.114   0.575  1.0486  2.1992 -2.6464
   26SOL    HW2   78   1.137   0.186   0.708 -1.0324 -0.0736  0.5240
   27SOL     OW   79   0.674   1.565   0.508  0.5870 -0.0242  0.7767
   27SOL    HW1   80   0.620   1.641   0.545  0.0682  1.6740  0.5162
   27SOL    HW2   81   0.716   1.512   0.586 -0.5487  0.1213 -1.3167
   28SOL     OW   82   2.401   1.999   1.103 -0.1646  0.5187 -0.3596
   28SOL    HW1   83   2.424   1.919   1.159  3.1653  2.3668 -1.0733
   28SOL    HW2   84   2.314   2.041   1.132 -0.1292  0.0129 -1.4478
   29SOL     OW   85   2.225   3.003   1.630  0.0467  0.2352  0.1922
   29SOL    HW1   86   2.133   2.961   1.655 -0.4410  0.2947 -3.1439
   29SOL    HW2   87   2.287   2.985   1.708 -1.6570  0.3794 -0.4802
   30SOL     OW   88   0.859   2.881   1.153  0.8304  0.1214 -0.1369
   30SOL    HW1   89   0.799   2.830   1.217 -2.7798 -0.0505 -0.4765
   30SOL    HW2   90   0.903   2.958   1.202  0.4219 -1.2870  0.7127
   31SOL     OW   91   3.031   1.904   1.853  0.2204  0.5978  0.2048
   31SOL    HW1   92   3.054   1.846   1.929 -0.0263 -1.3585 -0.0336
   31SOL    HW2   93   2.933   1.936   1.861 -0.7923  2.3915 -1.8729
   32SOL     OW   94   1.255   1.548   1.806 -0.5243  0.2544 -0.3871
   32SOL    HW1   95   1.198   1.575   1.728  0.5374  3.8234  0.3731
   32SOL    HW2   96   1.323   1.626   1.818 -0.2738 -0.3068 -0.0663
   33SOL     OW   97   0.283   0.003   0.053  0.0340  0.0072  0.0954
   33SOL    HW1   98   0.219   3.071   3.075  3.6402  0.3744 -1.5602
   33SOL    HW2   99   0.329   0.089   0.028 -0.2039  1.4684 -0.7975
   34SOL     OW  100   2.519   2.946   0.528 -0.2716  0.3498  0.1298
   34SOL    HW1  101   2.510   2.955   0.630 -0.5904 -1.1553  3.1044
   34SOL    HW2  102   2.505   2.848   0.504 -2.6188  1.4359  0.3094
   35SOL     OW  103   2.719   0.112   1.443 -0.0779  0.5684 -0.2928
   35SOL    HW1  104   2.737   0.183   1.514 -0.2331  0.6359  2.2541
   35SOL    HW2  105   2.620   0.101   1.420  0.1442  2.1402 -0.2457
   36SOL     OW  106   2.808   2.703   2.684  0.6236  0.4745  0.3466
   36SOL    HW1  107   2.825   2.792   2.734 -0.5655  1.8646 -0.0148
   36SOL    HW2  108   2.859   2.702   2.591 -0.8501  1.5094  0.4000
   37SOL     OW  109   1.572   2.700   2.887 -0.0529  0.6244  0.5248
   37SOL    HW1  110   1.614   2.788   2.903 -1.7245  0.9620  1.7013
   37SOL    HW2  111   1.532   2.669   2.974 -0.4876 -0.7042 -0.5037
   38SOL     OW  112   2.850   0.874   3.046  0.2886 -0.1580 -0.2739
   38SOL    HW1  113   2.751   0.879   3.043  2.0340  0.7030 -2.7884
   38SOL    HW2  114   2.886   0.963   3.074 -0.3943  1.4075 -1.7829
   39SOL     OW  115   1.630   1.737   2.042  0.5369  0.0306 -0.0741
   39SOL    HW1  116   1.663   1.793   2.120 -0.9394 -2.3592  0.8954
   39SOL    HW2  117   1.657   1.639   2.058  1.0979 -0.1017  0.1423
   40SOL     OW  118   0.368   0.247   2.559  0.2506 -0.0128  0.4967
   40SOL    HW1  119   0.339   0.146   2.561  0.4342 -0.4324  1.8534
   40SOL    HW2  120   0.421   0.268   2.643 -3.2689 -0.4931 -1.3760
   41SOL     OW  121   1.822   1.466   1.888  0.0073  0.3979 -0.6031
   41SOL    HW1  122   1.789   1.495   1.980  1.4078 -3.4269 -1.3627
   41SOL    HW2  123   1.744   1.459   1.822 -0.6312 -1.2173 -0.4435
   42SOL     OW  124   0.139   0.420   1.730 -0.5469 -0.9618  0.0112
   42SOL    HW1  125   0.151   0.386   1.635 -3.5050  1.3330  0.8905
   42SOL    HW2  126   0.223   0.418   1.787 -0.4240 -2.1536  3.3355
   43SOL     OW  127   1.404   1.423   2.028 -0.7014  0.5584 -0.3085
   43SOL    HW1  128   1.398   1.325   2.019  1.1967 -0.0483 -0.8021
   43SOL    HW2  129   1.370   1.470   1.947  0.6011  0.0713  0.0232
   44SOL     OW  130   3.086   0.244   0.023 -0.0678 -0.3948 -0.1837
   44SOL    HW1  131   0.015   0.151   3.077 -0.4060  1.3111  1.3769
   44SOL    HW2  132   2.998   0.245   0.075 -2.9243 -0.3930  1.1145
   45SOL     OW  133   0.249   2.032   0.961  0.1556  0.2632 -0.8881
   45SOL    HW1  134   0.325   2.098   0.946 -0.9005 -0.8869  0.6918
   45SOL    HW2  135   0.283   1.934   0.965 -1.4627 -1.0526 -1.0868
   46SOL     OW  136   2.451   2.631   1.703  0.3366  0.4341 -0.7768
   46SOL    HW1  137   2.437   2.725   1.739 -0.3019  1.0700 -0.9204
   46SOL    HW2  138   2.545   2.624   1.667 -3.7756 -1.8861  0.6079
   47SOL     OW  139   0.747   1.793   1.231 -0.2295 -0.0456  0.4951
   47SOL    HW1  140   0.756   1.688   1.219  1.0822 -1.0002  1.3777
   47SOL    HW2  141   0.712   1.840   1.151  1.7684  0.8193  3.8117
   48SOL     OW  142   0.583   2.623   0.373  0.3049 -0.3630 -0.2887
   48SOL    HW1  143   0.577   2.668   0.464 -0.9865 -1.4429 -0.6582
   48SOL    HW2  144   0.671   2.639   0.328 -0.3563 -1.9265  0.5786
   49SOL     OW  145   2.750   1.262   1.567  0.3466 -0.0606  0.3466
   49SOL    HW1  146   2.668   1.268   1.629  0.4927  1.1923 -0.1005
   49SOL    HW2  147   2.797   1.169   1.572 -2.9648  0.5632 -2.2060
   50SOL     OW  148   1.717   0.634   0.588  0.3461  0.7602  0.0948
   50SOL    HW1  149   1.776   0.592   0.512  0.0174 -1.8366 -3.3565
   50SOL    HW2  150   1.733   0.586   0.675  1.1675 -1.5174 -0.8824
   51SOL     OW  151   1.265   0.644   1.218 -0.1041 -0.3802  0.0229
   51SOL    HW1  152   1.274   0.747   1.210  0.0751  2.9498  1.5434
   51SOL    HW2  153   1.173   0.606   1.195 -0.4620 -1.0988 -1.8642
   52SOL     OW  154   0.919   1.377   0.393  0.0309  0.0731  0.0596
   52SOL    HW1  155   0.956   1.308   0.457 -1.5378  1.3185  0.1659
   52SOL    HW2  156   0.812   1.388   0.408 -2.6578  2.0515  1.1160
   53SOL     OW  157   1.358   0.114   2.568  0.3389  0.0476 -0.3346
   53SOL    HW1  158   1.417   0.063   2.638 -0.5285 -0.9274  2.4671
   53SOL    HW2  159   1.330   0.052   2.488 -0.1342 -0.2791 -2.6500
   54SOL     OW  160   1.775   0.943   1.637 -0.2044  0.0002 -0.2638
   54SOL    HW1  161   1.710   0.966   1.564  1.5592 -0.2177  0.6950
   54SOL    HW2  162   1.863   0.912   1.598 -1.2697  1.3008  0.7649
   55SOL     OW  163   2.763   2.733   0.426  0.2835 -0.8085 -0.3558
   55SOL    HW1  164   2.820   2.711   0.509 -3.0234 -1.5529 -2.5543
   55SOL    HW2  165   2.668   2.713   0.451 -0.0276  0.8610 -1.0743
   56SOL     OW  166   0.995   2.515   1.985 -0.2342 -0.9900 -0.0131
   56SOL    HW1  167   1.050   2.438   1.942  0.3178  0.7248  1.1275
   56SOL    HW2  168   0.893   2.490   1.989 -2.8884 -0.7890 -1.0877
   57SOL     OW  169   1.726   0.909   2.562  0.2527 -0.3184  0.0392
   57SOL    HW1  170   1.708   0.946   2.659  0.3915 -1.3427  1.3709
   57SOL    HW2  171   1.634   0.874   2.525  1.8943 -2.9836 -1.1868
   58SOL     OW  172   0.203   1.146   2.236  0.2399  0.9827  0.6094
   58SOL    HW1  173   0.108   1.176   2.248 -1.0986 -2.7102 -0.5914
   58SOL    HW2  174   0.213   1.101   2.144 -1.9582  3.3771  0.7163
   59SOL     OW  175   0.542   2.582   2.148  1.1672 -0.2493  0.0676
   59SOL    HW1  176   0.605   2.661   2.147 -0.8863 -2.1089  0.9470
   59SOL    HW2  177   0.445   2.621   2.159 -1.9336  2.2910 -0.4482
   60SOL     OW  178   2.535   2.352   0.322 -0.2104  0.6504 -0.7342
   60SOL    HW1  179   2.625   2.333   0.369 -0.7600 -1.0918  2.8229
   60SOL    HW2  180   2.552   2.362   0.221  0.5216 -1.0801 -0.7759
   61SOL     OW  181   0.894   2.536   0.605  0.0213 -0.3136  0.7769
   61SOL    HW1  182   0.977   2.517   0.544 -1.3915 -0.0250  0.8055
   61SOL    HW2  183   0.868   2.632   0.578  0.8411  0.4581  1.6037
   62SOL     OW  184   1.547   2.300   2.660 -0.7343 -0.3771  0.4168
   62SOL    HW1  185   1.583   2.209   2.683  0.0896  3.2549 -0.7161
   62SOL    HW2  186   1.464   2.312   2.715  1.9184 -1.0188  1.3306
   63SOL     OW  187   2.065   0.661   3.087 -0.6611  0.2335  0.2208
   63SOL    HW1  188   2.050   0.607   2.999 -1.0980 -1.0674 -1.2297
   63SOL    HW2  189   2.164   0.654   0.026  2.0744  0.2502 -0.5399
   64SOL     OW  190   0.885   1.423   2.816  0.2270 -0.1796  0.1380
   64SOL    HW1  191   0.787   1.446   2.843 -1.3200  2.0520  3.4507
   64SOL    HW2  192   0.933   1.366   2.881 -1.5937  0.7061 -1.7944
   65SOL     OW  193   1.041   3.065   1.272 -0.2939  0.0778 -0.0592
   65SOL    HW1  194   1.095   3.001   1.324  0.7017  0.3522  1.0264
   65SOL    HW2  195   1.111   0.016   1.210 -1.2380 -0.0253  1.2120
   66SOL     OW  196   0.581   1.460   1.499  0.4652  0.4043  0.4032
   66SOL    HW1  197   0.551   1.399   1.422 -1.0395  0.0148  2.0953
   66SOL    HW2  198   0.670   1.431   1.537 -1.2636  2.4953  2.2460
   67SOL     OW  199   2.457   2.521   1.955 -0.0003 -0.0268  0.6476
   67SOL    HW1  200   2.506   2.601   1.996 -0.5994  1.5752  0.5011
   67SOL    HW2  201   2.439   2.543   1.856 -1.6779  2.5557 -1.3821
   68SOL     OW  202   0.839   0.996   1.876 -0.0631  0.1753  0.4773
   68SOL    HW1  203   0.870   0.991   1.972  2.3713  0.1856  0.0861
   68SOL    HW2  204   0.763   1.060   1.863 -1.3246 -0.1049  0.6842
   69SOL     OW  205   2.698   2.646   0.001  0.1089 -0.3137 -0.7076
   69SOL    HW1  206   2.777   2.663   0.058 -1.7903 -0.8847 -0.5252
   69SOL    HW2  207   2.625   2.720   0.007 -1.8881  0.0788  1.2124
   70SOL     OW  208   2.338   0.520   2.789  0.3369 -0.0789  0.2632
   70SOL    HW1  209   2.400   0.452   2.756  0.2099  2.0242 -1.3414
   70SOL    HW2  210   2.382   0.592   2.846  0.0182 -1.6723  1.3405
   71SOL     OW  211   0.039   2.203   0.482 -0.1224 -0.2338 -0.1631
   71SOL    HW1  212   3.052   2.227   0.425 -1.5856 -0.1853 -0.6042
   71SOL    HW2  213   0.124   2.203   0.425 -0.2514  1.8538  0.4716
   72SOL     OW  214   2.779   1.926   0.311 -0.0594  0.1227 -0.0660
   72SOL    HW1  215   2.770   1.845   0.251 -2.4115 -0.6966 -2.3665
   72SOL    HW2  216   2.714   1.993   0.276  1.4683 -1.2521 -1.8507
   73SOL     OW  217   1.026   0.592   0.746 -0.2204 -0.6312  0.7130
   73SOL    HW1  218   1.123   0.619   0.741 -2.7826 -0.9005  2.2857
   73SOL    HW2  219   0.981   0.627   0.833 -0.0503  0.1277  0.8102
   74SOL     OW  220   2.853   2.279   1.959  0.3509 -0.1269 -0.1474
   74SOL    HW1  221   2.943   2.267   2.007  1.1813  2.0024  2.6625
   74SOL    HW2  222   2.875   2.323   1.869  1.2531  1.1105 -0.7490
   75SOL     OW  223   1.733   1.824   1.801 -0.5558  0.2519 -0.2172
   75SOL    HW1  224   1.713   1.784   1.892 -3.5539  0.4542  1.8734
   75SOL    HW2  225   1.654   1.806   1.736 -2.3657 -1.5113 -1.6700
   76SOL     OW  226   1.219   2.073   1.325  0.2966 -0.4454  0.1265
   76SOL    HW1  227   1.159   2.137   1.385 -0.5738  0.9672  1.9435
   76SOL    HW2  228   1.165   2.016   1.263 -0.2877 -0.3087 -1.2976
   77SOL     OW  229   2.744   1.753   1.802 -0.6453 -0.3051 -0.1422
   77SOL    HW1  230   2.817   1.711   1.857  0.7700 -0.9497 -1.8761
   77SOL    HW2  231   2.728   1.854   1.829 -1.5197  3.0041  0.4850
   78SOL     OW  232   1.691   0.492   0.830 -0.2928 -0.1459 -0.1914
   78SOL    HW1  233   1.727   0.400   0.840  0.1440  0.1144 -0.1525
   78SOL    HW2  234   1.593   0.489   0.844 -2.9444 -1.7741 -2.4085
   79SOL     OW  235   2.037   1.517   1.720  0.2013  0.5179 -0.6203
   79SOL    HW1  236   2.105   1.448   1.753 -0.3974 -3.2884  2.1132
   79SOL    HW2  237   1.956   1.493   1.779 -0.1173  0.0961  0.3969
   80SOL     OW  238   1.313   0.314   1.267  0.8995 -0.4274 -0.7992
   80SOL    HW1  239   1.386   0.370   1.222  0.5670 -0.3564  2.5023
   80SOL    HW2  240   1.280   0.368   1.347 -1.0812  2.1828 -0.8942
   81SOL     OW  241   0.717   2.342   0.609 -0.2648  0.0346  0.2806
   81SOL    HW1  242   0.766   2.431   0.606 -0.9768 -0.6176  0.5795
   81SOL    HW2  243   0.777   2.270   0.647 -1.3359  1.4803  1.9431
   82SOL     OW  244   1.416   0.504   1.870 -0.0985 -0.6565  0.3621
   82SOL    HW1  245   1.489   0.564   1.827  1.7435  0.8539  0.9435
   82SOL    HW2  246   1.348   0.468   1.806  2.1618 -0.2131  0.2311
   83SOL     OW  247   0.283   2.154   0.631 -0.6529 -0.7788 -0.3642
   83SOL    HW1  248   0.279   2.120   0.533  0.7594 -0.5866 -1.3343
   83SOL    HW2  249   0.204   2.130   0.689  0.1253  0.8992  0.8347
   84SOL     OW  250   2.589   1.342   3.083  0.0317  0.1347 -0.4001
   84SOL    HW1  251   2.660   1.361   3.013 -0.5105 -0.9285 -2.1915
   84SOL    HW2  252   2.500   1.351   3.037  3.7201  1.1497  0.8498
   85SOL     OW  253   2.997   2.379   1.361 -0.0020 -0.0957 -0.0804
   85SOL    HW1  254   2.924   2.438   1.320 -2.4941 -0.7597  0.8551
   85SOL    HW2  255   2.991   2.288   1.321  1.3524  0.7265 -0.6787
   86SOL     OW  256   1.720   2.668   1.008  0.3761  0.0516 -0.1760
   86SOL    HW1  257   1.769   2.653   1.093  0.2141  0.6178  0.0676
   86SOL    HW2  258   1.780   2.679   0.926  0.1122 -0.4633  0.7708
   87SOL     OW  259   2.651   1.520   0.409  0.5979 -0.0061  0.7022
   87SOL    HW1  260   2.558   1.548   0.389 -1.5447 -0.9663 -1.4252
   87SOL    HW2  261   2.658   1.420   0.403 -1.0711 -3.0115  1.6463
   88SOL     OW  262   1.032   0.532   1.135  0.0564  0.5277 -0.0296
   88SOL    HW1  263   1.014   0.491   1.226 -0.1236 -0.9221 -1.4210
   88SOL    HW2  264   1.032   0.460   1.059  1.5379  3.6759 -0.6825
   89SOL     OW  265   0.874   2.790   1.822 -0.1529  0.1643 -0.1134
   89SOL    HW1  266   0.827   2.823   1.737 -2.1869  0.8176  0.1160
   89SOL    HW2  267   0.887   2.692   1.824  1.4375  2.2087  0.4416
   90SOL     OW  268   0.115   1.713   1.165 -0.1006  0.3915  0.4208
   90SOL    HW1  269   0.028   1.687   1.104 -2.5159  0.4179 -3.7275
   90SOL    HW2  270   0.106   1.815   1.177  0.5363  1.7669  2.0525
   91SOL     OW  271   1.229   1.771   1.082  0.0504 -0.3715 -0.7414
   91SOL    HW1  272   1.204   1.776   1.179 -3.5977  0.4525 -0.6631
   91SOL    HW2  273   1.268   1.680   1.066  0.2031  3.0320  0.0637
   92SOL     OW  274   2.781   2.901   1.693  0.1991 -0.1245  0.3596
   92SOL    HW1  275   2.681   2.905   1.676 -2.5955 -1.8167  0.7121
   92SOL    HW2  276   2.814   2.993   1.718 -3.3081 -2.0261  0.7937
   93SOL     OW  277   0.000   1.304   2.728 -0.1033 -0.1557 -0.3545
   93SOL    HW1  278   3.049   1.318   2.640  0.5682  0.3920  3.0761
   93SOL    HW2  279   0.056   1.213   2.731 -1.4475 -2.1905  0.8764
   94SOL     OW  280   2.397   2.876   1.788 -0.4193  0.4400 -0.5010
   94SOL    HW1  281   2.349   2.833   1.867  0.7730  0.1435 -2.8443
   94SOL    HW2  282   2.458   2.951   1.820  0.2947  0.3059 -0.3863
   95SOL     OW  283   1.728   0.845   2.086  0.5809 -0.1255  0.2294
   95SOL    HW1  284   1.645   0.875   2.139 -1.2602  2.2437  0.7025
   95SOL    HW2  285   1.738   0.909   2.005 -0.2287 -0.6785  0.1509
   96SOL     OW  286   2.645   0.899   1.479 -0.2301  0.4265 -0.8844
   96SOL    HW1  287   2.725   0.831   1.482  0.1182  1.8889  0.7836
   96SOL    HW2  288   2.644   0.965   1.400  1.0011 -1.7778 -0.2900
   97SOL     OW  289   2.336   2.948   1.405  0.1337 -0.4396  0.0680
   97SOL    HW1  290   2.389   2.862   1.422 -0.2395 -0.2800 -0.2652
   97SOL    HW2  291   2.287   2.986   1.488  2.5072  1.0131 -2.4621
   98SOL     OW  292   2.121   2.510   1.392  0.2478  0.4548  0.0025
   98SOL    HW1  293   2.182   2.586   1.413 -1.3485  0.8187  2.5003
   98SOL    HW2  294   2.044   2.496   1.455  0.3070 -0.9897 -0.5650
   99SOL     OW  295   2.769   0.303   1.615  0.4574  0.8950 -0.2070
   99SOL    HW1  296   2.695   0.350   1.677  0.9323 -2.2849  0.5090
   99SOL    HW2  297   2.850   0.291   1.673  0.9591  2.0923  0.2663
  100SOL     OW  298   2.257   1.715   1.991  0.0008  0.2581  0.0201
  100SOL    HW1  299   2.311   1.651   2.048 -1.3971 -1.7394 -1.0300
  100SOL    HW2  300   2.158   1.723   2.023  0.0539 -1.9753 -0.8377
  101SOL     OW  301   2.150   3.092   0.117 -0.2523 -0.0980 -0.2649
  101SOL    HW1  302   2.210   3.079   0.201 -0.0332  3.0968  0.2720
  101SOL    HW2  303   2.096   0.085   0.127 -2.9866  2.1260 -0.7976
  102SOL     OW  304   0.609   0.601   1.156 -0.6098 -0.6090  0.3200
  102SOL    HW1  305   0.539   0.596   1.232 -2.5984 -1.6676  0.8296
  102SOL    HW2  306   0.564   0.603   1.067  1.2488 -0.1852  0.4028
  103SOL     OW  307   2.696   0.077   2.479 -0.0974 -0.3736 -0.5735
  103SOL    HW1  308   2.669   0.085   2.578 -1.1632 -0.3863  0.1934
  103SOL    HW2  309   2.724   3.078   2.454 -1.4281  0.8763  1.9313
  104SOL     OW  310   3.036   2.843   1.780  0.2392  0.0845  0.4672
  104SOL    HW1  311   3.091   2.759   1.802 -0.9548  0.3861 -0.2433
  104SOL    HW2  312   2.939   2.824   1.760 -1.3753 -2.7927 -0.8155
  105SOL     OW  313   1.281   0.939   2.016 -0.4641  0.1122 -0.0342
  105SOL    HW1  314   1.200   0.991   2.040 -1.1023 -0.2743  0.7863
  105SOL    HW2  315   1.261   0.843   1.987  0.0275 -0.3296  2.5810
  106SOL     OW  316   1.915   0.580   0.920 -0.1260 -0.0807 -0.0539
  106SOL    HW1  317   1.922   0.586   1.026  1.1805 -1.4154  1.7325
  106SOL    HW2  318   1.819   0.559   0.888 -0.0862 -0.0825 -2.5517
  107SOL     OW  319   0.558   1.038   1.351  0.2365  0.3415 -0.3776
  107SOL    HW1  320   0.581   0.999   1.257  0.8449 -0.0570 -1.2363
  107SOL    HW2  321   0.608   0.980   1.415  1.8835  3.4660 -2.1092
  108SOL     OW  322   3.050   0.352   2.290 -0.3878 -0.0127  0.0880
  108SOL    HW1  323   3.080   0.373   2.196 -0.6584 -1.7490  0.8844
  108SOL    HW2  324   3.024   0.252   2.294 -0.7670 -2.2619 -0.1968
  109SOL     OW  325   1.978   3.021   3.026 -0.4655 -0.0041  0.0756
  109SOL    HW1  326   2.063   3.036   3.081  0.5502 -0.3610 -2.5908
  109SOL    HW2  327   1.962   0.017   2.979  1.6522 -0.8528 -0.3053
  110SOL     OW  328   3.036   1.732   2.834  0.1885 -0.0165 -0.5382
  110SOL    HW1  329   2.947   1.760   2.794  1.3413  2.5478 -1.7172
  110SOL    HW2  330   3.048   1.763   2.931 -1.3196  2.4375 -1.4264
  111SOL     OW  331   2.546   0.260   2.368  0.6881  0.2393  0.1892
  111SOL    HW1  332   2.486   0.297   2.447 -0.2353  4.0656  1.5749
  111SOL    HW2  333   2.618   0.192   2.397  2.2844  0.0530  0.7717
  112SOL     OW  334   2.614   2.775   1.064 -0.1824  0.3089  0.1689
  112SOL    HW1  335   2.660   2.708   0.997 -0.7925 -1.6206 -0.6827
  112SOL    HW2  336   2.674   2.857   1.076 -1.4709 -0.0317  0.7561
  113SOL     OW  337   2.381   2.182   2.150  0.0654  0.3158  0.1614
  113SOL    HW1  338   2.412   2.111   2.084  0.5392  1.5478  1.2686
  113SOL    HW2  339   2.383   2.151   2.246 -0.1315  0.5855 -3.6682
  114SOL     OW  340   2.658   0.062   0.450  0.6895 -0.7194  0.1208
  114SOL    HW1  341   2.601   3.075   0.467  1.6480  0.6100  0.1787
  114SOL    HW2  342   2.692   0.101   0.540 -0.1260  1.9839  2.0065
  115SOL     OW  343   2.696   1.893   3.056 -0.0210 -0.2963 -0.0419
  115SOL    HW1  344   2.724   1.823   0.028 -1.2431  0.7800  0.6502
  115SOL    HW2  345   2.710   1.862   2.957 -1.1944 -1.4264 -0.4614
  116SOL     OW  346   3.050   1.331   1.949  0.1945  0.5632  0.6584
  116SOL    HW1  347   0.054   1.349   1.925  1.8877  1.0228 -0.0406
  116SOL    HW2  348   3.050   1.302   2.050  2.7001 -1.4344  2.8947
  117SOL     OW  349   2.202   0.112   0.978  0.1052 -0.5756  0.3623
  117SOL    HW1  350   2.182   0.018   0.943 -0.7635  2.4730  1.3353
  117SOL    HW2  351   2.139   0.152   1.046 -0.0343  0.6823 -2.1920
  118SOL     OW  352   0.038   2.111   1.697  0.0717 -0.6394 -0.1619
  118SOL    HW1  353   3.084   2.054   1.764 -0.2762  0.8465 -2.0702
  118SOL    HW2  354   0.131   2.131   1.731 -2.4016 -0.9213 -0.0401
  119SOL     OW  355   1.001   2.153   1.477 -0.5033  0.4767  0.3597
  119SOL    HW1  356   0.948   2.230   1.433  1.2067  2.1146 -1.8496
  119SOL    HW2  357   0.940   2.071   1.478  0.6767  2.3031 -0.3713
  120SOL     OW  358   0.361   1.866   1.544 -0.8390 -0.6624 -0.4120
  120SOL    HW1  359   0.284   1.823   1.588  0.1900 -0.1008 -1.2498
  120SOL    HW2  360   0.407   1.814   1.467 -0.9706 -0.5122 -1.3039
  121SOL     OW  361   1.911   1.359   1.074 -0.3592  0.3908  0.5019
  121SOL    HW1  362   1.840   1.426   1.083  1.0889 -3.1739 -3.8503
  121SOL    HW2  363   1.989   1.388   1.127  0.2300  0.0048 -1.7062
  122SOL     OW  364   1.921   1.997   2.742  0.5640 -0.6413 -0.1282
  122SOL    HW1  365   1.924   1.918   2.803  1.2061 -0.0425 -0.0406
  122SOL    HW2  366   1.948   1.979   2.647 -1.6577 -1.2141 -1.6371
  123SOL     OW  367   2.893   2.982   0.435 -0.1837  0.1483  0.5226
  123SOL    HW1  368   2.830   3.061   0.456 -0.2548  1.5231  3.5370
  123SOL    HW2  369   2.836   2.899   0.420  0.2241  1.3546 -0.5822
  124SOL     OW  370   1.070   1.036   0.181  0.2067  0.1625  0.6007
  124SOL    HW1  371   0.976   1.022   0.216 -1.2085 -0.1266 -0.9864
  124SOL    HW2  372   1.083   1.000   0.089 -1.0280  3.0735  0.7264
  125SOL     OW  373   3.080   1.404   2.460  0.1964  0.3654 -0.1503
  125SOL    HW1  374   0.035   1.492   2.448 -1.6867 -1.3735  0.7929
  125SOL    HW2  375   0.058   1.334   2.481 -0.7905  0.0558 -0.4414
  126SOL     OW  376   0.070   2.569   0.515 -0.2530  0.2429  0.3247
  126SOL    HW1  377   0.111   2.636   0.451 -1.4453 -0.5935  3.7096
  126SOL    HW2  378   0.145   2.498   0.529  3.3066 -2.7894  1.0511
  127SOL     OW  379   2.948   1.604   0.538 -0.0592  0.1713 -0.5969
  127SOL    HW1  380   2.863   1.585   0.490  0.9817 -0.5276  1.3036
  127SOL    HW2  381   3.033   1.590   0.482  0.8837 -0.3483 -1.5027
  128SOL     OW  382   0.996   1.192   0.549 -0.2725  0.3178 -0.1166
  128SOL    HW1  383   1.034   1.223   0.636 -2.4979  0.3071 -2.1571
  128SOL    HW2  384   1.060   1.130   0.501 -1.6474  0.2973 -0.4581
  129SOL     OW  385   1.944   2.145   1.304 -0.3774  0.0929  0.4799
  129SOL    HW1  386   1.971   2.151   1.403  0.2733  0.2054  1.0738
  129SOL    HW2  387   1.851   2.105   1.299  3.5222  0.0065  0.3282
  130SOL     OW  388   2.016   1.018   0.753 -0.0157 -0.0345 -0.2136
  130SOL    HW1  389   1.921   1.032   0.717  1.5490  2.0083  0.2035
  130SOL    HW2  390   2.037   1.084   0.829 -3.0149  0.2969 -0.5790
  131SOL     OW  391   2.877   0.887   2.780 -0.1704 -0.1397 -0.3921
  131SOL    HW1  392   2.884   0.879   2.882  1.7482 -1.6103 -0.6552
  131SOL    HW2  393   2.870   0.987   2.752 -0.3940 -2.1398  1.0753
  132SOL     OW  394   1.529   1.242   2.320 -0.2284 -0.4577 -0.3668
  132SOL    HW1  395   1.614   1.207   2.362 -1.5106 -0.7581  0.4487
  132SOL    HW2  396   1.525   1.341   2.326  0.5256 -2.2143  0.4165
  133SOL     OW  397   3.008   1.117   0.032  0.2606 -0.9269  0.2441
  133SOL    HW1  398   3.044   1.201   3.075  0.7020  1.7719  0.0827
  133SOL    HW2  399   2.982   1.147   0.128 -1.8188  0.5184  1.2729
  134SOL     OW  400   2.606   0.786   0.663  0.5630  0.4681  0.3946
  134SOL    HW1  401   2.576   0.866   0.716  1.5489 -2.8116 -0.8783
  134SOL    HW2  402   2.707   0.774   0.673 -0.1142  3.5348 -1.1625
  135SOL     OW  403   1.910   0.880   3.002 -0.2956  0.0767 -0.4034
  135SOL    HW1  404   1.968   0.801   3.020 -0.3249  4.9504 -0.5319
  135SOL    HW2  405   1.899   0.934   3.090  1.0044 -0.3818  1.7032
  136SOL     OW  406   1.754   2.092   1.728 -0.2225  0.2051 -0.1620
  136SOL    HW1  407   1.771   1.998   1.764  1.4126 -0.8823  0.7920
  136SOL    HW2  408   1.694   2.150   1.785 -0.5650  0.3684  0.0328
  137SOL     OW  409   2.100   2.446   0.548 -0.3457 -0.3986 -0.1939
  137SOL    HW1  410   2.138   2.393   0.628  0.2707  2.8606 -2.2857
  137SOL    HW2  411   2.172   2.465   0.479 -2.1820  0.0283  1.8382
  138SOL     OW  412   2.290   0.380   1.528 -0.1647  0.1567  0.1859
  138SOL    HW1  413   2.222   0.307   1.541 -1.1755  0.4836  0.4597
  138SOL    HW2  414   2.314   0.431   1.611 -1.1239 -1.3638  0.1245
  139SOL     OW  415   2.644   0.085   2.733 -0.4474  0.3503  0.1026
  139SOL    HW1  416   2.584   0.021   2.777  2.0890  1.4001 -2.6043
  139SOL    HW2  417   2.632   0.184   2.765 -3.0063  0.9866 -0.7981
  140SOL     OW  418   1.106   1.800   2.265 -0.4994  0.0384 -0.4908
  140SOL    HW1  419   1.054   1.790   2.350  3.6972 -0.8962 -0.1066
  140SOL    HW2  420   1.144   1.708   2.238 -3.3841 -4.3203  0.9585
  141SOL     OW  421   0.670   0.527   2.467 -0.4842 -0.0464 -0.9435
  141SOL    HW1  422   0.584   0.574   2.434 -1.0901  0.4055 -0.1658
  141SOL    HW2  423   0.751   0.562   2.417 -3.7966  0.8128 -0.8160
  142SOL     OW  424   2.696   2.503   2.847  0.2053  0.2390 -0.4558
  142SOL    HW1  425   2.738   2.525   2.935  2.0881  0.7101 -3.1655
  142SOL    HW2  426   2.730   2.571   2.784 -1.2310 -0.6291 -0.3821
  143SOL     OW  427   0.905   2.048   0.321 -0.3785 -0.5574 -0.1196
  143SOL    HW1  428   0.885   2.143   0.286  0.7622 -0.2235  0.8553
  143SOL    HW2  429   0.976   2.055   0.397  0.4809  0.6672  0.3498
  144SOL     OW  430   1.488   2.619   0.032  0.5075 -0.1194  0.3967
  144SOL    HW1  431   1.426   2.536   0.035  2.0431 -1.6879 -0.9794
  144SOL    HW2  432   1.497   2.663   0.123  2.9652 -0.5140  0.0956
  145SOL     OW  433   1.515   1.894   2.616  0.5529  0.4640  0.2714
  145SOL    HW1  434   1.576   1.966   2.656 -1.1508 -1.7022 -0.2281
  145SOL    HW2  435   1.547   1.844   2.534  3.3498 -0.3086  0.6222
  146SOL     OW  436   2.806   2.950   2.817  0.0336  0.2434  0.5414
  146SOL    HW1  437   2.829   2.927   2.916  1.3175  0.4507 -0.2631
  146SOL    HW2  438   2.758   3.039   2.810  0.2148 -0.5404 -1.0150
  147SOL     OW  439   2.811   1.296   0.900  0.6381  0.5046  0.3055
  147SOL    HW1  440   2.847   1.271   0.994  2.3110  1.0068  2.7283
  147SOL    HW2  441   2.867   1.378   0.865  0.8356  1.2503  0.4012
  148SOL     OW  442   2.129   2.650   0.063 -0.1513 -0.7107 -0.2617
  148SOL    HW1  443   2.069   2.673   0.136  3.2066  0.7764 -0.1990
  148SOL    HW2  444   2.082   2.666   3.067  0.2345  1.8199  2.1508
  149SOL     OW  445   0.473   1.826   2.689  0.5839  0.2134  0.4459
  149SOL    HW1  446   0.560   1.814   2.734 -0.3233 -1.5562  0.9456
  149SOL    HW2  447   0.417   1.888   2.741  0.5720 -0.9032  2.1625
  150SOL     OW  448   0.294   2.420   0.544  0.1106 -0.3344  0.3363
  150SOL    HW1  449   0.341   2.430   0.452  2.5244 -0.4714 -3.4750
  150SOL    HW2  450   0.303   2.328   0.588  1.4899 -0.7721  2.0033
  151SOL     OW  451   0.412   1.163   0.383  0.1527 -0.1146  0.3514
  151SOL    HW1  452   0.389   1.067   0.379  2.2380  3.9769  1.9705
  151SOL    HW2  453   0.359   1.222   0.451  0.0699  3.9809 -0.0549
  152SOL     OW  454   2.602   1.852   0.529  0.0594 -0.6532 -0.4379
  152SOL    HW1  455   2.662   1.862   0.445  2.5928  1.4079  0.2568
  152SOL    HW2  456   2.542   1.771   0.521  2.2353  0.2941 -3.8404
  153SOL     OW  457   1.769   2.259   0.627 -0.1531  0.6314  0.1671
  153SOL    HW1  458   1.839   2.220   0.690 -0.4525 -0.8845  1.0877
  153SOL    HW2  459   1.787   2.224   0.534  0.3948  1.1034  0.0036
  154SOL     OW  460   1.017   2.569   0.873 -0.1184  0.3970  0.4892
  154SOL    HW1  461   0.980   2.567   0.778  0.8416  1.9025  0.3609
  154SOL    HW2  462   0.948   2.525   0.936 -1.7177 -2.4252 -1.0060
  155SOL     OW  463   2.934   1.893   0.755  0.0653 -0.2546  0.1223
  155SOL    HW1  464   2.876   1.810   0.762  0.2402 -0.7994  0.4887
  155SOL    HW2  465   2.962   1.908   0.659 -0.4799 -0.9672 -0.4555
  156SOL     OW  466   2.636   2.370   0.042 -0.0384  0.0692 -0.5804
  156SOL    HW1  467   2.560   2.334   3.076  1.7381 -1.3505 -1.2577
  156SOL    HW2  468   2.639   2.469   0.028  3.0009  1.6761 -0.9132
  157SOL     OW  469   0.569   2.341   1.380  0.1342 -0.1427 -0.2862
  157SOL    HW1  470   0.663   2.314   1.361 -0.6087  1.9927  1.2203
  157SOL    HW2  471   0.504   2.272   1.345 -1.4776  1.8915 -0.9059
  158SOL     OW  472   1.520   0.535   0.257  0.2083  0.4376 -0.2660
  158SOL    HW1  473   1.576   0.610   0.295 -0.3373 -0.5033  2.0072
  158SOL    HW2  474   1.578   0.457   0.234 -0.1511 -2.7434  3.1018
  159SOL     OW  475   1.267   0.767   0.451 -0.3365 -0.2955  0.1071
  159SOL    HW1  476   1.310   0.697   0.511 -2.2698 -1.8717 -2.5999
  159SOL    HW2  477   1.207   0.716   0.391 -0.7799  0.5042  1.5157
  160SOL     OW  478   0.710   1.399   0.729  0.3313  0.0117  0.1478
  160SOL    HW1  479   0.678   1.310   0.773  0.4734  0.1285 -1.1605
  160SOL    HW2  480   0.793   1.434   0.778  0.5479 -0.8259 -2.8897
  161SOL     OW  481   0.098   2.433   2.640  0.3690  0.0301  0.2271
  161SOL    HW1  482   0.067   2.419   2.735  1.3526  0.3039  1.8358
  161SOL    HW2  483   0.195   2.402   2.637 -3.7532  0.4262 -0.5779
  162SOL     OW  484   0.182   2.380   1.092  0.1191  0.1400  0.2137
  162SOL    HW1  485   0.091   2.333   1.104 -0.1412 -1.1490  1.0053
  162SOL    HW2  486   0.182   2.444   1.010  2.0893  1.2511 -2.7768
  163SOL     OW  487   3.061   0.360   2.848 -0.2480  0.3599  0.1750
  163SOL    HW1  488   0.034   0.434   2.846 -2.2204 -1.8193  1.5650
  163SOL    HW2  489   3.024   0.356   2.946  0.2191  0.6765  3.1276
  164SOL     OW  490   0.542   3.040   2.571  0.6018 -0.3184 -0.0341
  164SOL    HW1  491   0.468   3.042   2.640  0.7598 -0.0678 -0.8938
  164SOL    HW2  492   0.564   2.943   2.547 -1.8031 -1.7643  0.9000
  165SOL     OW  493   2.369   0.569   1.727 -0.0724  0.2427 -0.2625
  165SOL    HW1  494   2.287   0.581   1.784 -0.4595  0.5241 -1.0608
  165SOL    HW2  495   2.412   0.662   1.696  3.0292  1.5704 -4.4084
  166SOL     OW  496   1.993   2.166   1.617 -0.2586 -0.0384 -0.5373
  166SOL    HW1  497   2.057   2.128   1.685  0.5368 -2.0287  4.5104
  166SOL    HW2  498   1.897   2.166   1.646 -1.0453 -0.6482 -2.3049
  167SOL     OW  499   0.611   1.047   2.382 -0.4584 -0.0067 -0.1944
  167SOL    HW1  500   0.615   1.137   2.428 -3.0114 -2.0731  1.6458
  167SOL    HW2  501   0.633   0.971   2.452 -0.2670 -1.9636  1.9060
  168SOL     OW  502   2.331   3.066   2.211 -0.2816  0.4210 -0.1503
  168SOL    HW1  503   2.376   0.038   2.149 -0.6295  2.1560  2.3651
  168SOL    HW2  504   2.232   3.053   2.191  0.4347 -1.5409  0.5234
  169SOL     OW  505   0.273   0.843   0.316  0.1459  0.3994  0.0140
  169SOL    HW1  506   0.335   0.766   0.322  2.2715  0.6102  0.0432
  169SOL    HW2  507   0.200   0.829   0.250  2.4456 -0.5918 -2.1050
  170SOL     OW  508   0.219   1.355   1.857  0.0661 -0.2180  0.8188
  170SOL    HW1  509   0.180   1.406   1.774  0.0120  0.8085 -1.6283
  170SOL    HW2  510   0.313   1.389   1.882 -1.3946  1.4092  1.1523
  171SOL     OW  511   1.253   2.363   2.096  0.3283  0.0784 -0.6992
  171SOL    HW1  512   1.264   2.417   2.013  0.2023 -0.2400 -0.2489
  171SOL    HW2  513   1.312   2.402   2.170 -0.1734  0.2885 -2.8404
  172SOL     OW  514   1.065   2.735   2.165 -0.4560 -0.0857  0.1529
  172SOL    HW1  515   1.017   2.674   2.096 -1.2393  2.7629 -2.9610
  172SOL    HW2  516   1.150   2.779   2.123  2.3255 -1.2336 -2.7768
  173SOL     OW  517   1.517   2.347   0.571  0.8049  0.4087  0.0691
  173SOL    HW1  518   1.591   2.292   0.611 -0.2065  1.4083  2.4260
  173SOL    HW2  519   1.500   2.420   0.644  0.3045  3.6246  0.7433
  174SOL     OW  520   2.352   3.054   0.323  0.0676 -0.2102 -0.4165
  174SOL    HW1  521   2.404   3.018   0.402 -2.3069  1.2397 -0.3519
  174SOL    HW2  522   2.354   0.066   0.321 -2.3418  1.9701  1.1320
  175SOL     OW  523   0.938   1.665   0.340  0.4858  0.5251  0.9968
  175SOL    HW1  524   0.895   1.719   0.262 -0.9519 -0.1635 -0.2450
  175SOL    HW2  525   0.883   1.579   0.361 -0.7275 -2.6919  0.0408
  176SOL     OW  526   0.503   1.787   0.625 -0.0345 -0.1602 -0.0100
  176SOL    HW1  527   0.528   1.885   0.641  2.0997 -0.2167  2.0408
  176SOL    HW2  528   0.414   1.779   0.578  1.9763  1.1502  0.1806
  177SOL     OW  529   1.239   1.274   1.542  0.4978  0.4137  0.2020
  177SOL    HW1  530   1.178   1.229   1.609  3.4389  2.4649 -2.7942
  177SOL    HW2  531   1.331   1.272   1.568 -3.6821  0.9587 -3.8026
  178SOL     OW  532   2.413   1.665   0.393  0.2211  0.2278 -0.0559
  178SOL    HW1  533   2.330   1.712   0.427 -0.4567  1.3378  0.1066
  178SOL    HW2  534   2.382   1.603   0.315  0.1660 -1.7531 -2.2984
  179SOL     OW  535   1.332   2.386   3.084 -0.5251  0.6242 -0.2500
  179SOL    HW1  536   1.320   2.365   2.988  2.0101 -0.0019 -0.3538
  179SOL    HW2  537   1.254   2.360   0.052 -1.4523 -4.2970  0.7867
  180SOL     OW  538   2.067   1.456   2.163 -0.5487  0.3579 -0.5573
  180SOL    HW1  539   2.008   1.505   2.101  1.8538 -3.1151  1.9377
  180SOL    HW2  540   2.143   1.402   2.118  0.8757 -0.7497  2.9124
  181SOL     OW  541   0.692   0.853   2.536 -0.7693  0.0512 -0.1213
  181SOL    HW1  542   0.732   0.800   2.457  1.2355  0.5895 -0.8576
  181SOL    HW2  543   0.763   0.866   2.613 -1.1898  0.3249  0.0515
  182SOL     OW  544   2.827   1.034   2.421 -0.5013 -0.5025  0.2023
  182SOL    HW1  545   2.731   1.006   2.446 -0.7432  0.6795 -0.9159
  182SOL    HW2  546   2.879   1.054   2.507 -1.2007  1.6198  1.1488
  183SOL     OW  547   1.483   0.907   2.198  0.3018  0.1069 -0.7049
  183SOL    HW1  548   1.472   0.803   2.185 -3.0002 -1.4120  2.9515
  183SOL    HW2  549   1.408   0.952   2.142  1.1234  1.0321 -0.8240
  184SOL     OW  550   0.372   0.600   1.622 -0.2026  0.6818 -0.0407
  184SOL    HW1  551   0.427   0.666   1.674  1.6877  0.0114  2.2395
  184SOL    HW2  552   0.274   0.616   1.636 -0.0821 -0.3989  0.2312
  185SOL     OW  553   1.964   1.729   0.777  1.0265 -0.2893 -0.5106
  185SOL    HW1  554   2.019   1.796   0.722  1.7491 -0.1552 -0.4395
  185SOL    HW2  555   1.990   1.733   0.878  2.2803 -1.0032  0.0930
  186SOL     OW  556   0.251   1.966   0.228  0.1095 -1.0677 -0.5533
  186SOL    HW1  557   0.326   1.933   0.169  0.0378  0.0615  1.4359
  186SOL    HW2  558   0.177   1.901   0.251 -0.8405  0.7219 -2.2367
  187SOL     OW  559   2.036   1.872   0.135  0.3235  0.2484  0.1904
  187SOL    HW1  560   2.111   1.881   0.204 -1.2421 -1.1664  1.6219
  187SOL    HW2  561   2.010   1.966   0.108 -1.3984  1.2986 -0.1616
  188SOL     OW  562   0.936   2.153   0.963  0.0644  0.1968  0.0189
  188SOL    HW1  563   0.972   2.080   1.025  1.5178 -1.3581 -1.0801
  188SOL    HW2  564   0.960   2.242   1.008  0.2520 -1.7752 -0.9324
  189SOL     OW  565   1.876   1.273   2.641 -0.2349  0.2463 -0.4625
  189SOL    HW1  566   1.887   1.266   2.747 -1.7030  0.2869 -1.0476
  189SOL    HW2  567   1.786   1.315   2.621  2.6087 -2.0465 -1.7754
  190SOL     OW  568   1.066   2.223   2.224 -0.1916 -0.2175 -0.1786
  190SOL    HW1  569   0.963   2.228   2.208 -0.4149 -0.8133  0.1812
  190SOL    HW2  570   1.117   2.272   2.152  1.6897  0.9060  1.3561
  191SOL     OW  571   2.303   0.711   1.341 -0.0576 -0.2851 -0.1540
  191SOL    HW1  572   2.222   0.692   1.399 -0.3698 -0.2026 -0.5495
  191SOL    HW2  573   2.378   0.730   1.405 -0.3008  0.1935 -0.8455
  192SOL     OW  574   2.604   0.430   1.781 -0.4660 -0.6066  0.2027
  192SOL    HW1  575   2.522   0.489   1.765 -0.2941  2.8270  0.4734
  192SOL    HW2  576   2.671   0.477   1.845  1.1325  1.5474 -0.4782
  193SOL     OW  577   0.666   0.065   0.627  0.0427 -0.0029 -0.2787
  193SOL    HW1  578   0.736   0.008   0.585  3.7425  0.0757 -0.7904
  193SOL    HW2  579   0.591   0.076   0.560 -1.1241  0.4350 -0.7075
  194SOL     OW  580   1.306   2.479   1.857  0.0127  0.1356  0.6350
  194SOL    HW1  581   1.340   2.441   1.765  2.5773  2.3813 -0.9986
  194SOL    HW2  582   1.240   2.553   1.830 -1.6468 -2.0002  0.2964
  195SOL     OW  583   2.502   1.025   0.789 -0.0224 -0.4448 -0.3845
  195SOL    HW1  584   2.513   1.095   0.865 -0.1816  1.9516  2.4140
  195SOL    HW2  585   2.433   1.044   0.717  1.1263 -0.4069 -3.5946
  196SOL     OW  586   1.009   2.296   1.839  0.1438  0.0435  0.3429
  196SOL    HW1  587   0.948   2.359   1.782  0.4398  2.9012 -0.3359
  196SOL    HW2  588   0.953   2.232   1.899 -0.1347 -0.5059  0.2376
  197SOL     OW  589   0.252   0.626   2.567 -0.5384 -0.5176 -0.6577
  197SOL    HW1  590   0.230   0.705   2.513  1.0827  0.6186  0.9063
  197SOL    HW2  591   0.243   0.544   2.507  1.2342  0.5661  0.4806
  198SOL     OW  592   1.478   0.887   0.343  0.6821  0.4441  0.2718
  198SOL    HW1  593   1.386   0.855   0.373 -1.4953 -0.1259  0.8339
  198SOL    HW2  594   1.471   0.955   0.266  0.0015  1.1052 -0.0209
  199SOL     OW  595   2.775   0.518   1.973 -0.1481  0.2914 -0.5792
  199SOL    HW1  596   2.754   0.466   2.056 -0.2630 -0.7437  1.4799
  199SOL    HW2  597   2.747   0.614   1.990  3.6845  1.7410 -0.4664
  200SOL     OW  598   2.369   2.441   2.384  0.0694  0.3439  0.0545
  200SOL    HW1  599   2.392   2.541   2.369 -2.1089  2.3592 -2.6923
  200SOL    HW2  600   2.272   2.431   2.404  1.3557  2.1707  1.7892
  201SOL     OW  601   2.483   0.053   1.314 -0.3927  0.1312  0.4035
  201SOL    HW1  602   2.439   3.062   1.347  4.3823  4.9483  1.1803
  201SOL    HW2  603   2.457   0.074   1.215 -3.6380  0.1121 -1.1355
  202SOL     OW  604   0.170   2.744   0.339  0.2492  0.0976  0.2009
  202SOL    HW1  605   0.100   2.812   0.368  0.3809 -2.7994 -0.5079
  202SOL    HW2  606   0.257   2.781   0.365 -1.2455 -1.9821 -1.2683
  203SOL     OW  607   1.134   2.242   2.602  0.4621 -0.6765  0.2450
  203SOL    HW1  608   1.033   2.250   2.602  0.0214  2.2773  1.8263
  203SOL    HW2  609   1.157   2.150   2.574 -0.3578  2.6913  2.4855
  204SOL     OW  610   0.543   1.886   2.439 -0.1496  0.1415  0.2772
  204SOL    HW1  611   0.614   1.958   2.454 -1.8614  0.0980 -0.6588
  204SOL    HW2  612   0.499   1.852   2.528  2.1695  0.4116 -1.2045
  205SOL     OW  613   0.888   1.046   1.241  0.0397  0.0550  0.2395
  205SOL    HW1  614   0.836   0.970   1.279  1.2260  1.2491 -0.2478
  205SOL    HW2  615   0.980   1.048   1.278 -1.1642 -0.5697 -1.1413
  206SOL     OW  616   0.113   0.584   2.789  0.0308  0.2851 -0.1788
  206SOL    HW1  617   0.020   0.625   2.761 -0.1425  2.6994  0.9493
  206SOL    HW2  618   0.171   0.581   2.702 -2.8627  0.6425 -0.3749
  207SOL     OW  619   1.828   2.275   1.997  0.0833  0.0549 -0.7816
  207SOL    HW1  620   1.904   2.344   1.974 -0.9384  1.2417 -0.3707
  207SOL    HW2  621   1.742   2.293   1.945 -4.5233 -1.5555 -1.9407
  208SOL     OW  622   0.700   2.753   1.319  0.0943 -0.1879 -0.2317
  208SOL    HW1  623   0.645   2.674   1.283 -1.9660  0.0631 -1.2239
  208SOL    HW2  624   0.652   2.822   1.380  3.8146  0.3174 -2.8779
  209SOL     OW  625   1.259   1.338   0.064 -0.2945 -0.5193  0.3575
  209SOL    HW1  626   1.223   1.401   0.135  0.4613 -2.1475  1.6591
  209SOL    HW2  627   1.360   1.353   0.060  0.8482  1.5150  1.6095
  210SOL     OW  628   2.311   0.609   0.842 -0.3319  0.0611 -0.1216
  210SOL    HW1  629   2.341   0.567   0.752  0.8488 -0.9154 -0.6187
  210SOL    HW2  630   2.231   0.672   0.838  3.2844  0.6169  0.3574
  211SOL     OW  631   1.472   2.709   0.280 -0.0046 -0.0009 -0.0877
  211SOL    HW1  632   1.396   2.764   0.315  1.7861 -2.2763 -0.5558
  211SOL    HW2  633   1.556   2.769   0.283  2.0737  2.4424 -0.6719
  212SOL     OW  634   1.982   2.154   0.767 -0.4091  0.3762  0.0318
  212SOL    HW1  635   2.057   2.214   0.735 -0.0457  0.8993 -1.1926
  212SOL    HW2  636   1.974   2.144   0.868  0.9276 -0.9783  0.5992
  213SOL     OW  637   1.735   0.680   2.879  0.6036 -0.2472 -0.2477
  213SOL    HW1  638   1.780   0.658   2.788  1.2688 -1.7062 -0.4720
  213SOL    HW2  639   1.781   0.748   2.939 -1.3203 -0.7702  0.3061
  214SOL     OW  640   0.690   1.710   1.828  0.4007  0.2577  0.4406
  214SOL    HW1  641   0.742   1.753   1.904  2.5215  0.0974 -0.3080
  214SOL    HW2  642   0.676   1.781   1.751  3.7910  0.1994  1.7364
  215SOL     OW  643   0.042   1.465   0.398 -0.1995  0.0840 -0.0726
  215SOL    HW1  644   0.138   1.477   0.366  2.4834 -1.2605 -1.2376
  215SOL    HW2  645   0.040   1.392   0.470  1.0137  0.3361 -1.0879
  216SOL     OW  646   0.152   2.829   2.353 -0.4517 -0.1257  0.2664
  216SOL    HW1  647   0.186   2.923   2.372  1.6374  1.1905 -0.8469
  216SOL    HW2  648   0.140   2.781   2.443  2.3735 -0.3090  0.3541
  217SOL     OW  649   2.627   1.073   1.253 -0.0045  0.0424  0.0040
  217SOL    HW1  650   2.612   0.988   1.191 -3.5733 -3.0014 -1.0325
  217SOL    HW2  651   2.721   1.104   1.242  0.2854 -0.9923 -0.8875
  218SOL     OW  652   1.097   1.954   2.054  0.2375  0.1431 -0.3765
  218SOL    HW1  653   1.178   2.016   2.040  3.3981  1.0786  1.7400
  218SOL    HW2  654   1.112   1.905   2.139  0.1838  0.2110 -1.3752
  219SOL     OW  655   1.975   1.389   0.235 -1.0296  0.4940 -0.3576
  219SOL    HW1  656   2.035   1.347   0.162 -0.4963 -0.4483 -1.5581
  219SOL    HW2  657   1.951   1.311   0.303 -0.3694 -3.7485  1.9665
  220SOL     OW  658   2.083   0.995   0.377  0.4894  0.3754  0.1202
  220SOL    HW1  659   2.157   1.046   0.337 -2.3055  0.6287  2.2758
  220SOL    HW2  660   2.113   0.919   0.440  0.9627 -1.5759 -0.4714
  221SOL     OW  661   0.111   0.391   0.305  0.0341  0.4300 -0.0647
  221SOL    HW1  662   0.175   0.313   0.279  0.1292  0.8321 -0.8011
  221SOL    HW2  663   0.088   0.447   0.228 -3.4339  1.3744  2.1587
  222SOL     OW  664   1.316   1.437   0.576  0.1136  0.6539  0.5257
  222SOL    HW1  665   1.406   1.481   0.566 -2.4418  0.2620  0.5514
  222SOL    HW2  666   1.251   1.488   0.636 -2.3816 -2.2856 -0.5740
  223SOL     OW  667   0.936   0.311   3.033  0.2792 -0.2807 -0.9126
  223SOL    HW1  668   1.003   0.315   0.018 -2.4178 -1.8546  0.2074
  223SOL    HW2  669   0.988   0.312   2.945 -1.3360 -2.6585 -1.6346
  224SOL     OW  670   1.689   0.187   1.383 -0.0799  0.2235 -0.0270
  224SOL    HW1  671   1.635   0.201   1.467  1.7097 -0.1108  0.2907
  224SOL    HW2  672   1.644   0.122   1.319  2.0759  0.2230 -1.0246
  225SOL     OW  673   0.196   2.540   1.325  0.2730 -0.1691  0.0524
  225SOL    HW1  674   0.225   2.483   1.240  1.4735  0.4389 -4.6816
  225SOL    HW2  675   0.141   2.482   1.391  0.1109 -2.3129  1.1553
  226SOL     OW  676   0.782   1.596   0.091 -0.0480  0.1493 -0.1149
  226SOL    HW1  677   0.818   1.498   0.103  0.7984 -1.9323 -0.9210
  226SOL    HW2  678   0.856   1.664   0.098  0.2386 -0.8832  1.3493
  227SOL     OW  679   0.866   1.546   0.926 -0.3143 -0.3224  0.3096
  227SOL    HW1  680   0.786   1.596   0.880 -3.5911  2.2643 -0.1165
  227SOL    HW2  681   0.848   1.533   1.021  2.9436  1.5478 -0.2992
  228SOL     OW  682   0.225   1.736   0.480 -0.1080  0.1461 -0.2294
  228SOL    HW1  683   0.157   1.774   0.414  1.1607 -0.2273  0.7748
  228SOL    HW2  684   0.280   1.663   0.428  2.8680 -0.0318  0.1437
  229SOL     OW  685   2.334   0.159   2.770 -0.9540 -0.1954  0.0051
  229SOL    HW1  686   2.247   0.138   2.727  3.8217  0.6381 -0.8152
  229SOL    HW2  687   2.366   0.071   2.809  0.2036  0.1613 -1.4385
  230SOL     OW  688   1.784   1.146   0.666  0.1188  0.1126 -0.2528
  230SOL    HW1  689   1.761   1.246   0.658  1.3965 -0.5621  0.0671
  230SOL    HW2  690   1.718   1.079   0.623  0.6846 -1.1133 -1.9636
  231SOL     OW  691   1.256   1.418   2.485  0.6583 -0.2470  0.6564
  231SOL    HW1  692   1.353   1.443   2.513 -1.7909  1.0488 -0.6580
  231SOL    HW2  693   1.253   1.330   2.435  0.8855 -0.8764 -0.8127
  232SOL     OW  694   2.393   2.133   0.692 -0.0224 -0.8148  0.2450
  232SOL    HW1  695   2.493   2.122   0.681  1.3863  0.7340  2.9428
  232SOL    HW2  696   2.372   2.064   0.765 -2.3653  1.1447 -0.8250
  233SOL     OW  697   0.568   2.457   0.820  0.4294  0.6257  0.3112
  233SOL    HW1  698   0.590   2.412   0.733 -0.9514 -2.0586  0.4089
  233SOL    HW2  699   0.557   2.556   0.811 -0.4604 -1.5420  1.3490
  234SOL     OW  700   0.540   0.527   2.895  0.0926 -0.6844  0.0446
  234SOL    HW1  701   0.532   0.587   2.816  2.1527 -0.3710  2.4336
  234SOL    HW2  702   0.482   0.556   2.976  0.7779  1.6110 -1.1287
  235SOL     OW  703   2.687   0.459   2.244 -0.2873  0.1628  0.0272
  235SOL    HW1  704   2.657   0.373   2.292  0.3751 -3.6749 -1.2342
  235SOL    HW2  705   2.783   0.478   2.267 -0.2473 -0.7594 -1.4503
  236SOL     OW  706   1.690   2.760   1.461  0.8270  0.0391  0.3687
  236SOL    HW1  707   1.740   2.712   1.384 -0.6048  0.2989 -1.8319
  236SOL    HW2  708   1.682   2.697   1.537 -1.0563  0.6969 -1.9002
  237SOL     OW  709   0.794   1.660   2.227 -0.4313 -0.4889  0.2574
  237SOL    HW1  710   0.694   1.652   2.254 -1.8949 -2.2173  3.6060
  237SOL    HW2  711   0.844   1.720   2.297  2.4328  1.3861 -0.0865
  238SOL     OW  712   1.050   0.328   2.333 -0.0155 -0.1761  0.0980
  238SOL    HW1  713   1.091   0.371   2.413 -2.0459 -2.1081 -2.2481
  238SOL    HW2  714   1.017   0.236   2.356 -2.3172 -0.4522  0.2337
  239SOL     OW  715   0.449   2.284   2.114 -0.4171 -0.0259  0.0923
  239SOL    HW1  716   0.533   2.330   2.076  0.8700  2.8694  1.0211
  239SOL    HW2  717   0.365   2.323   2.075  0.8149 -1.2645  3.9562
  240SOL     OW  718   2.442   2.681   0.471 -0.0562 -0.1439 -0.2497
  240SOL    HW1  719   2.452   2.626   0.557 -0.8193  2.6179 -0.2066
  240SOL    HW2  720   2.363   2.653   0.415 -0.6417  0.0249  0.2398
  241SOL     OW  721   2.531   1.235   0.937  0.1676 -0.6098 -0.2906
  241SOL    HW1  722   2.472   1.282   1.004 -0.2396 -0.7227  0.9393
  241SOL    HW2  723   2.628   1.262   0.942 -3.1215 -0.9465 -1.7179
  242SOL     OW  724   2.001   2.455   1.915 -0.0139 -0.2624  0.3911
  242SOL    HW1  725   2.087   2.422   1.959 -1.4925  1.9470 -0.7199
  242SOL    HW2  726   1.967   2.543   1.954  0.2038  1.5870  0.5650
  243SOL     OW  727   0.917   2.709   1.474 -0.3342  0.5090  0.4911
  243SOL    HW1  728   0.841   2.730   1.410 -1.3853  1.6438  1.1500
  243SOL    HW2  729   0.940   2.795   1.519 -1.2904 -2.3052 -2.9402
  244SOL     OW  730   2.052   0.520   2.859 -0.1872  0.6215  0.1983
  244SOL    HW1  731   1.976   0.512   2.790  1.2607 -1.1016 -1.9564
  244SOL    HW2  732   2.139   0.520   2.810 -0.5740 -0.7727 -1.5630
  245SOL     OW  733   1.534   0.576   1.171 -0.0080 -0.1143  0.1926
  245SOL    HW1  734   1.543   0.627   1.086 -0.5266  0.1527 -0.1809
  245SOL    HW2  735   1.437   0.584   1.212 -3.0229 -0.0450  0.4635
  246SOL     OW  736   1.821   2.569   3.030  0.0580 -0.2046  0.6826
  246SOL    HW1  737   1.885   2.639   2.990  1.8074  1.7128 -0.7848
  246SOL    HW2  738   1.732   2.570   2.977 -2.3827 -1.4925  0.1701
  247SOL     OW  739   1.007   0.846   2.473  0.5916  0.3703  0.2984
  247SOL    HW1  740   1.029   0.790   2.551  1.7296  0.5278 -0.2494
  247SOL    HW2  741   1.016   0.948   2.489 -0.5865  3.4665  0.4934
  248SOL     OW  742   0.298   2.159   1.770 -0.5943 -0.1385  0.1604
  248SOL    HW1  743   0.366   2.116   1.838 -0.0041 -2.2576  0.4749
  248SOL    HW2  744   0.344   2.226   1.708  2.2174 -0.8449  1.2215
  249SOL     OW  745   2.560   0.421   0.371  0.2818 -0.7383  0.1175
  249SOL    HW1  746   2.575   0.484   0.293  1.9424 -0.8450  0.5785
  249SOL    HW2  747   2.489   0.348   0.356 -2.8533 -0.0156  0.1488
  250SOL     OW  748   2.730   0.366   2.834 -0.4533  0.0018 -0.1223
  250SOL    HW1  749   2.735   0.374   2.936  0.3555  0.7894  0.4941
  250SOL    HW2  750   2.821   0.379   2.788  0.4982 -2.2470 -3.4556
  251SOL     OW  751   1.371   0.832   2.891  0.0915  0.5759  0.2914
  251SOL    HW1  752   1.444   0.900   2.866  2.4116 -1.8536 -3.7564
  251SOL    HW2  753   1.413   0.760   2.951  2.1840 -0.5832 -0.8767
  252SOL     OW  754   1.352   2.112   2.024  0.1515 -0.4221  0.2101
  252SOL    HW1  755   1.307   2.200   2.039  1.6856 -1.2505 -0.7168
  252SOL    HW2  756   1.373   2.077   2.115 -2.2808  0.7213  0.3940
  253SOL     OW  757   2.263   2.460   1.000  0.3545  0.2310  0.1429
  253SOL    HW1  758   2.318   2.548   1.001  2.8548  1.7581 -0.7463
  253SOL    HW2  759   2.272   2.412   1.089  1.5822 -1.1576 -1.2731
  254SOL     OW  760   2.077   1.321   0.667 -0.1296 -0.3980  0.0661
  254SOL    HW1  761   2.072   1.288   0.573 -0.3069  0.4914  0.5743
  254SOL    HW2  762   2.107   1.249   0.729 -1.0849  4.3403  0.8671
  255SOL     OW  763   1.537   0.006   1.223 -0.0284  0.3445 -0.3929
  255SOL    HW1  764   1.486   3.069   1.138 -2.5871 -0.3395 -1.1376
  255SOL    HW2  765   1.525   3.043   1.307 -0.1649  2.6425 -0.8890
  256SOL     OW  766   1.650   2.527   1.646 -0.2286 -0.2166 -1.1017
  256SOL    HW1  767   1.637   2.432   1.618 -0.3308 -0.7285 -1.4251
  256SOL    HW2  768   1.563   2.573   1.665  1.2190  1.5291  1.3420
  257SOL     OW  769   0.614   2.777   2.538 -0.0458 -0.0765  0.0873
  257SOL    HW1  770   0.654   2.778   2.447 -2.3263  0.8970 -0.9391
  257SOL    HW2  771   0.686   2.785   2.608 -1.4026 -1.3111  0.8851
  258SOL     OW  772   1.079   2.485   0.422 -0.3242 -0.4195 -0.0058
  258SOL    HW1  773   1.026   2.475   0.336 -0.8032 -1.7911 -0.6667
  258SOL    HW2  774   1.139   2.404   0.435  2.4308 -2.4788  1.0581
  259SOL     OW  775   1.562   0.207   2.809 -0.1288  0.2426 -0.3221
  259SOL    HW1  776   1.607   0.229   2.899  0.1177 -1.7994  2.7125
  259SOL    HW2  777   1.582   0.286   2.744 -0.9064  1.6604  1.0204
  260SOL     OW  778   2.447   0.353   1.310 -0.1136  0.4753  0.5476
  260SOL    HW1  779   2.460   0.251   1.295  1.3881  0.8337  1.6563
  260SOL    HW2  780   2.399   0.372   1.399 -0.9885 -3.3541  0.3011
  261SOL     OW  781   0.809   0.511   2.727 -0.1375  0.7634 -0.4804
  261SOL    HW1  782   0.735   0.507   2.798 -2.3030  0.0528 -1.2617
  261SOL    HW2  783   0.773   0.546   2.637  0.0488  1.0886  0.1230
  262SOL     OW  784   1.064   2.521   2.355  0.1703  0.2720 -0.6007
  262SOL    HW1  785   1.071   2.448   2.285 -1.3606  0.5716  0.1418
  262SOL    HW2  786   1.054   2.611   2.307 -0.1562 -1.0039 -0.8280
  263SOL     OW  787   0.270   1.998   2.830 -0.4301  0.3633 -0.1061
  263SOL    HW1  788   0.323   2.080   2.814  3.6156  0.0788 -0.5532
  263SOL    HW2  789   0.180   2.005   2.872 -0.7369 -1.2754  0.3336
  264SOL     OW  790   1.088   1.586   0.732 -0.0112 -0.2503  0.4399
  264SOL    HW1  791   1.029   1.568   0.809 -0.1461  1.6033 -1.7537
  264SOL    HW2  792   1.030   1.641   0.669 -1.5974  1.4611  0.3374
  265SOL     OW  793   1.252   2.301   0.480  0.1429  0.3598 -0.1241
  265SOL    HW1  794   1.324   2.274   0.412 -2.3108  0.9506 -3.9438
  265SOL    HW2  795   1.301   2.305   0.568  1.3308 -0.1954  1.3718
  266SOL     OW  796   1.981   0.863   1.145 -1.0183 -0.3042  0.2840
  266SOL    HW1  797   1.973   0.767   1.178 -2.1057 -2.1236 -0.5120
  266SOL    HW2  798   2.078   0.877   1.119 -1.0009 -1.4808  0.7815
  267SOL     OW  799   2.761   1.147   2.682  0.6994 -0.3178  0.0120
  267SOL    HW1  800   2.765   1.236   2.633  0.0929 -0.1639  2.2724
  267SOL    HW2  801   2.666   1.133   2.716 -1.2962 -1.4990 -1.4956
  268SOL     OW  802   1.539   0.017   0.230  0.3351 -0.2945  0.1250
  268SOL    HW1  803   1.598   3.034   0.269  2.8898 -2.3909 -0.2213
  268SOL    HW2  804   1.512   0.087   0.298 -0.8417  0.2533 -3.0828
  269SOL     OW  805   2.647   0.614   2.557 -0.3266 -0.1133  0.0975
  269SOL    HW1  806   2.595   0.533   2.591  0.1064  1.3719  0.4697
  269SOL    HW2  807   2.740   0.581   2.533 -0.6615 -0.1149  0.0473
  270SOL     OW  808   2.946   1.566   0.027  0.6406 -0.2738 -0.2112
  270SOL    HW1  809   2.990   1.480   0.007 -1.2250  2.7845 -0.9835
  270SOL    HW2  810   3.011   1.645   0.026 -1.7431  0.6618  0.1339
  271SOL     OW  811   2.526   1.102   2.787 -0.1182 -0.4636 -0.5165
  271SOL    HW1  812   2.487   1.174   2.722  2.1205 -1.3806 -1.3999
  271SOL    HW2  813   2.485   1.016   2.758  0.7071  2.7554  1.1692
  272SOL     OW  814   2.859   2.438   2.277 -0.2559 -0.3225  0.2229
  272SOL    HW1  815   2.853   2.361   2.341 -0.0312  1.0188 -3.2203
  272SOL    HW2  816   2.780   2.435   2.214  0.1822 -0.7419  0.1972
  273SOL     OW  817   0.333   2.675   0.692  0.2316 -0.5738  0.1555
  273SOL    HW1  818   0.411   2.702   0.753  1.1406 -0.0782 -2.0558
  273SOL    HW2  819   0.334   2.578   0.664  1.3523 -1.9314 -1.3920
  274SOL     OW  820   0.846   2.120   0.696 -0.1532  0.0205 -0.3199
  274SOL    HW1  821   0.936   2.117   0.647  3.8899 -1.3345 -3.1234
  274SOL    HW2  822   0.861   2.123   0.797  1.4999  0.8020  2.9568
  275SOL     OW  823   2.341   1.464   0.221 -0.3081 -0.1979  0.1006
  275SOL    HW1  824   2.285   1.449   0.139  0.4363 -1.5375 -1.2032
  275SOL    HW2  825   2.405   1.382   0.224  0.3324 -0.3703 -0.4906
  276SOL     OW  826   2.794   1.593   1.170  0.2814  0.4783  0.1261
  276SOL    HW1  827   2.748   1.554   1.249 -0.3751  0.1135  1.4812
  276SOL    HW2  828   2.847   1.671   1.209 -2.0520  0.1337 -1.2301
  277SOL     OW  829   2.756   0.036   0.712  0.0138  0.4119 -0.4100
  277SOL    HW1  830   2.666   0.027   0.757  0.7045 -1.7423  4.5790
  277SOL    HW2  831   2.816   3.045   0.729 -0.0708 -1.1614  1.8645
  278SOL     OW  832   1.581   0.205   2.445 -0.0706 -0.2702 -0.3761
  278SOL    HW1  833   1.505   0.169   2.505  1.7647 -2.9408 -2.1088
  278SOL    HW2  834   1.644   0.129   2.423  1.5682 -0.8628 -1.1440
  279SOL     OW  835   1.480   2.615   1.098 -0.4280 -0.0911 -0.0032
  279SOL    HW1  836   1.567   2.631   1.047  0.1510  0.1079  2.1559
  279SOL    HW2  837   1.401   2.593   1.040 -0.7330 -1.9810 -0.2391
  280SOL     OW  838   0.907   0.976   0.710  0.1836  0.0405 -0.0931
  280SOL    HW1  839   0.961   0.976   0.797  0.5507  2.1826 -0.4659
  280SOL    HW2  840   0.922   1.058   0.656  1.9687 -2.7345  1.6716
  281SOL     OW  841   2.415   1.275   2.637  0.3607 -0.3455 -0.5657
  281SOL    HW1  842   2.396   1.377   2.632  1.9340  1.6952  0.2786
  281SOL    HW2  843   2.424   1.232   2.548  0.6373  2.4756  1.9474
  282SOL     OW  844   2.994   1.295   0.248  0.0414 -0.5740 -0.7361
  282SOL    HW1  845   2.913   1.269   0.304 -1.1814 -2.0071 -0.4222
  282SOL    HW2  846   3.036   1.381   0.285 -0.0705 -1.8288  0.9620
  283SOL     OW  847   1.876   2.683   2.508  0.0277 -0.1667  0.1089
  283SOL    HW1  848   1.817   2.667   2.426 -0.1523  0.0429  2.1270
  283SOL    HW2  849   1.835   2.642   2.592 -0.7171  3.0772  0.0481
  284SOL     OW  850   0.993   3.071   0.142 -0.1582 -0.1230  0.6311
  284SOL    HW1  851   1.005   2.968   0.141 -0.1460 -1.1520 -2.5245
  284SOL    HW2  852   0.913   0.014   0.194  0.3336 -1.7368  1.2425
  285SOL     OW  853   2.256   1.418   2.384  0.5574  0.1483 -0.3823
  285SOL    HW1  854   2.206   1.462   2.309 -0.6979 -2.0738 -1.8128
  285SOL    HW2  855   2.300   1.479   2.454  0.5614 -2.3859 -0.3840
  286SOL     OW  856   1.280   2.174   0.762  0.2715  0.1639  0.6317
  286SOL    HW1  857   1.198   2.141   0.706 -4.1987  3.1161 -1.8998
  286SOL    HW2  858   1.256   2.183   0.860 -0.3839  3.1378 -0.3569
  287SOL     OW  859   1.807   0.198   0.975 -0.1344 -0.6649  0.3806
  287SOL    HW1  860   1.869   0.217   1.049  1.9844 -0.5418 -3.3977
  287SOL    HW2  861   1.835   0.116   0.928 -1.1838  1.7669  3.2069
  288SOL     OW  862   0.780   2.816   2.309 -0.2227  0.2870 -0.0002
  288SOL    HW1  863   0.872   2.856   2.304 -2.0743  1.9754 -0.3429
  288SOL    HW2  864   0.747   2.787   2.215 -1.3906  0.6401 -0.3497
  289SOL     OW  865   0.001   1.288   0.632  0.1263  0.0067  0.2758
  289SOL    HW1  866   3.066   1.361   0.700 -0.4044  1.9168 -0.9416
  289SOL    HW2  867   3.058   1.198   0.655 -0.3470 -0.8095  0.4208
  290SOL     OW  868   1.281   2.262   1.103 -0.1118  0.1452 -0.5770
  290SOL    HW1  869   1.367   2.230   1.063 -4.4478 -2.1562  2.8315
  290SOL    HW2  870   1.260   2.209   1.188 -1.7171  1.2298 -0.5728
  291SOL     OW  871   1.683   2.825   0.561 -0.1422  0.7370 -0.2170
  291SOL    HW1  872   1.611   2.853   0.626 -0.2748 -0.6346  2.8366
  291SOL    HW2  873   1.710   2.727   0.570  3.3733 -1.6020 -1.7798
  292SOL     OW  874   0.485   0.063   2.219 -0.4080 -0.2350  0.0461
  292SOL    HW1  875   0.475   0.162   2.238  0.9668  0.3727 -1.3168
  292SOL    HW2  876   0.582   0.037   2.242  1.0645  1.7680  3.0348
  293SOL     OW  877   2.334   1.942   0.856 -0.0232 -0.5333  0.0700
  293SOL    HW1  878   2.289   1.852   0.858  2.4616  1.9841 -0.8746
  293SOL    HW2  879   2.374   1.957   0.946 -0.1853  0.6141 -1.8753
  294SOL     OW  880   0.765   0.125   2.061  0.0337 -0.1954  0.2916
  294SOL    HW1  881   0.832   0.069   2.113  2.0462 -3.0806 -1.6952
  294SOL    HW2  882   0.775   0.112   1.962 -1.1420  1.1234  2.2951
  295SOL     OW  883   1.321   1.507   1.023  0.1836  0.1665 -0.1713
  295SOL    HW1  884   1.388   1.453   1.075  2.7861  0.5248 -3.0758
  295SOL    HW2  885   1.236   1.457   1.005 -0.4958  0.8699  2.3433
  296SOL     OW  886   2.125   1.925   0.642  0.6873  0.3174  0.6247
  296SOL    HW1  887   2.213   1.926   0.691 -3.9545 -1.1069  2.3994
  296SOL    HW2  888   2.077   2.011   0.661  0.8272 -2.0981 -0.9459
  297SOL     OW  889   2.446   3.018   2.870  0.1633  0.3408 -0.0680
  297SOL    HW1  890   2.394   2.936   2.825 -2.4586 -2.6182  0.3094
  297SOL    HW2  891   2.459   2.995   2.966 -0.5163  1.7238 -0.6009
  298SOL     OW  892   1.205   0.376   2.581  0.7449 -0.1028  0.3158
  298SOL    HW1  893   1.145   0.359   2.664 -1.3708  1.6286 -1.6828
  298SOL    HW2  894   1.253   0.291   2.549 -0.5296  0.3192 -0.0097
  299SOL     OW  895   1.229   3.011   1.765  0.1319 -0.0669 -0.8210
  299SOL    HW1  896   1.203   3.067   1.687 -0.8402  1.3246  5.2373
  299SOL    HW2  897   1.175   3.047   1.847 -1.0915  0.7077 -0.1368
  300SOL     OW  898   2.594   3.035   1.903 -0.5026  0.6117 -0.2051
  300SOL    HW1  899   2.597   3.006   1.999  0.0351  2.7862  0.7985
  300SOL    HW2  900   2.582   0.045   1.903  1.7106 -0.9663  0.5972
  301SOL     OW  901   2.137   0.551   1.875 -0.0223 -0.0433 -0.2379
  301SOL    HW1  902   2.156   0.537   1.974 -1.2787 -0.1889 -3.3322
  301SOL    HW2  903   2.075   0.476   1.837  0.7868  1.1209  0.0393
  302SOL     OW  904   0.346   2.451   0.044 -0.0599  0.1521 -0.2644
  302SOL    HW1  905   0.311   2.370   0.004  1.8248  3.8166  1.1142
  302SOL    HW2  906   0.268   2.506   0.075  1.7513 -0.2110 -1.8332
  303SOL     OW  907   1.720   2.071   1.466  0.3761  0.4024 -0.5713
  303SOL    HW1  908   1.621   2.062   1.441 -0.6540 -1.1370 -1.4266
  303SOL    HW2  909   1.729   2.093   1.564  0.7786 -0.7173 -1.6228
  304SOL     OW  910   3.032   0.856   1.257 -0.0947 -0.1204 -0.0905
  304SOL    HW1  911   2.980   0.784   1.214  0.2000 -0.2118 -2.3799
  304SOL    HW2  912   2.982   0.945   1.260 -0.5693  0.9304 -2.2947
  305SOL     OW  913   0.650   0.892   0.729 -0.4992  0.2518 -0.9780
  305SOL    HW1  914   0.659   0.790   0.740  0.4874 -0.9632 -0.4876
  305SOL    HW2  915   0.737   0.935   0.735 -1.6672  1.1127  1.6891
  306SOL     OW  916   0.300   0.979   3.011 -0.5421 -0.0706 -0.2253
  306SOL    HW1  917   0.366   0.982   2.938 -0.4776 -1.6983  1.2013
  306SOL    HW2  918   0.248   0.893   3.016 -0.3342 -0.9346 -0.8874
  307SOL     OW  919   1.276   0.448   1.497 -0.0245  0.2636  0.5006
  307SOL    HW1  920   1.342   0.518   1.527 -0.4783  1.1411  0.1593
  307SOL    HW2  921   1.275   0.371   1.570  0.3904  0.0705  0.5986
  308SOL     OW  922   0.587   0.943   1.098  0.0902 -0.3901 -0.2997
  308SOL    HW1  923   0.507   0.893   1.059  1.2523  0.0920  3.9426
  308SOL    HW2  924   0.667   0.890   1.133 -1.2879  1.9122 -0.4501
  309SOL     OW  925   2.441   0.813   0.957 -0.0342 -0.6674  0.1568
  309SOL    HW1  926   2.401   0.727   0.913  0.6854 -2.8691 -0.9586
  309SOL    HW2  927   2.435   0.900   0.906 -2.7535 -1.3844  0.1017
  310SOL     OW  928   0.650   1.516   2.912  0.4848 -0.1357 -0.8036
  310SOL    HW1  929   0.699   1.526   3.000  0.0184 -0.5158 -1.9284
  310SOL    HW2  930   0.557   1.483   2.929  0.0970 -0.7850  2.5368
  311SOL     OW  931   2.419   2.714   2.340 -0.3275  0.0832  0.1603
  311SOL    HW1  932   2.468   2.692   2.249 -1.5338 -0.3570 -1.2501
  311SOL    HW2  933   2.488   2.754   2.401 -3.8078 -0.8092  1.1069
  312SOL     OW  934   1.993   2.141   0.046  0.2985 -0.2098  0.4139
  312SOL    HW1  935   2.033   2.140   3.047 -3.0186 -0.2643  0.4717
  312SOL    HW2  936   2.032   2.212   0.108 -0.4386 -0.1339  0.9956
  313SOL     OW  937   0.703   0.042   0.194  0.3622 -0.5497  0.2335
  313SOL    HW1  938   0.623   0.101   0.214 -2.0893  2.1227 -1.6827
  313SOL    HW2  939   0.726   0.046   0.091  0.8052 -0.5395 -3.8124
  314SOL     OW  940   2.203   1.156   2.839  0.1718  0.5207  0.4971
  314SOL    HW1  941   2.286   1.122   2.891  1.9254  2.9060  3.0302
  314SOL    HW2  942   2.221   1.161   2.735  1.7383  3.8525 -1.7270
  315SOL     OW  943   1.592   0.402   2.624 -0.4511  0.1442 -0.1777
  315SOL    HW1  944   1.556   0.365   2.537  0.1249 -0.5599  2.3852
  315SOL    HW2  945   1.561   0.497   2.629  0.1710 -1.5732 -0.5984
  316SOL     OW  946   3.027   1.010   0.708 -0.3148  0.0633  1.1317
  316SOL    HW1  947   2.974   0.993   0.791  1.3886 -2.6705  2.2035
  316SOL    HW2  948   2.978   0.964   0.631  0.1688  0.9344  1.1843
  317SOL     OW  949   0.676   2.751   0.035 -0.5135  0.0998  0.1714
  317SOL    HW1  950   0.615   2.690   3.067 -2.9591 -1.3534 -1.0271
  317SOL    HW2  951   0.618   2.822   0.077  0.4062 -0.8775  0.1407
  318SOL     OW  952   2.366   2.715   1.055 -0.1899 -0.4655 -0.2248
  318SOL    HW1  953   2.315   2.765   1.128  0.4364  0.4466  2.3930
  318SOL    HW2  954   2.467   2.735   1.077  0.7315 -1.5979  0.4493
  319SOL     OW  955   1.151   1.523   2.714  0.0704 -0.1742 -0.6755
  319SOL    HW1  956   1.062   1.473   2.732  3.2554 -0.8678 -1.3168
  319SOL    HW2  957   1.182   1.503   2.617 -1.5315  0.4897  1.0415
  320SOL     OW  958   0.617   1.894   1.000 -0.0868  0.1455  0.1778
  320SOL    HW1  959   0.524   1.865   0.966  0.1534 -4.1459  0.2689
  320SOL    HW2  960   0.619   1.995   1.017 -0.1753 -0.0815  0.3455
  321SOL     OW  961   1.288   2.852   2.034 -0.1821  0.4030 -0.0904
  321SOL    HW1  962   1.333   2.817   1.949  0.8234 -1.5219  0.8653
  321SOL    HW2  963   1.358   2.868   2.103 -2.0191  0.4952 -1.2877
  322SOL     OW  964   2.279   1.725   2.302 -0.0492  0.4450  0.3496
  322SOL    HW1  965   2.182   1.705   2.328 -2.9537 -0.6929 -1.7084
  322SOL    HW2  966   2.291   1.818   2.275  1.0811 -0.6390 -0.2212
  323SOL     OW  967   2.783   0.300   0.776  0.4500  0.0687  0.1214
  323SOL    HW1  968   2.761   0.197   0.764 -0.7821 -1.0115 -2.4532
  323SOL    HW2  969   2.778   0.346   0.685 -2.7274  0.1622  1.2787
  324SOL     OW  970   2.935   2.675   2.430  0.5343 -0.6696  0.0400
  324SOL    HW1  971   3.033   2.692   2.461 -0.8695 -1.9278  1.0470
  324SOL    HW2  972   2.929   2.582   2.389 -0.2656 -1.1082 -1.9293
  325SOL     OW  973   1.029   0.685   2.682 -0.2746  0.1094  0.5275
  325SOL    HW1  974   1.123   0.664   2.713  0.1427  1.5764  0.4674
  325SOL    HW2  975   0.975   0.606   2.699  0.1533  1.9354  0.4545
  326SOL     OW  976   2.536   2.414   1.308  0.6900  0.2068 -0.1730
  326SOL    HW1  977   2.436   2.418   1.313  1.6977  0.5392  2.2835
  326SOL    HW2  978   2.574   2.367   1.391 -2.5499  1.2840 -2.2051
  327SOL     OW  979   2.461   2.978   0.057  0.2989 -0.1291 -0.2397
  327SOL    HW1  980   2.399   3.016   0.127 -0.2557  2.7857 -1.0769
  327SOL    HW2  981   2.428   2.888   0.019 -0.3482  1.8701  0.5052
  328SOL     OW  982   0.246   0.958   1.560 -0.2054  0.1159 -0.6405
  328SOL    HW1  983   0.292   0.893   1.495  0.1673 -0.4022 -0.0151
  328SOL    HW2  984   0.221   1.047   1.515  1.5596 -0.9047 -1.4415
  329SOL     OW  985   2.076   0.719   1.469  0.0253 -0.7453  0.6577
  329SOL    HW1  986   2.092   0.742   1.567 -0.1281  4.7008  0.7093
  329SOL    HW2  987   2.002   0.660   1.448  2.0999  1.6114  1.6214
  330SOL     OW  988   0.378   0.795   1.003 -0.2374 -0.3542 -0.0119
  330SOL    HW1  989   0.363   0.698   0.999 -0.0091  4.5616 -0.9820
  330SOL    HW2  990   0.300   0.827   1.055  0.7911 -2.1354 -1.4035
  331SOL     OW  991   0.445   1.464   1.922  0.3466 -0.3338 -0.0288
  331SOL    HW1  992   0.538   1.468   1.963 -1.6882 -1.2743  0.1430
  331SOL    HW2  993   0.441   1.510   1.829 -0.3571  1.0436 -3.2994
  332SOL     OW  994   0.120   2.325   1.516 -0.2927 -0.0611 -0.2048
  332SOL    HW1  995   0.033   2.340   1.465  1.3364  0.3817  2.1992
  332SOL    HW2  996   0.116   2.226   1.546 -0.6046 -0.2603 -1.1862
  333SOL     OW  997   2.912   2.925   0.783 -0.2507  0.2484  0.6828
  333SOL    HW1  998   2.918   2.860   0.704  1.0392  0.5252 -1.4542
  333SOL    HW2  999   2.994   2.910   0.843 -0.4785  0.6744 -0.2691
  334SOL     OW 1000   0.265   1.318   0.544 -0.3118 -0.0329 -0.4213
  334SOL    HW1 1001   0.166   1.314   0.567  4.3028  1.1444  0.4509
  334SOL    HW2 1002   0.319   1.360   0.621 -0.2314  0.4838 -0.7920
  335SOL     OW 1003   0.533   2.593   2.988 -0.5070 -0.5576  0.2241
  335SOL    HW1 1004   0.442   2.561   3.025  0.6793 -1.1775 -1.7560
  335SOL    HW2 1005   0.521   2.610   2.888 -0.5621 -1.6787 -2.1601
  336SOL     OW 1006   2.979   2.589   2.071  0.0921  0.3475  0.1654
  336SOL    HW1 1007   2.935   2.528   2.143  0.1471 -0.2848  1.8011
  336SOL    HW2 1008   2.900   2.616   2.007  1.1352 -1.0805  1.1116
  337SOL     OW 1009   1.572   2.221   1.882  0.3345 -0.5313  0.1172
  337SOL    HW1 1010   1.511   2.261   1.806 -0.9096  0.4029  1.6950
  337SOL    HW2 1011   1.526   2.149   1.935  1.3914  0.8780  0.6166
  338SOL     OW 1012   1.027   0.336   2.760  0.0723 -0.2988 -0.8615
  338SOL    HW1 1013   0.947   0.399   2.770  0.8895 -0.1977  2.2957
  338SOL    HW2 1014   0.997   0.252   2.717  0.3984  3.2656 -1.5680
  339SOL     OW 1015   0.391   0.950   2.307  0.3780 -0.2405 -0.1426
  339SOL    HW1 1016   0.336   1.020   2.265  1.3154 -1.0185  0.0883
  339SOL    HW2 1017   0.480   0.988   2.340  1.4083 -2.3130 -0.9117
  340SOL     OW 1018   2.100   0.373   0.816 -0.4108 -0.5348  0.0902
  340SOL    HW1 1019   2.126   0.302   0.881 -0.0459 -0.4432 -1.4509
  340SOL    HW2 1020   2.047   0.449   0.858 -3.4967 -1.5630  2.1525
  341SOL     OW 1021   2.100   1.207   0.928 -1.0730 -0.8107 -0.2813
  341SOL    HW1 1022   2.035   1.257   0.983  2.7291 -2.0303 -1.7456
  341SOL    HW2 1023   2.182   1.188   0.991  1.7353 -1.1367  2.6085
  342SOL     OW 1024   2.179   2.614   2.759 -0.0839  0.8050  0.5465
  342SOL    HW1 1025   2.273   2.585   2.791  0.8640  0.8595 -1.3419
  342SOL    HW2 1026   2.113   2.535   2.764 -1.1779  0.5490  0.1190
  343SOL     OW 1027   0.879   2.551   1.697  0.2844  0.0688  0.5485
  343SOL    HW1 1028   0.893   2.602   1.610  0.7367  0.3352 -2.0086
  343SOL    HW2 1029   0.790   2.496   1.690 -2.5341 -1.0974  1.1264
  344SOL     OW 1030   2.378   2.609   1.436 -0.5576 -0.7532  0.4781
  344SOL    HW1 1031   2.381   2.622   1.539 -1.1219  0.7619 -0.5531
  344SOL    HW2 1032   2.454   2.665   1.395  1.3628  1.4108 -1.9002
  345SOL     OW 1033   2.379   2.328   3.018  0.0359  0.1507  0.8008
  345SOL    HW1 1034   2.364   2.293   2.923 -1.2355  0.0336  0.0336
  345SOL    HW2 1035   2.292   2.309   3.066 -1.5278 -0.2336 -0.1217
  346SOL     OW 1036   1.673   2.337   1.326 -0.1008  0.1068  0.1213
  346SOL    HW1 1037   1.700   2.338   1.228 -0.4345 -0.3069  0.6303
  346SOL    HW2 1038   1.718   2.258   1.373  1.1609 -0.5250 -0.9855
  347SOL     OW 1039   1.282   1.915   1.653  0.2894 -0.2567 -0.6624
  347SOL    HW1 1040   1.269   2.014   1.643  1.7661 -0.8964  0.3900
  347SOL    HW2 1041   1.194   1.864   1.661  0.6737 -3.1144 -2.6443
  348SOL     OW 1042   0.466   2.055   1.952 -0.1639  0.1194 -0.5304
  348SOL    HW1 1043   0.467   2.110   2.039 -0.5922 -2.0475 -0.8169
  348SOL    HW2 1044   0.448   1.956   1.976 -2.0663 -1.7654  1.5524
  349SOL     OW 1045   1.776   1.659   1.364  0.2352  0.3470 -0.0815
  349SOL    HW1 1046   1.798   1.564   1.398 -1.2739 -0.1488  0.2255
  349SOL    HW2 1047   1.836   1.733   1.401  2.5170  1.1004 -2.4205
  350SOL     OW 1048   2.336   2.165   0.416 -0.7036 -0.0010  0.4202
  350SOL    HW1 1049   2.415   2.227   0.395  1.8459 -0.9783  0.4820
  350SOL    HW2 1050   2.335   2.141   0.515 -2.5269  0.5110  0.4191
  351SOL     OW 1051   0.918   0.132   1.433  0.6603  0.1712 -0.7576
  351SOL    HW1 1052   0.907   0.227   1.399  0.3736 -1.9215  0.4693
  351SOL    HW2 1053   0.937   0.064   1.360 -1.5382 -0.9826  0.9821
  352SOL     OW 1054   0.301   1.284   0.941  0.0872  0.1766 -0.2050
  352SOL    HW1 1055   0.300   1.188   0.902 -1.9412 -1.2669  1.3639
  352SOL    HW2 1056   0.362   1.345   0.887  0.2720 -1.6404 -0.5760
  353SOL     OW 1057   1.246   1.573   2.226 -0.3090 -0.8463 -0.3482
  353SOL    HW1 1058   1.274   1.548   2.322 -0.2086  1.8816  0.0836
  353SOL    HW2 1059   1.306   1.523   2.159  1.4191 -1.8813 -0.3702
  354SOL     OW 1060   1.665   3.053   1.864 -0.3148  0.1453  0.4360
  354SOL    HW1 1061   1.655   3.073   1.965  0.0635  1.0079 -2.5495
  354SOL    HW2 1062   1.585   2.995   1.830 -2.1555  1.4591 -0.7696
  355SOL     OW 1063   2.121   1.310   0.029  0.6340 -0.0184 -0.3082
  355SOL    HW1 1064   2.195   1.248   0.038 -3.1398  1.1498 -1.4834
  355SOL    HW2 1065   2.118   1.337   3.024  1.5270 -0.0621  0.6764
  356SOL     OW 1066   2.901   1.509   1.495 -0.0258  0.1006  0.2646
  356SOL    HW1 1067   2.846   1.444   1.548 -0.2295  0.6571  0.8496
  356SOL    HW2 1068   2.965   1.457   1.442 -1.6451  1.8036  1.1111
  357SOL     OW 1069   0.371   2.728   1.431 -0.3676  0.2622  0.1409
  357SOL    HW1 1070   0.313   2.647   1.402  0.7498 -0.5727  0.3753
  357SOL    HW2 1071   0.371   2.798   1.356 -1.2775  0.9648 -1.3068
  358SOL     OW 1072   2.545   1.617   1.449 -0.2810  0.0883 -0.9583
  358SOL    HW1 1073   2.604   1.648   1.530  1.9895 -1.2424  5.0884
  358SOL    HW2 1074   2.573   1.525   1.430 -0.1194  0.2873  1.2656
  359SOL     OW 1075   2.332   2.845   2.708  0.3372 -0.2106 -0.1782
  359SOL    HW1 1076   2.298   2.907   2.636 -1.4131 -1.3452 -0.2793
  359SOL    HW2 1077   2.285   2.754   2.710  0.0343  0.1226  0.2113
  360SOL     OW 1078   1.362   3.015   1.013  0.3836  0.8564  0.3788
  360SOL    HW1 1079   1.358   2.989   0.917 -0.1698  2.0747  3.5958
  360SOL    HW2 1080   1.326   2.941   1.072  0.6590  0.2873  0.4261
  361SOL     OW 1081   2.212   0.403   0.334 -0.5387 -0.0353  0.5084
  361SOL    HW1 1082   2.170   0.355   0.409  2.8756  0.5493 -2.9454
  361SOL    HW2 1083   2.256   0.491   0.362 -1.1099 -0.1586 -0.2027
  362SOL     OW 1084   1.746   1.169   0.968 -0.3566  0.1394 -0.9845
  362SOL    HW1 1085   1.791   1.241   1.027 -0.9627  1.5731 -0.0126
  362SOL    HW2 1086   1.742   1.203   0.871  2.4703  0.6866  2.2383
  363SOL     OW 1087   2.314   0.982   2.276 -0.0006  0.4764  0.2615
  363SOL    HW1 1088   2.226   0.957   2.324 -0.4486 -2.4988 -1.6879
  363SOL    HW2 1089   2.293   1.012   2.181 -3.1906 -0.9919 -0.6344
  364SOL     OW 1090   0.426   0.317   1.195 -0.2117 -0.1415 -0.5571
  364SOL    HW1 1091   0.423   0.405   1.144  0.3533 -2.2466 -2.4268
  364SOL    HW2 1092   0.367   0.246   1.158  4.5033  0.2020  2.4373
  365SOL     OW 1093   0.755   0.064   2.810  0.9716  0.3849 -0.2347
  365SOL    HW1 1094   0.752   3.058   2.831  0.2025 -0.1651  1.6387
  365SOL    HW2 1095   0.838   0.080   2.752 -2.9036 -4.5918  1.1129
  366SOL     OW 1096   2.015   2.388   2.844  0.2934 -0.3210 -0.1672
  366SOL    HW1 1097   1.937   2.419   2.897  0.5920  1.1006  1.7084
  366SOL    HW2 1098   2.040   2.291   2.854  1.3563  1.6273 -2.2277
  367SOL     OW 1099   2.971   2.449   0.371 -0.1406  0.0070 -0.0517
  367SOL    HW1 1100   2.921   2.517   0.315  0.7294 -0.3153  0.2843
  367SOL    HW2 1101   3.034   2.488   0.440 -2.7121 -2.9228  1.2608
  368SOL     OW 1102   2.935   1.343   1.152 -0.3809  0.5147 -0.2283
  368SOL    HW1 1103   2.895   1.438   1.156  0.8262 -0.6651  0.0169
  368SOL    HW2 1104   3.034   1.341   1.128  0.2759  0.4633 -0.6652
  369SOL     OW 1105   1.009   0.093   2.648  0.2768 -0.1736 -0.6247
  369SOL    HW1 1106   1.011   0.089   2.547  0.5205  0.7864 -0.4230
  369SOL    HW2 1107   1.080   0.039   2.690  0.7043  0.6385  0.8377
  370SOL     OW 1108   2.779   0.423   0.538 -0.1694  0.0592 -0.2279
  370SOL    HW1 1109   2.702   0.434   0.476  1.3397  0.1158 -0.6515
  370SOL    HW2 1110   2.855   0.378   0.491 -0.6054  0.8993 -0.0022
  371SOL     OW 1111   1.518   2.168   0.991  0.1018  0.1067  0.8607
  371SOL    HW1 1112   1.581   2.111   1.049  0.9361  1.3149  0.9622
  371SOL    HW2 1113   1.569   2.246   0.939  0.6250  1.8176  0.6453
  372SOL     OW 1114   2.951   0.634   2.711 -0.1913  0.4498 -0.0125
  372SOL    HW1 1115   2.940   0.599   2.618  0.9237  0.6560 -1.7433
  372SOL    HW2 1116   2.906   0.718   2.742  1.2323 -2.3582  0.4457
  373SOL     OW 1117   3.009   1.664   0.970  0.0573  0.2868 -0.1211
  373SOL    HW1 1118   2.993   1.738   0.902  0.8795  1.1963  1.7077
  373SOL    HW2 1119   2.933   1.661   1.033 -1.3636  2.8253  1.6512
  374SOL     OW 1120   0.836   2.767   2.699  0.2940  0.2057  0.3413
  374SOL    HW1 1121   0.816   2.804   2.790  0.2746 -1.2348  0.0491
  374SOL    HW2 1122   0.934   2.772   2.670 -1.1699  1.7688  3.6412
  375SOL     OW 1123   3.060   2.852   0.109 -0.7277  0.5988  0.2159
  375SOL    HW1 1124   3.077   2.941   0.155 -1.4971 -2.0741 -1.0454
  375SOL    HW2 1125   0.047   2.814   0.058 -0.3671 -2.7614 -0.1753
  376SOL     OW 1126   2.993   2.015   1.482 -0.0881  0.0675 -0.2362
  376SOL    HW1 1127   3.040   2.053   1.563  1.3330 -1.1750  1.6318
  376SOL    HW2 1128   2.931   1.941   1.505 -1.3438  3.6807 -0.6374
  377SOL     OW 1129   1.798   2.156   2.437  0.2400  0.0773  0.2686
  377SOL    HW1 1130   1.709   2.171   2.484  0.5217 -1.1527  1.0157
  377SOL    HW2 1131   1.811   2.230   2.369  1.9508 -0.8211 -1.9552
  378SOL     OW 1132   0.527   0.276   2.765  0.1213  0.1645  0.2766
  378SOL    HW1 1133   0.541   0.341   2.844 -0.0063  0.7691  1.3116
  378SOL    HW2 1134   0.592   0.197   2.771  3.5271  0.9142 -1.2403
  379SOL     OW 1135   0.481   0.651   0.432 -0.4557  0.0011  0.2681
  379SOL    HW1 1136   0.468   0.716   0.512 -0.1553  1.3398 -2.2227
  379SOL    HW2 1137   0.570   0.681   0.384  1.6804  1.0658 -1.5105
  380SOL     OW 1138   3.075   1.772   2.092  0.4087  0.4980 -0.0757
  380SOL    HW1 1139   2.993   1.707   2.100 -1.6786 -0.9837  1.2111
  380SOL    HW2 1140   0.069   1.720   2.116  1.9411 -0.8414 -1.0195
  381SOL     OW 1141   0.275   0.990   2.037 -0.5488 -0.6893 -0.0709
  381SOL    HW1 1142   0.267   0.893   2.067 -2.0231 -0.8144  0.1136
  381SOL    HW2 1143   0.246   0.999   1.936  0.8402  2.2462 -2.3199
  382SOL     OW 1144   2.171   1.804   0.414 -0.1087 -0.5280 -0.3736
  382SOL    HW1 1145   2.099   1.735   0.401  0.9650  2.2292 -2.1764
  382SOL    HW2 1146   2.162   1.854   0.500 -0.3048 -1.3473 -3.2768
  383SOL     OW 1147   0.006   2.032   2.937  0.0351  0.2105  0.0575
  383SOL    HW1 1148   3.068   2.090   3.018 -5.5429  0.2865 -1.9423
  383SOL    HW2 1149   3.056   2.057   2.853  2.5982 -1.8294  2.7867
  384SOL     OW 1150   0.857   2.298   2.635 -0.1251 -0.0778  0.3966
  384SOL    HW1 1151   0.848   2.276   2.730 -0.0960  0.1733 -1.8057
  384SOL    HW2 1152   0.827   2.392   2.622  1.9312 -1.5979  1.6501
  385SOL     OW 1153   2.743   1.694   0.783  0.9752 -0.3048  0.1963
  385SOL    HW1 1154   2.699   1.643   0.860 -1.6482 -3.7342  1.2468
  385SOL    HW2 1155   2.678   1.718   0.709 -0.8146 -0.7118 -1.7866
  386SOL     OW 1156   2.286   1.456   1.549  0.2531  0.1667 -0.1745
  386SOL    HW1 1157   2.357   1.512   1.503 -0.3920 -1.9359 -2.7093
  386SOL    HW2 1158   2.223   1.516   1.600 -1.2127  3.0525  1.8917
  387SOL     OW 1159   2.752   1.179   2.194  0.2670  0.3449 -0.3548
  387SOL    HW1 1160   2.786   1.117   2.270  1.3833 -1.6688 -1.0522
  387SOL    HW2 1161   2.709   1.264   2.237  0.5801  4.3179  3.0922
  388SOL     OW 1162   2.890   1.597   1.999 -0.4522 -0.1538  0.9552
  388SOL    HW1 1163   2.815   1.592   2.066 -0.3906 -1.3650 -0.8098
  388SOL    HW2 1164   2.933   1.507   1.983 -2.9661  0.4035  2.1253
  389SOL     OW 1165   1.933   1.215   1.921  0.4592  0.2115  0.4662
  389SOL    HW1 1166   2.012   1.226   1.859 -2.3207  2.0065  0.5373
  389SOL    HW2 1167   1.881   1.303   1.925 -1.0153 -0.3845  0.9144
  390SOL     OW 1168   1.978   0.026   0.634 -0.0192 -0.5013  0.5702
  390SOL    HW1 1169   1.959   0.011   0.733 -2.7548 -0.7166  0.1419
  390SOL    HW2 1170   1.888   0.044   0.581 -1.9326  1.5645 -1.3800
  391SOL     OW 1171   2.143   1.727   1.307 -0.7424 -0.0505 -0.6469
  391SOL    HW1 1172   2.243   1.753   1.319 -2.7126  0.6187 -0.0051
  391SOL    HW2 1173   2.082   1.783   1.364  1.8566 -0.7778 -0.2615
  392SOL     OW 1174   2.490   2.482   0.658 -0.0140  0.2337 -0.3405
  392SOL    HW1 1175   2.483   2.434   0.747  0.7605 -0.5439  2.5153
  392SOL    HW2 1176   2.560   2.438   0.597 -0.5963  0.8414  1.5808
  393SOL     OW 1177   1.467   1.757   2.831 -0.0545 -0.2875  0.5596
  393SOL    HW1 1178   1.510   1.664   2.833 -0.8415  1.7430 -2.6043
  393SOL    HW2 1179   1.481   1.806   2.740  0.3004 -0.7906  0.7913
  394SOL     OW 1180   0.323   3.072   2.761  0.5016  0.5800 -0.1259
  394SOL    HW1 1181   0.242   0.039   2.758  0.0670 -2.1840  0.7791
  394SOL    HW2 1182   0.301   2.978   2.789 -2.1951  1.5058  0.1029
  395SOL     OW 1183   0.650   0.608   0.846  0.4293  0.1490 -0.2347
  395SOL    HW1 1184   0.645   0.507   0.814 -0.9444  0.6049  0.3374
  395SOL    HW2 1185   0.747   0.630   0.879 -0.2089  0.8833  2.0285
  396SOL     OW 1186   1.436   0.914   0.770  0.3706  0.4792  0.0405
  396SOL    HW1 1187   1.492   0.915   0.691 -0.7985  1.2694  0.7639
  396SOL    HW2 1188   1.348   0.861   0.750 -3.1427 -0.9818  0.3328
  397SOL     OW 1189   0.477   0.699   2.300 -0.6798 -0.3793  0.4451
  397SOL    HW1 1190   0.426   0.635   2.247  0.0309  1.2083 -1.2985
  397SOL    HW2 1191   0.434   0.791   2.289  2.5027  0.5907  2.7920
  398SOL     OW 1192   0.971   0.193   0.426 -0.0401  0.3627 -0.1277
  398SOL    HW1 1193   0.945   0.284   0.465 -1.4633  1.9998  2.9951
  398SOL    HW2 1194   0.983   0.193   0.324 -1.8805 -2.2429 -0.0654
  399SOL     OW 1195   2.032   2.830   1.678  0.1547  0.1196  0.1259
  399SOL    HW1 1196   1.977   2.862   1.762 -1.9322 -0.8480 -1.7849
  399SOL    HW2 1197   2.013   2.729   1.663  2.2566 -1.6044  0.6601
  400SOL     OW 1198   0.892   1.790   1.995  0.1355  0.0399 -0.5074
  400SOL    HW1 1199   0.854   1.751   2.081  2.6436  0.6618  1.0934
  400SOL    HW2 1200   0.979   1.845   2.012 -1.6789 -1.4728 -1.3903
  401SOL     OW 1201   0.485   1.230   2.670  0.3207 -0.7291  0.0334
  401SOL    HW1 1202   0.477   1.308   2.735  1.8978  0.5897  0.6744
  401SOL    HW2 1203   0.473   1.147   2.726 -0.7224  0.6080  0.9009
  402SOL     OW 1204   2.760   2.051   0.910  0.1262  0.2268  0.8953
  402SOL    HW1 1205   2.833   1.990   0.865  2.4127 -3.6082 -1.9987
  402SOL    HW2 1206   2.748   2.011   1.005 -0.3654 -1.1568  0.0119
  403SOL     OW 1207   0.151   0.859   2.406 -0.4556 -0.3345  0.2955
  403SOL    HW1 1208   0.065   0.862   2.354 -2.1394  0.1715 -3.1739
  403SOL    HW2 1209   0.223   0.907   2.353 -0.7515  1.4897 -0.4940
  404SOL     OW 1210   0.253   2.370   1.969 -0.1606  0.1921 -0.1050
  404SOL    HW1 1211   0.259   2.302   1.888 -1.9224 -0.6268 -1.2174
  404SOL    HW2 1212   0.269   2.467   1.941 -0.4749 -2.7200 -2.1841
  405SOL     OW 1213   0.315   0.333   1.920 -0.5989  0.2005  0.2498
  405SOL    HW1 1214   0.418   0.331   1.901 -0.1578 -1.3885 -0.8588
  405SOL    HW2 1215   0.291   0.236   1.949  1.2791 -1.9637  0.7722
  406SOL     OW 1216   1.511   1.503   2.463 -0.0898 -0.1613 -0.0641
  406SOL    HW1 1217   1.552   1.469   2.543 -2.7648  1.0458 -3.3128
  406SOL    HW2 1218   1.529   1.601   2.453 -0.2943 -2.7385  1.2702
  407SOL     OW 1219   1.261   1.174   2.331 -0.0938  0.6289  1.0618
  407SOL    HW1 1220   1.200   1.166   2.251  1.0307  0.1955 -0.9921
  407SOL    HW2 1221   1.358   1.195   2.305  0.6451  0.9772  0.9059
  408SOL     OW 1222   0.976   0.066   2.375 -0.4590 -0.3003  0.0631
  408SOL    HW1 1223   0.871   0.073   2.385 -0.3382 -1.4546  2.0948
  408SOL    HW2 1224   0.999   3.057   2.381 -0.1729  0.1971 -1.5624
  409SOL     OW 1225   0.190   1.626   0.710 -0.0235  0.4664 -0.2212
  409SOL    HW1 1226   0.095   1.606   0.719  2.4049 -1.0951 -1.9775
  409SOL    HW2 1227   0.198   1.680   0.624  0.7686 -2.5892  1.3917
  410SOL     OW 1228   2.536   1.219   0.221 -0.0680 -0.5153 -0.0609
  410SOL    HW1 1229   2.608   1.207   0.295 -4.1020 -1.1722  0.6104
  410SOL    HW2 1230   2.575   1.239   0.131 -1.3316  0.1325  0.2066
  411SOL     OW 1231   0.235   0.158   1.090 -0.0938 -0.0498 -0.3248
  411SOL    HW1 1232   0.183   0.132   1.177 -1.6869  1.4108  0.5639
  411SOL    HW2 1233   0.280   0.069   1.059 -3.3786 -0.1284  0.5332
  412SOL     OW 1234   1.570   1.051   1.465 -0.3263  0.2894 -0.4727
  412SOL    HW1 1235   1.622   1.123   1.413 -2.4421  0.9916  0.3318
  412SOL    HW2 1236   1.550   0.976   1.405 -0.9792  1.9129  1.9843
  413SOL     OW 1237   0.874   2.962   1.560  0.0696 -0.3326 -0.1558
  413SOL    HW1 1238   0.784   2.972   1.509 -2.3561 -1.6779  0.2953
  413SOL    HW2 1239   0.934   3.047   1.555 -1.2171 -0.0494  2.5211
  414SOL     OW 1240   2.677   1.564   2.699  0.1639 -0.0284 -0.7409
  414SOL    HW1 1241   2.675   1.520   2.788  1.3820 -0.0439 -1.3264
  414SOL    HW2 1242   2.700   1.491   2.634 -0.1396 -2.2962 -0.1694
  415SOL     OW 1243   0.681   2.373   0.000 -0.3275 -0.0030  0.4354
  415SOL    HW1 1244   0.620   2.444   3.048 -0.4046 -0.2088 -0.2638
  415SOL    HW2 1245   0.712   2.415   0.089 -0.0551  0.1280  2.9591
  416SOL     OW 1246   1.965   2.947   0.252  0.9192 -0.4991  0.2235
  416SOL    HW1 1247   1.974   2.845   0.276 -1.9653 -0.6269 -1.1718
  416SOL    HW2 1248   2.042   2.979   0.192  1.5365 -0.6073 -0.9947
  417SOL     OW 1249   0.203   0.606   0.732  0.6085 -0.6141 -0.1544
  417SOL    HW1 1250   0.283   0.670   0.710 -0.5657 -0.6022 -0.6258
  417SOL    HW2 1251   0.214   0.512   0.690 -0.0591 -0.3201  1.4079
  418SOL     OW 1252   2.443   0.161   1.030  0.3251  0.1128 -0.2122
  418SOL    HW1 1253   2.346   0.140   1.013  1.4551  0.1760  2.9299
  418SOL    HW2 1254   2.470   0.256   1.002  0.4554 -1.9554  0.7292
  419SOL     OW 1255   0.239   2.922   0.732 -0.2204 -0.0167 -0.5119
  419SOL    HW1 1256   0.156   2.948   0.671  0.0095  3.1224 -2.3699
  419SOL    HW2 1257   0.256   2.824   0.722  0.8195 -0.6278 -1.6911
  420SOL     OW 1258   0.179   1.482   1.615  0.1409  0.6270  0.6795
  420SOL    HW1 1259   0.277   1.508   1.622  0.6988 -1.2358 -2.3112
  420SOL    HW2 1260   0.136   1.518   1.530  0.3632  1.9211  1.7881
  421SOL     OW 1261   1.290   2.998   0.628 -0.2537 -0.1414 -0.1385
  421SOL    HW1 1262   1.221   3.073   0.638  0.0373  0.4419  1.4018
  421SOL    HW2 1263   1.244   2.918   0.575 -3.0750 -0.2229  0.4638
  422SOL     OW 1264   0.436   0.569   1.352 -0.0678 -0.2554  0.3080
  422SOL    HW1 1265   0.423   0.589   1.458  0.3801 -0.2562  3.9629
  422SOL    HW2 1266   0.433   0.467   1.340 -0.6606 -1.4899 -0.6294
  423SOL     OW 1267   1.060   1.187   1.716  0.3918 -0.2069 -0.7151
  423SOL    HW1 1268   1.087   1.247   1.794  1.0649 -2.1235 -0.7620
  423SOL    HW2 1269   0.999   1.114   1.746 -1.0993  0.0767 -1.6298
  424SOL     OW 1270   2.042   1.618   0.054 -0.2099 -0.4219  0.3790
  424SOL    HW1 1271   2.046   1.710   0.098 -2.4671  0.2710  2.4729
  424SOL    HW2 1272   2.013   1.543   0.121 -2.0185 -2.1319  0.6538
  425SOL     OW 1273   0.256   0.086   2.014 -0.6827 -0.4034  0.2221
  425SOL    HW1 1274   0.169   0.043   1.988 -1.0998 -1.1406 -0.3408
  425SOL    HW2 1275   0.281   0.049   2.104 -1.7138  0.7028  0.5391
  426SOL     OW 1276   0.286   2.795   2.803  0.6467  0.2551  0.4322
  426SOL    HW1 1277   0.266   2.798   2.905  1.1525 -0.0681 -0.5361
  426SOL    HW2 1278   0.365   2.734   2.781  1.6159  3.0750 -0.8213
  427SOL     OW 1279   0.879   0.910   2.745  0.0165  0.4616  0.0193
  427SOL    HW1 1280   0.952   0.977   2.743  0.9415 -0.2186 -0.4524
  427SOL    HW2 1281   0.915   0.816   2.735 -0.5471 -0.6893  1.0373
  428SOL     OW 1282   2.898   1.033   1.585 -0.0784 -0.1895 -0.5215
  428SOL    HW1 1283   2.831   0.961   1.554  0.6072 -1.2614 -1.3421
  428SOL    HW2 1284   2.961   0.991   1.655 -1.8500 -3.1504  1.9887
  429SOL     OW 1285   2.399   2.806   0.794  0.3735 -0.1230 -0.0278
  429SOL    HW1 1286   2.383   2.770   0.888 -1.5905  1.8003 -0.4481
  429SOL    HW2 1287   2.317   2.803   0.736 -0.3970  2.0408  1.0338
  430SOL     OW 1288   0.991   1.486   2.180  0.1894 -0.5990  0.2694
  430SOL    HW1 1289   0.920   1.558   2.190 -0.6625 -1.4534  0.2237
  430SOL    HW2 1290   1.083   1.511   2.216 -1.7863  3.2111 -0.6599
  431SOL     OW 1291   2.673   1.409   1.336  0.5814  0.7192  0.1198
  431SOL    HW1 1292   2.731   1.357   1.404  1.0961  5.1328  2.2659
  431SOL    HW2 1293   2.614   1.350   1.271 -4.1422  0.5520 -4.1254
  432SOL     OW 1294   1.052   2.897   2.379  0.3224  0.0403  0.1614
  432SOL    HW1 1295   1.087   2.850   2.464 -1.1133 -1.0213  1.6946
  432SOL    HW2 1296   1.033   2.827   2.308  2.5014  0.4774 -0.4717
  433SOL     OW 1297   1.577   0.300   1.981 -0.2331  0.0785  0.3496
  433SOL    HW1 1298   1.656   0.269   1.920  1.1390 -0.4562 -1.3516
  433SOL    HW2 1299   1.517   0.371   1.935  0.0477  0.0231 -0.6827
  434SOL     OW 1300   0.663   2.426   2.324 -0.0733  0.0611 -0.5046
  434SOL    HW1 1301   0.595   2.482   2.279 -0.1388 -2.3712  1.5107
  434SOL    HW2 1302   0.719   2.474   2.395  0.4753  1.0475  0.3942
  435SOL     OW 1303   0.467   2.881   0.167  0.4919 -0.2492 -0.3491
  435SOL    HW1 1304   0.430   2.975   0.151 -1.5893  2.6050 -1.0809
  435SOL    HW2 1305   0.462   2.855   0.267 -0.5301 -1.4377 -3.7233
  436SOL     OW 1306   0.693   0.792   2.165 -0.0326 -0.4851 -0.2892
  436SOL    HW1 1307   0.640   0.830   2.085 -2.8568  3.7909 -0.2120
  436SOL    HW2 1308   0.628   0.749   2.230 -0.0007  0.6752  1.4043
  437SOL     OW 1309   0.370   2.387   2.648  0.3811  0.2822  0.1580
  437SOL    HW1 1310   0.372   2.339   2.558  2.3385 -0.6266 -0.5467
  437SOL    HW2 1311   0.419   2.335   2.724 -1.8469 -1.2718 -1.7766
  438SOL     OW 1312   0.849   1.372   1.544  0.0528  0.2109 -0.7117
  438SOL    HW1 1313   0.893   1.468   1.555  0.5052  2.9812  0.1736
  438SOL    HW2 1314   0.911   1.304   1.597  0.6009  0.1351  0.4090
  439SOL     OW 1315   2.534   0.857   2.227 -0.3192 -0.3461 -0.1809
  439SOL    HW1 1316   2.583   0.876   2.319  2.2945  1.0677  1.5351
  439SOL    HW2 1317   2.450   0.920   2.229 -0.2312  2.3815  3.0197
  440SOL     OW 1318   0.393   0.491   0.213  0.2616 -0.0032  0.2635
  440SOL    HW1 1319   0.406   0.408   0.155  0.5068 -1.2625  0.5160
  440SOL    HW2 1320   0.412   0.473   0.312  0.6124 -0.0668  1.2275
  441SOL     OW 1321   1.432   2.295   1.653 -0.7649  0.0236 -0.2613
  441SOL    HW1 1322   1.447   2.303   1.553  0.3282 -1.0925  4.9449
  441SOL    HW2 1323   1.345   2.241   1.669  2.3392  2.2490  1.0079
  442SOL     OW 1324   1.894   1.507   0.643  0.5430 -0.2178  0.1780
  442SOL    HW1 1325   1.893   1.587   0.711 -1.5156 -0.9446  1.1743
  442SOL    HW2 1326   1.973   1.447   0.665 -1.6098 -2.4289 -1.3606
  443SOL     OW 1327   2.757   2.024   2.637 -0.4442 -0.1488  0.0985
  443SOL    HW1 1328   2.689   2.087   2.666  0.7266 -1.2981 -1.2987
  443SOL    HW2 1329   2.780   2.031   2.537  0.0439  0.6447  0.3808
  444SOL     OW 1330   1.535   1.465   2.880  0.0861 -0.3090 -0.1978
  444SOL    HW1 1331   1.557   1.436   2.981 -0.1980 -3.3429  4.1725
  444SOL    HW2 1332   1.448   1.423   2.846  0.2132 -0.9460  0.5062
  445SOL     OW 1333   2.586   2.699   2.107  0.1499 -0.2687  0.1083
  445SOL    HW1 1334   2.672   2.672   2.061 -0.9801  1.0081  1.9120
  445SOL    HW2 1335   2.584   2.800   2.131 -0.1930  1.9694 -0.1887
  446SOL     OW 1336   0.729   0.875   1.579  0.2979 -0.5670 -0.0867
  446SOL    HW1 1337   0.735   0.817   1.495 -1.6687  3.3162  0.7775
  446SOL    HW2 1338   0.803   0.858   1.645  1.0798 -3.1870  0.8169
  447SOL     OW 1339   0.975   0.971   0.979  0.2444 -0.4820 -0.5989
  447SOL    HW1 1340   0.911   1.003   1.051  0.2587  0.4324 -0.5568
  447SOL    HW2 1341   1.061   1.023   0.998  0.0722  1.1965  2.5982
  448SOL     OW 1342   0.846   1.015   2.192  0.4630 -0.0223  0.3359
  448SOL    HW1 1343   0.795   1.084   2.247 -1.6140 -0.6274 -0.0825
  448SOL    HW2 1344   0.798   0.928   2.210  0.3653  0.4114 -1.6221
  449SOL     OW 1345   0.071   2.051   2.248  0.0120  0.8942  0.4410
  449SOL    HW1 1346   0.015   1.976   2.287  3.2101  1.0447  1.3371
  449SOL    HW2 1347   0.166   2.046   2.290  0.8333 -1.2013 -0.6891
  450SOL     OW 1348   2.468   1.912   1.992 -0.4638 -0.3132 -0.0588
  450SOL    HW1 1349   2.528   1.850   2.049 -1.1541 -0.0887  1.6596
  450SOL    HW2 1350   2.373   1.878   1.981 -0.6087  1.5285  2.8497
  451SOL     OW 1351   2.445   1.233   1.353 -0.3395 -0.0616  0.2823
  451SOL    HW1 1352   2.353   1.207   1.313  1.0431 -0.8709 -1.2750
  451SOL    HW2 1353   2.510   1.159   1.324 -2.4200 -0.5101 -0.3785
  452SOL     OW 1354   0.208   1.225   1.468  0.4606  0.3656 -0.0122
  452SOL    HW1 1355   0.204   1.298   1.541  0.8497  2.1523  2.9964
  452SOL    HW2 1356   0.266   1.260   1.392  0.1233 -2.1231  0.3467
  453SOL     OW 1357   0.251   1.019   0.862 -0.8446  0.1352 -0.2829
  453SOL    HW1 1358   0.314   0.942   0.888  1.1223  0.1626  0.2891
  453SOL    HW2 1359   0.223   1.013   0.762 -2.4906 -0.6586 -0.4896
  454SOL     OW 1360   0.358   1.539   0.325  0.0957 -0.5533 -0.5352
  454SOL    HW1 1361   0.418   1.563   0.246  0.8953  0.2963  1.0201
  454SOL    HW2 1362   0.387   1.450   0.372  0.3693 -2.4011  0.9913
  455SOL     OW 1363   1.801   0.901   0.925 -0.4216 -0.5614 -0.0242
  455SOL    HW1 1364   1.797   1.001   0.926  0.8438 -0.4852 -0.0947
  455SOL    HW2 1365   1.872   0.869   0.989 -1.4356  1.5408 -1.9529
  456SOL     OW 1366   1.637   2.355   0.857 -0.1471  0.1730 -0.5815
  456SOL    HW1 1367   1.579   2.435   0.848 -0.4168 -0.3620  1.2997
  456SOL    HW2 1368   1.688   2.333   0.772  1.1967 -1.2928 -1.8027
  457SOL     OW 1369   1.817   0.137   2.642  0.1060  0.3638  0.3680
  457SOL    HW1 1370   1.786   0.044   2.619  1.6805 -0.6780 -1.0896
  457SOL    HW2 1371   1.741   0.203   2.633 -1.3949 -0.2387 -0.6774
  458SOL     OW 1372   2.469   0.463   3.082 -0.1165 -0.2103  0.1350
  458SOL    HW1 1373   2.415   0.379   3.058 -0.7877  0.5210  1.8500
  458SOL    HW2 1374   2.569   0.448   3.086  0.6498  0.7533  1.2995
  459SOL     OW 1375   3.016   1.275   2.225  0.3893  0.2108 -0.1268
  459SOL    HW1 1376   3.019   1.330   2.310  3.3079 -0.5254 -1.4091
  459SOL    HW2 1377   2.923   1.252   2.189  1.3022 -1.4870 -1.4294
  460SOL     OW 1378   0.192   0.714   3.037  0.0810 -0.2440  0.3113
  460SOL    HW1 1379   0.172   0.702   2.937  0.4329 -1.2730 -0.0371
  460SOL    HW2 1380   0.289   0.684   3.060  1.3532  1.1610  0.2906
  461SOL     OW 1381   0.011   2.332   0.737  0.3390  0.6040 -0.3592
  461SOL    HW1 1382   0.013   2.250   0.799 -1.0480 -0.9961  0.8692
  461SOL    HW2 1383   0.025   2.291   0.641  0.6343 -1.4333 -0.2460
  462SOL     OW 1384   0.027   3.078   1.640 -0.5569 -0.1574  0.2503
  462SOL    HW1 1385   0.011   2.984   1.675  0.4605 -0.2728 -0.1092
  462SOL    HW2 1386   3.077   3.089   1.544 -1.3047 -0.5101 -2.3340
  463SOL     OW 1387   1.934   2.002   2.015 -0.0009  0.4758 -0.0729
  463SOL    HW1 1388   2.013   2.012   1.949 -0.3444  0.3664  1.1598
  463SOL    HW2 1389   1.884   2.091   2.016 -0.2444 -0.9610 -1.0557
  464SOL     OW 1390   0.349   2.913   1.219 -0.6517 -0.6722 -0.0030
  464SOL    HW1 1391   0.333   2.978   1.293  1.5323 -1.2859 -4.4370
  464SOL    HW2 1392   0.375   2.962   1.132  0.1150  1.1266 -0.7923
  465SOL     OW 1393   0.579   0.123   1.492  0.0001  0.4336  0.4702
  465SOL    HW1 1394   0.640   0.105   1.566 -0.7761 -0.0637 -2.0697
  465SOL    HW2 1395   0.518   0.201   1.507 -0.8765  1.2736 -2.0973
  466SOL     OW 1396   1.245   2.041   2.324 -0.2729  0.6160  0.2370
  466SOL    HW1 1397   1.192   1.956   2.300  0.0370  0.1899 -3.6699
  466SOL    HW2 1398   1.192   2.123   2.300 -0.0784 -0.1791 -1.3772
  467SOL     OW 1399   2.982   1.480   0.793  0.0598  0.2798 -0.1936
  467SOL    HW1 1400   3.020   1.532   0.873 -0.5070  0.3941 -0.6000
  467SOL    HW2 1401   2.929   1.542   0.733  1.4191 -2.1682  0.2208
  468SOL     OW 1402   2.209   1.814   2.671  0.3580  0.9111  0.3156
  468SOL    HW1 1403   2.189   1.713   2.676  1.9912 -1.0721 -1.5723
  468SOL    HW2 1404   2.221   1.840   2.573 -0.2599 -0.3351 -2.2310
  469SOL     OW 1405   1.070   2.112   0.515  0.2679 -0.1885 -0.1511
  469SOL    HW1 1406   1.131   2.181   0.478  2.2350 -3.9308 -1.9420
  469SOL    HW2 1407   1.127   2.030   0.526 -2.7244  1.1124  0.9000
  470SOL     OW 1408   1.948   1.852   1.454 -0.1972 -0.0251  0.1030
  470SOL    HW1 1409   1.876   1.921   1.430 -1.0143  3.2027  0.5575
  470SOL    HW2 1410   1.953   1.829   1.553  1.2728  3.2687  0.7127
  471SOL     OW 1411   0.444   2.409   0.299 -0.4659 -0.2028  0.1710
  471SOL    HW1 1412   0.504   2.487   0.321  0.1538  1.4683  0.1086
  471SOL    HW2 1413   0.420   2.416   0.200 -2.2483  0.5366 -0.2886
  472SOL     OW 1414   2.530   1.629   2.358 -1.1515 -0.0298 -0.7389
  472SOL    HW1 1415   2.575   1.668   2.443  0.5576 -0.8536  0.0692
  472SOL    HW2 1416   2.432   1.656   2.353 -0.0373 -1.1788  2.3418
  473SOL     OW 1417   1.476   2.567   0.767 -0.1114  0.4249  0.1722
  473SOL    HW1 1418   1.399   2.561   0.831  3.4875  1.3380 -2.3501
  473SOL    HW2 1419   1.487   2.657   0.725 -0.2633 -1.6769 -0.3519
  474SOL     OW 1420   2.970   0.005   1.419  0.1700  0.3085 -0.3758
  474SOL    HW1 1421   2.944   3.016   1.366  0.6119  0.2935  0.5057
  474SOL    HW2 1422   2.886   0.064   1.439 -4.7841 -0.9135 -1.0657
  475SOL     OW 1423   1.920   2.921   1.911 -0.3416 -0.7100  0.1884
  475SOL    HW1 1424   1.984   2.983   1.965  1.8744  0.8583  0.0103
  475SOL    HW2 1425   1.832   2.971   1.891 -0.4187 -2.4838  0.4512
  476SOL     OW 1426   0.392   0.496   1.000  0.4129 -0.0313 -0.1842
  476SOL    HW1 1427   0.299   0.488   1.036  2.1284 -2.6336  0.9627
  476SOL    HW2 1428   0.397   0.447   0.913  3.2825 -1.9755  1.1727
  477SOL     OW 1429   0.654   2.162   1.074 -0.3349 -0.6416 -0.7660
  477SOL    HW1 1430   0.575   2.214   1.039 -2.4021 -1.2816  0.9461
  477SOL    HW2 1431   0.736   2.190   1.023 -0.3500  0.0345 -0.1600
  478SOL     OW 1432   0.846   2.550   2.504  0.1554 -0.3177 -0.6573
  478SOL    HW1 1433   0.932   2.523   2.461 -0.5427  0.5765  1.0009
  478SOL    HW2 1434   0.848   2.649   2.540  1.2547  1.9009 -0.3400
  479SOL     OW 1435   0.192   0.727   2.101 -0.0399 -0.0279  0.0043
  479SOL    HW1 1436   0.092   0.734   2.105 -0.4552  1.7187  0.2835
  479SOL    HW2 1437   0.228   0.637   2.135  1.2252 -0.7137 -0.8911
  480SOL     OW 1438   0.179   2.286   3.012  0.3688 -0.2729 -0.0458
  480SOL    HW1 1439   0.128   2.219   3.068 -1.2023 -0.4050 -0.4902
  480SOL    HW2 1440   0.106   2.335   2.960 -2.2465  1.4281  0.6401
  481SOL     OW 1441   1.654   0.060   2.125  0.2374  0.2360  0.8532
  481SOL    HW1 1442   1.713   0.068   2.203 -2.3373 -0.2271 -1.6163
  481SOL    HW2 1443   1.623   0.151   2.095  1.1096  0.6864  0.2802
  482SOL     OW 1444   1.662   1.841   3.008  0.1924 -0.1379 -0.4667
  482SOL    HW1 1445   1.636   1.789   0.000 -0.1649 -1.5921 -0.8694
  482SOL    HW2 1446   1.586   1.837   2.941 -1.2304 -2.3539 -0.9344
  483SOL     OW 1447   1.095   2.769   2.641 -0.0830 -0.7975  0.3860
  483SOL    HW1 1448   1.148   2.683   2.652  0.5240  1.6796  2.4095
  483SOL    HW2 1449   1.133   2.839   2.703 -1.3938  0.6735  1.0163
  484SOL     OW 1450   0.525   2.720   0.861 -0.0798  0.2265 -0.0177
  484SOL    HW1 1451   0.613   2.766   0.894 -0.6572 -0.3944  1.1996
  484SOL    HW2 1452   0.462   2.702   0.948 -0.8735 -2.4807  0.0287
  485SOL     OW 1453   2.104   0.776   0.811 -0.1020  0.2685 -0.2583
  485SOL    HW1 1454   2.064   0.869   0.809 -0.3422 -2.4130 -0.6715
  485SOL    HW2 1455   2.035   0.700   0.829 -0.9448  0.4160  0.9477
  486SOL     OW 1456   1.908   2.681   2.051 -0.2540  0.1352 -0.4106
  486SOL    HW1 1457   2.003   2.683   2.081 -0.4722  2.1226 -2.3191
  486SOL    HW2 1458   1.887   2.769   2.008 -0.1167 -0.9623  0.8829
  487SOL     OW 1459   1.178   1.871   0.583 -0.4306  0.2016  0.2186
  487SOL    HW1 1460   1.079   1.840   0.587 -1.2310  0.8879 -0.1944
  487SOL    HW2 1461   1.232   1.812   0.643 -1.4757  2.0641 -0.9734
  488SOL     OW 1462   2.043   0.242   0.158  0.0729 -0.5418 -0.0179
  488SOL    HW1 1463   2.106   0.291   0.221 -1.9484  0.6867  0.5281
  488SOL    HW2 1464   2.046   0.281   0.062 -1.6192  1.8202 -1.2540
  489SOL     OW 1465   1.948   2.851   0.623 -0.1796 -0.1969  0.0569
  489SOL    HW1 1466   1.979   2.950   0.623 -1.7600  0.9012  1.9705
  489SOL    HW2 1467   1.849   2.845   0.598  1.9392 -0.7510  0.3166
  490SOL     OW 1468   1.704   2.943   2.919 -0.0209 -0.0622  0.0665
  490SOL    HW1 1469   1.792   2.970   2.955  0.0034 -1.1190  0.7072
  490SOL    HW2 1470   1.633   2.986   2.972  1.1124 -1.4225 -2.0024
  491SOL     OW 1471   0.997   0.311   0.973 -0.2350  0.2884 -0.3966
  491SOL    HW1 1472   1.050   0.244   1.026  0.7724  1.2849 -0.9617
  491SOL    HW2 1473   0.897   0.317   0.999  0.6343 -2.5967  1.0621
  492SOL     OW 1474   1.693   2.882   0.304  0.6406  0.5821 -0.2154
  492SOL    HW1 1475   1.696   2.857   0.407  0.7106  0.6918  1.1063
  492SOL    HW2 1476   1.786   2.916   0.268  1.2229 -0.6624  2.3471
  493SOL     OW 1477   1.673   2.555   2.684  0.0903  0.1053  0.1790
  493SOL    HW1 1478   1.608   2.599   2.752 -1.2815  2.0870  2.1572
  493SOL    HW2 1479   1.651   2.454   2.676 -0.5492 -2.0437  3.8381
  494SOL     OW 1480   0.605   1.161   0.824 -0.1195  0.3646  0.2977
  494SOL    HW1 1481   0.652   1.121   0.903  0.1169 -1.2516  1.5908
  494SOL    HW2 1482   0.598   1.084   0.759  1.1643 -0.0811  2.9695
  495SOL     OW 1483   3.012   0.277   1.772  0.2028 -0.4323 -0.2153
  495SOL    HW1 1484   0.019   0.304   1.772  1.4123  1.5478 -0.6842
  495SOL    HW2 1485   2.985   0.225   1.853  1.6280  0.5228 -0.8116
  496SOL     OW 1486   2.633   2.316   2.156 -0.4325  0.2121  0.4538
  496SOL    HW1 1487   2.681   2.318   2.065  2.6343  0.4559 -1.4569
  496SOL    HW2 1488   2.544   2.270   2.146 -0.2049  0.2272 -2.2356
  497SOL     OW 1489   1.463   1.146   2.577  0.0893  0.1638  0.0516
  497SOL    HW1 1490   1.451   1.164   2.475 -2.7485 -0.6194 -2.6239
  497SOL    HW2 1491   1.440   1.047   2.597  0.6614  0.1368 -0.9862
  498SOL     OW 1492   0.699   1.726   0.779  0.1264  0.1522  0.2050
  498SOL    HW1 1493   0.685   1.793   0.855  1.5148 -1.2317 -1.1934
  498SOL    HW2 1494   0.631   1.733   0.701  0.4281 -1.1628 -0.5633
  499SOL     OW 1495   0.338   1.582   1.144 -0.5318  0.4061  0.0293
  499SOL    HW1 1496   0.251   1.635   1.136 -0.2800  2.2280 -1.4501
  499SOL    HW2 1497   0.394   1.610   1.226  1.0200  0.0922 -1.6559
  500SOL     OW 1498   1.619   2.494   0.354 -0.1799  0.6788  0.1174
  500SOL    HW1 1499   1.543   2.558   0.325 -0.0986 -1.5097  1.8154
  500SOL    HW2 1500   1.578   2.429   0.421  0.5366  1.9067 -1.2048
  501SOL     OW 1501   2.002   2.487   1.031  0.3100  0.4588 -0.1938
  501SOL    HW1 1502   2.102   2.472   1.016 -1.4269  1.2645 -0.5892
  501SOL    HW2 1503   1.969   2.537   0.946  0.0742  1.0325 -1.4527
  502SOL     OW 1504   0.292   0.782   1.352  0.3479 -0.2661  0.2635
  502SOL    HW1 1505   0.248   0.801   1.255  1.2993  1.1663 -2.3564
  502SOL    HW2 1506   0.368   0.720   1.346 -2.1910  0.9082 -0.1543
  503SOL     OW 1507   2.112   0.183   1.561  0.4506 -0.0427  0.1314
  503SOL    HW1 1508   2.063   0.164   1.474  1.1325  2.3677  0.2351
  503SOL    HW2 1509   2.161   0.097   1.586 -0.1545 -2.1563  1.0172
  504SOL     OW 1510   2.046   0.971   1.937  0.3709 -0.0794 -0.3048
  504SOL    HW1 1511   2.026   0.921   2.025  0.7657  0.4195  2.2082
  504SOL    HW2 1512   1.995   1.058   1.934 -0.8026  0.5602  0.9126
  505SOL     OW 1513   1.145   0.054   1.973  0.4362 -0.2833  0.1246
  505SOL    HW1 1514   1.104   0.149   1.971 -2.8282 -0.5630 -2.9248
  505SOL    HW2 1515   1.197   0.038   2.057 -0.5253  0.2143 -0.6720
  506SOL     OW 1516   0.571   0.295   1.850 -0.5987 -0.2674  0.2456
  506SOL    HW1 1517   0.598   0.380   1.797  0.6547  1.7698 -3.9564
  506SOL    HW2 1518   0.629   0.215   1.826 -1.1183  1.1858  0.9730
  507SOL     OW 1519   1.673   0.181   3.053  0.2258  0.2272  0.0195
  507SOL    HW1 1520   1.693   0.242   0.044  2.9926 -1.3085 -0.0705
  507SOL    HW2 1521   1.595   0.120   3.074  0.0983  1.2446  0.3950
  508SOL     OW 1522   2.294   0.450   2.464  0.1479 -0.2375  0.0131
  508SOL    HW1 1523   2.326   0.447   2.555  0.4312 -2.0053 -3.7912
  508SOL    HW2 1524   2.348   0.511   2.401 -1.9414 -2.7655  1.2092
  509SOL     OW 1525   0.706   1.463   1.974  0.4228  0.4488  0.0727
  509SOL    HW1 1526   0.773   1.495   2.047 -0.6232 -3.5614 -0.6574
  509SOL    HW2 1527   0.697   1.543   1.909  0.1865 -0.3718  0.8145
  510SOL     OW 1528   2.976   0.388   0.931  0.0094  0.5147 -0.4641
  510SOL    HW1 1529   2.974   0.489   0.916 -0.0381  1.6861 -2.5206
  510SOL    HW2 1530   2.900   0.337   0.880  1.1320  1.6311  0.8743
  511SOL     OW 1531   1.717   1.556   1.098  0.0451 -0.6147 -0.0975
  511SOL    HW1 1532   1.673   1.617   1.027 -1.2401 -0.7511 -1.0509
  511SOL    HW2 1533   1.757   1.611   1.175  0.4352  0.9879  0.3244
  512SOL     OW 1534   0.648   1.315   0.402  0.5568  0.3472 -0.2262
  512SOL    HW1 1535   0.568   1.258   0.396  2.5862  2.1710  1.9397
  512SOL    HW2 1536   0.620   1.410   0.438 -2.4758  0.0839  2.6772
  513SOL     OW 1537   0.421   2.256   0.949 -0.4127 -0.2689  0.1191
  513SOL    HW1 1538   0.359   2.295   1.012 -0.0475  0.1192 -1.1972
  513SOL    HW2 1539   0.463   2.327   0.895 -1.4922  1.7467  0.9200
  514SOL     OW 1540   0.047   2.140   0.110  0.2013  0.6283 -0.2717
  514SOL    HW1 1541   3.066   2.141   0.182  1.1695 -3.2500  3.2978
  514SOL    HW2 1542   0.123   2.089   0.154  0.9122  1.5945 -0.4048
  515SOL     OW 1543   2.846   0.229   0.169 -0.0198  0.6425  0.4426
  515SOL    HW1 1544   2.802   0.139   0.168  0.8385 -1.4111  5.5353
  515SOL    HW2 1545   2.888   0.245   0.259  1.9167 -3.7971  0.7703
  516SOL     OW 1546   2.135   2.893   0.933 -0.5125 -0.3105  0.3399
  516SOL    HW1 1547   2.122   2.857   1.026 -0.2201 -0.4327 -1.5339
  516SOL    HW2 1548   2.195   2.837   0.871  2.8296  1.0218  1.3918
  517SOL     OW 1549   1.189   1.518   0.274 -0.3886  0.4142 -0.0216
  517SOL    HW1 1550   1.208   1.453   0.348 -0.8896 -1.8769  1.6231
  517SOL    HW2 1551   1.095   1.549   0.267  0.1909  0.2748 -2.5253
  518SOL     OW 1552   1.591   0.785   1.358  0.4290  0.0385  0.5322
  518SOL    HW1 1553   1.573   0.691   1.327 -0.4724  2.4519  0.8317
  518SOL    HW2 1554   1.615   0.835   1.271  0.2679 -0.5840 -0.7356
  519SOL     OW 1555   2.734   2.321   0.532  0.3025 -0.1298  0.7239
  519SOL    HW1 1556   2.710   2.225   0.553  0.2513 -3.5500  1.5964
  519SOL    HW2 1557   2.791   2.357   0.605 -1.6155  0.5008  0.0107
  520SOL     OW 1558   2.163   2.041   1.809  0.4959 -0.4256 -0.2650
  520SOL    HW1 1559   2.201   1.956   1.765  1.3047  0.9228  0.1777
  520SOL    HW2 1560   2.233   2.114   1.808  0.1650 -3.5041  1.5415
  521SOL     OW 1561   1.491   2.961   2.203  0.0918  0.0953  0.1569
  521SOL    HW1 1562   1.535   2.926   2.287 -1.0927  2.5511  2.8238
  521SOL    HW2 1563   1.542   3.045   2.170 -1.1625  0.2974  0.7008
  522SOL     OW 1564   2.915   0.150   1.993  0.2262  0.1058 -0.1024
  522SOL    HW1 1565   2.926   0.168   2.091 -2.5964  1.1076 -1.4051
  522SOL    HW2 1566   2.946   0.055   1.967 -0.3372 -1.5536 -2.1920
  523SOL     OW 1567   1.194   2.180   1.664  0.2388 -0.7755 -0.1542
  523SOL    HW1 1568   1.131   2.218   1.736 -0.7796  0.9656  0.6636
  523SOL    HW2 1569   1.125   2.149   1.592  0.3042 -0.4948  2.1555
  524SOL     OW 1570   2.093   2.144   2.899 -0.0263 -0.8618 -0.6821
  524SOL    HW1 1571   2.185   2.107   2.889 -1.5113  2.1735  1.1943
  524SOL    HW2 1572   2.027   2.095   2.841  0.5036  2.1205  2.1850
  525SOL     OW 1573   2.792   0.978   0.351  0.0783  0.0518  0.2882
  525SOL    HW1 1574   2.882   0.931   0.370  2.0206 -1.9110 -0.9768
  525SOL    HW2 1575   2.716   0.915   0.342  1.7112  2.7417 -0.2547
  526SOL     OW 1576   1.081   2.798   1.034  0.1381  0.1356 -0.6099
  526SOL    HW1 1577   1.048   2.715   0.986  0.5849  1.0343  1.4893
  526SOL    HW2 1578   1.001   2.852   1.070  0.3504 -0.4588  0.2268
  527SOL     OW 1579   2.269   1.533   0.705 -0.3521 -0.1074 -0.3242
  527SOL    HW1 1580   2.186   1.471   0.695 -2.8171 -1.1406  0.4783
  527SOL    HW2 1581   2.357   1.492   0.669  0.3870 -1.6372 -0.5821
  528SOL     OW 1582   0.487   0.700   2.691  0.2697  0.0436  0.2629
  528SOL    HW1 1583   0.565   0.729   2.633  1.1551 -1.0774  0.4175
  528SOL    HW2 1584   0.401   0.684   2.638  2.3975 -0.2238 -0.0433
  529SOL     OW 1585   0.435   1.372   3.017  1.3580 -0.0211 -0.1862
  529SOL    HW1 1586   0.343   1.418   2.998 -1.8880 -0.1872  0.5147
  529SOL    HW2 1587   0.414   1.286   3.069  3.2047 -1.0475  1.2591
  530SOL     OW 1588   1.420   1.155   1.968 -0.2132 -0.1834 -0.5138
  530SOL    HW1 1589   1.515   1.132   1.968 -1.6977  1.5650 -1.7823
  530SOL    HW2 1590   1.367   1.070   1.959  0.3778 -1.9910  1.1190
  531SOL     OW 1591   1.315   2.284   2.804  0.0961 -0.8461 -0.3057
  531SOL    HW1 1592   1.251   2.266   2.728  1.2523  1.3446 -0.0107
  531SOL    HW2 1593   1.355   2.197   2.841  0.8504  0.6444 -0.8998
  532SOL     OW 1594   2.313   0.690   0.109 -0.3282  0.0684 -0.2329
  532SOL    HW1 1595   2.300   0.659   0.204  0.5175 -2.9453  0.7905
  532SOL    HW2 1596   2.365   0.613   0.066  1.0598 -1.3685  0.8070
  533SOL     OW 1597   3.052   0.564   1.883  0.0838 -0.2632 -0.4238
  533SOL    HW1 1598   0.005   0.511   1.810 -0.9204  3.7701 -1.0131
  533SOL    HW2 1599   2.951   0.561   1.879  1.0150  0.2327  1.4556
  534SOL     OW 1600   1.870   0.122   0.315 -0.5423  0.5423 -0.4051
  534SOL    HW1 1601   1.873   0.022   0.303 -1.4899  1.7224  1.3342
  534SOL    HW2 1602   1.937   0.166   0.249 -1.6662  0.3324  1.5340
  535SOL     OW 1603   0.707   0.157   3.047 -0.2343 -0.2107 -0.5588
  535SOL    HW1 1604   0.786   0.215   3.077 -0.1402 -0.8045 -2.3431
  535SOL    HW2 1605   0.721   0.114   2.956 -0.5792 -1.1420 -0.3746
  536SOL     OW 1606   0.423   1.595   1.686  0.0673 -0.1878  0.4391
  536SOL    HW1 1607   0.440   1.694   1.692  0.0277  1.3151  2.3923
  536SOL    HW2 1608   0.487   1.544   1.626 -0.7083  0.2560  0.9917
  537SOL     OW 1609   0.310   2.621   1.910  0.5501 -0.3820  0.3607
  537SOL    HW1 1610   0.380   2.653   1.844 -0.6914 -2.2159 -2.0392
  537SOL    HW2 1611   0.320   2.669   1.999  0.3711 -1.5408 -1.0797
  538SOL     OW 1612   2.925   2.191   0.288 -0.6594  0.4079  0.4616
  538SOL    HW1 1613   2.924   2.290   0.319  1.3319  2.1330  1.6206
  538SOL    HW2 1614   2.832   2.151   0.285  0.8816  0.6300 -0.2857
  539SOL     OW 1615   2.616   0.692   2.806 -0.0036  0.4853  0.1760
  539SOL    HW1 1616   2.640   0.675   2.708 -0.3342  0.3085 -0.0015
  539SOL    HW2 1617   2.683   0.754   2.854  1.2693 -1.0396  1.2321
  540SOL     OW 1618   1.701   0.784   0.234  0.1552 -0.3922  0.2191
  540SOL    HW1 1619   1.785   0.845   0.225 -0.5692  1.2708  3.2127
  540SOL    HW2 1620   1.625   0.838   0.270  2.4592 -2.1805 -3.3268
  541SOL     OW 1621   0.695   0.545   1.806  0.0328  0.0965 -0.0471
  541SOL    HW1 1622   0.763   0.590   1.863 -2.2058  0.6590  1.4838
  541SOL    HW2 1623   0.612   0.604   1.788 -2.1847  1.9244 -1.5096
  542SOL     OW 1624   1.847   2.365   2.261 -0.4193 -0.2578  0.2154
  542SOL    HW1 1625   1.818   2.462   2.256 -0.4442 -0.1381  1.5219
  542SOL    HW2 1626   1.824   2.323   2.169  0.0678  2.0250 -1.8347
  543SOL     OW 1627   0.918   2.946   0.704  0.5095  0.2680 -0.2930
  543SOL    HW1 1628   0.996   3.018   0.703  3.3086  1.1636 -2.6148
  543SOL    HW2 1629   0.934   2.882   0.627 -0.3498 -0.4602  1.2027
  544SOL     OW 1630   2.634   1.743   2.138 -0.3040  0.4752 -0.1174
  544SOL    HW1 1631   2.710   1.810   2.144 -0.8418  0.4657 -3.0062
  544SOL    HW2 1632   2.603   1.715   2.231 -0.1607  1.3826  1.0141
  545SOL     OW 1633   1.465   1.986   1.387 -0.7336  0.7950  0.0067
  545SOL    HW1 1634   1.371   2.014   1.364  0.8332  0.3676 -1.1245
  545SOL    HW2 1635   1.474   1.889   1.360 -2.4300  1.7013  0.2171
  546SOL     OW 1636   0.710   0.080   2.399 -0.1451  0.1365  0.3256
  546SOL    HW1 1637   0.658   0.166   2.375  3.3222  1.6439  1.2355
  546SOL    HW2 1638   0.657   0.031   2.471  2.3966 -0.7489  1.0608
  547SOL     OW 1639   1.321   0.363   0.514 -0.5715 -0.1360  0.0902
  547SOL    HW1 1640   1.259   0.345   0.594 -1.7053 -0.1899  1.5623
  547SOL    HW2 1641   1.271   0.404   0.439 -0.0300  2.0088 -0.2029
  548SOL     OW 1642   1.423   2.075   2.928  0.5491  0.1177  0.7596
  548SOL    HW1 1643   1.384   1.983   2.932 -2.2149  0.0070  0.1616
  548SOL    HW2 1644   1.469   2.098   3.013 -1.2298 -0.2511 -0.4594
  549SOL     OW 1645   1.917   0.970   0.161  0.2499 -0.0235 -0.4129
  549SOL    HW1 1646   1.979   0.974   0.238  0.7970  1.1382 -0.1276
  549SOL    HW2 1647   1.894   1.062   0.121  0.7872  3.6001 -0.0530
  550SOL     OW 1648   2.307   1.958   0.235  0.9849  0.1223  0.6283
  550SOL    HW1 1649   2.306   1.877   0.297 -0.1161 -0.7913  2.4642
  550SOL    HW2 1650   2.329   2.041   0.291 -0.3475  0.0805  0.5374
  551SOL     OW 1651   1.413   0.716   1.595  0.1667  0.2374  0.1286
  551SOL    HW1 1652   1.443   0.770   1.514  2.1272 -3.0504  0.6138
  551SOL    HW2 1653   1.488   0.696   1.662 -1.5930 -0.9389 -1.1285
  552SOL     OW 1654   3.050   2.401   2.877  0.0152  0.0185  0.2231
  552SOL    HW1 1655   3.003   2.328   2.824  0.1377  0.0557  2.2634
  552SOL    HW2 1656   3.003   2.415   2.968 -0.4637  3.0206 -0.8040
  553SOL     OW 1657   2.883   2.460   0.751 -0.3068  0.2901  0.5457
  553SOL    HW1 1658   2.978   2.420   0.743  0.4505  0.7041  1.6460
  553SOL    HW2 1659   2.822   2.407   0.815 -1.3038  0.5539 -0.6032
  554SOL     OW 1660   1.986   1.767   1.706 -0.2848  0.2666  0.0658
  554SOL    HW1 1661   2.007   1.668   1.691 -0.4146  1.3114  0.6664
  554SOL    HW2 1662   1.897   1.771   1.757  0.1991 -0.9396 -1.8738
  555SOL     OW 1663   1.526   2.142   2.297  0.0254  0.2755  0.6236
  555SOL    HW1 1664   1.450   2.126   2.364  1.0839 -2.4614  1.9221
  555SOL    HW2 1665   1.542   2.237   2.272  0.6058  0.6648 -2.8667
  556SOL     OW 1666   1.196   1.722   1.340 -0.0401  0.2545 -0.5859
  556SOL    HW1 1667   1.245   1.791   1.394  1.0495  4.6934 -2.9422
  556SOL    HW2 1668   1.244   1.634   1.348  2.3816  1.4135 -2.3031
  557SOL     OW 1669   1.540   0.228   1.605  0.0701 -0.4590  0.3316
  557SOL    HW1 1670   1.618   0.247   1.670  1.8306  0.7497  0.5495
  557SOL    HW2 1671   1.453   0.251   1.644 -0.1107 -1.1171 -2.6591
  558SOL     OW 1672   0.479   2.949   2.051  0.1922  0.5769 -0.0858
  558SOL    HW1 1673   0.492   2.956   1.953  2.7881  2.4628 -0.6180
  558SOL    HW2 1674   0.484   3.042   2.095 -0.8117  1.3303  0.3402
  559SOL     OW 1675   2.110   2.362   0.126 -0.2858 -0.4706  0.2386
  559SOL    HW1 1676   2.096   2.451   0.072  1.5051  3.4914 -3.9282
  559SOL    HW2 1677   2.096   2.378   0.226  1.4774 -2.3798 -2.4964
  560SOL     OW 1678   1.361   2.150   0.269  0.4104 -0.9959 -0.3057
  560SOL    HW1 1679   1.373   2.075   0.336 -1.2569 -2.4590  0.4386
  560SOL    HW2 1680   1.435   2.153   0.199 -0.5198 -1.9688  1.0293
  561SOL     OW 1681   1.325   0.232   2.977 -0.6437 -0.2964  0.0638
  561SOL    HW1 1682   1.280   0.322   2.953 -0.2699  0.6617 -1.0505
  561SOL    HW2 1683   1.406   0.209   2.918  1.6851  0.1237 -1.3801
  562SOL     OW 1684   0.396   1.308   2.179 -0.1826 -0.5231 -0.0577
  562SOL    HW1 1685   0.317   1.242   2.196  2.8594 -1.8709  0.1330
  562SOL    HW2 1686   0.438   1.286   2.083 -0.7563 -2.1558 -2.4628
  563SOL     OW 1687   1.288   2.023   2.591  0.3386  0.3732  0.9142
  563SOL    HW1 1688   1.268   2.033   2.490 -0.9438 -0.7132 -0.5633
  563SOL    HW2 1689   1.375   1.968   2.602 -0.1240 -0.8323 -0.1717
  564SOL     OW 1690   2.720   1.148   0.653  0.0094  0.3360  0.1233
  564SOL    HW1 1691   2.644   1.083   0.663 -0.0951  1.4202 -2.7445
  564SOL    HW2 1692   2.720   1.204   0.739 -0.2971 -1.3266  0.0784
  565SOL     OW 1693   0.432   1.140   0.103  0.0267  0.1547  0.2147
  565SOL    HW1 1694   0.377   1.070   0.061  0.7005 -0.2525  3.4876
  565SOL    HW2 1695   0.428   1.133   0.207  1.4135 -2.5629  0.9478
  566SOL     OW 1696   2.563   2.793   2.576 -0.0174  0.0683 -0.3923
  566SOL    HW1 1697   2.649   2.768   2.619 -0.9139  0.1079 -0.4062
  566SOL    HW2 1698   2.489   2.814   2.643 -0.5529  0.9744 -0.4448
  567SOL     OW 1699   1.500   1.403   1.195 -0.4124 -0.3522  0.8789
  567SOL    HW1 1700   1.570   1.468   1.148 -0.4345  3.9194 -0.6266
  567SOL    HW2 1701   1.545   1.313   1.205  0.1552  0.7671  0.0681
  568SOL     OW 1702   1.342   1.318   2.790 -0.1347  0.1582  0.1428
  568SOL    HW1 1703   1.251   1.359   2.783  3.3220  0.1301 -0.2961
  568SOL    HW2 1704   1.370   1.273   2.703 -0.0868  0.9371  1.0309
  569SOL     OW 1705   2.253   1.665   2.972  0.1218  0.8895  0.3136
  569SOL    HW1 1706   2.289   1.749   3.015  0.3319 -0.5815  2.2169
  569SOL    HW2 1707   2.166   1.648   3.016 -1.7465  0.7759  0.1677
  570SOL     OW 1708   2.985   2.414   1.737 -0.1758 -0.0195  0.0026
  570SOL    HW1 1709   3.057   2.385   1.669  1.6931  1.1628  0.2921
  570SOL    HW2 1710   3.024   2.494   1.796  0.6362  1.7337 -1.8609
  571SOL     OW 1711   2.821   1.791   1.542 -0.0086  0.0487 -0.6450
  571SOL    HW1 1712   2.863   1.703   1.510 -2.5528  0.9431  1.5216
  571SOL    HW2 1713   2.792   1.776   1.635 -0.1697 -2.5170  0.0705
  572SOL     OW 1714   1.816   2.204   0.369  0.2456  0.1545  0.0788
  572SOL    HW1 1715   1.795   2.278   0.310 -2.0846 -0.6316 -0.7133
  572SOL    HW2 1716   1.920   2.192   0.373 -0.9667  2.0275  1.7513
  573SOL     OW 1717   1.418   1.964   0.437 -0.1203 -0.0774  0.0323
  573SOL    HW1 1718   1.514   1.946   0.462 -0.3786 -1.5442 -0.0538
  573SOL    HW2 1719   1.353   1.924   0.501  2.0352 -0.3909 -1.3026
  574SOL     OW 1720   1.526   2.975   1.484 -0.8984  0.3527 -0.2103
  574SOL    HW1 1721   1.586   2.888   1.476  0.5852 -0.8455 -3.3015
  574SOL    HW2 1722   1.539   3.018   1.574  0.4159  0.2329  1.7267
  575SOL     OW 1723   0.479   1.293   1.300  0.3736 -0.2932 -0.5553
  575SOL    HW1 1724   0.491   1.192   1.317 -1.9184 -0.7553  0.1888
  575SOL    HW2 1725   0.516   1.320   1.210  2.7622  0.5243  0.9015
  576SOL     OW 1726   2.857   0.661   1.183 -0.7931  0.2394 -0.3255
  576SOL    HW1 1727   2.876   0.595   1.260  0.0592 -0.6331  1.6472
  576SOL    HW2 1728   2.777   0.631   1.135 -1.6609  2.5262  3.1784
  577SOL     OW 1729   1.483   0.889   2.477 -0.1461 -0.4108 -0.0148
  577SOL    HW1 1730   1.381   0.882   2.509  0.0236 -0.0611  1.2981
  577SOL    HW2 1731   1.472   0.901   2.377  0.3466 -0.0612  0.1788
  578SOL     OW 1732   2.107   1.189   2.525 -0.7181 -0.2942 -0.0934
  578SOL    HW1 1733   2.029   1.236   2.571  1.2131  3.1109 -0.8499
  578SOL    HW2 1734   2.168   1.261   2.480  2.8803  1.0624 -1.0889
  579SOL     OW 1735   0.832   1.911   1.473  0.0090 -0.4088 -0.5535
  579SOL    HW1 1736   0.760   1.926   1.542 -0.1823  3.0242 -1.2353
  579SOL    HW2 1737   0.798   1.885   1.380 -0.2284 -0.9325 -1.5971
  580SOL     OW 1738   1.527   2.164   0.059 -0.0251 -1.2095 -0.0404
  580SOL    HW1 1739   1.482   2.253   0.025  2.2487 -1.1539 -0.4138
  580SOL    HW2 1740   1.620   2.155   0.011 -0.5760  3.4182  0.2446
  581SOL     OW 1741   0.875   0.641   1.982  0.5157  0.4970 -0.1462
  581SOL    HW1 1742   0.851   0.721   2.043  1.3721  1.3953  3.5761
  581SOL    HW2 1743   0.860   0.552   2.035 -1.6173 -0.8089  0.9041
  582SOL     OW 1744   0.894   1.316   1.287 -0.0125 -0.5494  0.1872
  582SOL    HW1 1745   0.868   1.222   1.262  0.6523  0.4270  0.5759
  582SOL    HW2 1746   0.880   1.336   1.387  1.3900  0.1360 -1.5287
  583SOL     OW 1747   0.630   1.190   1.874 -0.5261  0.0454 -0.6490
  583SOL    HW1 1748   0.580   1.202   1.784 -3.4083 -0.4095 -2.8981
  583SOL    HW2 1749   0.649   1.285   1.907 -1.9711  0.9064 -1.1693
  584SOL     OW 1750   2.004   2.699   0.306  0.3176 -0.0409  0.6935
  584SOL    HW1 1751   1.934   2.623   0.291  0.7044 -0.7492 -1.0195
  584SOL    HW2 1752   2.085   2.671   0.357  2.6180 -0.0841 -0.5393
  585SOL     OW 1753   1.890   0.146   2.889 -0.8746  0.5986  0.1263
  585SOL    HW1 1754   1.808   0.154   2.947 -1.3750 -1.0973 -0.2767
  585SOL    HW2 1755   1.863   0.134   2.793  1.9405  1.7625 -0.5446
  586SOL     OW 1756   2.973   1.985   0.504 -0.0543  0.0638  0.1885
  586SOL    HW1 1757   2.896   1.991   0.431 -1.9896 -1.4775  0.0819
  586SOL    HW2 1758   3.037   2.065   0.497  2.7161  2.2533 -1.3658
  587SOL     OW 1759   1.825   1.787   0.299  0.0884  0.3854  0.3754
  587SOL    HW1 1760   1.888   1.715   0.334 -0.0709  1.5135  0.1320
  587SOL    HW2 1761   1.877   1.847   0.233  0.9996  0.6569 -0.9590
  588SOL     OW 1762   0.354   0.194   0.774 -0.1044  0.7659  0.7942
  588SOL    HW1 1763   0.272   0.249   0.802  0.4000 -0.8717  0.2439
  588SOL    HW2 1764   0.391   0.144   0.854  1.7282  1.7961  0.5655
  589SOL     OW 1765   1.215   1.072   1.026 -0.5294  0.2613  0.0608
  589SOL    HW1 1766   1.282   1.112   0.957 -0.6859 -0.4492  0.4448
  589SOL    HW2 1767   1.265   0.993   1.069  0.3273 -1.8970 -0.4894
  590SOL     OW 1768   1.377   1.040   0.124 -0.2796 -0.0632 -0.2264
  590SOL    HW1 1769   1.313   1.106   0.165  1.8144  0.4999 -0.9121
  590SOL    HW2 1770   1.331   0.959   0.086  0.6082  1.4938  0.6686
  591SOL     OW 1771   2.600   2.296   2.440  0.6101 -0.6647 -0.3875
  591SOL    HW1 1772   2.524   2.360   2.426 -1.2245  0.6457  3.2118
  591SOL    HW2 1773   2.643   2.270   2.352 -0.0930  0.6936  0.7412
  592SOL     OW 1774   1.669   2.051   1.173 -0.1000 -0.6289 -0.2838
  592SOL    HW1 1775   1.732   1.971   1.167  0.1639  0.9882 -0.9339
  592SOL    HW2 1776   1.649   2.058   1.270 -2.3879  3.1085  1.6422
  593SOL     OW 1777   1.203   0.137   1.107 -0.4009 -0.2607 -0.4732
  593SOL    HW1 1778   1.269   0.070   1.067  0.9388  0.2574 -1.6586
  593SOL    HW2 1779   1.250   0.193   1.176 -0.7356  1.7137  1.5154
  594SOL     OW 1780   2.900   0.516   2.443 -0.2679 -0.2529 -0.5023
  594SOL    HW1 1781   2.918   0.604   2.395 -0.0004 -0.8581 -2.5491
  594SOL    HW2 1782   2.966   0.444   2.409 -1.7670  1.1759  0.1476
  595SOL     OW 1783   0.569   2.565   1.186  0.6442  0.4283  0.1738
  595SOL    HW1 1784   0.477   2.594   1.152  3.1981 -1.9917  2.4332
  595SOL    HW2 1785   0.559   2.486   1.248 -0.6624 -0.8655  0.8667
  596SOL     OW 1786   0.170   0.890   1.146  0.5233  0.5545 -0.0935
  596SOL    HW1 1787   0.163   0.972   1.088 -0.0774  1.1829 -0.3267
  596SOL    HW2 1788   0.079   0.875   1.193 -0.6903 -2.7957  0.9770
  597SOL     OW 1789   1.598   1.705   0.138  0.5513 -0.1404 -0.4252
  597SOL    HW1 1790   1.502   1.686   0.177 -0.9713  1.4736  1.2538
  597SOL    HW2 1791   1.667   1.711   0.210  0.4773 -1.4222 -0.5554
  598SOL     OW 1792   0.520   2.679   1.707  0.1920  0.0991  0.0137
  598SOL    HW1 1793   0.472   2.669   1.618  0.5565 -0.8992  1.3071
  598SOL    HW2 1794   0.572   2.593   1.729  1.1918  0.9194 -0.7183
  599SOL     OW 1795   2.320   1.997   2.841 -0.1348 -0.4464  0.3857
  599SOL    HW1 1796   2.281   1.924   2.781 -1.3432  0.1552 -0.1496
  599SOL    HW2 1797   2.370   1.959   2.921 -1.5674  0.7885 -1.5612
  600SOL     OW 1798   0.731   0.795   0.349  0.2248  0.2034  0.0057
  600SOL    HW1 1799   0.744   0.886   0.311 -1.0338 -1.4453  2.3458
  600SOL    HW2 1800   0.790   0.787   0.434 -0.6964 -1.1285  1.8265
  601SOL     OW 1801   0.940   0.765   0.545  0.2893 -0.7709 -0.2335
  601SOL    HW1 1802   0.943   0.841   0.617 -2.3554  1.4932 -0.3577
  601SOL    HW2 1803   0.960   0.678   0.589  1.6035 -2.6954 -0.5101
  602SOL     OW 1804   1.475   2.838   0.744 -0.0281  0.0042  0.3665
  602SOL    HW1 1805   1.545   2.899   0.785  0.5221 -1.5863  0.2744
  602SOL    HW2 1806   1.397   2.893   0.711  0.0943 -0.2495 -0.4198
  603SOL     OW 1807   0.695   2.769   2.056 -0.0324 -0.0358 -0.0915
  603SOL    HW1 1808   0.622   2.843   2.072 -4.4884  1.1547 -1.4266
  603SOL    HW2 1809   0.738   2.784   1.964  0.7460  1.8312  3.6184
  604SOL     OW 1810   2.807   2.928   2.353  0.6741 -0.6296 -0.0975
  604SOL    HW1 1811   2.891   2.918   2.299 -1.3773 -1.3080 -1.4992
  604SOL    HW2 1812   2.788   2.835   2.388  2.7642  1.4601  0.8460
  605SOL     OW 1813   2.667   1.991   1.178 -0.2106 -0.2441  0.6993
  605SOL    HW1 1814   2.657   1.999   1.277  0.8443  0.9109  1.6603
  605SOL    HW2 1815   2.593   2.046   1.133  0.1915  0.7206 -1.3934
  606SOL     OW 1816   0.228   1.530   2.961 -0.1353  0.0446 -0.7964
  606SOL    HW1 1817   0.268   1.617   2.991  0.7750 -2.8467 -2.2556
  606SOL    HW2 1818   0.204   1.544   2.868 -0.4582 -0.3581  0.2791
  607SOL     OW 1819   0.824   3.058   0.421  0.2068  0.2343 -0.7282
  607SOL    HW1 1820   0.756   3.082   0.351  0.4034 -4.2265  2.8713
  607SOL    HW2 1821   0.893   0.036   0.429  1.5415  0.2757  2.3283
  608SOL     OW 1822   1.774   1.133   2.438 -0.8481 -0.0789 -0.2074
  608SOL    HW1 1823   1.808   1.179   2.524  2.9313  1.8982  2.7865
  608SOL    HW2 1824   1.769   1.032   2.449  2.3959 -0.9635 -0.0474
  609SOL     OW 1825   0.095   0.268   0.868 -0.0717 -0.2693 -0.2565
  609SOL    HW1 1826   0.141   0.229   0.951 -2.0693 -1.0106  0.1170
  609SOL    HW2 1827   0.011   0.321   0.897  2.0248  1.8148  0.4999
  610SOL     OW 1828   0.620   2.757   0.603 -0.4951  0.6806  0.0196
  610SOL    HW1 1829   0.722   2.779   0.593 -0.8746  0.8574 -1.9672
  610SOL    HW2 1830   0.574   2.768   0.693  1.0964  1.1551 -0.3026
  611SOL     OW 1831   1.685   1.013   2.823 -0.1858  0.1530  0.4886
  611SOL    HW1 1832   1.773   1.042   2.865  3.2701  0.4550  0.4973
  611SOL    HW2 1833   1.610   1.055   2.876  1.4715 -1.8394 -0.3690
  612SOL     OW 1834   0.796   2.179   2.236 -0.0937 -0.6038  0.0491
  612SOL    HW1 1835   0.777   2.104   2.309  0.5688 -1.5534  1.3248
  612SOL    HW2 1836   0.737   2.259   2.255  0.6060 -0.8713 -2.3720
  613SOL     OW 1837   0.887   2.398   0.201  0.0960  0.5493 -0.0488
  613SOL    HW1 1838   0.824   2.329   0.251 -0.0538 -0.2653  0.3042
  613SOL    HW2 1839   0.976   2.353   0.166  3.8118 -1.4317 -5.1092
  614SOL     OW 1840   2.831   2.754   1.476 -0.3214 -0.4680 -0.6436
  614SOL    HW1 1841   2.827   2.817   1.559 -0.2723 -0.1398  0.5066
  614SOL    HW2 1842   2.883   2.794   1.398 -3.3160 -1.3699 -0.0369
  615SOL     OW 1843   2.353   1.400   2.962 -0.0624 -0.5093 -0.1039
  615SOL    HW1 1844   2.336   1.498   2.977 -1.1829 -2.0596  0.6841
  615SOL    HW2 1845   2.313   1.372   2.874 -0.3349  0.7863 -1.7300
  616SOL     OW 1846   1.710   0.062   0.542  0.0411  0.3685 -0.0269
  616SOL    HW1 1847   1.771   0.094   0.465  1.8956 -1.8846  3.1938
  616SOL    HW2 1848   1.620   0.105   0.523  1.9823  0.3484  1.9768
  617SOL     OW 1849   1.122   0.921   3.020 -0.0317 -0.7400  0.1686
  617SOL    HW1 1850   1.189   0.880   2.954  0.5548  2.3670 -0.1773
  617SOL    HW2 1851   1.053   0.976   2.972  3.6868 -1.1425  1.8143
  618SOL     OW 1852   0.676   0.057   1.738 -1.0549  0.0856  0.6235
  618SOL    HW1 1853   0.764   0.013   1.772  0.6339  3.8605  1.4447
  618SOL    HW2 1854   0.598   0.007   1.758  2.7639  2.5500  3.1086
  619SOL     OW 1855   2.897   1.102   1.284 -0.7065 -0.1131  0.3882
  619SOL    HW1 1856   2.945   1.182   1.238  2.4149  1.9377 -1.7771
  619SOL    HW2 1857   2.933   1.088   1.379 -1.6339  1.8880  1.3252
  620SOL     OW 1858   2.123   0.868   2.821  0.7045  0.1779 -0.1553
  620SOL    HW1 1859   2.086   0.864   2.722 -0.2139  3.2350 -5.3985
  620SOL    HW2 1860   2.043   0.873   2.879  0.0224 -1.6377  0.1141
  621SOL     OW 1861   2.586   2.744   1.341 -0.2718  0.1102  0.5025
  621SOL    HW1 1862   2.595   2.756   1.239 -0.7269  0.3636  1.5893
  621SOL    HW2 1863   2.674   2.735   1.391 -0.7075 -3.3378  1.3236
  622SOL     OW 1864   1.267   0.889   2.662 -0.3472  0.5775  0.1459
  622SOL    HW1 1865   1.178   0.941   2.672  1.1584  0.2128 -1.6542
  622SOL    HW2 1866   1.296   0.857   2.754 -3.3600 -0.3996 -1.3306
  623SOL     OW 1867   1.224   0.580   3.026  0.0271 -0.2856 -0.1455
  623SOL    HW1 1868   1.306   0.631   3.056 -0.7961 -1.4495  0.6736
  623SOL    HW2 1869   1.227   0.565   2.928  2.0401  0.4691 -0.7087
  624SOL     OW 1870   1.859   0.560   0.158 -0.1332  0.3735 -0.3933
  624SOL    HW1 1871   1.804   0.641   0.186 -0.8617 -1.8213 -2.7931
  624SOL    HW2 1872   1.939   0.584   0.097 -0.2872  1.0839 -3.3099
  625SOL     OW 1873   1.111   1.332   1.044  0.3399 -0.2551  0.1053
  625SOL    HW1 1874   1.163   1.244   1.064  2.6586 -2.5139  0.3796
  625SOL    HW2 1875   1.038   1.347   1.115 -1.4386 -1.4023  0.6565
  626SOL     OW 1876   1.465   1.115   2.951  0.5199 -0.1877  0.6771
  626SOL    HW1 1877   1.434   1.100   3.044 -2.4038  1.5576  0.7453
  626SOL    HW2 1878   1.404   1.187   2.903 -2.0261  0.0353 -5.0589
  627SOL     OW 1879   0.897   3.055   1.855 -0.3550 -0.6541 -0.4483
  627SOL    HW1 1880   0.901   2.953   1.865  0.3123 -1.4926 -0.7638
  627SOL    HW2 1881   0.985   0.005   1.889 -1.4785  1.1037 -0.1728
  628SOL     OW 1882   2.460   0.216   2.102 -0.5985 -0.2045 -0.1009
  628SOL    HW1 1883   2.538   0.214   2.041 -1.3417 -0.1115 -0.1157
  628SOL    HW2 1884   2.494   0.222   2.198  1.5999  1.9051  2.5956
  629SOL     OW 1885   0.734   0.939   2.975  0.1329 -0.2452 -0.0893
  629SOL    HW1 1886   0.791   0.935   2.895  0.2771  1.2718 -0.0704
  629SOL    HW2 1887   0.735   0.851   3.027  0.2959  3.3068 -0.9480
  630SOL     OW 1888   1.200   0.357   2.114  0.2330 -0.2120  0.4068
  630SOL    HW1 1889   1.130   0.357   2.195 -2.0398 -0.8614  2.2574
  630SOL    HW2 1890   1.295   0.358   2.150  0.7371  0.2296 -0.7478
  631SOL     OW 1891   2.873   0.659   0.643 -0.5136 -0.2224  0.4535
  631SOL    HW1 1892   2.839   0.565   0.640  3.1853  3.7192 -0.8129
  631SOL    HW2 1893   2.955   0.671   0.586  1.2178  2.3479 -0.5118
  632SOL     OW 1894   2.228   1.142   1.252  0.1156  0.2574  0.3901
  632SOL    HW1 1895   2.128   1.171   1.239 -0.5797 -0.1402  1.4420
  632SOL    HW2 1896   2.242   1.040   1.234  0.0565  1.1069  0.3243
  633SOL     OW 1897   1.569   0.755   0.937 -0.0918  0.3742  0.1045
  633SOL    HW1 1898   1.506   0.798   0.872  0.8927 -0.9234  1.6283
  633SOL    HW2 1899   1.665   0.774   0.911 -1.3430 -0.1376  0.8805
  634SOL     OW 1900   1.900   3.060   0.887 -0.6654 -0.3100 -0.3719
  634SOL    HW1 1901   1.975   3.003   0.920 -0.9606 -0.2381 -1.0372
  634SOL    HW2 1902   1.813   3.013   0.876  2.6565  3.5997  2.8594
  635SOL     OW 1903   1.555   0.951   1.135  0.0422  0.2139 -0.2323
  635SOL    HW1 1904   1.562   0.870   1.074  0.9234 -0.6951  2.8769
  635SOL    HW2 1905   1.601   1.027   1.090 -1.5812  0.5578 -0.1090
  636SOL     OW 1906   0.896   0.706   0.948 -0.4743 -0.8372 -0.0152
  636SOL    HW1 1907   0.926   0.649   1.028 -1.1685 -0.2831 -0.5956
  636SOL    HW2 1908   0.926   0.801   0.948 -0.0287  1.5903  1.2798
  637SOL     OW 1909   2.079   2.230   0.378  0.1873  0.0059  0.3625
  637SOL    HW1 1910   2.163   2.178   0.390 -0.9962  1.2794 -1.2165
  637SOL    HW2 1911   2.082   2.317   0.431  1.5402  1.3253  3.0390
  638SOL     OW 1912   1.765   2.950   2.638  0.5421  0.1856  0.8457
  638SOL    HW1 1913   1.727   2.937   2.731  0.5557  0.7412 -0.4049
  638SOL    HW2 1914   1.815   2.870   2.604  0.0983  2.4185  0.1652
  639SOL     OW 1915   0.822   2.240   1.281  0.2430  0.5888  0.4147
  639SOL    HW1 1916   0.893   2.282   1.224 -1.5948  1.3147  1.9438
  639SOL    HW2 1917   0.770   2.179   1.221  1.9026 -0.5324 -1.2426
  640SOL     OW 1918   2.942   2.693   0.624  0.5836  0.4186  0.1364
  640SOL    HW1 1919   2.899   2.621   0.678  0.9936  3.0481 -0.6886
  640SOL    HW2 1920   3.028   2.657   0.575  1.5862 -0.0601  0.6157
  641SOL     OW 1921   0.449   0.242   0.031  0.3201  0.3477 -0.3704
  641SOL    HW1 1922   0.544   0.234   3.090  0.3053 -2.0117 -1.5787
  641SOL    HW2 1923   0.395   0.252   3.042  0.3819 -1.0552  0.8197
  642SOL     OW 1924   2.930   0.910   0.949  0.7104  0.4827  0.6378
  642SOL    HW1 1925   2.969   0.828   0.912 -1.1352  1.2775  1.1683
  642SOL    HW2 1926   2.840   0.887   0.996 -1.3755 -1.1249 -0.8475
  643SOL     OW 1927   0.429   1.759   1.993 -0.0813 -1.0888 -0.7618
  643SOL    HW1 1928   0.493   1.750   1.916 -0.0349 -0.2943 -0.0865
  643SOL    HW2 1929   0.472   1.719   2.081  1.7707 -0.6747  0.7822
  644SOL     OW 1930   1.789   2.557   0.586 -0.2707 -0.3666  0.6079
  644SOL    HW1 1931   1.876   2.516   0.557  0.3648 -0.4563 -1.9934
  644SOL    HW2 1932   1.710   2.515   0.539  0.7036 -0.1759 -0.4770
  645SOL     OW 1933   1.789   2.345   1.096  0.2922 -0.0815  0.4207
  645SOL    HW1 1934   1.874   2.406   1.078  0.0813  0.9009  2.1706
  645SOL    HW2 1935   1.736   2.327   1.009  0.1069  1.0030  0.8522
  646SOL     OW 1936   1.208   2.809   0.417  0.3665 -0.6318 -0.1283
  646SOL    HW1 1937   1.183   2.713   0.436 -0.7359  1.9279 -0.9401
  646SOL    HW2 1938   1.161   2.843   0.330 -0.5082 -2.2569  0.6559
  647SOL     OW 1939   0.503   2.935   1.791  0.6227  0.2034  0.4260
  647SOL    HW1 1940   0.407   2.964   1.767 -0.0141 -0.0572  1.5667
  647SOL    HW2 1941   0.520   2.838   1.752 -0.8616 -1.7848 -1.2908
  648SOL     OW 1942   1.930   1.093   1.255  0.1558  0.3828  0.2217
  648SOL    HW1 1943   1.964   1.077   1.350 -1.1471 -0.5845 -0.0681
  648SOL    HW2 1944   1.958   1.009   1.203  2.5756  1.2767  3.6407
  649SOL     OW 1945   1.666   2.077   2.739  0.3449 -0.1411 -0.2063
  649SOL    HW1 1946   1.763   2.045   2.725 -0.4650 -1.6140 -0.7624
  649SOL    HW2 1947   1.653   2.106   2.831 -1.5165 -0.9840 -1.5164
  650SOL     OW 1948   2.512   1.606   1.763  0.6524 -0.1934 -0.4753
  650SOL    HW1 1949   2.590   1.668   1.782  0.1676 -2.4474  1.9309
  650SOL    HW2 1950   2.440   1.659   1.717  0.1839  1.8165  0.9525
  651SOL     OW 1951   1.195   1.736   2.891  0.7086  0.3332 -0.4966
  651SOL    HW1 1952   1.150   1.663   2.831 -2.1265 -2.3399  0.7805
  651SOL    HW2 1953   1.296   1.740   2.890  1.0561 -2.8732  0.0076
  652SOL     OW 1954   1.068   2.816   2.960  0.2707 -0.2825 -0.1075
  652SOL    HW1 1955   1.121   2.737   2.918  3.1681 -0.4965  0.0721
  652SOL    HW2 1956   1.129   2.897   2.969 -1.7804 -2.3772 -2.8819
  653SOL     OW 1957   2.158   2.081   1.158 -0.0376  0.3248  0.2232
  653SOL    HW1 1958   2.085   2.097   1.228  1.5927 -1.6000  0.3443
  653SOL    HW2 1959   2.112   2.059   1.067  1.2791 -2.4239 -3.3168
  654SOL     OW 1960   2.793   2.693   1.911 -0.4661  0.5201  0.2803
  654SOL    HW1 1961   2.806   2.792   1.894  2.9025  0.3489  3.4857
  654SOL    HW2 1962   2.756   2.639   1.830 -2.2218 -3.8943 -3.4298
  655SOL     OW 1963   2.754   2.313   0.920 -0.2243 -0.3687 -0.2149
  655SOL    HW1 1964   2.779   2.216   0.913  1.3686  1.8196 -0.9826
  655SOL    HW2 1965   2.666   2.321   0.964  1.0639  1.3340 -0.8869
  656SOL     OW 1966   0.475   2.622   2.743  0.1128 -0.1457  0.0133
  656SOL    HW1 1967   0.510   2.668   2.664 -0.1913  0.0984  0.1655
  656SOL    HW2 1968   0.441   2.525   2.724 -0.6148 -3.0258  3.7471
  657SOL     OW 1969   3.040   0.859   0.402 -0.0765 -0.2726  0.2015
  657SOL    HW1 1970   3.071   0.764   0.429 -0.4996  1.6631 -0.0427
  657SOL    HW2 1971   3.070   0.869   0.305  2.3755 -2.1401 -3.8174
  658SOL     OW 1972   1.411   1.911   0.931  0.6054 -0.0923 -0.0567
  658SOL    HW1 1973   1.348   1.868   0.999 -1.0049  1.3539  2.0281
  658SOL    HW2 1974   1.426   2.010   0.944  2.2788  0.0826 -0.3844
  659SOL     OW 1975   1.739   0.448   1.316  0.1610  0.2243  0.0014
  659SOL    HW1 1976   1.719   0.358   1.358 -1.0569  0.0883 -0.7292
  659SOL    HW2 1977   1.671   0.472   1.248  1.8856  0.6254 -1.5786
  660SOL     OW 1978   1.408   1.226   0.423  0.1517 -0.0128 -0.1118
  660SOL    HW1 1979   1.375   1.141   0.462  2.2531  2.8681  2.7612
  660SOL    HW2 1980   1.384   1.310   0.479  0.9196  3.1602 -1.4125
  661SOL     OW 1981   0.009   1.836   0.310 -0.5238 -0.3615  0.2520
  661SOL    HW1 1982   3.046   1.793   0.235 -0.7469 -1.6604 -0.5680
  661SOL    HW2 1983   3.040   1.877   0.379 -1.3818  2.7740 -0.5569
  662SOL     OW 1984   2.954   0.766   2.346  0.0218  0.0527 -0.1148
  662SOL    HW1 1985   2.982   0.759   2.251  1.9551 -2.1092  1.4755
  662SOL    HW2 1986   2.902   0.850   2.362 -0.1918 -1.6580 -1.2839
  663SOL     OW 1987   2.115   1.460   1.254 -0.0932 -0.2843  0.4649
  663SOL    HW1 1988   2.107   1.560   1.272 -1.8968  2.7783  1.0585
  663SOL    HW2 1989   2.096   1.410   1.339 -1.3539  0.1808 -1.3404
  664SOL     OW 1990   0.752   0.374   1.060 -0.4025 -0.5357  0.1413
  664SOL    HW1 1991   0.703   0.466   1.083 -0.4767 -0.1164  0.2156
  664SOL    HW2 1992   0.733   0.308   1.134  0.2632 -0.6666 -3.3705
  665SOL     OW 1993   1.183   2.988   2.757 -0.4852 -0.0484 -0.2621
  665SOL    HW1 1994   1.276   3.009   2.710  1.7536 -1.2887 -0.6570
  665SOL    HW2 1995   1.187   3.013   2.853  2.1316 -0.5581  0.7116
  666SOL     OW 1996   0.353   0.493   2.163 -0.1220  0.1996  0.6329
  666SOL    HW1 1997   0.362   0.427   2.086 -0.4445 -2.4731 -1.5334
  666SOL    HW2 1998   0.335   0.445   2.252  2.8940  0.1778  1.3698
  667SOL     OW 1999   1.826   1.357   2.286 -0.0959 -0.3320 -0.0426
  667SOL    HW1 2000   1.920   1.359   2.237  2.7089 -0.0069 -2.6748
  667SOL    HW2 2001   1.813   1.275   2.345  0.2357  1.3008  0.9438
  668SOL     OW 2002   0.147   1.558   2.716  0.5608 -0.8058  0.1343
  668SOL    HW1 2003   0.107   1.464   2.706 -0.5748 -0.1873 -1.6207
  668SOL    HW2 2004   0.073   1.621   2.752 -0.8141  1.0661 -0.3282
  669SOL     OW 2005   2.265   2.926   2.446 -0.4134  0.5986  0.3791
  669SOL    HW1 2006   2.301   2.990   2.376  1.3925 -1.6560  0.1066
  669SOL    HW2 2007   2.304   2.831   2.428 -0.4092 -2.8608 -1.5558
  670SOL     OW 2008   2.609   0.857   2.493  0.0330 -0.7450  0.3053
  670SOL    HW1 2009   2.627   0.759   2.503  2.4977  2.3471 -0.1720
  670SOL    HW2 2010   2.532   0.876   2.556 -0.2103  0.0690  1.2825
  671SOL     OW 2011   2.410   1.885   3.076 -0.5002  0.5627 -0.0813
  671SOL    HW1 2012   2.374   1.913   0.071  1.1367 -1.8886  1.6161
  671SOL    HW2 2013   2.514   1.880   3.070  2.1105 -2.5546 -2.5946
  672SOL     OW 2014   2.627   1.376   2.325 -0.5446 -0.4756  0.1307
  672SOL    HW1 2015   2.559   1.306   2.349  1.9037  2.2352 -0.1639
  672SOL    HW2 2016   2.586   1.471   2.330  1.1595 -0.3617  0.6444
  673SOL     OW 2017   0.082   1.503   1.357  0.1922 -0.1720  0.1271
  673SOL    HW1 2018   0.087   1.599   1.321  2.1582  1.7882 -0.5630
  673SOL    HW2 2019   0.122   1.432   1.292 -0.4334 -0.2154 -2.9331
  674SOL     OW 2020   1.390   1.757   1.904 -0.0627  0.1790 -0.3489
  674SOL    HW1 2021   1.351   1.849   1.925  1.9948  0.4435 -0.1168
  674SOL    HW2 2022   1.469   1.747   1.962 -2.8809  0.0576 -0.3909
  675SOL     OW 2023   2.958   0.284   1.192 -0.3894 -0.0703 -0.3052
  675SOL    HW1 2024   2.987   0.351   1.120  0.2267  2.2324 -0.3403
  675SOL    HW2 2025   2.881   0.233   1.164  3.4036  2.5590 -0.3295
  676SOL     OW 2026   2.506   1.369   0.703 -0.8535  0.1101 -0.2555
  676SOL    HW1 2027   2.598   1.371   0.653  0.6321 -0.0517 -3.0656
  676SOL    HW2 2028   2.495   1.298   0.776  1.0504  0.0758  3.2338
  677SOL     OW 2029   1.660   1.497   2.118 -0.2389  0.4703  0.2278
  677SOL    HW1 2030   1.711   1.448   2.195  0.2850 -2.3398  2.0756
  677SOL    HW2 2031   1.569   1.458   2.108  3.3354  2.2224 -0.8186
  678SOL     OW 2032   2.582   1.590   1.018 -0.0337 -0.5711  0.0212
  678SOL    HW1 2033   2.650   1.636   1.079 -0.2633 -0.7081  0.3932
  678SOL    HW2 2034   2.524   1.526   1.067  0.2756 -0.9906 -2.8395
  679SOL     OW 2035   0.339   2.699   1.054  0.1761  0.0091 -0.3946
  679SOL    HW1 2036   0.254   2.683   1.001  0.3438  0.5208  0.7661
  679SOL    HW2 2037   0.329   2.787   1.105  0.9121 -1.6678 -0.1978
  680SOL     OW 2038   2.903   1.835   1.185  1.1276 -0.0245 -0.0406
  680SOL    HW1 2039   2.983   1.894   1.199 -2.3943 -0.5236  0.1276
  680SOL    HW2 2040   2.814   1.881   1.182 -1.9737 -1.6518  2.8590
  681SOL     OW 2041   0.763   0.803   1.239  0.6835 -0.3902  0.4535
  681SOL    HW1 2042   0.846   0.767   1.285 -0.2486  0.6783 -2.5086
  681SOL    HW2 2043   0.712   0.725   1.197  3.3986 -2.4221  0.5029
  682SOL     OW 2044   1.638   3.055   0.807  0.2665 -0.2442  0.1558
  682SOL    HW1 2045   1.583   0.020   0.870  3.6484 -3.0385 -3.3359
  682SOL    HW2 2046   1.662   0.003   0.717  1.4250 -0.4041  0.4481
  683SOL     OW 2047   2.505   1.322   1.704 -0.4489 -0.3481  0.4774
  683SOL    HW1 2048   2.507   1.406   1.762 -0.2116  1.0030  1.0608
  683SOL    HW2 2049   2.428   1.330   1.639  0.8073  1.4345  1.2552
  684SOL     OW 2050   0.162   1.767   1.703  0.5396 -0.0504 -0.1993
  684SOL    HW1 2051   0.061   1.793   1.723 -1.8750  0.2127 -0.0078
  684SOL    HW2 2052   0.195   1.686   1.757 -1.3911 -1.0190  0.6251
  685SOL     OW 2053   1.985   1.600   0.393  0.5375  0.7650 -0.0538
  685SOL    HW1 2054   1.986   1.566   0.488 -1.1961  2.7479  0.0836
  685SOL    HW2 2055   1.965   1.516   0.336 -0.9735  0.9082 -2.5528
  686SOL     OW 2056   3.066   0.147   0.664 -0.1786  0.1111 -0.3328
  686SOL    HW1 2057   0.017   0.209   0.730  0.9910 -1.0966 -0.3663
  686SOL    HW2 2058   2.970   0.131   0.699 -1.9447  0.1828 -2.1919
  687SOL     OW 2059   1.471   3.033   2.755 -0.0729  0.3452  0.1532
  687SOL    HW1 2060   1.523   0.029   2.774 -0.3190 -0.6862 -0.5479
  687SOL    HW2 2061   1.490   2.964   2.830 -0.1431 -1.1503  1.1841
  688SOL     OW 2062   1.616   1.762   2.425 -0.0353  0.2979 -0.2688
  688SOL    HW1 2063   1.703   1.719   2.450 -1.0042  1.2077 -0.0588
  688SOL    HW2 2064   1.631   1.824   2.351 -0.7685 -1.1327  1.4143
  689SOL     OW 2065   2.738   1.028   1.947  0.0662  0.0261  0.3852
  689SOL    HW1 2066   2.743   1.086   2.029  2.0503 -0.7061 -4.0766
  689SOL    HW2 2067   2.832   1.021   1.901 -1.4863  1.8770 -1.8208
  690SOL     OW 2068   1.852   1.877   1.085  0.3764 -0.5085  0.0862
  690SOL    HW1 2069   1.921   1.807   1.085  0.1840  3.0704  0.8216
  690SOL    HW2 2070   1.769   1.850   1.036 -0.2413  0.6230  0.8122
  691SOL     OW 2071   0.751   1.527   1.190  0.1646  0.5946 -0.0083
  691SOL    HW1 2072   0.807   1.451   1.227  2.1682 -0.9248  1.5847
  691SOL    HW2 2073   0.680   1.482   1.124 -1.1062 -2.1017 -2.4957
  692SOL     OW 2074   2.237   2.837   2.008  0.0232  0.6774 -0.5077
  692SOL    HW1 2075   2.176   2.913   2.044 -2.2892  1.9943 -0.4674
  692SOL    HW2 2076   2.216   2.745   2.051  0.7490  1.2962  0.6782
  693SOL     OW 2077   2.792   1.388   2.542 -0.0442  0.6456  0.3000
  693SOL    HW1 2078   2.880   1.415   2.500 -2.9836  0.1388  1.0845
  693SOL    HW2 2079   2.724   1.394   2.464  3.0489  2.4823  0.0463
  694SOL     OW 2080   2.052   0.262   1.140 -0.4186  0.0259  0.4204
  694SOL    HW1 2081   2.053   0.219   1.237 -0.1712  1.7936  4.2910
  694SOL    HW2 2082   2.125   0.332   1.137  1.7189 -1.1677  1.3864
  695SOL     OW 2083   1.084   1.086   2.752  0.0103 -0.1551  0.3316
  695SOL    HW1 2084   1.087   1.157   2.825 -0.6218 -1.0828  2.4331
  695SOL    HW2 2085   1.096   1.124   2.658  0.6241 -0.2368 -2.3775
  696SOL     OW 2086   1.980   0.366   1.737 -0.3514 -0.2811  0.3623
  696SOL    HW1 2087   1.925   0.439   1.696  0.5894 -2.2881  3.5023
  696SOL    HW2 2088   2.034   0.312   1.670  0.0090  2.0518  1.3158
  697SOL     OW 2089   1.468   0.339   2.229 -0.0929  0.1058 -0.0658
  697SOL    HW1 2090   1.503   0.276   2.298  1.4512  1.7899  0.2234
  697SOL    HW2 2091   1.510   0.315   2.139 -1.8730 -0.6415 -2.3455
  698SOL     OW 2092   1.818   1.571   2.489  0.0942  0.0630  0.2968
  698SOL    HW1 2093   1.822   1.533   2.583  1.2673 -0.7638  0.2552
  698SOL    HW2 2094   1.824   1.501   2.417 -1.7534  3.0626 -0.1308
  699SOL     OW 2095   1.659   0.922   0.550  0.0203  0.0599  0.3190
  699SOL    HW1 2096   1.596   0.904   0.472 -1.3020  0.9338  0.1624
  699SOL    HW2 2097   1.707   0.838   0.579 -3.0043 -1.4580  0.6137
  700SOL     OW 2098   1.480   3.062   3.052  0.2708  0.3616  0.2163
  700SOL    HW1 2099   1.498   3.065   0.060 -0.0174 -0.2305  1.1780
  700SOL    HW2 2100   1.378   3.064   3.044  0.0666 -0.5596  0.4813
  701SOL     OW 2101   0.137   0.589   1.085 -0.1110  0.3535  0.5431
  701SOL    HW1 2102   0.086   0.622   1.001 -2.9127 -0.2836  0.5107
  701SOL    HW2 2103   0.080   0.594   1.167 -1.1035  0.8796 -0.6420
  702SOL     OW 2104   1.956   0.103   1.359 -0.0568  0.0007  0.2159
  702SOL    HW1 2105   1.871   0.151   1.350  1.7233  0.6376 -1.0251
  702SOL    HW2 2106   1.943   0.008   1.399  1.3889 -0.2933 -1.5593
  703SOL     OW 2107   2.881   0.455   1.403 -0.3298 -0.0787  0.0997
  703SOL    HW1 2108   2.820   0.412   1.470  1.1728  1.8836 -1.5367
  703SOL    HW2 2109   2.907   0.382   1.336 -1.1612  3.0670 -2.2740
  704SOL     OW 2110   1.032   2.341   1.138  0.3132  0.0972 -0.6140
  704SOL    HW1 2111   1.033   2.436   1.168 -0.4176 -0.7313  0.5181
  704SOL    HW2 2112   1.126   2.307   1.119 -1.9467 -0.1525 -1.9905
  705SOL     OW 2113   0.135   1.604   2.390  0.4816 -0.6572 -0.2365
  705SOL    HW1 2114   0.187   1.627   2.305  0.2979  2.5721  1.0664
  705SOL    HW2 2115   0.178   1.624   2.476  0.4390 -1.9672 -0.6124
  706SOL     OW 2116   2.525   0.353   2.672 -0.3250 -0.2207 -0.0802
  706SOL    HW1 2117   2.468   0.268   2.696  1.1220 -1.0368 -0.0265
  706SOL    HW2 2118   2.602   0.375   2.735 -2.5010 -0.9070  0.3760
  707SOL     OW 2119   1.763   2.620   2.258 -0.5427  0.0268 -0.4039
  707SOL    HW1 2120   1.838   2.654   2.196  2.6890  2.1699  0.3566
  707SOL    HW2 2121   1.671   2.653   2.235 -2.6329  0.5891  0.1211
  708SOL     OW 2122   0.381   2.342   1.568 -0.3781  0.4526 -0.5350
  708SOL    HW1 2123   0.284   2.329   1.534 -2.1701  2.3248  0.1271
  708SOL    HW2 2124   0.448   2.350   1.490 -3.1222  1.3825 -0.5192
  709SOL     OW 2125   2.867   0.741   1.534  0.7355 -0.7374  0.1799
  709SOL    HW1 2126   2.966   0.763   1.526  1.3536 -1.6250  1.2733
  709SOL    HW2 2127   2.843   0.650   1.504  0.0801 -1.3870 -0.9064
  710SOL     OW 2128   0.157   0.341   1.466  0.0335  0.5849  0.3722
  710SOL    HW1 2129   0.135   0.260   1.407 -0.6258  1.6220  2.0649
  710SOL    HW2 2130   0.104   0.422   1.435 -3.6992 -0.7407  0.4910
  711SOL     OW 2131   3.068   2.772   0.955  0.4389 -0.0464 -0.1882
  711SOL    HW1 2132   0.004   2.776   1.054 -1.2101  0.7711  0.3141
  711SOL    HW2 2133   0.002   2.679   0.917  0.0137 -0.9134 -0.9780
  712SOL     OW 2134   0.282   3.069   2.443  0.6157  0.6119  0.2578
  712SOL    HW1 2135   0.332   0.009   2.358 -1.2815  0.5796 -0.1345
  712SOL    HW2 2136   0.328   3.001   2.502  1.1076  0.8849 -1.1185
  713SOL     OW 2137   2.378   0.218   0.266 -0.7670 -0.3007  0.2061
  713SOL    HW1 2138   2.311   0.290   0.294 -0.6625  0.3217  0.6943
  713SOL    HW2 2139   2.399   0.215   0.164 -0.4940  0.3270 -1.0385
  714SOL     OW 2140   1.541   1.432   0.077 -0.4046 -0.2534 -0.0267
  714SOL    HW1 2141   1.566   1.529   0.080 -0.4895 -0.3661 -1.1184
  714SOL    HW2 2142   1.606   1.376   0.135  1.4229 -2.9347  1.9961
  715SOL     OW 2143   0.254   0.395   0.581 -0.0593 -0.0019  0.0018
  715SOL    HW1 2144   0.243   0.402   0.477 -0.8574  2.2199 -3.6421
  715SOL    HW2 2145   0.281   0.305   0.620  1.6667  0.8937  1.4189
  716SOL     OW 2146   1.067   0.293   1.910 -0.6406 -0.4426  0.0521
  716SOL    HW1 2147   1.134   0.338   1.974  2.4412 -0.2677  1.2042
  716SOL    HW2 2148   0.972   0.326   1.935  0.7512  1.3976 -0.1437
  717SOL     OW 2149   0.300   0.242   2.915  0.4963  0.3187 -0.1194
  717SOL    HW1 2150   0.354   0.231   2.828  0.0224 -2.7405 -0.3945
  717SOL    HW2 2151   0.202   0.236   2.893  3.0275  2.9101 -0.3361
  718SOL     OW 2152   1.245   0.505   0.267  0.3748 -0.0846 -0.3854
  718SOL    HW1 2153   1.187   0.578   0.229  2.2333 -1.2321 -0.8896
  718SOL    HW2 2154   1.340   0.526   0.247 -2.4072  0.8888  1.0898
  719SOL     OW 2155   2.392   2.228   2.758  0.4160 -0.4885  0.2632
  719SOL    HW1 2156   2.490   2.261   2.738  3.1082 -0.6092  0.3885
  719SOL    HW2 2157   2.386   2.128   2.778 -3.4573  0.9073  2.6740
  720SOL     OW 2158   1.152   1.076   1.374 -0.3322 -0.1024  0.1533
  720SOL    HW1 2159   1.172   1.162   1.420  0.5927 -0.8762 -2.2386
  720SOL    HW2 2160   1.157   0.995   1.439 -0.8000  1.9549  0.9362
  721SOL     OW 2161   0.108   2.778   1.205  0.2356  0.2180  0.3816
  721SOL    HW1 2162   0.125   2.688   1.255  1.8154  3.3618  1.1089
  721SOL    HW2 2163   0.195   2.829   1.187  0.5244 -2.8288  0.5077
  722SOL     OW 2164   0.703   1.766   2.808 -0.1165 -0.2407 -0.0441
  722SOL    HW1 2165   0.679   1.667   2.833 -2.2514 -2.6669  1.8309
  722SOL    HW2 2166   0.713   1.826   2.892 -0.2263  1.2900  2.1610
  723SOL     OW 2167   2.067   0.295   0.543  0.2734  0.2654  0.3635
  723SOL    HW1 2168   2.066   0.195   0.547  1.2505  0.5691  0.2514
  723SOL    HW2 2169   2.076   0.331   0.635 -0.3492  0.0097 -2.3415
  724SOL     OW 2170   0.838   2.223   2.901 -0.5899  0.0772 -0.4210
  724SOL    HW1 2171   0.884   2.146   2.954  2.9763 -0.7016 -1.3480
  724SOL    HW2 2172   0.785   2.281   2.964  0.1372 -0.0966 -0.1776
  725SOL     OW 2173   0.027   1.118   0.980 -0.8311  0.2711  0.2722
  725SOL    HW1 2174   3.042   1.055   0.956  0.9244 -3.6175  1.8451
  725SOL    HW2 2175   0.112   1.096   0.930 -2.1988  3.1179  0.7020
  726SOL     OW 2176   2.506   0.542   0.642  0.1512 -0.2231  0.3664
  726SOL    HW1 2177   2.564   0.631   0.632  1.2434  2.7550  2.2460
  726SOL    HW2 2178   2.471   0.507   0.551 -0.0963  0.2146 -1.2959
  727SOL     OW 2179   2.080   0.956   2.392 -0.0498  0.1945  0.2269
  727SOL    HW1 2180   2.108   1.043   2.440 -1.5910 -0.5228 -1.6923
  727SOL    HW2 2181   2.052   0.887   2.467 -0.5984 -2.8398  1.2540
  728SOL     OW 2182   1.917   2.924   1.436  0.2446 -0.8082 -0.3467
  728SOL    HW1 2183   1.977   2.893   1.516  0.5892  0.2360  2.8300
  728SOL    HW2 2184   1.834   2.870   1.442  1.1399  1.9065 -0.6028
  729SOL     OW 2185   2.448   0.601   2.303 -0.0056  0.3406  0.2893
  729SOL    HW1 2186   2.533   0.548   2.274 -0.9977 -0.6642  1.7905
  729SOL    HW2 2187   2.449   0.702   2.290 -2.8883  0.2832  0.2864
  730SOL     OW 2188   0.972   0.726   1.405 -0.2234 -0.3078  0.4499
  730SOL    HW1 2189   0.984   0.621   1.392  1.4555 -2.7643  0.6336
  730SOL    HW2 2190   1.060   0.769   1.432 -0.1906  1.0548  0.1774
  731SOL     OW 2191   0.285   0.207   0.267  0.1640 -0.1037 -0.6258
  731SOL    HW1 2192   0.373   0.236   0.308 -1.4755 -2.1208  0.1341
  731SOL    HW2 2193   0.304   0.156   0.182  0.6301 -2.0613 -0.8150
  732SOL     OW 2194   0.575   0.413   0.528  0.2190 -0.1997 -0.3224
  732SOL    HW1 2195   0.620   0.392   0.614 -0.3985  2.6136 -0.4142
  732SOL    HW2 2196   0.566   0.516   0.520 -0.0061 -0.0896  0.5929
  733SOL     OW 2197   1.620   1.357   2.669 -0.1473 -0.2197 -0.2116
  733SOL    HW1 2198   1.607   1.257   2.669  3.4817  0.3393  1.3825
  733SOL    HW2 2199   1.589   1.401   2.755 -0.1865 -0.8920 -4.0982
  734SOL     OW 2200   3.018   1.854   2.442  0.0383  0.0332 -0.0627
  734SOL    HW1 2201   3.037   1.756   2.406  0.4436 -0.9492 -1.2075
  734SOL    HW2 2202   3.090   1.883   2.506 -1.6471 -0.3846  1.7423
  735SOL     OW 2203   1.925   0.592   1.211 -0.4034 -0.4661  0.2021
  735SOL    HW1 2204   2.018   0.562   1.200 -4.7965  1.1366 -0.0893
  735SOL    HW2 2205   1.876   0.517   1.263 -1.0234  0.8416 -0.2206
  736SOL     OW 2206   1.045   1.295   3.003  1.0374 -0.4671 -0.4353
  736SOL    HW1 2207   0.975   1.301   3.076 -0.2380 -0.7886 -0.4334
  736SOL    HW2 2208   1.132   1.306   3.056 -1.4696  3.2804  2.6021
  737SOL     OW 2209   2.982   0.288   0.409  0.0374  0.2245 -0.0875
  737SOL    HW1 2210   3.067   0.335   0.382 -1.3744  1.2878 -2.9563
  737SOL    HW2 2211   2.998   0.232   0.491  0.4850  2.7715 -0.3175
  738SOL     OW 2212   0.633   2.403   1.693  0.1976 -0.1437  0.0777
  738SOL    HW1 2213   0.578   2.390   1.603 -1.2648 -0.6042 -2.3343
  738SOL    HW2 2214   0.665   2.308   1.720  0.1239 -0.8040 -0.7944
  739SOL     OW 2215   1.282   3.024   2.372  0.2536  0.3471  0.6323
  739SOL    HW1 2216   1.349   2.997   2.299 -1.2532  1.2579  0.2585
  739SOL    HW2 2217   1.199   2.976   2.357  2.5262  3.0254  0.9489
  740SOL     OW 2218   1.956   2.571   1.676  0.0975  0.2400  0.0985
  740SOL    HW1 2219   1.854   2.562   1.675 -0.7664 -0.1082 -0.9736
  740SOL    HW2 2220   1.996   2.515   1.757  2.8770  0.4080  4.1293
  741SOL     OW 2221   2.332   0.637   0.409  0.1654  0.3507  0.1555
  741SOL    HW1 2222   2.418   0.695   0.393 -0.6444 -0.0352 -1.7076
  741SOL    HW2 2223   2.271   0.686   0.473  2.7335  0.6157 -1.5967
  742SOL     OW 2224   1.274   2.657   2.832  0.0722  0.0191 -0.1965
  742SOL    HW1 2225   1.280   2.573   2.773 -0.4419 -1.0392  1.1140
  742SOL    HW2 2226   1.365   2.697   2.838 -0.4050  1.1270 -0.5726
  743SOL     OW 2227   2.426   0.820   1.629  0.2638  0.3782  0.0868
  743SOL    HW1 2228   2.451   0.844   1.724 -0.1105 -0.5428 -0.0253
  743SOL    HW2 2229   2.508   0.831   1.569 -0.9943 -0.7120  3.5495
  744SOL     OW 2230   2.495   0.400   0.911 -0.1492 -0.0076 -0.2728
  744SOL    HW1 2231   2.540   0.395   0.825 -3.0495 -1.0078  3.4995
  744SOL    HW2 2232   2.427   0.480   0.917 -1.6096  1.8338  1.9332
  745SOL     OW 2233   2.497   1.084   1.829 -0.5669  0.3058 -0.4313
  745SOL    HW1 2234   2.494   1.175   1.779 -0.4143 -1.1490 -0.8977
  745SOL    HW2 2235   2.585   1.078   1.883 -1.6366  2.7346 -2.0348
  746SOL     OW 2236   1.330   1.721   0.757 -0.4285 -0.4256 -0.1637
  746SOL    HW1 2237   1.350   1.793   0.828 -0.8393  0.1407 -2.8723
  746SOL    HW2 2238   1.262   1.660   0.801  3.1653 -0.9402  0.2823
  747SOL     OW 2239   1.515   1.724   1.646  0.2242 -0.4511  0.0851
  747SOL    HW1 2240   1.441   1.769   1.698  1.2651 -1.2933  0.6266
  747SOL    HW2 2241   1.514   1.746   1.549 -0.2995  3.3499 -1.4718
  748SOL     OW 2242   0.273   2.803   3.075  0.2763 -0.3848  0.4225
  748SOL    HW1 2243   0.336   2.853   0.045 -0.6670  0.7393  3.9195
  748SOL    HW2 2244   0.233   2.717   0.019  0.1487 -1.5254 -0.2622
  749SOL     OW 2245   0.214   1.241   2.514  0.5707 -0.3869  0.2271
  749SOL    HW1 2246   0.248   1.202   2.427  1.8235  0.4181  0.4872
  749SOL    HW2 2247   0.284   1.234   2.583 -2.6703 -1.4687  1.3996
  750SOL     OW 2248   1.686   0.614   1.976  0.5138 -0.0600 -0.4179
  750SOL    HW1 2249   1.728   0.532   2.023  0.7660 -0.3018  2.2534
  750SOL    HW2 2250   1.705   0.702   2.015 -2.2508 -1.8612  1.3519
  751SOL     OW 2251   2.544   0.799   0.393 -0.4268 -0.7649  0.0361
  751SOL    HW1 2252   2.588   0.732   0.328  1.3026 -3.5481 -0.9729
  751SOL    HW2 2253   2.575   0.794   0.489  1.7805  0.2555 -1.6934
  752SOL     OW 2254   0.061   2.069   0.773 -0.7394 -0.0160 -0.5580
  752SOL    HW1 2255   3.078   2.002   0.784  3.1322 -0.3723  0.7562
  752SOL    HW2 2256   0.126   2.034   0.838 -1.4445  0.9527 -0.5847
  753SOL     OW 2257   1.283   2.504   0.955 -0.5973 -0.4046 -0.0290
  753SOL    HW1 2258   1.285   2.417   1.008 -2.2818  1.9173  2.2662
  753SOL    HW2 2259   1.192   2.522   0.920  0.6689 -1.3299  0.8162
  754SOL     OW 2260   0.299   3.093   1.732  0.3883 -0.2993  0.6168
  754SOL    HW1 2261   0.303   0.047   1.820  0.3808 -1.0582 -2.2814
  754SOL    HW2 2262   0.211   0.013   1.681 -2.2870  0.3586  0.1576
  755SOL     OW 2263   2.109   0.766   0.553 -0.0051  0.5854 -0.8858
  755SOL    HW1 2264   2.041   0.699   0.528  2.6257  5.1019  0.8042
  755SOL    HW2 2265   2.120   0.776   0.656  1.2604 -0.1668  2.1453
  756SOL     OW 2266   2.196   2.184   2.550 -0.0621  0.0681  0.4801
  756SOL    HW1 2267   2.220   2.218   2.638 -3.9880 -3.0951 -0.1750
  756SOL    HW2 2268   2.151   2.254   2.494  1.3304 -0.9751 -0.5986
  757SOL     OW 2269   1.942   0.546   0.436  0.0805  0.2052  1.4061
  757SOL    HW1 2270   1.920   0.537   0.335 -0.4999  0.0093 -1.3659
  757SOL    HW2 2271   1.980   0.460   0.469 -4.1066  0.4462  0.3236
  758SOL     OW 2272   2.199   0.518   1.150  0.1073 -0.2992 -0.6852
  758SOL    HW1 2273   2.251   0.556   1.230  1.3115  2.0325 -1.3970
  758SOL    HW2 2274   2.262   0.513   1.073  0.6981  2.6327  1.4289
  759SOL     OW 2275   2.608   0.539   1.123  0.1688  0.8294 -0.2536
  759SOL    HW1 2276   2.542   0.494   1.183  1.7531 -0.7526 -2.8185
  759SOL    HW2 2277   2.581   0.499   1.032 -2.0785  1.1054 -2.3033
  760SOL     OW 2278   2.385   1.427   1.161  0.5768  0.0935 -0.0634
  760SOL    HW1 2279   2.284   1.446   1.172 -2.5549 -1.1254 -0.2430
  760SOL    HW2 2280   2.421   1.358   1.232  0.4314 -0.6771 -1.6259
  761SOL     OW 2281   0.521   0.189   0.388 -0.5354  0.3507 -0.4377
  761SOL    HW1 2282   0.542   0.271   0.443  1.0166 -0.3086 -0.4011
  761SOL    HW2 2283   0.462   0.126   0.443 -1.8458  1.3341 -0.9105
  762SOL     OW 2284   0.986   1.968   1.198 -0.1368  0.5950  0.4608
  762SOL    HW1 2285   0.972   1.915   1.110 -0.0446 -0.8935 -0.0867
  762SOL    HW2 2286   0.949   1.910   1.273  1.5812 -1.3743  1.8934
  763SOL     OW 2287   1.491   1.211   1.665 -0.1808  0.1196  0.5148
  763SOL    HW1 2288   1.450   1.163   1.744  0.1334 -0.6572 -4.2164
  763SOL    HW2 2289   1.524   1.146   1.593 -0.5869 -1.2929  0.7621
  764SOL     OW 2290   0.391   1.569   2.603  0.1583  0.0111  0.0438
  764SOL    HW1 2291   0.306   1.532   2.648 -0.7005 -1.9377  2.1352
  764SOL    HW2 2292   0.424   1.645   2.658 -0.9066  0.9371 -0.5281
  765SOL     OW 2293   1.062   2.578   1.279 -0.2644 -0.5271  0.4752
  765SOL    HW1 2294   1.017   2.610   1.358  3.2562 -1.2729 -4.5831
  765SOL    HW2 2295   1.147   2.630   1.263 -1.5422 -0.4002  2.8470
  766SOL     OW 2296   2.644   2.288   2.695 -0.4331  0.0717 -0.3157
  766SOL    HW1 2297   2.664   2.374   2.748  1.8004 -0.6396  0.2418
  766SOL    HW2 2298   2.623   2.307   2.598 -0.0489 -0.1316  1.2159
  767SOL     OW 2299   0.859   1.507   2.546  0.5336  0.3103  0.1453
  767SOL    HW1 2300   0.883   1.505   2.645  0.0105 -0.2301 -0.0913
  767SOL    HW2 2301   0.787   1.434   2.537 -0.9080 -4.4625  3.4264
  768SOL     OW 2302   1.153   1.807   0.068  0.1717 -0.3415 -0.3782
  768SOL    HW1 2303   1.175   1.766   3.067  1.0683 -2.0846 -0.4239
  768SOL    HW2 2304   1.234   1.779   0.124  0.4221 -1.7668 -1.4614
  769SOL     OW 2305   0.349   2.224   1.268 -0.1779 -0.0817  0.3368
  769SOL    HW1 2306   0.309   2.271   1.186 -0.8426 -1.3178 -0.8609
  769SOL    HW2 2307   0.276   2.181   1.322  0.9561  0.6691 -1.7108
  770SOL     OW 2308   1.050   1.114   2.473 -0.0262  0.1490 -0.8917
  770SOL    HW1 2309   0.989   1.176   2.418 -0.6357  0.6914  1.7995
  770SOL    HW2 2310   1.142   1.105   2.431  2.0500  1.7328 -1.2007
  771SOL     OW 2311   3.031   2.845   2.188 -0.4084  0.1716 -0.1122
  771SOL    HW1 2312   0.027   2.830   2.235 -1.2108 -2.2119  1.9245
  771SOL    HW2 2313   2.992   2.751   2.171  1.4481  0.5587  0.8046
  772SOL     OW 2314   2.355   2.237   1.794  0.2900 -0.7173  0.5512
  772SOL    HW1 2315   2.422   2.305   1.832  0.5982 -0.5720  2.6103
  772SOL    HW2 2316   2.331   2.248   1.694 -1.0066 -0.5384 -0.8209
  773SOL     OW 2317   0.619   1.911   1.652  0.3588  0.5622 -0.1720
  773SOL    HW1 2318   0.519   1.911   1.620 -2.2150  0.1346 -1.5666
  773SOL    HW2 2319   0.644   2.000   1.691  0.8699  0.2739  0.3472
  774SOL     OW 2320   1.445   0.643   2.124  0.4746  0.0992 -0.8294
  774SOL    HW1 2321   1.439   0.613   2.027 -1.7589 -1.2262 -0.2981
  774SOL    HW2 2322   1.468   0.557   2.180 -1.2393 -2.5654  2.3459
  775SOL     OW 2323   2.015   2.733   2.936  0.2175 -0.3797 -0.6598
  775SOL    HW1 2324   1.991   2.831   2.956  0.1192 -1.9383  1.6920
  775SOL    HW2 2325   2.072   2.718   2.852  2.9142 -0.1248 -0.4205
  776SOL     OW 2326   0.059   0.366   2.055  0.3789  0.7386  0.0026
  776SOL    HW1 2327   0.025   0.442   2.005  4.6146 -1.9981  4.6573
  776SOL    HW2 2328   0.139   0.324   2.000  4.4797 -0.6265 -1.8892
  777SOL     OW 2329   2.538   2.019   1.764  0.2490  0.4340  0.0627
  777SOL    HW1 2330   2.523   1.971   1.853 -0.9754  1.2079  3.3196
  777SOL    HW2 2331   2.459   2.082   1.741 -1.0355  1.7150 -0.8132
  778SOL     OW 2332   1.988   0.832   2.153 -0.3188  0.2531  0.0253
  778SOL    HW1 2333   2.023   0.875   2.236 -3.1451 -0.6955 -3.5951
  778SOL    HW2 2334   1.883   0.824   2.158  0.7327 -0.9336 -0.9768
  779SOL     OW 2335   2.313   1.019   0.618 -0.3601 -0.1084 -0.5088
  779SOL    HW1 2336   2.221   0.981   0.638  0.6854  0.7158  0.9935
  779SOL    HW2 2337   2.326   1.038   0.522  0.2741  1.7187 -1.4206
  780SOL     OW 2338   2.339   0.226   3.038  0.2801  0.3386 -0.2416
  780SOL    HW1 2339   2.237   0.248   3.027 -0.3296  2.7345 -0.3602
  780SOL    HW2 2340   2.371   0.193   2.945  0.1546 -0.0096  0.0711
  781SOL     OW 2341   0.186   2.043   1.417 -0.0496  0.2766 -0.0086
  781SOL    HW1 2342   0.112   1.976   1.446 -0.1936 -1.1268 -0.0559
  781SOL    HW2 2343   0.271   2.016   1.466 -2.4238  0.8936 -3.1510
  782SOL     OW 2344   2.420   2.568   2.868  0.0079  0.2358 -0.1194
  782SOL    HW1 2345   2.516   2.590   2.829  1.7018 -1.0884 -3.6690
  782SOL    HW2 2346   2.422   2.482   2.926  0.0462 -0.9958 -1.7022
  783SOL     OW 2347   0.516   1.714   1.364 -0.4391 -0.2378  0.0977
  783SOL    HW1 2348   0.544   1.631   1.414 -1.2170  0.6085 -0.6928
  783SOL    HW2 2349   0.584   1.748   1.294  1.9900  2.9597  2.3797
  784SOL     OW 2350   1.509   0.657   3.033  0.1794  0.4733  1.0513
  784SOL    HW1 2351   1.589   0.652   2.972  1.3592 -1.5548  0.4729
  784SOL    HW2 2352   1.522   0.591   0.015  1.7634 -1.8379 -0.7906
  785SOL     OW 2353   2.531   3.071   0.836  0.1835  0.5898 -0.6360
  785SOL    HW1 2354   2.501   2.979   0.870 -2.9658 -1.1569 -0.1323
  785SOL    HW2 2355   2.491   0.046   0.903  0.5891  1.2628 -3.6786
  786SOL     OW 2356   0.885   2.128   1.996 -0.2832 -0.0306  0.0894
  786SOL    HW1 2357   0.958   2.065   2.022 -0.5582  1.3360  3.0523
  786SOL    HW2 2358   0.845   2.162   2.086 -2.0418  0.3367  3.0041
  787SOL     OW 2359   1.308   0.896   1.198  0.2648  0.1412  0.2510
  787SOL    HW1 2360   1.245   0.956   1.250  2.3696 -0.0433  1.3705
  787SOL    HW2 2361   1.405   0.931   1.188  0.5610 -2.0297 -1.2927
  788SOL     OW 2362   0.035   0.614   0.486  0.5398 -0.5038  0.2441
  788SOL    HW1 2363   0.099   0.609   0.566  1.7225 -0.2361 -0.7497
  788SOL    HW2 2364   0.056   0.538   0.415 -0.9091  0.7697 -2.4771
  789SOL     OW 2365   0.058   1.974   1.158  0.0705 -0.0534  0.1724
  789SOL    HW1 2366   0.096   2.019   1.076 -1.3031  0.8559 -1.7248
  789SOL    HW2 2367   0.090   2.020   1.242  1.0554  2.7706 -1.0679
  790SOL     OW 2368   0.861   0.677   2.322  0.7740 -0.0307  0.1335
  790SOL    HW1 2369   0.804   0.715   2.247 -0.8750 -1.5050  1.4264
  790SOL    HW2 2370   0.913   0.749   2.375  0.3474  2.9073  3.0911
  791SOL     OW 2371   1.447   0.588   0.597  0.4115  0.0068  0.4601
  791SOL    HW1 2372   1.541   0.606   0.563 -1.4255 -1.4874 -1.0239
  791SOL    HW2 2373   1.405   0.500   0.560 -0.4106 -0.4334 -3.4292
  792SOL     OW 2374   1.467   2.881   1.787  0.3556 -0.3538 -0.0171
  792SOL    HW1 2375   1.385   2.937   1.811  2.1471  1.5620 -1.7970
  792SOL    HW2 2376   1.444   2.804   1.730  0.4088  0.7900 -0.6047
  793SOL     OW 2377   1.308   0.652   0.817 -0.6038  0.1169 -0.6085
  793SOL    HW1 2378   1.345   0.633   0.725 -0.6922  1.1724 -0.0161
  793SOL    HW2 2379   1.344   0.581   0.881 -0.8234 -1.5397  1.1541
  794SOL     OW 2380   0.538   0.929   1.985  0.1539  0.1093  0.2297
  794SOL    HW1 2381   0.454   0.970   2.018  1.5813 -0.2754  1.3858
  794SOL    HW2 2382   0.604   1.000   1.951  0.0820 -1.2265  1.5500
  795SOL     OW 2383   0.314   2.036   2.382 -0.6142  0.2651 -0.0471
  795SOL    HW1 2384   0.318   2.131   2.420  0.9448 -0.4395  1.6535
  795SOL    HW2 2385   0.401   1.988   2.394 -1.4876  3.0329 -2.4948
  796SOL     OW 2386   2.644   0.780   1.977  0.3499 -0.0964  0.2454
  796SOL    HW1 2387   2.591   0.787   2.063  1.0015 -1.2835  0.7432
  796SOL    HW2 2388   2.681   0.870   1.946  0.0610  2.4235 -1.6486
  797SOL     OW 2389   2.971   2.436   0.058  0.4369  0.2034 -0.3660
  797SOL    HW1 2390   2.926   2.527   0.081  0.3274 -1.1985 -3.2127
  797SOL    HW2 2391   2.934   2.361   0.120  0.5879  1.2581  0.0096
  798SOL     OW 2392   0.016   2.216   2.047 -0.0521 -0.4855 -0.4307
  798SOL    HW1 2393   0.091   2.270   2.013 -2.5003 -1.0151  0.1876
  798SOL    HW2 2394   0.050   2.147   2.111  0.9772 -0.9584 -0.3806
  799SOL     OW 2395   0.409   2.228   2.867 -0.2788  0.4716 -0.2819
  799SOL    HW1 2396   0.497   2.225   2.919  1.0965 -0.9869 -1.3990
  799SOL    HW2 2397   0.325   2.254   2.922  2.5917  0.0372  2.1433
  800SOL     OW 2398   0.722   1.936   3.053  0.5817 -0.0048  0.1548
  800SOL    HW1 2399   0.642   1.958   0.018 -1.2839 -0.7551 -0.8481
  800SOL    HW2 2400   0.797   1.897   0.013 -0.1692  0.0028 -1.5355
  801SOL     OW 2401   1.787   1.421   1.470 -0.5096 -0.5500 -0.2216
  801SOL    HW1 2402   1.878   1.377   1.476 -0.8394 -1.5298  1.5327
  801SOL    HW2 2403   1.740   1.407   1.560  1.1903  1.3320 -0.4368
  802SOL     OW 2404   2.739   1.235   0.406  0.1586  0.0290 -0.5305
  802SOL    HW1 2405   2.741   1.233   0.506  0.1814 -1.9312 -3.1324
  802SOL    HW2 2406   2.765   1.140   0.373 -2.5817 -0.1440 -2.5754
  803SOL     OW 2407   0.876   1.915   2.662  0.0846 -0.3425  0.5195
  803SOL    HW1 2408   0.816   1.844   2.699 -1.7583 -0.6343  0.9943
  803SOL    HW2 2409   0.944   1.945   2.739  1.7287  1.9736  3.7315
  804SOL     OW 2410   1.645   1.272   0.279  0.2480  0.2592 -0.4217
  804SOL    HW1 2411   1.559   1.228   0.308 -0.6212 -1.7290 -4.8891
  804SOL    HW2 2412   1.681   1.326   0.357  0.0338 -1.9824 -0.9966
  805SOL     OW 2413   2.404   1.537   2.615 -0.0814 -0.5531 -0.6139
  805SOL    HW1 2414   2.315   1.549   2.666 -1.3558  0.9364  1.9981
  805SOL    HW2 2415   2.482   1.588   2.662  2.1777  3.5346  1.2057
  806SOL     OW 2416   0.406   2.853   0.444  0.5657  0.2427 -0.4387
  806SOL    HW1 2417   0.390   2.946   0.472  1.1138 -0.3719 -1.0098
  806SOL    HW2 2418   0.428   2.788   0.524  0.6063 -0.1581  1.7989
  807SOL     OW 2419   1.844   1.519   2.762  0.2151 -0.1281 -0.0161
  807SOL    HW1 2420   1.846   1.608   2.812  0.0122 -0.2848 -0.7718
  807SOL    HW2 2421   1.776   1.461   2.805  0.6071 -1.0305 -1.7655
  808SOL     OW 2422   0.413   1.479   0.754  0.1858 -0.4300 -0.1323
  808SOL    HW1 2423   0.501   1.525   0.746 -0.9676  0.0626  0.9563
  808SOL    HW2 2424   0.334   1.547   0.749  0.7994  0.1815  0.7878
  809SOL     OW 2425   2.372   1.010   0.346  0.3960 -0.8219 -0.0895
  809SOL    HW1 2426   2.396   1.056   0.261  1.5022 -1.7560  0.4393
  809SOL    HW2 2427   2.419   0.922   0.354 -5.1487 -1.4064  0.6036
  810SOL     OW 2428   0.817   1.060   0.298  0.1406 -0.7454  0.0081
  810SOL    HW1 2429   0.763   1.088   0.215 -0.2427  0.0117  1.3980
  810SOL    HW2 2430   0.800   1.131   0.369 -0.0123  1.0739 -0.7442
  811SOL     OW 2431   1.450   2.519   1.351 -0.3341 -0.1493 -0.1444
  811SOL    HW1 2432   1.443   2.566   1.260  0.1479 -0.6646  1.7095
  811SOL    HW2 2433   1.512   2.439   1.337  0.6209  0.0779 -1.2101
  812SOL     OW 2434   1.166   2.736   1.782 -0.0350 -0.0998 -0.1923
  812SOL    HW1 2435   1.178   2.838   1.766  0.8091  0.9291 -1.3999
  812SOL    HW2 2436   1.103   2.723   1.862 -2.4030 -0.1358  1.1968
  813SOL     OW 2437   1.268   0.274   1.723  0.4413  0.1677  0.2049
  813SOL    HW1 2438   1.189   0.280   1.785  0.1409  0.7572 -0.4574
  813SOL    HW2 2439   1.251   0.194   1.664  0.3974 -0.8332 -2.5393
  814SOL     OW 2440   1.213   2.510   2.586 -0.1161  0.1492 -0.0337
  814SOL    HW1 2441   1.171   2.518   2.492 -1.5817 -1.0080  2.5219
  814SOL    HW2 2442   1.173   2.424   2.627 -1.2111  1.2401  3.0082
  815SOL     OW 2443   0.549   0.303   2.337  0.0345 -0.0776  0.3505
  815SOL    HW1 2444   0.466   0.282   2.393 -1.0586 -1.1028  1.5756
  815SOL    HW2 2445   0.600   0.379   2.386  2.2503  0.0258 -0.5173
  816SOL     OW 2446   2.078   0.288   2.991  0.0168 -0.1097 -0.1481
  816SOL    HW1 2447   2.044   0.375   2.955 -1.0925 -0.2677 -1.3445
  816SOL    HW2 2448   2.028   0.216   2.939 -1.1508  0.4237  1.4540
  817SOL     OW 2449   2.194   0.203   2.359 -0.4467 -0.9760  0.5296
  817SOL    HW1 2450   2.260   0.142   2.308 -1.5279  2.5658 -0.3684
  817SOL    HW2 2451   2.250   0.265   2.422  3.7091  2.5549  2.7996
  818SOL     OW 2452   1.737   0.332   0.183 -0.1330 -0.3517 -0.5557
  818SOL    HW1 2453   1.798   0.409   0.158 -0.8551  0.7349 -0.4054
  818SOL    HW2 2454   1.779   0.268   0.248 -1.1723  4.4938  0.1512
  819SOL     OW 2455   2.129   1.567   2.739  0.3335  0.2042  0.0811
  819SOL    HW1 2456   2.027   1.542   2.743  4.5575 -1.3961 -0.1077
  819SOL    HW2 2457   2.160   1.620   2.817 -1.5739 -0.6853 -2.5637
  820SOL     OW 2458   0.037   1.794   0.022 -0.0184 -0.2253 -0.0894
  820SOL    HW1 2459   0.012   1.891   0.015  0.7187 -1.8937  2.1782
  820SOL    HW2 2460   0.137   1.782   0.005 -1.9234 -2.0160 -1.6097
  821SOL     OW 2461   0.344   3.035   0.972 -0.1931 -0.2125  0.3088
  821SOL    HW1 2462   0.439   3.058   0.950  1.9852  1.3954  2.3232
  821SOL    HW2 2463   0.290   3.001   0.893  1.4798  1.1176  1.3206
  822SOL     OW 2464   2.879   2.652   0.208 -0.0139 -0.0279  0.5469
  822SOL    HW1 2465   2.807   2.675   0.272  0.0761 -1.5730  0.2071
  822SOL    HW2 2466   2.942   2.729   0.189 -0.5329 -0.9690  2.5695
  823SOL     OW 2467   1.277   0.557   2.750  0.3886  0.3033  0.0589
  823SOL    HW1 2468   1.254   0.469   2.698 -0.0601 -1.0154 -1.8435
  823SOL    HW2 2469   1.354   0.602   2.703 -2.0358 -1.4293  0.3560
  824SOL     OW 2470   2.778   2.041   1.864 -0.2370  0.2522  0.0091
  824SOL    HW1 2471   2.697   2.053   1.807 -0.4978 -3.1639  1.8305
  824SOL    HW2 2472   2.806   2.135   1.899  0.2778  1.5592  0.9502
  825SOL     OW 2473   2.991   2.182   2.715 -0.1784 -0.6002 -0.0719
  825SOL    HW1 2474   2.901   2.136   2.714  0.8124 -0.3175  2.5546
  825SOL    HW2 2475   3.025   2.199   2.624 -1.1895  1.4925  2.3042
  826SOL     OW 2476   2.426   1.213   2.373 -0.0395 -0.3268 -0.2882
  826SOL    HW1 2477   2.406   1.124   2.332  2.0517  2.3768  1.3556
  826SOL    HW2 2478   2.356   1.283   2.346 -1.5904 -1.3365  0.5982
  827SOL     OW 2479   2.271   2.329   1.247  0.4007  0.4430  0.3427
  827SOL    HW1 2480   2.227   2.237   1.231  0.4645 -1.6454 -0.1749
  827SOL    HW2 2481   2.196   2.397   1.273 -0.7985 -0.0207 -0.0290
  828SOL     OW 2482   0.339   0.005   1.411 -0.2865 -0.2870 -0.3331
  828SOL    HW1 2483   0.261   0.064   1.442  0.3050  1.9049  1.3202
  828SOL    HW2 2484   0.427   0.048   1.432 -0.0456  1.0978 -3.9667
  829SOL     OW 2485   1.429   2.592   2.463  0.3628  0.5890 -0.6464
  829SOL    HW1 2486   1.510   2.540   2.489 -2.7610 -2.7376  0.7017
  829SOL    HW2 2487   1.342   2.554   2.508  0.8986  0.3690 -2.1215
  830SOL     OW 2488   0.926   0.419   0.552 -0.8439 -0.0768 -0.0607
  830SOL    HW1 2489   0.831   0.452   0.555  1.7833  0.1767 -1.5561
  830SOL    HW2 2490   0.965   0.452   0.640  0.1074 -0.2328 -1.1180
  831SOL     OW 2491   2.777   1.388   2.899 -0.4665  0.0412  0.0927
  831SOL    HW1 2492   2.848   1.432   2.960 -0.4447 -1.2247  1.7970
  831SOL    HW2 2493   2.806   1.304   2.849 -0.0590  1.6592  0.2346
  832SOL     OW 2494   1.700   1.934   2.218  0.3116  0.1163  0.2360
  832SOL    HW1 2495   1.623   1.999   2.245  1.2269  1.7901 -0.9987
  832SOL    HW2 2496   1.788   1.987   2.218  0.4896 -0.3059 -1.1524
  833SOL     OW 2497   0.854   0.409   2.119  0.5201 -0.1894 -0.7603
  833SOL    HW1 2498   0.908   0.420   2.207  1.2834  1.5111  0.0943
  833SOL    HW2 2499   0.787   0.330   2.120  0.1354 -0.6470 -3.1507
  834SOL     OW 2500   0.497   1.205   1.641 -0.1944  0.5442 -0.2667
  834SOL    HW1 2501   0.551   1.253   1.572 -2.2805 -0.6419  0.0930
  834SOL    HW2 2502   0.444   1.130   1.598 -0.3858 -0.6901  0.9222
  835SOL     OW 2503   2.598   0.923   3.001 -0.3586 -0.0430  0.2453
  835SOL    HW1 2504   2.510   0.918   3.046  1.1513 -2.4415  0.2006
  835SOL    HW2 2505   2.606   1.004   2.934 -0.0784  1.6902 -2.7644
  836SOL     OW 2506   0.901   1.844   0.135  0.3362 -0.4018 -0.1483
  836SOL    HW1 2507   0.877   1.921   0.200 -2.7608 -0.6220  2.2334
  836SOL    HW2 2508   1.001   1.823   0.118  0.1267 -1.5325 -1.5864
  837SOL     OW 2509   1.640   1.770   0.943  0.1343  0.3829 -0.2215
  837SOL    HW1 2510   1.688   1.765   0.859 -0.8044 -1.6174  0.8307
  837SOL    HW2 2511   1.557   1.827   0.942 -0.4609 -1.4133 -2.0136
  838SOL     OW 2512   1.079   1.125   2.102 -0.4198  0.2136 -0.3274
  838SOL    HW1 2513   0.990   1.100   2.141  2.1525 -0.3373 -1.5443
  838SOL    HW2 2514   1.074   1.203   2.035 -0.6148 -0.4757  1.0972
  839SOL     OW 2515   0.733   2.078   2.508 -0.1608 -0.0048 -0.2153
  839SOL    HW1 2516   0.807   2.028   2.563 -0.0832 -1.7930  3.1697
  839SOL    HW2 2517   0.755   2.173   2.524 -0.1223 -0.3572  1.2587
  840SOL     OW 2518   0.706   2.253   0.314 -0.5846 -0.8457 -0.0202
  840SOL    HW1 2519   0.633   2.286   0.254  0.1001  0.7934  1.1817
  840SOL    HW2 2520   0.685   2.265   0.418 -3.7514 -2.7883  2.7840
  841SOL     OW 2521   1.853   2.494   0.199 -0.1268 -0.3272 -0.7932
  841SOL    HW1 2522   1.760   2.496   0.242 -3.4542  0.5205  0.9825
  841SOL    HW2 2523   1.848   2.504   0.096  0.1307  2.2322 -0.5164
  842SOL     OW 2524   0.446   0.686   0.029 -0.3839  0.1205 -0.3705
  842SOL    HW1 2525   0.432   0.629   0.114 -1.0517 -0.0654  0.8478
  842SOL    HW2 2526   0.537   0.728   0.030 -0.2060  1.8738 -1.2429
  843SOL     OW 2527   1.209   0.298   0.788 -0.0546  0.4495 -0.1368
  843SOL    HW1 2528   1.132   0.311   0.856  0.6958 -1.2752  0.8845
  843SOL    HW2 2529   1.294   0.343   0.824  0.9297  0.3230  1.1049
  844SOL     OW 2530   2.980   0.002   2.626 -0.8522  0.1504 -0.5945
  844SOL    HW1 2531   2.896   0.056   2.628  0.4237  2.5548 -0.0546
  844SOL    HW2 2532   2.956   3.006   2.668 -2.1806 -0.2478 -0.8225
  845SOL     OW 2533   2.526   2.319   1.061  0.2780  0.2156  0.0129
  845SOL    HW1 2534   2.434   2.278   1.071  1.0459  0.8965  0.1102
  845SOL    HW2 2535   2.569   2.358   1.146 -2.1773 -1.8265 -0.1645
  846SOL     OW 2536   2.836   1.912   2.107  0.3635  0.3799 -0.4107
  846SOL    HW1 2537   2.814   1.967   2.024  0.3396 -0.4786 -0.4358
  846SOL    HW2 2538   2.936   1.896   2.114  1.2710  2.8704  0.5490
  847SOL     OW 2539   1.181   0.845   1.526 -0.0565  0.7391  0.0858
  847SOL    HW1 2540   1.121   0.824   1.603  0.8371 -2.8674  1.7141
  847SOL    HW2 2541   1.260   0.781   1.528  1.4867  1.7169  0.5064
  848SOL     OW 2542   2.851   2.929   3.078  0.6930  0.0499 -0.3314
  848SOL    HW1 2543   2.804   2.993   0.049  1.2034 -2.4642 -1.7181
  848SOL    HW2 2544   2.931   2.891   0.029 -0.1026 -0.8401  0.9435
  849SOL     OW 2545   0.819   2.910   2.932  0.4235 -0.3058  0.3382
  849SOL    HW1 2546   0.755   2.852   2.986 -0.1725  0.5072  2.0235
  849SOL    HW2 2547   0.914   2.885   2.955 -1.9633 -1.9930 -0.1479
  850SOL     OW 2548   1.284   2.820   1.188  0.2913  0.3716 -0.1958
  850SOL    HW1 2549   1.358   2.753   1.173 -1.1989  2.4889  2.8247
  850SOL    HW2 2550   1.205   2.797   1.129 -1.0500  0.2897  0.1265
  851SOL     OW 2551   2.657   0.216   1.930 -0.2624 -0.5298  0.6009
  851SOL    HW1 2552   2.644   0.293   1.866  1.0200 -0.3455 -0.8237
  851SOL    HW2 2553   2.757   0.206   1.956 -1.5050  1.6346 -1.0992
  852SOL     OW 2554   2.008   0.524   2.457 -0.3895  0.1523 -0.1000
  852SOL    HW1 2555   1.994   0.540   2.358  0.7149  0.6583  0.3660
  852SOL    HW2 2556   2.097   0.475   2.472 -1.3075  1.9930  0.1467
  853SOL     OW 2557   0.058   3.013   0.503 -0.7420 -0.1598 -0.1576
  853SOL    HW1 2558   0.041   0.008   0.560 -2.0906  3.3483  0.3073
  853SOL    HW2 2559   3.062   2.989   0.460 -1.1935 -0.8398  0.9183
  854SOL     OW 2560   2.270   1.352   2.014  0.0552 -0.5487 -0.5042
  854SOL    HW1 2561   2.304   1.259   2.042 -0.6014 -2.8240  0.3741
  854SOL    HW2 2562   2.351   1.415   2.014  2.7898 -0.0375  0.0905
  855SOL     OW 2563   0.836   2.684   0.242  0.3701  0.4624  0.2666
  855SOL    HW1 2564   0.763   2.714   0.171 -4.0479  1.0787 -2.2656
  855SOL    HW2 2565   0.857   2.584   0.231 -2.5444 -2.0950  0.8970
  856SOL     OW 2566   0.092   0.130   2.758  0.1865  0.1204 -0.2533
  856SOL    HW1 2567   0.029   0.073   2.702 -1.5664 -3.5414  0.9481
  856SOL    HW2 2568   0.048   0.223   2.769  0.8771  0.2247 -1.1886
  857SOL     OW 2569   1.175   0.082   1.558  0.5437 -0.0920  0.5131
  857SOL    HW1 2570   1.198   0.013   1.483  0.3955  0.9714 -5.0825
  857SOL    HW2 2571   1.090   0.120   1.526  1.5930  0.4660 -2.1291
  858SOL     OW 2572   2.729   2.314   1.478 -0.1436  0.1177  0.4659
  858SOL    HW1 2573   2.730   2.212   1.476  1.7399  1.5640  1.2234
  858SOL    HW2 2574   2.819   2.349   1.441 -0.9330  0.6833  0.4140
  859SOL     OW 2575   1.513   2.588   2.019  0.4502  0.0772  0.1455
  859SOL    HW1 2576   1.444   2.556   1.957  1.4780 -1.1824  0.4461
  859SOL    HW2 2577   1.569   2.664   1.984 -0.7675 -1.0761 -0.9650
  860SOL     OW 2578   2.376   2.731   3.070 -0.2277  0.0596  0.6878
  860SOL    HW1 2579   2.397   2.664   2.998 -1.7543 -0.6717  1.4407
  860SOL    HW2 2580   2.287   2.707   0.020 -0.7874 -1.8998 -0.5763
  861SOL     OW 2581   2.191   2.707   0.637 -0.2214  0.2199  0.2917
  861SOL    HW1 2582   2.109   2.771   0.614 -2.7804  2.4690  1.3605
  861SOL    HW2 2583   2.183   2.612   0.614 -2.1297  1.4107  1.2280
  862SOL     OW 2584   1.780   0.046   2.376 -0.2694 -0.4777  0.1385
  862SOL    HW1 2585   1.819   3.057   2.412 -0.5469 -1.2893  0.3079
  862SOL    HW2 2586   1.859   0.109   2.346  3.3629 -3.2854  0.0114
  863SOL     OW 2587   3.052   0.674   0.846  0.5415 -0.2527  0.5320
  863SOL    HW1 2588   0.056   0.675   0.814  0.7904  0.2613 -1.0276
  863SOL    HW2 2589   2.979   0.666   0.768 -0.8197 -0.8609  0.7024
  864SOL     OW 2590   0.321   2.745   2.157 -0.5688 -0.2968 -0.7574
  864SOL    HW1 2591   0.375   2.832   2.140 -0.3863  0.6190 -1.0490
  864SOL    HW2 2592   0.257   2.759   2.233  1.4180 -1.1568 -1.1793
  865SOL     OW 2593   0.706   1.140   0.069  0.4134  0.0102 -0.4555
  865SOL    HW1 2594   0.727   1.064   0.002 -1.3947  3.7575  2.6527
  865SOL    HW2 2595   0.603   1.148   0.079  3.4410 -1.3497 -0.3563
  866SOL     OW 2596   2.642   0.647   0.196 -0.6494 -0.1522 -0.8276
  866SOL    HW1 2597   2.747   0.649   0.189  1.1640  1.4421  0.2018
  866SOL    HW2 2598   2.599   0.653   0.103  0.7362  0.0932 -0.6630
  867SOL     OW 2599   0.035   0.015   3.010  0.6837  0.1595  0.0836
  867SOL    HW1 2600   3.059   3.034   3.021  0.3626  0.2210  0.2535
  867SOL    HW2 2601   0.050   0.051   2.916  0.5935 -1.7832  0.6908
  868SOL     OW 2602   1.452   0.115   0.506  0.0800  0.0748  0.1894
  868SOL    HW1 2603   1.418   0.210   0.510 -0.9357  0.0284  0.4073
  868SOL    HW2 2604   1.380   0.052   0.540  0.2962 -0.4631  2.4376
  869SOL     OW 2605   1.544   1.610   0.652  0.0299  0.2412 -0.3843
  869SOL    HW1 2606   1.464   1.641   0.707  5.8815 -1.5094  1.0006
  869SOL    HW2 2607   1.616   1.687   0.645 -1.2726  1.0712 -0.2185
  870SOL     OW 2608   1.722   1.812   0.686  0.7439  0.2166  0.1214
  870SOL    HW1 2609   1.814   1.800   0.720 -1.6968  2.3088  3.3333
  870SOL    HW2 2610   1.715   1.884   0.620 -0.4269 -1.8922  0.4719
  871SOL     OW 2611   1.314   1.485   1.376 -0.3685  0.5297 -0.5263
  871SOL    HW1 2612   1.267   1.419   1.444 -0.4039 -1.9010  1.3067
  871SOL    HW2 2613   1.383   1.432   1.327 -0.4624  0.8006 -2.8098
  872SOL     OW 2614   1.061   1.774   1.682 -0.0937  0.1271  0.0967
  872SOL    HW1 2615   1.013   1.718   1.613  0.0239  1.7861  0.7049
  872SOL    HW2 2616   1.030   1.751   1.774 -0.9479 -1.9951 -0.1726
  873SOL     OW 2617   0.931   1.752   2.448  0.0293  0.5319  0.1673
  873SOL    HW1 2618   0.900   1.666   2.498  0.7712 -0.3387 -0.7849
  873SOL    HW2 2619   0.887   1.830   2.497 -0.5357  1.1079 -1.1399
  874SOL     OW 2620   0.559   1.403   1.049 -0.2948  0.0512 -0.6078
  874SOL    HW1 2621   0.468   1.445   1.060  0.0542  2.7017  0.3606
  874SOL    HW2 2622   0.555   1.326   0.981  1.1121 -2.0588 -1.1581
  875SOL     OW 2623   2.728   0.110   1.150  0.4540  0.0478  0.2744
  875SOL    HW1 2624   2.649   0.156   1.113  0.7958 -3.9064 -1.2274
  875SOL    HW2 2625   2.717   0.087   1.250  0.2751 -0.2923 -0.1332
  876SOL     OW 2626   0.739   0.743   0.077  0.7419 -0.1046  0.0686
  876SOL    HW1 2627   0.808   0.677   0.045 -0.7332  0.6668 -2.8103
  876SOL    HW2 2628   0.730   0.744   0.181  0.0706 -0.9981 -0.7629
  877SOL     OW 2629   0.074   0.143   1.305 -0.3613 -0.1285 -0.2280
  877SOL    HW1 2630   0.026   0.211   1.247 -1.7383  1.9146 -2.0627
  877SOL    HW2 2631   0.007   0.075   1.346  2.8794  0.3251  0.6024
  878SOL     OW 2632   1.739   2.101   3.021  0.1148 -0.5233 -0.6803
  878SOL    HW1 2633   1.823   2.143   3.065 -0.3753  0.5889 -0.3344
  878SOL    HW2 2634   1.744   1.999   3.013 -0.5225 -3.7001  1.1251
  879SOL     OW 2635   2.324   2.023   1.473 -0.3953 -0.1123  0.1662
  879SOL    HW1 2636   2.321   2.124   1.477 -0.1211 -2.2910 -0.8325
  879SOL    HW2 2637   2.235   1.978   1.494  0.6194 -0.0055 -3.2924
  880SOL     OW 2638   0.870   0.353   1.630 -0.1480 -0.3332  0.3963
  880SOL    HW1 2639   0.854   0.258   1.657 -0.0659 -0.6043 -2.1323
  880SOL    HW2 2640   0.802   0.417   1.676 -2.6527  1.4300  0.5063
  881SOL     OW 2641   1.090   2.092   3.059  0.0924  0.4698  0.4885
  881SOL    HW1 2642   1.075   2.084   2.956  2.2369 -0.4531  0.4049
  881SOL    HW2 2643   1.105   2.002   0.016 -3.1074 -0.3456  1.7045
  882SOL     OW 2644   2.149   1.261   1.773  0.4421 -0.8974  0.3739
  882SOL    HW1 2645   2.196   1.229   1.687 -0.2479  0.9753 -1.0630
  882SOL    HW2 2646   2.207   1.259   1.857  1.6639  1.7640  0.5521
  883SOL     OW 2647   1.177   0.675   1.954 -0.1345 -0.1531  0.0248
  883SOL    HW1 2648   1.091   0.625   1.978 -2.5928 -3.4851 -0.9669
  883SOL    HW2 2649   1.253   0.611   1.937 -0.5293 -0.5370  2.3075
  884SOL     OW 2650   2.755   0.428   0.018 -0.2534 -0.0640  0.1681
  884SOL    HW1 2651   2.780   0.342   0.065  1.3887  0.4176 -2.4061
  884SOL    HW2 2652   2.793   0.508   0.067  0.9972  0.7847  1.6624
  885SOL     OW 2653   0.268   2.203   0.369 -0.2925  0.2740 -0.0104
  885SOL    HW1 2654   0.295   2.109   0.328 -0.6433 -1.0500  0.2706
  885SOL    HW2 2655   0.345   2.274   0.366 -1.1864  4.2422 -0.5609
  886SOL     OW 2656   1.933   1.231   2.902 -0.4835 -0.2767  0.2150
  886SOL    HW1 2657   2.032   1.208   2.887  3.2324 -1.4966  0.1149
  886SOL    HW2 2658   1.910   1.226   2.997  0.4551  1.7891 -1.2037
  887SOL     OW 2659   1.653   0.695   1.733  0.0454  0.4448 -0.1349
  887SOL    HW1 2660   1.682   0.663   1.825  0.3849 -2.1963  0.6523
  887SOL    HW2 2661   1.705   0.780   1.713  1.5992 -0.0415  0.4746
  888SOL     OW 2662   2.990   1.050   1.853 -0.1697 -0.4182 -0.5262
  888SOL    HW1 2663   3.089   1.034   1.845  1.9671 -1.6785 -0.6604
  888SOL    HW2 2664   2.976   1.151   1.849  0.7040 -2.2616  0.2920
  889SOL     OW 2665   2.830   2.622   0.955 -0.1921  0.3524  0.2087
  889SOL    HW1 2666   2.897   2.698   0.940 -1.9805 -0.9961  1.6117
  889SOL    HW2 2667   2.849   2.555   0.879 -0.7559 -2.1517 -1.9180
  890SOL     OW 2668   0.100   2.709   2.595 -0.7098 -0.5272 -0.0942
  890SOL    HW1 2669   0.096   2.608   2.597 -1.8095  2.1274 -0.2109
  890SOL    HW2 2670   0.141   2.746   2.679  5.1694 -2.7079  0.4275
  891SOL     OW 2671   0.500   1.870   0.160 -0.2542 -0.4468 -0.3122
  891SOL    HW1 2672   0.540   1.901   0.246 -0.5893 -1.6722  0.5332
  891SOL    HW2 2673   0.509   1.768   0.150 -0.7164  1.5456  0.4819
  892SOL     OW 2674   3.025   2.271   1.051  0.0597 -0.0044 -0.1999
  892SOL    HW1 2675   2.998   2.237   1.140  0.5569  1.9486 -1.4907
  892SOL    HW2 2676   2.950   2.314   1.001 -2.2901 -0.2026  1.6250
  893SOL     OW 2677   0.596   2.934   1.479  0.1267 -0.4715  0.4902
  893SOL    HW1 2678   0.595   3.037   1.494 -1.0897  2.6641  1.4247
  893SOL    HW2 2679   0.500   2.893   1.484 -1.5640 -2.6019  0.6667
  894SOL     OW 2680   2.309   1.688   0.916  0.1132  0.6021  0.2402
  894SOL    HW1 2681   2.392   1.661   0.971  1.1106  3.6432  2.4348
  894SOL    HW2 2682   2.293   1.628   0.838  1.0689 -0.5470  1.8411
  895SOL     OW 2683   2.712   2.587   1.655  0.0137  0.0920 -0.7962
  895SOL    HW1 2684   2.742   2.491   1.637 -0.6702 -0.0800 -4.1677
  895SOL    HW2 2685   2.747   2.647   1.582  1.5897  1.5755 -0.8013
  896SOL     OW 2686   1.003   0.471   1.409 -0.3528 -0.4191  0.0786
  896SOL    HW1 2687   1.101   0.462   1.427  1.2359 -1.2419  1.4872
  896SOL    HW2 2688   0.957   0.419   1.477 -1.9933 -1.5951 -2.9638
  897SOL     OW 2689   0.941   1.622   1.494 -0.3861 -0.0040 -0.2382
  897SOL    HW1 2690   0.866   1.685   1.506 -0.0140  0.1300  1.9565
  897SOL    HW2 2691   1.008   1.650   1.426 -1.1300 -1.3831  0.9235
  898SOL     OW 2692   1.389   2.632   1.615 -0.2418 -0.4153  0.1133
  898SOL    HW1 2693   1.386   2.623   1.514  0.6221  2.3247 -0.0936
  898SOL    HW2 2694   1.298   2.661   1.651 -0.0532  0.3420  2.3079
  899SOL     OW 2695   0.961   0.602   0.017 -0.5301 -0.0492  0.0010
  899SOL    HW1 2696   1.056   0.610   3.074  0.1115 -1.0062 -0.9641
  899SOL    HW2 2697   0.918   0.520   3.068  0.2916  2.3362 -0.7173
  900SOL     OW 2698   1.505   2.425   2.266  0.3405  0.4536  0.0837
  900SOL    HW1 2699   1.492   2.488   2.342  0.6603  0.5451 -1.4101
  900SOL    HW2 2700   1.521   2.477   2.176  1.2436  0.3821  0.3592
  901SOL     OW 2701   1.147   2.269   0.152  0.0714  0.0365  0.3594
  901SOL    HW1 2702   1.123   2.204   0.074 -1.5368 -1.8805  1.5165
  901SOL    HW2 2703   1.222   2.233   0.212 -0.8061  0.6969  1.1768
  902SOL     OW 2704   1.614   1.361   0.780 -0.1157  0.0966  0.0527
  902SOL    HW1 2705   1.617   1.449   0.730 -1.1697  0.5371  0.6386
  902SOL    HW2 2706   1.580   1.381   0.874 -0.5854 -0.2741  1.2565
  903SOL     OW 2707   2.325   1.127   0.070  0.2245  0.0486  0.8893
  903SOL    HW1 2708   2.323   1.033   0.029  3.5365 -1.5836  0.3609
  903SOL    HW2 2709   2.406   1.154   0.119 -3.2119 -0.2896 -0.7024
  904SOL     OW 2710   0.857   1.334   0.128 -0.0939  0.1377 -0.1525
  904SOL    HW1 2711   0.801   1.254   0.101 -2.5051 -2.2115  2.0034
  904SOL    HW2 2712   0.876   1.333   0.224  0.2204  1.4839 -4.8393
  905SOL     OW 2713   2.107   2.847   1.238  0.7930  0.2227 -0.0350
  905SOL    HW1 2714   2.017   2.843   1.290 -0.9440 -1.5704  3.2063
  905SOL    HW2 2715   2.187   2.873   1.302 -0.2170  1.2628 -2.3735
  906SOL     OW 2716   2.787   2.484   1.226  0.8341  0.2571 -0.0263
  906SOL    HW1 2717   2.782   2.541   1.142 -0.6310 -1.1501  2.2965
  906SOL    HW2 2718   2.689   2.460   1.255 -0.9616 -1.9054  0.4994
  907SOL     OW 2719   1.192   1.029   0.442  0.1376 -0.1351  0.7511
  907SOL    HW1 2720   1.200   0.929   0.455  2.3240 -0.4652 -1.3382
  907SOL    HW2 2721   1.147   1.057   0.355  1.0530 -0.7959  1.2223
  908SOL     OW 2722   1.533   0.187   1.005 -0.1799 -0.5683  0.6585
  908SOL    HW1 2723   1.526   0.117   1.083 -0.6868 -2.4840  2.3973
  908SOL    HW2 2724   1.627   0.201   0.973 -0.7290 -2.2226 -1.4252
  909SOL     OW 2725   2.291   1.138   1.567 -0.3847  0.7667  0.2760
  909SOL    HW1 2726   2.352   1.074   1.620  1.1881 -1.8189  3.4842
  909SOL    HW2 2727   2.341   1.185   1.491  0.0066  1.3602  1.7342
  910SOL     OW 2728   1.988   0.561   2.203  0.0178  0.0989  0.0354
  910SOL    HW1 2729   1.962   0.650   2.166  0.9397  0.9460  2.8818
  910SOL    HW2 2730   2.090   0.545   2.192 -0.4187  2.3400  0.3071
  911SOL     OW 2731   2.431   0.872   2.711 -0.4403  0.3265  0.6278
  911SOL    HW1 2732   2.328   0.863   2.719 -2.2857 -0.1752 -0.2232
  911SOL    HW2 2733   2.483   0.794   2.759 -0.4169 -2.8739  0.7301
  912SOL     OW 2734   0.165   1.064   1.802  0.5033  0.1145  0.1809
  912SOL    HW1 2735   0.198   1.018   1.716  2.4520  0.0957  1.0746
  912SOL    HW2 2736   0.199   1.158   1.811  1.1467  0.3126  0.4546
  913SOL     OW 2737   2.910   2.145   1.271  0.6438  0.6722  0.5349
  913SOL    HW1 2738   2.961   2.096   1.353  2.9243 -1.7436  1.5935
  913SOL    HW2 2739   2.818   2.099   1.252 -2.2807 -0.8416 -0.0757
  914SOL     OW 2740   1.728   1.022   1.891 -0.2505  0.0423  0.6247
  914SOL    HW1 2741   1.797   1.092   1.899 -1.4564 -1.8563 -2.3878
  914SOL    HW2 2742   1.727   0.991   1.792 -1.0140  0.0084  0.1597
  915SOL     OW 2743   2.259   0.887   1.142  0.1799  0.4569  0.6436
  915SOL    HW1 2744   2.252   0.819   1.220  1.0575 -0.1921  0.6173
  915SOL    HW2 2745   2.327   0.853   1.077 -0.6311 -3.3623  0.9353
  916SOL     OW 2746   1.933   2.122   1.025  0.1198  0.1957  0.6582
  916SOL    HW1 2747   1.908   2.190   1.091 -1.9110 -0.8688 -1.2347
  916SOL    HW2 2748   1.883   2.028   1.044 -1.9074  0.1934  1.5862
  917SOL     OW 2749   2.015   1.979   2.488  0.4957  0.1786 -0.1884
  917SOL    HW1 2750   1.953   2.048   2.446 -0.8824  0.5863 -0.8675
  917SOL    HW2 2751   2.093   2.028   2.526 -5.9060 -0.7168 -2.3737
  918SOL     OW 2752   2.058   2.413   2.444 -0.4742  0.3982 -0.3531
  918SOL    HW1 2753   2.029   2.475   2.517 -2.1464  1.6374  0.0653
  918SOL    HW2 2754   1.980   2.397   2.380  1.0061  0.4579  2.0550
  919SOL     OW 2755   1.261   2.972   1.405  0.1943  0.1695 -0.2841
  919SOL    HW1 2756   1.272   2.917   1.314  0.5669 -0.7590 -0.1812
  919SOL    HW2 2757   1.349   2.970   1.450 -1.7389 -0.7213 -0.4349
  920SOL     OW 2758   2.913   0.120   2.313 -0.2034 -0.0546  0.4140
  920SOL    HW1 2759   2.825   0.112   2.366 -0.1108  1.0280  1.2144
  920SOL    HW2 2760   2.982   0.046   2.352  1.4143 -2.9580 -0.5194
  921SOL     OW 2761   0.033   0.804   1.523  0.2296  0.4337  0.3691
  921SOL    HW1 2762   0.021   0.829   1.424 -0.2802 -0.8300 -0.6543
  921SOL    HW2 2763   0.121   0.834   1.564 -0.4753 -1.3381  2.9622
  922SOL     OW 2764   2.278   2.488   0.328  0.1795  0.2124 -0.6689
  922SOL    HW1 2765   2.270   2.527   0.231 -0.8101  1.2629 -2.4711
  922SOL    HW2 2766   2.352   2.420   0.329 -0.0552 -0.2510 -1.9458
  923SOL     OW 2767   0.582   2.051   0.626  0.2067 -0.2421  0.8943
  923SOL    HW1 2768   0.663   2.100   0.663 -1.0674  0.9376  0.9716
  923SOL    HW2 2769   0.503   2.119   0.621  0.5940 -1.4008 -0.2318
  924SOL     OW 2770   1.043   0.707   0.272 -0.0511  0.0132  0.1143
  924SOL    HW1 2771   0.974   0.725   0.347 -0.5497 -0.7168  0.9180
  924SOL    HW2 2772   1.005   0.698   0.180  0.9782 -1.7231  1.2909
  925SOL     OW 2773   2.659   0.849   1.087  0.6527 -0.3384  0.1993
  925SOL    HW1 2774   2.703   0.773   1.134  0.9369 -0.2532  2.2999
  925SOL    HW2 2775   2.574   0.817   1.043 -0.2187 -0.8425  0.6650
  926SOL     OW 2776   0.670   0.217   1.251 -0.8664 -0.2723 -0.1594
  926SOL    HW1 2777   0.575   0.247   1.230 -1.1405 -0.0439  2.1878
  926SOL    HW2 2778   0.676   0.167   1.340 -1.0852 -0.9041  2.1536
  927SOL     OW 2779   0.494   1.487   2.366 -0.0421  0.0462  0.0009
  927SOL    HW1 2780   0.430   1.532   2.432 -0.1691  1.9219 -0.1096
  927SOL    HW2 2781   0.449   1.417   2.307  0.4664  0.3780  0.2753
  928SOL     OW 2782   0.199   0.404   2.392 -0.0699  0.7111 -0.0491
  928SOL    HW1 2783   0.105   0.379   2.365 -0.8715 -0.3025  3.7266
  928SOL    HW2 2784   0.238   0.335   2.454 -0.2755  1.4378  1.0872
  929SOL     OW 2785   2.782   2.979   1.041 -0.1886  0.1497  0.0530
  929SOL    HW1 2786   2.810   2.980   0.946 -1.2783 -1.3301 -1.3716
  929SOL    HW2 2787   2.774   3.073   1.082 -1.3510 -0.5200  1.1010
  930SOL     OW 2788   2.027   0.779   1.747 -0.1169  0.1680  0.0009
  930SOL    HW1 2789   2.077   0.696   1.782 -3.8732 -0.7844 -1.2214
  930SOL    HW2 2790   2.043   0.859   1.808  0.1317 -0.9701  0.0373
  931SOL     OW 2791   1.775   1.161   0.032  0.4450 -0.3674 -0.1772
  931SOL    HW1 2792   1.701   1.185   3.058 -0.6014  1.3327 -0.6588
  931SOL    HW2 2793   1.739   1.195   0.123  0.1745 -2.8667 -4.9199
  932SOL     OW 2794   1.925   1.199   0.451 -0.3022  0.2251 -0.2368
  932SOL    HW1 2795   1.954   1.105   0.424  0.3462  1.9034  0.3284
  932SOL    HW2 2796   1.857   1.196   0.524  0.8830  2.0297 -4.1809
  933SOL     OW 2797   2.078   1.714   1.053 -0.0827  0.6463 -0.4226
  933SOL    HW1 2798   2.158   1.711   0.988 -0.5751  1.1503 -0.5986
  933SOL    HW2 2799   2.108   1.704   1.150 -0.4300 -0.3238 -3.5681
  934SOL     OW 2800   1.968   0.794   2.580 -0.6419 -0.3477  0.0812
  934SOL    HW1 2801   1.967   0.707   2.528  1.9597  1.8410 -0.3940
  934SOL    HW2 2802   1.884   0.844   2.576  0.3521 -0.2134 -0.8501
  935SOL     OW 2803   0.177   0.926   0.594 -0.0912 -0.2370 -0.0661
  935SOL    HW1 2804   0.147   0.915   0.496 -1.3362  1.6979  0.3793
  935SOL    HW2 2805   0.093   0.945   0.650 -4.0281 -0.7547  0.3941
  936SOL     OW 2806   0.583   3.086   0.873 -0.4237 -0.7260  0.1629
  936SOL    HW1 2807   0.663   3.039   0.921 -0.6484  1.2684 -2.0192
  936SOL    HW2 2808   0.627   0.026   0.789 -0.6528  0.8456  0.0948
  937SOL     OW 2809   0.021   3.019   1.962  0.0379  0.4334  0.0630
  937SOL    HW1 2810   3.087   2.957   2.038  1.2570 -1.6536 -0.3496
  937SOL    HW2 2811   0.018   2.970   1.871 -1.1079  2.3029 -0.2485
  938SOL     OW 2812   0.144   2.600   0.106 -0.1323 -0.0829  0.6417
  938SOL    HW1 2813   0.064   2.533   0.104  2.2274 -4.0442 -1.1722
  938SOL    HW2 2814   0.159   2.640   0.194  1.6208 -1.3097 -5.6394
  939SOL     OW 2815   0.974   1.795   0.990  0.1809 -0.5793  0.3440
  939SOL    HW1 2816   0.926   1.718   0.940 -1.3409 -2.0748 -1.1415
  939SOL    HW2 2817   1.068   1.780   1.014  0.4312 -0.2594 -0.5137
  940SOL     OW 2818   0.047   0.506   0.079 -0.1733  0.3306 -0.3127
  940SOL    HW1 2819   0.036   0.418   0.029 -0.4210  1.2578  0.8555
  940SOL    HW2 2820   0.103   0.563   0.022  0.1037 -2.1824 -0.3528
  941SOL     OW 2821   2.110   0.123   2.604 -0.4922  0.2474  0.3231
  941SOL    HW1 2822   2.144   0.125   2.511 -2.3313  2.6530  1.0244
  941SOL    HW2 2823   2.009   0.130   2.608 -0.1793 -1.9856  1.2479
  942SOL     OW 2824   1.414   0.424   0.929 -0.3667  0.6215 -0.2022
  942SOL    HW1 2825   1.461   0.341   0.955 -0.0057  1.2366 -1.9999
  942SOL    HW2 2826   1.416   0.483   1.009 -0.3094 -1.4818  1.8663
  943SOL     OW 2827   1.023   0.828   1.764  0.5295  0.0338 -0.1567
  943SOL    HW1 2828   1.066   0.759   1.826 -3.1248 -2.7328  1.7702
  943SOL    HW2 2829   0.956   0.886   1.820 -2.4083  1.4612  0.2124
  944SOL     OW 2830   2.065   0.997   1.488 -0.0395 -0.2152  0.1069
  944SOL    HW1 2831   2.072   0.895   1.475  0.8241  0.4712  0.4455
  944SOL    HW2 2832   2.132   1.028   1.553 -2.6560 -0.4420 -1.4230
  945SOL     OW 2833   2.713   3.069   0.150  0.0808 -0.3860  0.4946
  945SOL    HW1 2834   2.694   0.007   0.244 -1.5606  3.4659  0.8426
  945SOL    HW2 2835   2.617   3.050   0.111 -4.1628 -1.5812 -1.0029
  946SOL     OW 2836   3.000   0.766   2.051 -0.3851 -0.1441 -0.2281
  946SOL    HW1 2837   2.914   0.813   2.019  0.7041  1.5502 -0.1737
  946SOL    HW2 2838   3.027   0.692   1.986  1.8784 -2.0178 -1.5967
  947SOL     OW 2839   1.063   2.803   0.162 -0.1512  0.5340 -0.1864
  947SOL    HW1 2840   1.085   2.778   0.068 -1.8710 -0.3220  1.1707
  947SOL    HW2 2841   0.979   2.755   0.193  0.1848  1.9270 -1.4295
  948SOL     OW 2842   2.401   1.814   1.333 -0.5719  0.0962  0.5780
  948SOL    HW1 2843   2.387   1.892   1.395 -1.4270 -1.5662 -0.2441
  948SOL    HW2 2844   2.467   1.742   1.369 -0.6047 -0.8931  2.0813
  949SOL     OW 2845   0.005   1.349   2.991 -0.1612  0.0281  0.1420
  949SOL    HW1 2846   0.010   1.318   2.899 -0.9049  3.1769  2.2810
  949SOL    HW2 2847   0.085   1.409   3.007 -0.3958 -0.6951 -1.9927
  950SOL     OW 2848   0.782   2.436   1.009 -0.1411 -0.4669 -0.1484
  950SOL    HW1 2849   0.758   2.465   1.102  3.3697 -2.5669 -2.1408
  950SOL    HW2 2850   0.703   2.432   0.944 -2.6079 -0.1199 -0.5143
  951SOL     OW 2851   0.660   1.314   2.478 -0.1052 -0.1433 -0.0119
  951SOL    HW1 2852   0.603   1.391   2.440  1.8922 -1.2829  0.2493
  951SOL    HW2 2853   0.603   1.263   2.552 -2.4327 -2.5335  1.3893
  952SOL     OW 2854   0.401   0.785   0.654 -0.4812 -0.2879 -0.3942
  952SOL    HW1 2855   0.471   0.848   0.694 -0.7084 -1.4539 -2.4573
  952SOL    HW2 2856   0.327   0.846   0.622  2.0734 -0.1438  0.0674
  953SOL     OW 2857   2.601   2.961   2.156  0.3532 -0.0250  0.4645
  953SOL    HW1 2858   2.506   2.969   2.193  2.6678  0.9392 -1.2103
  953SOL    HW2 2859   2.670   2.960   2.229 -2.5406  0.2097  0.7233
  954SOL     OW 2860   1.431   1.152   0.905 -0.0328  0.0454 -0.2189
  954SOL    HW1 2861   1.487   1.233   0.867  1.2180  2.7939 -1.8848
  954SOL    HW2 2862   1.451   1.067   0.853  0.2679  2.5704 -2.4301
  955SOL     OW 2863   0.643   1.966   0.368  0.2253 -0.1938 -0.3192
  955SOL    HW1 2864   0.741   1.968   0.343 -0.4777 -3.7709 -0.4245
  955SOL    HW2 2865   0.627   1.987   0.464 -3.5343 -0.0650 -0.9376
  956SOL     OW 2866   2.250   0.479   2.128  0.1378  0.2604  0.0276
  956SOL    HW1 2867   2.321   0.513   2.190  2.2440 -0.3957  1.2705
  956SOL    HW2 2868   2.269   0.382   2.101 -1.6819 -1.0948 -0.0450
  957SOL     OW 2869   2.219   2.397   2.051  0.4287  0.1561 -0.8217
  957SOL    HW1 2870   2.302   2.446   2.017 -2.5688  1.6825  0.2438
  957SOL    HW2 2871   2.257   2.319   2.104 -0.8646  1.9073 -0.2246
  958SOL     OW 2872   1.696   1.230   1.294 -0.2187 -0.3901 -0.2225
  958SOL    HW1 2873   1.707   1.317   1.350 -0.0956  1.6985  0.0966
  958SOL    HW2 2874   1.787   1.186   1.275  1.5127  0.5122 -2.5736
  959SOL     OW 2875   2.018   1.743   2.089 -0.0166 -0.0023  0.3197
  959SOL    HW1 2876   1.984   1.834   2.076  0.7435 -0.8087  0.9263
  959SOL    HW2 2877   2.020   1.722   2.189 -0.5402  0.8529 -0.2792
  960SOL     OW 2878   0.490   0.987   2.806  0.2593  0.3475  0.2626
  960SOL    HW1 2879   0.481   0.909   2.742 -1.8548 -1.4726 -5.7898
  960SOL    HW2 2880   0.563   0.975   2.875  0.1255 -0.3110  0.5168
  961SOL     OW 2881   0.187   1.120   2.790  0.3922  0.2430  0.7441
  961SOL    HW1 2882   0.192   1.080   2.886  0.0536 -1.3778  1.3424
  961SOL    HW2 2883   0.150   1.047   2.730  2.2436  1.0052  0.7500
  962SOL     OW 2884   0.525   1.705   2.227  0.1693  0.1246 -0.2135
  962SOL    HW1 2885   0.518   1.617   2.279  1.6465  3.2829  2.4823
  962SOL    HW2 2886   0.522   1.780   2.292  1.8747 -2.0137  0.8192
  963SOL     OW 2887   2.694   2.116   0.144  0.0699  0.2869 -0.0159
  963SOL    HW1 2888   2.670   2.213   0.118 -1.3264  1.4406  1.0887
  963SOL    HW2 2889   2.695   2.059   0.060  2.9248  0.4864 -0.1787
  964SOL     OW 2890   0.678   2.153   1.815  0.5223  0.2499 -0.2627
  964SOL    HW1 2891   0.592   2.124   1.858  2.5504  0.3320 -0.4688
  964SOL    HW2 2892   0.755   2.116   1.869 -1.0776 -1.1441  1.6730
  965SOL     OW 2893   1.722   1.970   0.459 -0.0176  0.3023 -0.4059
  965SOL    HW1 2894   1.744   2.056   0.414  1.1236 -2.3475  1.8828
  965SOL    HW2 2895   1.764   1.889   0.414  1.1600  2.5323  3.6983
  966SOL     OW 2896   2.767   1.694   0.192  0.0702 -0.2149 -0.1888
  966SOL    HW1 2897   2.823   1.647   0.121 -1.1743  0.2133 -2.8371
  966SOL    HW2 2898   2.726   1.625   0.254 -0.3525  0.7471 -0.1544
  967SOL     OW 2899   2.077   3.054   2.113  0.4927  0.5933 -0.4646
  967SOL    HW1 2900   2.020   3.002   2.182  2.3674 -1.1014 -0.4460
  967SOL    HW2 2901   2.043   0.055   2.106  0.7168 -1.7135  1.4707
  968SOL     OW 2902   1.092   0.281   0.186  0.4099  0.1899  0.0753
  968SOL    HW1 2903   1.152   0.198   0.183  1.3383 -2.4118  0.5422
  968SOL    HW2 2904   1.151   0.363   0.202 -0.7717 -0.2954  1.2962
  969SOL     OW 2905   0.212   1.619   2.133  0.1641  0.1960  0.0029
  969SOL    HW1 2906   0.280   1.679   2.085 -0.8560  0.4247 -0.6637
  969SOL    HW2 2907   0.222   1.524   2.096  1.5760 -1.2558 -2.5970
  970SOL     OW 2908   1.830   2.619   1.285  0.1548  0.3664  0.0106
  970SOL    HW1 2909   1.915   2.611   1.232  1.3536  3.3951  0.4496
  970SOL    HW2 2910   1.778   2.533   1.285 -1.3158  2.9871  1.8129
  971SOL     OW 2911   2.209   2.312   0.744 -0.4655  0.2011  0.2251
  971SOL    HW1 2912   2.231   2.376   0.822 -0.5568  2.0963 -1.4158
  971SOL    HW2 2913   2.283   2.247   0.724 -1.4682 -0.0417  1.3639
  972SOL     OW 2914   0.038   0.960   2.646 -0.4816  0.0063  0.6043
  972SOL    HW1 2915   0.083   0.915   2.562 -0.2719 -0.6363  0.2080
  972SOL    HW2 2916   3.052   0.918   2.689 -0.7788  0.0759 -0.3993
  973SOL     OW 2917   0.677   0.343   0.774  0.1128  0.1264 -0.3048
  973SOL    HW1 2918   0.691   0.351   0.872  0.4015 -1.8052 -1.7791
  973SOL    HW2 2919   0.690   0.247   0.746  1.7667  1.8329 -1.2064
  974SOL     OW 2920   2.301   1.058   2.032 -0.1583 -0.8486  0.0463
  974SOL    HW1 2921   2.372   1.063   1.961  0.0963  1.7089 -0.3932
  974SOL    HW2 2922   2.232   0.987   2.011  0.5158  2.1891  0.9835
  975SOL     OW 2923   0.046   3.087   0.214  1.1311  0.0832 -0.4626
  975SOL    HW1 2924   3.070   0.036   0.278 -1.1176  0.5339 -0.4078
  975SOL    HW2 2925   0.105   0.060   0.171  0.1966  0.9266  0.4524
  976SOL     OW 2926   0.350   1.790   0.925 -0.4363  0.1040  0.4067
  976SOL    HW1 2927   0.335   1.731   1.006 -0.8998 -1.4811  2.0900
  976SOL    HW2 2928   0.331   1.735   0.845  0.0004  2.5149  1.3698
  977SOL     OW 2929   0.944   1.761   0.590  1.0509  0.0194 -0.5221
  977SOL    HW1 2930   0.929   1.726   0.500  2.9672  1.8203  1.3656
  977SOL    HW2 2931   0.858   1.802   0.619  1.0614 -1.0590 -0.1930
  978SOL     OW 2932   0.059   0.884   0.136  0.2044 -0.6918  0.1019
  978SOL    HW1 2933   0.080   0.819   0.054 -1.2242 -1.3840 -3.4550
  978SOL    HW2 2934   0.032   0.977   0.108  0.8646 -0.9617 -0.0706
  979SOL     OW 2935   1.697   1.468   0.474 -0.3007 -0.0630  0.6943
  979SOL    HW1 2936   1.777   1.477   0.535 -1.3992 -1.9512 -1.3754
  979SOL    HW2 2937   1.626   1.520   0.524  3.3824 -1.8562  0.7201
  980SOL     OW 2938   0.698   2.447   1.989 -0.4515  0.0294 -0.1294
  980SOL    HW1 2939   0.654   2.459   1.898 -0.4404  2.6341 -1.1555
  980SOL    HW2 2940   0.662   2.510   2.063 -1.1136 -0.3474 -0.3007
  981SOL     OW 2941   2.308   0.882   3.035 -0.5512  0.1273 -0.1807
  981SOL    HW1 2942   2.244   0.878   2.956  2.9255  0.2085  1.2881
  981SOL    HW2 2943   2.303   0.800   0.006  1.4953  2.5512  0.1785
  982SOL     OW 2944   0.053   2.620   1.874  0.5623 -0.4095  0.3491
  982SOL    HW1 2945   3.084   2.604   1.953  0.5332  1.9867 -2.2129
  982SOL    HW2 2946   0.151   2.620   1.911  2.5118  0.4090  2.2010
  983SOL     OW 2947   1.842   0.550   1.567 -0.1260  0.5077  0.4270
  983SOL    HW1 2948   1.791   0.534   1.478 -2.0928  0.1972 -4.1749
  983SOL    HW2 2949   1.788   0.624   1.614 -1.1102  0.0104  0.7276
  984SOL     OW 2950   1.985   2.881   2.377 -0.1419 -0.3096  0.1686
  984SOL    HW1 2951   2.073   2.904   2.421  1.5071  0.8319  1.1862
  984SOL    HW2 2952   1.932   2.822   2.434  1.6748  3.0713 -0.0836
  985SOL     OW 2953   1.641   1.420   1.685 -0.0162  0.1312 -0.0155
  985SOL    HW1 2954   1.591   1.331   1.688 -1.0345 -2.3940  0.5814
  985SOL    HW2 2955   1.582   1.489   1.636 -0.1859  0.3000 -0.7392
  986SOL     OW 2956   2.140   2.622   2.150 -0.2541  0.1662 -0.5393
  986SOL    HW1 2957   2.167   2.527   2.124  1.1246  0.7927  0.0251
  986SOL    HW2 2958   2.184   2.649   2.241  2.3405  1.8497  2.2921
  987SOL     OW 2959   2.770   1.806   2.790  0.4091  0.2394 -0.0229
  987SOL    HW1 2960   2.726   1.720   2.748 -0.9449 -4.0184  0.9168
  987SOL    HW2 2961   2.746   1.895   2.743  1.8276  2.3744 -3.5010
  988SOL     OW 2962   0.027   0.560   1.357  0.6024  0.2724  0.3699
  988SOL    HW1 2963   0.070   0.644   1.400 -0.7422 -0.4735  1.2797
  988SOL    HW2 2964   3.037   0.532   1.403 -0.2363  0.5141  1.0192
  989SOL     OW 2965   2.035   1.300   1.465  0.0294  0.1052 -0.4522
  989SOL    HW1 2966   2.044   1.195   1.476  3.1061 -2.4756 -0.2964
  989SOL    HW2 2967   2.111   1.349   1.507  0.2308 -1.9118 -0.7094
  990SOL     OW 2968   2.893   0.643   0.113  0.3025 -0.6244 -0.3114
  990SOL    HW1 2969   2.980   0.593   0.098 -1.7111 -0.0771  1.0746
  990SOL    HW2 2970   2.892   0.729   0.058 -0.4813 -1.5610  0.3311
  991SOL     OW 2971   0.287   1.801   3.042  0.5730 -0.0548 -0.0833
  991SOL    HW1 2972   0.297   1.859   2.958  2.2950 -0.2680  3.8416
  991SOL    HW2 2973   0.347   1.835   0.022  1.5583 -0.0723 -1.8654
  992SOL     OW 2974   2.253   1.779   1.728  0.1126 -0.1996  0.0509
  992SOL    HW1 2975   2.154   1.797   1.713 -2.0917 -1.2807  2.3353
  992SOL    HW2 2976   2.264   1.751   1.822 -1.1376  2.0089 -4.2518
  993SOL     OW 2977   0.761   2.850   0.913 -0.2608  0.1529  0.5402
  993SOL    HW1 2978   0.799   2.875   1.003  1.3854  1.1864  1.9567
  993SOL    HW2 2979   0.811   2.892   0.835 -0.3201  1.2225 -0.9773
  994SOL     OW 2980   2.686   2.025   1.457 -0.1524 -0.2038 -0.9067
  994SOL    HW1 2981   2.725   1.936   1.469 -1.8045  4.2621 -0.3553
  994SOL    HW2 2982   2.620   2.049   1.533 -0.1293  0.4607  0.9412
  995SOL     OW 2983   2.026   1.720   2.384 -0.1174 -0.2087  0.3580
  995SOL    HW1 2984   2.021   1.813   2.421  0.2702 -0.6897  0.1441
  995SOL    HW2 2985   1.949   1.660   2.416 -3.4326 -0.6106  0.1130
  996SOL     OW 2986   1.907   1.748   2.920  0.3953 -0.0469 -0.1119
  996SOL    HW1 2987   1.830   1.791   2.970  1.5973  0.7746  0.3147
  996SOL    HW2 2988   1.981   1.731   2.985  2.0241 -1.9003  0.4389
  997SOL     OW 2989   1.105   1.359   1.957  0.2793  0.4820  0.1208
  997SOL    HW1 2990   1.052   1.409   2.030  0.7554  0.8344 -1.4433
  997SOL    HW2 2991   1.172   1.417   1.905 -0.1462  1.2975 -1.8159
  998SOL     OW 2992   2.649   2.084   0.659  0.1916  0.1914 -0.1051
  998SOL    HW1 2993   2.648   1.990   0.617  0.3361 -0.6958  0.8389
  998SOL    HW2 2994   2.689   2.088   0.754  1.9658  0.6327 -1.0969
  999SOL     OW 2995   0.141   2.540   0.873 -0.2789  0.0918 -0.1699
  999SOL    HW1 2996   0.106   2.459   0.822 -2.0411 -1.7797  1.7460
  999SOL    HW2 2997   0.194   2.596   0.808 -1.9714  0.9003 -1.1499
 1000SOL     OW 2998   1.184   3.081   3.018 -0.4084 -0.4789 -0.0037
 1000SOL    HW1 2999   1.117   3.080   0.003 -1.1689  0.8426  1.1480
 1000SOL    HW2 3000   1.224   0.081   3.002  0.6068  4.9139  0.0850
   3.09334   3.09334   3.09334
