1000 SPC/Fw water molecules t=  72.00000 step= 72000
 3000
    1SOL     OW    1   2.026   2.731   0.808  0.2763 -0.3169  0.2227
    1SOL    HW1    2   1.930   2.743   0.782  1.0822  1.9595  0.7861
    1SOL    HW2    3   2.081   2.787   0.738  1.0972  0.9673  0.7421
    2SOL     OW    4   0.791   1.445   2.430  0.5043 -0.5426  0.3898
    2SOL    HW1    5   0.723   1.510   2.385 -2.1698  1.6530 -1.2607
    2SOL    HW2    6   0.864   1.504   2.467  0.6883  2.1347 -1.7266
    3SOL     OW    7   1.422   2.819   2.498  0.2496  0.1491 -0.6938
    3SOL    HW1    8   1.457   2.879   2.577  3.1214  0.3002  0.8736
    3SOL    HW2    9   1.432   2.719   2.516  1.8206 -2.0174 -0.3175
    4SOL     OW   10   1.132   1.903   2.826  0.2416 -0.9272  0.2402
    4SOL    HW1   11   1.165   1.955   2.746 -1.9082 -1.0474 -0.8667
    4SOL    HW2   12   1.203   1.850   2.874  0.8310  0.5940 -0.6576
    5SOL     OW   13   0.722   0.630   1.780 -0.0924  0.7948  0.0973
    5SOL    HW1   14   0.757   0.697   1.715  1.2028  1.5938  1.5729
    5SOL    HW2   15   0.702   0.678   1.870  0.8747  2.9001  2.0733
    6SOL     OW   16   1.918   0.531   2.605 -0.4933  0.1850  0.0012
    6SOL    HW1   17   1.923   0.605   2.536 -0.1797  3.1754  3.6437
    6SOL    HW2   18   1.851   0.463   2.573 -3.3251 -0.1010  1.8585
    7SOL     OW   19   0.251   0.178   1.566 -0.4218  0.1320  0.0717
    7SOL    HW1   20   0.171   0.239   1.552 -0.3692 -0.6645  0.7686
    7SOL    HW2   21   0.301   0.201   1.650  0.4520 -1.1711  0.5605
    8SOL     OW   22   1.986   0.093   1.956 -0.1972  0.2628 -0.2791
    8SOL    HW1   23   1.893   0.053   1.960 -0.2682  2.5616  0.1400
    8SOL    HW2   24   1.987   0.162   1.883 -0.0787 -0.5375 -0.0981
    9SOL     OW   25   0.321   2.996   0.600 -0.6301 -0.1310  0.0272
    9SOL    HW1   26   0.324   3.096   0.584  0.5586 -2.8685  0.3154
    9SOL    HW2   27   0.231   2.968   0.634  1.5642  0.6791  2.3338
   10SOL     OW   28   0.583   2.273   2.323  0.0749  0.3988 -0.2851
   10SOL    HW1   29   0.651   2.348   2.307  1.2313  1.0597  0.6298
   10SOL    HW2   30   0.516   2.261   2.246  0.6783 -1.0928  1.8925
   11SOL     OW   31   0.563   1.510   0.255  0.3472 -0.1708 -0.2792
   11SOL    HW1   32   0.496   1.478   0.184  0.6039  1.3106 -0.9305
   11SOL    HW2   33   0.614   1.433   0.296 -0.0967 -1.4135 -0.6428
   12SOL     OW   34   2.975   3.038   1.330 -0.8571 -0.2549 -0.0106
   12SOL    HW1   35   2.891   3.020   1.274  1.0604  0.8295 -0.6599
   12SOL    HW2   36   3.022   2.950   1.335 -2.6608 -0.3374 -4.1634
   13SOL     OW   37   0.907   2.929   0.433 -0.4803  0.0028  0.4222
   13SOL    HW1   38   0.908   2.838   0.383 -3.0028  3.1487  1.1583
   13SOL    HW2   39   0.891   2.997   0.360  1.8125 -1.0954 -0.2589
   14SOL     OW   40   1.602   1.723   1.351 -0.1538 -0.5791 -0.3331
   14SOL    HW1   41   1.533   1.690   1.280 -0.2421  0.4279  0.6939
   14SOL    HW2   42   1.685   1.659   1.348  0.8820 -1.2989  1.3429
   15SOL     OW   43   0.330   1.895   2.410  0.0271  0.3179 -0.0688
   15SOL    HW1   44   0.421   1.948   2.420  2.0543  0.3728 -0.3710
   15SOL    HW2   45   0.290   1.871   2.499 -1.1219  0.9748  1.2128
   16SOL     OW   46   1.448   0.482   2.793 -0.5215  0.5724  0.6788
   16SOL    HW1   47   1.458   0.563   2.733 -1.7254 -0.5632  0.0699
   16SOL    HW2   48   1.493   0.497   2.882  1.4415 -1.5532 -0.4245
   17SOL     OW   49   0.042   2.273   2.387  0.3995  0.3330 -0.2379
   17SOL    HW1   50   0.103   2.320   2.454 -1.8006  0.9452 -1.7860
   17SOL    HW2   51   0.095   2.203   2.333 -0.9826 -1.0270 -0.9675
   18SOL     OW   52   1.201   1.321   0.883  0.5849 -0.2666  0.4225
   18SOL    HW1   53   1.133   1.399   0.871 -1.3582  3.1139  0.6314
   18SOL    HW2   54   1.169   1.265   0.961 -2.9438 -0.9925  2.4075
   19SOL     OW   55   2.623   2.049   2.382  0.3266  0.2430  0.2381
   19SOL    HW1   56   2.706   2.007   2.343 -2.1759  0.8542  0.6595
   19SOL    HW2   57   2.640   2.155   2.385  0.2947  1.7450  2.7035
   20SOL     OW   58   2.251   2.278   2.388  0.0919  0.0757  0.5554
   20SOL    HW1   59   2.320   2.343   2.425 -1.1234 -1.5459 -0.9293
   20SOL    HW2   60   2.159   2.285   2.432  0.1081 -1.1551  2.6268
   21SOL     OW   61   1.323   1.785   0.309 -0.4101  0.3114  0.2370
   21SOL    HW1   62   1.280   1.692   0.329  0.5429 -0.2961 -0.6118
   21SOL    HW2   63   1.324   1.845   0.390 -2.3706 -0.4265  0.3293
   22SOL     OW   64   2.197   2.241   1.551 -0.1258 -0.3259  0.1330
   22SOL    HW1   65   2.242   2.330   1.528  0.3385  0.4476 -0.7200
   22SOL    HW2   66   2.112   2.254   1.607 -1.1220 -0.9491  0.0300
   23SOL     OW   67   0.027   1.208   1.127 -0.1417  0.1262 -0.7849
   23SOL    HW1   68   0.047   1.180   1.222 -1.6007  1.7482 -0.0383
   23SOL    HW2   69   0.095   1.180   1.058  1.0265 -3.3155  0.2059
   24SOL     OW   70   2.509   1.495   2.041  0.3768 -0.4167 -0.3833
   24SOL    HW1   71   2.552   1.490   1.953  0.1476 -0.5692  1.5928
   24SOL    HW2   72   2.570   1.539   2.107 -1.4426 -1.2590  1.6843
   25SOL     OW   73   1.937   0.226   2.208  0.5152 -0.0082 -0.2361
   25SOL    HW1   74   2.005   0.268   2.271  1.0340 -2.2658  2.1000
   25SOL    HW2   75   1.963   0.239   2.114 -0.7622 -2.5577  0.3068
   26SOL     OW   76   1.139   0.038   0.615  0.4978 -0.0916 -0.2757
   26SOL    HW1   77   1.046   0.077   0.596  0.0078  0.0846 -1.3556
   26SOL    HW2   78   1.193   0.115   0.657 -0.4102  0.7421 -0.4065
   27SOL     OW   79   0.681   1.534   0.595  1.2201 -0.1361 -0.2357
   27SOL    HW1   80   0.619   1.618   0.588  1.7900  0.1722 -3.1729
   27SOL    HW2   81   0.673   1.499   0.694  0.8961  1.0961 -0.0098
   28SOL     OW   82   2.415   2.057   1.152  0.0021  0.3652 -0.2295
   28SOL    HW1   83   2.401   1.975   1.216 -0.7916  0.9757  0.4075
   28SOL    HW2   84   2.339   2.125   1.160 -1.1865 -2.2213 -1.6218
   29SOL     OW   85   2.231   0.020   1.599  0.0564 -0.1378  0.2739
   29SOL    HW1   86   2.164   3.061   1.604  0.2102 -2.1513  3.1375
   29SOL    HW2   87   2.303   3.117   1.668  2.0319  0.5927 -1.3508
   30SOL     OW   88   0.868   2.999   1.116  0.1111 -0.0698  0.0823
   30SOL    HW1   89   0.794   2.936   1.146 -0.3913  1.9382 -1.2393
   30SOL    HW2   90   0.885   3.071   1.186 -1.6884  1.2342 -0.4162
   31SOL     OW   91   0.030   1.941   1.903  0.1305 -0.5295 -0.3807
   31SOL    HW1   92   0.041   1.840   1.901 -2.1253  2.0299 -1.2543
   31SOL    HW2   93   3.053   1.970   1.888  1.0588 -0.3552 -0.8394
   32SOL     OW   94   1.339   1.656   1.874 -0.2863 -0.3909 -0.1867
   32SOL    HW1   95   1.304   1.683   1.780  0.1927  1.5684 -0.0778
   32SOL    HW2   96   1.385   1.732   1.918  1.0961 -0.1791  2.2322
   33SOL     OW   97   0.251   0.036   3.039  0.7360  0.0546  0.8157
   33SOL    HW1   98   0.200   0.121   3.028 -1.1002 -1.5403 -1.3586
   33SOL    HW2   99   0.281   3.112   2.953 -0.6118 -1.0798  0.1069
   34SOL     OW  100   2.515   3.000   0.457 -0.4480 -0.0635 -0.3482
   34SOL    HW1  101   2.487   2.983   0.555 -2.2846 -1.4469 -0.7911
   34SOL    HW2  102   2.538   2.911   0.414 -0.5425 -0.7203  0.2658
   35SOL     OW  103   2.658   0.092   1.550  0.5242  0.2272 -0.2586
   35SOL    HW1  104   2.665   0.192   1.589  2.2331  0.6587  3.6841
   35SOL    HW2  105   2.574   0.066   1.496 -2.5863 -0.3666 -0.8876
   36SOL     OW  106   2.794   2.777   2.701  0.5752  0.2516  0.3338
   36SOL    HW1  107   2.806   2.869   2.743  0.2148 -0.7461  0.4585
   36SOL    HW2  108   2.848   2.764   2.616 -0.8439  0.3609  2.1296
   37SOL     OW  109   1.641   2.662   3.026  0.1403  0.4656  0.3359
   37SOL    HW1  110   1.601   2.756   3.011  1.2820 -1.7422 -0.4842
   37SOL    HW2  111   1.611   2.618   3.112  0.6600 -1.5648 -1.0061
   38SOL     OW  112   2.899   1.135   3.056 -0.2681 -0.2450 -0.2344
   38SOL    HW1  113   2.822   1.112   0.001  3.0202 -0.0859 -2.2015
   38SOL    HW2  114   2.987   1.154   3.105 -2.2044  1.7619 -2.6146
   39SOL     OW  115   1.830   1.765   2.058  0.4491  0.2068  0.9937
   39SOL    HW1  116   1.771   1.834   2.109 -0.8295 -0.3807 -3.0733
   39SOL    HW2  117   1.811   1.670   2.086  1.9633  1.3826 -1.6010
   40SOL     OW  118   0.221   0.265   2.532  0.8501 -0.7993 -0.1747
   40SOL    HW1  119   0.135   0.231   2.573  0.7071  1.6785  0.2240
   40SOL    HW2  120   0.296   0.274   2.600 -0.0139 -2.4603 -0.4798
   41SOL     OW  121   1.885   1.457   1.891 -0.2548 -0.3244 -0.5540
   41SOL    HW1  122   1.872   1.462   1.990 -0.1633  0.6140 -0.8094
   41SOL    HW2  123   1.795   1.469   1.843  0.1104 -4.7924 -0.9794
   42SOL     OW  124   3.009   0.216   1.699 -0.3190 -0.1934  0.0705
   42SOL    HW1  125   2.978   0.127   1.658 -0.6455 -2.7302 -2.4462
   42SOL    HW2  126   3.066   0.274   1.632  1.9382 -1.5033 -2.9137
   43SOL     OW  127   1.453   1.497   2.079  0.2916  0.3607 -0.4857
   43SOL    HW1  128   1.482   1.400   2.060 -1.9320 -0.4525  1.8966
   43SOL    HW2  129   1.408   1.540   1.998 -0.2977 -0.2311  0.7496
   44SOL     OW  130   3.013   0.280   0.067  0.3936  0.6972  0.2859
   44SOL    HW1  131   3.037   0.178   0.054 -0.0306 -1.8289  0.0925
   44SOL    HW2  132   2.914   0.290   0.092  1.6318 -1.5272  1.6239
   45SOL     OW  133   0.355   2.062   1.039  0.3321  0.3038  0.0486
   45SOL    HW1  134   0.328   2.080   1.136 -0.8587  0.5364 -0.2426
   45SOL    HW2  135   0.340   1.960   1.015 -1.7209 -2.0182 -0.6664
   46SOL     OW  136   2.500   2.872   1.644  0.2165  0.2515  0.4410
   46SOL    HW1  137   2.469   2.940   1.709 -2.4355 -3.3080 -0.1169
   46SOL    HW2  138   2.599   2.875   1.633 -1.0099  0.3785  2.2040
   47SOL     OW  139   0.622   1.525   1.224  0.4604  0.5598 -0.0849
   47SOL    HW1  140   0.637   1.435   1.182 -1.3711  0.9268  2.6553
   47SOL    HW2  141   0.621   1.593   1.155  1.2509 -1.4860  4.1093
   48SOL     OW  142   0.529   2.570   0.383 -0.3496  0.0556 -0.2779
   48SOL    HW1  143   0.569   2.624   0.305 -1.3042 -2.0965  1.2073
   48SOL    HW2  144   0.588   2.569   0.466  0.4094 -0.2384 -0.9726
   49SOL     OW  145   2.871   1.457   1.740 -0.5509 -0.2730 -0.3659
   49SOL    HW1  146   2.770   1.449   1.766 -0.4271 -2.2869  2.4955
   49SOL    HW2  147   2.893   1.373   1.690  2.2902 -1.2660  0.3958
   50SOL     OW  148   1.715   0.470   0.616  0.3673 -0.0836 -0.0358
   50SOL    HW1  149   1.797   0.529   0.605 -3.2380  0.5363 -0.5463
   50SOL    HW2  150   1.691   0.460   0.713  0.7986  0.6222  0.6547
   51SOL     OW  151   1.208   0.580   1.094  0.4375 -0.3618 -0.0993
   51SOL    HW1  152   1.216   0.648   1.018  0.2448  0.6310 -1.4530
   51SOL    HW2  153   1.113   0.549   1.098  0.6639 -0.4988  0.9192
   52SOL     OW  154   0.898   1.242   0.462  0.0985  0.1994  0.0656
   52SOL    HW1  155   0.906   1.159   0.408 -1.3935  1.3197  0.8139
   52SOL    HW2  156   0.821   1.227   0.528  2.8378 -1.9785  0.7654
   53SOL     OW  157   1.224   3.098   2.398 -0.7067 -0.0011 -0.1568
   53SOL    HW1  158   1.323   3.106   2.430  4.2883  0.5419 -1.8576
   53SOL    HW2  159   1.184   3.008   2.413 -0.3293  5.7683  0.8727
   54SOL     OW  160   1.795   0.773   1.792  0.0540  0.0849  0.1632
   54SOL    HW1  161   1.753   0.802   1.703  0.4532  1.0705  0.2146
   54SOL    HW2  162   1.896   0.765   1.784  0.2354  0.7743  3.5650
   55SOL     OW  163   2.988   2.790   0.366 -0.2876 -0.8169  0.1774
   55SOL    HW1  164   3.069   2.800   0.426  0.1227 -2.6000  1.2205
   55SOL    HW2  165   2.927   2.714   0.404  0.1298 -1.7415 -2.0264
   56SOL     OW  166   1.183   2.669   1.541 -0.0901 -0.3028  0.2586
   56SOL    HW1  167   1.087   2.655   1.520  2.5899  1.1391  1.4913
   56SOL    HW2  168   1.231   2.722   1.465  0.1849  1.1066  3.0631
   57SOL     OW  169   1.637   0.911   2.680  0.3333 -0.2216 -0.3768
   57SOL    HW1  170   1.641   0.950   2.773  0.1969  0.0711 -2.3814
   57SOL    HW2  171   1.567   0.840   2.665 -1.0908  2.4102 -3.0685
   58SOL     OW  172   0.325   1.246   2.138  0.2706  0.0568 -0.5207
   58SOL    HW1  173   0.276   1.251   2.226 -1.2672 -0.8904 -1.1654
   58SOL    HW2  174   0.311   1.159   2.090  1.1198 -1.0465 -0.5243
   59SOL     OW  175   0.708   2.498   1.928  0.2961  0.1829 -0.2166
   59SOL    HW1  176   0.699   2.399   1.913  1.0946  1.7051  2.1431
   59SOL    HW2  177   0.732   2.525   2.024  0.5674 -0.4562 -0.9140
   60SOL     OW  178   2.450   2.536   0.257  0.4934 -0.6256  0.6216
   60SOL    HW1  179   2.509   2.471   0.308 -0.9610  3.0861 -0.3842
   60SOL    HW2  180   2.477   2.552   0.161 -1.4101  3.5028 -1.1834
   61SOL     OW  181   0.961   2.698   0.780 -0.3466 -0.2304  0.0272
   61SOL    HW1  182   0.976   2.641   0.695 -1.7785 -1.4522  1.7608
   61SOL    HW2  183   0.947   2.795   0.764  1.3114 -0.2439 -0.4906
   62SOL     OW  184   1.673   2.409   2.606  0.3089  0.0224 -0.0726
   62SOL    HW1  185   1.681   2.343   2.526  0.5697  0.7843  0.3643
   62SOL    HW2  186   1.657   2.359   2.694 -1.3382 -1.3333  2.0594
   63SOL     OW  187   2.066   0.583   3.023 -0.4372  0.1087  0.1087
   63SOL    HW1  188   2.076   0.615   2.923 -0.0972 -0.7937  0.9678
   63SOL    HW2  189   2.137   0.641   3.073  1.5458  0.6016  2.9938
   64SOL     OW  190   0.969   1.546   3.004  0.1495 -0.4881  0.1758
   64SOL    HW1  191   0.896   1.559   2.936 -1.1619 -1.9902 -0.1243
   64SOL    HW2  192   0.946   1.473   3.073 -0.3665 -2.8834 -0.2319
   65SOL     OW  193   0.960   0.024   1.335 -0.6118  0.1538 -1.1787
   65SOL    HW1  194   1.049   3.117   1.378  1.3601 -0.6873  0.4237
   65SOL    HW2  195   0.933   0.120   1.360  0.9788  3.0407  0.1202
   66SOL     OW  196   0.672   1.228   1.542  0.0372 -0.1413 -0.0257
   66SOL    HW1  197   0.595   1.169   1.583 -1.9400  0.2989  0.7793
   66SOL    HW2  198   0.726   1.267   1.621 -1.3373  0.2495  1.5452
   67SOL     OW  199   2.494   2.569   1.888 -0.4098 -0.8992 -0.4033
   67SOL    HW1  200   2.538   2.545   1.978 -1.1850  2.2451  3.1553
   67SOL    HW2  201   2.565   2.615   1.828  0.7758  1.0877 -0.4469
   68SOL     OW  202   1.006   1.087   2.012  0.7103  0.4725  0.3305
   68SOL    HW1  203   1.018   1.077   2.113  0.0536  0.0575  0.1938
   68SOL    HW2  204   0.913   1.125   1.994  2.9696  1.2765  0.4783
   69SOL     OW  205   2.827   2.626   0.024  0.5304  0.5239 -0.0564
   69SOL    HW1  206   2.887   2.706   0.053 -0.1113  0.6196 -1.8156
   69SOL    HW2  207   2.731   2.652   0.030  1.4251 -0.3710  1.7459
   70SOL     OW  208   2.284   0.414   2.640  0.0485  0.0138 -0.5729
   70SOL    HW1  209   2.231   0.334   2.614 -1.8960 -0.3827 -2.4107
   70SOL    HW2  210   2.386   0.401   2.641  3.4684  0.1856 -0.5326
   71SOL     OW  211   0.072   2.250   0.436  0.4345  0.4079  0.1820
   71SOL    HW1  212   0.023   2.260   0.348  0.1214  0.6787 -1.9412
   71SOL    HW2  213   0.165   2.230   0.419 -2.5105 -0.8063  0.0659
   72SOL     OW  214   2.927   1.909   0.294 -0.1623 -0.0724  0.7696
   72SOL    HW1  215   2.923   1.832   0.224 -2.6238 -0.0834 -0.3201
   72SOL    HW2  216   2.888   1.992   0.246 -0.6950 -0.3727 -0.1180
   73SOL     OW  217   1.046   0.621   0.803  0.3857 -0.1570 -0.4376
   73SOL    HW1  218   1.149   0.626   0.810  5.5747  0.8016  2.8601
   73SOL    HW2  219   1.000   0.680   0.872  0.0548  0.2522  0.1303
   74SOL     OW  220   2.836   2.358   2.103  0.3540 -0.1064  0.0984
   74SOL    HW1  221   2.806   2.265   2.073 -1.3711  0.8198  3.0956
   74SOL    HW2  222   2.892   2.404   2.031 -0.5004 -0.4896  0.0251
   75SOL     OW  223   1.770   1.811   1.785 -0.0435 -0.0693 -0.1669
   75SOL    HW1  224   1.759   1.806   1.886  0.8506  0.4151 -2.6495
   75SOL    HW2  225   1.683   1.774   1.741 -0.9218 -0.2722  1.1822
   76SOL     OW  226   1.240   2.083   1.222  0.3843 -0.1522  0.0374
   76SOL    HW1  227   1.197   2.065   1.313 -1.0776  0.3283 -0.2594
   76SOL    HW2  228   1.241   1.994   1.172  2.8034  0.2743 -1.6483
   77SOL     OW  229   2.900   1.719   2.033 -0.7818 -0.1822 -0.2298
   77SOL    HW1  230   2.962   1.638   2.023 -5.6884  1.1067  2.6622
   77SOL    HW2  231   2.823   1.711   2.102 -0.7539  1.2971  0.8698
   78SOL     OW  232   1.660   0.466   0.867  0.1872  0.1093  0.1074
   78SOL    HW1  233   1.588   0.405   0.910 -0.7745  1.4640  1.5705
   78SOL    HW2  234   1.631   0.561   0.884  1.1154 -3.1659 -1.8603
   79SOL     OW  235   2.152   1.541   1.827  0.0989 -0.0396 -0.5834
   79SOL    HW1  236   2.196   1.472   1.883 -0.8477  0.4218 -3.8048
   79SOL    HW2  237   2.055   1.511   1.820  2.6500  1.3066 -0.1835
   80SOL     OW  238   1.191   0.371   1.275  0.4839 -0.1162  0.1730
   80SOL    HW1  239   1.182   0.460   1.228 -3.3200  1.5920  1.3720
   80SOL    HW2  240   1.250   0.379   1.357  2.6803 -0.4138 -1.6351
   81SOL     OW  241   0.851   2.325   0.644 -0.6823  0.3807 -0.3957
   81SOL    HW1  242   0.926   2.384   0.615 -1.0531 -0.6411 -0.4884
   81SOL    HW2  243   0.877   2.221   0.653  0.1054 -4.8139  1.2762
   82SOL     OW  244   1.336   0.639   1.961 -0.6321  0.3294 -0.3428
   82SOL    HW1  245   1.430   0.624   1.924  0.0550  0.9375 -1.4392
   82SOL    HW2  246   1.277   0.558   1.932  1.7333 -1.8376 -3.4115
   83SOL     OW  247   0.381   2.296   0.664 -0.6544 -0.0601 -0.3523
   83SOL    HW1  248   0.328   2.248   0.592  1.2531  0.1093  2.9823
   83SOL    HW2  249   0.337   2.281   0.753 -0.3301  0.2788 -2.8189
   84SOL     OW  250   2.701   1.512   0.013 -0.2435 -0.1531  0.3905
   84SOL    HW1  251   2.781   1.502   3.078 -0.0432 -1.0858 -1.5466
   84SOL    HW2  252   2.614   1.508   3.070 -1.2611  2.6586 -4.0011
   85SOL     OW  253   2.915   2.418   1.653  0.1164  0.1850  0.1749
   85SOL    HW1  254   2.829   2.362   1.642  0.5000 -0.5197 -1.4215
   85SOL    HW2  255   2.946   2.422   1.752  0.6861 -0.1021  2.4101
   86SOL     OW  256   1.684   2.772   1.240  0.2179 -0.1241  0.2109
   86SOL    HW1  257   1.766   2.712   1.260 -1.3028  1.5404 -1.7171
   86SOL    HW2  258   1.711   2.855   1.186  0.4930 -0.5230  0.4494
   87SOL     OW  259   2.745   1.619   0.308 -0.4992  1.0176  0.1944
   87SOL    HW1  260   2.652   1.651   0.330  1.5817  1.0225 -0.6766
   87SOL    HW2  261   2.748   1.594   0.209 -2.1314 -2.3654 -0.0757
   88SOL     OW  262   0.945   0.455   1.105 -0.0348 -0.1115  0.5036
   88SOL    HW1  263   0.881   0.452   1.180  2.3635 -1.0185 -0.9126
   88SOL    HW2  264   0.928   0.377   1.043  0.2379  0.3953 -2.2477
   89SOL     OW  265   0.922   2.936   1.797  0.2664  0.6072  0.0451
   89SOL    HW1  266   0.823   2.945   1.794  1.6023  2.1150  0.7172
   89SOL    HW2  267   0.950   2.837   1.785  2.1118  0.1953  0.8270
   90SOL     OW  268   0.005   1.678   1.098  0.6971 -0.0068  0.1227
   90SOL    HW1  269   3.049   1.652   1.038 -0.3786 -0.4619  2.3354
   90SOL    HW2  270   0.008   1.781   1.110  2.8205  0.7459  1.9884
   91SOL     OW  271   1.393   1.702   1.170 -0.0163 -0.5321  0.1364
   91SOL    HW1  272   1.330   1.719   1.250 -1.7674  0.1130  1.4328
   91SOL    HW2  273   1.394   1.603   1.151  1.1271 -0.6359 -0.2141
   92SOL     OW  274   2.884   3.057   1.934  0.0750  0.2065 -0.3871
   92SOL    HW1  275   2.815   0.011   1.913  0.4654  0.3700 -1.4328
   92SOL    HW2  276   2.963   3.063   1.874  1.5288  1.5731  1.1757
   93SOL     OW  277   0.114   1.299   2.567 -0.1902  0.0873  0.3554
   93SOL    HW1  278   0.085   1.275   2.667  0.7699 -0.0180  0.0444
   93SOL    HW2  279   0.196   1.244   2.539 -0.9540  0.1697 -0.7701
   94SOL     OW  280   2.419   3.083   1.791 -0.0380 -0.0722  0.1050
   94SOL    HW1  281   2.392   3.036   1.881  0.2758 -0.2397  3.0996
   94SOL    HW2  282   2.513   0.001   1.803 -0.7038 -1.4289  0.3804
   95SOL     OW  283   1.598   0.946   2.086 -0.5363  0.3201  0.5869
   95SOL    HW1  284   1.506   0.981   2.111  0.9070  0.2056 -1.3644
   95SOL    HW2  285   1.620   0.956   1.986 -1.9174 -1.4537 -0.8063
   96SOL     OW  286   2.762   0.758   1.836 -0.2231  0.1376 -0.2544
   96SOL    HW1  287   2.848   0.799   1.871 -0.2476 -1.9564 -2.2412
   96SOL    HW2  288   2.762   0.765   1.738 -0.1011 -2.5852 -1.8908
   97SOL     OW  289   2.442   0.033   1.405 -0.2779 -0.2676 -0.2417
   97SOL    HW1  290   2.458   3.065   1.358  1.4532  0.8788 -1.9688
   97SOL    HW2  291   2.354   0.033   1.460  1.4112  0.7348  0.7668
   98SOL     OW  292   2.331   2.524   1.451  0.3261  0.0705 -0.7966
   98SOL    HW1  293   2.393   2.606   1.456  2.3628  0.3908  0.4001
   98SOL    HW2  294   2.238   2.536   1.491 -1.2200 -2.3966 -2.1236
   99SOL     OW  295   2.707   0.312   1.689  0.0690  0.3311  0.5496
   99SOL    HW1  296   2.661   0.402   1.702 -0.8988  0.4853  0.6395
   99SOL    HW2  297   2.809   0.322   1.695 -0.6133 -0.5496  2.2372
  100SOL     OW  298   2.326   1.716   2.005 -0.0737  0.1636 -0.0662
  100SOL    HW1  299   2.384   1.633   2.012  0.6727  1.6968 -1.5178
  100SOL    HW2  300   2.242   1.710   2.056 -0.0129  0.7131 -2.1700
  101SOL     OW  301   2.148   0.006   0.042 -0.8969  0.4856  0.5154
  101SOL    HW1  302   2.210   3.075   0.106 -1.5932 -0.3182  1.9573
  101SOL    HW2  303   2.138   0.106   0.063  2.7869  0.9746 -1.7879
  102SOL     OW  304   0.656   0.633   1.238 -0.2427  0.6160 -0.2361
  102SOL    HW1  305   0.653   0.536   1.218 -1.2374  1.6949 -1.1734
  102SOL    HW2  306   0.575   0.673   1.189  1.0819  0.0877  1.9320
  103SOL     OW  307   2.887   0.075   2.417  0.1092 -0.6095  0.7489
  103SOL    HW1  308   2.825   0.092   2.501 -0.3393 -1.3721  2.0532
  103SOL    HW2  309   2.926   3.100   2.427  0.6036 -0.5264 -2.6680
  104SOL     OW  310   0.108   2.746   1.608 -0.2828 -0.7615 -0.4202
  104SOL    HW1  311   0.095   2.715   1.706  3.8992 -1.9433  1.9623
  104SOL    HW2  312   0.147   2.667   1.549  0.5399 -1.6446 -0.3445
  105SOL     OW  313   1.331   1.052   2.115 -0.0514  0.5247 -0.1476
  105SOL    HW1  314   1.271   1.125   2.151 -0.0073 -3.2011  2.6746
  105SOL    HW2  315   1.287   0.961   2.128 -0.8403 -0.7641  1.2038
  106SOL     OW  316   1.924   0.542   0.972 -0.4737  0.0026 -0.2228
  106SOL    HW1  317   1.927   0.631   1.020  1.0107  0.1244 -1.2680
  106SOL    HW2  318   1.828   0.518   0.950  3.2546 -0.1961  0.1543
  107SOL     OW  319   0.624   0.949   1.305  0.2633  0.3136 -0.3357
  107SOL    HW1  320   0.594   0.879   1.375  0.7424  0.9660  3.4704
  107SOL    HW2  321   0.685   1.020   1.342 -2.5481  0.8158 -2.0985
  108SOL     OW  322   3.075   0.583   2.319  0.2150 -0.4646 -0.0391
  108SOL    HW1  323   3.053   0.564   2.222 -2.8138  1.7242 -0.3611
  108SOL    HW2  324   3.027   0.519   2.375 -1.9020 -1.0533 -1.9492
  109SOL     OW  325   2.011   3.086   2.910  0.0878 -0.5218  0.2881
  109SOL    HW1  326   2.087   3.099   2.976 -2.6400  1.2457  0.6807
  109SOL    HW2  327   2.019   0.029   2.832 -0.1273 -0.2859  2.6162
  110SOL     OW  328   0.011   1.760   2.797 -0.0457  0.1921 -0.0135
  110SOL    HW1  329   3.031   1.763   2.771 -0.6783 -0.7065  0.5964
  110SOL    HW2  330   0.023   1.735   2.895 -0.1497 -1.4409 -0.3732
  111SOL     OW  331   2.786   0.503   2.630  0.4051  0.1909  0.1441
  111SOL    HW1  332   2.713   0.454   2.683 -0.3912 -0.1919 -0.0040
  111SOL    HW2  333   2.842   0.437   2.571 -1.3785  2.1632 -1.4061
  112SOL     OW  334   2.638   2.755   0.946  0.3395  0.1303 -0.0723
  112SOL    HW1  335   2.628   2.657   0.940  1.6399  1.9922  0.9383
  112SOL    HW2  336   2.736   2.781   0.944 -3.0703  1.1168 -0.6873
  113SOL     OW  337   2.362   2.298   2.133 -0.2483 -0.2002 -0.2950
  113SOL    HW1  338   2.318   2.296   2.223  0.9162  1.8312 -0.5203
  113SOL    HW2  339   2.452   2.350   2.133  0.7679 -1.2169  1.0520
  114SOL     OW  340   2.686   0.069   0.376 -0.4034 -0.0859 -0.5465
  114SOL    HW1  341   2.629   3.117   0.417  2.3054  1.8562 -2.7179
  114SOL    HW2  342   2.688   0.153   0.435  2.5056  2.9981  0.6580
  115SOL     OW  343   2.858   1.896   3.056  0.1892  0.0654  0.1601
  115SOL    HW1  344   2.907   1.823   3.101 -1.3120  2.0534 -0.7317
  115SOL    HW2  345   2.852   1.874   2.961  0.8784  0.2054  0.7535
  116SOL     OW  346   0.007   1.229   1.842 -0.0928  0.1179 -0.3438
  116SOL    HW1  347   0.093   1.277   1.816  1.6234  2.7590 -0.1050
  116SOL    HW2  348   0.002   1.230   1.945 -1.0370  1.0007  2.6142
  117SOL     OW  349   2.145   0.153   1.038  0.2736 -0.5507 -0.3774
  117SOL    HW1  350   2.143   0.051   1.025 -0.6955  0.2763  0.7595
  117SOL    HW2  351   2.072   0.185   1.100  1.1575 -1.1905 -0.3443
  118SOL     OW  352   0.136   2.117   1.729  0.3885  0.1233 -0.2296
  118SOL    HW1  353   0.092   2.054   1.793 -0.6183  0.6436  1.0833
  118SOL    HW2  354   0.228   2.084   1.696  2.8216  0.7265 -1.4472
  119SOL     OW  355   0.962   1.871   1.333 -0.0184 -0.0715 -0.1121
  119SOL    HW1  356   0.903   1.898   1.257  1.8545 -1.6251  0.8145
  119SOL    HW2  357   0.929   1.782   1.375  0.0633 -3.1179  2.1121
  120SOL     OW  358   0.393   1.704   1.367  0.3471  0.2583  0.9785
  120SOL    HW1  359   0.337   1.699   1.452  0.5861 -0.1953  4.0951
  120SOL    HW2  360   0.468   1.774   1.374  0.6692 -0.3230  1.0946
  121SOL     OW  361   2.049   1.316   1.105  0.4242  0.3558 -0.2016
  121SOL    HW1  362   1.947   1.333   1.111 -3.1554 -1.2283 -0.5241
  121SOL    HW2  363   2.100   1.395   1.145 -1.9891  1.8928 -1.5067
  122SOL     OW  364   1.862   2.010   2.741 -0.4139  0.2888  0.5135
  122SOL    HW1  365   1.860   1.909   2.760 -2.1853  2.3662 -0.5466
  122SOL    HW2  366   1.880   2.035   2.642  1.7977  0.5864  1.9773
  123SOL     OW  367   2.920   3.050   0.421 -0.3318  0.1231 -0.3045
  123SOL    HW1  368   2.830   3.089   0.384 -2.9150 -2.1746  3.8079
  123SOL    HW2  369   2.920   2.948   0.388 -0.7980 -0.9848 -1.1006
  124SOL     OW  370   0.960   1.008   0.349  0.5475 -0.1435 -0.1389
  124SOL    HW1  371   0.856   1.009   0.330  1.3384 -1.8849 -2.3315
  124SOL    HW2  372   1.005   0.932   0.299  1.9962 -0.3645 -2.5665
  125SOL     OW  373   0.085   1.399   2.301  0.3241  0.3525  0.6276
  125SOL    HW1  374   0.079   1.498   2.274 -0.0172  0.0163 -0.5378
  125SOL    HW2  375   0.129   1.386   2.389 -1.1214  0.7664 -1.9602
  126SOL     OW  376   0.165   2.613   0.280 -0.3266 -0.2106  0.1267
  126SOL    HW1  377   0.183   2.711   0.251  0.6021  1.6507 -0.1606
  126SOL    HW2  378   0.199   2.601   0.373  0.4493 -2.2860 -1.4538
  127SOL     OW  379   2.948   1.666   0.476  0.2057  0.2631 -0.0935
  127SOL    HW1  380   2.868   1.656   0.415 -0.3403 -0.3669 -2.0707
  127SOL    HW2  381   3.000   1.579   0.497 -0.7652 -2.4416  0.5517
  128SOL     OW  382   1.196   1.076   0.729 -0.4411 -0.4400 -0.6887
  128SOL    HW1  383   1.186   1.153   0.799 -0.3696  2.8127  0.2231
  128SOL    HW2  384   1.288   1.028   0.741 -0.0454 -0.0514 -0.9501
  129SOL     OW  385   2.139   2.086   1.326 -0.1529  0.4585  0.4007
  129SOL    HW1  386   2.190   2.128   1.401 -1.5336 -1.9510 -2.0992
  129SOL    HW2  387   2.047   2.045   1.347 -1.1925  0.2903  0.7786
  130SOL     OW  388   1.928   1.080   0.763  0.3541  0.2148  0.1309
  130SOL    HW1  389   1.899   1.126   0.675  1.3614 -0.3625 -1.4384
  130SOL    HW2  390   2.007   1.131   0.805  0.6436 -0.1232 -0.0508
  131SOL     OW  391   2.921   1.142   2.788 -0.4069 -0.4052 -0.7814
  131SOL    HW1  392   2.916   1.138   2.892 -1.5329  0.5872  1.1022
  131SOL    HW2  393   2.831   1.125   2.746  2.3933  0.0085  0.6026
  132SOL     OW  394   1.543   1.276   2.334 -0.4078  0.1492  0.0919
  132SOL    HW1  395   1.579   1.210   2.403  1.3955 -1.5978 -0.9573
  132SOL    HW2  396   1.571   1.261   2.238  0.3841  2.8190  2.1150
  133SOL     OW  397   0.020   1.156   0.126 -0.2122  0.1031 -0.8133
  133SOL    HW1  398   0.108   1.121   0.159 -1.2839 -0.1514  0.6444
  133SOL    HW2  399   3.111   1.240   0.173 -2.8304  2.6020  1.5030
  134SOL     OW  400   2.640   0.919   0.508 -0.9161  0.0932  0.5392
  134SOL    HW1  401   2.575   0.975   0.562 -0.9964  2.5605  2.7906
  134SOL    HW2  402   2.721   0.890   0.565 -0.8450  1.1617  2.7842
  135SOL     OW  403   1.786   0.803   2.983 -0.4432 -0.1190 -0.3985
  135SOL    HW1  404   1.829   0.723   2.938 -1.0009  0.5658  5.2830
  135SOL    HW2  405   1.759   0.785   3.080  0.7675 -0.3502 -2.6393
  136SOL     OW  406   1.844   2.023   1.656 -0.3245 -0.1764  0.0609
  136SOL    HW1  407   1.812   1.934   1.697  1.3539 -0.1297  0.3172
  136SOL    HW2  408   1.768   2.091   1.647 -0.8899  0.0240 -2.2202
  137SOL     OW  409   2.326   2.615   0.534  0.1367  0.9123  0.0129
  137SOL    HW1  410   2.341   2.542   0.607 -2.2069 -1.9721  0.7981
  137SOL    HW2  411   2.410   2.644   0.485 -0.8998  1.1636 -0.6470
  138SOL     OW  412   2.275   0.480   1.599  0.7172  0.0256 -0.3915
  138SOL    HW1  413   2.223   0.392   1.594 -1.0879 -1.0766  0.4685
  138SOL    HW2  414   2.328   0.489   1.686 -1.2471  0.1324  1.4960
  139SOL     OW  415   2.683   0.135   2.619  0.3530 -0.0069 -0.2106
  139SOL    HW1  416   2.586   0.119   2.649 -1.1477 -1.3548  1.1383
  139SOL    HW2  417   2.729   0.195   2.689 -0.5085  0.2524  4.0562
  140SOL     OW  418   1.228   1.879   2.141  0.2301  0.3573  0.7257
  140SOL    HW1  419   1.230   1.801   2.209 -0.1557  1.8658  2.6611
  140SOL    HW2  420   1.299   1.873   2.067 -0.7477 -1.2393  1.9950
  141SOL     OW  421   0.732   0.550   2.419 -0.1634 -0.2223 -0.0953
  141SOL    HW1  422   0.663   0.602   2.366 -0.5911  0.3054  1.0811
  141SOL    HW2  423   0.821   0.596   2.413 -2.0064 -0.2682 -1.6376
  142SOL     OW  424   2.875   2.554   2.872  0.1551  0.1345  0.1375
  142SOL    HW1  425   2.824   2.568   2.961 -1.8924 -0.1654  3.7676
  142SOL    HW2  426   2.843   2.616   2.800 -0.0199 -0.2418  0.4497
  143SOL     OW  427   0.895   2.071   0.375  0.0810 -0.0798  0.2819
  143SOL    HW1  428   0.825   2.151   0.371 -2.7196  0.3674 -0.9079
  143SOL    HW2  429   0.980   2.088   0.433  0.5397 -1.1117  0.9546
  144SOL     OW  430   1.529   2.528   0.113  0.2376  0.1698 -0.3731
  144SOL    HW1  431   1.437   2.507   0.073  0.1363  1.7029 -2.2581
  144SOL    HW2  432   1.515   2.606   0.180 -1.5740  0.4940  1.1479
  145SOL     OW  433   1.545   2.018   2.715 -0.1558 -0.3251  0.3330
  145SOL    HW1  434   1.602   2.079   2.773  0.1198  1.1742  1.1633
  145SOL    HW2  435   1.600   1.967   2.642  2.1463  1.6684 -1.4619
  146SOL     OW  436   2.824   3.031   2.780  0.5370 -0.0875 -0.4558
  146SOL    HW1  437   2.764   3.012   2.862 -0.6185 -1.5943  0.0420
  146SOL    HW2  438   2.810   0.010   2.759 -0.2464  0.3851  1.1370
  147SOL     OW  439   2.864   1.118   0.915  0.0665 -0.0025  0.0114
  147SOL    HW1  440   2.837   1.114   1.013  2.7913  2.9908 -0.5727
  147SOL    HW2  441   2.864   1.212   0.885  1.6350 -2.2789  0.3492
  148SOL     OW  442   2.281   2.781   0.031 -0.1916 -0.5348 -0.2150
  148SOL    HW1  443   2.236   2.780   0.124 -1.9517  0.5231 -0.4955
  148SOL    HW2  444   2.224   2.742   3.080 -1.4796 -2.1730  1.0727
  149SOL     OW  445   0.544   1.755   2.754 -0.3213 -0.1477 -0.2231
  149SOL    HW1  446   0.592   1.717   2.838  1.2872  0.1687  0.9662
  149SOL    HW2  447   0.488   1.834   2.788  2.3628  0.2379  2.8428
  150SOL     OW  448   0.296   2.553   0.521  0.6609 -0.1145  0.0431
  150SOL    HW1  449   0.366   2.541   0.450 -1.4253  1.8242 -0.4071
  150SOL    HW2  450   0.310   2.490   0.601 -0.6178 -1.8433 -1.4634
  151SOL     OW  451   0.278   1.094   0.260  0.4041 -0.1446  0.5028
  151SOL    HW1  452   0.271   0.995   0.281  2.0868  1.2578  2.6615
  151SOL    HW2  453   0.264   1.153   0.344  0.8738  0.5902  1.7355
  152SOL     OW  454   2.717   1.902   0.466 -0.6818 -0.0239  0.4462
  152SOL    HW1  455   2.800   1.872   0.415 -0.8972  1.7977  0.6775
  152SOL    HW2  456   2.634   1.855   0.435  1.7908  0.7096  1.6611
  153SOL     OW  457   1.848   2.390   0.645 -0.7274  0.2313 -0.0768
  153SOL    HW1  458   1.946   2.369   0.673 -0.2753 -0.9173  0.1453
  153SOL    HW2  459   1.820   2.337   0.563 -1.0498  1.5847 -2.5621
  154SOL     OW  460   1.078   2.642   1.008 -0.0427  0.4036 -0.2855
  154SOL    HW1  461   1.025   2.677   0.924 -0.9754  2.3818 -0.8865
  154SOL    HW2  462   1.022   2.560   1.052 -1.4184 -3.1201  2.2056
  155SOL     OW  463   2.811   1.779   0.725  0.6520  0.3456 -0.0402
  155SOL    HW1  464   2.713   1.812   0.714  0.3931  1.8240  3.6975
  155SOL    HW2  465   2.856   1.748   0.639 -0.2170 -0.5243 -0.3048
  156SOL     OW  466   2.759   2.359   0.097 -0.2116  0.0081  0.1363
  156SOL    HW1  467   2.656   2.346   0.080 -1.9308 -0.4669 -0.9306
  156SOL    HW2  468   2.800   2.447   0.081 -0.7246  0.9406  0.1860
  157SOL     OW  469   0.490   2.169   1.430  0.2629  0.0334 -0.2412
  157SOL    HW1  470   0.561   2.171   1.358 -1.0335 -2.0692  3.2181
  157SOL    HW2  471   0.395   2.161   1.386 -2.3147 -0.6046 -1.9587
  158SOL     OW  472   1.515   0.383   0.148 -0.1320 -0.2450 -0.5361
  158SOL    HW1  473   1.550   0.456   0.214 -1.3429  0.6413 -0.2678
  158SOL    HW2  474   1.547   0.292   0.176  0.8657  2.1790  0.5911
  159SOL     OW  475   1.426   0.735   0.381  0.5133 -0.2632 -0.0584
  159SOL    HW1  476   1.479   0.649   0.387 -1.4568  2.1827  0.2991
  159SOL    HW2  477   1.325   0.715   0.390  1.8355 -0.8283 -0.5809
  160SOL     OW  478   0.710   1.222   0.704  0.3049 -0.4904 -0.2206
  160SOL    HW1  479   0.650   1.167   0.759  0.5222 -0.0786 -2.9908
  160SOL    HW2  480   0.742   1.312   0.741 -0.2536  3.7309  1.4125
  161SOL     OW  481   0.191   2.371   2.600 -0.4163 -0.0288 -0.0872
  161SOL    HW1  482   0.156   2.344   2.688 -1.6882 -3.0722 -2.9629
  161SOL    HW2  483   0.293   2.350   2.590 -0.5526 -0.7088  2.0847
  162SOL     OW  484   0.154   2.397   1.221  0.0256  0.1446 -0.1614
  162SOL    HW1  485   0.079   2.331   1.203 -1.0371  1.6911  0.9093
  162SOL    HW2  486   0.182   2.437   1.134  0.6837  2.9075  3.1269
  163SOL     OW  487   3.110   0.522   2.916 -0.1003  0.3515 -0.2703
  163SOL    HW1  488   0.027   0.614   2.896 -1.9171 -0.5814  0.4732
  163SOL    HW2  489   3.069   0.524   3.007  1.5316 -0.2599 -0.1660
  164SOL     OW  490   0.397   3.081   2.541  0.1655 -0.6244  0.2270
  164SOL    HW1  491   0.450   3.089   2.632  0.2405  1.4599  2.8276
  164SOL    HW2  492   0.324   3.013   2.547  0.6747  0.8060  1.8938
  165SOL     OW  493   2.355   0.616   1.868  0.1785  0.1962  0.1763
  165SOL    HW1  494   2.354   0.555   1.949 -0.5641  0.5731 -0.7014
  165SOL    HW2  495   2.289   0.693   1.879  3.3728 -1.3520 -2.4011
  166SOL     OW  496   1.977   2.246   1.709  0.4113  0.2347 -0.1836
  166SOL    HW1  497   2.011   2.253   1.804 -0.7296  1.6862  1.1947
  166SOL    HW2  498   1.940   2.151   1.700  1.5007 -0.1798 -0.2172
  167SOL     OW  499   0.634   1.115   2.450  0.6118  0.6042 -0.6857
  167SOL    HW1  500   0.667   1.207   2.439 -1.5627 -2.6873 -1.5542
  167SOL    HW2  501   0.678   1.063   2.528  2.3125 -2.1676 -0.6963
  168SOL     OW  502   2.333   3.104   2.307  0.0100  0.1171 -0.0077
  168SOL    HW1  503   2.358   0.079   2.335  0.9985 -1.9751 -0.6526
  168SOL    HW2  504   2.233   3.096   2.273 -1.1486  0.9260 -1.9287
  169SOL     OW  505   0.239   0.834   0.368 -0.7053 -0.0823  0.8118
  169SOL    HW1  506   0.297   0.758   0.406  0.2213  0.2618 -0.4508
  169SOL    HW2  507   0.166   0.808   0.294 -1.9276 -0.5378 -1.0733
  170SOL     OW  508   0.241   1.372   1.726  0.5248 -0.1658  0.3744
  170SOL    HW1  509   0.203   1.397   1.634 -1.6885  2.3946  2.1495
  170SOL    HW2  510   0.314   1.436   1.753  1.2817  0.6820 -0.0517
  171SOL     OW  511   1.182   2.223   1.757 -0.0170  0.2157  0.3040
  171SOL    HW1  512   1.108   2.225   1.687  0.0292  3.8909 -0.7631
  171SOL    HW2  513   1.244   2.309   1.744  2.5815  2.7094  0.0544
  172SOL     OW  514   1.444   2.648   2.007 -0.2284  0.4280 -0.1574
  172SOL    HW1  515   1.380   2.682   1.932 -0.9925 -1.0836  2.6632
  172SOL    HW2  516   1.451   2.710   2.085 -2.2040 -0.1681  0.1260
  173SOL     OW  517   1.489   2.518   0.629 -0.2892 -0.1770 -0.4728
  173SOL    HW1  518   1.554   2.443   0.638 -1.1568  2.1812  0.3935
  173SOL    HW2  519   1.473   2.578   0.713 -1.7638  1.2415  1.2810
  174SOL     OW  520   2.375   0.004   0.251 -0.2471 -0.1738 -0.2851
  174SOL    HW1  521   2.415   3.086   0.338  0.8599  1.3109  0.0894
  174SOL    HW2  522   2.386   0.103   0.251  2.6899  1.0621  1.2134
  175SOL     OW  523   0.918   1.497   0.464  0.6291  0.1313  0.0010
  175SOL    HW1  524   0.826   1.518   0.507 -2.5492  3.2744  0.0804
  175SOL    HW2  525   0.917   1.394   0.453 -2.5823 -2.9319 -1.0500
  176SOL     OW  526   0.535   1.763   0.614  0.3314  0.1985  0.0139
  176SOL    HW1  527   0.569   1.826   0.544 -2.0708 -1.5191 -0.3915
  176SOL    HW2  528   0.439   1.790   0.627 -0.7452  2.0815  0.1145
  177SOL     OW  529   1.232   1.253   1.637 -0.4489  0.0142 -0.9599
  177SOL    HW1  530   1.173   1.271   1.720  1.1248  2.6547  1.7660
  177SOL    HW2  531   1.331   1.255   1.669  2.3824  0.5009  0.5166
  178SOL     OW  532   2.500   1.731   0.402 -0.0906  0.4247  0.1944
  178SOL    HW1  533   2.436   1.799   0.365 -0.3650 -1.4992 -0.1499
  178SOL    HW2  534   2.462   1.636   0.389 -0.3851  0.0119 -0.4345
  179SOL     OW  535   1.279   2.437   0.014  0.0720 -0.3425 -0.3698
  179SOL    HW1  536   1.300   2.380   3.053 -1.6493 -3.5368  1.3632
  179SOL    HW2  537   1.228   2.387   0.084 -0.7488 -1.2233  0.7568
  180SOL     OW  538   2.043   1.460   2.129  0.0710  0.5914  0.6941
  180SOL    HW1  539   2.074   1.551   2.098 -0.3936  0.2462  0.6503
  180SOL    HW2  540   2.109   1.381   2.110  2.7107  1.1183 -2.5701
  181SOL     OW  541   0.809   0.982   2.618 -0.1324 -0.1193 -0.3553
  181SOL    HW1  542   0.825   0.917   2.691  0.0646 -0.6214  2.9857
  181SOL    HW2  543   0.859   1.073   2.626 -0.2068 -2.5798 -1.4611
  182SOL     OW  544   2.817   1.098   2.420 -0.6958  0.0639  0.1998
  182SOL    HW1  545   2.786   1.114   2.514  0.5918  2.9850  2.1160
  182SOL    HW2  546   2.920   1.101   2.434  1.5259  2.0746  0.2811
  183SOL     OW  547   1.271   0.730   2.436 -0.0487  0.5884  0.6455
  183SOL    HW1  548   1.224   0.640   2.428  1.1706 -1.5696  0.3169
  183SOL    HW2  549   1.269   0.774   2.343  0.6546 -1.6141 -0.2744
  184SOL     OW  550   0.606   0.391   1.704  0.0571 -0.8069 -0.3217
  184SOL    HW1  551   0.627   0.484   1.744 -0.5690  3.4612  2.1793
  184SOL    HW2  552   0.586   0.401   1.604 -1.7234  0.5167 -1.8471
  185SOL     OW  553   2.083   1.785   0.561 -0.2481 -0.4483  0.4220
  185SOL    HW1  554   2.119   1.877   0.572  0.2603 -1.0813  1.5814
  185SOL    HW2  555   2.107   1.743   0.646 -1.4100 -1.3333 -0.6048
  186SOL     OW  556   0.295   1.950   0.228 -0.1743 -0.4176 -0.0385
  186SOL    HW1  557   0.369   1.885   0.213 -2.8095 -1.8482  0.1734
  186SOL    HW2  558   0.215   1.907   0.273  0.4883  2.4430 -2.5196
  187SOL     OW  559   1.989   2.050   0.278 -0.2810 -0.1514 -0.4048
  187SOL    HW1  560   2.038   2.140   0.292  1.9239  0.5034 -2.9446
  187SOL    HW2  561   1.962   2.039   0.183 -0.5426  0.1636  1.0006
  188SOL     OW  562   1.021   2.045   0.982 -0.2862  0.0446  0.0316
  188SOL    HW1  563   1.093   1.981   1.024  0.2848 -0.0378  0.5936
  188SOL    HW2  564   0.997   2.121   1.040  0.9956 -3.8378 -3.9928
  189SOL     OW  565   2.161   1.303   2.815  0.2122  0.2997 -0.1911
  189SOL    HW1  566   2.095   1.271   2.885  0.5592  1.5576  2.7855
  189SOL    HW2  567   2.252   1.324   2.852  0.8089  0.4195  0.0909
  190SOL     OW  568   1.169   2.357   2.155  0.3506 -0.1773  0.0494
  190SOL    HW1  569   1.099   2.351   2.231  0.9985 -1.2103  2.0787
  190SOL    HW2  570   1.141   2.288   2.083 -0.0033  1.2799  1.1488
  191SOL     OW  571   2.434   0.779   1.378 -0.3512  0.0980  0.0487
  191SOL    HW1  572   2.522   0.754   1.332  0.6005 -0.0108  0.1356
  191SOL    HW2  573   2.427   0.739   1.469 -1.0828  2.0522 -0.6603
  192SOL     OW  574   2.600   0.560   1.741 -0.2459 -0.5721 -0.6383
  192SOL    HW1  575   2.505   0.593   1.768 -2.0471  0.0232  0.2658
  192SOL    HW2  576   2.668   0.632   1.766  2.8088 -0.6758  2.0141
  193SOL     OW  577   0.608   0.062   0.509 -0.1458 -0.1860  0.3304
  193SOL    HW1  578   0.696   0.101   0.543 -0.4405 -0.4573 -0.7587
  193SOL    HW2  579   0.605   3.085   0.537  0.9982 -1.3316  0.5815
  194SOL     OW  580   1.335   2.452   1.664 -0.3060 -0.0657  0.0960
  194SOL    HW1  581   1.410   2.425   1.598 -0.4975  0.0790 -0.9343
  194SOL    HW2  582   1.283   2.534   1.630  4.0635 -2.2975  0.9889
  195SOL     OW  583   2.441   1.103   0.655 -0.4759  0.2353 -0.2581
  195SOL    HW1  584   2.481   1.194   0.689  1.4609  1.3182  1.8737
  195SOL    HW2  585   2.377   1.124   0.582  2.9757 -0.9287  2.6724
  196SOL     OW  586   0.962   2.266   1.612  0.4615  0.3257 -0.1237
  196SOL    HW1  587   0.951   2.368   1.610 -2.5994 -0.7120  2.5291
  196SOL    HW2  588   0.872   2.210   1.624 -2.2955 -1.2098 -0.5551
  197SOL     OW  589   0.276   0.779   2.570  0.2103 -0.1507 -0.1344
  197SOL    HW1  590   0.237   0.842   2.501  1.9117  0.8154 -0.3617
  197SOL    HW2  591   0.248   0.683   2.546  0.9252 -1.4741  1.6172
  198SOL     OW  592   1.462   0.865   0.150  0.3143 -0.2982 -0.0713
  198SOL    HW1  593   1.447   0.824   0.241  0.9020 -2.3207 -2.7637
  198SOL    HW2  594   1.436   0.964   0.152 -0.9105  3.9718  0.0197
  199SOL     OW  595   2.697   0.625   2.210  0.5524  0.1831  0.3074
  199SOL    HW1  596   2.682   0.653   2.308 -1.4328  3.1064 -0.6159
  199SOL    HW2  597   2.659   0.700   2.150  1.7622  1.4707  1.0960
  200SOL     OW  598   2.441   2.432   2.543  0.0990 -0.7700 -0.2382
  200SOL    HW1  599   2.464   2.513   2.483 -1.7590 -0.5046  1.4007
  200SOL    HW2  600   2.466   2.433   2.642  0.9427 -1.0492  0.0939
  201SOL     OW  601   2.373   0.279   1.288  0.1235 -0.0798  0.4317
  201SOL    HW1  602   2.396   0.198   1.342 -1.0902  2.1679 -1.9101
  201SOL    HW2  603   2.347   0.254   1.192 -0.8399  0.8001 -3.3198
  202SOL     OW  604   0.239   2.878   0.221  0.5648  0.0782  0.4654
  202SOL    HW1  605   0.183   2.945   0.277  0.0458 -1.0935 -0.1464
  202SOL    HW2  606   0.339   2.885   0.240 -0.8438 -1.4504 -1.1447
  203SOL     OW  607   1.123   2.295   2.663  0.6712  0.0862  0.0768
  203SOL    HW1  608   1.021   2.297   2.675  0.8562 -0.7393 -0.1041
  203SOL    HW2  609   1.155   2.197   2.657 -1.9788  0.7725  0.3817
  204SOL     OW  610   0.548   2.028   2.461  0.1980 -0.1305  0.0032
  204SOL    HW1  611   0.560   2.114   2.408  1.2278 -0.3297 -0.0349
  204SOL    HW2  612   0.623   2.021   2.533  2.3029  0.4427  1.1491
  205SOL     OW  613   0.966   0.995   1.335  0.2670  0.0458  0.4951
  205SOL    HW1  614   0.927   0.897   1.323 -2.2188 -1.6643 -0.4912
  205SOL    HW2  615   1.055   1.000   1.381 -2.5621 -0.2793  1.7237
  206SOL     OW  616   0.101   0.763   2.813  0.0650 -0.0487  0.5072
  206SOL    HW1  617   0.022   0.822   2.780  1.7020 -1.9549 -1.1236
  206SOL    HW2  618   0.178   0.755   2.749  1.7046 -0.9301 -1.9112
  207SOL     OW  619   1.806   2.347   1.940  0.4810  0.2163  0.0649
  207SOL    HW1  620   1.874   2.412   1.922 -0.3041 -2.8402  2.2391
  207SOL    HW2  621   1.722   2.351   1.882  1.4664 -4.4580  0.6377
  208SOL     OW  622   0.718   2.809   1.239 -0.1217  0.1954  0.4230
  208SOL    HW1  623   0.685   2.714   1.252 -1.9479  0.2916 -1.0870
  208SOL    HW2  624   0.657   2.879   1.283  2.4071  2.6338  1.3994
  209SOL     OW  625   1.310   1.392   0.154 -0.1808 -0.0987  0.0073
  209SOL    HW1  626   1.242   1.453   0.191  2.3542 -1.8562 -1.7542
  209SOL    HW2  627   1.394   1.446   0.134 -0.6695  0.3554  0.7505
  210SOL     OW  628   2.241   0.623   0.744 -0.0562  0.9735  0.4021
  210SOL    HW1  629   2.174   0.701   0.749 -2.7797 -0.6186  1.1393
  210SOL    HW2  630   2.202   0.536   0.778  1.7221  0.9753 -1.1295
  211SOL     OW  631   1.463   2.775   0.255  0.1761 -0.1326 -0.3106
  211SOL    HW1  632   1.369   2.779   0.292  0.0363  0.0434  2.3704
  211SOL    HW2  633   1.505   2.867   0.231  0.4063  0.9726 -3.1892
  212SOL     OW  634   2.112   2.294   0.702  0.4005 -0.2800  0.0664
  212SOL    HW1  635   2.192   2.357   0.713  2.5702 -1.1710  0.2682
  212SOL    HW2  636   2.055   2.288   0.786  0.0163  0.4982 -2.8004
  213SOL     OW  637   1.783   0.503   2.898  0.2373 -0.6489  0.1792
  213SOL    HW1  638   1.792   0.422   2.956 -1.5947  0.5625  1.0354
  213SOL    HW2  639   1.827   0.487   2.808 -0.0379  2.5372  0.4293
  214SOL     OW  640   0.858   1.558   1.965 -0.6346 -0.1218  0.1173
  214SOL    HW1  641   0.824   1.653   1.951  0.4810 -2.1391 -0.7585
  214SOL    HW2  642   0.958   1.554   1.973 -3.3752  2.3107 -3.2223
  215SOL     OW  643   3.096   1.455   0.564  1.0438 -0.2231 -0.2790
  215SOL    HW1  644   0.077   1.456   0.578 -2.1967 -0.8475  0.8951
  215SOL    HW2  645   3.048   1.415   0.649 -1.9715 -0.0578 -0.0840
  216SOL     OW  646   0.411   2.725   2.402 -0.4948  0.3132 -0.0240
  216SOL    HW1  647   0.463   2.760   2.480 -1.3907 -0.6647  2.0795
  216SOL    HW2  648   0.334   2.663   2.432  0.8141  1.0289 -2.6526
  217SOL     OW  649   2.800   0.850   1.152 -0.2532 -0.3489 -0.0623
  217SOL    HW1  650   2.735   0.844   1.073 -0.4870  1.1111 -0.9672
  217SOL    HW2  651   2.830   0.949   1.178  1.1581  4.8318  2.4677
  218SOL     OW  652   1.159   2.132   2.001  0.5779  0.5685  0.1911
  218SOL    HW1  653   1.168   2.166   1.904  1.8170 -3.2812 -1.2004
  218SOL    HW2  654   1.229   2.062   2.026  2.7773 -2.2834 -1.5483
  219SOL     OW  655   2.160   1.464   0.254 -0.2905 -0.6518  0.0617
  219SOL    HW1  656   2.192   1.434   0.166  1.6487 -4.1881 -1.1201
  219SOL    HW2  657   2.072   1.419   0.271  1.8173  1.4039 -0.8849
  220SOL     OW  658   2.104   1.045   0.245  0.9033 -0.1627 -0.3169
  220SOL    HW1  659   2.195   1.079   0.215 -1.5196  2.4027  0.8330
  220SOL    HW2  660   2.113   0.984   0.327  3.2652  1.1930 -1.5152
  221SOL     OW  661   0.025   0.453   0.342 -0.1267  0.5456 -0.6215
  221SOL    HW1  662   0.079   0.383   0.294 -0.3434  0.0190  0.4467
  221SOL    HW2  663   3.075   0.403   0.398 -2.1231  1.7266  2.8152
  222SOL     OW  664   1.335   1.324   0.475 -0.0293 -0.1523 -0.1232
  222SOL    HW1  665   1.375   1.334   0.564 -3.5134 -4.0138  0.4590
  222SOL    HW2  666   1.285   1.234   0.461  0.3491 -2.6577  0.5881
  223SOL     OW  667   0.767   0.247   3.076 -0.0892 -0.0324 -0.1776
  223SOL    HW1  668   0.719   0.156   3.083 -0.8485 -1.9298  0.3371
  223SOL    HW2  669   0.772   0.273   2.977 -0.1872 -0.6149 -0.7386
  224SOL     OW  670   1.564   0.319   1.315  0.1349  0.0884 -0.1645
  224SOL    HW1  671   1.486   0.364   1.365  0.4099 -0.0288  0.4239
  224SOL    HW2  672   1.610   0.251   1.369 -0.4957 -0.3388 -1.6376
  225SOL     OW  673   0.235   2.519   1.485  0.2910 -0.0926 -0.0650
  225SOL    HW1  674   0.212   2.469   1.401  0.7410  1.2726  2.3596
  225SOL    HW2  675   0.175   2.482   1.557  3.3303  0.0095 -1.7785
  226SOL     OW  676   0.868   1.500   0.182 -0.5779  0.3114 -0.4385
  226SOL    HW1  677   0.884   1.495   0.282 -0.2398 -0.1566 -3.2392
  226SOL    HW2  678   0.834   1.590   0.159  0.1935 -3.1580  2.2347
  227SOL     OW  679   0.701   1.450   0.876  0.2043  0.6049 -0.0527
  227SOL    HW1  680   0.700   1.542   0.921  0.1343  0.0473 -1.0308
  227SOL    HW2  681   0.681   1.381   0.949 -3.0587 -0.8323 -0.9902
  228SOL     OW  682   0.271   1.793   0.573  0.3561 -0.1191 -0.0180
  228SOL    HW1  683   0.182   1.800   0.529  0.1271 -2.8800 -2.5521
  228SOL    HW2  684   0.329   1.721   0.534  2.9162  2.5654  0.5690
  229SOL     OW  685   2.415   0.116   2.708 -0.3142 -0.2425  0.4104
  229SOL    HW1  686   2.334   0.120   2.647  0.5840 -0.2929 -0.2026
  229SOL    HW2  687   2.404   0.048   2.786  0.8199  0.4989 -2.1279
  230SOL     OW  688   1.780   1.220   0.558  0.1186 -0.2630  0.0381
  230SOL    HW1  689   1.747   1.253   0.654 -0.8797  0.9243  2.7957
  230SOL    HW2  690   1.710   1.253   0.493 -4.1710 -1.0313 -2.2073
  231SOL     OW  691   1.203   1.519   2.596 -0.8141 -0.1888  0.1067
  231SOL    HW1  692   1.290   1.564   2.626  0.4397  1.5859 -2.0784
  231SOL    HW2  693   1.225   1.453   2.524 -0.2425  0.4408  0.3222
  232SOL     OW  694   2.577   2.255   0.719 -0.3122  0.0650 -0.4165
  232SOL    HW1  695   2.657   2.240   0.654 -1.2579  0.6384  1.7941
  232SOL    HW2  696   2.601   2.232   0.817  1.1409 -2.1134 -0.9438
  233SOL     OW  697   0.725   2.402   0.864  0.1880 -0.1852 -0.0270
  233SOL    HW1  698   0.771   2.367   0.779 -2.3894  0.7341  0.3940
  233SOL    HW2  699   0.674   2.492   0.851  1.0431  2.1365 -0.6401
  234SOL     OW  700   0.481   0.625   2.806  0.1916 -0.1058  0.8603
  234SOL    HW1  701   0.473   0.713   2.754  2.4532  1.2486 -0.7879
  234SOL    HW2  702   0.467   0.633   2.904 -0.7950  0.6061 -2.9196
  235SOL     OW  703   2.705   0.731   2.484 -0.6321 -0.6149 -0.4092
  235SOL    HW1  704   2.721   0.641   2.532  1.3697 -2.7759  2.4372
  235SOL    HW2  705   2.794   0.782   2.473  3.0888  3.2355  1.8487
  236SOL     OW  706   1.582   2.866   1.472 -0.4351 -0.2522 -0.2977
  236SOL    HW1  707   1.628   2.848   1.382  1.4569 -0.9609  1.7553
  236SOL    HW2  708   1.594   2.786   1.535  0.9376  0.9136 -1.2834
  237SOL     OW  709   0.956   1.699   2.264 -0.0733  0.0591 -0.1668
  237SOL    HW1  710   0.868   1.742   2.237  0.1232 -1.7292 -0.5074
  237SOL    HW2  711   0.951   1.670   2.362 -1.6461  0.9823  2.3506
  238SOL     OW  712   0.967   0.269   2.258  0.0735  0.0737  0.5893
  238SOL    HW1  713   1.008   0.237   2.347  1.1121  0.9476  0.5110
  238SOL    HW2  714   0.916   0.191   2.210 -0.5289  0.7733 -1.6284
  239SOL     OW  715   0.467   2.208   2.068  0.0002  0.1977  0.0362
  239SOL    HW1  716   0.554   2.205   2.015  0.7282  0.2743  0.5723
  239SOL    HW2  717   0.392   2.258   2.015 -0.5659  1.5349 -0.7753
  240SOL     OW  718   2.594   2.738   0.406 -0.0308 -0.1715 -0.0372
  240SOL    HW1  719   2.543   2.683   0.338 -1.2599  0.3036  0.1817
  240SOL    HW2  720   2.674   2.686   0.440 -0.0121 -0.9664 -0.1697
  241SOL     OW  721   2.502   1.371   0.748  0.1057 -0.2716 -0.0552
  241SOL    HW1  722   2.433   1.428   0.700 -1.3406  0.3899  0.0688
  241SOL    HW2  723   2.535   1.418   0.834  0.2581  0.6657  1.1919
  242SOL     OW  724   2.016   2.565   1.894 -0.3574  0.3105  0.0962
  242SOL    HW1  725   2.084   2.557   1.971  1.8556  1.0542  2.3473
  242SOL    HW2  726   1.955   2.646   1.915 -0.8005  2.4708 -0.8669
  243SOL     OW  727   0.898   2.657   1.801 -0.3215  0.1145 -0.0584
  243SOL    HW1  728   0.831   2.614   1.862  0.0716 -1.7205 -1.4963
  243SOL    HW2  729   0.936   2.590   1.727 -0.6077 -1.7418 -2.8559
  244SOL     OW  730   2.135   0.622   2.742  1.0761  0.0450 -0.5093
  244SOL    HW1  731   2.046   0.623   2.689 -1.4763  1.2574 -1.6008
  244SOL    HW2  732   2.187   0.542   2.720  0.2619  0.8674 -0.2005
  245SOL     OW  733   1.473   0.663   1.132 -0.0839 -0.1500 -0.0745
  245SOL    HW1  734   1.504   0.696   1.040  0.5877  1.9706 -1.4574
  245SOL    HW2  735   1.378   0.631   1.124  1.1907  0.4192 -3.3109
  246SOL     OW  736   1.905   2.533   3.042  0.0634  0.3374 -0.7388
  246SOL    HW1  737   1.961   2.616   3.030 -1.0148  1.1420  2.1500
  246SOL    HW2  738   1.808   2.561   3.045 -2.1051 -1.7463  2.3931
  247SOL     OW  739   1.121   0.957   2.520  0.2293 -0.0411  0.0718
  247SOL    HW1  740   1.166   0.870   2.497 -0.1815  0.9214 -0.3101
  247SOL    HW2  741   1.188   1.031   2.554 -0.1327 -0.1996  1.0753
  248SOL     OW  742   0.375   2.041   1.633 -0.1116 -0.0343  0.1918
  248SOL    HW1  743   0.423   2.026   1.724  0.0004  0.9307  1.2971
  248SOL    HW2  744   0.435   2.100   1.576  1.7479 -0.6556 -0.2383
  249SOL     OW  745   2.546   0.467   0.267 -0.1610  0.3766 -0.3242
  249SOL    HW1  746   2.541   0.515   0.175 -0.6959 -0.7770 -1.3767
  249SOL    HW2  747   2.480   0.394   0.268  0.5641  1.2229  1.6786
  250SOL     OW  748   2.846   0.219   2.835  0.6882 -0.0191 -0.5816
  250SOL    HW1  749   2.814   0.296   2.896  2.2353  0.1726  1.8170
  250SOL    HW2  750   2.921   0.171   2.890  1.8670 -2.2441 -0.6917
  251SOL     OW  751   1.350   0.685   3.099 -0.0530  0.6194  0.3245
  251SOL    HW1  752   1.368   0.754   0.052 -2.2689  0.0768  0.4444
  251SOL    HW2  753   1.432   0.621   3.083  0.0520 -1.1522  0.4870
  252SOL     OW  754   1.416   2.118   1.845 -0.0011  0.5947  0.0802
  252SOL    HW1  755   1.324   2.139   1.803 -1.1230  1.4033 -0.9225
  252SOL    HW2  756   1.448   2.178   1.927  0.5100  0.5547  1.9685
  253SOL     OW  757   2.366   2.565   0.987  0.6991 -0.1249 -0.0618
  253SOL    HW1  758   2.395   2.648   1.035 -0.4241 -0.5980  0.0487
  253SOL    HW2  759   2.393   2.487   1.045 -0.5636 -1.0207 -1.0793
  254SOL     OW  760   2.096   1.371   0.625  0.0268  0.2581  0.4777
  254SOL    HW1  761   2.072   1.324   0.537  0.9689 -0.1004  2.2505
  254SOL    HW2  762   2.112   1.303   0.704 -0.8602 -2.3147  0.6627
  255SOL     OW  763   1.512   0.016   1.173  0.1245  0.3770  0.0369
  255SOL    HW1  764   1.429   3.101   1.130 -1.6753 -0.5659 -3.0388
  255SOL    HW2  765   1.508   0.024   1.272  2.6137  0.0552 -0.5633
  256SOL     OW  766   1.845   2.441   1.535 -0.3523  0.5474  0.1643
  256SOL    HW1  767   1.886   2.369   1.595 -1.9518 -5.3856  0.2255
  256SOL    HW2  768   1.774   2.395   1.479  0.0067 -0.4642  2.5435
  257SOL     OW  769   0.608   2.807   2.616  0.1717  0.7196  0.0500
  257SOL    HW1  770   0.692   2.833   2.563  0.7708 -0.6844 -0.3872
  257SOL    HW2  771   0.626   2.831   2.713 -0.2186  0.9185 -3.1848
  258SOL     OW  772   0.992   2.573   0.554  0.6520 -0.5198 -0.4749
  258SOL    HW1  773   0.973   2.615   0.465  0.7130 -2.4288  0.6320
  258SOL    HW2  774   1.085   2.536   0.553 -2.2063  1.0391  1.2117
  259SOL     OW  775   1.473   0.231   2.698 -0.3694 -0.3525  0.0843
  259SOL    HW1  776   1.551   0.184   2.747  0.1817 -0.0375 -3.0042
  259SOL    HW2  777   1.474   0.324   2.738 -0.1687  0.8642 -1.2724
  260SOL     OW  778   2.561   0.449   1.413  0.6361  0.2903  0.0661
  260SOL    HW1  779   2.496   0.397   1.351  0.6647 -1.1000 -2.3992
  260SOL    HW2  780   2.520   0.452   1.503  3.2584 -3.5257  1.2593
  261SOL     OW  781   0.728   0.544   2.684  0.2163 -0.1837 -0.1334
  261SOL    HW1  782   0.656   0.596   2.737 -0.7490  1.0462  3.5971
  261SOL    HW2  783   0.716   0.550   2.582  0.6531 -3.0404  0.7277
  262SOL     OW  784   1.348   2.523   2.282  0.1285  0.2347 -0.1181
  262SOL    HW1  785   1.274   2.460   2.264  1.7546 -0.4015 -0.8238
  262SOL    HW2  786   1.396   2.546   2.202 -4.2240 -0.7097  0.7828
  263SOL     OW  787   0.381   1.956   2.815 -0.0468  0.0414 -0.2775
  263SOL    HW1  788   0.426   2.049   2.810  1.1223  1.4784  0.4205
  263SOL    HW2  789   0.299   1.945   2.755 -0.6744 -1.8977  0.1011
  264SOL     OW  790   1.005   1.504   0.843 -0.0330  0.1333 -0.3082
  264SOL    HW1  791   0.914   1.481   0.869  2.0703  1.6265 -1.8024
  264SOL    HW2  792   1.006   1.563   0.759  1.3713  1.0881  0.9347
  265SOL     OW  793   1.249   2.511   0.490 -0.4672 -0.0981 -0.1109
  265SOL    HW1  794   1.289   2.450   0.412  1.0340  0.4309 -1.8644
  265SOL    HW2  795   1.321   2.521   0.558  0.1651 -1.0365 -1.8410
  266SOL     OW  796   1.932   0.813   1.051 -0.2536  0.6080 -0.7452
  266SOL    HW1  797   1.901   0.796   1.146 -2.5066  1.7442  2.6597
  266SOL    HW2  798   2.028   0.844   1.049 -2.1590  0.2582  1.7756
  267SOL     OW  799   2.936   1.405   2.715  0.1161 -0.0378  0.1754
  267SOL    HW1  800   2.955   1.408   2.617  0.0579 -0.1978 -1.9562
  267SOL    HW2  801   2.941   1.307   2.751  0.2969  0.3532  0.0136
  268SOL     OW  802   1.584   0.101   0.267 -0.0356 -0.4338  0.3621
  268SOL    HW1  803   1.627   0.019   0.220 -0.9754 -2.0416  0.5166
  268SOL    HW2  804   1.536   0.072   0.353  1.0634 -0.0426 -0.5459
  269SOL     OW  805   2.844   0.707   2.850 -0.1325  0.1366  0.5624
  269SOL    HW1  806   2.832   0.645   2.772 -0.3916  2.8054  1.6183
  269SOL    HW2  807   2.911   0.782   2.828  2.4088  2.1494 -1.9230
  270SOL     OW  808   0.144   1.535   0.227 -0.6345 -0.3275 -0.2800
  270SOL    HW1  809   0.061   1.481   0.254  0.3086 -1.4038 -0.0509
  270SOL    HW2  810   0.199   1.476   0.161 -2.4476 -0.0060 -2.3801
  271SOL     OW  811   2.682   1.112   2.654 -0.9512 -0.7137  0.2535
  271SOL    HW1  812   2.639   1.202   2.630  0.8867 -0.1867  1.0900
  271SOL    HW2  813   2.629   1.029   2.626 -0.9125 -0.7600  0.1172
  272SOL     OW  814   2.938   2.393   2.349 -0.0330 -0.1787  0.0672
  272SOL    HW1  815   3.022   2.340   2.364 -3.2008  0.7790 -0.3163
  272SOL    HW2  816   2.913   2.385   2.249  1.8601 -0.8679  0.5510
  273SOL     OW  817   0.332   2.661   0.785  0.2708  0.2087  0.3954
  273SOL    HW1  818   0.378   2.750   0.811  0.0273  1.6167  1.1753
  273SOL    HW2  819   0.316   2.657   0.685  0.3388  0.1359  1.5256
  274SOL     OW  820   0.843   2.066   0.744 -0.6836 -0.0495  0.4627
  274SOL    HW1  821   0.827   1.966   0.732  0.8740 -0.6101  0.9770
  274SOL    HW2  822   0.913   2.081   0.818  2.2998 -2.3718  0.4725
  275SOL     OW  823   2.387   1.485   0.377 -0.1724 -0.0085 -0.2395
  275SOL    HW1  824   2.289   1.478   0.341 -0.7192 -2.1359 -0.9358
  275SOL    HW2  825   2.453   1.438   0.311 -1.8901  1.6761  0.1846
  276SOL     OW  826   2.748   1.614   1.146 -0.7748 -0.2688 -0.0484
  276SOL    HW1  827   2.713   1.587   1.245 -2.7556  0.3907  5.1675
  276SOL    HW2  828   2.757   1.718   1.136  1.8461  0.7791  1.8374
  277SOL     OW  829   2.525   0.021   0.730 -0.3156 -0.5942  0.6245
  277SOL    HW1  830   2.509   3.048   0.769  1.7473  3.3200  0.4208
  277SOL    HW2  831   2.619   0.044   0.748 -2.2241  1.5477  0.2148
  278SOL     OW  832   1.369   0.287   2.445 -0.2413 -0.0204  0.2439
  278SOL    HW1  833   1.281   0.259   2.481  2.6651  0.7854 -2.3593
  278SOL    HW2  834   1.434   0.299   2.523  0.1985  0.7608  1.8181
  279SOL     OW  835   1.466   2.636   1.278  0.1151  0.5413  0.2394
  279SOL    HW1  836   1.558   2.680   1.257 -2.6430  0.6321  0.0967
  279SOL    HW2  837   1.414   2.613   1.198  0.6980 -2.3044  1.5114
  280SOL     OW  838   0.935   0.978   0.714 -0.2242 -0.1576  0.4786
  280SOL    HW1  839   0.893   1.062   0.691  1.7338 -0.9209 -0.9088
  280SOL    HW2  840   1.034   0.988   0.725  1.2802  1.3547 -2.0069
  281SOL     OW  841   2.561   1.367   2.626  0.1064  0.2202  0.3401
  281SOL    HW1  842   2.603   1.449   2.672  4.0371  1.3302 -0.3552
  281SOL    HW2  843   2.499   1.395   2.549  0.1361  0.1710 -2.1140
  282SOL     OW  844   3.069   1.365   0.309 -0.5613 -0.2720 -0.7443
  282SOL    HW1  845   2.980   1.327   0.298  2.2325  2.4035 -0.1917
  282SOL    HW2  846   3.094   1.380   0.407  3.1695 -0.5837  2.1496
  283SOL     OW  847   1.772   2.869   2.537 -0.2507  0.2085  0.6515
  283SOL    HW1  848   1.766   2.831   2.440  0.8545  0.8146 -0.4286
  283SOL    HW2  849   1.766   2.793   2.610 -2.2362 -1.7130 -1.4546
  284SOL     OW  850   0.665   3.112   0.005 -0.2483  0.2062  0.4492
  284SOL    HW1  851   0.585   0.025   0.057  0.2439 -1.9978 -0.0817
  284SOL    HW2  852   0.650   3.012   3.105 -0.3349  1.3508  1.9340
  285SOL     OW  853   2.128   1.567   2.482 -0.1149  0.1552  0.4562
  285SOL    HW1  854   2.136   1.610   2.572  0.3324 -2.6007 -1.6326
  285SOL    HW2  855   2.142   1.630   2.408 -1.9637 -1.6390  3.2359
  286SOL     OW  856   1.260   2.124   0.746 -0.2787 -0.4420  0.0213
  286SOL    HW1  857   1.197   2.137   0.821  2.1569 -1.3856 -0.7082
  286SOL    HW2  858   1.347   2.179   0.763  1.7458  0.5119 -1.9036
  287SOL     OW  859   1.857   0.212   0.960  0.0689 -0.4584 -0.1714
  287SOL    HW1  860   1.878   0.250   1.051  2.3965  0.8983 -0.3840
  287SOL    HW2  861   1.911   0.134   0.938 -1.0928  2.7750 -0.6408
  288SOL     OW  862   0.839   2.847   2.428 -0.3894  0.4128 -0.7365
  288SOL    HW1  863   0.944   2.847   2.438  2.6099 -0.3995  0.6727
  288SOL    HW2  864   0.808   2.845   2.334  1.6078  1.3977 -1.8263
  289SOL     OW  865   0.018   1.240   0.761 -0.3478 -0.0193 -0.2449
  289SOL    HW1  866   3.058   1.282   0.806 -0.6683 -0.7752  0.1989
  289SOL    HW2  867   3.097   1.159   0.708 -0.3175  2.1874 -3.0901
  290SOL     OW  868   1.337   2.292   1.056  1.1544 -0.2798  0.2033
  290SOL    HW1  869   1.421   2.272   1.002 -1.2616 -0.0440  0.9446
  290SOL    HW2  870   1.316   2.211   1.114  1.8536  1.5552  0.0379
  291SOL     OW  871   1.820   3.008   0.489  0.2015 -0.1264  0.0108
  291SOL    HW1  872   1.818   3.077   0.567 -3.1544 -0.4808  0.1144
  291SOL    HW2  873   1.818   2.913   0.515 -0.3448  1.4561 -0.6550
  292SOL     OW  874   0.404   0.056   2.048 -0.0878  0.1713  0.3862
  292SOL    HW1  875   0.393   0.076   2.149 -0.5392 -0.2128 -2.4960
  292SOL    HW2  876   0.323   3.116   2.018 -1.0915 -1.4845 -1.1577
  293SOL     OW  877   2.341   1.946   0.880 -0.5532  0.2858 -0.4749
  293SOL    HW1  878   2.322   1.851   0.908  1.3558  0.1295 -1.6025
  293SOL    HW2  879   2.366   2.006   0.961  1.0503  0.2956 -0.3567
  294SOL     OW  880   0.844   0.047   2.169  0.5568  0.1772 -0.1881
  294SOL    HW1  881   0.749   0.042   2.204 -0.3881  0.7466 -1.5128
  294SOL    HW2  882   0.882   3.075   2.145 -2.3674 -0.5292 -4.4548
  295SOL     OW  883   1.317   1.415   1.190  0.2171  0.4170  0.1596
  295SOL    HW1  884   1.413   1.388   1.166  0.2207  1.2505 -2.2149
  295SOL    HW2  885   1.253   1.336   1.165  1.3756 -0.2149 -2.1513
  296SOL     OW  886   2.206   2.025   0.642  0.4655 -0.0699 -0.1050
  296SOL    HW1  887   2.244   1.995   0.735 -0.6896  0.7163 -1.0837
  296SOL    HW2  888   2.175   2.122   0.649 -1.0659  1.0886  1.0793
  297SOL     OW  889   2.329   3.042   2.900  0.1413 -0.2707  0.0687
  297SOL    HW1  890   2.277   2.975   2.844 -0.2939 -0.1396 -1.2671
  297SOL    HW2  891   2.382   2.996   2.973 -1.8395 -1.0627 -0.2808
  298SOL     OW  892   1.093   0.201   2.489  0.1255  0.5609  0.1268
  298SOL    HW1  893   1.027   0.173   2.563 -2.1854 -0.4166  2.2281
  298SOL    HW2  894   1.124   0.119   2.440  2.0449 -0.7420  2.2318
  299SOL     OW  895   1.315   3.019   1.856 -0.9326 -0.4656 -0.0018
  299SOL    HW1  896   1.240   3.060   1.802  1.9613  0.5891  1.6001
  299SOL    HW2  897   1.312   3.046   1.955 -0.3847 -1.9403 -3.5775
  300SOL     OW  898   2.675   0.102   1.863 -0.0024 -0.9270 -0.0939
  300SOL    HW1  899   2.660   0.152   1.949 -0.3338  0.7431  1.1428
  300SOL    HW2  900   2.698   0.170   1.784  1.4027  1.1957 -2.3625
  301SOL     OW  901   2.064   0.503   2.012 -0.3499  0.1264  0.6490
  301SOL    HW1  902   2.160   0.487   2.037 -1.7089 -0.5139  0.1305
  301SOL    HW2  903   2.029   0.440   1.939 -3.3896  0.3249 -0.3397
  302SOL     OW  904   0.435   2.469   3.096  0.7368  0.2782 -0.4724
  302SOL    HW1  905   0.423   2.389   3.037 -0.1788 -0.9425  0.8931
  302SOL    HW2  906   0.343   2.516   3.101 -1.2298  2.2150  0.7033
  303SOL     OW  907   1.893   1.994   1.395 -0.1466 -0.2599 -0.0205
  303SOL    HW1  908   1.797   2.001   1.365  0.3393 -0.7713 -2.2445
  303SOL    HW2  909   1.899   2.011   1.491  0.7759  0.1481 -1.0311
  304SOL     OW  910   2.959   0.618   1.096 -0.0926 -0.0312 -0.6768
  304SOL    HW1  911   2.882   0.686   1.118  1.3674  0.6084  1.7801
  304SOL    HW2  912   3.013   0.656   1.020 -2.5601 -0.5212 -0.7025
  305SOL     OW  913   0.744   0.782   0.835 -0.3463 -0.2840  0.5801
  305SOL    HW1  914   0.713   0.833   0.916  0.2141 -2.2273 -1.1776
  305SOL    HW2  915   0.814   0.843   0.788  0.5992  2.3944  0.7957
  306SOL     OW  916   0.244   1.026   2.956  0.0560  0.1709 -0.0382
  306SOL    HW1  917   0.321   0.992   2.902  0.7255  1.7523  1.7384
  306SOL    HW2  918   0.219   0.955   3.030  0.3237 -2.9385  0.5859
  307SOL     OW  919   1.347   0.407   1.503  0.5056  0.1862  0.2889
  307SOL    HW1  920   1.397   0.480   1.556  3.6575 -0.7029  0.9186
  307SOL    HW2  921   1.294   0.348   1.559 -0.8223  1.8019  0.7302
  308SOL     OW  922   0.637   0.929   1.027  0.1605  0.6933 -0.2547
  308SOL    HW1  923   0.547   0.870   1.032 -2.0980 -1.0885  1.6846
  308SOL    HW2  924   0.684   0.928   1.120  0.4875  1.6344  0.4532
  309SOL     OW  925   2.404   0.892   0.811 -0.0978 -0.2118 -0.2424
  309SOL    HW1  926   2.355   0.820   0.756 -0.1856 -0.2389  0.9537
  309SOL    HW2  927   2.424   0.975   0.756 -0.2353  0.9023 -3.2111
  310SOL     OW  928   0.658   1.474   3.085  0.1913  0.2151 -0.7134
  310SOL    HW1  929   0.714   1.494   0.045 -0.9449  0.3305 -0.4725
  310SOL    HW2  930   0.559   1.470   3.108 -0.1569  2.3345  1.3769
  311SOL     OW  931   2.489   2.647   2.381 -1.0091 -0.0326  0.2477
  311SOL    HW1  932   2.442   2.689   2.303  2.2121 -1.0034 -1.5919
  311SOL    HW2  933   2.514   2.711   2.459 -0.0520  0.6165 -2.0569
  312SOL     OW  934   2.037   2.105   3.094  0.1968  0.2195 -0.1928
  312SOL    HW1  935   2.069   2.098   2.997  1.6322  1.8060  2.4912
  312SOL    HW2  936   2.048   2.203   3.115 -1.9931 -2.6820 -1.1920
  313SOL     OW  937   0.439   0.048   0.142 -0.3693  0.4130 -0.0361
  313SOL    HW1  938   0.449   0.120   0.214 -2.7759 -1.7365 -2.9217
  313SOL    HW2  939   0.368   0.073   0.076  2.7839 -1.0692 -0.3869
  314SOL     OW  940   2.439   1.297   2.865  0.3531 -0.4673  0.0526
  314SOL    HW1  941   2.462   1.374   2.933  1.2762  0.5155 -1.3975
  314SOL    HW2  942   2.495   1.300   2.781  0.5091 -1.6219 -0.9023
  315SOL     OW  943   1.591   0.528   2.483 -0.0054  0.1397 -0.0847
  315SOL    HW1  944   1.560   0.604   2.540  0.4191  2.1357  0.5099
  315SOL    HW2  945   1.571   0.540   2.382  2.4707  1.5566 -1.2211
  316SOL     OW  946   3.014   0.998   0.611 -0.0356  0.2655 -0.2479
  316SOL    HW1  947   2.940   0.962   0.671 -0.4377  0.9633  0.1306
  316SOL    HW2  948   2.981   1.004   0.514 -0.1941 -0.7351 -2.7622
  317SOL     OW  949   0.643   2.711   0.183  0.1346  0.1360 -0.1586
  317SOL    HW1  950   0.643   2.685   0.083 -0.8197  0.4560  0.5169
  317SOL    HW2  951   0.587   2.796   0.205 -1.8615 -1.9503  5.0718
  318SOL     OW  952   2.422   2.778   1.136  0.0755 -0.3719  0.0538
  318SOL    HW1  953   2.427   2.771   1.235  0.1454  1.9019 -3.3033
  318SOL    HW2  954   2.510   2.797   1.096  0.4135 -1.5735  2.1594
  319SOL     OW  955   1.151   1.409   2.841  0.2124  0.2606  0.0531
  319SOL    HW1  956   1.090   1.468   2.900 -1.0546 -1.1327  1.1855
  319SOL    HW2  957   1.154   1.444   2.745  1.4691 -0.0633  0.0276
  320SOL     OW  958   0.626   1.682   0.994  0.4510 -0.1582 -0.3282
  320SOL    HW1  959   0.532   1.719   0.970  0.2973  0.3849 -1.5023
  320SOL    HW2  960   0.680   1.759   1.024 -2.9167  1.6662  0.8118
  321SOL     OW  961   1.698   2.722   1.875  0.0708 -0.3090  0.7961
  321SOL    HW1  962   1.780   2.741   1.932  2.3547 -0.0890 -1.6071
  321SOL    HW2  963   1.614   2.728   1.930  1.3160 -0.7111  0.9970
  322SOL     OW  964   2.355   2.023   2.448  0.2730 -0.6162 -0.6862
  322SOL    HW1  965   2.298   2.104   2.416 -1.9898 -1.1698  0.5759
  322SOL    HW2  966   2.453   2.043   2.431 -0.0196  1.9162 -0.2809
  323SOL     OW  967   2.481   0.263   0.624  0.2585  0.0486  0.5554
  323SOL    HW1  968   2.492   0.168   0.669 -0.8005 -2.7308 -0.8366
  323SOL    HW2  969   2.549   0.275   0.550  0.9123  0.0530  1.2633
  324SOL     OW  970   3.051   2.660   2.364 -0.0083 -0.2242 -0.0076
  324SOL    HW1  971   0.026   2.645   2.401  0.2516  0.7544 -2.3555
  324SOL    HW2  972   3.000   2.576   2.365  1.1327  1.7866 -1.5466
  325SOL     OW  973   0.989   0.585   2.760 -0.2169 -0.6502  0.1743
  325SOL    HW1  974   1.060   0.514   2.769  0.1239  1.9532  0.8436
  325SOL    HW2  975   0.900   0.541   2.734  0.9657 -0.7415  2.3919
  326SOL     OW  976   2.657   2.351   1.305 -0.3181  0.0194  0.3427
  326SOL    HW1  977   2.570   2.385   1.266  1.3044 -2.0378 -0.0181
  326SOL    HW2  978   2.644   2.336   1.405  0.2560  2.9153 -0.9120
  327SOL     OW  979   2.476   2.962   0.024 -0.6548  0.1849 -0.5575
  327SOL    HW1  980   2.468   3.030   0.103  3.1093  3.6780 -0.8671
  327SOL    HW2  981   2.402   2.887   0.026 -2.0764 -1.3715  1.3906
  328SOL     OW  982   0.451   0.795   1.467 -0.2367  0.3196 -0.1547
  328SOL    HW1  983   0.466   0.697   1.484  2.9787  0.0533 -0.5971
  328SOL    HW2  984   0.356   0.810   1.431 -1.0470  0.7214  0.4909
  329SOL     OW  985   2.091   0.695   1.563 -0.0308  0.1006  0.7047
  329SOL    HW1  986   2.067   0.706   1.661 -0.7137 -3.5802 -2.5829
  329SOL    HW2  987   2.156   0.617   1.547  1.0003 -0.2810 -0.3309
  330SOL     OW  988   0.461   0.731   1.072 -0.2284  0.3619  0.1848
  330SOL    HW1  989   0.420   0.650   1.026  1.1874 -2.1890  0.8839
  330SOL    HW2  990   0.383   0.790   1.104 -0.1839 -2.2126  0.6916
  331SOL     OW  991   0.595   1.510   1.935 -0.1851  0.2600  0.3001
  331SOL    HW1  992   0.695   1.486   1.937 -1.7856  0.4354  0.7971
  331SOL    HW2  993   0.565   1.511   1.841  0.6528 -0.8957  0.8756
  332SOL     OW  994   0.065   2.365   1.611  0.2396  0.2024 -0.4798
  332SOL    HW1  995   3.086   2.394   1.617  4.4441 -2.3440  1.1165
  332SOL    HW2  996   0.083   2.267   1.645  0.3615 -0.9222 -0.2288
  333SOL     OW  997   2.899   2.841   0.933  0.2371  0.1590 -0.8497
  333SOL    HW1  998   2.925   2.883   0.844  2.9008  2.5143  1.8550
  333SOL    HW2  999   2.952   2.756   0.956  0.2160 -2.4534 -2.4974
  334SOL     OW 1000   0.245   1.171   0.540 -0.3758 -0.1399 -0.7713
  334SOL    HW1 1001   0.194   1.099   0.581  0.6746  2.8969 -0.6107
  334SOL    HW2 1002   0.222   1.250   0.596  0.6924 -1.9294 -0.1181
  335SOL     OW 1003   0.632   2.601   2.977 -0.1778  0.1070 -0.3134
  335SOL    HW1 1004   0.551   2.551   3.015  0.7859 -1.5987  2.1952
  335SOL    HW2 1005   0.717   2.554   3.010 -2.2741  1.9757  1.0296
  336SOL     OW 1006   3.043   2.732   2.086  0.3548  0.5786 -0.5871
  336SOL    HW1 1007   3.028   2.703   2.183 -0.8762 -1.0673  1.3715
  336SOL    HW2 1008   2.951   2.749   2.043  0.4461 -0.7405  3.1594
  337SOL     OW 1009   1.630   2.170   1.651 -0.1981  0.1375  0.2240
  337SOL    HW1 1010   1.557   2.178   1.580 -0.5562  1.4993 -0.1577
  337SOL    HW2 1011   1.582   2.155   1.740  0.7954  0.3692  1.7359
  338SOL     OW 1012   0.785   0.308   2.826  0.9868  0.3595  0.5831
  338SOL    HW1 1013   0.764   0.390   2.764 -1.1381  0.8150 -0.2490
  338SOL    HW2 1014   0.847   0.243   2.774 -2.4767 -1.2650 -1.3569
  339SOL     OW 1015   0.496   0.941   2.290 -0.2990 -0.0220 -0.0353
  339SOL    HW1 1016   0.540   0.954   2.197 -0.1041 -2.7987  0.5857
  339SOL    HW2 1017   0.530   1.007   2.357 -1.4708 -0.0994 -0.2776
  340SOL     OW 1018   2.159   0.425   0.926  0.4895 -0.6259 -0.1358
  340SOL    HW1 1019   2.169   0.332   0.967  1.0940  1.1037 -0.6542
  340SOL    HW2 1020   2.060   0.448   0.930  0.8755 -2.4328 -0.9204
  341SOL     OW 1021   2.138   1.223   0.863  0.1747  0.1895 -0.0189
  341SOL    HW1 1022   2.111   1.252   0.959 -0.1499 -1.8609  1.6293
  341SOL    HW2 1023   2.237   1.199   0.857 -0.6532 -0.2116 -1.4588
  342SOL     OW 1024   2.226   2.602   2.836 -0.0915  0.6959  0.2080
  342SOL    HW1 1025   2.320   2.569   2.857  0.9408  0.3626 -0.6141
  342SOL    HW2 1026   2.161   2.523   2.841 -0.9946 -0.1863 -0.1006
  343SOL     OW 1027   0.883   2.524   1.557  0.4462  0.0129  0.2836
  343SOL    HW1 1028   0.903   2.591   1.482 -2.2922  0.0987 -0.8795
  343SOL    HW2 1029   0.790   2.476   1.548  0.2627 -0.3494 -1.3676
  344SOL     OW 1030   2.498   2.727   1.410 -0.3489  0.5731  0.1050
  344SOL    HW1 1031   2.491   2.806   1.481 -0.4602 -0.5973  1.1910
  344SOL    HW2 1032   2.590   2.715   1.378 -1.5435  0.3537 -1.3383
  345SOL     OW 1033   2.476   2.285   0.091  0.2864  0.5461 -0.0087
  345SOL    HW1 1034   2.480   2.201   0.150 -4.9433  1.1638 -1.9439
  345SOL    HW2 1035   2.383   2.295   0.053  1.5400 -1.9431  0.3680
  346SOL     OW 1036   1.676   2.251   1.358 -0.5932 -0.3156  0.2922
  346SOL    HW1 1037   1.731   2.283   1.276  1.7611  0.0825 -3.7380
  346SOL    HW2 1038   1.669   2.149   1.353  2.3660 -0.4853  0.5302
  347SOL     OW 1039   1.270   1.854   1.642  0.2174  0.2200  0.6114
  347SOL    HW1 1040   1.258   1.953   1.620  1.6754  2.0811 -1.8475
  347SOL    HW2 1041   1.178   1.818   1.678 -3.0018 -0.0264 -1.0244
  348SOL     OW 1042   0.518   1.970   1.864  0.4709  0.2786 -0.2502
  348SOL    HW1 1043   0.447   1.979   1.936 -0.1615 -0.7506  1.6540
  348SOL    HW2 1044   0.598   1.913   1.900 -0.4276  1.9838 -0.0261
  349SOL     OW 1045   1.822   1.577   1.346  0.0515  0.0794 -0.0307
  349SOL    HW1 1046   1.813   1.486   1.393 -3.5624 -0.9473  1.9492
  349SOL    HW2 1047   1.898   1.635   1.381 -0.4993 -0.4023  0.8808
  350SOL     OW 1048   2.397   2.216   0.498 -0.0557 -0.2024  0.2914
  350SOL    HW1 1049   2.368   2.139   0.549  1.5182  3.2528 -0.2985
  350SOL    HW2 1050   2.451   2.275   0.559 -0.4712  1.8563 -1.1897
  351SOL     OW 1051   0.722   0.004   1.462  0.3218  0.3025 -0.5937
  351SOL    HW1 1052   0.717   3.115   1.565 -0.4971  1.4237  0.2415
  351SOL    HW2 1053   0.814   3.104   1.424  2.0038 -1.0843  0.1892
  352SOL     OW 1054   0.211   1.170   0.920 -0.0278 -0.2284  0.3428
  352SOL    HW1 1055   0.239   1.078   0.893 -0.0732  2.7135  0.6251
  352SOL    HW2 1056   0.148   1.207   0.851  0.9661 -1.1601 -0.6360
  353SOL     OW 1057   1.352   1.665   2.322 -0.0721  0.6206  0.3828
  353SOL    HW1 1058   1.384   1.623   2.409  1.4514 -1.9663  2.1524
  353SOL    HW2 1059   1.384   1.602   2.248 -1.1106  0.0828 -3.1863
  354SOL     OW 1060   1.740   3.105   2.030  0.3725  0.4484 -0.2598
  354SOL    HW1 1061   1.669   0.010   2.099  1.3540 -2.3106 -0.2771
  354SOL    HW2 1062   1.702   3.041   1.958 -0.8536  1.1300 -0.5986
  355SOL     OW 1063   2.217   1.339   0.017 -0.9100  0.2374 -0.3050
  355SOL    HW1 1064   2.273   1.263   0.060  0.0507 -2.8043  0.9079
  355SOL    HW2 1065   2.130   1.306   3.094  0.4242 -2.1505  1.5727
  356SOL     OW 1066   2.902   1.372   1.409  0.2412  0.3269 -0.4946
  356SOL    HW1 1067   2.917   1.327   1.499  0.0204 -1.0625  0.5208
  356SOL    HW2 1068   2.984   1.412   1.366 -0.5122 -0.5339  0.5951
  357SOL     OW 1069   0.460   2.651   1.552  0.0622 -0.0027 -0.3272
  357SOL    HW1 1070   0.483   2.735   1.497  2.7913 -1.1945 -1.0962
  357SOL    HW2 1071   0.368   2.607   1.528 -3.2485 -1.0386 -0.4433
  358SOL     OW 1072   2.457   1.662   1.501  0.2302 -0.6016  0.0362
  358SOL    HW1 1073   2.461   1.722   1.584 -2.4901 -1.3079  0.7676
  358SOL    HW2 1074   2.546   1.630   1.460 -0.0773  2.2346 -0.7880
  359SOL     OW 1075   2.237   2.851   2.749  0.4410  0.0467 -0.2073
  359SOL    HW1 1076   2.231   2.852   2.648 -0.0143 -1.2702  0.0007
  359SOL    HW2 1077   2.226   2.756   2.785  1.4203 -1.0104  1.6829
  360SOL     OW 1078   1.293   3.074   1.042  0.0784  0.2594 -0.3695
  360SOL    HW1 1079   1.349   3.050   0.961  0.2302  1.4860 -0.5147
  360SOL    HW2 1080   1.235   2.992   1.057  1.7963 -0.8323 -0.7881
  361SOL     OW 1081   2.203   0.471   0.304 -0.2780  0.2051 -0.5708
  361SOL    HW1 1082   2.205   0.434   0.400 -2.5163 -0.3074 -3.3752
  361SOL    HW2 1083   2.241   0.566   0.304 -0.9494 -1.0473  1.9929
  362SOL     OW 1084   1.565   1.150   0.941  0.0838  0.0726  0.0687
  362SOL    HW1 1085   1.612   1.200   0.870  1.7419  0.6349  1.0416
  362SOL    HW2 1086   1.543   1.204   1.023  0.3392 -1.2899  1.1921
  363SOL     OW 1087   2.298   1.288   2.299 -0.1436  0.5960 -0.4785
  363SOL    HW1 1088   2.210   1.298   2.356 -1.6946  1.4279  1.6150
  363SOL    HW2 1089   2.278   1.309   2.203  0.5286 -0.2082  1.3607
  364SOL     OW 1090   0.230   0.363   1.081  0.2163 -0.6401 -0.2002
  364SOL    HW1 1091   0.156   0.413   1.131  0.4178  1.1511  1.0492
  364SOL    HW2 1092   0.199   0.273   1.050  0.6665  0.6806  2.1983
  365SOL     OW 1093   0.537   0.205   2.865  0.1763 -0.3984 -0.5603
  365SOL    HW1 1094   0.524   0.114   2.825 -0.7675  1.0487  2.1901
  365SOL    HW2 1095   0.632   0.250   2.839  3.8575  3.5461 -2.2211
  366SOL     OW 1096   2.030   2.397   2.799  0.4247 -0.2043  0.0047
  366SOL    HW1 1097   1.938   2.426   2.829 -0.1506 -0.1907  1.5747
  366SOL    HW2 1098   2.048   2.298   2.817 -1.6574  2.0905 -1.6286
  367SOL     OW 1099   3.038   2.520   0.187  0.2037  0.2963 -0.1506
  367SOL    HW1 1100   2.973   2.575   0.125 -0.7850  2.3442  1.5220
  367SOL    HW2 1101   3.097   2.585   0.242 -0.1824  1.6545 -0.2906
  368SOL     OW 1102   2.885   1.121   1.194 -0.0648 -0.1260  0.4318
  368SOL    HW1 1103   2.850   1.186   1.262  1.9847 -0.6595 -1.7028
  368SOL    HW2 1104   2.967   1.156   1.153 -1.7101  1.5424  1.4745
  369SOL     OW 1105   0.933   0.115   2.717  0.3873 -0.1110 -1.0126
  369SOL    HW1 1106   0.863   0.052   2.675  0.0553 -2.4921  1.3707
  369SOL    HW2 1107   1.005   0.066   2.769  0.6505  1.1603 -1.6157
  370SOL     OW 1108   2.739   0.317   0.525  0.5863 -0.6367 -0.0174
  370SOL    HW1 1109   2.727   0.418   0.509  0.5847 -3.0484  1.3684
  370SOL    HW2 1110   2.843   0.303   0.527 -1.9418  4.4874  0.4921
  371SOL     OW 1111   1.500   2.230   0.839 -0.2688  0.0265  0.4859
  371SOL    HW1 1112   1.550   2.144   0.849  1.1077  0.6509  1.0907
  371SOL    HW2 1113   1.558   2.314   0.849 -1.0421  1.3272 -1.8824
  372SOL     OW 1114   2.996   0.902   2.695 -0.0023  0.4810 -0.5738
  372SOL    HW1 1115   2.980   0.860   2.606 -1.9530 -3.1322 -1.3196
  372SOL    HW2 1116   2.981   1.007   2.691 -0.2906  2.8277  0.0148
  373SOL     OW 1117   2.916   1.635   0.935  0.0286  0.3273 -0.0442
  373SOL    HW1 1118   2.884   1.698   0.857 -0.8247  2.2077 -0.9361
  373SOL    HW2 1119   2.849   1.631   1.015 -2.7269  0.1924  3.4321
  374SOL     OW 1120   0.549   3.083   2.757 -0.1778  0.7938 -0.0010
  374SOL    HW1 1121   0.567   3.015   2.832  1.0033 -0.9346  0.9235
  374SOL    HW2 1122   0.622   3.067   2.686  3.4464 -1.5394 -1.5528
  375SOL     OW 1123   0.002   3.056   0.019 -0.1073  0.4968 -0.1452
  375SOL    HW1 1124   0.086   3.110   0.022  3.5544  0.9463  0.9454
  375SOL    HW2 1125   0.029   2.964   3.119 -2.7227  1.0957  1.1961
  376SOL     OW 1126   3.023   1.987   1.605 -0.7474  0.1328  0.3862
  376SOL    HW1 1127   3.088   2.055   1.649  2.8486  2.0166  3.1180
  376SOL    HW2 1128   2.992   1.922   1.669  0.5525  0.5110 -0.2952
  377SOL     OW 1129   1.704   2.249   2.380  0.1721 -0.0567  0.1378
  377SOL    HW1 1130   1.616   2.202   2.361 -0.1952  1.1815  1.5220
  377SOL    HW2 1131   1.731   2.304   2.302  1.6617  0.8715  4.8645
  378SOL     OW 1132   0.361   0.379   2.752 -0.0669  0.2322  0.3686
  378SOL    HW1 1133   0.397   0.480   2.757  0.5221  1.0702 -1.3400
  378SOL    HW2 1134   0.419   0.318   2.806  1.7902  1.6383  0.6402
  379SOL     OW 1135   0.451   0.662   0.477  0.1756 -0.1794  0.4462
  379SOL    HW1 1136   0.447   0.697   0.570  1.1573  0.1370 -1.4922
  379SOL    HW2 1137   0.524   0.711   0.425 -1.9969 -4.2700  0.0561
  380SOL     OW 1138   0.122   1.659   1.856 -0.5112 -0.4704 -0.3089
  380SOL    HW1 1139   0.043   1.598   1.873  0.2833 -0.8385 -1.3175
  380SOL    HW2 1140   0.183   1.671   1.939  1.8309 -0.5395 -0.3199
  381SOL     OW 1141   0.274   0.999   2.022 -0.5265 -0.3041  0.0355
  381SOL    HW1 1142   0.194   0.935   2.039  0.3622  0.2474  2.1619
  381SOL    HW2 1143   0.306   0.997   1.923  0.9953  1.4827  2.2385
  382SOL     OW 1144   2.290   1.911   0.343 -0.2662  0.1099  0.3462
  382SOL    HW1 1145   2.225   1.870   0.274  1.1702 -1.3315  1.5648
  382SOL    HW2 1146   2.240   1.961   0.419  0.1438  0.0847  0.6593
  383SOL     OW 1147   0.140   1.950   2.663 -0.1663 -0.3368  0.0537
  383SOL    HW1 1148   0.089   1.869   2.704 -1.3642  0.1914 -0.6847
  383SOL    HW2 1149   0.072   2.018   2.632 -1.5438  1.2282  0.6360
  384SOL     OW 1150   0.844   2.279   2.737 -0.3131 -0.0340 -0.2072
  384SOL    HW1 1151   0.788   2.249   2.820 -0.3637  0.2043 -0.5588
  384SOL    HW2 1152   0.846   2.376   2.711  3.1575  1.4026 -1.3146
  385SOL     OW 1153   2.564   1.880   0.712 -0.9999 -0.4677  0.5219
  385SOL    HW1 1154   2.494   1.931   0.759  0.3733 -1.5993 -3.4815
  385SOL    HW2 1155   2.540   1.846   0.621  1.8344  0.4564  3.4512
  386SOL     OW 1156   2.266   1.473   1.448  0.4806 -0.0959  0.0536
  386SOL    HW1 1157   2.333   1.539   1.479  0.6757  1.3736  0.1931
  386SOL    HW2 1158   2.296   1.380   1.475  0.8471 -0.0923  0.9408
  387SOL     OW 1159   2.779   1.224   2.181  0.3121 -0.0334  0.4238
  387SOL    HW1 1160   2.767   1.169   2.266  0.7614  0.2716 -0.8748
  387SOL    HW2 1161   2.791   1.324   2.202  0.6627 -2.7326 -0.2898
  388SOL     OW 1162   3.041   1.501   1.950 -0.6129 -0.1369  0.2581
  388SOL    HW1 1163   3.064   1.415   1.999 -1.7708 -0.5845 -2.3958
  388SOL    HW2 1164   2.981   1.478   1.870  0.6584  0.7876  1.1864
  389SOL     OW 1165   1.916   1.177   1.842  0.0110  0.2265 -0.0195
  389SOL    HW1 1166   1.962   1.188   1.754 -2.0853  1.0154 -1.5035
  389SOL    HW2 1167   1.916   1.268   1.879  0.4622 -3.0461 -2.8750
  390SOL     OW 1168   2.068   0.134   0.562 -0.0838 -0.6117  0.1016
  390SOL    HW1 1169   2.050   0.093   0.655  0.1394 -2.6130  0.9539
  390SOL    HW2 1170   1.978   0.161   0.522 -1.6061  0.1874 -1.3153
  391SOL     OW 1171   2.107   1.794   1.171  0.3133 -0.2492  0.4714
  391SOL    HW1 1172   2.196   1.838   1.192  1.3403  0.5945 -3.1838
  391SOL    HW2 1173   2.059   1.772   1.259 -0.1115  2.5228 -0.7349
  392SOL     OW 1174   2.821   2.603   0.489 -0.7400 -0.0278 -0.0086
  392SOL    HW1 1175   2.875   2.599   0.578 -1.3607 -0.4274  0.0463
  392SOL    HW2 1176   2.782   2.506   0.476  1.2833 -2.4194 -1.2700
  393SOL     OW 1177   1.464   1.823   2.903 -0.9345  0.1069 -0.3438
  393SOL    HW1 1178   1.466   1.722   2.898 -1.4206  0.2323 -1.5574
  393SOL    HW2 1179   1.473   1.858   2.808  0.2612  0.6645  3.3815
  394SOL     OW 1180   0.196   2.927   2.629  0.0685  0.6509  0.5662
  394SOL    HW1 1181   0.101   2.961   2.641 -3.4254 -0.4422  4.0898
  394SOL    HW2 1182   0.226   2.899   2.723  1.6015  0.4451 -1.2652
  395SOL     OW 1183   0.593   0.337   0.816 -0.5521  0.2247 -0.1825
  395SOL    HW1 1184   0.622   0.240   0.816  1.0209 -3.8473  0.7306
  395SOL    HW2 1185   0.670   0.403   0.850  1.1907  1.0785 -0.5417
  396SOL     OW 1186   1.568   0.850   0.576  0.4962  0.3726 -0.0408
  396SOL    HW1 1187   1.653   0.796   0.575  0.8356 -1.7266 -1.0054
  396SOL    HW2 1188   1.502   0.816   0.506  0.8770 -0.2382 -0.4351
  397SOL     OW 1189   0.546   0.658   2.242 -0.5760  0.0801 -0.4289
  397SOL    HW1 1190   0.470   0.588   2.238 -1.2134 -1.7396  3.0541
  397SOL    HW2 1191   0.516   0.752   2.278 -2.0973  0.4320 -0.4721
  398SOL     OW 1192   0.884   0.166   0.551  0.2905 -0.2407  0.7548
  398SOL    HW1 1193   0.891   0.250   0.611  2.0390  1.2429 -0.5692
  398SOL    HW2 1194   0.879   0.196   0.453 -0.6339 -0.3911  0.4926
  399SOL     OW 1195   2.029   2.899   1.630 -0.0343  0.0009 -0.2091
  399SOL    HW1 1196   2.056   2.898   1.727 -1.6478  2.4878  2.3570
  399SOL    HW2 1197   2.050   2.811   1.579  1.5324 -1.8453 -1.4112
  400SOL     OW 1198   1.019   1.823   1.983  0.2035  0.5649 -0.1196
  400SOL    HW1 1199   1.102   1.826   2.039 -2.9040  1.3784 -0.8449
  400SOL    HW2 1200   0.965   1.904   2.010 -1.0214  1.7151  3.1908
  401SOL     OW 1201   0.576   1.288   2.881 -0.1881 -1.0580  0.0379
  401SOL    HW1 1202   0.606   1.340   2.962 -4.1432 -2.0570 -2.4845
  401SOL    HW2 1203   0.529   1.202   2.903 -0.7703  1.6643 -1.1556
  402SOL     OW 1204   2.929   2.020   0.756 -0.8461 -0.2957  0.1177
  402SOL    HW1 1205   2.994   1.995   0.682  0.6534 -0.6992 -2.5028
  402SOL    HW2 1206   2.867   1.937   0.770 -2.1155 -1.2846  0.1297
  403SOL     OW 1207   0.220   0.958   2.335 -0.2285 -0.4947  0.2997
  403SOL    HW1 1208   0.156   0.919   2.269  0.0301  2.2240  1.5236
  403SOL    HW2 1209   0.319   0.931   2.310 -2.0768  1.3945  1.1849
  404SOL     OW 1210   0.297   2.320   1.885  0.4309  0.4054 -0.3349
  404SOL    HW1 1211   0.276   2.298   1.786 -3.1847  0.7425 -0.1993
  404SOL    HW2 1212   0.290   2.417   1.910  1.8770 -0.7803  0.4264
  405SOL     OW 1213   0.192   0.378   2.025  0.0021  0.3457 -0.1883
  405SOL    HW1 1214   0.248   0.357   1.944  0.3149  1.5310  1.1598
  405SOL    HW2 1215   0.150   0.295   2.063 -1.9719  0.1521  1.2328
  406SOL     OW 1216   1.471   1.620   2.583 -0.0409 -0.0316  0.0721
  406SOL    HW1 1217   1.527   1.588   2.661 -1.3498  1.1782 -0.7366
  406SOL    HW2 1218   1.517   1.692   2.530 -4.9510 -1.5036  0.1626
  407SOL     OW 1219   1.290   1.332   2.430  0.3846 -0.2407  0.5764
  407SOL    HW1 1220   1.230   1.307   2.349  0.8888  0.2079  1.7049
  407SOL    HW2 1221   1.390   1.343   2.404 -0.0754 -1.0030 -0.0166
  408SOL     OW 1222   0.751   3.068   2.569  0.2940  0.0227  0.1032
  408SOL    HW1 1223   0.704   3.101   2.483 -0.9783  0.4214  0.6225
  408SOL    HW2 1224   0.799   2.975   2.551  2.4586 -4.0057  0.9805
  409SOL     OW 1225   0.172   2.044   0.667  0.0840 -0.6026 -0.1495
  409SOL    HW1 1226   0.075   2.027   0.636 -0.1359 -0.9430 -2.4263
  409SOL    HW2 1227   0.238   1.971   0.646  0.2984 -0.6846  0.9383
  410SOL     OW 1228   2.570   1.388   0.219 -0.7860  0.2090 -0.5175
  410SOL    HW1 1229   2.652   1.344   0.268 -0.9529  0.7027 -2.9491
  410SOL    HW2 1230   2.606   1.454   0.149  0.3204 -2.0825  0.1492
  411SOL     OW 1231   0.179   0.087   1.052  0.1964  0.0144 -0.0280
  411SOL    HW1 1232   0.192   0.082   1.153  0.3301  0.7369 -0.0877
  411SOL    HW2 1233   0.167   3.109   1.020 -1.3902 -0.1404  0.8142
  412SOL     OW 1234   1.691   0.861   1.556  0.0932  0.4743  0.2974
  412SOL    HW1 1235   1.766   0.901   1.492 -0.5841  1.0655 -0.6214
  412SOL    HW2 1236   1.607   0.828   1.508  1.8826 -1.1690  1.2038
  413SOL     OW 1237   0.666   3.044   1.738  0.6385 -0.4793 -0.0804
  413SOL    HW1 1238   0.567   3.009   1.743 -3.4539  0.2588 -2.6932
  413SOL    HW2 1239   0.668   0.021   1.775 -0.4143  1.4294 -0.3085
  414SOL     OW 1240   2.839   1.647   2.587  0.0621  0.1654 -0.0933
  414SOL    HW1 1241   2.872   1.554   2.618  1.7948 -0.5838  0.0637
  414SOL    HW2 1242   2.902   1.691   2.521 -2.0698  0.9509 -1.2167
  415SOL     OW 1243   0.840   2.455   3.071 -0.1601  0.2563 -0.3492
  415SOL    HW1 1244   0.910   2.528   3.048 -1.1267 -1.2093  1.2917
  415SOL    HW2 1245   0.855   2.432   0.051  0.1705  1.4387  0.0696
  416SOL     OW 1246   1.868   3.039   0.002 -0.4516 -0.7423  0.2081
  416SOL    HW1 1247   1.905   3.092   0.082  3.7806  1.6253 -1.1730
  416SOL    HW2 1248   1.920   3.067   3.035  0.6602 -1.0865 -1.1983
  417SOL     OW 1249   0.169   0.570   0.792 -0.7932 -0.2469 -0.1293
  417SOL    HW1 1250   0.257   0.588   0.837  0.5993 -0.4258 -2.9545
  417SOL    HW2 1251   0.165   0.475   0.757  1.1542  2.4890 -0.6660
  418SOL     OW 1252   2.384   0.251   0.988 -0.3345 -0.3961 -0.3137
  418SOL    HW1 1253   2.293   0.209   0.985  1.5947  1.1477  0.0926
  418SOL    HW2 1254   2.394   0.331   0.924  1.2418  1.5810 -0.0262
  419SOL     OW 1255   0.074   2.929   0.694 -0.1943  1.0398 -0.2192
  419SOL    HW1 1256   3.100   2.971   0.712 -3.8084  2.5221  1.1322
  419SOL    HW2 1257   0.074   2.838   0.639 -1.5577 -0.1262 -0.0227
  420SOL     OW 1258   0.194   1.431   1.456 -0.3426 -0.0184 -0.5708
  420SOL    HW1 1259   0.293   1.428   1.430  0.4222 -1.6331  0.1870
  420SOL    HW2 1260   0.134   1.436   1.376  0.9915  0.4108  1.4089
  421SOL     OW 1261   1.283   2.928   0.546 -0.0258  0.3492  0.3637
  421SOL    HW1 1262   1.225   3.007   0.570 -0.5243 -1.0860  0.9731
  421SOL    HW2 1263   1.236   2.876   0.476  1.0180  1.6064 -2.7375
  422SOL     OW 1264   0.662   0.348   1.269  0.5256  0.0460  0.3910
  422SOL    HW1 1265   0.749   0.317   1.313 -0.5395 -1.6307  4.3673
  422SOL    HW2 1266   0.588   0.272   1.269 -1.3106  0.6896 -0.6331
  423SOL     OW 1267   1.076   1.317   1.877  0.3621 -0.2731  0.4138
  423SOL    HW1 1268   1.105   1.403   1.925 -2.6036 -2.7184  2.6823
  423SOL    HW2 1269   1.066   1.238   1.940  1.1417  1.5538  0.8639
  424SOL     OW 1270   2.122   1.861   0.015 -0.1621 -0.3238  0.5753
  424SOL    HW1 1271   2.086   1.956   0.006  0.9713 -2.6984 -0.2319
  424SOL    HW2 1272   2.092   1.809   0.096  0.3651 -0.9496  1.7844
  425SOL     OW 1273   0.082   0.154   2.136 -0.0204 -0.6084  0.2283
  425SOL    HW1 1274   3.106   0.115   2.151 -0.1424  0.2110 -0.7370
  425SOL    HW2 1275   0.155   0.119   2.200  1.7082 -0.4752 -0.0907
  426SOL     OW 1276   0.244   2.805   2.845  0.2125  0.1436 -0.1340
  426SOL    HW1 1277   0.196   2.814   2.933  1.4359 -0.9438  0.8437
  426SOL    HW2 1278   0.302   2.720   2.835  1.6951 -2.5764  0.2850
  427SOL     OW 1279   0.936   0.837   2.849  0.2412  0.0660 -0.3131
  427SOL    HW1 1280   1.015   0.895   2.832 -0.4784  1.0238  1.9212
  427SOL    HW2 1281   0.951   0.746   2.802 -1.5709 -2.0475  0.7411
  428SOL     OW 1282   2.826   0.763   1.567  0.3505  0.0812  0.1980
  428SOL    HW1 1283   2.807   0.700   1.485  2.1734 -1.3664 -1.5648
  428SOL    HW2 1284   2.890   0.836   1.545 -2.6781 -2.1447 -0.0880
  429SOL     OW 1285   2.232   2.894   0.989  0.2607  0.1120 -0.1483
  429SOL    HW1 1286   2.294   2.855   1.063 -2.2295 -0.5407 -0.0901
  429SOL    HW2 1287   2.194   2.819   0.923 -0.2277 -2.7465 -1.4448
  430SOL     OW 1288   0.969   1.624   2.518 -0.1503 -0.0389 -0.5338
  430SOL    HW1 1289   0.943   1.700   2.577  1.8565 -0.3490 -1.8065
  430SOL    HW2 1290   1.048   1.571   2.555  0.5791  0.8884  1.3302
  431SOL     OW 1291   2.654   1.488   1.438 -0.1140 -0.3387 -0.4420
  431SOL    HW1 1292   2.752   1.457   1.452 -0.2067 -0.5645  0.4635
  431SOL    HW2 1293   2.602   1.404   1.414  0.8173 -0.3692 -1.0305
  432SOL     OW 1294   1.016   2.441   2.435 -0.5332  0.3859  0.7790
  432SOL    HW1 1295   1.027   2.541   2.442  0.0821  0.7236  1.2538
  432SOL    HW2 1296   1.092   2.398   2.491  0.0108 -0.8960  1.5033
  433SOL     OW 1297   1.646   0.386   2.099 -0.1327  0.0180  0.1458
  433SOL    HW1 1298   1.734   0.340   2.108 -3.6343 -1.8727 -2.0870
  433SOL    HW2 1299   1.643   0.472   2.157  2.5818  3.6182 -0.0831
  434SOL     OW 1300   0.750   2.512   2.267 -0.2224  0.0934  0.2612
  434SOL    HW1 1301   0.726   2.608   2.238 -0.8630 -0.5374 -2.2740
  434SOL    HW2 1302   0.836   2.505   2.315 -1.6100 -0.8602 -2.0280
  435SOL     OW 1303   0.502   2.932   0.241  0.0237 -0.3355 -0.5863
  435SOL    HW1 1304   0.467   3.021   0.202 -0.7288 -0.5426  0.4914
  435SOL    HW2 1305   0.541   2.942   0.337  1.2827 -1.4858  0.4800
  436SOL     OW 1306   0.681   0.770   2.007  0.1701  0.3398  0.4052
  436SOL    HW1 1307   0.638   0.861   2.006 -1.7773  0.2204 -2.8450
  436SOL    HW2 1308   0.636   0.713   2.079 -0.3218  0.5610  0.0742
  437SOL     OW 1309   0.456   2.342   2.614 -0.4995  0.0286  0.0259
  437SOL    HW1 1310   0.502   2.316   2.529 -1.4303  0.9023 -1.0673
  437SOL    HW2 1311   0.484   2.277   2.692  0.7443 -0.3692  1.2103
  438SOL     OW 1312   0.835   1.354   1.741  0.2128  0.6045  0.2650
  438SOL    HW1 1313   0.832   1.430   1.674 -0.0893  1.6086  0.5547
  438SOL    HW2 1314   0.931   1.338   1.769 -0.7567 -1.4514  3.2273
  439SOL     OW 1315   2.446   1.036   2.319  0.1986 -0.5748 -0.2244
  439SOL    HW1 1316   2.481   1.005   2.410  0.1224  1.3421  0.0085
  439SOL    HW2 1317   2.403   1.128   2.323  0.6984  0.1703 -0.8093
  440SOL     OW 1318   0.363   0.590   0.213  0.1257 -0.1759 -0.4048
  440SOL    HW1 1319   0.321   0.501   0.185  0.5637  4.3606 -0.6441
  440SOL    HW2 1320   0.384   0.592   0.312 -1.2633  0.9203  0.6834
  441SOL     OW 1321   1.409   2.119   1.493  0.2403  0.1718  0.4139
  441SOL    HW1 1322   1.439   2.205   1.448  0.0806 -0.7076 -1.5191
  441SOL    HW2 1323   1.311   2.122   1.522  0.4186 -0.6519 -0.9606
  442SOL     OW 1324   1.926   1.567   0.696 -0.5257 -0.0330 -0.0409
  442SOL    HW1 1325   1.958   1.603   0.784  0.1574 -1.2659 -1.0931
  442SOL    HW2 1326   1.983   1.491   0.663 -1.3350  2.3648 -0.2134
  443SOL     OW 1327   2.776   2.080   2.728 -1.2993 -0.1067  0.2518
  443SOL    HW1 1328   2.800   2.173   2.683  2.8314  1.0085 -3.7979
  443SOL    HW2 1329   2.679   2.075   2.751  3.7231  0.4091 -2.3844
  444SOL     OW 1330   1.457   1.544   2.947 -0.1520  0.1392  0.0057
  444SOL    HW1 1331   1.488   1.548   3.048  1.9636 -2.4008  2.5447
  444SOL    HW2 1332   1.425   1.450   2.923 -0.2715  3.2509  2.4579
  445SOL     OW 1333   2.560   2.837   2.159 -0.3099 -0.3047  0.4319
  445SOL    HW1 1334   2.630   2.802   2.092 -0.2452  0.2536 -1.2852
  445SOL    HW2 1335   2.601   2.899   2.227 -0.9202 -2.1207 -1.4981
  446SOL     OW 1336   0.808   0.869   1.679 -0.7959  0.0970  0.1854
  446SOL    HW1 1337   0.826   0.906   1.585 -1.4041 -1.5074 -3.6960
  446SOL    HW2 1338   0.896   0.877   1.729  0.8871 -3.5660 -0.0720
  447SOL     OW 1339   0.976   0.797   1.015 -0.5621  0.2541 -0.5414
  447SOL    HW1 1340   0.956   0.769   1.111  0.4726 -0.3844  0.7727
  447SOL    HW2 1341   1.044   0.871   1.006  2.1095  2.6703  0.1788
  448SOL     OW 1342   0.970   1.096   2.292 -0.2434 -0.1314 -0.2953
  448SOL    HW1 1343   0.875   1.117   2.313 -0.6014  0.5259 -0.5307
  448SOL    HW2 1344   1.010   1.044   2.369  0.9460 -1.8199  0.3951
  449SOL     OW 1345   0.061   1.998   2.193  0.2265  0.1982  0.5171
  449SOL    HW1 1346   0.152   1.964   2.218 -0.8991  3.2857 -1.6069
  449SOL    HW2 1347   0.042   1.986   2.094  0.4785 -1.7158 -0.5584
  450SOL     OW 1348   2.508   1.923   2.066 -0.7026  0.2283  0.1491
  450SOL    HW1 1349   2.525   1.910   2.163  0.4427  0.1777 -2.7254
  450SOL    HW2 1350   2.437   1.855   2.036 -1.1241  0.9383 -0.3330
  451SOL     OW 1351   2.582   1.239   1.326 -0.4151 -0.0827  0.1061
  451SOL    HW1 1352   2.519   1.288   1.256 -0.6575 -0.4782 -3.8086
  451SOL    HW2 1353   2.540   1.147   1.337 -0.1378 -3.0821 -1.4243
  452SOL     OW 1354   0.133   1.158   1.392 -0.4587 -0.1426  0.0193
  452SOL    HW1 1355   0.141   1.243   1.444  0.7383  2.4586  0.2178
  452SOL    HW2 1356   0.223   1.122   1.357 -0.6971  1.9072  1.7436
  453SOL     OW 1357   0.339   0.937   0.801 -0.3306  0.4477 -0.7667
  453SOL    HW1 1358   0.413   0.871   0.778 -4.1416  3.2196 -0.3881
  453SOL    HW2 1359   0.261   0.917   0.737  1.4166 -1.0555  0.0215
  454SOL     OW 1360   0.342   1.565   0.427  0.6451 -0.6932  0.4959
  454SOL    HW1 1361   0.429   1.552   0.381 -0.5415  0.3606 -1.8275
  454SOL    HW2 1362   0.264   1.554   0.363 -1.4186  0.9877 -0.9393
  455SOL     OW 1363   1.692   0.918   1.017 -0.3209 -0.1394 -0.5880
  455SOL    HW1 1364   1.684   1.012   0.980 -1.3067 -0.4304  0.1438
  455SOL    HW2 1365   1.791   0.885   1.011 -0.9505  3.0300  0.9579
  456SOL     OW 1366   1.669   2.436   0.863 -0.2214 -0.0325 -0.0020
  456SOL    HW1 1367   1.622   2.519   0.887  0.6445 -0.6099 -2.1722
  456SOL    HW2 1368   1.743   2.437   0.789 -0.3065 -1.2193 -0.9649
  457SOL     OW 1369   1.743   0.323   2.560  0.3515 -0.1792  0.1305
  457SOL    HW1 1370   1.724   0.233   2.516  1.1184 -0.3531 -0.9362
  457SOL    HW2 1371   1.669   0.383   2.528  1.0864 -2.9574 -1.6741
  458SOL     OW 1372   2.433   0.498   3.089 -1.0806  0.4992  0.1370
  458SOL    HW1 1373   2.409   0.406   3.059  0.5565  0.2687 -0.8557
  458SOL    HW2 1374   2.488   0.556   3.023 -1.0974  1.8094  0.3709
  459SOL     OW 1375   3.078   1.261   2.102  0.1451 -0.1848 -0.0628
  459SOL    HW1 1376   3.111   1.293   2.197 -1.5840  2.6157  3.3109
  459SOL    HW2 1377   3.015   1.179   2.111 -2.6894 -4.0363 -1.8695
  460SOL     OW 1378   0.175   0.791   3.080  0.2693  0.2400 -0.3176
  460SOL    HW1 1379   0.137   0.781   2.987  0.2598  0.8050 -0.0706
  460SOL    HW2 1380   0.265   0.734   3.075  0.8479  0.2511 -0.9508
  461SOL     OW 1381   0.030   2.345   0.687  0.0479  0.0682 -0.2806
  461SOL    HW1 1382   0.061   2.285   0.763 -0.1382  1.2228 -0.6434
  461SOL    HW2 1383   0.057   2.306   0.597 -0.6515 -1.0252  1.5458
  462SOL     OW 1384   3.094   3.021   1.752 -0.2129 -0.1882 -0.4586
  462SOL    HW1 1385   0.007   2.935   1.706  2.1106 -0.9707 -0.1382
  462SOL    HW2 1386   3.046   3.082   1.690  3.3086 -2.4806  0.0117
  463SOL     OW 1387   1.862   2.091   2.042 -1.2845 -0.4145 -1.0089
  463SOL    HW1 1388   1.924   2.033   1.986  0.4904  1.2537  0.8150
  463SOL    HW2 1389   1.855   2.182   2.000  0.2125 -0.4705 -2.0198
  464SOL     OW 1390   0.253   2.844   1.192  0.0122 -0.0379 -0.1605
  464SOL    HW1 1391   0.264   2.929   1.252 -0.2927  2.3317  2.3589
  464SOL    HW2 1392   0.227   2.872   1.099  0.2281 -1.7109  1.7852
  465SOL     OW 1393   0.337   3.062   1.503  0.1441  0.1947 -0.1485
  465SOL    HW1 1394   0.369   3.002   1.582  1.2866 -0.6382  2.3187
  465SOL    HW2 1395   0.311   0.035   1.536 -0.6115 -2.1121 -1.1233
  466SOL     OW 1396   1.189   2.045   2.367 -0.2277  0.7512 -0.0604
  466SOL    HW1 1397   1.192   1.970   2.299 -0.6803  0.7391 -0.4963
  466SOL    HW2 1398   1.096   2.086   2.367  0.5839  3.2827 -0.9107
  467SOL     OW 1399   2.893   1.371   0.815  0.6987 -0.3150 -0.3952
  467SOL    HW1 1400   2.871   1.449   0.876 -0.5485  1.5033  5.6771
  467SOL    HW2 1401   2.835   1.371   0.730 -1.8585 -1.0832  0.4444
  468SOL     OW 1402   2.323   2.000   2.739 -0.5579 -0.1396  0.0032
  468SOL    HW1 1403   2.333   1.902   2.773  0.9186 -0.7270 -0.1194
  468SOL    HW2 1404   2.286   1.999   2.640 -2.0286 -0.8855 -1.7183
  469SOL     OW 1405   1.126   2.101   0.503  0.1229  0.0594  0.3295
  469SOL    HW1 1406   1.205   2.150   0.467 -0.0379  1.0955 -1.1933
  469SOL    HW2 1407   1.144   2.078   0.600 -0.8222 -0.2976  0.6691
  470SOL     OW 1408   2.023   1.763   1.435  0.2227  0.1618 -0.1101
  470SOL    HW1 1409   1.975   1.854   1.423 -0.9775  1.2215  0.8517
  470SOL    HW2 1410   2.060   1.762   1.537  1.5149 -0.5884  0.7115
  471SOL     OW 1411   0.466   2.348   0.252  0.3297  0.4302  0.3179
  471SOL    HW1 1412   0.498   2.435   0.295  2.3289 -0.1606 -0.1275
  471SOL    HW2 1413   0.448   2.356   0.151  1.8648  2.6317 -2.0649
  472SOL     OW 1414   2.445   1.760   2.403  0.5054 -0.5725  0.1179
  472SOL    HW1 1415   2.480   1.715   2.484  0.4426 -0.5720  2.2096
  472SOL    HW2 1416   2.392   1.846   2.431 -0.4750  0.7136  2.2673
  473SOL     OW 1417   1.493   2.685   0.851  0.0693 -0.1990 -0.4224
  473SOL    HW1 1418   1.444   2.661   0.934  2.9727 -0.3778 -1.4489
  473SOL    HW2 1419   1.463   2.774   0.817  0.2749 -0.0932 -0.0752
  474SOL     OW 1420   2.910   0.002   1.581 -0.0431 -0.1067  0.3734
  474SOL    HW1 1421   2.954   3.094   1.497 -0.2063  1.1507  1.4757
  474SOL    HW2 1422   2.815   0.036   1.553  0.2859 -0.1234  0.4980
  475SOL     OW 1423   2.104   2.956   1.887 -0.6797  0.1690  0.2891
  475SOL    HW1 1424   2.189   2.949   1.949  0.1979 -1.9379 -0.8116
  475SOL    HW2 1425   2.051   3.038   1.911  1.9788 -0.8048  2.7970
  476SOL     OW 1426   0.401   0.508   0.927 -0.0401  0.2838  0.0534
  476SOL    HW1 1427   0.479   0.445   0.893 -0.3619  1.3200  0.1816
  476SOL    HW2 1428   0.341   0.462   0.994  1.0578  0.8671 -1.1929
  477SOL     OW 1429   0.777   1.932   1.004  0.0855 -0.3690  0.5819
  477SOL    HW1 1430   0.711   2.006   0.992 -0.4633 -1.1206 -1.1657
  477SOL    HW2 1431   0.868   1.977   1.010  1.1011  0.9062  0.9926
  478SOL     OW 1432   0.773   2.569   2.724 -0.1935  0.3348  0.2906
  478SOL    HW1 1433   0.712   2.577   2.643  1.4326 -0.9610 -1.1915
  478SOL    HW2 1434   0.717   2.558   2.812  0.5374 -0.1457  0.0350
  479SOL     OW 1435   0.067   0.820   2.101  0.3233  0.6542  0.2868
  479SOL    HW1 1436   3.102   0.868   2.126  2.3853  0.2474 -0.4948
  479SOL    HW2 1437   0.054   0.720   2.079 -1.5346 -1.7170 -2.6817
  480SOL     OW 1438   0.273   2.284   2.947 -0.6620  0.1958 -0.5846
  480SOL    HW1 1439   0.253   2.272   3.044 -1.7805 -2.0572  2.1518
  480SOL    HW2 1440   0.189   2.267   2.894  0.8781  0.6649  0.0588
  481SOL     OW 1441   1.529   3.106   2.211 -0.0980 -0.1557 -0.1701
  481SOL    HW1 1442   1.597   0.025   2.272  2.1613 -1.2188  2.0942
  481SOL    HW2 1443   1.456   0.058   2.203 -1.6490 -0.8851  0.4730
  482SOL     OW 1444   1.666   1.865   3.069  0.1269  0.1152 -0.4880
  482SOL    HW1 1445   1.632   1.837   0.045 -2.6284 -0.3612  2.3342
  482SOL    HW2 1446   1.584   1.863   3.003 -0.5968  0.7561 -0.7298
  483SOL     OW 1447   0.990   2.747   2.685 -0.1215  0.3262 -0.5120
  483SOL    HW1 1448   1.075   2.692   2.665  0.5235 -0.6223  2.0628
  483SOL    HW2 1449   0.907   2.689   2.700  1.1975  0.6616  1.0371
  484SOL     OW 1450   0.636   2.659   0.874 -0.5779  0.4274  0.1521
  484SOL    HW1 1451   0.657   2.756   0.879 -0.5282 -0.1037 -2.2903
  484SOL    HW2 1452   0.556   2.635   0.934 -1.1080 -1.1114  1.9739
  485SOL     OW 1453   2.026   0.821   0.757 -0.2050  0.3057  0.6821
  485SOL    HW1 1454   1.991   0.915   0.767 -0.2636 -1.8002  1.9977
  485SOL    HW2 1455   1.965   0.749   0.793  0.9575  2.1053  0.3761
  486SOL     OW 1456   1.923   2.783   2.032  0.0510 -0.1284  0.1905
  486SOL    HW1 1457   1.973   2.740   2.109 -0.7567 -3.9137  1.0880
  486SOL    HW2 1458   1.974   2.857   1.992 -2.2012 -0.8345  0.3938
  487SOL     OW 1459   1.259   1.821   0.693  0.0164  0.1942  0.4457
  487SOL    HW1 1460   1.183   1.788   0.638 -0.7609 -1.5540  0.5456
  487SOL    HW2 1461   1.250   1.915   0.726  0.1263 -0.5552 -0.4099
  488SOL     OW 1462   2.089   0.289   0.115  0.7778 -0.1593 -0.1901
  488SOL    HW1 1463   2.096   0.362   0.189 -0.1258  2.2325  0.9522
  488SOL    HW2 1464   2.074   0.320   0.020 -1.2205 -2.0375 -1.2448
  489SOL     OW 1465   2.071   3.010   0.402  0.4641  0.0850 -0.9457
  489SOL    HW1 1466   2.117   3.085   0.449 -0.4544 -0.9967  0.1457
  489SOL    HW2 1467   1.979   2.989   0.444 -1.6022  0.5176 -1.8843
  490SOL     OW 1468   1.643   2.950   2.994 -0.1794 -0.1300  0.3471
  490SOL    HW1 1469   1.731   2.981   3.039  1.9151 -0.2217 -3.4864
  490SOL    HW2 1470   1.564   2.995   3.036 -1.0287  0.0581 -1.9299
  491SOL     OW 1471   0.904   0.201   0.984  0.0613  0.4667 -0.1975
  491SOL    HW1 1472   1.001   0.175   0.999  1.5072 -1.0621  1.2071
  491SOL    HW2 1473   0.840   0.141   1.040 -3.5890 -0.9042 -0.8633
  492SOL     OW 1474   1.684   2.965   0.228 -0.1134  0.0917  0.4675
  492SOL    HW1 1475   1.737   3.001   0.309  0.4469 -0.6127  1.5515
  492SOL    HW2 1476   1.747   2.949   0.147 -0.1018 -0.3197 -0.0720
  493SOL     OW 1477   1.727   2.693   2.737  0.0614  0.3197 -0.3824
  493SOL    HW1 1478   1.750   2.605   2.692 -2.3224 -0.3861  0.1791
  493SOL    HW2 1479   1.712   2.685   2.840  1.3541  0.8236  2.5403
  494SOL     OW 1480   0.526   1.154   0.929 -0.0203 -0.8133  0.6600
  494SOL    HW1 1481   0.572   1.065   0.949  0.7766  1.0007 -0.6488
  494SOL    HW2 1482   0.433   1.145   0.897 -1.1850  0.8784  0.0431
  495SOL     OW 1483   2.978   0.258   1.958  0.1757 -0.7397  0.4239
  495SOL    HW1 1484   2.981   0.242   1.855 -0.7423  0.5118 -3.8014
  495SOL    HW2 1485   3.060   0.213   1.996 -1.9015 -2.7099  0.3889
  496SOL     OW 1486   2.585   2.492   2.139 -0.3159 -0.5737 -0.1965
  496SOL    HW1 1487   2.674   2.445   2.133 -0.3760  0.3746 -0.5867
  496SOL    HW2 1488   2.579   2.541   2.228  0.7505 -2.0471 -1.3127
  497SOL     OW 1489   1.645   1.232   2.717 -0.2521  0.0250  0.0301
  497SOL    HW1 1490   1.635   1.184   2.626 -0.1262  0.4852 -2.6428
  497SOL    HW2 1491   1.703   1.185   2.787  1.4494  0.6334 -1.8521
  498SOL     OW 1492   0.795   1.786   0.744  0.3312 -0.0181 -0.4327
  498SOL    HW1 1493   0.696   1.785   0.706  1.2669 -1.3629  1.5287
  498SOL    HW2 1494   0.785   1.787   0.846 -3.4229 -1.5698  2.3828
  499SOL     OW 1495   0.300   1.612   1.136 -0.1673 -0.7684 -0.1878
  499SOL    HW1 1496   0.200   1.621   1.134  1.8740  0.4068 -1.1309
  499SOL    HW2 1497   0.326   1.637   1.234 -1.4497  0.7835 -1.2619
  500SOL     OW 1498   1.620   2.663   0.439 -0.3925  0.2802 -0.2932
  500SOL    HW1 1499   1.570   2.709   0.366 -1.1918  2.2963  2.0178
  500SOL    HW2 1500   1.562   2.614   0.501  4.6036  0.1213 -1.0751
  501SOL     OW 1501   2.089   2.624   1.045  0.2055  0.3876  0.0921
  501SOL    HW1 1502   2.186   2.594   1.043  1.9637 -0.8571  1.1504
  501SOL    HW2 1503   2.058   2.662   0.955  1.8410  0.2624  1.3444
  502SOL     OW 1504   0.471   0.477   1.462 -0.0354 -0.0759  0.9382
  502SOL    HW1 1505   0.390   0.412   1.473 -1.3314 -2.1745  1.8733
  502SOL    HW2 1506   0.532   0.454   1.386 -1.1798  0.9383  1.8169
  503SOL     OW 1507   2.098   0.253   1.597  0.1643  0.1592  0.0787
  503SOL    HW1 1508   2.024   0.240   1.530  1.5257 -1.4407 -1.0873
  503SOL    HW2 1509   2.150   0.164   1.597 -0.5078  0.5661  1.0380
  504SOL     OW 1510   2.026   0.985   1.982 -0.4044  0.3125 -0.0325
  504SOL    HW1 1511   1.976   0.996   2.067 -0.7626  1.8670 -2.4141
  504SOL    HW2 1512   1.989   1.054   1.917 -0.4263  0.1225 -0.1630
  505SOL     OW 1513   1.208   3.116   2.099 -0.5397 -0.0301  0.4157
  505SOL    HW1 1514   1.197   0.092   2.071 -2.5103 -2.1212  2.3513
  505SOL    HW2 1515   1.219   3.108   2.198  1.1902  0.1226 -1.0305
  506SOL     OW 1516   0.394   0.252   1.813  0.0629 -0.0876 -0.3136
  506SOL    HW1 1517   0.478   0.296   1.774  1.0281  1.5677  1.7450
  506SOL    HW2 1518   0.413   0.196   1.898  0.4029  3.8733  1.8193
  507SOL     OW 1519   1.646   0.167   2.955  0.2119 -0.4807  0.1094
  507SOL    HW1 1520   1.706   0.210   3.029 -1.4298  2.6459  2.1389
  507SOL    HW2 1521   1.568   0.126   3.007 -0.8500  2.3323  0.4716
  508SOL     OW 1522   2.215   0.615   2.419  0.3947  0.0849  0.1787
  508SOL    HW1 1523   2.230   0.632   2.516 -1.7600 -1.3702  1.7777
  508SOL    HW2 1524   2.245   0.692   2.362 -0.5447 -2.0570  0.1995
  509SOL     OW 1525   0.887   1.379   2.181 -0.8186 -0.5993  0.2045
  509SOL    HW1 1526   0.868   1.398   2.279 -1.5792  1.5709  0.5577
  509SOL    HW2 1527   0.867   1.467   2.130 -1.0237 -2.4282 -1.0339
  510SOL     OW 1528   2.838   0.453   0.919 -0.6166  0.2152 -0.4255
  510SOL    HW1 1529   2.889   0.514   0.986  0.6912  0.6488  3.0244
  510SOL    HW2 1530   2.822   0.490   0.825 -2.1639 -1.0791  0.0994
  511SOL     OW 1531   1.790   1.485   1.096  0.1250  0.1799 -0.1270
  511SOL    HW1 1532   1.784   1.547   1.017  0.6585 -0.6248  1.6494
  511SOL    HW2 1533   1.814   1.531   1.185  0.1062  0.8925 -0.6049
  512SOL     OW 1534   0.544   1.198   0.464 -0.2284  0.2314 -0.4692
  512SOL    HW1 1535   0.444   1.177   0.464 -0.4360 -0.7873  0.3748
  512SOL    HW2 1536   0.584   1.206   0.558 -2.3089  0.9188  1.6888
  513SOL     OW 1537   0.612   2.162   0.989 -0.0302 -0.4128  0.3242
  513SOL    HW1 1538   0.528   2.110   0.981  0.0355 -0.8681  2.2902
  513SOL    HW2 1539   0.618   2.254   0.939  0.6004  0.5389 -2.3695
  514SOL     OW 1540   0.204   2.175   0.070 -0.1544  0.0240  0.7027
  514SOL    HW1 1541   0.106   2.201   0.086  2.1348 -0.3531 -1.7833
  514SOL    HW2 1542   0.241   2.108   0.137 -1.0675 -1.8226  0.7227
  515SOL     OW 1543   2.765   0.318   0.129  0.1113  0.5239  0.0674
  515SOL    HW1 1544   2.710   0.231   0.114 -0.5320  2.6542  1.8219
  515SOL    HW2 1545   2.713   0.382   0.191 -0.1651  1.7405  0.2099
  516SOL     OW 1546   1.996   3.029   0.972  0.7586  0.5863 -0.0358
  516SOL    HW1 1547   1.929   3.011   1.044  0.3592 -1.7661 -5.7065
  516SOL    HW2 1548   2.079   2.968   0.974  0.3593 -0.1902  1.8877
  517SOL     OW 1549   1.200   1.528   0.359 -0.1339  0.5484 -0.2727
  517SOL    HW1 1550   1.243   1.450   0.403 -1.9087 -2.8615  0.0909
  517SOL    HW2 1551   1.108   1.550   0.399 -0.4809  0.2401 -0.8517
  518SOL     OW 1552   1.499   0.761   1.381  0.1988  0.5030 -0.3733
  518SOL    HW1 1553   1.482   0.703   1.296 -1.3367 -1.3113 -1.5086
  518SOL    HW2 1554   1.506   0.854   1.346 -3.0995 -1.7511  1.4039
  519SOL     OW 1555   2.704   2.379   0.374  0.3953  0.2812 -0.3514
  519SOL    HW1 1556   2.730   2.299   0.438  0.1835 -0.1521 -0.0924
  519SOL    HW2 1557   2.742   2.357   0.283 -0.5800  1.7377  2.0307
  520SOL     OW 1558   2.232   2.196   1.934  0.1781 -0.0915 -0.3653
  520SOL    HW1 1559   2.187   2.107   1.944  0.8783 -0.2188  0.0601
  520SOL    HW2 1560   2.285   2.221   2.017  1.5708 -2.1339  1.8241
  521SOL     OW 1561   1.485   2.824   2.220 -0.1486  0.1029 -0.1916
  521SOL    HW1 1562   1.433   2.818   2.305  1.0534  0.5505 -1.2283
  521SOL    HW2 1563   1.500   2.917   2.195 -0.5017 -2.0631  0.2218
  522SOL     OW 1564   2.763   0.222   2.108 -0.2266 -0.1301  0.1090
  522SOL    HW1 1565   2.851   0.237   2.052 -2.2624  1.6881 -3.0414
  522SOL    HW2 1566   2.793   0.173   2.194 -0.3280  0.7238  1.0788
  523SOL     OW 1567   1.113   2.070   1.466 -0.5364  0.0535  0.1558
  523SOL    HW1 1568   1.059   2.155   1.489 -3.2042  1.5296  0.4193
  523SOL    HW2 1569   1.052   1.993   1.448  1.0037  0.5598 -0.3879
  524SOL     OW 1570   2.090   2.131   2.824  0.5172 -0.3366 -0.0200
  524SOL    HW1 1571   2.180   2.091   2.817 -1.8474  0.4814  0.9353
  524SOL    HW2 1572   2.014   2.068   2.792 -0.8271  0.3768 -0.6026
  525SOL     OW 1573   2.890   1.019   0.339  0.0341  0.6132  0.0104
  525SOL    HW1 1574   2.912   0.926   0.375 -1.6385  1.1185  0.5831
  525SOL    HW2 1575   2.855   1.021   0.245  1.0003 -0.8605 -1.2587
  526SOL     OW 1576   1.106   2.882   1.104 -0.2984  0.3222  0.4392
  526SOL    HW1 1577   1.091   2.791   1.058 -0.9741  1.6182  1.8743
  526SOL    HW2 1578   1.025   2.939   1.091  1.0833 -1.6032  3.0515
  527SOL     OW 1579   2.307   1.545   0.636 -0.6587  0.3522 -0.2464
  527SOL    HW1 1580   2.223   1.490   0.634 -3.5049 -1.7337  1.2015
  527SOL    HW2 1581   2.357   1.538   0.546  2.9480  0.0849 -1.9281
  528SOL     OW 1582   0.537   0.844   2.628 -0.8338  0.0026  0.4895
  528SOL    HW1 1583   0.611   0.851   2.560 -0.1222  0.0229  2.3886
  528SOL    HW2 1584   0.442   0.845   2.594 -1.9301  1.9426  1.7414
  529SOL     OW 1585   0.397   1.430   0.053 -0.2544  0.4659 -0.2708
  529SOL    HW1 1586   0.322   1.472   0.001  0.8553 -1.0540 -0.6855
  529SOL    HW2 1587   0.395   1.329   0.037 -2.6116  0.8884  0.6960
  530SOL     OW 1588   1.518   1.235   2.014 -0.4972 -0.2126 -0.0759
  530SOL    HW1 1589   1.596   1.194   1.962 -0.5438 -0.5282 -2.0303
  530SOL    HW2 1590   1.449   1.167   2.042  0.7971 -0.3613  3.5318
  531SOL     OW 1591   1.327   2.271   2.930 -0.3760  0.2367 -0.7927
  531SOL    HW1 1592   1.335   2.271   2.829  3.6857  0.2902 -0.2685
  531SOL    HW2 1593   1.370   2.190   2.977 -2.1157  1.4780  0.3700
  532SOL     OW 1594   2.256   0.701   0.056  0.4241 -0.1808 -0.1651
  532SOL    HW1 1595   2.259   0.736   0.150 -1.9134  0.0903  0.5259
  532SOL    HW2 1596   2.322   0.627   0.044 -2.4948 -0.4855  0.8216
  533SOL     OW 1597   2.907   0.510   2.098  0.0568  0.6113 -0.0312
  533SOL    HW1 1598   2.881   0.436   2.034 -2.5790 -0.9753 -0.0470
  533SOL    HW2 1599   2.831   0.574   2.122  0.4586  0.8262 -0.4485
  534SOL     OW 1600   1.917   0.081   0.227  0.3550  0.0385  0.7568
  534SOL    HW1 1601   1.970   0.026   0.292 -3.0303 -0.4698 -2.7414
  534SOL    HW2 1602   1.971   0.157   0.188  1.0297  2.2805  1.7014
  535SOL     OW 1603   0.509   0.360   3.114  0.0456 -0.5494 -0.2260
  535SOL    HW1 1604   0.612   0.359   0.008  2.7760  1.7044  1.5769
  535SOL    HW2 1605   0.494   0.295   3.036  0.2672  1.1864 -0.7456
  536SOL     OW 1606   0.470   1.568   1.695 -0.9189 -0.6792 -0.0477
  536SOL    HW1 1607   0.397   1.633   1.678  1.7916  0.4202 -0.3935
  536SOL    HW2 1608   0.490   1.518   1.607  0.3531 -1.3930  0.8603
  537SOL     OW 1609   0.297   2.596   1.949 -0.0177 -0.7367 -0.0582
  537SOL    HW1 1610   0.370   2.600   1.877 -1.7254 -1.6770  0.7314
  537SOL    HW2 1611   0.337   2.656   2.024  0.6040  0.8416  1.3295
  538SOL     OW 1612   3.085   2.244   0.188 -0.1109  0.5986  0.6511
  538SOL    HW1 1613   3.053   2.344   0.193 -1.2232  3.4536 -0.2012
  538SOL    HW2 1614   3.001   2.181   0.177  0.4093 -0.7485 -2.0138
  539SOL     OW 1615   2.597   0.713   2.968  0.2331 -0.3961 -0.5469
  539SOL    HW1 1616   2.689   0.692   2.924 -0.9863 -0.8831 -1.2663
  539SOL    HW2 1617   2.557   0.792   2.922  1.1962 -4.0778 -2.7203
  540SOL     OW 1618   1.741   0.804   0.122 -0.6714 -0.2741 -0.0319
  540SOL    HW1 1619   1.802   0.887   0.121  2.1138  0.9563  0.6738
  540SOL    HW2 1620   1.641   0.817   0.143 -0.5724 -2.2964  1.0539
  541SOL     OW 1621   0.930   0.487   1.908  0.3090 -0.3991 -0.2012
  541SOL    HW1 1622   0.891   0.443   1.991  0.2013  1.1469 -1.0579
  541SOL    HW2 1623   0.857   0.547   1.867 -1.1290  0.5605  2.5236
  542SOL     OW 1624   1.748   2.438   2.183  0.3393 -0.3607 -0.0845
  542SOL    HW1 1625   1.702   2.527   2.174 -0.6497 -0.7233  4.2723
  542SOL    HW2 1626   1.754   2.389   2.095 -0.3098  1.4381 -2.6119
  543SOL     OW 1627   0.920   2.965   0.698  0.3918 -0.0505  0.4033
  543SOL    HW1 1628   0.998   3.034   0.707  2.2174  0.1761 -0.7796
  543SOL    HW2 1629   0.896   2.944   0.604 -0.0060 -0.5295 -0.2235
  544SOL     OW 1630   2.678   1.739   2.249  0.0508  0.0489  0.2670
  544SOL    HW1 1631   2.749   1.808   2.276  0.4096 -1.3997 -0.7690
  544SOL    HW2 1632   2.602   1.743   2.318  0.0402 -0.1850 -2.6839
  545SOL     OW 1633   1.628   1.984   1.349  0.0351 -0.3529  0.5352
  545SOL    HW1 1634   1.542   2.003   1.399 -1.9727  1.8728 -0.2992
  545SOL    HW2 1635   1.641   1.881   1.346 -0.8129 -0.9892  1.3201
  546SOL     OW 1636   0.617   0.051   2.362  0.5355 -0.0437 -0.1419
  546SOL    HW1 1637   0.624   0.152   2.351  1.3317  0.0147 -0.1428
  546SOL    HW2 1638   0.528   0.021   2.399  1.1774  0.0809 -0.3238
  547SOL     OW 1639   1.342   0.298   0.521  0.0098 -0.2804 -0.1847
  547SOL    HW1 1640   1.293   0.285   0.615 -0.1606  0.0865  1.2674
  547SOL    HW2 1641   1.284   0.341   0.446 -1.2003 -0.2901 -0.1260
  548SOL     OW 1642   1.443   2.071   3.062 -0.6251 -0.2896 -0.4700
  548SOL    HW1 1643   1.449   1.995   2.996  0.4020 -0.2225 -0.2609
  548SOL    HW2 1644   1.404   2.049   0.031  1.8965  0.0066  2.3721
  549SOL     OW 1645   1.854   1.039   0.153  0.2200 -0.0019 -0.2644
  549SOL    HW1 1646   1.950   1.042   0.170 -2.1865  0.6371  0.2894
  549SOL    HW2 1647   1.821   1.133   0.128  0.7710  0.6255  0.5584
  550SOL     OW 1648   2.512   2.101   0.258  0.1140 -0.9303  0.0319
  550SOL    HW1 1649   2.420   2.068   0.287  0.3727  2.1226  1.8755
  550SOL    HW2 1650   2.541   2.159   0.333  0.0486 -1.7715 -0.6757
  551SOL     OW 1651   1.421   0.631   1.638 -0.9333 -0.6342  0.3157
  551SOL    HW1 1652   1.458   0.656   1.545 -0.4534 -0.4124 -2.1014
  551SOL    HW2 1653   1.498   0.604   1.694 -0.0771 -0.2445 -0.0532
  552SOL     OW 1654   0.033   2.257   2.825 -0.0291  0.1412  0.0033
  552SOL    HW1 1655   3.088   2.190   2.780  0.5659  0.9854  0.3023
  552SOL    HW2 1656   3.109   2.307   2.903 -0.2388  0.8271 -0.1540
  553SOL     OW 1657   3.001   2.564   0.713  0.3987  0.3328  0.2650
  553SOL    HW1 1658   3.050   2.477   0.715 -2.4774 -1.1324 -0.5629
  553SOL    HW2 1659   2.957   2.598   0.801  1.5303  0.8419  0.9147
  554SOL     OW 1660   2.055   1.786   1.702  0.1098  0.0894  0.2296
  554SOL    HW1 1661   2.113   1.708   1.742 -1.7189 -3.0130  0.4637
  554SOL    HW2 1662   1.954   1.770   1.710 -0.4577  0.9807  0.1036
  555SOL     OW 1663   1.475   2.113   2.301  0.3181  0.5103  0.4803
  555SOL    HW1 1664   1.386   2.089   2.343  0.5949 -0.2237 -2.7379
  555SOL    HW2 1665   1.462   2.141   2.205  1.5293 -0.3182  0.0366
  556SOL     OW 1666   1.248   1.708   1.381  0.3882 -0.1256  0.1801
  556SOL    HW1 1667   1.268   1.756   1.474 -1.7025  2.3487  4.8335
  556SOL    HW2 1668   1.203   1.615   1.399 -1.9788 -0.2096  0.4302
  557SOL     OW 1669   1.555   0.152   1.703 -0.3852  0.2777 -0.2301
  557SOL    HW1 1670   1.571   0.058   1.746 -0.6813  1.5829  0.0344
  557SOL    HW2 1671   1.455   0.164   1.703  0.0555  0.4109  1.6061
  558SOL     OW 1672   0.576   2.960   2.036 -0.3756 -0.3567 -0.0037
  558SOL    HW1 1673   0.584   2.944   1.936 -2.9911  0.6479 -1.1991
  558SOL    HW2 1674   0.545   3.056   2.054  0.3903  0.4393  1.2847
  559SOL     OW 1675   2.080   2.360   0.057 -0.1943 -0.1231  0.2428
  559SOL    HW1 1676   2.016   2.421   0.013  2.9987 -0.3080 -0.7108
  559SOL    HW2 1677   2.116   2.410   0.139  2.0487 -1.6596 -1.0172
  560SOL     OW 1678   1.373   2.192   0.300  0.1106  0.4710 -0.4217
  560SOL    HW1 1679   1.391   2.114   0.364 -0.2813  1.4808  1.8360
  560SOL    HW2 1680   1.464   2.209   0.251  0.1269 -1.3879 -1.8094
  561SOL     OW 1681   1.273   0.325   0.058  0.3464  0.1918 -0.0086
  561SOL    HW1 1682   1.223   0.376   3.103 -1.5916  1.6171 -0.1245
  561SOL    HW2 1683   1.369   0.360   0.073 -0.1004  1.0058  1.7272
  562SOL     OW 1684   0.427   1.491   2.121 -0.2936  0.2698 -0.5544
  562SOL    HW1 1685   0.383   1.399   2.112  0.6062  2.2986  0.0568
  562SOL    HW2 1686   0.500   1.502   2.044  1.5163  0.2733 -2.6848
  563SOL     OW 1687   1.271   2.041   2.638  0.8049  0.0686 -0.2387
  563SOL    HW1 1688   1.261   2.011   2.546  0.3854  0.5199  3.0289
  563SOL    HW2 1689   1.366   2.049   2.660 -2.4290 -0.4905  0.0611
  564SOL     OW 1690   2.817   0.892   0.768 -0.0172 -0.0076  0.8781
  564SOL    HW1 1691   2.756   0.843   0.827  0.3495  1.2860 -4.8884
  564SOL    HW2 1692   2.851   0.980   0.813 -0.2309 -1.1889 -0.3539
  565SOL     OW 1693   0.406   1.160   0.031  0.3165 -0.2835 -0.1239
  565SOL    HW1 1694   0.364   1.106   3.078  1.9932 -2.4226 -1.1581
  565SOL    HW2 1695   0.366   1.135   0.120 -0.4037  1.3583 -2.8317
  566SOL     OW 1696   2.533   2.807   2.599  0.6345 -0.0064  0.1537
  566SOL    HW1 1697   2.630   2.818   2.620  0.0583 -0.2356 -1.4555
  566SOL    HW2 1698   2.474   2.883   2.629  2.2816  1.1512 -1.1549
  567SOL     OW 1699   1.554   1.305   1.154  0.5421 -0.6523  0.3047
  567SOL    HW1 1700   1.633   1.366   1.140  0.0456  0.6849 -0.1709
  567SOL    HW2 1701   1.575   1.236   1.224  1.6663 -3.0029 -0.1569
  568SOL     OW 1702   1.408   1.296   2.893  0.2858  0.5424 -0.0615
  568SOL    HW1 1703   1.311   1.294   2.865  0.9414  1.5981 -0.1260
  568SOL    HW2 1704   1.461   1.235   2.827  0.8722 -1.4369 -3.0106
  569SOL     OW 1705   2.385   1.764   3.084 -0.0312  0.3968 -0.0190
  569SOL    HW1 1706   2.472   1.812   3.108 -0.8535 -1.3041 -0.0005
  569SOL    HW2 1707   2.301   1.804   0.011 -0.1553 -0.0274 -0.3626
  570SOL     OW 1708   3.005   2.458   1.909  0.0878  0.6589 -0.3902
  570SOL    HW1 1709   3.058   2.380   1.943 -1.2870 -1.0148  1.3803
  570SOL    HW2 1710   3.073   2.530   1.877 -2.3413 -0.2059  2.7809
  571SOL     OW 1711   2.903   1.765   1.757  0.4326 -0.1328 -0.0093
  571SOL    HW1 1712   2.882   1.673   1.716  2.1330 -3.1224  1.2299
  571SOL    HW2 1713   2.861   1.769   1.853  0.8355 -0.3664 -0.6293
  572SOL     OW 1714   1.802   2.214   0.420  0.6040  0.0457  0.2890
  572SOL    HW1 1715   1.733   2.239   0.346 -1.6377  0.9439 -2.8105
  572SOL    HW2 1716   1.898   2.214   0.388 -0.0460 -0.5434  1.2136
  573SOL     OW 1717   1.439   2.006   0.475 -0.2443 -0.5025  0.1438
  573SOL    HW1 1718   1.538   1.998   0.481  1.3640 -0.7087  1.8271
  573SOL    HW2 1719   1.391   1.973   0.556  0.6882  2.3110 -1.4937
  574SOL     OW 1720   1.461   0.013   1.452 -0.0121  0.2504 -0.1462
  574SOL    HW1 1721   1.481   3.035   1.461 -0.8957  3.0668  0.2957
  574SOL    HW2 1722   1.509   0.068   1.525  0.8825  1.1582 -0.6928
  575SOL     OW 1723   0.397   1.110   1.248 -0.3421  0.3047  0.0317
  575SOL    HW1 1724   0.498   1.087   1.249  1.2754 -0.2035 -0.1700
  575SOL    HW2 1725   0.377   1.182   1.180  1.2902 -1.2249  2.6631
  576SOL     OW 1726   2.568   0.533   1.059 -0.7565  0.3629 -0.6947
  576SOL    HW1 1727   2.589   0.462   1.129  3.3563 -2.3458  1.3832
  576SOL    HW2 1728   2.538   0.499   0.968  0.6844  0.1231  0.5903
  577SOL     OW 1729   1.436   0.709   2.636  0.6055 -0.0256 -0.0991
  577SOL    HW1 1730   1.387   0.755   2.709 -1.4613  2.9599 -1.7456
  577SOL    HW2 1731   1.383   0.723   2.547  1.3651  2.2078 -2.5203
  578SOL     OW 1732   2.124   1.302   2.532  0.2730 -0.1969 -0.8384
  578SOL    HW1 1733   2.156   1.266   2.624 -1.1515 -0.2997 -1.7876
  578SOL    HW2 1734   2.138   1.403   2.526 -1.6231  2.5157 -1.8168
  579SOL     OW 1735   0.753   1.693   1.402 -0.1831 -0.2576 -0.1641
  579SOL    HW1 1736   0.684   1.771   1.429 -2.0103 -0.7456 -1.0254
  579SOL    HW2 1737   0.707   1.617   1.349  1.0580 -2.3997  1.6653
  580SOL     OW 1738   1.618   2.271   0.204 -0.0732  0.6377  0.1250
  580SOL    HW1 1739   1.602   2.371   0.184  0.7813  0.1142 -1.7313
  580SOL    HW2 1740   1.689   2.226   0.142 -0.6709  1.3247 -0.6098
  581SOL     OW 1741   0.974   0.771   2.140 -0.1756  0.3223  0.7611
  581SOL    HW1 1742   0.875   0.778   2.102 -3.4944 -1.2225  0.4292
  581SOL    HW2 1743   0.981   0.767   2.244 -3.3387 -1.3450  1.3485
  582SOL     OW 1744   0.802   1.191   1.314 -0.4238 -0.4123  0.1124
  582SOL    HW1 1745   0.886   1.132   1.326  0.4668  1.8835  1.1416
  582SOL    HW2 1746   0.768   1.229   1.402  0.4687  1.7636  3.4197
  583SOL     OW 1747   0.773   1.210   1.974  0.7398  0.2110 -0.6690
  583SOL    HW1 1748   0.789   1.257   1.885  2.4614  1.9864 -0.2384
  583SOL    HW2 1749   0.804   1.265   2.055  0.0879  1.3033  0.9152
  584SOL     OW 1750   2.107   2.779   0.252  0.5790  0.6540 -0.1345
  584SOL    HW1 1751   2.019   2.727   0.261 -3.6619 -0.7382  0.7590
  584SOL    HW2 1752   2.107   2.867   0.308 -1.0159  0.5863 -0.0814
  585SOL     OW 1753   1.890   0.254   2.780 -0.7359 -0.5182  0.3046
  585SOL    HW1 1754   1.832   0.193   2.834  1.1025 -1.0047 -0.0351
  585SOL    HW2 1755   1.845   0.304   2.705  2.2339  1.3782  0.9687
  586SOL     OW 1756   3.072   1.987   0.510 -0.2542 -0.4376 -0.3860
  586SOL    HW1 1757   3.011   1.955   0.435 -0.0414  1.4722  2.1964
  586SOL    HW2 1758   3.113   2.071   0.473 -0.9280  2.8763 -2.7788
  587SOL     OW 1759   1.830   1.841   0.305  0.0527  0.3991  0.2146
  587SOL    HW1 1760   1.889   1.753   0.309 -0.1860 -2.0291 -0.0961
  587SOL    HW2 1761   1.889   1.924   0.302 -0.6305 -2.2050 -0.0289
  588SOL     OW 1762   0.348   0.162   0.696 -0.4507 -0.5562  0.3954
  588SOL    HW1 1763   0.414   0.105   0.747 -0.8556 -3.1490  1.6816
  588SOL    HW2 1764   0.400   0.246   0.663 -0.2549  0.6923  0.9841
  589SOL     OW 1765   1.267   0.826   0.979  0.5762  0.2917  0.3428
  589SOL    HW1 1766   1.318   0.866   0.899  1.7159 -1.8837  0.2340
  589SOL    HW2 1767   1.274   0.876   1.069 -2.6676 -1.3312 -2.2410
  590SOL     OW 1768   1.336   1.131   0.204 -0.7916  0.6746 -0.2687
  590SOL    HW1 1769   1.318   1.230   0.193 -1.0650  0.8736  1.6522
  590SOL    HW2 1770   1.294   1.106   0.291 -1.7264  1.9267  2.1665
  591SOL     OW 1771   2.648   2.323   2.387  0.4202 -0.3242  0.3372
  591SOL    HW1 1772   2.598   2.358   2.468 -2.2016 -2.1482  1.4219
  591SOL    HW2 1773   2.750   2.334   2.389  3.2779  0.2984 -1.5104
  592SOL     OW 1774   1.672   2.050   1.093 -0.3905  0.1834  0.1747
  592SOL    HW1 1775   1.770   2.045   1.073 -1.7649 -1.0361  0.1065
  592SOL    HW2 1776   1.658   2.020   1.190  0.5747  0.5951 -1.0653
  593SOL     OW 1777   1.165   0.199   1.059 -0.2496  0.2415 -0.4698
  593SOL    HW1 1778   1.211   0.106   1.072 -1.1691 -1.7711 -0.3600
  593SOL    HW2 1779   1.172   0.255   1.144 -1.0891  0.2220 -0.0763
  594SOL     OW 1780   2.979   0.836   2.434  0.0298  0.2766  0.0247
  594SOL    HW1 1781   2.981   0.913   2.371  0.5426 -1.4311  1.1847
  594SOL    HW2 1782   3.013   0.755   2.384 -2.7944 -0.4577  1.4558
  595SOL     OW 1783   0.655   2.551   1.206 -0.0709  0.2408 -0.0776
  595SOL    HW1 1784   0.567   2.565   1.154 -1.5629  1.8072 -0.6847
  595SOL    HW2 1785   0.656   2.447   1.226 -0.2702  0.4701  0.6074
  596SOL     OW 1786   0.163   0.770   1.375 -0.4031 -0.0231 -0.3808
  596SOL    HW1 1787   0.179   0.811   1.286  0.7740 -3.1851  0.5542
  596SOL    HW2 1788   0.097   0.696   1.357  1.1928 -3.0346 -2.3139
  597SOL     OW 1789   1.557   1.817   0.171 -0.2276 -0.1086 -0.2159
  597SOL    HW1 1790   1.470   1.801   0.224  0.6772  0.8978  0.8656
  597SOL    HW2 1791   1.638   1.802   0.230  1.1747 -0.8478 -0.2063
  598SOL     OW 1792   0.511   2.658   1.809 -0.0707  0.7902  0.1188
  598SOL    HW1 1793   0.508   2.650   1.710 -4.7601 -1.6518  1.5503
  598SOL    HW2 1794   0.585   2.599   1.850  1.4911 -2.5393 -1.1948
  599SOL     OW 1795   2.538   2.100   2.836 -0.5432  0.2432  0.6102
  599SOL    HW1 1796   2.460   2.057   2.792  0.5624  1.1761  2.8014
  599SOL    HW2 1797   2.553   2.055   2.925 -1.6823  0.7535 -1.3782
  600SOL     OW 1798   0.692   0.784   0.381  0.6348 -0.1459  0.5163
  600SOL    HW1 1799   0.691   0.884   0.362  0.4819  1.2339 -1.0866
  600SOL    HW2 1800   0.780   0.746   0.419  1.1419 -2.1733 -0.6048
  601SOL     OW 1801   0.947   0.727   0.547  0.4676  0.3293  0.0873
  601SOL    HW1 1802   0.923   0.824   0.577  0.6712  0.3245  0.3085
  601SOL    HW2 1803   0.974   0.665   0.626  2.3039 -2.7796  2.7315
  602SOL     OW 1804   1.388   2.959   0.804 -0.2206 -0.2043 -0.0763
  602SOL    HW1 1805   1.471   3.012   0.813 -0.0472 -1.8847 -1.3517
  602SOL    HW2 1806   1.373   2.942   0.705  2.0656 -1.4099  0.1982
  603SOL     OW 1807   0.758   2.737   2.131  0.1443 -0.3335 -0.8289
  603SOL    HW1 1808   0.683   2.791   2.094  1.0823  0.9914  0.2840
  603SOL    HW2 1809   0.845   2.788   2.124 -1.6011 -0.0803  1.1587
  604SOL     OW 1810   2.961   2.917   2.411 -0.1839  0.0014 -0.0489
  604SOL    HW1 1811   2.933   2.957   2.322 -1.6423 -2.5850  0.0316
  604SOL    HW2 1812   2.995   2.824   2.398 -1.5627  2.0793  2.6232
  605SOL     OW 1813   2.684   2.067   1.280 -0.1901  0.1367  0.6059
  605SOL    HW1 1814   2.600   2.006   1.292 -0.4243 -3.5709  2.5049
  605SOL    HW2 1815   2.670   2.168   1.258 -0.7053  2.2611 -1.7604
  606SOL     OW 1816   0.300   1.587   2.913 -0.9577 -0.4367  0.3696
  606SOL    HW1 1817   0.379   1.649   2.946  2.2351 -0.6744  0.4632
  606SOL    HW2 1818   0.267   1.602   2.817 -1.4333  0.1527  0.8543
  607SOL     OW 1819   0.870   0.003   0.194 -0.5749 -0.7497 -0.1665
  607SOL    HW1 1820   0.793   3.110   0.128  3.8555 -0.5651 -2.5305
  607SOL    HW2 1821   0.889   0.100   0.202 -2.2637 -2.8355 -1.1627
  608SOL     OW 1822   1.667   1.085   2.478  0.2094 -0.9172 -0.2830
  608SOL    HW1 1823   1.762   1.114   2.475 -3.6719 -1.3537  2.3987
  608SOL    HW2 1824   1.651   1.011   2.540 -0.6315  1.0661  0.7244
  609SOL     OW 1825   3.017   0.252   0.890 -0.0176  0.1005  0.2031
  609SOL    HW1 1826   3.028   0.216   0.984  0.3807 -0.9031 -1.7993
  609SOL    HW2 1827   2.957   0.329   0.892 -1.4148 -3.9295  2.2004
  610SOL     OW 1828   0.696   2.614   0.594  0.0693  0.3193 -0.3742
  610SOL    HW1 1829   0.775   2.552   0.581  0.4354 -1.5683  1.0538
  610SOL    HW2 1830   0.703   2.661   0.685 -1.4633 -0.6746 -0.7885
  611SOL     OW 1831   1.671   1.036   2.929  0.5488  0.3707  0.3452
  611SOL    HW1 1832   1.704   0.946   2.966  1.4046 -2.9646 -1.2662
  611SOL    HW2 1833   1.611   1.082   2.997  1.8909 -0.3465  0.9074
  612SOL     OW 1834   0.951   2.173   2.378  0.5753  0.2856 -0.2266
  612SOL    HW1 1835   0.881   2.115   2.430  0.7236 -1.1883 -1.0894
  612SOL    HW2 1836   0.946   2.274   2.407  3.1746  1.4933 -0.0364
  613SOL     OW 1837   0.897   2.411   0.239  0.5117 -0.2093 -0.7423
  613SOL    HW1 1838   0.825   2.360   0.285  2.4704  4.3345  0.5012
  613SOL    HW2 1839   0.988   2.360   0.251  1.1074 -2.9774 -0.7532
  614SOL     OW 1840   2.762   2.867   1.546 -0.3575 -0.1628 -1.0002
  614SOL    HW1 1841   2.804   2.820   1.469  0.6241 -1.0354 -0.1592
  614SOL    HW2 1842   2.798   2.958   1.569 -1.7608  0.5100  0.3090
  615SOL     OW 1843   2.440   1.507   3.037  0.6358  0.3655 -0.3781
  615SOL    HW1 1844   2.416   1.607   3.048  0.2317 -1.3455  0.9805
  615SOL    HW2 1845   2.370   1.454   3.089  0.5245 -0.0198 -0.3767
  616SOL     OW 1846   1.805   0.182   0.488 -0.1673 -0.1043 -0.6740
  616SOL    HW1 1847   1.780   0.182   0.390  0.6318  1.7913  0.3295
  616SOL    HW2 1848   1.744   0.236   0.546  1.1134  0.6670 -0.9714
  617SOL     OW 1849   1.068   0.806   0.138  0.1265 -0.1162 -0.4150
  617SOL    HW1 1850   1.033   0.751   0.060  0.7043 -1.9899  0.2617
  617SOL    HW2 1851   1.097   0.895   0.102  0.3375 -0.4767  1.8280
  618SOL     OW 1852   0.685   0.169   1.843  0.3400 -0.2290 -0.3875
  618SOL    HW1 1853   0.708   0.190   1.940 -1.3715  1.1648 -0.2385
  618SOL    HW2 1854   0.688   0.253   1.791  1.7897 -2.1253  0.9145
  619SOL     OW 1855   2.999   0.981   1.524 -0.1070 -0.1417 -0.0980
  619SOL    HW1 1856   3.073   0.947   1.588 -0.1336  0.9317 -0.8001
  619SOL    HW2 1857   3.042   1.005   1.433  0.4461  0.8612 -2.1752
  620SOL     OW 1858   2.032   0.947   2.890  0.1229 -0.7502 -0.6285
  620SOL    HW1 1859   2.014   0.928   2.792  1.1024  1.2952  2.7604
  620SOL    HW2 1860   1.980   0.878   2.945  0.2580  1.6392 -0.8860
  621SOL     OW 1861   2.805   2.753   1.310 -0.1410  0.5801  0.2084
  621SOL    HW1 1862   2.776   2.828   1.246  0.8591  0.4978  0.9100
  621SOL    HW2 1863   2.866   2.691   1.259 -0.7868  0.7527 -0.3905
  622SOL     OW 1864   1.319   0.818   2.851  0.0330  0.8635  0.6032
  622SOL    HW1 1865   1.247   0.886   2.874  1.0255  0.4080 -1.0622
  622SOL    HW2 1866   1.353   0.770   2.933  0.3144  2.3268 -0.0852
  623SOL     OW 1867   1.104   0.573   3.037 -0.0209  0.0920 -0.4042
  623SOL    HW1 1868   1.195   0.619   3.062  0.6433  1.2076  3.8018
  623SOL    HW2 1869   1.058   0.620   2.964  0.2933 -2.9099  1.3632
  624SOL     OW 1870   1.870   0.522   0.103  0.0760  0.6267  0.0201
  624SOL    HW1 1871   1.833   0.612   0.097 -0.4857 -1.8394  0.7726
  624SOL    HW2 1872   1.959   0.506   0.061 -2.4899 -3.1388  1.2175
  625SOL     OW 1873   1.120   1.203   1.121  0.8003  0.0959 -0.1355
  625SOL    HW1 1874   1.164   1.131   1.176 -2.7022  2.1607 -1.9540
  625SOL    HW2 1875   1.021   1.196   1.141 -1.4248 -0.1238  2.2789
  626SOL     OW 1876   1.521   1.183   3.105 -0.3197  0.3920  0.1400
  626SOL    HW1 1877   1.451   1.157   0.060 -3.3093 -0.0072  3.2729
  626SOL    HW2 1878   1.474   1.242   3.032  1.0348 -3.0088 -4.2743
  627SOL     OW 1879   0.980   2.928   2.078  0.6677 -0.3150 -0.4473
  627SOL    HW1 1880   0.955   2.935   1.977 -2.8198 -0.6256  1.3714
  627SOL    HW2 1881   1.069   2.977   2.095 -0.7856 -0.1718  0.9820
  628SOL     OW 1882   2.449   0.225   2.366 -0.4143  0.2422  0.1873
  628SOL    HW1 1883   2.491   0.294   2.308  0.5375  0.8402  2.8197
  628SOL    HW2 1884   2.505   0.220   2.447 -0.5510 -1.5335 -1.1915
  629SOL     OW 1885   0.745   0.922   3.010 -0.3146 -0.6026  0.1558
  629SOL    HW1 1886   0.815   0.889   2.945 -2.3107 -0.9269  2.8256
  629SOL    HW2 1887   0.722   0.855   3.084 -1.4679  0.7871  3.7679
  630SOL     OW 1888   1.173   0.274   2.073  0.1655  0.1236  0.6478
  630SOL    HW1 1889   1.090   0.294   2.128 -0.7753  0.8187  1.1154
  630SOL    HW2 1890   1.263   0.274   2.126 -0.5114  0.5357  0.4649
  631SOL     OW 1891   2.853   0.582   0.681 -0.6656 -0.4110  0.1675
  631SOL    HW1 1892   2.782   0.586   0.605 -0.6521  1.5463 -0.8250
  631SOL    HW2 1893   2.945   0.612   0.644  0.4728  0.8890 -1.6174
  632SOL     OW 1894   2.238   1.107   1.153 -0.1200  0.2215 -0.6204
  632SOL    HW1 1895   2.150   1.155   1.169  0.6069 -1.0193 -0.7968
  632SOL    HW2 1896   2.221   1.014   1.114 -0.0727 -2.3719  0.0739
  633SOL     OW 1897   1.555   0.715   0.893  0.2255 -0.2054  0.6486
  633SOL    HW1 1898   1.468   0.728   0.839 -1.5315 -1.0188 -0.7670
  633SOL    HW2 1899   1.597   0.805   0.923  0.0240  0.2671  1.2050
  634SOL     OW 1900   1.878   3.095   0.746 -0.3342 -0.2471 -0.0130
  634SOL    HW1 1901   1.940   3.054   0.812 -0.5442  1.3465 -1.7470
  634SOL    HW2 1902   1.784   3.096   0.778  0.7119  0.8912 -0.2235
  635SOL     OW 1903   1.544   0.998   1.251  0.0585 -0.0441 -0.0436
  635SOL    HW1 1904   1.606   0.965   1.172  0.6612 -0.6806 -0.5887
  635SOL    HW2 1905   1.592   1.077   1.293 -0.6290  0.1497 -1.3986
  636SOL     OW 1906   0.768   0.521   0.898  0.1670  0.0061 -0.2444
  636SOL    HW1 1907   0.847   0.529   0.956  0.0210 -1.1098  1.0353
  636SOL    HW2 1908   0.766   0.607   0.843  0.9742  2.0688  0.0549
  637SOL     OW 1909   2.097   2.273   0.397  0.1492  0.1196  0.4241
  637SOL    HW1 1910   2.133   2.264   0.486  1.4278  0.7788 -1.4786
  637SOL    HW2 1911   2.142   2.349   0.349 -0.3322  0.8123  1.2388
  638SOL     OW 1912   1.554   2.923   2.720 -0.1585 -0.4271  0.8833
  638SOL    HW1 1913   1.573   2.931   2.821  1.0224 -0.4818  1.3667
  638SOL    HW2 1914   1.624   2.855   2.686  0.8514  1.9711  0.8334
  639SOL     OW 1915   0.660   2.261   1.228  0.1507  0.0877  0.0630
  639SOL    HW1 1916   0.761   2.249   1.237  2.2201 -1.1555  2.2892
  639SOL    HW2 1917   0.621   2.221   1.143 -1.7493 -0.5994 -0.4594
  640SOL     OW 1918   0.074   2.673   0.578 -0.1776  0.4575  0.5425
  640SOL    HW1 1919   0.010   2.621   0.635  3.6963 -1.4808  1.5565
  640SOL    HW2 1920   0.159   2.618   0.566  0.9885 -2.0224  0.1509
  641SOL     OW 1921   0.267   0.350   0.091 -0.1909  0.5463 -0.0306
  641SOL    HW1 1922   0.366   0.358   0.053  1.6468  0.5654 -0.9549
  641SOL    HW2 1923   0.213   0.334   0.004  0.4281  1.7253 -2.2846
  642SOL     OW 1924   3.117   0.940   0.975 -0.4226  0.3681 -0.0736
  642SOL    HW1 1925   0.009   0.842   0.943  1.2102 -2.5385 -0.7708
  642SOL    HW2 1926   3.020   0.970   0.968  2.5677 -3.0991 -1.0519
  643SOL     OW 1927   0.693   1.769   1.958  0.5974 -0.1198  0.0676
  643SOL    HW1 1928   0.657   1.677   1.927 -1.5735 -0.4281 -1.2694
  643SOL    HW2 1929   0.667   1.796   2.048  0.3217  0.3198 -2.1493
  644SOL     OW 1930   1.798   2.753   0.602  0.0316 -0.1331  0.0627
  644SOL    HW1 1931   1.861   2.677   0.620 -0.5315  0.1398  0.5568
  644SOL    HW2 1932   1.729   2.720   0.535  3.5625  0.3478  3.3008
  645SOL     OW 1933   1.788   2.385   1.132  0.8999  0.0289  0.0467
  645SOL    HW1 1934   1.817   2.476   1.170  0.1159 -0.8732 -0.9900
  645SOL    HW2 1935   1.730   2.388   1.048  1.9384  0.6722  0.1461
  646SOL     OW 1936   1.194   2.796   0.309  0.3598  0.1480 -0.2258
  646SOL    HW1 1937   1.150   2.740   0.384  1.7658 -0.9395 -4.4753
  646SOL    HW2 1938   1.134   2.844   0.244 -2.7173 -0.4559 -1.9743
  647SOL     OW 1939   0.404   2.905   1.738  0.0230 -0.0981  0.2467
  647SOL    HW1 1940   0.338   2.939   1.810 -0.0784  1.6574  3.3923
  647SOL    HW2 1941   0.444   2.813   1.763  1.9984 -1.2285  4.7484
  648SOL     OW 1942   1.877   0.984   1.384 -0.1704 -0.3428 -0.5249
  648SOL    HW1 1943   1.965   0.993   1.441  0.5994 -0.2147  2.1314
  648SOL    HW2 1944   1.876   0.883   1.363 -0.6226 -1.6170  0.2653
  649SOL     OW 1945   1.688   2.217   2.852  0.5747 -0.1437 -0.2068
  649SOL    HW1 1946   1.770   2.159   2.834  2.2088  2.8302  1.0021
  649SOL    HW2 1947   1.681   2.235   2.949 -0.4541 -1.0779 -1.2790
  650SOL     OW 1948   2.444   1.797   1.755 -0.0243 -0.3100  0.1400
  650SOL    HW1 1949   2.395   1.766   1.833 -0.1647  1.0243 -0.6039
  650SOL    HW2 1950   2.392   1.867   1.708 -0.4047 -0.3860  1.5061
  651SOL     OW 1951   1.211   1.652   3.039 -0.5879 -0.5147 -0.2530
  651SOL    HW1 1952   1.124   1.610   3.013 -0.2118 -2.0071  1.6491
  651SOL    HW2 1953   1.297   1.607   3.004  3.0489  2.0528  1.9192
  652SOL     OW 1954   0.946   2.894   2.943 -0.0567 -0.1008  0.1760
  652SOL    HW1 1955   0.986   2.810   2.917  0.5034  1.8022  1.5880
  652SOL    HW2 1956   0.988   2.977   2.898  0.8613  2.5872  1.0991
  653SOL     OW 1957   2.207   2.232   1.120  0.3444  0.0634 -0.6038
  653SOL    HW1 1958   2.150   2.174   1.180  1.5422  0.0109 -1.8763
  653SOL    HW2 1959   2.147   2.247   1.037  0.6237 -1.4817 -0.2780
  654SOL     OW 1960   2.810   2.805   1.981 -0.0708  0.0190  0.1106
  654SOL    HW1 1961   2.843   2.904   1.970 -0.7463  2.2547  1.4877
  654SOL    HW2 1962   2.789   2.759   1.893  2.7027  1.6040  0.3347
  655SOL     OW 1963   2.864   2.209   0.943  0.9199 -0.5060  0.0745
  655SOL    HW1 1964   2.899   2.136   0.880  0.3032 -1.9096  2.7408
  655SOL    HW2 1965   2.760   2.205   0.948  0.4474  0.1096 -2.0289
  656SOL     OW 1966   0.419   2.618   2.703 -0.2233  0.0521 -0.2110
  656SOL    HW1 1967   0.499   2.681   2.681 -1.3770 -1.2518 -1.5631
  656SOL    HW2 1968   0.426   2.531   2.647  0.3012  0.9897  1.3703
  657SOL     OW 1969   2.977   0.775   0.382  0.1198 -0.2285 -0.1017
  657SOL    HW1 1970   3.021   0.720   0.452  2.1145  2.5402 -2.6223
  657SOL    HW2 1971   3.045   0.785   0.307 -1.8120  0.6224  1.5362
  658SOL     OW 1972   1.516   1.836   0.967 -0.0330 -0.3763 -0.1145
  658SOL    HW1 1973   1.447   1.783   1.022 -1.6384  0.9204  1.6756
  658SOL    HW2 1974   1.514   1.934   1.001 -3.7938  2.4273 -0.5011
  659SOL     OW 1975   1.712   0.557   1.235 -0.0722 -0.2077 -0.5254
  659SOL    HW1 1976   1.673   0.474   1.275  0.0147  1.9531 -0.6225
  659SOL    HW2 1977   1.644   0.614   1.188  3.1526  4.0015  3.4258
  660SOL     OW 1978   1.581   1.255   0.358  0.3717 -0.3041  0.3940
  660SOL    HW1 1979   1.592   1.161   0.335  1.2631  0.9056  1.0940
  660SOL    HW2 1980   1.489   1.271   0.394  1.3004 -1.0744  0.3918
  661SOL     OW 1981   0.090   1.798   0.329 -0.0114 -0.0820  0.0543
  661SOL    HW1 1982   0.118   1.706   0.291 -1.3620 -0.5851  0.1955
  661SOL    HW2 1983   3.118   1.803   0.359 -0.1940  0.2943  0.3874
  662SOL     OW 1984   2.939   0.964   2.175  0.3580  0.0568  0.0097
  662SOL    HW1 1985   2.943   0.980   2.072 -2.4131  0.6510 -1.3108
  662SOL    HW2 1986   2.847   1.000   2.207 -0.9897 -1.5708 -1.7143
  663SOL     OW 1987   2.197   1.525   1.187 -0.4747 -0.2993 -0.1156
  663SOL    HW1 1988   2.195   1.627   1.169 -0.1744  3.3391  1.4998
  663SOL    HW2 1989   2.215   1.508   1.287 -0.0540  0.3635  1.1314
  664SOL     OW 1990   0.570   0.079   1.106 -0.0800  0.5427  0.4267
  664SOL    HW1 1991   0.571   3.102   1.142  1.8740 -1.3865 -0.5156
  664SOL    HW2 1992   0.504   0.140   1.154  1.6962 -1.0525 -1.5152
  665SOL     OW 1993   1.119   3.101   2.830 -0.2627 -0.4937 -0.4952
  665SOL    HW1 1994   1.198   3.082   2.765 -1.7814  0.1292  0.2257
  665SOL    HW2 1995   1.153   0.020   2.917  0.3868  0.6565 -1.2767
  666SOL     OW 1996   0.368   0.474   2.238  0.4516  0.3632  0.0730
  666SOL    HW1 1997   0.320   0.446   2.153 -1.3258  0.5618  1.4386
  666SOL    HW2 1998   0.306   0.518   2.308  1.0325  1.0233 -2.3014
  667SOL     OW 1999   1.839   1.395   2.340 -0.0276 -0.3217 -0.6035
  667SOL    HW1 2000   1.906   1.412   2.267 -1.4072 -3.9604  1.1976
  667SOL    HW2 2001   1.830   1.300   2.366  0.5737  0.7680 -0.5282
  668SOL     OW 2002   0.167   1.593   2.649 -0.3954 -0.0150  0.3703
  668SOL    HW1 2003   0.131   1.500   2.627 -0.7497 -0.2798 -0.3327
  668SOL    HW2 2004   0.113   1.648   2.714  0.2099 -3.0472 -0.2766
  669SOL     OW 2005   2.227   2.887   2.482  0.2334 -0.1556  0.1400
  669SOL    HW1 2006   2.286   2.957   2.437  1.1303 -1.6613 -1.0021
  669SOL    HW2 2007   2.175   2.834   2.414  0.5158 -0.6237 -0.1070
  670SOL     OW 2008   2.520   0.928   2.555  0.0444 -0.2177  0.0382
  670SOL    HW1 2009   2.584   0.848   2.553 -2.3673  2.1090 -0.3456
  670SOL    HW2 2010   2.458   0.920   2.635  2.7221  1.3317 -1.1496
  671SOL     OW 2011   2.583   1.979   3.077 -0.4774 -0.0791 -0.1074
  671SOL    HW1 2012   2.574   2.047   0.036 -1.3565 -2.0756  0.1857
  671SOL    HW2 2013   2.671   1.930   3.084  1.4139  0.7952  5.1111
  672SOL     OW 2014   2.745   1.481   2.299  0.0397  0.1760  0.3947
  672SOL    HW1 2015   2.657   1.451   2.342  0.4560 -1.6003  1.2470
  672SOL    HW2 2016   2.737   1.576   2.267  2.2955 -0.3471  0.4812
  673SOL     OW 2017   3.107   1.449   1.253 -0.5756 -0.3890  0.3330
  673SOL    HW1 2018   3.109   1.540   1.207 -0.4872  1.6516  0.4595
  673SOL    HW2 2019   3.108   1.378   1.179  2.0600  0.1468 -2.6674
  674SOL     OW 2020   1.451   1.884   1.997  0.1740 -0.6909 -0.0643
  674SOL    HW1 2021   1.452   1.949   1.916 -1.8019  2.8235 -0.3491
  674SOL    HW2 2022   1.534   1.899   2.059  2.5391 -1.2597  2.1815
  675SOL     OW 2023   2.726   0.264   1.098 -0.4123 -0.2639 -0.5881
  675SOL    HW1 2024   2.755   0.318   1.015 -1.2571 -1.4863  1.0444
  675SOL    HW2 2025   2.674   0.182   1.073  2.2447  1.4573  0.9414
  676SOL     OW 2026   2.715   1.417   0.579 -0.0030 -0.3035  0.0487
  676SOL    HW1 2027   2.719   1.505   0.534 -1.5555 -0.3003 -0.2970
  676SOL    HW2 2028   2.628   1.414   0.634  1.2952  1.3148  2.2092
  677SOL     OW 2029   1.738   1.500   2.113  0.2484 -0.1313 -0.5182
  677SOL    HW1 2030   1.747   1.462   2.211 -0.1970 -2.4149 -0.7979
  677SOL    HW2 2031   1.639   1.521   2.097  0.4000  0.3765 -0.6218
  678SOL     OW 2032   2.554   1.482   0.991  0.3281 -0.1561 -0.3227
  678SOL    HW1 2033   2.624   1.525   1.051 -2.0658  3.3025  0.0552
  678SOL    HW2 2034   2.511   1.398   1.026 -0.3818  4.2775 -1.5371
  679SOL     OW 2035   0.402   2.623   1.107  0.2774  0.2940  0.0448
  679SOL    HW1 2036   0.330   2.581   1.046  0.4355 -0.4848 -2.6833
  679SOL    HW2 2037   0.364   2.692   1.172  0.4919  1.3047  2.2127
  680SOL     OW 2038   2.835   1.867   1.179 -0.1319 -0.4974  0.3633
  680SOL    HW1 2039   2.938   1.873   1.186  1.3017 -0.4441  2.2173
  680SOL    HW2 2040   2.789   1.954   1.204  3.2668  0.4639  0.9682
  681SOL     OW 2041   0.909   0.722   1.258  0.0825  0.2559  0.1257
  681SOL    HW1 2042   0.964   0.693   1.341 -2.0607 -0.4371 -2.6911
  681SOL    HW2 2043   0.821   0.679   1.259  4.1947  0.7140  2.3001
  682SOL     OW 2044   1.587   0.015   0.793  0.0671 -0.4537  0.0664
  682SOL    HW1 2045   1.578   0.102   0.853  0.6080  1.2386  0.5785
  682SOL    HW2 2046   1.568   0.036   0.697 -1.1653 -2.0050  1.9738
  683SOL     OW 2047   2.604   1.470   1.785 -0.4498 -0.4509  0.2271
  683SOL    HW1 2048   2.567   1.558   1.750  0.1781  2.2700 -0.2129
  683SOL    HW2 2049   2.568   1.388   1.730 -0.8102 -0.0034 -0.3498
  684SOL     OW 2050   0.228   1.664   1.616 -0.4540 -0.0735  0.6759
  684SOL    HW1 2051   0.164   1.606   1.562  1.6636 -2.0393 -1.5435
  684SOL    HW2 2052   0.188   1.672   1.712 -0.5466 -2.8518  0.4472
  685SOL     OW 2053   2.095   1.723   0.289 -0.3763  0.2792  0.4555
  685SOL    HW1 2054   2.093   1.735   0.391  2.1519  0.1573  2.1458
  685SOL    HW2 2055   2.122   1.631   0.261 -0.4000  0.9551 -0.6340
  686SOL     OW 2056   2.788   0.138   0.761  0.2303 -0.0998  0.1461
  686SOL    HW1 2057   2.872   0.160   0.810 -1.3782 -1.2239 -0.6008
  686SOL    HW2 2058   2.762   0.202   0.688 -1.3264 -2.6015  1.8202
  687SOL     OW 2059   1.359   3.116   2.701  0.2265 -0.7827  0.3429
  687SOL    HW1 2060   1.398   0.089   2.703  1.1933 -1.9186  0.4062
  687SOL    HW2 2061   1.438   3.056   2.704 -1.2284  2.3500  0.6371
  688SOL     OW 2062   1.692   1.844   2.532 -0.4567  0.0349  0.6096
  688SOL    HW1 2063   1.738   1.754   2.548 -2.6077 -2.0819  0.6939
  688SOL    HW2 2064   1.736   1.886   2.452  0.0811  0.0912 -0.2314
  689SOL     OW 2065   2.709   1.119   1.940  0.0679  0.0626 -0.4096
  689SOL    HW1 2066   2.729   1.168   2.026  1.1257 -0.6058 -0.6655
  689SOL    HW2 2067   2.796   1.075   1.922 -1.9480  3.0693  2.5069
  690SOL     OW 2068   1.928   2.010   0.958 -0.1202 -0.2733  0.3067
  690SOL    HW1 2069   1.970   1.945   1.023 -0.1348  2.9150 -0.6868
  690SOL    HW2 2070   1.912   1.962   0.867  0.5690 -3.2856  0.9184
  691SOL     OW 2071   0.667   1.297   1.115 -0.5426 -0.3982 -1.0739
  691SOL    HW1 2072   0.714   1.242   1.187  0.4531  1.6227  1.9488
  691SOL    HW2 2073   0.603   1.244   1.057  1.4915 -0.0115  1.6937
  692SOL     OW 2074   2.345   2.966   2.034 -0.4281  0.5099  0.3420
  692SOL    HW1 2075   2.306   2.998   2.121  2.0667  0.5065 -1.2048
  692SOL    HW2 2076   2.427   2.911   2.058 -0.4054  0.3098  0.6777
  693SOL     OW 2077   2.971   1.442   2.456 -0.2781  0.2814  0.0394
  693SOL    HW1 2078   3.055   1.407   2.408  4.3865 -1.4588  2.3692
  693SOL    HW2 2079   2.888   1.456   2.396 -3.3403 -1.2245 -0.0299
  694SOL     OW 2080   1.954   0.280   1.216  0.3476 -0.2223 -0.1509
  694SOL    HW1 2081   1.905   0.271   1.306 -0.3247 -0.6124  0.2074
  694SOL    HW2 2082   2.029   0.343   1.234 -0.6496 -0.4621  1.5402
  695SOL     OW 2083   1.121   1.024   2.864  0.0538  0.3713 -0.6146
  695SOL    HW1 2084   1.133   1.061   2.960 -1.1039 -0.8981  0.0172
  695SOL    HW2 2085   1.156   1.083   2.788 -1.5002  0.2697  0.2846
  696SOL     OW 2086   1.953   0.341   1.807 -0.0327  0.5365 -0.7873
  696SOL    HW1 2087   1.860   0.379   1.781 -2.1117  1.0095 -0.6687
  696SOL    HW2 2088   2.003   0.317   1.722 -1.6393 -0.9715  2.0073
  697SOL     OW 2089   1.425   0.241   2.192  0.0913 -0.0456  0.0641
  697SOL    HW1 2090   1.401   0.262   2.288 -1.3858  1.7199  0.1881
  697SOL    HW2 2091   1.492   0.313   2.157 -0.3694  3.4160 -1.4599
  698SOL     OW 2092   1.818   1.622   2.573 -0.1059 -0.3360 -0.4254
  698SOL    HW1 2093   1.765   1.575   2.649  0.2571  0.6772 -0.3880
  698SOL    HW2 2094   1.863   1.554   2.516  1.8868  1.2386  0.9673
  699SOL     OW 2095   1.818   0.746   0.374 -0.0118 -0.3846 -0.0122
  699SOL    HW1 2096   1.772   0.762   0.286 -0.1098 -0.5158  1.0839
  699SOL    HW2 2097   1.836   0.646   0.386 -0.1295 -0.9401  2.9181
  700SOL     OW 2098   1.467   0.016   3.105 -0.3057 -0.2822 -0.3058
  700SOL    HW1 2099   1.490   0.061   0.073 -0.3735 -0.1180 -1.4600
  700SOL    HW2 2100   1.367   0.035   3.087 -1.5606 -0.3301 -0.9415
  701SOL     OW 2101   3.110   0.418   1.220 -0.1819 -0.3299  0.1055
  701SOL    HW1 2102   3.046   0.485   1.178  1.2456 -0.8993 -0.3463
  701SOL    HW2 2103   3.079   0.318   1.207 -0.6674  3.0895 -1.1870
  702SOL     OW 2104   1.825   0.195   1.486  0.6116 -0.1857  0.4483
  702SOL    HW1 2105   1.796   0.241   1.570 -1.6660 -2.6756  2.3450
  702SOL    HW2 2106   1.799   0.099   1.490 -0.6108  1.5284 -1.5660
  703SOL     OW 2107   2.803   0.559   1.392 -0.1747 -0.1747 -0.0537
  703SOL    HW1 2108   2.707   0.522   1.404 -1.1312  1.7995 -2.9577
  703SOL    HW2 2109   2.840   0.546   1.301 -0.8473  0.8931 -0.7233
  704SOL     OW 2110   0.963   2.229   1.176 -0.1401 -0.3858  0.4763
  704SOL    HW1 2111   1.048   2.211   1.233  4.2068 -3.0777  1.7612
  704SOL    HW2 2112   0.958   2.326   1.147 -0.3004  1.7171  2.2388
  705SOL     OW 2113   0.110   1.700   2.294 -0.2640  0.1505 -0.6098
  705SOL    HW1 2114   0.150   1.727   2.208  1.0978  2.8176  2.2257
  705SOL    HW2 2115   0.175   1.735   2.370  5.0407  2.3930  0.8639
  706SOL     OW 2116   2.601   0.365   2.765  0.2452 -0.2792 -0.2472
  706SOL    HW1 2117   2.531   0.292   2.781 -1.2286 -0.9533  0.1708
  706SOL    HW2 2118   2.649   0.392   2.850 -1.1601  0.4199 -2.7473
  707SOL     OW 2119   1.751   2.776   2.277  0.3990 -0.3338 -0.4400
  707SOL    HW1 2120   1.808   2.830   2.217 -1.8971 -1.9323  1.8436
  707SOL    HW2 2121   1.652   2.780   2.263  0.0456 -1.2589  1.9845
  708SOL     OW 2122   0.618   2.403   1.556  0.0601  0.5102  0.6594
  708SOL    HW1 2123   0.560   2.483   1.563  3.2885  1.7023 -1.6826
  708SOL    HW2 2124   0.571   2.344   1.492  1.0427  3.1258  2.6908
  709SOL     OW 2125   3.061   0.780   1.835  0.3433  0.1070  0.2554
  709SOL    HW1 2126   0.009   0.792   1.759  0.9960 -0.5739  0.8119
  709SOL    HW2 2127   3.085   0.705   1.898  1.0898 -1.0479  0.0533
  710SOL     OW 2128   0.057   0.381   1.486  0.2784  0.1261  0.7885
  710SOL    HW1 2129   0.056   0.354   1.390  2.5247 -0.4074 -4.0612
  710SOL    HW2 2130   3.094   0.439   1.515  0.1140  0.0080  0.1155
  711SOL     OW 2131   3.007   2.607   0.994  0.2623  0.4900 -0.2529
  711SOL    HW1 2132   2.999   2.570   1.087 -0.6843  1.5051  1.5044
  711SOL    HW2 2133   3.089   2.571   0.954  0.4112  1.9825 -2.4616
  712SOL     OW 2134   0.288   0.089   2.313 -1.1554 -0.1504  0.4349
  712SOL    HW1 2135   0.321   0.016   2.375  0.8233  0.8050 -2.7571
  712SOL    HW2 2136   0.258   0.171   2.368  0.3439  0.0616 -0.2286
  713SOL     OW 2137   2.370   0.268   0.209  0.1155 -0.3204 -0.6724
  713SOL    HW1 2138   2.303   0.341   0.228  0.1449  0.2786  0.9740
  713SOL    HW2 2139   2.363   0.242   0.110  0.9564 -0.8438 -0.7983
  714SOL     OW 2140   1.516   1.563   0.093 -0.0179  0.0371  0.2638
  714SOL    HW1 2141   1.503   1.661   0.117  4.2004 -4.1684  0.4353
  714SOL    HW2 2142   1.592   1.524   0.141 -1.7605 -1.8664 -2.5811
  715SOL     OW 2143   0.101   0.272   0.705 -0.1553  0.2282  0.3231
  715SOL    HW1 2144   0.186   0.216   0.703  2.1456 -0.1874 -0.1878
  715SOL    HW2 2145   0.029   0.252   0.775  1.3905  1.6475 -2.2529
  716SOL     OW 2146   1.187   0.430   1.869 -0.0704  0.2481  0.1634
  716SOL    HW1 2147   1.175   0.354   1.943 -1.2288  0.3633 -0.3626
  716SOL    HW2 2148   1.098   0.478   1.859 -0.2379  2.3682  0.7670
  717SOL     OW 2149   0.184   0.308   2.948  0.2722  0.0006  0.4699
  717SOL    HW1 2150   0.118   0.386   2.956  0.6664  2.1595  0.1689
  717SOL    HW2 2151   0.246   0.331   2.870  0.1021  0.3497  1.5480
  718SOL     OW 2152   1.184   0.375   0.313  0.4037  0.4512 -0.3080
  718SOL    HW1 2153   1.160   0.473   0.321 -0.6442  1.2066 -0.4831
  718SOL    HW2 2154   1.221   0.342   0.227 -0.8247  3.3899  0.6032
  719SOL     OW 2155   2.585   2.352   2.785 -0.2984 -0.1669  0.1345
  719SOL    HW1 2156   2.674   2.341   2.735  0.1939 -0.7601  2.3149
  719SOL    HW2 2157   2.556   2.259   2.819  2.5867  0.7996  3.0744
  720SOL     OW 2158   1.192   1.017   1.471 -0.3249  0.7447 -0.1825
  720SOL    HW1 2159   1.210   1.102   1.522  2.9050 -2.7359  0.3855
  720SOL    HW2 2160   1.212   0.934   1.522 -1.2165  0.8324 -0.2929
  721SOL     OW 2161   0.003   2.817   1.373 -0.3485 -0.1213  0.1815
  721SOL    HW1 2162   0.048   2.810   1.461 -0.0165  1.4006 -1.8629
  721SOL    HW2 2163   0.070   2.814   1.297  1.5520  1.2329  0.6044
  722SOL     OW 2164   0.722   1.701   2.967  0.3627  0.0274 -0.2049
  722SOL    HW1 2165   0.703   1.620   3.029  1.4768 -0.6780  0.8860
  722SOL    HW2 2166   0.768   1.775   3.020  0.3125  0.1858  1.7415
  723SOL     OW 2167   2.227   0.345   0.536  0.4826  0.5573  0.1999
  723SOL    HW1 2168   2.156   0.276   0.532 -1.7297  2.0849 -1.1484
  723SOL    HW2 2169   2.319   0.314   0.569  2.1209 -0.4535  1.1383
  724SOL     OW 2170   0.729   2.223   2.968  0.5837  0.2009 -0.3144
  724SOL    HW1 2171   0.783   2.135   2.980 -0.9928 -0.9281  0.1482
  724SOL    HW2 2172   0.782   2.302   2.999 -0.2486 -0.3400 -0.1373
  725SOL     OW 2173   0.242   0.893   1.134  0.3076  0.7568  0.4879
  725SOL    HW1 2174   0.175   0.912   1.060  0.6753  1.1912  2.2367
  725SOL    HW2 2175   0.292   0.975   1.163  0.5480 -0.8339  0.9858
  726SOL     OW 2176   2.673   0.587   0.460 -0.4245 -0.0929  0.3166
  726SOL    HW1 2177   2.655   0.684   0.449  0.0436 -1.3617 -2.0373
  726SOL    HW2 2178   2.608   0.534   0.402  2.0174  0.5653  0.9373
  727SOL     OW 2179   1.929   1.134   2.452 -0.1341 -0.3571  0.1725
  727SOL    HW1 2180   2.006   1.196   2.477 -0.1140 -1.2699 -0.2327
  727SOL    HW2 2181   1.936   1.056   2.514 -1.1154  0.8182 -1.4624
  728SOL     OW 2182   1.792   3.059   1.513 -0.4769  0.1702 -0.7170
  728SOL    HW1 2183   1.875   3.016   1.557  1.2968  1.0844  1.0160
  728SOL    HW2 2184   1.715   2.990   1.506 -0.1985  1.9353  0.9038
  729SOL     OW 2185   2.338   0.773   2.193 -0.2876 -0.0445  0.3926
  729SOL    HW1 2186   2.403   0.773   2.111 -0.8434 -0.0333  0.4074
  729SOL    HW2 2187   2.329   0.859   2.245 -0.2484 -2.2496 -2.2485
  730SOL     OW 2188   1.003   0.637   1.533  0.1978  0.2860  0.5688
  730SOL    HW1 2189   1.010   0.539   1.558  1.1289 -1.4523  0.6472
  730SOL    HW2 2190   1.080   0.685   1.579  2.2238 -0.1800 -0.8181
  731SOL     OW 2191   0.167   0.208   0.299  0.5773  0.0231 -0.3292
  731SOL    HW1 2192   0.242   0.180   0.362 -1.4084 -0.3340  0.0813
  731SOL    HW2 2193   0.206   0.248   0.211 -3.4898  3.6882  0.5174
  732SOL     OW 2194   0.493   0.399   0.561 -0.3335 -0.5849 -0.0581
  732SOL    HW1 2195   0.546   0.381   0.646  0.2205  0.2112 -0.1416
  732SOL    HW2 2196   0.500   0.498   0.534 -0.1259  0.6402  0.1745
  733SOL     OW 2197   1.659   1.499   2.748 -0.0289 -0.1297 -0.6169
  733SOL    HW1 2198   1.670   1.398   2.728 -0.7431  1.0480  0.4961
  733SOL    HW2 2199   1.593   1.505   2.827  1.6175 -0.8108  0.3383
  734SOL     OW 2200   3.012   1.794   2.428 -0.2190 -0.1562 -0.1171
  734SOL    HW1 2201   3.060   1.754   2.347 -1.5460 -0.9904  1.5216
  734SOL    HW2 2202   3.056   1.873   2.467  1.0470 -1.8478 -0.1118
  735SOL     OW 2203   1.888   0.732   1.314  0.4543 -0.1311  0.1364
  735SOL    HW1 2204   1.964   0.689   1.365  0.8073 -0.2044 -1.0642
  735SOL    HW2 2205   1.824   0.657   1.299  0.2281 -0.0583  2.0202
  736SOL     OW 2206   1.113   1.068   0.018  0.1565 -0.6011 -0.1052
  736SOL    HW1 2207   1.041   1.141   0.024  1.0106  0.2996 -3.6089
  736SOL    HW2 2208   1.193   1.087   0.080  1.5997  0.1257  0.1257
  737SOL     OW 2209   3.020   0.273   0.514 -0.6366  0.0100 -0.0319
  737SOL    HW1 2210   3.039   0.188   0.465 -1.1135  0.1568  0.9848
  737SOL    HW2 2211   3.089   0.288   0.589 -0.5576 -0.5302 -1.6726
  738SOL     OW 2212   0.708   2.164   1.693  0.3086 -0.1342 -0.3770
  738SOL    HW1 2213   0.643   2.227   1.649  0.3311  1.4082 -1.0667
  738SOL    HW2 2214   0.703   2.064   1.672  1.3840 -0.9496  0.4395
  739SOL     OW 2215   1.138   2.866   2.481  0.3299  0.3778  0.1840
  739SOL    HW1 2216   1.082   2.865   2.568  1.3102 -0.4722 -0.1805
  739SOL    HW2 2217   1.220   2.810   2.485 -3.6802 -1.8238 -0.7557
  740SOL     OW 2218   2.053   2.612   1.596 -0.2443  0.5247 -0.1651
  740SOL    HW1 2219   1.964   2.567   1.571 -4.1353  0.2373 -1.8061
  740SOL    HW2 2220   2.053   2.630   1.696 -2.0736 -1.2331  3.5598
  741SOL     OW 2221   2.252   0.743   0.325  0.4405  0.1644  0.0133
  741SOL    HW1 2222   2.337   0.773   0.373  1.0345  0.4148 -0.2854
  741SOL    HW2 2223   2.168   0.779   0.370  2.5782 -0.1221  0.2428
  742SOL     OW 2224   1.098   2.604   2.992  0.4109 -0.4262 -0.4010
  742SOL    HW1 2225   1.132   2.592   2.899 -0.5297 -2.0552  0.2022
  742SOL    HW2 2226   1.155   2.548   3.054 -0.1709  1.5746 -1.0682
  743SOL     OW 2227   2.605   0.801   2.040  0.8299  0.0772 -0.4392
  743SOL    HW1 2228   2.533   0.877   2.052  0.4423 -1.1284  2.6366
  743SOL    HW2 2229   2.646   0.780   1.948  1.6747 -1.5437  0.2271
  744SOL     OW 2230   2.450   0.435   0.816  0.4058 -0.2221  0.2315
  744SOL    HW1 2231   2.475   0.363   0.746  1.8489  1.1891  0.4489
  744SOL    HW2 2232   2.400   0.514   0.772 -0.3913  2.7711 -2.0061
  745SOL     OW 2233   2.566   1.163   1.717  0.3654  0.1099  0.0423
  745SOL    HW1 2234   2.620   1.135   1.641 -0.2090 -0.6803  2.6617
  745SOL    HW2 2235   2.623   1.157   1.804 -0.5705 -1.2253 -0.6053
  746SOL     OW 2236   1.397   1.426   0.723 -0.1680  0.0745 -0.7210
  746SOL    HW1 2237   1.419   1.526   0.724  1.1812 -0.8676  0.1187
  746SOL    HW2 2238   1.324   1.394   0.795 -0.9801 -1.3818 -0.7262
  747SOL     OW 2239   1.541   1.701   1.618  0.4452 -0.1686 -0.2174
  747SOL    HW1 2240   1.462   1.767   1.620  0.6062  1.3458 -3.0686
  747SOL    HW2 2241   1.562   1.680   1.525 -2.1594 -0.2865  3.7520
  748SOL     OW 2242   0.142   2.795   3.101  0.4111 -0.1703 -0.1633
  748SOL    HW1 2243   0.171   2.844   0.067  0.0449  1.3582  2.7259
  748SOL    HW2 2244   0.160   2.697   3.108 -1.5399  2.3738 -1.2315
  749SOL     OW 2245   0.345   1.203   2.440  0.3448  0.3913  0.2244
  749SOL    HW1 2246   0.376   1.145   2.362  0.3610 -0.4195 -1.0912
  749SOL    HW2 2247   0.422   1.245   2.489  0.1712  0.9957 -1.3095
  750SOL     OW 2248   1.604   0.643   2.208  0.2106  0.0199 -0.1840
  750SOL    HW1 2249   1.702   0.660   2.196  0.8836 -0.3938 -0.5390
  750SOL    HW2 2250   1.546   0.720   2.191 -0.3300 -3.1872 -1.6242
  751SOL     OW 2251   2.506   0.879   0.287  0.3698 -0.4732 -0.4096
  751SOL    HW1 2252   2.549   0.862   0.197 -0.1260 -0.0886  1.0611
  751SOL    HW2 2253   2.570   0.901   0.364 -4.0601  0.2303  1.3491
  752SOL     OW 2254   0.200   2.220   0.891  0.0320 -0.3479 -0.1538
  752SOL    HW1 2255   0.178   2.151   0.816  2.3463 -1.3453 -0.6043
  752SOL    HW2 2256   0.250   2.167   0.965 -1.5107  1.2388 -0.1729
  753SOL     OW 2257   1.351   2.581   1.049 -0.3224 -0.3767 -0.3281
  753SOL    HW1 2258   1.342   2.480   1.062 -1.0651  0.0126 -1.3845
  753SOL    HW2 2259   1.263   2.615   1.015 -0.4155  0.9816  0.5569
  754SOL     OW 2260   0.238   3.000   1.918  0.0651 -0.2603  0.2553
  754SOL    HW1 2261   0.175   2.974   1.994 -0.1278  0.8677  3.5691
  754SOL    HW2 2262   0.185   3.051   1.845 -2.8060  1.6696 -0.7138
  755SOL     OW 2263   2.046   0.878   0.456  0.5999  0.0893 -0.3489
  755SOL    HW1 2264   1.950   0.847   0.426  0.9502  0.1350  0.7794
  755SOL    HW2 2265   2.052   0.887   0.555 -0.9904 -0.1104  1.6693
  756SOL     OW 2266   2.045   2.372   2.541  0.2923 -0.4984  0.1390
  756SOL    HW1 2267   2.037   2.391   2.641 -2.0502  1.3679 -2.3695
  756SOL    HW2 2268   2.003   2.448   2.487  0.5074 -3.0631 -2.5072
  757SOL     OW 2269   1.936   0.482   0.407  0.0650 -0.1299 -0.0212
  757SOL    HW1 2270   1.950   0.461   0.313 -0.4887  0.0233  1.5452
  757SOL    HW2 2271   2.021   0.481   0.465  0.8523  2.8014 -1.5133
  758SOL     OW 2272   2.157   0.449   1.254  0.6858  0.0932  0.0490
  758SOL    HW1 2273   2.249   0.418   1.283  1.9764  2.8372 -2.3344
  758SOL    HW2 2274   2.166   0.539   1.209  2.3669  1.9657 -1.3161
  759SOL     OW 2275   2.286   0.634   1.059  0.1388 -0.0658  0.0732
  759SOL    HW1 2276   2.380   0.622   1.097  0.2034 -1.9438 -1.1217
  759SOL    HW2 2277   2.262   0.561   0.992  1.1178  0.6567  1.3527
  760SOL     OW 2278   2.403   1.319   1.140 -0.3208 -0.2598 -0.5689
  760SOL    HW1 2279   2.354   1.408   1.141  0.8254  0.8965 -1.9935
  760SOL    HW2 2280   2.333   1.240   1.142 -0.3907 -0.1231 -1.9223
  761SOL     OW 2281   0.417   0.207   0.388  0.1480 -0.3737  0.6405
  761SOL    HW1 2282   0.439   0.290   0.438 -1.1888 -1.6653 -1.8484
  761SOL    HW2 2283   0.465   0.131   0.433 -0.9515 -0.7571 -0.3711
  762SOL     OW 2284   1.144   1.837   1.097  0.0447  0.0938 -0.2316
  762SOL    HW1 2285   1.195   1.765   1.040 -0.1056 -0.9976 -0.7270
  762SOL    HW2 2286   1.125   1.797   1.186 -0.2099  1.1261 -3.9295
  763SOL     OW 2287   1.518   1.185   1.677  0.5624  0.2278 -0.3751
  763SOL    HW1 2288   1.570   1.144   1.756 -0.1167 -0.8452 -1.1035
  763SOL    HW2 2289   1.546   1.131   1.594  0.6905 -0.2150  2.4406
  764SOL     OW 2290   0.410   1.625   2.555 -0.1859  0.5563 -0.2607
  764SOL    HW1 2291   0.312   1.624   2.590 -0.0924  0.2831  2.6605
  764SOL    HW2 2292   0.473   1.679   2.614 -0.2300  1.2067  1.4911
  765SOL     OW 2293   0.965   2.720   1.361  0.2420 -0.2834  0.3246
  765SOL    HW1 2294   0.882   2.770   1.326 -1.9870  0.1306  0.6360
  765SOL    HW2 2295   1.047   2.746   1.302 -0.2044  0.3548  1.9869
  766SOL     OW 2296   2.866   2.344   2.655 -0.5815 -0.2598  0.6769
  766SOL    HW1 2297   2.900   2.401   2.728  0.3474  0.2645 -0.8646
  766SOL    HW2 2298   2.906   2.363   2.561  0.7426 -0.9203 -1.2301
  767SOL     OW 2299   0.892   1.246   2.586  0.4014 -0.6223  0.3091
  767SOL    HW1 2300   0.879   1.264   2.686  3.3393  0.1389 -1.9847
  767SOL    HW2 2301   0.863   1.324   2.528  1.2631 -0.6831 -1.4503
  768SOL     OW 2302   1.165   1.862   0.068 -0.5761  0.1012 -0.1266
  768SOL    HW1 2303   1.189   1.792   3.117 -0.5345 -0.8641 -0.1222
  768SOL    HW2 2304   1.205   1.844   0.162  1.2866 -0.3165  3.4536
  769SOL     OW 2305   0.262   2.138   1.275 -0.0044  0.0938  0.3841
  769SOL    HW1 2306   0.240   2.238   1.267  1.2504  2.8995 -0.7585
  769SOL    HW2 2307   0.201   2.088   1.341 -0.0781  1.8171 -1.0901
  770SOL     OW 2308   1.205   1.190   2.645 -0.3129  0.6379 -0.8795
  770SOL    HW1 2309   1.106   1.202   2.635  1.7247 -2.2896  0.7184
  770SOL    HW2 2310   1.257   1.244   2.575  1.4187  1.2046 -0.5893
  771SOL     OW 2311   0.125   2.900   2.133  0.4481 -0.1255 -0.1375
  771SOL    HW1 2312   0.218   2.858   2.139 -1.3321  1.2150 -3.4766
  771SOL    HW2 2313   0.062   2.829   2.104  0.7108  2.4919  3.4910
  772SOL     OW 2314   2.476   2.320   1.819 -0.4332  0.0302 -0.1219
  772SOL    HW1 2315   2.483   2.417   1.857  1.3556  1.1380  2.0398
  772SOL    HW2 2316   2.385   2.281   1.849 -1.9024  0.8677 -1.2436
  773SOL     OW 2317   0.579   1.853   1.545 -0.1105  0.0196  0.0159
  773SOL    HW1 2318   0.495   1.896   1.584 -1.9356 -1.8589 -2.4996
  773SOL    HW2 2319   0.651   1.832   1.613  0.6493 -0.7722 -1.2105
  774SOL     OW 2320   1.105   0.504   2.457  0.0786 -0.1721 -0.3483
  774SOL    HW1 2321   1.075   0.429   2.396  1.3761  0.8031 -1.5362
  774SOL    HW2 2322   1.144   0.468   2.543 -0.6045 -0.4723 -0.9411
  775SOL     OW 2323   2.044   2.773   3.004 -0.2744 -0.0772 -0.6497
  775SOL    HW1 2324   1.974   2.822   3.056  2.3474  0.3136  1.2447
  775SOL    HW2 2325   2.083   2.836   2.932  0.0594 -1.3592 -2.0113
  776SOL     OW 2326   0.015   0.578   1.992 -0.1214 -0.3436 -0.2498
  776SOL    HW1 2327   3.043   0.556   2.038 -0.9639 -1.9630  1.8321
  776SOL    HW2 2328   0.079   0.503   2.017 -1.5952 -2.0199  2.1327
  777SOL     OW 2329   2.657   2.145   1.986  0.0842 -0.1063  0.4234
  777SOL    HW1 2330   2.605   2.061   2.018  1.6321  0.7424  1.1245
  777SOL    HW2 2331   2.615   2.206   1.916 -1.4908 -0.3718  3.5974
  778SOL     OW 2332   1.870   1.017   2.204 -0.0167 -0.3464  0.4257
  778SOL    HW1 2333   1.889   1.062   2.293 -2.1226 -3.8800  2.3341
  778SOL    HW2 2334   1.769   1.013   2.183 -0.1756 -1.5773 -0.1415
  779SOL     OW 2335   2.277   1.175   0.470  0.0400  0.1597 -0.6916
  779SOL    HW1 2336   2.187   1.216   0.442  0.9821  1.6786  2.0288
  779SOL    HW2 2337   2.331   1.162   0.385 -0.3736 -1.7614  1.4062
  780SOL     OW 2338   2.345   0.234   3.060  0.5068  0.1267  0.1871
  780SOL    HW1 2339   2.251   0.263   3.024 -1.3467 -4.0095  1.3816
  780SOL    HW2 2340   2.371   0.136   3.036 -0.4668 -0.5576 -2.6012
  781SOL     OW 2341   0.133   1.953   1.426 -0.5361 -0.2279  0.3684
  781SOL    HW1 2342   0.044   1.972   1.472  0.2392 -0.5188 -2.0658
  781SOL    HW2 2343   0.191   1.906   1.490 -0.2113 -0.1841 -1.3008
  782SOL     OW 2344   2.510   2.586   2.871 -0.8621  0.0881 -0.3142
  782SOL    HW1 2345   2.533   2.643   2.792  0.0098  0.6796 -0.4608
  782SOL    HW2 2346   2.527   2.487   2.850  1.3061  0.2073  2.8699
  783SOL     OW 2347   0.476   1.403   1.427 -0.3631  0.3084 -0.1275
  783SOL    HW1 2348   0.534   1.330   1.478  2.7412 -0.5211  2.3304
  783SOL    HW2 2349   0.525   1.445   1.347  1.5161  3.2715 -0.0708
  784SOL     OW 2350   1.570   0.538   3.039  0.4377 -0.1806 -0.2891
  784SOL    HW1 2351   1.665   0.546   2.999  0.5818 -0.1217 -0.3115
  784SOL    HW2 2352   1.567   0.484   0.008  0.6187 -0.3266  0.4290
  785SOL     OW 2353   2.467   2.922   0.846  0.2348  0.0444  0.4066
  785SOL    HW1 2354   2.540   2.858   0.880  0.7214  1.8728  0.6881
  785SOL    HW2 2355   2.377   2.914   0.887  0.9994 -0.3307 -3.5391
  786SOL     OW 2356   0.906   2.052   2.106 -0.3731 -0.1369 -0.5874
  786SOL    HW1 2357   0.995   2.095   2.078 -0.8292  0.9445  0.1713
  786SOL    HW2 2358   0.874   2.079   2.199 -0.2813 -0.7982  1.3647
  787SOL     OW 2359   1.292   0.968   1.203  0.1722  0.1014  0.3845
  787SOL    HW1 2360   1.255   0.962   1.295 -0.0712  1.0091 -1.3836
  787SOL    HW2 2361   1.392   0.970   1.212 -0.6712  1.7548  2.4240
  788SOL     OW 2362   3.116   0.622   0.556 -0.4130 -0.1101 -0.2890
  788SOL    HW1 2363   0.088   0.656   0.593  0.0809 -1.3464  0.3455
  788SOL    HW2 2364   0.014   0.543   0.490 -1.0049 -1.4493  0.4312
  789SOL     OW 2365   0.039   1.951   1.154 -0.8441 -0.1377 -0.3883
  789SOL    HW1 2366   0.010   2.043   1.122 -0.3634 -0.1047  2.3694
  789SOL    HW2 2367   0.079   1.954   1.244 -0.9198  1.7479  0.1518
  790SOL     OW 2368   0.947   0.725   2.433  0.2878  0.1677  0.4040
  790SOL    HW1 2369   1.013   0.646   2.430  4.5108  0.6377  0.4309
  790SOL    HW2 2370   0.974   0.805   2.487 -0.5256 -2.0369 -0.6797
  791SOL     OW 2371   1.551   0.442   0.411  0.0386 -0.6941  0.4672
  791SOL    HW1 2372   1.623   0.429   0.479 -0.8449  0.2116 -0.7604
  791SOL    HW2 2373   1.469   0.390   0.436 -0.3946  4.1869 -3.1520
  792SOL     OW 2374   1.575   2.998   1.794  0.2806  0.6978  0.2557
  792SOL    HW1 2375   1.474   2.993   1.815 -0.1809 -0.2651  1.1446
  792SOL    HW2 2376   1.601   2.923   1.728  0.1127 -0.3845 -0.0926
  793SOL     OW 2377   1.307   0.568   0.780  0.5304  0.2326  0.1508
  793SOL    HW1 2378   1.335   0.507   0.704  0.6405 -1.4904  0.6080
  793SOL    HW2 2379   1.352   0.539   0.865 -0.8795  4.5612 -0.5093
  794SOL     OW 2380   0.596   1.040   2.068 -0.7436  0.4210  0.1406
  794SOL    HW1 2381   0.510   1.097   2.067  2.1380 -0.5936 -1.0789
  794SOL    HW2 2382   0.675   1.099   2.029  3.2723  2.7935 -1.5587
  795SOL     OW 2383   0.361   1.952   2.133  0.0366 -0.5152  0.5799
  795SOL    HW1 2384   0.343   1.931   2.232 -1.1270 -0.5983  2.4908
  795SOL    HW2 2385   0.412   2.042   2.128 -1.4286  1.1625 -0.2065
  796SOL     OW 2386   2.463   1.030   2.046 -0.2588 -0.2849 -0.1694
  796SOL    HW1 2387   2.452   1.011   2.145  0.1227 -1.7216 -1.8017
  796SOL    HW2 2388   2.553   1.074   2.034  0.2052 -0.0926  1.3525
  797SOL     OW 2389   3.081   2.436   3.023  0.8117 -0.2658 -0.2574
  797SOL    HW1 2390   3.002   2.483   2.975  0.5049 -0.0095  0.0899
  797SOL    HW2 2391   3.075   2.439   0.006  1.3291  0.7623  1.1799
  798SOL     OW 2392   3.106   2.235   1.990 -0.2983  0.1986  0.1485
  798SOL    HW1 2393   0.072   2.180   1.965  2.2638 -4.2979  3.9226
  798SOL    HW2 2394   3.040   2.174   2.031 -0.2646  0.5746 -1.9636
  799SOL     OW 2395   0.493   2.198   2.838  0.0420 -0.0734  0.2915
  799SOL    HW1 2396   0.580   2.202   2.883 -1.0167  0.5247 -1.8809
  799SOL    HW2 2397   0.414   2.229   2.898 -0.0537  0.0598  1.5332
  800SOL     OW 2398   0.781   1.749   0.132  0.0105 -0.2168 -0.2455
  800SOL    HW1 2399   0.680   1.770   0.158  0.2307  0.1407  0.9521
  800SOL    HW2 2400   0.834   1.837   0.133  2.2820  1.8393  0.5337
  801SOL     OW 2401   1.799   1.355   1.517 -0.8548 -0.4927 -0.2173
  801SOL    HW1 2402   1.897   1.318   1.525  0.7908 -0.0039 -0.9015
  801SOL    HW2 2403   1.771   1.413   1.593 -0.5953 -1.0348 -2.5903
  802SOL     OW 2404   2.798   1.280   0.358 -0.0573 -0.2667  0.0595
  802SOL    HW1 2405   2.781   1.319   0.451 -1.5134  1.2964 -1.5552
  802SOL    HW2 2406   2.813   1.178   0.362 -1.7291 -2.2835  1.3023
  803SOL     OW 2407   0.907   1.811   2.707  0.0071 -0.3814 -0.5524
  803SOL    HW1 2408   0.829   1.774   2.757  1.7786  3.4529 -1.9250
  803SOL    HW2 2409   0.972   1.857   2.773 -0.7579 -2.7479  1.5376
  804SOL     OW 2410   1.698   1.475   0.263  0.0440 -0.1971  0.4162
  804SOL    HW1 2411   1.644   1.393   0.286  3.3226  2.5396  0.7652
  804SOL    HW2 2412   1.715   1.528   0.346  0.2815  2.6791 -0.7260
  805SOL     OW 2413   2.548   1.666   2.630  0.0899  0.0003  0.4170
  805SOL    HW1 2414   2.496   1.720   2.702 -1.1956 -0.8865 -2.3979
  805SOL    HW2 2415   2.646   1.661   2.650  0.3942 -1.4606 -2.6238
  806SOL     OW 2416   0.544   2.899   0.509  0.3777  0.1579 -0.2527
  806SOL    HW1 2417   0.450   2.938   0.533 -1.5580  1.7371  0.5639
  806SOL    HW2 2418   0.545   2.800   0.485 -0.1240  0.4484 -2.6173
  807SOL     OW 2419   2.029   1.754   2.718  0.2202 -0.0852  0.6282
  807SOL    HW1 2420   1.977   1.774   2.806 -2.7126 -2.0736 -0.5699
  807SOL    HW2 2421   1.982   1.681   2.667 -3.3360 -1.3044 -1.3235
  808SOL     OW 2422   0.245   1.438   0.640  0.3116  0.2618  0.2157
  808SOL    HW1 2423   0.295   1.489   0.564  0.2842 -0.4019  0.9681
  808SOL    HW2 2424   0.268   1.478   0.734 -0.3503 -2.5381 -1.2690
  809SOL     OW 2425   2.387   1.094   0.233  0.3153  0.0716  0.2733
  809SOL    HW1 2426   2.447   1.142   0.164  2.1891  3.5504 -1.6780
  809SOL    HW2 2427   2.413   0.998   0.250 -2.5374  1.7517  1.2117
  810SOL     OW 2428   0.682   1.040   0.301  0.5226  0.0049  0.6148
  810SOL    HW1 2429   0.682   1.072   0.203 -1.1739  0.5745  1.3029
  810SOL    HW2 2430   0.624   1.102   0.354 -1.8991 -2.0718  1.2849
  811SOL     OW 2431   1.473   2.393   1.424 -0.1705 -0.0453 -0.1809
  811SOL    HW1 2432   1.457   2.486   1.387 -1.9115  0.5617 -0.3076
  811SOL    HW2 2433   1.560   2.349   1.387 -0.3069 -0.2618  2.0967
  812SOL     OW 2434   1.299   2.750   1.804  0.8083 -0.7088  0.0335
  812SOL    HW1 2435   1.297   2.855   1.816 -0.8379  2.3326 -1.2358
  812SOL    HW2 2436   1.236   2.717   1.737  2.1022  4.5178 -0.7270
  813SOL     OW 2437   1.276   0.219   1.719 -0.1465  0.0830  0.0287
  813SOL    HW1 2438   1.243   0.306   1.770 -0.1556 -0.7544  3.0887
  813SOL    HW2 2439   1.201   0.147   1.726 -1.1476 -2.5649 -0.6901
  814SOL     OW 2440   1.189   2.566   2.692  0.4439  0.7458 -0.3411
  814SOL    HW1 2441   1.284   2.566   2.655  1.2338 -1.6938 -1.2590
  814SOL    HW2 2442   1.163   2.475   2.723 -3.4781 -0.7933  2.3525
  815SOL     OW 2443   0.589   0.318   2.337 -0.1795  0.2854 -0.0039
  815SOL    HW1 2444   0.504   0.358   2.306 -1.6640 -0.5743 -0.3996
  815SOL    HW2 2445   0.632   0.367   2.414  0.0755 -0.5090  1.5780
  816SOL     OW 2446   2.116   0.333   2.950  0.3625  0.3271 -0.2493
  816SOL    HW1 2447   2.102   0.430   2.974 -0.2290 -2.3401 -0.5400
  816SOL    HW2 2448   2.041   0.297   2.894  2.6113  1.8448  0.9791
  817SOL     OW 2449   2.152   0.334   2.341 -0.2643 -0.5686 -0.4072
  817SOL    HW1 2450   2.231   0.304   2.288 -4.1519 -0.0026  1.3634
  817SOL    HW2 2451   2.170   0.428   2.371 -1.4344 -1.5667 -0.3984
  818SOL     OW 2452   1.785   0.259   0.049  0.0251  0.2647  0.1959
  818SOL    HW1 2453   1.824   0.340   0.095  1.6457 -0.2196  0.4164
  818SOL    HW2 2454   1.808   0.172   0.095  0.1015  0.3536 -1.6123
  819SOL     OW 2455   2.301   1.729   2.788 -0.6188  0.5583  0.4773
  819SOL    HW1 2456   2.195   1.739   2.773 -1.7319  1.7497 -1.1643
  819SOL    HW2 2457   2.319   1.695   2.880 -1.7872 -0.5313 -1.4661
  820SOL     OW 2458   0.119   1.840   3.072 -0.0535 -0.4240  0.1193
  820SOL    HW1 2459   0.150   1.939   3.079 -0.0963  0.5130  0.6870
  820SOL    HW2 2460   0.202   1.784   3.060  0.7816  1.2187 -0.1337
  821SOL     OW 2461   0.186   2.942   0.942  0.1821  0.1340  0.2604
  821SOL    HW1 2462   0.286   2.951   0.917  3.3872  1.2290  1.0686
  821SOL    HW2 2463   0.135   2.927   0.855 -1.0858  1.2740 -1.8502
  822SOL     OW 2464   2.926   2.862   0.106  0.5132 -0.0846 -0.1037
  822SOL    HW1 2465   2.952   2.839   0.200 -1.9829  1.5065 -2.1633
  822SOL    HW2 2466   2.954   2.955   0.086  2.4078 -1.2843  0.3318
  823SOL     OW 2467   1.176   0.400   2.764  0.2294 -0.3438 -0.4787
  823SOL    HW1 2468   1.165   0.310   2.728  1.5407  1.8798  1.0081
  823SOL    HW2 2469   1.271   0.422   2.799  0.1112 -1.3729  0.5545
  824SOL     OW 2470   2.895   2.012   1.991  1.2366  0.6732  0.1490
  824SOL    HW1 2471   2.876   1.913   1.995 -2.1040 -1.7339  1.4167
  824SOL    HW2 2472   2.799   2.056   1.984 -2.9190  2.6044  0.9464
  825SOL     OW 2473   3.032   2.070   2.594  0.1740  0.0861 -0.1451
  825SOL    HW1 2474   2.937   2.056   2.639 -0.4145 -1.3161 -2.1064
  825SOL    HW2 2475   3.023   2.111   2.501 -1.4200  1.4055  2.6863
  826SOL     OW 2476   2.467   1.492   2.381 -0.4184 -0.1080  0.4534
  826SOL    HW1 2477   2.396   1.424   2.359  2.3697 -3.1611 -0.7926
  826SOL    HW2 2478   2.437   1.589   2.358  3.1656 -1.7128  1.6139
  827SOL     OW 2479   2.401   2.405   1.220 -0.1425  0.0728 -0.2187
  827SOL    HW1 2480   2.325   2.342   1.186 -0.7695 -1.4379  1.4631
  827SOL    HW2 2481   2.365   2.450   1.305  0.1114 -0.8002 -1.4313
  828SOL     OW 2482   0.147   0.001   1.307  0.1799  0.3900  0.1469
  828SOL    HW1 2483   0.047   3.111   1.300 -2.7032  0.9785  0.6118
  828SOL    HW2 2484   0.184   3.079   1.391 -0.0296 -0.3310  1.0005
  829SOL     OW 2485   1.422   2.544   2.536 -0.5014 -0.3705  0.4316
  829SOL    HW1 2486   1.518   2.506   2.557  2.1761 -1.2851  1.2546
  829SOL    HW2 2487   1.393   2.534   2.435 -1.5357 -1.1321 -0.3462
  830SOL     OW 2488   0.959   0.348   0.768 -0.1204 -0.2727  0.7600
  830SOL    HW1 2489   0.922   0.296   0.848 -1.4421  0.3808  0.3483
  830SOL    HW2 2490   0.998   0.436   0.789 -2.2888 -2.0088 -1.0110
  831SOL     OW 2491   2.952   1.530   2.995 -0.4577  0.1935  0.0122
  831SOL    HW1 2492   3.037   1.478   3.022  1.5898  1.2844 -1.7102
  831SOL    HW2 2493   2.935   1.519   2.891  1.2519 -0.6870 -1.3893
  832SOL     OW 2494   1.672   1.945   2.184  0.0661 -0.2900  0.2795
  832SOL    HW1 2495   1.616   1.989   2.254 -1.8339 -0.0946 -1.4407
  832SOL    HW2 2496   1.747   2.014   2.160  0.0271  0.6189 -0.2170
  833SOL     OW 2497   0.780   0.380   2.119 -0.4984  0.2906 -0.1281
  833SOL    HW1 2498   0.836   0.344   2.198 -2.5251  2.4585  4.4871
  833SOL    HW2 2499   0.680   0.374   2.141  2.8919 -0.3259 -1.0150
  834SOL     OW 2500   0.558   0.982   1.643 -0.2574  0.0184  0.3530
  834SOL    HW1 2501   0.516   0.912   1.578  1.4656 -2.4713  0.7505
  834SOL    HW2 2502   0.639   0.945   1.687  0.7691  1.3548 -2.4068
  835SOL     OW 2503   2.715   1.036   0.099 -0.4503  0.2871 -0.3215
  835SOL    HW1 2504   2.709   0.937   0.088  3.6033 -0.0999  1.8501
  835SOL    HW2 2505   2.631   1.084   0.066 -2.3800  2.4667 -1.2012
  836SOL     OW 2506   0.940   1.963   0.131 -0.2258  0.5971  0.1889
  836SOL    HW1 2507   0.935   1.999   0.227 -1.4089 -1.2752 -0.1569
  836SOL    HW2 2508   1.025   1.912   0.111 -2.8030  4.0542 -0.9358
  837SOL     OW 2509   1.789   1.717   0.959 -0.0553  0.4185 -0.3684
  837SOL    HW1 2510   1.828   1.738   0.867  0.2666 -2.3136  0.7022
  837SOL    HW2 2511   1.718   1.786   0.979  1.7908 -1.1600 -1.4410
  838SOL     OW 2512   1.175   1.304   2.173  0.5349  0.3144  0.4384
  838SOL    HW1 2513   1.071   1.293   2.193 -1.3261  0.4333 -1.4618
  838SOL    HW2 2514   1.193   1.385   2.118 -1.1794 -4.3035 -0.5446
  839SOL     OW 2515   0.785   2.052   2.582 -0.8183 -0.4902 -0.1928
  839SOL    HW1 2516   0.852   1.979   2.602 -1.0492  0.8508 -0.5063
  839SOL    HW2 2517   0.807   2.139   2.628 -1.8596  0.4667  0.7632
  840SOL     OW 2518   0.713   2.288   0.391  0.0961  0.2758 -0.5766
  840SOL    HW1 2519   0.631   2.294   0.336 -0.8563  1.0096  1.0493
  840SOL    HW2 2520   0.682   2.286   0.488 -0.0053 -0.0977 -1.6602
  841SOL     OW 2521   1.848   2.646   0.251  0.0038  0.0373  0.0190
  841SOL    HW1 2522   1.795   2.666   0.334  0.6005 -1.1380 -0.0278
  841SOL    HW2 2523   1.797   2.577   0.196 -0.1681 -0.3125 -0.0095
  842SOL     OW 2524   0.451   0.687   3.088  0.5184  0.4028  0.2771
  842SOL    HW1 2525   0.418   0.626   0.045  1.2498  1.6171 -0.3638
  842SOL    HW2 2526   0.541   0.727   3.116 -0.1146  0.2701  0.0476
  843SOL     OW 2527   1.235   0.253   0.768  0.5512 -0.2310 -0.1924
  843SOL    HW1 2528   1.131   0.251   0.782 -0.1692 -1.2811 -1.3163
  843SOL    HW2 2529   1.283   0.272   0.852 -0.5304  0.8520  0.0048
  844SOL     OW 2530   3.067   3.021   2.665  0.8895  0.4922  0.1054
  844SOL    HW1 2531   3.053   2.999   2.571  1.4719  0.1957  2.5136
  844SOL    HW2 2532   2.971   3.030   2.710 -4.3586  0.5579 -0.1648
  845SOL     OW 2533   2.609   2.211   1.008 -0.1220 -0.4013 -0.0201
  845SOL    HW1 2534   2.544   2.141   1.040  0.3522  0.6550  0.6889
  845SOL    HW2 2535   2.605   2.298   1.064 -0.9252  1.3646  1.0180
  846SOL     OW 2536   2.862   1.959   2.263  0.2473 -0.0989 -0.6390
  846SOL    HW1 2537   2.881   1.980   2.165  2.3800 -0.0303  0.5326
  846SOL    HW2 2538   2.937   1.909   2.312 -0.2320 -1.3987  1.4735
  847SOL     OW 2539   1.181   0.808   1.639  0.2338 -0.3030 -0.1952
  847SOL    HW1 2540   1.119   0.813   1.717  0.3155 -3.1987 -1.6002
  847SOL    HW2 2541   1.270   0.770   1.661 -1.4372 -0.0526  0.3606
  848SOL     OW 2542   2.734   2.933   3.019  0.0061  0.1359 -0.0682
  848SOL    HW1 2543   2.636   2.927   3.050  1.1094  1.4169  1.1249
  848SOL    HW2 2544   2.799   2.910   3.095  0.8864 -0.0465  2.4316
  849SOL     OW 2545   0.681   2.872   2.885  0.9533  0.2441 -0.3168
  849SOL    HW1 2546   0.656   2.787   2.933  0.9916  1.5622  1.4336
  849SOL    HW2 2547   0.779   2.895   2.912  0.5143  0.3892 -0.1343
  850SOL     OW 2548   1.264   2.824   1.333 -0.5665 -0.0391 -0.5393
  850SOL    HW1 2549   1.330   2.748   1.309 -0.4431 -2.5156  0.0124
  850SOL    HW2 2550   1.233   2.862   1.248  1.3777 -1.4336 -2.0577
  851SOL     OW 2551   2.561   0.385   2.193  0.1838 -0.2474 -0.2205
  851SOL    HW1 2552   2.611   0.476   2.198 -0.6491  0.2861 -0.5105
  851SOL    HW2 2553   2.619   0.314   2.152 -1.2905  3.4264  0.8652
  852SOL     OW 2554   1.935   0.700   2.400 -0.1693 -0.3011  0.0582
  852SOL    HW1 2555   1.893   0.687   2.308 -0.0930 -0.4095  0.8751
  852SOL    HW2 2556   2.027   0.663   2.402  0.9801 -0.1137 -1.3297
  853SOL     OW 2557   2.942   3.008   0.701  0.7539 -0.1333  0.8346
  853SOL    HW1 2558   2.899   3.096   0.732  0.3707  0.9394 -1.0502
  853SOL    HW2 2559   2.938   3.009   0.603  0.3028 -0.6762  4.4465
  854SOL     OW 2560   2.273   1.352   2.041 -0.2981  0.1695  0.4248
  854SOL    HW1 2561   2.261   1.278   1.968 -2.4468 -2.1779 -1.6639
  854SOL    HW2 2562   2.356   1.409   2.030 -2.2538  1.0302  1.0043
  855SOL     OW 2563   0.909   2.673   0.307  0.3031 -0.4553 -0.4150
  855SOL    HW1 2564   0.810   2.676   0.298 -1.5681  0.3634 -0.8611
  855SOL    HW2 2565   0.938   2.592   0.245 -2.3626  0.0193 -2.5652
  856SOL     OW 2566   3.109   0.323   2.702 -0.4026 -0.2023 -0.1169
  856SOL    HW1 2567   3.077   0.246   2.754 -0.5992  1.1855 -1.8325
  856SOL    HW2 2568   0.007   0.407   2.756  0.0821 -0.5516  0.2318
  857SOL     OW 2569   1.077   0.040   1.735  0.1485 -0.0576 -0.0497
  857SOL    HW1 2570   1.094   0.004   1.638  2.5923 -1.1521  0.6035
  857SOL    HW2 2571   1.013   3.089   1.773 -1.6118 -1.6843  3.1316
  858SOL     OW 2572   2.651   2.285   1.572  0.1022  0.4018 -0.1963
  858SOL    HW1 2573   2.665   2.183   1.587 -1.0158 -2.1103  0.6557
  858SOL    HW2 2574   2.585   2.333   1.630  0.6243  1.3069  0.8800
  859SOL     OW 2575   1.534   2.429   1.884 -0.5466 -0.6305  0.2372
  859SOL    HW1 2576   1.491   2.432   1.796  1.4539  3.0277  2.2921
  859SOL    HW2 2577   1.514   2.519   1.934  0.0916 -1.6162  0.8631
  860SOL     OW 2578   2.571   2.675   0.012 -0.5230 -0.0245  0.3804
  860SOL    HW1 2579   2.581   2.649   3.026  1.9966 -1.5611 -3.8805
  860SOL    HW2 2580   2.479   2.715   0.031  2.2069  0.7825  1.3945
  861SOL     OW 2581   2.164   2.830   0.601  0.0115 -0.4204  0.3020
  861SOL    HW1 2582   2.143   2.898   0.528  1.6959 -2.4417  0.7901
  861SOL    HW2 2583   2.211   2.745   0.561 -0.4815 -2.8413  0.2781
  862SOL     OW 2584   1.735   0.077   2.369  0.5462 -0.6423  0.0835
  862SOL    HW1 2585   1.790   0.010   2.416 -1.8645 -2.2454 -2.4847
  862SOL    HW2 2586   1.797   0.137   2.313 -0.5328  0.9483 -2.6082
  863SOL     OW 2587   3.071   0.704   0.875 -0.0266 -0.0997 -0.1572
  863SOL    HW1 2588   0.037   0.656   0.848 -2.3458  2.9595 -0.9208
  863SOL    HW2 2589   3.008   0.719   0.798 -0.3490  2.9093 -2.0220
  864SOL     OW 2590   0.364   2.779   2.154 -0.6255  0.0225  0.2037
  864SOL    HW1 2591   0.421   2.863   2.137 -0.5577  1.3815  1.1000
  864SOL    HW2 2592   0.380   2.748   2.252  1.9019  0.3922  1.2244
  865SOL     OW 2593   0.671   1.135   0.038  0.5621 -0.1627 -0.0110
  865SOL    HW1 2594   0.699   1.055   3.100 -2.2135  1.1857  0.3778
  865SOL    HW2 2595   0.572   1.138   0.033 -0.1232 -2.7410 -0.8471
  866SOL     OW 2596   2.674   0.770   0.096  0.2629  0.0799  0.3108
  866SOL    HW1 2597   2.739   0.704   0.144  4.7088 -0.8654  0.6375
  866SOL    HW2 2598   2.645   0.742   0.004 -1.5968  0.7840 -0.2321
  867SOL     OW 2599   3.038   0.065   2.893 -0.0824  0.3187 -0.3237
  867SOL    HW1 2600   3.058   0.024   2.983 -2.2251 -2.7797 -0.2283
  867SOL    HW2 2601   3.070   0.010   2.807 -1.7994 -0.4446 -2.1841
  868SOL     OW 2602   1.454   0.050   0.490  0.3858 -0.0613  0.4061
  868SOL    HW1 2603   1.426   0.145   0.521 -0.7208 -1.9661  0.2803
  868SOL    HW2 2604   1.379   3.109   0.462 -1.8660  1.9035  0.0910
  869SOL     OW 2605   1.484   1.675   0.749  0.0783 -0.4270 -0.6265
  869SOL    HW1 2606   1.404   1.729   0.715 -0.8659  3.2418  3.2944
  869SOL    HW2 2607   1.514   1.711   0.838  1.1735 -1.9475  1.4271
  870SOL     OW 2608   1.839   1.840   0.719  0.5319 -0.0224  0.0217
  870SOL    HW1 2609   1.904   1.792   0.657 -2.0300  1.8323 -1.0201
  870SOL    HW2 2610   1.777   1.892   0.656 -0.0914  0.4212 -1.5304
  871SOL     OW 2611   1.171   1.452   1.423  0.1519  0.3197  0.4725
  871SOL    HW1 2612   1.188   1.383   1.503  1.7481 -0.0676  2.5331
  871SOL    HW2 2613   1.219   1.423   1.341  1.8798  0.6235  0.8614
  872SOL     OW 2614   1.048   1.744   1.728  0.4336 -0.2627  0.1104
  872SOL    HW1 2615   0.999   1.671   1.680  0.0276  4.3276  0.1161
  872SOL    HW2 2616   1.037   1.750   1.833  0.2096 -0.8480 -0.0576
  873SOL     OW 2617   0.847   1.301   2.853 -0.4131  0.4187  0.1483
  873SOL    HW1 2618   0.747   1.295   2.867  0.3325 -0.3392  1.4298
  873SOL    HW2 2619   0.892   1.301   2.942 -1.2533 -2.0543 -2.7880
  874SOL     OW 2620   0.350   1.316   1.095  0.7983 -0.5980 -0.6267
  874SOL    HW1 2621   0.335   1.411   1.139  0.2847  0.6830  1.3551
  874SOL    HW2 2622   0.276   1.296   1.033  0.5597 -0.7806 -0.4585
  875SOL     OW 2623   2.560   0.052   1.039  0.5212  0.1729 -0.0639
  875SOL    HW1 2624   2.513   0.032   0.944 -1.0982 -2.1257 -3.8640
  875SOL    HW2 2625   2.511   0.130   1.080  0.1469  1.4469 -0.0346
  876SOL     OW 2626   0.696   0.730   0.092 -0.4945  0.1729 -0.1847
  876SOL    HW1 2627   0.735   0.637   0.094 -2.0240  1.6717 -1.5795
  876SOL    HW2 2628   0.657   0.757   0.182  0.6971  1.4460  2.6329
  877SOL     OW 2629   2.986   0.163   1.151  0.6449 -0.9839  0.3204
  877SOL    HW1 2630   2.893   0.201   1.149  1.3316 -0.7498 -0.1402
  877SOL    HW2 2631   3.003   0.075   1.198 -1.4604  2.6135 -1.4938
  878SOL     OW 2632   1.747   2.124   0.016 -0.7143 -0.3297 -0.0497
  878SOL    HW1 2633   1.841   2.109   3.093  2.0474 -0.6687  1.2822
  878SOL    HW2 2634   1.694   2.041   3.112 -1.1992  0.2257 -1.1481
  879SOL     OW 2635   2.362   2.025   1.575 -0.0198  0.5110 -0.3161
  879SOL    HW1 2636   2.454   2.063   1.600 -0.0606  0.2743  0.3254
  879SOL    HW2 2637   2.291   2.092   1.595  1.6089 -1.4531  1.0072
  880SOL     OW 2638   0.948   0.337   1.669 -0.0921 -0.6847  0.2170
  880SOL    HW1 2639   0.942   0.383   1.756 -1.0617 -1.0221 -0.5474
  880SOL    HW2 2640   0.935   0.240   1.684 -0.8295  3.5223 -1.7910
  881SOL     OW 2641   0.877   1.969   2.970 -0.4600  0.4040  0.0442
  881SOL    HW1 2642   0.961   1.969   2.916 -0.4678  0.2214 -1.1146
  881SOL    HW2 2643   0.895   1.976   3.068 -1.6816 -0.6446 -2.5264
  882SOL     OW 2644   2.330   1.233   1.541  0.0184 -0.2838  0.6036
  882SOL    HW1 2645   2.360   1.156   1.479  0.7600  0.0845  2.9675
  882SOL    HW2 2646   2.352   1.211   1.639 -1.3598  1.6286  1.0641
  883SOL     OW 2647   1.242   0.800   2.181  0.1532 -0.4794  0.4215
  883SOL    HW1 2648   1.144   0.811   2.147 -2.7261  0.6061 -0.1179
  883SOL    HW2 2649   1.300   0.769   2.103 -0.4797 -2.0587  0.6863
  884SOL     OW 2650   2.745   0.443   2.971 -0.8418  0.6850 -0.4449
  884SOL    HW1 2651   2.797   0.526   2.967  0.5334 -2.4468 -0.7194
  884SOL    HW2 2652   2.738   0.405   3.066 -3.4926 -3.5962 -0.8330
  885SOL     OW 2653   0.323   2.189   0.406 -0.4660 -0.4846  0.2344
  885SOL    HW1 2654   0.291   2.105   0.368  0.4403  0.4475 -0.8762
  885SOL    HW2 2655   0.383   2.239   0.345 -1.0530  0.2263  2.1021
  886SOL     OW 2656   1.985   1.222   3.012  0.0836 -0.2630 -0.2048
  886SOL    HW1 2657   1.973   1.136   2.967  0.0662  1.3454  0.9989
  886SOL    HW2 2658   1.911   1.252   3.074 -1.3019 -0.5250  1.9713
  887SOL     OW 2659   1.603   0.565   1.879  0.0879  0.0514 -0.5403
  887SOL    HW1 2660   1.613   0.499   1.957 -1.8501  2.7040 -0.8935
  887SOL    HW2 2661   1.668   0.642   1.885  2.9202 -0.1961 -1.9530
  888SOL     OW 2662   2.962   1.226   1.628  0.2093  0.1369 -0.1488
  888SOL    HW1 2663   2.988   1.150   1.560  1.3476 -0.5873 -2.6876
  888SOL    HW2 2664   3.039   1.248   1.686 -0.0752  1.1806 -1.7639
  889SOL     OW 2665   2.746   2.470   0.939 -0.3394  0.0213  0.3166
  889SOL    HW1 2666   2.798   2.506   1.020 -0.7538  0.1527  1.6309
  889SOL    HW2 2667   2.794   2.384   0.916  2.4264  1.0347  0.0979
  890SOL     OW 2668   0.159   2.626   2.500  0.4946  0.4339 -0.2116
  890SOL    HW1 2669   0.162   2.534   2.548  0.4702 -1.2755  0.9493
  890SOL    HW2 2670   0.157   2.698   2.568  1.3760  1.5592 -1.9990
  891SOL     OW 2671   0.531   1.781   0.248 -0.1999  0.1389  0.9255
  891SOL    HW1 2672   0.570   1.844   0.322  1.2279  2.9227  0.7421
  891SOL    HW2 2673   0.553   1.683   0.268 -0.5155  1.9017  0.3659
  892SOL     OW 2674   3.055   2.213   1.150  0.0941 -0.2970 -0.6914
  892SOL    HW1 2675   3.015   2.173   1.237 -0.4289 -0.3296  0.6439
  892SOL    HW2 2676   2.981   2.204   1.079 -0.1048  1.3475  0.2081
  893SOL     OW 2677   0.543   2.980   1.334  0.2588  0.2832  0.1796
  893SOL    HW1 2678   0.616   3.043   1.370  1.5434 -0.9263  0.2843
  893SOL    HW2 2679   0.460   3.003   1.384 -0.0684  0.7624 -1.1368
  894SOL     OW 2680   2.332   1.659   0.883 -0.2260  0.4737  0.5019
  894SOL    HW1 2681   2.414   1.611   0.913 -1.9934 -0.5863 -0.1634
  894SOL    HW2 2682   2.314   1.631   0.788 -1.7050  2.3020  2.2444
  895SOL     OW 2683   2.763   2.665   1.739  0.0597 -0.4469 -0.1448
  895SOL    HW1 2684   2.819   2.581   1.722  1.1631  0.1657  0.0419
  895SOL    HW2 2685   2.755   2.715   1.653  0.8113  0.0162  2.7282
  896SOL     OW 2686   0.932   0.310   1.394  0.0583 -0.4570 -0.6877
  896SOL    HW1 2687   1.023   0.336   1.350  0.8191  0.0986 -1.8604
  896SOL    HW2 2688   0.923   0.340   1.491  0.2579  0.8574  1.1527
  897SOL     OW 2689   0.948   1.552   1.571 -0.0522  0.1162 -0.0741
  897SOL    HW1 2690   0.875   1.593   1.516 -1.6094  0.3250 -0.9701
  897SOL    HW2 2691   1.012   1.504   1.508 -1.0607  0.4743 -3.4439
  898SOL     OW 2692   1.670   2.652   1.621  0.0531  0.4843 -0.4558
  898SOL    HW1 2693   1.728   2.572   1.603 -1.7230  0.0130 -0.2794
  898SOL    HW2 2694   1.665   2.675   1.718 -2.0800 -0.3552 -1.3913
  899SOL     OW 2695   0.846   0.484   0.044  0.4234  0.2332 -0.0017
  899SOL    HW1 2696   0.933   0.514   0.002  1.2114 -1.2619  1.1797
  899SOL    HW2 2697   0.811   0.397   0.004 -1.9714 -0.4672  0.7265
  900SOL     OW 2698   1.422   2.267   2.078 -0.5137  0.3357  0.4573
  900SOL    HW1 2699   1.341   2.310   2.118  1.6113  0.6643 -1.4058
  900SOL    HW2 2700   1.486   2.333   2.031  1.7838  1.3889  1.3362
  901SOL     OW 2701   1.143   2.279   0.206  0.0229  0.2179 -0.2872
  901SOL    HW1 2702   1.123   2.202   0.142 -0.0591 -1.9415 -1.0233
  901SOL    HW2 2703   1.237   2.267   0.245 -0.3551  0.1659  1.6876
  902SOL     OW 2704   1.664   1.337   0.772 -0.3463 -0.1150 -0.2812
  902SOL    HW1 2705   1.746   1.397   0.774 -0.7074  2.8917 -0.8466
  902SOL    HW2 2706   1.583   1.394   0.751  0.1340 -0.1179  1.4893
  903SOL     OW 2707   2.494   1.127   3.105 -0.5853  0.0856  0.4585
  903SOL    HW1 2708   2.519   1.181   3.022 -1.4481  2.1392  0.1127
  903SOL    HW2 2709   2.425   1.054   3.081  0.2118 -0.2724  1.7681
  904SOL     OW 2710   0.917   1.251   0.066  0.4288  0.1463  0.4233
  904SOL    HW1 2711   0.835   1.195   0.049 -0.4824 -0.7320 -1.0640
  904SOL    HW2 2712   0.892   1.326   0.137 -0.3543  1.1789  0.5370
  905SOL     OW 2713   1.786   3.020   1.156  0.2082  0.3696  0.0226
  905SOL    HW1 2714   1.690   3.045   1.130  0.1434 -1.9974 -1.4956
  905SOL    HW2 2715   1.812   3.061   1.244 -3.7800 -2.1880 -0.6613
  906SOL     OW 2716   2.895   2.485   1.212  0.1073 -0.4401  0.1645
  906SOL    HW1 2717   2.955   2.402   1.208 -0.1991  0.0666  0.4196
  906SOL    HW2 2718   2.812   2.462   1.269 -2.5845 -0.4242  0.8202
  907SOL     OW 2719   1.210   1.074   0.433  0.4185  0.2048  0.0127
  907SOL    HW1 2720   1.205   1.084   0.531 -2.2383  1.4468 -3.9818
  907SOL    HW2 2721   1.118   1.042   0.396  0.7426  1.0441  0.4531
  908SOL     OW 2722   1.600   0.201   1.007 -0.5812 -0.4986 -0.1233
  908SOL    HW1 2723   1.582   0.127   1.074 -0.5550  0.9091 -0.9791
  908SOL    HW2 2724   1.700   0.214   0.995 -1.0228  0.1453 -0.3694
  909SOL     OW 2725   2.354   1.034   1.375  0.3863 -0.1044  0.4391
  909SOL    HW1 2726   2.387   0.938   1.362 -0.3809 -1.7970 -3.2734
  909SOL    HW2 2727   2.310   1.070   1.287  0.2893  0.1196 -1.0298
  910SOL     OW 2728   1.888   0.680   2.142  0.1249 -0.6098  0.8441
  910SOL    HW1 2729   1.902   0.779   2.116 -0.5177 -1.1651 -0.5762
  910SOL    HW2 2730   1.952   0.618   2.095 -1.6377  2.6620 -0.2283
  911SOL     OW 2731   2.367   0.853   2.777  0.3846  0.1607 -0.4158
  911SOL    HW1 2732   2.285   0.794   2.758  1.9965  0.4067 -1.3100
  911SOL    HW2 2733   2.351   0.912   2.862 -0.8997  1.4102 -0.6715
  912SOL     OW 2734   0.302   1.072   1.757  0.3802 -0.5851 -0.3327
  912SOL    HW1 2735   0.388   1.065   1.703  1.8653 -0.9792 -0.3262
  912SOL    HW2 2736   0.284   1.169   1.777 -0.7644  1.2156  0.3330
  913SOL     OW 2737   2.926   2.131   1.381 -0.1579  0.5628 -0.4780
  913SOL    HW1 2738   2.949   2.119   1.475 -4.1430  0.6718  0.4348
  913SOL    HW2 2739   2.844   2.076   1.357  2.4756  1.9076 -1.2399
  914SOL     OW 2740   1.675   1.035   1.843  0.1451 -0.0913  0.1220
  914SOL    HW1 2741   1.762   1.086   1.849 -1.1875 -1.3223  1.3533
  914SOL    HW2 2742   1.688   0.938   1.819  0.2738  2.4501 -0.5152
  915SOL     OW 2743   2.198   0.876   1.026  0.6524 -0.1102 -0.2727
  915SOL    HW1 2744   2.216   0.777   1.053 -0.0713 -2.7690 -1.1231
  915SOL    HW2 2745   2.256   0.909   0.949  0.5816 -1.2783  0.2073
  916SOL     OW 2746   1.989   2.275   0.933 -0.2951 -0.3898  0.1077
  916SOL    HW1 2747   1.954   2.323   1.015  0.4903  1.6405  1.0426
  916SOL    HW2 2748   1.958   2.175   0.938  0.4861  0.0467  0.5573
  917SOL     OW 2749   1.912   2.126   2.484  0.1761  0.3982  0.0081
  917SOL    HW1 2750   1.819   2.148   2.440 -0.4660 -0.4298  1.2128
  917SOL    HW2 2751   1.962   2.210   2.510  0.3381  0.2610  1.0938
  918SOL     OW 2752   1.855   2.558   2.449  0.2113 -0.1383 -0.2539
  918SOL    HW1 2753   1.785   2.509   2.504  1.2659  0.1885  0.1317
  918SOL    HW2 2754   1.809   2.628   2.392 -1.5489  2.2936  1.0821
  919SOL     OW 2755   1.165   3.066   1.489 -0.4132 -0.0372 -0.4464
  919SOL    HW1 2756   1.179   2.966   1.477 -0.1213  0.3498  0.8149
  919SOL    HW2 2757   1.250   3.116   1.482 -2.0365 -2.0462  0.4841
  920SOL     OW 2758   2.943   0.354   2.478  0.0527  0.1727  0.2036
  920SOL    HW1 2759   3.016   0.337   2.545 -1.2185  0.9393 -2.3199
  920SOL    HW2 2760   2.912   0.265   2.436  0.8867 -3.0954  0.6210
  921SOL     OW 2761   0.107   0.858   1.630  0.3607 -0.1278 -0.2078
  921SOL    HW1 2762   0.153   0.826   1.544 -1.9225 -1.4887  0.5831
  921SOL    HW2 2763   0.152   0.942   1.668  3.9472 -0.9719  3.6393
  922SOL     OW 2764   2.158   2.518   0.274  0.4060  0.3873 -0.1991
  922SOL    HW1 2765   2.141   2.616   0.264 -0.0269  1.5173 -0.7677
  922SOL    HW2 2766   2.255   2.494   0.242  0.8358 -3.0614 -1.5727
  923SOL     OW 2767   0.592   2.126   0.605 -0.2251 -0.4821  0.8943
  923SOL    HW1 2768   0.679   2.124   0.655 -0.0085 -2.2990 -0.7147
  923SOL    HW2 2769   0.523   2.196   0.643  1.4560 -2.3200  0.3471
  924SOL     OW 2770   1.163   0.675   0.371 -0.5267 -0.0122  0.5137
  924SOL    HW1 2771   1.117   0.726   0.296  0.9961  0.8366  4.6415
  924SOL    HW2 2772   1.091   0.653   0.439  0.0809  0.2197  0.6992
  925SOL     OW 2773   2.645   0.773   0.948 -0.0243 -0.2312 -0.0789
  925SOL    HW1 2774   2.624   0.686   0.994  2.1446  0.3152  1.7134
  925SOL    HW2 2775   2.563   0.800   0.895 -2.7969 -1.2491 -0.5877
  926SOL     OW 2776   0.406   0.217   1.278  0.4107  0.1230  0.5719
  926SOL    HW1 2777   0.358   0.149   1.338  1.2398 -1.9171  0.8860
  926SOL    HW2 2778   0.349   0.275   1.221  2.9817 -2.4669 -0.8659
  927SOL     OW 2779   0.571   1.584   2.339 -0.6379  0.7204  0.6094
  927SOL    HW1 2780   0.507   1.576   2.417  1.8145 -0.2355  0.0615
  927SOL    HW2 2781   0.530   1.559   2.247  0.0302 -0.5275 -3.7678
  928SOL     OW 2782   0.201   0.531   2.448  0.7054 -0.3891 -0.0959
  928SOL    HW1 2783   0.107   0.559   2.414 -1.3465 -0.8201  2.5223
  928SOL    HW2 2784   0.214   0.433   2.474  0.8617  0.9561  0.6504
  929SOL     OW 2785   2.745   2.979   1.151 -0.3813  0.8275 -0.0875
  929SOL    HW1 2786   2.803   2.944   1.073  1.5716  1.1847 -1.4413
  929SOL    HW2 2787   2.674   3.049   1.117  0.8456  0.0679 -1.2484
  930SOL     OW 2788   2.087   0.735   1.857 -0.5005  0.4514  0.3597
  930SOL    HW1 2789   2.088   0.659   1.932  2.5299 -0.8378  1.8624
  930SOL    HW2 2790   2.063   0.821   1.902 -0.5555 -3.0198  2.8425
  931SOL     OW 2791   1.770   1.275   0.057 -0.0023  0.1365  0.3345
  931SOL    HW1 2792   1.679   1.239   0.029 -0.3893 -0.3066 -1.5284
  931SOL    HW2 2793   1.764   1.356   0.118  0.4222  2.5083  0.8835
  932SOL     OW 2794   1.998   1.266   0.410 -0.2414  0.0503  0.0729
  932SOL    HW1 2795   2.010   1.209   0.327  1.7564  1.8139  2.4809
  932SOL    HW2 2796   1.914   1.246   0.470 -1.8777  0.6249 -0.6715
  933SOL     OW 2797   2.064   1.683   0.902 -0.0961  0.3051  0.0296
  933SOL    HW1 2798   2.160   1.663   0.931 -0.8489 -0.2063 -1.0707
  933SOL    HW2 2799   2.024   1.731   0.982  3.6785  2.7817  0.5146
  934SOL     OW 2800   1.894   0.895   2.601  0.0088  0.0739 -0.0863
  934SOL    HW1 2801   1.900   0.824   2.533  0.6650  1.0835  1.7291
  934SOL    HW2 2802   1.811   0.873   2.660 -0.4470 -2.0985  1.1894
  935SOL     OW 2803   0.147   0.917   0.618  0.4482 -0.1029  0.4177
  935SOL    HW1 2804   0.162   0.895   0.522  0.2186 -0.3645  2.5798
  935SOL    HW2 2805   0.048   0.947   0.634 -3.5893  1.8174 -1.4426
  936SOL     OW 2806   0.443   2.894   0.829  0.0298 -0.3401 -0.3446
  936SOL    HW1 2807   0.543   2.905   0.836  1.1979 -0.1996 -2.4165
  936SOL    HW2 2808   0.411   2.930   0.740  0.2455  1.7102 -0.6430
  937SOL     OW 2809   3.008   3.065   2.171 -0.5652  0.3633 -0.1046
  937SOL    HW1 2810   3.101   3.021   2.183  1.9467 -0.2094 -2.1432
  937SOL    HW2 2811   2.966   3.056   2.076  0.8859  3.4492 -0.7927
  938SOL     OW 2812   0.182   2.533   0.008  0.4854 -0.2905  0.2390
  938SOL    HW1 2813   0.105   2.499   3.069 -0.1757  2.0834  1.2131
  938SOL    HW2 2814   0.158   2.513   0.107  2.3477 -0.5915 -0.7761
  939SOL     OW 2815   1.243   1.656   0.920  0.3612  0.7796 -0.2334
  939SOL    HW1 2816   1.174   1.587   0.890 -1.5592 -1.9387  0.2669
  939SOL    HW2 2817   1.292   1.695   0.839 -1.5069  2.9186 -2.5085
  940SOL     OW 2818   3.050   0.547   0.047  0.0177 -0.0002 -0.1506
  940SOL    HW1 2819   3.031   0.448   0.061 -2.3981  1.5400  1.6662
  940SOL    HW2 2820   3.102   0.582   0.133 -0.5930 -1.1228 -1.7942
  941SOL     OW 2821   2.178   0.158   2.566 -0.5952 -0.1931 -0.1320
  941SOL    HW1 2822   2.176   0.202   2.472 -0.8091  0.6847 -3.2307
  941SOL    HW2 2823   2.091   0.105   2.583 -1.0799  0.4406  0.8919
  942SOL     OW 2824   1.403   0.382   0.968 -0.4687  0.1270 -0.0720
  942SOL    HW1 2825   1.479   0.320   1.005 -0.8280  0.5711 -2.7986
  942SOL    HW2 2826   1.335   0.403   1.038  1.1627 -2.1394  1.0068
  943SOL     OW 2827   1.002   0.854   1.850 -0.8585  0.1598  0.3875
  943SOL    HW1 2828   0.988   0.775   1.908 -1.0016  2.6310 -4.5749
  943SOL    HW2 2829   1.016   0.934   1.911 -3.0977 -1.3448  0.1542
  944SOL     OW 2830   2.126   0.962   1.504  0.6200  0.0439  0.9901
  944SOL    HW1 2831   2.134   0.867   1.543 -1.3207 -0.6304 -1.6369
  944SOL    HW2 2832   2.214   0.996   1.463  0.8913  0.6726 -2.0337
  945SOL     OW 2833   2.686   0.068   0.089 -0.0866 -0.8002  0.1352
  945SOL    HW1 2834   2.683   0.050   0.189 -0.9035 -1.3645  1.3858
  945SOL    HW2 2835   2.724   3.109   0.035  2.5846 -0.3872  1.4125
  946SOL     OW 2836   2.957   1.020   1.911  0.0226 -0.3009 -0.3079
  946SOL    HW1 2837   2.998   1.099   1.862 -0.0610 -2.1013  4.8004
  946SOL    HW2 2838   3.004   0.937   1.886  0.2199  2.4297  1.7824
  947SOL     OW 2839   1.082   2.964   0.118  0.4956 -0.2006 -0.4408
  947SOL    HW1 2840   1.105   2.931   0.022 -0.2280  0.8847 -0.7847
  947SOL    HW2 2841   1.005   3.030   0.123 -2.5850 -1.7319 -1.0117
  948SOL     OW 2842   2.365   1.884   1.338  0.0868 -0.1918 -0.7206
  948SOL    HW1 2843   2.353   1.959   1.408  0.1277 -3.3395  0.8710
  948SOL    HW2 2844   2.371   1.793   1.390  1.6296  0.2552  0.0455
  949SOL     OW 2845   0.091   1.442   3.023  0.0228  0.3452 -0.3706
  949SOL    HW1 2846   0.081   1.361   2.965 -0.8333 -0.5674 -0.7034
  949SOL    HW2 2847   0.168   1.496   2.991 -0.0627  1.3467  0.6818
  950SOL     OW 2848   0.873   2.468   1.073  0.1223 -0.1673  0.2289
  950SOL    HW1 2849   0.807   2.523   1.136 -2.0212 -1.5820  0.0012
  950SOL    HW2 2850   0.823   2.440   0.990  1.0727 -1.2176  2.1362
  951SOL     OW 2851   0.508   1.365   2.620  0.5847 -0.8520  0.6402
  951SOL    HW1 2852   0.479   1.459   2.622  0.5460 -0.3675  0.2198
  951SOL    HW2 2853   0.530   1.333   2.714 -3.1029 -2.9726  1.1836
  952SOL     OW 2854   0.498   0.705   0.745 -0.5807 -0.1297 -0.0015
  952SOL    HW1 2855   0.454   0.629   0.793 -1.5313  1.7723 -1.2741
  952SOL    HW2 2856   0.583   0.739   0.792  1.1769  2.2336  0.6303
  953SOL     OW 2857   2.643   3.052   2.320  0.4196 -0.0149 -0.5906
  953SOL    HW1 2858   2.562   3.104   2.297  2.7323 -0.3582  0.2128
  953SOL    HW2 2859   2.699   3.097   2.390  0.9400 -0.8659 -2.2953
  954SOL     OW 2860   1.418   0.955   0.790  0.4536 -0.3209  0.2959
  954SOL    HW1 2861   1.478   1.010   0.853  0.4265 -0.0733  0.4098
  954SOL    HW2 2862   1.471   0.914   0.715 -1.9074 -0.2442  2.0436
  955SOL     OW 2863   0.646   1.940   0.418  0.1735 -0.3825  0.3339
  955SOL    HW1 2864   0.734   1.988   0.390  2.9601  0.3860  0.9609
  955SOL    HW2 2865   0.602   2.006   0.482 -0.7477  1.0589 -0.4190
  956SOL     OW 2866   2.344   0.495   2.123  0.2443 -0.1262 -0.5491
  956SOL    HW1 2867   2.333   0.564   2.196  3.3200  2.1349 -2.2974
  956SOL    HW2 2868   2.435   0.451   2.140 -2.1344  1.0048 -1.8932
  957SOL     OW 2869   2.252   2.558   2.048  0.1557 -0.0197  0.6480
  957SOL    HW1 2870   2.319   2.587   1.978  1.0800 -1.2609  1.4372
  957SOL    HW2 2871   2.263   2.460   2.067  1.5660 -0.6843  0.0394
  958SOL     OW 2872   1.684   1.179   1.370 -0.8528  0.5983  0.2871
  958SOL    HW1 2873   1.729   1.254   1.418 -0.9569 -0.0216  0.6900
  958SOL    HW2 2874   1.742   1.094   1.380  0.5632 -0.7935  0.7411
  959SOL     OW 2875   2.093   1.750   2.128  0.4828 -0.0775 -0.0883
  959SOL    HW1 2876   1.995   1.762   2.094  1.1705 -0.4682  0.3370
  959SOL    HW2 2877   2.102   1.779   2.227 -0.5572 -0.0092 -3.5617
  960SOL     OW 2878   0.533   1.007   2.854  0.0168 -0.0851 -0.3021
  960SOL    HW1 2879   0.542   0.969   2.763  1.9168 -0.1919  0.5833
  960SOL    HW2 2880   0.611   0.981   2.910 -2.8943 -0.3406 -0.7129
  961SOL     OW 2881   0.060   1.226   2.839 -0.2881  0.2730 -0.1744
  961SOL    HW1 2882   3.087   1.191   2.814  1.6396  2.7570 -0.6915
  961SOL    HW2 2883   0.117   1.155   2.880 -0.6437 -0.9048 -0.3580
  962SOL     OW 2884   0.705   1.797   2.227 -0.0868  0.3205  0.2209
  962SOL    HW1 2885   0.664   1.721   2.279  0.1926 -0.4568 -0.7644
  962SOL    HW2 2886   0.699   1.889   2.269 -0.5622  1.0380  0.7173
  963SOL     OW 2887   2.866   2.101   0.110  0.4036  0.2721  0.2018
  963SOL    HW1 2888   2.818   2.193   0.092  1.2387  1.3342 -0.8085
  963SOL    HW2 2889   2.867   2.035   0.031 -0.4707 -1.1138 -0.3986
  964SOL     OW 2890   0.788   1.849   1.725 -0.0593 -0.1182 -0.7733
  964SOL    HW1 2891   0.760   1.844   1.828  2.1949  1.7849 -1.2110
  964SOL    HW2 2892   0.886   1.817   1.712 -1.1477  0.3759  1.6856
  965SOL     OW 2893   1.707   1.979   0.521  0.0735  0.2058 -0.0734
  965SOL    HW1 2894   1.739   2.072   0.503 -0.4061  0.3368 -1.0206
  965SOL    HW2 2895   1.755   1.916   0.456  2.2169 -2.1194  0.4577
  966SOL     OW 2896   2.980   1.695   0.119  0.0160 -0.3220  0.4851
  966SOL    HW1 2897   3.081   1.716   0.148  3.4923  0.6372  1.5292
  966SOL    HW2 2898   2.970   1.637   0.038  1.4180  3.4300  1.2070
  967SOL     OW 2899   2.103   3.077   2.182  0.2403 -0.2056  0.0654
  967SOL    HW1 2900   2.014   3.076   2.237 -3.5978 -0.7532  2.7815
  967SOL    HW2 2901   2.083   0.019   2.103  3.0391 -1.5073  0.9322
  968SOL     OW 2902   0.915   0.275   0.309  0.0527  0.2541  0.5709
  968SOL    HW1 2903   0.863   0.355   0.277 -1.0442 -1.5878 -0.1416
  968SOL    HW2 2904   1.016   0.296   0.323  0.2129  3.3178 -1.6808
  969SOL     OW 2905   0.277   1.700   2.080 -0.0626 -0.2796  0.1811
  969SOL    HW1 2906   0.337   1.781   2.096 -3.8823 -0.6911 -0.8455
  969SOL    HW2 2907   0.320   1.611   2.106 -1.9732  0.8285 -3.0605
  970SOL     OW 2908   1.912   2.626   1.232  0.1236  0.1415 -0.1694
  970SOL    HW1 2909   1.978   2.647   1.154  2.0529  1.4740 -0.5717
  970SOL    HW2 2910   1.961   2.620   1.319 -0.6158  1.4713  0.5869
  971SOL     OW 2911   2.342   2.422   0.762 -0.2803  0.2728 -0.4714
  971SOL    HW1 2912   2.353   2.486   0.839 -1.7454 -0.6534 -0.6802
  971SOL    HW2 2913   2.421   2.357   0.758  0.5175  1.7830 -0.5495
  972SOL     OW 2914   3.117   1.086   2.414 -0.3388 -0.0688 -0.2027
  972SOL    HW1 2915   0.003   1.185   2.435 -0.6531  1.6178 -2.2363
  972SOL    HW2 2916   0.087   1.046   2.388 -0.5884 -0.9578 -1.5641
  973SOL     OW 2917   0.568   0.057   0.841 -0.0712  0.6378 -0.1065
  973SOL    HW1 2918   0.603   3.080   0.818  0.3730 -2.3044  0.2353
  973SOL    HW2 2919   0.579   0.073   0.940 -0.2940 -0.8498 -1.2650
  974SOL     OW 2920   2.328   1.182   1.850  0.8593 -0.0784  0.3011
  974SOL    HW1 2921   2.427   1.181   1.828  1.2055 -1.7993  0.2850
  974SOL    HW2 2922   2.302   1.092   1.885 -0.5529 -0.7982 -3.0964
  975SOL     OW 2923   0.106   3.064   0.370 -0.0620  0.2206 -0.3626
  975SOL    HW1 2924   0.010   3.066   0.386  4.8345  1.2841 -2.5780
  975SOL    HW2 2925   0.133   0.040   0.361 -1.7673 -3.9497 -0.6964
  976SOL     OW 2926   0.370   1.800   0.928 -0.3466 -0.5906  0.0594
  976SOL    HW1 2927   0.341   1.737   0.999  0.2532 -2.2312 -0.8300
  976SOL    HW2 2928   0.313   1.776   0.847  1.3695 -0.0795 -1.9289
  977SOL     OW 2929   1.025   1.670   0.647 -0.2019 -0.2466 -0.3293
  977SOL    HW1 2930   1.003   1.615   0.564  0.2275  1.3169  1.5430
  977SOL    HW2 2931   0.945   1.722   0.684  0.4128 -1.6138  3.3555
  978SOL     OW 2932   0.023   0.846   0.177  0.3286 -0.0681 -0.0485
  978SOL    HW1 2933   0.077   0.824   0.091  1.1872  0.2475  0.3357
  978SOL    HW2 2934   3.088   0.933   0.169 -1.4499  2.2604  0.9451
  979SOL     OW 2935   1.702   1.642   0.528  0.5964  0.1569  0.5403
  979SOL    HW1 2936   1.769   1.625   0.600 -1.6807 -1.3449 -1.7362
  979SOL    HW2 2937   1.610   1.656   0.574 -0.2774 -0.6336  2.5785
  980SOL     OW 2938   0.726   2.209   1.961  0.0489 -0.0798  0.3192
  980SOL    HW1 2939   0.794   2.161   2.017  0.5704 -0.6640 -0.4563
  980SOL    HW2 2940   0.739   2.192   1.860 -1.3022  1.4943 -1.0001
  981SOL     OW 2941   2.277   0.947   3.018  0.4946 -0.5672  0.3682
  981SOL    HW1 2942   2.185   0.966   2.977  0.9953  1.2611  4.0851
  981SOL    HW2 2943   2.267   0.863   3.072 -1.4703 -0.2865  0.7519
  982SOL     OW 2944   0.054   2.663   1.850 -0.6030  0.5639 -0.2332
  982SOL    HW1 2945   3.111   2.709   1.914  0.9074 -0.4378  1.3258
  982SOL    HW2 2946   0.142   2.636   1.898 -0.0628  1.9189  0.2374
  983SOL     OW 2947   1.684   0.378   1.704 -0.2765  0.9647  0.6798
  983SOL    HW1 2948   1.640   0.448   1.766 -0.3446  0.9550 -2.6332
  983SOL    HW2 2949   1.625   0.291   1.706 -2.6168 -0.7575  2.0649
  984SOL     OW 2950   1.983   3.050   2.477 -0.4632 -0.6542 -0.4264
  984SOL    HW1 2951   2.075   3.007   2.485 -1.6938  1.3564  0.3774
  984SOL    HW2 2952   1.911   2.995   2.525  1.0284 -0.1060  2.4703
  985SOL     OW 2953   1.659   1.463   1.753 -0.0181  0.3887  0.2236
  985SOL    HW1 2954   1.607   1.378   1.773 -2.6529 -1.2709 -1.8506
  985SOL    HW2 2955   1.592   1.538   1.729 -2.0383  2.5651  1.3542
  986SOL     OW 2956   2.063   2.665   2.225 -0.0987  0.1411  0.2160
  986SOL    HW1 2957   2.144   2.619   2.178  2.4597 -0.2232 -1.3150
  986SOL    HW2 2958   2.022   2.603   2.295  0.4908  1.6684 -0.5708
  987SOL     OW 2959   2.860   1.848   2.802 -0.3652  0.0884  0.2069
  987SOL    HW1 2960   2.832   1.779   2.739  2.3511  1.6753  1.0457
  987SOL    HW2 2961   2.822   1.937   2.770 -1.5761  2.0398 -0.1994
  988SOL     OW 2962   2.972   0.512   1.598  0.5867 -0.3139 -0.8364
  988SOL    HW1 2963   2.989   0.595   1.654 -0.2537  3.6494  1.0658
  988SOL    HW2 2964   2.894   0.531   1.527 -0.6602 -2.6715  0.6279
  989SOL     OW 2965   2.030   1.218   1.584 -0.3100 -0.5335 -0.2305
  989SOL    HW1 2966   2.069   1.120   1.593  2.1270 -0.3067  2.0661
  989SOL    HW2 2967   2.101   1.280   1.554 -1.3670  0.8611 -2.0172
  990SOL     OW 2968   2.850   0.628   0.204  0.3428  0.0292  0.3022
  990SOL    HW1 2969   2.917   0.613   0.130 -0.9711 -0.6497  2.1933
  990SOL    HW2 2970   2.893   0.663   0.291 -0.4560  0.8766  1.1945
  991SOL     OW 2971   0.407   1.793   3.037 -0.1960 -0.4295  0.1270
  991SOL    HW1 2972   0.410   1.873   2.966  2.6934  2.4909 -0.4612
  991SOL    HW2 2973   0.459   1.822   0.001 -1.8743  0.0293  0.3338
  992SOL     OW 2974   2.107   1.932   1.916 -0.0700 -0.0724 -0.1971
  992SOL    HW1 2975   2.077   1.891   1.832  1.9649  2.6605 -0.5813
  992SOL    HW2 2976   2.125   1.851   1.987 -0.8422 -2.2078 -0.4323
  993SOL     OW 2977   0.700   2.941   0.850 -0.2133 -0.3274 -0.4890
  993SOL    HW1 2978   0.732   2.969   0.945 -3.3175  1.2056  1.0696
  993SOL    HW2 2979   0.785   2.948   0.787  3.2438 -2.8077 -1.2311
  994SOL     OW 2980   2.663   2.020   1.631  0.5387  0.1266  0.2245
  994SOL    HW1 2981   2.646   1.966   1.714  2.0166  2.5864 -0.6511
  994SOL    HW2 2982   2.742   1.982   1.578  0.3382  2.1799 -2.5732
  995SOL     OW 2983   2.050   1.874   2.395 -0.9490  0.4156 -0.1418
  995SOL    HW1 2984   2.002   1.963   2.386 -0.6934  2.6929  0.3792
  995SOL    HW2 2985   2.138   1.882   2.445 -1.3693  0.3719  0.4735
  996SOL     OW 2986   1.906   1.814   2.937  0.6255 -0.6042 -0.3509
  996SOL    HW1 2987   1.813   1.836   2.981 -1.7869 -0.1471  1.6913
  996SOL    HW2 2988   1.981   1.829   3.001  0.1756  0.0588  0.5656
  997SOL     OW 2989   1.119   1.553   2.020 -0.0702  0.5577  0.1849
  997SOL    HW1 2990   1.089   1.603   2.104 -0.0597 -0.4255 -1.4579
  997SOL    HW2 2991   1.188   1.607   1.968  0.2834 -0.2490 -1.3182
  998SOL     OW 2992   2.764   2.162   0.529 -0.0581 -0.3307  0.4918
  998SOL    HW1 2993   2.715   2.079   0.495  0.9993 -3.2032  1.9140
  998SOL    HW2 2994   2.831   2.135   0.599  0.4737 -0.7201  1.2445
  999SOL     OW 2995   0.179   2.501   0.963  0.4958  0.3496 -0.2178
  999SOL    HW1 2996   0.191   2.407   0.932  1.1325  0.4265 -1.1984
  999SOL    HW2 2997   0.225   2.566   0.900 -0.3199  1.9172 -1.6773
 1000SOL     OW 2998   1.185   0.075   3.113  0.0644  0.0461  0.0402
 1000SOL    HW1 2999   1.130   0.034   0.063  1.9626  0.4277  0.1157
 1000SOL    HW2 3000   1.205   0.176   0.019  2.7496  1.2191  1.8172
   3.11932   3.11932   3.11932
