1000 SPC/Fw water molecules t= 282.00000 step= 282000
 3000
    1SOL     OW    1   2.660   2.989   0.809 -0.2241  0.4014 -0.1659
    1SOL    HW1    2   2.756   2.984   0.781 -0.7709  0.9579 -0.6624
    1SOL    HW2    3   2.640   3.079   0.851  0.3697  0.5038  0.5447
    2SOL     OW    4   2.308   1.898   0.912 -0.1630 -0.1838  0.1401
    2SOL    HW1    5   2.410   1.888   0.885 -1.1090 -1.2432  1.0122
    2SOL    HW2    6   2.297   1.868   1.011  0.8818 -2.2403 -1.2244
    3SOL     OW    7   1.002   2.717   3.021  0.2561  0.3957  0.1233
    3SOL    HW1    8   0.903   2.734   3.001 -0.3555 -0.4862 -1.0097
    3SOL    HW2    9   1.026   2.621   3.001  0.0254 -0.1020  1.7988
    4SOL     OW   10   1.995   2.235   1.219  0.2221 -0.1382 -0.0122
    4SOL    HW1   11   1.940   2.179   1.288 -0.0227 -0.3701  2.4208
    4SOL    HW2   12   2.087   2.260   1.257 -0.5760  2.3031 -0.1532
    5SOL     OW   13   1.367   0.910   1.479 -0.2286 -0.4686 -0.7649
    5SOL    HW1   14   1.331   0.913   1.384  0.0184  2.1799  0.5800
    5SOL    HW2   15   1.453   0.967   1.481  0.4037  1.9194  0.8965
    6SOL     OW   16   2.352   2.874   0.225 -0.0922 -0.4162  0.2628
    6SOL    HW1   17   2.273   2.871   0.162  1.4240 -0.0986  0.4247
    6SOL    HW2   18   2.337   2.928   0.311  0.3343 -1.7421  0.0326
    7SOL     OW   19   2.856   1.194   1.190  0.3545  0.0974  0.3539
    7SOL    HW1   20   2.889   1.219   1.282 -1.5625 -0.2040  0.4202
    7SOL    HW2   21   2.782   1.259   1.157  0.0728 -0.0931 -1.6030
    8SOL     OW   22   1.286   2.620   1.202  0.1276 -0.3585  0.3421
    8SOL    HW1   23   1.236   2.682   1.140  1.5773 -3.4796 -0.8166
    8SOL    HW2   24   1.309   2.531   1.158  0.0923 -0.5950  0.2142
    9SOL     OW   25   1.602   0.006   1.930 -0.1645  0.4072  0.5932
    9SOL    HW1   26   1.654   0.080   1.883  0.5133  0.0247 -2.1584
    9SOL    HW2   27   1.533   3.082   1.865  0.5203  2.4466  1.7689
   10SOL     OW   28   0.756   2.333   0.855 -0.4196 -0.4366  0.6071
   10SOL    HW1   29   0.734   2.435   0.868 -2.2800  2.4044  0.9463
   10SOL    HW2   30   0.820   2.296   0.924  0.4879 -1.1438 -3.2920
   11SOL     OW   31   1.656   1.601   0.883  0.2847  0.0673  0.4564
   11SOL    HW1   32   1.746   1.556   0.898  1.3012 -0.2664  1.4047
   11SOL    HW2   33   1.592   1.589   0.958 -0.5605  1.0339  1.5822
   12SOL     OW   34   2.936   2.834   1.936  0.5443  0.0324 -0.2783
   12SOL    HW1   35   2.893   2.883   2.014  0.6063  0.0086 -0.7199
   12SOL    HW2   36   2.961   2.745   1.974 -0.7320 -0.3170 -1.3660
   13SOL     OW   37   2.219   0.148   0.303  0.0954 -0.2857 -0.0914
   13SOL    HW1   38   2.163   0.236   0.301 -1.1728 -1.9962 -3.4538
   13SOL    HW2   39   2.191   0.090   0.378  0.0279  0.7041 -1.2828
   14SOL     OW   40   1.666   2.347   0.805  0.2447 -0.7364 -0.4109
   14SOL    HW1   41   1.693   2.269   0.742  1.2629  2.3310  1.0798
   14SOL    HW2   42   1.571   2.337   0.847  1.8154  2.1351  0.8536
   15SOL     OW   43   0.025   1.783   1.558  0.1521  0.3391 -0.5040
   15SOL    HW1   44   3.067   1.825   1.615  0.7333  1.4518 -1.2722
   15SOL    HW2   45   0.121   1.798   1.598  3.4923  0.1081  1.7002
   16SOL     OW   46   2.112   2.358   0.449  0.0148 -0.2459 -0.1447
   16SOL    HW1   47   2.055   2.422   0.504  0.5277 -1.0572 -1.9796
   16SOL    HW2   48   2.170   2.299   0.505  1.1291  0.2048 -0.5570
   17SOL     OW   49   0.705   3.115   1.478 -0.5245 -0.5326  0.7098
   17SOL    HW1   50   0.766   3.080   1.547 -1.7259  2.5595 -4.9691
   17SOL    HW2   51   0.731   0.096   1.460  1.4241  2.1699 -1.2490
   18SOL     OW   52   1.276   0.923   0.143 -0.0201  0.3747 -0.0887
   18SOL    HW1   53   1.363   0.968   0.103 -0.0675  0.6691  0.6498
   18SOL    HW2   54   1.257   0.831   0.105 -0.7788 -2.4843  1.8949
   19SOL     OW   55   1.837   2.029   0.250 -0.1729  0.0328  0.3306
   19SOL    HW1   56   1.817   1.969   0.332 -0.2808 -0.3824  0.3601
   19SOL    HW2   57   1.922   2.007   0.197  0.7046  1.2020 -0.3560
   20SOL     OW   58   2.454   1.980   1.871  0.3318  0.1836 -0.2856
   20SOL    HW1   59   2.410   2.044   1.808  2.2341  0.3349  0.4486
   20SOL    HW2   60   2.447   1.885   1.838  0.3669  1.8862  1.1701
   21SOL     OW   61   0.849   1.234   0.543 -0.5455 -0.0738 -0.1966
   21SOL    HW1   62   0.789   1.161   0.592  0.7017  2.9317 -0.2022
   21SOL    HW2   63   0.790   1.296   0.481  0.2492 -0.6112 -1.2585
   22SOL     OW   64   2.164   2.809   1.462  0.0653 -0.4374 -0.0429
   22SOL    HW1   65   2.080   2.813   1.526 -2.3409  1.2055  3.0014
   22SOL    HW2   66   2.237   2.872   1.508  2.1643  1.7369  2.9134
   23SOL     OW   67   2.944   0.770   2.080  0.6020 -0.9278 -0.0832
   23SOL    HW1   68   2.859   0.729   2.119 -0.1106 -0.9888 -0.8238
   23SOL    HW2   69   2.945   0.875   2.080  0.3176 -1.1590 -0.8051
   24SOL     OW   70   2.220   2.565   0.282  0.1005 -0.4074 -0.0174
   24SOL    HW1   71   2.296   2.557   0.218  0.5837  0.2307 -1.2223
   24SOL    HW2   72   2.191   2.469   0.311  1.2145  3.5390  0.4127
   25SOL     OW   73   1.239   3.038   2.427  0.4761  0.6088 -0.3373
   25SOL    HW1   74   1.247   3.012   2.327  0.7774 -1.3255  1.6770
   25SOL    HW2   75   1.162   3.101   2.444  6.5049 -0.3092 -0.6364
   26SOL     OW   76   1.288   2.365   0.148 -0.3211  0.4127  0.0897
   26SOL    HW1   77   1.365   2.354   0.217  2.7123  1.5058  0.8812
   26SOL    HW2   78   1.322   2.415   0.062  1.5315  2.2762 -1.9778
   27SOL     OW   79   2.461   1.858   0.274  0.0169 -0.0382  0.0206
   27SOL    HW1   80   2.370   1.902   0.255 -2.7390 -0.0687 -1.8637
   27SOL    HW2   81   2.523   1.892   0.198  0.6455 -0.0735  3.4899
   28SOL     OW   82   3.103   1.130   1.846  0.2191 -0.3354  0.0412
   28SOL    HW1   83   3.033   1.204   1.817  0.2268 -0.6388 -2.7850
   28SOL    HW2   84   3.116   1.070   1.761  0.7848 -2.5318  2.9600
   29SOL     OW   85   2.404   2.404   1.291  0.0194 -0.0897 -0.1115
   29SOL    HW1   86   2.383   2.497   1.318  2.3080 -0.4585  2.1775
   29SOL    HW2   87   2.503   2.380   1.297 -2.5517 -2.0552  0.0388
   30SOL     OW   88   1.788   0.660   0.647  0.9025  0.0141 -0.6615
   30SOL    HW1   89   1.722   0.597   0.598  1.9679 -2.0138  2.4973
   30SOL    HW2   90   1.740   0.701   0.725 -0.6906  1.9450 -1.5668
   31SOL     OW   91   2.297   2.655   1.743  0.2195 -0.1874 -0.3040
   31SOL    HW1   92   2.286   2.702   1.654 -1.1494 -1.7967  0.7805
   31SOL    HW2   93   2.271   2.559   1.735 -0.6521  2.1639 -0.0130
   32SOL     OW   94   0.936   1.814   1.311  0.4078 -0.0729 -0.4936
   32SOL    HW1   95   0.989   1.847   1.232  2.0479 -0.2274  0.3566
   32SOL    HW2   96   0.928   1.875   1.388  1.0042 -2.6049 -0.6288
   33SOL     OW   97   0.462   0.060   2.703 -0.9708  0.0900  0.1819
   33SOL    HW1   98   0.492   0.157   2.717  0.1594 -1.8927 -3.2927
   33SOL    HW2   99   0.360   0.046   2.717 -0.5426  1.4729  0.3402
   34SOL     OW  100   1.429   2.829   0.477 -0.3646 -0.2156 -0.7407
   34SOL    HW1  101   1.488   2.906   0.515  1.3878 -0.3250  1.9118
   34SOL    HW2  102   1.410   2.761   0.553 -1.2825 -1.9640  1.0136
   35SOL     OW  103   2.069   2.851   1.209 -0.3490  0.4369  0.0669
   35SOL    HW1  104   2.147   2.846   1.144 -1.1616 -1.1943  2.3509
   35SOL    HW2  105   2.103   2.866   1.306 -0.5117  1.6933 -0.6845
   36SOL     OW  106   1.933   2.422   2.160  0.1464 -0.0437 -0.4969
   36SOL    HW1  107   1.944   2.330   2.196  1.2128  0.4891 -1.3385
   36SOL    HW2  108   1.938   2.493   2.234  0.6349  2.5236 -3.2470
   37SOL     OW  109   0.891   0.002   2.087 -0.1965  0.1830 -0.1636
   37SOL    HW1  110   0.888   0.049   1.997 -0.2341 -2.6204 -0.5455
   37SOL    HW2  111   0.969   3.054   2.086 -1.6647 -0.6635 -0.2150
   38SOL     OW  112   0.167   2.780   2.755 -0.3914 -0.0776  0.1169
   38SOL    HW1  113   0.179   2.786   2.655  0.4539  0.0031  0.2344
   38SOL    HW2  114   0.250   2.792   2.813 -2.5570 -2.3706  0.1335
   39SOL     OW  115   2.223   0.977   1.638  0.0474 -0.0187  0.1005
   39SOL    HW1  116   2.283   1.051   1.597 -0.6025 -1.4676  1.5772
   39SOL    HW2  117   2.168   1.006   1.722 -1.6319 -0.9978  1.3045
   40SOL     OW  118   1.126   3.079   0.124 -0.3561  0.5774  0.3811
   40SOL    HW1  119   1.028   3.074   0.145  0.7133 -0.5325  2.6119
   40SOL    HW2  120   1.149   0.059   0.114 -0.7774 -1.5677 -0.9722
   41SOL     OW  121   2.127   1.055   1.063  0.6343  0.2112  0.2715
   41SOL    HW1  122   2.152   1.097   1.155 -0.1022 -0.7794  0.1139
   41SOL    HW2  123   2.160   1.110   0.983  1.6811 -3.3107  0.2316
   42SOL     OW  124   0.507   0.421   1.065 -0.0758  0.3791  0.4767
   42SOL    HW1  125   0.525   0.456   1.156  4.5406 -0.4109 -2.0337
   42SOL    HW2  126   0.435   0.344   1.058 -0.9126 -1.0351  2.0859
   43SOL     OW  127   2.559   1.486   2.702  0.2275  0.3609  0.1802
   43SOL    HW1  128   2.576   1.443   2.794 -0.6319  2.4084 -1.6753
   43SOL    HW2  129   2.482   1.439   2.661  0.7741  2.2000 -0.1345
   44SOL     OW  130   2.746   0.095   1.542  0.0676  0.1575  0.3696
   44SOL    HW1  131   2.818   0.052   1.482 -1.0710  1.0423  1.1415
   44SOL    HW2  132   2.765   0.090   1.644  0.8590  0.0014 -1.5679
   45SOL     OW  133   0.456   2.709   1.512 -1.0241  0.0373  0.5839
   45SOL    HW1  134   0.391   2.761   1.570  0.1921 -0.0059 -2.1254
   45SOL    HW2  135   0.506   2.772   1.449  1.2778 -1.4178 -1.4227
   46SOL     OW  136   1.781   3.069   2.368 -0.3868 -0.0709 -0.3162
   46SOL    HW1  137   1.875   3.101   2.329  4.5334  1.4065 -1.1482
   46SOL    HW2  138   1.770   2.972   2.347 -0.6414  1.4840 -0.8564
   47SOL     OW  139   1.735   1.854   0.784  0.0027  0.1849  0.6023
   47SOL    HW1  140   1.708   1.910   0.863  3.2418 -1.0233 -2.0344
   47SOL    HW2  141   1.732   1.756   0.808  2.9508 -0.8182 -0.5705
   48SOL     OW  142   0.927   2.213   0.589  0.9499  0.1752 -0.4861
   48SOL    HW1  143   0.955   2.297   0.543 -1.8403 -0.4939 -1.4938
   48SOL    HW2  144   0.845   2.221   0.652  1.2836 -2.1912  2.2454
   49SOL     OW  145   2.461   0.221   2.495 -0.1804  0.5218  0.5031
   49SOL    HW1  146   2.432   0.248   2.585 -2.3059 -2.1109 -0.9985
   49SOL    HW2  147   2.453   0.121   2.488 -1.3016  0.9806 -1.0735
   50SOL     OW  148   2.064   0.385   0.274  0.0444  0.5223  0.1513
   50SOL    HW1  149   2.052   0.485   0.257 -2.8009  0.9749  0.1851
   50SOL    HW2  150   1.988   0.332   0.226 -0.3934  0.2338  2.8251
   51SOL     OW  151   2.017   0.996   0.727  0.4911 -0.2255 -0.1566
   51SOL    HW1  152   2.016   0.917   0.666  0.1219 -0.9834 -1.1154
   51SOL    HW2  153   1.936   0.998   0.790 -2.0467  0.7038  2.0041
   52SOL     OW  154   1.289   1.254   1.597  0.3179  0.4193  0.4694
   52SOL    HW1  155   1.364   1.211   1.649 -2.2618  2.4823  2.5688
   52SOL    HW2  156   1.226   1.183   1.559  1.1428 -2.0470 -0.1052
   53SOL     OW  157   0.862   1.677   2.350 -0.1702 -0.1728  0.3649
   53SOL    HW1  158   0.846   1.620   2.267  1.5094  2.6555  2.0272
   53SOL    HW2  159   0.826   1.770   2.333 -1.6730  0.9639 -0.8000
   54SOL     OW  160   2.506   0.066   1.413 -0.0081 -0.4596 -0.3030
   54SOL    HW1  161   2.597   0.069   1.458 -2.8544 -1.2842  0.7088
   54SOL    HW2  162   2.479   0.157   1.383  1.8069 -3.0085  0.8630
   55SOL     OW  163   2.757   2.024   0.887  0.2324  0.5151  0.4269
   55SOL    HW1  164   2.752   2.099   0.816 -2.6249  1.2622 -2.5402
   55SOL    HW2  165   2.836   1.964   0.864 -1.5021  1.8798 -1.9805
   56SOL     OW  166   1.237   0.154   2.049  0.7788  0.1539 -0.1077
   56SOL    HW1  167   1.253   0.062   2.088 -0.5112  2.6012  2.9097
   56SOL    HW2  168   1.248   0.156   1.949 -0.9623  0.3801  0.1251
   57SOL     OW  169   1.382   1.568   0.109  0.2317  0.1801 -0.2357
   57SOL    HW1  170   1.411   1.538   0.205 -0.4194 -3.7477  2.6279
   57SOL    HW2  171   1.466   1.589   0.054  1.6061  2.0892  1.0816
   58SOL     OW  172   0.227   1.146   2.014 -0.5325  0.1090 -0.6136
   58SOL    HW1  173   0.133   1.143   1.972  0.9496 -0.0420  1.7891
   58SOL    HW2  174   0.236   1.232   2.068 -0.7319  0.5680 -0.2897
   59SOL     OW  175   1.148   0.109   2.883 -0.5786  0.2010 -0.5054
   59SOL    HW1  176   1.104   0.139   2.972 -2.0915  0.9398  2.0761
   59SOL    HW2  177   1.082   0.073   2.814  2.0549 -0.0469 -1.0491
   60SOL     OW  178   2.999   2.253   0.487 -0.8067  0.0191  0.0700
   60SOL    HW1  179   2.920   2.195   0.454 -1.6042 -0.8380 -0.4072
   60SOL    HW2  180   2.986   2.349   0.458 -0.6550  1.3882 -0.0185
   61SOL     OW  181   1.047   2.522   0.222 -0.2830 -0.3866 -0.0144
   61SOL    HW1  182   1.029   2.625   0.218 -1.6351 -1.0669  1.4393
   61SOL    HW2  183   1.143   2.506   0.191 -0.4594 -0.0425 -0.1613
   62SOL     OW  184   2.077   2.076   2.528 -0.2391 -0.3983  0.5298
   62SOL    HW1  185   2.052   1.978   2.554  1.5968  1.1482 -0.5776
   62SOL    HW2  186   2.013   2.114   2.460  0.7747  2.5363  0.5557
   63SOL     OW  187   2.272   2.198   0.618 -0.5664  0.0086 -0.2293
   63SOL    HW1  188   2.256   2.191   0.721  1.8664  0.0339  0.5981
   63SOL    HW2  189   2.241   2.113   0.567 -0.0173  0.2579  2.6065
   64SOL     OW  190   1.836   1.249   2.828 -0.0798  0.2698 -0.1505
   64SOL    HW1  191   1.753   1.287   2.876  1.4532 -2.1487 -0.2963
   64SOL    HW2  192   1.883   1.186   2.899  1.5471 -3.0244  1.1517
   65SOL     OW  193   1.329   2.044   2.957  0.2703 -0.5702  0.6320
   65SOL    HW1  194   1.420   2.081   2.986  3.7072 -3.8702 -2.3637
   65SOL    HW2  195   1.335   1.976   2.879  0.2117  1.3706 -0.7474
   66SOL     OW  196   0.017   1.136   2.314 -0.4074 -0.4054 -0.1879
   66SOL    HW1  197   3.046   1.164   2.365 -2.7144 -2.1225  1.3492
   66SOL    HW2  198   0.065   1.218   2.279 -0.0375  0.8797 -1.8491
   67SOL     OW  199   2.627   2.688   3.071  0.0547 -0.1267 -0.1907
   67SOL    HW1  200   2.553   2.630   3.111 -0.7030  0.7738 -1.4669
   67SOL    HW2  201   2.611   2.723   2.977 -1.5840 -2.2713  1.1477
   68SOL     OW  202   0.749   2.454   1.361 -0.3650 -0.1945 -0.1694
   68SOL    HW1  203   0.757   2.406   1.445  2.9749  2.8370 -3.2973
   68SOL    HW2  204   0.822   2.427   1.296  1.5361  1.5709  1.8928
   69SOL     OW  205   0.803   2.597   0.549  0.6334 -0.1175  0.2933
   69SOL    HW1  206   0.772   2.684   0.575 -1.1620 -0.8967 -2.7628
   69SOL    HW2  207   0.727   2.545   0.510  1.6906  0.3040 -2.8273
   70SOL     OW  208   2.557   0.559   2.708 -0.0859 -0.7422 -0.2954
   70SOL    HW1  209   2.549   0.457   2.706  1.5922  2.3575  0.5238
   70SOL    HW2  210   2.657   0.584   2.731  1.6186  2.0725  0.3929
   71SOL     OW  211   0.666   1.324   2.595  0.1191 -0.2731  0.3803
   71SOL    HW1  212   0.670   1.427   2.591  2.7072  0.7769  1.4203
   71SOL    HW2  213   0.654   1.297   2.694 -1.0266 -0.0160 -0.7147
   72SOL     OW  214   0.094   2.170   0.316  0.1636  0.2911 -0.1397
   72SOL    HW1  215   0.110   2.240   0.245 -2.8143  2.1174 -2.1201
   72SOL    HW2  216   0.029   2.209   0.383  1.5533 -0.9151  1.1617
   73SOL     OW  217   1.093   1.314   0.443  0.0674  0.0462 -0.0638
   73SOL    HW1  218   1.070   1.316   0.342  0.3792 -0.8505  0.5315
   73SOL    HW2  219   1.016   1.273   0.502  0.3182 -1.5238  1.4208
   74SOL     OW  220   2.164   2.877   0.018 -0.0141 -0.0293 -0.1540
   74SOL    HW1  221   2.075   2.842   0.053 -2.5678  0.1453 -0.0677
   74SOL    HW2  222   2.202   2.813   3.062 -1.0502  0.6019 -0.5707
   75SOL     OW  223   2.278   1.830   1.168 -0.3049 -0.0654 -0.2883
   75SOL    HW1  224   2.333   1.841   1.256  3.6360  1.5774  2.6836
   75SOL    HW2  225   2.250   1.733   1.168  0.3500  1.3682 -0.5919
   76SOL     OW  226   2.013   2.475   1.490 -0.3592 -0.4618  0.5358
   76SOL    HW1  227   1.948   2.518   1.559 -1.6005  0.5001  4.7334
   76SOL    HW2  228   2.032   2.376   1.512  0.0134 -0.8585 -0.7278
   77SOL     OW  229   2.338   0.220   1.803 -0.8758  0.1931 -0.0938
   77SOL    HW1  230   2.309   0.245   1.898 -2.2650  1.1920  1.7438
   77SOL    HW2  231   2.413   0.153   1.813  1.6825 -1.2845  2.0891
   78SOL     OW  232   1.481   0.760   2.994  0.7196 -0.2285 -0.0283
   78SOL    HW1  233   1.559   0.704   3.026 -1.3713  1.1243 -0.1629
   78SOL    HW2  234   1.480   0.763   2.891  1.5040  1.2520  2.3154
   79SOL     OW  235   2.693   1.752   2.064  0.2105  0.9394  0.3867
   79SOL    HW1  236   2.645   1.837   2.090 -2.9667  0.2679 -0.9690
   79SOL    HW2  237   2.637   1.669   2.091 -1.4962  1.3415  2.7678
   80SOL     OW  238   2.002   1.454   1.582  0.3633  0.5171  0.4152
   80SOL    HW1  239   2.037   1.447   1.487  1.7136  0.1975  0.0324
   80SOL    HW2  240   1.917   1.508   1.583  1.6964 -0.8624  1.0938
   81SOL     OW  241   1.250   0.667   1.594 -0.0922 -0.2434  0.0826
   81SOL    HW1  242   1.264   0.621   1.689 -2.9027  0.8999  2.0181
   81SOL    HW2  243   1.236   0.766   1.600 -2.0941  0.5505  1.8498
   82SOL     OW  244   1.258   2.606   1.465 -0.0444  0.7361 -0.2914
   82SOL    HW1  245   1.332   2.668   1.499  0.5568 -2.6260 -4.2916
   82SOL    HW2  246   1.269   2.584   1.366  2.4471 -0.9084 -0.2730
   83SOL     OW  247   0.358   0.160   0.426  0.6288 -0.1342  0.5348
   83SOL    HW1  248   0.406   0.102   0.495 -1.9688  0.7651 -2.2542
   83SOL    HW2  249   0.260   0.145   0.425 -1.3313 -3.1507 -0.7205
   84SOL     OW  250   0.343   1.128   3.087 -0.0562 -0.5778  0.0208
   84SOL    HW1  251   0.352   1.095   2.990  0.3292  2.2760  1.0661
   84SOL    HW2  252   0.354   1.228   3.096 -0.9979  1.5795 -0.5498
   85SOL     OW  253   2.932   1.899   1.661  0.1304  0.2595  0.3779
   85SOL    HW1  254   2.902   1.826   1.724  1.3309  0.7446 -2.2577
   85SOL    HW2  255   2.847   1.954   1.630 -0.6422 -3.4079  3.8675
   86SOL     OW  256   3.009   2.398   1.642  0.6109  0.2006 -0.4839
   86SOL    HW1  257   2.983   2.362   1.736  3.5104  0.3168 -0.2929
   86SOL    HW2  258   3.110   2.394   1.623 -3.1105 -1.1437 -1.6028
   87SOL     OW  259   0.799   0.368   2.671  0.1064 -0.0344 -0.4832
   87SOL    HW1  260   0.862   0.289   2.694  0.5951  0.1851 -0.1083
   87SOL    HW2  261   0.709   0.350   2.721 -0.9008 -1.1241  1.2477
   88SOL     OW  262   0.520   2.217   1.381 -0.5695 -0.3100 -0.4437
   88SOL    HW1  263   0.595   2.177   1.325 -2.5604  0.2765  2.6698
   88SOL    HW2  264   0.471   2.143   1.424 -0.5963 -2.1951 -0.2733
   89SOL     OW  265   0.827   0.753   1.640 -0.7424 -0.3169  0.4941
   89SOL    HW1  266   0.900   0.686   1.631 -1.7386 -1.6109  1.5682
   89SOL    HW2  267   0.794   0.742   1.731  2.2054 -1.9332 -0.9262
   90SOL     OW  268   3.027   1.541   1.484 -0.2509  0.5517  0.6010
   90SOL    HW1  269   3.068   1.623   1.528 -0.9496 -2.0688 -1.3129
   90SOL    HW2  270   3.098   1.491   1.434 -1.7196  1.7038  1.4669
   91SOL     OW  271   1.437   1.287   0.715 -0.3595  0.1408 -0.0698
   91SOL    HW1  272   1.371   1.362   0.742 -0.5765 -1.1428  1.4104
   91SOL    HW2  273   1.416   1.202   0.768 -0.9258  0.5464  0.0513
   92SOL     OW  274   2.591   0.442   1.026 -0.4414 -0.0354  0.1749
   92SOL    HW1  275   2.514   0.384   1.056  1.9093  0.7119  2.1216
   92SOL    HW2  276   2.564   0.518   0.962 -0.9000  0.0908  0.5457
   93SOL     OW  277   1.881   0.728   2.933 -0.0288 -0.5446 -0.3609
   93SOL    HW1  278   1.809   0.712   3.000  1.1375  0.0404  1.3566
   93SOL    HW2  279   1.856   0.693   2.839 -1.2045  1.7358  1.7776
   94SOL     OW  280   2.484   1.682   2.374  0.5534 -0.9155 -0.0080
   94SOL    HW1  281   2.455   1.681   2.275 -1.3469 -2.0948  1.4524
   94SOL    HW2  282   2.553   1.610   2.391 -1.0789 -0.5706 -0.6928
   95SOL     OW  283   2.032   0.442   1.039 -0.0641 -0.2665 -0.0518
   95SOL    HW1  284   1.954   0.467   0.971 -0.6315  1.3631 -2.6934
   95SOL    HW2  285   2.110   0.508   1.029  1.1165 -1.4095 -0.2275
   96SOL     OW  286   2.491   0.051   2.178  0.1494 -0.2219  0.6162
   96SOL    HW1  287   2.462   0.070   2.083  0.7940 -0.2650  2.0231
   96SOL    HW2  288   2.470   0.134   2.229  1.3620  1.4103 -0.8175
   97SOL     OW  289   2.351   0.311   1.330  0.0475  0.1482 -0.3129
   97SOL    HW1  290   2.362   0.406   1.362  0.3936 -1.1994  0.6033
   97SOL    HW2  291   2.261   0.275   1.369  0.0423 -0.1781 -1.6274
   98SOL     OW  292   1.641   2.418   1.690  0.4614 -0.6896  0.1663
   98SOL    HW1  293   1.575   2.409   1.771 -0.1922 -1.0661  3.5769
   98SOL    HW2  294   1.606   2.363   1.611  2.3878  1.7056 -0.3444
   99SOL     OW  295   2.522   2.218   1.553 -0.2948 -0.0482 -0.0030
   99SOL    HW1  296   2.538   2.317   1.526 -0.9744  0.0533 -0.9273
   99SOL    HW2  297   2.458   2.198   1.630 -1.2827  0.6398  0.2910
  100SOL     OW  298   0.693   0.933   2.758 -0.3230  0.0847  0.1593
  100SOL    HW1  299   0.640   0.857   2.803  0.4542 -0.0396 -0.6412
  100SOL    HW2  300   0.657   1.024   2.791 -2.8332  0.1928  1.5282
  101SOL     OW  301   2.054   0.411   2.936  0.7348  0.0873  0.3279
  101SOL    HW1  302   2.063   0.315   2.974 -0.7099  0.7714 -0.8725
  101SOL    HW2  303   2.048   0.480   3.009  0.5964  0.6639 -1.3405
  102SOL     OW  304   0.193   0.823   1.767 -0.0042 -0.3756  0.4485
  102SOL    HW1  305   0.132   0.784   1.833  2.3949  2.1930 -1.4638
  102SOL    HW2  306   0.175   0.783   1.676  1.1197  0.7673  1.6616
  103SOL     OW  307   2.825   0.604   2.767  0.7725 -0.0337  0.7420
  103SOL    HW1  308   2.847   0.694   2.727  1.6702  1.1862  2.2403
  103SOL    HW2  309   2.917   0.558   2.787  0.2796 -1.3309  1.6489
  104SOL     OW  310   0.639   0.592   2.633  0.3927  0.1089 -0.5321
  104SOL    HW1  311   0.660   0.656   2.554  2.1305  0.8405 -0.3511
  104SOL    HW2  312   0.697   0.508   2.627 -1.2239  1.5925 -0.8681
  105SOL     OW  313   2.380   1.721   1.804 -0.2208 -0.2208  0.0812
  105SOL    HW1  314   2.284   1.738   1.783  1.9960 -0.3429  1.0971
  105SOL    HW2  315   2.398   1.619   1.815 -1.0396  0.1749 -0.0468
  106SOL     OW  316   2.039   0.731   0.589 -0.7297  0.0739 -0.3533
  106SOL    HW1  317   2.101   0.661   0.545 -1.1682 -3.0503 -0.9693
  106SOL    HW2  318   1.945   0.700   0.599  4.3627 -0.2806 -0.9219
  107SOL     OW  319   0.395   1.566   0.776 -0.2149  0.4687  0.0596
  107SOL    HW1  320   0.402   1.623   0.861 -0.7063  2.8246  0.1838
  107SOL    HW2  321   0.482   1.571   0.720  0.6669  0.7956 -2.3083
  108SOL     OW  322   2.813   2.602   1.531 -0.1954  0.4832  0.0330
  108SOL    HW1  323   2.883   2.533   1.568  2.0791  1.9933  1.8274
  108SOL    HW2  324   2.809   2.608   1.429  0.8177  1.5685 -1.6811
  109SOL     OW  325   1.986   0.053   0.781 -0.3162  0.1015  0.0879
  109SOL    HW1  326   2.040   0.109   0.716  1.3903  0.3193 -2.8925
  109SOL    HW2  327   2.043   3.095   0.828 -0.9520 -0.1803  2.6965
  110SOL     OW  328   0.399   2.039   2.609  0.4627 -0.4340  0.2933
  110SOL    HW1  329   0.392   1.983   2.523 -0.6301 -0.0692  0.5482
  110SOL    HW2  330   0.489   2.028   2.657 -0.8039  0.2797 -1.2897
  111SOL     OW  331   1.569   2.713   1.802  0.0057  0.2490  0.3118
  111SOL    HW1  332   1.517   2.637   1.852 -3.6312 -2.4213  1.6071
  111SOL    HW2  333   1.574   2.699   1.701  1.6191  1.2271  0.4498
  112SOL     OW  334   1.964   2.612   2.897  0.4920 -0.4015 -0.4255
  112SOL    HW1  335   1.914   2.699   2.907 -0.4097 -1.6203  1.4604
  112SOL    HW2  336   1.905   2.543   2.858  1.4512 -0.2609 -0.5835
  113SOL     OW  337   1.591   2.226   1.503 -0.3362  0.2773 -0.1283
  113SOL    HW1  338   1.585   2.253   1.402  1.8376 -0.1116 -2.0902
  113SOL    HW2  339   1.666   2.160   1.507 -0.9299  2.4861 -1.4905
  114SOL     OW  340   2.869   0.953   0.669 -0.0518 -0.1878 -0.0418
  114SOL    HW1  341   2.825   0.951   0.760 -1.7053 -0.1100  0.6065
  114SOL    HW2  342   2.910   0.864   0.638  0.0428 -3.1388 -0.2599
  115SOL     OW  343   0.621   1.002   3.106 -0.0439  0.3958  0.6351
  115SOL    HW1  344   0.535   1.060   3.111 -2.3830  0.3741 -1.0746
  115SOL    HW2  345   0.618   0.929   0.059 -3.7337  1.0152  0.4019
  116SOL     OW  346   2.621   1.500   2.152 -0.1845 -0.2747  0.2817
  116SOL    HW1  347   2.699   1.437   2.161 -0.1129 -1.2852 -0.5034
  116SOL    HW2  348   2.534   1.450   2.149 -2.8596  2.4420  2.6618
  117SOL     OW  349   0.146   2.620   0.602  0.2063  0.0560  0.2667
  117SOL    HW1  350   0.081   2.544   0.631  0.8291 -1.1432  1.7092
  117SOL    HW2  351   0.129   2.651   0.507  0.9327 -1.7662 -1.8218
  118SOL     OW  352   0.775   1.935   2.348  0.2346 -0.6760 -0.0990
  118SOL    HW1  353   0.768   2.002   2.429  0.4352  2.8238 -1.8275
  118SOL    HW2  354   0.698   1.955   2.278  0.0071 -1.3933 -0.9493
  119SOL     OW  355   0.156   2.327   2.826  0.1008  0.2259 -0.2474
  119SOL    HW1  356   0.088   2.250   2.819  1.4345 -1.7515  0.6343
  119SOL    HW2  357   0.225   2.297   2.896  0.0903 -0.7243  0.9634
  120SOL     OW  358   1.063   0.854   3.010  0.1861  0.3433 -0.2593
  120SOL    HW1  359   1.102   0.951   2.999  1.1259  2.3096 -1.8435
  120SOL    HW2  360   1.130   0.786   3.034 -1.6792  1.3036  0.1115
  121SOL     OW  361   1.198   2.815   1.055 -0.3588  0.0296  0.0568
  121SOL    HW1  362   1.170   2.852   0.963  2.3877  0.0221  2.2752
  121SOL    HW2  363   1.254   2.888   1.104  1.8608  2.4696 -1.2076
  122SOL     OW  364   2.542   2.489   1.550  0.8073  0.0147 -0.1664
  122SOL    HW1  365   2.485   2.563   1.500 -2.1530  3.4299 -1.4478
  122SOL    HW2  366   2.639   2.512   1.530 -0.5611 -1.5916 -0.4740
  123SOL     OW  367   0.495   2.529   0.943  0.4722 -0.0453  0.0003
  123SOL    HW1  368   0.410   2.508   0.893  0.1706 -1.7316  0.4782
  123SOL    HW2  369   0.508   2.475   1.030  1.7030 -1.9790 -1.4445
  124SOL     OW  370   2.241   0.937   2.942  0.1460 -0.4664  0.1894
  124SOL    HW1  371   2.216   0.950   2.844 -1.4978 -1.3943  0.2817
  124SOL    HW2  372   2.297   0.849   2.949 -1.2198  0.1945  0.7419
  125SOL     OW  373   0.584   0.998   0.407 -0.2470 -0.2093 -0.0673
  125SOL    HW1  374   0.535   0.916   0.452 -0.2360 -2.5239  2.2732
  125SOL    HW2  375   0.671   1.010   0.461  0.0406  1.3224 -2.7154
  126SOL     OW  376   3.087   1.375   0.513  0.0358  0.7256 -0.3452
  126SOL    HW1  377   0.032   1.449   0.548 -0.4927 -1.8356  1.1632
  126SOL    HW2  378   3.070   1.303   0.583 -1.0598 -3.3958 -2.1135
  127SOL     OW  379   0.604   1.687   2.082  0.3099 -0.1875  0.3117
  127SOL    HW1  380   0.662   1.604   2.099  1.2780 -1.5675  0.2655
  127SOL    HW2  381   0.508   1.661   2.095  0.3607 -1.3496 -2.3726
  128SOL     OW  382   0.879   1.080   0.009  0.5670  0.4894 -0.2103
  128SOL    HW1  383   0.920   1.091   3.036 -1.6668 -1.4259 -0.1714
  128SOL    HW2  384   0.779   1.056   3.116 -1.5081 -2.8655 -0.4744
  129SOL     OW  385   2.732   1.233   0.748 -0.3411 -0.0179  0.0898
  129SOL    HW1  386   2.734   1.134   0.782 -2.0284 -0.6979  0.1064
  129SOL    HW2  387   2.825   1.263   0.727  0.1909 -1.5850  1.5498
  130SOL     OW  388   2.387   1.172   1.484 -0.1044  0.6331  0.0476
  130SOL    HW1  389   2.473   1.120   1.468  2.5746  0.3189 -2.7883
  130SOL    HW2  390   2.402   1.276   1.502  2.6699  3.1127 -0.3942
  131SOL     OW  391   2.885   3.106   2.820  0.0545 -0.1826 -0.0699
  131SOL    HW1  392   2.883   0.031   2.914  1.8036 -0.3751  1.2542
  131SOL    HW2  393   2.962   3.037   2.823 -0.9074  0.7039  2.3058
  132SOL     OW  394   0.198   1.696   1.183 -0.0860 -0.3129  0.4717
  132SOL    HW1  395   0.256   1.640   1.124  0.5771  0.1302 -0.8248
  132SOL    HW2  396   0.102   1.701   1.147  0.7868  0.9011 -1.0373
  133SOL     OW  397   0.777   0.495   1.372 -1.0256 -0.3049 -0.3550
  133SOL    HW1  398   0.832   0.540   1.446 -0.2091  1.2182 -2.3984
  133SOL    HW2  399   0.689   0.547   1.359  0.5296 -1.4260  1.7901
  134SOL     OW  400   0.120   1.916   0.194  0.2070  0.1756 -0.3613
  134SOL    HW1  401   0.077   1.941   0.104  0.7568  1.8678 -0.2217
  134SOL    HW2  402   0.126   2.003   0.248 -0.4243 -1.6679 -0.2182
  135SOL     OW  403   1.906   0.683   1.445 -1.2737 -0.3019  0.1460
  135SOL    HW1  404   1.803   0.680   1.432 -1.5022  1.3016 -1.9880
  135SOL    HW2  405   1.957   0.602   1.410 -2.6628  2.2307  2.6774
  136SOL     OW  406   0.145   1.008   0.522  0.1874  0.2572  0.0693
  136SOL    HW1  407   0.214   1.074   0.546 -0.4934  1.3002 -1.0490
  136SOL    HW2  408   0.082   1.030   0.444  0.6028 -0.8130  0.2786
  137SOL     OW  409   3.040   1.196   0.705 -0.4393 -0.5480  0.5471
  137SOL    HW1  410   3.023   1.097   0.695 -1.4239 -0.9782 -0.0978
  137SOL    HW2  411   3.092   1.234   0.786 -1.9214  2.1932 -1.3784
  138SOL     OW  412   1.877   0.988   0.969 -0.0566  0.3216 -0.1786
  138SOL    HW1  413   1.852   0.931   1.049  0.6525 -0.5670  0.9779
  138SOL    HW2  414   1.971   1.028   0.986  1.4005 -0.6066  0.4869
  139SOL     OW  415   1.619   2.891   0.003  0.2415 -0.3107  0.1423
  139SOL    HW1  416   1.654   2.907   0.099  0.6090  0.8713  1.6551
  139SOL    HW2  417   1.544   2.822   3.114 -1.1273 -0.0087  0.4745
  140SOL     OW  418   1.425   1.528   1.704  0.3446  0.2459 -0.2354
  140SOL    HW1  419   1.524   1.502   1.729  3.7121 -1.6019  0.1328
  140SOL    HW2  420   1.368   1.460   1.754  1.7715  1.3763  1.0208
  141SOL     OW  421   1.645   2.119   0.430  0.5602  0.4205  0.5494
  141SOL    HW1  422   1.693   2.085   0.346 -1.9896  1.5195 -1.1038
  141SOL    HW2  423   1.560   2.065   0.443 -0.9582 -3.3587 -0.2517
  142SOL     OW  424   0.857   0.698   3.069 -0.0440 -0.4278 -0.3334
  142SOL    HW1  425   0.849   0.659   0.051 -0.6534 -1.9338  2.8694
  142SOL    HW2  426   0.929   0.774   3.063  0.3965 -0.5682 -0.7394
  143SOL     OW  427   0.332   2.262   3.020 -0.5141 -0.4555 -0.1867
  143SOL    HW1  428   0.364   2.163   3.010  1.2065 -1.6059  0.1306
  143SOL    HW2  429   0.331   2.296   0.000 -1.7023 -0.2417 -0.2361
  144SOL     OW  430   1.422   3.001   1.210 -0.5668 -0.3581  0.2099
  144SOL    HW1  431   1.440   3.001   1.312  2.4531 -0.5257 -0.5835
  144SOL    HW2  432   1.514   2.984   1.165  1.5975 -5.5161  0.6153
  145SOL     OW  433   2.154   1.261   0.051 -0.6468  0.3258 -0.2813
  145SOL    HW1  434   2.153   1.157   0.061  0.4409  1.6765 -1.7048
  145SOL    HW2  435   2.059   1.292   0.040  1.0824 -0.4594 -2.0563
  146SOL     OW  436   3.098   2.425   0.676  0.4067 -0.8334 -0.6742
  146SOL    HW1  437   3.063   2.356   0.614 -0.5075 -0.7715 -2.7479
  146SOL    HW2  438   3.093   2.405   0.774  0.4414 -1.2351 -0.1382
  147SOL     OW  439   2.363   2.978   1.540 -0.1099  0.1703 -0.3066
  147SOL    HW1  440   2.430   2.949   1.612 -1.0355  0.1464  1.7075
  147SOL    HW2  441   2.404   3.048   1.468  0.4405 -1.1764  0.9891
  148SOL     OW  442   1.414   2.987   1.765  0.0533 -0.3526  0.0051
  148SOL    HW1  443   1.426   2.886   1.766  1.1051 -0.2380 -1.8107
  148SOL    HW2  444   1.327   3.014   1.816 -0.7592  1.5358 -1.1502
  149SOL     OW  445   1.810   0.547   2.203 -0.0721 -0.0054  0.2424
  149SOL    HW1  446   1.887   0.546   2.273  1.6809  0.1543  1.8333
  149SOL    HW2  447   1.834   0.505   2.112  0.5535  0.2019 -0.5918
  150SOL     OW  448   0.249   3.055   0.257 -0.4702  0.3029  0.0192
  150SOL    HW1  449   0.321   3.047   0.328  1.7689  0.5852  0.9683
  150SOL    HW2  450   0.279   3.110   0.180  1.0275 -1.5933  3.1435
  151SOL     OW  451   0.359   2.377   0.181  0.2179 -0.0930 -0.5265
  151SOL    HW1  452   0.393   2.452   0.245 -1.1999 -0.4655  3.1976
  151SOL    HW2  453   0.261   2.393   0.156  1.1275  0.4452 -0.4906
  152SOL     OW  454   2.973   3.101   0.776 -0.4836 -0.0725 -0.2401
  152SOL    HW1  455   3.057   3.095   0.838  2.3417  0.3030  1.2363
  152SOL    HW2  456   2.896   0.034   0.826 -0.1204  0.6057  0.8502
  153SOL     OW  457   2.367   0.014   0.963  0.4299  0.1096  0.1881
  153SOL    HW1  458   2.302   3.063   0.918  2.3162 -0.0954  0.7077
  153SOL    HW2  459   2.435   0.054   0.899 -0.3430  0.8662  0.4717
  154SOL     OW  460   0.768   0.481   1.951 -0.1615  0.4486 -0.3941
  154SOL    HW1  461   0.789   0.448   2.043  0.8061 -3.5781 -0.4881
  154SOL    HW2  462   0.804   0.573   1.929  0.0974 -0.0550  2.2867
  155SOL     OW  463   3.084   1.083   1.077 -0.4611 -0.0087 -0.2568
  155SOL    HW1  464   3.109   1.144   1.001 -1.1374 -0.5981  0.6439
  155SOL    HW2  465   3.002   1.117   1.123  0.5664 -1.4837 -1.0614
  156SOL     OW  466   2.955   2.228   0.089 -0.1269 -0.4708  0.4536
  156SOL    HW1  467   2.862   2.222   0.135  0.1422 -2.1735 -0.4036
  156SOL    HW2  468   2.943   2.210   3.104 -0.8493  1.0656 -2.7274
  157SOL     OW  469   0.839   0.707   0.253  0.1130 -0.3108  0.2739
  157SOL    HW1  470   0.848   0.672   0.350 -0.1888  0.2497 -0.3325
  157SOL    HW2  471   0.902   0.790   0.242  0.8745  2.7738 -0.4302
  158SOL     OW  472   2.409   3.067   2.595 -0.2987  0.3804 -0.3446
  158SOL    HW1  473   2.427   3.068   2.694  0.6905  1.2594 -0.5166
  158SOL    HW2  474   2.320   3.110   2.584  1.3978  0.2384 -1.4327
  159SOL     OW  475   0.791   0.191   0.462 -0.3019 -0.0605 -0.3864
  159SOL    HW1  476   0.765   0.103   0.502  2.0691  1.5365 -1.3680
  159SOL    HW2  477   0.894   0.197   0.464  1.6943 -0.1331 -0.3899
  160SOL     OW  478   1.350   1.830   2.765  0.2950  0.5114 -0.1402
  160SOL    HW1  479   1.350   1.842   2.665  0.1640  1.2481 -1.4348
  160SOL    HW2  480   1.329   1.728   2.788 -0.0625 -0.2974  2.0232
  161SOL     OW  481   2.914   1.219   2.435 -0.3584  0.2593 -0.2765
  161SOL    HW1  482   2.834   1.184   2.478  0.2112  1.7984 -1.8035
  161SOL    HW2  483   2.930   1.307   2.486 -0.9477 -1.4202 -0.5701
  162SOL     OW  484   0.462   2.456   1.582  0.0330 -0.3666 -0.1090
  162SOL    HW1  485   0.442   2.407   1.497  1.5035  2.2629  1.8856
  162SOL    HW2  486   0.496   2.555   1.566  1.0659 -0.3156  1.0166
  163SOL     OW  487   2.392   0.412   2.301 -0.0071 -0.2595  0.5837
  163SOL    HW1  488   2.372   0.503   2.339 -1.8330 -0.6284 -0.3245
  163SOL    HW2  489   2.403   0.346   2.372  1.8854  1.1485 -2.6599
  164SOL     OW  490   2.538   1.212   0.453 -0.2674 -0.0376  0.2650
  164SOL    HW1  491   2.499   1.292   0.404 -2.5364  2.5719  1.1381
  164SOL    HW2  492   2.586   1.251   0.534  2.0285  1.3923 -0.1544
  165SOL     OW  493   0.191   0.180   1.516 -0.0501 -0.4454 -0.3176
  165SOL    HW1  494   0.125   0.155   1.588 -1.9413 -0.5730  2.0589
  165SOL    HW2  495   0.265   0.114   1.509 -0.3513 -1.9950 -1.1147
  166SOL     OW  496   2.140   1.187   0.607 -0.0534  0.4218 -0.7136
  166SOL    HW1  497   2.079   1.124   0.664  1.5534  0.6773 -1.6755
  166SOL    HW2  498   2.202   1.128   0.561 -0.5042  1.9790  2.1359
  167SOL     OW  499   0.220   0.697   0.416  0.7232 -0.0332 -0.1650
  167SOL    HW1  500   0.204   0.698   0.317  2.1535 -1.2612 -0.4783
  167SOL    HW2  501   0.237   0.787   0.457 -0.6280  1.0112 -3.4389
  168SOL     OW  502   1.757   2.772   2.272 -0.0575  0.1613 -0.4352
  168SOL    HW1  503   1.839   2.713   2.263  2.7061 -0.1427  3.1344
  168SOL    HW2  504   1.717   2.791   2.183 -1.7956  0.2122  2.3260
  169SOL     OW  505   0.676   1.223   0.885 -0.5030 -0.1332 -0.1082
  169SOL    HW1  506   0.621   1.188   0.804 -0.2627  3.3012 -1.0242
  169SOL    HW2  507   0.674   1.166   0.970  0.7728 -1.9967  2.5589
  170SOL     OW  508   3.048   0.533   1.363  0.4055  0.3257 -0.3476
  170SOL    HW1  509   3.063   0.475   1.278 -1.0332  0.4109 -1.9353
  170SOL    HW2  510   2.992   0.485   1.435 -0.1566 -1.9839 -0.2637
  171SOL     OW  511   1.188   2.469   2.578  0.3322  0.0747 -1.0432
  171SOL    HW1  512   1.210   2.369   2.557 -0.9844 -0.9565 -1.2163
  171SOL    HW2  513   1.137   2.508   2.502 -0.3014  1.2314 -2.0879
  172SOL     OW  514   0.143   2.817   1.309 -0.2738 -0.2210  0.1122
  172SOL    HW1  515   0.238   2.784   1.279  3.6332  1.1834 -0.6105
  172SOL    HW2  516   0.136   2.917   1.287  0.7752  0.5095 -0.5420
  173SOL     OW  517   1.442   0.756   2.738 -0.1974 -0.4732  0.0470
  173SOL    HW1  518   1.367   0.719   2.681  0.3762  4.0669 -1.7712
  173SOL    HW2  519   1.516   0.783   2.676 -0.8223  0.9343  0.7164
  174SOL     OW  520   1.884   0.082   2.822  0.3813 -0.3719  0.0555
  174SOL    HW1  521   1.868   0.125   2.733  1.7401 -2.2226 -0.1642
  174SOL    HW2  522   1.802   0.042   2.857  3.2509 -0.0701 -0.5840
  175SOL     OW  523   1.887   2.328   0.272 -0.1124 -0.0040  0.1171
  175SOL    HW1  524   1.864   2.231   0.281  0.0822  0.5271  1.3187
  175SOL    HW2  525   1.936   2.357   0.356  1.5346  1.3923  1.4220
  176SOL     OW  526   2.030   0.153   3.037  0.1102  0.6824  0.5455
  176SOL    HW1  527   2.110   0.089   3.046  0.7372  0.5034 -2.3337
  176SOL    HW2  528   1.967   0.124   2.959  1.9914 -4.8909  2.7544
  177SOL     OW  529   1.063   1.780   0.629  0.6171 -0.0141  0.3783
  177SOL    HW1  530   0.979   1.780   0.573  1.4397  0.6975 -1.2780
  177SOL    HW2  531   1.117   1.865   0.615  1.3253  1.7061 -3.2438
  178SOL     OW  532   2.706   2.227   2.986  0.4004  0.2142  0.0314
  178SOL    HW1  533   2.605   2.233   2.982 -1.2073  0.9600  0.4833
  178SOL    HW2  534   2.746   2.324   2.977  2.1240  1.5450 -1.2273
  179SOL     OW  535   0.387   2.908   2.890  0.8144  0.0837  0.3876
  179SOL    HW1  536   0.457   2.886   2.814  2.0800  0.5751  1.2070
  179SOL    HW2  537   0.326   2.984   2.856 -0.0143  1.8590 -0.1129
  180SOL     OW  538   1.403   1.048   0.893 -0.0516 -0.2391  0.5038
  180SOL    HW1  539   1.309   1.085   0.904  0.8032 -0.2172  0.3875
  180SOL    HW2  540   1.405   0.964   0.843 -0.5899  0.6058  0.1468
  181SOL     OW  541   1.957   0.938   2.277 -0.0447 -0.1273  0.2606
  181SOL    HW1  542   1.865   0.954   2.240 -0.0855  0.9997  0.6829
  181SOL    HW2  543   1.993   0.854   2.227  0.5134 -0.9016 -0.8554
  182SOL     OW  544   3.000   3.023   2.396 -0.6377 -0.2843 -0.1225
  182SOL    HW1  545   2.908   2.978   2.388 -0.1965  2.9010 -1.1976
  182SOL    HW2  546   3.072   2.979   2.336  1.8190 -1.0853  1.2770
  183SOL     OW  547   1.367   0.814   2.209 -0.0348 -0.2513 -0.0834
  183SOL    HW1  548   1.462   0.775   2.230  0.6366 -4.2044 -0.7793
  183SOL    HW2  549   1.306   0.742   2.172 -0.0451 -1.2864  0.6820
  184SOL     OW  550   0.522   1.162   1.535  0.3788  0.9594 -0.1688
  184SOL    HW1  551   0.548   1.234   1.466 -0.7729  0.1240  2.3003
  184SOL    HW2  552   0.420   1.164   1.557  0.4385 -2.7694 -0.1694
  185SOL     OW  553   1.974   0.667   0.256 -0.0908 -0.5060 -0.3540
  185SOL    HW1  554   1.872   0.672   0.254 -2.9764 -1.0147 -0.7818
  185SOL    HW2  555   2.005   0.755   0.295 -1.3942 -2.1936 -1.6356
  186SOL     OW  556   0.709   2.483   3.102  0.0478  0.0737 -0.1968
  186SOL    HW1  557   0.621   2.447   3.058  0.5418 -0.3819 -0.5340
  186SOL    HW2  558   0.733   2.574   3.061 -1.3328  1.5008 -0.4949
  187SOL     OW  559   2.496   1.102   3.057  0.1803  0.3019  0.4131
  187SOL    HW1  560   2.460   1.006   3.052  0.5676  1.5631  0.9068
  187SOL    HW2  561   2.530   1.130   0.032 -1.9752  0.6950 -0.9012
  188SOL     OW  562   3.072   1.544   0.884  0.2758  0.0989  0.2364
  188SOL    HW1  563   3.046   1.604   0.808 -1.9609 -0.4076  1.6007
  188SOL    HW2  564   3.061   1.593   0.971 -0.7470  0.2145 -2.2621
  189SOL     OW  565   2.708   0.248   0.362  0.1208 -0.4359  0.6067
  189SOL    HW1  566   2.779   0.181   0.390  0.1064 -1.2861 -1.4279
  189SOL    HW2  567   2.633   0.203   0.308 -2.5533 -1.1957  1.3657
  190SOL     OW  568   1.340   1.556   2.035  0.1329 -0.8701 -0.0804
  190SOL    HW1  569   1.253   1.561   2.095 -3.7225 -0.5627  1.5728
  190SOL    HW2  570   1.375   1.456   2.038 -0.1785 -1.8041  1.0712
  191SOL     OW  571   3.043   0.362   1.689  0.0505 -0.0004 -0.0520
  191SOL    HW1  572   2.993   0.364   1.599  0.5143 -0.4160  0.2172
  191SOL    HW2  573   2.981   0.398   1.761  0.2693  1.6908 -1.2456
  192SOL     OW  574   1.806   1.451   1.143  0.5541  0.3117 -0.1605
  192SOL    HW1  575   1.786   1.543   1.179 -0.8934 -1.7804  0.1253
  192SOL    HW2  576   1.833   1.457   1.044 -0.2939  1.3955  0.1319
  193SOL     OW  577   1.104   0.635   1.060  0.4727 -0.8357 -0.4658
  193SOL    HW1  578   1.067   0.565   1.123 -1.5884 -2.0271  0.8068
  193SOL    HW2  579   1.033   0.703   1.031 -0.2258  1.3941  0.2507
  194SOL     OW  580   1.149   2.356   1.589 -0.3014  0.8265 -0.6254
  194SOL    HW1  581   1.185   2.431   1.530 -0.5717  1.3380  1.1201
  194SOL    HW2  582   1.127   2.374   1.690  0.3578 -0.3228  2.6444
  195SOL     OW  583   2.378   0.352   2.746  0.1526  0.0121  0.1465
  195SOL    HW1  584   2.308   0.423   2.736  0.3289  0.6307  0.5304
  195SOL    HW2  585   2.386   0.311   2.840  0.7681  0.8703  0.1186
  196SOL     OW  586   1.102   2.387   1.854 -0.1022 -0.2765 -0.1385
  196SOL    HW1  587   1.087   2.488   1.866  1.4788  1.1580  0.3533
  196SOL    HW2  588   1.140   2.347   1.938 -3.0995 -2.8879  1.9580
  197SOL     OW  589   0.835   2.917   0.883  0.4267 -0.2726  0.1056
  197SOL    HW1  590   0.802   3.013   0.876 -3.1011 -2.8545 -2.2135
  197SOL    HW2  591   0.931   2.905   0.853 -0.3707  2.3225  0.6994
  198SOL     OW  592   1.071   0.876   0.682  0.1847 -0.1774  0.3111
  198SOL    HW1  593   0.996   0.861   0.747  0.5435 -0.6168 -1.6329
  198SOL    HW2  594   1.035   0.914   0.594 -1.2356 -0.0501 -1.2496
  199SOL     OW  595   0.088   2.875   1.948  0.1956  0.2722 -0.3425
  199SOL    HW1  596   3.105   2.875   1.925 -2.3219 -0.6881  3.8528
  199SOL    HW2  597   0.111   2.792   1.999  1.0130  1.3260 -1.9251
  200SOL     OW  598   2.013   1.972   2.197 -0.0598 -0.0003  0.1219
  200SOL    HW1  599   1.997   1.873   2.174  0.6993 -2.7796  1.5219
  200SOL    HW2  600   2.105   1.991   2.168 -4.6899 -0.7106  0.5927
  201SOL     OW  601   0.150   2.192   1.420 -0.3854  0.1114  0.0766
  201SOL    HW1  602   0.086   2.203   1.343 -0.0604 -1.9300  2.2389
  201SOL    HW2  603   0.143   2.260   1.491  2.3201 -0.8830 -2.9366
  202SOL     OW  604   2.582   3.109   0.535  0.4685  0.5439  0.0322
  202SOL    HW1  605   2.556   0.036   0.450  1.0827 -1.1012  0.7885
  202SOL    HW2  606   2.628   3.017   0.518  1.9173 -2.4990  1.3261
  203SOL     OW  607   1.272   2.298   2.077  0.0399  0.4226  0.2245
  203SOL    HW1  608   1.326   2.212   2.065  1.9452  0.0655  2.0580
  203SOL    HW2  609   1.302   2.361   2.151  1.4192 -0.0485  0.3925
  204SOL     OW  610   1.201   1.991   1.848  0.1623 -0.8545 -0.1073
  204SOL    HW1  611   1.259   2.074   1.842 -0.1341 -0.8317  0.6194
  204SOL    HW2  612   1.251   1.913   1.814 -0.9961  2.0771 -1.4163
  205SOL     OW  613   1.352   1.765   1.818 -0.3893 -0.0770 -0.2082
  205SOL    HW1  614   1.396   1.696   1.759 -0.9269 -0.7127  0.9549
  205SOL    HW2  615   1.306   1.717   1.895  0.8880  0.3400 -0.6415
  206SOL     OW  616   0.401   0.794   2.689 -0.4785  0.3534  0.9445
  206SOL    HW1  617   0.476   0.733   2.653 -3.2577  0.9300 -2.3413
  206SOL    HW2  618   0.341   0.832   2.616 -0.3030  0.3485  0.8272
  207SOL     OW  619   0.895   0.160   1.846  0.1210  0.5192 -0.3182
  207SOL    HW1  620   0.821   0.213   1.803 -0.8576  1.0358 -0.9444
  207SOL    HW2  621   0.983   0.215   1.833  1.5280  1.6341 -3.5046
  208SOL     OW  622   0.745   2.594   1.745 -0.1588  0.0553 -0.2639
  208SOL    HW1  623   0.818   2.662   1.737 -0.3380  0.1892  1.5907
  208SOL    HW2  624   0.728   2.554   1.652 -0.3432 -0.8374  0.9503
  209SOL     OW  625   1.242   0.675   0.007 -1.0623  0.1586 -0.5186
  209SOL    HW1  626   1.325   0.709   3.071  0.0389 -1.2729 -0.0868
  209SOL    HW2  627   1.226   0.580   3.089 -1.4155 -1.5351 -0.8510
  210SOL     OW  628   0.064   0.419   0.722 -0.5764  0.0300  0.2127
  210SOL    HW1  629   3.080   0.442   0.718  0.2330 -0.1272  0.0435
  210SOL    HW2  630   0.113   0.420   0.635 -1.7888  1.5750  1.9108
  211SOL     OW  631   0.504   0.609   1.319  0.0876  0.1417 -0.0427
  211SOL    HW1  632   0.521   0.512   1.338 -1.1335  3.9928 -1.8591
  211SOL    HW2  633   0.425   0.646   1.375 -2.3038  0.3436 -1.1791
  212SOL     OW  634   1.247   1.654   1.253  0.0186 -0.2522 -0.2066
  212SOL    HW1  635   1.159   1.649   1.196 -2.0450 -2.4781 -0.4100
  212SOL    HW2  636   1.246   1.587   1.333 -1.4959  0.5320  2.2269
  213SOL     OW  637   1.926   3.113   1.685 -0.4886  0.2752 -0.0081
  213SOL    HW1  638   2.012   0.037   1.657 -0.8341 -0.0937  0.0385
  213SOL    HW2  639   1.938   3.013   1.677 -0.6263  1.5767 -0.9044
  214SOL     OW  640   0.860   2.356   2.442 -0.0394 -0.1047  0.4234
  214SOL    HW1  641   0.919   2.436   2.428 -1.8896  1.1690 -0.6221
  214SOL    HW2  642   0.817   2.326   2.355  0.3635  0.2253  1.6111
  215SOL     OW  643   2.548   1.651   1.126  0.3162  0.2253  0.3285
  215SOL    HW1  644   2.593   1.705   1.200 -1.3089  0.0211 -0.0192
  215SOL    HW2  645   2.546   1.705   1.037 -3.0184 -1.8036 -1.3656
  216SOL     OW  646   0.326   0.903   1.996 -0.4114  0.2205  0.7160
  216SOL    HW1  647   0.275   0.859   1.919  1.7288 -1.4636 -0.9278
  216SOL    HW2  648   0.296   0.995   2.024  0.2953 -3.6530 -0.8091
  217SOL     OW  649   3.032   0.118   0.159  0.1835 -0.3011 -0.3964
  217SOL    HW1  650   3.047   0.211   0.126 -1.7737  0.1609 -1.0852
  217SOL    HW2  651   3.079   0.104   0.249  0.2484  0.1951 -0.8932
  218SOL     OW  652   1.644   1.855   1.351 -0.6911 -0.0738  0.1540
  218SOL    HW1  653   1.591   1.790   1.413 -2.0458 -0.9723  0.5736
  218SOL    HW2  654   1.699   1.805   1.278  1.1640 -0.8433 -0.1355
  219SOL     OW  655   1.638   0.335   0.032 -0.0476 -0.9387  0.3196
  219SOL    HW1  656   1.638   0.283   3.062  0.1472 -2.3184 -0.1009
  219SOL    HW2  657   1.594   0.292   0.115 -0.7691 -0.9789 -0.0083
  220SOL     OW  658   1.607   1.959   1.011  0.0437 -0.1776 -0.3937
  220SOL    HW1  659   1.679   2.026   1.036 -2.0148 -1.2923  0.7771
  220SOL    HW2  660   1.513   1.998   1.029 -0.4175 -1.5947  0.7360
  221SOL     OW  661   0.067   0.479   0.233  0.4650 -0.0861  0.1574
  221SOL    HW1  662   0.112   0.553   0.178 -0.8623 -1.5377  1.7245
  221SOL    HW2  663   0.009   0.428   0.165 -1.5544  1.9977  0.8818
  222SOL     OW  664   0.813   2.717   1.459  0.3787  0.0341 -0.7501
  222SOL    HW1  665   0.741   2.785   1.432  1.6716  1.9162 -0.7360
  222SOL    HW2  666   0.794   2.621   1.428  1.9940  1.1766 -0.5448
  223SOL     OW  667   1.177   0.450   2.993  0.0755  0.3556 -0.2096
  223SOL    HW1  668   1.239   0.444   2.916  1.0636 -0.1408 -0.3556
  223SOL    HW2  669   1.081   0.467   2.963  1.4947  0.9610 -0.9983
  224SOL     OW  670   2.697   0.463   1.296  0.5639  0.2900 -0.1685
  224SOL    HW1  671   2.656   0.549   1.340  1.1714  2.7079  2.1132
  224SOL    HW2  672   2.653   0.454   1.208 -0.6419 -1.1196  2.2882
  225SOL     OW  673   0.709   1.091   1.709  0.2385  0.3192  0.4443
  225SOL    HW1  674   0.778   1.151   1.667  0.9482 -1.9396  1.7327
  225SOL    HW2  675   0.616   1.097   1.664 -0.7295 -1.6228  2.0038
  226SOL     OW  676   1.062   3.069   0.635 -0.7482  0.0266 -0.2137
  226SOL    HW1  677   0.959   3.065   0.623 -0.8234 -0.3502 -0.7156
  226SOL    HW2  678   1.105   3.080   0.540  1.0958 -0.4855  0.5481
  227SOL     OW  679   1.006   1.755   1.878 -0.3734 -0.1857  0.4634
  227SOL    HW1  680   0.992   1.745   1.778 -0.3986  1.3314  1.9744
  227SOL    HW2  681   1.035   1.850   1.898 -0.8948 -1.6889 -0.5559
  228SOL     OW  682   0.566   3.025   1.835 -0.2566  0.6042  0.0877
  228SOL    HW1  683   0.552   0.009   1.860  2.2812 -0.4175 -2.5075
  228SOL    HW2  684   0.504   2.959   1.880  0.3580  1.9332  0.3775
  229SOL     OW  685   2.672   0.667   0.337  0.0264 -0.1814 -0.0232
  229SOL    HW1  686   2.678   0.746   0.271  1.1349 -1.5396  0.4071
  229SOL    HW2  687   2.766   0.648   0.376 -0.1897  3.5202  1.6000
  230SOL     OW  688   0.018   1.774   1.933 -0.5108 -0.2630  0.4155
  230SOL    HW1  689   0.089   1.828   1.886 -0.3886  1.6092  4.0731
  230SOL    HW2  690   0.032   1.674   1.915  1.8349  0.5363  0.2167
  231SOL     OW  691   0.981   3.046   1.236 -0.3162  0.2088 -0.0595
  231SOL    HW1  692   0.888   3.011   1.220  0.3593 -1.6866  0.8563
  231SOL    HW2  693   1.035   2.979   1.292  0.6484  0.2714 -2.6645
  232SOL     OW  694   2.411   2.547   0.040 -0.4658  0.5210  0.2775
  232SOL    HW1  695   2.340   2.597   3.101  1.9478 -1.2857 -0.6831
  232SOL    HW2  696   2.398   2.449   0.033 -1.1575 -1.4477 -1.0772
  233SOL     OW  697   1.223   2.875   3.079  0.2898 -0.0523  0.9088
  233SOL    HW1  698   1.197   2.952   0.027  1.7978  1.2441  1.8557
  233SOL    HW2  699   1.141   2.820   3.054 -0.6581 -3.1396  0.5664
  234SOL     OW  700   0.690   0.926   2.199  0.5065  0.1160 -0.2094
  234SOL    HW1  701   0.749   0.932   2.278  0.1009 -3.2019  0.0334
  234SOL    HW2  702   0.721   0.979   2.114 -0.4225 -1.2749 -4.1854
  235SOL     OW  703   0.049   2.382   0.134 -0.2777 -0.2590  0.4998
  235SOL    HW1  704   0.070   2.461   0.070  1.3820  1.8770 -0.4661
  235SOL    HW2  705   3.077   2.328   0.105 -2.5443 -2.4867 -0.8282
  236SOL     OW  706   1.947   2.521   2.622  0.3074 -0.3786  0.3314
  236SOL    HW1  707   1.996   2.450   2.675 -1.9331 -1.1883  2.2247
  236SOL    HW2  708   1.847   2.488   2.604 -3.3102 -0.1992  0.0353
  237SOL     OW  709   2.173   1.118   1.324 -0.0369 -0.0110  0.0478
  237SOL    HW1  710   2.093   1.061   1.354 -0.1568  0.0077  1.5811
  237SOL    HW2  711   2.252   1.109   1.390 -0.1273  0.3982  0.6653
  238SOL     OW  712   1.534   3.108   2.194  0.7344  0.0784 -0.1587
  238SOL    HW1  713   1.610   3.103   2.260 -0.3683  1.2111 -1.2942
  238SOL    HW2  714   1.573   0.002   2.100 -0.7851  0.4688  2.1056
  239SOL     OW  715   1.008   1.933   2.181  0.4589 -0.3692 -0.1148
  239SOL    HW1  716   0.938   1.942   2.253  0.5429 -0.6933 -0.5434
  239SOL    HW2  717   0.966   1.942   2.087  0.0748  0.7890 -1.1208
  240SOL     OW  718   2.950   2.913   0.574 -0.4719  0.3614  0.7120
  240SOL    HW1  719   3.028   2.901   0.509  1.8672  0.4532 -0.1136
  240SOL    HW2  720   2.966   2.990   0.638 -1.6393 -3.9147 -0.4715
  241SOL     OW  721   1.538   2.178   3.053  0.7936  0.5844 -0.9293
  241SOL    HW1  722   1.569   2.248   0.002  1.3689  3.2963  0.2997
  241SOL    HW2  723   1.592   2.092   3.077 -0.8051  0.6289 -0.3777
  242SOL     OW  724   2.178   0.999   0.080 -0.8233  0.1373 -0.2909
  242SOL    HW1  725   2.184   0.936   0.163  0.2196 -2.0752  2.4403
  242SOL    HW2  726   2.212   0.961   3.109 -2.2818 -1.4556  1.9141
  243SOL     OW  727   0.588   0.449   2.252  0.3648 -0.0301  0.1779
  243SOL    HW1  728   0.558   0.519   2.181  0.0315 -1.3378 -2.7129
  243SOL    HW2  729   0.691   0.435   2.250  2.5221 -0.8096 -0.4896
  244SOL     OW  730   1.589   2.472   2.896 -0.7968 -0.3595 -0.1964
  244SOL    HW1  731   1.545   2.495   2.807 -0.8697  1.5421 -1.4052
  244SOL    HW2  732   1.654   2.547   2.930  4.2047  1.5854 -0.1026
  245SOL     OW  733   1.662   3.062   2.898  0.4103  0.0943 -0.1292
  245SOL    HW1  734   1.566   3.077   2.867 -0.4668 -1.0520 -1.1473
  245SOL    HW2  735   1.657   3.016   2.984  3.4544  0.1531 -2.1937
  246SOL     OW  736   1.362   1.110   2.539  0.1737 -0.3279 -0.3742
  246SOL    HW1  737   1.456   1.118   2.496  0.9910 -0.3538 -0.3510
  246SOL    HW2  738   1.324   1.203   2.555 -0.4305  2.1804 -1.0297
  247SOL     OW  739   2.988   0.592   2.443  0.0663  0.2590 -0.5192
  247SOL    HW1  740   3.055   0.636   2.377  0.9305 -0.8184  0.2928
  247SOL    HW2  741   3.005   0.492   2.434 -1.9521  0.7535  1.0842
  248SOL     OW  742   0.094   1.519   1.891 -0.5282 -0.1550 -0.2869
  248SOL    HW1  743   0.137   1.475   1.806  1.3459 -2.3724 -1.4550
  248SOL    HW2  744   0.154   1.497   1.974 -0.0098 -1.4887 -0.5872
  249SOL     OW  745   2.803   0.443   0.170  0.6322 -0.1558  0.0131
  249SOL    HW1  746   2.753   0.393   0.245 -0.2914  2.2729  0.3246
  249SOL    HW2  747   2.754   0.524   0.143  0.7669 -0.4109  0.1681
  250SOL     OW  748   2.974   0.197   0.577 -0.2466  0.1705 -0.1013
  250SOL    HW1  749   2.908   0.273   0.591  1.0077 -2.8167  0.9474
  250SOL    HW2  750   2.975   0.125   0.653 -0.9866  1.7081  1.1910
  251SOL     OW  751   0.733   1.297   2.199  0.9158  0.0337 -0.7069
  251SOL    HW1  752   0.762   1.263   2.294 -1.0743  0.2507  1.4048
  251SOL    HW2  753   0.754   1.235   2.120  0.8000  2.1817 -0.9012
  252SOL     OW  754   1.860   1.853   1.612 -0.3793  0.2622  0.0231
  252SOL    HW1  755   1.911   1.882   1.528 -1.1051  2.2450  0.1518
  252SOL    HW2  756   1.816   1.762   1.594  0.7446 -1.9966 -1.8995
  253SOL     OW  757   1.858   2.233   1.760  0.0536  0.3853 -0.2025
  253SOL    HW1  758   1.834   2.206   1.856 -0.4491 -0.3209 -2.0345
  253SOL    HW2  759   1.784   2.284   1.712 -1.5615 -0.1738  0.6489
  254SOL     OW  760   0.738   2.281   2.209 -0.5575 -0.0503 -0.0270
  254SOL    HW1  761   0.693   2.188   2.199 -0.1921 -0.3703  1.6799
  254SOL    HW2  762   0.789   2.316   2.127  1.8718  2.9372  2.5073
  255SOL     OW  763   1.345   0.582   0.618  0.3197 -0.7144 -0.2600
  255SOL    HW1  764   1.264   0.621   0.567 -1.9413 -0.9502  1.7402
  255SOL    HW2  765   1.314   0.488   0.651 -2.0418  1.1614  0.5011
  256SOL     OW  766   1.780   2.154   1.044  0.0326  0.0407  0.1647
  256SOL    HW1  767   1.873   2.167   1.091 -0.3153 -0.8597 -0.4629
  256SOL    HW2  768   1.783   2.200   0.955  1.4870 -1.4656  0.5273
  257SOL     OW  769   0.347   2.306   2.628  0.4436  0.5744  0.2407
  257SOL    HW1  770   0.371   2.206   2.624  1.9809 -2.5193  2.0482
  257SOL    HW2  771   0.287   2.323   2.707  2.5981  0.2003 -2.4240
  258SOL     OW  772   0.330   1.230   2.507 -0.5765  0.2216  0.4079
  258SOL    HW1  773   0.408   1.258   2.569  1.1648 -1.6669  2.0113
  258SOL    HW2  774   0.248   1.291   2.511 -1.1677  0.6927  0.7258
  259SOL     OW  775   1.221   0.912   2.388  0.0827 -0.6401 -0.0706
  259SOL    HW1  776   1.272   0.967   2.458 -2.1110  0.9416  0.1338
  259SOL    HW2  777   1.287   0.872   2.318 -1.8544 -0.4437 -0.8214
  260SOL     OW  778   2.265   0.729   0.807 -0.3852  0.0837 -0.8715
  260SOL    HW1  779   2.238   0.680   0.893  0.3475  0.1118  2.9798
  260SOL    HW2  780   2.189   0.787   0.766 -3.7758  0.3447 -0.9585
  261SOL     OW  781   0.766   0.429   0.225  0.2760  0.1222  0.3356
  261SOL    HW1  782   0.681   0.408   0.275  2.1804 -0.6403 -0.9956
  261SOL    HW2  783   0.791   0.525   0.233  2.8290 -2.4871  1.3292
  262SOL     OW  784   1.954   2.803   2.618 -0.2394 -0.6786  0.1596
  262SOL    HW1  785   1.956   2.699   2.615 -1.1888  0.8876 -0.6133
  262SOL    HW2  786   2.021   2.842   2.552  0.3396 -0.8994  2.1086
  263SOL     OW  787   0.772   1.628   3.040  0.3321 -0.0902  0.1583
  263SOL    HW1  788   0.870   1.605   3.042  0.5419 -0.8385  0.0876
  263SOL    HW2  789   0.741   1.670   2.951 -1.6083  0.8226 -0.7355
  264SOL     OW  790   0.393   1.597   1.808  0.4633 -0.2878 -0.1700
  264SOL    HW1  791   0.493   1.585   1.828  4.2069 -1.3024  3.0966
  264SOL    HW2  792   0.337   1.619   1.892  2.1736 -0.9388 -1.1300
  265SOL     OW  793   0.973   0.993   0.477  0.0187  0.0941  0.0530
  265SOL    HW1  794   0.942   1.086   0.506  1.8971 -0.2868  1.0099
  265SOL    HW2  795   0.988   0.986   0.376 -3.3561  0.1426 -1.3859
  266SOL     OW  796   1.732   1.723   0.178 -0.3608  0.5581 -0.1040
  266SOL    HW1  797   1.819   1.672   0.193  0.0117  0.7288  0.8495
  266SOL    HW2  798   1.671   1.716   0.259  1.3808  0.5353  0.1970
  267SOL     OW  799   2.641   0.214   2.932 -0.1809 -0.6956  0.6200
  267SOL    HW1  800   2.695   0.152   2.995 -1.6044  0.3024 -1.0889
  267SOL    HW2  801   2.707   0.271   2.878 -0.0237 -1.5249  1.0026
  268SOL     OW  802   0.648   0.698   2.896  0.6143 -0.1717 -0.1873
  268SOL    HW1  803   0.637   0.618   2.832  1.6101 -0.3862 -2.6736
  268SOL    HW2  804   0.729   0.685   2.955 -2.2885 -1.0853  0.7959
  269SOL     OW  805   1.725   0.427   2.562  0.2118  0.3325 -0.3265
  269SOL    HW1  806   1.630   0.453   2.540 -1.2735  0.0005 -1.4618
  269SOL    HW2  807   1.779   0.510   2.575  1.3565  1.0746  1.9773
  270SOL     OW  808   0.972   0.953   2.507  0.2636 -0.3086 -0.2777
  270SOL    HW1  809   1.069   0.943   2.471 -0.0428  0.8964  0.3457
  270SOL    HW2  810   0.958   0.937   2.610  1.0822 -0.7348  0.9623
  271SOL     OW  811   2.753   0.798   2.992  0.5163 -0.2316 -0.9118
  271SOL    HW1  812   2.819   0.866   2.953  1.9228  0.1680  1.3821
  271SOL    HW2  813   2.718   0.731   2.922  0.8117 -1.4762  0.0312
  272SOL     OW  814   2.558   1.748   2.797  0.4885  0.6096  0.4100
  272SOL    HW1  815   2.577   1.807   2.717  0.8637 -0.9632  0.6620
  272SOL    HW2  816   2.543   1.651   2.764 -0.8796  1.9194 -0.5902
  273SOL     OW  817   0.155   0.388   2.642 -0.0994 -0.0882 -0.1927
  273SOL    HW1  818   0.100   0.322   2.587 -0.2971  1.8350  0.1896
  273SOL    HW2  819   0.239   0.420   2.592  0.7160  0.6070  1.6579
  274SOL     OW  820   2.945   3.088   1.389 -0.0962  0.0390 -0.1919
  274SOL    HW1  821   2.882   3.068   1.307 -0.0242  0.5692 -2.8526
  274SOL    HW2  822   3.022   0.040   1.366  2.8383 -0.1432 -0.0256
  275SOL     OW  823   2.077   1.453   0.502  0.0081 -0.2960 -0.0192
  275SOL    HW1  824   2.124   1.380   0.557  0.8069 -0.0309 -0.5857
  275SOL    HW2  825   1.980   1.443   0.519  0.0331 -0.4324  0.5633
  276SOL     OW  826   0.273   1.298   2.784 -0.1402 -0.0793  0.2959
  276SOL    HW1  827   0.210   1.224   2.760 -0.7705 -0.7190  1.3299
  276SOL    HW2  828   0.291   1.368   2.716 -2.0146 -1.1048  0.1379
  277SOL     OW  829   1.952   2.597   1.959  0.4268  0.7644  0.2648
  277SOL    HW1  830   2.027   2.662   1.978 -0.5725  1.1392  1.8134
  277SOL    HW2  831   1.931   2.526   2.028 -0.6424 -1.5262 -0.6586
  278SOL     OW  832   2.028   0.209   1.372 -0.0682  0.1209  0.1518
  278SOL    HW1  833   2.064   0.167   1.456  0.8305 -0.3614 -1.1084
  278SOL    HW2  834   1.988   0.136   1.310  1.7990 -0.4596  0.7369
  279SOL     OW  835   1.482   1.207   2.976 -0.4287 -0.2932  0.3762
  279SOL    HW1  836   1.436   1.139   2.912 -2.7493  2.2336  0.7647
  279SOL    HW2  837   1.485   1.173   3.072 -2.5659  2.2567 -1.7043
  280SOL     OW  838   0.688   1.690   1.040  0.2342 -0.4912 -1.0058
  280SOL    HW1  839   0.712   1.779   0.996 -0.3299  0.2208 -2.3529
  280SOL    HW2  840   0.679   1.707   1.141 -1.2417  0.4534 -0.1972
  281SOL     OW  841   0.258   0.210   2.201  0.0890  0.1382 -0.0195
  281SOL    HW1  842   0.355   0.236   2.184 -1.0253 -0.6954  1.0440
  281SOL    HW2  843   0.221   0.144   2.133 -1.6875  0.1438 -1.6786
  282SOL     OW  844   3.093   0.988   1.609  0.2096  0.2345  0.0665
  282SOL    HW1  845   3.042   1.053   1.543 -1.6286  0.6247 -0.1108
  282SOL    HW2  846   0.027   0.923   1.551 -0.2379 -1.1024  0.8259
  283SOL     OW  847   1.513   2.268   2.452  0.2771  0.0884 -0.0954
  283SOL    HW1  848   1.586   2.200   2.475  2.1160  0.5379 -0.3698
  283SOL    HW2  849   1.423   2.237   2.496 -0.4196 -0.8303 -1.1966
  284SOL     OW  850   1.794   1.020   0.126  0.5252 -0.9265  0.4510
  284SOL    HW1  851   1.853   1.030   0.209 -1.2884  1.1357 -0.0256
  284SOL    HW2  852   1.848   1.043   0.041  1.3024 -0.0596 -0.3653
  285SOL     OW  853   3.085   2.939   2.856 -0.0256 -0.5175 -0.0670
  285SOL    HW1  854   0.028   2.879   2.799  0.5961 -0.0950  0.5533
  285SOL    HW2  855   0.025   2.976   2.935 -2.1322 -0.4936  2.1796
  286SOL     OW  856   1.997   2.582   1.230  0.1597 -0.5405  0.4943
  286SOL    HW1  857   2.019   2.542   1.320  0.8872  0.9598  0.3690
  286SOL    HW2  858   1.990   2.686   1.242 -0.0496  2.0693 -1.1631
  287SOL     OW  859   0.667   0.811   1.222 -0.5008  0.7481  0.0810
  287SOL    HW1  860   0.612   0.729   1.247  0.2323  0.0529  0.9093
  287SOL    HW2  861   0.676   0.867   1.310  0.4487 -0.0017  1.6935
  288SOL     OW  862   1.428   2.709   0.013  0.0540  0.8916  0.2041
  288SOL    HW1  863   1.416   2.612   3.086  0.9088 -3.9590 -2.0725
  288SOL    HW2  864   1.341   2.766   3.108 -1.2639  0.2646 -1.7207
  289SOL     OW  865   3.085   1.964   3.088  0.8131  0.0590  0.3280
  289SOL    HW1  866   0.010   1.943   2.993  2.5392  0.9710 -3.3680
  289SOL    HW2  867   2.991   1.995   3.078  3.9278  0.1237  0.6601
  290SOL     OW  868   1.108   2.616   0.729  0.0948 -0.0180  0.5780
  290SOL    HW1  869   1.071   2.552   0.653 -2.7576 -0.3769 -3.2951
  290SOL    HW2  870   1.080   2.578   0.819  1.2255 -0.3284 -0.2242
  291SOL     OW  871   2.250   2.013   0.217  0.7050 -0.3583  0.5068
  291SOL    HW1  872   2.283   2.097   0.167  2.5874 -0.0394 -2.7846
  291SOL    HW2  873   2.180   1.959   0.164  0.3450  0.0891  3.5292
  292SOL     OW  874   0.762   1.099   1.985  0.1012 -0.2260  0.2297
  292SOL    HW1  875   0.857   1.089   2.021 -2.0367  0.7253 -0.3216
  292SOL    HW2  876   0.759   1.125   1.891  1.4869  0.4933  2.4027
  293SOL     OW  877   2.150   2.748   0.922  0.2148  0.2054  0.5920
  293SOL    HW1  878   2.251   2.747   0.937 -0.0724 -0.2264 -0.0439
  293SOL    HW2  879   2.114   2.653   0.931  0.5800  2.8046 -1.0522
  294SOL     OW  880   0.073   0.733   2.347  0.4567 -0.0789 -0.1759
  294SOL    HW1  881   0.139   0.814   2.354  1.1954  2.0093 -0.6504
  294SOL    HW2  882   0.112   0.664   2.281  2.4217  0.5771 -1.0139
  295SOL     OW  883   0.832   1.861   0.499 -0.0205 -0.5202 -0.2907
  295SOL    HW1  884   0.771   1.895   0.571  1.3082  0.4186 -1.1842
  295SOL    HW2  885   0.861   1.931   0.430  2.4235 -1.5076 -0.3533
  296SOL     OW  886   2.060   1.823   2.613  0.3831  0.6925  0.0960
  296SOL    HW1  887   2.119   1.802   2.535  0.6579 -1.8754  0.6824
  296SOL    HW2  888   2.102   1.784   2.698 -0.2853  1.1377 -0.7963
  297SOL     OW  889   3.058   0.343   2.873 -0.3538  0.2055 -0.2845
  297SOL    HW1  890   3.109   0.408   2.814 -1.5823 -2.1261  2.4577
  297SOL    HW2  891   3.001   0.280   2.817 -1.0433  1.2066  0.7212
  298SOL     OW  892   0.680   2.079   3.022 -0.1498 -0.3170 -0.1558
  298SOL    HW1  893   0.722   2.008   3.080  1.1265  1.8899  1.0027
  298SOL    HW2  894   0.714   2.170   3.061 -0.2747 -2.3275  1.3532
  299SOL     OW  895   1.343   2.913   2.639 -0.2865  0.0444  0.0997
  299SOL    HW1  896   1.318   2.985   2.569  1.7325  1.5607 -0.3436
  299SOL    HW2  897   1.396   2.941   2.720  1.0274 -0.9385  2.0043
  300SOL     OW  898   2.716   0.365   0.600  0.8474  0.3320 -0.5557
  300SOL    HW1  899   2.647   0.439   0.605 -2.9660  1.7200  1.3008
  300SOL    HW2  900   2.704   0.314   0.512 -0.9496  1.9771  1.9363
  301SOL     OW  901   1.058   0.905   1.791 -0.0770 -0.1902  0.2593
  301SOL    HW1  902   0.981   0.835   1.809 -2.1015  0.1725 -0.5222
  301SOL    HW2  903   1.062   0.934   1.693 -0.1978 -0.3254 -4.4008
  302SOL     OW  904   0.030   2.560   2.823  0.2891  0.2827 -0.6083
  302SOL    HW1  905   0.092   2.480   2.807  0.1191 -1.0373  0.0091
  302SOL    HW2  906   0.078   2.644   2.784  0.4702  4.1370 -2.0414
  303SOL     OW  907   0.080   0.242   2.420  0.1548  0.1336  0.4706
  303SOL    HW1  908   0.153   0.265   2.352 -1.5873  0.2968 -3.0748
  303SOL    HW2  909   3.100   0.221   2.385 -1.0395  0.4541 -1.1540
  304SOL     OW  910   2.871   0.326   1.493 -0.1221 -0.1021  0.1579
  304SOL    HW1  911   2.828   0.237   1.517  0.5432 -0.0978 -0.2960
  304SOL    HW2  912   2.802   0.382   1.438 -2.0311  0.2822  0.2796
  305SOL     OW  913   0.376   3.034   2.237 -0.3435 -0.2634  0.1622
  305SOL    HW1  914   0.477   3.018   2.249  3.0848 -2.0107 -1.1723
  305SOL    HW2  915   0.362   0.017   2.219 -2.2316  1.5655 -2.4638
  306SOL     OW  916   2.598   0.993   1.480  0.0689  0.5452 -0.1220
  306SOL    HW1  917   2.606   1.022   1.576 -2.3196 -1.4737 -0.1269
  306SOL    HW2  918   2.680   0.936   1.461 -1.5023  1.1387  1.7007
  307SOL     OW  919   1.551   0.631   1.191  0.4303 -0.1391 -0.3508
  307SOL    HW1  920   1.494   0.599   1.269 -2.6746 -1.6862  2.0645
  307SOL    HW2  921   1.489   0.644   1.111 -0.1015 -1.8271 -0.8155
  308SOL     OW  922   2.959   2.118   1.293  0.4996 -0.8056 -0.0376
  308SOL    HW1  923   2.892   2.147   1.366  0.0158  1.1752 -2.6836
  308SOL    HW2  924   2.965   2.196   1.232 -2.0748  0.5285  4.2854
  309SOL     OW  925   2.395   1.809   1.447 -0.4131  0.2369 -0.3796
  309SOL    HW1  926   2.441   1.900   1.448  2.3383 -0.3973  1.7495
  309SOL    HW2  927   2.468   1.740   1.458  0.1076  0.9410 -1.0822
  310SOL     OW  928   2.678   1.628   0.291 -0.0586 -0.2758 -0.2220
  310SOL    HW1  929   2.660   1.542   0.248  0.9223 -0.8115 -0.7388
  310SOL    HW2  930   2.599   1.692   0.293 -0.4187  0.9061  0.8586
  311SOL     OW  931   2.435   2.049   2.992 -0.1322 -0.8440  0.8122
  311SOL    HW1  932   2.455   2.065   2.891  0.2852  0.2751 -0.5293
  311SOL    HW2  933   2.377   1.963   3.007 -1.1478 -0.6086 -1.0972
  312SOL     OW  934   2.578   1.817   0.878 -0.3818 -0.2565 -0.8049
  312SOL    HW1  935   2.641   1.889   0.910 -2.0633  0.9611  1.3483
  312SOL    HW2  936   2.593   1.775   0.790  2.6811  1.1556 -2.5749
  313SOL     OW  937   2.697   2.361   1.282 -0.4510 -0.1229 -0.0302
  313SOL    HW1  938   2.748   2.320   1.362  2.2764 -2.9856 -0.9567
  313SOL    HW2  939   2.730   2.456   1.263  0.4805 -0.5125 -1.4429
  314SOL     OW  940   1.087   2.087   0.886 -0.0325  0.1690  1.0443
  314SOL    HW1  941   1.051   2.176   0.925 -0.6215  2.0812  1.1506
  314SOL    HW2  942   1.064   2.088   0.783  3.2699  1.9576 -0.6920
  315SOL     OW  943   0.543   2.795   2.702  0.4148 -0.2879 -0.1994
  315SOL    HW1  944   0.559   2.844   2.612  0.7479 -0.1227 -0.7107
  315SOL    HW2  945   0.530   2.696   2.688 -1.0383  0.5582 -0.1774
  316SOL     OW  946   0.084   0.818   0.718  0.0162  0.4096 -0.0685
  316SOL    HW1  947   0.095   0.907   0.667 -1.3970 -1.0463 -1.4089
  316SOL    HW2  948   0.017   0.763   0.667  2.8429  3.1907  0.6106
  317SOL     OW  949   1.832   0.454   0.839  0.0403 -0.0703 -0.2882
  317SOL    HW1  950   1.808   0.535   0.783  0.0905 -0.0162  0.5407
  317SOL    HW2  951   1.830   0.367   0.788 -1.1646  3.6868  1.6051
  318SOL     OW  952   0.073   2.626   0.323  0.0536 -0.2720  0.6437
  318SOL    HW1  953   0.080   2.662   0.224  0.8596  0.2378  0.4153
  318SOL    HW2  954   3.101   2.580   0.332  1.9400  0.4433 -1.1924
  319SOL     OW  955   0.580   1.642   0.112 -0.0736  0.2820 -0.0643
  319SOL    HW1  956   0.643   1.639   0.029  1.8011 -1.7266 -2.9310
  319SOL    HW2  957   0.505   1.710   0.097  2.3401  1.8395  0.6218
  320SOL     OW  958   0.745   2.759   2.296 -0.6316  0.3631 -0.5125
  320SOL    HW1  959   0.832   2.768   2.349  0.1989  0.2499  1.9774
  320SOL    HW2  960   0.676   2.702   2.348  2.5192 -0.9588  1.3540
  321SOL     OW  961   1.381   3.066   2.911 -0.3943 -0.2535  0.1000
  321SOL    HW1  962   1.347   2.989   2.971  1.2726  0.7561  2.2008
  321SOL    HW2  963   1.298   0.011   2.903  0.6340 -0.0114  0.6363
  322SOL     OW  964   2.475   1.478   1.876  0.6151  0.2417  0.2992
  322SOL    HW1  965   2.570   1.489   1.893 -2.3619  2.6549 -1.0445
  322SOL    HW2  966   2.439   1.389   1.905 -0.6353  2.8917 -1.5783
  323SOL     OW  967   2.533   0.551   0.533  0.3092 -0.5600 -0.0377
  323SOL    HW1  968   2.442   0.526   0.491  1.1007  1.1893  2.1552
  323SOL    HW2  969   2.578   0.614   0.467  0.2651 -1.1585  1.4448
  324SOL     OW  970   0.218   0.002   2.787  0.2382 -0.1188  0.2705
  324SOL    HW1  971   0.200   0.072   2.865  0.5290  2.7358  2.3755
  324SOL    HW2  972   0.130   3.100   2.742  2.6006  0.8430  0.0912
  325SOL     OW  973   1.521   0.295   2.030  0.8594 -0.4529 -0.0204
  325SOL    HW1  974   1.596   0.229   2.036 -0.2792  0.4396 -2.1234
  325SOL    HW2  975   1.433   0.251   2.063 -1.1646 -0.6708 -1.5043
  326SOL     OW  976   2.557   2.750   1.187  0.2550  0.7213  0.0371
  326SOL    HW1  977   2.530   2.840   1.223  0.1811 -0.3037 -2.0787
  326SOL    HW2  978   2.522   2.736   1.092 -0.3161 -1.9267 -0.2862
  327SOL     OW  979   1.479   0.417   2.883  0.6513  0.2418  0.6144
  327SOL    HW1  980   1.486   0.472   2.964  0.9265  0.4565 -3.5908
  327SOL    HW2  981   1.571   0.400   2.855 -0.8151  0.1948 -1.7366
  328SOL     OW  982   2.598   1.285   2.412  0.2263  0.1700  0.6269
  328SOL    HW1  983   2.531   1.328   2.343 -0.2164  0.1109 -1.9748
  328SOL    HW2  984   2.681   1.342   2.419 -2.1835 -1.5534  0.9974
  329SOL     OW  985   1.841   2.604   1.673 -0.1233 -0.6071  0.4745
  329SOL    HW1  986   1.856   2.629   1.769 -3.6938 -0.6902 -1.5119
  329SOL    HW2  987   1.758   2.544   1.674 -0.6374  1.5830  0.6337
  330SOL     OW  988   2.612   1.760   1.652  0.0469  0.2488 -0.1689
  330SOL    HW1  989   2.532   1.749   1.714  0.7886 -2.2647 -1.3719
  330SOL    HW2  990   2.700   1.721   1.692  0.1059 -2.8795  2.3195
  331SOL     OW  991   0.327   1.585   1.472 -0.0471  0.5812  0.4870
  331SOL    HW1  992   0.271   1.629   1.403  0.1503  1.6304 -0.8997
  331SOL    HW2  993   0.267   1.528   1.532  0.0477 -1.1337  0.5205
  332SOL     OW  994   0.615   0.112   1.201 -0.0033  0.0528 -0.2319
  332SOL    HW1  995   0.678   0.037   1.170  0.9530 -1.5343  0.7677
  332SOL    HW2  996   0.517   0.079   1.200 -1.6907 -0.4614 -0.9408
  333SOL     OW  997   1.974   2.605   2.346 -0.3131 -0.2539 -0.2152
  333SOL    HW1  998   1.973   2.575   2.446 -2.7186 -2.3351 -2.7060
  333SOL    HW2  999   2.030   2.688   2.337 -0.9449 -2.9397 -0.9623
  334SOL     OW 1000   1.065   1.014   1.266  0.4920 -0.0660  0.2733
  334SOL    HW1 1001   1.076   1.112   1.247 -0.8815 -1.3127  0.4587
  334SOL    HW2 1002   1.138   0.961   1.226 -2.0943 -0.8240 -0.8022
  335SOL     OW 1003   0.759   2.723   2.843 -0.6215  0.3802  0.4810
  335SOL    HW1 1004   0.675   2.743   2.794  1.2257  1.5963 -0.0258
  335SOL    HW2 1005   0.807   2.649   2.798 -0.4184 -0.5017  3.5196
  336SOL     OW 1006   2.615   2.765   2.072 -0.2868  0.1971  0.1736
  336SOL    HW1 1007   2.658   2.857   2.063  0.4617 -0.7442 -0.8119
  336SOL    HW2 1008   2.595   2.731   1.979 -0.3290  2.5911 -1.2109
  337SOL     OW 1009   2.430   1.477   0.486 -0.0111 -0.2850 -0.2680
  337SOL    HW1 1010   2.365   1.502   0.410  0.5279  1.3959  0.7771
  337SOL    HW2 1011   2.469   1.565   0.517 -2.4139 -1.6261 -1.4862
  338SOL     OW 1012   1.079   1.694   1.516 -0.0968 -0.0186 -0.2722
  338SOL    HW1 1013   1.140   1.774   1.542  0.4622  2.4226  2.5855
  338SOL    HW2 1014   1.017   1.720   1.442  0.2047  1.4059  3.0072
  339SOL     OW 1015   2.980   1.023   2.064 -0.3478 -0.4812 -0.1130
  339SOL    HW1 1016   3.009   1.072   1.977  2.5865  0.3316 -1.1686
  339SOL    HW2 1017   3.050   1.044   2.135 -0.2163 -0.7279  0.6407
  340SOL     OW 1018   1.570   2.659   1.278 -0.3948 -0.2339 -0.0648
  340SOL    HW1 1019   1.616   2.581   1.230  0.1906 -0.2838 -0.3644
  340SOL    HW2 1020   1.478   2.668   1.239 -0.1862 -0.7544  0.1468
  341SOL     OW 1021   1.882   1.429   0.896 -0.0227 -0.4157  0.3249
  341SOL    HW1 1022   1.854   1.336   0.883 -0.3561  1.8984  3.6702
  341SOL    HW2 1023   1.954   1.460   0.831 -1.0774  0.8376  0.1793
  342SOL     OW 1024   0.323   1.341   0.908 -0.7326  0.3190  0.5859
  342SOL    HW1 1025   0.382   1.255   0.890  1.4350  0.6171 -1.8323
  342SOL    HW2 1026   0.361   1.423   0.862  0.6759  1.2857 -1.6088
  343SOL     OW 1027   2.240   0.619   1.426  0.4363  0.2533 -0.1097
  343SOL    HW1 1028   2.158   0.569   1.389 -3.3320  2.4625 -1.4972
  343SOL    HW2 1029   2.308   0.642   1.350 -0.8324  0.6916 -4.6715
  344SOL     OW 1030   1.972   2.746   0.715  0.1395 -0.2689 -0.6029
  344SOL    HW1 1031   2.039   2.718   0.788  0.8871  1.2826  0.2379
  344SOL    HW2 1032   1.875   2.755   0.746  2.1468 -1.2361  1.7322
  345SOL     OW 1033   2.867   2.605   2.767 -0.5949  0.2469  0.0020
  345SOL    HW1 1034   2.826   2.690   2.735 -0.9542  1.2226 -0.2174
  345SOL    HW2 1035   2.959   2.617   2.817  0.2922  2.8792  2.0424
  346SOL     OW 1036   2.970   0.667   0.350 -0.2510 -0.2438  0.1932
  346SOL    HW1 1037   2.972   0.744   0.281  0.1765 -1.4216  0.5524
  346SOL    HW2 1038   3.026   0.589   0.314 -0.1329  2.6304 -0.3179
  347SOL     OW 1039   1.741   2.489   1.151  0.0920 -0.7593  0.5393
  347SOL    HW1 1040   1.836   2.485   1.183 -4.2788  2.6597 -0.5660
  347SOL    HW2 1041   1.749   2.500   1.048  1.2708  3.7768 -2.7712
  348SOL     OW 1042   1.550   1.664   2.172  0.0542 -0.6669  0.2597
  348SOL    HW1 1043   1.477   1.620   2.120  0.4760 -1.4032  0.9065
  348SOL    HW2 1044   1.525   1.764   2.184 -3.0814 -0.6039 -0.4412
  349SOL     OW 1045   2.398   1.365   2.221  0.1979 -0.1232  0.0513
  349SOL    HW1 1046   2.314   1.412   2.248  2.9022  2.3888 -1.6413
  349SOL    HW2 1047   2.376   1.300   2.144  2.6025  1.9309  1.1835
  350SOL     OW 1048   0.425   1.979   1.074 -0.6057 -0.1278  0.1664
  350SOL    HW1 1049   0.420   1.950   1.171  1.6033 -0.1632 -0.2593
  350SOL    HW2 1050   0.358   2.057   1.054 -3.0458  1.1076 -0.3350
  351SOL     OW 1051   0.850   0.415   2.262 -0.1634 -0.2354 -0.1880
  351SOL    HW1 1052   0.944   0.386   2.233 -1.7488 -0.4060 -0.9814
  351SOL    HW2 1053   0.859   0.500   2.313 -1.1017 -1.2681 -1.7281
  352SOL     OW 1054   0.945   2.793   1.711  0.4496  0.0131 -0.4119
  352SOL    HW1 1055   0.939   2.895   1.730 -0.8990  0.3472  1.3230
  352SOL    HW2 1056   0.900   2.772   1.619 -0.9676 -2.4318 -2.2576
  353SOL     OW 1057   1.011   1.783   2.575  0.0142 -0.8314 -0.0300
  353SOL    HW1 1058   1.091   1.841   2.547  1.3087  0.1017 -0.4407
  353SOL    HW2 1059   0.969   1.731   2.500  3.1190  0.2990  1.9148
  354SOL     OW 1060   1.816   1.384   0.555  0.2142 -0.6025  0.3135
  354SOL    HW1 1061   1.732   1.430   0.586  2.3825  1.0500  0.1420
  354SOL    HW2 1062   1.829   1.292   0.597  0.0967 -1.0535 -0.5906
  355SOL     OW 1063   2.118   0.224   0.615 -0.2836  0.3176  0.4865
  355SOL    HW1 1064   2.185   0.246   0.686  0.6442 -3.1648 -1.6794
  355SOL    HW2 1065   2.141   0.277   0.528  0.4165 -0.0372 -0.4687
  356SOL     OW 1066   0.139   1.053   2.713 -0.7366  0.3876 -0.3886
  356SOL    HW1 1067   0.068   1.064   2.787  0.2252 -0.3501 -0.2503
  356SOL    HW2 1068   0.089   1.014   2.634  1.8428 -2.6892 -0.0496
  357SOL     OW 1069   3.093   3.030   1.651  0.5008 -0.7366 -0.5511
  357SOL    HW1 1070   3.037   3.062   1.580  1.1725  1.3053  1.7154
  357SOL    HW2 1071   3.105   2.930   1.635  1.4437 -0.2477 -0.3012
  358SOL     OW 1072   2.962   1.428   2.605 -0.4056 -0.0493 -0.4926
  358SOL    HW1 1073   3.057   1.457   2.591 -4.6563 -1.9000 -0.0912
  358SOL    HW2 1074   2.952   1.380   2.689 -1.5259  3.7345 -0.2711
  359SOL     OW 1075   2.587   2.460   2.482 -0.8210  0.0861 -0.3591
  359SOL    HW1 1076   2.514   2.496   2.544  2.6169  1.2429 -0.4630
  359SOL    HW2 1077   2.647   2.538   2.444  0.7165 -0.4760 -0.3423
  360SOL     OW 1078   1.192   1.221   0.908  0.2514 -0.6041  0.1225
  360SOL    HW1 1079   1.107   1.233   0.853  0.4317  1.4509  0.9120
  360SOL    HW2 1080   1.201   1.305   0.970  0.7341  1.5554  0.9349
  361SOL     OW 1081   2.336   2.367   1.028 -0.4832  0.7534 -0.0403
  361SOL    HW1 1082   2.373   2.363   1.121  1.2959 -1.4179 -0.1259
  361SOL    HW2 1083   2.245   2.413   1.017 -1.4197  2.1923  2.5035
  362SOL     OW 1084   1.581   1.068   1.130 -0.1607  0.4252  0.1005
  362SOL    HW1 1085   1.615   0.974   1.153 -0.0210  0.1993 -0.4923
  362SOL    HW2 1086   1.563   1.074   1.032 -1.5671 -0.0142  3.6552
  363SOL     OW 1087   2.792   2.086   0.431  0.0137 -0.3150  0.0669
  363SOL    HW1 1088   2.760   2.107   0.338 -1.8635 -2.4898 -1.2682
  363SOL    HW2 1089   2.721   2.032   0.478  2.2430 -0.3744 -2.5327
  364SOL     OW 1090   2.193   0.092   1.572 -0.1256  0.6710 -0.4316
  364SOL    HW1 1091   2.244   0.004   1.556  0.2188 -1.2277  1.4762
  364SOL    HW2 1092   2.241   0.148   1.644  2.1617 -0.1640  2.7672
  365SOL     OW 1093   0.197   2.538   1.018  0.4415  0.4213  0.2347
  365SOL    HW1 1094   0.227   2.480   0.939 -1.0889 -1.0696  2.8288
  365SOL    HW2 1095   0.106   2.575   0.986  1.3419  1.6120 -0.7250
  366SOL     OW 1096   0.010   1.261   0.053  0.2428  0.3685 -0.2370
  366SOL    HW1 1097   0.060   1.344   0.079 -2.6106  0.1813 -1.7626
  366SOL    HW2 1098   3.105   1.201   0.128 -2.6788 -2.9204 -0.6110
  367SOL     OW 1099   2.332   2.355   2.679 -0.1144 -0.0782 -0.0507
  367SOL    HW1 1100   2.231   2.342   2.702  0.7538  0.8831  0.8836
  367SOL    HW2 1101   2.376   2.266   2.652  0.9114 -2.5981  1.5489
  368SOL     OW 1102   3.059   1.735   1.094 -1.0976 -0.2772  0.3104
  368SOL    HW1 1103   2.999   1.761   1.175 -0.4679  3.5232 -0.2831
  368SOL    HW2 1104   3.031   1.791   1.012  0.5787 -0.5415 -1.4546
  369SOL     OW 1105   0.840   0.559   0.494  0.3320  0.2445  0.2039
  369SOL    HW1 1106   0.751   0.579   0.538 -0.1804  2.0157  0.2020
  369SOL    HW2 1107   0.837   0.464   0.462 -0.9961  0.5319  3.1755
  370SOL     OW 1108   0.634   0.286   0.876 -0.1399 -0.5702 -0.2229
  370SOL    HW1 1109   0.601   0.362   0.940 -2.2895  0.5497 -0.5767
  370SOL    HW2 1110   0.558   0.244   0.826 -0.0447  2.4627 -1.6524
  371SOL     OW 1111   2.354   1.617   0.043  0.0093  0.3950 -0.2415
  371SOL    HW1 1112   2.357   1.609   0.147 -2.3450 -0.9348 -0.3227
  371SOL    HW2 1113   2.365   1.531   3.115 -2.1707 -0.4322  0.1257
  372SOL     OW 1114   0.396   1.036   2.842 -0.0420 -0.0065 -0.1414
  372SOL    HW1 1115   0.311   1.067   2.803  2.2054  0.6812  2.8294
  372SOL    HW2 1116   0.428   0.946   2.801  1.3981  1.3675  2.0793
  373SOL     OW 1117   2.969   0.826   0.134  0.1043  0.0570  0.5217
  373SOL    HW1 1118   2.871   0.847   0.104 -2.0895  3.4465 -2.3439
  373SOL    HW2 1119   3.028   0.842   0.054  0.3827 -0.2726  0.4677
  374SOL     OW 1120   0.961   2.372   0.015  0.0211  0.0959  0.1767
  374SOL    HW1 1121   0.864   2.400   3.114  0.2799 -1.8721  3.0459
  374SOL    HW2 1122   1.001   2.445   0.076 -0.5455  3.2148  0.2046
  375SOL     OW 1123   1.283   0.323   0.288  0.5321  0.2699  0.2583
  375SOL    HW1 1124   1.295   0.424   0.290 -0.0504  1.2853 -2.9327
  375SOL    HW2 1125   1.331   0.285   0.370 -0.6639 -3.2876 -1.8253
  376SOL     OW 1126   0.167   2.683   2.119  0.4623 -0.3462 -0.3452
  376SOL    HW1 1127   0.235   2.644   2.184  0.2024  0.3754 -2.2144
  376SOL    HW2 1128   0.098   2.615   2.094  2.1869  3.3148  0.9909
  377SOL     OW 1129   2.854   2.014   2.936 -0.0256 -0.3712  0.0875
  377SOL    HW1 1130   2.802   2.099   2.961 -0.1351  1.2995  1.4280
  377SOL    HW2 1131   2.812   1.931   2.978 -0.5758 -1.2797 -1.2652
  378SOL     OW 1132   1.704   1.044   0.565  0.1444 -0.1694  0.4070
  378SOL    HW1 1133   1.655   1.090   0.486 -2.9592  0.9919 -2.3198
  378SOL    HW2 1134   1.672   0.949   0.570  2.3084  1.1766 -0.2450
  379SOL     OW 1135   1.170   1.591   0.449 -0.0609 -0.4327  0.0342
  379SOL    HW1 1136   1.138   1.497   0.457  3.0085  2.1609 -2.3448
  379SOL    HW2 1137   1.130   1.657   0.518 -1.2277  2.5207  0.8564
  380SOL     OW 1138   2.130   2.427   1.826  0.2532  0.1632 -0.4100
  380SOL    HW1 1139   2.050   2.368   1.797 -1.1230  1.3061  0.7415
  380SOL    HW2 1140   2.090   2.519   1.855  2.5057 -0.2362  0.4303
  381SOL     OW 1141   2.718   1.070   2.085 -0.4892  0.3493  0.3240
  381SOL    HW1 1142   2.814   1.037   2.072  1.1542 -1.7325  0.3746
  381SOL    HW2 1143   2.676   1.105   2.000  1.3234 -3.9745  1.2006
  382SOL     OW 1144   2.796   2.515   0.156 -0.0161 -0.2882  0.1780
  382SOL    HW1 1145   2.796   2.466   0.066  1.2355  2.9668 -3.5847
  382SOL    HW2 1146   2.857   2.598   0.151 -0.4086 -0.1274  2.2039
  383SOL     OW 1147   1.652   1.257   2.165  0.3228  0.6442 -0.2628
  383SOL    HW1 1148   1.719   1.317   2.125 -3.5118 -0.4320 -1.5785
  383SOL    HW2 1149   1.569   1.276   2.110 -1.1092  0.8072 -0.2914
  384SOL     OW 1150   0.824   2.109   2.570  0.3947 -0.1447 -0.2209
  384SOL    HW1 1151   0.863   2.199   2.533  2.0734 -0.3152 -0.2083
  384SOL    HW2 1152   0.905   2.054   2.608 -0.5225 -0.4634 -0.0936
  385SOL     OW 1153   2.515   2.326   0.684 -0.0150  0.4102 -0.7058
  385SOL    HW1 1154   2.526   2.415   0.627 -1.0588  0.0544  0.3649
  385SOL    HW2 1155   2.439   2.278   0.641  1.6719  0.2904  0.7565
  386SOL     OW 1156   1.742   1.388   0.290  0.9844  0.3931  0.2590
  386SOL    HW1 1157   1.794   1.398   0.375  1.1336 -1.4777 -0.5279
  386SOL    HW2 1158   1.666   1.316   0.313  0.7076 -1.8734  0.6724
  387SOL     OW 1159   2.818   0.830   1.456 -0.0148 -0.5209  0.1635
  387SOL    HW1 1160   2.856   0.820   1.551  2.3153 -1.7403 -1.5997
  387SOL    HW2 1161   2.867   0.778   1.385 -3.4537 -0.4928 -3.3714
  388SOL     OW 1162   2.946   0.754   1.210 -0.0350 -0.2086  0.3414
  388SOL    HW1 1163   2.976   0.775   1.113  2.8052  1.0109 -1.2912
  388SOL    HW2 1164   3.007   0.683   1.249  0.2643 -0.1641  0.5986
  389SOL     OW 1165   1.824   1.240   2.562 -0.0447 -0.2436 -0.3148
  389SOL    HW1 1166   1.851   1.244   2.660 -0.0316  1.7470  1.4114
  389SOL    HW2 1167   1.842   1.328   2.517  0.8186 -2.3693  2.3073
  390SOL     OW 1168   1.466   2.320   0.360  0.3540 -0.4383 -0.1722
  390SOL    HW1 1169   1.494   2.422   0.363  2.2788  1.4124 -0.3685
  390SOL    HW2 1170   1.538   2.257   0.395 -3.3308  3.7407  0.7801
  391SOL     OW 1171   1.192   2.180   1.217  0.1973  0.5347  0.0459
  391SOL    HW1 1172   1.250   2.096   1.233 -0.4418 -0.5473  0.9264
  391SOL    HW2 1173   1.248   2.258   1.183  0.0382  0.0931 -1.2154
  392SOL     OW 1174   2.501   2.881   1.757  0.0828 -0.7899  0.2790
  392SOL    HW1 1175   2.443   2.798   1.769  1.5450  2.1021 -0.7209
  392SOL    HW2 1176   2.597   2.846   1.755 -0.9339 -0.2661  0.2690
  393SOL     OW 1177   1.698   2.446   2.563 -0.2361  0.2066 -0.9157
  393SOL    HW1 1178   1.646   2.532   2.568  0.0888 -1.1098  0.0053
  393SOL    HW2 1179   1.642   2.372   2.514 -0.5910 -0.8418 -0.1279
  394SOL     OW 1180   0.296   2.907   2.528  0.4156 -0.0017 -0.4491
  394SOL    HW1 1181   0.230   2.985   2.532  0.7169  0.1944 -1.7314
  394SOL    HW2 1182   0.389   2.948   2.510  1.0138 -0.1224  3.4686
  395SOL     OW 1183   0.283   1.364   1.207  0.1947 -0.2524  0.0044
  395SOL    HW1 1184   0.281   1.373   1.106 -1.6602  2.2407  1.1245
  395SOL    HW2 1185   0.370   1.398   1.254  3.8284 -1.0465  3.7154
  396SOL     OW 1186   2.170   1.059   2.705  0.2859 -0.2920 -1.0523
  396SOL    HW1 1187   2.084   1.025   2.660 -1.4103 -0.1180 -1.7367
  396SOL    HW2 1188   2.233   1.094   2.636  3.3932 -0.8631  5.4127
  397SOL     OW 1189   0.004   0.606   2.696 -0.6481 -0.5106  0.1449
  397SOL    HW1 1190   0.067   0.527   2.682  3.3916 -0.7759 -0.5554
  397SOL    HW2 1191   3.076   0.639   2.611 -0.0594  2.8299 -0.9777
  398SOL     OW 1192   1.725   2.865   0.253 -0.3843  0.0535  0.7407
  398SOL    HW1 1193   1.726   2.940   0.321  0.1119  0.3425  1.6841
  398SOL    HW2 1194   1.818   2.828   0.233 -1.5796  1.3289 -2.9556
  399SOL     OW 1195   2.362   2.399   1.978  0.1878 -0.2210  0.0176
  399SOL    HW1 1196   2.373   2.482   2.042  1.6302  1.1787 -0.7568
  399SOL    HW2 1197   2.267   2.407   1.929 -4.0841 -0.9064 -0.2324
  400SOL     OW 1198   2.971   2.091   2.313  0.1860 -0.1157  0.1954
  400SOL    HW1 1199   2.981   2.038   2.226  0.5259 -2.4147 -1.1479
  400SOL    HW2 1200   2.881   2.067   2.353  0.4285 -0.1430  0.1862
  401SOL     OW 1201   0.480   0.794   0.554  0.0619  0.1738  0.3017
  401SOL    HW1 1202   0.558   0.728   0.565 -1.8316 -1.1481  0.4705
  401SOL    HW2 1203   0.416   0.785   0.638 -1.7141  0.4418  0.6064
  402SOL     OW 1204   0.668   3.014   2.267  0.0125  0.4910  0.0371
  402SOL    HW1 1205   0.706   2.914   2.275  0.4206 -0.2156  0.0201
  402SOL    HW2 1206   0.722   3.077   2.209 -0.5897  0.0494 -2.0094
  403SOL     OW 1207   2.947   1.481   1.957 -0.4297  0.3334 -0.5051
  403SOL    HW1 1208   3.046   1.468   1.928  2.5911 -0.4928 -0.4642
  403SOL    HW2 1209   2.935   1.462   2.058  1.1088  1.4121  2.0213
  404SOL     OW 1210   2.815   1.994   2.672 -0.6026 -0.2400  0.2783
  404SOL    HW1 1211   2.792   2.090   2.651  1.4523 -0.9461 -1.3788
  404SOL    HW2 1212   2.803   1.965   2.765  1.8782 -1.0267  0.1449
  405SOL     OW 1213   2.168   0.075   2.487 -0.2992 -0.2078 -0.1915
  405SOL    HW1 1214   2.113   0.035   2.561 -0.0851  1.2938  0.0559
  405SOL    HW2 1215   2.132   0.050   2.396  0.5638 -1.5621  3.1759
  406SOL     OW 1216   1.391   2.026   0.406 -0.4137 -0.1122 -0.2333
  406SOL    HW1 1217   1.378   2.089   0.327  0.0685  2.1819 -0.2859
  406SOL    HW2 1218   1.312   2.018   0.468  1.9156  2.2403 -1.4389
  407SOL     OW 1219   1.884   1.371   0.057  0.3896  0.0569  0.1768
  407SOL    HW1 1220   1.823   1.351   3.092 -2.7308 -0.1907 -0.1676
  407SOL    HW2 1221   1.831   1.372   0.146  2.2405  1.5638  1.6202
  408SOL     OW 1222   0.247   1.145   1.672 -0.3896 -0.3160 -0.3077
  408SOL    HW1 1223   0.155   1.158   1.718 -2.2477  0.6286  1.4869
  408SOL    HW2 1224   0.269   1.048   1.680 -2.2797  2.6169  1.1858
  409SOL     OW 1225   2.912   1.260   2.811 -0.1560  0.8245  0.0401
  409SOL    HW1 1226   2.819   1.218   2.796  1.5717 -2.7001  0.2133
  409SOL    HW2 1227   2.981   1.193   2.852  1.8209 -0.8947  0.4566
  410SOL     OW 1228   2.514   1.728   0.565 -0.4226 -0.4188  0.4019
  410SOL    HW1 1229   2.602   1.693   0.535 -0.6230 -1.7352  0.6908
  410SOL    HW2 1230   2.503   1.833   0.561 -1.7640  1.4351  0.0819
  411SOL     OW 1231   0.182   0.439   0.492 -0.0074 -0.6042 -0.1122
  411SOL    HW1 1232   0.197   0.533   0.449  1.7786 -0.9560 -1.8333
  411SOL    HW2 1233   0.129   0.378   0.428  0.1864 -0.8840 -2.9802
  412SOL     OW 1234   1.781   0.063   0.346 -0.5044  0.6542  0.3086
  412SOL    HW1 1235   1.817   0.036   0.432  0.2363  1.2895  1.0524
  412SOL    HW2 1236   1.848   0.122   0.297 -1.3475 -0.8644  0.9774
  413SOL     OW 1237   1.280   0.159   1.768  0.1752 -0.0852  0.3550
  413SOL    HW1 1238   1.374   0.197   1.748  2.1523  2.2014  0.3032
  413SOL    HW2 1239   1.239   0.112   1.687 -2.3615 -0.0314 -2.9214
  414SOL     OW 1240   0.412   1.179   0.272  0.1400 -0.0355  0.5427
  414SOL    HW1 1241   0.352   1.114   0.217  1.6281 -1.5968 -2.7418
  414SOL    HW2 1242   0.482   1.129   0.323 -1.9786 -0.1166 -0.3780
  415SOL     OW 1243   2.844   1.360   0.388 -0.1549  0.6204  0.0051
  415SOL    HW1 1244   2.929   1.362   0.444 -1.8564 -2.6377  1.4759
  415SOL    HW2 1245   2.860   1.401   0.292  1.9161  0.7458 -0.5128
  416SOL     OW 1246   2.383   0.684   0.254 -0.5776 -0.3590 -0.3520
  416SOL    HW1 1247   2.370   0.641   0.158  0.4497 -3.5962 -1.7971
  416SOL    HW2 1248   2.482   0.692   0.287  1.1240 -1.2055  2.5060
  417SOL     OW 1249   2.563   2.567   0.282 -0.8653 -0.2361  0.4653
  417SOL    HW1 1250   2.529   2.630   0.211  1.8463 -2.1081  4.4400
  417SOL    HW2 1251   2.654   2.536   0.247 -1.1720 -0.5192 -0.6434
  418SOL     OW 1252   3.026   0.364   0.050 -0.0584 -0.0783 -0.1135
  418SOL    HW1 1253   2.933   0.385   0.088 -2.3435 -1.1644  0.6214
  418SOL    HW2 1254   3.027   0.372   3.063  0.5712  0.8884 -2.1460
  419SOL     OW 1255   0.843   0.839   0.840 -0.9500 -0.6736 -0.1169
  419SOL    HW1 1256   0.838   0.855   0.941 -0.3181 -0.9474 -2.6442
  419SOL    HW2 1257   0.809   0.747   0.816 -1.2322 -3.2725  1.4735
  420SOL     OW 1258   0.314   0.877   0.818 -0.4154 -0.1448 -0.2112
  420SOL    HW1 1259   0.226   0.833   0.789 -1.2513  0.9703  1.0446
  420SOL    HW2 1260   0.343   0.849   0.912 -1.0717  1.7570  2.1136
  421SOL     OW 1261   0.510   2.102   0.527  0.2037  0.7615 -0.4584
  421SOL    HW1 1262   0.564   2.114   0.440  0.2819 -0.8787  0.1774
  421SOL    HW2 1263   0.524   2.180   0.590 -1.6974 -1.0403  0.2169
  422SOL     OW 1264   2.814   0.404   1.848 -0.2587 -0.6643 -0.1195
  422SOL    HW1 1265   2.798   0.430   1.944 -0.1406 -1.5178  0.3180
  422SOL    HW2 1266   2.730   0.416   1.790  2.2025 -0.1153  0.3848
  423SOL     OW 1267   2.042   1.890   0.079  0.5113  0.6090 -0.0657
  423SOL    HW1 1268   1.995   1.801   0.078 -2.1935  0.8110  0.2360
  423SOL    HW2 1269   2.046   1.922   3.103  0.3434 -0.0209  1.8858
  424SOL     OW 1270   1.767   1.795   2.551  0.3470 -0.0468 -0.0964
  424SOL    HW1 1271   1.773   1.732   2.471  0.6251  0.4332  0.5621
  424SOL    HW2 1272   1.861   1.814   2.586 -0.1164 -0.5031 -0.1190
  425SOL     OW 1273   0.115   0.006   2.058 -0.0122 -0.6999  0.3003
  425SOL    HW1 1274   0.093   3.091   2.152  0.6544  1.3045  0.9168
  425SOL    HW2 1275   0.098   3.046   1.997  0.6458  2.1984  4.6657
  426SOL     OW 1276   2.004   2.729   0.202 -0.2952 -0.0540 -0.2773
  426SOL    HW1 1277   1.931   2.659   0.184  0.4359  1.8601  0.8780
  426SOL    HW2 1278   2.085   2.675   0.228 -0.1301 -2.3152 -1.3345
  427SOL     OW 1279   0.237   1.532   2.550 -0.0738  0.2141  0.0576
  427SOL    HW1 1280   0.317   1.537   2.485  1.1565 -0.9475 -3.0621
  427SOL    HW2 1281   0.179   1.618   2.550  0.2094  0.2005  1.4746
  428SOL     OW 1282   2.334   1.369   2.614  0.0179  0.1540  0.1747
  428SOL    HW1 1283   2.309   1.286   2.559  0.2585 -1.7496  0.7316
  428SOL    HW2 1284   2.279   1.364   2.700 -1.2643 -2.0785  0.0632
  429SOL     OW 1285   2.436   2.876   0.702 -0.2221 -0.1047  0.3965
  429SOL    HW1 1286   2.535   2.899   0.728  0.5684 -2.1051 -2.3886
  429SOL    HW2 1287   2.426   2.829   0.614  0.8686 -2.8945 -0.2656
  430SOL     OW 1288   1.723   1.971   2.215 -0.0919 -0.1066  0.0010
  430SOL    HW1 1289   1.635   1.912   2.215 -3.1042 -0.6702  0.1458
  430SOL    HW2 1290   1.797   1.920   2.256 -0.9352 -1.0256  1.6057
  431SOL     OW 1291   3.001   2.062   1.891  0.3473 -0.4763  0.2562
  431SOL    HW1 1292   3.004   2.008   1.807 -0.6235  2.7990  0.4157
  431SOL    HW2 1293   2.962   2.014   1.969  2.0562  1.6748 -3.2515
  432SOL     OW 1294   1.134   2.171   2.295  0.2942 -0.0188  0.0262
  432SOL    HW1 1295   1.111   2.075   2.262  0.9417  1.7019  0.4059
  432SOL    HW2 1296   1.188   2.226   2.229  0.1760  0.7721 -2.6432
  433SOL     OW 1297   1.095   2.866   0.808 -0.6198 -0.3407 -0.5370
  433SOL    HW1 1298   1.108   2.775   0.764  0.8796  1.0592  0.7074
  433SOL    HW2 1299   1.101   2.940   0.737 -1.4660 -0.7624  0.7434
  434SOL     OW 1300   0.383   1.886   2.373  0.4454 -0.0648  0.5404
  434SOL    HW1 1301   0.426   1.794   2.380 -0.5725 -1.3778  0.6933
  434SOL    HW2 1302   0.300   1.875   2.316  0.6817 -1.0916  0.5029
  435SOL     OW 1303   0.204   1.520   0.590  0.2300  0.4808  0.2933
  435SOL    HW1 1304   0.205   1.614   0.546 -0.1889  1.2119  2.7597
  435SOL    HW2 1305   0.249   1.523   0.681 -0.5106 -2.2823 -0.2807
  436SOL     OW 1306   0.680   1.928   1.922  0.4685  0.4742 -0.6993
  436SOL    HW1 1307   0.666   1.838   1.965 -0.3331  0.9401  0.4413
  436SOL    HW2 1308   0.777   1.964   1.925  1.0687  0.2414 -0.9674
  437SOL     OW 1309   1.150   0.722   0.470  0.5769 -0.5941 -0.2810
  437SOL    HW1 1310   1.097   0.732   0.557 -0.6591 -0.5097  3.6482
  437SOL    HW2 1311   1.175   0.816   0.433  1.7116  1.7341  0.9963
  438SOL     OW 1312   0.683   1.974   0.999  0.3251  0.0120  0.0167
  438SOL    HW1 1313   0.584   1.964   1.026 -1.7596  0.4032 -0.1817
  438SOL    HW2 1314   0.699   1.970   0.896 -2.0980  0.8905  0.6301
  439SOL     OW 1315   1.057   2.636   1.898 -0.1237 -0.0604 -0.0985
  439SOL    HW1 1316   0.991   2.643   1.977 -1.0615  1.0273  1.4916
  439SOL    HW2 1317   1.027   2.709   1.829 -3.7213  0.4001 -2.1833
  440SOL     OW 1318   1.709   0.046   1.514 -0.0366 -0.2478  0.0544
  440SOL    HW1 1319   1.783   0.040   1.578 -2.8759 -0.3028 -2.8127
  440SOL    HW2 1320   1.696   0.142   1.482  2.4030  0.4674  0.8615
  441SOL     OW 1321   0.369   3.075   1.509  0.5727 -0.2772 -0.5168
  441SOL    HW1 1322   0.333   2.983   1.536  1.1450 -0.2016 -0.7968
  441SOL    HW2 1323   0.454   3.092   1.561  2.3985  1.4671 -0.8902
  442SOL     OW 1324   2.200   1.960   0.487  0.2318  0.2836 -0.3806
  442SOL    HW1 1325   2.150   1.873   0.494 -1.2254  1.3062 -0.7587
  442SOL    HW2 1326   2.209   1.993   0.394 -2.2328 -0.5439 -2.5436
  443SOL     OW 1327   2.727   0.299   2.473 -0.0033  0.2609 -0.1129
  443SOL    HW1 1328   2.628   0.272   2.475 -0.4243 -2.3576 -0.1467
  443SOL    HW2 1329   2.739   0.397   2.457  0.7867 -0.0882 -0.2976
  444SOL     OW 1330   2.112   1.334   2.018 -0.0006  0.0951  0.0998
  444SOL    HW1 1331   2.129   1.269   2.093 -2.5317 -0.1943  1.7352
  444SOL    HW2 1332   2.160   1.306   1.933  0.1482  0.3380  0.1789
  445SOL     OW 1333   2.696   1.999   1.583  0.2895  0.0988  0.1466
  445SOL    HW1 1334   2.665   1.904   1.615 -0.1177 -2.8156  3.0400
  445SOL    HW2 1335   2.631   2.073   1.614 -4.2714 -0.1786 -1.2488
  446SOL     OW 1336   2.868   1.057   0.415 -0.1962 -0.2008 -0.1215
  446SOL    HW1 1337   2.846   1.153   0.433  0.5379 -0.6179 -0.3330
  446SOL    HW2 1338   2.833   1.005   0.497 -1.4436  1.4131 -2.2937
  447SOL     OW 1339   1.111   1.673   0.873  0.3431  0.7090  0.0085
  447SOL    HW1 1340   1.210   1.645   0.858  2.5704  1.9468 -0.6054
  447SOL    HW2 1341   1.083   1.707   0.785 -0.2884 -0.4375  0.9186
  448SOL     OW 1342   1.434   1.290   2.012 -0.5521 -0.6091 -0.0678
  448SOL    HW1 1343   1.452   1.283   1.912  0.6560 -0.0846 -0.1605
  448SOL    HW2 1344   1.356   1.229   2.044 -4.0449 -1.7334 -0.3317
  449SOL     OW 1345   0.397   1.554   0.318  0.6587 -0.0933  0.6403
  449SOL    HW1 1346   0.394   1.641   0.377 -2.3000  2.1721  2.6164
  449SOL    HW2 1347   0.471   1.560   0.251  1.5725 -2.3443 -1.4112
  450SOL     OW 1348   2.596   2.575   1.860 -0.9951  0.1357 -0.2714
  450SOL    HW1 1349   2.619   2.543   1.764 -0.4194  0.4080 -2.8523
  450SOL    HW2 1350   2.507   2.547   1.890  1.4255  3.4491 -2.0929
  451SOL     OW 1351   2.025   0.283   2.155 -0.3282  0.5727  0.1611
  451SOL    HW1 1352   2.003   0.283   2.256 -1.6418  2.2817 -0.8023
  451SOL    HW2 1353   1.956   0.318   2.085 -1.7900  2.1520 -0.2840
  452SOL     OW 1354   1.026   0.141   1.409  0.2599  0.0215 -0.4097
  452SOL    HW1 1355   1.014   0.068   1.339 -1.6294 -1.7594  1.1698
  452SOL    HW2 1356   0.939   0.185   1.434 -0.4480 -3.2205 -0.7099
  453SOL     OW 1357   1.044   1.472   1.051  0.6936 -0.0062  0.1363
  453SOL    HW1 1358   1.059   1.555   0.989  4.4938  3.8356 -1.4953
  453SOL    HW2 1359   0.943   1.449   1.057 -1.6342  1.7675 -1.1902
  454SOL     OW 1360   0.425   1.135   0.753  0.0767  0.3627 -0.7669
  454SOL    HW1 1361   0.374   1.057   0.798 -0.5198  1.8681  1.2187
  454SOL    HW2 1362   0.388   1.163   0.662  0.7512 -3.6088  0.1566
  455SOL     OW 1363   2.936   2.756   0.154 -0.0977  0.2687 -0.0413
  455SOL    HW1 1364   2.918   2.849   0.188 -0.4532 -1.3758 -0.0531
  455SOL    HW2 1365   3.031   2.749   0.119  0.5694  0.0765  0.8244
  456SOL     OW 1366   2.214   2.159   0.880  0.5054  0.7917  0.4481
  456SOL    HW1 1367   2.278   2.222   0.929 -1.8735  1.6694  1.6876
  456SOL    HW2 1368   2.240   2.058   0.897  0.2332  0.6053  1.9758
  457SOL     OW 1369   1.551   0.193   0.250  0.2586 -0.4469 -0.0592
  457SOL    HW1 1370   1.628   0.135   0.275 -0.6602  1.3354  2.0863
  457SOL    HW2 1371   1.488   0.192   0.330  0.8965 -2.2864  3.2786
  458SOL     OW 1372   2.711   2.887   0.455 -0.2274 -0.1597  0.3309
  458SOL    HW1 1373   2.802   2.878   0.500  0.2615 -0.3413 -1.0656
  458SOL    HW2 1374   2.647   2.809   0.460 -0.0329  0.2397  2.6383
  459SOL     OW 1375   2.031   0.317   2.488  0.1156  0.1439 -0.2143
  459SOL    HW1 1376   1.938   0.284   2.524 -1.1787 -0.6544  1.5656
  459SOL    HW2 1377   2.100   0.245   2.503 -2.6256  3.4982 -0.3815
  460SOL     OW 1378   2.800   0.060   0.003 -0.0774  0.1319  0.4535
  460SOL    HW1 1379   2.858   0.116   0.069  2.4102  2.0124  0.6953
  460SOL    HW2 1380   2.739   3.112   0.046  3.0375 -0.4844  1.3588
  461SOL     OW 1381   0.816   1.267   1.258 -0.3787 -0.3055  0.0289
  461SOL    HW1 1382   0.797   1.338   1.188 -1.4081  0.1286 -3.5687
  461SOL    HW2 1383   0.922   1.261   1.269  0.3917 -0.1678 -0.7332
  462SOL     OW 1384   2.754   2.797   1.708 -0.5402  0.1024  0.4559
  462SOL    HW1 1385   2.841   2.824   1.755 -0.2066 -1.9170  1.4650
  462SOL    HW2 1386   2.768   2.717   1.651 -1.8295  0.5372 -1.7138
  463SOL     OW 1387   2.687   1.063   2.817  0.0640 -0.2178 -0.5708
  463SOL    HW1 1388   2.642   1.115   2.894 -1.5916 -0.5932  0.9584
  463SOL    HW2 1389   2.625   0.993   2.779 -1.1383  1.7014  1.3896
  464SOL     OW 1390   0.261   2.555   1.387  0.0549 -0.2373  0.2165
  464SOL    HW1 1391   0.336   2.612   1.420 -1.4113 -1.3823 -1.6267
  464SOL    HW2 1392   0.195   2.613   1.338  0.9426  0.6813 -0.9674
  465SOL     OW 1393   0.292   1.256   0.522 -0.6584  0.8299 -0.5338
  465SOL    HW1 1394   0.312   1.255   0.422  1.2298  0.5054 -1.7014
  465SOL    HW2 1395   0.262   1.349   0.556  0.9904  1.5858 -0.0679
  466SOL     OW 1396   1.115   0.364   2.207 -0.2438 -0.0834 -0.2525
  466SOL    HW1 1397   1.145   0.348   2.307  2.2647  0.0657  1.7991
  466SOL    HW2 1398   1.137   0.283   2.153 -0.3957  0.0184  1.2376
  467SOL     OW 1399   0.859   0.666   2.394  0.2924 -0.4173 -0.1265
  467SOL    HW1 1400   0.790   0.735   2.397  1.9481 -0.8537 -0.6863
  467SOL    HW2 1401   0.899   0.638   2.485 -0.4119 -0.9200 -0.6322
  468SOL     OW 1402   3.097   0.918   2.512 -0.7449 -0.3295 -0.6279
  468SOL    HW1 1403   0.008   0.834   2.464 -3.3851  4.6166  2.4337
  468SOL    HW2 1404   3.102   0.989   2.443 -0.2001 -3.0671 -1.2098
  469SOL     OW 1405   0.202   2.097   0.554  0.0480 -0.5093 -0.4961
  469SOL    HW1 1406   0.302   2.083   0.546  0.4591  0.2825  1.6978
  469SOL    HW2 1407   0.169   2.143   0.465 -0.6580 -0.3915 -2.5377
  470SOL     OW 1408   2.934   1.825   2.496 -0.1200 -0.2735 -1.0027
  470SOL    HW1 1409   2.897   1.901   2.556  0.9134  0.1679  0.4151
  470SOL    HW2 1410   2.879   1.807   2.411 -0.5046 -0.4265  3.8549
  471SOL     OW 1411   1.636   0.777   2.248 -0.3511 -0.0264  0.2358
  471SOL    HW1 1412   1.698   0.711   2.196 -3.2264 -0.4171  0.7912
  471SOL    HW2 1413   1.638   0.763   2.345 -1.9666 -0.5460 -0.8769
  472SOL     OW 1414   0.775   2.885   1.144  0.0661  0.1444  0.1976
  472SOL    HW1 1415   0.738   2.799   1.192 -0.3171  1.0194  1.0398
  472SOL    HW2 1416   0.792   2.869   1.045  1.4714 -1.9903 -3.5624
  473SOL     OW 1417   0.847   0.141   2.305  0.1745  0.3855 -0.3770
  473SOL    HW1 1418   0.859   0.238   2.299 -0.1997 -0.0844 -0.2106
  473SOL    HW2 1419   0.887   0.095   2.224 -1.0584  0.6036  0.5910
  474SOL     OW 1420   1.777   2.941   1.361  0.1947 -0.0218 -0.0638
  474SOL    HW1 1421   1.708   3.012   1.391 -0.9747  2.5244  0.7619
  474SOL    HW2 1422   1.733   2.870   1.310  1.4388 -0.0273 -0.3508
  475SOL     OW 1423   1.936   0.198   1.004  0.0732  0.2274  0.1013
  475SOL    HW1 1424   1.972   0.152   0.921 -3.1517 -0.0051 -1.8586
  475SOL    HW2 1425   2.009   0.249   1.055 -1.0882  0.2808 -0.6908
  476SOL     OW 1426   0.370   0.835   1.099 -0.6159  0.1067  0.0242
  476SOL    HW1 1427   0.362   0.924   1.152  0.0057  1.7064  2.4723
  476SOL    HW2 1428   0.458   0.793   1.120 -0.3266  0.8040  0.1266
  477SOL     OW 1429   1.299   2.740   0.257 -0.4353  0.0150 -0.5713
  477SOL    HW1 1430   1.350   2.715   0.172 -1.7342  0.3133  2.2988
  477SOL    HW2 1431   1.360   2.772   0.329  1.2133 -2.0112  1.8719
  478SOL     OW 1432   0.218   2.356   2.397  0.0485 -0.6859 -0.3258
  478SOL    HW1 1433   0.234   2.450   2.350  1.6186  2.6567 -3.5353
  478SOL    HW2 1434   0.283   2.343   2.471  0.2262 -1.4855  0.7486
  479SOL     OW 1435   2.828   0.217   1.148  0.1319 -0.1917 -0.6342
  479SOL    HW1 1436   2.754   0.253   1.213 -1.4078  2.7358  0.7053
  479SOL    HW2 1437   2.919   0.260   1.162  3.9295 -0.3696 -0.3822
  480SOL     OW 1438   0.596   2.485   0.469  0.0987 -0.5942  0.0160
  480SOL    HW1 1439   0.647   2.466   0.381 -1.4444 -1.4724  1.4998
  480SOL    HW2 1440   0.502   2.513   0.449 -0.6895  0.4076 -2.4208
  481SOL     OW 1441   2.237   2.162   1.343 -0.2807  0.0732  0.3321
  481SOL    HW1 1442   2.310   2.102   1.378 -0.4978  0.1838  1.2700
  481SOL    HW2 1443   2.284   2.240   1.295 -1.5224  1.4234 -1.1997
  482SOL     OW 1444   1.025   2.464   2.799 -0.2020 -0.5212 -0.2085
  482SOL    HW1 1445   1.096   2.485   2.727  3.2289  1.3593 -2.0372
  482SOL    HW2 1446   1.053   2.384   2.855 -1.6437 -0.1267  0.0366
  483SOL     OW 1447   0.756   2.435   1.971 -1.2323 -0.1744 -0.2464
  483SOL    HW1 1448   0.744   2.502   1.899 -0.3836 -2.4732 -1.5282
  483SOL    HW2 1449   0.774   2.347   1.925 -0.0452  2.5464  2.0746
  484SOL     OW 1450   1.000   0.550   1.588 -0.0566  0.3140  0.1157
  484SOL    HW1 1451   1.022   0.458   1.629  0.3211  0.4869  1.8317
  484SOL    HW2 1452   1.082   0.608   1.565 -0.2925  0.5588 -0.7102
  485SOL     OW 1453   1.872   0.715   2.615  0.0837  0.3814 -0.1077
  485SOL    HW1 1454   1.924   0.799   2.622 -1.6740 -1.2002  1.1969
  485SOL    HW2 1455   1.929   0.660   2.552  0.3026 -0.8298  2.5081
  486SOL     OW 1456   2.413   2.725   0.941 -1.0330 -0.0939 -0.3761
  486SOL    HW1 1457   2.472   2.640   0.935  0.7559 -1.1435  1.6470
  486SOL    HW2 1458   2.432   2.780   0.860 -0.6081 -1.7276 -1.3667
  487SOL     OW 1459   0.882   1.960   1.530  0.4904  0.0725 -0.3586
  487SOL    HW1 1460   0.945   2.038   1.509  1.4490 -1.5186 -0.1916
  487SOL    HW2 1461   0.786   1.992   1.543  0.9217  1.1385 -0.4433
  488SOL     OW 1462   2.326   1.789   2.947  0.0656 -0.2162 -0.1212
  488SOL    HW1 1463   2.408   1.798   2.891 -0.2961  0.0178 -1.5096
  488SOL    HW2 1464   2.351   1.729   3.027  1.6175 -0.1401 -0.1399
  489SOL     OW 1465   1.857   2.834   1.025 -0.4608 -0.0968  0.1683
  489SOL    HW1 1466   1.808   2.747   1.026 -4.1404  3.7548  1.4040
  489SOL    HW2 1467   1.935   2.827   1.094  0.9629  0.1342  1.5172
  490SOL     OW 1468   0.968   1.564   0.180  0.2157  0.4298  0.2404
  490SOL    HW1 1469   1.052   1.615   0.205  0.8672 -1.3051  1.3050
  490SOL    HW2 1470   0.885   1.594   0.235 -0.5029  0.4428 -0.9543
  491SOL     OW 1471   0.348   2.045   1.497 -0.1862 -0.6058 -0.1700
  491SOL    HW1 1472   0.273   2.111   1.468  1.0458 -0.3497 -0.4332
  491SOL    HW2 1473   0.354   1.962   1.441  0.1678 -1.4601 -0.8642
  492SOL     OW 1474   0.910   1.510   1.870  0.0406  0.6577  0.6956
  492SOL    HW1 1475   0.956   1.459   1.791  0.3189  1.6704 -0.2177
  492SOL    HW2 1476   0.955   1.595   1.884 -1.0769 -3.3477 -0.8980
  493SOL     OW 1477   2.968   2.274   0.869 -0.0110  0.5393  0.1733
  493SOL    HW1 1478   2.901   2.252   0.795 -4.4433 -2.0838  1.3088
  493SOL    HW2 1479   3.034   2.193   0.884 -0.9601 -0.3468  0.1304
  494SOL     OW 1480   2.765   2.220   0.702 -0.1813 -0.2503  0.5762
  494SOL    HW1 1481   2.675   2.268   0.722 -0.5885 -1.6331 -1.5301
  494SOL    HW2 1482   2.785   2.201   0.604  2.7303  1.4333 -2.0832
  495SOL     OW 1483   2.560   2.999   0.085  0.4168  0.2902  0.3464
  495SOL    HW1 1484   2.603   2.925   0.032 -2.1199 -1.0053  0.7326
  495SOL    HW2 1485   2.489   2.955   0.148 -1.2854 -1.3595  0.6987
  496SOL     OW 1486   2.451   2.995   1.213 -0.2887  0.6711  0.0151
  496SOL    HW1 1487   2.380   3.027   1.148 -2.2451 -0.3270 -0.4361
  496SOL    HW2 1488   2.481   3.067   1.274 -0.4851 -1.3749 -2.9110
  497SOL     OW 1489   2.540   1.041   2.455  0.3114  0.4692 -0.5205
  497SOL    HW1 1490   2.563   1.137   2.450 -0.2107 -2.5053 -3.1675
  497SOL    HW2 1491   2.508   1.003   2.543  2.1891  5.4705 -0.5737
  498SOL     OW 1492   2.948   1.845   1.338 -0.3629  0.5449 -0.0931
  498SOL    HW1 1493   3.013   1.816   1.414 -1.1619  1.1183  1.1507
  498SOL    HW2 1494   2.955   1.948   1.320  1.0462  2.3018  0.2214
  499SOL     OW 1495   0.787   2.471   2.676 -0.7188 -0.2347  0.1642
  499SOL    HW1 1496   0.881   2.457   2.711 -1.0699  1.1088 -3.8037
  499SOL    HW2 1497   0.792   2.433   2.579  1.4207 -1.9330  3.1983
  500SOL     OW 1498   1.714   0.690   0.293  0.1334  0.1905 -0.2240
  500SOL    HW1 1499   1.664   0.778   0.291 -1.5893 -1.7677 -0.5601
  500SOL    HW2 1500   1.660   0.621   0.345  0.6102  0.5540  2.1964
  501SOL     OW 1501   1.529   0.235   1.706 -0.2979  0.2987 -0.5888
  501SOL    HW1 1502   1.550   0.298   1.629 -1.3900  0.0587  0.7204
  501SOL    HW2 1503   1.613   0.218   1.758  0.6383  1.0588 -1.0505
  502SOL     OW 1504   2.171   0.654   1.685  0.4964  0.4305  0.1118
  502SOL    HW1 1505   2.143   0.750   1.690 -0.9335 -1.4419 -0.2135
  502SOL    HW2 1506   2.184   0.636   1.583  0.8952  0.3076 -5.4069
  503SOL     OW 1507   2.409   1.715   2.113  0.2271 -0.0995 -0.9943
  503SOL    HW1 1508   2.372   1.650   2.047  3.6816  2.1014  2.4081
  503SOL    HW2 1509   2.376   1.809   2.091 -2.1350 -0.5026 -0.3130
  504SOL     OW 1510   1.465   1.157   1.766 -0.3151 -0.3298 -0.1385
  504SOL    HW1 1511   1.560   1.160   1.806 -0.4538  0.6672  2.3867
  504SOL    HW2 1512   1.426   1.069   1.792  0.6800 -1.1647  1.1227
  505SOL     OW 1513   0.460   0.672   1.781 -0.8014 -0.4780 -0.2236
  505SOL    HW1 1514   0.407   0.712   1.707  0.6937  2.1827  1.2960
  505SOL    HW2 1515   0.500   0.755   1.834  0.5282  4.7969  2.8635
  506SOL     OW 1516   0.397   0.492   2.921  0.1082  0.0820  0.0288
  506SOL    HW1 1517   0.306   0.521   2.889  2.3040  0.2049  1.8737
  506SOL    HW2 1518   0.433   0.557   2.995 -0.7927  0.7699  4.2778
  507SOL     OW 1519   0.640   0.142   0.141 -0.0375 -0.1582 -0.0767
  507SOL    HW1 1520   0.578   0.213   0.171 -1.0243 -2.3669 -1.3785
  507SOL    HW2 1521   0.738   0.176   0.136  0.4705  1.5943  0.8954
  508SOL     OW 1522   0.824   0.741   1.937  0.1185  0.1566 -0.4364
  508SOL    HW1 1523   0.725   0.759   1.935  2.6394  0.2185 -2.0882
  508SOL    HW2 1524   0.858   0.766   2.034 -0.7424  1.5193  0.7822
  509SOL     OW 1525   1.383   2.376   1.123 -0.6775 -0.5260 -0.3435
  509SOL    HW1 1526   1.464   2.340   1.173 -0.6895  0.3337  1.4447
  509SOL    HW2 1527   1.394   2.336   1.027 -0.8288 -0.1647 -0.1434
  510SOL     OW 1528   2.814   1.400   1.554 -0.3044  0.2688 -0.4561
  510SOL    HW1 1529   2.896   1.461   1.557 -2.1513 -1.7440  0.4144
  510SOL    HW2 1530   2.742   1.437   1.494 -0.6355 -3.0518  1.2320
  511SOL     OW 1531   1.259   1.924   1.535 -0.0544  0.0392 -0.1538
  511SOL    HW1 1532   1.306   2.001   1.587 -0.7998  1.6298  0.3640
  511SOL    HW2 1533   1.180   1.972   1.490  0.2110 -2.4698 -0.7960
  512SOL     OW 1534   2.974   1.720   0.646  0.0762  0.8120 -0.0062
  512SOL    HW1 1535   2.891   1.678   0.598 -0.5889 -0.9905 -1.9362
  512SOL    HW2 1536   3.011   1.803   0.601 -0.2135 -0.1513  2.7545
  513SOL     OW 1537   3.099   1.640   3.044 -0.4065 -0.2344  0.2955
  513SOL    HW1 1538   3.105   1.691   2.953  0.7956  1.0390  0.2876
  513SOL    HW2 1539   0.061   1.573   3.061 -1.7479 -2.1951  0.1866
  514SOL     OW 1540   2.327   2.090   2.389  0.1949  0.4217  0.3481
  514SOL    HW1 1541   2.237   2.076   2.441 -2.0799  0.0985  1.2128
  514SOL    HW2 1542   2.340   2.192   2.381  2.0845  0.9024 -1.2442
  515SOL     OW 1543   2.471   0.900   0.733 -0.0032  0.4758 -0.2447
  515SOL    HW1 1544   2.413   0.839   0.789 -0.0186 -1.6584 -0.6500
  515SOL    HW2 1545   2.552   0.926   0.788  3.6894  1.6703 -0.3111
  516SOL     OW 1546   2.608   1.918   0.060  0.4120  0.0194  0.1776
  516SOL    HW1 1547   2.555   1.970   3.104  3.7757  2.6732 -0.5341
  516SOL    HW2 1548   2.652   1.835   0.013  1.4693 -2.0654  0.3437
  517SOL     OW 1549   0.737   1.330   3.074  0.0608 -0.2328 -0.0865
  517SOL    HW1 1550   0.716   1.431   3.091 -0.1636  0.3787 -1.1732
  517SOL    HW2 1551   0.766   1.291   0.047  1.8542 -2.1784  1.6571
  518SOL     OW 1552   2.936   0.189   2.375  0.2573  0.0644 -0.4291
  518SOL    HW1 1553   2.850   0.232   2.419 -0.5373  0.6608  3.1274
  518SOL    HW2 1554   2.932   0.088   2.394 -2.1253 -0.8159  2.0149
  519SOL     OW 1555   1.671   1.384   2.992  0.2065  0.1694 -0.1519
  519SOL    HW1 1556   1.595   1.312   2.988 -0.0557 -0.2651  0.5591
  519SOL    HW2 1557   1.637   1.472   3.029 -0.0779 -0.6864 -1.3882
  520SOL     OW 1558   2.763   2.900   2.451 -0.2849  0.5056  0.0657
  520SOL    HW1 1559   2.679   2.953   2.432 -0.3917 -0.6464  0.7266
  520SOL    HW2 1560   2.757   2.804   2.413 -1.1479 -3.2831  0.3281
  521SOL     OW 1561   0.480   1.609   2.382  0.1689 -0.4861 -0.3611
  521SOL    HW1 1562   0.504   1.525   2.326  1.7930  0.1593 -0.2772
  521SOL    HW2 1563   0.548   1.621   2.456 -1.4543 -0.9792  1.5755
  522SOL     OW 1564   1.254   2.746   2.063  0.6993 -0.0480 -0.4907
  522SOL    HW1 1565   1.339   2.694   2.050  1.8384  2.5064  0.6937
  522SOL    HW2 1566   1.180   2.711   2.000 -2.0491 -0.2584  0.9497
  523SOL     OW 1567   2.636   2.135   1.124  0.3959 -0.0740 -0.4788
  523SOL    HW1 1568   2.667   2.223   1.166  3.6553 -0.8379 -3.4913
  523SOL    HW2 1569   2.690   2.115   1.039  1.3468 -1.9880  0.9505
  524SOL     OW 1570   1.343   2.029   0.972  0.2900 -0.0924  0.3780
  524SOL    HW1 1571   1.344   1.982   1.065  2.4464  0.5263  1.0397
  524SOL    HW2 1572   1.247   2.048   0.942 -1.4190  0.1655 -0.9157
  525SOL     OW 1573   2.912   0.474   0.731  0.2063  0.1919 -0.1746
  525SOL    HW1 1574   2.871   0.501   0.822  1.4578  0.6910  1.6008
  525SOL    HW2 1575   2.838   0.429   0.674  0.8879 -2.4758 -0.7326
  526SOL     OW 1576   1.566   2.821   0.839 -0.2376 -0.6726 -0.5152
  526SOL    HW1 1577   1.564   2.882   0.757 -0.8530 -0.1633 -1.0080
  526SOL    HW2 1578   1.558   2.876   0.922 -1.3690 -2.4760 -1.0159
  527SOL     OW 1579   2.008   1.806   1.090  0.1824  0.4268 -0.1791
  527SOL    HW1 1580   2.034   1.784   0.994  2.0623  1.2207  1.0362
  527SOL    HW2 1581   2.088   1.811   1.151 -0.0692  1.1240  2.1538
  528SOL     OW 1582   2.561   2.773   2.786  0.1756 -0.0285  0.2516
  528SOL    HW1 1583   2.505   2.857   2.795  2.9459  0.0919  0.9159
  528SOL    HW2 1584   2.654   2.803   2.761  1.0797  1.9241  0.2531
  529SOL     OW 1585   1.241   1.368   2.589 -0.3711 -0.1489 -1.0259
  529SOL    HW1 1586   1.309   1.428   2.634 -1.3898 -0.4299  0.0953
  529SOL    HW2 1587   1.145   1.394   2.617  0.5947 -0.0650  0.4852
  530SOL     OW 1588   2.126   1.139   2.223  0.1171 -0.0659 -0.3983
  530SOL    HW1 1589   2.156   1.101   2.137  2.0646  0.6312  1.3200
  530SOL    HW2 1590   2.057   1.072   2.262  0.2647 -0.4415 -0.9596
  531SOL     OW 1591   0.218   0.997   0.171 -0.6719  0.0556 -0.1754
  531SOL    HW1 1592   0.242   1.048   0.087  2.5461  1.0720 -0.6677
  531SOL    HW2 1593   0.145   1.045   0.216 -0.4939 -2.3235 -1.7806
  532SOL     OW 1594   1.450   1.541   0.384 -0.5731  0.3912 -0.2244
  532SOL    HW1 1595   1.499   1.504   0.467 -1.5105  3.9119  2.1337
  532SOL    HW2 1596   1.349   1.532   0.390 -2.5029 -1.2594 -0.3267
  533SOL     OW 1597   0.218   0.558   2.186  0.0516 -0.1138  0.3502
  533SOL    HW1 1598   0.288   0.539   2.116 -0.8921  0.9592  1.9144
  533SOL    HW2 1599   0.270   0.560   2.277 -0.0063 -1.3294  0.1007
  534SOL     OW 1600   1.239   0.669   2.587 -0.1941  0.4520  0.0877
  534SOL    HW1 1601   1.177   0.593   2.600 -0.0476 -0.9359  0.1880
  534SOL    HW2 1602   1.195   0.746   2.539  0.3200 -1.2115  1.2224
  535SOL     OW 1603   0.488   0.606   0.321  0.5067 -0.8174  0.3230
  535SOL    HW1 1604   0.423   0.633   0.394 -0.2596 -0.7175  0.3034
  535SOL    HW2 1605   0.532   0.684   0.274  0.2430  1.9956  1.0408
  536SOL     OW 1606   0.468   0.675   3.113 -0.4370 -0.5266  0.6173
  536SOL    HW1 1607   0.505   0.731   0.074  0.0800  1.5430  1.9285
  536SOL    HW2 1608   0.532   0.684   3.034  0.3840  0.9251 -0.7694
  537SOL     OW 1609   1.467   3.025   1.474 -0.0893 -0.0556  0.3978
  537SOL    HW1 1610   1.387   3.038   1.541 -0.7208  2.2729  5.3728
  537SOL    HW2 1611   1.545   3.084   1.500 -0.2264 -1.5117  0.1038
  538SOL     OW 1612   0.334   2.707   3.065  0.2238  0.5231 -0.8285
  538SOL    HW1 1613   0.370   2.787   3.010  2.6257 -1.6032  2.0272
  538SOL    HW2 1614   0.343   2.623   3.013  0.9523 -0.8911  1.0367
  539SOL     OW 1615   2.867   1.281   1.794  0.3968  0.2758 -0.0641
  539SOL    HW1 1616   2.838   1.310   1.700 -1.4220 -0.7987  0.3005
  539SOL    HW2 1617   2.875   1.362   1.852 -1.1554 -1.0321 -1.1956
  540SOL     OW 1618   2.179   1.686   1.489 -0.2894 -0.3621  0.2485
  540SOL    HW1 1619   2.261   1.743   1.487 -1.6811  1.2839  2.2753
  540SOL    HW2 1620   2.195   1.594   1.453 -0.4461 -1.5828 -0.4261
  541SOL     OW 1621   0.630   2.064   1.681 -0.2768 -1.0312 -0.0233
  541SOL    HW1 1622   0.539   2.035   1.647 -0.2266  0.3955 -0.3449
  541SOL    HW2 1623   0.640   2.032   1.776  0.2709 -0.5720  0.5934
  542SOL     OW 1624   2.197   1.020   2.004  0.5085 -0.1904  0.4546
  542SOL    HW1 1625   2.114   1.020   1.944 -0.8786  0.8248  1.6243
  542SOL    HW2 1626   2.223   0.922   2.028  4.2813 -0.3931 -0.6432
  543SOL     OW 1627   0.995   0.514   0.709 -0.2434  0.2059  0.0503
  543SOL    HW1 1628   0.936   0.542   0.627 -1.2266  1.6726  0.0132
  543SOL    HW2 1629   0.938   0.485   0.787 -0.4912 -0.0521 -0.4669
  544SOL     OW 1630   2.034   1.929   1.394  0.2282  0.0568  0.2867
  544SOL    HW1 1631   2.106   1.979   1.346  0.0991 -0.8607  0.3159
  544SOL    HW2 1632   2.077   1.848   1.439 -0.4208 -1.6497  1.8753
  545SOL     OW 1633   1.574   1.321   1.193 -0.1384 -0.4394 -0.5504
  545SOL    HW1 1634   1.574   1.220   1.189 -0.7876  1.1231  0.1779
  545SOL    HW2 1635   1.659   1.371   1.165 -1.0703  2.0601 -0.7225
  546SOL     OW 1636   0.113   0.156   2.968 -0.2839  0.4789 -0.0651
  546SOL    HW1 1637   0.040   0.226   2.959  1.6208 -2.3310  0.6972
  546SOL    HW2 1638   0.175   0.177   3.046  2.4715 -0.3356  0.9108
  547SOL     OW 1639   2.337   0.534   0.004  0.8581 -0.2500 -0.6981
  547SOL    HW1 1640   2.239   0.561   0.032 -1.7820  0.8268 -0.9356
  547SOL    HW2 1641   2.349   0.437   3.094  0.3018  0.0644  0.3782
  548SOL     OW 1642   2.620   2.257   2.256  0.0993  0.6586 -0.0440
  548SOL    HW1 1643   2.537   2.297   2.296  0.1881 -0.1784  2.0959
  548SOL    HW2 1644   2.666   2.195   2.325  3.1923  0.0995  1.3721
  549SOL     OW 1645   2.187   2.988   0.816 -0.0152  0.4187 -0.0108
  549SOL    HW1 1646   2.272   2.964   0.754  0.4492 -3.8268 -0.7552
  549SOL    HW2 1647   2.147   2.900   0.855 -2.2249 -1.0642 -2.3769
  550SOL     OW 1648   2.363   1.343   3.022 -0.0383 -0.0821  0.1656
  550SOL    HW1 1649   2.426   1.262   3.032  0.7865  2.7585  0.0937
  550SOL    HW2 1650   2.274   1.326   3.074  0.0569 -0.2347 -1.8765
  551SOL     OW 1651   1.182   3.090   1.550  0.3047  0.2517 -0.3778
  551SOL    HW1 1652   1.136   3.006   1.514  2.3181  0.5282  2.9446
  551SOL    HW2 1653   1.136   0.061   1.514  1.2097 -0.2361 -0.4891
  552SOL     OW 1654   2.779   2.474   2.998 -0.0228 -0.2627 -0.2783
  552SOL    HW1 1655   2.815   2.521   2.916  0.4210 -0.1951 -0.3438
  552SOL    HW2 1656   2.713   2.539   3.045 -1.5230 -1.0921  0.3110
  553SOL     OW 1657   0.798   3.079   0.600  0.0673  0.2436  0.6887
  553SOL    HW1 1658   0.805   0.012   0.688  0.5352  0.7027 -0.2749
  553SOL    HW2 1659   0.739   2.996   0.601 -0.6511  1.5564  1.7622
  554SOL     OW 1660   2.081   2.200   1.598  0.1273  0.2073  0.2997
  554SOL    HW1 1661   1.991   2.161   1.633 -2.2070 -1.9439  0.7179
  554SOL    HW2 1662   2.118   2.162   1.509 -1.9569 -0.6556  0.1649
  555SOL     OW 1663   1.422   2.507   1.937  0.0658  0.1973  0.1595
  555SOL    HW1 1664   1.503   2.494   1.993 -0.3677  0.6276 -0.9682
  555SOL    HW2 1665   1.368   2.423   1.934 -0.5711 -1.8142  1.9369
  556SOL     OW 1666   1.814   1.865   0.496 -0.6208 -0.0917  0.4228
  556SOL    HW1 1667   1.818   1.861   0.597  0.6867 -1.9458 -1.8387
  556SOL    HW2 1668   1.717   1.856   0.462  1.2897  0.9024  0.0660
  557SOL     OW 1669   1.466   2.107   1.962 -0.0988  0.4460  0.2720
  557SOL    HW1 1670   1.526   2.064   1.892  0.5819 -0.3274  0.6140
  557SOL    HW2 1671   1.526   2.150   2.032 -1.3160  0.7831  0.7784
  558SOL     OW 1672   0.055   0.407   2.020  0.1927  0.1133 -0.0231
  558SOL    HW1 1673   0.127   0.351   1.972  2.7713 -2.0474 -0.6607
  558SOL    HW2 1674   0.098   0.476   2.085 -0.9428  0.1005 -0.8135
  559SOL     OW 1675   2.189   2.712   1.988 -0.2775 -0.1805 -0.0046
  559SOL    HW1 1676   2.222   2.705   1.892 -4.2637 -0.4646  0.4886
  559SOL    HW2 1677   2.271   2.697   2.050 -0.4920 -1.4789  0.2606
  560SOL     OW 1678   0.343   3.095   3.084 -0.5283 -0.0057  0.0417
  560SOL    HW1 1679   0.382   3.038   3.008 -0.2473 -0.0827 -0.4268
  560SOL    HW2 1680   0.373   0.072   3.077  0.7051  0.5428 -2.5766
  561SOL     OW 1681   1.596   1.168   0.327 -0.6663 -0.1608 -0.7093
  561SOL    HW1 1682   1.613   1.094   0.257 -0.6678 -0.9027 -0.9575
  561SOL    HW2 1683   1.503   1.156   0.365  0.2295 -1.3019  1.8674
  562SOL     OW 1684   0.844   1.182   2.426 -0.2035 -0.2889 -0.0537
  562SOL    HW1 1685   0.788   1.213   2.508 -0.0657 -1.4929  0.0121
  562SOL    HW2 1686   0.905   1.106   2.459 -0.2342 -2.9342  2.6192
  563SOL     OW 1687   1.689   2.228   2.825  0.0409 -0.1813  0.6017
  563SOL    HW1 1688   1.630   2.202   2.904 -0.0347  0.9932  1.2574
  563SOL    HW2 1689   1.677   2.328   2.805  1.2365  1.9841 -0.3739
  564SOL     OW 1690   3.065   1.960   0.545  0.7539 -0.2034 -0.1300
  564SOL    HW1 1691   0.022   2.031   0.542  1.7454  0.2418  0.8756
  564SOL    HW2 1692   2.977   1.995   0.505 -1.0009 -0.3671  1.3325
  565SOL     OW 1693   1.077   2.829   2.741 -0.3542  0.4193  0.1417
  565SOL    HW1 1694   1.071   2.775   2.829  0.0342  0.4792  0.0961
  565SOL    HW2 1695   1.178   2.849   2.722 -0.4894 -1.3705 -2.1731
  566SOL     OW 1696   1.705   2.867   2.697 -0.0591  0.6836  0.5312
  566SOL    HW1 1697   1.797   2.827   2.667  1.0879  0.0971 -1.1991
  566SOL    HW2 1698   1.713   2.960   2.739  0.1744  1.6215 -2.4873
  567SOL     OW 1699   2.485   1.148   0.984  0.0109 -0.4947  0.2895
  567SOL    HW1 1700   2.461   1.093   1.067 -0.1090  0.2194 -1.7819
  567SOL    HW2 1701   2.400   1.184   0.937  1.7454  1.6946 -0.0025
  568SOL     OW 1702   2.174   1.304   2.829 -0.0305 -0.0705  0.2659
  568SOL    HW1 1703   2.163   1.206   2.805  2.8332 -2.4091 -2.3456
  568SOL    HW2 1704   2.250   1.326   2.895 -1.2964  3.7790  2.3512
  569SOL     OW 1705   2.219   1.784   2.385  0.5263 -0.5096  0.3746
  569SOL    HW1 1706   2.316   1.756   2.379 -0.8882 -0.2393 -1.1895
  569SOL    HW2 1707   2.177   1.778   2.295  1.7175 -1.5243  3.4744
  570SOL     OW 1708   3.043   2.555   2.070 -0.4839 -0.1433  0.4430
  570SOL    HW1 1709   2.980   2.563   2.149  0.3263  1.7275 -2.8147
  570SOL    HW2 1710   3.011   2.484   2.001  1.3811  0.3094  0.7202
  571SOL     OW 1711   0.560   0.163   1.929  0.6527 -0.1005 -0.5162
  571SOL    HW1 1712   0.546   0.171   2.034 -0.0867  0.5390  2.0452
  571SOL    HW2 1713   0.641   0.217   1.889 -1.0696  1.7099 -1.1050
  572SOL     OW 1714   1.062   1.871   1.073  0.5658  0.2927 -0.3614
  572SOL    HW1 1715   1.081   1.799   1.006  2.6538  0.0005  0.6727
  572SOL    HW2 1716   1.059   1.961   1.025  1.9740  0.6288 -2.3111
  573SOL     OW 1717   1.277   0.581   0.283  0.2592 -0.0914 -0.1532
  573SOL    HW1 1718   1.215   0.627   0.349  1.9288  0.3612  2.4401
  573SOL    HW2 1719   1.258   0.616   0.191  2.4924 -1.4936  0.9795
  574SOL     OW 1720   0.538   3.049   0.295  0.6345  0.4096  0.4100
  574SOL    HW1 1721   0.570   0.016   0.244  1.7299 -3.3178 -0.1286
  574SOL    HW2 1722   0.617   2.990   0.326  0.7852 -0.1487 -0.2032
  575SOL     OW 1723   0.113   1.346   1.403  0.9386  0.0146 -0.1475
  575SOL    HW1 1724   0.149   1.377   1.492  0.8217  1.2596 -1.5974
  575SOL    HW2 1725   0.191   1.331   1.332  2.1155 -1.2543 -1.2442
  576SOL     OW 1726   2.558   0.410   1.691  0.0154 -0.2188  0.1297
  576SOL    HW1 1727   2.573   0.434   1.594 -1.8266  0.6275  0.8530
  576SOL    HW2 1728   2.477   0.357   1.704  1.1871 -0.5256 -2.2355
  577SOL     OW 1729   2.825   1.689   1.833  0.2483  0.5500 -0.0886
  577SOL    HW1 1730   2.776   1.720   1.922  0.9064 -1.8449  3.7521
  577SOL    HW2 1731   2.888   1.617   1.859 -0.4537  0.7648 -2.5600
  578SOL     OW 1732   1.299   3.021   2.152 -0.0960 -0.0592 -0.4767
  578SOL    HW1 1733   1.392   3.049   2.179 -2.3908 -0.6014 -1.7213
  578SOL    HW2 1734   1.295   2.926   2.112 -3.0736  1.5527  0.1246
  579SOL     OW 1735   2.263   1.989   2.135 -0.4303 -0.8980 -0.4294
  579SOL    HW1 1736   2.298   2.034   2.053 -1.8932  2.0248  1.2059
  579SOL    HW2 1737   2.307   2.022   2.222 -1.2056  0.5487  1.0832
  580SOL     OW 1738   1.860   1.402   2.035 -0.0896 -0.4983  0.0666
  580SOL    HW1 1739   1.958   1.369   2.022  0.1180 -0.2009 -4.1525
  580SOL    HW2 1740   1.858   1.503   2.011 -1.2704 -1.1852 -1.6355
  581SOL     OW 1741   1.614   1.126   2.399  0.3553  0.4533  0.5342
  581SOL    HW1 1742   1.612   1.160   2.305 -0.1850 -0.1527  2.9935
  581SOL    HW2 1743   1.701   1.141   2.442 -2.4072 -1.0726 -2.1850
  582SOL     OW 1744   2.977   2.334   1.895 -0.1038  0.5697  0.2458
  582SOL    HW1 1745   2.998   2.236   1.887 -1.6112  0.6036 -1.9466
  582SOL    HW2 1746   2.894   2.351   1.953 -1.6116  0.4570 -1.5648
  583SOL     OW 1747   1.745   1.193   0.858  0.6102  0.1494  0.5427
  583SOL    HW1 1748   1.690   1.141   0.787 -3.6863 -1.1880 -2.1776
  583SOL    HW2 1749   1.785   1.123   0.922  1.0636  1.6319 -1.0017
  584SOL     OW 1750   1.041   2.477   0.500 -0.1802 -0.0748 -0.1624
  584SOL    HW1 1751   0.954   2.529   0.518 -0.9190 -1.3560  0.4802
  584SOL    HW2 1752   1.074   2.483   0.400 -1.2877  1.5186 -3.8724
  585SOL     OW 1753   0.083   2.726   0.075  0.0410  0.5465  0.0778
  585SOL    HW1 1754   0.070   2.815   0.035 -1.7066 -1.4958  1.4012
  585SOL    HW2 1755   0.183   2.722   0.058 -1.5050 -0.2798  0.6051
  586SOL     OW 1756   2.371   1.008   0.514 -0.0536 -0.3913  0.3859
  586SOL    HW1 1757   2.413   0.944   0.583 -0.7480  0.4380 -0.6915
  586SOL    HW2 1758   2.440   1.084   0.489  0.3234  0.3664  0.8824
  587SOL     OW 1759   0.134   1.471   0.221  0.4896 -0.9074  0.1848
  587SOL    HW1 1760   0.057   1.532   0.233  1.7450  0.2146 -1.0205
  587SOL    HW2 1761   0.201   1.479   0.295 -1.5739  0.8695  0.4100
  588SOL     OW 1762   0.352   0.296   0.710  0.6670 -0.4017  0.3386
  588SOL    HW1 1763   0.319   0.308   0.615 -0.1284 -0.1388 -0.5946
  588SOL    HW2 1764   0.337   0.385   0.755  0.2068  0.7933  0.9205
  589SOL     OW 1765   1.474   0.116   0.751 -0.1202  0.4008 -0.2589
  589SOL    HW1 1766   1.376   0.108   0.783  1.5389  0.5017 -0.4515
  589SOL    HW2 1767   1.532   0.127   0.832 -3.2848 -0.6203 -0.2129
  590SOL     OW 1768   2.462   2.290   0.262 -0.0496 -0.9689  0.1568
  590SOL    HW1 1769   2.388   2.268   0.196 -1.0636 -0.5802  1.2470
  590SOL    HW2 1770   2.497   2.386   0.254 -0.9313  0.8398 -0.2319
  591SOL     OW 1771   0.344   2.205   2.184  0.2067 -0.1359 -0.4881
  591SOL    HW1 1772   0.254   2.225   2.232 -0.1873 -0.5390  0.8207
  591SOL    HW2 1773   0.414   2.275   2.211  1.6794 -0.0428  1.8981
  592SOL     OW 1774   0.089   1.660   2.255  0.1242 -0.1575 -0.1174
  592SOL    HW1 1775   0.021   1.704   2.194 -1.9609 -0.2108  0.0511
  592SOL    HW2 1776   0.068   1.687   2.350 -0.8470  2.5919 -2.2485
  593SOL     OW 1777   1.463   1.734   1.522  0.3160  0.1839 -0.2255
  593SOL    HW1 1778   1.388   1.809   1.526 -2.5475 -1.5038 -1.4674
  593SOL    HW2 1779   1.440   1.644   1.567 -2.0464 -0.9541 -0.9691
  594SOL     OW 1780   0.621   1.218   2.856 -0.8588 -0.1217  0.4807
  594SOL    HW1 1781   0.527   1.183   2.862  0.0606  0.9675 -0.8782
  594SOL    HW2 1782   0.655   1.257   2.943  0.7760 -1.2952  1.6453
  595SOL     OW 1783   1.635   0.767   0.830  0.2422 -0.4396 -0.4740
  595SOL    HW1 1784   1.554   0.729   0.881  3.3132 -0.1672  3.0467
  595SOL    HW2 1785   1.684   0.819   0.901  0.3733  0.5260 -1.0539
  596SOL     OW 1786   0.376   1.090   1.175  0.3850 -0.1859  0.0895
  596SOL    HW1 1787   0.476   1.098   1.175 -0.7623  0.2139 -1.9267
  596SOL    HW2 1788   0.327   1.177   1.161  0.1851 -1.1993 -0.9040
  597SOL     OW 1789   0.551   2.487   2.178  0.4539  0.0863  0.1960
  597SOL    HW1 1790   0.624   2.423   2.206 -2.0924 -1.1914  0.6816
  597SOL    HW2 1791   0.569   2.515   2.085 -0.9138 -0.3460  2.8483
  598SOL     OW 1792   2.373   2.351   2.351  0.3177  0.2513  0.3905
  598SOL    HW1 1793   2.281   2.398   2.345  0.4894 -0.7859 -1.0435
  598SOL    HW2 1794   2.445   2.415   2.375 -1.7257 -1.6617  0.2755
  599SOL     OW 1795   1.351   1.197   0.454 -0.3805 -0.1987  0.1426
  599SOL    HW1 1796   1.259   1.244   0.448 -0.2413  1.9154  0.8141
  599SOL    HW2 1797   1.388   1.215   0.546  0.9388 -0.7236 -0.3669
  600SOL     OW 1798   1.605   0.497   0.499  0.0936  0.1199 -0.2844
  600SOL    HW1 1799   1.613   0.404   0.533 -0.1740 -0.1995  0.0568
  600SOL    HW2 1800   1.504   0.516   0.515 -2.8727  0.8296 -1.0210
  601SOL     OW 1801   0.489   0.417   1.668  0.1314  0.1400 -0.3608
  601SOL    HW1 1802   0.391   0.397   1.676 -0.1828 -1.8519  1.5151
  601SOL    HW2 1803   0.505   0.516   1.681  1.6583 -1.4536  0.9832
  602SOL     OW 1804   0.543   2.312   0.683 -0.4937  0.5938 -0.2195
  602SOL    HW1 1805   0.621   2.306   0.749  0.6920 -1.1854 -1.8379
  602SOL    HW2 1806   0.565   2.374   0.608 -1.5827 -1.4412  2.7752
  603SOL     OW 1807   0.973   2.878   2.477  0.4428  0.2334 -0.2330
  603SOL    HW1 1808   0.989   2.836   2.567  0.8641  0.1523 -0.2662
  603SOL    HW2 1809   1.058   2.920   2.447 -0.8796 -3.3013  1.2290
  604SOL     OW 1810   0.747   2.474   0.243 -0.4516  0.2338  0.2152
  604SOL    HW1 1811   0.845   2.476   0.255 -0.5498 -1.6946 -0.3161
  604SOL    HW2 1812   0.709   2.488   0.150  0.7336  3.7906  3.0479
  605SOL     OW 1813   1.676   1.469   1.774  0.1816  0.9701 -0.2360
  605SOL    HW1 1814   1.707   1.532   1.848  1.5270  1.7727  0.8501
  605SOL    HW2 1815   1.705   1.376   1.808  2.2659  0.1848 -2.2373
  606SOL     OW 1816   0.920   1.209   2.808  0.7435  0.2243 -0.3796
  606SOL    HW1 1817   0.823   1.218   2.840 -3.6212  2.8590  3.7305
  606SOL    HW2 1818   0.951   1.299   2.770  0.2392 -0.1660  2.0103
  607SOL     OW 1819   0.898   0.854   1.099 -0.3235  0.1422  0.4705
  607SOL    HW1 1820   0.804   0.832   1.135 -2.3073 -1.0481 -3.0369
  607SOL    HW2 1821   0.948   0.912   1.170  0.0902  0.7794  0.0218
  608SOL     OW 1822   2.760   2.396   2.032  0.0263 -0.1264 -0.7789
  608SOL    HW1 1823   2.699   2.468   1.989  3.2452  2.1999 -2.2555
  608SOL    HW2 1824   2.703   2.338   2.094  0.7128 -0.9253  0.6881
  609SOL     OW 1825   2.281   0.019   0.037 -0.5217  0.0442 -0.1883
  609SOL    HW1 1826   2.255   0.073   0.118 -2.0899  3.6898 -4.3170
  609SOL    HW2 1827   2.256   3.034   0.040  0.4404  1.5794 -2.5045
  610SOL     OW 1828   0.400   2.383   1.825  0.1732  0.1011 -0.4086
  610SOL    HW1 1829   0.441   2.432   1.902  3.4683  1.0865  0.2245
  610SOL    HW2 1830   0.433   2.417   1.735  1.2797 -0.0830 -3.3217
  611SOL     OW 1831   1.451   1.559   1.063 -0.2402 -0.2894  0.0948
  611SOL    HW1 1832   1.395   1.610   1.131 -1.2200  0.2521  1.8828
  611SOL    HW2 1833   1.491   1.470   1.101  1.0903  0.2446  2.7443
  612SOL     OW 1834   0.546   0.191   2.209 -0.3052  0.2572  0.1758
  612SOL    HW1 1835   0.549   0.288   2.226 -3.3520 -2.6607 -3.1446
  612SOL    HW2 1836   0.628   0.146   2.243 -2.2707  2.2349  0.4150
  613SOL     OW 1837   2.644   1.105   0.225 -0.1507  0.2030 -0.2354
  613SOL    HW1 1838   2.595   1.126   0.313 -1.4386 -1.3626  1.1219
  613SOL    HW2 1839   2.734   1.065   0.248  1.4805 -1.7658  1.3341
  614SOL     OW 1840   1.795   0.159   1.855  0.0508 -0.4190  0.6356
  614SOL    HW1 1841   1.865   0.098   1.804 -0.8653 -0.7329  0.5644
  614SOL    HW2 1842   1.833   0.249   1.884 -0.1836 -0.6120 -2.3534
  615SOL     OW 1843   0.857   1.273   1.555  0.0197 -0.8222  0.3787
  615SOL    HW1 1844   0.889   1.369   1.575 -1.0820  0.7594 -1.0607
  615SOL    HW2 1845   0.810   1.262   1.466  0.7443  1.1912 -0.3589
  616SOL     OW 1846   1.674   1.968   0.003  0.0408 -0.1431  0.1746
  616SOL    HW1 1847   1.741   1.934   3.048  0.9851  1.1908  0.7282
  616SOL    HW2 1848   1.695   1.911   0.086  1.5386  2.1435 -0.8633
  617SOL     OW 1849   2.297   3.042   0.436  0.3003  0.5785  0.2592
  617SOL    HW1 1850   2.209   2.999   0.470  0.5255  1.1943  0.2318
  617SOL    HW2 1851   2.376   3.020   0.496  1.1346 -0.6864  0.3729
  618SOL     OW 1852   0.700   0.864   2.471 -0.1757 -0.1264  0.3943
  618SOL    HW1 1853   0.724   0.886   2.566 -0.3886 -0.0423 -1.5652
  618SOL    HW2 1854   0.621   0.921   2.438  1.0019  1.6346 -0.8139
  619SOL     OW 1855   2.535   1.434   0.751 -0.1005  0.3636 -0.4888
  619SOL    HW1 1856   2.597   1.355   0.751  2.9646  1.4654  1.4690
  619SOL    HW2 1857   2.493   1.449   0.657 -2.0984  1.8184 -0.0803
  620SOL     OW 1858   2.228   2.681   2.965  1.0967 -0.2418  0.3767
  620SOL    HW1 1859   2.155   2.610   2.945 -1.3747 -2.3783  0.5402
  620SOL    HW2 1860   2.252   2.726   2.876 -0.4305  1.8049  0.6868
  621SOL     OW 1861   2.639   1.404   2.947  0.7105 -0.0864  0.8164
  621SOL    HW1 1862   2.574   1.416   3.026  0.2923 -1.0999  2.2067
  621SOL    HW2 1863   2.723   1.461   2.955 -0.4076 -0.7327 -0.0624
  622SOL     OW 1864   1.353   2.445   2.280  0.2721 -0.1303 -0.1642
  622SOL    HW1 1865   1.364   2.543   2.296  0.5481 -2.5999 -1.5225
  622SOL    HW2 1866   1.423   2.390   2.331 -1.5014  0.5353 -0.5356
  623SOL     OW 1867   0.750   1.652   0.316 -0.0146  0.2550 -0.0512
  623SOL    HW1 1868   0.773   1.722   0.385  0.4418 -0.0908  1.9171
  623SOL    HW2 1869   0.673   1.677   0.255 -0.5130 -1.5039 -2.8675
  624SOL     OW 1870   0.368   0.284   3.079  0.3537 -0.1333  0.4852
  624SOL    HW1 1871   0.416   0.315   0.046  1.1957 -0.3320 -0.8702
  624SOL    HW2 1872   0.387   0.348   3.006 -0.0810 -1.3661  0.5579
  625SOL     OW 1873   0.595   1.659   0.615 -0.3958 -0.0528 -0.1385
  625SOL    HW1 1874   0.532   1.718   0.555  1.3832  3.0374  0.0514
  625SOL    HW2 1875   0.665   1.607   0.562  1.3371 -0.3814 -3.2636
  626SOL     OW 1876   2.789   2.866   2.711 -1.3043  0.2426  0.3805
  626SOL    HW1 1877   2.774   2.886   2.609  0.3689  0.1077 -3.2118
  626SOL    HW2 1878   2.819   2.951   2.758 -0.0585 -0.6337 -3.5380
  627SOL     OW 1879   1.384   1.552   2.789 -0.2948  0.2634  0.1496
  627SOL    HW1 1880   1.473   1.604   2.804  1.4716 -0.3182 -2.5084
  627SOL    HW2 1881   1.353   1.499   2.873 -1.1089 -0.5193  1.2562
  628SOL     OW 1882   0.387   0.486   2.483  0.2535 -0.3598 -0.2839
  628SOL    HW1 1883   0.437   0.465   2.394 -0.1810  2.5090 -1.2270
  628SOL    HW2 1884   0.452   0.519   2.554 -1.3744  1.6927  0.3341
  629SOL     OW 1885   0.373   2.871   1.961  0.0416  0.1403 -0.4724
  629SOL    HW1 1886   0.275   2.899   1.959  0.4642 -0.3335 -0.8038
  629SOL    HW2 1887   0.407   2.865   2.054  1.6389  2.8706 -0.4666
  630SOL     OW 1888   1.736   1.205   1.820  0.4282 -0.0227  0.5966
  630SOL    HW1 1889   1.766   1.189   1.725 -1.3142 -2.8728 -0.3292
  630SOL    HW2 1890   1.807   1.163   1.881  0.0111 -0.6270  0.1531
  631SOL     OW 1891   2.183   0.864   0.356  0.2108  0.0513  0.1042
  631SOL    HW1 1892   2.251   0.807   0.309  1.3660 -0.7944 -0.8494
  631SOL    HW2 1893   2.230   0.923   0.425 -0.4956  1.2504 -0.9437
  632SOL     OW 1894   2.297   0.332   2.055 -0.1801 -0.3363  0.8660
  632SOL    HW1 1895   2.352   0.360   2.134  0.3848  1.2637 -0.0372
  632SOL    HW2 1896   2.205   0.298   2.090 -0.6352 -1.4621 -1.4493
  633SOL     OW 1897   0.721   2.813   0.299  0.0165 -0.1216 -0.5478
  633SOL    HW1 1898   0.820   2.777   0.295  1.2193  1.8358  0.5384
  633SOL    HW2 1899   0.658   2.758   0.240  2.2435  1.8977 -2.5177
  634SOL     OW 1900   1.417   2.549   2.680  0.4848 -0.4612  0.1245
  634SOL    HW1 1901   1.330   2.508   2.647 -1.2244 -2.1186 -1.8131
  634SOL    HW2 1902   1.471   2.595   2.610 -2.6018 -1.5495  2.1781
  635SOL     OW 1903   2.404   0.272   3.029  0.3556  0.0705 -0.5219
  635SOL    HW1 1904   2.498   0.251   3.009 -1.6543 -0.0032  1.0307
  635SOL    HW2 1905   2.365   0.211   3.096 -1.6175  3.0662 -2.6134
  636SOL     OW 1906   0.708   1.027   0.660  0.0980 -0.6544  0.1830
  636SOL    HW1 1907   0.610   1.003   0.682  0.5893 -0.3959 -1.1100
  636SOL    HW2 1908   0.775   0.967   0.700  1.4900  1.4091 -2.7528
  637SOL     OW 1909   0.090   2.121   0.853  0.1703 -0.0484  0.0329
  637SOL    HW1 1910   0.157   2.128   0.930 -0.7644  1.0677 -1.8786
  637SOL    HW2 1911   0.132   2.131   0.767 -1.7008 -1.6074  0.7259
  638SOL     OW 1912   0.759   0.232   2.945  0.4352  0.4331 -0.0026
  638SOL    HW1 1913   0.766   0.141   2.896 -0.3972  0.5783 -2.0937
  638SOL    HW2 1914   0.787   0.225   3.045 -2.7408 -2.0520  0.0427
  639SOL     OW 1915   1.560   1.820   0.412 -0.0634  0.4458  0.2228
  639SOL    HW1 1916   1.509   1.731   0.426 -0.3672 -3.4452 -1.6494
  639SOL    HW2 1917   1.499   1.899   0.408 -0.9525 -0.0337  1.6034
  640SOL     OW 1918   1.742   2.606   0.865 -0.2264  0.2919 -0.5621
  640SOL    HW1 1919   1.713   2.515   0.831 -0.0321 -2.5883 -0.2028
  640SOL    HW2 1920   1.674   2.677   0.840  0.2335  2.5448  1.8749
  641SOL     OW 1921   0.020   2.907   0.372 -1.0517 -0.7657 -0.8143
  641SOL    HW1 1922   0.091   2.958   0.318 -0.7735  2.1802  0.0182
  641SOL    HW2 1923   0.021   2.808   0.350 -1.6843  0.5359  0.6223
  642SOL     OW 1924   0.710   0.313   1.747 -0.2115 -0.1569  0.2952
  642SOL    HW1 1925   0.620   0.346   1.709  0.7128  0.2273  2.4006
  642SOL    HW2 1926   0.748   0.378   1.818  0.4755  1.8493 -0.3488
  643SOL     OW 1927   0.597   2.035   2.167  0.7064  0.1401  0.7982
  643SOL    HW1 1928   0.497   2.050   2.198 -2.5073  2.3846  1.0642
  643SOL    HW2 1929   0.601   1.994   2.075  0.7166 -1.3465 -0.6427
  644SOL     OW 1930   0.631   2.854   0.557 -0.1704 -0.1085 -0.1881
  644SOL    HW1 1931   0.540   2.807   0.578 -0.6358  0.3168  0.7999
  644SOL    HW2 1932   0.663   2.840   0.458 -1.0690  0.1332  0.9560
  645SOL     OW 1933   0.993   1.939   0.228  0.2218  0.7787  0.4373
  645SOL    HW1 1934   1.045   2.023   0.219 -3.5180 -1.7592  0.1595
  645SOL    HW2 1935   1.058   1.863   0.221  1.4103  3.4993 -2.5443
  646SOL     OW 1936   0.391   1.370   0.093 -0.2380 -0.4012  0.1860
  646SOL    HW1 1937   0.408   1.288   0.153 -0.5930 -1.9329  0.7913
  646SOL    HW2 1938   0.372   1.454   0.148 -1.0393  0.9615  0.5463
  647SOL     OW 1939   1.022   0.129   1.029  0.1616 -0.2960  0.3418
  647SOL    HW1 1940   1.015   0.222   1.063 -0.8617 -1.0351 -0.4032
  647SOL    HW2 1941   1.030   0.058   1.105  0.3317 -0.8642  1.7676
  648SOL     OW 1942   2.763   0.111   1.796 -0.2975  0.1549  0.2481
  648SOL    HW1 1943   2.780   0.207   1.815 -1.1264 -3.1291 -0.4435
  648SOL    HW2 1944   2.814   0.059   1.865 -1.9761 -0.2091 -3.5543
  649SOL     OW 1945   0.629   2.047   2.758 -0.8603 -0.4857  0.9896
  649SOL    HW1 1946   0.693   2.077   2.688  0.3625 -4.1710  1.9650
  649SOL    HW2 1947   0.659   2.056   2.858  2.0205 -0.7261  2.3382
  650SOL     OW 1948   0.234   1.813   1.707 -0.0056 -0.2132  0.2054
  650SOL    HW1 1949   0.267   1.910   1.708 -1.0214 -0.2081 -0.8333
  650SOL    HW2 1950   0.316   1.752   1.727  0.3002 -0.8951  1.7182
  651SOL     OW 1951   0.883   0.257   0.068  0.1736 -0.4511 -0.1468
  651SOL    HW1 1952   0.983   0.254   0.078 -2.5151  1.2916 -1.7896
  651SOL    HW2 1953   0.851   0.332   0.129  1.6522  0.4010 -2.3571
  652SOL     OW 1954   2.695   2.145   0.178  0.1438 -0.0128 -0.4704
  652SOL    HW1 1955   2.668   2.056   0.133 -0.1587 -0.4455 -0.4305
  652SOL    HW2 1956   2.609   2.183   0.219 -0.6538  0.9404 -1.1341
  653SOL     OW 1957   0.080   0.251   0.940 -0.4191  0.0700 -0.3903
  653SOL    HW1 1958   0.047   0.155   0.922 -1.0482 -1.5518 -1.4229
  653SOL    HW2 1959   0.066   0.312   0.856  1.2716  1.0634  0.7566
  654SOL     OW 1960   1.822   0.163   2.559  0.2016 -0.1589 -0.6416
  654SOL    HW1 1961   1.753   0.235   2.542  1.8437 -1.6685 -1.6631
  654SOL    HW2 1962   1.810   0.081   2.496  0.1836 -2.8969 -0.9499
  655SOL     OW 1963   0.661   2.650   1.215  0.2620 -0.1338  0.0524
  655SOL    HW1 1964   0.694   2.572   1.274  0.3411  1.8489 -1.3035
  655SOL    HW2 1965   0.566   2.642   1.177 -1.6882 -1.7219 -0.1559
  656SOL     OW 1966   0.193   0.447   1.613 -0.5031 -0.2058  0.3765
  656SOL    HW1 1967   0.099   0.441   1.655 -0.4664  0.1070  0.7162
  656SOL    HW2 1968   0.201   0.370   1.544  1.0955  1.7212  1.2146
  657SOL     OW 1969   2.524   0.613   1.916 -0.1111  0.3401 -0.4191
  657SOL    HW1 1970   2.584   0.609   2.002  0.9985 -0.9368  0.0939
  657SOL    HW2 1971   2.526   0.527   1.862 -1.7972  3.1149 -2.7631
  658SOL     OW 1972   2.306   1.540   1.154 -0.0801 -0.3395  0.2645
  658SOL    HW1 1973   2.396   1.585   1.144  1.2202  0.3826  1.2269
  658SOL    HW2 1974   2.282   1.513   1.061  1.4447  0.9036 -1.4027
  659SOL     OW 1975   2.436   3.063   2.874 -0.0978  0.4861  0.0416
  659SOL    HW1 1976   2.376   3.077   2.956  1.5179  1.0117 -0.9430
  659SOL    HW2 1977   2.516   0.008   2.886  2.1982 -2.6603  1.0309
  660SOL     OW 1978   1.328   1.420   3.003 -0.1025  0.2927 -0.3864
  660SOL    HW1 1979   1.342   1.465   3.095  1.0762  0.6715  0.4588
  660SOL    HW2 1980   1.374   1.327   2.993  1.7672 -2.7601 -1.2707
  661SOL     OW 1981   2.826   2.489   0.930  0.0209  0.1061  0.4473
  661SOL    HW1 1982   2.869   2.398   0.909 -1.1054  0.8077 -0.3348
  661SOL    HW2 1983   2.724   2.478   0.928 -1.5991 -1.2217 -1.2321
  662SOL     OW 1984   0.610   0.826   0.200  0.1366  0.1017 -0.0280
  662SOL    HW1 1985   0.700   0.782   0.207  0.3525 -1.5522 -2.2701
  662SOL    HW2 1986   0.607   0.902   0.274 -0.6003  1.1023  1.9504
  663SOL     OW 1987   1.105   2.160   0.138  0.0487  0.5882  0.0318
  663SOL    HW1 1988   1.174   2.233   0.120 -1.5808 -0.7468  3.1328
  663SOL    HW2 1989   1.021   2.178   0.087 -0.7919 -1.0564  0.6905
  664SOL     OW 1990   0.719   2.303   1.594  0.2521  0.4374 -0.4610
  664SOL    HW1 1991   0.626   2.340   1.611 -4.4119 -0.8923  1.2226
  664SOL    HW2 1992   0.709   2.200   1.595  1.7013  0.6177  0.4246
  665SOL     OW 1993   2.310   2.178   1.756  0.0974  0.4309 -0.2491
  665SOL    HW1 1994   2.328   2.259   1.814  1.7566 -2.1462 -0.7870
  665SOL    HW2 1995   2.224   2.195   1.704  0.5979 -1.8232  2.8537
  666SOL     OW 1996   0.432   2.792   0.199  0.1508  0.4306  0.0650
  666SOL    HW1 1997   0.429   2.889   0.227  1.0700 -1.0965 -2.2075
  666SOL    HW2 1998   0.398   2.785   0.101 -1.4759 -0.2176 -0.1562
  667SOL     OW 1999   2.121   1.707   1.756  0.0340  0.4734  0.4767
  667SOL    HW1 2000   2.138   1.684   1.659  2.3848  1.7107 -2.3486
  667SOL    HW2 2001   2.037   1.767   1.773 -1.4556  3.3868  1.3715
  668SOL     OW 2002   0.283   0.904   2.455  0.1039 -0.0502 -0.5368
  668SOL    HW1 2003   0.259   1.004   2.471  0.4609 -0.4043 -0.6486
  668SOL    HW2 2004   0.331   0.888   2.367 -0.8581 -0.4076  0.8724
  669SOL     OW 2005   1.906   2.199   2.306  0.0891 -0.0608 -0.1086
  669SOL    HW1 2006   1.841   2.170   2.372  1.8008 -2.8552 -1.6915
  669SOL    HW2 2007   1.947   2.109   2.260 -0.3706 -1.6305 -1.3437
  670SOL     OW 2008   2.303   2.250   0.047 -0.5988 -0.3292 -0.5315
  670SOL    HW1 2009   2.311   2.173   3.098  0.6741  1.5885  0.1715
  670SOL    HW2 2010   2.212   2.289   0.046  3.7130 -1.0308 -0.4418
  671SOL     OW 2011   0.647   1.081   1.121 -0.0984  0.2091  0.5998
  671SOL    HW1 2012   0.723   1.128   1.169  0.5301 -1.2920  0.4241
  671SOL    HW2 2013   0.653   0.980   1.137  0.0130 -0.2184 -0.7850
  672SOL     OW 2014   2.526   0.930   2.211 -0.3883 -0.3643  0.0162
  672SOL    HW1 2015   2.569   0.996   2.143 -0.2650 -0.3810  0.2462
  672SOL    HW2 2016   2.543   0.968   2.306  2.8511 -2.2845  1.4004
  673SOL     OW 2017   2.718   2.022   2.366 -0.0529  0.1066 -0.1145
  673SOL    HW1 2018   2.678   1.992   2.280  0.6464  1.1777 -1.6111
  673SOL    HW2 2019   2.706   1.948   2.433  2.1931  2.0489 -0.6580
  674SOL     OW 2020   1.306   2.696   2.396  0.5252 -0.0837 -0.1252
  674SOL    HW1 2021   1.326   2.722   2.493 -1.6368  0.5714 -1.0038
  674SOL    HW2 2022   1.313   2.771   2.332  1.4612  2.6242 -3.4020
  675SOL     OW 2023   0.705   0.935   1.444  0.0547  0.1905 -0.4236
  675SOL    HW1 2024   0.738   0.875   1.515  0.7868  0.7090  1.1092
  675SOL    HW2 2025   0.672   1.026   1.483 -1.9918  3.0521  1.9103
  676SOL     OW 2026   1.919   1.018   0.363 -0.1224 -0.3819  0.4600
  676SOL    HW1 2027   1.855   1.036   0.439  2.1773 -2.0136  0.7870
  676SOL    HW2 2028   2.015   1.007   0.401 -0.4382 -1.1893 -2.3248
  677SOL     OW 2029   2.887   1.520   2.926  0.1008  0.0023  0.3566
  677SOL    HW1 2030   2.913   1.461   2.848  2.1042  1.7402  1.3325
  677SOL    HW2 2031   2.970   1.551   2.977 -1.8039  0.5310 -0.7506
  678SOL     OW 2032   0.047   2.359   1.193  0.1770  0.6474 -0.3309
  678SOL    HW1 2033   3.078   2.416   1.206 -0.5774  1.0193  2.3715
  678SOL    HW2 2034   0.119   2.413   1.143  1.0610  2.5253 -0.5237
  679SOL     OW 2035   1.961   2.484   0.623  0.3128  0.0762  0.5605
  679SOL    HW1 2036   1.991   2.417   0.695  0.9045 -1.1982  1.7339
  679SOL    HW2 2037   1.977   2.578   0.657 -0.0545 -1.0639 -3.4907
  680SOL     OW 2038   0.338   2.607   2.317  0.2957 -0.1252 -0.0149
  680SOL    HW1 2039   0.361   2.692   2.367 -0.0801 -3.1294 -1.3063
  680SOL    HW2 2040   0.423   2.568   2.286 -1.5842  2.0043 -0.9252
  681SOL     OW 2041   3.010   1.198   1.437  0.0632  0.1613  0.0224
  681SOL    HW1 2042   3.092   1.250   1.414 -3.8346 -0.9693 -1.0973
  681SOL    HW2 2043   2.944   1.252   1.492 -3.1304 -0.9368 -1.1756
  682SOL     OW 2044   0.401   1.834   1.315 -0.2414 -0.1103 -0.1212
  682SOL    HW1 2045   0.500   1.793   1.314  4.3522 -0.9128  3.4479
  682SOL    HW2 2046   0.332   1.765   1.277 -1.6518 -1.2714  2.1556
  683SOL     OW 2047   2.635   1.506   1.386  0.5953 -0.2871  0.0674
  683SOL    HW1 2048   2.635   1.451   1.292 -0.2313 -4.3252 -2.9565
  683SOL    HW2 2049   2.661   1.602   1.369  0.3208  0.1771  1.3041
  684SOL     OW 2050   2.893   1.446   0.120  0.4087  0.5972  0.2545
  684SOL    HW1 2051   2.973   1.383   0.093  2.2464 -1.4594 -0.9800
  684SOL    HW2 2052   2.926   1.540   0.121 -0.4475 -0.6697 -0.5321
  685SOL     OW 2053   1.008   0.934   0.214 -0.7109  0.2288  0.1728
  685SOL    HW1 2054   0.956   0.985   0.145  0.0243  0.2297  0.0913
  685SOL    HW2 2055   1.108   0.924   0.187  4.3307 -1.1218  1.2284
  686SOL     OW 2056   0.309   0.242   1.067  1.0126  0.0761 -0.2101
  686SOL    HW1 2057   0.279   0.272   1.162 -0.9375  2.7061  4.0800
  686SOL    HW2 2058   0.227   0.240   1.004  2.2228 -1.5535 -0.4098
  687SOL     OW 2059   1.097   1.262   2.322 -0.6217  0.1174 -0.0440
  687SOL    HW1 2060   1.006   1.220   2.343  1.5289  2.0593 -0.2950
  687SOL    HW2 2061   1.145   1.271   2.405  2.3767 -0.6997 -1.5582
  688SOL     OW 2062   0.668   1.745   1.330  0.2881 -0.0439 -0.7974
  688SOL    HW1 2063   0.764   1.781   1.319  0.6397 -0.5708 -1.4946
  688SOL    HW2 2064   0.649   1.700   1.423 -0.5938 -0.1152  0.1976
  689SOL     OW 2065   1.700   0.851   1.190  0.2894 -0.1216  0.1754
  689SOL    HW1 2066   1.635   0.773   1.194  1.5849  1.7075 -0.2082
  689SOL    HW2 2067   1.778   0.823   1.245 -1.0777  0.8561 -1.6819
  690SOL     OW 2068   2.753   0.946   1.169  0.2051 -0.3967  0.3157
  690SOL    HW1 2069   2.792   1.039   1.185  0.5208  2.3782 -3.1316
  690SOL    HW2 2070   2.806   0.880   1.227  1.4988 -0.7629  0.7411
  691SOL     OW 2071   0.273   2.007   2.013  0.8257 -0.1264 -0.3692
  691SOL    HW1 2072   0.304   2.078   2.078 -1.8317 -1.1668 -0.1654
  691SOL    HW2 2073   0.257   2.043   1.916  1.3867  2.0744 -0.7914
  692SOL     OW 2074   1.651   3.012   1.041  0.2186  0.3596 -0.8831
  692SOL    HW1 2075   1.684   3.106   1.011  2.3914  1.1487 -1.4724
  692SOL    HW2 2076   1.718   2.936   1.018  0.5448 -3.0944 -4.7187
  693SOL     OW 2077   0.091   1.765   2.508  0.3929  0.2718  0.2941
  693SOL    HW1 2078   0.131   1.855   2.488  2.1246 -2.5870 -0.2102
  693SOL    HW2 2079   3.109   1.773   2.543 -1.2628  0.7491  1.2148
  694SOL     OW 2080   2.216   0.629   1.048 -0.3661  0.1697  0.4398
  694SOL    HW1 2081   2.313   0.641   1.083  0.2117 -0.3025  0.4973
  694SOL    HW2 2082   2.153   0.685   1.107  1.4210  2.4003  0.2623
  695SOL     OW 2083   1.061   1.065   1.550 -0.2025  0.4558  0.7508
  695SOL    HW1 2084   0.994   1.136   1.562  1.5322 -2.6245 -2.4465
  695SOL    HW2 2085   1.062   1.049   1.448 -2.1534  1.5072 -0.3101
  696SOL     OW 2086   1.583   2.995   0.626  0.3380 -0.1753 -0.2084
  696SOL    HW1 2087   1.559   3.075   0.684  3.1818 -2.4192  1.5010
  696SOL    HW2 2088   1.682   3.006   0.605  0.7845  5.0151 -0.0929
  697SOL     OW 2089   0.808   0.076   0.865 -0.1630 -0.6067 -0.3457
  697SOL    HW1 2090   0.731   0.126   0.904  0.0973 -1.4468 -0.1675
  697SOL    HW2 2091   0.899   0.090   0.916  0.9523 -1.8201  2.7107
  698SOL     OW 2092   1.783   1.610   2.363  0.0130  0.2513 -0.7323
  698SOL    HW1 2093   1.705   1.603   2.298  1.1208 -0.5953 -0.3406
  698SOL    HW2 2094   1.827   1.521   2.370 -0.7020 -0.6485 -0.1772
  699SOL     OW 2095   1.341   0.899   1.207 -0.0693  0.2154 -0.0846
  699SOL    HW1 2096   1.368   0.985   1.164  2.8571 -2.7350  0.6752
  699SOL    HW2 2097   1.353   0.814   1.150  0.6807 -0.7445 -0.2962
  700SOL     OW 2098   1.217   3.038   0.387  0.2131 -0.6469 -0.1702
  700SOL    HW1 2099   1.206   3.041   0.285  0.9003  0.4147  3.7513
  700SOL    HW2 2100   1.306   2.995   0.408  1.7389 -0.2035  0.4013
  701SOL     OW 2101   2.381   2.604   2.630 -0.0512  0.2482 -0.3105
  701SOL    HW1 2102   2.364   2.501   2.649 -1.0110 -1.4888  3.3746
  701SOL    HW2 2103   2.445   2.639   2.702  0.8074 -0.7036 -0.8767
  702SOL     OW 2104   1.054   0.264   0.432  0.0268  0.5599  0.0466
  702SOL    HW1 2105   1.133   0.253   0.367 -1.2343  2.1831 -1.5221
  702SOL    HW2 2106   1.078   0.310   0.521  2.7377 -1.5513  2.4581
  703SOL     OW 2107   2.653   0.411   2.105 -0.6317  0.1378 -0.2922
  703SOL    HW1 2108   2.592   0.435   2.183 -1.4554 -0.8924  0.9027
  703SOL    HW2 2109   2.753   0.401   2.125  1.7281 -2.0151  0.7295
  704SOL     OW 2110   2.997   1.869   0.866 -0.0710  0.0591  0.1903
  704SOL    HW1 2111   3.000   1.818   0.781 -2.3484  1.3264 -0.2209
  704SOL    HW2 2112   3.061   1.950   0.864  0.3386 -1.1950  0.2223
  705SOL     OW 2113   2.756   3.009   2.105  0.3025 -0.2615  0.7482
  705SOL    HW1 2114   2.826   3.082   2.077  2.2776  0.8739  0.2454
  705SOL    HW2 2115   2.669   3.058   2.128 -1.5531 -0.3895 -2.6885
  706SOL     OW 2116   2.546   2.489   0.913  0.6239  0.3631 -0.5743
  706SOL    HW1 2117   2.565   2.432   0.833  0.8132 -1.6492  0.0891
  706SOL    HW2 2118   2.474   2.438   0.971  1.0486 -2.0220  2.1213
  707SOL     OW 2119   0.868   2.254   1.812 -0.2746  0.0266  0.4451
  707SOL    HW1 2120   0.960   2.304   1.817  2.7252  0.4147 -2.3282
  707SOL    HW2 2121   0.824   2.266   1.716 -0.2564 -0.2602 -2.0472
  708SOL     OW 2122   0.099   2.884   2.311  0.1443 -0.1732 -0.4468
  708SOL    HW1 2123   0.135   2.827   2.234 -0.8103  0.8472  0.6610
  708SOL    HW2 2124   0.179   2.921   2.359  0.5329  0.9831 -0.4119
  709SOL     OW 2125   1.994   2.890   2.086 -0.1489  0.4095 -0.3205
  709SOL    HW1 2126   2.074   2.840   2.050  1.2727 -0.6715  2.7187
  709SOL    HW2 2127   1.907   2.877   2.031  1.3326  1.7171  0.9813
  710SOL     OW 2128   1.627   0.796   2.538 -0.1068  0.5187 -0.7063
  710SOL    HW1 2129   1.718   0.777   2.577 -0.6198  0.4305  0.5202
  710SOL    HW2 2130   1.620   0.885   2.489  2.3774  3.5809 -0.6951
  711SOL     OW 2131   0.778   1.877   0.074  0.4074 -0.2436  0.5010
  711SOL    HW1 2132   0.866   1.891   0.123 -1.1622  1.0451 -2.2973
  711SOL    HW2 2133   0.782   1.800   0.009  2.2383 -0.4367 -2.0052
  712SOL     OW 2134   0.520   2.513   2.660 -0.0404 -0.2491  0.2765
  712SOL    HW1 2135   0.614   2.486   2.647 -1.1548  0.1775  1.4189
  712SOL    HW2 2136   0.456   2.434   2.651  0.3725  0.5454  1.1387
  713SOL     OW 2137   1.601   1.643   3.074  0.2214 -0.2462 -0.8596
  713SOL    HW1 2138   1.615   1.698   2.991 -3.5900 -1.1481  0.2134
  713SOL    HW2 2139   1.653   1.671   0.042 -1.0603  0.7773 -0.2310
  714SOL     OW 2140   1.112   1.459   1.656 -0.3157 -0.3492 -0.0090
  714SOL    HW1 2141   1.096   1.543   1.600 -0.5438  2.3689  1.0720
  714SOL    HW2 2142   1.195   1.405   1.629  1.4592  2.2445  0.7203
  715SOL     OW 2143   1.744   0.398   2.859 -0.2782  0.4822  0.1557
  715SOL    HW1 2144   1.747   0.404   2.758  0.8326  0.3678 -1.1545
  715SOL    HW2 2145   1.839   0.392   2.896 -0.8057 -1.4423  0.5697
  716SOL     OW 2146   2.995   2.591   2.330  0.3608 -0.6774  0.1386
  716SOL    HW1 2147   3.018   2.494   2.350 -0.5936  2.7935  1.2259
  716SOL    HW2 2148   3.085   2.632   2.306 -1.7063 -2.4880  2.3528
  717SOL     OW 2149   2.859   0.533   1.006 -0.0911 -0.0531  0.1667
  717SOL    HW1 2150   2.886   0.614   1.061  1.6653 -0.0942 -2.5666
  717SOL    HW2 2151   2.761   0.510   1.020  1.0594  1.9089 -1.9612
  718SOL     OW 2152   0.683   1.595   2.573 -0.3858 -0.2443 -0.3950
  718SOL    HW1 2153   0.696   1.644   2.661  0.3806  0.4774 -0.1291
  718SOL    HW2 2154   0.750   1.635   2.504  0.1833  2.2898 -0.4294
  719SOL     OW 2155   1.930   1.061   3.003  0.2250 -0.1939 -0.2480
  719SOL    HW1 2156   1.927   0.984   2.932  0.5940  1.4943 -0.1643
  719SOL    HW2 2157   2.023   1.067   3.043  0.4038 -1.9991  2.6458
  720SOL     OW 2158   0.818   0.498   0.940 -0.3641 -0.4078  0.4937
  720SOL    HW1 2159   0.844   0.446   1.022 -0.2355  1.4565 -0.8820
  720SOL    HW2 2160   0.767   0.429   0.889  0.7717  2.2627  1.7013
  721SOL     OW 2161   2.549   0.129   0.783 -0.2462  0.0011  0.0470
  721SOL    HW1 2162   2.504   0.218   0.757  1.5959  1.3681 -0.6678
  721SOL    HW2 2163   2.586   0.083   0.696 -0.2608 -2.0217  1.3961
  722SOL     OW 2164   2.328   0.669   2.559  0.0245 -0.4830  0.4980
  722SOL    HW1 2165   2.251   0.628   2.613  1.4696  2.6201 -0.0610
  722SOL    HW2 2166   2.418   0.643   2.601 -1.2883 -0.0339  0.1119
  723SOL     OW 2167   2.500   0.080   0.276 -0.3664  0.1617  0.2723
  723SOL    HW1 2168   2.519   0.024   0.194 -1.6713 -1.1821  1.9413
  723SOL    HW2 2169   2.403   0.098   0.302  1.4541 -2.3450  0.2684
  724SOL     OW 2170   0.864   1.527   2.139 -0.5022  0.0003  0.2915
  724SOL    HW1 2171   0.797   1.455   2.161  0.3023 -0.7836  2.1373
  724SOL    HW2 2172   0.901   1.515   2.045 -1.3893  3.0626  0.1405
  725SOL     OW 2173   1.702   0.221   1.259  0.6728  0.1290  0.3372
  725SOL    HW1 2174   1.724   0.302   1.198 -0.8288  2.4699 -0.8098
  725SOL    HW2 2175   1.780   0.156   1.270 -1.5835  2.3335 -1.2509
  726SOL     OW 2176   1.815   2.562   0.149  0.0770 -0.3295 -0.2407
  726SOL    HW1 2177   1.724   2.598   0.177  0.3479  2.6066  1.6972
  726SOL    HW2 2178   1.827   2.473   0.193 -1.1335  0.4889  1.6395
  727SOL     OW 2179   1.736   1.622   1.570  0.1852  0.2314  0.2258
  727SOL    HW1 2180   1.699   1.557   1.642  0.7411  0.7993 -0.0869
  727SOL    HW2 2181   1.660   1.645   1.508  1.1309 -0.2998 -1.3499
  728SOL     OW 2182   2.382   2.665   1.380 -0.0121  0.3412  0.3322
  728SOL    HW1 2183   2.287   2.704   1.392  1.2686 -1.3406  1.7706
  728SOL    HW2 2184   2.435   2.706   1.303  2.3539 -1.0378 -0.9003
  729SOL     OW 2185   2.273   1.487   0.856  0.2556 -0.3898  0.0088
  729SOL    HW1 2186   2.236   1.570   0.802  1.6287  3.1345 -1.5671
  729SOL    HW2 2187   2.367   1.470   0.828 -0.4950 -1.6994 -0.0812
  730SOL     OW 2188   0.960   0.841   2.763 -0.2787 -0.2756  0.3883
  730SOL    HW1 2189   0.873   0.893   2.789 -0.0840  1.8435 -1.1576
  730SOL    HW2 2190   1.025   0.850   2.840 -0.5828  0.2083 -4.1682
  731SOL     OW 2191   0.357   0.065   0.871  0.0594 -0.0263 -0.0676
  731SOL    HW1 2192   0.360   0.109   0.962 -0.0442  1.5344 -0.3804
  731SOL    HW2 2193   0.335   0.128   0.797  1.5112 -0.9850  3.1590
  732SOL     OW 2194   1.558   0.839   0.446  0.2818 -0.3464 -0.3440
  732SOL    HW1 2195   1.465   0.880   0.437 -0.3294 -0.5002  0.9596
  732SOL    HW2 2196   1.562   0.762   0.510  1.0565  1.4342 -0.0342
  733SOL     OW 2197   0.740   2.139   1.220 -0.1043 -0.4530  0.2269
  733SOL    HW1 2198   0.820   2.197   1.199  3.2917 -0.8834  1.7056
  733SOL    HW2 2199   0.716   2.068   1.155 -1.0860  5.3321 -3.4952
  734SOL     OW 2200   0.367   2.589   0.341  0.0504  0.9149  0.3595
  734SOL    HW1 2201   0.413   2.669   0.292  0.5449 -0.4074  1.0931
  734SOL    HW2 2202   0.273   2.620   0.365  0.7771 -1.1967  0.1684
  735SOL     OW 2203   1.219   0.326   1.347 -0.2077 -0.3057  0.1592
  735SOL    HW1 2204   1.157   0.245   1.365 -0.7857  0.6800  2.2824
  735SOL    HW2 2205   1.301   0.293   1.290  2.8049 -3.0344 -1.6857
  736SOL     OW 2206   2.043   2.326   0.029 -0.0771  0.3624  0.4123
  736SOL    HW1 2207   1.997   2.313   0.121 -1.3249  0.8887 -2.7855
  736SOL    HW2 2208   2.000   2.408   3.100  0.4787  2.6186  1.7515
  737SOL     OW 2209   3.027   0.844   0.957 -0.1409  0.3337 -0.0209
  737SOL    HW1 2210   3.057   0.927   1.012 -1.3241  1.7110 -2.5337
  737SOL    HW2 2211   3.086   0.819   0.882 -1.6103 -1.6953  2.7172
  738SOL     OW 2212   2.396   2.636   2.155  0.7518 -0.5300  0.1862
  738SOL    HW1 2213   2.479   2.677   2.119 -1.2714  0.2865 -0.9656
  738SOL    HW2 2214   2.377   2.673   2.248 -0.4588 -2.1195  0.5835
  739SOL     OW 2215   1.112   2.257   2.936  0.0227  0.1731  0.3388
  739SOL    HW1 2216   1.166   2.174   2.955  1.1120  0.1283 -0.1696
  739SOL    HW2 2217   1.059   2.284   3.022  0.3532 -2.2734  1.5881
  740SOL     OW 2218   1.418   0.184   1.212 -0.1033 -0.3674 -0.3178
  740SOL    HW1 2219   1.519   0.191   1.221 -0.9640 -2.3127 -1.5490
  740SOL    HW2 2220   1.391   0.083   1.220  0.4798 -4.4338 -0.0290
  741SOL     OW 2221   2.982   0.705   0.617 -0.2780 -0.3380 -0.6072
  741SOL    HW1 2222   2.982   0.717   0.514  1.4769  0.0080  2.7280
  741SOL    HW2 2223   2.966   0.608   0.645  0.4042  0.1187 -0.2282
  742SOL     OW 2224   1.029   1.471   2.729  0.4868  0.0704 -0.4192
  742SOL    HW1 2225   1.009   1.509   2.823  1.0462 -1.2318 -0.6203
  742SOL    HW2 2226   1.036   1.547   2.662  0.1285  2.3602  0.1630
  743SOL     OW 2227   0.973   0.783   2.163 -0.7047  0.1368  0.0482
  743SOL    HW1 2228   0.939   0.730   2.247  2.9467 -2.3540 -0.2778
  743SOL    HW2 2229   1.027   0.865   2.188  3.2255 -1.9375  0.6997
  744SOL     OW 2230   2.025   0.472   1.339  0.2555 -0.1388  0.1178
  744SOL    HW1 2231   2.026   0.474   1.237 -0.9584 -0.4625  1.1379
  744SOL    HW2 2232   1.995   0.385   1.374  1.7912  0.6028 -2.7759
  745SOL     OW 2233   1.632   1.031   1.473 -0.0891 -0.3295  0.3761
  745SOL    HW1 2234   1.667   1.026   1.378  1.8745 -1.5703  2.9689
  745SOL    HW2 2235   1.674   1.110   1.521 -1.2537  0.0494 -2.5647
  746SOL     OW 2236   2.228   1.217   0.873  0.1050 -0.1425 -0.7446
  746SOL    HW1 2237   2.236   1.320   0.868 -0.4259 -2.0558  0.1429
  746SOL    HW2 2238   2.227   1.179   0.779 -0.3223  2.4817  1.2613
  747SOL     OW 2239   2.621   1.362   1.141 -0.0587 -0.2695 -0.0758
  747SOL    HW1 2240   2.592   1.300   1.063 -0.5977 -1.5152  0.8943
  747SOL    HW2 2241   2.607   1.463   1.122  0.1762  2.0946  0.5587
  748SOL     OW 2242   0.665   1.931   0.701  0.1643  0.2009  0.0027
  748SOL    HW1 2243   0.635   1.835   0.690  0.2144 -1.8856 -0.6807
  748SOL    HW2 2244   0.620   1.993   0.632  0.0724 -1.6355  2.5414
  749SOL     OW 2245   2.337   2.752   2.404 -0.5739  0.2946  0.3611
  749SOL    HW1 2246   2.355   2.711   2.498  0.6705 -0.2588 -0.2021
  749SOL    HW2 2247   2.405   2.828   2.391 -0.2380  0.0442  0.7501
  750SOL     OW 2248   2.517   0.608   0.804 -0.3924  0.0790  0.6249
  750SOL    HW1 2249   2.544   0.590   0.704  2.1567 -0.4889 -1.5886
  750SOL    HW2 2250   2.437   0.668   0.808  1.6357 -3.5791 -0.1911
  751SOL     OW 2251   2.341   2.720   0.493  0.7080 -0.1375 -0.0255
  751SOL    HW1 2252   2.370   2.635   0.538 -2.0895  0.5478  1.5109
  751SOL    HW2 2253   2.315   2.712   0.393  3.1302  0.8265  0.3127
  752SOL     OW 2254   0.113   3.076   0.909  0.1026 -0.1304 -0.1935
  752SOL    HW1 2255   0.102   2.976   0.882  0.4771 -1.4549 -1.0969
  752SOL    HW2 2256   0.205   0.002   0.885  2.6371  1.0999  0.5615
  753SOL     OW 2257   1.743   0.993   2.093 -0.2703  0.2010  0.2028
  753SOL    HW1 2258   1.715   1.086   2.074  0.5847 -0.3957 -2.7141
  753SOL    HW2 2259   1.664   0.935   2.121 -1.9400  1.7792 -1.1594
  754SOL     OW 2260   1.816   2.082   1.389 -0.3291 -0.0641  0.0499
  754SOL    HW1 2261   1.894   2.017   1.390 -3.6819 -1.9922  2.2510
  754SOL    HW2 2262   1.733   2.039   1.360  3.0460  3.6101 -0.7457
  755SOL     OW 2263   2.691   0.977   0.884  0.5012  0.6780 -0.1729
  755SOL    HW1 2264   2.737   0.924   0.955  3.5415 -0.0169 -0.1187
  755SOL    HW2 2265   2.643   1.056   0.927  0.4166 -3.6065  3.4370
  756SOL     OW 2266   1.039   1.512   3.019 -0.2925 -0.2616 -0.5474
  756SOL    HW1 2267   1.122   1.461   2.993 -2.0162  1.2081  0.2604
  756SOL    HW2 2268   1.021   1.508   0.002  1.1890  0.2375 -3.3065
  757SOL     OW 2269   1.411   2.658   0.696 -0.0714  0.0963  0.0388
  757SOL    HW1 2270   1.456   2.721   0.759 -1.4562  1.6969 -1.2295
  757SOL    HW2 2271   1.317   2.633   0.727  1.0738 -0.0519 -1.9264
  758SOL     OW 2272   1.077   2.855   1.428  0.3659 -0.3269 -0.2331
  758SOL    HW1 2273   0.992   2.808   1.426  1.4044  0.8789  1.3392
  758SOL    HW2 2274   1.155   2.787   1.421  0.9581 -2.1752 -0.2181
  759SOL     OW 2275   0.159   0.637   0.873 -0.8888 -0.1497 -0.4316
  759SOL    HW1 2276   0.134   0.548   0.826  2.9579  0.3202  2.8901
  759SOL    HW2 2277   0.123   0.714   0.814  1.8706  1.6353  0.3156
  760SOL     OW 2278   2.477   0.936   1.216 -0.4298  0.2689  0.1101
  760SOL    HW1 2279   2.577   0.961   1.184 -1.0661  0.8428 -0.3038
  760SOL    HW2 2280   2.475   0.935   1.317  0.0023 -0.2415 -0.0794
  761SOL     OW 2281   1.830   3.059   0.592  0.3575  0.4917 -0.5935
  761SOL    HW1 2282   1.883   2.983   0.551 -0.3557  2.2607  1.7821
  761SOL    HW2 2283   1.890   3.109   0.663  1.4458  1.7776  2.3882
  762SOL     OW 2284   2.046   1.749   2.904 -0.2936  0.1544 -0.0450
  762SOL    HW1 2285   2.027   1.660   2.854 -1.9086  0.2953 -0.4927
  762SOL    HW2 2286   2.141   1.751   2.934 -0.9859  0.8549 -1.0041
  763SOL     OW 2287   0.584   1.629   1.549 -0.0648  0.0519 -0.2962
  763SOL    HW1 2288   0.585   1.642   1.650 -0.1401 -1.5212  2.6705
  763SOL    HW2 2289   0.488   1.634   1.508 -2.0470  1.8605  1.6646
  764SOL     OW 2290   3.063   2.145   2.813 -0.1396 -0.0410  0.6188
  764SOL    HW1 2291   2.990   2.077   2.839 -2.1218  1.1129 -1.4082
  764SOL    HW2 2292   3.034   2.217   2.748  0.5746 -0.7599 -0.6470
  765SOL     OW 2293   0.363   2.713   1.161  0.0510 -0.5218 -0.0502
  765SOL    HW1 2294   0.385   2.794   1.100 -2.8156 -3.3800 -0.2072
  765SOL    HW2 2295   0.322   2.636   1.103 -0.6384  0.2660 -0.3978
  766SOL     OW 2296   3.043   2.334   2.371  0.2629  0.8345  0.4866
  766SOL    HW1 2297   0.023   2.322   2.397 -1.4257  2.8255  1.7707
  766SOL    HW2 2298   3.006   2.247   2.332  0.0440 -0.5582 -0.4269
  767SOL     OW 2299   2.211   0.709   2.321 -0.3570 -0.4217 -0.9597
  767SOL    HW1 2300   2.276   0.740   2.247  1.5152  1.9917 -2.1564
  767SOL    HW2 2301   2.249   0.694   2.413 -1.3922 -0.5280  1.0049
  768SOL     OW 2302   1.271   0.301   2.740  0.0125 -0.1519  0.7613
  768SOL    HW1 2303   1.222   0.231   2.793  2.4713 -1.2551  0.5498
  768SOL    HW2 2304   1.348   0.335   2.796  0.0493  0.2661 -1.1726
  769SOL     OW 2305   3.048   2.635   0.979 -0.0131 -0.9164  0.1215
  769SOL    HW1 2306   2.971   2.577   0.940  2.2252  2.0720 -1.3049
  769SOL    HW2 2307   3.017   2.695   1.059  0.5060  0.4827  0.5516
  770SOL     OW 2308   0.550   0.305   2.784  0.3228  0.1428 -0.1616
  770SOL    HW1 2309   0.605   0.265   2.862  0.6331 -0.7078  3.6935
  770SOL    HW2 2310   0.502   0.391   2.805  1.0157 -1.0921  0.5418
  771SOL     OW 2311   1.426   1.906   2.185 -0.3766  0.0901  0.0089
  771SOL    HW1 2312   1.395   1.981   2.122 -0.1014  2.9664 -0.6285
  771SOL    HW2 2313   1.341   1.867   2.231 -2.3680 -2.6795  1.6113
  772SOL     OW 2314   1.589   2.685   2.508  0.1301 -0.3062 -0.3016
  772SOL    HW1 2315   1.607   2.759   2.577 -1.8940 -0.7391 -2.6942
  772SOL    HW2 2316   1.641   2.709   2.422  0.3570  2.1593 -1.0388
  773SOL     OW 2317   1.635   0.743   1.479 -0.2492 -0.0492 -0.1374
  773SOL    HW1 2318   1.650   0.838   1.504  4.6025 -0.4550  0.2704
  773SOL    HW2 2319   1.554   0.733   1.423  1.7563 -0.8840  1.6460
  774SOL     OW 2320   0.981   0.439   1.207 -0.2402 -0.5303  0.2115
  774SOL    HW1 2321   1.052   0.410   1.277 -0.0911  1.4092 -0.6855
  774SOL    HW2 2322   0.897   0.469   1.253  2.0134  2.3989 -1.9333
  775SOL     OW 2323   2.073   3.031   2.726  0.3532 -0.0468  0.2134
  775SOL    HW1 2324   2.011   3.089   2.787 -2.3535  0.6491 -0.3516
  775SOL    HW2 2325   2.028   2.950   2.691 -1.0522  0.9705 -0.3687
  776SOL     OW 2326   2.043   0.916   1.442  0.2718  0.0880 -0.7865
  776SOL    HW1 2327   1.989   0.828   1.447  0.4573  2.0099 -0.1926
  776SOL    HW2 2328   2.127   0.920   1.507  1.0962 -0.6532 -0.8202
  777SOL     OW 2329   2.835   1.300   2.177 -0.0118  0.3206 -0.5953
  777SOL    HW1 2330   2.871   1.283   2.271 -0.2045 -1.6115  2.0935
  777SOL    HW2 2331   2.787   1.215   2.145 -0.7415  1.6533 -0.4185
  778SOL     OW 2332   2.840   0.865   2.687  0.3908 -0.1965 -0.4185
  778SOL    HW1 2333   2.906   0.908   2.631  2.0549  0.7950  1.8195
  778SOL    HW2 2334   2.798   0.933   2.746 -2.4068 -0.2785 -1.4216
  779SOL     OW 2335   0.042   0.855   3.041 -0.1142  0.3261  0.1771
  779SOL    HW1 2336   0.086   0.825   0.012  0.4553  0.4912  1.9948
  779SOL    HW2 2337   0.090   0.803   2.967 -0.8839 -2.7109 -0.1379
  780SOL     OW 2338   2.504   1.924   2.536 -0.0234  0.1781  0.0130
  780SOL    HW1 2339   2.487   1.826   2.514 -0.4835  0.7373 -0.8110
  780SOL    HW2 2340   2.461   1.978   2.463  1.3180  1.5461 -2.2852
  781SOL     OW 2341   2.621   1.183   1.866 -0.2113 -0.4778 -0.2356
  781SOL    HW1 2342   2.698   1.233   1.824 -1.5587  2.2664  0.1800
  781SOL    HW2 2343   2.620   1.091   1.829  2.6935  2.7322  1.6296
  782SOL     OW 2344   1.053   2.062   2.711  0.2428  0.0535  0.5253
  782SOL    HW1 2345   1.021   1.978   2.765  0.8471  1.4144 -2.3081
  782SOL    HW2 2346   1.066   2.144   2.770  0.1273  1.4462 -1.7200
  783SOL     OW 2347   0.996   2.579   0.993  0.0454 -0.3451 -0.5048
  783SOL    HW1 2348   1.068   2.653   1.004 -0.1054  2.2814  1.7920
  783SOL    HW2 2349   0.901   2.616   0.976 -2.1390  1.0483  0.7302
  784SOL     OW 2350   1.988   0.568   2.410  0.9093  0.0874 -0.4066
  784SOL    HW1 2351   2.010   0.472   2.448 -2.1258 -0.8434  2.1438
  784SOL    HW2 2352   2.073   0.611   2.373  0.7255  0.8057  3.0959
  785SOL     OW 2353   0.075   0.134   1.791  0.4418 -0.3570  0.8515
  785SOL    HW1 2354   0.007   0.208   1.782 -0.4774  0.0867 -0.2627
  785SOL    HW2 2355   0.042   0.041   1.762  2.0764  1.4875 -1.3595
  786SOL     OW 2356   1.146   2.057   0.561  0.3602 -0.4024 -0.6229
  786SOL    HW1 2357   1.052   2.100   0.546  1.4138  2.4178  1.5117
  786SOL    HW2 2358   1.206   2.139   0.580  1.5220 -0.5165  2.6506
  787SOL     OW 2359   1.193   0.107   0.825 -0.0921  0.0863 -0.5444
  787SOL    HW1 2360   1.139   0.054   0.760  0.3350 -2.4352  1.6858
  787SOL    HW2 2361   1.142   0.113   0.911 -1.0466  2.6026 -2.5816
  788SOL     OW 2362   0.052   1.297   0.910 -0.6341 -0.1492 -0.1705
  788SOL    HW1 2363   0.022   1.393   0.927 -0.0468 -0.7592  1.0158
  788SOL    HW2 2364   0.153   1.294   0.891  3.2526 -2.2178  1.6149
  789SOL     OW 2365   2.346   0.777   2.101 -0.5675 -0.1242  0.6716
  789SOL    HW1 2366   2.389   0.719   2.029 -1.4196 -2.4724  0.8073
  789SOL    HW2 2367   2.411   0.834   2.155 -0.2454 -1.7601 -1.4224
  790SOL     OW 2368   0.901   0.489   2.912 -0.7710  0.5962 -0.0258
  790SOL    HW1 2369   0.887   0.573   2.966 -1.4822 -4.4972 -1.4507
  790SOL    HW2 2370   0.852   0.411   2.958  0.2701 -1.1465 -0.9659
  791SOL     OW 2371   0.082   2.987   0.003  0.1217 -0.8466  0.0094
  791SOL    HW1 2372   0.176   3.017   3.094 -1.0491  1.3453  0.0787
  791SOL    HW2 2373   0.025   3.070   0.030  0.5136  1.0287  1.2862
  792SOL     OW 2374   1.594   0.805   1.851  0.1170 -0.1288 -0.4662
  792SOL    HW1 2375   1.596   0.704   1.871 -1.1824 -0.6898  0.8219
  792SOL    HW2 2376   1.503   0.847   1.851 -0.7215 -0.0808 -0.7062
  793SOL     OW 2377   3.037   0.378   1.134  0.6463  0.3180 -0.2357
  793SOL    HW1 2378   3.096   0.345   1.054  1.0735 -1.0290 -2.0162
  793SOL    HW2 2379   2.966   0.444   1.105 -0.2571  1.3497  1.3926
  794SOL     OW 2380   0.293   0.240   1.904 -0.4071  0.5734 -0.0512
  794SOL    HW1 2381   0.386   0.208   1.906 -1.1053 -0.4316 -0.2395
  794SOL    HW2 2382   0.228   0.182   1.851  0.8436  0.2841  2.8424
  795SOL     OW 2383   0.683   1.361   0.392 -0.2206 -0.1758  0.0918
  795SOL    HW1 2384   0.606   1.310   0.346  3.2305  0.0736 -0.6683
  795SOL    HW2 2385   0.674   1.460   0.382 -2.0056 -1.9060  2.2272
  796SOL     OW 2386   3.085   1.082   2.944  0.1066  0.1804 -0.4986
  796SOL    HW1 2387   3.113   0.988   2.975  0.9118 -1.2855  0.8651
  796SOL    HW2 2388   3.092   1.153   3.015  2.2460 -4.0942 -2.5782
  797SOL     OW 2389   1.993   0.018   2.187 -0.7976 -0.1351 -0.0615
  797SOL    HW1 2390   1.998   3.053   2.126 -2.3551 -0.7916  1.0481
  797SOL    HW2 2391   2.021   0.101   2.135 -0.8619 -3.1555  0.5055
  798SOL     OW 2392   0.113   3.061   1.183 -0.3102  0.0712 -0.0427
  798SOL    HW1 2393   0.109   3.065   1.081  0.3623  2.3105  0.2461
  798SOL    HW2 2394   0.083   0.033   1.225  0.4234 -0.3939 -0.8476
  799SOL     OW 2395   2.637   0.936   1.752 -0.1928  0.0206 -0.0259
  799SOL    HW1 2396   2.718   0.877   1.765  1.1080  0.2927  1.9097
  799SOL    HW2 2397   2.558   0.885   1.708  2.1990  0.3897 -2.8234
  800SOL     OW 2398   3.027   1.680   0.202 -0.2555 -0.0453 -0.1844
  800SOL    HW1 2399   2.968   1.760   0.222 -1.5222  0.5163 -1.1019
  800SOL    HW2 2400   3.093   1.699   0.127 -0.4252 -0.8734  1.2470
  801SOL     OW 2401   2.048   1.730   0.533  0.9855 -0.2115  0.1828
  801SOL    HW1 2402   2.052   1.636   0.496  1.2081 -2.0924  0.9327
  801SOL    HW2 2403   1.959   1.766   0.508  1.0861  0.5083  1.2097
  802SOL     OW 2404   1.386   1.029   2.801 -0.0646 -0.1606 -0.2403
  802SOL    HW1 2405   1.399   1.068   2.705  1.2925  2.5610 -0.5429
  802SOL    HW2 2406   1.405   0.930   2.799 -0.0709  0.5868  1.0870
  803SOL     OW 2407   0.942   2.035   1.920 -0.4349 -0.5491 -0.5999
  803SOL    HW1 2408   0.895   2.114   1.876 -0.9149  1.8937 -1.1017
  803SOL    HW2 2409   1.041   2.039   1.892  1.6748  0.3111 -1.4996
  804SOL     OW 2410   1.392   2.281   0.871  0.0266  0.4782 -0.0385
  804SOL    HW1 2411   1.390   2.192   0.925  0.8920 -0.1489 -3.2016
  804SOL    HW2 2412   1.351   2.261   0.775 -2.3502 -0.8796 -0.3409
  805SOL     OW 2413   2.743   2.262   2.671 -0.4799  0.2551 -0.3018
  805SOL    HW1 2414   2.830   2.311   2.675 -1.1418 -2.0109  2.9128
  805SOL    HW2 2415   2.684   2.300   2.601  0.2731 -2.2131 -1.4045
  806SOL     OW 2416   0.075   0.135   0.425  0.6360 -0.3358  0.3196
  806SOL    HW1 2417   3.113   0.169   0.483  0.0918 -0.8578  1.4073
  806SOL    HW2 2418   0.080   0.035   0.407  1.3837  0.4371 -2.6510
  807SOL     OW 2419   2.391   0.696   2.904  0.4698  0.2854  0.6717
  807SOL    HW1 2420   2.445   0.640   2.841  1.1768  2.1370 -1.5731
  807SOL    HW2 2421   2.351   0.642   2.981 -1.2705  2.3358 -1.8822
  808SOL     OW 2422   0.960   2.305   1.076  0.1037 -0.4659 -0.7698
  808SOL    HW1 2423   1.041   2.267   1.122 -2.8897 -1.5015 -3.2164
  808SOL    HW2 2424   0.962   2.408   1.064 -0.5187 -0.5130 -1.3725
  809SOL     OW 2425   2.885   0.217   2.708 -0.0344 -0.4988  0.2244
  809SOL    HW1 2426   2.894   0.120   2.739 -0.2983  2.5732 -1.1548
  809SOL    HW2 2427   2.846   0.226   2.616  0.3754  0.2051 -1.8270
  810SOL     OW 2428   1.586   1.516   0.623 -0.4884  0.2750 -0.2038
  810SOL    HW1 2429   1.579   1.419   0.656  1.4024 -0.0600  2.7196
  810SOL    HW2 2430   1.613   1.574   0.699 -2.4363 -0.4211  0.0223
  811SOL     OW 2431   1.907   2.833   1.572  0.7866  0.4910 -0.0132
  811SOL    HW1 2432   1.857   2.861   1.486 -0.1156  1.2531 -2.0723
  811SOL    HW2 2433   1.862   2.744   1.606 -0.9911  0.8240  0.1514
  812SOL     OW 2434   1.608   2.580   0.344  0.1242  0.0959 -0.0097
  812SOL    HW1 2435   1.627   2.513   0.416  0.6063 -1.3425  0.9642
  812SOL    HW2 2436   1.589   2.678   0.371 -1.2212 -2.7874  2.2743
  813SOL     OW 2437   1.201   0.618   2.108  0.0472 -0.2958  0.2170
  813SOL    HW1 2438   1.116   0.674   2.099 -3.2557  0.1921 -2.2316
  813SOL    HW2 2439   1.180   0.518   2.124 -1.8249 -2.4672  0.9480
  814SOL     OW 2440   0.365   3.083   1.227 -0.4777  0.4557 -0.2987
  814SOL    HW1 2441   0.268   3.073   1.197 -1.7744  1.5843 -0.9305
  814SOL    HW2 2442   0.368   3.067   1.330 -1.1332 -1.4471  3.4997
  815SOL     OW 2443   0.410   3.048   0.569  0.2957  0.2175 -0.4262
  815SOL    HW1 2444   0.492   2.990   0.551  0.5200 -1.5512  1.2507
  815SOL    HW2 2445   0.334   2.990   0.607  1.3523 -3.5466 -0.8332
  816SOL     OW 2446   2.743   1.513   2.485  0.4948 -0.3105 -0.1739
  816SOL    HW1 2447   2.674   1.512   2.563 -2.2141  2.5155 -0.9517
  816SOL    HW2 2448   2.839   1.533   2.519  2.2583  0.7329  3.5078
  817SOL     OW 2449   1.147   0.250   0.060 -0.5291  0.3127  0.5333
  817SOL    HW1 2450   1.187   0.266   0.150  2.7309 -0.6239 -2.2035
  817SOL    HW2 2451   1.175   0.320   3.107  0.9055 -0.7388 -0.6459
  818SOL     OW 2452   1.681   0.616   0.004 -0.0238  0.1976  0.5119
  818SOL    HW1 2453   1.664   0.655   0.092 -3.3131  0.7252 -0.1146
  818SOL    HW2 2454   1.674   0.517   0.002  1.2644  0.4894  0.2767
  819SOL     OW 2455   1.716   2.729   2.918  0.9555  0.4702 -0.2244
  819SOL    HW1 2456   1.706   2.798   2.841  2.2037  0.6337 -1.3019
  819SOL    HW2 2457   1.674   2.771   3.001 -0.5253 -1.5576  1.9147
  820SOL     OW 2458   1.525   0.998   0.061 -1.1282 -0.4170  0.2711
  820SOL    HW1 2459   1.502   0.924   3.111  0.7585  2.2582  1.8937
  820SOL    HW2 2460   1.628   1.004   0.079 -2.8335 -2.3744  0.3689
  821SOL     OW 2461   0.326   0.662   1.530  0.1360 -0.4449  0.0391
  821SOL    HW1 2462   0.259   0.731   1.493  0.9125  3.3260  0.7206
  821SOL    HW2 2463   0.287   0.577   1.564 -0.0136  2.3792  2.0142
  822SOL     OW 2464   1.063   2.544   2.342  0.0231 -0.7046  0.1958
  822SOL    HW1 2465   1.160   2.546   2.325 -1.4163 -0.4673  0.1662
  822SOL    HW2 2466   1.016   2.553   2.255 -1.1794 -2.5252  2.0688
  823SOL     OW 2467   0.204   1.394   2.115  0.2607  0.2354  0.1435
  823SOL    HW1 2468   0.154   1.469   2.168  0.5654 -0.7499  1.5021
  823SOL    HW2 2469   0.303   1.392   2.134  1.9123 -1.7560 -1.0829
  824SOL     OW 2470   1.749   2.875   1.972 -0.4054  0.1485  0.8059
  824SOL    HW1 2471   1.702   2.800   1.925 -2.3425  0.6570  0.7840
  824SOL    HW2 2472   1.695   2.960   1.969  0.9640 -0.3492  2.3640
  825SOL     OW 2473   1.013   1.302   0.180  0.3870  0.3249 -0.2034
  825SOL    HW1 2474   0.980   1.399   0.168 -2.0449  2.0969 -2.7779
  825SOL    HW2 2475   0.981   1.241   0.106  1.2334  1.5098  2.2219
  826SOL     OW 2476   2.162   0.493   2.692  0.3003  0.8070  0.2641
  826SOL    HW1 2477   2.122   0.491   2.787 -1.3820  1.8079  2.5075
  826SOL    HW2 2478   2.125   0.419   2.640  1.1530  0.8011  1.7715
  827SOL     OW 2479   0.433   2.000   3.008 -0.0963 -0.7262 -0.1971
  827SOL    HW1 2480   0.528   2.035   3.022 -1.3353 -0.2358  1.8422
  827SOL    HW2 2481   0.423   1.932   2.934 -3.4436  3.1022  3.3546
  828SOL     OW 2482   0.016   0.173   1.304 -0.2697  0.0088  0.1030
  828SOL    HW1 2483   0.091   0.204   1.359 -1.8429 -2.1621 -2.0773
  828SOL    HW2 2484   3.096   0.252   1.245 -0.8057  1.2270 -1.5745
  829SOL     OW 2485   1.083   1.300   1.254 -0.5693 -0.0338 -0.2521
  829SOL    HW1 2486   1.166   1.303   1.316  2.1768  1.8838  0.9799
  829SOL    HW2 2487   1.087   1.376   1.185  0.7527  1.9971  0.5630
  830SOL     OW 2488   0.579   1.373   1.368  0.5056 -0.1363 -0.0817
  830SOL    HW1 2489   0.676   1.365   1.350 -0.6423 -3.0362 -0.5897
  830SOL    HW2 2490   0.552   1.465   1.406  1.0939 -0.3473  1.0446
  831SOL     OW 2491   0.596   2.002   0.265  0.2950 -0.1351 -0.3191
  831SOL    HW1 2492   0.649   1.944   0.204  3.5375  0.9313  0.3163
  831SOL    HW2 2493   0.596   2.096   0.231 -0.0019 -2.3120  0.8037
  832SOL     OW 2494   0.696   3.049   2.814  0.0488 -1.1155  0.3254
  832SOL    HW1 2495   0.612   3.098   2.784 -0.3839  1.3918  2.2497
  832SOL    HW2 2496   0.680   2.948   2.812  1.8382 -0.2859  1.0627
  833SOL     OW 2497   0.003   0.670   1.892  0.0948 -0.7041 -0.2175
  833SOL    HW1 2498   0.038   0.585   1.936  0.4207 -1.7574 -0.6480
  833SOL    HW2 2499   3.048   0.711   1.956 -4.7372 -0.9704 -0.4893
  834SOL     OW 2500   0.169   0.617   1.150  0.3253 -0.5593  0.5313
  834SOL    HW1 2501   0.120   0.613   1.062  3.0889  2.8819  2.5208
  834SOL    HW2 2502   0.248   0.678   1.141 -1.5107 -2.8362  2.5460
  835SOL     OW 2503   2.789   3.029   1.180 -0.5322  0.0027 -0.3630
  835SOL    HW1 2504   2.798   0.011   1.161  1.2229 -3.8730  1.0503
  835SOL    HW2 2505   2.692   3.000   1.156 -0.1005  0.8203  0.0643
  836SOL     OW 2506   0.376   1.824   0.086 -0.0345  0.3056  0.1021
  836SOL    HW1 2507   0.299   1.855   0.143  3.6392  0.5749  2.4705
  836SOL    HW2 2508   0.401   1.903   0.028  0.2504  1.6532  0.8289
  837SOL     OW 2509   1.812   1.882   2.907 -0.1103 -0.4884  0.3801
  837SOL    HW1 2510   1.753   1.831   2.845  1.9080 -0.7508 -0.6832
  837SOL    HW2 2511   1.901   1.832   2.911  1.3933 -1.1123 -1.0754
  838SOL     OW 2512   2.374   1.222   1.981 -0.1007  0.1695 -0.2461
  838SOL    HW1 2513   2.317   1.132   1.967  0.2012 -2.7648  1.2977
  838SOL    HW2 2514   2.467   1.210   1.944 -1.6911 -2.8842 -2.1526
  839SOL     OW 2515   1.337   0.808   0.747  0.0624  0.2402  0.2087
  839SOL    HW1 2516   1.247   0.843   0.714  0.4214 -1.3695 -1.0671
  839SOL    HW2 2517   1.349   0.717   0.696  0.1109  0.0212 -1.2029
  840SOL     OW 2518   1.699   0.417   1.074 -0.2335 -0.7470 -0.5137
  840SOL    HW1 2519   1.748   0.437   0.985  0.3441  2.2764 -0.7955
  840SOL    HW2 2520   1.674   0.501   1.122 -1.5314 -2.0504 -2.0242
  841SOL     OW 2521   0.417   2.738   0.624  0.7656 -0.0465 -0.0202
  841SOL    HW1 2522   0.406   2.782   0.717 -0.2907  2.2397  1.8996
  841SOL    HW2 2523   0.331   2.692   0.585 -0.3482  0.6637 -0.1550
  842SOL     OW 2524   0.605   0.586   0.643  0.1827  0.2510 -0.7364
  842SOL    HW1 2525   0.529   0.591   0.709 -0.1585 -0.0447  1.6198
  842SOL    HW2 2526   0.598   0.501   0.587  0.7043 -0.7816 -1.5561
  843SOL     OW 2527   0.600   0.898   1.875 -0.5542  0.2938 -0.1742
  843SOL    HW1 2528   0.661   0.960   1.817  2.3929  0.6287 -1.6072
  843SOL    HW2 2529   0.516   0.945   1.912  0.4215 -0.5147 -0.0459
  844SOL     OW 2530   1.354   2.468   3.021 -0.3144  0.2472 -0.2835
  844SOL    HW1 2531   1.442   2.458   2.962 -2.0435  0.7520 -3.2009
  844SOL    HW2 2532   1.271   2.423   2.980 -1.1690  0.1705  1.8454
  845SOL     OW 2533   2.723   2.657   2.355 -0.1407 -0.6949  0.2091
  845SOL    HW1 2534   2.815   2.617   2.360 -0.4709  1.7806 -0.3552
  845SOL    HW2 2535   2.693   2.665   2.258 -2.3698 -0.5392 -1.2504
  846SOL     OW 2536   1.714   2.112   2.562 -0.6589 -0.0336  0.2891
  846SOL    HW1 2537   1.708   2.158   2.653  2.9425 -1.2939  1.7857
  846SOL    HW2 2538   1.749   2.020   2.576  0.8126  0.0763 -1.7717
  847SOL     OW 2539   2.080   2.873   2.371 -0.2972  0.3492 -0.1491
  847SOL    HW1 2540   2.184   2.859   2.365  0.6893 -0.0484  2.8837
  847SOL    HW2 2541   2.034   2.896   2.284  3.0341 -0.2156 -0.3449
  848SOL     OW 2542   0.587   0.366   0.499  0.5023 -0.0719 -0.1695
  848SOL    HW1 2543   0.499   0.322   0.468 -1.7622  1.7208  1.6902
  848SOL    HW2 2544   0.664   0.298   0.499  0.2710 -1.2602 -1.6921
  849SOL     OW 2545   0.591   2.891   1.367  0.0464 -0.9816  0.2091
  849SOL    HW1 2546   0.598   2.911   1.267  0.1742  0.8029  1.0455
  849SOL    HW2 2547   0.613   2.981   1.417  3.1834  1.7197  3.8300
  850SOL     OW 2548   0.155   1.782   0.435 -0.7900  0.1975  0.4040
  850SOL    HW1 2549   0.153   1.816   0.337 -1.1189  1.5676 -1.2126
  850SOL    HW2 2550   0.072   1.823   0.484 -1.1070 -0.4592 -0.3293
  851SOL     OW 2551   0.213   0.705   0.114  0.4164 -0.2849  0.2869
  851SOL    HW1 2552   0.223   0.798   0.145  0.0407 -2.6664  1.1457
  851SOL    HW2 2553   0.289   0.684   0.050 -1.9300  0.1429  0.9477
  852SOL     OW 2554   1.594   1.944   1.793  0.4371  0.0932 -0.3507
  852SOL    HW1 2555   1.670   1.946   1.722  0.5977 -1.3630  0.1329
  852SOL    HW2 2556   1.543   1.853   1.791 -2.4503 -4.2171  0.7283
  853SOL     OW 2557   0.434   1.824   0.453  0.3051 -0.2014  0.0025
  853SOL    HW1 2558   0.476   1.885   0.386 -3.7528 -0.5037 -0.3604
  853SOL    HW2 2559   0.331   1.838   0.461  1.8401  1.1297  0.2016
  854SOL     OW 2560   1.834   1.208   1.570 -0.0118  0.3431  0.3115
  854SOL    HW1 2561   1.865   1.161   1.488 -1.2383  1.0190 -0.4777
  854SOL    HW2 2562   1.838   1.310   1.562 -4.4907 -0.9859  0.6400
  855SOL     OW 2563   0.596   2.263   0.197  0.4018  0.0969 -0.4501
  855SOL    HW1 2564   0.495   2.284   0.190 -0.5929 -5.1588 -0.1073
  855SOL    HW2 2565   0.656   2.330   0.249  2.3281  1.6510  3.4229
  856SOL     OW 2566   2.945   0.081   2.013 -0.5408 -0.2305 -0.5271
  856SOL    HW1 2567   2.936   0.183   2.041 -1.3560  2.8211  1.5794
  856SOL    HW2 2568   3.042   0.050   2.005  0.5544 -0.3500 -0.8896
  857SOL     OW 2569   0.393   0.481   1.996 -0.6236 -0.6003  0.0273
  857SOL    HW1 2570   0.358   0.395   1.955  1.3765  1.4001  0.4880
  857SOL    HW2 2571   0.437   0.545   1.928  1.6382  3.3162  0.1618
  858SOL     OW 2572   2.800   1.722   2.303  0.3449 -0.4557 -0.1905
  858SOL    HW1 2573   2.775   1.639   2.361  3.0061 -0.6925 -1.3048
  858SOL    HW2 2574   2.741   1.728   2.219  1.1352 -0.8007  1.7958
  859SOL     OW 2575   2.051   2.896   0.441 -0.0438 -0.0679 -0.5581
  859SOL    HW1 2576   2.030   2.860   0.348  0.8094 -0.7721  0.5714
  859SOL    HW2 2577   2.083   2.819   0.505  1.3321 -1.8558  0.1127
  860SOL     OW 2578   1.886   0.248   0.145 -0.1164 -0.2382 -0.3426
  860SOL    HW1 2579   1.949   0.194   0.085  3.1915 -3.0489  1.3891
  860SOL    HW2 2580   1.798   0.281   0.100 -1.6969  1.5186  0.6810
  861SOL     OW 2581   0.416   0.586   0.840  0.3773 -0.2103  0.2898
  861SOL    HW1 2582   0.315   0.595   0.868 -0.4988  2.0996  0.4483
  861SOL    HW2 2583   0.472   0.554   0.921  0.3936 -2.0635  2.6357
  862SOL     OW 2584   1.773   0.549   1.715  0.0197  0.0473 -0.1498
  862SOL    HW1 2585   1.782   0.646   1.719 -1.1337 -3.1930  2.4700
  862SOL    HW2 2586   1.697   0.515   1.660  0.2975  0.3444  1.2486
  863SOL     OW 2587   0.433   1.695   1.010  0.0577  0.6381  0.0411
  863SOL    HW1 2588   0.399   1.782   1.045  2.8395  2.2009 -1.0680
  863SOL    HW2 2589   0.534   1.700   1.017  1.6724  0.3101 -2.4583
  864SOL     OW 2590   2.511   0.014   1.889  0.4574 -0.5393  0.3919
  864SOL    HW1 2591   2.609   0.008   1.854  0.8986  1.0203 -0.5559
  864SOL    HW2 2592   2.469   3.045   1.853 -1.0183  0.4375  0.0041
  865SOL     OW 2593   1.395   0.529   1.416  0.2307 -0.2239 -0.0881
  865SOL    HW1 2594   1.340   0.600   1.464  0.7056  2.2615  3.0230
  865SOL    HW2 2595   1.342   0.451   1.384  0.8312  2.3827  0.7206
  866SOL     OW 2596   2.576   2.558   0.569 -0.2879 -0.2431  0.5031
  866SOL    HW1 2597   2.579   2.546   0.465 -3.3539 -0.1872  1.6762
  866SOL    HW2 2598   2.664   2.598   0.603 -1.4353  3.3658  0.8100
  867SOL     OW 2599   2.821   2.653   0.614  0.6050  0.3912  0.1117
  867SOL    HW1 2600   2.833   2.614   0.710  1.9744 -1.3435  0.4787
  867SOL    HW2 2601   2.878   2.739   0.599 -0.7427  1.5563 -0.5715
  868SOL     OW 2602   1.360   1.866   2.493  0.3745  0.4756 -0.5251
  868SOL    HW1 2603   1.286   1.835   2.434  2.2591 -0.7051 -0.0181
  868SOL    HW2 2604   1.424   1.922   2.447 -0.0196  1.9236 -0.0709
  869SOL     OW 2605   2.247   1.462   0.272 -0.7929 -0.4237  0.1004
  869SOL    HW1 2606   2.248   1.380   0.219 -0.9065  1.1662 -1.0782
  869SOL    HW2 2607   2.207   1.439   0.366 -0.5926  1.2734  0.6505
  870SOL     OW 2608   2.512   1.982   0.489  0.0447  0.3018  0.6369
  870SOL    HW1 2609   2.423   2.026   0.513 -0.2009  0.2683  1.3262
  870SOL    HW2 2610   2.496   1.933   0.400 -1.4064 -3.2490 -0.1790
  871SOL     OW 2611   2.911   0.804   1.719  0.0457  0.2743  0.4053
  871SOL    HW1 2612   2.971   0.882   1.686  1.3124  0.0948 -0.0657
  871SOL    HW2 2613   2.965   0.736   1.776  2.4387  1.0125 -0.6866
  872SOL     OW 2614   0.636   1.765   2.810 -0.4531  0.5762 -0.2260
  872SOL    HW1 2615   0.623   1.851   2.767 -0.3566 -2.3793  1.1828
  872SOL    HW2 2616   0.550   1.733   2.859 -0.7058  0.3190  1.4106
  873SOL     OW 2617   0.535   2.624   1.921  0.3679 -0.4844 -0.6091
  873SOL    HW1 2618   0.463   2.694   1.907  1.0362  0.6132 -2.1788
  873SOL    HW2 2619   0.584   2.609   1.831  0.8824  0.2147 -0.6595
  874SOL     OW 2620   1.247   1.098   2.136 -0.4428 -0.0864  0.6143
  874SOL    HW1 2621   1.201   1.130   2.221 -2.5238 -0.4367 -0.1105
  874SOL    HW2 2622   1.306   1.021   2.163  0.4980  1.5025 -2.3943
  875SOL     OW 2623   2.993   2.808   1.185  0.2588 -0.0176  0.4746
  875SOL    HW1 2624   3.090   2.810   1.221  1.1587  2.4486 -1.0627
  875SOL    HW2 2625   2.949   2.900   1.168 -0.1964  0.3049 -0.0696
  876SOL     OW 2626   0.944   1.242   0.812  0.3765  0.7393 -0.1394
  876SOL    HW1 2627   0.861   1.214   0.865  0.4949  0.0664 -1.3392
  876SOL    HW2 2628   0.916   1.286   0.725  3.1893  0.6146  0.0912
  877SOL     OW 2629   0.520   0.335   1.363 -0.4485  0.0084 -0.6075
  877SOL    HW1 2630   0.541   0.325   1.462  1.0201 -0.6176 -1.4604
  877SOL    HW2 2631   0.544   0.246   1.309 -1.7777 -2.1295 -0.5369
  878SOL     OW 2632   2.758   1.763   2.971 -0.6436 -0.1087  0.6971
  878SOL    HW1 2633   2.825   1.687   2.989 -1.1497  0.0781  3.1859
  878SOL    HW2 2634   2.687   1.743   2.896 -3.6979 -0.8108 -2.1472
  879SOL     OW 2635   2.492   2.039   1.362  0.0072  0.3907  0.8453
  879SOL    HW1 2636   2.512   2.106   1.433  0.4454 -4.6164 -0.4494
  879SOL    HW2 2637   2.552   2.057   1.279  3.3420  0.7358  0.8329
  880SOL     OW 2638   1.060   2.126   1.457 -0.0719 -0.2343  0.0018
  880SOL    HW1 2639   1.069   2.211   1.513  1.6637 -1.8615 -1.7055
  880SOL    HW2 2640   1.105   2.135   1.364 -1.4189 -0.9266 -2.8045
  881SOL     OW 2641   1.332   1.949   1.229  0.4452  0.7013  0.0897
  881SOL    HW1 2642   1.405   1.931   1.296 -1.3718  2.5635 -0.3981
  881SOL    HW2 2643   1.288   1.861   1.201  1.1866  0.4641 -1.2333
  882SOL     OW 2644   2.188   1.477   2.369 -0.0937  0.2722  0.3083
  882SOL    HW1 2645   2.272   1.462   2.431  0.5223  0.2069 -3.0112
  882SOL    HW2 2646   2.172   1.578   2.351 -1.3912  0.4768  3.0401
  883SOL     OW 2647   1.220   0.363   0.699 -0.0983  0.6611  0.3588
  883SOL    HW1 2648   1.144   0.429   0.722 -1.1414  1.3121 -1.1019
  883SOL    HW2 2649   1.215   0.282   0.762  1.6067 -1.1735  2.5073
  884SOL     OW 2650   0.075   2.839   0.826  0.1987  0.2694  0.3931
  884SOL    HW1 2651   0.098   2.803   0.732 -0.8344 -0.1618 -1.0928
  884SOL    HW2 2652   0.025   2.759   0.872  0.8742 -2.4799 -0.2345
  885SOL     OW 2653   1.016   1.056   2.012  0.0170  0.6338  0.4961
  885SOL    HW1 2654   1.030   1.002   1.925 -0.9746 -1.5591  0.5628
  885SOL    HW2 2655   1.101   1.065   2.063  0.2894  2.3800 -1.5828
  886SOL     OW 2656   1.129   1.106   2.930 -0.5014 -0.2334 -0.3445
  886SOL    HW1 2657   1.051   1.145   2.875  2.8548 -1.1477 -1.2940
  886SOL    HW2 2658   1.215   1.108   2.878  0.5183 -0.3057  1.6353
  887SOL     OW 2659   1.664   0.162   0.950  0.4304  0.4957 -0.0677
  887SOL    HW1 2660   1.623   0.227   1.013  0.3797 -0.0625 -1.8458
  887SOL    HW2 2661   1.767   0.161   0.959 -3.2508 -3.3923  2.5074
  888SOL     OW 2662   2.434   1.423   1.563  0.3934  0.3197  0.5872
  888SOL    HW1 2663   2.503   1.462   1.502 -3.1993  0.4738  3.1380
  888SOL    HW2 2664   2.470   1.434   1.656 -1.0998 -1.3032  2.0233
  889SOL     OW 2665   0.261   2.190   1.065  0.6535  0.4661 -0.2947
  889SOL    HW1 2666   0.179   2.209   1.121  0.3755 -0.0633  2.1126
  889SOL    HW2 2667   0.333   2.254   1.090 -0.7498 -0.7899  0.8887
  890SOL     OW 2668   1.257   2.299   0.554 -0.2775 -0.0290 -0.3109
  890SOL    HW1 2669   1.316   2.293   0.471 -1.9537  3.6114 -0.0459
  890SOL    HW2 2670   1.192   2.376   0.544 -0.0835  1.2151  1.9383
  891SOL     OW 2671   2.709   0.618   2.404 -0.1274  0.0427 -1.0601
  891SOL    HW1 2672   2.806   0.626   2.433  0.2186  1.8614  2.1973
  891SOL    HW2 2673   2.644   0.671   2.461 -0.1653 -1.3896 -1.1149
  892SOL     OW 2674   0.170   2.411   1.602 -0.1525  0.3410  0.8323
  892SOL    HW1 2675   0.211   2.457   1.522  2.0257 -2.4953  0.8114
  892SOL    HW2 2676   0.228   2.400   1.687 -3.1851  1.2475 -1.3973
  893SOL     OW 2677   1.079   0.363   1.807  0.0058 -0.3848 -0.0595
  893SOL    HW1 2678   1.171   0.310   1.809  2.9517 -2.3834  2.3939
  893SOL    HW2 2679   1.086   0.452   1.858 -0.5486  1.5855  3.4257
  894SOL     OW 2680   2.790   0.146   0.899 -0.4240  0.2607 -0.1511
  894SOL    HW1 2681   2.801   0.187   0.992  1.0439  1.1085  0.2405
  894SOL    HW2 2682   2.694   0.152   0.869  1.0555  0.5759 -0.9389
  895SOL     OW 2683   2.000   1.708   2.199 -0.2048 -0.3760  0.2627
  895SOL    HW1 2684   1.927   1.660   2.243 -1.8730 -1.5174 -3.7173
  895SOL    HW2 2685   2.051   1.654   2.127  2.6653  0.4230 -0.4493
  896SOL     OW 2686   1.616   0.388   1.507 -0.6020  0.2468  0.3542
  896SOL    HW1 2687   1.672   0.372   1.423  0.5641 -0.5774  0.4498
  896SOL    HW2 2688   1.540   0.457   1.490 -1.6603  0.3023 -1.6004
  897SOL     OW 2689   0.664   1.520   1.800 -0.1481 -0.3951  0.2400
  897SOL    HW1 2690   0.745   1.560   1.842 -4.1208  2.4804 -0.1666
  897SOL    HW2 2691   0.692   1.428   1.768  0.8497  1.2486  0.4952
  898SOL     OW 2692   1.811   2.160   2.009 -0.2761 -0.1433  0.2528
  898SOL    HW1 2693   1.782   2.078   2.060  1.8641  2.1706 -4.0003
  898SOL    HW2 2694   1.847   2.232   2.074  1.1824  0.2494 -1.6512
  899SOL     OW 2695   1.791   2.149   0.651 -0.6123  0.4751  0.0183
  899SOL    HW1 2696   1.800   2.051   0.677 -1.3726  0.4297  0.4541
  899SOL    HW2 2697   1.752   2.145   0.556 -0.5190 -1.3870  2.5538
  900SOL     OW 2698   1.029   0.100   2.510  0.4303  0.6416 -0.3465
  900SOL    HW1 2699   0.998   0.055   2.596 -0.9472  2.6830  0.9416
  900SOL    HW2 2700   0.955   0.110   2.442 -1.6926  0.7187  0.6554
  901SOL     OW 2701   1.137   1.525   2.234  0.3041 -0.4066 -0.0337
  901SOL    HW1 2702   1.045   1.553   2.202 -1.1401 -3.5718 -0.9654
  901SOL    HW2 2703   1.133   1.429   2.270 -0.0691 -1.5743  0.9157
  902SOL     OW 2704   2.068   0.622   3.116  0.0853  0.4474  0.3909
  902SOL    HW1 2705   2.002   0.658   3.044  2.4470  1.1501  0.4410
  902SOL    HW2 2706   2.029   0.640   0.094 -3.5476 -1.5053 -1.0394
  903SOL     OW 2707   1.969   1.015   2.544 -0.1465  0.4689  0.0997
  903SOL    HW1 2708   1.910   1.097   2.546  0.6612  1.1265  0.4062
  903SOL    HW2 2709   1.969   0.983   2.448 -0.7222  1.8743  2.3151
  904SOL     OW 2710   2.017   1.058   1.807 -0.1502  0.2642  0.6555
  904SOL    HW1 2711   1.941   0.999   1.770  2.3926 -1.2052  0.8824
  904SOL    HW2 2712   2.006   1.152   1.767  0.1664  0.0926 -1.2178
  905SOL     OW 2713   2.359   0.363   0.795 -0.3469 -0.0037  0.0054
  905SOL    HW1 2714   2.379   0.459   0.768 -2.0689 -0.8982  0.2471
  905SOL    HW2 2715   2.375   0.345   0.893 -0.1761  1.9999 -2.6337
  906SOL     OW 2716   2.744   1.578   0.561 -0.4355 -0.0226  0.8129
  906SOL    HW1 2717   2.743   1.481   0.587 -2.3707 -0.2738 -1.3386
  906SOL    HW2 2718   2.734   1.574   0.461 -1.5698  0.7135 -0.5173
  907SOL     OW 2719   1.387   0.236   0.515 -0.2845  0.5768 -0.2834
  907SOL    HW1 2720   1.332   0.297   0.572 -1.3925  3.1385 -0.8962
  907SOL    HW2 2721   1.440   0.176   0.579  0.6493  0.1419  1.8170
  908SOL     OW 2722   1.637   2.454   2.086 -0.6291 -0.3309  0.3507
  908SOL    HW1 2723   1.611   2.361   2.120 -3.8054 -0.9749 -0.5635
  908SOL    HW2 2724   1.737   2.469   2.102  1.0722  1.2526  1.8364
  909SOL     OW 2725   2.456   0.738   1.666  0.4132  0.1260  0.0940
  909SOL    HW1 2726   2.362   0.732   1.630 -3.5283 -0.5795 -0.0651
  909SOL    HW2 2727   2.477   0.673   1.747  1.5557 -2.6528  0.1436
  910SOL     OW 2728   1.175   0.312   2.462 -0.1944 -0.0183 -0.3692
  910SOL    HW1 2729   1.122   0.225   2.461  2.8344  0.7999 -1.2971
  910SOL    HW2 2730   1.218   0.323   2.553 -0.1022  0.4137  1.3137
  911SOL     OW 2731   2.288   1.149   2.469 -0.3356 -0.4894 -0.1552
  911SOL    HW1 2732   2.215   1.138   2.398 -1.6961 -0.5952 -0.4087
  911SOL    HW2 2733   2.378   1.120   2.430  1.2730 -1.3875 -1.5525
  912SOL     OW 2734   2.811   2.253   1.494 -0.4460 -0.1180  0.0143
  912SOL    HW1 2735   2.758   2.176   1.532 -0.5488  3.5631 -2.3377
  912SOL    HW2 2736   2.889   2.291   1.546 -0.6661  0.9887 -0.5698
  913SOL     OW 2737   2.577   1.989   2.124 -0.2877 -0.1916  0.1356
  913SOL    HW1 2738   2.605   2.084   2.152  1.6825 -1.1316 -0.4017
  913SOL    HW2 2739   2.528   1.995   2.033  1.6302  1.1430 -2.6997
  914SOL     OW 2740   2.107   1.709   0.803 -0.2692  0.4627  0.2626
  914SOL    HW1 2741   2.167   1.781   0.834 -0.2160  0.1301 -1.7036
  914SOL    HW2 2742   2.089   1.715   0.706  0.1872 -1.7155 -0.8957
  915SOL     OW 2743   0.915   2.609   2.119 -0.2792  0.1636  0.1330
  915SOL    HW1 2744   0.855   2.657   2.187  0.9553 -0.0332  2.9052
  915SOL    HW2 2745   0.868   2.532   2.069 -0.2621 -0.7776 -1.7755
  916SOL     OW 2746   0.458   2.418   1.179 -0.6626 -0.4943 -0.5151
  916SOL    HW1 2747   0.512   2.363   1.245 -0.1201 -1.6929 -1.5946
  916SOL    HW2 2748   0.372   2.447   1.229  0.8349 -1.1625  0.0542
  917SOL     OW 2749   2.439   0.943   2.705 -0.5811  0.4314  0.1700
  917SOL    HW1 2750   2.388   1.010   2.767 -1.0487  0.5298  1.0288
  917SOL    HW2 2751   2.384   0.857   2.683 -3.0502 -1.6769 -2.0458
  918SOL     OW 2752   1.569   2.197   2.194 -1.2199 -0.2036 -0.5202
  918SOL    HW1 2753   1.628   2.114   2.185  2.8398 -0.2858  0.8327
  918SOL    HW2 2754   1.555   2.228   2.293 -1.5648  0.3337  0.2957
  919SOL     OW 2755   1.976   2.276   0.807 -0.2764 -0.2145 -0.4930
  919SOL    HW1 2756   1.912   2.238   0.735 -1.1653 -1.1068  3.2485
  919SOL    HW2 2757   2.052   2.213   0.823 -0.4306  2.5696  1.4830
  920SOL     OW 2758   1.470   0.466   2.499 -0.0816  0.1147 -0.0436
  920SOL    HW1 2759   1.413   0.411   2.435 -0.8846 -3.2692 -0.2525
  920SOL    HW2 2760   1.427   0.551   2.526  0.1717  0.4000  0.3908
  921SOL     OW 2761   0.210   0.712   2.858  0.4784  0.5636  0.2723
  921SOL    HW1 2762   0.289   0.759   2.815 -0.0898 -0.1236  1.8821
  921SOL    HW2 2763   0.156   0.655   2.795  1.1960  1.6229  0.3135
  922SOL     OW 2764   2.687   1.768   1.326 -0.3839  0.5579 -0.6969
  922SOL    HW1 2765   2.784   1.807   1.352  2.1071  3.2774  0.5633
  922SOL    HW2 2766   2.615   1.839   1.330 -2.4525  0.7724  0.6372
  923SOL     OW 2767   0.125   2.026   2.503 -0.7175 -0.5379  0.0907
  923SOL    HW1 2768   0.042   2.079   2.494  2.5610 -1.1954 -1.5745
  923SOL    HW2 2769   0.198   2.065   2.563  3.0920  0.4796  0.5452
  924SOL     OW 2770   1.568   0.549   1.987 -0.2102  0.0723  0.2436
  924SOL    HW1 2771   1.559   0.447   1.976 -2.9108 -0.3336 -0.8338
  924SOL    HW2 2772   1.591   0.571   2.085  1.5066 -0.0177  3.2075
  925SOL     OW 2773   3.108   1.135   0.303  0.6587 -0.0017 -0.4681
  925SOL    HW1 2774   3.015   1.110   0.328  0.8678  1.7698  1.2214
  925SOL    HW2 2775   0.015   1.208   0.366 -1.2836 -3.4685  0.4446
  926SOL     OW 2776   2.389   0.274   1.067  0.3474 -0.0831 -0.2567
  926SOL    HW1 2777   2.352   0.182   1.036  0.5841 -1.2104  1.3083
  926SOL    HW2 2778   2.382   0.281   1.171 -1.4758 -1.9490 -2.7397
  927SOL     OW 2779   1.368   0.713   0.999  0.2917  0.4799 -0.7260
  927SOL    HW1 2780   1.352   0.737   0.900 -0.2568  1.0817 -2.3058
  927SOL    HW2 2781   1.295   0.650   1.030 -0.2438 -0.2273 -0.5743
  928SOL     OW 2782   2.913   0.355   2.128  0.3706  0.6058 -0.4965
  928SOL    HW1 2783   2.928   0.285   2.204  0.1017 -0.0159 -2.2316
  928SOL    HW2 2784   2.995   0.384   2.085 -1.4803  0.9154 -0.3160
  929SOL     OW 2785   2.428   0.684   1.247  0.5422  0.3903  0.4315
  929SOL    HW1 2786   2.499   0.676   1.317 -0.0924  1.1608  0.8157
  929SOL    HW2 2787   2.417   0.778   1.209  0.4463  1.3577 -1.7391
  930SOL     OW 2788   2.083   2.504   0.982  0.2278  0.8471 -0.9251
  930SOL    HW1 2789   2.024   2.428   0.943 -1.2271  0.3251  2.8340
  930SOL    HW2 2790   2.045   2.543   1.072 -1.0274  1.5966  3.2991
  931SOL     OW 2791   2.097   0.822   1.197  0.0264  0.2926  0.1103
  931SOL    HW1 2792   2.080   0.845   1.295 -0.6421 -0.2851  2.5079
  931SOL    HW2 2793   2.105   0.915   1.155  1.2816 -0.0586  1.3610
  932SOL     OW 2794   0.102   0.802   1.466 -0.6210 -0.0873  0.5304
  932SOL    HW1 2795   0.096   0.708   1.429  4.6113 -1.4698  1.0484
  932SOL    HW2 2796   0.134   0.866   1.387  1.0875 -2.0618 -0.4328
  933SOL     OW 2797   2.173   1.581   2.000  0.0650 -0.3559 -0.1412
  933SOL    HW1 2798   2.147   1.478   2.006  1.0692 -1.7416  3.0428
  933SOL    HW2 2799   2.146   1.623   1.910  0.6560 -0.6818 -0.8803
  934SOL     OW 2800   1.494   2.764   1.533  0.3104  0.3221  0.6445
  934SOL    HW1 2801   1.528   2.712   1.448 -1.9033 -1.9016 -2.0088
  934SOL    HW2 2802   1.497   2.869   1.521  2.4092  0.7409  0.2660
  935SOL     OW 2803   0.143   0.998   1.278  0.1170  0.2507 -0.2535
  935SOL    HW1 2804   0.078   1.021   1.202  2.0348 -0.0346  1.5858
  935SOL    HW2 2805   0.233   1.038   1.257 -0.1251 -0.0535  1.9882
  936SOL     OW 2806   2.618   0.666   1.462 -0.1663 -0.2621  0.6424
  936SOL    HW1 2807   2.562   0.708   1.538  3.3142  2.7829  1.0457
  936SOL    HW2 2808   2.708   0.711   1.455  1.5965  1.6398  0.9244
  937SOL     OW 2809   0.806   0.245   1.500  0.5064  0.6117 -0.1397
  937SOL    HW1 2810   0.767   0.322   1.446  0.1913 -2.3544 -1.5025
  937SOL    HW2 2811   0.789   0.263   1.599  1.1698 -0.5135 -1.7635
  938SOL     OW 2812   0.273   2.409   0.804 -0.7455  0.9110 -0.0748
  938SOL    HW1 2813   0.195   2.365   0.753 -1.5429 -3.1573 -2.3122
  938SOL    HW2 2814   0.356   2.396   0.741  1.2144  0.5698 -1.8738
  939SOL     OW 2815   2.990   2.370   2.649  0.0716 -0.4089 -0.5940
  939SOL    HW1 2816   2.997   2.374   2.547 -1.2904 -1.8276  2.5828
  939SOL    HW2 2817   2.989   2.464   2.683 -0.5997  0.7225  0.8593
  940SOL     OW 2818   1.938   2.135   2.881 -0.4011 -0.0436  0.3886
  940SOL    HW1 2819   1.853   2.187   2.856 -1.0051 -3.1139  0.0386
  940SOL    HW2 2820   1.917   2.037   2.885  2.4012  0.4250  0.9252
  941SOL     OW 2821   1.691   2.438   0.554  0.1893  0.0521 -0.0031
  941SOL    HW1 2822   1.638   2.397   0.625  0.1048  1.0343 -2.0598
  941SOL    HW2 2823   1.789   2.468   0.577 -0.6964 -0.5609 -0.9865
  942SOL     OW 2824   1.751   1.727   1.151 -0.1854  0.3116  0.6221
  942SOL    HW1 2825   1.848   1.752   1.131 -0.8278  0.1081  0.8793
  942SOL    HW2 2826   1.685   1.771   1.083 -0.0277 -0.0019 -1.9190
  943SOL     OW 2827   2.007   0.733   2.083  0.1122  0.1143  0.0530
  943SOL    HW1 2828   1.963   0.779   2.002  2.4755  1.1403 -0.3783
  943SOL    HW2 2829   2.062   0.654   2.052  0.7040 -0.5965 -0.4515
  944SOL     OW 2830   1.819   0.908   1.724  0.1478 -0.0824  0.0106
  944SOL    HW1 2831   1.750   0.871   1.790 -1.0579  0.7260  0.4075
  944SOL    HW2 2832   1.788   0.891   1.632 -2.8697 -1.5541  0.7967
  945SOL     OW 2833   2.800   2.615   1.251  0.1215 -0.4644 -0.3251
  945SOL    HW1 2834   2.714   2.673   1.236 -0.5348  0.6578 -0.2888
  945SOL    HW2 2835   2.877   2.667   1.206  0.3623  2.4958 -3.1832
  946SOL     OW 2836   0.750   1.434   1.067 -0.2326  0.2598  0.0532
  946SOL    HW1 2837   0.715   1.371   0.994 -0.2295 -1.2030 -1.3444
  946SOL    HW2 2838   0.717   1.532   1.066 -0.0609 -2.2294 -1.0201
  947SOL     OW 2839   0.742   2.650   0.924  0.5699  0.0867 -0.4213
  947SOL    HW1 2840   0.746   2.751   0.907  1.8899  0.6560  0.1395
  947SOL    HW2 2841   0.643   2.620   0.926 -5.2987  0.0496  1.5528
  948SOL     OW 2842   0.243   1.424   1.667 -0.1119  0.4914 -0.2154
  948SOL    HW1 2843   0.272   1.326   1.686  0.4691 -1.0718 -0.0980
  948SOL    HW2 2844   0.305   1.492   1.707 -3.0337 -0.6445  0.3371
  949SOL     OW 2845   0.432   0.854   2.238 -0.6345 -0.5028  0.2008
  949SOL    HW1 2846   0.530   0.867   2.221 -2.7438  1.7077 -1.3042
  949SOL    HW2 2847   0.383   0.875   2.153 -0.4758  0.4573 -0.1900
  950SOL     OW 2848   0.261   0.384   1.291 -0.2694  0.6755 -0.1185
  950SOL    HW1 2849   0.357   0.390   1.340  2.4503  2.8777  2.3158
  950SOL    HW2 2850   0.227   0.476   1.257  0.1975  0.0790  1.2182
  951SOL     OW 2851   1.201   1.803   2.287  0.3764  0.0880 -0.6402
  951SOL    HW1 2852   1.190   1.702   2.272 -2.5269 -2.4936  0.3584
  951SOL    HW2 2853   1.120   1.854   2.243  0.5404  0.4808  0.9073
  952SOL     OW 2854   1.178   1.751   0.240 -0.3063  0.0712 -0.6037
  952SOL    HW1 2855   1.191   1.724   0.337  2.4009  1.4009 -0.2755
  952SOL    HW2 2856   1.255   1.724   0.185 -1.9208  0.4484  1.6343
  953SOL     OW 2857   0.957   3.071   2.732  0.0814 -0.0759 -0.5419
  953SOL    HW1 2858   0.864   3.045   2.768 -2.2439 -0.3861 -0.2286
  953SOL    HW2 2859   1.016   2.988   2.737  0.9921 -0.8221 -0.2820
  954SOL     OW 2860   1.995   1.620   0.132 -0.4904  0.2659 -0.8515
  954SOL    HW1 2861   1.944   1.551   0.075 -1.7943 -2.1777 -0.0964
  954SOL    HW2 2862   2.081   1.582   0.168 -1.1548  1.3001 -0.4919
  955SOL     OW 2863   0.469   2.473   2.957  0.1048 -0.3220 -0.1293
  955SOL    HW1 2864   0.512   2.485   2.867  1.1500 -0.7295  2.0047
  955SOL    HW2 2865   0.414   2.384   2.967 -2.4155 -1.8443 -0.6129
  956SOL     OW 2866   1.324   0.921   1.755 -0.0310  0.8597  0.2794
  956SOL    HW1 2867   1.228   0.914   1.778 -0.2951 -0.0198  0.1484
  956SOL    HW2 2868   1.345   0.914   1.656  3.0499  0.1137 -2.5742
  957SOL     OW 2869   1.921   1.884   1.859 -0.0386 -0.1831 -0.1385
  957SOL    HW1 2870   1.922   1.979   1.888 -0.2280  2.7647 -2.1913
  957SOL    HW2 2871   1.886   1.882   1.766 -0.8869 -0.8519  0.7815
  958SOL     OW 2872   1.334   2.171   1.630  0.4360  0.2015 -0.3687
  958SOL    HW1 2873   1.270   2.250   1.616 -1.8276  1.3933  1.3724
  958SOL    HW2 2874   1.430   2.190   1.597  1.4682 -0.1822  0.5300
  959SOL     OW 2875   1.329   1.375   1.367  0.0521 -0.3282  0.3421
  959SOL    HW1 2876   1.430   1.367   1.350  0.9818 -1.6374 -1.1065
  959SOL    HW2 2877   1.308   1.343   1.466  0.0452 -0.6547  0.4058
  960SOL     OW 2878   0.232   1.472   3.001  0.0285 -0.2878  0.2086
  960SOL    HW1 2879   0.282   1.437   3.083  0.6836 -1.1500 -3.0989
  960SOL    HW2 2880   0.250   1.415   2.916 -1.5550  2.4939 -2.7534
  961SOL     OW 2881   0.464   1.366   2.225 -0.3311  0.0468  0.0688
  961SOL    HW1 2882   0.428   1.287   2.280 -0.2180 -2.8633  0.8610
  961SOL    HW2 2883   0.565   1.351   2.205 -0.7386 -1.1656 -2.1088
  962SOL     OW 2884   1.349   1.535   0.798 -0.2309  0.1048 -0.3154
  962SOL    HW1 2885   1.421   1.593   0.751 -1.2213  2.3490  0.9787
  962SOL    HW2 2886   1.370   1.539   0.900  0.2101  0.9294  1.8497
  963SOL     OW 2887   1.253   2.215   2.528 -0.4607 -0.1041  0.1629
  963SOL    HW1 2888   1.209   2.212   2.433  0.3952 -0.6573 -1.3910
  963SOL    HW2 2889   1.195   2.152   2.587 -0.7837  2.0614  0.9943
  964SOL     OW 2890   0.842   3.057   0.144 -0.5078 -0.0828 -0.1598
  964SOL    HW1 2891   0.766   3.115   0.181 -0.9688 -1.3923 -1.3885
  964SOL    HW2 2892   0.802   2.995   0.072  2.2092 -1.8703  1.3683
  965SOL     OW 2893   0.455   2.921   0.846  0.8239  1.0968 -0.1163
  965SOL    HW1 2894   0.554   2.924   0.828  1.1434  1.3085 -0.4941
  965SOL    HW2 2895   0.409   3.015   0.848  1.7942  1.3182  0.4394
  966SOL     OW 2896   0.430   1.711   2.952  0.2339 -0.1631  0.0473
  966SOL    HW1 2897   0.409   1.733   3.047  1.6184  1.9867  0.6207
  966SOL    HW2 2898   0.373   1.638   2.913 -0.3257  0.0392  1.4800
  967SOL     OW 2899   0.559   2.999   2.520  0.3172  0.1018  0.1720
  967SOL    HW1 2900   0.533   3.087   2.567 -2.6385 -1.1320  2.4942
  967SOL    HW2 2901   0.614   3.016   2.438  2.8968 -3.4362  1.0363
  968SOL     OW 2902   2.267   0.514   0.443 -0.2064 -0.2990  1.0004
  968SOL    HW1 2903   2.206   0.447   0.398  3.1238  0.3606  2.1214
  968SOL    HW2 2904   2.295   0.589   0.377  1.2787 -1.1741  0.3904
  969SOL     OW 2905   2.961   1.891   2.099 -0.4037  0.7425  0.2393
  969SOL    HW1 2906   3.027   1.848   2.028  3.1248 -0.0943  0.2242
  969SOL    HW2 2907   2.908   1.818   2.143 -0.0995  1.2800 -2.2422
  970SOL     OW 2908   2.158   1.412   1.342 -0.4999 -0.0790  0.2747
  970SOL    HW1 2909   2.216   1.456   1.268 -0.3772  0.0051  0.0995
  970SOL    HW2 2910   2.193   1.318   1.366 -0.0351 -3.5524  1.2345
  971SOL     OW 2911   1.909   0.019   1.217 -0.0358 -0.4024  0.1498
  971SOL    HW1 2912   1.903   0.005   1.115  3.1954  0.3712 -0.0125
  971SOL    HW2 2913   1.866   3.056   1.268 -1.9950 -1.1481 -0.2281
  972SOL     OW 2914   0.300   2.856   1.669  0.4113 -0.5040 -0.3526
  972SOL    HW1 2915   0.323   2.881   1.765  1.1319  0.0621  1.5657
  972SOL    HW2 2916   0.213   2.799   1.667 -0.8286 -3.4681  0.3855
  973SOL     OW 2917   2.677   0.854   0.133 -0.1786 -0.6370  0.5931
  973SOL    HW1 2918   2.697   0.823   0.036 -0.0572 -0.7899 -2.9955
  973SOL    HW2 2919   2.647   0.950   0.144  0.1591 -3.1766  0.3818
  974SOL     OW 2920   1.929   1.389   2.345  0.0883  0.5982  0.0975
  974SOL    HW1 2921   2.024   1.413   2.371  1.1053  0.9314  0.5998
  974SOL    HW2 2922   1.929   1.331   2.264 -0.6143 -1.1914  0.9447
  975SOL     OW 2923   0.079   2.725   1.584 -0.3297  0.3531  0.4463
  975SOL    HW1 2924   0.047   2.747   1.491 -1.0566  0.1715  0.1340
  975SOL    HW2 2925   0.063   2.630   1.611  0.7908  0.9889 -1.9696
  976SOL     OW 2926   0.303   1.720   2.091 -0.1968  0.3895 -0.7841
  976SOL    HW1 2927   0.299   1.819   2.074  0.4728 -1.7620  0.4864
  976SOL    HW2 2928   0.234   1.698   2.165  1.2743  0.3561  1.0008
  977SOL     OW 2929   1.019   2.788   0.246 -0.6246 -0.3064  0.0136
  977SOL    HW1 2930   1.111   2.786   0.286  1.7497 -1.8946  0.8260
  977SOL    HW2 2931   1.003   2.884   0.222  1.0300  0.9457  1.7113
  978SOL     OW 2932   0.103   1.915   2.826 -0.2763 -0.5384  0.3483
  978SOL    HW1 2933   0.051   2.004   2.806 -2.4864 -0.4934 -3.0168
  978SOL    HW2 2934   0.179   1.907   2.760  1.5234  0.4104 -0.7246
  979SOL     OW 2935   1.614   2.280   1.230  0.5192  0.2091 -0.4298
  979SOL    HW1 2936   1.669   2.359   1.202 -1.4880  1.2508  0.1995
  979SOL    HW2 2937   1.650   2.191   1.190 -0.7196 -2.5355  0.1680
  980SOL     OW 2938   0.979   1.806   2.864  0.0736  0.7543 -0.0491
  980SOL    HW1 2939   0.957   1.792   2.765  0.0411  1.1870 -2.4637
  980SOL    HW2 2940   1.045   1.736   2.905  2.6063 -1.0988  1.9997
  981SOL     OW 2941   2.497   2.956   2.375 -0.4794  0.6144  0.5582
  981SOL    HW1 2942   2.516   3.025   2.300 -0.8274 -0.4113 -1.6577
  981SOL    HW2 2943   2.465   3.008   2.457 -1.8359 -0.2777  3.0683
  982SOL     OW 2944   0.106   3.094   2.533  0.2592 -0.1680  0.9661
  982SOL    HW1 2945   0.104   0.080   2.514 -1.0503  1.2390 -1.1210
  982SOL    HW2 2946   0.027   3.055   2.482 -0.6892  0.2718 -1.4933
  983SOL     OW 2947   2.189   1.315   1.684  0.6005 -0.0681  0.4814
  983SOL    HW1 2948   2.270   1.365   1.660  1.3647  1.6104 -1.8323
  983SOL    HW2 2949   2.111   1.361   1.633  0.2875 -0.5822 -1.8302
  984SOL     OW 2950   1.293   0.540   1.857 -0.3621  0.1930 -0.4792
  984SOL    HW1 2951   1.266   0.594   1.938 -0.9611 -0.9562 -2.7480
  984SOL    HW2 2952   1.395   0.527   1.857 -0.1914  1.9280  0.4196
  985SOL     OW 2953   1.771   1.662   1.970 -0.4215  0.0781  0.6489
  985SOL    HW1 2954   1.714   1.684   2.050 -2.9372 -2.0847  0.6606
  985SOL    HW2 2955   1.831   1.734   1.926 -0.5555  0.4138 -0.4372
  986SOL     OW 2956   1.893   0.420   1.938 -0.1023 -0.2515  0.0275
  986SOL    HW1 2957   1.984   0.461   1.962 -0.3253  0.7094  0.9079
  986SOL    HW2 2958   1.874   0.460   1.843 -0.7803  1.2232  0.3651
  987SOL     OW 2959   2.141   0.535   1.933  0.3548  0.3994 -0.0382
  987SOL    HW1 2960   2.218   0.474   1.955  1.7358 -2.9956 -1.3924
  987SOL    HW2 2961   2.151   0.566   1.840  1.6471  0.2832  0.5874
  988SOL     OW 2962   2.686   0.713   2.146  0.3642  0.3991 -0.1803
  988SOL    HW1 2963   2.689   0.674   2.240  0.3591  1.2052  0.5617
  988SOL    HW2 2964   2.649   0.808   2.148  3.0733 -0.2029 -0.6148
  989SOL     OW 2965   2.059   2.289   2.694 -0.3836  0.0598  0.4253
  989SOL    HW1 2966   2.094   2.217   2.631  1.4180 -3.0176  0.4053
  989SOL    HW2 2967   2.003   2.247   2.771 -0.8984  0.8095  1.7567
  990SOL     OW 2968   0.965   0.598   2.638  0.0636  0.6220 -0.2464
  990SOL    HW1 2969   0.903   0.533   2.689  1.0978 -0.7668 -0.4480
  990SOL    HW2 2970   0.963   0.687   2.690  0.2509  4.9263  0.6141
  991SOL     OW 2971   1.289   0.942   0.399  0.3852  0.2764 -0.4376
  991SOL    HW1 2972   1.307   1.042   0.420 -1.0156  0.0205  1.2869
  991SOL    HW2 2973   1.287   0.929   0.292 -2.5856 -0.8408 -2.2509
  992SOL     OW 2974   2.540   2.093   2.749  0.4459 -0.2237 -0.1181
  992SOL    HW1 2975   2.626   2.150   2.726 -0.9275  4.7787  0.1736
  992SOL    HW2 2976   2.514   2.035   2.666  2.3000 -2.9971 -3.3767
  993SOL     OW 2977   0.476   0.336   0.226  0.1844 -0.1276  0.6786
  993SOL    HW1 2978   0.461   0.431   0.253  2.4086 -0.8129 -0.1588
  993SOL    HW2 2979   0.406   0.282   0.276  0.4273  0.7327 -0.0265
  994SOL     OW 2980   0.322   2.108   1.766 -0.4077  0.5374  0.1349
  994SOL    HW1 2981   0.332   2.209   1.791 -0.4928  0.4053 -0.3383
  994SOL    HW2 2982   0.343   2.085   1.666  2.2146 -1.0844 -2.2033
  995SOL     OW 2983   1.976   1.495   2.813 -0.5668 -0.5466 -0.1953
  995SOL    HW1 2984   1.886   1.443   2.809  1.0953  0.1023  1.1462
  995SOL    HW2 2985   2.047   1.422   2.822 -1.5404  0.7503 -1.3635
  996SOL     OW 2986   1.618   1.740   2.774  0.1887  0.4729  0.3200
  996SOL    HW1 2987   1.665   1.737   2.686 -1.6290 -0.9875  2.6803
  996SOL    HW2 2988   1.527   1.789   2.773  2.0310 -2.4683  1.0352
  997SOL     OW 2989   1.891   1.211   1.294  0.1910  0.3379 -0.2098
  997SOL    HW1 2990   1.990   1.206   1.272  0.9089 -0.8904  1.6534
  997SOL    HW2 2991   1.848   1.294   1.248  0.4624  0.2581 -1.1416
  998SOL     OW 2992   2.632   1.380   0.156  0.2344  0.6976 -0.0896
  998SOL    HW1 2993   2.650   1.280   0.154  0.8474 -2.2439  1.3586
  998SOL    HW2 2994   2.716   1.429   0.123  3.3657 -0.3952 -2.0120
  999SOL     OW 2995   2.930   2.504   0.395  0.0166  0.3430 -0.1088
  999SOL    HW1 2996   2.877   2.552   0.468  0.6107 -0.6569 -0.1278
  999SOL    HW2 2997   2.894   2.512   0.302  1.6394 -0.2550 -0.6154
 1000SOL     OW 2998   0.861   3.041   1.748  0.2086  0.2923  0.3369
 1000SOL    HW1 2999   0.768   3.007   1.767  0.2380 -1.8531  0.3221
 1000SOL    HW2 3000   0.870   0.024   1.772 -1.0876  0.7187  0.4999
   3.11591   3.11591   3.11591
