1000 SPC/Fw water molecules t= 213.00000 step= 213000
 3000
    1SOL     OW    1   2.922   2.809   0.936 -0.2608  0.2982 -0.0045
    1SOL    HW1    2   2.957   2.761   0.854  3.5274 -2.1356  1.5393
    1SOL    HW2    3   2.916   2.910   0.931 -0.0763  0.1185  0.5787
    2SOL     OW    4   1.817   1.596   1.909  0.2583  0.3137 -0.4108
    2SOL    HW1    5   1.906   1.592   1.855  1.7741 -1.8757 -1.3485
    2SOL    HW2    6   1.803   1.503   1.943  2.4951  2.1036  0.5992
    3SOL     OW    7   1.863   2.360   2.212  0.7543 -0.3923 -0.2724
    3SOL    HW1    8   1.825   2.413   2.289 -1.7294 -1.0266 -0.4748
    3SOL    HW2    9   1.961   2.348   2.227 -0.9355 -2.3466  0.9413
    4SOL     OW   10   2.125   1.826   2.433 -0.4202  0.2190 -0.2577
    4SOL    HW1   11   2.198   1.762   2.402  0.0150  0.2329  0.1548
    4SOL    HW2   12   2.055   1.778   2.489 -0.8437  0.0559  2.6654
    5SOL     OW   13   1.306   0.609   1.725 -0.3049 -0.0769 -0.4542
    5SOL    HW1   14   1.374   0.528   1.722  2.7696 -0.0189  2.5188
    5SOL    HW2   15   1.267   0.627   1.634  0.2687 -3.2612 -1.1936
    6SOL     OW   16   2.773   0.523   3.058 -0.1911 -0.2035 -0.1545
    6SOL    HW1   17   2.863   0.472   3.055 -0.1233  0.7989 -0.2136
    6SOL    HW2   18   2.694   0.456   3.041 -0.5408 -1.5164 -4.9631
    7SOL     OW   19   0.694   1.481   1.435 -0.3348 -0.1086  0.4943
    7SOL    HW1   20   0.716   1.437   1.343 -1.5869 -5.7922 -0.7748
    7SOL    HW2   21   0.674   1.578   1.419  2.1283 -0.6491 -1.3326
    8SOL     OW   22   1.194   0.614   0.866  0.0140  0.1841  0.2419
    8SOL    HW1   23   1.095   0.594   0.849  1.1496  1.8987 -0.0753
    8SOL    HW2   24   1.248   0.542   0.914  1.5251  0.1549  0.7851
    9SOL     OW   25   1.019   0.699   2.494  0.2507 -0.0790 -0.0773
    9SOL    HW1   26   1.049   0.728   2.400  0.1334  2.6939 -1.8059
    9SOL    HW2   27   1.066   0.605   2.505 -0.9503 -3.7942 -0.6912
   10SOL     OW   28   0.533   2.558   0.351  0.2293 -0.3169 -0.2605
   10SOL    HW1   29   0.623   2.529   0.394  1.2451  1.2001  2.5671
   10SOL    HW2   30   0.547   2.631   0.280  0.2453 -0.0072 -1.0409
   11SOL     OW   31   0.746   1.289   3.051  0.3424 -0.2253 -0.3778
   11SOL    HW1   32   0.684   1.209   3.079 -2.7697 -3.7200  1.4770
   11SOL    HW2   33   0.774   1.339   0.028 -0.7272 -0.5223 -0.4473
   12SOL     OW   34   0.426   0.399   1.534  0.0631 -0.4014  0.0649
   12SOL    HW1   35   0.409   0.311   1.488 -3.6511 -2.2597  1.6259
   12SOL    HW2   36   0.479   0.386   1.618  0.3921 -0.0978 -0.2778
   13SOL     OW   37   0.909   0.035   0.318  0.3805  0.1874  0.7534
   13SOL    HW1   38   0.983   0.076   0.259  1.4841 -0.7343  0.0192
   13SOL    HW2   39   0.942   0.006   0.413 -0.1179  1.5671  0.5018
   14SOL     OW   40   1.143   2.344   1.175 -0.1947  0.2327  0.1494
   14SOL    HW1   41   1.074   2.363   1.107  1.8868 -2.1271 -0.4660
   14SOL    HW2   42   1.211   2.274   1.145 -0.3545 -0.8683 -0.3430
   15SOL     OW   43   2.767   1.197   1.787 -0.6470 -0.3962 -0.1510
   15SOL    HW1   44   2.748   1.123   1.723  1.0236 -2.8887 -0.9625
   15SOL    HW2   45   2.863   1.181   1.817  1.5805  3.0025 -1.7086
   16SOL     OW   46   1.383   3.028   3.040  0.3868  0.2540  0.2484
   16SOL    HW1   47   1.352   0.015   3.057  3.2250 -0.8561 -1.2989
   16SOL    HW2   48   1.477   3.024   3.065 -2.8112  1.4025 -2.8865
   17SOL     OW   49   0.754   0.271   1.389  0.1755  0.2265  0.4377
   17SOL    HW1   50   0.711   0.224   1.310 -2.7046 -2.0966 -1.3459
   17SOL    HW2   51   0.742   0.372   1.369 -1.2167  1.3487 -3.8185
   18SOL     OW   52   1.196   0.775   0.010 -0.6119  0.1904  0.6056
   18SOL    HW1   53   1.218   0.690   0.052 -0.6612  0.4395  0.7360
   18SOL    HW2   54   1.182   0.851   0.073  2.3641  1.3478 -0.0641
   19SOL     OW   55   2.248   1.708   0.075  0.1240  0.2714 -0.2866
   19SOL    HW1   56   2.188   1.788   0.054  0.8721  0.2218 -0.0399
   19SOL    HW2   57   2.187   1.639   0.115 -1.3843  1.7210 -0.3362
   20SOL     OW   58   2.010   1.644   1.603  0.6290 -0.0132 -0.1714
   20SOL    HW1   59   1.996   1.734   1.655  1.3258 -0.3631  0.1136
   20SOL    HW2   60   1.947   1.635   1.526  0.2701 -0.7520  2.7810
   21SOL     OW   61   0.970   1.143   3.073  0.1052  0.1311 -0.0385
   21SOL    HW1   62   1.055   1.193   3.056  0.5174 -0.2825 -0.5941
   21SOL    HW2   63   0.886   1.203   3.070 -2.6284  0.4825  0.1575
   22SOL     OW   64   2.210   3.098   1.268 -0.8123  0.0580 -0.0182
   22SOL    HW1   65   2.128   0.040   1.238 -0.0064  0.9705  2.6534
   22SOL    HW2   66   2.246   3.036   1.197 -2.0886 -0.9193 -0.3849
   23SOL     OW   67   3.012   0.865   1.708 -0.1143 -0.1735  0.2305
   23SOL    HW1   68   3.080   0.931   1.737 -0.2738 -0.8741  0.1285
   23SOL    HW2   69   2.986   0.879   1.610 -0.6952 -2.2857 -0.2076
   24SOL     OW   70   2.377   2.470   1.212  0.0406  0.0460  0.1247
   24SOL    HW1   71   2.316   2.490   1.135  1.0739  1.9443  3.2402
   24SOL    HW2   72   2.471   2.445   1.182 -0.2397 -0.3686 -2.6018
   25SOL     OW   73   1.788   2.834   2.628  0.4406  0.3104 -0.5118
   25SOL    HW1   74   1.685   2.816   2.624 -0.9248 -0.6771  0.9463
   25SOL    HW2   75   1.840   2.784   2.556  0.0131 -0.3724  0.9025
   26SOL     OW   76   1.419   2.756   0.415 -0.0272 -0.2553  0.6832
   26SOL    HW1   77   1.472   2.672   0.439 -0.3158  0.1113  0.8697
   26SOL    HW2   78   1.347   2.728   0.351 -0.7676  1.2742 -1.9404
   27SOL     OW   79   0.594   1.636   2.755 -0.1321  0.0298 -0.3407
   27SOL    HW1   80   0.530   1.683   2.814  2.1454 -1.6503 -1.5687
   27SOL    HW2   81   0.639   1.712   2.705  1.2432  0.8119  0.3402
   28SOL     OW   82   2.996   1.173   1.528  0.5112  0.0722  0.0328
   28SOL    HW1   83   2.979   1.258   1.473 -1.0805 -2.4263  0.4048
   28SOL    HW2   84   3.068   1.194   1.595 -1.4647  0.5293 -3.0678
   29SOL     OW   85   2.720   2.442   2.097  0.0500  0.6202  0.1478
   29SOL    HW1   86   2.741   2.400   2.189 -1.5023 -1.3674 -0.1089
   29SOL    HW2   87   2.703   2.368   2.030 -0.5482 -0.1979  1.0950
   30SOL     OW   88   1.330   0.168   0.060  0.4404 -0.5374 -0.2570
   30SOL    HW1   89   1.389   0.204   3.083  2.8139  0.0800 -4.0273
   30SOL    HW2   90   1.388   0.171   0.141 -0.8657  1.5476 -1.9034
   31SOL     OW   91   2.851   2.427   1.858  0.2925 -0.3642  0.0537
   31SOL    HW1   92   2.814   2.456   1.949  1.7294 -1.2197 -0.9453
   31SOL    HW2   93   2.884   2.332   1.860 -0.2899  1.2085  1.3705
   32SOL     OW   94   1.300   1.346   1.401 -0.0300  0.6000 -0.1626
   32SOL    HW1   95   1.212   1.297   1.417  0.5407 -1.1712  1.7799
   32SOL    HW2   96   1.290   1.448   1.403 -1.1256 -1.5163 -1.5743
   33SOL     OW   97   0.027   2.522   2.713 -0.4481 -0.4611  0.0941
   33SOL    HW1   98   0.114   2.505   2.664 -2.2690 -2.0721  1.7125
   33SOL    HW2   99   3.067   2.567   2.650 -0.2861 -1.7679 -0.0082
   34SOL     OW  100   1.797   0.132   0.732 -0.7443 -0.5259  0.3752
   34SOL    HW1  101   1.858   0.110   0.653 -0.3204 -0.0566 -3.8633
   34SOL    HW2  102   1.730   0.202   0.696 -1.0705  1.0652  0.2910
   35SOL     OW  103   2.309   0.183   0.898 -0.0716 -0.0535  0.6132
   35SOL    HW1  104   2.264   0.100   0.860  0.0507  1.6500 -1.6063
   35SOL    HW2  105   2.411   0.179   0.891  2.8112  0.9769 -0.4558
   36SOL     OW  106   1.930   2.702   2.427 -0.0067  0.4070  0.0798
   36SOL    HW1  107   2.026   2.690   2.444 -3.8883 -1.1003  1.0193
   36SOL    HW2  108   1.913   2.726   2.330 -0.6662 -1.1048  1.5756
   37SOL     OW  109   1.104   2.600   2.460 -0.3366  0.0797  0.1854
   37SOL    HW1  110   1.063   2.574   2.545 -0.7250  1.5579 -0.3633
   37SOL    HW2  111   1.206   2.590   2.465 -0.2452 -2.1477  2.3557
   38SOL     OW  112   2.769   0.085   2.743  0.1440 -0.1313 -1.0243
   38SOL    HW1  113   2.798   0.093   2.841 -2.2369 -2.0778  0.8019
   38SOL    HW2  114   2.667   0.075   2.733 -0.7256 -1.4929  3.5379
   39SOL     OW  115   2.187   1.498   1.757  0.1969 -0.0570  0.8067
   39SOL    HW1  116   2.284   1.529   1.773 -0.3645  1.4447  2.9707
   39SOL    HW2  117   2.133   1.567   1.705  1.5335 -0.8800 -1.0192
   40SOL     OW  118   0.192   2.964   2.739 -0.0403  0.0676 -0.6814
   40SOL    HW1  119   0.201   3.046   2.802 -1.0098  3.5140 -0.8490
   40SOL    HW2  120   0.139   2.892   2.785 -0.7735  1.9602  0.2409
   41SOL     OW  121   1.715   0.566   0.744 -0.1028  0.5200 -0.3076
   41SOL    HW1  122   1.683   0.615   0.825  2.2767 -0.6283 -3.4236
   41SOL    HW2  123   1.817   0.578   0.737  0.4875  0.4630  0.2165
   42SOL     OW  124   0.523   0.822   1.501  0.6146 -0.2628  1.0220
   42SOL    HW1  125   0.435   0.771   1.493  1.8690  1.8958 -0.6178
   42SOL    HW2  126   0.581   0.779   1.567 -4.3344  1.9452 -2.0432
   43SOL     OW  127   2.659   1.453   2.654  0.6792  0.1434 -0.1546
   43SOL    HW1  128   2.605   1.535   2.636  1.3546 -0.1998 -2.1536
   43SOL    HW2  129   2.618   1.376   2.597 -0.7730  0.6119  0.2552
   44SOL     OW  130   2.949   2.872   0.554 -0.2460 -0.7431  0.4982
   44SOL    HW1  131   2.997   2.959   0.575  0.2240  0.5356 -0.4997
   44SOL    HW2  132   2.976   2.797   0.621  0.1698 -2.2883  2.0286
   45SOL     OW  133   0.145   2.368   1.942 -0.6765  0.0219 -0.0030
   45SOL    HW1  134   0.082   2.446   1.924 -0.3582  0.3849  2.3005
   45SOL    HW2  135   0.242   2.386   1.933 -1.3766 -1.9361  1.3472
   46SOL     OW  136   2.366   2.478   2.355 -0.0621 -0.0244 -0.1448
   46SOL    HW1  137   2.450   2.447   2.409  1.3852 -1.2430  2.6171
   46SOL    HW2  138   2.393   2.528   2.264  0.9464  1.7623 -1.6229
   47SOL     OW  139   2.249   2.051   1.652  0.2670  0.2078  0.2366
   47SOL    HW1  140   2.334   2.029   1.704 -1.1604 -0.7953  1.4755
   47SOL    HW2  141   2.167   1.998   1.684  2.8331  0.5852 -1.5584
   48SOL     OW  142   0.693   1.800   0.237 -0.2478 -0.7999 -0.6412
   48SOL    HW1  143   0.619   1.786   0.166 -0.1298 -0.7078  0.2299
   48SOL    HW2  144   0.784   1.784   0.200 -1.1347  0.8971 -1.4508
   49SOL     OW  145   2.537   0.371   2.664  0.0491 -0.0511 -0.1158
   49SOL    HW1  146   2.507   0.280   2.677  1.8949  0.1821  1.6508
   49SOL    HW2  147   2.489   0.412   2.583 -0.1484  0.0684  0.5293
   50SOL     OW  148   2.333   1.038   0.045  0.2783 -0.2945  0.0548
   50SOL    HW1  149   2.245   1.044   0.095  0.7631  0.3634  2.6975
   50SOL    HW2  150   2.383   0.965   0.086 -1.9109  4.3056 -2.4859
   51SOL     OW  151   1.978   0.678   1.106 -0.0650  0.3903  1.0889
   51SOL    HW1  152   1.923   0.591   1.137 -1.9901 -1.5621  1.9226
   51SOL    HW2  153   2.067   0.665   1.159  3.0297 -1.5974  2.2959
   52SOL     OW  154   1.220   1.168   3.007 -0.4190  0.6777 -0.3498
   52SOL    HW1  155   1.294   1.220   3.062 -1.1459  2.0643 -0.0271
   52SOL    HW2  156   1.242   1.086   2.951 -0.7966  3.0354  1.2856
   53SOL     OW  157   1.020   1.699   2.144  0.1469  0.2382 -0.5179
   53SOL    HW1  158   0.942   1.649   2.184  0.1858 -0.7248 -0.5570
   53SOL    HW2  159   1.024   1.673   2.045  0.2997 -0.3503  0.6974
   54SOL     OW  160   2.065   0.280   1.218  0.0665  0.1513 -0.2762
   54SOL    HW1  161   2.030   0.195   1.170  0.2806 -0.0683 -1.0698
   54SOL    HW2  162   2.159   0.296   1.187  2.9721 -0.2582  2.5569
   55SOL     OW  163   2.552   2.601   0.929  0.2919 -0.3620  0.1473
   55SOL    HW1  164   2.456   2.568   0.933 -3.4341  0.3768  1.4021
   55SOL    HW2  165   2.553   2.702   0.921  0.7058  2.9915 -0.1052
   56SOL     OW  166   0.731   2.770   1.448  0.5397 -0.0455  0.5323
   56SOL    HW1  167   0.771   2.695   1.400 -3.0629  2.9775  1.7493
   56SOL    HW2  168   0.807   2.835   1.482  0.8549  0.8585  2.2942
   57SOL     OW  169   1.521   1.242   0.316 -0.1303  0.5723 -0.1193
   57SOL    HW1  170   1.455   1.257   0.393  1.3784 -0.0018  0.8976
   57SOL    HW2  171   1.604   1.296   0.335 -0.7785 -3.2382 -0.1731
   58SOL     OW  172   2.973   0.472   2.403 -0.2262  0.4005  0.3944
   58SOL    HW1  173   2.930   0.555   2.361  1.7179  3.0506 -1.4309
   58SOL    HW2  174   2.902   0.415   2.449 -0.1488  0.6283  1.1886
   59SOL     OW  175   1.034   2.745   2.766  0.5633 -0.4690  0.1119
   59SOL    HW1  176   1.110   2.723   2.833 -0.1916 -0.9709  3.8526
   59SOL    HW2  177   1.006   2.656   2.719  1.9686 -0.2207  1.6000
   60SOL     OW  178   2.183   2.685   0.751 -0.3746  0.1674 -0.1191
   60SOL    HW1  179   2.240   2.640   0.683 -0.8741 -0.3137  0.6470
   60SOL    HW2  180   2.141   2.769   0.713  1.6959 -0.3151 -1.9168
   61SOL     OW  181   1.238   2.308   0.808 -0.0640  0.4725 -0.2549
   61SOL    HW1  182   1.191   2.397   0.809 -0.8877 -3.1495 -1.5849
   61SOL    HW2  183   1.339   2.309   0.818  1.9498  1.7333 -0.9847
   62SOL     OW  184   2.530   2.281   2.704 -0.1290 -0.7630 -0.4057
   62SOL    HW1  185   2.440   2.236   2.700  0.6868 -0.7475 -0.1344
   62SOL    HW2  186   2.606   2.218   2.722  0.4494  2.0417 -0.3110
   63SOL     OW  187   2.386   0.452   2.890 -0.0152  0.7371  0.0122
   63SOL    HW1  188   2.461   0.450   2.818  1.0867  0.5585 -1.3209
   63SOL    HW2  189   2.402   0.381   2.958 -1.5483 -0.0745 -1.0783
   64SOL     OW  190   1.122   0.860   2.675  0.0789 -0.1909  0.2151
   64SOL    HW1  191   1.053   0.901   2.737 -0.3456 -1.1017  2.4170
   64SOL    HW2  192   1.080   0.812   2.599 -2.1596 -3.5974 -0.3559
   65SOL     OW  193   1.218   2.010   0.414  0.1963 -0.2249  0.5644
   65SOL    HW1  194   1.196   2.100   0.460  0.7746  2.9580  0.5784
   65SOL    HW2  195   1.274   2.032   0.327  0.8396 -0.4322 -2.6895
   66SOL     OW  196   0.249   1.176   1.901 -0.2123  0.1473  0.1387
   66SOL    HW1  197   0.264   1.254   1.969  0.1763 -0.0108  2.7762
   66SOL    HW2  198   0.335   1.163   1.843  1.4606  1.0720 -0.3800
   67SOL     OW  199   2.484   0.037   2.440  0.4830 -0.3957  0.4056
   67SOL    HW1  200   2.555   0.088   2.390 -4.7552 -0.9669  2.7719
   67SOL    HW2  201   2.496   3.039   2.436  1.5383 -0.0638  5.0770
   68SOL     OW  202   0.596   2.275   1.158  0.2365  0.1115 -0.1632
   68SOL    HW1  203   0.653   2.330   1.225 -2.1137  0.1847 -1.1275
   68SOL    HW2  204   0.524   2.218   1.207 -0.4652 -0.0905  0.5314
   69SOL     OW  205   1.004   2.696   0.562 -0.5149  0.2560  0.1681
   69SOL    HW1  206   0.968   2.706   0.470 -0.0553 -2.7003  1.1727
   69SOL    HW2  207   1.095   2.750   0.581  4.3701  1.1334  0.1975
   70SOL     OW  208   3.050   1.008   2.894  0.1628 -0.8778 -0.6388
   70SOL    HW1  209   3.026   1.110   2.876 -1.4729 -0.3136  2.4318
   70SOL    HW2  210   3.001   0.951   2.828 -1.6005 -1.7393  1.1268
   71SOL     OW  211   0.145   1.583   2.698  0.1971 -0.0547  0.3906
   71SOL    HW1  212   0.138   1.488   2.656 -1.6171 -2.2290  0.2080
   71SOL    HW2  213   0.174   1.645   2.621 -1.2297 -2.1052 -0.0688
   72SOL     OW  214   3.066   2.135   0.477  0.2050  0.0449  0.6676
   72SOL    HW1  215   3.018   2.044   0.471 -1.2235  0.2558 -2.5913
   72SOL    HW2  216   0.050   2.131   0.527 -0.5370 -0.2045 -0.1951
   73SOL     OW  217   0.807   1.472   0.157  0.4465  0.0513  0.0487
   73SOL    HW1  218   0.870   1.411   0.210 -0.6839 -0.7003  1.7971
   73SOL    HW2  219   0.847   1.568   0.148  1.0620  0.0865 -2.1792
   74SOL     OW  220   3.080   0.436   0.144  0.7431 -0.2823 -0.4737
   74SOL    HW1  221   0.055   0.388   0.172  1.1608  0.8877 -1.1160
   74SOL    HW2  222   3.036   0.375   0.075  0.9839  1.6280  1.6999
   75SOL     OW  223   2.154   1.468   2.028  0.5013  0.1047  0.2270
   75SOL    HW1  224   2.170   1.484   1.928 -0.0499 -0.2297 -2.7679
   75SOL    HW2  225   2.144   1.557   2.075 -0.8667 -0.3648 -0.8109
   76SOL     OW  226   2.032   2.772   1.469  0.7801  0.4921 -0.4145
   76SOL    HW1  227   2.105   2.706   1.433 -0.1671 -1.0159 -0.8714
   76SOL    HW2  228   1.991   2.741   1.564  0.3057 -0.2103  2.0845
   77SOL     OW  229   2.631   0.241   1.228  0.9136 -0.5833 -0.6041
   77SOL    HW1  230   2.713   0.249   1.283  1.0290  0.5732 -1.1209
   77SOL    HW2  231   2.574   0.159   1.248 -0.5612 -1.3073  1.0412
   78SOL     OW  232   1.525   0.965   3.103  0.6567 -1.0570  0.1803
   78SOL    HW1  233   1.570   0.879   3.079  3.7419  1.3219  1.8042
   78SOL    HW2  234   1.499   1.022   3.020 -1.0072  2.1037  1.7101
   79SOL     OW  235   0.495   1.879   1.806 -0.2093 -0.0049 -0.0326
   79SOL    HW1  236   0.544   1.968   1.835  1.2272  2.0164  0.9564
   79SOL    HW2  237   0.556   1.799   1.821  1.2101 -1.0901  0.4891
   80SOL     OW  238   1.672   0.932   1.041  0.0459 -0.3175 -0.3736
   80SOL    HW1  239   1.689   0.946   1.142  0.3341  1.2401  0.7281
   80SOL    HW2  240   1.749   0.981   1.001  0.7091  2.7522  0.4830
   81SOL     OW  241   0.313   0.345   1.119 -0.1843 -0.2301 -0.4255
   81SOL    HW1  242   0.360   0.267   1.082 -1.3032  4.5798 -3.1206
   81SOL    HW2  243   0.329   0.428   1.060 -1.9853 -1.0833 -0.0755
   82SOL     OW  244   1.529   2.327   1.771 -0.6140  0.1798  0.3124
   82SOL    HW1  245   1.498   2.381   1.853 -3.0700 -0.0059  0.8519
   82SOL    HW2  246   1.577   2.242   1.790 -0.4957 -1.1812  0.5049
   83SOL     OW  247   0.621   2.917   1.255 -0.1665 -0.4884  0.4081
   83SOL    HW1  248   0.525   2.937   1.282 -3.8237  0.4657  0.6697
   83SOL    HW2  249   0.662   2.846   1.320  0.8361 -2.3925  1.3146
   84SOL     OW  250   0.466   1.039   2.894 -0.4542 -0.2381 -0.3451
   84SOL    HW1  251   0.403   0.961   2.887  1.5715 -1.3965 -2.2679
   84SOL    HW2  252   0.499   1.065   2.800  2.4606  0.4671 -0.9782
   85SOL     OW  253   2.938   2.248   1.633  0.2196  0.4121  0.2272
   85SOL    HW1  254   2.991   2.301   1.565 -0.0951  2.4872 -1.3188
   85SOL    HW2  255   2.853   2.210   1.599  2.7312  1.0397  0.2978
   86SOL     OW  256   2.881   2.598   1.635  0.1553 -0.1183 -0.3720
   86SOL    HW1  257   2.879   2.537   1.718 -0.9414 -3.0103 -0.7816
   86SOL    HW2  258   2.972   2.600   1.591  1.8260  0.1988 -1.1723
   87SOL     OW  259   2.907   2.379   2.845 -0.7296 -0.3755  0.7582
   87SOL    HW1  260   2.822   2.436   2.829 -0.0132 -1.1430 -0.6996
   87SOL    HW2  261   2.989   2.415   2.797  0.8949 -1.0550  0.7481
   88SOL     OW  262   0.314   1.848   1.335 -0.2621  0.1409  0.5190
   88SOL    HW1  263   0.324   1.950   1.318 -0.3518  1.2358 -0.6990
   88SOL    HW2  264   0.360   1.796   1.257  3.9555  0.3217 -2.8274
   89SOL     OW  265   0.941   0.146   1.775  0.7187  0.3303 -0.8437
   89SOL    HW1  266   0.880   0.120   1.698  0.8622 -1.9624  1.1646
   89SOL    HW2  267   0.969   0.065   1.829 -2.6031 -2.1361 -0.7689
   90SOL     OW  268   0.224   1.840   1.816 -0.2475  0.5382 -0.1042
   90SOL    HW1  269   0.179   1.903   1.756  1.7707 -4.7009  0.4080
   90SOL    HW2  270   0.325   1.850   1.808 -0.5457 -1.9132 -0.9112
   91SOL     OW  271   1.088   1.773   0.455 -0.4361 -0.4209  0.0953
   91SOL    HW1  272   1.168   1.711   0.454  0.7311 -1.5214  1.0041
   91SOL    HW2  273   1.120   1.866   0.428 -0.7114 -0.7780  0.9901
   92SOL     OW  274   2.628   3.042   1.103  0.9071  0.2568  0.4921
   92SOL    HW1  275   2.648   0.013   1.049 -2.9040 -2.1133  2.1870
   92SOL    HW2  276   2.525   3.030   1.111 -3.5512  1.9558 -0.3653
   93SOL     OW  277   2.558   1.444   2.935 -0.4573 -0.6283 -0.3247
   93SOL    HW1  278   2.639   1.434   2.875  0.5674 -0.6005 -2.4123
   93SOL    HW2  279   2.472   1.415   2.882  0.0595 -0.5525 -1.7487
   94SOL     OW  280   2.612   2.421   2.465  0.4216  0.0507  0.0778
   94SOL    HW1  281   2.600   2.381   2.559  1.3096  1.1770 -1.7341
   94SOL    HW2  282   2.677   2.371   2.407 -1.3738 -0.9307 -0.8310
   95SOL     OW  283   1.872   0.456   1.182  0.5158  0.0533  0.2932
   95SOL    HW1  284   1.816   0.406   1.108 -3.8843 -2.0192 -0.4502
   95SOL    HW2  285   1.946   0.392   1.208 -2.4460 -1.7281 -0.9263
   96SOL     OW  286   2.917   2.884   1.663  0.0642 -0.2608  0.1383
   96SOL    HW1  287   2.899   2.786   1.658 -1.1954  2.3290  0.7420
   96SOL    HW2  288   2.844   2.929   1.607 -2.6850  0.1820 -0.0998
   97SOL     OW  289   2.409   0.147   1.406  0.5959  0.2777 -0.0694
   97SOL    HW1  290   2.327   0.132   1.345 -0.9881 -2.0370 -0.1701
   97SOL    HW2  291   2.426   0.246   1.423 -0.8950  1.1186  0.4731
   98SOL     OW  292   1.468   2.314   1.382  0.1304 -0.0107 -0.6876
   98SOL    HW1  293   1.570   2.302   1.385  1.1872  0.3663 -1.4086
   98SOL    HW2  294   1.434   2.308   1.479  1.3362  1.9113  1.7600
   99SOL     OW  295   2.971   3.064   1.870 -0.7467  0.3228 -0.2070
   99SOL    HW1  296   3.033   0.030   1.836  1.7912  0.4065 -0.8900
   99SOL    HW2  297   2.948   2.995   1.798  0.7903  0.4867 -0.2273
  100SOL     OW  298   0.070   0.859   2.574 -0.1235 -0.3582  0.2354
  100SOL    HW1  299   0.036   0.867   2.474 -0.4337  1.6237  1.9437
  100SOL    HW2  300   0.121   0.946   2.595  1.7354  1.0032 -0.1820
  101SOL     OW  301   1.883   0.596   3.050  0.7946 -1.0931  0.2661
  101SOL    HW1  302   1.926   0.505   3.028 -2.7563  2.1918 -1.7507
  101SOL    HW2  303   1.907   0.633   0.037 -0.7986 -2.0967  2.1012
  102SOL     OW  304   0.141   0.524   1.228 -0.0128 -0.2028  0.3263
  102SOL    HW1  305   0.197   0.450   1.192 -2.2468  0.8789 -0.1218
  102SOL    HW2  306   0.095   0.574   1.152  1.0915  2.1206 -1.5266
  103SOL     OW  307   2.652   0.833   1.927 -0.1100 -0.2471  0.6592
  103SOL    HW1  308   2.712   0.783   1.987 -1.7341  0.6355 -0.8917
  103SOL    HW2  309   2.657   0.934   1.955 -2.4896 -1.1227 -2.4057
  104SOL     OW  310   0.305   0.186   2.566  0.2202  0.5793 -0.1041
  104SOL    HW1  311   0.254   0.143   2.490 -3.1763  0.3407  0.3942
  104SOL    HW2  312   0.393   0.144   2.568 -0.8104  2.7999  0.4106
  105SOL     OW  313   2.069   1.261   1.708 -0.0447 -0.1591 -0.6863
  105SOL    HW1  314   1.970   1.286   1.700  2.0227 -0.0549  0.4317
  105SOL    HW2  315   2.112   1.346   1.735  0.6125  0.4308  2.0881
  106SOL     OW  316   1.028   3.094   0.554 -0.1874  0.2429 -0.0659
  106SOL    HW1  317   1.028   0.078   0.594  1.1866 -0.6808 -2.0507
  106SOL    HW2  318   0.976   3.033   0.612  1.0626  1.2776  0.4641
  107SOL     OW  319   0.339   1.636   1.534 -0.0793  0.3925 -0.3793
  107SOL    HW1  320   0.427   1.621   1.578 -2.3319  2.1805 -3.4465
  107SOL    HW2  321   0.336   1.722   1.487 -2.3805 -3.6538  1.7037
  108SOL     OW  322   0.091   2.804   2.347  0.1004 -0.4506 -0.0667
  108SOL    HW1  323   0.175   2.790   2.404  1.9270  1.2132 -0.3930
  108SOL    HW2  324   0.015   2.847   2.399 -1.0241  0.9591 -0.2195
  109SOL     OW  325   1.763   0.361   0.110 -0.3085 -0.5069  0.4906
  109SOL    HW1  326   1.683   0.420   0.137 -0.4680 -2.3169  0.8199
  109SOL    HW2  327   1.732   0.302   0.030 -1.3867  1.8765 -0.8458
  110SOL     OW  328   0.441   2.107   2.496 -0.4340 -0.1513 -0.0851
  110SOL    HW1  329   0.483   2.145   2.412  0.5650 -0.8529  0.1528
  110SOL    HW2  330   0.485   2.144   2.580 -0.9596  0.2373  1.4818
  111SOL     OW  331   1.406   2.752   2.046 -0.0066  0.1459 -0.1864
  111SOL    HW1  332   1.345   2.775   2.128 -1.3226  2.5999 -2.0325
  111SOL    HW2  333   1.351   2.754   1.962 -1.2208  0.6837  1.6418
  112SOL     OW  334   1.912   2.349   2.652 -1.0304 -0.0200 -0.3590
  112SOL    HW1  335   1.998   2.392   2.678  0.5841 -5.6699 -2.0763
  112SOL    HW2  336   1.935   2.274   2.590  2.3849 -1.6635  1.3472
  113SOL     OW  337   2.183   2.754   1.738  0.5463  0.5107  0.5110
  113SOL    HW1  338   2.164   2.652   1.717  0.4995 -3.6764 -0.5230
  113SOL    HW2  339   2.263   2.797   1.690  2.2243  4.8588 -2.8633
  114SOL     OW  340   2.985   0.918   0.740 -0.4096  0.2433  0.4512
  114SOL    HW1  341   2.897   0.910   0.792  1.4604 -1.0399 -0.9340
  114SOL    HW2  342   3.044   0.995   0.766  0.2920  0.1271 -2.1958
  115SOL     OW  343   0.363   1.285   2.901 -0.5200  0.1930  0.3993
  115SOL    HW1  344   0.423   1.319   2.825 -0.3256 -0.2594  0.9430
  115SOL    HW2  345   0.380   1.185   2.903 -0.1264 -0.1615 -1.1748
  116SOL     OW  346   0.320   1.373   2.069  0.0413 -0.1584  0.4387
  116SOL    HW1  347   0.328   1.439   1.992  1.0315 -0.3105 -0.3561
  116SOL    HW2  348   0.234   1.375   2.128  0.0994  0.5825 -2.7678
  117SOL     OW  349   2.685   0.090   0.636 -0.0782 -0.0243  0.3491
  117SOL    HW1  350   2.780   0.113   0.605  1.5252  0.3889 -0.1189
  117SOL    HW2  351   2.622   0.117   0.561  1.9654  0.4118  4.2191
  118SOL     OW  352   1.358   1.993   1.838 -0.4759  0.0815 -0.3989
  118SOL    HW1  353   1.421   2.064   1.869 -0.4777 -2.7858 -0.1426
  118SOL    HW2  354   1.286   1.972   1.903  0.7643  1.1839 -1.2480
  119SOL     OW  355   1.131   2.337   0.222  0.6767  0.4385  0.1670
  119SOL    HW1  356   1.072   2.340   0.304 -2.9863 -1.2404  1.8165
  119SOL    HW2  357   1.200   2.266   0.227 -1.5651  2.0397 -0.2990
  120SOL     OW  358   0.197   1.091   2.583  0.1365 -0.1126  0.9344
  120SOL    HW1  359   0.210   1.192   2.581  1.1769  1.1985  2.6697
  120SOL    HW2  360   0.286   1.048   2.606  0.8089  1.0307 -0.9627
  121SOL     OW  361   2.004   2.857   1.047 -0.2175  0.4909 -0.2698
  121SOL    HW1  362   1.955   2.929   0.991  2.7704 -1.5006  0.6166
  121SOL    HW2  363   2.101   2.889   1.069  1.4488  3.3790  1.6805
  122SOL     OW  364   2.441   2.184   1.996  0.3496  0.1307 -0.0562
  122SOL    HW1  365   2.398   2.139   2.075 -0.3120  1.0127 -1.4794
  122SOL    HW2  366   2.383   2.259   1.963  2.2610  0.2546  0.5194
  123SOL     OW  367   3.076   0.009   0.647  0.3889 -0.0086  0.4998
  123SOL    HW1  368   3.075   0.107   0.663  0.0740 -0.1937 -0.8736
  123SOL    HW2  369   0.061   3.106   0.605  0.3831 -0.3080  0.4288
  124SOL     OW  370   1.844   0.755   2.344  0.3235 -0.4251 -0.1154
  124SOL    HW1  371   1.745   0.772   2.323 -2.3982 -1.7515 -2.0464
  124SOL    HW2  372   1.885   0.683   2.281 -2.1415 -0.0084  1.6612
  125SOL     OW  373   0.476   1.458   0.599  0.1878 -0.2469  0.1739
  125SOL    HW1  374   0.506   1.428   0.503  0.3353 -0.4129 -0.4918
  125SOL    HW2  375   0.550   1.515   0.642  1.3078  0.8373  0.2185
  126SOL     OW  376   2.399   1.679   0.631  0.1572  0.3510  0.1985
  126SOL    HW1  377   2.389   1.604   0.562  0.9342  1.1719 -1.3379
  126SOL    HW2  378   2.401   1.639   0.725  0.4585  0.1335 -1.3145
  127SOL     OW  379   0.057   1.988   1.657 -0.5929 -0.1557 -0.2192
  127SOL    HW1  380   0.040   2.038   1.570  2.5406  3.0631 -0.9167
  127SOL    HW2  381   0.030   2.052   1.735 -0.4822  2.0778 -0.3145
  128SOL     OW  382   0.790   0.651   2.611  0.1063  0.3369  0.0134
  128SOL    HW1  383   0.879   0.666   2.561  0.0042  1.6794 -0.4250
  128SOL    HW2  384   0.750   0.560   2.590 -0.9623  2.2425  0.6505
  129SOL     OW  385   2.526   0.939   0.895  0.0660  0.2689  0.2098
  129SOL    HW1  386   2.467   0.961   0.808 -2.2837  0.9233 -2.0411
  129SOL    HW2  387   2.461   0.911   0.967  0.0141  1.5304 -1.5473
  130SOL     OW  388   2.423   1.396   1.398  0.2498  0.0267  0.2656
  130SOL    HW1  389   2.493   1.326   1.408  1.4123  2.2570  3.1398
  130SOL    HW2  390   2.451   1.489   1.432  0.0860  1.3861  1.1425
  131SOL     OW  391   2.685   0.776   3.088 -0.7454 -0.8490  0.0647
  131SOL    HW1  392   2.775   0.827   3.105  0.6593  2.4280  1.1732
  131SOL    HW2  393   2.696   0.685   3.042 -1.6407 -0.3504 -0.4457
  132SOL     OW  394   2.707   2.194   1.976  0.2593 -0.2111 -0.0506
  132SOL    HW1  395   2.607   2.191   1.991  2.6917 -2.0890 -0.8403
  132SOL    HW2  396   2.748   2.106   2.006  0.2182 -3.0726  1.9787
  133SOL     OW  397   0.350   1.186   0.929  0.4746  0.2620 -0.3987
  133SOL    HW1  398   0.288   1.249   0.882 -1.2796  0.2870 -1.2131
  133SOL    HW2  399   0.397   1.231   1.008 -0.9586 -2.4706  0.0481
  134SOL     OW  400   0.266   1.338   0.040  0.1357  0.1961  0.7942
  134SOL    HW1  401   0.177   1.384   0.026  0.2736 -0.8798 -3.6827
  134SOL    HW2  402   0.314   1.318   3.058 -0.8069 -0.7827  1.0777
  135SOL     OW  403   2.030   1.608   1.264 -0.0112 -0.4514 -0.2737
  135SOL    HW1  404   2.065   1.514   1.279  1.5528 -0.3028 -1.4720
  135SOL    HW2  405   1.939   1.616   1.221 -0.6012  0.0492 -0.1142
  136SOL     OW  406   2.413   0.972   0.674 -0.1037  0.8327 -0.4420
  136SOL    HW1  407   2.461   0.976   0.584  0.2046  0.9469 -0.4302
  136SOL    HW2  408   2.312   0.968   0.655 -1.1049 -0.4178  0.3564
  137SOL     OW  409   2.698   1.747   1.001 -0.4934 -0.1501 -0.0628
  137SOL    HW1  410   2.693   1.839   1.047 -0.0482  2.5361  2.8042
  137SOL    HW2  411   2.639   1.682   1.055 -2.1234 -0.7034  2.0344
  138SOL     OW  412   1.716   0.621   1.432  0.4125  0.0641 -0.5322
  138SOL    HW1  413   1.723   0.572   1.345 -0.2591  1.6450  0.2892
  138SOL    HW2  414   1.776   0.581   1.505  1.7196  2.0163  0.3940
  139SOL     OW  415   2.171   0.161   2.784 -0.4106  0.5869 -0.1191
  139SOL    HW1  416   2.148   0.261   2.778 -0.4381  0.8549 -2.2842
  139SOL    HW2  417   2.160   0.124   2.877 -1.1384 -1.7459 -0.3761
  140SOL     OW  418   1.737   1.753   2.124  0.1679 -0.0582 -0.0721
  140SOL    HW1  419   1.813   1.761   2.186 -3.0723 -0.3444 -0.8541
  140SOL    HW2  420   1.756   1.709   2.032 -1.2737  2.0020 -3.0797
  141SOL     OW  421   1.847   1.883   1.096  0.5911  0.0404  0.2529
  141SOL    HW1  422   1.925   1.935   1.143  0.0024  1.4173  0.0962
  141SOL    HW2  423   1.795   1.840   1.171 -1.1196  1.2820  0.8650
  142SOL     OW  424   3.081   0.749   0.208 -0.1492  0.0707 -0.2478
  142SOL    HW1  425   3.086   0.650   0.212 -2.9416  2.0948 -0.4068
  142SOL    HW2  426   3.061   0.781   0.299  0.6390 -0.0083  1.0072
  143SOL     OW  427   0.525   2.167   2.931  0.4035 -0.2401  0.4821
  143SOL    HW1  428   0.494   2.078   2.970  0.5487 -3.2127  0.1913
  143SOL    HW2  429   0.545   2.161   2.830 -0.2457  0.0528 -1.1640
  144SOL     OW  430   0.938   2.939   1.804  0.4802 -0.1684 -0.2056
  144SOL    HW1  431   0.932   2.939   1.708 -0.4025 -0.5820  2.6598
  144SOL    HW2  432   0.973   2.845   1.837  0.7598 -1.3082  0.0964
  145SOL     OW  433   2.170   1.384   0.305  0.3552 -0.4459 -0.2233
  145SOL    HW1  434   2.109   1.436   0.237  0.0815 -0.7005 -0.7805
  145SOL    HW2  435   2.241   1.447   0.336 -2.0824 -1.0903  2.6324
  146SOL     OW  436   2.580   2.978   2.980  0.5789 -0.1757  0.3998
  146SOL    HW1  437   2.513   2.982   2.904 -1.3527 -1.4806  2.1970
  146SOL    HW2  438   2.667   2.940   2.950 -0.1163 -4.0894 -0.5991
  147SOL     OW  439   2.829   2.614   1.096 -0.2885 -0.4555  0.4151
  147SOL    HW1  440   2.731   2.646   1.094 -1.2859  0.0734  0.1777
  147SOL    HW2  441   2.876   2.672   1.026 -3.4369  2.0772 -1.1402
  148SOL     OW  442   1.402   3.012   2.523 -0.1405  0.2129  0.2127
  148SOL    HW1  443   1.445   2.925   2.555 -1.7847 -1.2385 -1.0901
  148SOL    HW2  444   1.382   3.085   2.593  1.1111 -1.3997  1.4641
  149SOL     OW  445   1.118   0.424   2.534 -0.2463  0.3218  0.0910
  149SOL    HW1  446   1.190   0.361   2.503  0.9404 -1.5389  0.4764
  149SOL    HW2  447   1.025   0.383   2.535 -0.3264  0.8761  0.6459
  150SOL     OW  448   0.873   3.009   0.742 -0.2275 -0.6542  0.3611
  150SOL    HW1  449   0.793   3.040   0.792 -0.6114 -0.2734 -1.1648
  150SOL    HW2  450   0.942   2.972   0.804 -1.7881  1.6554 -1.5985
  151SOL     OW  451   3.052   1.786   0.107 -0.0736 -0.0528 -0.4022
  151SOL    HW1  452   2.986   1.715   0.066  0.3381  1.4138 -1.3680
  151SOL    HW2  453   0.013   1.803   0.036 -2.1973  0.0782  2.5613
  152SOL     OW  454   0.106   1.109   0.785 -0.6665 -0.4496 -0.3763
  152SOL    HW1  455   0.154   1.181   0.733  1.2198  0.8122 -2.5352
  152SOL    HW2  456   0.155   1.024   0.770 -0.3993 -1.4778  2.9503
  153SOL     OW  457   2.178   2.904   0.347  0.2544 -0.1437 -0.1742
  153SOL    HW1  458   2.166   3.003   0.330 -1.6873 -0.1908  4.1115
  153SOL    HW2  459   2.117   2.848   0.287 -0.4851  0.1092 -1.2813
  154SOL     OW  460   0.799   0.564   1.535 -0.0353 -0.0514 -0.1962
  154SOL    HW1  461   0.879   0.531   1.587 -1.9442  1.1840  1.4085
  154SOL    HW2  462   0.744   0.625   1.595  2.3462  1.4982  0.8507
  155SOL     OW  463   3.075   1.942   1.027  0.7935  0.1069  0.3486
  155SOL    HW1  464   3.037   1.845   1.013  2.2606  0.9752 -0.2521
  155SOL    HW2  465   3.075   1.995   0.941  0.7554  3.6904 -0.7314
  156SOL     OW  466   2.217   2.180   0.253  0.2902 -0.4668  0.1121
  156SOL    HW1  467   2.284   2.132   0.309  0.2806  0.0067 -2.2004
  156SOL    HW2  468   2.222   2.151   0.160  1.4360 -0.2334  2.6091
  157SOL     OW  469   0.987   2.890   0.995  0.0618  0.4387 -0.2895
  157SOL    HW1  470   0.913   2.821   1.000 -1.0518 -0.4881 -0.1237
  157SOL    HW2  471   1.085   2.854   0.982  3.3549  0.1816 -0.9656
  158SOL     OW  472   2.475   0.596   2.496  0.0699 -0.3566  0.3125
  158SOL    HW1  473   2.380   0.588   2.454 -1.9049  0.1884 -2.0434
  158SOL    HW2  474   2.526   0.680   2.470  0.9492  3.3459  0.9427
  159SOL     OW  475   0.639   0.398   0.088  0.9772 -0.3278  0.1630
  159SOL    HW1  476   0.549   0.441   0.081  0.9949 -1.3473  1.5621
  159SOL    HW2  477   0.674   0.373   3.102  2.6663  2.5172 -2.0874
  160SOL     OW  478   0.991   2.154   0.025 -0.2532  0.8706 -0.0696
  160SOL    HW1  479   0.891   2.163   0.027 -1.0535  0.5687  1.5398
  160SOL    HW2  480   1.031   2.234   0.070  0.9226 -1.4035 -1.6483
  161SOL     OW  481   3.076   1.960   2.923 -0.7858  0.0169 -0.0255
  161SOL    HW1  482   3.098   2.004   2.834 -1.4049  0.8254 -1.3364
  161SOL    HW2  483   3.039   2.034   2.983 -0.9352 -0.7710 -0.2328
  162SOL     OW  484   0.314   2.920   1.271 -0.0137  0.3062  0.1863
  162SOL    HW1  485   0.305   2.832   1.221 -1.7233 -3.0143  1.5034
  162SOL    HW2  486   0.237   2.985   1.247 -0.8415  0.2985 -0.2521
  163SOL     OW  487   2.156   0.454   2.732 -0.6767  0.0038 -0.3851
  163SOL    HW1  488   2.249   0.473   2.764  0.8064 -4.3617  1.2692
  163SOL    HW2  489   2.122   0.531   2.682 -1.2903 -1.2270  0.0008
  164SOL     OW  490   3.039   2.087   0.803  0.4204  0.3446  0.1254
  164SOL    HW1  491   0.013   2.110   0.747 -0.5522  1.6907 -0.2387
  164SOL    HW2  492   2.968   2.161   0.808 -2.7798  1.2208  0.7966
  165SOL     OW  493   2.770   3.066   1.528 -0.4461  0.1321 -0.2061
  165SOL    HW1  494   2.792   0.044   1.585 -0.4685 -0.2406 -0.9306
  165SOL    HW2  495   2.668   3.047   1.523 -0.6522 -0.0275  2.2256
  166SOL     OW  496   2.227   0.332   0.673  0.1039  0.4548 -0.2612
  166SOL    HW1  497   2.248   0.435   0.674 -0.4911 -0.1245 -0.3661
  166SOL    HW2  498   2.249   0.286   0.764  3.2074 -1.2872  1.9876
  167SOL     OW  499   0.430   0.532   0.933  0.0794  0.3322 -0.1878
  167SOL    HW1  500   0.516   0.558   0.982  0.8700 -1.2196 -0.1412
  167SOL    HW2  501   0.439   0.506   0.833 -0.8424  0.5098 -1.1841
  168SOL     OW  502   1.956   2.872   1.865 -0.1139 -0.3229  0.3758
  168SOL    HW1  503   1.941   2.823   1.955 -1.4353 -0.3978  2.4206
  168SOL    HW2  504   2.041   2.849   1.822 -1.7967  2.3023  2.3157
  169SOL     OW  505   0.214   1.322   0.657  0.2211  0.4470  0.1628
  169SOL    HW1  506   0.310   1.350   0.647 -0.9240  1.5115 -0.5678
  169SOL    HW2  507   0.152   1.397   0.682 -1.5828  0.2653  1.0578
  170SOL     OW  508   2.474   0.867   1.182  0.3642 -0.4572 -0.3485
  170SOL    HW1  509   2.469   0.768   1.205 -1.5018 -0.2544  1.1846
  170SOL    HW2  510   2.408   0.920   1.246  0.1503 -1.3634  1.0881
  171SOL     OW  511   1.225   2.511   1.614 -0.4179  0.3769 -0.4225
  171SOL    HW1  512   1.256   2.414   1.614 -0.6340  0.6477  1.6143
  171SOL    HW2  513   1.162   2.525   1.535  1.7958  0.8132  0.6664
  172SOL     OW  514   0.264   2.504   1.250 -0.3905  0.1270 -0.4611
  172SOL    HW1  515   0.332   2.456   1.313  1.4961 -1.4791  2.6805
  172SOL    HW2  516   0.199   2.565   1.304  0.4504 -1.2457  3.1735
  173SOL     OW  517   1.425   0.241   2.922 -0.1316  0.2239  0.3877
  173SOL    HW1  518   1.375   0.192   2.843 -4.0875  0.4896  2.1317
  173SOL    HW2  519   1.430   0.342   2.912 -0.2842 -2.1714  1.8395
  174SOL     OW  520   1.359   2.837   2.852  0.0588 -0.3494 -0.3656
  174SOL    HW1  521   1.320   2.765   2.915 -0.4923 -1.9368  0.2413
  174SOL    HW2  522   1.368   2.927   2.903 -0.1856  2.3356 -0.2263
  175SOL     OW  523   1.630   2.702   0.015 -0.1600  0.1317  0.1985
  175SOL    HW1  524   1.600   2.798   3.105 -1.1912  0.9720  0.9529
  175SOL    HW2  525   1.551   2.647   0.052 -0.9697  0.6668 -2.0211
  176SOL     OW  526   1.613   0.213   2.690 -0.0386  0.0320  0.0906
  176SOL    HW1  527   1.665   0.137   2.649 -0.3205 -3.2930  0.2216
  176SOL    HW2  528   1.513   0.190   2.690 -1.8248  1.3921  2.9567
  177SOL     OW  529   0.963   1.541   0.573 -0.3725 -0.5795  0.1716
  177SOL    HW1  530   0.877   1.580   0.604 -0.6924 -0.7240 -0.7614
  177SOL    HW2  531   1.017   1.619   0.537  0.5792  3.1726  4.3343
  178SOL     OW  532   2.816   1.707   2.256 -0.1764 -0.2674  0.4233
  178SOL    HW1  533   2.796   1.657   2.169 -0.5575  0.7407  0.9304
  178SOL    HW2  534   2.838   1.639   2.329 -2.3985 -0.8531 -0.5433
  179SOL     OW  535   0.647   2.541   2.799  0.5197  0.3504 -0.9043
  179SOL    HW1  536   0.660   2.486   2.717 -0.5770 -0.7562  2.7867
  179SOL    HW2  537   0.673   2.636   2.788  0.5819  0.1464  4.2760
  180SOL     OW  538   1.993   1.891   1.696  0.0579 -0.3145  0.7828
  180SOL    HW1  539   2.032   1.894   1.789  1.7175 -3.6067 -0.1144
  180SOL    HW2  540   1.890   1.889   1.700  3.6215 -1.0990 -3.1365
  181SOL     OW  541   1.056   1.162   2.375 -0.2098  0.8969 -0.0879
  181SOL    HW1  542   1.103   1.124   2.459 -0.2064 -0.0190 -0.5317
  181SOL    HW2  543   1.098   1.249   2.350 -0.6086 -0.9262  1.6888
  182SOL     OW  544   3.004   0.160   2.591 -0.2589  0.5255  0.0389
  182SOL    HW1  545   2.932   0.118   2.648 -0.6099  1.3606 -1.5053
  182SOL    HW2  546   3.089   0.104   2.575  4.4435  0.9269 -2.0258
  183SOL     OW  547   1.194   0.499   2.795 -0.1288 -0.2276  0.1795
  183SOL    HW1  548   1.211   0.523   2.699 -0.7020 -0.4756  3.4520
  183SOL    HW2  549   1.268   0.519   2.865  0.9580 -2.6152  1.3286
  184SOL     OW  550   1.022   1.314   1.457 -0.8839  0.3304  0.6139
  184SOL    HW1  551   0.984   1.226   1.423 -2.0842  1.3660 -3.2364
  184SOL    HW2  552   1.010   1.385   1.385  2.1574 -0.0585  0.4400
  185SOL     OW  553   2.734   1.262   1.219 -0.7507 -0.2179 -0.8155
  185SOL    HW1  554   2.816   1.292   1.269 -0.8253  0.2981  2.6286
  185SOL    HW2  555   2.671   1.218   1.287 -1.7565 -0.2485 -0.4228
  186SOL     OW  556   0.906   1.632   2.573 -0.0735  0.4490 -0.1386
  186SOL    HW1  557   0.895   1.536   2.611 -3.1799 -1.9598 -0.2505
  186SOL    HW2  558   0.814   1.669   2.553 -0.1757  1.5852 -1.4407
  187SOL     OW  559   2.712   1.512   0.168 -0.0923 -0.6020 -0.2630
  187SOL    HW1  560   2.636   1.451   0.132 -2.3905  0.0981  0.4626
  187SOL    HW2  561   2.744   1.469   0.252 -5.4796  3.0877 -1.6768
  188SOL     OW  562   0.180   2.096   0.665  0.5973 -0.3790 -0.3235
  188SOL    HW1  563   0.244   2.075   0.743 -0.9610 -1.5961 -2.4378
  188SOL    HW2  564   0.168   2.021   0.601  0.3516  2.5571  0.4466
  189SOL     OW  565   2.504   0.829   0.191  0.0813  0.7992  0.0388
  189SOL    HW1  566   2.592   0.829   0.138 -0.6744 -2.5347 -1.4050
  189SOL    HW2  567   2.467   0.731   0.180 -0.8254  0.5042 -2.0694
  190SOL     OW  568   1.176   1.408   2.323  0.2723  0.1204 -0.6797
  190SOL    HW1  569   1.227   1.439   2.242  0.1104 -2.1279  0.3603
  190SOL    HW2  570   1.184   1.477   2.398 -1.1973  1.2797  3.8631
  191SOL     OW  571   2.290   0.219   1.916 -0.1563  0.2628  0.0941
  191SOL    HW1  572   2.377   0.251   1.867  4.7394 -0.1638 -2.8959
  191SOL    HW2  573   2.245   0.139   1.869 -0.3839  0.3958 -0.7811
  192SOL     OW  574   1.841   0.460   1.635 -0.5535  0.1652  0.0858
  192SOL    HW1  575   1.898   0.507   1.705 -1.5489 -0.1007 -0.0728
  192SOL    HW2  576   1.798   0.371   1.670 -0.6941 -2.0194 -1.4103
  193SOL     OW  577   0.584   0.702   0.601 -0.1368 -0.5227  0.5169
  193SOL    HW1  578   0.582   0.734   0.698 -1.2384  1.5161 -0.9293
  193SOL    HW2  579   0.642   0.762   0.545  1.6647 -0.2497  1.5257
  194SOL     OW  580   1.437   2.944   1.000  0.2370  0.2934 -0.2340
  194SOL    HW1  581   1.461   2.876   0.931 -1.0388  2.9522 -1.4956
  194SOL    HW2  582   1.432   2.909   1.095  0.9461  1.0842 -0.8168
  195SOL     OW  583   2.499   0.964   0.425  0.1660 -0.5870  0.6908
  195SOL    HW1  584   2.484   0.904   0.343  0.6119  2.0683  0.0394
  195SOL    HW2  585   2.602   0.979   0.434  0.3525  2.6907  0.0990
  196SOL     OW  586   1.250   1.564   1.744  0.0174 -0.3103 -0.2218
  196SOL    HW1  587   1.285   1.476   1.722  0.4278  2.9835  1.5363
  196SOL    HW2  588   1.309   1.607   1.817 -1.5095 -1.8727  1.2635
  197SOL     OW  589   0.217   2.926   0.274  0.1994  0.1615 -0.6587
  197SOL    HW1  590   0.150   2.874   0.220  2.2512  0.0720  2.5517
  197SOL    HW2  591   0.235   2.880   0.360 -1.2205 -0.9685 -0.7404
  198SOL     OW  592   1.000   1.294   0.740  0.2737  0.2447 -0.2388
  198SOL    HW1  593   1.007   1.379   0.685 -1.3449 -3.4327  0.3768
  198SOL    HW2  594   0.913   1.273   0.785 -0.6897  0.2859  1.8078
  199SOL     OW  595   0.059   0.589   1.987  0.4580  0.6664 -0.2427
  199SOL    HW1  596   3.097   0.597   1.912  2.2060 -0.4770  1.5927
  199SOL    HW2  597   0.149   0.615   1.955 -1.3878 -1.5585  0.5513
  200SOL     OW  598   2.300   2.138   2.686  0.2791 -0.0572  0.1658
  200SOL    HW1  599   2.289   2.037   2.683  1.1685 -2.4180  0.4322
  200SOL    HW2  600   2.265   2.185   2.774 -1.9241  2.8224  1.7378
  201SOL     OW  601   2.523   2.944   0.658 -0.2234  0.2236  0.5196
  201SOL    HW1  602   2.528   3.044   0.640  0.0341 -0.6842  4.0358
  201SOL    HW2  603   2.580   2.894   0.594 -2.2751  3.0890 -0.7399
  202SOL     OW  604   2.852   0.517   0.258  0.4840 -0.2611 -0.5805
  202SOL    HW1  605   2.805   0.599   0.226 -1.7011 -0.7458 -0.4512
  202SOL    HW2  606   2.943   0.500   0.220 -1.4559  1.9518  2.0943
  203SOL     OW  607   1.425   1.461   2.201 -0.3224  0.5416 -0.0630
  203SOL    HW1  608   1.436   1.421   2.104  1.8398 -0.9877 -4.1815
  203SOL    HW2  609   1.453   1.403   2.280  0.9480  1.3286  4.2459
  204SOL     OW  610   0.766   1.589   2.229 -0.2439  0.0598  0.5221
  204SOL    HW1  611   0.787   1.493   2.263  3.1963  1.4356  2.2062
  204SOL    HW2  612   0.671   1.590   2.191 -0.8818 -1.7565  0.1272
  205SOL     OW  613   1.397   1.998   1.576  0.7200  0.1791  0.1211
  205SOL    HW1  614   1.397   1.963   1.674  0.6142 -1.0735 -1.4051
  205SOL    HW2  615   1.496   2.002   1.543  1.8840 -0.0611 -0.1730
  206SOL     OW  616   0.005   0.298   2.805 -0.2280 -0.0955  0.4549
  206SOL    HW1  617   3.065   0.258   2.720 -1.8942 -0.3872  0.1034
  206SOL    HW2  618   0.018   0.394   2.786 -0.3720  1.1702 -1.7210
  207SOL     OW  619   1.945   2.712   2.136 -0.0272 -0.3766 -0.1873
  207SOL    HW1  620   1.859   2.694   2.079 -0.1270  0.1207  0.2739
  207SOL    HW2  621   2.010   2.637   2.118 -0.4520  1.0227  0.1212
  208SOL     OW  622   0.429   2.328   1.799 -0.6732  0.2562 -0.8573
  208SOL    HW1  623   0.392   2.262   1.734 -0.0996 -0.7232  0.7549
  208SOL    HW2  624   0.427   2.421   1.759 -1.2818  0.3304  1.7321
  209SOL     OW  625   1.832   0.934   2.736 -0.0467 -0.0520 -0.1020
  209SOL    HW1  626   1.768   0.962   2.661  0.4174 -0.6079  0.3273
  209SOL    HW2  627   1.817   0.838   2.771  0.8242  0.6774 -0.4249
  210SOL     OW  628   2.480   0.639   0.466 -0.1754  0.2405 -0.2195
  210SOL    HW1  629   2.548   0.717   0.478  1.8314  1.9144 -0.8629
  210SOL    HW2  630   2.486   0.589   0.552  0.8600  0.8809  1.0156
  211SOL     OW  631   0.652   0.801   0.832 -0.0716 -0.0273  0.2015
  211SOL    HW1  632   0.731   0.866   0.821  1.2926  0.1994 -0.1645
  211SOL    HW2  633   0.678   0.724   0.892 -1.4939 -0.6824  0.0366
  212SOL     OW  634   1.301   1.561   0.462  0.6478  0.4914  0.0978
  212SOL    HW1  635   1.256   1.469   0.447 -1.0772 -0.7685 -1.2625
  212SOL    HW2  636   1.333   1.602   0.370  0.5652  2.0563  3.3314
  213SOL     OW  637   1.214   2.966   1.669  0.1501 -0.1825  0.8031
  213SOL    HW1  638   1.204   3.041   1.599 -0.5091 -0.6474 -1.5666
  213SOL    HW2  639   1.223   3.002   1.765 -0.3295 -0.2634 -2.9267
  214SOL     OW  640   1.453   1.293   2.414 -0.0083  0.1703  0.3326
  214SOL    HW1  641   1.381   1.221   2.440  0.6727 -1.1916 -1.4779
  214SOL    HW2  642   1.467   1.360   2.488  3.6294  1.7931  0.5347
  215SOL     OW  643   0.457   1.701   1.161 -0.3737 -0.7339 -0.1526
  215SOL    HW1  644   0.396   1.622   1.173  2.5177  0.1134 -0.7910
  215SOL    HW2  645   0.462   1.739   1.069  0.4472  1.3284  1.8474
  216SOL     OW  646   0.563   2.928   2.414  0.0875 -0.0123 -0.0987
  216SOL    HW1  647   0.592   2.940   2.318  1.5718  0.2762  1.9389
  216SOL    HW2  648   0.625   2.974   2.475 -1.6637  0.1806  1.7990
  217SOL     OW  649   2.326   0.699   2.982  0.1684  1.1136  0.7770
  217SOL    HW1  650   2.345   0.619   2.917  0.3775 -1.9941 -1.2701
  217SOL    HW2  651   2.404   0.762   2.971  2.8968  1.0626 -1.4819
  218SOL     OW  652   2.086   1.696   2.127  0.5980  0.5409 -0.1538
  218SOL    HW1  653   2.152   1.669   2.202  0.5133 -0.8107 -0.4073
  218SOL    HW2  654   2.104   1.778   2.076 -1.3506 -0.3266  2.2777
  219SOL     OW  655   1.724   1.026   0.312 -0.1944  0.2136 -0.4069
  219SOL    HW1  656   1.642   1.090   0.318 -2.2525 -0.9724 -0.4388
  219SOL    HW2  657   1.758   1.028   0.216 -3.8061 -1.9145  0.5059
  220SOL     OW  658   1.432   1.728   1.155  0.5726 -0.8707 -0.3339
  220SOL    HW1  659   1.431   1.802   1.084 -0.9665  0.6027 -2.2919
  220SOL    HW2  660   1.381   1.649   1.116  1.6733  1.2270 -1.2421
  221SOL     OW  661   0.257   0.336   2.933 -0.1947 -0.0715  0.0659
  221SOL    HW1  662   0.338   0.330   2.871 -2.7868 -0.3465  0.0515
  221SOL    HW2  663   0.166   0.332   2.877 -1.6614 -2.0665 -3.0349
  222SOL     OW  664   1.328   2.257   1.623  0.3281 -0.2163  0.2310
  222SOL    HW1  665   1.324   2.156   1.612 -0.6064 -1.2346 -0.2731
  222SOL    HW2  666   1.411   2.286   1.679  0.9605  1.9604 -0.3705
  223SOL     OW  667   1.516   2.783   2.639  0.3556 -0.0860 -0.0553
  223SOL    HW1  668   1.570   2.717   2.687 -1.6469  2.4511 -0.5874
  223SOL    HW2  669   1.456   2.831   2.711  0.1689  1.2675  0.3954
  224SOL     OW  670   2.546   1.349   1.021  0.0407 -0.5074 -0.2031
  224SOL    HW1  671   2.619   1.305   1.077 -1.5922 -1.3190  1.8491
  224SOL    HW2  672   2.525   1.291   0.942  0.9945  1.9555  0.9551
  225SOL     OW  673   1.411   1.156   1.238 -0.1543  0.2055  0.1318
  225SOL    HW1  674   1.392   1.240   1.296 -0.7760  3.5735  0.3223
  225SOL    HW2  675   1.491   1.101   1.267 -1.1055  2.2273  0.4890
  226SOL     OW  676   1.651   2.595   2.844  0.3043  0.8665  0.5613
  226SOL    HW1  677   1.665   2.635   2.934  0.8937 -0.1722  1.4176
  226SOL    HW2  678   1.701   2.509   2.833  1.5323 -1.5384 -1.7803
  227SOL     OW  679   0.913   2.136   0.998  0.4309 -0.1472 -0.1903
  227SOL    HW1  680   0.819   2.142   0.960 -0.5522 -1.9648  2.1056
  227SOL    HW2  681   0.949   2.230   1.019  0.8947  0.2057 -0.9254
  228SOL     OW  682   0.325   2.127   1.312 -0.0280 -0.2505 -0.1413
  228SOL    HW1  683   0.237   2.136   1.363  1.3329  0.9596  0.4191
  228SOL    HW2  684   0.299   2.131   1.212  0.1341  0.8848 -1.1326
  229SOL     OW  685   2.074   0.768   2.926 -0.8517 -0.2980 -0.4944
  229SOL    HW1  686   2.161   0.720   2.951 -1.2907  1.0034 -0.9909
  229SOL    HW2  687   1.992   0.709   2.953 -1.2267  0.2660  1.3823
  230SOL     OW  688   0.963   1.113   1.928  0.1333  0.1514 -0.0099
  230SOL    HW1  689   0.869   1.151   1.947  0.0905 -1.3172  0.6280
  230SOL    HW2  690   1.017   1.078   2.008  0.7210 -1.4357 -0.3895
  231SOL     OW  691   1.583   1.980   2.046  0.3837 -0.7936 -0.4391
  231SOL    HW1  692   1.635   1.896   2.074 -0.8824 -0.2109 -2.2671
  231SOL    HW2  693   1.497   1.991   2.100  0.5571 -1.6622 -0.9440
  232SOL     OW  694   2.073   2.267   1.392 -0.6447  0.1357 -0.2928
  232SOL    HW1  695   2.034   2.261   1.484 -1.4858  1.8076 -0.5628
  232SOL    HW2  696   2.068   2.363   1.348  0.9696  0.9545  1.7161
  233SOL     OW  697   1.776   2.478   2.440 -0.5930 -0.2163 -0.0534
  233SOL    HW1  698   1.818   2.425   2.515 -0.2368  0.7851 -1.7286
  233SOL    HW2  699   1.818   2.571   2.435 -2.6991  3.5664  1.9357
  234SOL     OW  700   1.099   0.016   2.746 -0.0959  0.3573  0.6355
  234SOL    HW1  701   1.084   3.047   2.674  2.0593 -0.6783 -3.8294
  234SOL    HW2  702   1.068   3.103   2.839  0.7945  0.7120  0.9515
  235SOL     OW  703   2.365   2.808   0.001  0.3246  0.1411  0.0567
  235SOL    HW1  704   2.455   2.836   3.081 -1.0106  1.8759 -2.1229
  235SOL    HW2  705   2.363   2.790   0.098 -0.3789  1.6642 -4.0280
  236SOL     OW  706   2.188   2.665   2.479 -0.5182 -0.3226 -0.4626
  236SOL    HW1  707   2.259   2.606   2.436  2.2459  2.1788  0.5128
  236SOL    HW2  708   2.226   2.754   2.511  0.2349 -0.8645 -1.8484
  237SOL     OW  709   1.538   1.107   1.696 -0.2216  0.1263 -0.2658
  237SOL    HW1  710   1.495   1.017   1.714 -0.8446  1.7134 -0.3358
  237SOL    HW2  711   1.470   1.172   1.674  2.4976 -3.5349 -2.0260
  238SOL     OW  712   2.052   3.043   2.159 -0.3158 -0.9142 -0.0952
  238SOL    HW1  713   2.118   0.018   2.153 -2.0650 -0.3571  0.8007
  238SOL    HW2  714   2.099   2.960   2.180 -2.0964  2.7786 -1.0863
  239SOL     OW  715   0.489   1.629   2.115 -0.1230  0.1174  0.0571
  239SOL    HW1  716   0.462   1.589   2.024  1.6720 -0.5067 -1.4273
  239SOL    HW2  717   0.480   1.730   2.115 -2.2208  1.7732  0.4285
  240SOL     OW  718   3.003   2.648   0.719  0.9346 -0.3257 -0.2278
  240SOL    HW1  719   3.078   2.580   0.706  2.9818 -1.3180  0.1057
  240SOL    HW2  720   2.917   2.598   0.730 -0.5083 -0.7281  2.8275
  241SOL     OW  721   1.680   1.983   0.912  0.2367 -0.5209 -0.5050
  241SOL    HW1  722   1.750   1.942   0.972  1.2318  2.6305 -1.8270
  241SOL    HW2  723   1.717   2.009   0.818  1.3059 -2.0557  0.1950
  242SOL     OW  724   1.370   1.826   3.099  0.3863  0.0862 -0.2524
  242SOL    HW1  725   1.431   1.768   3.043 -1.8684  0.9490  2.0382
  242SOL    HW2  726   1.388   1.927   3.082  0.1450 -0.4272 -2.5639
  243SOL     OW  727   0.986   2.816   2.152 -0.0968 -0.2744 -0.4168
  243SOL    HW1  728   0.893   2.780   2.178 -0.5532  0.8918 -0.3822
  243SOL    HW2  729   0.985   2.909   2.189  0.1158  2.3747  0.3534
  244SOL     OW  730   1.773   3.098   2.658 -0.0436 -0.3931 -0.3802
  244SOL    HW1  731   1.769   2.999   2.669 -0.3757  2.9238 -0.0748
  244SOL    HW2  732   1.859   0.015   2.613  0.9557 -0.9836 -0.5079
  245SOL     OW  733   1.238   2.820   0.622  0.4210 -0.0493  0.0946
  245SOL    HW1  734   1.297   2.847   0.540 -1.6079  0.9333 -2.0065
  245SOL    HW2  735   1.230   2.893   0.694 -0.1743 -1.5809  1.1180
  246SOL     OW  736   0.995   0.004   3.025  0.3759 -0.3751 -0.4200
  246SOL    HW1  737   0.916   3.046   3.041  1.1701 -0.6286 -0.3863
  246SOL    HW2  738   1.008   0.055   0.006 -1.6697  2.4654  0.0847
  247SOL     OW  739   0.191   0.654   2.259 -0.4372 -1.0480  0.1713
  247SOL    HW1  740   0.102   0.663   2.209  0.4297 -1.9479  1.2927
  247SOL    HW2  741   0.247   0.574   2.235 -0.9191  0.2518 -1.4527
  248SOL     OW  742   0.723   1.140   2.055 -0.2731 -0.1840 -0.5608
  248SOL    HW1  743   0.749   1.101   2.142 -0.6662 -0.3538 -0.8165
  248SOL    HW2  744   0.662   1.218   2.084 -0.6246  2.4662  0.9580
  249SOL     OW  745   2.195   0.503   0.214 -0.2908 -0.2732  0.5401
  249SOL    HW1  746   2.164   0.435   0.141  0.4071 -1.3213 -0.2332
  249SOL    HW2  747   2.119   0.572   0.236 -1.6558  0.1348  4.9211
  250SOL     OW  748   0.622   0.229   0.547  0.4229  0.4880  0.0171
  250SOL    HW1  749   0.575   0.139   0.564 -1.3107 -0.0922 -0.4847
  250SOL    HW2  750   0.647   0.240   0.448 -2.0330  1.7557 -1.1982
  251SOL     OW  751   1.337   0.139   2.670  0.2804 -0.3414  0.7342
  251SOL    HW1  752   1.251   0.095   2.688  0.6697  0.3051 -2.1572
  251SOL    HW2  753   1.331   0.188   2.581  0.9899 -2.4218  0.3775
  252SOL     OW  754   1.843   1.431   2.341  0.1811  0.3797 -0.2995
  252SOL    HW1  755   1.893   1.348   2.375 -0.0152 -0.0131  0.0762
  252SOL    HW2  756   1.825   1.427   2.241 -0.2733  0.4889  0.2167
  253SOL     OW  757   2.307   2.413   1.889 -0.6019 -0.3816  0.2382
  253SOL    HW1  758   2.407   2.443   1.883  1.5890  1.2328 -0.0950
  253SOL    HW2  759   2.259   2.434   1.797 -1.7937  1.5432  1.2437
  254SOL     OW  760   0.988   2.279   1.602  0.3924  0.2845 -0.0648
  254SOL    HW1  761   0.906   2.225   1.632  1.4253  1.3210  0.6766
  254SOL    HW2  762   0.976   2.373   1.632 -0.0027 -2.7629 -0.1918
  255SOL     OW  763   1.104   1.046   0.765 -0.1184  0.0756  0.0279
  255SOL    HW1  764   1.188   1.073   0.819  0.8865  2.1730 -0.5605
  255SOL    HW2  765   1.052   1.124   0.726  1.0496 -2.7878  2.9165
  256SOL     OW  766   1.941   1.978   2.302 -0.0142 -0.6841  0.3355
  256SOL    HW1  767   1.994   2.052   2.257 -2.0915  0.6613  1.5415
  256SOL    HW2  768   2.002   1.907   2.339 -3.7867  1.5570 -0.7829
  257SOL     OW  769   0.564   2.426   3.027  0.1483  0.5196  0.0529
  257SOL    HW1  770   0.579   2.473   2.933 -0.4305  2.8140 -3.8037
  257SOL    HW2  771   0.552   2.322   3.022  1.4319 -1.3228  1.3092
  258SOL     OW  772   0.667   0.192   2.146 -0.1768 -0.0589  0.3717
  258SOL    HW1  773   0.766   0.163   2.151  0.8949 -0.9613 -0.1548
  258SOL    HW2  774   0.645   0.231   2.052 -0.2892  0.2638 -0.6891
  259SOL     OW  775   0.938   0.167   2.159  0.1184  0.2554 -0.1701
  259SOL    HW1  776   0.984   0.103   2.093 -0.4678 -0.8772 -2.1214
  259SOL    HW2  777   0.993   0.247   2.175 -2.1032  0.3349  1.6848
  260SOL     OW  778   1.621   0.683   0.966  0.0543 -0.3737 -0.1874
  260SOL    HW1  779   1.661   0.769   1.001  1.8906 -1.4817  0.1214
  260SOL    HW2  780   1.546   0.711   0.907  1.9789  0.5860  1.3502
  261SOL     OW  781   0.666   0.091   2.737 -0.2905 -0.2305  0.5576
  261SOL    HW1  782   0.611   0.035   2.797 -1.4296  1.2059  1.4715
  261SOL    HW2  783   0.654   0.187   2.764  0.1147 -1.3566 -1.0547
  262SOL     OW  784   2.489   2.876   2.351 -0.1824 -0.6249 -0.4902
  262SOL    HW1  785   2.505   2.923   2.263  0.7660 -0.4830 -0.1001
  262SOL    HW2  786   2.567   2.814   2.362 -0.1062  2.0288  2.2203
  263SOL     OW  787   0.450   1.854   2.412  0.3038  0.0278 -0.5228
  263SOL    HW1  788   0.440   1.953   2.434 -1.7797 -2.4321 -0.7663
  263SOL    HW2  789   0.362   1.806   2.440 -1.1058  1.2080  1.1888
  264SOL     OW  790   0.932   1.225   1.082 -0.3157  0.1939  0.4963
  264SOL    HW1  791   0.960   1.322   1.083 -2.2415  0.5666  0.0341
  264SOL    HW2  792   1.012   1.167   1.076  0.1877  1.9640 -2.0335
  265SOL     OW  793   0.411   1.925   3.056  0.1544 -0.6858 -0.3835
  265SOL    HW1  794   0.314   1.893   3.058 -0.0614  2.5944 -1.6029
  265SOL    HW2  795   0.479   1.846   3.066 -1.8110 -1.3749 -2.4633
  266SOL     OW  796   1.075   1.084   0.421  0.5016 -0.4315  0.1395
  266SOL    HW1  797   1.150   1.110   0.483  0.1761 -0.6389 -1.4928
  266SOL    HW2  798   1.030   1.008   0.468  0.2732  0.8665 -1.0439
  267SOL     OW  799   2.829   1.103   0.134 -0.0084 -0.0283  0.1637
  267SOL    HW1  800   2.896   1.174   0.170 -1.4520 -0.5394  0.8198
  267SOL    HW2  801   2.879   1.027   0.086 -1.2009  1.9758  0.7888
  268SOL     OW  802   2.451   0.110   2.705  0.4032 -0.0104  0.0531
  268SOL    HW1  803   2.448   0.089   2.604 -0.2634  0.6181 -3.1310
  268SOL    HW2  804   2.361   0.113   2.745  2.2858  0.2362  1.7447
  269SOL     OW  805   1.507   0.481   2.435 -0.0725  0.2044  0.5242
  269SOL    HW1  806   1.523   0.415   2.363 -1.8484 -2.2103  1.1575
  269SOL    HW2  807   1.444   0.553   2.406  0.6313 -0.3839  1.0375
  270SOL     OW  808   0.911   1.370   2.645 -0.3956 -0.6660  0.5022
  270SOL    HW1  809   0.846   1.304   2.687  0.5675  0.4799 -0.6804
  270SOL    HW2  810   1.008   1.340   2.668  0.8225 -0.1484 -0.9244
  271SOL     OW  811   2.726   1.290   0.311  0.0574 -0.0113 -0.0203
  271SOL    HW1  812   2.731   1.215   0.239  1.4217  0.0342 -2.5803
  271SOL    HW2  813   2.819   1.316   0.335 -2.0686 -1.4277 -1.7803
  272SOL     OW  814   2.871   1.482   2.847  0.0189  0.0421  0.0585
  272SOL    HW1  815   2.802   1.449   2.783  1.9838  2.3637 -0.4222
  272SOL    HW2  816   2.909   1.566   2.807 -0.6912 -0.4198  1.8710
  273SOL     OW  817   2.140   0.067   0.280  0.0167  0.4732  0.2348
  273SOL    HW1  818   2.195   0.107   0.359 -1.5173 -0.4673 -0.7165
  273SOL    HW2  819   2.145   0.127   0.202 -1.1699 -1.7378  1.5386
  274SOL     OW  820   0.390   2.448   1.008 -0.5351 -0.1581 -0.3574
  274SOL    HW1  821   0.487   2.412   1.004 -0.8585 -2.2782  0.8781
  274SOL    HW2  822   0.359   2.460   1.105  1.5220  1.2270  0.6330
  275SOL     OW  823   2.375   1.507   0.405 -0.0126  0.0438  0.3085
  275SOL    HW1  824   2.444   1.549   0.337 -1.7651  0.1868 -2.0666
  275SOL    HW2  825   2.413   1.419   0.440  1.1120  1.4203  1.3529
  276SOL     OW  826   3.015   1.240   2.463  0.1547 -0.7475 -0.2569
  276SOL    HW1  827   3.089   1.177   2.497 -0.0607 -1.8847 -1.6719
  276SOL    HW2  828   2.936   1.191   2.414 -1.2613  0.3775  0.8301
  277SOL     OW  829   1.859   2.766   1.272  0.3492 -0.0882 -0.3742
  277SOL    HW1  830   1.925   2.784   1.349 -1.1363  2.1812 -1.0327
  277SOL    HW2  831   1.895   2.783   1.184  1.7640 -1.4787  1.2827
  278SOL     OW  832   1.031   3.104   1.988  0.5752 -0.6743 -0.0216
  278SOL    HW1  833   0.982   3.036   1.931  0.1160  1.7812 -0.2072
  278SOL    HW2  834   1.132   3.089   1.975  0.6343 -2.0656  1.2588
  279SOL     OW  835   1.760   1.658   0.496  0.0676  0.5584 -0.2418
  279SOL    HW1  836   1.683   1.663   0.564  2.1463 -1.3720 -1.0288
  279SOL    HW2  837   1.838   1.718   0.524  1.1868 -0.1673 -0.2060
  280SOL     OW  838   0.591   1.658   0.760 -1.0698  0.2926 -0.4550
  280SOL    HW1  839   0.640   1.711   0.689  2.9759  2.4167 -1.0963
  280SOL    HW2  840   0.523   1.713   0.809  0.3871 -0.7562 -0.5482
  281SOL     OW  841   2.790   0.378   2.578  0.5905  0.1471 -0.1104
  281SOL    HW1  842   2.695   0.389   2.600  1.7479 -0.4097 -0.3874
  281SOL    HW2  843   2.823   0.280   2.586 -0.1447  1.2177 -0.2333
  282SOL     OW  844   0.451   1.057   0.709  0.0996  0.1290 -0.2771
  282SOL    HW1  845   0.387   0.976   0.697  0.5593  0.6692 -1.9482
  282SOL    HW2  846   0.418   1.112   0.787 -1.1060  1.3901 -1.7546
  283SOL     OW  847   1.962   1.862   0.248  0.2689  0.6346  0.2481
  283SOL    HW1  848   1.870   1.823   0.231 -2.5294  0.6697 -1.2135
  283SOL    HW2  849   1.989   1.923   0.168  2.0831  1.3886 -0.7512
  284SOL     OW  850   1.380   0.917   0.237 -0.3412  0.5803  0.3680
  284SOL    HW1  851   1.283   0.943   0.227 -0.0542 -0.4781  1.8354
  284SOL    HW2  852   1.424   0.934   0.148 -0.1849  0.2151 -3.1273
  285SOL     OW  853   2.222   0.643   2.400 -0.8191  0.5185  0.0537
  285SOL    HW1  854   2.131   0.617   2.424  1.7310 -0.4500  1.6826
  285SOL    HW2  855   2.225   0.684   2.308  1.1492 -1.5380  1.7024
  286SOL     OW  856   1.620   2.703   1.356 -0.4634  0.4645  0.1142
  286SOL    HW1  857   1.628   2.666   1.450 -0.6068 -3.0600  1.0935
  286SOL    HW2  858   1.716   2.716   1.313 -0.7246 -0.6699  1.2659
  287SOL     OW  859   1.199   1.109   1.068  0.4814 -0.3548 -0.4990
  287SOL    HW1  860   1.222   1.011   1.079  2.5431 -0.5868  3.0188
  287SOL    HW2  861   1.255   1.158   1.134  2.1059 -1.8977 -1.2685
  288SOL     OW  862   0.929   2.768   0.062 -0.5314 -0.2227  0.4913
  288SOL    HW1  863   0.868   2.830   0.016 -0.3475 -0.0345 -1.5455
  288SOL    HW2  864   1.028   2.786   0.036  1.9326  0.7673 -1.9540
  289SOL     OW  865   0.373   1.552   1.877  0.1102  0.6230  0.2635
  289SOL    HW1  866   0.454   1.567   1.816  0.2350  3.0180 -0.4833
  289SOL    HW2  867   0.287   1.566   1.822  0.0764  1.9378  0.3541
  290SOL     OW  868   1.713   2.194   1.116 -0.1683 -0.4654 -0.2246
  290SOL    HW1  869   1.684   2.117   1.061 -1.4953 -1.3456  0.6435
  290SOL    HW2  870   1.799   2.232   1.079  1.6523 -0.6268 -0.3477
  291SOL     OW  871   1.989   2.230   2.982  0.3275 -0.1466  0.1012
  291SOL    HW1  872   1.932   2.316   2.979 -4.4899  3.5764  0.0634
  291SOL    HW2  873   2.084   2.261   2.968  0.8764  0.1479 -0.8139
  292SOL     OW  874   0.910   0.889   1.748 -0.5425  0.1871  0.2336
  292SOL    HW1  875   0.897   0.973   1.800  1.0051 -1.2270 -1.2928
  292SOL    HW2  876   0.991   0.902   1.690 -1.6363 -0.9246  2.8242
  293SOL     OW  877   1.901   2.644   0.922 -0.5051 -0.4116  0.4018
  293SOL    HW1  878   1.822   2.699   0.880 -0.1352  0.5661  2.2539
  293SOL    HW2  879   1.970   2.709   0.958  1.3993  0.2751 -0.9923
  294SOL     OW  880   0.506   0.680   2.500  0.2419 -0.2242 -0.0001
  294SOL    HW1  881   0.443   0.598   2.507  2.9890  0.2104 -0.1529
  294SOL    HW2  882   0.585   0.684   2.569  0.5181  1.5407 -1.1244
  295SOL     OW  883   1.359   1.543   0.743 -0.1211 -0.2962 -0.9017
  295SOL    HW1  884   1.308   1.472   0.794  3.1875 -0.3831  1.0334
  295SOL    HW2  885   1.319   1.551   0.653 -0.7009 -0.1086 -0.1236
  296SOL     OW  886   2.443   2.117   0.402 -0.2426 -0.0279  0.1365
  296SOL    HW1  887   2.529   2.141   0.354  0.2674  0.7972  1.3365
  296SOL    HW2  888   2.450   2.021   0.429  0.6599  1.4597  0.7375
  297SOL     OW  889   2.155   0.101   3.049  0.4921  0.4196 -0.3128
  297SOL    HW1  890   2.255   0.099   3.073 -1.4999  0.1979  2.4669
  297SOL    HW2  891   2.107   0.034   3.106  2.4124 -0.9666 -0.4949
  298SOL     OW  892   1.396   2.297   2.573  1.0010  0.4881 -0.1650
  298SOL    HW1  893   1.491   2.261   2.575  0.5176  1.6356 -0.0059
  298SOL    HW2  894   1.388   2.395   2.540 -2.2514 -1.1180  1.2473
  299SOL     OW  895   1.400   2.542   2.467  0.5372  0.5578 -0.2168
  299SOL    HW1  896   1.445   2.630   2.497  3.5204  0.9844 -3.4462
  299SOL    HW2  897   1.447   2.500   2.388 -0.1028 -1.2873  0.2467
  300SOL     OW  898   2.029   0.078   2.572  0.3680 -0.3950  0.8734
  300SOL    HW1  899   1.981   0.169   2.549 -1.7992  0.1683 -1.2940
  300SOL    HW2  900   2.083   0.097   2.655  0.5099 -2.6708 -0.9763
  301SOL     OW  901   1.356   1.070   2.025 -0.0813 -0.0888  0.0956
  301SOL    HW1  902   1.459   1.067   2.028 -0.7949 -4.5979  2.6472
  301SOL    HW2  903   1.317   1.088   1.934  0.0313  1.1537 -2.2294
  302SOL     OW  904   2.722   2.253   0.053 -0.1501 -0.1904 -0.2689
  302SOL    HW1  905   2.746   2.355   0.061 -0.1744  0.2943 -0.2541
  302SOL    HW2  906   2.799   2.202   0.012 -0.4592  3.0320  0.1105
  303SOL     OW  907   2.794   2.291   2.312 -0.4264 -0.0200  0.3538
  303SOL    HW1  908   2.846   2.261   2.394 -0.0060 -1.5297 -0.5030
  303SOL    HW2  909   2.830   2.240   2.229 -0.9046 -0.3235 -4.2766
  304SOL     OW  910   2.936   0.632   1.822 -0.2111  0.1315 -0.3133
  304SOL    HW1  911   2.963   0.719   1.771  0.4437  0.5415  0.4744
  304SOL    HW2  912   2.867   0.649   1.892  2.4274  3.3782 -0.8443
  305SOL     OW  913   0.619   2.102   1.876  0.1217 -0.0224 -0.3870
  305SOL    HW1  914   0.672   2.115   1.786  3.1130  0.8621 -1.2536
  305SOL    HW2  915   0.586   2.195   1.903  0.2540  0.7739  0.8921
  306SOL     OW  916   2.623   0.751   1.650  0.1952  0.1844  0.0773
  306SOL    HW1  917   2.530   0.738   1.608  2.2523 -1.7345  1.3297
  306SOL    HW2  918   2.613   0.780   1.745  0.5767 -1.3612 -0.9358
  307SOL     OW  919   1.588   0.836   1.981 -0.3308 -0.7080  0.1216
  307SOL    HW1  920   1.651   0.757   1.977 -2.7722  0.6708  0.3639
  307SOL    HW2  921   1.532   0.841   1.898 -0.7183  1.5866  0.3132
  308SOL     OW  922   2.964   1.715   0.957  0.4710 -0.0278 -0.1948
  308SOL    HW1  923   2.967   1.614   0.936  1.2702 -3.0648 -0.6274
  308SOL    HW2  924   2.863   1.738   0.965  1.9688 -0.9214  0.5913
  309SOL     OW  925   2.551   1.598   1.175 -0.3514  0.9841  0.5104
  309SOL    HW1  926   2.506   1.632   1.258  1.1281 -0.1263 -0.6366
  309SOL    HW2  927   2.531   1.496   1.161 -0.6055 -2.2124  1.2005
  310SOL     OW  928   2.865   1.905   2.635  0.0380 -0.1496 -0.4005
  310SOL    HW1  929   2.917   1.831   2.680 -1.7612  1.8399  1.2877
  310SOL    HW2  930   2.823   1.963   2.707 -0.0007  1.9226 -1.0439
  311SOL     OW  931   0.105   2.617   0.310  0.6951 -0.2343  0.0884
  311SOL    HW1  932   0.014   2.668   0.306 -1.3276 -1.5554  0.4382
  311SOL    HW2  933   0.096   2.516   0.299  3.8947  1.3090  1.9006
  312SOL     OW  934   2.067   1.459   0.786  0.2324  0.3177  0.5125
  312SOL    HW1  935   2.001   1.533   0.807  0.9546  1.1092 -1.2015
  312SOL    HW2  936   2.164   1.489   0.802  2.0494 -1.4364 -1.7512
  313SOL     OW  937   2.587   0.157   0.931 -0.2376  0.0374  0.2753
  313SOL    HW1  938   2.605   0.199   1.023  2.4960 -0.6887  0.3099
  313SOL    HW2  939   2.651   0.204   0.862  1.9345 -1.7818 -0.6867
  314SOL     OW  940   1.430   1.637   0.223  0.0970 -0.0867 -0.0776
  314SOL    HW1  941   1.470   1.554   0.181 -0.0537  0.6068 -0.3215
  314SOL    HW2  942   1.407   1.707   0.155  0.2421 -0.2723  3.6801
  315SOL     OW  943   1.224   2.308   2.090  0.2920  0.3242  0.5281
  315SOL    HW1  944   1.316   2.339   2.064  1.9203 -0.2431  0.3439
  315SOL    HW2  945   1.172   2.260   2.013 -1.5356  0.2433 -0.8537
  316SOL     OW  946   2.929   1.235   0.562 -0.3263 -0.1840  0.0370
  316SOL    HW1  947   2.921   1.333   0.540  0.4277 -0.5865  2.0469
  316SOL    HW2  948   3.017   1.204   0.516  1.9150  0.3121 -2.6145
  317SOL     OW  949   0.537   3.077   0.602 -0.0389 -0.0552 -0.6053
  317SOL    HW1  950   0.558   2.991   0.548  1.5733  0.6011 -0.0587
  317SOL    HW2  951   0.583   3.079   0.690 -0.1992  2.4300 -0.3968
  318SOL     OW  952   2.829   2.269   0.502 -0.7186 -0.0696  0.4855
  318SOL    HW1  953   2.763   2.214   0.556 -0.6633  1.7293 -1.9548
  318SOL    HW2  954   2.928   2.238   0.506  0.8454 -2.8950  1.2828
  319SOL     OW  955   0.747   1.192   2.766 -0.1032 -0.1591  0.2510
  319SOL    HW1  956   0.675   1.267   2.770 -0.8661 -0.5317  2.2797
  319SOL    HW2  957   0.756   1.155   2.861  1.0595  0.3839  1.3969
  320SOL     OW  958   0.752   2.506   1.651 -0.0273 -0.2863 -0.2950
  320SOL    HW1  959   0.683   2.583   1.659 -1.3538 -0.5014  2.0698
  320SOL    HW2  960   0.815   2.520   1.727 -0.6179 -0.8320 -0.8459
  321SOL     OW  961   1.583   2.277   3.100 -0.1352  0.0311  0.0354
  321SOL    HW1  962   1.632   2.232   0.067  1.3470  1.6847 -0.6430
  321SOL    HW2  963   1.649   2.319   3.038  0.9307  1.1618  1.2149
  322SOL     OW  964   2.956   1.313   2.137  0.4776 -0.1128 -0.1001
  322SOL    HW1  965   2.925   1.242   2.207 -3.3273 -1.1404  2.3133
  322SOL    HW2  966   2.988   1.265   2.049 -1.2269  1.1202  2.3364
  323SOL     OW  967   2.486   1.271   0.474 -0.0830  1.0020 -0.2227
  323SOL    HW1  968   2.460   1.177   0.447  0.0677  0.0029  0.6595
  323SOL    HW2  969   2.569   1.284   0.419 -1.4564 -0.3535  1.2039
  324SOL     OW  970   0.072   2.739   2.846  0.2915 -0.0492  0.4838
  324SOL    HW1  971   0.073   2.644   2.814  2.1407 -1.2820  1.5506
  324SOL    HW2  972   0.056   2.739   2.945 -2.3936 -5.7332 -0.0652
  325SOL     OW  973   1.586   0.274   2.232  0.1401 -0.0036 -0.1782
  325SOL    HW1  974   1.680   0.286   2.191  0.7117 -0.8646 -0.8793
  325SOL    HW2  975   1.577   0.183   2.283  0.4616 -2.6640  3.6860
  326SOL     OW  976   2.260   2.613   1.445 -0.5125 -0.0938  0.0537
  326SOL    HW1  977   2.340   2.661   1.481  1.1264 -1.2679  0.8744
  326SOL    HW2  978   2.291   2.551   1.373  0.2209  1.0423 -0.6873
  327SOL     OW  979   1.679   0.214   3.014 -0.5281 -0.0944  0.0535
  327SOL    HW1  980   1.753   0.149   2.995 -1.1800 -1.6128  2.1094
  327SOL    HW2  981   1.599   0.194   2.954 -1.2422 -1.1892 -1.5135
  328SOL     OW  982   2.883   0.724   2.325 -0.0141 -0.6438 -0.2378
  328SOL    HW1  983   2.970   0.748   2.371  1.7135 -0.5478 -0.1947
  328SOL    HW2  984   2.802   0.762   2.378 -1.5353 -1.7902  2.7245
  329SOL     OW  985   1.287   3.081   1.885 -0.0018 -0.4300  0.5462
  329SOL    HW1  986   1.283   0.077   1.864  0.4155  2.0630 -0.8876
  329SOL    HW2  987   1.375   3.055   1.923 -2.9996 -1.4728  0.8383
  330SOL     OW  988   2.855   1.911   1.373  0.2043 -0.4305 -0.0123
  330SOL    HW1  989   2.954   1.909   1.362 -2.0153 -0.8098  2.1862
  330SOL    HW2  990   2.815   1.820   1.357  1.0147  1.3076  2.4606
  331SOL     OW  991   0.349   1.452   2.379 -0.0782  0.0317 -0.3143
  331SOL    HW1  992   0.440   1.454   2.422  3.0179  1.7357 -0.3424
  331SOL    HW2  993   0.340   1.526   2.312 -2.4168 -2.8156  2.2303
  332SOL     OW  994   0.134   3.051   1.605  0.0711 -0.5243 -0.4152
  332SOL    HW1  995   0.231   3.049   1.580 -0.7633  1.6807  2.3118
  332SOL    HW2  996   0.104   0.018   1.673 -0.3759  1.5622  0.4727
  333SOL     OW  997   2.479   2.658   1.629 -0.2141  0.6431 -0.0718
  333SOL    HW1  998   2.498   2.571   1.679 -0.3095  2.4830 -2.4031
  333SOL    HW2  999   2.564   2.674   1.575  1.4268  0.0216  2.4069
  334SOL     OW 1000   1.069   2.069   0.765 -0.3658  0.0570  0.3221
  334SOL    HW1 1001   1.008   2.073   0.851 -0.2896 -1.2832  0.2126
  334SOL    HW2 1002   1.127   2.152   0.764  1.4800 -0.7071 -1.0837
  335SOL     OW 1003   0.715   2.116   0.028 -0.0408 -0.8298 -0.3284
  335SOL    HW1 1004   0.674   2.166   3.059  0.1618  0.8085 -0.5373
  335SOL    HW2 1005   0.677   2.138   0.124 -2.0112 -0.0242  5.0431
  336SOL     OW 1006   0.288   0.143   1.963 -0.8292  0.2076  0.0471
  336SOL    HW1 1007   0.210   0.206   1.955  1.1852 -2.0744  0.5602
  336SOL    HW2 1008   0.371   0.176   1.913  3.2126 -0.7165 -0.9824
  337SOL     OW 1009   2.731   1.974   3.008 -0.2338  0.1916 -0.3862
  337SOL    HW1 1010   2.650   1.969   3.074 -0.3387 -0.1034  4.1960
  337SOL    HW2 1011   2.817   1.973   3.064  2.3068  3.3369  1.1457
  338SOL     OW 1012   1.098   1.772   1.081  0.1616 -0.0724 -0.0878
  338SOL    HW1 1013   1.194   1.753   1.099 -0.9615  0.5577  0.1070
  338SOL    HW2 1014   1.057   1.833   1.148  0.8752 -2.6259  0.8951
  339SOL     OW 1015   0.066   0.320   2.044 -0.4781  0.1612 -0.8629
  339SOL    HW1 1016   0.059   0.421   2.024 -0.6533  0.5645 -0.2506
  339SOL    HW2 1017   0.119   0.307   2.131  1.9546 -0.5114 -1.5098
  340SOL     OW 1018   1.584   2.550   0.456 -0.4097  0.0978 -0.2185
  340SOL    HW1 1019   1.554   2.466   0.406 -0.8749 -0.4666 -1.1356
  340SOL    HW2 1020   1.610   2.530   0.552 -1.7848  0.4105 -1.7356
  341SOL     OW 1021   1.835   1.519   1.057  0.4407  0.0976  0.2383
  341SOL    HW1 1022   1.763   1.451   1.045 -0.4145  2.6705  0.4323
  341SOL    HW2 1023   1.834   1.575   0.971 -0.7485  1.1630 -1.1887
  342SOL     OW 1024   0.129   1.883   0.487  0.2015  0.3677 -0.9310
  342SOL    HW1 1025   0.052   1.882   0.423 -1.5672 -4.2284  0.4208
  342SOL    HW2 1026   0.165   1.790   0.493 -0.4492 -0.2450  0.5442
  343SOL     OW 1027   1.449   2.535   1.221  0.1765 -0.4458  0.0219
  343SOL    HW1 1028   1.519   2.594   1.267  0.3168 -0.7830  1.5282
  343SOL    HW2 1029   1.442   2.443   1.270  2.5586 -3.0061  0.3149
  344SOL     OW 1030   2.248   3.020   0.780 -0.0039  0.6607 -0.3263
  344SOL    HW1 1031   2.173   2.972   0.732  2.0824 -0.9927 -1.7309
  344SOL    HW2 1032   2.336   2.989   0.738 -2.7160  0.6278 -0.8411
  345SOL     OW 1033   2.767   2.141   2.786 -0.3256 -0.0787 -0.4332
  345SOL    HW1 1034   2.761   2.071   2.861  0.1781 -2.6114 -3.1551
  345SOL    HW2 1035   2.823   2.225   2.817 -3.2874 -0.8059  2.6199
  346SOL     OW 1036   0.418   1.797   0.907  0.2442  0.2251 -0.2657
  346SOL    HW1 1037   0.329   1.747   0.899  1.5643  2.5001 -0.6500
  346SOL    HW2 1038   0.405   1.897   0.898 -2.0143 -3.1730 -2.8986
  347SOL     OW 1039   1.964   2.498   1.265  0.3458 -0.1292 -0.2334
  347SOL    HW1 1040   1.942   2.594   1.257  0.1822 -4.0760 -1.4106
  347SOL    HW2 1041   1.951   2.448   1.177 -3.0446  2.2105 -0.9281
  348SOL     OW 1042   1.246   1.554   2.757  0.7304 -0.0497 -0.7472
  348SOL    HW1 1043   1.234   1.564   2.859 -0.8011 -0.5421  2.5690
  348SOL    HW2 1044   1.170   1.608   2.714  1.0345 -1.7286  0.7349
  349SOL     OW 1045   2.421   0.973   2.268 -0.0777  0.3395  0.1669
  349SOL    HW1 1046   2.409   1.035   2.344  0.2491 -0.3765  0.3637
  349SOL    HW2 1047   2.339   0.924   2.249  2.4666 -0.7218 -2.5195
  350SOL     OW 1048   3.060   2.397   1.452  0.0610 -0.0451 -0.2579
  350SOL    HW1 1049   0.021   2.472   1.448 -1.0148 -0.9154  2.5064
  350SOL    HW2 1050   3.016   2.393   1.360 -1.0368 -1.7625  0.4979
  351SOL     OW 1051   0.488   0.354   2.805 -0.3742 -0.2696 -0.5986
  351SOL    HW1 1052   0.513   0.377   2.708  2.5468 -0.1193 -1.5210
  351SOL    HW2 1053   0.569   0.342   2.859  0.2267 -1.7166 -1.3153
  352SOL     OW 1054   0.680   2.410   1.380  0.3064  0.0245 -0.1040
  352SOL    HW1 1055   0.726   2.444   1.464 -0.4133 -0.2451 -0.7092
  352SOL    HW2 1056   0.578   2.406   1.401  0.8046  1.4047  0.8053
  353SOL     OW 1057   0.832   1.354   2.353 -0.1010  0.0247 -0.0998
  353SOL    HW1 1058   0.887   1.376   2.440  1.3641  0.2160 -3.3299
  353SOL    HW2 1059   0.850   1.261   2.314  1.6537 -0.7594 -0.6997
  354SOL     OW 1060   1.695   0.894   0.553  0.2825 -0.0257 -0.4763
  354SOL    HW1 1061   1.633   0.950   0.614 -0.2777  2.3435 -1.4030
  354SOL    HW2 1062   1.709   0.941   0.465  1.2974  1.2672 -1.2376
  355SOL     OW 1063   2.956   0.516   0.534  0.2834 -0.1329  0.2740
  355SOL    HW1 1064   2.902   0.522   0.448 -0.2673  2.6363 -0.5852
  355SOL    HW2 1065   2.989   0.610   0.553  1.6546 -0.8047 -2.7029
  356SOL     OW 1066   2.695   1.005   2.674  0.2945 -0.4357  0.2099
  356SOL    HW1 1067   2.789   0.964   2.682  1.9858 -0.5772  4.1719
  356SOL    HW2 1068   2.644   0.990   2.763 -1.0465 -2.5830  0.0223
  357SOL     OW 1069   0.584   2.729   1.695  0.2113  0.0232 -0.3222
  357SOL    HW1 1070   0.625   2.760   1.604 -2.0689 -0.4079 -1.2578
  357SOL    HW2 1071   0.615   2.788   1.771  1.0901  2.2155 -2.5207
  358SOL     OW 1072   2.295   1.232   2.079 -0.0117  0.1760  0.2755
  358SOL    HW1 1073   2.255   1.326   2.087  1.3615 -0.6697 -0.5610
  358SOL    HW2 1074   2.384   1.231   2.033 -2.2204  0.9454  3.5551
  359SOL     OW 1075   2.240   2.333   2.887 -0.9471  0.1757 -0.4335
  359SOL    HW1 1076   2.201   2.384   2.810 -1.3572  1.3370  0.5948
  359SOL    HW2 1077   2.330   2.365   2.921  2.2106 -0.2283  0.5243
  360SOL     OW 1078   2.225   0.603   0.718  0.0419  0.2249  0.3489
  360SOL    HW1 1079   2.259   0.643   0.804 -4.0985  2.2463 -0.5487
  360SOL    HW2 1080   2.235   0.663   0.638  0.7850  1.2470 -0.0162
  361SOL     OW 1081   1.866   3.041   0.919  0.3533 -0.1616  0.3123
  361SOL    HW1 1082   1.834   0.006   0.850 -1.9702  1.0039 -1.2185
  361SOL    HW2 1083   1.827   2.954   0.882 -1.6208  0.3933 -2.1545
  362SOL     OW 1084   1.333   1.211   0.552  0.6216  0.6553 -0.0575
  362SOL    HW1 1085   1.294   1.269   0.630 -0.9096  0.7507  1.8192
  362SOL    HW2 1086   1.413   1.168   0.595 -0.1827 -0.4515  0.4283
  363SOL     OW 1087   2.523   1.624   2.353  0.4611 -0.1456  0.2262
  363SOL    HW1 1088   2.565   1.541   2.314  0.1744 -0.2595  1.8717
  363SOL    HW2 1089   2.518   1.606   2.456 -0.7610  0.1631  0.5809
  364SOL     OW 1090   1.107   0.680   1.515 -0.0045  0.5613  0.4720
  364SOL    HW1 1091   1.074   0.618   1.588  1.6871  0.2185 -0.8507
  364SOL    HW2 1092   1.070   0.654   1.424 -0.8417 -0.0825 -1.1860
  365SOL     OW 1093   3.103   0.024   1.057 -0.5959 -0.1031 -0.0904
  365SOL    HW1 1094   0.080   0.033   1.003 -2.7180 -0.1936 -1.3905
  365SOL    HW2 1095   3.022   3.105   1.002  1.0960 -0.4710 -1.8815
  366SOL     OW 1096   2.920   1.469   0.425 -0.3160 -0.4939 -0.0011
  366SOL    HW1 1097   2.890   1.534   0.496  1.4005 -1.0574 -2.7277
  366SOL    HW2 1098   2.979   1.514   0.358 -0.7098  0.1937 -1.1765
  367SOL     OW 1099   2.962   2.151   3.078 -0.2184  0.7463 -0.6695
  367SOL    HW1 1100   3.010   2.234   3.039  2.4108  1.7181  1.7024
  367SOL    HW2 1101   2.998   2.128   0.062 -0.8882  0.9132  3.8362
  368SOL     OW 1102   0.071   2.379   0.999  0.1610  0.0658  0.1020
  368SOL    HW1 1103   0.144   2.421   0.939  2.1164  0.3619  2.1510
  368SOL    HW2 1104   3.093   2.370   0.940  1.6160 -1.9413  0.2554
  369SOL     OW 1105   0.329   0.414   0.469  0.1359  0.1395 -0.0180
  369SOL    HW1 1106   0.267   0.455   0.537  1.3467 -4.0854  0.0151
  369SOL    HW2 1107   0.391   0.347   0.516 -2.7694 -0.1663 -0.0104
  370SOL     OW 1108   0.246   1.015   1.608 -0.0285  0.4624  0.2919
  370SOL    HW1 1109   0.321   1.073   1.643 -5.3769 -1.3794  0.4496
  370SOL    HW2 1110   0.225   1.027   1.510  1.5150  0.1261  2.5894
  371SOL     OW 1111   2.209   2.281   0.881  0.6018  0.0024  0.0211
  371SOL    HW1 1112   2.262   2.212   0.942  1.2393 -2.9361  0.1092
  371SOL    HW2 1113   2.154   2.239   0.808  1.1583 -1.1051  4.0016
  372SOL     OW 1114   2.947   0.828   2.704 -0.1121 -0.1967 -0.2682
  372SOL    HW1 1115   2.937   0.734   2.742  2.1427 -0.5094  3.1538
  372SOL    HW2 1116   3.039   0.843   2.668 -0.9973 -1.3489 -0.3384
  373SOL     OW 1117   2.895   1.605   0.671  0.1204  0.1067  0.5421
  373SOL    HW1 1118   2.882   1.704   0.669  1.7554 -4.4337 -2.7074
  373SOL    HW2 1119   2.818   1.560   0.725 -0.4493 -0.3562  1.5206
  374SOL     OW 1120   0.308   2.378   0.349  0.0189  0.3255 -0.6125
  374SOL    HW1 1121   0.365   2.456   0.319  2.0761 -0.5037  0.7486
  374SOL    HW2 1122   0.210   2.370   0.315 -1.9253 -1.4241 -1.9260
  375SOL     OW 1123   0.715   0.235   0.294 -0.2585 -0.0007 -0.5126
  375SOL    HW1 1124   0.806   0.185   0.295  2.8007  2.2134  0.4857
  375SOL    HW2 1125   0.710   0.304   0.219 -1.0424 -0.7674  2.5332
  376SOL     OW 1126   0.339   3.029   2.100 -0.0316  0.3315 -0.2291
  376SOL    HW1 1127   0.317   0.012   2.057 -0.7026  0.4499  1.3359
  376SOL    HW2 1128   0.251   2.970   2.095 -5.4531 -0.1337  1.4657
  377SOL     OW 1129   1.024   2.426   2.259  0.4754 -0.5041 -0.4765
  377SOL    HW1 1130   1.086   2.386   2.195 -1.1857 -0.3004  0.3283
  377SOL    HW2 1131   1.059   2.506   2.313 -0.3719 -0.7690  1.9688
  378SOL     OW 1132   1.143   0.842   0.597 -0.0715  0.0726 -0.0173
  378SOL    HW1 1133   1.128   0.909   0.671 -3.7309  0.2452 -1.0288
  378SOL    HW2 1134   1.075   0.772   0.597  1.5915  1.2466 -1.4699
  379SOL     OW 1135   1.197   1.581   3.032  0.3235  0.1687  0.4631
  379SOL    HW1 1136   1.181   1.503   3.096  0.7185 -0.9712  0.4636
  379SOL    HW2 1137   1.208   1.665   3.085 -1.8833  1.7986  1.2877
  380SOL     OW 1138   3.041   1.737   1.687  0.1898  0.1294 -0.3388
  380SOL    HW1 1139   3.004   1.754   1.782 -0.2649  2.9884 -2.1025
  380SOL    HW2 1140   3.091   1.817   1.655 -1.2766 -2.6058  0.5427
  381SOL     OW 1141   3.043   0.871   2.033 -0.2733 -1.3312 -0.2265
  381SOL    HW1 1142   0.026   0.875   1.985 -0.8473 -1.0308  1.0057
  381SOL    HW2 1143   2.992   0.788   2.000  0.0293 -2.6756 -0.7615
  382SOL     OW 1144   2.495   2.351   3.032 -0.0714 -0.5805  0.1176
  382SOL    HW1 1145   2.540   2.413   2.966 -0.4182 -2.0017  0.0534
  382SOL    HW2 1146   2.571   2.297   3.072  1.6651  0.1761 -2.0286
  383SOL     OW 1147   2.351   2.046   2.201  0.4206 -0.2999 -0.0752
  383SOL    HW1 1148   2.406   1.958   2.205 -0.8989 -1.3337  1.7948
  383SOL    HW2 1149   2.325   2.067   2.296 -3.7772 -1.7641  0.8730
  384SOL     OW 1150   0.791   2.434   2.112 -0.3299  0.0792  0.8405
  384SOL    HW1 1151   0.881   2.423   2.160 -1.7644  0.6397 -1.8456
  384SOL    HW2 1152   0.714   2.379   2.148 -0.1082 -1.0781 -3.6666
  385SOL     OW 1153   2.761   2.188   0.990 -0.3051 -0.1433  0.4376
  385SOL    HW1 1154   2.683   2.210   0.924 -2.2619  0.2086  0.1968
  385SOL    HW2 1155   2.753   2.099   1.035  3.9492  1.1203  2.5316
  386SOL     OW 1156   1.792   0.676   2.791  0.5038 -0.4695 -0.1881
  386SOL    HW1 1157   1.728   0.613   2.740 -0.6699 -0.8684  1.4455
  386SOL    HW2 1158   1.797   0.649   2.886  1.2345  2.2941 -3.7493
  387SOL     OW 1159   0.385   0.467   1.930 -0.1015 -0.9006 -0.1991
  387SOL    HW1 1160   0.367   0.552   1.877  0.3979  0.0590  2.5343
  387SOL    HW2 1161   0.394   0.383   1.885  0.3315  0.7333  2.5435
  388SOL     OW 1162   2.726   1.011   1.563 -0.4446 -0.4273 -0.0838
  388SOL    HW1 1163   2.683   0.925   1.592 -0.1563 -2.3513 -0.2651
  388SOL    HW2 1164   2.756   1.010   1.467 -0.1913 -2.3496  0.1993
  389SOL     OW 1165   1.570   0.834   2.271  0.5361 -0.2117  0.5266
  389SOL    HW1 1166   1.584   0.929   2.309  1.8054 -2.4058  0.7716
  389SOL    HW2 1167   1.574   0.836   2.167 -0.8830 -2.3420 -1.3477
  390SOL     OW 1168   2.039   2.240   0.652 -0.6365 -0.0684 -0.2748
  390SOL    HW1 1169   2.130   2.238   0.612 -2.8527  3.1781 -1.5015
  390SOL    HW2 1170   2.003   2.337   0.647 -1.2103  0.4134 -0.2202
  391SOL     OW 1171   1.744   2.821   0.796 -0.0284 -0.0198  0.2827
  391SOL    HW1 1172   1.773   2.866   0.711  1.1643  1.0308 -0.8753
  391SOL    HW2 1173   1.642   2.834   0.811 -0.1815 -0.2955  2.7083
  392SOL     OW 1174   2.740   2.528   1.399  0.6414  0.2417  0.0504
  392SOL    HW1 1175   2.694   2.618   1.378 -1.9254  0.5948  0.8252
  392SOL    HW2 1176   2.805   2.532   1.474  1.7299  0.5566 -1.7120
  393SOL     OW 1177   2.000   1.736   2.856  0.1491 -0.2319  0.5087
  393SOL    HW1 1178   1.955   1.821   2.884  0.0990 -0.8858  2.1912
  393SOL    HW2 1179   1.995   1.663   2.930 -0.5209  1.0523  1.9738
  394SOL     OW 1180   0.326   2.687   3.035 -0.4205  0.4026  0.1390
  394SOL    HW1 1181   0.303   2.592   3.017  1.6554  1.7129  2.8942
  394SOL    HW2 1182   0.245   2.728   3.068  1.6322 -0.9717 -0.8184
  395SOL     OW 1183   1.249   1.310   0.838 -0.4090 -0.0519 -0.1025
  395SOL    HW1 1184   1.150   1.311   0.823  3.8912 -1.8714 -0.1854
  395SOL    HW2 1185   1.268   1.246   0.915 -1.6488 -2.0692  0.7471
  396SOL     OW 1186   2.123   0.914   2.687 -0.3666 -0.0974  0.0114
  396SOL    HW1 1187   2.058   0.987   2.717 -0.5489 -1.4463  2.6887
  396SOL    HW2 1188   2.136   0.839   2.748 -0.1870  4.7298  0.3398
  397SOL     OW 1189   0.071   0.558   2.614 -0.1587 -0.4937  0.1268
  397SOL    HW1 1190   0.010   0.503   2.557  0.1512  1.5483 -1.0169
  397SOL    HW2 1191   0.073   0.656   2.582 -1.0845  1.6064 -0.5733
  398SOL     OW 1192   1.284   0.504   0.085 -0.6149  0.0545 -0.1757
  398SOL    HW1 1193   1.380   0.489   0.107  2.0517  1.9070 -0.9538
  398SOL    HW2 1194   1.250   0.443   0.013  0.4702 -0.4745 -3.0086
  399SOL     OW 1195   1.676   2.947   1.869  0.5738 -0.0241 -0.0530
  399SOL    HW1 1196   1.768   2.924   1.834  1.2490 -1.7765 -0.2722
  399SOL    HW2 1197   1.609   2.946   1.794 -0.1807  0.5363  1.5147
  400SOL     OW 1198   0.065   1.880   2.268 -0.3623  0.2810 -0.1732
  400SOL    HW1 1199   0.066   1.824   2.183 -1.0227 -0.1153 -2.5262
  400SOL    HW2 1200   0.004   1.840   2.338  1.0878 -1.4959 -1.2263
  401SOL     OW 1201   0.667   3.051   0.197 -0.1884 -0.3452  0.4914
  401SOL    HW1 1202   0.746   3.096   0.241 -0.1144 -0.1425  1.7645
  401SOL    HW2 1203   0.593   0.009   0.189 -0.0032 -2.1237  0.6023
  402SOL     OW 1204   0.438   2.388   1.461 -0.0055 -0.1528  0.3652
  402SOL    HW1 1205   0.402   2.294   1.473 -0.1452  0.2245 -1.1972
  402SOL    HW2 1206   0.405   2.452   1.533  1.5380  2.6923  3.0181
  403SOL     OW 1207   0.320   1.457   1.295 -0.3860  0.2571 -0.7808
  403SOL    HW1 1208   0.243   1.394   1.290  2.5893 -0.1711  0.4174
  403SOL    HW2 1209   0.320   1.508   1.380  0.1516 -0.3133 -0.6621
  404SOL     OW 1210   3.072   2.638   1.901  0.4721 -0.3524  0.2687
  404SOL    HW1 1211   2.978   2.668   1.888  1.0280 -2.1147 -0.2338
  404SOL    HW2 1212   3.096   2.643   2.002  0.1712  0.3806  3.7390
  405SOL     OW 1213   2.821   0.362   2.133  0.2310  0.4805  0.0015
  405SOL    HW1 1214   2.746   0.405   2.182  0.8946 -1.2378 -2.7258
  405SOL    HW2 1215   2.880   0.318   2.196 -3.7141  0.8783 -2.8959
  406SOL     OW 1216   1.922   2.432   0.183  0.4751 -0.0847  0.3024
  406SOL    HW1 1217   1.899   2.343   0.225 -1.0083  2.8868  3.1195
  406SOL    HW2 1218   1.981   2.495   0.235  0.4945  0.7028  0.7041
  407SOL     OW 1219   1.886   1.736   0.885 -0.0069  0.0232 -0.4948
  407SOL    HW1 1220   1.849   1.786   0.966 -1.7809  0.0005 -1.1060
  407SOL    HW2 1221   1.885   1.785   0.795 -1.2181 -0.9672  0.0025
  408SOL     OW 1222   0.643   0.424   2.277 -0.3303  0.5643 -0.5555
  408SOL    HW1 1223   0.738   0.462   2.273 -0.0134  2.2746  1.4208
  408SOL    HW2 1224   0.639   0.334   2.229  0.9976 -0.1881  1.4609
  409SOL     OW 1225   2.616   1.877   0.781 -0.2026  0.4368  0.8394
  409SOL    HW1 1226   2.642   1.816   0.861  2.5150  1.6261  1.5182
  409SOL    HW2 1227   2.517   1.874   0.756 -1.4401 -0.2349 -0.2638
  410SOL     OW 1228   2.328   1.508   0.848  0.2742  0.2791  0.4780
  410SOL    HW1 1229   2.375   1.426   0.813  0.3336  0.3127 -1.1453
  410SOL    HW2 1230   2.355   1.526   0.941  0.8426  0.2197 -2.1321
  411SOL     OW 1231   3.040   0.815   0.482  0.1605 -0.3032  0.4258
  411SOL    HW1 1232   0.032   0.797   0.469  2.8129 -1.8021  0.8509
  411SOL    HW2 1233   3.023   0.872   0.572 -1.8627  1.1705  0.9931
  412SOL     OW 1234   1.533   0.471   0.227  0.2317  0.2546 -0.2668
  412SOL    HW1 1235   1.564   0.553   0.277 -0.9027  0.6413  1.6593
  412SOL    HW2 1236   1.528   0.387   0.285 -1.3664 -1.0484  0.4786
  413SOL     OW 1237   0.877   0.879   1.149  0.0044 -0.0930 -0.5242
  413SOL    HW1 1238   0.778   0.870   1.169  0.3058 -0.1514 -1.2943
  413SOL    HW2 1239   0.884   0.904   1.051 -0.2818 -0.0766 -1.4278
  414SOL     OW 1240   3.067   1.281   2.870 -0.0126  0.5211  0.3160
  414SOL    HW1 1241   3.000   1.360   2.860  0.9281 -2.3505 -0.3876
  414SOL    HW2 1242   0.023   1.276   2.789 -2.5589  1.3359 -1.4009
  415SOL     OW 1243   0.333   1.624   2.905 -0.0693  0.4901 -0.5900
  415SOL    HW1 1244   0.357   1.534   2.949  1.6931 -0.2409 -2.5204
  415SOL    HW2 1245   0.279   1.607   2.826  2.1898  0.1862  1.8405
  416SOL     OW 1246   1.618   0.727   0.313 -0.2040  0.1310  0.3109
  416SOL    HW1 1247   1.685   0.690   0.383 -0.8325 -3.3115  1.9223
  416SOL    HW2 1248   1.595   0.827   0.332  0.5395  3.3738 -0.9325
  417SOL     OW 1249   3.086   0.765   1.063 -0.0995 -0.2107 -0.1049
  417SOL    HW1 1250   0.039   0.826   1.118 -1.5928  0.3664 -0.4559
  417SOL    HW2 1251   0.024   0.743   0.973  1.3096 -2.3647  1.3067
  418SOL     OW 1252   2.374   1.042   2.718  0.0080 -0.2561 -0.0904
  418SOL    HW1 1253   2.293   0.978   2.727 -1.9085 -2.8632 -0.7626
  418SOL    HW2 1254   2.447   1.016   2.780  0.1616  3.3331  0.1840
  419SOL     OW 1255   0.454   0.628   0.376  0.4494 -0.2940  0.1867
  419SOL    HW1 1256   0.511   0.644   0.459 -0.4048 -0.0018  0.3053
  419SOL    HW2 1257   0.402   0.546   0.391 -1.0660 -0.6101 -0.2431
  420SOL     OW 1258   0.674   1.442   0.905 -1.0136  0.0341  0.2519
  420SOL    HW1 1259   0.604   1.421   0.973  0.8555  0.5755 -1.7157
  420SOL    HW2 1260   0.640   1.534   0.867 -2.3300  1.9036  2.0072
  421SOL     OW 1261   0.315   2.007   0.210  0.3493  0.2385 -1.2022
  421SOL    HW1 1262   0.350   2.035   0.120 -1.0195 -2.1530  1.9006
  421SOL    HW2 1263   0.379   2.020   0.290  0.9493 -1.8879  0.0987
  422SOL     OW 1264   2.481   0.410   1.471 -0.4833 -0.3349  0.2535
  422SOL    HW1 1265   2.494   0.481   1.398 -1.8108  0.4829 -0.8982
  422SOL    HW2 1266   2.570   0.388   1.516  0.2416  0.9510 -1.0804
  423SOL     OW 1267   2.048   1.292   0.985  0.2253 -0.0489  0.3190
  423SOL    HW1 1268   2.031   1.367   0.915 -0.4107 -1.1730  1.5075
  423SOL    HW2 1269   2.151   1.285   1.005 -0.1449  1.1859  2.7071
  424SOL     OW 1270   1.799   1.036   0.051  0.4402 -0.3412  0.3470
  424SOL    HW1 1271   1.858   1.031   3.077 -0.7549 -0.4194  0.0489
  424SOL    HW2 1272   1.701   1.044   0.022 -0.7206 -0.8425  2.6882
  425SOL     OW 1273   0.089   2.924   2.083 -0.4042 -0.1002 -0.0992
  425SOL    HW1 1274   0.092   2.871   2.170  0.8372  0.9527  2.3601
  425SOL    HW2 1275   0.011   2.989   2.084  0.9408  2.0664  0.8883
  426SOL     OW 1276   2.597   2.730   2.677 -0.0959 -0.0786  0.0785
  426SOL    HW1 1277   2.502   2.770   2.681  1.9647  0.1780 -1.9454
  426SOL    HW2 1278   2.633   2.737   2.584 -1.9912  1.1235 -0.1402
  427SOL     OW 1279   0.747   0.778   2.225 -0.1420 -0.8045 -0.0255
  427SOL    HW1 1280   0.646   0.775   2.253  0.9273  3.3289  1.9777
  427SOL    HW2 1281   0.790   0.867   2.255  1.4424  0.9652 -1.0569
  428SOL     OW 1282   2.210   0.788   2.159 -0.4750 -0.3179 -0.0265
  428SOL    HW1 1283   2.290   0.778   2.091  0.0644  1.1378 -3.2290
  428SOL    HW2 1284   2.162   0.873   2.145  2.1356 -3.3359  1.3864
  429SOL     OW 1285   2.304   0.185   0.447  0.4934  0.2990 -0.3250
  429SOL    HW1 1286   2.404   0.176   0.432  0.8039 -0.1856  2.7290
  429SOL    HW2 1287   2.281   0.237   0.533 -2.4447  0.0082  0.1093
  430SOL     OW 1288   1.866   1.090   2.080 -0.2256  0.6696  0.2951
  430SOL    HW1 1289   1.958   1.079   2.124  0.6133  0.6091 -0.0649
  430SOL    HW2 1290   1.855   1.011   2.020  0.4705  1.4263  2.4017
  431SOL     OW 1291   2.743   2.159   1.463  0.6423  0.1648 -0.4862
  431SOL    HW1 1292   2.799   2.075   1.448  1.5171 -0.0642  1.2154
  431SOL    HW2 1293   2.683   2.180   1.383 -1.9599  0.4607 -3.0110
  432SOL     OW 1294   1.274   2.680   1.814 -0.3436 -0.3533 -0.1953
  432SOL    HW1 1295   1.178   2.701   1.842  1.4861  1.4561  0.2703
  432SOL    HW2 1296   1.262   2.636   1.724 -3.1934  1.4725  1.0401
  433SOL     OW 1297   1.463   0.059   1.321  1.0802  0.2024 -0.6216
  433SOL    HW1 1298   1.518   0.072   1.234 -0.4783  0.5700 -0.4661
  433SOL    HW2 1299   1.421   3.071   1.306  0.7148 -0.3097  1.0179
  434SOL     OW 1300   0.195   2.322   2.234  0.1221 -0.1788  0.5322
  434SOL    HW1 1301   0.184   2.354   2.139  2.0003  0.7679  0.6035
  434SOL    HW2 1302   0.283   2.354   2.275  0.6209  1.6941  1.3087
  435SOL     OW 1303   0.251   1.701   0.234  0.1382 -0.5794  0.1045
  435SOL    HW1 1304   0.268   1.801   0.228 -1.3928 -1.1004  1.7782
  435SOL    HW2 1305   0.278   1.657   0.147 -1.3670  0.7198  1.3290
  436SOL     OW 1306   0.464   1.134   1.729 -0.7382  0.0835  0.4051
  436SOL    HW1 1307   0.534   1.195   1.683  1.7916 -2.8059  0.6496
  436SOL    HW2 1308   0.512   1.068   1.793  1.3118 -1.3642 -0.5776
  437SOL     OW 1309   1.000   0.599   3.022  0.5332  0.1668 -0.3495
  437SOL    HW1 1310   1.065   0.670   3.056  0.9429 -1.6363 -1.9099
  437SOL    HW2 1311   1.026   0.563   2.934  1.2283 -1.1579  0.5353
  438SOL     OW 1312   0.553   1.966   1.545  0.3215 -0.2849 -0.2523
  438SOL    HW1 1313   0.578   1.900   1.473  0.7758  0.1335  0.4770
  438SOL    HW2 1314   0.533   1.917   1.633  0.3999 -0.7669 -0.2644
  439SOL     OW 1315   1.984   1.525   3.053  0.2100 -0.3515 -0.5748
  439SOL    HW1 1316   1.967   1.429   3.035 -0.8316  1.3753 -2.5269
  439SOL    HW2 1317   1.988   1.553   0.042  1.6424 -2.4650 -3.4288
  440SOL     OW 1318   1.373   0.797   0.499  0.4407  0.0201  0.2450
  440SOL    HW1 1319   1.376   0.837   0.406 -1.5323 -0.9420  2.9089
  440SOL    HW2 1320   1.271   0.798   0.521  0.6303 -0.0459 -0.4154
  441SOL     OW 1321   0.367   2.587   1.661  0.3430  0.2315 -0.0384
  441SOL    HW1 1322   0.444   2.628   1.707 -1.8826 -0.0510  0.5495
  441SOL    HW2 1323   0.293   2.655   1.661 -0.0372 -1.0249 -0.1574
  442SOL     OW 1324   2.290   2.512   0.952 -0.3977 -0.0668  0.1694
  442SOL    HW1 1325   2.266   2.424   0.909 -1.0578  1.2469  0.6255
  442SOL    HW2 1326   2.251   2.589   0.900 -2.6517 -1.4189  2.9886
  443SOL     OW 1327   2.620   1.200   2.510 -0.2611 -0.0693  0.1959
  443SOL    HW1 1328   2.517   1.186   2.502  0.4616 -1.9536  3.0257
  443SOL    HW2 1329   2.651   1.138   2.587  0.6119 -1.5336  0.6023
  444SOL     OW 1330   1.366   0.720   2.383 -0.3656  0.7984  0.5035
  444SOL    HW1 1331   1.447   0.758   2.331  0.2406 -0.0489 -0.6241
  444SOL    HW2 1332   1.281   0.744   2.333  1.3053 -1.7987  2.7437
  445SOL     OW 1333   2.567   2.443   1.785 -0.0803 -0.4337  0.4485
  445SOL    HW1 1334   2.552   2.352   1.732  0.3514 -0.8469  0.4967
  445SOL    HW2 1335   2.665   2.454   1.801 -0.4482  0.5498  0.0222
  446SOL     OW 1336   0.004   1.604   0.299  0.1574 -0.2079  0.1132
  446SOL    HW1 1337   3.073   1.684   0.244  1.0193  1.7120 -2.2473
  446SOL    HW2 1338   0.105   1.601   0.278  0.6406 -0.0431  1.4110
  447SOL     OW 1339   0.939   2.421   1.000 -0.2203 -0.1053  0.1162
  447SOL    HW1 1340   0.864   2.486   1.017 -0.1353  2.4095  0.6930
  447SOL    HW2 1341   0.991   2.455   0.919  0.6159  1.8972  0.4701
  448SOL     OW 1342   1.638   1.616   1.690  0.0286  0.3751 -0.2967
  448SOL    HW1 1343   1.696   1.625   1.770 -1.9158 -1.9045 -1.4440
  448SOL    HW2 1344   1.645   1.518   1.653  0.1697 -2.0597  0.3828
  449SOL     OW 1345   0.737   1.981   2.764  0.3556 -0.1801  0.5639
  449SOL    HW1 1346   0.707   1.928   2.848  0.2114 -1.1649  0.3909
  449SOL    HW2 1347   0.837   1.989   2.756 -1.3754  0.2242  3.3244
  450SOL     OW 1348   3.037   1.736   2.461 -0.0413  0.0750 -0.3506
  450SOL    HW1 1349   2.980   1.651   2.458 -0.4852 -1.1374 -1.4104
  450SOL    HW2 1350   2.974   1.818   2.480  0.9998  3.1814  1.0494
  451SOL     OW 1351   2.051   0.707   1.506 -0.6636  0.4007  0.4441
  451SOL    HW1 1352   2.096   0.618   1.533  0.4527 -3.4058  0.4879
  451SOL    HW2 1353   1.985   0.739   1.579 -3.1199 -0.0485 -0.6165
  452SOL     OW 1354   1.071   2.546   1.361 -0.3971  0.0726  0.7452
  452SOL    HW1 1355   1.116   2.478   1.300 -0.8941  3.1383  2.6168
  452SOL    HW2 1356   0.976   2.556   1.330  1.8164  0.0056  1.9822
  453SOL     OW 1357   1.274   1.900   0.733 -0.1796 -0.0516  0.1941
  453SOL    HW1 1358   1.330   1.908   0.816 -0.7026  0.7388  0.8558
  453SOL    HW2 1359   1.200   1.968   0.741  0.2160 -2.0116 -2.2735
  454SOL     OW 1360   2.832   1.285   0.830  0.2092  0.0764 -0.0062
  454SOL    HW1 1361   2.840   1.199   0.890 -0.0923 -3.8651  3.7609
  454SOL    HW2 1362   2.861   1.255   0.739 -0.0441  0.1975 -1.0584
  455SOL     OW 1363   0.645   1.081   0.543  0.4169 -0.1237 -0.0436
  455SOL    HW1 1364   0.613   1.121   0.455 -0.8271 -0.6045  0.2855
  455SOL    HW2 1365   0.560   1.059   0.602 -0.5554  0.4938 -1.5325
  456SOL     OW 1366   1.934   2.348   1.020 -0.1147 -0.3564 -0.3100
  456SOL    HW1 1367   2.017   2.302   0.993 -4.2842 -0.3333 -1.1509
  456SOL    HW2 1368   1.918   2.434   0.967 -1.9150  2.0863  1.6803
  457SOL     OW 1369   1.426   2.510   0.069  0.3773 -0.2655  0.3555
  457SOL    HW1 1370   1.355   2.543   0.002  0.8663 -0.4533  0.7852
  457SOL    HW2 1371   1.483   2.441   0.026 -2.6188  1.4498  2.4728
  458SOL     OW 1372   2.806   0.091   3.022 -0.2099  0.2752 -0.1511
  458SOL    HW1 1373   2.862   0.006   3.030 -1.0099  0.9703  0.4651
  458SOL    HW2 1374   2.741   0.096   3.099 -1.7518 -0.7830 -0.8265
  459SOL     OW 1375   2.156   3.085   1.826 -0.3237  0.2870  0.2566
  459SOL    HW1 1376   2.195   3.077   1.729  2.9589  0.6349 -2.8157
  459SOL    HW2 1377   2.069   3.039   1.834  2.7241  0.8495 -0.2111
  460SOL     OW 1378   2.953   0.317   3.037 -0.1966  0.0970  0.4999
  460SOL    HW1 1379   3.024   0.304   2.961  4.3874  0.1999 -1.3214
  460SOL    HW2 1380   2.880   0.245   3.029 -1.8173 -0.6215  0.1917
  461SOL     OW 1381   0.176   2.145   1.085  0.4188 -0.0147 -0.8017
  461SOL    HW1 1382   0.106   2.077   1.066  0.2957  3.3181  0.8570
  461SOL    HW2 1383   0.142   2.242   1.067 -1.1038  2.8416 -0.4172
  462SOL     OW 1384   2.882   3.076   0.859 -0.0403 -0.3501 -0.2977
  462SOL    HW1 1385   2.958   3.089   0.792  0.6715  0.3677  0.4175
  462SOL    HW2 1386   2.787   3.089   0.818  0.2284 -0.3731  0.8755
  463SOL     OW 1387   2.489   1.404   0.072  0.3677  0.6291 -0.2959
  463SOL    HW1 1388   2.393   1.371   0.070  0.1529 -1.8263  1.8940
  463SOL    HW2 1389   2.515   1.435   3.083  0.7381 -0.1204 -0.5676
  464SOL     OW 1390   0.701   0.066   1.166 -0.4149 -0.5844 -0.3919
  464SOL    HW1 1391   0.655   3.091   1.207 -3.4791 -1.6980  1.4049
  464SOL    HW2 1392   0.797   0.050   1.138 -3.0006  1.4899 -1.1483
  465SOL     OW 1393   1.003   0.667   1.262  0.3720 -0.3202 -0.4698
  465SOL    HW1 1394   0.966   0.759   1.235 -0.4207  2.4975 -0.5642
  465SOL    HW2 1395   0.944   0.597   1.223  2.1299  0.0603 -1.9326
  466SOL     OW 1396   1.466   2.445   2.015  0.0579  0.3655  0.4527
  466SOL    HW1 1397   1.396   2.517   1.997  0.5704 -0.0301 -0.1633
  466SOL    HW2 1398   1.505   2.457   2.113 -0.5574 -2.1184 -0.6635
  467SOL     OW 1399   0.673   2.877   1.900 -0.0674  0.0336 -0.1444
  467SOL    HW1 1400   0.639   2.907   1.992  0.2788 -1.7582  0.3856
  467SOL    HW2 1401   0.754   2.929   1.879 -2.2783 -1.4336  0.1016
  468SOL     OW 1402   0.092   1.463   2.183 -0.4266 -0.2208  0.0148
  468SOL    HW1 1403   0.002   1.423   2.176  2.5227  0.3344 -1.3972
  468SOL    HW2 1404   0.094   1.552   2.133  0.2785  0.8800 -2.2295
  469SOL     OW 1405   1.222   2.253   0.530 -0.3576 -0.2050  0.2639
  469SOL    HW1 1406   1.137   2.309   0.508 -0.9813  0.2077 -0.3453
  469SOL    HW2 1407   1.256   2.258   0.628 -1.7229  0.4390  4.8656
  470SOL     OW 1408   2.114   1.053   2.179 -0.1217  0.1704 -0.2252
  470SOL    HW1 1409   2.185   1.126   2.168  1.4684  2.4696 -0.8850
  470SOL    HW2 1410   2.104   1.011   2.270  2.4735 -0.1045  2.3057
  471SOL     OW 1411   0.770   2.393   0.244 -0.1149  0.3953  0.3714
  471SOL    HW1 1412   0.689   2.332   0.256 -3.0708  0.8082  0.4841
  471SOL    HW2 1413   0.768   2.428   0.149  1.8780 -1.2996  1.4745
  472SOL     OW 1414   0.009   2.577   2.190 -0.9883 -0.3282 -0.0112
  472SOL    HW1 1415   0.056   2.493   2.227 -2.0842  2.1377 -0.1026
  472SOL    HW2 1416   0.039   2.651   2.251  2.3617  1.2313 -0.2876
  473SOL     OW 1417   0.777   2.948   3.062  0.0176  0.0806 -0.2150
  473SOL    HW1 1418   0.708   2.914   2.993 -0.6156 -0.4048 -1.9080
  473SOL    HW2 1419   0.733   2.987   0.041 -0.4235  0.2465  0.4241
  474SOL     OW 1420   1.602   0.336   0.661  0.2334  0.4428  0.6140
  474SOL    HW1 1421   1.571   0.387   0.578 -2.6586  1.1572 -2.6193
  474SOL    HW2 1422   1.644   0.408   0.717 -0.5046  0.6488 -0.9178
  475SOL     OW 1423   1.403   0.356   1.421 -0.0964 -0.1581 -0.0329
  475SOL    HW1 1424   1.339   0.395   1.352  3.0632  0.9930 -0.1421
  475SOL    HW2 1425   1.466   0.290   1.377  2.8766 -2.6143 -0.0655
  476SOL     OW 1426   0.124   1.081   1.135  0.4440 -0.3340  0.1761
  476SOL    HW1 1427   0.167   1.032   1.214 -2.4738  2.1263 -1.3808
  476SOL    HW2 1428   0.169   1.073   1.044 -1.6149 -0.7782 -2.0006
  477SOL     OW 1429   0.919   1.963   0.576  0.4995 -0.0321  0.6331
  477SOL    HW1 1430   0.964   1.888   0.527 -2.5030  0.9830  1.6508
  477SOL    HW2 1431   0.978   2.011   0.644 -0.6403  0.3415  1.1696
  478SOL     OW 1432   0.236   2.525   2.532 -0.3397  0.6578 -0.0624
  478SOL    HW1 1433   0.314   2.470   2.490  1.7829 -0.0335 -0.8824
  478SOL    HW2 1434   0.261   2.624   2.537  0.0638 -1.1136  1.5380
  479SOL     OW 1435   2.960   0.406   1.668 -0.4616  0.2501  0.0990
  479SOL    HW1 1436   2.966   0.489   1.733 -2.3429  2.9288 -0.5452
  479SOL    HW2 1437   2.974   0.445   1.572  1.3368  0.6612  0.0355
  480SOL     OW 1438   2.791   2.504   0.089 -0.5174  0.6103  0.3702
  480SOL    HW1 1439   2.882   2.506   0.046 -0.2841  1.0695  0.7298
  480SOL    HW2 1440   2.758   2.597   0.117 -0.7785 -0.0993  0.4807
  481SOL     OW 1441   2.510   2.021   1.773  0.6668 -0.3544  0.0795
  481SOL    HW1 1442   2.516   2.086   1.693  0.9890 -0.6614  1.1277
  481SOL    HW2 1443   2.493   2.079   1.856 -0.5560  0.7305  0.9303
  482SOL     OW 1444   1.695   1.608   2.475 -0.2420 -0.0865  0.3894
  482SOL    HW1 1445   1.771   1.541   2.446  1.6900  0.1194  0.6516
  482SOL    HW2 1446   1.653   1.658   2.392 -1.2235 -0.3512 -3.9787
  483SOL     OW 1447   1.026   1.613   1.894 -0.0141 -0.4720  0.7202
  483SOL    HW1 1448   1.125   1.610   1.867  0.8312  0.9080  1.7852
  483SOL    HW2 1449   0.979   1.557   1.820 -0.5120  2.4550 -1.9080
  484SOL     OW 1450   0.369   0.627   1.371  0.0986 -0.3477  0.0004
  484SOL    HW1 1451   0.289   0.635   1.310 -1.3685  3.4250 -0.1573
  484SOL    HW2 1452   0.378   0.536   1.414  0.8836 -0.2998 -0.7544
  485SOL     OW 1453   2.242   1.331   3.082  0.0362 -0.0398 -0.2130
  485SOL    HW1 1454   2.246   1.360   2.984 -2.0324  0.4761 -0.0295
  485SOL    HW2 1455   2.289   1.238   3.092  1.8652  0.2134 -2.9445
  486SOL     OW 1456   1.203   0.037   1.464  0.2299 -0.1424 -0.3864
  486SOL    HW1 1457   1.290   0.052   1.415  2.3474  0.8572 -1.6836
  486SOL    HW2 1458   1.138   0.112   1.455  2.1239 -3.0485 -1.3539
  487SOL     OW 1459   0.732   2.183   1.627  0.0936  0.1894  0.0212
  487SOL    HW1 1460   0.717   2.278   1.624  0.9802 -4.7622  0.4742
  487SOL    HW2 1461   0.687   2.130   1.552  0.4429  0.9052  1.4642
  488SOL     OW 1462   2.615   1.735   2.858  0.3617 -0.2952  0.0520
  488SOL    HW1 1463   2.673   1.808   2.892 -2.3262 -2.0476  2.1484
  488SOL    HW2 1464   2.606   1.662   2.922 -1.8574  1.3558  0.8564
  489SOL     OW 1465   2.080   2.892   0.610  0.2710 -0.0522 -0.2834
  489SOL    HW1 1466   1.976   2.900   0.605  0.0137  0.6717  0.6798
  489SOL    HW2 1467   2.121   2.879   0.517 -0.3629 -2.1155 -0.8096
  490SOL     OW 1468   1.067   2.437   3.107 -0.1452  0.0378 -0.0111
  490SOL    HW1 1469   0.972   2.476   0.004 -0.1489  2.5081 -1.1760
  490SOL    HW2 1470   1.098   2.400   0.089  2.1649  0.5781  0.1615
  491SOL     OW 1471   0.685   1.288   1.627 -0.0575  0.1401 -0.3204
  491SOL    HW1 1472   0.672   1.341   1.540  1.6146 -0.8425  2.3187
  491SOL    HW2 1473   0.775   1.311   1.670  1.7590 -1.6317  1.0308
  492SOL     OW 1474   0.966   0.649   1.948 -0.6632  0.3752  0.0085
  492SOL    HW1 1475   0.923   0.722   1.894  0.3824 -1.7595 -1.6748
  492SOL    HW2 1476   1.063   0.661   1.953 -2.0294  2.1860 -0.3394
  493SOL     OW 1477   2.287   1.867   0.814  0.1992  0.6013  0.2735
  493SOL    HW1 1478   2.258   1.856   0.718 -1.4195 -1.5691 -2.4147
  493SOL    HW2 1479   2.232   1.804   0.876  2.0548 -2.0540 -1.0250
  494SOL     OW 1480   0.948   1.511   0.992  0.5523  0.3164 -0.3198
  494SOL    HW1 1481   0.990   1.582   0.932  0.4444  1.6257  2.2363
  494SOL    HW2 1482   0.864   1.468   0.954 -2.1974 -0.5491  0.9812
  495SOL     OW 1483   2.333   2.514   0.565 -0.2569  0.3009  0.6454
  495SOL    HW1 1484   2.390   2.542   0.490 -3.4249 -1.7828  1.3034
  495SOL    HW2 1485   2.330   2.411   0.564  1.3925  4.3122 -0.1869
  496SOL     OW 1486   2.679   2.787   1.369  0.3092 -0.2453 -0.1799
  496SOL    HW1 1487   2.762   2.842   1.341  2.0718  3.6861 -1.0554
  496SOL    HW2 1488   2.601   2.846   1.347  0.9633 -1.3212 -0.0599
  497SOL     OW 1489   2.361   1.150   2.479  0.0784  0.1786 -0.3014
  497SOL    HW1 1490   2.295   1.231   2.492 -1.8337  2.8057  0.6926
  497SOL    HW2 1491   2.366   1.096   2.566 -3.0606  0.5682 -0.0871
  498SOL     OW 1492   0.073   2.132   1.420  0.1529  0.0895 -0.1092
  498SOL    HW1 1493   0.009   2.116   1.346  0.3072 -1.3447  1.9011
  498SOL    HW2 1494   0.055   2.223   1.457 -1.2235 -3.9211  0.1266
  499SOL     OW 1495   0.917   2.439   1.871  0.0265 -0.0444 -0.0521
  499SOL    HW1 1496   0.846   2.436   1.947 -0.9791  1.0579  0.4806
  499SOL    HW2 1497   0.962   2.346   1.866 -0.7522  3.1575  0.9039
  500SOL     OW 1498   0.543   2.242   0.232 -0.0761  0.0684  0.4397
  500SOL    HW1 1499   0.535   2.168   0.302  1.5897  1.0638 -0.3625
  500SOL    HW2 1500   0.473   2.314   0.249  0.2366 -0.7390 -1.2026
  501SOL     OW 1501   1.962   0.044   1.156  0.1501  0.2849  0.0089
  501SOL    HW1 1502   1.900   0.017   1.078 -0.4165  1.5370 -0.8724
  501SOL    HW2 1503   1.908   0.039   1.244 -0.0245 -0.4659  2.4191
  502SOL     OW 1504   2.701   0.492   1.685  0.4283 -0.3624  0.2523
  502SOL    HW1 1505   2.689   0.592   1.687  1.8788 -1.9262 -1.2341
  502SOL    HW2 1506   2.799   0.466   1.672  2.6063 -0.1042 -0.3737
  503SOL     OW 1507   2.569   1.284   1.999  0.4321 -0.2288 -0.0316
  503SOL    HW1 1508   2.530   1.381   1.981 -0.1785  2.0200  1.5844
  503SOL    HW2 1509   2.607   1.250   1.909  0.4919 -1.2686 -1.6427
  504SOL     OW 1510   1.456   0.855   1.748  0.0847  0.0214 -0.0852
  504SOL    HW1 1511   1.370   0.804   1.752  2.4002 -1.0038 -0.6795
  504SOL    HW2 1512   1.497   0.831   1.663 -1.6197 -1.8161  0.4412
  505SOL     OW 1513   0.546   0.003   1.683  0.3965 -0.1097  0.4532
  505SOL    HW1 1514   0.556   3.030   1.749 -0.5070  0.1283  1.4662
  505SOL    HW2 1515   0.489   3.080   1.602  0.5705  1.3859  0.0139
  506SOL     OW 1516   0.229   0.303   0.240  0.0651  0.4256 -0.1963
  506SOL    HW1 1517   0.281   0.343   0.165 -0.4447 -3.5135  0.9952
  506SOL    HW2 1518   0.266   0.346   0.327 -0.0316  0.9609  2.4886
  507SOL     OW 1519   2.392   0.178   0.064 -0.0462 -0.7667 -0.5712
  507SOL    HW1 1520   2.448   0.101   0.096 -1.7451 -2.6192 -0.6010
  507SOL    HW2 1521   2.380   0.250   0.132 -0.6293 -1.1799 -3.3276
  508SOL     OW 1522   1.290   0.245   1.842  0.6558 -0.9389  0.0904
  508SOL    HW1 1523   1.213   0.310   1.856  0.7826 -0.8004  0.5710
  508SOL    HW2 1524   1.358   0.291   1.785 -1.8785  0.4336  1.8924
  509SOL     OW 1525   1.685   1.771   1.275  0.2340 -0.2618 -0.3915
  509SOL    HW1 1526   1.601   1.750   1.225 -1.9982  1.2285 -2.5292
  509SOL    HW2 1527   1.719   1.697   1.339  0.3344 -1.1622  0.0219
  510SOL     OW 1528   2.568   1.169   1.416 -0.9617 -0.0762 -0.1105
  510SOL    HW1 1529   2.617   1.132   1.499  0.1762  2.4678  2.5205
  510SOL    HW2 1530   2.479   1.119   1.400  1.2185 -0.8417 -1.0741
  511SOL     OW 1531   1.646   1.993   1.449 -0.5194 -0.3182 -0.6790
  511SOL    HW1 1532   1.656   1.933   1.369  0.8791  1.5131  0.5698
  511SOL    HW2 1533   1.681   2.094   1.438  1.3756  4.9021 -1.8504
  512SOL     OW 1534   0.051   1.540   0.687 -0.4571  0.7070  0.1873
  512SOL    HW1 1535   0.125   1.560   0.617 -2.0998 -0.3571 -1.2516
  512SOL    HW2 1536   3.062   1.564   0.654 -1.4143 -0.7870 -0.7028
  513SOL     OW 1537   0.170   1.823   3.047 -0.5889 -0.2246 -0.1540
  513SOL    HW1 1538   0.107   1.898   3.005 -1.6423  3.3711 -1.0751
  513SOL    HW2 1539   0.196   1.753   2.980  0.2547 -1.1703  1.4927
  514SOL     OW 1540   2.780   1.938   2.375 -0.0264 -0.1004  0.2556
  514SOL    HW1 1541   2.783   1.953   2.473  0.1007 -0.3384 -0.7518
  514SOL    HW2 1542   2.796   1.841   2.348 -2.9328 -0.9061  0.7872
  515SOL     OW 1543   2.119   1.045   0.732  0.7172  0.0919 -0.3026
  515SOL    HW1 1544   2.086   1.129   0.685 -0.4777  0.8469 -0.8226
  515SOL    HW2 1545   2.037   0.986   0.747 -1.7175  0.0009  0.4957
  516SOL     OW 1546   2.090   2.752   0.114  0.1866 -0.1012 -0.7212
  516SOL    HW1 1547   2.025   2.686   0.070  1.1398 -1.2199 -1.0759
  516SOL    HW2 1548   2.170   2.762   0.059 -2.8830 -0.4295  2.1869
  517SOL     OW 1549   1.029   2.037   2.494 -0.0045 -0.6061  0.2219
  517SOL    HW1 1550   1.115   2.065   2.448 -2.2910 -0.6648  1.9693
  517SOL    HW2 1551   0.969   1.987   2.436  0.7179 -1.6636 -0.3414
  518SOL     OW 1552   0.216   0.055   2.347 -0.6794  0.0289 -0.3665
  518SOL    HW1 1553   0.260   0.014   2.265 -0.4152 -0.7567  0.5651
  518SOL    HW2 1554   0.175   0.144   2.324  4.5601  1.4503 -0.1293
  519SOL     OW 1555   0.511   1.465   3.088 -0.1883  0.0184  0.3975
  519SOL    HW1 1556   0.441   1.419   0.043  0.9578 -1.1445  0.7112
  519SOL    HW2 1557   0.575   1.395   3.055 -0.8935  0.0554 -2.7449
  520SOL     OW 1558   2.845   1.948   2.100 -0.2373 -0.2550  0.5302
  520SOL    HW1 1559   2.823   1.938   2.198 -1.6178 -0.3460 -1.0457
  520SOL    HW2 1560   2.923   2.013   2.089 -1.9402  1.1373  0.0427
  521SOL     OW 1561   0.748   2.411   2.539 -0.2297 -0.0120  0.2231
  521SOL    HW1 1562   0.765   2.346   2.461 -2.1414 -0.4690 -0.8211
  521SOL    HW2 1563   0.693   2.487   2.503 -0.2014 -1.4010  0.9794
  522SOL     OW 1564   1.675   2.711   2.011 -0.5198  0.1549  0.0182
  522SOL    HW1 1565   1.573   2.706   2.030 -2.2379  1.9734 -0.3829
  522SOL    HW2 1566   1.696   2.806   1.972 -1.7631  1.7943 -2.3604
  523SOL     OW 1567   2.126   1.912   1.942 -0.4211  0.0222 -0.0029
  523SOL    HW1 1568   2.222   1.870   1.939  1.0834  1.0699  0.2243
  523SOL    HW2 1569   2.134   2.013   1.944  0.6396 -1.5118 -0.4523
  524SOL     OW 1570   0.600   2.852   0.459 -0.0558  0.2048  0.4984
  524SOL    HW1 1571   0.696   2.881   0.458 -1.4700  0.4764 -0.7956
  524SOL    HW2 1572   0.557   2.833   0.367 -1.3193  0.6098 -3.3722
  525SOL     OW 1573   0.182   0.732   0.496  0.1735 -0.7915 -0.1375
  525SOL    HW1 1574   0.281   0.731   0.468  2.7709  1.4931  0.4750
  525SOL    HW2 1575   0.157   0.659   0.557  1.3975  2.6304 -3.8549
  526SOL     OW 1576   0.652   3.098   0.863 -0.1260  0.4933  0.0812
  526SOL    HW1 1577   0.643   3.004   0.906 -1.5788  2.9928  0.4710
  526SOL    HW2 1578   0.600   0.055   0.923 -2.3321 -1.7079  4.6635
  527SOL     OW 1579   2.141   1.709   0.987  0.4618  0.0647  0.4505
  527SOL    HW1 1580   2.041   1.715   0.962 -2.6173  2.8551 -2.3169
  527SOL    HW2 1581   2.152   1.687   1.087 -0.9397 -2.0060  1.1607
  528SOL     OW 1582   2.961   2.649   2.537 -0.2273  0.1853  0.1072
  528SOL    HW1 1583   2.890   2.588   2.499  0.7631  1.2014  0.9988
  528SOL    HW2 1584   2.941   2.742   2.517  1.8585 -1.1765 -1.6863
  529SOL     OW 1585   1.501   1.713   2.235 -0.1332 -0.2535  0.3312
  529SOL    HW1 1586   1.460   1.620   2.232  1.0899  0.9432 -0.8489
  529SOL    HW2 1587   1.600   1.707   2.201  2.0804  1.9359 -2.4921
  530SOL     OW 1588   1.663   1.297   2.779  0.0246  0.5289 -0.3444
  530SOL    HW1 1589   1.623   1.370   2.722  2.6688 -1.5042  1.7556
  530SOL    HW2 1590   1.597   1.216   2.787  0.7195 -0.7562 -1.0803
  531SOL     OW 1591   0.619   1.060   0.015 -0.5201 -0.0561  0.5530
  531SOL    HW1 1592   0.543   1.041   3.061  3.1748  1.6900 -1.9118
  531SOL    HW2 1593   0.655   0.971   0.054  0.1187 -0.5596  0.7442
  532SOL     OW 1594   1.716   1.397   0.425 -0.3931  0.0859  0.3455
  532SOL    HW1 1595   1.757   1.327   0.483  2.1236  3.0637 -1.3225
  532SOL    HW2 1596   1.744   1.490   0.461 -0.2672 -0.0139 -1.9745
  533SOL     OW 1597   0.676   0.388   2.562 -0.1634  0.5007 -0.3456
  533SOL    HW1 1598   0.652   0.411   2.467  0.0422  2.1172  0.7754
  533SOL    HW2 1599   0.754   0.322   2.569 -1.9912  3.1245 -0.0633
  534SOL     OW 1600   0.827   2.534   3.100  0.8312  0.0331 -0.1604
  534SOL    HW1 1601   0.739   2.500   3.063  0.0887 -0.7419  0.4235
  534SOL    HW2 1602   0.828   2.631   0.021  0.4008 -1.9548 -1.4479
  535SOL     OW 1603   0.076   0.062   0.275  0.1038 -0.4632 -0.5212
  535SOL    HW1 1604   0.130   3.085   0.286  1.1299  0.9220 -0.2067
  535SOL    HW2 1605   0.137   0.147   0.273  1.2122  2.5023  0.0819
  536SOL     OW 1606   0.003   0.897   2.316  0.1457 -0.0820 -0.3228
  536SOL    HW1 1607   3.065   0.892   2.224  0.9045 -0.4162 -3.7458
  536SOL    HW2 1608   0.106   0.887   2.302  3.0292  1.4275 -0.1039
  537SOL     OW 1609   1.060   0.281   1.444 -0.5431  0.3215 -0.7837
  537SOL    HW1 1610   0.958   0.295   1.440 -1.5586  0.0055  0.9558
  537SOL    HW2 1611   1.112   0.348   1.385  2.7161 -0.7137 -0.6421
  538SOL     OW 1612   0.270   1.640   0.505  0.0380 -0.3020  0.0222
  538SOL    HW1 1613   0.263   1.634   0.402 -3.3857  1.2797 -0.2862
  538SOL    HW2 1614   0.359   1.604   0.537  0.8479 -0.5555 -3.3812
  539SOL     OW 1615   2.635   1.027   2.123  0.3597 -0.8276  0.0999
  539SOL    HW1 1616   2.558   0.979   2.171 -2.0459 -1.7877 -0.3449
  539SOL    HW2 1617   2.605   1.116   2.084  1.5488  1.8695 -2.1205
  540SOL     OW 1618   1.899   1.352   2.051 -0.2969  0.3073  0.3160
  540SOL    HW1 1619   1.880   1.251   2.049 -1.8837 -1.4302  0.0244
  540SOL    HW2 1620   1.999   1.369   2.036  0.6953  0.3380 -0.3389
  541SOL     OW 1621   0.948   1.397   1.714 -0.0979  0.4892 -0.3837
  541SOL    HW1 1622   0.983   1.333   1.784 -1.1702 -0.6648  0.1593
  541SOL    HW2 1623   0.975   1.360   1.621 -0.2210  0.1271  0.8787
  542SOL     OW 1624   1.828   0.277   2.123  0.1634  0.3305  0.2874
  542SOL    HW1 1625   1.920   0.309   2.158  1.0359  2.7106  0.1183
  542SOL    HW2 1626   1.839   0.183   2.082  2.9816 -2.3178 -0.4428
  543SOL     OW 1627   0.991   0.358   0.467 -0.1347 -0.5632 -0.3442
  543SOL    HW1 1628   0.928   0.405   0.404 -2.0144  2.6210 -0.6909
  543SOL    HW2 1629   1.088   0.362   0.436 -0.0585  0.8583 -1.9473
  544SOL     OW 1630   2.526   1.854   2.188 -0.0782 -0.0719  0.8640
  544SOL    HW1 1631   2.534   1.756   2.225 -3.1120 -2.9230 -3.7790
  544SOL    HW2 1632   2.604   1.915   2.210  2.7885  2.0068 -2.7548
  545SOL     OW 1633   2.126   2.188   1.959  0.3022 -0.8820 -0.2599
  545SOL    HW1 1634   2.186   2.270   1.950  0.1785  2.5449 -0.2840
  545SOL    HW2 1635   2.030   2.216   1.945 -1.2511  1.0000 -0.6420
  546SOL     OW 1636   0.480   0.037   2.990 -0.6255 -0.1732  0.1403
  546SOL    HW1 1637   0.474   0.072   3.085 -1.4966 -2.0175  0.4429
  546SOL    HW2 1638   0.478   3.043   2.995 -2.3027 -2.6924 -1.1007
  547SOL     OW 1639   1.963   0.683   0.193 -0.1115 -0.0038  0.3010
  547SOL    HW1 1640   1.903   0.644   0.262  0.1405  1.1932  0.5465
  547SOL    HW2 1641   2.000   0.776   0.218 -0.8470  1.3591  0.4241
  548SOL     OW 1642   2.255   1.588   2.307  0.4880 -0.5951  0.2266
  548SOL    HW1 1643   2.232   1.516   2.369 -1.3971 -1.1482 -0.2967
  548SOL    HW2 1644   2.354   1.607   2.311 -0.3062  0.6286  2.8915
  549SOL     OW 1645   2.041   0.388   0.431 -0.5610 -0.2332  0.0997
  549SOL    HW1 1646   2.087   0.414   0.340  0.7485  0.8918 -1.0305
  549SOL    HW2 1647   2.111   0.383   0.501  0.0879  1.1044 -2.2895
  550SOL     OW 1648   2.528   2.257   0.865  0.2352 -0.4715 -0.6735
  550SOL    HW1 1649   2.458   2.191   0.897 -0.4784 -2.0403 -2.0746
  550SOL    HW2 1650   2.551   2.327   0.927 -2.1158 -2.5525 -4.0595
  551SOL     OW 1651   0.930   2.942   1.532 -0.1547  0.4159  0.3365
  551SOL    HW1 1652   1.015   2.936   1.473  2.5459  0.2775  2.4663
  551SOL    HW2 1653   0.897   3.036   1.540  0.5352 -1.4348  0.0506
  552SOL     OW 1654   2.943   2.193   2.501 -0.3667  0.0205 -0.1682
  552SOL    HW1 1655   2.915   2.129   2.577 -2.0871  0.2191 -0.7009
  552SOL    HW2 1656   3.026   2.156   2.454  0.5063 -0.1597 -1.0246
  553SOL     OW 1657   0.257   3.093   0.595  0.0539 -0.2166 -0.0035
  553SOL    HW1 1658   0.356   3.092   0.584 -2.5653  0.0041  0.5104
  553SOL    HW2 1659   0.232   3.005   0.637  1.6756  0.5433  1.1934
  554SOL     OW 1660   2.169   2.480   1.664 -0.6412  0.2671 -0.5242
  554SOL    HW1 1661   2.125   2.390   1.661  0.4001  0.5960  0.6001
  554SOL    HW2 1662   2.220   2.505   1.582  2.4744 -0.9052  1.1314
  555SOL     OW 1663   1.083   2.193   1.892 -0.0532 -0.3135  0.0551
  555SOL    HW1 1664   1.115   2.208   1.799  2.5578  0.7600  0.2726
  555SOL    HW2 1665   1.094   2.100   1.932 -2.6252  2.8772 -1.9191
  556SOL     OW 1666   1.365   1.601   1.405  0.3126 -0.5182  0.3427
  556SOL    HW1 1667   1.396   1.655   1.323 -1.6785 -1.3160 -0.2111
  556SOL    HW2 1668   1.343   1.655   1.485 -0.9424 -1.6124 -1.3698
  557SOL     OW 1669   2.152   2.334   2.288  0.3090  0.6060 -0.5217
  557SOL    HW1 1670   2.229   2.381   2.333  0.7686  0.6199 -2.1907
  557SOL    HW2 1671   2.147   2.233   2.311 -0.8068 -0.3503 -0.0165
  558SOL     OW 1672   0.600   3.024   2.115 -0.5109  0.4264  0.0473
  558SOL    HW1 1673   0.498   3.014   2.109  0.3991  3.9990  1.4232
  558SOL    HW2 1674   0.620   0.015   2.150 -1.0386  1.7691 -0.3713
  559SOL     OW 1675   2.331   2.954   1.039 -0.0034 -0.1291  0.3432
  559SOL    HW1 1676   2.392   2.878   1.010 -1.4033  4.1210 -0.4478
  559SOL    HW2 1677   2.297   3.011   0.959 -2.4343  3.2671  0.8445
  560SOL     OW 1678   1.010   2.412   0.479 -0.4792  0.5083 -0.2586
  560SOL    HW1 1679   1.031   2.507   0.505  0.6733 -0.4025 -2.2651
  560SOL    HW2 1680   0.930   2.380   0.533  0.7448  0.5004  0.4753
  561SOL     OW 1681   0.956   0.444   0.141 -0.2000  0.1099  0.1270
  561SOL    HW1 1682   0.961   0.498   0.057 -1.6720 -1.3790  1.1203
  561SOL    HW2 1683   0.897   0.496   0.209 -3.7996  0.1623  2.2853
  562SOL     OW 1684   0.738   0.286   2.968 -0.1997  0.0057 -0.2782
  562SOL    HW1 1685   0.737   0.189   2.987 -1.3027  1.0611 -0.4710
  562SOL    HW2 1686   0.824   0.327   2.924 -1.6081 -1.7675 -1.0464
  563SOL     OW 1687   1.545   1.698   2.897  0.6306  0.0724 -0.3340
  563SOL    HW1 1688   1.514   1.774   2.836 -0.7322  1.9187 -0.0216
  563SOL    HW2 1689   1.479   1.621   2.882 -2.1425 -0.9033 -1.1996
  564SOL     OW 1690   2.404   1.292   0.732 -0.6922 -1.0021 -0.3212
  564SOL    HW1 1691   2.398   1.194   0.749  1.4724  1.0136 -0.6072
  564SOL    HW2 1692   2.438   1.309   0.636  4.4580 -1.0144 -1.4564
  565SOL     OW 1693   1.012   0.293   2.817 -0.0724  0.5700  0.2563
  565SOL    HW1 1694   1.060   0.209   2.847  0.0561  0.0477 -1.0937
  565SOL    HW2 1695   1.067   0.369   2.779 -0.1704  1.9893 -1.9330
  566SOL     OW 1696   1.288   0.135   2.185  0.5619  0.2697  0.0355
  566SOL    HW1 1697   1.299   0.228   2.147 -2.3213  1.6446  1.0612
  566SOL    HW2 1698   1.346   0.072   2.136 -2.7649 -0.2751 -0.0867
  567SOL     OW 1699   2.050   1.312   0.571  0.5156 -0.5040  0.0773
  567SOL    HW1 1700   2.055   1.359   0.476 -1.5613  1.0953  0.7192
  567SOL    HW2 1701   2.069   1.369   0.651  1.2366 -4.4564 -0.8945
  568SOL     OW 1702   1.918   1.864   0.652 -0.2367 -0.0897  0.2732
  568SOL    HW1 1703   2.004   1.898   0.612  1.9090  1.4152 -0.7905
  568SOL    HW2 1704   1.858   1.947   0.668  0.5539  0.3308 -0.0931
  569SOL     OW 1705   1.989   1.252   3.077  0.1926 -0.4672 -0.2460
  569SOL    HW1 1706   1.978   1.163   3.023  2.8630  0.6491 -1.2573
  569SOL    HW2 1707   2.085   1.291   3.078  0.8834  2.8885 -0.9208
  570SOL     OW 1708   0.103   2.746   1.680  0.1495  0.0103 -0.0799
  570SOL    HW1 1709   0.071   2.700   1.762  1.1994  1.3395 -1.5514
  570SOL    HW2 1710   0.070   2.840   1.673  1.6865  1.8697 -2.3609
  571SOL     OW 1711   0.117   0.305   2.298 -0.1076  0.1494 -0.0997
  571SOL    HW1 1712   0.197   0.367   2.310  2.7125  0.1692 -1.6335
  571SOL    HW2 1713   0.028   0.337   2.341 -2.1780 -0.0505  0.2323
  572SOL     OW 1714   1.064   1.702   0.819 -0.5671 -0.3058  0.2589
  572SOL    HW1 1715   1.069   1.726   0.919 -1.2557 -2.2555  1.7634
  572SOL    HW2 1716   1.130   1.765   0.772  2.0781  0.8591  1.1088
  573SOL     OW 1717   1.370   2.083   0.193 -0.4452 -0.1631 -0.3455
  573SOL    HW1 1718   1.404   2.093   0.098 -0.0277  0.2646  1.6056
  573SOL    HW2 1719   1.437   2.026   0.242 -1.9394  1.1869 -1.0466
  574SOL     OW 1720   0.948   0.263   0.935 -0.1398 -0.1115  0.2268
  574SOL    HW1 1721   0.937   0.182   0.994 -1.0074  3.3623 -0.7109
  574SOL    HW2 1722   0.923   0.247   0.841 -0.4249 -3.2329  3.2350
  575SOL     OW 1723   3.005   0.925   1.435  0.2521 -0.2106 -0.4905
  575SOL    HW1 1724   2.917   0.894   1.390 -0.1346 -1.1102  0.3650
  575SOL    HW2 1725   3.004   1.025   1.456  0.9568 -0.4756  0.8348
  576SOL     OW 1726   1.600   0.007   1.551  0.3927  0.0221 -0.1394
  576SOL    HW1 1727   1.579   3.021   1.586 -0.3040 -0.6710  0.8851
  576SOL    HW2 1728   1.537   0.034   1.472 -1.1866  2.1772 -3.4335
  577SOL     OW 1729   0.620   0.972   1.881  0.2233 -0.3107 -0.5008
  577SOL    HW1 1730   0.654   1.034   1.956 -1.0741  1.6102  1.2723
  577SOL    HW2 1731   0.619   0.878   1.914  0.6008  1.7472  0.7944
  578SOL     OW 1732   1.907   0.319   2.547  0.0428  0.2729 -0.3363
  578SOL    HW1 1733   1.945   0.409   2.575 -2.1135  0.3840 -4.9788
  578SOL    HW2 1734   1.819   0.337   2.504 -0.9422 -1.0533  0.4250
  579SOL     OW 1735   2.418   1.823   1.937  0.0935  0.0581 -0.5096
  579SOL    HW1 1736   2.464   1.881   1.867  0.7907 -2.5514  0.6592
  579SOL    HW2 1737   2.469   1.833   2.024 -1.1063  0.1114  1.0598
  580SOL     OW 1738   1.960   1.227   2.467  0.2460 -0.5110 -0.1223
  580SOL    HW1 1739   1.953   1.246   2.569 -0.6505  0.1352  0.0182
  580SOL    HW2 1740   1.969   1.128   2.454  1.3668  1.9485 -2.3644
  581SOL     OW 1741   1.506   1.053   2.841  0.3377  0.0879  0.7342
  581SOL    HW1 1742   1.417   1.010   2.843  0.5293 -0.3109 -2.6584
  581SOL    HW2 1743   1.549   1.041   2.750  1.2641 -0.6974 -0.3877
  582SOL     OW 1744   1.019   1.659   1.564 -0.3405  0.1629 -0.4907
  582SOL    HW1 1745   0.957   1.578   1.570 -1.4396  1.8854  2.1903
  582SOL    HW2 1746   1.105   1.650   1.627 -0.8844 -0.5884 -1.1204
  583SOL     OW 1747   1.728   1.240   1.396 -0.2098  0.3466  0.0729
  583SOL    HW1 1748   1.809   1.204   1.343 -0.0726 -0.1432 -1.8375
  583SOL    HW2 1749   1.674   1.308   1.343 -0.0077 -1.0924 -1.0290
  584SOL     OW 1750   1.900   2.473   0.665  0.8984  0.1537 -0.4006
  584SOL    HW1 1751   1.798   2.474   0.672 -0.4659 -0.8902  1.5390
  584SOL    HW2 1752   1.927   2.556   0.713  1.0020 -2.2904  1.3286
  585SOL     OW 1753   1.926   2.675   2.822  0.1691  0.5042  0.1067
  585SOL    HW1 1754   1.859   2.729   2.767 -1.2812  2.4408 -0.1153
  585SOL    HW2 1755   1.900   2.642   2.919  0.4419  0.4666  0.9812
  586SOL     OW 1756   2.941   2.348   0.868 -0.0871  0.1361  0.2099
  586SOL    HW1 1757   2.869   2.410   0.831  0.5920 -1.5310 -1.4793
  586SOL    HW2 1758   2.890   2.286   0.931  0.7882  0.1638  1.9098
  587SOL     OW 1759   1.071   1.903   0.051  0.5364 -0.0773  0.7872
  587SOL    HW1 1760   1.048   2.009   0.046 -1.3203  2.9579  2.3221
  587SOL    HW2 1761   1.164   1.882   0.042 -4.8487 -1.8448 -1.0882
  588SOL     OW 1762   0.487   0.166   1.012  0.0221  0.3217 -0.2605
  588SOL    HW1 1763   0.560   0.139   1.080  2.2943  0.0314  0.3348
  588SOL    HW2 1764   0.503   0.255   0.963  2.0166  1.1866 -1.2960
  589SOL     OW 1765   1.374   0.809   0.790  0.2405 -0.6030  0.2663
  589SOL    HW1 1766   1.383   0.816   0.691 -0.9785  1.5176  3.2030
  589SOL    HW2 1767   1.288   0.754   0.811 -0.6839  3.1863 -0.7099
  590SOL     OW 1768   1.875   2.604   3.087 -0.5893 -0.5147  0.3858
  590SOL    HW1 1769   1.881   2.521   0.035  1.5768  4.0216 -2.7505
  590SOL    HW2 1770   1.796   2.664   0.006  0.3006  1.1783  0.2484
  591SOL     OW 1771   0.181   2.295   2.764  0.5427 -0.1438 -0.6657
  591SOL    HW1 1772   0.260   2.313   2.706  0.2210 -0.3948  1.1741
  591SOL    HW2 1773   0.098   2.351   2.738  3.4000  2.2224  0.8508
  592SOL     OW 1774   2.812   1.530   2.050 -0.2850 -0.0079 -0.3516
  592SOL    HW1 1775   2.871   1.460   2.098  2.1412  3.4144  0.0026
  592SOL    HW2 1776   2.776   1.495   1.957 -1.4769 -0.8760 -1.6091
  593SOL     OW 1777   1.781   1.554   1.410 -0.1252  0.2831  0.2259
  593SOL    HW1 1778   1.793   1.503   1.494  0.6925  0.5717  0.8683
  593SOL    HW2 1779   1.731   1.510   1.336  0.1992  0.7878 -0.8978
  594SOL     OW 1780   2.663   1.174   3.047  0.4001 -0.3500  0.0962
  594SOL    HW1 1781   2.731   1.156   0.019  1.0684  0.3615  1.1120
  594SOL    HW2 1782   2.599   1.248   3.060  2.2572 -1.1183 -2.0297
  595SOL     OW 1783   0.800   0.876   0.496 -0.5442 -0.0708  0.4367
  595SOL    HW1 1784   0.753   0.966   0.520  0.5601 -0.4273 -0.0867
  595SOL    HW2 1785   0.792   0.858   0.398 -3.5753 -0.0639  0.4367
  596SOL     OW 1786   2.963   1.387   1.335  0.0288 -0.5342  0.0501
  596SOL    HW1 1787   3.038   1.367   1.275 -2.9536  1.0324 -1.6487
  596SOL    HW2 1788   2.987   1.470   1.387  1.0052  0.7798 -1.5493
  597SOL     OW 1789   1.095   2.167   1.379  0.0653 -0.3950 -0.2417
  597SOL    HW1 1790   1.114   2.248   1.328 -3.9790 -1.2566  1.9487
  597SOL    HW2 1791   1.079   2.194   1.476  2.0404  2.1860  0.8129
  598SOL     OW 1792   2.766   2.750   1.930  0.2364 -0.0274  0.0699
  598SOL    HW1 1793   2.792   2.843   1.967 -0.0491  1.0565  2.4875
  598SOL    HW2 1794   2.669   2.757   1.898  0.5018 -3.3789 -1.2091
  599SOL     OW 1795   0.529   1.388   2.725  0.1798  0.1015 -0.1929
  599SOL    HW1 1796   0.561   1.484   2.731  2.5664 -0.4106  2.6719
  599SOL    HW2 1797   0.546   1.356   2.628 -2.1271 -0.5710  0.5943
  600SOL     OW 1798   0.701   0.803   0.037  0.2471 -0.3831  0.2999
  600SOL    HW1 1799   0.717   0.761   3.055  3.2307  0.6127  1.7469
  600SOL    HW2 1800   0.615   0.769   0.077  2.2787  1.2937  0.9292
  601SOL     OW 1801   0.691   0.732   1.704  0.1028  0.3198  0.0400
  601SOL    HW1 1802   0.763   0.805   1.688  2.9738  1.9999  0.0161
  601SOL    HW2 1803   0.657   0.734   1.800  2.2597 -1.6818 -3.1113
  602SOL     OW 1804   0.446   0.131   0.150 -0.5026  0.0249  0.9195
  602SOL    HW1 1805   0.503   0.211   0.174 -1.4943 -1.2488  1.9031
  602SOL    HW2 1806   0.360   0.131   0.203 -0.9441 -1.1954 -2.1310
  603SOL     OW 1807   1.246   2.802   2.251 -0.6357 -0.5122 -0.4107
  603SOL    HW1 1808   1.234   2.893   2.292 -1.0265  2.2093 -1.1854
  603SOL    HW2 1809   1.155   2.754   2.247 -1.0400 -0.4452  0.7516
  604SOL     OW 1810   0.267   2.436   2.994  0.1009  0.1719  0.0993
  604SOL    HW1 1811   0.357   2.407   3.028 -0.1146  0.6315 -0.9462
  604SOL    HW2 1812   0.242   2.378   2.911  0.4523  1.5198 -1.3012
  605SOL     OW 1813   2.123   1.130   1.456  0.9001  0.2255  0.0736
  605SOL    HW1 1814   2.035   1.107   1.410 -0.9399  0.7835  1.1549
  605SOL    HW2 1815   2.105   1.186   1.541 -0.2706 -0.7966 -0.6637
  606SOL     OW 1816   0.740   0.981   2.587  0.0705  0.5758  0.2939
  606SOL    HW1 1817   0.768   1.058   2.644 -0.0102 -1.9635 -0.9030
  606SOL    HW2 1818   0.788   0.896   2.606  1.8195 -1.1836 -0.4206
  607SOL     OW 1819   0.698   0.587   1.005  0.3224 -0.1156  0.3639
  607SOL    HW1 1820   0.709   0.587   1.110 -0.0497 -0.7852  2.8700
  607SOL    HW2 1821   0.786   0.561   0.951  1.0296  0.9782 -0.9014
  608SOL     OW 1822   2.940   1.750   1.950 -0.3753 -0.3828 -0.2219
  608SOL    HW1 1823   2.873   1.673   1.959  2.0206  0.1398  1.2432
  608SOL    HW2 1824   2.900   1.836   1.988  1.8231 -1.6118 -2.1555
  609SOL     OW 1825   2.447   0.565   0.214  0.2988  0.1036  0.2926
  609SOL    HW1 1826   2.470   0.613   0.301 -2.7835  0.7359 -0.9832
  609SOL    HW2 1827   2.346   0.542   0.221  2.4172  0.4489  0.9278
  610SOL     OW 1828   0.081   2.638   1.398 -0.4031  0.3416 -0.3654
  610SOL    HW1 1829   0.112   2.701   1.469  1.3200  1.5829 -0.1511
  610SOL    HW2 1830   0.022   2.689   1.335  4.1987 -1.6831 -0.7154
  611SOL     OW 1831   1.710   2.144   0.212 -0.4572  0.6300  0.1104
  611SOL    HW1 1832   1.812   2.137   0.237  1.5982  2.0845 -0.4614
  611SOL    HW2 1833   1.656   2.061   0.239 -1.7121 -0.7271  0.1534
  612SOL     OW 1834   0.745   0.325   1.890 -0.6982  0.3105  0.4175
  612SOL    HW1 1835   0.790   0.243   1.860  2.6131 -2.0069  0.5374
  612SOL    HW2 1836   0.809   0.405   1.898  2.0282  0.9851  1.8940
  613SOL     OW 1837   0.353   2.044   0.894 -0.0304  0.3267  0.0163
  613SOL    HW1 1838   0.308   2.097   0.973 -0.2418  2.3248  0.0447
  613SOL    HW2 1839   0.413   2.099   0.833 -1.2282  2.2515 -1.8703
  614SOL     OW 1840   1.723   0.200   1.716 -0.2958 -0.2970  0.3861
  614SOL    HW1 1841   1.722   0.146   1.800 -1.9830  0.1502 -0.4944
  614SOL    HW2 1842   1.694   0.139   1.637  1.5032 -1.1172  0.2402
  615SOL     OW 1843   1.549   1.364   0.756 -0.1910 -0.1419  0.2187
  615SOL    HW1 1844   1.629   1.356   0.699 -2.1712  4.7368  0.1437
  615SOL    HW2 1845   1.486   1.436   0.717 -4.3609  1.1166 -1.5198
  616SOL     OW 1846   2.014   1.597   0.218  0.4911 -0.0751  0.5972
  616SOL    HW1 1847   1.916   1.592   0.247  1.7208  2.6304  1.0936
  616SOL    HW2 1848   2.050   1.688   0.245  1.6267 -0.2993  1.5108
  617SOL     OW 1849   1.598   0.679   0.017 -0.2396 -0.5191 -0.3144
  617SOL    HW1 1850   1.574   0.702   0.111  0.6437 -0.0588  0.1175
  617SOL    HW2 1851   1.691   0.647   0.004 -1.1040 -0.1643 -0.4732
  618SOL     OW 1852   0.616   0.707   1.971  0.2031  0.1926  0.4097
  618SOL    HW1 1853   0.664   0.753   2.049  0.4815 -0.0297 -1.7024
  618SOL    HW2 1854   0.610   0.607   1.981  1.7682  0.9350 -0.9752
  619SOL     OW 1855   3.036   1.630   1.427  0.2738  0.8882  0.0212
  619SOL    HW1 1856   3.063   1.643   1.527 -0.3717  2.5864  1.0973
  619SOL    HW2 1857   3.057   1.713   1.369  0.8445  0.1274 -1.9440
  620SOL     OW 1858   2.349   2.832   2.641 -0.0252  0.1888 -0.3795
  620SOL    HW1 1859   2.338   2.923   2.595 -0.6943  3.0323 -0.8238
  620SOL    HW2 1860   2.286   2.826   2.719 -1.5077  0.5982 -1.0313
  621SOL     OW 1861   2.577   1.956   0.124 -0.0252  0.3973 -0.3216
  621SOL    HW1 1862   2.544   1.870   0.177 -3.1651  2.6779  0.5548
  621SOL    HW2 1863   2.649   2.004   0.177  0.6071  1.5094 -0.1756
  622SOL     OW 1864   1.321   0.267   2.441  0.1591 -0.0299  0.4832
  622SOL    HW1 1865   1.338   0.222   2.349 -0.2301  0.3440 -0.0582
  622SOL    HW2 1866   1.385   0.346   2.458 -0.3653  0.8539  0.6818
  623SOL     OW 1867   0.608   1.753   1.384 -0.0685  0.3180 -0.4183
  623SOL    HW1 1868   0.705   1.759   1.356 -2.3631  3.1589 -1.1998
  623SOL    HW2 1869   0.554   1.746   1.294 -1.3411 -2.4324 -0.6655
  624SOL     OW 1870   2.901   2.946   2.994  0.2379  0.6661 -0.0660
  624SOL    HW1 1871   2.867   2.926   2.899  0.8259 -2.5620 -0.5730
  624SOL    HW2 1872   3.000   2.966   2.990  1.9725  0.3399 -2.1820
  625SOL     OW 1873   0.702   2.139   0.559 -0.7133  0.1197  0.0457
  625SOL    HW1 1874   0.789   2.084   0.556 -1.1921 -3.9533 -0.9011
  625SOL    HW2 1875   0.631   2.088   0.508 -1.4530  0.3185 -1.1282
  626SOL     OW 1876   2.879   0.548   2.777 -0.1508  0.2126 -0.3014
  626SOL    HW1 1877   2.849   0.486   2.702  0.8641 -1.7610  0.1643
  626SOL    HW2 1878   2.818   0.539   2.859 -1.9983 -0.5548  2.0283
  627SOL     OW 1879   1.411   2.088   3.024 -0.2062  0.1940  0.2012
  627SOL    HW1 1880   1.474   2.171   3.034  4.4018 -0.5740 -0.9988
  627SOL    HW2 1881   1.364   2.098   2.935 -2.2927 -0.3376  2.2995
  628SOL     OW 1882   3.051   2.426   3.065  0.2861  0.1160 -0.5713
  628SOL    HW1 1883   2.993   2.428   2.979 -0.6192  0.7610 -4.2965
  628SOL    HW2 1884   0.045   2.444   3.057  1.2564 -2.4925 -1.8593
  629SOL     OW 1885   0.730   2.792   2.765  0.6653 -0.0152 -0.2448
  629SOL    HW1 1886   0.825   2.791   2.804 -1.1592  0.7586 -2.4510
  629SOL    HW2 1887   0.737   2.844   2.682  0.5326  0.4266  2.8328
  630SOL     OW 1888   1.054   0.371   1.916  0.3781 -0.2971 -0.0575
  630SOL    HW1 1889   1.005   0.280   1.908 -0.8805  1.0828  0.3791
  630SOL    HW2 1890   1.061   0.389   2.014 -2.0830 -0.0042 -0.3655
  631SOL     OW 1891   2.035   0.901   0.388  0.4639 -0.4420  0.0760
  631SOL    HW1 1892   2.068   0.971   0.317 -0.5066 -0.8103 -0.1235
  631SOL    HW2 1893   1.937   0.929   0.412 -3.5766 -3.0417  1.3938
  632SOL     OW 1894   2.522   0.330   1.826 -0.9704 -0.1040 -0.4277
  632SOL    HW1 1895   2.570   0.415   1.798  0.0164  1.6041  0.3604
  632SOL    HW2 1896   2.589   0.265   1.871  1.7978 -1.1373  1.5403
  633SOL     OW 1897   1.000   1.344   0.334  0.0758  0.2140  0.0225
  633SOL    HW1 1898   0.973   1.386   0.422  0.5287  0.0490  0.0555
  633SOL    HW2 1899   1.021   1.244   0.353 -1.1837  1.0213 -0.6324
  634SOL     OW 1900   2.656   2.686   2.409 -0.5818 -0.2425  0.6309
  634SOL    HW1 1901   2.612   2.597   2.428  3.9877  1.3719 -0.1294
  634SOL    HW2 1902   2.727   2.679   2.331  1.3509  0.9244  1.8276
  635SOL     OW 1903   1.806   0.509   0.401 -0.0874  0.3379  0.3937
  635SOL    HW1 1904   1.739   0.510   0.474  0.9644 -0.5254  0.8327
  635SOL    HW2 1905   1.891   0.452   0.429  0.5337 -0.7994  0.1747
  636SOL     OW 1906   0.737   1.203   0.789  0.1232  0.2937  0.5501
  636SOL    HW1 1907   0.683   1.290   0.810 -3.8332 -0.0904  0.2381
  636SOL    HW2 1908   0.686   1.150   0.709  0.2487  0.9092 -1.4599
  637SOL     OW 1909   2.712   2.122   0.294  0.5743  0.0792 -0.2976
  637SOL    HW1 1910   2.758   2.167   0.377 -0.1502  0.2339  1.8033
  637SOL    HW2 1911   2.714   2.180   0.208 -1.4410  0.8496  0.6393
  638SOL     OW 1912   1.566   2.413   2.277  0.0698  0.4200 -0.6238
  638SOL    HW1 1913   1.592   2.317   2.260  2.4595  1.1900 -0.1161
  638SOL    HW2 1914   1.644   2.455   2.329  1.1885  2.2492  1.4195
  639SOL     OW 1915   1.486   1.937   0.591  0.1508  0.5638  0.0961
  639SOL    HW1 1916   1.386   1.925   0.618 -0.5765  1.6584  2.7116
  639SOL    HW2 1917   1.542   1.869   0.646  0.7665 -0.7911 -0.4724
  640SOL     OW 1918   1.918   0.075   0.460  0.5291 -0.5737  0.3728
  640SOL    HW1 1919   1.920   3.089   0.418 -0.4471 -0.1947  0.5091
  640SOL    HW2 1920   1.998   0.127   0.431  0.1416 -1.4613 -0.6734
  641SOL     OW 1921   2.928   0.082   0.397  0.1449  0.4171  0.2597
  641SOL    HW1 1922   3.010   0.099   0.340  1.7775  0.9758 -0.7628
  641SOL    HW2 1923   2.939   0.146   0.476 -0.0865 -0.1973 -1.5282
  642SOL     OW 1924   0.614   0.887   1.214  0.2090  0.4267 -0.5311
  642SOL    HW1 1925   0.547   0.905   1.139  1.2388 -0.9982 -4.5300
  642SOL    HW2 1926   0.585   0.896   1.310  0.8384  1.4102  2.0161
  643SOL     OW 1927   0.590   1.326   2.470  0.4586 -0.6296 -0.0380
  643SOL    HW1 1928   0.680   1.346   2.431 -0.0670 -1.0002  1.3522
  643SOL    HW2 1929   0.559   1.231   2.437  1.1612 -2.3467  0.3317
  644SOL     OW 1930   1.547   2.201   0.622  0.2088  0.0890  0.4196
  644SOL    HW1 1931   1.501   2.109   0.635  1.4539  2.1051 -1.6230
  644SOL    HW2 1932   1.515   2.233   0.531 -1.5886 -0.4611  2.3245
  645SOL     OW 1933   1.565   1.943   0.302  0.0734 -0.1198 -0.1284
  645SOL    HW1 1934   1.632   1.863   0.283  3.6112 -0.3510 -0.3303
  645SOL    HW2 1935   1.526   1.929   0.393 -4.1063 -1.6567 -2.4746
  646SOL     OW 1936   2.997   1.719   2.766 -0.4384 -0.2278  0.5745
  646SOL    HW1 1937   3.031   1.782   2.842 -0.1112  0.7430  0.6902
  646SOL    HW2 1938   3.073   1.710   2.701  0.2856  1.4736 -1.7325
  647SOL     OW 1939   0.927   0.526   0.861 -0.0527 -0.7104  0.0518
  647SOL    HW1 1940   0.927   0.424   0.875 -2.2411 -2.6632 -1.6127
  647SOL    HW2 1941   0.918   0.558   0.764  0.1152  2.2336  0.3111
  648SOL     OW 1942   1.538   0.543   1.166  0.5697  0.5035  0.2967
  648SOL    HW1 1943   1.598   0.589   1.098 -1.9431 -1.5364  0.3750
  648SOL    HW2 1944   1.528   0.595   1.250  1.6904  0.1295 -4.3155
  649SOL     OW 1945   0.953   1.722   0.226 -0.4850 -0.3047 -0.0640
  649SOL    HW1 1946   0.991   1.796   0.164 -0.0551 -0.2567  0.0863
  649SOL    HW2 1947   0.991   1.737   0.322 -1.9861  1.1143  3.1417
  650SOL     OW 1948   2.453   1.547   1.861 -0.5283 -0.5869  0.2115
  650SOL    HW1 1949   2.441   1.645   1.892 -0.1046 -0.4039  0.9407
  650SOL    HW2 1950   2.544   1.536   1.815 -1.2511  0.3913  1.7938
  651SOL     OW 1951   1.742   2.333   2.847 -0.3468 -0.6002  0.0741
  651SOL    HW1 1952   1.795   2.339   2.758 -3.7857  0.8896 -1.2089
  651SOL    HW2 1953   1.708   2.235   2.851 -1.9007 -1.7158 -1.0094
  652SOL     OW 1954   2.510   1.700   0.208 -0.1221 -0.4079  0.4567
  652SOL    HW1 1955   2.434   1.683   0.141  1.3230 -2.5442  0.3941
  652SOL    HW2 1956   2.591   1.641   0.185 -1.6454  1.1964  0.0503
  653SOL     OW 1957   0.169   0.222   0.710  0.2284 -0.5244 -0.0565
  653SOL    HW1 1958   0.184   0.159   0.631  0.3525 -1.2069 -0.0937
  653SOL    HW2 1959   0.169   0.178   0.803 -1.5438 -0.2887 -1.7618
  654SOL     OW 1960   2.581   3.060   2.157 -0.7296 -0.1072  0.5728
  654SOL    HW1 1961   2.598   0.042   2.197  1.9723 -2.2091  1.6032
  654SOL    HW2 1962   2.498   3.052   2.098  0.3384 -2.1078  3.7006
  655SOL     OW 1963   0.590   2.862   0.994 -0.7331  0.6607 -0.4953
  655SOL    HW1 1964   0.486   2.856   0.983  0.2692  0.4946 -1.2464
  655SOL    HW2 1965   0.611   2.882   1.089  0.3289  0.3786 -0.2795
  656SOL     OW 1966   2.922   2.951   2.522  0.6876  0.0996 -0.2197
  656SOL    HW1 1967   2.885   2.967   2.429 -1.6989  0.2912 -1.4461
  656SOL    HW2 1968   3.004   3.016   2.532  0.0735  1.1653  1.3020
  657SOL     OW 1969   2.939   0.886   0.018 -0.0005 -0.4367  0.1347
  657SOL    HW1 1970   2.988   0.907   3.042 -1.7071 -0.9761  2.2432
  657SOL    HW2 1971   2.991   0.824   0.074 -0.9251  1.8332 -3.0678
  658SOL     OW 1972   2.383   2.054   1.237  0.0137  0.3318  0.2764
  658SOL    HW1 1973   2.369   2.145   1.277 -0.4645  0.2542  0.0370
  658SOL    HW2 1974   2.356   1.983   1.305 -1.3851  1.9684 -0.8529
  659SOL     OW 1975   1.825   2.701   0.385 -0.3244  0.2132 -0.3027
  659SOL    HW1 1976   1.915   2.648   0.383  1.6984 -0.7797  1.1822
  659SOL    HW2 1977   1.745   2.634   0.390 -1.7612 -2.2459 -1.2629
  660SOL     OW 1978   1.607   1.044   2.578 -0.1390  0.3555 -0.4333
  660SOL    HW1 1979   1.629   1.096   2.493  2.1310 -1.4803  1.6026
  660SOL    HW2 1980   1.533   0.974   2.558  0.7524 -2.4275 -2.9725
  661SOL     OW 1981   3.003   2.136   1.221 -0.1930 -0.1291 -0.5895
  661SOL    HW1 1982   2.990   2.230   1.189  3.0756 -2.3865  2.0821
  661SOL    HW2 1983   2.991   2.067   1.150  1.2876  1.3529  0.5557
  662SOL     OW 1984   0.433   0.730   0.129 -0.5531  0.5669 -0.0421
  662SOL    HW1 1985   0.371   0.808   0.123  0.0998  2.9538  1.2559
  662SOL    HW2 1986   0.438   0.698   0.224  0.5551  0.0586 -1.9559
  663SOL     OW 1987   2.039   1.999   1.277  0.3626  0.1441 -0.1824
  663SOL    HW1 1988   2.049   2.096   1.312  1.0111  0.5761  0.4097
  663SOL    HW2 1989   2.103   1.940   1.331 -0.4045 -0.6934 -0.9034
  664SOL     OW 1990   0.967   1.502   1.270  0.5580 -0.6927 -0.2370
  664SOL    HW1 1991   0.947   1.514   1.170 -1.8412 -0.6854 -0.0521
  664SOL    HW2 1992   0.941   1.586   1.325 -0.8400  1.5676  2.3242
  665SOL     OW 1993   1.785   2.497   1.916  0.0187 -0.1772 -0.1510
  665SOL    HW1 1994   1.731   2.583   1.925 -0.7450  3.8741  0.0281
  665SOL    HW2 1995   1.803   2.456   2.005 -0.2118  0.7167 -2.1945
  666SOL     OW 1996   3.023   2.801   0.293  0.5732 -0.1472 -0.0974
  666SOL    HW1 1997   2.934   2.793   0.243 -1.9092  0.7992 -0.5953
  666SOL    HW2 1998   3.015   2.861   0.376  2.5667  0.4281  1.5159
  667SOL     OW 1999   2.729   1.469   1.796  0.2103  0.3380 -0.1941
  667SOL    HW1 2000   2.737   1.510   1.705 -0.3035 -1.7510  2.3228
  667SOL    HW2 2001   2.734   1.365   1.788  0.8586 -0.4112  2.1171
  668SOL     OW 2002   0.348   0.446   2.552 -0.4624 -0.3695  0.3274
  668SOL    HW1 2003   0.340   0.345   2.565  3.1291  1.5600  0.6771
  668SOL    HW2 2004   0.257   0.491   2.546  0.9524 -0.2745 -1.4431
  669SOL     OW 2005   2.264   1.867   2.673 -0.2726 -0.0353  0.0328
  669SOL    HW1 2006   2.166   1.851   2.663  2.1463 -1.6921 -0.8272
  669SOL    HW2 2007   2.308   1.824   2.758  1.2101  1.6242 -0.7729
  670SOL     OW 2008   2.593   1.371   2.295  0.1968  0.4590 -0.0917
  670SOL    HW1 2009   2.595   1.306   2.375  1.5625 -0.8460  1.8647
  670SOL    HW2 2010   2.596   1.327   2.203 -0.4784 -0.3480 -1.3347
  671SOL     OW 2011   0.173   1.720   0.899 -0.7710  0.6434  0.1268
  671SOL    HW1 2012   0.133   1.802   0.938  0.6423  2.8427  0.7741
  671SOL    HW2 2013   0.110   1.655   0.849  0.0073 -0.8463 -2.3267
  672SOL     OW 2014   2.406   0.747   1.935 -0.0322 -0.4587  0.2921
  672SOL    HW1 2015   2.349   0.766   1.852 -0.0766 -0.2044  1.7634
  672SOL    HW2 2016   2.496   0.794   1.929  0.6731  0.1891  0.2881
  673SOL     OW 2017   2.463   2.604   2.135  0.3513 -0.3264  0.2844
  673SOL    HW1 2018   2.560   2.584   2.134 -0.5884  3.2314  0.0228
  673SOL    HW2 2019   2.432   2.662   2.054  0.7058 -0.4292 -2.0182
  674SOL     OW 2020   1.633   2.592   1.594  0.3027  0.0526  0.2762
  674SOL    HW1 2021   1.603   2.506   1.646 -2.3560 -1.9111  0.4743
  674SOL    HW2 2022   1.724   2.625   1.621  1.0480  0.9301  0.9182
  675SOL     OW 2023   0.450   0.947   1.011  0.3745  0.5455  0.3004
  675SOL    HW1 2024   0.449   1.047   0.989 -0.2443  0.7201 -1.9381
  675SOL    HW2 2025   0.508   0.901   0.943  0.3495  1.7823  0.7620
  676SOL     OW 2026   1.784   1.282   0.653 -0.1918 -0.0061  0.0306
  676SOL    HW1 2027   1.768   1.208   0.720  2.5437 -2.7183  1.5927
  676SOL    HW2 2028   1.883   1.298   0.633 -0.8207  0.4415  0.3730
  677SOL     OW 2029   2.881   1.500   2.450  0.4046 -0.4026  0.0816
  677SOL    HW1 2030   2.809   1.474   2.512  1.5428 -1.2344 -0.5990
  677SOL    HW2 2031   2.933   1.423   2.419 -0.0855  2.9315 -0.2757
  678SOL     OW 2032   2.644   1.989   1.138 -0.0369  0.0421 -0.2282
  678SOL    HW1 2033   2.707   1.973   1.216  1.3792 -0.6951  0.0737
  678SOL    HW2 2034   2.554   2.027   1.164 -0.6737  2.8157  2.8764
  679SOL     OW 2035   2.028   2.555   0.421 -0.2379 -0.0542  0.0399
  679SOL    HW1 2036   2.128   2.577   0.445  1.4340 -0.0450  2.6939
  679SOL    HW2 2037   1.987   2.507   0.500  1.5550  0.7202 -0.8006
  680SOL     OW 2038   3.044   2.145   2.111  0.1909  0.3540  0.2516
  680SOL    HW1 2039   3.083   2.141   2.016 -0.6896 -0.0161  0.4786
  680SOL    HW2 2040   3.101   2.196   2.173 -0.3106 -0.9586 -6.0560
  681SOL     OW 2041   0.070   1.272   1.711 -0.1167 -0.2526  0.4174
  681SOL    HW1 2042   0.140   1.225   1.772  0.7026 -0.3882 -2.3358
  681SOL    HW2 2043   0.095   1.369   1.693  0.1607  0.3566 -2.2032
  682SOL     OW 2044   1.158   2.573   0.866  0.1238 -0.5757  0.4872
  682SOL    HW1 2045   1.184   2.619   0.954 -1.0169  0.0336 -1.7905
  682SOL    HW2 2046   1.192   2.625   0.786  0.6210  2.1077  0.3887
  683SOL     OW 2047   2.291   1.232   1.085 -0.2375 -0.4799  0.4006
  683SOL    HW1 2048   2.360   1.305   1.074  0.3337 -0.9787  0.5772
  683SOL    HW2 2049   2.246   1.239   1.171 -1.3494 -1.2480 -2.0031
  684SOL     OW 2050   0.692   1.794   2.532  0.2795  0.0716 -0.5481
  684SOL    HW1 2051   0.714   1.877   2.590  0.3292  2.3005 -1.4390
  684SOL    HW2 2052   0.608   1.819   2.479 -1.7947 -0.5812 -0.8625
  685SOL     OW 2053   1.682   1.597   0.013  0.3975 -0.8727  0.3630
  685SOL    HW1 2054   1.669   1.498   3.097 -1.6334  1.6626  1.2853
  685SOL    HW2 2055   1.637   1.655   3.043 -3.6978 -0.2553 -1.6753
  686SOL     OW 2056   2.822   0.651   1.407  0.1728  0.3019 -0.0008
  686SOL    HW1 2057   2.749   0.704   1.446  1.0329  0.8705 -1.5661
  686SOL    HW2 2058   2.824   0.673   1.301  1.7617  1.7308 -3.5250
  687SOL     OW 2059   1.055   2.303   2.831  0.2970  0.2695 -0.0333
  687SOL    HW1 2060   1.092   2.337   2.921  1.2376  1.5664  0.0223
  687SOL    HW2 2061   1.031   2.203   2.842  2.0099 -0.7804  0.6102
  688SOL     OW 2062   0.259   1.988   2.044 -0.8930  0.2080 -0.2951
  688SOL    HW1 2063   0.225   1.952   1.958 -0.4967  2.1357  1.1637
  688SOL    HW2 2064   0.187   1.977   2.116 -2.9400 -0.0947 -0.1031
  689SOL     OW 2065   1.988   0.623   1.806  0.0295  0.1821 -0.2023
  689SOL    HW1 2066   1.923   0.678   1.863 -1.8446  0.1327 -2.8817
  689SOL    HW2 2067   2.024   0.543   1.859  1.6098 -2.8436  1.0267
  690SOL     OW 2068   2.296   0.707   0.967  0.5047  0.5304 -0.2709
  690SOL    HW1 2069   2.258   0.700   1.063  0.5763 -1.7393  0.6108
  690SOL    HW2 2070   2.281   0.807   0.940 -0.1196 -0.8232 -3.1921
  691SOL     OW 2071   0.722   1.743   1.901 -0.2250  0.4411 -0.1633
  691SOL    HW1 2072   0.692   1.808   1.973  1.0406  0.3177 -0.8883
  691SOL    HW2 2073   0.826   1.739   1.912 -0.3300 -1.6054  2.0109
  692SOL     OW 2074   2.027   0.306   1.510  0.2196  0.2588 -0.1283
  692SOL    HW1 2075   1.951   0.364   1.544  0.7369 -2.5635  0.0420
  692SOL    HW2 2076   2.015   0.281   1.412  0.8359 -2.8088 -0.5779
  693SOL     OW 2077   0.510   1.072   2.358  0.3772  0.0218 -0.2525
  693SOL    HW1 2078   0.518   0.971   2.327 -0.2624 -0.5810 -0.7632
  693SOL    HW2 2079   0.515   1.131   2.277  3.9151  0.7764 -0.6502
  694SOL     OW 2080   1.565   0.076   1.068 -0.0884  0.3500 -0.1178
  694SOL    HW1 2081   1.551   0.119   0.979  0.0007 -0.9442 -1.5897
  694SOL    HW2 2082   1.585   3.087   1.056  4.1387  1.7141 -2.5484
  695SOL     OW 2083   1.191   1.120   1.798  0.1008  0.0989 -0.2099
  695SOL    HW1 2084   1.176   1.059   1.716 -2.5084 -2.2084 -1.1671
  695SOL    HW2 2085   1.112   1.116   1.858  0.3252  0.1831 -2.3001
  696SOL     OW 2086   1.313   0.026   0.529  0.4668 -0.1526  0.1347
  696SOL    HW1 2087   1.347   0.052   0.621 -2.1460 -1.1453  5.0119
  696SOL    HW2 2088   1.216   3.092   0.534 -0.6157 -2.5443 -4.7551
  697SOL     OW 2089   0.932   0.640   0.593  0.4487 -0.5525  0.1512
  697SOL    HW1 2090   0.904   0.734   0.568  0.7969 -2.2828  1.5757
  697SOL    HW2 2091   0.910   0.572   0.519 -0.9913  3.2835  0.0227
  698SOL     OW 2092   1.288   1.127   2.561  0.2905  0.4990 -0.0499
  698SOL    HW1 2093   1.274   1.180   2.644  0.2653 -2.9913  0.4855
  698SOL    HW2 2094   1.306   1.030   2.581  0.7936  1.6830  0.0026
  699SOL     OW 2095   1.575   1.420   1.266  0.5842  0.1866 -0.2094
  699SOL    HW1 2096   1.495   1.470   1.313 -0.4672  1.1479  2.5829
  699SOL    HW2 2097   1.560   1.393   1.169  1.5634 -0.0308  1.5540
  700SOL     OW 2098   1.437   0.211   0.352 -0.0238  0.1553  0.0214
  700SOL    HW1 2099   1.401   0.136   0.408 -0.3686  2.1416 -1.1346
  700SOL    HW2 2100   1.536   0.216   0.360  0.6352  0.4045  0.9769
  701SOL     OW 2101   2.910   0.172   2.326  0.3335  0.7916  0.3465
  701SOL    HW1 2102   2.960   0.131   2.248  1.2742 -1.9324  0.1540
  701SOL    HW2 2103   2.962   0.167   2.414  0.9296  2.5569  0.9583
  702SOL     OW 2104   1.068   0.171   0.157  0.4021  0.2306  0.2464
  702SOL    HW1 2105   1.034   0.267   0.169 -1.8821  1.3912  1.1941
  702SOL    HW2 2106   1.167   0.165   0.132  0.3318 -0.1974 -0.5030
  703SOL     OW 2107   2.228   2.838   2.171  0.5784  0.2022  0.0801
  703SOL    HW1 2108   2.173   2.757   2.140 -3.1149 -2.5375  1.7676
  703SOL    HW2 2109   2.289   2.811   2.246 -0.1499 -0.1590  0.3445
  704SOL     OW 2110   0.680   2.234   0.911  0.1358  0.0111 -0.2260
  704SOL    HW1 2111   0.608   2.201   0.846  0.8233  0.0648  1.9428
  704SOL    HW2 2112   0.642   2.272   0.995 -2.1519 -0.3655  1.1731
  705SOL     OW 2113   2.746   0.187   1.945  0.3506 -0.0044  0.5257
  705SOL    HW1 2114   2.768   0.259   2.012  1.1804  1.3759  0.3939
  705SOL    HW2 2115   2.793   0.098   1.964  0.2444 -2.8921  1.7643
  706SOL     OW 2116   1.706   0.202   0.348  0.7662  0.0769  0.8167
  706SOL    HW1 2117   1.790   0.176   0.396 -2.7750 -0.4775 -1.3638
  706SOL    HW2 2118   1.730   0.244   0.256  0.6239 -1.0693 -1.9010
  707SOL     OW 2119   1.361   1.949   2.198 -0.7447 -0.1306 -0.7371
  707SOL    HW1 2120   1.407   1.859   2.216 -0.6782 -0.4741 -1.4663
  707SOL    HW2 2121   1.333   1.997   2.285 -1.9057  0.1497 -0.4881
  708SOL     OW 2122   3.105   2.170   1.828  0.3105  0.5764 -0.6256
  708SOL    HW1 2123   0.065   2.247   1.836  2.9275  0.4253  3.1630
  708SOL    HW2 2124   3.028   2.188   1.764 -1.6389 -1.2280  3.2250
  709SOL     OW 2125   1.804   0.017   2.060  0.1283  0.1172 -0.0261
  709SOL    HW1 2126   1.738   3.059   2.011  0.3777 -2.1423 -1.6879
  709SOL    HW2 2127   1.886   3.078   2.098  3.6361 -1.9103 -2.0462
  710SOL     OW 2128   2.225   0.491   1.534  0.2952  0.3454  0.2636
  710SOL    HW1 2129   2.175   0.405   1.531  2.9069 -2.1171 -1.2473
  710SOL    HW2 2130   2.327   0.475   1.536 -0.8692  2.3708 -0.7089
  711SOL     OW 2131   0.490   2.021   0.426 -0.0603 -0.1234 -0.3991
  711SOL    HW1 2132   0.403   2.040   0.473  0.2452  0.4268 -0.5770
  711SOL    HW2 2133   0.527   1.933   0.446  1.5485  2.8051 -0.9683
  712SOL     OW 2134   0.625   2.652   2.387  0.6650 -0.2123  0.0483
  712SOL    HW1 2135   0.658   2.653   2.291 -0.3501 -0.3153 -1.6598
  712SOL    HW2 2136   0.606   2.747   2.414  0.3612  0.2443 -0.2886
  713SOL     OW 2137   1.971   1.023   2.951  0.2894  0.1983 -0.0448
  713SOL    HW1 2138   1.913   0.987   2.881  2.9064  2.2344  1.0652
  713SOL    HW2 2139   2.042   0.951   2.964 -1.2103  1.0499  1.2287
  714SOL     OW 2140   0.967   1.959   1.229 -0.0075  0.3821 -0.3099
  714SOL    HW1 2141   0.929   2.014   1.154  1.6731 -1.3052  1.8508
  714SOL    HW2 2142   1.014   2.020   1.298  0.8283  0.6569  0.9010
  715SOL     OW 2143   1.812   3.073   2.943  0.3585  0.5040 -0.2545
  715SOL    HW1 2144   1.905   3.089   2.981  0.6749  3.3070  1.2812
  715SOL    HW2 2145   1.798   3.094   2.847  0.1921  0.9520  2.9384
  716SOL     OW 2146   3.106   0.196   1.804  0.1310 -0.1050  0.7709
  716SOL    HW1 2147   3.080   0.258   1.730  2.8248 -1.4668  4.1549
  716SOL    HW2 2148   0.004   0.248   1.892  1.0585 -0.5017 -2.3343
  717SOL     OW 2149   0.252   1.157   0.237  0.0501  0.0144 -0.0695
  717SOL    HW1 2150   0.229   1.063   0.196 -1.0992 -3.3971 -0.8283
  717SOL    HW2 2151   0.246   1.233   0.164  1.6327 -0.0477 -0.8329
  718SOL     OW 2152   1.380   0.863   2.604 -0.2488 -0.2470 -0.7115
  718SOL    HW1 2153   1.293   0.850   2.649  0.1163 -2.1000 -2.1291
  718SOL    HW2 2154   1.388   0.800   2.525 -1.2871 -0.6381  0.5917
  719SOL     OW 2155   2.887   1.621   3.086 -0.2573 -0.0238 -0.9022
  719SOL    HW1 2156   2.821   1.604   0.047  1.8564  0.4788 -2.0326
  719SOL    HW2 2157   2.860   1.573   2.999 -1.6255  2.3657  2.0064
  720SOL     OW 2158   1.285   0.833   1.069 -0.0491 -0.4392  0.1793
  720SOL    HW1 2159   1.219   0.754   1.066 -3.2350  1.1263 -1.6261
  720SOL    HW2 2160   1.337   0.850   0.981  1.5709 -0.8697  1.3033
  721SOL     OW 2161   2.758   0.993   0.474 -0.0132 -0.2151  0.4652
  721SOL    HW1 2162   2.787   0.958   0.381  0.9294  0.2454 -3.2241
  721SOL    HW2 2163   2.823   1.065   0.511  2.3437  1.7911  0.1126
  722SOL     OW 2164   1.280   0.908   2.894 -0.5519 -0.8171 -0.7077
  722SOL    HW1 2165   1.254   0.870   2.989 -1.8607  0.1930  0.9568
  722SOL    HW2 2166   1.216   0.880   2.821 -0.5723  2.4184 -1.4515
  723SOL     OW 2167   0.067   1.212   0.455  0.0646 -0.3066 -0.5693
  723SOL    HW1 2168   0.113   1.268   0.523 -0.9163  1.8273 -1.4759
  723SOL    HW2 2169   0.129   1.180   0.383 -0.0176  0.0843  0.2527
  724SOL     OW 2170   0.743   1.961   2.063 -0.1944  0.9072 -0.0302
  724SOL    HW1 2171   0.663   1.936   2.118  0.9559 -3.1575 -1.0217
  724SOL    HW2 2172   0.711   2.030   1.998  1.2357 -3.3514 -0.8021
  725SOL     OW 2173   2.358   1.013   1.432  0.3067  0.1223  0.0111
  725SOL    HW1 2174   2.264   1.046   1.441 -0.9241 -0.8808  2.3972
  725SOL    HW2 2175   2.372   0.935   1.493  0.8713  1.3619  0.0505
  726SOL     OW 2176   1.817   2.899   0.549 -0.1607 -0.1488 -0.1817
  726SOL    HW1 2177   1.809   2.817   0.489 -1.6776 -0.4965  1.1629
  726SOL    HW2 2178   1.752   2.971   0.519  0.9652 -1.1347 -1.1682
  727SOL     OW 2179   1.109   1.025   2.144 -0.0291  0.3063  0.4843
  727SOL    HW1 2180   1.095   1.079   2.231  2.3712  1.6893  0.0857
  727SOL    HW2 2181   1.203   1.042   2.115  0.0918  0.5168  1.2652
  728SOL     OW 2182   1.216   2.684   1.118 -0.0444  0.3773  0.5651
  728SOL    HW1 2183   1.300   2.638   1.146  1.8988  0.4119 -2.0831
  728SOL    HW2 2184   1.169   2.724   1.192  2.9072 -0.1201 -3.3628
  729SOL     OW 2185   1.964   0.938   1.079 -0.1573  0.2814 -0.1313
  729SOL    HW1 2186   2.057   0.959   1.047  1.4601  0.3023 -1.5837
  729SOL    HW2 2187   1.950   0.838   1.080 -2.5734 -0.9652 -0.1300
  730SOL     OW 2188   0.885   1.902   2.313 -0.5875  0.4869 -0.1761
  730SOL    HW1 2189   0.882   1.918   2.212  0.0327 -1.5186 -0.6184
  730SOL    HW2 2190   0.846   1.812   2.341  2.5450 -1.1933  0.7483
  731SOL     OW 2191   0.501   0.435   0.684  0.6689  0.1098  0.5896
  731SOL    HW1 2192   0.552   0.365   0.632 -3.6460  1.7614 -1.6089
  731SOL    HW2 2193   0.547   0.525   0.667  0.6571 -1.2334  0.3641
  732SOL     OW 2194   0.883   0.823   0.232 -0.0203 -0.0199 -0.0413
  732SOL    HW1 2195   0.821   0.836   0.152 -0.3446  2.4373  0.1536
  732SOL    HW2 2196   0.979   0.848   0.213 -0.1440  0.3781 -0.3030
  733SOL     OW 2197   0.790   2.335   0.697  0.2668 -0.0888  0.2193
  733SOL    HW1 2198   0.757   2.257   0.634  0.0655 -1.2644 -2.0272
  733SOL    HW2 2199   0.782   2.307   0.792 -0.9934 -0.1900 -0.6307
  734SOL     OW 2200   0.054   2.043   2.669 -0.2469  0.3747  0.1176
  734SOL    HW1 2201   0.046   2.045   2.569  1.9028  3.6955  1.7907
  734SOL    HW2 2202   0.119   2.111   2.700 -1.5775  1.9525 -2.2300
  735SOL     OW 2203   0.976   0.020   1.104 -0.0837  0.4750  0.7787
  735SOL    HW1 2204   1.050   0.013   1.174  0.6461  1.1057  0.3850
  735SOL    HW2 2205   0.963   3.039   1.052 -0.8388 -1.6181 -1.3544
  736SOL     OW 2206   1.643   2.970   0.025  0.1938  0.1096  0.5025
  736SOL    HW1 2207   1.694   2.962   0.115  0.7894  1.8943  1.4368
  736SOL    HW2 2208   1.702   3.003   3.055  1.4361 -1.1499 -1.1950
  737SOL     OW 2209   2.946   0.248   0.626  0.6959  0.0071 -0.4940
  737SOL    HW1 2210   2.997   0.333   0.612  0.1981 -2.4125 -2.0752
  737SOL    HW2 2211   2.875   0.264   0.699 -0.7012  1.5783  0.5231
  738SOL     OW 2212   2.576   2.858   0.913  0.3545 -0.2412  0.1391
  738SOL    HW1 2213   2.638   2.920   0.959 -2.0797 -0.9428 -1.7400
  738SOL    HW2 2214   2.555   2.890   0.821 -1.7540 -3.2056  0.4341
  739SOL     OW 2215   1.516   2.301   0.352  0.0387 -0.8866  0.2536
  739SOL    HW1 2216   1.601   2.264   0.315  0.4638  0.3304  0.7069
  739SOL    HW2 2217   1.439   2.264   0.299 -1.8407  0.7178  2.3108
  740SOL     OW 2218   1.461   0.205   0.861 -0.4433  0.1743 -0.1878
  740SOL    HW1 2219   1.363   0.197   0.832  0.9309 -0.5615 -0.0446
  740SOL    HW2 2220   1.517   0.242   0.784 -1.5729  0.2026 -2.1762
  741SOL     OW 2221   2.222   0.792   0.529 -0.2447 -0.4076 -0.3255
  741SOL    HW1 2222   2.145   0.825   0.473  3.4829  1.7952 -1.1726
  741SOL    HW2 2223   2.309   0.819   0.486  3.1504  0.5824  1.6884
  742SOL     OW 2224   1.265   2.136   2.372 -0.4376 -0.1132 -0.3370
  742SOL    HW1 2225   1.298   2.185   2.455  0.7842  1.4433 -0.2716
  742SOL    HW2 2226   1.258   2.201   2.293  0.0005 -0.1060 -0.3240
  743SOL     OW 2227   2.052   0.373   1.884  0.2062  0.2609 -0.5625
  743SOL    HW1 2228   1.980   0.308   1.866  0.6012  0.6230 -1.4991
  743SOL    HW2 2229   2.136   0.317   1.911 -3.7755 -0.0710 -0.1064
  744SOL     OW 2230   2.328   0.329   1.125  0.0759 -0.3850  0.1581
  744SOL    HW1 2231   2.310   0.285   1.038  0.4722  2.0627  0.8137
  744SOL    HW2 2232   2.426   0.323   1.156 -2.5025 -1.1181 -1.8243
  745SOL     OW 2233   1.751   1.365   1.622 -0.2510  0.3993  0.0409
  745SOL    HW1 2234   1.752   1.307   1.702  0.6463 -2.2381 -0.2980
  745SOL    HW2 2235   1.730   1.307   1.544 -0.4190  2.3475  5.1272
  746SOL     OW 2236   1.651   1.333   0.990 -0.0474  0.1797 -0.0805
  746SOL    HW1 2237   1.610   1.347   0.899  1.3272 -0.7857  0.6391
  746SOL    HW2 2238   1.733   1.272   0.978  0.2405  0.9565 -0.2106
  747SOL     OW 2239   1.951   1.152   1.239 -0.0395 -0.2581 -0.2361
  747SOL    HW1 2240   1.990   1.231   1.183  1.5430  1.6734  1.7440
  747SOL    HW2 2241   1.944   1.060   1.191  1.4711 -1.0791  0.5306
  748SOL     OW 2242   0.223   2.528   0.812 -0.0014 -0.5680 -0.0060
  748SOL    HW1 2243   0.292   2.528   0.889  0.5291  0.4319 -0.6524
  748SOL    HW2 2244   0.264   2.483   0.731 -0.1364 -0.5086  0.7064
  749SOL     OW 2245   2.804   2.950   2.287  0.3095  0.2136 -0.2007
  749SOL    HW1 2246   2.731   3.004   2.241 -2.0889  0.1480 -0.5855
  749SOL    HW2 2247   2.802   2.854   2.261 -0.0649  0.3944 -0.3821
  750SOL     OW 2248   2.510   0.545   0.961 -0.3205  0.2070  0.3864
  750SOL    HW1 2249   2.529   0.535   1.060 -1.1963  0.0172 -0.1593
  750SOL    HW2 2250   2.437   0.614   0.938 -0.7336 -0.3519  0.6458
  751SOL     OW 2251   2.629   0.363   0.215 -0.1357 -0.1315 -0.3355
  751SOL    HW1 2252   2.723   0.398   0.217  0.6662  1.0342 -0.3857
  751SOL    HW2 2253   2.563   0.444   0.213 -2.7303  1.0945 -1.0237
  752SOL     OW 2254   0.323   2.890   0.926 -0.0098  0.3330 -0.2116
  752SOL    HW1 2255   0.268   2.823   0.985 -2.8824 -1.8823 -1.0998
  752SOL    HW2 2256   0.300   2.865   0.832  0.7327  0.7434  2.1530
  753SOL     OW 2257   1.264   0.675   1.982  0.4080 -0.0930  0.1265
  753SOL    HW1 2258   1.330   0.734   2.023 -0.0852  2.5061  3.1255
  753SOL    HW2 2259   1.292   0.642   1.891  0.4229  2.0284  1.7567
  754SOL     OW 2260   1.867   2.241   1.884 -0.3197 -0.1653 -0.6889
  754SOL    HW1 2261   1.824   2.336   1.879  0.7863  0.9681  1.4931
  754SOL    HW2 2262   1.802   2.164   1.862 -1.1342 -1.2878 -1.5673
  755SOL     OW 2263   2.679   0.792   0.654 -0.6893  0.1599 -0.0953
  755SOL    HW1 2264   2.606   0.841   0.703  0.1369 -0.3201 -2.8473
  755SOL    HW2 2265   2.744   0.846   0.598 -0.4051 -0.4049 -2.0703
  756SOL     OW 2266   1.490   1.463   2.635 -0.1167  0.1686  0.1524
  756SOL    HW1 2267   1.413   1.498   2.688  1.6335  1.1767  2.2049
  756SOL    HW2 2268   1.545   1.540   2.607  0.2926 -3.7292  0.8048
  757SOL     OW 2269   1.622   3.065   0.413 -0.0889 -0.3967  0.0891
  757SOL    HW1 2270   1.525   3.044   0.438  0.9075 -1.2072  0.2476
  757SOL    HW2 2271   1.635   0.057   0.383 -0.5524  1.2752  2.8043
  758SOL     OW 2272   0.344   0.194   1.354  0.1098  0.2715  0.1873
  758SOL    HW1 2273   0.264   0.140   1.320  0.1401 -0.4737  0.5154
  758SOL    HW2 2274   0.381   0.254   1.277 -0.6511  0.9882 -2.2294
  759SOL     OW 2275   0.144   0.907   1.362 -0.2969  0.3166 -0.1175
  759SOL    HW1 2276   0.188   0.826   1.412  1.0416 -3.8643 -0.9404
  759SOL    HW2 2277   0.041   0.912   1.373 -2.5032 -0.7593 -1.1483
  760SOL     OW 2278   2.249   0.980   0.969 -0.3072 -0.0394 -0.4250
  760SOL    HW1 2279   2.199   1.000   0.882  0.4510 -1.3683 -0.2996
  760SOL    HW2 2280   2.297   1.068   0.999 -0.7632  1.8990 -0.0956
  761SOL     OW 2281   1.524   1.042   0.728 -0.2360  0.0070 -0.2306
  761SOL    HW1 2282   1.474   0.962   0.764  0.3191  1.2960 -0.0520
  761SOL    HW2 2283   1.555   1.103   0.801  1.3393  3.3574 -0.4855
  762SOL     OW 2284   2.341   2.276   1.410 -0.1382  0.2559  0.3229
  762SOL    HW1 2285   2.240   2.266   1.424  1.5091  0.3239  0.6479
  762SOL    HW2 2286   2.380   2.345   1.347  2.5595 -3.8782 -0.2550
  763SOL     OW 2287   1.482   1.377   1.941  0.2519  0.0510 -0.2467
  763SOL    HW1 2288   1.573   1.331   1.945  2.5678 -0.2462 -0.2463
  763SOL    HW2 2289   1.431   1.346   1.858  0.9132 -1.6087  0.4398
  764SOL     OW 2290   0.202   1.786   2.528  0.1627  0.0261 -0.3726
  764SOL    HW1 2291   0.129   1.793   2.457 -0.9271  0.4511  0.0559
  764SOL    HW2 2292   0.221   1.874   2.577  1.9078 -0.6218  0.8959
  765SOL     OW 2293   0.820   2.611   1.235  0.7012 -0.4957 -0.2764
  765SOL    HW1 2294   0.763   2.532   1.264 -2.0886  0.9173  0.2397
  765SOL    HW2 2295   0.803   2.629   1.139  1.6104  1.1551  2.2228
  766SOL     OW 2296   0.864   2.231   2.369 -0.7581 -0.4812  0.4075
  766SOL    HW1 2297   0.936   2.286   2.332 -0.9608 -1.0246 -2.0465
  766SOL    HW2 2298   0.908   2.152   2.411 -2.6049  0.4371 -1.2225
  767SOL     OW 2299   2.058   0.334   2.263  0.0307 -0.0407 -0.1323
  767SOL    HW1 2300   2.126   0.273   2.223  1.7627  0.3639  0.6187
  767SOL    HW2 2301   2.041   0.324   2.363  0.7921 -0.6588  0.2797
  768SOL     OW 2302   1.202   2.649   2.993 -0.4227 -0.1193  0.1411
  768SOL    HW1 2303   1.145   2.572   3.023  1.8086 -1.8440  0.5246
  768SOL    HW2 2304   1.195   2.717   3.067  1.5764  0.0086 -1.9603
  769SOL     OW 2305   0.181   2.736   1.081  0.0911  0.3871 -0.1385
  769SOL    HW1 2306   0.086   2.753   1.111 -1.7091  3.0779 -1.8060
  769SOL    HW2 2307   0.196   2.636   1.077  1.4503  0.0685  0.4083
  770SOL     OW 2308   0.528   2.861   2.949 -0.1896 -0.1447 -0.4094
  770SOL    HW1 2309   0.455   2.797   2.975  2.1904  0.1096 -0.2772
  770SOL    HW2 2310   0.590   2.812   2.885 -1.2082  1.9941 -1.4631
  771SOL     OW 2311   0.984   2.497   2.670 -0.1622 -0.9374  0.2422
  771SOL    HW1 2312   1.011   2.414   2.725 -0.8951 -0.2658 -1.9694
  771SOL    HW2 2313   0.905   2.489   2.607 -0.3539 -1.5745 -2.4917
  772SOL     OW 2314   2.368   2.998   2.017  0.4236 -0.0422 -0.0011
  772SOL    HW1 2315   2.315   2.964   2.095 -0.9984 -1.2528 -1.2068
  772SOL    HW2 2316   2.299   3.029   1.949 -0.3091  1.7657 -0.1562
  773SOL     OW 2317   1.007   2.689   1.891 -0.0256  0.1003 -0.2345
  773SOL    HW1 2318   0.972   2.596   1.878 -1.0601  3.1282  2.4911
  773SOL    HW2 2319   1.002   2.709   1.988  0.4418 -1.0209 -1.1805
  774SOL     OW 2320   1.375   0.412   2.105  0.1824 -0.8107 -0.0562
  774SOL    HW1 2321   1.457   0.364   2.123 -1.3821 -0.9562 -0.9774
  774SOL    HW2 2322   1.377   0.455   2.013  2.3442  0.2760  2.1257
  775SOL     OW 2323   1.979   3.023   0.049 -0.0730  0.1675  0.0512
  775SOL    HW1 2324   2.030   2.941   0.014 -2.9238 -1.1497 -1.3992
  775SOL    HW2 2325   1.910   2.988   0.118  1.3002 -0.8995 -1.6757
  776SOL     OW 2326   2.204   0.807   1.746 -0.3673 -0.7884 -0.3694
  776SOL    HW1 2327   2.149   0.725   1.771  0.4252  2.0471  0.6288
  776SOL    HW2 2328   2.172   0.891   1.791 -3.0275  3.0539 -0.5978
  777SOL     OW 2329   2.810   1.144   2.310  0.5022  0.1169 -0.1388
  777SOL    HW1 2330   2.727   1.137   2.366  2.0155 -1.1945 -0.1703
  777SOL    HW2 2331   2.810   1.071   2.240 -0.6019 -4.5694  2.0023
  778SOL     OW 2332   2.376   0.510   2.070 -0.6344  0.8580  0.1236
  778SOL    HW1 2333   2.398   0.595   2.020  0.0636  1.0731  1.3471
  778SOL    HW2 2334   2.367   0.433   2.005  1.5825  0.7601  0.1056
  779SOL     OW 2335   0.040   3.043   0.007  0.5519  0.0945  0.3818
  779SOL    HW1 2336   0.089   3.091   3.041 -1.8637 -3.1980  0.7215
  779SOL    HW2 2337   0.033   3.103   0.090 -0.2011  0.0200 -1.7524
  780SOL     OW 2338   1.884   3.101   2.377 -0.0186 -0.1434 -0.3236
  780SOL    HW1 2339   1.947   3.090   2.296 -0.0527  0.8707  0.9964
  780SOL    HW2 2340   1.943   0.014   2.457 -3.4407  1.2746 -0.4360
  781SOL     OW 2341   0.147   0.932   1.833 -0.2281  0.3319  0.4751
  781SOL    HW1 2342   0.188   0.945   1.737  0.2685  0.1747 -0.2919
  781SOL    HW2 2343   0.187   1.003   1.897  1.0990  2.7803 -2.1469
  782SOL     OW 2344   1.936   2.173   0.338 -0.6009 -0.0128  0.2500
  782SOL    HW1 2345   2.031   2.190   0.308 -0.0167  0.2430  1.9098
  782SOL    HW2 2346   1.934   2.140   0.436 -0.7175 -0.5629  0.8726
  783SOL     OW 2347   0.873   1.752   1.345 -0.2120  0.3388 -0.4807
  783SOL    HW1 2348   0.912   1.823   1.282  1.8130 -2.1442 -0.1091
  783SOL    HW2 2349   0.929   1.725   1.430 -1.4313  0.0214  1.2344
  784SOL     OW 2350   1.975   0.593   2.168  0.1578 -0.0609 -0.1716
  784SOL    HW1 2351   2.013   0.506   2.198  0.9910 -1.3108 -0.9478
  784SOL    HW2 2352   2.046   0.649   2.124  0.4293  0.2853 -0.0967
  785SOL     OW 2353   2.903   0.230   1.077 -0.1756  0.1074 -0.0844
  785SOL    HW1 2354   2.901   0.263   1.174 -0.3819 -1.2874 -2.3690
  785SOL    HW2 2355   2.973   0.157   1.071  0.7821  2.1462 -1.2511
  786SOL     OW 2356   1.808   2.946   0.232 -0.1045 -0.6254 -0.5342
  786SOL    HW1 2357   1.740   3.001   0.279 -0.6172  1.1295  0.7274
  786SOL    HW2 2358   1.802   2.847   0.255  0.0111 -0.5194 -1.8581
  787SOL     OW 2359   1.174   0.190   0.788 -0.4753  0.8194  0.6348
  787SOL    HW1 2360   1.206   0.279   0.746 -0.2893 -0.5262 -0.3439
  787SOL    HW2 2361   1.109   0.207   0.861  0.1593 -0.0196 -1.0335
  788SOL     OW 2362   0.036   1.839   1.292  0.2023 -0.6183 -0.0412
  788SOL    HW1 2363   0.039   1.851   1.189  2.0747  0.8546 -0.9615
  788SOL    HW2 2364   0.131   1.844   1.333  0.4092 -1.6968  2.5079
  789SOL     OW 2365   2.814   0.658   2.067 -0.5458  0.3594  0.1649
  789SOL    HW1 2366   2.838   0.560   2.075 -1.6029  1.4552  1.5148
  789SOL    HW2 2367   2.816   0.698   2.165  2.3264  0.8115  0.2620
  790SOL     OW 2368   0.691   0.740   2.866 -0.6727  0.5165  0.1196
  790SOL    HW1 2369   0.740   0.722   2.779 -1.7912 -0.2505  3.0241
  790SOL    HW2 2370   0.593   0.746   2.850 -0.2503 -0.1650 -0.1246
  791SOL     OW 2371   2.607   0.326   3.016  0.1652  0.0346  0.1102
  791SOL    HW1 2372   2.622   0.249   2.949  3.7231 -1.4857 -0.2680
  791SOL    HW2 2373   2.559   0.299   3.106  1.4302 -2.1358  2.6997
  792SOL     OW 2374   1.323   0.748   1.335 -0.7202  0.5636 -0.1220
  792SOL    HW1 2375   1.320   0.792   1.240 -1.0810 -0.3576 -0.0165
  792SOL    HW2 2376   1.231   0.759   1.378  1.1387 -0.0548  0.1461
  793SOL     OW 2377   2.803   0.165   1.678 -0.0369 -0.0894  0.7188
  793SOL    HW1 2378   2.768   0.184   1.771  1.1387 -3.2345  0.5833
  793SOL    HW2 2379   2.863   0.245   1.662 -1.3522 -0.3146 -1.5454
  794SOL     OW 2380   3.024   0.061   2.119  0.3028  0.3215 -0.1088
  794SOL    HW1 2381   3.101   0.126   2.116 -1.0903  0.0518 -3.6101
  794SOL    HW2 2382   2.993   0.039   2.025  4.8821  0.6162  0.5543
  795SOL     OW 2383   0.605   2.220   2.672 -0.1546 -0.1674  0.3158
  795SOL    HW1 2384   0.662   2.298   2.636 -1.3770 -0.2158 -0.6384
  795SOL    HW2 2385   0.671   2.151   2.702 -1.0569 -1.0403  1.2046
  796SOL     OW 2386   1.957   0.608   2.585  0.4371  0.2013  0.4359
  796SOL    HW1 2387   1.916   0.653   2.501 -0.8168 -1.8720  0.3193
  796SOL    HW2 2388   1.912   0.637   2.673  2.7749 -2.5740 -0.7809
  797SOL     OW 2389   2.339   2.064   0.011  0.1604  0.0713 -0.0471
  797SOL    HW1 2390   2.366   2.142   3.062 -0.0325 -1.4611 -0.4881
  797SOL    HW2 2391   2.425   2.030   0.054  0.2250 -0.1138  1.0971
  798SOL     OW 2392   3.056   0.507   1.430  0.5488 -0.2180 -0.2560
  798SOL    HW1 2393   0.019   0.527   1.359  0.1743  0.9470 -2.0030
  798SOL    HW2 2394   2.976   0.576   1.424 -2.3088  1.2103  0.3583
  799SOL     OW 2395   0.497   0.254   1.808 -0.0101  0.0478  0.1163
  799SOL    HW1 2396   0.578   0.297   1.848  0.0220  0.6348 -1.7598
  799SOL    HW2 2397   0.521   0.170   1.747  1.3004 -3.1381 -0.3147
  800SOL     OW 2398   0.039   2.345   0.295  0.2393 -0.2852 -0.4995
  800SOL    HW1 2399   0.013   2.261   0.349  0.0896  1.0221 -0.2162
  800SOL    HW2 2400   3.068   2.366   0.223 -4.0408 -3.8344 -1.9307
  801SOL     OW 2401   1.578   1.729   0.736 -0.4902  0.4530  0.0659
  801SOL    HW1 2402   1.635   1.710   0.816 -1.0382  0.8468  0.0969
  801SOL    HW2 2403   1.487   1.687   0.755 -0.4191 -0.8013  0.9764
  802SOL     OW 2404   0.823   0.558   0.340  0.0570  0.6779  0.6848
  802SOL    HW1 2405   0.722   0.561   0.349  2.3631 -2.0737 -3.0135
  802SOL    HW2 2406   0.859   0.652   0.322  0.0565  2.5296  1.0283
  803SOL     OW 2407   1.361   1.309   1.674 -0.5174 -0.1727  0.1582
  803SOL    HW1 2408   1.301   1.237   1.714  0.1088 -0.4511  2.6427
  803SOL    HW2 2409   1.332   1.338   1.585 -0.1171  2.2563  1.8146
  804SOL     OW 2410   1.738   2.243   1.389 -0.2433 -0.2214  0.2994
  804SOL    HW1 2411   1.818   2.297   1.403  0.6098 -3.8028 -1.8907
  804SOL    HW2 2412   1.721   2.232   1.289 -1.4523 -1.8127  0.2964
  805SOL     OW 2413   0.069   2.110   2.398 -0.0106  0.3426 -0.0891
  805SOL    HW1 2414   0.082   2.024   2.339 -2.5776  0.6082 -1.5092
  805SOL    HW2 2415   0.117   2.194   2.358  2.7957  1.8718 -1.5359
  806SOL     OW 2416   0.946   2.631   0.294  0.2628 -0.6089 -0.1361
  806SOL    HW1 2417   0.946   2.694   0.211  1.0489 -2.7654 -1.5026
  806SOL    HW2 2418   0.888   2.553   0.272  0.7966 -1.3191  0.9816
  807SOL     OW 2419   2.578   0.968   2.916  0.2902  0.0178  0.0077
  807SOL    HW1 2420   2.599   1.064   2.950 -2.3750  1.3553 -0.7449
  807SOL    HW2 2421   2.594   0.907   2.993  0.9886  2.5264  1.6103
  808SOL     OW 2422   1.391   1.936   0.971 -0.0410  0.2740  0.6747
  808SOL    HW1 2423   1.492   1.958   0.975  1.5767 -1.9334  2.8934
  808SOL    HW2 2424   1.333   2.007   1.016  1.3207 -2.8229 -0.8467
  809SOL     OW 2425   0.145   0.504   0.661  0.1138 -0.2994  0.1491
  809SOL    HW1 2426   0.106   0.551   0.745 -0.3162  2.5425 -0.8984
  809SOL    HW2 2427   0.136   0.405   0.679 -0.5835 -2.8774  1.2765
  810SOL     OW 2428   1.419   1.293   0.064  1.6262 -0.3698 -0.6493
  810SOL    HW1 2429   1.492   1.275   3.105 -1.6425 -0.4098  1.2273
  810SOL    HW2 2430   1.445   1.285   0.163 -0.2302 -0.4022  0.9198
  811SOL     OW 2431   1.431   2.878   1.304  0.5062 -0.2814 -0.8598
  811SOL    HW1 2432   1.499   2.805   1.322  0.3291  0.9995 -0.4606
  811SOL    HW2 2433   1.341   2.843   1.337 -1.0541 -2.0574 -1.2897
  812SOL     OW 2434   1.294   0.417   0.650 -0.3011 -0.3661 -0.1779
  812SOL    HW1 2435   1.328   0.426   0.553 -0.9175  2.6721  1.8093
  812SOL    HW2 2436   1.293   0.513   0.686 -0.3595 -0.5373  0.1909
  813SOL     OW 2437   1.190   3.049   2.336  0.5569  0.8402  0.1023
  813SOL    HW1 2438   1.255   3.041   2.417  1.5791  1.0658  1.3097
  813SOL    HW2 2439   1.227   0.008   2.271 -0.7044 -0.2481  1.0237
  814SOL     OW 2440   1.200   2.808   1.413  0.4334  0.2421  0.0699
  814SOL    HW1 2441   1.151   2.722   1.416 -1.2821  3.9060  0.3110
  814SOL    HW2 2442   1.207   2.838   1.510  1.0279 -1.2700  2.3298
  815SOL     OW 2443   0.082   2.767   0.021  0.0000  0.5077  0.3779
  815SOL    HW1 2444   0.050   2.860   0.030  0.8758 -2.8619  0.6980
  815SOL    HW2 2445   0.046   2.712   0.102 -0.4942 -2.9815  1.7566
  816SOL     OW 2446   2.339   1.344   2.793  0.0259  0.3137 -0.0521
  816SOL    HW1 2447   2.278   1.416   2.759  2.3673  0.1439 -1.7075
  816SOL    HW2 2448   2.327   1.260   2.730 -2.0660 -0.5585 -0.8287
  817SOL     OW 2449   2.214   2.095   2.423  0.6653  0.1345  0.2745
  817SOL    HW1 2450   2.164   2.003   2.429  0.6141 -0.7369  1.0487
  817SOL    HW2 2451   2.252   2.114   2.513 -0.7521 -2.8333  1.2263
  818SOL     OW 2452   1.109   0.999   0.160 -0.0777 -0.2065 -0.0777
  818SOL    HW1 2453   1.095   1.039   0.252 -0.1720 -1.2098 -2.6377
  818SOL    HW2 2454   1.053   1.047   0.089  2.7233 -1.7387 -0.2413
  819SOL     OW 2455   1.700   1.346   3.055 -0.0482 -0.0033  0.0695
  819SOL    HW1 2456   1.700   1.325   2.956 -0.6051  0.4459  0.3187
  819SOL    HW2 2457   1.785   1.323   3.103  1.4813 -0.4427  1.0523
  820SOL     OW 2458   0.249   0.874   0.736 -0.3669 -0.0294  0.4805
  820SOL    HW1 2459   0.232   0.808   0.811 -1.3644  2.6760  1.5057
  820SOL    HW2 2460   0.204   0.837   0.651 -0.8747 -0.3679  0.3165
  821SOL     OW 2461   0.378   3.069   1.482 -0.0770 -0.5279 -1.0910
  821SOL    HW1 2462   0.357   0.055   1.443 -0.4054  0.1256  2.7509
  821SOL    HW2 2463   0.374   2.998   1.414 -1.0183  0.7847  4.0643
  822SOL     OW 2464   1.906   1.979   2.933 -0.4696  0.1252 -0.3533
  822SOL    HW1 2465   1.935   2.079   2.942 -1.0947  4.3530 -2.0511
  822SOL    HW2 2466   1.811   1.973   2.897 -0.8183 -0.7487  1.7774
  823SOL     OW 2467   0.865   0.542   2.178 -0.2033  0.0815 -0.5293
  823SOL    HW1 2468   0.880   0.560   2.077 -4.9479 -1.1237 -1.7594
  823SOL    HW2 2469   0.827   0.624   2.223  1.5238 -0.7317 -2.4726
  824SOL     OW 2470   2.501   3.031   1.514  0.5234  0.1518 -0.0256
  824SOL    HW1 2471   2.471   0.012   1.480  0.8471 -1.8283  0.1900
  824SOL    HW2 2472   2.417   2.982   1.553  1.4728  0.5771  3.4835
  825SOL     OW 2473   0.153   1.385   2.525  0.5494  0.1459  0.1814
  825SOL    HW1 2474   0.220   1.414   2.457 -1.8632 -1.0293  1.9595
  825SOL    HW2 2475   0.071   1.352   2.477  3.3513 -0.2793 -1.4349
  826SOL     OW 2476   1.646   0.488   2.667 -0.0376  0.3188 -0.0216
  826SOL    HW1 2477   1.611   0.508   2.575  3.4688 -0.0038  0.0345
  826SOL    HW2 2478   1.671   0.389   2.682  0.9989 -1.6591  0.8806
  827SOL     OW 2479   0.450   2.427   2.372 -0.0717  0.4598 -0.2111
  827SOL    HW1 2480   0.507   2.344   2.352  0.0512  2.3121 -0.0993
  827SOL    HW2 2481   0.507   2.510   2.377  0.6593 -2.8902  1.6283
  828SOL     OW 2482   3.024   0.001   1.449 -0.1389 -0.0289 -0.2851
  828SOL    HW1 2483   3.097   3.062   1.500 -1.0820  1.7408 -1.5288
  828SOL    HW2 2484   2.933   3.067   1.476 -3.3206 -2.7234 -0.2238
  829SOL     OW 2485   1.369   1.640   1.970  0.3361  0.0212 -0.0292
  829SOL    HW1 2486   1.437   1.572   2.004  1.2471 -1.7347  0.3251
  829SOL    HW2 2487   1.349   1.723   2.022 -2.8210  0.1178 -0.5034
  830SOL     OW 2488   0.935   1.084   1.366 -0.1168 -0.1773 -0.2552
  830SOL    HW1 2489   0.928   1.037   1.279 -0.3306  2.3438  0.7158
  830SOL    HW2 2490   0.842   1.091   1.405 -3.1955 -0.3882  1.3613
  831SOL     OW 2491   2.963   1.909   0.422  0.0797 -0.2112  0.0376
  831SOL    HW1 2492   2.910   1.882   0.338  1.3525 -0.1641 -3.0500
  831SOL    HW2 2493   2.923   1.878   0.509 -0.7613  1.1139 -0.7043
  832SOL     OW 2494   1.236   2.652   0.257  0.1981  0.4067 -0.0130
  832SOL    HW1 2495   1.140   2.649   0.289 -1.0261  1.3384 -2.4297
  832SOL    HW2 2496   1.270   2.566   0.212  0.5390  0.8968 -0.0397
  833SOL     OW 2497   0.176   0.547   1.607  0.2439 -0.1702  0.4863
  833SOL    HW1 2498   0.260   0.499   1.572  0.4846 -1.0662 -0.4536
  833SOL    HW2 2499   0.093   0.520   1.558  2.7608  0.3273  1.0292
  834SOL     OW 2500   2.818   0.678   1.126 -0.3692 -0.2540 -0.4088
  834SOL    HW1 2501   2.914   0.713   1.113 -0.7852 -1.3982 -0.9232
  834SOL    HW2 2502   2.774   0.670   1.038 -2.2977 -0.1369  0.2966
  835SOL     OW 2503   2.560   0.140   0.383  0.5280  0.2303  0.0383
  835SOL    HW1 2504   2.582   0.226   0.331  1.2994  1.9115 -1.5641
  835SOL    HW2 2505   2.567   0.061   0.316 -0.5417 -1.2105 -2.8577
  836SOL     OW 2506   1.019   2.014   2.763 -0.1209 -0.1737 -0.0996
  836SOL    HW1 2507   0.992   1.928   2.810  0.3630 -1.7324 -0.6040
  836SOL    HW2 2508   1.055   1.994   2.668 -1.0961  0.3538 -2.5075
  837SOL     OW 2509   1.732   1.742   0.230 -0.5843 -0.1454 -0.0911
  837SOL    HW1 2510   1.712   1.696   0.319  1.5085 -1.9095  1.3311
  837SOL    HW2 2511   1.704   1.687   0.146 -0.7839  1.2512 -0.4843
  838SOL     OW 2512   2.636   0.805   2.427 -0.1293  0.1292 -0.2454
  838SOL    HW1 2513   2.650   0.859   2.513  1.1823  0.7137 -2.9331
  838SOL    HW2 2514   2.587   0.861   2.356  0.2328 -0.5527  1.0653
  839SOL     OW 2515   0.833   1.013   2.330  0.2621  0.3835  0.0807
  839SOL    HW1 2516   0.921   1.060   2.331 -2.3778  1.0916  1.2656
  839SOL    HW2 2517   0.795   0.992   2.420  0.9230  1.0676 -1.9012
  840SOL     OW 2518   0.897   0.938   2.845 -0.3710  0.0282  0.0300
  840SOL    HW1 2519   0.930   0.979   2.930  1.8625 -0.2098 -1.2977
  840SOL    HW2 2520   0.823   0.872   2.859  1.8835 -1.8801 -2.1138
  841SOL     OW 2521   0.817   2.584   0.728  0.1705  0.5690  1.0413
  841SOL    HW1 2522   0.897   2.628   0.684  2.3761 -1.8074  1.9525
  841SOL    HW2 2523   0.812   2.485   0.696  0.1017 -0.9687 -3.3141
  842SOL     OW 2524   0.251   0.744   0.975  0.4476 -0.1480  0.0785
  842SOL    HW1 2525   0.297   0.812   1.031  1.6705 -0.8403 -2.3862
  842SOL    HW2 2526   0.306   0.658   0.965 -1.8342  1.3256  1.2494
  843SOL     OW 2527   0.682   1.072   1.478 -0.1220 -0.0184 -0.1627
  843SOL    HW1 2528   0.615   1.000   1.504  1.4580 -1.2377  1.4092
  843SOL    HW2 2529   0.690   1.143   1.554 -0.3455  3.2309 -0.2549
  844SOL     OW 2530   2.110   2.507   2.689 -0.2825  0.0240  0.4795
  844SOL    HW1 2531   2.043   2.579   2.711  0.4669  0.9910 -1.2747
  844SOL    HW2 2532   2.155   2.539   2.603  2.2218  1.2765 -0.6348
  845SOL     OW 2533   2.218   2.984   1.540  0.4169 -0.5151 -0.2711
  845SOL    HW1 2534   2.213   3.047   1.456  0.8484  1.9412 -0.4002
  845SOL    HW2 2535   2.161   2.904   1.530  3.7692  0.9284  2.3397
  846SOL     OW 2536   2.024   0.952   2.425  0.0840  0.3161  0.4092
  846SOL    HW1 2537   1.963   0.877   2.403  0.2174  0.4760  0.3309
  846SOL    HW2 2538   2.056   0.944   2.521  0.4199  1.7756 -2.9605
  847SOL     OW 2539   2.506   2.767   1.884 -0.4862 -0.3142 -0.3548
  847SOL    HW1 2540   2.456   2.850   1.909 -1.8723  0.0615 -0.1298
  847SOL    HW2 2541   2.486   2.738   1.788 -1.5348  1.4788  0.1813
  848SOL     OW 2542   2.787   2.774   0.116  0.0671 -0.1960  0.1026
  848SOL    HW1 2543   2.714   2.839   0.147 -1.5989 -1.5763 -0.9940
  848SOL    HW2 2544   2.849   2.815   0.044  2.5475  0.4978 -0.0261
  849SOL     OW 2545   0.236   0.064   0.938 -0.1427 -0.0885  0.5676
  849SOL    HW1 2546   0.272   3.076   0.938 -0.9863  0.2517  0.3035
  849SOL    HW2 2547   0.317   0.128   0.934  1.3306  0.5571 -1.0167
  850SOL     OW 2548   0.478   2.196   0.717  0.0960 -0.6253 -0.1941
  850SOL    HW1 2549   0.412   2.271   0.688 -0.5178  2.1606  0.8930
  850SOL    HW2 2550   0.549   2.187   0.644  0.7530  2.5066 -1.4888
  851SOL     OW 2551   2.037   0.329   0.047 -0.3717  0.0115  0.0958
  851SOL    HW1 2552   2.047   0.257   3.084  0.1687  2.7715 -0.8279
  851SOL    HW2 2553   1.938   0.342   0.076 -3.3393 -0.2404  2.7862
  852SOL     OW 2554   1.673   2.063   2.764  0.2710 -0.1546 -0.3088
  852SOL    HW1 2555   1.582   2.019   2.758 -0.5780  1.3287  0.8521
  852SOL    HW2 2556   1.721   2.072   2.674 -0.9437 -2.5049  1.4986
  853SOL     OW 2557   0.047   2.038   0.176  0.0185 -0.0139  0.3886
  853SOL    HW1 2558   0.013   1.946   0.156 -2.8388 -1.4068  1.1660
  853SOL    HW2 2559   0.149   2.040   0.184  1.0491 -2.2884  1.3207
  854SOL     OW 2560   1.741   0.622   2.009  0.1586 -0.3522  0.1212
  854SOL    HW1 2561   1.701   0.528   2.008  1.9106  0.7217  0.4244
  854SOL    HW2 2562   1.821   0.616   2.067 -2.6379  0.3511 -3.0836
  855SOL     OW 2563   0.321   2.719   0.450 -0.1605  0.1192 -0.1790
  855SOL    HW1 2564   0.410   2.683   0.422 -4.6337  0.3110  1.5868
  855SOL    HW2 2565   0.250   2.683   0.383 -1.3053  0.5847  2.2448
  856SOL     OW 2566   0.295   2.808   2.538 -0.4235  0.1250 -0.0211
  856SOL    HW1 2567   0.271   2.865   2.622 -0.6957  0.7079 -1.6235
  856SOL    HW2 2568   0.382   2.842   2.497 -1.0709 -1.6226  1.3106
  857SOL     OW 2569   0.770   0.085   1.585  0.2394  0.1228  0.5237
  857SOL    HW1 2570   0.780   0.158   1.516  2.0865  2.5991 -1.8354
  857SOL    HW2 2571   0.672   0.061   1.606  0.6564  2.6755  0.5281
  858SOL     OW 2572   0.418   2.221   2.064  0.3210 -0.7517  0.1195
  858SOL    HW1 2573   0.359   2.141   2.071  6.0675  1.9706 -3.4829
  858SOL    HW2 2574   0.422   2.250   1.967 -1.2204  1.8162 -1.2027
  859SOL     OW 2575   1.918   2.607   1.682 -0.1105  0.3633  0.4429
  859SOL    HW1 2576   1.875   2.557   1.759 -0.7592  4.8996 -0.3886
  859SOL    HW2 2577   1.976   2.547   1.628  2.6350  0.1495 -3.6683
  860SOL     OW 2578   1.530   0.587   0.537  0.0288  0.1449 -0.1022
  860SOL    HW1 2579   1.475   0.671   0.520  1.2627  2.4846  0.6720
  860SOL    HW2 2580   1.588   0.604   0.618 -1.6364 -0.1616  1.1700
  861SOL     OW 2581   3.045   0.642   0.814 -0.3345  0.6167 -0.2817
  861SOL    HW1 2582   3.022   0.730   0.770  1.9752 -0.6015  1.1413
  861SOL    HW2 2583   2.957   0.589   0.816 -0.8050  2.1313  0.4009
  862SOL     OW 2584   1.892   0.912   1.413 -0.2210 -0.8862 -0.1814
  862SOL    HW1 2585   1.807   0.903   1.362  0.4709 -0.6133  0.5378
  862SOL    HW2 2586   1.943   0.824   1.421  0.7569  1.1303  0.6303
  863SOL     OW 2587   0.706   1.227   1.248 -0.2316  0.3764  0.6420
  863SOL    HW1 2588   0.698   1.152   1.312  2.2100  0.3144 -0.1414
  863SOL    HW2 2589   0.793   1.223   1.194 -0.0708 -1.7427  2.8617
  864SOL     OW 2590   2.851   2.692   2.198 -0.4330  0.1385  0.3213
  864SOL    HW1 2591   2.936   2.642   2.229 -2.0317  0.0752 -0.8408
  864SOL    HW2 2592   2.835   2.667   2.100  3.4276 -1.0663 -1.1096
  865SOL     OW 2593   1.094   0.393   2.189 -0.4699 -0.1505  0.0506
  865SOL    HW1 2594   1.031   0.452   2.244 -0.6934 -0.2022 -0.9137
  865SOL    HW2 2595   1.191   0.423   2.199  0.8864  1.8641  2.7353
  866SOL     OW 2596   2.414   2.784   0.298 -0.2137 -0.1815  0.4122
  866SOL    HW1 2597   2.333   2.830   0.337  2.2522 -3.2608 -3.3949
  866SOL    HW2 2598   2.500   2.828   0.334  1.7073  0.2624 -2.0140
  867SOL     OW 2599   2.694   2.800   0.502  0.0668  0.4152  0.3814
  867SOL    HW1 2600   2.713   2.700   0.481 -0.0762 -0.0748 -1.2131
  867SOL    HW2 2601   2.777   2.840   0.531 -2.2973 -2.3516 -3.9492
  868SOL     OW 2602   1.917   1.246   2.744 -0.6790  0.0956 -0.2486
  868SOL    HW1 2603   1.939   1.167   2.807 -0.5190  0.1340 -0.2191
  868SOL    HW2 2604   1.820   1.271   2.765  1.1395 -1.7255 -0.1352
  869SOL     OW 2605   2.705   2.524   0.467 -0.2545 -0.8764  0.1213
  869SOL    HW1 2606   2.751   2.433   0.470  0.0086 -2.9099  0.3484
  869SOL    HW2 2607   2.623   2.519   0.405  5.9071 -2.4099  0.2920
  870SOL     OW 2608   2.682   2.127   0.674 -0.4184  0.0601 -0.3198
  870SOL    HW1 2609   2.617   2.197   0.710  0.8263  0.5656 -0.1479
  870SOL    HW2 2610   2.656   2.034   0.714 -0.0788  1.2325  2.1437
  871SOL     OW 2611   0.496   1.331   1.103 -0.1890 -0.2374 -0.0354
  871SOL    HW1 2612   0.573   1.282   1.145  0.9080 -2.4921 -1.5756
  871SOL    HW2 2613   0.453   1.383   1.175  0.5466  1.1487  2.2977
  872SOL     OW 2614   1.388   1.751   2.480  0.3606 -0.6717 -0.1338
  872SOL    HW1 2615   1.290   1.745   2.449 -0.7346 -0.9696 -0.1294
  872SOL    HW2 2616   1.450   1.728   2.403 -2.3767  0.1070  1.1062
  873SOL     OW 2617   0.726   2.694   2.138  0.2069 -0.6944  0.8127
  873SOL    HW1 2618   0.698   2.714   2.040  2.5329  2.5821 -1.3004
  873SOL    HW2 2619   0.764   2.602   2.130 -1.2452  1.5087 -0.8296
  874SOL     OW 2620   0.725   0.582   1.289 -0.3874 -0.1808  0.4643
  874SOL    HW1 2621   0.660   0.655   1.285  0.3461 -2.8640  2.2924
  874SOL    HW2 2622   0.750   0.569   1.388 -1.5108 -0.5822 -2.7015
  875SOL     OW 2623   2.859   0.266   1.360 -0.0560  0.4212  0.3291
  875SOL    HW1 2624   2.940   0.326   1.380 -0.4608  1.0789  1.3227
  875SOL    HW2 2625   2.853   0.196   1.433 -0.4420 -0.3579 -1.2184
  876SOL     OW 2626   0.518   1.149   0.260 -0.0061 -0.0287 -0.2785
  876SOL    HW1 2627   0.413   1.148   0.272  0.0289 -0.3110  0.7062
  876SOL    HW2 2628   0.553   1.107   0.176 -0.8479  1.0325  0.9769
  877SOL     OW 2629   1.111   0.936   1.582 -0.3755  0.3374 -0.0771
  877SOL    HW1 2630   1.131   0.836   1.562 -0.4839 -1.8136 -0.1746
  877SOL    HW2 2631   1.062   0.981   1.508 -2.3416 -0.3946  1.5832
  878SOL     OW 2632   2.313   2.244   0.600 -0.5105 -0.2256  0.2228
  878SOL    HW1 2633   2.351   2.190   0.526  0.8099  0.5569 -0.4558
  878SOL    HW2 2634   2.362   2.232   0.691  1.3493 -0.5673  0.7182
  879SOL     OW 2635   2.798   1.625   1.582 -0.0594  0.1995  0.3925
  879SOL    HW1 2636   2.879   1.677   1.616 -1.5201 -0.7769 -2.8312
  879SOL    HW2 2637   2.808   1.610   1.484 -0.2409  2.3292  1.6773
  880SOL     OW 2638   1.616   2.460   0.711 -0.1669 -0.1496  0.4613
  880SOL    HW1 2639   1.610   2.463   0.814 -0.8998  0.1321  2.1598
  880SOL    HW2 2640   1.605   2.365   0.680  1.2967  0.8813 -0.1329
  881SOL     OW 2641   0.388   2.438   0.632  0.0419  0.6152 -0.0813
  881SOL    HW1 2642   0.373   2.419   0.529 -0.5351  0.5291 -4.9441
  881SOL    HW2 2643   0.451   2.516   0.642  0.1466  0.3596  0.9105
  882SOL     OW 2644   1.985   0.642   0.808  0.1268 -0.2419 -0.0472
  882SOL    HW1 2645   2.069   0.598   0.763  0.9418 -2.1604 -0.6235
  882SOL    HW2 2646   1.986   0.646   0.911 -2.2442  0.3388 -0.9653
  883SOL     OW 2647   1.540   0.817   1.484 -0.2608  0.3324 -0.0273
  883SOL    HW1 2648   1.604   0.737   1.482 -2.3250  1.2384  1.5109
  883SOL    HW2 2649   1.452   0.781   1.440 -1.4499 -1.4514 -1.0576
  884SOL     OW 2650   2.580   3.106   0.108  0.2458  0.7016 -0.4279
  884SOL    HW1 2651   2.595   3.061   0.017  0.8640 -3.5754  0.9551
  884SOL    HW2 2652   2.649   3.093   0.179  0.3275  0.7118 -1.1081
  885SOL     OW 2653   1.164   1.296   2.760 -0.7153 -0.1288  0.5311
  885SOL    HW1 2654   1.157   1.266   2.859 -0.7614  0.0792  2.0498
  885SOL    HW2 2655   1.209   1.388   2.754  1.7313  0.9193 -0.5388
  886SOL     OW 2656   1.427   1.885   2.751  0.4882 -0.2374 -0.0424
  886SOL    HW1 2657   1.409   1.860   2.650 -2.2198 -0.7407 -0.2229
  886SOL    HW2 2658   1.369   1.968   2.782  1.8262  4.0897  1.8488
  887SOL     OW 2659   1.182   0.446   1.273  0.1971 -0.0599 -0.3053
  887SOL    HW1 2660   1.207   0.404   1.182  1.3537 -0.1975 -5.0634
  887SOL    HW2 2661   1.168   0.545   1.266 -0.5961  2.2885  0.0108
  888SOL     OW 2662   2.363   0.762   1.559 -0.5554  0.0550 -0.3864
  888SOL    HW1 2663   2.302   0.798   1.632  0.3644  0.0164 -0.7179
  888SOL    HW2 2664   2.312   0.682   1.520  0.1327  2.1224 -1.6253
  889SOL     OW 2665   0.225   2.819   0.698 -0.0658  0.3045 -0.2775
  889SOL    HW1 2666   0.262   2.785   0.607 -1.1232 -2.5334 -0.5452
  889SOL    HW2 2667   0.186   2.734   0.746 -2.2044 -1.3568 -0.7561
  890SOL     OW 2668   1.803   2.107   0.674  0.3520 -0.1104 -0.0479
  890SOL    HW1 2669   1.886   2.169   0.677 -1.3914 -0.6917  0.7364
  890SOL    HW2 2670   1.730   2.158   0.626 -0.7351  0.7874  1.0633
  891SOL     OW 2671   0.198   0.920   2.947  0.3340 -0.0776 -0.0391
  891SOL    HW1 2672   0.211   0.831   2.909 -0.5633  2.8429  2.8545
  891SOL    HW2 2673   0.116   0.964   2.901 -2.9643  1.4820 -1.4590
  892SOL     OW 2674   2.983   2.414   1.190 -0.7834  0.3263 -0.3131
  892SOL    HW1 2675   3.060   2.421   1.125 -3.0405 -3.1379 -4.0565
  892SOL    HW2 2676   2.917   2.487   1.176  3.2011 -0.0890  3.0482
  893SOL     OW 2677   1.347   0.422   1.014 -0.3058 -0.6733 -0.2386
  893SOL    HW1 2678   1.406   0.359   0.968  0.7990  3.6947  0.9325
  893SOL    HW2 2679   1.405   0.474   1.086  1.6819  1.0916 -0.0116
  894SOL     OW 2680   2.749   0.582   0.833 -0.0611 -0.8069 -0.1360
  894SOL    HW1 2681   2.742   0.650   0.758  2.4223 -0.6855  0.2103
  894SOL    HW2 2682   2.658   0.577   0.875 -2.0833 -0.1717 -1.9601
  895SOL     OW 2683   1.637   1.111   2.312  0.4367  0.4160  0.5200
  895SOL    HW1 2684   1.568   1.187   2.330  0.1980  1.8943  1.8305
  895SOL    HW2 2685   1.727   1.140   2.272  2.7724 -0.4811 -0.0359
  896SOL     OW 2686   1.465   0.383   1.684 -0.3291  0.1593  0.0148
  896SOL    HW1 2687   1.546   0.321   1.690  1.7293 -0.5793  0.7549
  896SOL    HW2 2688   1.440   0.397   1.587  1.2209 -0.8962 -1.4722
  897SOL     OW 2689   0.568   1.608   1.707  0.7369  0.0618 -0.5960
  897SOL    HW1 2690   0.606   1.562   1.629  0.8426  0.3909  1.0365
  897SOL    HW2 2691   0.639   1.658   1.759 -0.7327 -0.6759  1.7316
  898SOL     OW 2692   2.154   2.531   2.094  0.2932 -0.2319 -0.1511
  898SOL    HW1 2693   2.167   2.447   2.155  1.9570 -0.1847  1.2112
  898SOL    HW2 2694   2.202   2.521   2.007  0.0412 -1.7388  0.7526
  899SOL     OW 2695   1.291   1.528   1.088 -0.0076  0.1967 -0.4869
  899SOL    HW1 2696   1.296   1.450   1.023 -1.1326  0.8913  0.2631
  899SOL    HW2 2697   1.194   1.538   1.127  0.5390  0.5990  1.0468
  900SOL     OW 2698   1.293   2.115   2.787 -0.3760 -0.3181 -1.0957
  900SOL    HW1 2699   1.198   2.090   2.763  1.2529 -0.0746 -0.6791
  900SOL    HW2 2700   1.321   2.197   2.733  0.8402 -1.0595 -0.8951
  901SOL     OW 2701   1.147   1.690   2.393  0.3387  0.4563 -0.0473
  901SOL    HW1 2702   1.121   1.703   2.299  0.1378  0.7831  0.7065
  901SOL    HW2 2703   1.059   1.670   2.447 -2.2233 -0.5762  1.2365
  902SOL     OW 2704   2.395   1.857   0.424  0.0434 -0.5292  0.1777
  902SOL    HW1 2705   2.372   1.797   0.344 -0.1626 -1.1537 -1.0142
  902SOL    HW2 2706   2.393   1.802   0.514  0.4520 -0.2480  0.8617
  903SOL     OW 2707   2.118   1.940   0.457 -0.1636 -0.4211  0.2016
  903SOL    HW1 2708   2.070   1.914   0.370  1.5893 -0.0663  1.4342
  903SOL    HW2 2709   2.217   1.921   0.447 -1.6171 -0.1020 -1.9695
  904SOL     OW 2710   1.138   0.760   2.248  0.4138 -0.4462 -0.0268
  904SOL    HW1 2711   1.122   0.851   2.202 -2.1859  2.0921  2.3212
  904SOL    HW2 2712   1.116   0.688   2.182  0.1402  1.6890 -1.8492
  905SOL     OW 2713   2.791   0.315   0.848 -0.1393 -0.0723 -0.3125
  905SOL    HW1 2714   2.764   0.413   0.831  1.0759  2.2867 -1.1117
  905SOL    HW2 2715   2.836   0.301   0.941  3.2787 -0.3556  0.7588
  906SOL     OW 2716   2.860   1.886   0.672 -0.1428  0.3312 -0.4185
  906SOL    HW1 2717   2.916   1.958   0.718  1.7577  0.4957 -0.5660
  906SOL    HW2 2718   2.769   1.876   0.711  0.6326  0.4917 -0.4170
  907SOL     OW 2719   1.240   0.391   0.377  0.1668 -0.2096  0.5136
  907SOL    HW1 2720   1.290   0.300   0.354  2.1463 -1.6095 -3.8251
  907SOL    HW2 2721   1.256   0.454   0.300  0.8731  0.6995 -0.6442
  908SOL     OW 2722   1.797   3.035   1.342  0.1321  0.0835  0.2774
  908SOL    HW1 2723   1.799   2.938   1.311  1.8274 -0.0039 -1.8861
  908SOL    HW2 2724   1.720   3.056   1.407 -1.4661  0.4329  0.3686
  909SOL     OW 2725   2.588   0.525   1.214  0.0849 -0.0900  0.5313
  909SOL    HW1 2726   2.676   0.569   1.194  0.4406  0.2846  0.9856
  909SOL    HW2 2727   2.595   0.423   1.227  0.5240 -2.3475 -0.6010
  910SOL     OW 2728   1.106   2.908   2.568  0.3138  0.6248  0.3611
  910SOL    HW1 2729   1.100   2.838   2.646 -1.3119 -0.0931 -2.5031
  910SOL    HW2 2730   1.124   2.871   2.477 -2.5169  1.2617  1.3618
  911SOL     OW 2731   2.136   1.051   1.876 -0.0596 -0.1609  0.3839
  911SOL    HW1 2732   2.193   1.101   1.947  0.9334 -0.7956 -1.0395
  911SOL    HW2 2733   2.101   1.115   1.807  0.0124  0.9512  1.0846
  912SOL     OW 2734   2.521   2.225   1.605  0.2128  0.0454  0.3871
  912SOL    HW1 2735   2.609   2.200   1.570 -1.4072  1.5830  1.0749
  912SOL    HW2 2736   2.455   2.233   1.528  1.8936 -0.9184  1.6627
  913SOL     OW 2737   2.650   2.318   1.223 -0.4628 -0.2013  0.0136
  913SOL    HW1 2738   2.695   2.382   1.293  0.9291  0.1182 -0.0896
  913SOL    HW2 2739   2.691   2.320   1.130 -2.5011 -1.7400  0.8486
  914SOL     OW 2740   2.168   1.815   1.407 -0.4486  0.4119  0.7266
  914SOL    HW1 2741   2.130   1.735   1.361 -2.6239  1.7004  0.2070
  914SOL    HW2 2742   2.128   1.824   1.499  0.1012 -0.5400 -0.8763
  915SOL     OW 2743   1.298   1.937   1.336 -0.3280  0.5329 -0.2278
  915SOL    HW1 2744   1.217   1.999   1.327  0.3504 -1.4278 -0.3779
  915SOL    HW2 2745   1.338   1.951   1.426  2.4664 -0.2270 -4.3733
  916SOL     OW 2746   3.034   2.759   1.205 -0.7565  0.2380  0.0240
  916SOL    HW1 2747   2.978   2.836   1.249 -1.1499  2.3349  1.2270
  916SOL    HW2 2748   2.976   2.701   1.142 -1.4434  0.6314 -0.1204
  917SOL     OW 2749   2.483   1.661   2.632  0.3793 -0.0601 -0.2143
  917SOL    HW1 2750   2.394   1.711   2.638 -4.1192 -0.4389 -0.1056
  917SOL    HW2 2751   2.548   1.700   2.701  1.2071  1.8239 -1.7787
  918SOL     OW 2752   1.774   2.090   2.504  0.3074  0.1296  0.0999
  918SOL    HW1 2753   1.707   2.121   2.429 -1.3428 -0.9476 -1.8482
  918SOL    HW2 2754   1.850   2.037   2.463 -0.9447  1.4789 -0.3502
  919SOL     OW 2755   1.674   2.073   1.817  0.3682 -0.2417  0.4098
  919SOL    HW1 2756   1.651   2.040   1.913 -0.0635 -0.3600 -0.8243
  919SOL    HW2 2757   1.686   1.994   1.752 -1.2490 -0.1064 -0.9349
  920SOL     OW 2758   0.206   0.070   2.950 -0.4639  0.1067 -0.3429
  920SOL    HW1 2759   0.187   0.164   2.924  1.6611  0.3977 -1.4296
  920SOL    HW2 2760   0.306   0.061   2.974  1.4600 -2.0480  0.6161
  921SOL     OW 2761   2.634   0.199   2.290 -0.3833 -0.4612 -0.4941
  921SOL    HW1 2762   2.733   0.179   2.309 -1.7719 -0.1805  0.6578
  921SOL    HW2 2763   2.620   0.293   2.260 -0.3352 -1.8796  0.6708
  922SOL     OW 2764   2.442   1.708   1.389  0.2850 -0.3537  0.0575
  922SOL    HW1 2765   2.489   1.736   1.472 -0.3304  0.9760 -2.0676
  922SOL    HW2 2766   2.343   1.724   1.396  1.1964 -2.1010 -1.8713
  923SOL     OW 2767   0.686   1.818   0.517 -0.3863 -0.0562  0.0354
  923SOL    HW1 2768   0.677   1.793   0.421  0.4014 -2.5794  0.8818
  923SOL    HW2 2769   0.770   1.873   0.526 -1.8202 -0.4004 -0.9438
  924SOL     OW 2770   1.456   0.520   2.932 -0.2250  0.4676 -0.6624
  924SOL    HW1 2771   1.484   0.586   3.006 -0.3065  1.0932  3.8246
  924SOL    HW2 2772   1.533   0.513   2.868  0.1317 -0.1580  0.9518
  925SOL     OW 2773   2.683   1.503   0.808 -0.3453 -0.2528  0.0152
  925SOL    HW1 2774   2.618   1.529   0.879 -1.0311  0.2795  2.0362
  925SOL    HW2 2775   2.724   1.413   0.823 -0.7147  3.1892  1.5886
  926SOL     OW 2776   2.791   0.912   0.916  0.0708  0.2398 -0.1749
  926SOL    HW1 2777   2.688   0.912   0.904  1.2742  0.2555 -0.0475
  926SOL    HW2 2778   2.830   0.981   0.978 -1.9072 -2.5925 -2.8896
  927SOL     OW 2779   0.566   1.441   0.348 -0.4321  0.2626  0.4705
  927SOL    HW1 2780   0.517   1.367   0.291 -0.8879 -0.0496 -3.1191
  927SOL    HW2 2781   0.652   1.468   0.305 -2.8214  2.4488  0.5748
  928SOL     OW 2782   0.058   3.058   2.533 -0.3204  0.3330 -0.0440
  928SOL    HW1 2783   0.111   3.009   2.606 -2.1303 -0.0538  1.0386
  928SOL    HW2 2784   0.122   3.095   2.459  1.5956  0.1676 -1.8587
  929SOL     OW 2785   2.848   2.973   1.252 -0.2374  0.0727 -0.3935
  929SOL    HW1 2786   2.754   2.997   1.221  1.1572  0.6363  0.1682
  929SOL    HW2 2787   2.905   3.060   1.268  2.5038  3.1307  2.7712
  930SOL     OW 2788   2.053   2.244   1.650  0.6005 -0.2725  0.0957
  930SOL    HW1 2789   1.988   2.226   1.720 -0.0885  1.9927 -1.4688
  930SOL    HW2 2790   2.134   2.180   1.652  1.2946  0.5762 -2.5627
  931SOL     OW 2791   1.826   1.136   0.896  0.3520  0.1158  0.1974
  931SOL    HW1 2792   1.916   1.176   0.924  1.3138  1.6969  0.2806
  931SOL    HW2 2793   1.833   1.043   0.853  0.5876  1.0480  1.5462
  932SOL     OW 2794   2.755   0.904   1.294  0.8879 -0.4160 -0.0633
  932SOL    HW1 2795   2.661   0.900   1.253 -3.3775  0.5577 -2.8404
  932SOL    HW2 2796   2.832   0.897   1.228  2.5022 -1.2786  1.4655
  933SOL     OW 2797   2.530   1.757   1.634  0.5374  0.0941  0.3032
  933SOL    HW1 2798   2.516   1.827   1.706 -1.5136 -0.2129  3.0128
  933SOL    HW2 2799   2.625   1.723   1.643 -1.7798  0.8908 -0.3416
  934SOL     OW 2800   1.774   0.250   0.991  0.1291 -0.8917  0.4436
  934SOL    HW1 2801   1.727   0.171   1.038 -1.9988  0.8127  3.0091
  934SOL    HW2 2802   1.808   0.221   0.901 -1.8494 -0.8676  2.6358
  935SOL     OW 2803   0.063   1.338   1.182 -0.1983  0.1173  0.1388
  935SOL    HW1 2804   0.039   1.384   1.098  0.6465 -2.2185  1.8169
  935SOL    HW2 2805   0.082   1.239   1.170  1.8515  0.3533  0.2759
  936SOL     OW 2806   2.926   1.105   1.076  0.0157  0.1810  0.6941
  936SOL    HW1 2807   2.858   1.145   1.144 -2.3933 -2.9774  0.6109
  936SOL    HW2 2808   3.026   1.107   1.103  2.0230  1.0232 -0.6341
  937SOL     OW 2809   1.468   2.755   0.804  0.2999 -0.7725 -0.2061
  937SOL    HW1 2810   1.394   2.791   0.741 -1.9738 -0.3039 -2.0336
  937SOL    HW2 2811   1.502   2.663   0.781  1.4475 -1.5632  4.4398
  938SOL     OW 2812   2.766   2.509   0.751 -0.0809 -0.3301 -0.7735
  938SOL    HW1 2813   2.733   2.504   0.657  2.6495 -1.1538  2.3593
  938SOL    HW2 2814   2.703   2.555   0.816  0.4691  0.2342 -1.1037
  939SOL     OW 2815   0.803   1.874   3.040  0.2477  0.2267  0.3930
  939SOL    HW1 2816   0.896   1.868   3.084 -2.2171 -0.1281  1.0126
  939SOL    HW2 2817   0.747   1.953   3.076  0.4462  0.6791 -1.4618
  940SOL     OW 2818   2.777   2.910   2.760  0.8414 -0.2017 -0.1399
  940SOL    HW1 2819   2.828   2.952   2.681 -2.0529  2.4086  0.5132
  940SOL    HW2 2820   2.727   2.830   2.731  0.8305 -0.7994  0.2788
  941SOL     OW 2821   1.213   2.847   0.069  0.0829  0.5371 -0.5321
  941SOL    HW1 2822   1.234   2.801   0.154 -0.6485 -0.0100 -1.3000
  941SOL    HW2 2823   1.277   2.918   0.044 -0.8382 -2.0626 -0.9765
  942SOL     OW 2824   1.719   1.862   1.659  0.1305  0.0973 -0.3137
  942SOL    HW1 2825   1.652   1.784   1.667  2.0160 -1.1665  0.2033
  942SOL    HW2 2826   1.698   1.913   1.570  0.3447  0.9653 -0.3178
  943SOL     OW 2827   2.172   1.378   1.330 -0.0998 -0.1538  0.7315
  943SOL    HW1 2828   2.258   1.413   1.367 -2.8973 -0.3460  0.3133
  943SOL    HW2 2829   2.145   1.284   1.371 -4.3157 -1.1278  0.5803
  944SOL     OW 2830   1.800   1.029   1.648 -0.4836  0.4771 -0.7373
  944SOL    HW1 2831   1.702   1.039   1.637  2.6677 -0.0113 -0.9014
  944SOL    HW2 2832   1.848   0.997   1.566  1.0941 -0.5664  2.6504
  945SOL     OW 2833   0.147   0.029   1.282 -0.2873 -0.1596  0.1947
  945SOL    HW1 2834   0.109   0.059   1.374 -0.2081 -0.3506 -1.1571
  945SOL    HW2 2835   0.072   0.034   1.214  0.0139 -1.1327 -0.0591
  946SOL     OW 2836   0.269   0.697   1.817  0.5418  0.3859 -0.3854
  946SOL    HW1 2837   0.232   0.653   1.731 -0.6116  0.4216  0.7659
  946SOL    HW2 2838   0.226   0.786   1.832  0.7727  0.6144  1.7062
  947SOL     OW 2839   0.542   2.659   0.648  0.4435 -0.0805  0.0563
  947SOL    HW1 2840   0.548   2.720   0.567  1.7849 -3.9775  0.2178
  947SOL    HW2 2841   0.638   2.638   0.682  1.0527  1.3576  0.4271
  948SOL     OW 2842   3.009   1.155   1.905 -0.1221  0.0102 -0.3964
  948SOL    HW1 2843   3.065   1.210   1.836 -2.4875  0.7789 -2.7859
  948SOL    HW2 2844   3.033   1.057   1.897 -2.0661 -0.4665  0.8421
  949SOL     OW 2845   0.478   0.800   2.262 -0.3755 -0.1545  0.8757
  949SOL    HW1 2846   0.495   0.765   2.359  0.6897 -1.4922 -1.3377
  949SOL    HW2 2847   0.382   0.808   2.230 -2.4289  0.2767  0.1753
  950SOL     OW 2848   0.878   0.956   0.878 -0.6405  0.0621 -0.0713
  950SOL    HW1 2849   0.968   0.965   0.833  0.9787  0.6420 -0.3279
  950SOL    HW2 2850   0.829   1.039   0.856  1.6243 -1.9573 -1.3059
  951SOL     OW 2851   1.110   1.944   2.031 -0.3089  0.0333 -1.0485
  951SOL    HW1 2852   1.195   1.967   2.084  0.6595  0.0250 -0.5372
  951SOL    HW2 2853   1.067   1.870   2.082 -3.1349 -0.1817 -0.1655
  952SOL     OW 2854   1.028   1.756   2.824 -0.1308  0.6189 -0.1107
  952SOL    HW1 2855   1.043   1.713   2.915 -0.8016  1.7016 -0.4092
  952SOL    HW2 2856   0.962   1.709   2.763  0.6063 -1.7369 -0.6786
  953SOL     OW 2857   1.496   3.022   2.133 -0.0023  0.2011  0.1016
  953SOL    HW1 2858   1.537   3.069   2.211 -1.0303  1.7114 -1.4768
  953SOL    HW2 2859   1.471   2.929   2.152  2.3358 -1.4024  0.0266
  954SOL     OW 2860   2.070   1.139   0.251  0.1634 -0.0772 -0.4533
  954SOL    HW1 2861   2.110   1.227   0.274 -1.0778 -2.6792  1.5782
  954SOL    HW2 2862   1.975   1.146   0.205  0.6290 -2.0388  0.7246
  955SOL     OW 2863   0.595   2.186   2.277 -0.3477  0.6037 -0.3854
  955SOL    HW1 2864   0.696   2.175   2.264  0.9887 -0.2677 -1.5596
  955SOL    HW2 2865   0.546   2.189   2.191  2.2997  0.8396  3.6189
  956SOL     OW 2866   1.633   1.003   1.313 -0.1587  0.3520 -0.7423
  956SOL    HW1 2867   1.594   0.941   1.384 -0.1469  4.2161 -0.2486
  956SOL    HW2 2868   1.674   1.089   1.350 -1.9506 -0.0946 -1.6710
  957SOL     OW 2869   2.200   1.392   2.491 -0.0707  0.3540  0.4252
  957SOL    HW1 2870   2.170   1.429   2.582 -0.8034 -0.7630  0.8932
  957SOL    HW2 2871   2.114   1.354   2.451  1.0830 -1.0307 -0.6677
  958SOL     OW 2872   1.576   2.414   0.977 -0.4002 -0.1692  0.3257
  958SOL    HW1 2873   1.531   2.474   1.041  0.0804  0.3082  0.5752
  958SOL    HW2 2874   1.605   2.326   1.018  0.5442 -0.6174  0.0416
  959SOL     OW 2875   1.963   1.693   2.589  0.2367 -0.1311  0.1445
  959SOL    HW1 2876   1.869   1.651   2.573 -0.4991  2.1642  1.3198
  959SOL    HW2 2877   1.978   1.714   2.685  1.4976 -1.2935 -2.0893
  960SOL     OW 2878   0.359   0.448   0.044  0.0485  0.7335 -0.1019
  960SOL    HW1 2879   0.365   0.553   0.044  3.7277  4.2283 -2.7345
  960SOL    HW2 2880   0.331   0.418   3.059 -1.7018 -0.1330  0.5485
  961SOL     OW 2881   0.360   0.414   2.213  0.3620  0.0505 -0.0968
  961SOL    HW1 2882   0.363   0.417   2.108 -1.1142  1.5914 -1.4336
  961SOL    HW2 2883   0.452   0.437   2.248 -1.7007  1.0238  0.0969
  962SOL     OW 2884   1.158   1.377   0.101 -0.0077 -0.2503 -0.3278
  962SOL    HW1 2885   1.246   1.333   0.089 -0.6828  0.2877  1.0870
  962SOL    HW2 2886   1.114   1.345   0.185  1.2971  1.3397 -0.4288
  963SOL     OW 2887   2.097   1.932   0.017  0.1388 -0.0522  0.0233
  963SOL    HW1 2888   2.035   1.951   3.044  1.8432 -0.9248 -1.4059
  963SOL    HW2 2889   2.179   1.989   0.012  0.7338  1.2223 -0.7430
  964SOL     OW 2890   1.238   3.020   0.808 -0.3986  0.4344 -0.0874
  964SOL    HW1 2891   1.201   0.006   0.799  1.1869 -0.9957 -0.3983
  964SOL    HW2 2892   1.302   2.998   0.889  2.4351 -1.9066  0.8337
  965SOL     OW 2893   0.778   2.669   0.969  0.2800  0.1354  0.3550
  965SOL    HW1 2894   0.804   2.645   0.872 -0.5986  3.5685 -0.0887
  965SOL    HW2 2895   0.703   2.733   0.952 -2.7253 -2.5546  1.3582
  966SOL     OW 2896   0.011   1.420   3.105  0.1701 -0.0892  0.0441
  966SOL    HW1 2897   3.107   1.341   3.042 -0.4318 -0.4701  1.3600
  966SOL    HW2 2898   3.052   1.495   3.084  0.1197 -1.1446  0.8624
  967SOL     OW 2899   1.498   2.868   1.646 -1.2266  0.0461  0.2767
  967SOL    HW1 2900   1.523   2.774   1.672  0.2022 -0.0220  0.0311
  967SOL    HW2 2901   1.402   2.884   1.675  2.8875  0.3114 -1.0855
  968SOL     OW 2902   1.865   0.895   0.759  0.1551  0.2501  0.1664
  968SOL    HW1 2903   1.815   0.884   0.671  3.0607 -0.7545 -0.1872
  968SOL    HW2 2904   1.887   0.804   0.795  2.0984  2.3263  0.4599
  969SOL     OW 2905   0.496   1.899   2.147  0.5703 -0.2273  0.4328
  969SOL    HW1 2906   0.414   1.915   2.086 -0.1664  0.3743 -0.9195
  969SOL    HW2 2907   0.473   1.878   2.245 -0.7140 -0.1161  0.7726
  970SOL     OW 2908   2.787   1.641   1.285 -0.4066 -0.1933 -0.0148
  970SOL    HW1 2909   2.865   1.585   1.258 -0.0986  2.4761  0.4006
  970SOL    HW2 2910   2.698   1.602   1.250  0.3563 -0.9701 -1.6281
  971SOL     OW 2911   1.026   0.474   1.655  0.1124 -0.1833 -0.1865
  971SOL    HW1 2912   1.032   0.451   1.753  2.5261 -1.4779  0.3323
  971SOL    HW2 2913   1.074   0.400   1.603 -1.2799 -1.6164 -0.4514
  972SOL     OW 2914   0.904   0.271   2.552  0.0031 -0.5202 -0.1381
  972SOL    HW1 2915   0.909   0.239   2.645 -0.9612 -1.0689 -4.2333
  972SOL    HW2 2916   0.927   0.191   2.492 -0.1002  2.9626 -1.8285
  973SOL     OW 2917   3.063   1.409   0.932 -0.5487  0.1314 -0.3371
  973SOL    HW1 2918   2.989   1.342   0.920  2.1961  1.9410  2.1825
  973SOL    HW2 2919   3.101   1.443   0.847 -2.8637 -1.4582 -0.3546
  974SOL     OW 2920   1.902   0.911   1.867 -0.0383  0.3194  0.2112
  974SOL    HW1 2921   1.990   0.966   1.877  1.0960  2.5096  3.1197
  974SOL    HW2 2922   1.858   0.941   1.781 -0.1080 -2.3646  1.2650
  975SOL     OW 2923   2.725   3.027   0.301 -0.1616  0.1274 -0.2077
  975SOL    HW1 2924   2.705   2.967   0.382  1.2696 -1.2798 -2.4371
  975SOL    HW2 2925   2.813   3.079   0.316 -0.6881 -1.4424 -4.4377
  976SOL     OW 2926   0.139   1.549   1.718  0.1625  0.0088 -0.1878
  976SOL    HW1 2927   0.207   1.581   1.648  0.0167  0.1625  1.3201
  976SOL    HW2 2928   0.055   1.607   1.720  0.7069 -0.6048  0.7787
  977SOL     OW 2929   0.514   2.765   0.181 -0.3901 -0.4003  0.1817
  977SOL    HW1 2930   0.574   2.845   0.153 -0.8830  0.7573 -2.2768
  977SOL    HW2 2931   0.462   2.734   0.098 -0.3637 -1.5035  2.0781
  978SOL     OW 2932   0.586   1.730   3.085 -0.1465  0.1411  0.4122
  978SOL    HW1 2933   0.569   1.632   3.082  0.4076  2.1761  3.2630
  978SOL    HW2 2934   0.677   1.757   3.045 -1.7325  0.2372  0.9356
  979SOL     OW 2935   1.357   2.126   1.168  0.2674  0.2663 -0.1206
  979SOL    HW1 2936   1.343   2.037   1.211 -0.0599 -0.7333 -0.0480
  979SOL    HW2 2937   1.395   2.190   1.235  0.0848  1.3454 -1.0061
  980SOL     OW 2938   0.547   1.291   2.186  0.0677 -0.4546  0.0082
  980SOL    HW1 2939   0.580   1.353   2.255  0.1126 -0.4494 -0.8070
  980SOL    HW2 2940   0.457   1.325   2.150  1.6158 -0.1694  1.1117
  981SOL     OW 2941   3.016   1.276   0.210  0.3471  0.0530 -0.0196
  981SOL    HW1 2942   3.078   1.288   0.291 -1.7295 -0.6346  0.6813
  981SOL    HW2 2943   3.033   1.342   0.140 -4.1886 -1.4236  1.0231
  982SOL     OW 2944   2.208   2.804   2.867  0.0588  0.2358  0.2983
  982SOL    HW1 2945   2.271   2.808   2.944 -1.3188 -0.8744  2.3993
  982SOL    HW2 2946   2.155   2.718   2.878  1.0979 -1.3962 -0.8084
  983SOL     OW 2947   2.220   0.702   1.245  0.3081 -0.7363  0.4663
  983SOL    HW1 2948   2.171   0.769   1.310 -2.4210  2.6421  1.2224
  983SOL    HW2 2949   2.273   0.634   1.295 -2.4788  0.4283 -1.2714
  984SOL     OW 2950   0.953   0.048   2.413  0.4024  0.3096  1.2882
  984SOL    HW1 2951   0.949   0.091   2.321  0.6614  1.2727 -0.5096
  984SOL    HW2 2952   1.038   3.100   2.427  0.7568  1.2554 -2.3237
  985SOL     OW 2953   1.674   2.164   2.254 -0.0050  0.5367  0.2262
  985SOL    HW1 2954   1.667   2.095   2.182  1.8243 -0.0066 -2.2643
  985SOL    HW2 2955   1.752   2.231   2.243  3.3423  0.0094  0.8324
  986SOL     OW 2956   1.583   0.024   2.355 -0.4191  0.0346 -0.4034
  986SOL    HW1 2957   1.519   3.087   2.422 -0.2514 -1.1532  1.3924
  986SOL    HW2 2958   1.683   0.014   2.380  2.7114 -0.5487 -1.8575
  987SOL     OW 2959   2.222   0.151   2.164 -0.5021  0.1795 -0.0765
  987SOL    HW1 2960   2.263   0.203   2.085  0.2005  0.2531  1.2362
  987SOL    HW2 2961   2.289   0.104   2.223 -0.9080 -1.7749 -0.4068
  988SOL     OW 2962   2.596   0.483   2.245  0.0969 -0.1553 -0.0392
  988SOL    HW1 2963   2.558   0.513   2.332 -1.8811  0.5668 -1.3805
  988SOL    HW2 2964   2.522   0.507   2.179  1.1258 -1.0896 -0.2531
  989SOL     OW 2965   2.615   2.501   2.823  0.1041  0.1728 -0.3044
  989SOL    HW1 2966   2.599   2.593   2.774 -4.1641  1.0699  0.5786
  989SOL    HW2 2967   2.574   2.419   2.775 -0.8788 -2.0329 -0.9136
  990SOL     OW 2968   0.194   0.898   0.129 -0.1466  0.4803  0.0752
  990SOL    HW1 2969   0.120   0.850   0.173  2.0601  0.8893 -0.5670
  990SOL    HW2 2970   0.182   0.912   0.029 -0.4906 -2.1282 -1.8835
  991SOL     OW 2971   0.455   1.009   2.607  0.0780 -0.4589 -0.0689
  991SOL    HW1 2972   0.449   1.046   2.511  0.2812  2.1838  1.0309
  991SOL    HW2 2973   0.559   1.005   2.616 -0.3829  2.2429 -2.5100
  992SOL     OW 2974   0.103   1.711   2.050 -0.4681 -0.3386  0.3866
  992SOL    HW1 2975   0.160   1.719   1.970 -0.2503  1.0191  2.3022
  992SOL    HW2 2976   0.004   1.711   2.028 -0.1499 -0.5446  1.6896
  993SOL     OW 2977   0.872   0.258   0.679  0.3757  0.0511 -0.4899
  993SOL    HW1 2978   0.928   0.298   0.603 -0.1029 -0.5887 -1.8313
  993SOL    HW2 2979   0.776   0.248   0.649  2.6937 -1.0309 -0.8909
  994SOL     OW 2980   0.343   2.129   1.632  0.4118  0.5773 -0.0860
  994SOL    HW1 2981   0.255   2.083   1.612 -3.5869 -0.6411  2.4332
  994SOL    HW2 2982   0.416   2.077   1.579  1.0880 -2.8312 -1.4948
  995SOL     OW 2983   2.312   1.729   2.905 -0.9682  0.3835  0.2308
  995SOL    HW1 2984   2.415   1.716   2.911  0.7677  0.2773  1.7397
  995SOL    HW2 2985   2.266   1.724   2.998  1.4732  1.4139  1.1009
  996SOL     OW 2986   2.182   1.550   2.723 -0.1193  0.1873  0.2819
  996SOL    HW1 2987   2.081   1.560   2.721  2.9070 -1.0652 -3.5254
  996SOL    HW2 2988   2.221   1.612   2.794 -0.5536  0.5431  2.1633
  997SOL     OW 2989   1.723   1.202   1.881  0.3775 -0.5657 -0.1072
  997SOL    HW1 2990   1.732   1.163   1.975  0.7865  1.6242  1.8831
  997SOL    HW2 2991   1.700   1.132   1.811 -2.2426  2.8061 -3.6092
  998SOL     OW 2992   2.353   2.074   0.964  0.4697 -0.2081  0.0991
  998SOL    HW1 2993   2.347   2.057   1.067 -0.0810 -0.6770 -1.6388
  998SOL    HW2 2994   2.332   1.985   0.921  0.1143 -1.7472  4.9022
  999SOL     OW 2995   2.504   2.522   0.312 -0.3023  0.1161  0.0051
  999SOL    HW1 2996   2.468   2.612   0.289  0.7469 -3.0372 -0.9185
  999SOL    HW2 2997   2.484   2.451   0.240 -2.7814 -1.4930  0.1520
 1000SOL     OW 2998   0.775   3.008   2.585  0.1478 -0.6518 -0.1921
 1000SOL    HW1 2999   0.733   3.076   2.649 -0.5548 -1.4604 -2.7178
 1000SOL    HW2 3000   0.848   3.052   2.529  0.6770  2.4143 -0.6231
   3.10706   3.10706   3.10706
