1000 SPC/Fw water molecules t= 278.00000 step= 278000
 3000
    1SOL     OW    1   2.935   2.613   1.072 -0.0731  0.0393  0.3550
    1SOL    HW1    2   3.030   2.606   1.033  1.1345  0.8813  0.2941
    1SOL    HW2    3   2.907   2.708   1.094  1.6426 -0.9759 -2.1456
    2SOL     OW    4   2.035   1.871   1.043  0.0335  0.0076 -0.0083
    2SOL    HW1    5   2.122   1.909   1.011 -1.2278  0.4025 -0.8193
    2SOL    HW2    6   2.036   1.877   1.144 -0.6494  0.0496  0.0155
    3SOL     OW    7   1.065   2.673   3.074  0.6217 -0.2068 -0.0663
    3SOL    HW1    8   1.031   2.738   3.005 -1.4629 -0.6603  0.5380
    3SOL    HW2    9   1.064   2.572   3.041  0.8020 -3.2607 -1.5256
    4SOL     OW   10   1.890   2.058   1.328 -0.1805 -0.8558 -0.2457
    4SOL    HW1   11   1.938   1.967   1.328  1.4502 -0.3075 -3.2981
    4SOL    HW2   12   1.949   2.123   1.266  2.7170 -0.0679 -4.3202
    5SOL     OW   13   1.400   1.086   1.457  0.2702  0.1621  0.1723
    5SOL    HW1   14   1.303   1.112   1.448  0.3879  1.1770 -0.4058
    5SOL    HW2   15   1.459   1.149   1.400  0.5268  2.0957  2.7720
    6SOL     OW   16   2.528   3.010   0.126 -0.3908 -0.1065 -0.0953
    6SOL    HW1   17   2.447   2.980   0.185  4.1829 -1.4985  0.3091
    6SOL    HW2   18   2.616   2.977   0.171  0.5245  0.4966  0.4536
    7SOL     OW   19   2.891   1.194   1.200  0.0497  0.0540 -0.3145
    7SOL    HW1   20   2.956   1.226   1.270  2.3174 -3.8856 -1.1045
    7SOL    HW2   21   2.843   1.266   1.147 -1.2747  1.1489  0.6580
    8SOL     OW   22   1.122   2.764   0.986  0.4217  0.4240  0.3968
    8SOL    HW1   23   1.048   2.794   0.918 -3.1849 -1.8801 -2.0554
    8SOL    HW2   24   1.206   2.824   0.985  1.6139 -2.3616 -0.4728
    9SOL     OW   25   1.692   0.093   1.981  0.4299  0.1504  0.0325
    9SOL    HW1   26   1.685   0.176   1.922  0.9369 -0.6666  2.6387
    9SOL    HW2   27   1.619   0.020   1.966 -0.7967 -0.1954  1.1060
   10SOL     OW   28   0.947   2.334   0.798  0.5358  0.1892  0.3466
   10SOL    HW1   29   0.878   2.406   0.786  0.7353 -2.3639  2.5385
   10SOL    HW2   30   0.978   2.339   0.895 -0.7383  0.9457 -0.3684
   11SOL     OW   31   1.567   1.444   0.844 -0.0204 -0.2656 -0.0010
   11SOL    HW1   32   1.664   1.431   0.824 -0.2733 -0.1824  0.5241
   11SOL    HW2   33   1.537   1.393   0.924  1.2184 -0.0617 -3.8520
   12SOL     OW   34   2.932   2.608   1.996 -0.1563  0.2201 -0.0092
   12SOL    HW1   35   2.957   2.693   2.037  0.5903  0.5237 -1.2788
   12SOL    HW2   36   3.015   2.549   1.987 -1.7040  0.5090 -0.7459
   13SOL     OW   37   2.220   0.104   0.371  0.3886  0.5310 -0.1502
   13SOL    HW1   38   2.136   0.157   0.400  2.5073  2.6380 -0.6206
   13SOL    HW2   39   2.247   0.031   0.437  1.7326 -1.7837  1.4032
   14SOL     OW   40   1.438   2.603   1.021  0.2933  0.0075 -0.1081
   14SOL    HW1   41   1.493   2.543   0.958 -1.6054  0.2207  1.5881
   14SOL    HW2   42   1.347   2.618   0.982  1.2347 -0.8616 -5.8648
   15SOL     OW   43   3.024   1.884   1.332 -0.0150 -0.3396 -0.7497
   15SOL    HW1   44   3.031   1.987   1.338 -0.9049 -0.6038  2.4957
   15SOL    HW2   45   3.110   1.839   1.349  0.6149  2.4193 -1.8197
   16SOL     OW   46   2.220   2.255   0.619 -0.5894  0.1820  0.2539
   16SOL    HW1   47   2.124   2.245   0.655  1.7541 -0.2779  1.0804
   16SOL    HW2   48   2.274   2.170   0.627 -4.2226  0.9327  1.3224
   17SOL     OW   49   0.782   3.040   1.483 -0.4064  0.4904 -0.3345
   17SOL    HW1   50   0.805   2.998   1.575 -0.5908 -0.8912  2.3087
   17SOL    HW2   51   0.824   0.011   1.475 -1.3297  1.2108 -0.5001
   18SOL     OW   52   1.230   1.007   0.139  0.2825 -0.5377 -0.4230
   18SOL    HW1   53   1.185   1.022   0.049  1.0063  2.1539 -1.1938
   18SOL    HW2   54   1.323   1.053   0.139  1.4014 -0.6194 -1.4750
   19SOL     OW   55   1.754   1.974   0.200  0.1055  0.0196  0.0341
   19SOL    HW1   56   1.804   1.882   0.205  0.8988 -2.0900  0.4335
   19SOL    HW2   57   1.822   2.044   0.171 -1.3685 -0.4998  2.4350
   20SOL     OW   58   2.462   1.944   1.844 -0.2013 -0.1826  0.4593
   20SOL    HW1   59   2.377   1.987   1.876  1.7880 -2.2109 -3.0260
   20SOL    HW2   60   2.442   1.847   1.806 -0.1135 -0.5011 -1.2439
   21SOL     OW   61   0.656   1.264   0.541 -0.4832 -0.1415  0.6816
   21SOL    HW1   62   0.611   1.190   0.596  1.7614  1.0838  2.4583
   21SOL    HW2   63   0.597   1.299   0.463  0.1902 -1.5719  0.3086
   22SOL     OW   64   2.346   2.973   1.463 -0.3780 -0.4149  0.1858
   22SOL    HW1   65   2.372   3.070   1.487  2.8384 -0.4019 -0.0167
   22SOL    HW2   66   2.383   2.908   1.532 -1.4372  0.3984  4.2438
   23SOL     OW   67   3.039   0.785   2.053 -0.0677  0.1737  0.5081
   23SOL    HW1   68   3.012   0.813   1.959 -0.3194  1.7543 -0.7437
   23SOL    HW2   69   3.006   0.844   2.129 -3.1583 -1.6772 -1.6391
   24SOL     OW   70   2.271   2.527   0.506  0.5152  0.4274  0.1209
   24SOL    HW1   71   2.272   2.539   0.404 -0.6386 -2.5027 -1.0111
   24SOL    HW2   72   2.266   2.428   0.531  2.4456 -1.0988  1.4773
   25SOL     OW   73   1.473   3.107   2.410 -0.0745  0.4691  0.1845
   25SOL    HW1   74   1.455   0.056   2.482  1.2908  2.3026  0.4109
   25SOL    HW2   75   1.535   0.022   2.338  1.9818 -0.4042 -2.5818
   26SOL     OW   76   1.571   2.392   0.217 -0.1398 -0.3979  0.0266
   26SOL    HW1   77   1.671   2.370   0.242  0.1077  0.2750 -0.5636
   26SOL    HW2   78   1.556   2.451   0.129  0.4433  1.1663 -1.9110
   27SOL     OW   79   2.659   1.988   0.134  0.9461 -0.1920  0.4849
   27SOL    HW1   80   2.652   1.957   0.037 -0.6333 -0.2458 -0.3194
   27SOL    HW2   81   2.619   2.078   0.152 -1.2761  1.9303  0.8394
   28SOL     OW   82   0.117   1.118   1.784  0.1650 -0.8747 -0.1450
   28SOL    HW1   83   0.026   1.156   1.768  0.1713  0.9810  4.0674
   28SOL    HW2   84   0.120   1.036   1.728 -2.0363 -0.2588  1.4427
   29SOL     OW   85   2.407   2.338   1.565 -0.0620  0.0380 -0.1378
   29SOL    HW1   86   2.377   2.429   1.590 -0.1205 -3.1565 -0.3066
   29SOL    HW2   87   2.469   2.303   1.637 -1.3282  2.2475 -1.1842
   30SOL     OW   88   1.492   0.345   0.664  0.7376  0.0884  0.1853
   30SOL    HW1   89   1.554   0.326   0.583  1.0902  1.1925 -0.8658
   30SOL    HW2   90   1.412   0.400   0.629  0.5082 -0.1146 -1.8033
   31SOL     OW   91   2.363   2.654   1.784 -0.3728 -0.5300 -0.1449
   31SOL    HW1   92   2.337   2.609   1.874 -0.7674  0.0798  1.9714
   31SOL    HW2   93   2.364   2.757   1.787 -0.0640  0.9460  1.1883
   32SOL     OW   94   0.893   1.963   1.160 -0.1417  0.1745  0.3758
   32SOL    HW1   95   0.880   1.864   1.130 -1.8510 -1.3154  0.0177
   32SOL    HW2   96   0.929   2.016   1.083  1.3505 -0.5417 -1.7252
   33SOL     OW   97   0.576   0.073   2.531 -0.4687 -0.2050  0.0446
   33SOL    HW1   98   0.554   0.041   2.439 -2.6523 -1.4919 -0.9424
   33SOL    HW2   99   0.488   0.085   2.578  1.8543 -1.6106 -0.7536
   34SOL     OW  100   1.334   2.946   0.514 -0.1669 -0.1248 -0.3606
   34SOL    HW1  101   1.313   3.005   0.597 -1.7452  0.6363 -0.4042
   34SOL    HW2  102   1.435   2.954   0.493  2.4189  0.9844  0.3988
   35SOL     OW  103   2.251   2.819   1.277 -0.0415  0.2579 -0.0973
   35SOL    HW1  104   2.329   2.766   1.235  1.1963  0.6997 -1.5371
   35SOL    HW2  105   2.282   2.877   1.354 -2.0888 -0.6341  1.8706
   36SOL     OW  106   1.931   2.438   2.516  0.0618 -0.5861 -0.7299
   36SOL    HW1  107   1.887   2.348   2.548 -0.0470 -2.3911 -2.2712
   36SOL    HW2  108   1.883   2.484   2.441  0.8627  0.4880 -0.2527
   37SOL     OW  109   1.062   0.076   2.100  0.1842 -0.3263 -0.5829
   37SOL    HW1  110   1.100   0.004   2.038 -1.4170 -0.2860 -1.1219
   37SOL    HW2  111   1.023   0.151   2.042 -1.8594  0.5507 -0.7242
   38SOL     OW  112   0.197   2.724   2.713  0.4672 -0.4248  0.0659
   38SOL    HW1  113   0.135   2.805   2.740  0.2673 -2.4509  1.0304
   38SOL    HW2  114   0.268   2.761   2.652  0.6281 -2.8331  1.2951
   39SOL     OW  115   2.419   0.832   1.728  0.3707  0.4384 -0.3499
   39SOL    HW1  116   2.476   0.903   1.684  1.3723 -0.3824  1.5536
   39SOL    HW2  117   2.354   0.879   1.790  0.7160 -0.0909  0.6709
   40SOL     OW  118   1.085   3.072   0.181 -0.5632  0.0329  0.2559
   40SOL    HW1  119   0.993   3.067   0.143  0.4889  0.0298  2.0575
   40SOL    HW2  120   1.156   3.094   0.109  1.2666  1.2304 -1.0254
   41SOL     OW  121   2.149   1.144   1.266  0.3403 -0.3023  0.1474
   41SOL    HW1  122   2.239   1.139   1.321  1.3970 -0.3149  1.6799
   41SOL    HW2  123   2.165   1.201   1.181  1.2365  2.0557  0.7645
   42SOL     OW  124   0.498   0.497   0.997 -0.1725  0.3323  0.1849
   42SOL    HW1  125   0.530   0.595   1.001  1.7833  1.3267  2.4268
   42SOL    HW2  126   0.485   0.459   1.088  0.3675 -0.5485  2.1296
   43SOL     OW  127   2.423   1.621   2.779  0.7169  0.8119  0.6198
   43SOL    HW1  128   2.407   1.563   2.862 -0.4355  0.8655  3.4787
   43SOL    HW2  129   2.343   1.604   2.714 -2.0764 -0.7667  0.3359
   44SOL     OW  130   2.820   2.874   1.608  0.2913 -0.0390  0.6303
   44SOL    HW1  131   2.878   2.808   1.670  2.3708  0.9813 -1.1437
   44SOL    HW2  132   2.806   2.964   1.647  2.5566 -3.4804  2.0814
   45SOL     OW  133   0.541   2.802   1.571 -0.8867 -0.0128 -0.0904
   45SOL    HW1  134   0.445   2.804   1.539  2.6834 -0.2957 -0.5793
   45SOL    HW2  135   0.597   2.857   1.505  1.3115 -1.5629  2.5488
   46SOL     OW  136   1.863   3.104   2.349 -0.5794 -0.1437 -0.4024
   46SOL    HW1  137   1.948   0.029   2.363 -1.8362  0.0300  2.2219
   46SOL    HW2  138   1.864   3.007   2.375 -0.5024 -0.6368 -1.2718
   47SOL     OW  139   1.620   1.738   0.776  0.5062  0.0660  0.2466
   47SOL    HW1  140   1.520   1.741   0.795 -1.4116 -2.9863 -2.5222
   47SOL    HW2  141   1.642   1.637   0.771 -3.6784  2.3330 -0.9015
   48SOL     OW  142   0.911   2.106   0.380  0.0994 -0.2738  0.2546
   48SOL    HW1  143   0.923   2.186   0.314 -3.3749  3.1997  2.6869
   48SOL    HW2  144   0.850   2.028   0.337 -2.5192 -0.9243 -1.0983
   49SOL     OW  145   2.508   0.416   2.519  0.2944 -0.1414 -0.1091
   49SOL    HW1  146   2.482   0.482   2.593  0.5566 -0.0845  2.9577
   49SOL    HW2  147   2.503   0.320   2.553  0.0248  0.1841  1.3432
   50SOL     OW  148   2.065   0.373   0.366 -0.2730  0.1180 -0.0054
   50SOL    HW1  149   1.978   0.397   0.415  0.4901  0.2143  0.7895
   50SOL    HW2  150   2.047   0.344   0.272  0.0084 -0.2080  0.9942
   51SOL     OW  151   2.049   0.866   0.929  0.0490 -0.6897 -0.3923
   51SOL    HW1  152   2.115   0.873   0.850  3.6156  1.4935 -4.4625
   51SOL    HW2  153   1.988   0.785   0.929 -0.4380  2.0926 -0.4293
   52SOL     OW  154   1.237   1.398   1.721  0.2281 -0.0020  0.6207
   52SOL    HW1  155   1.252   1.343   1.803 -1.6399 -0.9912 -3.1609
   52SOL    HW2  156   1.178   1.353   1.653 -1.7622  1.5539 -1.3560
   53SOL     OW  157   0.808   1.656   2.198 -0.1562  0.0518 -0.0372
   53SOL    HW1  158   0.832   1.611   2.110 -0.5909 -1.1935  0.0525
   53SOL    HW2  159   0.851   1.748   2.205 -0.7529  2.4647  0.9584
   54SOL     OW  160   2.565   0.142   1.606  0.1074 -0.0026  0.2767
   54SOL    HW1  161   2.560   0.213   1.679 -0.1916  1.1365 -0.6492
   54SOL    HW2  162   2.481   0.145   1.544 -0.8260 -1.7597 -0.0307
   55SOL     OW  163   2.456   1.982   0.911 -0.0719  0.3879 -0.2010
   55SOL    HW1  164   2.484   2.032   0.826  0.2543 -0.7021 -1.5169
   55SOL    HW2  165   2.402   1.901   0.884 -3.1069  1.3977  0.4123
   56SOL     OW  166   1.152   3.064   1.880  0.2529 -0.1407  0.3151
   56SOL    HW1  167   1.154   2.965   1.902 -2.3837 -0.3498  0.4734
   56SOL    HW2  168   1.221   3.089   1.810  2.9445  3.8132 -0.5959
   57SOL     OW  169   1.394   1.368   0.142  0.0505 -0.8234  0.1785
   57SOL    HW1  170   1.408   1.277   0.193 -1.1088 -0.1112  1.8812
   57SOL    HW2  171   1.481   1.387   0.084  0.8736 -0.5830  0.9291
   58SOL     OW  172   0.306   1.008   1.982  0.0789 -0.1531  0.2382
   58SOL    HW1  173   0.259   1.062   1.910  0.3125 -1.7886 -0.1341
   58SOL    HW2  174   0.349   1.060   2.058  0.3686 -0.2345  0.5932
   59SOL     OW  175   1.110   0.137   2.551  0.8830 -0.1444  0.3694
   59SOL    HW1  176   1.076   0.229   2.581 -0.0018 -0.7585  0.5886
   59SOL    HW2  177   1.126   0.072   2.630  2.7899 -2.3644  1.6880
   60SOL     OW  178   2.934   2.080   0.201 -0.2048  0.5581  0.3488
   60SOL    HW1  179   2.838   2.088   0.179  2.8387  0.5947  2.4872
   60SOL    HW2  180   2.971   2.164   0.253 -0.5609  1.3669  0.8055
   61SOL     OW  181   0.960   2.324   0.215  0.9213  0.4542 -0.2822
   61SOL    HW1  182   0.982   2.420   0.244 -1.8154 -1.6032 -0.5413
   61SOL    HW2  183   0.907   2.333   0.136  2.7535 -1.2791  2.1019
   62SOL     OW  184   2.020   2.140   2.768 -0.8903 -0.5654 -0.3302
   62SOL    HW1  185   2.042   2.042   2.760  1.4199  1.6318  2.2674
   62SOL    HW2  186   1.954   2.166   2.696 -0.2627 -0.0121 -0.0119
   63SOL     OW  187   2.346   1.977   0.612 -0.5299  0.0282 -0.0127
   63SOL    HW1  188   2.287   1.921   0.551 -2.4977 -1.0356 -0.0388
   63SOL    HW2  189   2.447   1.974   0.585 -0.9345 -1.9740  0.4917
   64SOL     OW  190   1.846   1.308   2.746  0.2887  0.9081 -0.1245
   64SOL    HW1  191   1.777   1.284   2.817  1.3225 -1.2592 -3.0681
   64SOL    HW2  192   1.896   1.222   2.726  0.4689  0.4730  0.5080
   65SOL     OW  193   1.448   2.045   2.960  0.4012  0.3386  0.3647
   65SOL    HW1  194   1.471   2.036   3.056  0.3113  0.9893  0.0056
   65SOL    HW2  195   1.380   1.966   2.949 -3.3607 -2.0063  1.3176
   66SOL     OW  196   0.259   1.421   2.455 -0.0306 -0.1860  0.4030
   66SOL    HW1  197   0.206   1.500   2.475  1.5804 -1.7148 -2.5291
   66SOL    HW2  198   0.242   1.393   2.362 -0.1633 -1.7044  2.2185
   67SOL     OW  199   2.775   2.790   2.829  0.2409  0.3583  0.2924
   67SOL    HW1  200   2.676   2.778   2.809 -0.3955 -1.8541  1.1980
   67SOL    HW2  201   2.826   2.792   2.743 -1.3547  1.7818  0.5322
   68SOL     OW  202   0.740   2.561   1.533 -0.2518  0.5685 -0.0593
   68SOL    HW1  203   0.669   2.631   1.531  0.6025  0.4471  3.8441
   68SOL    HW2  204   0.771   2.531   1.441 -1.3524  2.0996  2.3656
   69SOL     OW  205   0.914   2.620   0.533  0.1238  0.1520 -0.4098
   69SOL    HW1  206   0.840   2.600   0.464  0.2553  0.6766 -0.9211
   69SOL    HW2  207   0.877   2.580   0.620  0.1146 -0.7902  4.3276
   70SOL     OW  208   2.586   0.771   2.597 -0.5985 -0.4922 -0.0912
   70SOL    HW1  209   2.607   0.764   2.495  0.6569  1.0966  0.6082
   70SOL    HW2  210   2.666   0.741   2.653 -3.0233 -1.5314  0.7129
   71SOL     OW  211   0.756   1.233   2.373  0.1282 -0.2697 -0.0866
   71SOL    HW1  212   0.769   1.316   2.429  1.3202  2.3003  1.4503
   71SOL    HW2  213   0.663   1.192   2.387 -0.7938  1.4285 -0.9649
   72SOL     OW  214   0.046   1.941   0.279  0.0282 -0.1778  0.3804
   72SOL    HW1  215   0.096   1.998   0.340 -1.7527 -2.3321  0.4945
   72SOL    HW2  216   3.089   1.982   0.230 -4.6585 -0.9557  0.6793
   73SOL     OW  217   0.879   1.429   0.623 -0.2868  0.4639  0.3239
   73SOL    HW1  218   0.881   1.514   0.568  1.7827  0.6714  0.8750
   73SOL    HW2  219   0.798   1.377   0.586 -1.2932 -1.2695 -0.0281
   74SOL     OW  220   2.294   2.723   0.069 -0.2727  0.3109  0.1535
   74SOL    HW1  221   2.299   2.808   0.119 -0.3566 -0.8929 -2.2817
   74SOL    HW2  222   2.196   2.695   0.065 -2.0524  0.7420  1.1967
   75SOL     OW  223   1.996   1.812   1.301  0.1741 -0.0724 -0.5735
   75SOL    HW1  224   2.041   1.769   1.381 -0.5167 -1.7606 -2.1104
   75SOL    HW2  225   1.925   1.743   1.271 -0.0235 -0.3636 -1.6033
   76SOL     OW  226   2.030   2.598   1.559 -0.2850  0.6072  0.5221
   76SOL    HW1  227   1.953   2.650   1.605  0.9209 -0.3299  2.0907
   76SOL    HW2  228   2.016   2.500   1.576 -1.4494  0.4927  1.0876
   77SOL     OW  229   2.418   0.163   1.948  0.5730 -0.0512 -0.3639
   77SOL    HW1  230   2.347   0.237   1.976 -1.0285  1.1996 -0.3201
   77SOL    HW2  231   2.482   0.128   2.019  0.6605  1.3064 -1.7342
   78SOL     OW  232   1.584   0.910   2.990 -0.7591 -0.2333  0.2705
   78SOL    HW1  233   1.634   0.833   3.034 -0.8144  1.3265 -0.9445
   78SOL    HW2  234   1.500   0.879   2.944  1.2531  1.6983  0.8275
   79SOL     OW  235   2.861   1.798   2.062 -0.2100  0.3408 -0.0061
   79SOL    HW1  236   2.873   1.723   1.993  2.6474  0.8747 -2.1802
   79SOL    HW2  237   2.820   1.761   2.148 -1.8600  1.2813 -0.7697
   80SOL     OW  238   2.149   1.344   1.586 -0.1742  0.3485 -0.4195
   80SOL    HW1  239   2.054   1.322   1.552  0.1207 -2.8581 -2.9662
   80SOL    HW2  240   2.184   1.421   1.530  1.7327 -2.1309  2.3251
   81SOL     OW  241   1.623   0.682   1.669 -0.5474  0.5051 -0.2125
   81SOL    HW1  242   1.615   0.609   1.740 -2.1057  1.9887 -2.4391
   81SOL    HW2  243   1.586   0.771   1.699 -0.3510 -0.4984  2.1994
   82SOL     OW  244   1.347   2.506   1.392  0.9617  0.1646  0.2755
   82SOL    HW1  245   1.401   2.477   1.316 -0.9904  1.0520  1.9708
   82SOL    HW2  246   1.313   2.601   1.384 -2.1742  1.9340  1.8447
   83SOL     OW  247   0.050   0.296   0.447 -0.4632  0.1716  0.1787
   83SOL    HW1  248   0.014   0.204   0.426 -0.0311  2.4579  2.7662
   83SOL    HW2  249   3.100   0.365   0.430  1.8224 -1.0019 -2.1667
   84SOL     OW  250   0.393   1.153   3.027 -0.2183  0.2260 -0.5544
   84SOL    HW1  251   0.304   1.183   2.990  0.4939  1.1099  0.4674
   84SOL    HW2  252   0.425   1.207   3.107 -0.4480 -0.9940 -2.6652
   85SOL     OW  253   2.884   1.895   1.773 -0.4067  0.0257  1.0942
   85SOL    HW1  254   2.850   1.874   1.678 -1.8987 -1.6047 -1.3704
   85SOL    HW2  255   2.824   1.862   1.847  0.6300  1.7505  1.7371
   86SOL     OW  256   2.933   2.244   1.643 -0.4200 -0.1259 -0.1052
   86SOL    HW1  257   2.856   2.174   1.646  2.2569 -0.5650 -0.6213
   86SOL    HW2  258   2.977   2.252   1.733  1.1330 -1.4301 -0.6060
   87SOL     OW  259   0.820   0.427   2.711 -0.4793 -0.3151  0.3012
   87SOL    HW1  260   0.784   0.378   2.627  0.5415  0.6106  1.6873
   87SOL    HW2  261   0.749   0.414   2.782  1.8403 -0.4748 -3.0951
   88SOL     OW  262   0.344   2.250   1.205  0.5049  0.3850  0.1297
   88SOL    HW1  263   0.415   2.183   1.186 -0.1273  2.3033  1.8297
   88SOL    HW2  264   0.285   2.217   1.286  0.6726  2.1719  0.6559
   89SOL     OW  265   0.934   0.787   1.591 -0.0614 -0.1210  0.1554
   89SOL    HW1  266   0.972   0.703   1.557 -2.4736  2.9648 -1.7447
   89SOL    HW2  267   0.901   0.779   1.686 -2.1834  1.7235 -1.2152
   90SOL     OW  268   2.830   1.578   1.575  0.0421  0.0598 -0.1219
   90SOL    HW1  269   2.820   1.674   1.542  0.5387 -0.7972  0.2084
   90SOL    HW2  270   2.882   1.584   1.664 -0.2984  1.9676  1.0651
   91SOL     OW  271   1.462   1.131   0.749  0.2264  0.1603  0.2100
   91SOL    HW1  272   1.383   1.148   0.812 -1.7393  1.3257 -0.3971
   91SOL    HW2  273   1.469   1.211   0.687 -0.1039  0.0259 -0.3082
   92SOL     OW  274   2.444   0.578   0.876 -0.4033  0.1427  0.2165
   92SOL    HW1  275   2.419   0.629   0.961  0.6118 -3.1236  0.9203
   92SOL    HW2  276   2.364   0.591   0.813  0.0151 -2.4086 -3.3052
   93SOL     OW  277   1.953   0.833   2.917 -0.6259  0.4916 -0.3517
   93SOL    HW1  278   1.874   0.804   2.973  0.5531 -0.7362 -1.7411
   93SOL    HW2  279   1.920   0.854   2.821 -0.7065 -0.0188 -1.0659
   94SOL     OW  280   2.535   1.789   2.436  0.2889  0.5074 -0.0926
   94SOL    HW1  281   2.500   1.764   2.345  2.0886 -0.2495  2.5203
   94SOL    HW2  282   2.468   1.823   2.501  1.8641 -1.4008 -0.6358
   95SOL     OW  283   2.109   0.515   1.052  0.1347 -0.5216 -0.0468
   95SOL    HW1  284   2.186   0.576   1.070 -0.9986  0.5932 -0.0299
   95SOL    HW2  285   2.037   0.573   1.007  0.0835  0.6353  3.5922
   96SOL     OW  286   2.614   0.149   2.198  0.2769  0.6367 -0.3354
   96SOL    HW1  287   2.658   0.092   2.128 -3.8294  1.6622  0.4035
   96SOL    HW2  288   2.615   0.250   2.185  1.0116 -1.0957  1.3283
   97SOL     OW  289   2.361   0.205   1.432  0.0720  0.3118  0.1589
   97SOL    HW1  290   2.390   0.304   1.433  4.4980  0.3631  0.4752
   97SOL    HW2  291   2.261   0.200   1.410  0.0620  1.4091  0.6195
   98SOL     OW  292   1.607   2.554   1.738 -0.0371 -0.6729 -0.5540
   98SOL    HW1  293   1.535   2.524   1.799  3.9719 -0.5018  0.7355
   98SOL    HW2  294   1.631   2.482   1.668  0.4980 -2.3893 -0.0176
   99SOL     OW  295   2.295   2.103   1.508  0.1914 -0.0149 -0.0323
   99SOL    HW1  296   2.338   2.193   1.512 -2.1567 -3.2154  0.9312
   99SOL    HW2  297   2.216   2.092   1.573  0.6140  0.6295 -0.4514
  100SOL     OW  298   0.572   0.862   2.713  0.6311 -0.2253 -0.5398
  100SOL    HW1  299   0.591   0.820   2.807  2.2728 -1.0236  2.5258
  100SOL    HW2  300   0.625   0.949   2.701 -1.0640  0.5455 -0.6874
  101SOL     OW  301   1.974   0.400   2.946  0.0153 -0.1515 -0.0332
  101SOL    HW1  302   2.019   0.309   2.953 -0.6318  0.2675 -0.2963
  101SOL    HW2  303   2.031   0.467   2.993 -2.4033 -0.9754 -3.7301
  102SOL     OW  304   0.164   0.655   1.743  0.1820 -0.0117  0.0306
  102SOL    HW1  305   0.141   0.650   1.842  3.7798 -0.7183 -2.4901
  102SOL    HW2  306   0.191   0.567   1.711  0.4631  4.2467  1.5663
  103SOL     OW  307   2.820   0.916   2.739  0.1801  0.1878 -0.1980
  103SOL    HW1  308   2.833   0.991   2.665  1.0945  2.3706 -3.6914
  103SOL    HW2  309   2.895   0.845   2.744  0.7453 -2.8450 -1.9762
  104SOL     OW  310   0.519   0.502   2.576  0.0799 -0.0013 -0.1985
  104SOL    HW1  311   0.600   0.567   2.568  2.3507  0.5857 -0.4655
  104SOL    HW2  312   0.481   0.483   2.485 -0.3129 -0.3104 -0.7431
  105SOL     OW  313   2.428   1.652   1.824  0.1461  0.0645  0.0799
  105SOL    HW1  314   2.354   1.586   1.796  1.0134 -3.5006 -1.8920
  105SOL    HW2  315   2.497   1.597   1.874 -0.6519 -2.9984 -1.0274
  106SOL     OW  316   1.835   0.456   0.489  0.1991 -0.4976 -0.3387
  106SOL    HW1  317   1.798   0.543   0.450  0.6270 -0.8227 -2.0444
  106SOL    HW2  318   1.762   0.384   0.486  0.3551  2.8688  0.9830
  107SOL     OW  319   0.256   1.605   0.753  0.3440  0.3001  0.0904
  107SOL    HW1  320   0.154   1.600   0.738 -3.6953  2.6163 -2.1192
  107SOL    HW2  321   0.276   1.702   0.781  1.4354 -3.3675 -0.2928
  108SOL     OW  322   2.803   2.486   1.613 -0.3371 -0.1777  0.2522
  108SOL    HW1  323   2.828   2.387   1.615 -0.9475  0.0937  0.8821
  108SOL    HW2  324   2.771   2.512   1.521 -2.4885 -0.0134  0.9009
  109SOL     OW  325   2.163   0.137   0.805  0.3206  0.2653 -0.3924
  109SOL    HW1  326   2.250   0.174   0.763 -1.3881 -0.7216 -1.0037
  109SOL    HW2  327   2.173   0.038   0.826  0.7844 -3.2903 -0.2025
  110SOL     OW  328   0.355   1.972   2.595 -0.0561 -0.0315 -0.3688
  110SOL    HW1  329   0.389   1.996   2.504 -1.1594  0.4320 -1.8652
  110SOL    HW2  330   0.414   1.902   2.643  0.4955  0.3262  2.7534
  111SOL     OW  331   1.554   2.824   1.769  0.7489  0.2583 -0.0847
  111SOL    HW1  332   1.588   2.730   1.760 -1.6738 -0.3767 -0.6936
  111SOL    HW2  333   1.534   2.866   1.677  3.0499  1.5712  0.1154
  112SOL     OW  334   2.036   2.663   0.069 -0.6281  0.1194 -0.2045
  112SOL    HW1  335   1.965   2.693   0.004  2.8290  2.4104  1.2092
  112SOL    HW2  336   1.989   2.652   0.157  3.3100  1.0917 -1.8591
  113SOL     OW  337   1.678   2.334   1.541 -0.1893 -0.1928  0.3581
  113SOL    HW1  338   1.748   2.278   1.587 -0.1632  0.1863 -2.6490
  113SOL    HW2  339   1.706   2.352   1.446  0.0596 -1.4643  2.6979
  114SOL     OW  340   2.842   0.943   0.784  0.0137  0.2110 -0.0778
  114SOL    HW1  341   2.753   0.928   0.833 -1.0631 -2.1786  0.6191
  114SOL    HW2  342   2.845   0.893   0.699  0.2689  0.7285  2.4869
  115SOL     OW  343   0.673   1.014   3.011 -0.7554 -0.2143  0.0483
  115SOL    HW1  344   0.581   1.048   3.028  0.2178 -0.6708  3.0599
  115SOL    HW2  345   0.699   0.931   3.064  1.2338 -0.7080 -0.1220
  116SOL     OW  346   2.747   1.643   2.231  0.2477 -0.1615  0.3416
  116SOL    HW1  347   2.811   1.566   2.214  0.2085  0.9104  2.3657
  116SOL    HW2  348   2.672   1.614   2.295  0.3487  1.5848  1.0605
  117SOL     OW  349   3.013   2.477   0.518 -0.0485  0.4204 -0.1817
  117SOL    HW1  350   3.081   2.456   0.592  0.6486  0.5375  0.8369
  117SOL    HW2  351   2.928   2.522   0.555 -0.0462 -2.0287 -0.7004
  118SOL     OW  352   0.928   1.897   2.192  0.3319  0.1647  0.2984
  118SOL    HW1  353   0.877   1.959   2.254 -1.5526 -1.0395 -0.4392
  118SOL    HW2  354   0.924   1.935   2.095  0.1228 -2.2669  0.0183
  119SOL     OW  355   0.152   2.220   3.006  0.7361 -0.2009 -0.1560
  119SOL    HW1  356   0.068   2.166   3.037 -3.5833 -0.8172 -0.5483
  119SOL    HW2  357   0.193   2.176   2.921  1.0487 -0.1451 -1.0119
  120SOL     OW  358   1.060   0.727   2.965 -0.7714 -0.3671  0.1102
  120SOL    HW1  359   1.066   0.825   2.943  0.4889  0.0854 -0.0764
  120SOL    HW2  360   1.155   0.692   2.970 -0.3333  0.1429 -0.7467
  121SOL     OW  361   1.346   2.965   0.978 -0.6796  0.0655 -0.3070
  121SOL    HW1  362   1.338   3.020   0.898  0.1546 -2.3052  0.2725
  121SOL    HW2  363   1.415   2.997   1.044 -4.1952  2.0851  1.4895
  122SOL     OW  364   2.611   2.465   1.833  0.4008  0.1839  0.2238
  122SOL    HW1  365   2.542   2.538   1.828  2.4146  1.5220  2.1972
  122SOL    HW2  366   2.674   2.471   1.757 -0.9198  0.4457 -0.0155
  123SOL     OW  367   0.238   2.663   0.713 -0.3519  0.1556  0.1217
  123SOL    HW1  368   0.282   2.647   0.624 -1.6601  0.3926  0.7031
  123SOL    HW2  369   0.259   2.589   0.776 -1.6311  0.1612 -0.3852
  124SOL     OW  370   2.275   1.025   2.862  0.3885 -0.1165 -0.9948
  124SOL    HW1  371   2.313   1.084   2.791 -2.2284  0.2116 -0.1600
  124SOL    HW2  372   2.319   0.933   2.856  1.1776 -0.1346 -2.2141
  125SOL     OW  373   0.598   0.855   0.434  0.5568 -0.0811  0.1511
  125SOL    HW1  374   0.541   0.824   0.522  0.1484 -0.8204  4.2282
  125SOL    HW2  375   0.660   0.929   0.459 -2.2509 -1.6565  2.2116
  126SOL     OW  376   3.081   1.248   0.514  0.4817  0.5200 -0.1999
  126SOL    HW1  377   3.099   1.332   0.457  1.6478  0.8672  0.7791
  126SOL    HW2  378   0.048   1.228   0.555  0.4564 -0.0317 -1.1461
  127SOL     OW  379   0.321   1.653   2.218 -0.3145 -0.8799  0.0636
  127SOL    HW1  380   0.405   1.636   2.277 -1.7274  1.3708  0.6103
  127SOL    HW2  381   0.272   1.732   2.260 -0.0737 -1.3837  1.4311
  128SOL     OW  382   0.838   1.179   0.047 -0.1922  0.2069  0.2525
  128SOL    HW1  383   0.908   1.232   3.118 -2.6566 -0.4680  0.7546
  128SOL    HW2  384   0.768   1.137   3.104  1.5117 -1.9647 -0.4586
  129SOL     OW  385   2.546   1.212   0.900 -0.2345  0.6378  0.1069
  129SOL    HW1  386   2.508   1.126   0.940 -1.0705 -0.6793  1.7562
  129SOL    HW2  387   2.647   1.198   0.876 -0.2101  0.4571  0.7174
  130SOL     OW  388   2.579   1.043   1.607  0.4347  0.0832 -0.1351
  130SOL    HW1  389   2.651   1.023   1.535  0.0629  1.0053  2.4800
  130SOL    HW2  390   2.497   1.090   1.569 -3.2321 -1.0920 -0.9620
  131SOL     OW  391   2.796   3.099   2.651 -0.4515 -0.2099  0.0641
  131SOL    HW1  392   2.720   3.098   2.718 -1.0846  2.0054  1.6365
  131SOL    HW2  393   2.847   3.011   2.639 -2.1968  1.5440 -2.7980
  132SOL     OW  394   0.092   1.495   1.254 -0.8220  0.4142  0.3667
  132SOL    HW1  395   0.163   1.497   1.180  1.0515 -2.6030  1.7490
  132SOL    HW2  396   0.013   1.545   1.223  2.3786 -3.6847 -0.0992
  133SOL     OW  397   0.880   0.565   1.257  0.3287 -0.2232 -0.2332
  133SOL    HW1  398   0.935   0.575   1.342  0.3928 -1.1900 -2.3445
  133SOL    HW2  399   0.778   0.568   1.273 -1.8135 -0.9021 -1.2491
  134SOL     OW  400   0.030   1.674   0.170  0.4247 -0.1565  0.8618
  134SOL    HW1  401   3.106   1.642   0.085 -0.2699  0.9453 -1.2529
  134SOL    HW2  402   0.030   1.773   0.192 -0.0200 -0.9404 -0.3907
  135SOL     OW  403   1.853   0.878   1.419  0.0261  0.5242 -0.6746
  135SOL    HW1  404   1.782   0.812   1.397  0.5967  0.8132 -0.2209
  135SOL    HW2  405   1.903   0.895   1.333 -0.5609 -0.0858  1.3746
  136SOL     OW  406   0.168   0.903   0.418 -0.5344  0.3265 -0.2232
  136SOL    HW1  407   0.236   0.971   0.437 -0.4455 -1.9109  1.8796
  136SOL    HW2  408   0.105   0.940   0.347  2.2080  0.1686 -0.2611
  137SOL     OW  409   2.823   1.206   0.906  0.0326  0.4211  0.0328
  137SOL    HW1  410   2.838   1.105   0.891  2.7710 -1.8962 -0.9955
  137SOL    HW2  411   2.912   1.254   0.893 -1.7957  0.9626 -1.6237
  138SOL     OW  412   1.682   1.040   1.121 -0.1170 -0.3819 -0.8669
  138SOL    HW1  413   1.608   1.003   1.180  0.3045 -0.7115  0.1967
  138SOL    HW2  414   1.762   1.078   1.172  1.1674  2.3572 -1.7932
  139SOL     OW  415   1.641   2.946   3.089  0.0140 -0.2660 -0.1821
  139SOL    HW1  416   1.664   2.990   0.057  0.1211  1.6400 -1.9590
  139SOL    HW2  417   1.565   2.877   3.094  1.3991 -2.9148 -1.0216
  140SOL     OW  418   1.358   1.642   1.822 -0.4197  0.2993 -0.1233
  140SOL    HW1  419   1.462   1.626   1.827 -0.7533 -0.2194  0.4175
  140SOL    HW2  420   1.307   1.559   1.840  0.6281 -1.7615  1.9873
  141SOL     OW  421   1.577   1.998   0.426 -0.1688  0.0253 -0.1956
  141SOL    HW1  422   1.649   1.975   0.361 -1.0663 -0.1574  2.4208
  141SOL    HW2  423   1.496   1.936   0.421 -1.1399 -0.9477 -1.5391
  142SOL     OW  424   0.853   0.606   3.071  0.4270 -0.6325  0.1537
  142SOL    HW1  425   0.861   0.689   0.006  0.0190  1.4051 -0.2567
  142SOL    HW2  426   0.929   0.602   3.005 -1.3105  0.3752  3.2275
  143SOL     OW  427   0.345   2.243   0.094  0.1066  0.2114  0.5154
  143SOL    HW1  428   0.319   2.256   3.116 -0.1275  0.0653 -0.8622
  143SOL    HW2  429   0.263   2.262   0.153 -1.2171  2.9811  1.3814
  144SOL     OW  430   1.529   3.060   1.191  0.0591 -0.6885  0.0631
  144SOL    HW1  431   1.533   3.115   1.276 -1.2288 -1.9944 -0.6580
  144SOL    HW2  432   1.519   2.965   1.213  0.3092  3.0400 -2.3449
  145SOL     OW  433   2.210   1.214   0.364 -0.2552  0.4500 -0.0367
  145SOL    HW1  434   2.275   1.166   0.301 -3.0155 -0.9093  0.1828
  145SOL    HW2  435   2.178   1.151   0.441 -1.3821 -2.2511  1.6052
  146SOL     OW  436   3.025   2.163   0.677 -0.1457  0.3934  0.7297
  146SOL    HW1  437   3.064   2.073   0.713  0.8956  0.6066 -0.8579
  146SOL    HW2  438   2.937   2.188   0.714  4.5065  0.2557 -0.4288
  147SOL     OW  439   2.532   2.952   1.730  0.2942 -0.5435  0.1220
  147SOL    HW1  440   2.547   2.889   1.656 -0.3132  2.4337  1.2212
  147SOL    HW2  441   2.621   2.975   1.773 -0.6224 -1.0370 -0.7724
  148SOL     OW  442   1.521   3.044   1.928 -0.0495 -0.0033  0.2603
  148SOL    HW1  443   1.510   2.952   1.874  0.8144 -3.6167 -1.5094
  148SOL    HW2  444   1.473   3.039   2.021 -1.0852 -1.0954  2.2745
  149SOL     OW  445   1.902   0.749   2.106  0.1108 -0.3941  0.3362
  149SOL    HW1  446   1.966   0.760   2.183 -0.0827 -0.4572  0.5758
  149SOL    HW2  447   1.959   0.750   2.024  1.1628 -0.5119  3.1488
  150SOL     OW  448   0.207   3.055   0.268  0.5160  0.4204 -0.3577
  150SOL    HW1  449   0.279   2.992   0.300 -1.4292 -2.5919 -0.0730
  150SOL    HW2  450   0.249   0.026   0.268 -3.2396 -0.9420 -0.2812
  151SOL     OW  451   0.114   2.157   0.455  0.1661  0.4449 -0.0757
  151SOL    HW1  452   0.024   2.171   0.499 -1.2042 -1.1610 -2.6616
  151SOL    HW2  453   0.135   2.226   0.386  0.3210 -3.3907  1.4095
  152SOL     OW  454   2.908   0.021   0.709  0.2775 -0.3907  0.1385
  152SOL    HW1  455   3.003   0.016   0.743  0.2351  1.6729  2.2446
  152SOL    HW2  456   2.838   3.120   0.780 -0.3899 -0.9812  2.1117
  153SOL     OW  457   2.454   3.108   0.948 -0.1081  0.3309  0.5819
  153SOL    HW1  458   2.363   3.070   0.930 -1.0455  1.5458  2.1572
  153SOL    HW2  459   2.498   0.032   0.870 -0.4345 -0.3750  1.0573
  154SOL     OW  460   0.860   0.444   1.807 -0.8036 -0.1395 -0.3256
  154SOL    HW1  461   0.888   0.395   1.892  0.4285  1.7314  2.3753
  154SOL    HW2  462   0.801   0.526   1.818 -1.3673  1.4529  0.6250
  155SOL     OW  463   0.086   1.152   1.104 -0.3417 -0.3368 -0.2376
  155SOL    HW1  464   0.049   1.194   1.020  2.4539 -2.3531 -2.0550
  155SOL    HW2  465   0.027   1.175   1.183 -0.1212  0.6493  1.3118
  156SOL     OW  466   3.055   2.069   3.086 -0.5568 -0.7515  0.0237
  156SOL    HW1  467   3.023   2.053   0.066 -1.2935 -1.6529  2.1066
  156SOL    HW2  468   2.972   2.077   3.034  1.9452  0.9008  0.8463
  157SOL     OW  469   0.901   0.813   0.134 -0.4532  0.1939  0.3427
  157SOL    HW1  470   0.980   0.793   0.191 -1.1641  1.4811  1.9221
  157SOL    HW2  471   0.861   0.896   0.170  2.0082  2.0904  0.8544
  158SOL     OW  472   2.431   0.172   2.605 -0.4939  0.7386  0.4111
  158SOL    HW1  473   2.503   0.160   2.674  1.4187  1.6658  2.5259
  158SOL    HW2  474   2.337   0.184   2.641 -2.2140  0.7572 -0.6583
  159SOL     OW  475   0.917   0.443   0.370 -0.4792 -0.2049 -0.1598
  159SOL    HW1  476   0.972   0.366   0.410 -2.9305  0.7767 -2.3275
  159SOL    HW2  477   0.978   0.515   0.327  1.4864 -0.2912  0.7845
  160SOL     OW  478   1.266   1.863   2.868 -0.3422 -0.1718 -0.1776
  160SOL    HW1  479   1.300   1.839   2.776 -0.0356 -0.2958 -0.5400
  160SOL    HW2  480   1.165   1.870   2.866 -0.2488 -0.9372 -0.1934
  161SOL     OW  481   2.998   1.576   2.475 -0.0526 -0.2841 -0.1146
  161SOL    HW1  482   2.921   1.637   2.462 -0.5865 -0.2607  0.0810
  161SOL    HW2  483   2.993   1.530   2.570 -4.0032  1.8810  0.7249
  162SOL     OW  484   0.435   2.457   1.408 -0.2442  0.1222  0.2270
  162SOL    HW1  485   0.391   2.404   1.335 -0.8971  0.0966  2.1362
  162SOL    HW2  486   0.500   2.522   1.372 -1.4858  1.3696 -1.7834
  163SOL     OW  487   2.485   0.573   2.273  0.2841  0.2938  0.1451
  163SOL    HW1  488   2.536   0.659   2.299 -3.2542  0.3193 -2.5359
  163SOL    HW2  489   2.484   0.510   2.353 -1.9124  0.1027 -1.7182
  164SOL     OW  490   2.477   1.184   0.627 -0.6171  0.4308 -0.3148
  164SOL    HW1  491   2.397   1.242   0.606  0.5546 -1.1054 -0.4692
  164SOL    HW2  492   2.516   1.197   0.720  0.3264 -1.9740 -1.0915
  165SOL     OW  493   0.247   0.221   1.485 -0.0315 -0.1352 -0.1501
  165SOL    HW1  494   0.260   0.121   1.499 -0.7363 -1.3986 -2.3063
  165SOL    HW2  495   0.263   0.249   1.391 -0.0174  0.0037  0.1666
  166SOL     OW  496   2.015   1.136   0.932 -0.1524  0.3926  0.7449
  166SOL    HW1  497   1.937   1.174   0.982  2.2179  0.8984  0.1668
  166SOL    HW2  498   2.023   1.036   0.949  0.4970  2.9855  0.2632
  167SOL     OW  499   0.254   0.589   0.372 -0.0552 -0.3832 -0.1153
  167SOL    HW1  500   0.191   0.561   0.294 -2.1084 -1.0507  2.3123
  167SOL    HW2  501   0.235   0.691   0.390  0.1763  2.7927 -0.2448
  168SOL     OW  502   1.802   2.828   1.948  0.4492 -0.3528  0.3122
  168SOL    HW1  503   1.706   2.811   1.908 -1.2772 -1.8038 -1.2848
  168SOL    HW2  504   1.840   2.925   1.928 -2.9498 -0.2810  0.8265
  169SOL     OW  505   0.879   1.123   0.906  0.1953  0.2181 -0.0793
  169SOL    HW1  506   0.835   1.045   0.859  0.9415  0.6304  0.8159
  169SOL    HW2  507   0.810   1.165   0.968  0.4629  3.2015  1.3574
  170SOL     OW  508   0.032   0.345   1.320  0.7300  0.1103  0.3777
  170SOL    HW1  509   0.058   0.281   1.401  2.0650 -0.7258  2.7215
  170SOL    HW2  510   0.095   0.341   1.242 -2.2157  0.9092 -1.0082
  171SOL     OW  511   1.430   2.513   2.468  0.3563 -0.5082 -0.4444
  171SOL    HW1  512   1.372   2.431   2.497  0.4803  0.7615  0.4037
  171SOL    HW2  513   1.383   2.567   2.395  0.8231 -0.4230 -1.4105
  172SOL     OW  514   0.281   2.722   1.310 -0.2322  0.3310  0.4071
  172SOL    HW1  515   0.378   2.692   1.299 -3.8984 -0.4073 -0.4924
  172SOL    HW2  516   0.270   2.806   1.249  0.1328  5.4147  0.3097
  173SOL     OW  517   1.417   0.732   2.763  0.1083 -0.4060 -0.3203
  173SOL    HW1  518   1.353   0.687   2.698 -0.5339 -0.5713 -1.2025
  173SOL    HW2  519   1.516   0.697   2.752  1.7346 -1.6569 -0.1623
  174SOL     OW  520   1.801   0.114   2.784 -0.4771 -0.4476 -0.3019
  174SOL    HW1  521   1.783   0.156   2.693 -0.3335  2.9238  1.8102
  174SOL    HW2  522   1.720   0.068   2.817  1.4522  1.9516 -1.1834
  175SOL     OW  523   1.837   2.364   0.297 -0.9254 -0.0611  0.2141
  175SOL    HW1  524   1.859   2.282   0.241 -2.9186 -3.5113  0.2347
  175SOL    HW2  525   1.833   2.328   0.395  0.6066  0.2727 -0.5864
  176SOL     OW  526   2.152   0.190   3.037  0.1043 -0.1755 -0.3093
  176SOL    HW1  527   2.227   0.174   3.106 -0.4936  0.4830 -0.0501
  176SOL    HW2  528   2.146   0.108   2.975 -0.6702 -2.0602  2.2897
  177SOL     OW  529   0.849   1.700   0.790  0.2379  0.3527  0.1040
  177SOL    HW1  530   0.939   1.743   0.767  1.4248 -1.1041 -2.2881
  177SOL    HW2  531   0.788   1.695   0.712 -0.1675  3.3133 -1.1929
  178SOL     OW  532   2.657   2.373   2.937  0.0164  0.7320  0.4199
  178SOL    HW1  533   2.593   2.373   2.857 -1.0606 -1.6608 -2.3855
  178SOL    HW2  534   2.726   2.448   2.927 -0.5169  3.4006  4.0228
  179SOL     OW  535   0.519   3.085   2.879 -0.3809  0.0860 -0.1024
  179SOL    HW1  536   0.519   2.989   2.906 -1.7675  1.6049 -0.3482
  179SOL    HW2  537   0.473   3.110   2.792 -0.0098  0.0478 -0.1833
  180SOL     OW  538   1.517   1.277   1.069  0.6366  0.0838 -0.1003
  180SOL    HW1  539   1.421   1.247   1.063  1.2385 -0.7888  1.7237
  180SOL    HW2  540   1.580   1.196   1.071  0.5784 -1.5461 -2.5542
  181SOL     OW  541   2.360   0.998   2.293  1.1975  0.0800 -0.0375
  181SOL    HW1  542   2.270   1.050   2.295 -2.3873  0.0144 -0.2302
  181SOL    HW2  543   2.350   0.922   2.226 -1.4524  1.1032  2.9554
  182SOL     OW  544   0.101   2.877   2.283  0.2903 -0.2665 -0.1761
  182SOL    HW1  545   0.027   2.896   2.216 -0.9365 -0.1863 -2.1238
  182SOL    HW2  546   0.148   2.795   2.252  2.0527  2.1812  1.1027
  183SOL     OW  547   1.390   0.806   2.124  0.2657 -0.0208  0.6693
  183SOL    HW1  548   1.493   0.817   2.108 -0.9990  0.3156 -0.1317
  183SOL    HW2  549   1.358   0.713   2.086 -2.2662 -1.5338  1.0203
  184SOL     OW  550   0.454   1.002   1.637 -0.0795 -0.1189 -0.1201
  184SOL    HW1  551   0.441   1.086   1.578 -0.8006 -1.5167 -1.7105
  184SOL    HW2  552   0.363   0.974   1.675  0.4450  0.3680 -1.1365
  185SOL     OW  553   2.085   0.725   0.152  0.3256  0.1575  0.5916
  185SOL    HW1  554   1.988   0.749   0.169  0.1384  2.0654 -1.5942
  185SOL    HW2  555   2.146   0.794   0.196  0.5120  0.9403  1.5494
  186SOL     OW  556   0.477   2.468   0.216 -0.0523 -0.2888 -0.4938
  186SOL    HW1  557   0.417   2.394   0.179 -0.8930 -4.5035  2.3291
  186SOL    HW2  558   0.458   2.490   0.314  2.8536  1.3253  1.8863
  187SOL     OW  559   2.571   1.218   0.164 -0.3160  0.0565  0.2662
  187SOL    HW1  560   2.470   1.198   0.155 -0.4373 -0.9500  0.5108
  187SOL    HW2  561   2.615   1.173   0.252  2.8478 -0.2501  3.1519
  188SOL     OW  562   3.118   1.579   0.790 -0.2219 -0.1729 -0.5167
  188SOL    HW1  563   3.057   1.586   0.706 -1.7804 -1.2173 -0.7892
  188SOL    HW2  564   3.076   1.607   0.880 -1.4948  1.3445  0.7416
  189SOL     OW  565   2.771   0.045   0.282  0.4343  0.1084  0.6655
  189SOL    HW1  566   2.850   0.061   0.219  1.1661 -1.0282 -1.3254
  189SOL    HW2  567   2.752   3.067   0.294 -2.2331 -0.9323 -1.7557
  190SOL     OW  568   1.417   1.542   2.175 -0.0628  0.0729  0.0742
  190SOL    HW1  569   1.351   1.590   2.110  0.1345 -1.6883  0.7056
  190SOL    HW2  570   1.388   1.439   2.180 -0.0898 -0.5082  0.4712
  191SOL     OW  571   3.030   0.347   1.679  0.4160 -0.1874 -0.2690
  191SOL    HW1  572   2.987   0.317   1.594  1.8692  3.2928 -0.0683
  191SOL    HW2  573   2.960   0.366   1.751  1.7067  2.1832  2.4254
  192SOL     OW  574   1.812   1.520   1.166  0.1214  0.8670  0.7111
  192SOL    HW1  575   1.911   1.513   1.192 -0.0024 -1.3104 -3.0161
  192SOL    HW2  576   1.815   1.599   1.099  1.4825  2.0540  0.3268
  193SOL     OW  577   1.095   0.793   1.009  0.6320 -0.1735  0.0587
  193SOL    HW1  578   1.073   0.702   0.981 -1.2765  1.1780 -2.2811
  193SOL    HW2  579   1.027   0.826   1.075  1.1236  0.9727 -0.4226
  194SOL     OW  580   1.094   2.430   1.480 -0.2589 -0.2265 -0.3040
  194SOL    HW1  581   1.177   2.435   1.417  3.3232 -2.0073 -1.5074
  194SOL    HW2  582   1.080   2.517   1.529  0.1225 -1.8188  0.2133
  195SOL     OW  583   2.387   0.387   2.802 -0.3662  0.2046 -0.4879
  195SOL    HW1  584   2.306   0.333   2.775  2.2022  1.2322 -0.0127
  195SOL    HW2  585   2.424   0.352   2.889  0.5090 -1.0622 -0.5896
  196SOL     OW  586   1.142   2.656   1.639  0.2042 -0.1217 -0.1901
  196SOL    HW1  587   1.151   2.588   1.716 -2.8159 -4.4652 -0.0730
  196SOL    HW2  588   1.070   2.730   1.654 -1.5261  2.6501  0.0262
  197SOL     OW  589   0.761   2.775   0.866 -0.3334 -0.1716 -0.3434
  197SOL    HW1  590   0.671   2.809   0.831 -0.2322 -0.3392 -0.9452
  197SOL    HW2  591   0.831   2.840   0.828 -0.0009  5.1879 -2.1271
  198SOL     OW  592   0.953   0.900   0.621 -0.1000 -0.1620 -0.1768
  198SOL    HW1  593   0.900   0.894   0.709 -0.1926 -1.8639  3.6609
  198SOL    HW2  594   0.898   0.949   0.552 -1.2801  1.5796 -2.3944
  199SOL     OW  595   0.195   3.037   1.876  0.3025  0.6206  0.0976
  199SOL    HW1  596   0.133   3.089   1.809 -4.0215  2.9929 -3.0988
  199SOL    HW2  597   0.197   2.937   1.859  0.9386 -1.5719  0.3520
  200SOL     OW  598   2.170   1.888   2.332 -0.4644 -0.4253 -0.2200
  200SOL    HW1  599   2.151   1.817   2.263  0.9172 -0.5697 -1.5048
  200SOL    HW2  600   2.163   1.982   2.290  1.3205  1.8068  0.6010
  201SOL     OW  601   3.063   2.146   1.399  0.0041  0.1725  0.4269
  201SOL    HW1  602   3.095   2.225   1.345  0.3851 -0.4093 -1.7149
  201SOL    HW2  603   3.010   2.174   1.480  0.5434 -1.7544 -1.0644
  202SOL     OW  604   2.599   0.060   0.483 -0.2045  0.0447  0.1365
  202SOL    HW1  605   2.528   0.135   0.467  1.3692 -1.5590  0.1299
  202SOL    HW2  606   2.668   0.060   0.410 -1.9005  1.3819 -0.5145
  203SOL     OW  607   1.396   2.130   2.136 -0.6084  0.3846  0.1877
  203SOL    HW1  608   1.367   2.069   2.065  1.3753  0.8219  2.6691
  203SOL    HW2  609   1.481   2.100   2.182  3.5427  2.2287 -2.2095
  204SOL     OW  610   1.413   2.112   1.770  0.2328  0.2334  0.3457
  204SOL    HW1  611   1.421   2.167   1.682  0.2076  0.5968 -1.6065
  204SOL    HW2  612   1.413   2.014   1.741 -1.8298 -1.6117 -1.2312
  205SOL     OW  613   1.311   1.869   1.999  0.4231 -0.1843  0.6855
  205SOL    HW1  614   1.319   1.782   1.943 -0.7953 -0.3968  1.7216
  205SOL    HW2  615   1.262   1.863   2.091 -1.9848  0.8324  1.3717
  206SOL     OW  616   0.318   0.822   2.673  0.2905  0.2080 -0.0018
  206SOL    HW1  617   0.418   0.832   2.689 -0.7651  5.4466  1.8644
  206SOL    HW2  618   0.294   0.815   2.574 -1.6081 -1.6696  2.0800
  207SOL     OW  619   0.891   3.098   1.817  0.3006 -0.0509 -0.3640
  207SOL    HW1  620   0.845   0.056   1.775  0.9276 -0.6422 -2.2446
  207SOL    HW2  621   0.990   3.111   1.830 -2.1819  1.1167  0.3073
  208SOL     OW  622   0.742   2.458   1.909 -0.0011  0.0383 -0.5250
  208SOL    HW1  623   0.778   2.556   1.899  0.8567  0.1079  0.1962
  208SOL    HW2  624   0.756   2.409   1.823 -3.0077  2.7368 -0.8512
  209SOL     OW  625   1.322   0.643   3.008  0.3204 -0.0443 -0.7430
  209SOL    HW1  626   1.378   0.681   2.936 -1.7048 -1.3784  2.6631
  209SOL    HW2  627   1.323   0.539   2.998  0.5648 -1.9631  2.1228
  210SOL     OW  628   2.937   0.425   0.810  0.3957  0.0636  0.7368
  210SOL    HW1  629   2.864   0.483   0.850  0.7271  1.1198  0.5913
  210SOL    HW2  630   2.906   0.370   0.729 -1.1339 -0.0251 -1.6677
  211SOL     OW  631   0.528   0.732   1.198 -0.3407 -0.4938  0.1132
  211SOL    HW1  632   0.558   0.645   1.236  0.4895  1.0390 -0.9744
  211SOL    HW2  633   0.456   0.770   1.257 -1.5007 -0.1614  0.6639
  212SOL     OW  634   1.219   1.747   1.056  0.5721  0.2658 -0.2409
  212SOL    HW1  635   1.138   1.689   1.054 -0.9795  2.6354  0.3876
  212SOL    HW2  636   1.265   1.751   1.143 -0.8626  0.7024 -1.4248
  213SOL     OW  637   2.082   0.028   1.660  0.3325 -0.0259  0.1252
  213SOL    HW1  638   2.180   0.023   1.689 -2.1609  1.6636 -0.3456
  213SOL    HW2  639   2.038   3.057   1.648 -3.0858  1.4792 -0.9933
  214SOL     OW  640   1.030   2.477   2.652  0.2690  0.3916 -0.4596
  214SOL    HW1  641   1.057   2.469   2.750 -1.0502  0.6962 -2.1663
  214SOL    HW2  642   1.104   2.437   2.596  0.0888 -0.4603  0.0802
  215SOL     OW  643   2.699   1.678   1.232 -0.2108 -0.5923  0.2944
  215SOL    HW1  644   2.741   1.723   1.315 -1.0366 -3.6792 -0.7616
  215SOL    HW2  645   2.750   1.696   1.145 -0.1776  1.0610 -1.2884
  216SOL     OW  646   0.361   0.729   2.023 -0.2868 -0.2689  0.4527
  216SOL    HW1  647   0.265   0.693   2.030  0.2244 -0.8060  0.6224
  216SOL    HW2  648   0.351   0.829   2.002  1.6274  2.6272 -0.3556
  217SOL     OW  649   3.056   0.070   0.155 -0.6110 -0.1960  0.0780
  217SOL    HW1  650   0.000   0.141   0.130 -0.1354 -0.4415  0.9696
  217SOL    HW2  651   3.067   0.037   0.253  0.6280 -1.6945 -0.3486
  218SOL     OW  652   1.683   1.924   1.602 -0.3679  0.0647 -0.6583
  218SOL    HW1  653   1.595   1.883   1.631 -0.4230 -0.6758  0.5857
  218SOL    HW2  654   1.687   1.931   1.502  0.8625  0.0429  1.9634
  219SOL     OW  655   1.734   0.465   0.085 -0.4882  0.5893  0.3587
  219SOL    HW1  656   1.672   0.398   0.039 -0.6545 -0.9223 -2.7774
  219SOL    HW2  657   1.708   0.473   0.181  2.1430 -1.4651 -2.8364
  220SOL     OW  658   1.463   2.027   1.098 -0.5146  0.4423 -0.1019
  220SOL    HW1  659   1.473   2.126   1.093  1.2392 -1.0484 -1.0096
  220SOL    HW2  660   1.387   1.995   1.046  0.3713 -2.9424  1.3382
  221SOL     OW  661   0.098   0.614   0.156 -0.3014  0.6078  0.2816
  221SOL    HW1  662   0.152   0.642   0.072  1.8400  1.8573  2.1205
  221SOL    HW2  663   0.054   0.523   0.137  0.5389  1.1909  1.9566
  222SOL     OW  664   0.895   2.781   1.567  0.1637  0.2265 -0.6168
  222SOL    HW1  665   0.962   2.818   1.499  0.7007  2.0398 -1.6402
  222SOL    HW2  666   0.858   2.686   1.553 -0.2600 -1.5758 -0.5985
  223SOL     OW  667   1.264   0.380   2.917 -0.4763 -0.2208  0.2143
  223SOL    HW1  668   1.348   0.325   2.907 -1.3954  0.2261  0.4391
  223SOL    HW2  669   1.195   0.347   2.847  1.9470  3.1170 -2.6342
  224SOL     OW  670   2.725   0.274   1.158 -0.0852 -0.2004 -0.2140
  224SOL    HW1  671   2.727   0.332   1.245  2.1912 -1.6841 -0.7158
  224SOL    HW2  672   2.634   0.228   1.152  2.4815 -0.2326 -0.2588
  225SOL     OW  673   0.648   1.276   1.682 -0.1615  0.2518 -0.3907
  225SOL    HW1  674   0.701   1.335   1.618 -0.3819 -1.2296  0.5857
  225SOL    HW2  675   0.549   1.267   1.655 -1.1035  1.8062 -1.9906
  226SOL     OW  676   0.874   0.020   0.570  0.3607  0.3010  0.0887
  226SOL    HW1  677   0.778   0.041   0.594 -0.8807  1.8372 -2.8557
  226SOL    HW2  678   0.916   0.108   0.536 -1.4675 -1.0456 -1.6354
  227SOL     OW  679   0.908   1.877   1.655  0.2853  0.6986  0.1676
  227SOL    HW1  680   0.921   1.899   1.555  1.3408  0.8201 -0.5807
  227SOL    HW2  681   0.986   1.913   1.707 -1.1570  0.3950  1.5922
  228SOL     OW  682   0.483   2.996   1.793 -0.1140 -0.6189  0.6973
  228SOL    HW1  683   0.390   2.989   1.830  1.4066  1.3256 -1.5797
  228SOL    HW2  684   0.511   2.926   1.722  0.7549 -1.5090 -1.5583
  229SOL     OW  685   2.612   0.681   0.462  0.1574 -0.1630 -0.1032
  229SOL    HW1  686   2.677   0.668   0.542  0.7029 -0.0721  2.1565
  229SOL    HW2  687   2.651   0.743   0.391 -2.0412 -0.7815  3.0308
  230SOL     OW  688   0.148   1.422   2.199  0.1474  0.0288 -0.4392
  230SOL    HW1  689   0.180   1.515   2.199 -1.1018 -1.7866  1.6221
  230SOL    HW2  690   0.163   1.384   2.108  0.3543 -0.0246  1.1546
  231SOL     OW  691   1.020   2.853   1.329 -0.0427 -0.0287  0.0760
  231SOL    HW1  692   0.976   2.806   1.248  1.9998  1.6493 -0.1913
  231SOL    HW2  693   1.115   2.826   1.343  0.5498  1.6216  0.2741
  232SOL     OW  694   2.301   2.506   0.236  0.2300 -0.0648  0.4007
  232SOL    HW1  695   2.314   2.585   0.173 -2.1703 -0.5190 -0.2777
  232SOL    HW2  696   2.306   2.413   0.192 -0.3683  0.0064 -1.0179
  233SOL     OW  697   1.222   2.791   0.125  0.1154  0.2799 -0.1953
  233SOL    HW1  698   1.175   2.879   0.140 -0.7756  0.5674 -1.6391
  233SOL    HW2  699   1.163   2.736   0.062  0.4162  0.6437 -3.1522
  234SOL     OW  700   0.798   0.914   2.062  0.5617  0.0570 -0.0477
  234SOL    HW1  701   0.838   0.914   2.157 -0.5982 -0.5534  1.6212
  234SOL    HW2  702   0.851   0.969   1.995  0.1391  1.1302 -0.3864
  235SOL     OW  703   0.129   2.349   0.254  0.9520  0.2173 -0.2268
  235SOL    HW1  704   0.153   2.444   0.283 -0.1057  0.5587 -0.5219
  235SOL    HW2  705   0.029   2.336   0.243  1.4659  0.6244  1.7602
  236SOL     OW  706   2.041   2.663   2.650  0.5401 -0.1518 -0.2365
  236SOL    HW1  707   2.104   2.606   2.707  0.5977  2.8411  1.1698
  236SOL    HW2  708   1.980   2.604   2.597  1.7182  1.3515  2.4312
  237SOL     OW  709   2.297   1.096   1.493 -0.1565 -0.1309 -0.0393
  237SOL    HW1  710   2.226   1.023   1.487  1.2809 -0.8056 -1.2929
  237SOL    HW2  711   2.263   1.178   1.536  0.6123 -1.8242  1.0899
  238SOL     OW  712   1.654   0.077   2.244  0.0858  0.2971  0.6372
  238SOL    HW1  713   1.738   0.040   2.283 -2.7880  0.8322 -1.9353
  238SOL    HW2  714   1.660   0.069   2.143 -0.8630 -2.8466  0.5777
  239SOL     OW  715   0.896   2.052   1.973  0.0599  0.2051  0.2104
  239SOL    HW1  716   0.807   2.024   1.933  2.2446 -0.1750  1.5880
  239SOL    HW2  717   0.964   2.046   1.898  2.7697 -1.2928 -2.6721
  240SOL     OW  718   2.829   2.872   0.581  0.1746 -0.3820 -0.7107
  240SOL    HW1  719   2.926   2.864   0.547  3.3104 -1.0840  0.0866
  240SOL    HW2  720   2.815   2.967   0.628  0.6556  0.8043  1.9798
  241SOL     OW  721   1.356   1.807   0.476  0.4445 -0.0069  0.4126
  241SOL    HW1  722   1.324   1.730   0.539 -0.6621 -1.1971 -1.1757
  241SOL    HW2  723   1.279   1.861   0.443 -0.9865  1.5776  1.9359
  242SOL     OW  724   2.316   1.079   0.148 -0.9851  0.4540  0.7244
  242SOL    HW1  725   2.384   1.006   0.116  1.2987 -1.8002 -3.6707
  242SOL    HW2  726   2.230   1.065   0.103  0.6706 -0.1104 -0.1037
  243SOL     OW  727   0.509   0.485   2.041  0.0482 -0.0926 -0.0212
  243SOL    HW1  728   0.478   0.412   1.979  0.0441  0.9101 -1.2084
  243SOL    HW2  729   0.476   0.578   2.015  2.8606 -1.1505 -0.1477
  244SOL     OW  730   1.581   2.580   2.832 -0.2258 -0.4762 -0.0032
  244SOL    HW1  731   1.534   2.654   2.779 -0.9415 -0.6389  0.6628
  244SOL    HW2  732   1.593   2.511   2.757  1.2608  3.3908 -0.2121
  245SOL     OW  733   1.563   3.003   2.825 -0.3923 -0.4251 -0.7049
  245SOL    HW1  734   1.462   3.003   2.836 -2.5505 -0.8120 -1.7970
  245SOL    HW2  735   1.613   2.983   2.914  3.8245 -1.2401 -0.0319
  246SOL     OW  736   1.312   1.100   2.496  0.1371  0.0461  0.1490
  246SOL    HW1  737   1.390   1.164   2.468  1.0472  2.2956 -0.4654
  246SOL    HW2  738   1.235   1.161   2.524 -1.3990  0.5682  2.6246
  247SOL     OW  739   2.850   0.590   2.021 -0.3924  0.3608 -0.1286
  247SOL    HW1  740   2.858   0.526   1.945  2.2000 -1.0822 -1.1048
  247SOL    HW2  741   2.919   0.666   2.004 -0.4037 -0.2336  2.4620
  248SOL     OW  742   0.201   1.335   1.917  0.3885  0.2711  0.2091
  248SOL    HW1  743   0.193   1.258   1.852  0.0844  1.0868  2.2830
  248SOL    HW2  744   0.298   1.364   1.928  0.9908 -0.7242  0.2175
  249SOL     OW  745   2.690   0.499   0.010 -0.1508 -0.3600 -0.0792
  249SOL    HW1  746   2.663   0.552   0.089  0.2349 -1.2736  1.0048
  249SOL    HW2  747   2.618   0.439   3.093  1.5607  1.8343  1.7504
  250SOL     OW  748   2.850   0.278   0.602 -0.0685  0.1794  0.2396
  250SOL    HW1  749   2.798   0.311   0.518  2.3122 -1.6147  2.0964
  250SOL    HW2  750   2.820   0.190   0.647 -0.9066  0.7026  1.6097
  251SOL     OW  751   0.647   1.305   2.147 -0.0421 -0.0393 -0.0323
  251SOL    HW1  752   0.703   1.282   2.227  1.9986 -2.4623 -1.2000
  251SOL    HW2  753   0.689   1.313   2.057 -1.2877 -0.3148  1.6280
  252SOL     OW  754   1.766   1.824   1.840 -0.2364 -0.0811 -0.6250
  252SOL    HW1  755   1.705   1.742   1.825 -1.1625  2.2565 -0.3919
  252SOL    HW2  756   1.756   1.877   1.751 -1.5281 -1.1418  0.6735
  253SOL     OW  757   1.801   2.193   1.948  0.3942  0.6050  0.5303
  253SOL    HW1  758   1.850   2.166   2.029 -0.8728  0.8000  0.9523
  253SOL    HW2  759   1.723   2.245   1.980 -1.7361 -2.6417 -1.3991
  254SOL     OW  760   0.827   2.122   2.307 -0.4816 -0.4226  0.0751
  254SOL    HW1  761   0.738   2.117   2.261 -0.6193  0.4353 -1.6199
  254SOL    HW2  762   0.891   2.172   2.253  1.2376 -0.4505 -0.9649
  255SOL     OW  763   1.329   0.548   0.601  0.8467 -0.4306 -0.2276
  255SOL    HW1  764   1.247   0.600   0.578 -0.4963 -0.5290 -1.2629
  255SOL    HW2  765   1.391   0.601   0.665  0.4815 -1.3146 -0.8972
  256SOL     OW  766   1.842   2.257   1.069  0.3343 -0.1302  0.1627
  256SOL    HW1  767   1.941   2.246   1.053 -0.0593  1.0906  0.9976
  256SOL    HW2  768   1.794   2.220   0.987  0.8630  2.4521 -0.0641
  257SOL     OW  769   0.218   2.144   2.770 -0.2354 -0.0902  0.1210
  257SOL    HW1  770   0.252   2.085   2.691  1.1720 -2.1647  0.6381
  257SOL    HW2  771   0.133   2.199   2.742 -1.6192 -0.1509  0.2334
  258SOL     OW  772   0.472   1.146   2.441 -0.0928  0.4440 -0.0923
  258SOL    HW1  773   0.418   1.065   2.432  0.0847  1.0718 -1.8003
  258SOL    HW2  774   0.486   1.180   2.535  0.8886  0.7235  0.2517
  259SOL     OW  775   1.257   0.863   2.383 -0.0879 -0.0959 -0.1241
  259SOL    HW1  776   1.310   0.933   2.433  3.0805  1.0396  1.0722
  259SOL    HW2  777   1.300   0.838   2.294 -2.7417 -0.4859 -4.0351
  260SOL     OW  778   1.953   0.628   0.672  0.4096  0.3325  0.0928
  260SOL    HW1  779   1.921   0.728   0.660 -0.4682 -0.3235  0.3873
  260SOL    HW2  780   1.907   0.558   0.609  1.3077  0.2915 -1.2560
  261SOL     OW  781   0.853   0.375   0.063  0.1267  0.5805  0.2889
  261SOL    HW1  782   0.851   0.386   0.163 -1.2102 -1.9835 -0.7029
  261SOL    HW2  783   0.865   0.466   0.013 -0.2268  1.9704 -0.9725
  262SOL     OW  784   2.075   2.932   2.630 -0.0748  0.0140 -0.1527
  262SOL    HW1  785   2.080   2.831   2.647  0.0136  0.0387  0.0157
  262SOL    HW2  786   2.112   2.955   2.538 -0.2644 -3.3799 -0.2119
  263SOL     OW  787   0.984   1.906   2.832  0.7065 -0.3021 -0.3883
  263SOL    HW1  788   0.984   1.855   2.746 -0.7173  3.1051  0.6500
  263SOL    HW2  789   0.937   2.002   2.829 -2.4950  3.3060 -1.7928
  264SOL     OW  790   0.302   1.717   1.775 -0.0299 -0.0631  0.1503
  264SOL    HW1  791   0.383   1.662   1.759 -0.9210  2.0613  1.6156
  264SOL    HW2  792   0.321   1.764   1.863  0.5969 -0.8576 -0.5274
  265SOL     OW  793   0.799   1.038   0.452 -0.1663 -0.9255 -0.2783
  265SOL    HW1  794   0.788   1.135   0.463  1.7731  0.8090  0.7444
  265SOL    HW2  795   0.880   1.025   0.393  1.9472 -0.7838 -0.7566
  266SOL     OW  796   1.677   1.561   0.205  0.2362  0.1762  0.1266
  266SOL    HW1  797   1.736   1.643   0.177  1.1177  0.9521 -2.1874
  266SOL    HW2  798   1.627   1.580   0.293  2.5157  0.4914 -3.4603
  267SOL     OW  799   2.687   0.185   2.925 -0.1998 -0.5590 -0.2080
  267SOL    HW1  800   2.750   0.146   2.992 -0.4678 -0.7654  1.1693
  267SOL    HW2  801   2.740   0.204   2.840 -2.0552 -0.9580 -3.4272
  268SOL     OW  802   0.454   0.366   2.808  0.4164 -0.1251  0.6536
  268SOL    HW1  803   0.483   0.412   2.723  0.9984 -1.8026 -1.3041
  268SOL    HW2  804   0.538   0.333   2.860  0.3512  2.9971  3.0775
  269SOL     OW  805   1.612   0.539   2.486 -0.0398 -0.2467  0.1378
  269SOL    HW1  806   1.609   0.595   2.398 -1.6957  1.5555 -0.6655
  269SOL    HW2  807   1.546   0.466   2.495  0.7239 -1.4388  2.5387
  270SOL     OW  808   0.967   0.873   2.352 -0.3760  0.5636 -0.1749
  270SOL    HW1  809   1.069   0.868   2.354  1.8647 -0.1400 -1.4507
  270SOL    HW2  810   0.931   0.879   2.448 -0.3592 -1.1660  0.6331
  271SOL     OW  811   2.834   0.907   0.036 -0.4448  0.4682 -0.1756
  271SOL    HW1  812   2.764   0.919   3.088  2.8577 -1.9091  0.2509
  271SOL    HW2  813   2.915   0.860   0.001  1.7180  2.6203  0.9956
  272SOL     OW  814   2.435   1.896   2.852 -0.3350 -0.5533  0.6522
  272SOL    HW1  815   2.427   1.968   2.779 -2.4566  1.4798 -0.8629
  272SOL    HW2  816   2.399   1.807   2.818  0.4074 -0.2363 -1.7964
  273SOL     OW  817   3.049   0.460   2.730  0.5550 -0.1454 -0.4389
  273SOL    HW1  818   2.996   0.374   2.717  0.6715 -1.9040  1.1842
  273SOL    HW2  819   0.016   0.436   2.768 -0.1622 -3.3916 -0.6454
  274SOL     OW  820   3.053   3.023   1.538 -0.4295  0.4668  0.2947
  274SOL    HW1  821   2.957   2.995   1.554 -2.3619 -0.3058 -0.5810
  274SOL    HW2  822   3.066   3.055   1.442 -0.3419  1.3779  0.9130
  275SOL     OW  823   2.021   1.321   0.705 -0.1998  0.5359 -0.0895
  275SOL    HW1  824   2.017   1.246   0.776 -4.8887 -1.4033  0.6568
  275SOL    HW2  825   1.995   1.274   0.618  1.4624  1.4296  0.8060
  276SOL     OW  826   0.301   1.384   2.729  0.2001 -0.1927 -0.5423
  276SOL    HW1  827   0.387   1.324   2.733  0.4704 -0.7212  2.9699
  276SOL    HW2  828   0.290   1.413   2.631  0.2571 -1.0333 -0.6043
  277SOL     OW  829   1.942   2.450   1.927 -0.4313  0.3636 -0.0287
  277SOL    HW1  830   1.860   2.392   1.939 -3.2652  1.9366  1.0609
  277SOL    HW2  831   1.948   2.521   1.999  0.2242  3.3020  2.4592
  278SOL     OW  832   2.083   0.173   1.420  0.3857 -0.0767  0.1580
  278SOL    HW1  833   2.059   0.115   1.500 -1.0142 -0.4919 -1.6442
  278SOL    HW2  834   2.045   0.133   1.334  1.4332  1.4274  0.8592
  279SOL     OW  835   1.355   1.147   2.996 -0.0032  0.0229  0.1010
  279SOL    HW1  836   1.384   1.103   2.909 -0.2413  1.1622  0.8111
  279SOL    HW2  837   1.419   1.134   3.072 -3.9022  1.1146  0.0362
  280SOL     OW  838   0.569   1.658   1.161  0.2679  1.0326  0.4633
  280SOL    HW1  839   0.537   1.639   1.065  1.6008  2.0082 -1.7561
  280SOL    HW2  840   0.557   1.753   1.194 -0.8004  1.2530 -0.7399
  281SOL     OW  841   0.144   0.241   2.431 -0.9368 -0.4052  0.0532
  281SOL    HW1  842   0.206   0.196   2.372  0.1921  3.3616  1.0348
  281SOL    HW2  843   0.083   0.172   2.475 -3.6985  1.5436  2.7359
  282SOL     OW  844   0.034   0.942   1.412  0.1978 -0.1443 -0.3444
  282SOL    HW1  845   0.019   1.040   1.407  0.9285 -1.3620 -0.1554
  282SOL    HW2  846   0.033   0.891   1.318  0.4876 -1.4484 -0.2145
  283SOL     OW  847   1.525   2.165   2.578  0.2675 -0.4530  0.2728
  283SOL    HW1  848   1.535   2.080   2.631 -0.5524  1.1206  1.0769
  283SOL    HW2  849   1.428   2.198   2.567  1.2806  2.1155  0.5684
  284SOL     OW  850   1.775   1.088   0.150 -0.3666  0.3136  0.3820
  284SOL    HW1  851   1.772   1.174   0.203 -1.0694 -0.2526  1.3904
  284SOL    HW2  852   1.814   1.095   0.056 -1.4167  1.4313  0.0977
  285SOL     OW  853   3.074   0.053   2.855  0.5269 -0.3828 -0.1768
  285SOL    HW1  854   2.999   0.060   2.927 -0.0722 -1.7298 -0.4245
  285SOL    HW2  855   0.028   0.119   2.869  0.3948 -0.3531  0.5085
  286SOL     OW  856   2.023   2.676   1.301 -0.0182  0.5574  0.8473
  286SOL    HW1  857   2.021   2.651   1.399 -0.7172 -1.9063  1.7755
  286SOL    HW2  858   2.103   2.726   1.272 -2.5858  1.1378 -1.7900
  287SOL     OW  859   0.673   0.969   1.258  0.3498  0.5062  0.1626
  287SOL    HW1  860   0.634   0.880   1.229  0.3731  1.5494 -2.8508
  287SOL    HW2  861   0.698   0.981   1.357 -2.5592 -0.3244 -1.1294
  288SOL     OW  862   1.474   2.749   0.050  0.3988  0.2903  0.3504
  288SOL    HW1  863   1.475   2.649   0.038  0.6100  2.4112 -0.1831
  288SOL    HW2  864   1.388   2.783   0.099 -3.5441  2.5088  2.8355
  289SOL     OW  865   0.080   1.820   3.012  0.2840 -0.3599 -0.2282
  289SOL    HW1  866   0.177   1.817   3.043  0.9444  0.0659 -1.9173
  289SOL    HW2  867   0.038   1.917   3.030 -3.4416  2.0332  1.2230
  290SOL     OW  868   1.174   2.649   0.674  0.3108  0.1795  0.4969
  290SOL    HW1  869   1.082   2.649   0.632  0.3825  2.0124  2.4221
  290SOL    HW2  870   1.202   2.553   0.695  1.4951  0.8674 -0.8500
  291SOL     OW  871   2.240   2.037   0.275 -0.1538 -0.4021  0.0476
  291SOL    HW1  872   2.275   2.130   0.300  0.1782  0.5574 -0.8604
  291SOL    HW2  873   2.306   1.980   0.217  0.5736 -0.7306 -3.5760
  292SOL     OW  874   0.779   1.252   1.906 -0.2692 -0.1979 -0.0121
  292SOL    HW1  875   0.861   1.192   1.909 -1.0750  4.9366 -0.8236
  292SOL    HW2  876   0.730   1.250   1.814 -2.4381  0.3308  0.8365
  293SOL     OW  877   2.207   2.743   0.916 -0.9263 -0.1217 -0.1616
  293SOL    HW1  878   2.295   2.706   0.957  3.3349 -2.4543  3.3628
  293SOL    HW2  879   2.127   2.704   0.963  1.7247  0.1753 -1.2944
  294SOL     OW  880   3.085   0.736   2.383  0.1317  0.4048  0.0569
  294SOL    HW1  881   3.113   0.790   2.301 -0.1863 -2.3602 -0.6176
  294SOL    HW2  882   0.036   0.668   2.406  1.1965  1.4658 -0.4155
  295SOL     OW  883   0.852   1.866   0.263 -0.1882 -0.1882 -0.0558
  295SOL    HW1  884   0.759   1.844   0.227  1.6438  0.0404 -0.3029
  295SOL    HW2  885   0.924   1.870   0.194  1.0501 -0.0104 -0.6804
  296SOL     OW  886   2.082   1.886   2.756  0.0461 -0.1800 -0.3289
  296SOL    HW1  887   2.141   1.852   2.678  0.2145 -0.9727 -1.4103
  296SOL    HW2  888   2.036   1.813   2.809  2.0731  1.6380  3.2412
  297SOL     OW  889   2.954   0.556   2.992  0.1521 -0.1914  0.3086
  297SOL    HW1  890   2.976   0.528   2.895 -1.0646 -0.6313 -2.1572
  297SOL    HW2  891   2.860   0.528   3.012  0.0824 -1.7851  1.6586
  298SOL     OW  892   0.865   2.362   3.041  0.6179  0.7380  0.5456
  298SOL    HW1  893   0.858   2.278   2.987 -2.2189  0.7894  1.1300
  298SOL    HW2  894   0.781   2.418   3.033  0.3704  1.5680 -0.8757
  299SOL     OW  895   1.609   2.922   2.569  0.1550  0.2235 -0.9776
  299SOL    HW1  896   1.568   2.981   2.500 -0.8586 -0.6434  1.5133
  299SOL    HW2  897   1.608   2.960   2.666 -0.3420  1.0727  1.3403
  300SOL     OW  898   2.761   0.337   0.346 -0.7128 -1.0271 -0.1957
  300SOL    HW1  899   2.669   0.363   0.310  1.0475  0.1598 -0.0843
  300SOL    HW2  900   2.781   0.243   0.318 -0.6418  1.9241  0.0678
  301SOL     OW  901   1.055   1.026   1.645 -0.6464  0.1558 -0.2804
  301SOL    HW1  902   1.020   0.947   1.592  0.1341 -1.1747  1.5964
  301SOL    HW2  903   1.040   1.113   1.596  1.9956  0.0526  1.5834
  302SOL     OW  904   0.118   2.487   3.057  0.0013  0.0638 -0.0150
  302SOL    HW1  905   0.128   2.388   3.028  1.1443  1.2797  0.9341
  302SOL    HW2  906   0.197   2.548   3.028 -1.8241  0.0417 -1.6278
  303SOL     OW  907   3.081   0.064   2.571  0.3283  1.0215  0.5135
  303SOL    HW1  908   3.077   0.065   2.674 -3.3869 -1.3603  1.6829
  303SOL    HW2  909   3.005   0.127   2.535 -1.4893 -2.2655  3.7359
  304SOL     OW  910   2.892   0.215   1.494 -0.6820 -0.6573  0.3524
  304SOL    HW1  911   2.944   0.181   1.411  2.7993  1.0880 -0.7873
  304SOL    HW2  912   2.800   0.251   1.470  0.2773  2.0267  0.4021
  305SOL     OW  913   0.416   2.940   2.245  0.0815 -0.1113 -0.0640
  305SOL    HW1  914   0.485   3.005   2.205 -0.8778  1.0068  1.7517
  305SOL    HW2  915   0.326   2.979   2.275 -1.3523  2.3766 -0.8236
  306SOL     OW  916   2.801   1.007   1.444 -0.1060 -0.2495 -0.1595
  306SOL    HW1  917   2.817   1.103   1.472  0.0919 -0.5314 -1.8264
  306SOL    HW2  918   2.878   0.946   1.455 -1.1737  1.1773 -0.2871
  307SOL     OW  919   1.347   0.665   1.277  0.1472 -0.3742 -0.3268
  307SOL    HW1  920   1.386   0.597   1.344 -2.1580 -2.0960  1.3002
  307SOL    HW2  921   1.342   0.629   1.185  0.9141  1.6669  2.3262
  308SOL     OW  922   2.749   2.072   1.072  0.1067  0.0298  0.1011
  308SOL    HW1  923   2.698   2.132   1.136 -0.0057 -0.4457 -2.9894
  308SOL    HW2  924   2.690   1.989   1.054 -1.4714 -3.8671  2.3126
  309SOL     OW  925   2.335   1.547   1.463  0.0828  0.3438 -0.0993
  309SOL    HW1  926   2.351   1.604   1.383  1.4327 -0.0109  0.6871
  309SOL    HW2  927   2.425   1.518   1.498  2.3178 -1.9559 -0.4619
  310SOL     OW  928   2.688   1.730   0.255 -0.0531 -0.2608 -0.5045
  310SOL    HW1  929   2.729   1.663   0.194 -0.6487  3.2194  1.7785
  310SOL    HW2  930   2.707   1.816   0.214 -1.0712 -1.6208  0.5614
  311SOL     OW  931   2.206   2.054   3.048  0.0353  0.1376 -0.2826
  311SOL    HW1  932   2.130   2.080   2.987  2.4672 -1.1291 -1.1267
  311SOL    HW2  933   2.275   1.999   2.997  2.0989 -1.5742 -2.3699
  312SOL     OW  934   2.416   1.666   1.230 -0.0112 -0.0239  0.0364
  312SOL    HW1  935   2.369   1.756   1.237 -1.3332  2.5702  0.7137
  312SOL    HW2  936   2.516   1.677   1.252 -1.3354  1.1356  1.4399
  313SOL     OW  937   2.391   2.329   1.189  0.3063  0.4073 -0.0915
  313SOL    HW1  938   2.485   2.304   1.214 -2.4104  0.2676  3.5289
  313SOL    HW2  939   2.377   2.429   1.192 -0.0062 -0.8846 -0.8043
  314SOL     OW  940   0.920   2.092   0.660 -0.0375  0.3969  0.3221
  314SOL    HW1  941   0.911   2.180   0.712  0.9528  2.1329 -1.5415
  314SOL    HW2  942   0.927   2.106   0.558 -0.6559  1.1223 -2.2007
  315SOL     OW  943   0.625   2.832   3.035 -0.0705 -0.1993 -0.4559
  315SOL    HW1  944   0.698   2.900   3.062  0.3399  1.6778 -1.2403
  315SOL    HW2  945   0.666   2.738   3.016  0.0866 -1.4490 -2.2397
  316SOL     OW  946   0.045   0.713   0.543 -0.8911  0.2667  0.2773
  316SOL    HW1  947   0.102   0.789   0.493 -3.4202 -1.7306 -0.3809
  316SOL    HW2  948   0.025   0.635   0.481  2.1304 -2.6985 -0.8283
  317SOL     OW  949   1.631   0.521   0.822  0.0123 -0.2593 -0.2037
  317SOL    HW1  950   1.588   0.610   0.794  0.3006 -0.6109  3.0221
  317SOL    HW2  951   1.591   0.448   0.761  0.1505  0.7770  1.7025
  318SOL     OW  952   0.116   2.602   0.347  0.7244  0.1569  0.2628
  318SOL    HW1  953   0.063   2.690   0.338  1.4207  0.1822  1.6578
  318SOL    HW2  954   0.050   2.533   0.387  0.2324  2.0436 -3.4833
  319SOL     OW  955   0.722   1.820   2.958 -0.0134  0.5953  0.6740
  319SOL    HW1  956   0.807   1.852   2.928  0.3547  0.5109 -0.2549
  319SOL    HW2  957   0.677   1.893   3.010  2.9220 -0.7867 -1.9885
  320SOL     OW  958   0.655   2.506   2.465  0.2996  0.0228  0.3003
  320SOL    HW1  959   0.689   2.603   2.468  1.6620  0.6557  1.2196
  320SOL    HW2  960   0.705   2.450   2.538 -1.6523 -1.0800  1.9951
  321SOL     OW  961   1.279   2.932   2.877 -0.9575  0.1716 -0.1939
  321SOL    HW1  962   1.332   2.850   2.865  0.3796 -2.0831 -0.1025
  321SOL    HW2  963   1.186   2.931   2.838  1.7723  1.8921  0.5443
  322SOL     OW  964   2.631   1.535   1.966  0.4757  0.0558  0.0680
  322SOL    HW1  965   2.622   1.578   2.056 -0.7418 -0.3497  0.0640
  322SOL    HW2  966   2.642   1.433   1.977  0.1001 -1.4742 -1.8194
  323SOL     OW  967   2.520   0.474   0.309 -0.1516  0.4015  0.0905
  323SOL    HW1  968   2.425   0.509   0.288 -2.9636 -0.9093  2.0140
  323SOL    HW2  969   2.565   0.533   0.382  0.9006  2.3941  3.0845
  324SOL     OW  970   0.317   0.030   2.677 -0.7395 -0.1872  0.0182
  324SOL    HW1  971   0.266   0.086   2.749  0.3942  3.3860 -0.4466
  324SOL    HW2  972   0.248   3.090   2.629 -1.1681 -2.1246  1.5440
  325SOL     OW  973   1.594   0.347   2.242  0.4848  0.4677 -0.1332
  325SOL    HW1  974   1.632   0.252   2.238  1.0506 -2.0020 -2.2780
  325SOL    HW2  975   1.525   0.351   2.320  0.5567 -1.1404  0.8747
  326SOL     OW  976   2.503   2.570   1.322  0.4869 -0.2805  0.5996
  326SOL    HW1  977   2.427   2.574   1.391  1.1351 -1.0023 -1.5306
  326SOL    HW2  978   2.481   2.614   1.235 -1.1620  1.1086 -0.1770
  327SOL     OW  979   1.549   0.217   2.907 -0.4361 -0.5583 -0.4904
  327SOL    HW1  980   1.568   0.195   3.006 -1.6686  0.8602  0.6505
  327SOL    HW2  981   1.614   0.290   2.869  2.8272  1.0242  0.9856
  328SOL     OW  982   2.652   1.341   2.584  0.1773 -0.3779  0.1040
  328SOL    HW1  983   2.618   1.395   2.507  2.1235 -0.0444 -0.3920
  328SOL    HW2  984   2.669   1.398   2.664  0.3405  0.8928  0.4071
  329SOL     OW  985   1.852   2.687   1.725  0.1039  0.3203  0.5153
  329SOL    HW1  986   1.841   2.744   1.806 -1.2824 -2.5470  0.9962
  329SOL    HW2  987   1.775   2.626   1.720  2.2275 -0.7612 -0.5126
  330SOL     OW  988   2.557   1.508   1.581  0.1519 -0.1425  0.2521
  330SOL    HW1  989   2.504   1.562   1.645  1.8349 -2.5931 -0.2128
  330SOL    HW2  990   2.656   1.532   1.587 -0.4188 -0.7323  1.2598
  331SOL     OW  991   0.134   1.766   1.345 -0.0148 -0.1555  0.0665
  331SOL    HW1  992   0.129   1.668   1.314  0.4326 -1.7711 -2.4665
  331SOL    HW2  993   0.211   1.822   1.300  0.2613 -0.5592 -1.5439
  332SOL     OW  994   0.577   0.249   1.209  0.0439 -0.3306 -0.3589
  332SOL    HW1  995   0.627   0.214   1.131 -4.9971 -1.6477  3.9928
  332SOL    HW2  996   0.540   0.169   1.261 -2.8800 -1.4798  0.5002
  333SOL     OW  997   2.075   2.619   2.105  0.6248  0.6828 -0.4110
  333SOL    HW1  998   2.168   2.593   2.084 -0.0014  1.8891  0.0596
  333SOL    HW2  999   2.065   2.721   2.114  1.3326  1.5870  0.1623
  334SOL     OW 1000   1.159   1.173   1.350  0.5033  0.1175 -0.7204
  334SOL    HW1 1001   1.184   1.269   1.320  2.9088 -4.7107 -0.9856
  334SOL    HW2 1002   1.166   1.111   1.266  1.1392 -0.0266  0.9826
  335SOL     OW 1003   0.978   2.856   2.869  0.0444 -0.0058 -0.0431
  335SOL    HW1 1004   0.925   2.935   2.902  1.4862 -2.3261 -4.5714
  335SOL    HW2 1005   0.930   2.800   2.800  1.5019  0.4044 -0.3459
  336SOL     OW 1006   2.683   2.631   2.092  0.6091  0.5614 -0.6445
  336SOL    HW1 1007   2.780   2.620   2.064 -0.9342  1.1511 -3.9792
  336SOL    HW2 1008   2.645   2.540   2.105 -0.0425 -0.3397 -0.8105
  337SOL     OW 1009   2.447   1.580   0.668  0.0575 -0.3966 -0.1924
  337SOL    HW1 1010   2.391   1.505   0.632 -0.6109  0.2784  1.5330
  337SOL    HW2 1011   2.457   1.651   0.589  0.0744  2.2691 -2.3859
  338SOL     OW 1012   0.991   1.934   1.402  0.3242  0.3439 -0.0502
  338SOL    HW1 1013   1.079   1.979   1.417 -1.9604 -1.7474 -0.5572
  338SOL    HW2 1014   0.949   1.955   1.310 -2.4954 -3.3807 -0.3001
  339SOL     OW 1015   0.142   0.951   2.192 -0.2370  0.6151  0.4411
  339SOL    HW1 1016   0.184   0.976   2.103 -0.0565  0.8579  0.3907
  339SOL    HW2 1017   0.066   1.013   2.214  4.4024 -1.7814 -0.1683
  340SOL     OW 1018   1.535   2.770   1.214  0.2316  0.2554  0.5316
  340SOL    HW1 1019   1.626   2.726   1.226 -1.0367  1.2696 -0.4038
  340SOL    HW2 1020   1.484   2.729   1.138  0.1555 -0.7340 -1.5563
  341SOL     OW 1021   1.840   1.487   0.811  0.7620  0.2845  0.5345
  341SOL    HW1 1022   1.906   1.416   0.780 -1.5787 -1.6914 -0.7084
  341SOL    HW2 1023   1.883   1.563   0.864  1.5888  0.7277  1.4081
  342SOL     OW 1024   0.358   1.313   0.785 -0.0875 -0.1102  0.0951
  342SOL    HW1 1025   0.282   1.257   0.742  0.3136 -0.4213  0.5837
  342SOL    HW2 1026   0.341   1.411   0.763 -0.6560 -0.4464 -3.3091
  343SOL     OW 1027   2.366   0.513   1.446  0.8539 -0.1352 -0.3848
  343SOL    HW1 1028   2.282   0.482   1.399  0.8378  1.7812  0.7214
  343SOL    HW2 1029   2.381   0.603   1.400  1.1315 -0.3576  1.9219
  344SOL     OW 1030   2.096   2.666   0.649 -0.0071  0.0780 -0.1674
  344SOL    HW1 1031   2.168   2.613   0.597 -2.1596  0.4188 -0.0454
  344SOL    HW2 1032   2.139   2.686   0.740  2.3465 -1.5031  1.9853
  345SOL     OW 1033   0.015   2.562   2.797  0.1156 -0.2007  0.0644
  345SOL    HW1 1034   0.085   2.621   2.748  1.5428 -2.1586 -0.6900
  345SOL    HW2 1035   0.047   2.540   2.893 -0.6919 -0.3700 -1.1634
  346SOL     OW 1036   2.982   0.706   0.267 -0.0644  0.1093  0.0914
  346SOL    HW1 1037   2.975   0.793   0.323 -1.7302  1.0045  0.8920
  346SOL    HW2 1038   3.062   0.704   0.201  2.0016  1.0354  1.0983
  347SOL     OW 1039   1.788   2.659   1.173 -0.0682 -0.2922  0.2844
  347SOL    HW1 1040   1.875   2.673   1.228  1.2225  0.0870 -1.0873
  347SOL    HW2 1041   1.792   2.690   1.076 -0.3703 -0.3182  0.2546
  348SOL     OW 1042   1.446   1.547   2.546  0.3549 -0.1059  0.0013
  348SOL    HW1 1043   1.451   1.458   2.490 -0.1437  0.3338  2.1929
  348SOL    HW2 1044   1.398   1.614   2.488  2.0700  1.3659 -0.9504
  349SOL     OW 1045   2.566   1.475   2.361 -0.6370 -0.4529  0.1979
  349SOL    HW1 1046   2.495   1.542   2.333 -2.0967 -1.8447 -0.6012
  349SOL    HW2 1047   2.555   1.385   2.322 -1.2359  2.3596 -0.3458
  350SOL     OW 1048   0.275   1.971   1.033  0.5947 -0.8759 -0.5068
  350SOL    HW1 1049   0.292   1.948   1.130 -2.9270  1.2323  1.4973
  350SOL    HW2 1050   0.216   2.056   1.030  0.9464 -0.1883 -2.1110
  351SOL     OW 1051   0.885   0.314   2.176  0.4780 -0.1039  0.2185
  351SOL    HW1 1052   0.909   0.243   2.245 -0.3419  4.1782  0.9376
  351SOL    HW2 1053   0.804   0.368   2.209 -0.7658  0.2047 -0.3610
  352SOL     OW 1054   0.779   2.728   1.833 -0.3283 -0.1166 -0.4708
  352SOL    HW1 1055   0.756   2.810   1.892 -0.6658 -0.6801 -0.0556
  352SOL    HW2 1056   0.847   2.753   1.763 -0.8371 -0.7483  0.3367
  353SOL     OW 1057   0.995   1.573   2.388 -0.6383 -0.6417 -0.3606
  353SOL    HW1 1058   1.050   1.492   2.371  0.6229 -0.4930  3.0994
  353SOL    HW2 1059   0.928   1.586   2.317 -0.2384 -0.7605  0.7775
  354SOL     OW 1060   1.910   1.223   0.481  0.3451 -0.3704  0.0335
  354SOL    HW1 1061   1.832   1.247   0.418  0.4872  2.1457 -2.9423
  354SOL    HW2 1062   1.949   1.133   0.459 -0.6057  0.2652 -1.0067
  355SOL     OW 1063   2.327   0.327   0.687  0.4509  0.3314  0.3398
  355SOL    HW1 1064   2.395   0.314   0.761 -1.1293  0.3711 -0.9111
  355SOL    HW2 1065   2.367   0.327   0.595 -2.4487  4.1416 -2.3399
  356SOL     OW 1066   3.107   1.185   2.571 -0.0312 -0.1873  0.3334
  356SOL    HW1 1067   0.056   1.125   2.612  2.7467 -0.4507 -0.2282
  356SOL    HW2 1068   3.094   1.268   2.627 -0.2163 -3.2006 -0.5625
  357SOL     OW 1069   0.034   2.836   1.721  0.1003 -0.5334  0.0654
  357SOL    HW1 1070   0.009   2.903   1.650  1.6315 -2.2728  0.3547
  357SOL    HW2 1071   3.088   2.761   1.720  0.8289 -1.4176  0.6536
  358SOL     OW 1072   3.026   1.432   2.705 -0.3523  0.4675 -0.4600
  358SOL    HW1 1073   3.076   1.509   2.755 -0.0096  1.8543  1.7510
  358SOL    HW2 1074   2.957   1.391   2.771  0.4553  0.3165 -0.2020
  359SOL     OW 1075   2.543   2.627   2.553 -0.8953 -0.4832 -0.0290
  359SOL    HW1 1076   2.530   2.699   2.629 -0.1201 -1.2640  0.1688
  359SOL    HW2 1077   2.614   2.661   2.488 -0.2271  0.1337  2.3205
  360SOL     OW 1078   1.257   1.201   0.914 -0.0280  0.1651  0.1429
  360SOL    HW1 1079   1.249   1.148   0.998 -1.7742  0.6941 -3.7155
  360SOL    HW2 1080   1.168   1.242   0.883 -2.4660 -1.5051  0.7925
  361SOL     OW 1081   2.117   2.240   0.924 -0.2999  0.4319 -0.9498
  361SOL    HW1 1082   2.179   2.187   0.989 -0.2981 -2.2380 -0.1347
  361SOL    HW2 1083   2.129   2.340   0.943 -0.3414  1.5774  0.7793
  362SOL     OW 1084   1.551   1.481   1.292  0.3050  0.1006 -0.1850
  362SOL    HW1 1085   1.633   1.509   1.244 -1.9938 -1.0000  3.1967
  362SOL    HW2 1086   1.494   1.416   1.234 -0.2973 -2.5413 -3.5284
  363SOL     OW 1087   2.615   1.958   0.473  0.3123  0.1610  0.3674
  363SOL    HW1 1088   2.627   2.008   0.386 -0.7993  1.2210 -1.8339
  363SOL    HW2 1089   2.549   1.884   0.455 -0.0921  2.9044 -2.4709
  364SOL     OW 1090   2.334   3.120   1.757  0.3888  0.8106  0.2736
  364SOL    HW1 1091   2.403   3.047   1.744  0.8036  0.3361 -0.4960
  364SOL    HW2 1092   2.371   0.059   1.828 -0.2202 -0.0791 -0.4565
  365SOL     OW 1093   0.030   2.605   1.486  0.6872 -0.1952 -0.0713
  365SOL    HW1 1094   3.083   2.532   1.477  0.4914 -0.3182 -1.4585
  365SOL    HW2 1095   0.084   2.597   1.573  1.6719  0.2440  0.3554
  366SOL     OW 1096   3.035   1.357   0.043 -0.0006 -0.4551  0.4414
  366SOL    HW1 1097   0.010   1.345   0.016 -0.3305  0.4839  2.7713
  366SOL    HW2 1098   3.006   1.278   0.098  5.5639  1.4307  2.3712
  367SOL     OW 1099   2.310   2.742   2.922  0.6148 -0.0167 -0.2369
  367SOL    HW1 1100   2.254   2.676   2.872  3.0981 -0.5927  1.3636
  367SOL    HW2 1101   2.308   2.726   3.024  1.2689 -2.0776  0.7607
  368SOL     OW 1102   3.051   1.627   1.054  0.5153 -0.0486  0.6101
  368SOL    HW1 1103   3.067   1.725   1.069  1.7335 -2.3513 -1.1392
  368SOL    HW2 1104   2.950   1.606   1.033 -0.8497  0.9464  2.5293
  369SOL     OW 1105   0.792   0.486   0.625  0.4903 -0.2872 -0.2578
  369SOL    HW1 1106   0.694   0.506   0.597 -3.1045 -1.7798  1.6308
  369SOL    HW2 1107   0.844   0.482   0.541  0.3789  0.3065  0.7920
  370SOL     OW 1108   0.645   0.332   0.812  0.1608 -0.3912 -0.3716
  370SOL    HW1 1109   0.580   0.388   0.870  0.5877  0.0541 -1.3154
  370SOL    HW2 1110   0.697   0.392   0.746 -0.5403  1.3459 -0.5380
  371SOL     OW 1111   2.256   1.600   0.150 -0.1138  0.5043 -0.0929
  371SOL    HW1 1112   2.191   1.543   0.098 -0.8592  0.3833 -1.9425
  371SOL    HW2 1113   2.335   1.543   0.173  2.1409 -1.9572  4.2426
  372SOL     OW 1114   0.160   1.043   2.748  0.0412  0.0590  0.0390
  372SOL    HW1 1115   0.098   1.023   2.828  0.0643  0.5767  1.1518
  372SOL    HW2 1116   0.212   0.960   2.715 -1.2720  0.9460  0.0929
  373SOL     OW 1117   2.947   1.126   0.175 -0.1750  0.3962  0.2290
  373SOL    HW1 1118   2.877   1.163   0.240 -2.8056 -0.8668 -1.2889
  373SOL    HW2 1119   2.898   1.048   0.121  0.7756 -1.9369  0.3996
  374SOL     OW 1120   0.658   2.536   0.009 -0.1357 -0.4195  0.0451
  374SOL    HW1 1121   0.594   2.499   0.074 -1.1436  0.2945  0.3552
  374SOL    HW2 1122   0.723   2.604   0.052 -0.3274  4.0726 -1.1137
  375SOL     OW 1123   1.419   0.284   0.261 -0.5440 -0.5928 -0.1738
  375SOL    HW1 1124   1.352   0.327   0.195  1.8190  0.8828 -0.1327
  375SOL    HW2 1125   1.367   0.222   0.319  0.9344  1.4123 -0.2819
  376SOL     OW 1126   0.251   2.748   1.893  0.1863 -0.2405 -0.5268
  376SOL    HW1 1127   0.317   2.676   1.860 -0.8991  0.6679 -1.0003
  376SOL    HW2 1128   0.173   2.745   1.833  2.5341 -2.2689  3.2913
  377SOL     OW 1129   2.796   2.108   2.934  0.1455  0.2924 -0.5655
  377SOL    HW1 1130   2.764   2.199   2.970  1.1357  3.2500  0.4451
  377SOL    HW2 1131   2.733   2.026   2.944 -0.0431 -1.6979 -1.1972
  378SOL     OW 1132   1.732   0.718   0.438 -0.0282 -0.6112  0.1809
  378SOL    HW1 1133   1.630   0.707   0.417 -0.9331 -0.6095 -0.6793
  378SOL    HW2 1134   1.750   0.777   0.518  0.3231 -0.2594  1.5182
  379SOL     OW 1135   1.203   1.562   0.541 -0.5174  0.5340  0.0694
  379SOL    HW1 1136   1.182   1.510   0.460 -1.9276 -0.6724  0.0464
  379SOL    HW2 1137   1.119   1.614   0.568 -0.4495 -1.0542 -0.1398
  380SOL     OW 1138   2.130   2.308   1.816  0.1560  0.2097  0.0918
  380SOL    HW1 1139   2.141   2.327   1.717 -1.0821  0.9209 -0.5107
  380SOL    HW2 1140   2.052   2.360   1.844 -0.3956  0.2001 -0.3561
  381SOL     OW 1141   2.966   1.012   2.235 -0.0740 -0.2570  0.2429
  381SOL    HW1 1142   3.016   1.090   2.279 -0.3396 -1.0699 -1.8727
  381SOL    HW2 1143   2.944   1.041   2.140  2.4222  0.7023 -0.0675
  382SOL     OW 1144   2.961   2.469   0.063 -0.4741  0.4785  0.2487
  382SOL    HW1 1145   2.911   2.478   3.097 -0.0503  2.5906 -0.9034
  382SOL    HW2 1146   3.062   2.465   0.043  0.6126  1.3729  1.8475
  383SOL     OW 1147   1.614   1.139   2.107 -0.3231  0.5066 -0.4840
  383SOL    HW1 1148   1.660   1.231   2.081  4.0513  1.3326  0.5054
  383SOL    HW2 1149   1.512   1.139   2.124  1.3101 -1.1443  0.3501
  384SOL     OW 1150   0.870   2.124   2.587  0.3805  0.0457 -0.2506
  384SOL    HW1 1151   0.828   2.133   2.496 -0.9265 -0.5669 -4.1538
  384SOL    HW2 1152   0.967   2.093   2.581 -2.6280  0.0862  1.0612
  385SOL     OW 1153   2.450   2.334   0.715  0.0211 -0.1663  0.0844
  385SOL    HW1 1154   2.500   2.382   0.641  1.5626  1.5632  0.4053
  385SOL    HW2 1155   2.356   2.311   0.688  0.3122  2.3749 -0.9711
  386SOL     OW 1156   1.465   1.213   0.400 -0.0690 -0.0536  0.3100
  386SOL    HW1 1157   1.448   1.264   0.488 -1.5208  1.1936 -3.7444
  386SOL    HW2 1158   1.446   1.113   0.404  1.9149  0.9032  2.5582
  387SOL     OW 1159   2.953   0.524   1.390 -0.1077  0.3143  0.4563
  387SOL    HW1 1160   2.990   0.581   1.464 -3.0534  0.9664  2.5714
  387SOL    HW2 1161   3.026   0.465   1.357  0.9114 -0.3975 -0.2401
  388SOL     OW 1162   2.872   0.709   1.216  0.2305  0.4200 -0.1794
  388SOL    HW1 1163   2.955   0.769   1.187 -0.8421  1.1565  2.5271
  388SOL    HW2 1164   2.901   0.633   1.281  0.7133 -1.3139  0.1023
  389SOL     OW 1165   1.766   1.349   2.506 -0.3422 -0.1247  0.0471
  389SOL    HW1 1166   1.804   1.329   2.599 -1.8692 -0.1237  1.1622
  389SOL    HW2 1167   1.806   1.429   2.465 -2.8805  2.0373 -3.3919
  390SOL     OW 1168   1.496   2.385   0.477 -0.1270 -0.2969  0.0295
  390SOL    HW1 1169   1.540   2.466   0.531 -0.0843  6.2429  3.0274
  390SOL    HW2 1170   1.539   2.376   0.385  0.1647 -1.6893  0.4493
  391SOL     OW 1171   1.216   2.277   1.022  0.4136 -0.7551  0.1327
  391SOL    HW1 1172   1.216   2.180   0.986 -1.2765 -0.2082 -1.6942
  391SOL    HW2 1173   1.266   2.278   1.113  0.4771  0.8934 -0.4772
  392SOL     OW 1174   2.572   2.787   1.500 -0.0222 -0.0479 -0.4689
  392SOL    HW1 1175   2.563   2.697   1.448 -1.7636 -0.9883 -1.6812
  392SOL    HW2 1176   2.667   2.802   1.540 -2.2784  1.0728  0.0357
  393SOL     OW 1177   1.696   2.521   2.381 -0.1566  0.5977  0.7781
  393SOL    HW1 1178   1.715   2.617   2.347 -1.3006 -1.1475  1.8276
  393SOL    HW2 1179   1.598   2.512   2.420 -1.5316  0.8501 -0.1025
  394SOL     OW 1180   0.397   2.838   2.573 -0.3952  0.0786  0.3576
  394SOL    HW1 1181   0.351   2.931   2.587 -0.4849 -0.1539  2.1251
  394SOL    HW2 1182   0.482   2.846   2.512  1.5770  0.4510  1.4231
  395SOL     OW 1183   0.315   1.023   1.145 -0.7001  0.4459 -0.6893
  395SOL    HW1 1184   0.379   1.097   1.110  0.6519  2.8765 -1.6037
  395SOL    HW2 1185   0.221   1.050   1.130 -0.1815  2.1238  1.7136
  396SOL     OW 1186   2.031   1.102   2.725 -0.4618  0.0669 -0.3200
  396SOL    HW1 1187   2.098   1.066   2.793 -0.2444  0.4558 -1.1128
  396SOL    HW2 1188   1.962   1.035   2.699  0.0204  0.7777 -1.7737
  397SOL     OW 1189   3.049   0.747   2.648 -0.3854 -0.7028  0.4236
  397SOL    HW1 1190   3.042   0.648   2.674  3.8563  0.8669  1.3125
  397SOL    HW2 1191   3.041   0.743   2.544 -2.6507 -2.2364 -1.0330
  398SOL     OW 1192   1.706   3.043   0.207  0.0965  0.3628  0.0533
  398SOL    HW1 1193   1.766   3.096   0.268  1.1621  1.2193  0.9107
  398SOL    HW2 1194   1.693   2.950   0.250 -1.0502 -3.2533 -0.1921
  399SOL     OW 1195   2.310   2.474   1.997  0.4253  0.2360 -0.2607
  399SOL    HW1 1196   2.349   2.432   2.080  1.1531  2.9527 -2.9575
  399SOL    HW2 1197   2.239   2.424   1.938  0.3248  2.4678 -1.1954
  400SOL     OW 1198   3.012   2.129   2.253 -0.3741  0.0004  0.0564
  400SOL    HW1 1199   3.056   2.050   2.207  1.1846 -1.1383  2.5664
  400SOL    HW2 1200   2.929   2.149   2.195  1.3838 -1.2821  0.7746
  401SOL     OW 1201   0.468   0.794   0.666 -0.0160  0.3467 -0.1835
  401SOL    HW1 1202   0.488   0.692   0.675 -0.8564 -0.9963  1.4461
  401SOL    HW2 1203   0.424   0.819   0.753 -1.2885 -3.4258  0.1624
  402SOL     OW 1204   0.788   2.840   2.148  0.5827  0.2636 -0.0639
  402SOL    HW1 1205   0.888   2.833   2.162 -2.3218 -0.4743  0.3067
  402SOL    HW2 1206   0.754   2.912   2.080 -0.8441 -0.5907 -1.8510
  403SOL     OW 1207   3.014   1.391   1.968  0.3917  0.0241 -0.6224
  403SOL    HW1 1208   3.114   1.367   1.971  1.2819  0.8866 -2.6133
  403SOL    HW2 1209   2.983   1.436   2.058 -1.7731 -0.2916  2.6807
  404SOL     OW 1210   2.919   2.027   2.482  0.4337  0.7043 -0.2422
  404SOL    HW1 1211   2.961   2.074   2.399  0.1020  1.4701  1.7326
  404SOL    HW2 1212   2.866   2.086   2.548  0.9849  0.6593 -0.1293
  405SOL     OW 1213   2.162   0.195   2.666 -0.4944  0.1820 -0.3227
  405SOL    HW1 1214   2.111   0.138   2.737 -2.1994 -1.6244 -0.6036
  405SOL    HW2 1215   2.169   0.145   2.575  0.3881 -0.1107 -0.3804
  406SOL     OW 1216   1.435   2.212   0.668  0.7287 -0.4261 -0.4791
  406SOL    HW1 1217   1.481   2.251   0.588 -1.1762  2.2381 -1.6919
  406SOL    HW2 1218   1.479   2.129   0.708  1.5693 -0.2700 -0.3053
  407SOL     OW 1219   1.721   1.287   0.314  0.7089  0.3454 -0.2038
  407SOL    HW1 1220   1.698   1.368   0.258  1.3858 -1.1591  1.1762
  407SOL    HW2 1221   1.641   1.251   0.364  1.4421  0.1176 -0.2351
  408SOL     OW 1222   0.207   0.894   1.615  0.1807  0.2131  0.5410
  408SOL    HW1 1223   0.155   0.901   1.527  0.3999  2.0590 -1.0049
  408SOL    HW2 1224   0.205   0.804   1.658 -0.4868 -0.4883 -0.0000
  409SOL     OW 1225   2.906   1.305   2.928  0.3183  0.5800 -0.2396
  409SOL    HW1 1226   2.811   1.278   2.964 -0.5516  1.1868  0.4331
  409SOL    HW2 1227   2.966   1.337   3.008  0.3586  2.1018 -1.1105
  410SOL     OW 1228   2.795   1.599   0.975 -0.6838 -0.4635  0.0405
  410SOL    HW1 1229   2.807   1.675   0.907 -0.1276  1.5470  0.8578
  410SOL    HW2 1230   2.715   1.543   0.951 -2.1910  1.2563 -2.3302
  411SOL     OW 1231   2.989   0.479   0.391  0.1615  0.0688  0.7951
  411SOL    HW1 1232   2.986   0.568   0.343 -1.5760  0.3865 -0.2157
  411SOL    HW2 1233   2.903   0.429   0.384  4.4715  2.3288 -1.6755
  412SOL     OW 1234   1.868   0.116   0.336  0.3118  0.2003  0.2439
  412SOL    HW1 1235   1.916   0.109   0.424  0.9089 -0.3727 -0.1245
  412SOL    HW2 1236   1.927   0.160   0.265 -2.7335 -4.2482  0.4097
  413SOL     OW 1237   1.130   0.236   1.783  0.0234  0.6634 -0.2184
  413SOL    HW1 1238   1.201   0.300   1.821  1.3427  1.0769 -0.9582
  413SOL    HW2 1239   1.172   0.143   1.792 -0.8591  1.3251 -1.3732
  414SOL     OW 1240   0.534   1.001   0.193  0.4707  0.7096  0.4999
  414SOL    HW1 1241   0.464   0.933   0.155  0.7832 -0.8393 -2.1402
  414SOL    HW2 1242   0.551   0.977   0.290  0.6182 -1.9571  1.1404
  415SOL     OW 1243   2.817   1.251   0.478  0.2552 -0.3647  0.0138
  415SOL    HW1 1244   2.920   1.248   0.494  0.4955  1.5306  2.9344
  415SOL    HW2 1245   2.775   1.314   0.546 -1.3381  3.1860 -0.6568
  416SOL     OW 1246   2.453   0.820   0.117  0.3268  0.3720 -0.1236
  416SOL    HW1 1247   2.453   0.725   0.071 -1.7987  1.8500  0.3314
  416SOL    HW2 1248   2.544   0.838   0.155 -1.1271 -4.6983 -0.1857
  417SOL     OW 1249   2.858   2.732   0.143  0.2025  0.2649 -0.6527
  417SOL    HW1 1250   2.844   2.772   0.053  0.6547  0.8884  0.2728
  417SOL    HW2 1251   2.864   2.633   0.126 -2.7847  1.2078 -4.3679
  418SOL     OW 1252   3.030   0.416   0.108 -0.0928  0.3599  0.4583
  418SOL    HW1 1253   2.972   0.423   0.191  0.4763 -0.8179  0.1318
  418SOL    HW2 1254   3.005   0.474   0.032  1.7306  1.3064  4.7142
  419SOL     OW 1255   0.798   0.835   0.837 -0.0073 -0.7996  0.2748
  419SOL    HW1 1256   0.844   0.742   0.837  1.0153 -2.0843 -1.9204
  419SOL    HW2 1257   0.701   0.835   0.881 -1.7051  2.9245  1.0887
  420SOL     OW 1258   0.265   0.856   0.894 -0.4371 -0.4213  0.2922
  420SOL    HW1 1259   0.171   0.880   0.864 -0.5714  1.3177 -0.9779
  420SOL    HW2 1260   0.320   0.929   0.931 -0.6420  1.6275  0.5848
  421SOL     OW 1261   0.333   2.025   0.582  0.2551  0.3954  0.3273
  421SOL    HW1 1262   0.242   2.058   0.541 -0.8135 -0.7065 -2.4884
  421SOL    HW2 1263   0.383   2.092   0.637 -0.4737 -1.9400  1.3126
  422SOL     OW 1264   2.833   0.366   1.874 -0.3311 -0.0282  1.0745
  422SOL    HW1 1265   2.868   0.311   1.954  2.7383  2.0835 -0.0424
  422SOL    HW2 1266   2.730   0.381   1.867  1.3023 -0.0524  0.5722
  423SOL     OW 1267   1.881   1.716   0.155  0.0587 -0.7595  0.0065
  423SOL    HW1 1268   1.916   1.689   0.243  0.3260  1.1328 -0.5816
  423SOL    HW2 1269   1.943   1.766   0.093  0.9454  1.3025  0.1502
  424SOL     OW 1270   1.694   1.697   2.833  0.6185  0.0939  0.0856
  424SOL    HW1 1271   1.710   1.674   2.735  1.3337  0.1527 -0.8759
  424SOL    HW2 1272   1.783   1.696   2.889  2.1983 -0.9264 -0.1301
  425SOL     OW 1273   0.230   0.151   2.044  0.2087  0.8824 -0.1608
  425SOL    HW1 1274   0.220   0.066   1.985  1.3125  1.3394 -0.5577
  425SOL    HW2 1275   0.273   0.221   1.983  3.5586  0.2677  0.0418
  426SOL     OW 1276   2.086   2.876   0.341 -0.1537  0.7224 -0.4417
  426SOL    HW1 1277   2.036   2.804   0.294  2.1133  1.0207  1.0272
  426SOL    HW2 1278   2.038   2.901   0.426 -0.8666  0.7977  0.4447
  427SOL     OW 1279   0.496   1.468   2.547  0.2175 -1.0438 -0.1652
  427SOL    HW1 1280   0.558   1.525   2.489  1.5327  1.0667  1.9243
  427SOL    HW2 1281   0.409   1.440   2.495 -1.9386  0.4075 -1.9896
  428SOL     OW 1282   2.185   1.542   2.672  0.1516 -0.7592 -0.4955
  428SOL    HW1 1283   2.187   1.470   2.601 -1.3089 -0.7886 -0.8695
  428SOL    HW2 1284   2.136   1.515   2.757  0.0908 -2.5517 -1.3318
  429SOL     OW 1285   2.349   3.044   0.560 -0.5764 -0.2437  0.4728
  429SOL    HW1 1286   2.362   2.944   0.562 -0.0563  0.2146 -2.2030
  429SOL    HW2 1287   2.433   3.083   0.514 -1.9958  2.9048 -2.3004
  430SOL     OW 1288   1.862   1.877   2.245  0.3727 -0.1281 -0.1090
  430SOL    HW1 1289   1.778   1.919   2.202  2.8032  0.0952 -0.7347
  430SOL    HW2 1290   1.847   1.886   2.340  1.5422 -1.2348 -0.1662
  431SOL     OW 1291   0.013   1.971   1.791 -0.1428 -0.0366 -0.5883
  431SOL    HW1 1292   3.036   1.953   1.778  0.0953  2.2897  0.2892
  431SOL    HW2 1293   0.070   1.940   1.715 -0.0004 -0.2399  1.9423
  432SOL     OW 1294   1.239   2.320   2.239 -0.3527  0.1994 -0.3064
  432SOL    HW1 1295   1.143   2.288   2.205 -1.9521 -1.8706  0.4136
  432SOL    HW2 1296   1.312   2.251   2.204  2.7523 -0.0228  1.1960
  433SOL     OW 1297   0.973   2.895   0.731 -0.5973 -0.5626 -0.2304
  433SOL    HW1 1298   1.054   2.863   0.675  1.9382  1.5706 -1.6967
  433SOL    HW2 1299   0.975   2.997   0.725  1.2038 -0.1892  1.8071
  434SOL     OW 1300   0.445   2.047   2.339 -0.5838 -0.2895  0.3392
  434SOL    HW1 1301   0.359   2.006   2.299 -2.8868 -0.1459 -0.1034
  434SOL    HW2 1302   0.510   2.072   2.260  0.1277 -0.2745 -2.8302
  435SOL     OW 1303   0.280   1.453   0.539 -0.0895 -0.4976  0.2093
  435SOL    HW1 1304   0.194   1.459   0.482  2.5135  1.4521 -0.8130
  435SOL    HW2 1305   0.274   1.521   0.617 -0.8782 -1.2027 -0.8696
  436SOL     OW 1306   0.651   1.931   1.932  0.2500  0.4998  0.6076
  436SOL    HW1 1307   0.559   1.948   1.975 -0.3365  1.9081 -0.7776
  436SOL    HW2 1308   0.642   1.877   1.848  1.2980  0.5106 -1.0550
  437SOL     OW 1309   1.105   0.657   0.319 -0.3122 -0.0267  0.5132
  437SOL    HW1 1310   1.116   0.686   0.413  0.3890 -0.4782 -2.1022
  437SOL    HW2 1311   1.186   0.686   0.266 -0.5011  1.1319  0.3002
  438SOL     OW 1312   0.536   1.941   0.950 -0.2262 -0.0950 -0.2401
  438SOL    HW1 1313   0.440   1.956   0.973  0.7589 -1.6903  1.3150
  438SOL    HW2 1314   0.556   1.946   0.847  0.4033 -2.6591 -2.0860
  439SOL     OW 1315   1.115   2.468   1.846 -0.7015 -0.3339 -0.6538
  439SOL    HW1 1316   1.067   2.403   1.780 -0.6248 -1.5620 -0.6729
  439SOL    HW2 1317   1.064   2.481   1.934 -3.6267 -0.1407  0.2734
  440SOL     OW 1318   1.653   0.245   1.483 -0.5219 -0.1564  0.2626
  440SOL    HW1 1319   1.644   0.254   1.585 -0.8717  1.3352  0.3129
  440SOL    HW2 1320   1.704   0.325   1.444  0.6321  1.4199  1.0234
  441SOL     OW 1321   0.536   3.119   1.328  0.4134  0.3175 -0.0598
  441SOL    HW1 1322   0.489   0.008   1.416  0.6170  0.7444  0.7782
  441SOL    HW2 1323   0.620   3.062   1.343  1.0358  1.6699  0.7785
  442SOL     OW 1324   2.200   1.813   0.434  0.3731  0.0579 -0.2212
  442SOL    HW1 1325   2.124   1.748   0.405 -0.6785 -0.3845  0.9063
  442SOL    HW2 1326   2.196   1.902   0.376  1.4713  2.4009 -3.7357
  443SOL     OW 1327   2.774   0.410   2.459 -0.2354 -0.0105 -0.2058
  443SOL    HW1 1328   2.672   0.421   2.480  0.0729  0.0654 -0.0141
  443SOL    HW2 1329   2.811   0.482   2.397  0.5797  0.5848  1.2119
  444SOL     OW 1330   2.104   1.399   2.115 -0.2534 -0.0543  0.1467
  444SOL    HW1 1331   2.150   1.329   2.172 -0.3746 -1.2473 -1.3485
  444SOL    HW2 1332   2.131   1.403   2.015 -0.9115 -0.7313  0.2241
  445SOL     OW 1333   2.601   2.038   1.522  0.0820 -0.4229 -0.3102
  445SOL    HW1 1334   2.597   2.114   1.595  0.5188  0.2034  0.9602
  445SOL    HW2 1335   2.507   2.010   1.503  0.6853 -0.5176  0.8924
  446SOL     OW 1336   2.947   0.908   0.444 -0.3808 -0.0463  0.0309
  446SOL    HW1 1337   2.974   0.995   0.489  0.5725 -0.6933  0.0418
  446SOL    HW2 1338   2.927   0.833   0.506 -0.5550  0.2491 -2.2085
  447SOL     OW 1339   0.565   1.502   0.907  0.0608  0.0315  0.1563
  447SOL    HW1 1340   0.652   1.450   0.917 -0.5201  1.0006 -0.4666
  447SOL    HW2 1341   0.561   1.536   0.807  2.0160  1.2465 -0.9632
  448SOL     OW 1342   1.361   1.252   2.160 -0.0641 -0.5792  0.4345
  448SOL    HW1 1343   1.362   1.234   2.063  0.2413  0.9135  1.8744
  448SOL    HW2 1344   1.270   1.243   2.200 -0.8648 -1.5489  0.2556
  449SOL     OW 1345   0.318   1.530   0.110 -0.1010  0.8214  0.2120
  449SOL    HW1 1346   0.238   1.589   0.113  0.8334 -1.5190  0.3114
  449SOL    HW2 1347   0.355   1.514   0.017  0.5551 -1.6879 -0.8876
  450SOL     OW 1348   2.582   2.293   2.042  0.2771 -0.4596  0.2327
  450SOL    HW1 1349   2.611   2.360   1.972  1.3919 -0.7029 -1.8431
  450SOL    HW2 1350   2.483   2.289   2.059 -1.3836  1.7423 -1.4311
  451SOL     OW 1351   2.055   0.319   2.271 -0.3058 -0.1236 -0.2365
  451SOL    HW1 1352   2.024   0.327   2.370 -2.1025  1.0461  1.2733
  451SOL    HW2 1353   1.973   0.302   2.210 -1.1881 -1.1292  1.1573
  452SOL     OW 1354   1.014   0.024   1.306  0.2915  0.2313  0.2815
  452SOL    HW1 1355   0.985   3.052   1.320  0.4296 -1.0757  0.9947
  452SOL    HW2 1356   0.960   0.090   1.361  0.5606 -1.1097 -0.7875
  453SOL     OW 1357   1.051   1.548   1.078 -0.0201 -0.5972 -0.0811
  453SOL    HW1 1358   1.033   1.492   0.997 -1.7992 -2.1053  2.1409
  453SOL    HW2 1359   0.963   1.591   1.108  4.1151 -0.8865  1.3913
  454SOL     OW 1360   0.158   1.135   0.682  0.1315 -0.1627  0.1486
  454SOL    HW1 1361   0.126   1.053   0.730  2.0679  2.2304 -0.3076
  454SOL    HW2 1362   0.220   1.114   0.603 -1.4166 -0.4565  1.0623
  455SOL     OW 1363   3.095   2.834   0.255  0.1376  0.1186 -0.4883
  455SOL    HW1 1364   3.002   2.824   0.222  1.7828 -1.9029  2.1821
  455SOL    HW2 1365   0.034   2.900   0.206  0.2610  0.9519  0.7330
  456SOL     OW 1366   1.975   2.178   0.687 -0.1254 -0.7784  0.7143
  456SOL    HW1 1367   2.008   2.208   0.777  0.2936 -0.5516  0.4236
  456SOL    HW2 1368   1.990   2.076   0.672  2.7575 -1.9533  0.1010
  457SOL     OW 1369   1.594   0.195   0.066  0.1630  0.1648 -0.4532
  457SOL    HW1 1370   1.647   0.107   0.085  0.4337 -3.0203  1.4276
  457SOL    HW2 1371   1.539   0.219   0.151  0.0394 -0.2438 -0.5455
  458SOL     OW 1372   2.722   2.913   0.302  0.0916  0.3937 -0.2007
  458SOL    HW1 1373   2.722   2.875   0.393 -0.1618  1.5137  0.1868
  458SOL    HW2 1374   2.745   2.838   0.237 -1.0982  1.4438 -0.3192
  459SOL     OW 1375   1.943   0.318   2.526 -0.4985 -0.1507 -0.3219
  459SOL    HW1 1376   1.849   0.283   2.505  0.0910  3.7328  0.2796
  459SOL    HW2 1377   1.982   0.253   2.597  2.8276 -0.3484  1.8575
  460SOL     OW 1378   2.899   0.055   3.041  0.0694 -0.1911  0.2497
  460SOL    HW1 1379   2.939   0.070   0.013 -0.2037  0.4168  0.5811
  460SOL    HW2 1380   2.862   3.080   3.029 -1.6468 -0.6005  0.4906
  461SOL     OW 1381   0.607   1.426   1.300 -0.2867 -0.2929 -0.2370
  461SOL    HW1 1382   0.525   1.367   1.292 -2.2188 -0.3480 -2.0011
  461SOL    HW2 1383   0.584   1.519   1.263  0.0237 -0.9044  2.4780
  462SOL     OW 1384   2.943   2.668   1.740 -0.2485  0.1803  0.2416
  462SOL    HW1 1385   2.953   2.627   1.836  1.1547  0.8134 -1.7547
  462SOL    HW2 1386   2.896   2.603   1.674 -0.4827 -0.7152  0.1202
  463SOL     OW 1387   2.672   1.241   3.042 -0.1484 -0.7317 -0.0126
  463SOL    HW1 1388   2.663   1.222   0.021  1.5288 -0.4975 -2.4448
  463SOL    HW2 1389   2.645   1.155   2.990  0.1589 -0.4053  0.0713
  464SOL     OW 1390   0.194   2.486   1.187 -0.1749 -0.0506  0.2282
  464SOL    HW1 1391   0.272   2.427   1.153  0.0199  1.1855  1.5081
  464SOL    HW2 1392   0.224   2.569   1.242 -0.0067  0.8156 -1.5296
  465SOL     OW 1393   0.321   1.125   0.481 -0.1283  0.2651 -0.2224
  465SOL    HW1 1394   0.333   1.143   0.384  0.4115  0.9881 -0.6458
  465SOL    HW2 1395   0.409   1.094   0.523  0.0665 -2.3014 -1.4960
  466SOL     OW 1396   1.370   0.287   2.009  0.2589  0.0969 -0.5134
  466SOL    HW1 1397   1.378   0.187   2.007 -0.6349 -1.0100  0.7726
  466SOL    HW2 1398   1.425   0.321   2.087  0.8844 -0.0078 -1.2804
  467SOL     OW 1399   0.669   0.471   2.251 -0.1168  0.0037  0.9445
  467SOL    HW1 1400   0.620   0.475   2.162  2.4489  1.3111  0.5816
  467SOL    HW2 1401   0.657   0.558   2.309  0.2717 -3.4394 -1.6102
  468SOL     OW 1402   0.005   1.208   2.312  0.3443  0.2504  0.3451
  468SOL    HW1 1403   0.012   1.185   2.411  0.6819 -0.1789 -0.0708
  468SOL    HW2 1404   0.073   1.276   2.287 -1.7778 -0.2388  2.1172
  469SOL     OW 1405   0.244   1.873   0.785 -0.3230 -0.0003  0.2050
  469SOL    HW1 1406   0.284   1.927   0.708  1.0254 -0.8082 -2.0831
  469SOL    HW2 1407   0.259   1.918   0.879 -0.6773  0.1134  0.6137
  470SOL     OW 1408   2.794   1.755   2.518  0.5640 -0.2758  0.3203
  470SOL    HW1 1409   2.839   1.849   2.510  0.7308  4.1698  1.3840
  470SOL    HW2 1410   2.699   1.772   2.482 -2.0973  2.3525  2.4889
  471SOL     OW 1411   1.639   0.850   2.077 -0.1888 -0.3880  0.4184
  471SOL    HW1 1412   1.736   0.814   2.074  2.2300 -3.0306  1.2803
  471SOL    HW2 1413   1.629   0.950   2.098 -0.5280  0.9254 -0.0580
  472SOL     OW 1414   0.876   2.725   1.127  0.6556  0.0061  0.5948
  472SOL    HW1 1415   0.971   2.689   1.104 -0.4793 -0.3115  0.3375
  472SOL    HW2 1416   0.815   2.726   1.046 -0.1690  0.9690 -0.2372
  473SOL     OW 1417   0.759   0.296   2.495  0.0588 -0.3991  0.0780
  473SOL    HW1 1418   0.762   0.337   2.399  1.9664 -0.5610 -0.9078
  473SOL    HW2 1419   0.696   0.217   2.497  3.1294  1.3952  0.3810
  474SOL     OW 1420   1.749   3.108   1.409 -0.3100  0.1387  0.5066
  474SOL    HW1 1421   1.715   0.071   1.456  2.1243  1.9096 -1.7999
  474SOL    HW2 1422   1.837   0.005   1.360  3.7299 -0.0195  1.0964
  475SOL     OW 1423   2.036   0.250   1.009  0.2139 -0.2946  0.0034
  475SOL    HW1 1424   2.082   0.213   0.931 -3.3927  1.9411  3.6329
  475SOL    HW2 1425   2.052   0.353   1.013 -0.7730  2.0877  0.5559
  476SOL     OW 1426   0.574   0.867   0.965  0.6753 -0.6363 -0.7261
  476SOL    HW1 1427   0.557   0.968   0.963 -2.4389 -0.7691 -4.3090
  476SOL    HW2 1428   0.545   0.823   1.054  1.2818  0.4767 -1.7551
  477SOL     OW 1429   1.327   2.669   0.336  0.0018  0.0517  0.4636
  477SOL    HW1 1430   1.285   2.732   0.267  1.6585  2.2309  0.2331
  477SOL    HW2 1431   1.328   2.709   0.430  1.8551  0.6090 -0.3029
  478SOL     OW 1432   0.278   2.312   2.365 -0.5001  0.0204 -0.1322
  478SOL    HW1 1433   0.308   2.400   2.414  0.3362  1.4119  1.1795
  478SOL    HW2 1434   0.359   2.255   2.353 -1.1822 -1.0750 -1.2295
  479SOL     OW 1435   2.713   3.026   1.335 -0.2116 -0.5137  0.2642
  479SOL    HW1 1436   2.690   2.992   1.427 -1.8094 -0.5873  0.2769
  479SOL    HW2 1437   2.685   0.001   1.327  1.7629  1.3207 -3.8123
  480SOL     OW 1438   0.537   2.475   0.604  0.1144  0.6221 -0.2562
  480SOL    HW1 1439   0.579   2.429   0.525 -2.5220 -0.7809 -0.0022
  480SOL    HW2 1440   0.450   2.513   0.569 -1.6348 -0.7527 -1.3001
  481SOL     OW 1441   2.093   2.268   1.262  0.8550  0.0076 -0.4923
  481SOL    HW1 1442   2.195   2.244   1.270  4.8548 -1.4908  0.4168
  481SOL    HW2 1443   2.082   2.362   1.219  0.6102  1.4730 -2.7734
  482SOL     OW 1444   1.104   2.414   2.921 -0.0294 -0.4361 -0.1289
  482SOL    HW1 1445   1.185   2.356   2.934 -1.0353  0.5309 -1.5221
  482SOL    HW2 1446   1.025   2.385   2.980  0.3984  2.1374 -0.6462
  483SOL     OW 1447   1.019   2.242   2.140  0.5178  0.4748 -0.4848
  483SOL    HW1 1448   0.976   2.332   2.143 -0.2275 -2.7367  2.4760
  483SOL    HW2 1449   0.979   2.176   2.076 -0.0510 -1.6415 -0.3214
  484SOL     OW 1450   1.031   0.578   1.466  0.4649  0.3611  0.0756
  484SOL    HW1 1451   1.048   0.477   1.484  0.2127  0.9071 -0.6481
  484SOL    HW2 1452   1.110   0.623   1.421 -2.0634  0.8473 -2.0753
  485SOL     OW 1453   1.688   0.688   2.702  0.2064  0.4406  0.3631
  485SOL    HW1 1454   1.764   0.754   2.688  0.6812 -0.7969  0.5262
  485SOL    HW2 1455   1.669   0.635   2.615  0.9538  0.7638  2.7162
  486SOL     OW 1456   2.422   2.690   1.096  0.3526  0.0758 -0.0110
  486SOL    HW1 1457   2.438   2.620   1.020 -0.8561  1.6375  0.1948
  486SOL    HW2 1458   2.483   2.769   1.081 -0.3452  1.7456 -0.8826
  487SOL     OW 1459   0.757   2.259   1.281  0.3202 -0.3947 -0.0041
  487SOL    HW1 1460   0.825   2.340   1.283  0.7853 -0.9430  1.4827
  487SOL    HW2 1461   0.713   2.252   1.372 -0.9040 -0.8435 -0.5613
  488SOL     OW 1462   2.398   1.861   0.141 -0.5123  0.6653  0.0128
  488SOL    HW1 1463   2.498   1.882   0.126  0.1635 -0.3559 -1.4554
  488SOL    HW2 1464   2.382   1.759   0.141 -0.2034 -1.2878 -0.0259
  489SOL     OW 1465   2.113   3.005   1.118 -0.3516  0.2604 -0.4205
  489SOL    HW1 1466   2.088   2.964   1.028  1.3742 -0.5252 -0.1259
  489SOL    HW2 1467   2.155   2.931   1.178  2.0749 -0.7811 -0.7594
  490SOL     OW 1468   0.966   1.555   0.097  0.0520 -0.3521 -0.9460
  490SOL    HW1 1469   0.979   1.644   0.048 -0.7968  0.7581  0.4097
  490SOL    HW2 1470   1.054   1.541   0.155  5.3591 -0.0605  1.5841
  491SOL     OW 1471   0.215   2.142   1.426  0.1627 -0.4177 -0.0688
  491SOL    HW1 1472   0.113   2.117   1.433 -3.1897 -0.6699  0.1990
  491SOL    HW2 1473   0.251   2.126   1.521  0.6130 -1.2519  2.5106
  492SOL     OW 1474   0.810   1.604   1.733  0.0797 -0.0878 -0.6139
  492SOL    HW1 1475   0.793   1.535   1.661 -0.7004 -0.8408 -2.0589
  492SOL    HW2 1476   0.869   1.682   1.706  2.7651  1.2819  2.6899
  493SOL     OW 1477   2.819   2.233   0.839  0.2275  0.3177  0.1626
  493SOL    HW1 1478   2.740   2.190   0.788 -0.6404  1.3493 -1.4320
  493SOL    HW2 1479   2.834   2.190   0.927 -1.4994 -1.2773 -4.0141
  494SOL     OW 1480   2.618   2.101   0.700  1.0809 -0.0481  0.5592
  494SOL    HW1 1481   2.549   2.175   0.683 -0.7570 -0.1022  1.4577
  494SOL    HW2 1482   2.644   2.072   0.606 -0.5828  2.5231 -1.3394
  495SOL     OW 1483   2.724   2.892   3.075 -0.0185 -0.0176 -0.5305
  495SOL    HW1 1484   2.726   2.837   2.987 -1.8118 -0.6515  0.3534
  495SOL    HW2 1485   2.633   2.930   3.098  0.0773  0.3129  0.3202
  496SOL     OW 1486   2.587   2.873   1.040 -0.0566 -0.5432  0.3121
  496SOL    HW1 1487   2.570   2.971   1.014  0.9636 -0.7228 -2.3765
  496SOL    HW2 1488   2.669   2.864   1.099 -0.3938 -0.8685  0.5830
  497SOL     OW 1489   2.379   1.269   2.720  0.3241 -0.2202  0.1017
  497SOL    HW1 1490   2.469   1.280   2.674 -0.1172  0.0639  0.6916
  497SOL    HW2 1491   2.369   1.327   2.802 -0.7739  1.8337  1.0418
  498SOL     OW 1492   2.989   1.939   1.074  0.6972 -0.7875 -0.2157
  498SOL    HW1 1493   3.007   1.905   1.169 -0.8205 -0.1328  3.0389
  498SOL    HW2 1494   2.901   1.994   1.073 -2.6357  1.9904  1.7452
  499SOL     OW 1495   0.765   2.374   2.684  0.1698  0.8039 -0.6816
  499SOL    HW1 1496   0.791   2.277   2.662  1.8144 -0.1800 -1.0678
  499SOL    HW2 1497   0.851   2.432   2.692 -0.6446 -2.6180 -0.2604
  500SOL     OW 1498   1.850   0.839   0.209  0.4318  0.1591  0.6372
  500SOL    HW1 1499   1.838   0.938   0.196  2.1175  1.7991 -0.6493
  500SOL    HW2 1500   1.806   0.807   0.293 -1.6164  0.6612  1.4674
  501SOL     OW 1501   1.636   0.277   1.756 -0.3060 -0.0939  0.3266
  501SOL    HW1 1502   1.590   0.349   1.811  0.3886  0.0784  2.7162
  501SOL    HW2 1503   1.734   0.269   1.778 -2.3285 -0.3325 -1.1087
  502SOL     OW 1504   2.407   0.551   1.691  0.3143  0.3447 -0.8498
  502SOL    HW1 1505   2.432   0.653   1.706  3.4351  1.9572  2.2328
  502SOL    HW2 1506   2.388   0.533   1.589 -0.5344 -0.8260 -0.5830
  503SOL     OW 1507   2.417   1.692   2.213  0.1026  0.4634 -0.1802
  503SOL    HW1 1508   2.324   1.656   2.201 -0.1929  0.7812 -1.3321
  503SOL    HW2 1509   2.432   1.770   2.149 -1.6490 -0.6136 -0.8823
  504SOL     OW 1510   1.371   1.217   1.889 -0.5749 -0.2751  0.0572
  504SOL    HW1 1511   1.453   1.261   1.848 -0.5231 -1.3491 -1.2959
  504SOL    HW2 1512   1.354   1.136   1.832  0.0584  0.3899 -1.7348
  505SOL     OW 1513   0.522   0.548   1.591  0.1210  0.0108 -0.5701
  505SOL    HW1 1514   0.442   0.587   1.541 -1.7837 -0.0532 -2.4120
  505SOL    HW2 1515   0.559   0.612   1.664  0.0787 -0.2919 -1.4936
  506SOL     OW 1516   0.396   0.516   3.035  0.4553  0.0308 -0.4323
  506SOL    HW1 1517   0.318   0.579   3.046  2.3849 -1.0429 -2.2182
  506SOL    HW2 1518   0.406   0.470   2.944  2.3399  1.1668  2.5414
  507SOL     OW 1519   0.657   0.095   0.188  0.4981  0.1081  0.3611
  507SOL    HW1 1520   0.621   0.127   0.096 -0.2047 -1.0267 -3.0165
  507SOL    HW2 1521   0.643   0.163   0.263 -2.1525 -0.3375 -0.9096
  508SOL     OW 1522   0.777   0.715   1.850  1.0753  0.4173 -0.3210
  508SOL    HW1 1523   0.683   0.737   1.823  1.1335  1.4756  0.9346
  508SOL    HW2 1524   0.818   0.780   1.913 -2.4022 -0.4103 -0.9850
  509SOL     OW 1525   1.479   2.329   1.188  0.7752  0.2375  0.2559
  509SOL    HW1 1526   1.564   2.342   1.244 -1.4502  1.3432  0.9214
  509SOL    HW2 1527   1.463   2.399   1.114 -2.6154  0.3913 -1.0023
  510SOL     OW 1528   2.840   1.304   1.523  0.0023  0.5107  0.0639
  510SOL    HW1 1529   2.842   1.406   1.540 -1.5674 -0.1421 -3.8002
  510SOL    HW2 1530   2.771   1.286   1.449 -1.4129 -0.3426 -1.9294
  511SOL     OW 1531   1.257   2.024   1.416  0.2625  0.8436  0.7492
  511SOL    HW1 1532   1.303   2.099   1.472  0.0083  0.4554  2.3782
  511SOL    HW2 1533   1.321   1.980   1.357 -0.7786 -0.6670  0.9189
  512SOL     OW 1534   2.961   1.568   0.567 -0.2379  0.1657  0.4006
  512SOL    HW1 1535   2.868   1.534   0.583 -0.6370 -0.6894  1.3883
  512SOL    HW2 1536   2.955   1.665   0.548  2.1410 -0.5505 -0.5873
  513SOL     OW 1537   0.020   1.596   2.878  0.2762 -0.4345  0.0697
  513SOL    HW1 1538   0.043   1.685   2.924  0.5316 -1.2686  0.1626
  513SOL    HW2 1539   0.105   1.538   2.882  0.9127  0.5786 -0.3698
  514SOL     OW 1540   2.246   2.276   2.653 -0.1472  0.4254  0.2780
  514SOL    HW1 1541   2.159   2.255   2.698  0.1174 -0.8838 -0.6191
  514SOL    HW2 1542   2.225   2.328   2.564  0.0240 -2.3878 -3.7800
  515SOL     OW 1543   2.380   0.774   0.549  0.3296  0.0229 -0.6188
  515SOL    HW1 1544   2.324   0.695   0.584 -2.3160 -0.1767  0.2669
  515SOL    HW2 1545   2.466   0.728   0.510  3.9684  0.0318  1.0814
  516SOL     OW 1546   2.555   2.291   0.060 -0.3577  0.1636  0.5136
  516SOL    HW1 1547   2.454   2.293   0.045 -1.0967 -1.7251 -1.6111
  516SOL    HW2 1548   2.605   2.327   3.097  0.7083  5.1184 -1.3572
  517SOL     OW 1549   0.664   1.464   2.754 -0.6199 -0.2142 -0.0242
  517SOL    HW1 1550   0.581   1.473   2.689 -1.7976  2.0039 -2.0339
  517SOL    HW2 1551   0.635   1.481   2.854 -1.4656  1.6951  1.1573
  518SOL     OW 1552   2.879   0.149   2.335  0.1441  0.5559  0.5397
  518SOL    HW1 1553   2.853   0.249   2.350 -0.8374  0.7792  2.1608
  518SOL    HW2 1554   2.801   0.088   2.314  1.9782  0.8853 -0.1108
  519SOL     OW 1555   1.669   1.179   2.917  0.2240  0.4346  0.1816
  519SOL    HW1 1556   1.624   1.088   2.916  1.1625 -0.8917 -1.7431
  519SOL    HW2 1557   1.639   1.237   2.995  0.3302 -0.2775  1.3045
  520SOL     OW 1558   2.783   2.973   2.337 -0.5833 -0.2246 -0.8440
  520SOL    HW1 1559   2.696   3.026   2.353 -3.2532  1.5659 -0.1282
  520SOL    HW2 1560   2.799   2.910   2.416 -1.0497  2.5028  0.7842
  521SOL     OW 1561   0.586   1.667   2.345  0.1933  0.3307  0.0963
  521SOL    HW1 1562   0.670   1.657   2.286 -0.4324  1.7974 -1.9228
  521SOL    HW2 1563   0.599   1.734   2.419  0.8829 -1.9586 -1.8430
  522SOL     OW 1564   1.134   2.818   1.961 -0.1520  0.2149  0.0742
  522SOL    HW1 1565   1.090   2.831   2.052 -0.0969 -3.2571 -0.1359
  522SOL    HW2 1566   1.206   2.746   1.966 -2.6405  1.9349 -0.6640
  523SOL     OW 1567   2.288   2.109   1.089  0.2096 -0.6557  0.1135
  523SOL    HW1 1568   2.348   2.067   1.020 -4.2250 -2.4850  2.0056
  523SOL    HW2 1569   2.335   2.191   1.139 -1.4568  2.2371 -0.5194
  524SOL     OW 1570   1.186   2.007   0.660 -0.0156  0.1416  0.6155
  524SOL    HW1 1571   1.243   2.079   0.623  0.8845 -3.9155  3.0989
  524SOL    HW2 1572   1.089   2.033   0.669  0.8260 -0.1345 -2.7735
  525SOL     OW 1573   2.694   0.616   0.775  0.3889  0.5053 -0.1486
  525SOL    HW1 1574   2.733   0.628   0.868 -0.4912  1.5914 -0.3332
  525SOL    HW2 1575   2.599   0.582   0.782  1.3474 -1.1617  0.1757
  526SOL     OW 1576   1.786   2.942   0.779 -0.2149  0.2572  0.1470
  526SOL    HW1 1577   1.725   2.974   0.703  1.7483  2.8297  1.6776
  526SOL    HW2 1578   1.771   3.000   0.863  3.8024  0.4106  0.7860
  527SOL     OW 1579   1.838   1.732   0.956  0.4750 -0.0717 -0.2514
  527SOL    HW1 1580   1.764   1.763   0.895  2.8774  0.4310  1.9094
  527SOL    HW2 1581   1.916   1.795   0.961 -0.2243  0.4336  0.6148
  528SOL     OW 1582   2.964   2.807   2.617  0.0966 -0.1780  0.2442
  528SOL    HW1 1583   3.012   2.739   2.558  1.6092 -0.2608 -0.3413
  528SOL    HW2 1584   3.027   2.838   2.695  2.8734 -0.9554 -0.4106
  529SOL     OW 1585   1.128   1.289   2.598 -0.1920  0.3977  0.0188
  529SOL    HW1 1586   1.150   1.384   2.618  2.7830 -2.2097 -0.5629
  529SOL    HW2 1587   1.061   1.250   2.664  2.9086 -0.7182 -1.0868
  530SOL     OW 1588   2.139   1.178   2.285  0.4792  0.3515  0.4906
  530SOL    HW1 1589   2.152   1.188   2.383 -0.3584 -0.1125 -0.9200
  530SOL    HW2 1590   2.044   1.155   2.253 -0.5070  0.2789  0.8270
  531SOL     OW 1591   0.276   0.947   0.037  0.6495 -0.3467 -0.1834
  531SOL    HW1 1592   0.313   1.014   3.089 -0.0103 -1.5793 -1.2375
  531SOL    HW2 1593   0.207   0.994   0.096  1.1485 -0.2324  0.8224
  532SOL     OW 1594   1.418   1.368   0.631  0.3039  0.0300 -0.5942
  532SOL    HW1 1595   1.476   1.410   0.707 -2.2887 -2.2032 -0.6611
  532SOL    HW2 1596   1.320   1.402   0.627 -0.1921 -0.8070  0.2227
  533SOL     OW 1597   0.177   0.571   2.434 -0.2577 -0.3831 -0.0577
  533SOL    HW1 1598   0.215   0.646   2.486  1.4186 -0.4962 -3.1094
  533SOL    HW2 1599   0.243   0.491   2.415  0.9818  0.8325 -0.6567
  534SOL     OW 1600   1.267   0.619   2.564 -0.1327 -0.1750  0.4660
  534SOL    HW1 1601   1.184   0.578   2.606  0.8848  0.6400 -1.4474
  534SOL    HW2 1602   1.250   0.707   2.515 -1.3384  2.1569 -1.4423
  535SOL     OW 1603   0.444   0.430   0.282 -0.0793 -0.4489  0.5713
  535SOL    HW1 1604   0.493   0.467   0.198 -0.1893 -1.2352  0.7313
  535SOL    HW2 1605   0.378   0.496   0.324 -1.6126 -1.2267  1.0087
  536SOL     OW 1606   0.613   0.714   2.968 -0.4851  0.6394 -0.6312
  536SOL    HW1 1607   0.682   0.664   3.023  2.4810  0.9925  0.8577
  536SOL    HW2 1608   0.528   0.660   2.963  0.0139 -0.5461 -0.4184
  537SOL     OW 1609   1.449   0.073   1.426 -0.1576  0.0612  0.3671
  537SOL    HW1 1610   1.358   0.107   1.394 -0.7145 -1.8763 -0.4149
  537SOL    HW2 1611   1.517   0.152   1.427 -1.5808  0.2860  0.1136
  538SOL     OW 1612   0.432   2.780   0.105  0.7044  0.0822 -0.3276
  538SOL    HW1 1613   0.498   2.825   0.041 -0.5937  0.0708 -0.9174
  538SOL    HW2 1614   0.430   2.683   0.080  1.0313  1.3080 -0.5618
  539SOL     OW 1615   2.982   1.225   1.772  0.0951  0.0826  0.4264
  539SOL    HW1 1616   2.910   1.229   1.704 -0.0024  0.2576  1.2984
  539SOL    HW2 1617   2.981   1.310   1.830  1.5461  1.5567 -0.9216
  540SOL     OW 1618   2.097   1.710   1.515 -0.2244  0.1639  0.2751
  540SOL    HW1 1619   2.162   1.638   1.481 -4.6350 -0.6976  2.4288
  540SOL    HW2 1620   2.104   1.712   1.615  0.8189  0.3526 -1.2523
  541SOL     OW 1621   0.594   2.132   1.614  0.7555 -0.4855 -0.2766
  541SOL    HW1 1622   0.497   2.141   1.635  1.2462  3.5487  3.0730
  541SOL    HW2 1623   0.624   2.037   1.621 -1.8500  0.6844  1.4084
  542SOL     OW 1624   2.275   0.959   1.923 -0.7850 -0.0300 -0.0173
  542SOL    HW1 1625   2.178   0.976   1.934  1.2792  1.3287 -1.8762
  542SOL    HW2 1626   2.305   0.884   1.987  0.1188 -3.2518  2.1586
  543SOL     OW 1627   1.073   0.659   0.599  0.1950  0.5061  0.4177
  543SOL    HW1 1628   1.024   0.751   0.593 -2.3384  1.1075  1.3039
  543SOL    HW2 1629   1.034   0.615   0.681 -0.3429  2.4881  0.8771
  544SOL     OW 1630   2.073   1.994   1.659  0.2447 -0.0561 -0.5631
  544SOL    HW1 1631   1.996   2.037   1.615  2.9752 -3.7709  2.6301
  544SOL    HW2 1632   2.102   1.915   1.607 -1.4077  0.2032 -1.0443
  545SOL     OW 1633   1.467   1.736   1.407  0.3787 -0.0742 -0.3305
  545SOL    HW1 1634   1.496   1.644   1.380  1.3335  0.8851 -0.1343
  545SOL    HW2 1635   1.533   1.809   1.379 -0.4484  1.5869 -1.6176
  546SOL     OW 1636   0.196   0.186   2.878  0.5338  0.0358 -0.1852
  546SOL    HW1 1637   0.188   0.254   2.806 -2.2986 -0.1228  2.0573
  546SOL    HW2 1638   0.235   0.219   2.964  1.3957 -0.1425 -0.5907
  547SOL     OW 1639   2.396   0.601   3.060  0.2869  0.5203 -0.2308
  547SOL    HW1 1640   2.299   0.623   3.075  2.9133 -2.5527  0.1751
  547SOL    HW2 1641   2.406   0.503   3.040  2.2688 -0.9605 -0.4016
  548SOL     OW 1642   2.357   2.279   2.242 -0.3471 -0.2287 -0.7030
  548SOL    HW1 1643   2.315   2.342   2.308  0.2626 -3.3171 -0.6454
  548SOL    HW2 1644   2.454   2.260   2.270  2.6601  0.2452 -2.0221
  549SOL     OW 1645   2.222   2.993   0.832 -0.4777 -0.4988  0.5033
  549SOL    HW1 1646   2.223   3.014   0.729 -0.6186  0.8642 -0.4004
  549SOL    HW2 1647   2.231   2.893   0.844 -0.6940 -0.9401 -2.2654
  550SOL     OW 1648   2.109   1.298   3.078  0.3674 -0.0069  0.5103
  550SOL    HW1 1649   2.111   1.195   3.080  1.4081 -1.3947  0.1243
  550SOL    HW2 1650   2.061   1.328   0.045  0.3756 -1.1320  1.9281
  551SOL     OW 1651   1.353   0.052   1.738 -0.2522  0.4608 -0.5316
  551SOL    HW1 1652   1.426   0.014   1.802  1.4106  0.6745  1.4468
  551SOL    HW2 1653   1.385   0.057   1.641  0.3638  2.0262 -3.3157
  552SOL     OW 1654   2.879   2.578   2.941 -0.2311 -0.3369  0.3001
  552SOL    HW1 1655   2.940   2.575   2.858 -0.9210  1.0139 -1.9960
  552SOL    HW2 1656   2.837   2.674   2.941 -2.9672  1.6201  0.3108
  553SOL     OW 1657   0.607   0.113   0.601 -0.3128  0.2712 -0.0338
  553SOL    HW1 1658   0.585   0.148   0.690 -2.8649 -2.4433 -1.4724
  553SOL    HW2 1659   0.636   0.190   0.540  1.8389 -0.0813 -2.3290
  554SOL     OW 1660   2.012   2.324   1.565 -0.2416 -0.4000  0.1769
  554SOL    HW1 1661   1.949   2.270   1.620  0.5978  3.3794  2.0318
  554SOL    HW2 1662   2.035   2.274   1.482 -0.0504  0.6147  0.3008
  555SOL     OW 1663   1.404   2.358   1.874  0.6638  0.0702  0.5029
  555SOL    HW1 1664   1.310   2.398   1.868 -0.8717 -1.3521  2.3115
  555SOL    HW2 1665   1.397   2.262   1.843  2.4723  0.8496  0.9913
  556SOL     OW 1666   1.843   1.598   0.573  0.6958 -0.1138  0.7488
  556SOL    HW1 1667   1.838   1.535   0.652  0.0035  2.4591  1.2601
  556SOL    HW2 1668   1.752   1.601   0.517  2.3403  0.4050 -2.2898
  557SOL     OW 1669   1.606   2.331   2.054 -0.0475 -0.0382  0.3418
  557SOL    HW1 1670   1.528   2.358   1.986 -1.4396  1.7812 -1.6965
  557SOL    HW2 1671   1.570   2.271   2.133 -0.9011 -0.0330  0.1463
  558SOL     OW 1672   0.099   0.344   2.171 -0.4121  0.0045 -0.4433
  558SOL    HW1 1673   0.138   0.260   2.130  2.4824  0.7412  0.4350
  558SOL    HW2 1674   0.098   0.338   2.277 -3.3210  0.4160  2.2752
  559SOL     OW 1675   2.286   2.925   1.945 -0.1153  0.2381 -0.2067
  559SOL    HW1 1676   2.281   3.011   1.895 -0.0131  0.5562  0.5905
  559SOL    HW2 1677   2.385   2.909   1.967  0.1837  0.2598  0.1230
  560SOL     OW 1678   0.522   0.140   3.068 -0.5048  0.0662  0.0089
  560SOL    HW1 1679   0.520   0.060   3.001  0.4672 -1.9222 -0.8155
  560SOL    HW2 1680   0.430   0.178   3.088 -0.0279  3.7652  1.9805
  561SOL     OW 1681   1.412   0.944   0.440 -0.6637  0.0657  0.2062
  561SOL    HW1 1682   1.441   0.844   0.444  0.2179 -2.4391 -1.5762
  561SOL    HW2 1683   1.339   0.962   0.508 -1.4895 -1.1036  0.9196
  562SOL     OW 1684   0.983   1.131   2.255  0.0101  0.0077  0.4793
  562SOL    HW1 1685   0.907   1.178   2.305 -1.3699  1.4313 -0.4966
  562SOL    HW2 1686   0.991   1.036   2.289 -1.3222  1.3770  2.0655
  563SOL     OW 1687   1.622   2.286   2.965  0.4308 -0.3792 -0.3591
  563SOL    HW1 1688   1.551   2.224   2.928  0.2609  1.1852 -0.8499
  563SOL    HW2 1689   1.587   2.371   3.005  3.0821  0.2962 -1.3400
  564SOL     OW 1690   2.955   1.854   0.443 -0.5295 -0.3396  0.5644
  564SOL    HW1 1691   3.048   1.837   0.408 -3.4668 -1.6963 -1.6544
  564SOL    HW2 1692   2.913   1.936   0.398  1.1306  2.2214 -2.7759
  565SOL     OW 1693   1.246   2.984   2.547  0.8327  0.0696 -0.1994
  565SOL    HW1 1694   1.311   3.031   2.484  0.8025 -0.6570  0.5286
  565SOL    HW2 1695   1.294   2.910   2.590 -1.0692 -1.7238  1.7215
  566SOL     OW 1696   1.860   2.851   2.477  0.6049  0.6176 -0.6198
  566SOL    HW1 1697   1.934   2.829   2.541 -1.9237 -0.6526  0.6978
  566SOL    HW2 1698   1.770   2.862   2.531 -2.9004  0.4335  0.8104
  567SOL     OW 1699   2.318   1.002   1.000 -0.2885  0.3418  0.4451
  567SOL    HW1 1700   2.376   1.001   1.085  0.0918 -0.7319  4.7879
  567SOL    HW2 1701   2.285   1.099   0.988  2.1535 -1.5441 -0.9426
  568SOL     OW 1702   2.044   1.458   2.881  0.2002 -0.4888  0.2232
  568SOL    HW1 1703   1.964   1.418   2.831  1.0423  1.6719  2.2264
  568SOL    HW2 1704   2.067   1.403   2.964  3.3857  0.0101 -0.5381
  569SOL     OW 1705   2.307   1.866   2.582 -0.0552 -0.5176 -0.3008
  569SOL    HW1 1706   2.351   1.951   2.613 -0.7713 -2.7616  2.7023
  569SOL    HW2 1707   2.253   1.891   2.496 -2.4581  1.9390 -3.0973
  570SOL     OW 1708   0.010   2.436   1.953 -0.1568  0.1361  0.8258
  570SOL    HW1 1709   0.104   2.429   1.997 -0.6765  0.7784 -0.0692
  570SOL    HW2 1710   3.072   2.351   1.961 -0.9255  1.0568 -1.2443
  571SOL     OW 1711   0.602   0.020   2.216 -0.4078  0.7885 -0.0373
  571SOL    HW1 1712   0.686   0.017   2.275  1.0570  2.3471  3.9604
  571SOL    HW2 1713   0.622   3.113   2.118  1.5072 -1.5298 -1.6318
  572SOL     OW 1714   0.815   1.692   1.063  0.2773  0.2425 -0.3364
  572SOL    HW1 1715   0.718   1.673   1.091  0.6103  2.3193  2.4853
  572SOL    HW2 1716   0.831   1.706   0.964 -0.6753 -0.1306  3.9064
  573SOL     OW 1717   1.228   0.430   0.129  0.4466  0.4869 -0.1060
  573SOL    HW1 1718   1.190   0.485   0.205 -1.3109  1.3751  1.3407
  573SOL    HW2 1719   1.179   0.452   0.043 -2.6102  1.4140  3.6057
  574SOL     OW 1720   0.534   3.048   0.393  0.3182 -0.4005 -0.8345
  574SOL    HW1 1721   0.578   3.101   0.317 -0.7377  0.9242  1.6137
  574SOL    HW2 1722   0.546   3.092   0.481  1.4676 -2.0272 -1.2968
  575SOL     OW 1723   0.178   1.379   1.487  0.7554 -0.2046 -0.7156
  575SOL    HW1 1724   0.170   1.451   1.559  1.1219  1.7045 -1.2033
  575SOL    HW2 1725   0.163   1.421   1.396  0.3176  0.6306  2.0978
  576SOL     OW 1726   2.572   0.389   1.819  0.2287 -0.2529  0.4950
  576SOL    HW1 1727   2.506   0.447   1.765 -2.2381 -3.6693 -0.8372
  576SOL    HW2 1728   2.528   0.335   1.897  3.0828  0.9905 -1.6827
  577SOL     OW 1729   2.893   1.590   1.864  0.3982  0.0008  0.1954
  577SOL    HW1 1730   2.797   1.575   1.878  1.2979  0.0230  1.1439
  577SOL    HW2 1731   2.946   1.504   1.892  0.5403 -3.5429 -0.9039
  578SOL     OW 1732   1.390   3.000   2.167  0.1757 -0.2704  0.0338
  578SOL    HW1 1733   1.434   3.022   2.252  0.6065 -0.2121 -5.3110
  578SOL    HW2 1734   1.302   2.948   2.174 -1.0030  0.0755  0.7512
  579SOL     OW 1735   2.164   2.105   2.154  0.3743  0.4335 -0.0139
  579SOL    HW1 1736   2.160   2.082   2.057 -0.1516 -0.8356  2.9284
  579SOL    HW2 1737   2.232   2.182   2.172  0.3758  2.7045  0.9303
  580SOL     OW 1738   1.776   1.360   2.041  0.0984 -0.2073  0.1516
  580SOL    HW1 1739   1.863   1.334   2.086 -2.0611 -1.0921  0.4748
  580SOL    HW2 1740   1.757   1.460   2.058  0.6152  0.5878 -0.5070
  581SOL     OW 1741   1.470   1.313   2.427  0.0743 -0.6380  0.1800
  581SOL    HW1 1742   1.465   1.273   2.334  0.1589 -0.0601  3.0288
  581SOL    HW2 1743   1.565   1.299   2.462  0.3959  0.6584 -1.0149
  582SOL     OW 1744   3.005   2.204   1.929 -0.4503  0.3356  0.0620
  582SOL    HW1 1745   3.046   2.123   1.884 -2.3379  1.2951 -2.5630
  582SOL    HW2 1746   2.921   2.180   1.987 -1.2813  2.4056  1.0164
  583SOL     OW 1747   1.859   0.886   0.633 -0.5489 -0.0173 -0.2567
  583SOL    HW1 1748   1.947   0.940   0.634  1.5149  0.7412 -1.4022
  583SOL    HW2 1749   1.799   0.914   0.711 -1.8159 -0.3862 -1.2813
  584SOL     OW 1750   1.089   2.540   0.328 -0.2453  0.4040 -0.0647
  584SOL    HW1 1751   1.039   2.597   0.391  1.2164  0.2920 -3.4056
  584SOL    HW2 1752   1.183   2.574   0.314 -0.8580 -1.9827 -1.2745
  585SOL     OW 1753   3.100   2.766   3.055  0.5224  0.0365 -0.4257
  585SOL    HW1 1754   0.050   2.831   3.089  1.1830 -0.2466  0.0986
  585SOL    HW2 1755   3.115   2.672   3.095  1.8946  1.8610 -0.3770
  586SOL     OW 1756   2.239   0.908   0.736  0.2195  0.3377 -0.7817
  586SOL    HW1 1757   2.319   0.883   0.679  0.2531  2.6443 -0.9615
  586SOL    HW2 1758   2.271   0.942   0.822 -3.4763  0.9422 -2.2185
  587SOL     OW 1759   0.490   1.261   0.136  0.2024 -0.1659 -0.2530
  587SOL    HW1 1760   0.531   1.168   0.149 -0.1215  0.0362 -1.0863
  587SOL    HW2 1761   0.560   1.334   0.149  0.2445  0.5845 -0.9123
  588SOL     OW 1762   0.261   0.265   0.595  0.1086  0.1640 -0.1503
  588SOL    HW1 1763   0.178   0.290   0.540  2.8014 -2.5857 -0.1095
  588SOL    HW2 1764   0.288   0.345   0.652 -1.9160 -0.5228  0.1712
  589SOL     OW 1765   1.297   3.111   0.732 -0.3141 -0.2386 -0.5503
  589SOL    HW1 1766   1.204   0.012   0.771 -0.6377  0.0550 -2.4154
  589SOL    HW2 1767   1.365   0.051   0.774 -2.0906  1.3571  1.9986
  590SOL     OW 1768   2.589   2.428   0.504  0.0214 -0.2138 -0.3461
  590SOL    HW1 1769   2.653   2.499   0.543  2.4305 -0.2939  4.0798
  590SOL    HW2 1770   2.547   2.454   0.417  0.5430 -0.6295  0.7368
  591SOL     OW 1771   0.302   2.377   2.075 -0.4764 -0.0363 -0.3791
  591SOL    HW1 1772   0.294   2.407   2.174 -0.9789 -2.9540  2.9772
  591SOL    HW2 1773   0.402   2.369   2.056  0.7085  1.9749  0.2978
  592SOL     OW 1774   0.209   1.897   2.267 -0.3184  0.0351 -0.2141
  592SOL    HW1 1775   0.138   1.940   2.210  1.5929 -1.0972  3.3995
  592SOL    HW2 1776   0.171   1.901   2.358 -0.6534 -2.5943 -3.4675
  593SOL     OW 1777   1.413   1.849   1.659 -0.0592  0.3601  0.6625
  593SOL    HW1 1778   1.393   1.835   1.563 -2.7209  3.2374  2.5405
  593SOL    HW2 1779   1.400   1.758   1.703 -1.8704 -0.9879 -1.5475
  594SOL     OW 1780   0.518   1.213   2.764  0.0212  0.3265 -0.0425
  594SOL    HW1 1781   0.479   1.201   2.857 -0.2023  1.5181  0.1446
  594SOL    HW2 1782   0.619   1.245   2.761  2.6024  0.1115  2.9112
  595SOL     OW 1783   1.516   0.756   0.756  0.0327  0.0074  0.4020
  595SOL    HW1 1784   1.581   0.826   0.783 -1.3605 -2.1153 -1.6460
  595SOL    HW2 1785   1.420   0.793   0.773  0.4805 -1.8950  0.5347
  596SOL     OW 1786   0.487   1.142   0.945 -0.3060  0.2278 -0.3629
  596SOL    HW1 1787   0.573   1.171   0.990 -1.8900  0.6993 -1.7508
  596SOL    HW2 1788   0.442   1.222   0.906  3.5925 -2.8690  2.4796
  597SOL     OW 1789   0.590   2.387   2.120  0.4760 -0.0535 -0.2912
  597SOL    HW1 1790   0.575   2.466   2.178 -0.6798  2.2243  1.0189
  597SOL    HW2 1791   0.629   2.421   2.034  3.0268 -0.5516 -0.0704
  598SOL     OW 1792   2.240   2.455   2.438  0.5123  0.1184 -0.9036
  598SOL    HW1 1793   2.159   2.510   2.456  0.4371 -2.5428  0.7827
  598SOL    HW2 1794   2.323   2.502   2.475 -1.4005  0.2971 -1.8314
  599SOL     OW 1795   1.095   1.239   0.529 -0.4802 -0.1674  0.1672
  599SOL    HW1 1796   1.047   1.316   0.573  1.8455 -3.2310 -1.8570
  599SOL    HW2 1797   1.071   1.228   0.433 -2.0432  1.7075  1.6187
  600SOL     OW 1798   1.662   0.260   0.431  0.0557 -0.1318  0.4825
  600SOL    HW1 1799   1.589   0.277   0.360  3.0306  2.2686  1.0999
  600SOL    HW2 1800   1.746   0.208   0.396  1.2593 -2.0795  0.0065
  601SOL     OW 1801   0.522   0.297   1.613 -0.1034  0.5209 -0.1354
  601SOL    HW1 1802   0.461   0.274   1.536  2.1054 -1.2749  0.6153
  601SOL    HW2 1803   0.525   0.400   1.624 -1.6426 -0.4633 -2.6694
  602SOL     OW 1804   0.471   2.225   0.724 -0.8047 -0.4477  0.0078
  602SOL    HW1 1805   0.555   2.169   0.735 -0.2019 -1.7701  0.9144
  602SOL    HW2 1806   0.498   2.319   0.691  2.8021 -0.9147 -0.9079
  603SOL     OW 1807   0.893   2.696   2.665  0.1706 -0.1038  0.7932
  603SOL    HW1 1808   0.952   2.619   2.634  2.4775  1.3331 -0.8927
  603SOL    HW2 1809   0.855   2.735   2.583  2.4116 -1.2715  1.2343
  604SOL     OW 1810   0.684   2.356   0.381  0.6382 -0.5017 -0.3095
  604SOL    HW1 1811   0.770   2.305   0.399 -0.8360 -0.4078 -1.4756
  604SOL    HW2 1812   0.693   2.447   0.332 -0.9858 -0.3813 -4.7128
  605SOL     OW 1813   1.651   1.289   1.795  0.1646 -0.6006 -0.0093
  605SOL    HW1 1814   1.721   1.304   1.866  0.4140  1.1368 -1.5664
  605SOL    HW2 1815   1.685   1.231   1.719  0.7548 -2.0416  0.2562
  606SOL     OW 1816   0.917   1.002   2.823 -0.5558 -0.2006  0.2419
  606SOL    HW1 1817   0.861   0.980   2.903  0.3187  0.5856  1.5610
  606SOL    HW2 1818   0.913   1.102   2.804 -0.0435 -0.8426  3.0889
  607SOL     OW 1819   0.900   0.821   1.194  0.1119  0.0774  0.1910
  607SOL    HW1 1820   0.822   0.887   1.184  0.9208  1.4367 -1.4009
  607SOL    HW2 1821   0.867   0.723   1.202 -1.3343  0.2789 -0.6035
  608SOL     OW 1822   2.792   2.121   2.095 -0.3825 -0.7692 -0.2318
  608SOL    HW1 1823   2.774   2.029   2.128  2.1733  2.5327 -0.8055
  608SOL    HW2 1824   2.703   2.173   2.099 -0.8457 -1.4227  0.7211
  609SOL     OW 1825   2.369   0.114   0.121  0.0188  0.1991  0.2439
  609SOL    HW1 1826   2.319   0.127   0.208 -0.1956  1.8763  2.1429
  609SOL    HW2 1827   2.424   0.029   0.119  0.6424  2.1698  1.3377
  610SOL     OW 1828   0.360   2.441   1.662  0.2722  0.5463  0.1363
  610SOL    HW1 1829   0.425   2.501   1.708 -1.1249  1.0927 -0.7282
  610SOL    HW2 1830   0.379   2.459   1.564  2.3696  1.9556 -0.8110
  611SOL     OW 1831   1.368   1.659   0.842  0.4985 -0.2218  0.5103
  611SOL    HW1 1832   1.312   1.666   0.928 -1.0123 -1.9042  0.8432
  611SOL    HW2 1833   1.434   1.580   0.849  0.7093  0.3739  0.1904
  612SOL     OW 1834   0.406   0.416   2.350  0.4711  0.1785  0.3399
  612SOL    HW1 1835   0.424   0.452   2.256 -0.9541  1.5633  0.4629
  612SOL    HW2 1836   0.394   0.317   2.348  1.8959  2.3692 -0.2585
  613SOL     OW 1837   2.642   1.091   0.389 -0.0365  0.6845 -0.1732
  613SOL    HW1 1838   2.575   1.119   0.458  0.6214 -0.2995  0.9628
  613SOL    HW2 1839   2.727   1.136   0.420 -0.6744  2.3059  0.2967
  614SOL     OW 1840   1.891   0.202   1.754 -0.5579 -0.3210  0.0108
  614SOL    HW1 1841   1.961   0.144   1.710  1.0567 -0.1104 -2.1472
  614SOL    HW2 1842   1.939   0.271   1.817  1.6142  1.5382  0.8851
  615SOL     OW 1843   0.800   1.448   1.500 -0.1636 -0.6290 -0.2178
  615SOL    HW1 1844   0.886   1.495   1.474 -0.1234 -2.0985  1.6722
  615SOL    HW2 1845   0.728   1.447   1.426 -0.0491 -0.2242  0.2757
  616SOL     OW 1846   1.482   1.973   0.107 -0.0381  0.4543  0.0183
  616SOL    HW1 1847   1.439   2.050   0.156  3.4346  2.7681 -2.5091
  616SOL    HW2 1848   1.572   1.948   0.142 -0.5794  0.5320 -1.4852
  617SOL     OW 1849   2.344   2.931   0.288  0.5355  0.3956 -0.2921
  617SOL    HW1 1850   2.239   2.931   0.302 -4.1961  0.6380 -1.2958
  617SOL    HW2 1851   2.391   2.876   0.361 -0.6425  2.6271 -0.9242
  618SOL     OW 1852   0.696   0.678   2.416  0.3227  0.0941  0.0940
  618SOL    HW1 1853   0.783   0.729   2.431 -1.0277 -0.1358 -2.3525
  618SOL    HW2 1854   0.637   0.731   2.350  1.1149 -0.7508 -4.3578
  619SOL     OW 1855   2.573   1.480   0.884  0.2672 -0.0770 -0.0079
  619SOL    HW1 1856   2.553   1.382   0.887 -0.4579  1.6019 -2.0869
  619SOL    HW2 1857   2.541   1.524   0.798 -1.5691 -0.7203  1.3141
  620SOL     OW 1858   2.294   3.018   2.914  0.2519 -0.6809  0.2240
  620SOL    HW1 1859   2.279   2.936   2.965 -1.2828  0.9505  1.3888
  620SOL    HW2 1860   2.210   3.054   2.873  1.0864  1.9170  1.7380
  621SOL     OW 1861   2.378   1.425   2.981 -0.2037 -0.3193  0.3984
  621SOL    HW1 1862   2.291   1.376   2.999 -1.9419  0.7831 -1.6944
  621SOL    HW2 1863   2.435   1.440   3.061  0.5681 -2.2785 -0.2437
  622SOL     OW 1864   1.562   2.609   2.113  0.2588  0.7846  0.6795
  622SOL    HW1 1865   1.621   2.674   2.169 -0.3276 -0.6443  1.1898
  622SOL    HW2 1866   1.607   2.520   2.096 -1.1046  0.8238 -0.3711
  623SOL     OW 1867   0.828   1.677   0.461 -0.7199 -0.1970 -0.2684
  623SOL    HW1 1868   0.850   1.747   0.390 -0.1083  0.9861 -0.7017
  623SOL    HW2 1869   0.731   1.661   0.474  3.6484  4.3155 -2.3260
  624SOL     OW 1870   0.293   0.269   0.009  0.1380 -0.0234  0.4847
  624SOL    HW1 1871   0.275   0.256   0.108 -0.5699  1.6061  0.8719
  624SOL    HW2 1872   0.323   0.362   3.110  0.6719 -0.3592  0.4722
  625SOL     OW 1873   0.556   1.577   0.630 -0.0146  0.1942  0.0507
  625SOL    HW1 1874   0.524   1.666   0.592 -1.5443 -0.7727 -1.6487
  625SOL    HW2 1875   0.561   1.506   0.555 -0.5729 -3.6273 -0.9384
  626SOL     OW 1876   0.006   2.909   2.817 -0.7616  0.0570 -0.7361
  626SOL    HW1 1877   3.112   2.863   2.910  1.3023 -1.0395  2.2651
  626SOL    HW2 1878   0.003   3.012   2.818 -0.3387 -1.1080 -1.9997
  627SOL     OW 1879   1.210   1.562   2.725 -0.3017 -0.4089 -0.2421
  627SOL    HW1 1880   1.297   1.565   2.666  0.8665  0.4860 -1.7571
  627SOL    HW2 1881   1.225   1.503   2.807  0.9258  2.2756 -0.6114
  628SOL     OW 1882   0.217   0.375   2.682 -0.1028 -0.2581  0.0814
  628SOL    HW1 1883   0.319   0.378   2.708  1.0961  1.1804  1.4788
  628SOL    HW2 1884   0.203   0.352   2.585 -0.1287  1.4111  1.5803
  629SOL     OW 1885   0.543   2.692   2.198  0.4315 -0.1528  0.1793
  629SOL    HW1 1886   0.641   2.701   2.169  0.4922  1.3807 -0.6623
  629SOL    HW2 1887   0.497   2.784   2.208  0.7488  2.4939 -0.2132
  630SOL     OW 1888   1.791   0.988   1.688 -0.5304 -0.0324  0.6893
  630SOL    HW1 1889   1.825   0.911   1.630 -2.1929  0.6163  0.5694
  630SOL    HW2 1890   1.706   0.963   1.737 -0.1891 -2.0092  2.2076
  631SOL     OW 1891   2.239   0.882   0.341  0.2835 -0.4234  0.0678
  631SOL    HW1 1892   2.301   0.895   0.261 -0.8686  2.4963 -0.3656
  631SOL    HW2 1893   2.291   0.830   0.414  0.6735  0.8281 -1.1480
  632SOL     OW 1894   2.277   0.381   2.095 -0.3735  0.0030 -0.5277
  632SOL    HW1 1895   2.360   0.425   2.131 -1.9739 -1.3122 -2.5978
  632SOL    HW2 1896   2.211   0.365   2.168  0.4075 -2.7478 -0.0329
  633SOL     OW 1897   0.721   2.660   0.324  0.2049  0.3630  0.4793
  633SOL    HW1 1898   0.752   2.706   0.239 -0.5049 -3.4362 -0.1888
  633SOL    HW2 1899   0.641   2.706   0.363  1.3911 -0.2586 -1.5269
  634SOL     OW 1900   1.408   2.753   2.649  0.4507  0.3187 -0.6251
  634SOL    HW1 1901   1.400   2.671   2.591 -0.7283  1.1023  1.3494
  634SOL    HW2 1902   1.465   2.830   2.613 -1.4420  1.0792  0.8380
  635SOL     OW 1903   2.488   0.315   3.054  0.0478 -0.2156  0.6655
  635SOL    HW1 1904   2.565   0.270   3.004 -0.7373 -0.1567  1.5040
  635SOL    HW2 1905   2.459   0.247   0.002 -1.5801  0.3895 -0.0096
  636SOL     OW 1906   0.528   1.060   0.673  0.1147  1.2659  0.3766
  636SOL    HW1 1907   0.517   0.958   0.670 -0.3719  0.8618  0.7914
  636SOL    HW2 1908   0.501   1.101   0.766 -0.5964 -0.1112 -0.3204
  637SOL     OW 1909   3.086   1.937   0.820 -0.1929 -0.2350 -0.1213
  637SOL    HW1 1910   3.054   1.954   0.914 -0.0666 -0.1255 -0.7625
  637SOL    HW2 1911   0.057   1.893   0.816 -0.3144 -2.1066  1.3249
  638SOL     OW 1912   0.804   3.074   2.901  0.8080 -0.1538  0.0600
  638SOL    HW1 1913   0.704   3.096   2.894  0.3586 -0.4467  1.9255
  638SOL    HW2 1914   0.852   0.018   2.957 -1.0564 -2.7291 -1.3388
  639SOL     OW 1915   1.582   1.612   0.456 -0.4501 -0.2319 -0.6169
  639SOL    HW1 1916   1.533   1.541   0.506  1.4965  1.2631 -1.0020
  639SOL    HW2 1917   1.531   1.699   0.445 -0.1993  0.6549 -2.8682
  640SOL     OW 1918   1.866   2.701   0.898  0.3256 -0.1446  0.1029
  640SOL    HW1 1919   1.837   2.624   0.840 -3.4046 -2.5936 -4.2339
  640SOL    HW2 1920   1.840   2.792   0.858 -0.9526  1.3230 -0.9996
  641SOL     OW 1921   3.087   2.864   0.507  0.3287  0.3820 -0.3043
  641SOL    HW1 1922   3.103   2.832   0.412 -0.5950  1.5667  1.8818
  641SOL    HW2 1923   0.066   2.882   0.539  2.6237 -1.3869  0.6194
  642SOL     OW 1924   0.755   0.201   1.703  1.0340  0.1038 -0.4461
  642SOL    HW1 1925   0.657   0.200   1.674 -2.3953 -2.1883  1.7613
  642SOL    HW2 1926   0.790   0.299   1.716 -1.4243  0.5972  0.5533
  643SOL     OW 1927   0.600   2.115   2.136 -0.0198  0.0417  0.7404
  643SOL    HW1 1928   0.602   2.220   2.137  1.0716  0.8687  1.3806
  643SOL    HW2 1929   0.649   2.065   2.059 -1.9184  0.9410  1.4666
  644SOL     OW 1930   0.890   2.905   0.419 -0.3990 -0.1809 -0.3150
  644SOL    HW1 1931   0.888   2.996   0.465 -0.0037 -1.3179  0.4315
  644SOL    HW2 1932   0.877   2.826   0.479 -3.6237 -1.0560 -0.3697
  645SOL     OW 1933   1.247   1.839   0.152  0.6076  0.1332 -0.0059
  645SOL    HW1 1934   1.208   1.899   0.227  1.8865 -3.0154 -0.0420
  645SOL    HW2 1935   1.347   1.854   0.132 -0.2535 -0.8793 -3.4876
  646SOL     OW 1936   0.619   1.543   3.021 -0.6632  0.3507 -0.0072
  646SOL    HW1 1937   0.666   1.499   3.098 -1.7340 -1.0283  0.3601
  646SOL    HW2 1938   0.667   1.630   2.997 -2.4104 -0.7260 -0.2388
  647SOL     OW 1939   0.953   0.155   1.040  0.1172 -0.0347 -0.7019
  647SOL    HW1 1940   0.975   0.255   1.050  1.5996 -1.1759  1.8211
  647SOL    HW2 1941   0.979   0.103   1.124  0.9909  0.0159 -1.2874
  648SOL     OW 1942   2.782   0.009   1.659  0.2129 -0.3359  0.2587
  648SOL    HW1 1943   2.685   0.040   1.634 -3.5191  2.5067 -0.4361
  648SOL    HW2 1944   2.846   0.084   1.631  0.9852  1.8205 -1.3392
  649SOL     OW 1945   0.796   2.112   2.839 -0.2561 -0.0980 -0.0179
  649SOL    HW1 1946   0.800   2.115   2.738  1.0745  1.9724  1.6778
  649SOL    HW2 1947   0.708   2.144   2.877  1.7400  0.8924  0.8201
  650SOL     OW 1948   0.180   1.873   1.604  0.2430  0.1316 -0.1548
  650SOL    HW1 1949   0.167   1.836   1.511 -0.7775  1.5523 -0.2571
  650SOL    HW2 1950   0.230   1.820   1.676  0.1032  0.1011 -2.2041
  651SOL     OW 1951   0.958   0.141   3.071  0.1377  0.6225  0.0970
  651SOL    HW1 1952   1.052   0.108   3.086  1.3538  0.8531  0.1515
  651SOL    HW2 1953   0.931   0.214   0.015 -0.5813  0.0175  0.9102
  652SOL     OW 1954   2.585   2.201   0.311  0.2706 -0.3573 -0.1676
  652SOL    HW1 1955   2.554   2.240   0.224 -1.9075  0.2830 -0.1196
  652SOL    HW2 1956   2.634   2.263   0.373  0.7326  0.6845 -1.8544
  653SOL     OW 1957   0.013   0.298   0.921  0.0034  0.2026 -0.2803
  653SOL    HW1 1958   0.038   0.217   0.870  0.5049  0.9730  0.1451
  653SOL    HW2 1959   3.067   0.357   0.880  2.9641 -2.2547  2.5233
  654SOL     OW 1960   1.727   0.172   2.524 -0.2363  0.4751  0.0028
  654SOL    HW1 1961   1.631   0.181   2.553  1.8255  0.4078 -3.7646
  654SOL    HW2 1962   1.758   0.078   2.494  4.0901 -1.1950 -0.0601
  655SOL     OW 1963   0.586   2.489   1.026  0.9582 -0.4326 -0.3304
  655SOL    HW1 1964   0.562   2.406   1.079 -1.2489 -2.4601  1.4905
  655SOL    HW2 1965   0.658   2.467   0.956  0.8293 -3.5123  1.9294
  656SOL     OW 1966   0.185   0.382   1.697 -0.1472 -0.3268 -0.1702
  656SOL    HW1 1967   0.082   0.378   1.690  1.1897 -2.5164  0.4243
  656SOL    HW2 1968   0.228   0.342   1.612 -1.3081  0.8203  1.7634
  657SOL     OW 1969   2.308   0.784   2.147  0.0208  0.4396  0.2540
  657SOL    HW1 1970   2.387   0.733   2.179 -1.4885  1.0128 -0.7287
  657SOL    HW2 1971   2.226   0.752   2.196  2.2813  0.8807 -1.2483
  658SOL     OW 1972   2.210   1.580   1.021 -0.0886  0.1050  0.1528
  658SOL    HW1 1973   2.279   1.620   1.086  1.8540 -0.9206  0.8799
  658SOL    HW2 1974   2.162   1.643   0.957  3.3291 -3.2370 -1.6408
  659SOL     OW 1975   2.549   3.082   2.826 -0.1502  0.2402 -0.0913
  659SOL    HW1 1976   2.462   3.085   2.877  1.6904  1.6211  2.0985
  659SOL    HW2 1977   2.610   0.032   2.867  1.2576  1.4423 -0.2687
  660SOL     OW 1978   1.255   1.410   2.953 -0.3552  0.2692  0.0582
  660SOL    HW1 1979   1.325   1.476   2.979 -2.0096 -4.3953  0.9633
  660SOL    HW2 1980   1.290   1.318   2.980  0.8570 -0.5896 -0.6129
  661SOL     OW 1981   2.751   2.489   0.931 -0.0041 -0.1268 -0.1019
  661SOL    HW1 1982   2.785   2.394   0.912 -1.6418 -1.2204  1.2548
  661SOL    HW2 1983   2.816   2.542   0.988  0.0490 -1.5294 -1.8952
  662SOL     OW 1984   0.675   0.633   0.244 -0.6366  0.1290 -0.3649
  662SOL    HW1 1985   0.752   0.671   0.191 -0.4687  0.2437  0.6859
  662SOL    HW2 1986   0.649   0.694   0.326 -0.9696 -1.1281  0.1073
  663SOL     OW 1987   1.366   2.202   0.176 -0.3345  0.0390  0.1454
  663SOL    HW1 1988   1.443   2.265   0.189  0.4206  0.1849  0.2423
  663SOL    HW2 1989   1.297   2.220   0.246  0.9553  2.5165  0.9571
  664SOL     OW 1990   0.770   2.340   1.659 -0.0220  0.1045  0.2470
  664SOL    HW1 1991   0.752   2.431   1.610 -0.9240  3.3919 -1.8170
  664SOL    HW2 1992   0.692   2.279   1.647  0.6323 -0.2710  2.0601
  665SOL     OW 1993   2.196   2.066   1.880 -0.0955 -0.0803 -0.3572
  665SOL    HW1 1994   2.185   2.168   1.868  1.3270  3.7151 -1.6476
  665SOL    HW2 1995   2.148   2.021   1.808  1.4632 -1.6192  2.1287
  666SOL     OW 1996   0.495   2.788   0.368 -0.2675  0.3421 -0.0362
  666SOL    HW1 1997   0.510   2.886   0.395  0.4052  0.8215 -1.0439
  666SOL    HW2 1998   0.451   2.788   0.275 -1.5238 -0.8413 -0.3925
  667SOL     OW 1999   2.101   1.657   1.783  0.6247  0.2749  0.2628
  667SOL    HW1 2000   2.150   1.572   1.815  2.5589 -1.0644  1.3728
  667SOL    HW2 2001   2.060   1.708   1.862  3.4145  2.5208  1.7113
  668SOL     OW 2002   0.306   0.822   2.386 -0.9301 -0.1201 -0.0560
  668SOL    HW1 2003   0.367   0.751   2.350  0.8285  2.5947 -1.6950
  668SOL    HW2 2004   0.245   0.865   2.311  1.5490 -1.0160 -0.0985
  669SOL     OW 2005   1.816   2.212   2.565 -0.0369 -0.8259 -0.5395
  669SOL    HW1 2006   1.712   2.217   2.563 -0.7190 -0.7249 -1.9230
  669SOL    HW2 2007   1.844   2.114   2.553  1.9220 -0.7123  1.5161
  670SOL     OW 2008   2.274   2.263   0.070 -0.5708  0.1918 -0.3954
  670SOL    HW1 2009   2.255   2.169   0.034 -1.6087 -0.9656  0.9535
  670SOL    HW2 2010   2.224   2.338   0.024 -0.3294  0.8607  0.6561
  671SOL     OW 2011   0.706   1.208   1.128  0.1200  0.3091 -0.6120
  671SOL    HW1 2012   0.726   1.285   1.185 -1.5585 -2.0841  1.3239
  671SOL    HW2 2013   0.663   1.133   1.181 -0.4277 -1.9614 -1.4661
  672SOL     OW 2014   2.702   1.048   2.324 -0.3838 -0.2926 -0.3990
  672SOL    HW1 2015   2.788   1.008   2.284  1.1177 -3.3578 -3.6851
  672SOL    HW2 2016   2.716   1.091   2.415 -1.0725 -1.0219  2.8708
  673SOL     OW 2017   2.565   2.266   2.425  0.4909 -0.2822 -0.1046
  673SOL    HW1 2018   2.596   2.176   2.402 -0.9766  3.5289  2.3376
  673SOL    HW2 2019   2.647   2.328   2.440  1.3219  1.5921 -0.4129
  674SOL     OW 2020   1.073   2.790   2.243 -0.3151  0.0712  0.2503
  674SOL    HW1 2021   1.045   2.824   2.332 -0.8531  1.3047 -0.2226
  674SOL    HW2 2022   1.143   2.718   2.257 -2.5051 -2.3389  1.9863
  675SOL     OW 2023   0.705   0.973   1.523 -0.0475  0.5088  0.1787
  675SOL    HW1 2024   0.767   0.895   1.550 -0.3530 -0.2397 -1.8131
  675SOL    HW2 2025   0.638   0.996   1.597  2.3284  2.4126  1.5379
  676SOL     OW 2026   2.103   1.021   0.531  0.3531 -0.0288 -0.5037
  676SOL    HW1 2027   2.162   0.989   0.606  1.3840 -2.4513  0.7237
  676SOL    HW2 2028   2.119   0.957   0.450  1.3925 -1.7451 -0.2361
  677SOL     OW 2029   2.851   1.694   2.925 -0.8254 -0.9941 -0.5896
  677SOL    HW1 2030   2.790   1.632   2.871  0.5214  0.4459  0.3172
  677SOL    HW2 2031   2.954   1.669   2.914  1.8724 -1.4799 -0.4762
  678SOL     OW 2032   3.076   2.339   1.206 -0.4338  0.0973  0.6398
  678SOL    HW1 2033   0.048   2.373   1.219 -2.2031 -1.1903  0.1015
  678SOL    HW2 2034   3.022   2.399   1.144  0.0075  1.9531 -1.5808
  679SOL     OW 2035   1.931   2.461   0.709  0.4214  0.3902 -0.5519
  679SOL    HW1 2036   1.991   2.541   0.701 -3.6097  2.0061  1.1861
  679SOL    HW2 2037   1.965   2.371   0.673 -0.7203 -1.6080 -1.2062
  680SOL     OW 2038   0.389   2.519   2.501  0.1013 -0.0837 -0.1152
  680SOL    HW1 2039   0.360   2.617   2.516  1.6950  2.7172 -0.5760
  680SOL    HW2 2040   0.487   2.510   2.501 -3.9657 -0.1742 -1.3035
  681SOL     OW 2041   3.103   1.207   1.411 -0.2244  0.2515  0.0048
  681SOL    HW1 2042   0.053   1.272   1.442  1.0198  0.1021 -0.9665
  681SOL    HW2 2043   3.035   1.203   1.482  0.2057 -1.4228 -0.1325
  682SOL     OW 2044   0.347   1.965   1.283  0.0222 -0.3370 -0.4354
  682SOL    HW1 2045   0.290   2.026   1.347 -3.2702 -1.6030  1.1738
  682SOL    HW2 2046   0.445   1.952   1.316 -1.3174  0.6305  1.8678
  683SOL     OW 2047   2.541   1.261   1.412  0.1813  0.0440  0.1693
  683SOL    HW1 2048   2.583   1.315   1.334 -0.1145 -0.6396  0.0981
  683SOL    HW2 2049   2.515   1.323   1.491  1.1687  1.0690  0.8629
  684SOL     OW 2050   2.803   1.559   0.089 -0.2861  0.1915 -0.1383
  684SOL    HW1 2051   2.867   1.477   0.081  2.1412  0.5484  0.5039
  684SOL    HW2 2052   2.805   1.622   0.007 -1.9458 -0.9693 -0.0799
  685SOL     OW 2053   1.010   1.101   0.266 -0.3302  0.0913  0.6872
  685SOL    HW1 2054   0.945   1.132   0.190 -1.6258  1.2926 -1.6554
  685SOL    HW2 2055   1.104   1.070   0.235  1.1643  1.1236  1.2329
  686SOL     OW 2056   0.202   0.250   1.112 -0.0499  0.2096  0.4302
  686SOL    HW1 2057   0.257   0.162   1.113 -0.9519  0.5805 -0.1757
  686SOL    HW2 2058   0.144   0.261   1.031  1.5415  1.5820 -0.4477
  687SOL     OW 2059   1.139   1.332   2.305 -0.4366 -0.1601 -0.5927
  687SOL    HW1 2060   1.082   1.254   2.283  0.6925 -0.0297  1.0491
  687SOL    HW2 2061   1.159   1.319   2.407  3.8222 -0.2981  0.2988
  688SOL     OW 2062   0.613   1.948   1.330 -0.2223 -0.2302 -0.1467
  688SOL    HW1 2063   0.695   1.962   1.266 -2.1107 -0.2158 -1.0866
  688SOL    HW2 2064   0.650   1.935   1.430 -0.7873 -0.3023  1.7637
  689SOL     OW 2065   1.462   0.897   1.277 -0.1213  0.5791 -0.3945
  689SOL    HW1 2066   1.442   0.956   1.358  0.0587 -0.5311 -1.9999
  689SOL    HW2 2067   1.402   0.812   1.282  0.1840  1.3846  1.4365
  690SOL     OW 2068   2.743   0.956   1.166  0.0148  0.7094 -0.7467
  690SOL    HW1 2069   2.791   1.041   1.186 -1.4322 -1.2846 -1.0610
  690SOL    HW2 2070   2.797   0.869   1.180  1.1521 -2.8022 -0.9194
  691SOL     OW 2071   0.223   2.112   1.992 -0.1533  0.2589 -0.0327
  691SOL    HW1 2072   0.237   2.210   2.005  0.6201  1.3271  1.5351
  691SOL    HW2 2073   0.124   2.091   1.971 -1.4653 -0.6495  2.0204
  692SOL     OW 2074   1.708   0.018   0.974 -0.5970  0.3106  0.8151
  692SOL    HW1 2075   1.792   0.064   1.005 -1.3058 -2.3772 -0.1470
  692SOL    HW2 2076   1.654   3.102   1.054  2.1838  2.2722 -0.1981
  693SOL     OW 2077   0.133   1.648   2.487 -0.5789 -0.0398 -0.1796
  693SOL    HW1 2078   0.098   1.741   2.494 -2.5317 -0.0188 -1.7795
  693SOL    HW2 2079   0.046   1.600   2.467  2.0012  2.4102  1.1697
  694SOL     OW 2080   2.319   0.733   1.066 -0.0189 -0.9261  0.2141
  694SOL    HW1 2081   2.331   0.747   1.168  1.1184 -0.8716  1.5279
  694SOL    HW2 2082   2.293   0.817   1.022 -2.2630 -3.2294 -1.6250
  695SOL     OW 2083   1.022   1.276   1.565  0.0281  0.3679 -0.2380
  695SOL    HW1 2084   0.943   1.342   1.559 -3.6902  1.4377 -0.1256
  695SOL    HW2 2085   1.066   1.259   1.473 -0.2082 -0.6303 -0.5537
  696SOL     OW 2086   1.622   3.120   0.602 -0.0180  0.3084  0.5485
  696SOL    HW1 2087   1.545   0.023   0.663  0.1370 -1.2828 -0.8163
  696SOL    HW2 2088   1.644   0.067   0.532  4.1054 -0.4225 -0.7967
  697SOL     OW 2089   0.692   0.134   0.986 -0.7431  0.2224 -0.0097
  697SOL    HW1 2090   0.671   0.210   0.924 -0.3545 -1.3589 -2.3668
  697SOL    HW2 2091   0.793   0.139   1.014  0.7198  2.8220  1.1435
  698SOL     OW 2092   1.682   1.687   2.566 -0.1953 -0.0992  0.1584
  698SOL    HW1 2093   1.622   1.611   2.596  2.3758 -0.6995  2.5599
  698SOL    HW2 2094   1.741   1.658   2.486 -0.1859  2.0876  0.7201
  699SOL     OW 2095   1.249   1.004   1.137 -0.3231 -0.1574  0.0947
  699SOL    HW1 2096   1.205   0.926   1.089 -0.3377  1.7651 -1.9581
  699SOL    HW2 2097   1.331   0.967   1.191  0.8996 -0.3860  0.2706
  700SOL     OW 2098   1.238   0.049   0.390 -0.2281 -0.1442 -0.3039
  700SOL    HW1 2099   1.192   0.004   0.307  0.4343 -0.6931 -0.6792
  700SOL    HW2 2100   1.244   3.099   0.461  0.7863 -0.0168 -1.8824
  701SOL     OW 2101   2.505   2.799   2.753 -0.0661 -0.7596 -0.0700
  701SOL    HW1 2102   2.433   2.768   2.816  1.6393 -0.3997 -0.2604
  701SOL    HW2 2103   2.519   2.899   2.766  1.6881  1.5458  3.2652
  702SOL     OW 2104   1.045   0.243   0.476  0.1245 -0.1911 -0.8521
  702SOL    HW1 2105   1.112   0.172   0.451  1.8328 -1.8872  1.7420
  702SOL    HW2 2106   1.074   0.279   0.570  0.4040 -1.3661 -1.2817
  703SOL     OW 2107   2.612   0.422   2.098 -0.2676 -0.1847 -0.9021
  703SOL    HW1 2108   2.559   0.481   2.164 -1.0769 -0.4007 -0.1262
  703SOL    HW2 2109   2.697   0.469   2.074  0.0928 -0.1760  1.1842
  704SOL     OW 2110   2.857   1.790   0.786 -0.0495  0.0748  0.1362
  704SOL    HW1 2111   2.806   1.789   0.699  0.2757 -1.0516 -0.7059
  704SOL    HW2 2112   2.942   1.848   0.783  2.1545 -1.3739 -2.9404
  705SOL     OW 2113   2.947   2.873   2.152 -0.5537 -0.4137  0.1107
  705SOL    HW1 2114   2.976   2.940   2.078  0.5080 -1.0046 -2.2684
  705SOL    HW2 2115   2.880   2.907   2.225 -1.1675 -0.4869  1.7138
  706SOL     OW 2116   2.491   2.498   0.909 -0.0851  0.3789 -0.5977
  706SOL    HW1 2117   2.594   2.501   0.913  1.5711 -1.4132  1.1189
  706SOL    HW2 2118   2.470   2.425   0.843  2.1925  0.9446  0.0155
  707SOL     OW 2119   1.041   2.263   1.679  0.2868 -0.4449 -0.1051
  707SOL    HW1 2120   0.944   2.251   1.668  2.6005  1.9359  0.5800
  707SOL    HW2 2121   1.080   2.314   1.600 -1.6680 -1.2990 -0.4969
  708SOL     OW 2122   0.208   2.650   2.171  0.2809 -0.3908  0.2953
  708SOL    HW1 2123   0.229   2.702   2.083 -2.6603  2.3925  0.4870
  708SOL    HW2 2124   0.286   2.609   2.219 -1.2356 -0.5798 -1.4373
  709SOL     OW 2125   2.084   2.881   2.104  0.4386  0.1724  0.0378
  709SOL    HW1 2126   2.160   2.877   2.036 -0.5308 -0.6639  3.4224
  709SOL    HW2 2127   2.024   2.957   2.073  3.1438 -1.0023  1.3040
  710SOL     OW 2128   1.878   0.882   2.635 -0.2852  0.1104 -0.0444
  710SOL    HW1 2129   1.964   0.839   2.596  2.5719 -0.0096  0.5981
  710SOL    HW2 2130   1.836   0.943   2.565 -0.0341 -1.0304  1.6482
  711SOL     OW 2131   1.023   1.797   3.085  0.5997 -0.0641 -0.3765
  711SOL    HW1 2132   1.114   1.793   0.004 -0.7593  0.1274 -1.7333
  711SOL    HW2 2133   1.017   1.818   2.982 -2.5949 -3.8578 -0.2707
  712SOL     OW 2134   0.497   2.426   2.753  0.3290  0.2321 -0.2952
  712SOL    HW1 2135   0.586   2.434   2.702  0.5702  2.2413  0.7670
  712SOL    HW2 2136   0.420   2.435   2.691 -0.3046  0.2060 -0.3272
  713SOL     OW 2137   1.603   1.397   3.106 -0.5867  0.3083 -0.5618
  713SOL    HW1 2138   1.558   1.449   3.032 -2.9677  2.3488 -0.7800
  713SOL    HW2 2139   1.626   1.464   0.055 -4.6174 -0.0195 -0.9527
  714SOL     OW 2140   0.982   1.646   1.435 -0.0997  0.2011 -0.0094
  714SOL    HW1 2141   0.976   1.750   1.446 -0.3085  3.7453  0.7250
  714SOL    HW2 2142   1.079   1.618   1.433 -1.8063  1.7994  1.2124
  715SOL     OW 2143   1.719   0.418   2.848 -0.0822  0.4278 -0.0686
  715SOL    HW1 2144   1.722   0.481   2.761 -0.5854 -0.5376 -1.0747
  715SOL    HW2 2145   1.816   0.393   2.877  1.3323  1.6097 -1.8159
  716SOL     OW 2146   3.034   2.652   2.377  0.0625 -0.2404  0.2546
  716SOL    HW1 2147   3.061   2.567   2.330  0.4960  1.5089 -2.0297
  716SOL    HW2 2148   3.111   2.717   2.355  3.1872 -0.0114 -3.2859
  717SOL     OW 2149   2.803   0.547   1.006 -0.2762 -0.2826 -0.3535
  717SOL    HW1 2150   2.825   0.610   1.085  0.6779 -0.9925 -2.8408
  717SOL    HW2 2151   2.780   0.454   1.047  1.1145  5.2297 -0.4281
  718SOL     OW 2152   0.825   1.439   2.535  0.0823  0.1369  0.1796
  718SOL    HW1 2153   0.797   1.482   2.621  0.2663 -1.5757  0.4757
  718SOL    HW2 2154   0.888   1.502   2.484  1.1848  0.2405  0.9487
  719SOL     OW 2155   2.118   1.025   3.077  0.1098 -0.6985  0.0276
  719SOL    HW1 2156   2.050   0.953   3.062  0.0222  1.2509 -0.4488
  719SOL    HW2 2157   2.187   1.029   3.000 -2.6800 -1.5781 -2.8378
  720SOL     OW 2158   0.917   0.591   0.845  0.2977  0.1576  0.3957
  720SOL    HW1 2159   0.944   0.533   0.925  4.5297 -1.6540 -1.0709
  720SOL    HW2 2160   0.877   0.523   0.778 -0.3060  2.1628 -1.2101
  721SOL     OW 2161   2.615   0.119   0.763  0.4585  0.1351 -0.6855
  721SOL    HW1 2162   2.573   0.205   0.802  0.7684 -1.6735  0.4210
  721SOL    HW2 2163   2.619   0.124   0.661 -1.1919 -1.7062 -0.5775
  722SOL     OW 2164   2.139   0.796   2.579 -0.4271 -0.0083 -0.5298
  722SOL    HW1 2165   2.131   0.697   2.605  1.0535 -3.1000 -0.4405
  722SOL    HW2 2166   2.228   0.844   2.583 -1.4943 -0.8866  0.5652
  723SOL     OW 2167   2.424   0.267   0.440  0.6523  0.3492 -0.1791
  723SOL    HW1 2168   2.337   0.238   0.399  0.8849  0.3276  1.7670
  723SOL    HW2 2169   2.478   0.334   0.382 -0.9654  0.4713 -2.5247
  724SOL     OW 2170   0.893   1.483   1.950 -0.1834 -0.4313 -0.7310
  724SOL    HW1 2171   0.854   1.390   1.965 -0.8183  0.5155  0.1437
  724SOL    HW2 2172   0.858   1.527   1.862 -2.6628  0.5079 -3.0859
  725SOL     OW 2173   1.635   0.374   1.056  0.1467  0.0633 -0.3351
  725SOL    HW1 2174   1.712   0.366   1.117  0.1360 -1.2075  0.0081
  725SOL    HW2 2175   1.656   0.414   0.963 -0.5845 -0.3017 -1.1493
  726SOL     OW 2176   1.893   2.678   0.306 -0.1456 -0.3125  1.0881
  726SOL    HW1 2177   1.811   2.729   0.346 -1.3087 -0.0164  1.7562
  726SOL    HW2 2178   1.873   2.574   0.319  1.7189 -1.2588  1.4109
  727SOL     OW 2179   1.616   1.584   1.845 -0.3505 -0.1695 -0.2761
  727SOL    HW1 2180   1.607   1.535   1.931 -1.0965 -3.6428  1.1812
  727SOL    HW2 2181   1.641   1.521   1.773 -1.0946  0.1915  3.0235
  728SOL     OW 2182   2.327   2.601   1.519 -0.1411 -0.2125 -0.0476
  728SOL    HW1 2183   2.228   2.610   1.495 -2.1009  0.2403 -0.2646
  728SOL    HW2 2184   2.347   2.612   1.618  0.2014  1.3332 -1.0692
  729SOL     OW 2185   2.256   1.756   0.790 -0.4561 -0.2770  0.1184
  729SOL    HW1 2186   2.278   1.843   0.734  0.4062  0.5429 -1.0604
  729SOL    HW2 2187   2.305   1.674   0.754 -0.8229  0.3646  0.5626
  730SOL     OW 2188   0.845   0.834   2.611 -0.7787 -0.3366 -0.0062
  730SOL    HW1 2189   0.756   0.795   2.624  1.5849  0.5626 -2.0814
  730SOL    HW2 2190   0.871   0.903   2.679  0.7590  1.2724 -2.0960
  731SOL     OW 2191   0.322   0.011   0.704  0.0780  0.1712  0.5086
  731SOL    HW1 2192   0.298   0.103   0.657  0.1115  2.2228 -2.0254
  731SOL    HW2 2193   0.375   0.024   0.792  2.0515  0.4405  1.6603
  732SOL     OW 2194   1.481   0.686   0.387 -0.0321 -0.3479 -0.4357
  732SOL    HW1 2195   1.422   0.714   0.308 -1.3726  0.7339  0.1144
  732SOL    HW2 2196   1.434   0.628   0.456  1.5599 -0.6290 -2.0335
  733SOL     OW 2197   0.588   2.209   1.066 -0.2937 -0.2818  0.2218
  733SOL    HW1 2198   0.653   2.195   1.139  0.0873 -0.2664 -3.1640
  733SOL    HW2 2199   0.593   2.131   1.008  1.3456 -1.3385  3.4126
  734SOL     OW 2200   0.346   2.606   0.473  0.2172 -0.0092  0.1414
  734SOL    HW1 2201   0.404   2.680   0.430  2.9591  0.8361 -0.4169
  734SOL    HW2 2202   0.256   2.603   0.421  2.2811  2.7841 -1.7406
  735SOL     OW 2203   1.233   0.188   1.311  0.3514 -0.6146  0.1019
  735SOL    HW1 2204   1.162   0.112   1.307 -1.5783  0.9046  0.4935
  735SOL    HW2 2205   1.292   0.188   1.224 -1.9495 -2.5236  1.2306
  736SOL     OW 2206   2.109   2.438   3.059 -0.5371  0.1586  0.5250
  736SOL    HW1 2207   2.082   2.520   3.116  1.8369  2.2424 -1.7973
  736SOL    HW2 2208   2.030   2.377   3.048  2.1884 -0.6244 -1.0219
  737SOL     OW 2209   0.007   0.918   0.784 -0.2864 -0.4134  0.4912
  737SOL    HW1 2210   3.030   0.954   0.782  0.6354 -2.4973 -0.4882
  737SOL    HW2 2211   0.021   0.852   0.707 -1.1720  0.3710 -0.3206
  738SOL     OW 2212   2.518   2.860   2.057  0.0646 -0.0217  0.2825
  738SOL    HW1 2213   2.543   2.762   2.051 -0.8503 -2.2570 -2.0644
  738SOL    HW2 2214   2.500   2.884   2.151  0.6075  1.9088 -2.9245
  739SOL     OW 2215   1.307   2.279   3.035 -0.6304 -0.4162 -0.0338
  739SOL    HW1 2216   1.351   2.206   2.984 -1.1160  1.6405  0.8866
  739SOL    HW2 2217   1.301   2.261   0.013 -1.7616  0.6871  0.0938
  740SOL     OW 2218   1.390   0.244   1.090 -0.0105 -0.0312  0.0527
  740SOL    HW1 2219   1.471   0.298   1.102 -0.4059 -2.5680 -1.0378
  740SOL    HW2 2220   1.406   0.174   1.018 -0.5029  1.4650  3.5244
  741SOL     OW 2221   2.918   0.728   0.642 -0.4363 -0.4628  0.1099
  741SOL    HW1 2222   3.008   0.672   0.635  3.7434 -2.1730  0.3270
  741SOL    HW2 2223   2.854   0.678   0.703 -1.0559 -0.0139 -2.9427
  742SOL     OW 2224   0.919   1.270   2.760  0.1617 -0.2790 -0.0178
  742SOL    HW1 2225   0.924   1.312   2.854 -0.0235 -1.3273  0.8188
  742SOL    HW2 2226   0.859   1.323   2.703  2.5338  1.4663  1.0596
  743SOL     OW 2227   1.026   0.559   2.096 -0.2025  0.1785  0.0634
  743SOL    HW1 2228   1.018   0.478   2.147 -1.0695  1.4150  0.3385
  743SOL    HW2 2229   0.938   0.608   2.090 -0.8142  3.3244  2.0557
  744SOL     OW 2230   2.089   0.426   1.327  0.0727 -0.3188 -0.2972
  744SOL    HW1 2231   2.081   0.461   1.233 -1.5519  1.7886 -0.2346
  744SOL    HW2 2232   2.062   0.330   1.330  1.1996  2.1318 -0.4004
  745SOL     OW 2233   1.621   1.256   1.435 -0.3011 -0.3557 -0.0631
  745SOL    HW1 2234   1.599   1.346   1.408  1.3820  1.1345 -1.1580
  745SOL    HW2 2235   1.713   1.251   1.473 -2.0947 -1.6289 -0.2221
  746SOL     OW 2236   2.226   1.282   1.028  0.7892 -0.3434  0.2743
  746SOL    HW1 2237   2.263   1.374   0.997  1.3639  1.8915 -1.9029
  746SOL    HW2 2238   2.128   1.253   0.991 -1.3721  0.7409 -1.2697
  747SOL     OW 2239   2.646   1.400   1.180  0.0851 -0.6624 -0.4141
  747SOL    HW1 2240   2.600   1.383   1.090 -0.8757  0.3962  0.4516
  747SOL    HW2 2241   2.648   1.497   1.204 -0.2920 -1.9087 -0.7501
  748SOL     OW 2242   0.646   2.014   0.669  0.1745  0.5256  0.5155
  748SOL    HW1 2243   0.747   2.019   0.660 -2.9962  0.0949 -0.9004
  748SOL    HW2 2244   0.600   1.947   0.602  1.4068 -1.0131 -0.7489
  749SOL     OW 2245   2.440   2.842   2.382 -0.1271 -0.4560 -0.3059
  749SOL    HW1 2246   2.465   2.788   2.460 -1.6911 -0.8725  0.8123
  749SOL    HW2 2247   2.463   2.932   2.399  0.0042 -3.6862  0.3591
  750SOL     OW 2248   2.243   0.579   0.682  0.4771 -0.3500  0.0232
  750SOL    HW1 2249   2.250   0.479   0.678 -0.4285  1.2365 -1.2463
  750SOL    HW2 2250   2.147   0.613   0.682  0.5135 -1.3222  1.0465
  751SOL     OW 2251   2.413   2.779   0.528 -0.1811 -0.5512 -0.6732
  751SOL    HW1 2252   2.473   2.790   0.611 -0.3536 -2.9089  1.4884
  751SOL    HW2 2253   2.366   2.689   0.536  1.9616 -0.6288 -1.1111
  752SOL     OW 2254   0.040   0.006   0.785  0.3339  0.1383 -0.3440
  752SOL    HW1 2255   0.020   3.044   0.843  0.1317 -1.2925  2.7028
  752SOL    HW2 2256   0.132   3.119   0.745  0.3886 -1.4316 -2.1745
  753SOL     OW 2257   1.873   1.089   2.156  0.4385  0.0451  0.2421
  753SOL    HW1 2258   1.775   1.085   2.131 -1.7235 -2.6785  1.1147
  753SOL    HW2 2259   1.925   1.104   2.065  4.1772  1.4344 -1.1334
  754SOL     OW 2260   1.816   2.159   1.669  0.4086 -0.0802  0.3067
  754SOL    HW1 2261   1.807   2.161   1.769 -0.7745  1.3986  0.9977
  754SOL    HW2 2262   1.784   2.075   1.626  0.4725  1.7104  0.1193
  755SOL     OW 2263   2.621   0.885   0.942 -0.0735  0.4799 -0.2911
  755SOL    HW1 2264   2.670   0.890   1.036 -1.8283 -0.6286 -0.2195
  755SOL    HW2 2265   2.573   0.796   0.933 -1.0463 -1.3872 -0.4340
  756SOL     OW 2266   0.968   1.404   2.995 -0.5241  0.1446 -0.1830
  756SOL    HW1 2267   1.064   1.385   2.977 -5.6382  0.3226 -2.3797
  756SOL    HW2 2268   0.959   1.471   3.072 -1.4194  2.0484 -0.1821
  757SOL     OW 2269   1.444   2.686   0.746 -0.1494  0.6554 -0.2516
  757SOL    HW1 2270   1.437   2.785   0.759 -0.3237  0.2865  0.3272
  757SOL    HW2 2271   1.357   2.652   0.705 -3.2566 -0.0768 -0.5687
  758SOL     OW 2272   1.271   2.780   1.416 -0.3973 -0.0842  0.0941
  758SOL    HW1 2273   1.358   2.825   1.438 -1.0967 -1.8242  1.8046
  758SOL    HW2 2274   1.235   2.740   1.506  0.5013  1.2705  0.1480
  759SOL     OW 2275   0.065   0.548   0.790 -0.2063 -0.7759 -0.4450
  759SOL    HW1 2276   3.095   0.514   0.814  0.0986 -0.8490 -4.0994
  759SOL    HW2 2277   0.070   0.584   0.695  1.4751 -3.6057  1.5800
  760SOL     OW 2278   2.488   1.031   1.232  0.4354 -0.8257  0.1511
  760SOL    HW1 2279   2.580   1.003   1.194 -3.4296 -0.3636 -2.8697
  760SOL    HW2 2280   2.505   1.105   1.304 -2.9348 -1.2423  0.7372
  761SOL     OW 2281   1.999   0.091   0.562  0.1658 -0.2669  0.7276
  761SOL    HW1 2282   2.012   3.111   0.562 -0.8379  1.0199 -0.0529
  761SOL    HW2 2283   2.036   0.134   0.646  1.1330 -0.1292  1.8180
  762SOL     OW 2284   2.097   1.824   0.020 -0.3335  0.0655  0.0237
  762SOL    HW1 2285   2.144   1.773   0.091 -1.8401  2.2131  1.5429
  762SOL    HW2 2286   2.153   1.906   3.111 -1.2294 -0.9580 -0.7593
  763SOL     OW 2287   0.629   1.858   1.654 -0.1925  0.2928 -0.1485
  763SOL    HW1 2288   0.732   1.852   1.653 -0.2676  2.6434 -2.7916
  763SOL    HW2 2289   0.581   1.773   1.679 -0.8670 -0.1693 -1.7113
  764SOL     OW 2290   2.775   2.164   2.655 -0.1049 -0.3704 -0.2420
  764SOL    HW1 2291   2.781   2.142   2.757  0.6297  0.5736  2.1747
  764SOL    HW2 2292   2.727   2.252   2.634  0.5145  1.0781  2.4452
  765SOL     OW 2293   0.541   2.669   1.245  0.5167 -0.0274  0.0568
  765SOL    HW1 2294   0.614   2.736   1.273  2.2827 -0.0781  0.8971
  765SOL    HW2 2295   0.561   2.631   1.153  1.0742 -1.2975  3.3112
  766SOL     OW 2296   0.012   2.323   2.428  0.4285 -0.0768 -0.1561
  766SOL    HW1 2297   0.112   2.321   2.400 -0.1931 -0.4932 -1.9963
  766SOL    HW2 2298   3.071   2.267   2.369  1.9550  0.4404 -0.7754
  767SOL     OW 2299   2.372   0.948   2.564 -0.1126 -0.1576  0.1149
  767SOL    HW1 2300   2.361   0.982   2.471 -0.1504 -2.8381 -0.5581
  767SOL    HW2 2301   2.468   0.904   2.569 -2.0798 -1.7046 -1.5776
  768SOL     OW 2302   1.469   0.190   2.619  0.2201  0.1344 -0.2832
  768SOL    HW1 2303   1.430   0.283   2.596  1.1534 -1.3762  0.6589
  768SOL    HW2 2304   1.481   0.187   2.722  0.0507  0.8043  1.5821
  769SOL     OW 2305   0.041   2.576   0.962  0.7368  0.4619  0.3447
  769SOL    HW1 2306   0.026   2.505   0.890  0.4476  0.4948 -0.7054
  769SOL    HW2 2307   0.114   2.547   1.028  1.7425 -2.4288  2.5537
  770SOL     OW 2308   0.693   0.322   2.941 -0.5946  0.4513  0.2276
  770SOL    HW1 2309   0.746   0.375   3.004 -0.5037  1.3877 -1.3333
  770SOL    HW2 2310   0.647   0.243   2.988 -1.0959 -2.3100  4.0995
  771SOL     OW 2311   1.389   1.753   2.353 -0.4677 -0.2973 -0.1287
  771SOL    HW1 2312   1.426   1.674   2.305  1.6549 -0.0552  1.9134
  771SOL    HW2 2313   1.293   1.775   2.325  2.5114 -1.6865 -0.2549
  772SOL     OW 2314   1.755   2.765   2.237 -0.3333 -0.3202 -0.0065
  772SOL    HW1 2315   1.813   2.790   2.323  2.5134  1.4987  1.2066
  772SOL    HW2 2316   1.805   2.785   2.153 -4.2492 -0.6552  1.2743
  773SOL     OW 2317   1.676   0.681   1.395  0.6413  0.1379 -0.1056
  773SOL    HW1 2318   1.606   0.736   1.352  0.2287 -2.2380  3.0182
  773SOL    HW2 2319   1.681   0.684   1.499  0.5270  1.1689  0.4498
  774SOL     OW 2320   1.008   0.430   1.064 -0.0137  0.0444  0.0812
  774SOL    HW1 2321   1.106   0.459   1.068 -2.4718 -1.7331  3.0369
  774SOL    HW2 2322   0.950   0.479   1.130  3.3250 -0.9320  1.3372
  775SOL     OW 2323   2.054   0.003   2.824 -0.5387 -0.1273 -0.3785
  775SOL    HW1 2324   1.958   0.042   2.830  0.8786 -1.3004 -1.2676
  775SOL    HW2 2325   2.057   3.051   2.753  0.5007  0.3681  2.0910
  776SOL     OW 2326   2.128   0.859   1.554 -0.1464 -0.0229 -0.0315
  776SOL    HW1 2327   2.035   0.867   1.516 -1.4252  0.9018 -1.4217
  776SOL    HW2 2328   2.143   0.835   1.652 -1.2967 -1.6706 -1.5074
  777SOL     OW 2329   2.967   1.467   2.229  0.4629  0.4220 -0.5215
  777SOL    HW1 2330   2.990   1.538   2.294 -1.7031 -1.7971 -2.0700
  777SOL    HW2 2331   2.995   1.379   2.277  0.5320 -1.8291  0.7167
  778SOL     OW 2332   2.831   1.144   2.551 -0.2260 -0.0812  0.0375
  778SOL    HW1 2333   2.932   1.163   2.547 -2.0947  1.0235 -1.3090
  778SOL    HW2 2334   2.775   1.230   2.559  0.4512 -0.7772  0.0853
  779SOL     OW 2335   3.055   0.807   3.045 -0.0958  0.1442  0.0862
  779SOL    HW1 2336   0.031   0.818   3.073  2.3082  2.1206  0.6609
  779SOL    HW2 2337   3.035   0.707   3.016  1.2509 -1.1309  1.3807
  780SOL     OW 2338   2.424   2.095   2.641 -0.4369  0.4315  0.1261
  780SOL    HW1 2339   2.519   2.139   2.634  2.6117  0.4557 -2.6255
  780SOL    HW2 2340   2.351   2.171   2.659  1.4129  0.6507  2.3220
  781SOL     OW 2341   2.861   1.070   1.994 -0.0972 -1.3574  0.0530
  781SOL    HW1 2342   2.927   1.124   1.935  1.2313 -1.0313 -0.6192
  781SOL    HW2 2343   2.819   0.992   1.947  1.2324  2.7644  2.2544
  782SOL     OW 2344   1.146   2.075   2.597  0.2859  0.3195 -0.1086
  782SOL    HW1 2345   1.193   1.990   2.558 -0.9221 -1.4455 -1.6373
  782SOL    HW2 2346   1.151   2.071   2.701  2.5309  0.7602 -2.5830
  783SOL     OW 2347   1.070   2.508   1.070  0.2157  0.1277  0.6567
  783SOL    HW1 2348   1.127   2.427   1.049  1.7129  0.1632 -1.6459
  783SOL    HW2 2349   1.110   2.589   1.021  0.1380  1.7066 -1.4099
  784SOL     OW 2350   2.114   0.725   2.317  0.4420 -0.2299 -0.0202
  784SOL    HW1 2351   2.129   0.633   2.358  0.1095 -0.6687 -0.3194
  784SOL    HW2 2352   2.120   0.803   2.391  0.5549 -0.4610 -1.5375
  785SOL     OW 2353   0.030   0.071   1.720 -0.1665 -0.4080 -0.0020
  785SOL    HW1 2354   0.008   0.170   1.717 -0.1521 -0.5465  0.8347
  785SOL    HW2 2355   3.121   0.016   1.639 -2.0079 -2.2784 -0.4964
  786SOL     OW 2356   1.190   2.006   0.360 -0.5503  0.3356 -0.4012
  786SOL    HW1 2357   1.106   1.972   0.403  1.2500  4.2548  3.2355
  786SOL    HW2 2358   1.202   2.103   0.382 -3.4946 -0.7557  2.9679
  787SOL     OW 2359   1.019   0.067   0.787  0.0889  0.0904  0.4076
  787SOL    HW1 2360   0.939   0.066   0.722  2.7106  4.0798  2.6331
  787SOL    HW2 2361   0.988   0.081   0.884 -1.2244 -0.0070  0.9547
  788SOL     OW 2362   0.010   1.290   0.867  0.6510 -0.4791  0.0377
  788SOL    HW1 2363   0.008   1.391   0.835  4.8442 -0.8586  0.0060
  788SOL    HW2 2364   0.049   1.239   0.789 -2.3563  2.4654 -2.0065
  789SOL     OW 2365   2.525   1.243   2.227 -0.2278  0.0228  0.3450
  789SOL    HW1 2366   2.423   1.224   2.226 -4.2027  0.1929 -0.7552
  789SOL    HW2 2367   2.579   1.174   2.278  0.2025  1.8098  0.3712
  790SOL     OW 2368   1.046   0.277   2.791 -0.6554 -0.4805  0.0986
  790SOL    HW1 2369   0.974   0.339   2.744 -0.7596 -0.9827  1.6379
  790SOL    HW2 2370   1.001   0.236   2.868 -0.4524  2.1424 -0.9498
  791SOL     OW 2371   0.106   2.986   0.034 -0.0351  0.3795 -0.1286
  791SOL    HW1 2372   0.044   3.063   0.004 -0.0382  1.3268 -0.1690
  791SOL    HW2 2373   0.175   3.015   0.100 -1.3437 -2.1570 -1.4402
  792SOL     OW 2374   1.555   0.905   1.807  0.3293 -0.2175  0.7059
  792SOL    HW1 2375   1.542   0.875   1.903  0.5839  0.8221  0.1413
  792SOL    HW2 2376   1.470   0.948   1.770  0.0486 -2.4486  1.1158
  793SOL     OW 2377   2.949   0.148   1.081  0.2868 -0.6419  0.1468
  793SOL    HW1 2378   3.016   0.219   1.055  0.4352 -1.1903 -1.0944
  793SOL    HW2 2379   2.864   0.195   1.110 -2.2264 -1.2850  0.2822
  794SOL     OW 2380   0.377   0.173   2.265  0.3202  0.1887  0.7222
  794SOL    HW1 2381   0.473   0.152   2.242 -1.1233 -0.6777 -0.1756
  794SOL    HW2 2382   0.325   0.169   2.177  0.2973  0.1172  1.4061
  795SOL     OW 2383   0.481   1.482   0.361 -0.0832  0.5397 -0.6419
  795SOL    HW1 2384   0.408   1.464   0.429 -1.7880 -1.1292 -0.6747
  795SOL    HW2 2385   0.449   1.513   0.275 -2.0061 -0.1745  0.1997
  796SOL     OW 2386   3.088   1.078   2.951  0.7821 -0.3659  0.2123
  796SOL    HW1 2387   3.062   0.986   2.984 -1.0209 -2.7189 -1.5723
  796SOL    HW2 2388   3.004   1.135   2.944 -0.3306 -2.2771  0.2691
  797SOL     OW 2389   2.174   0.082   2.406 -0.4667 -0.4082 -0.6496
  797SOL    HW1 2390   2.171   3.106   2.373  1.4077  0.6008 -1.5677
  797SOL    HW2 2391   2.169   0.150   2.335 -0.7991 -2.7305  0.4678
  798SOL     OW 2392   0.139   2.904   1.093 -0.5767  0.3807  0.1223
  798SOL    HW1 2393   0.115   2.872   0.997 -1.1549 -1.1908 -0.7700
  798SOL    HW2 2394   0.067   2.869   1.158 -2.3351 -0.3353  0.5998
  799SOL     OW 2395   2.965   0.834   1.788 -0.3564  0.0895 -0.1967
  799SOL    HW1 2396   2.984   0.793   1.698  0.2113 -2.1292  2.9787
  799SOL    HW2 2397   2.865   0.849   1.791  0.0781 -0.8003 -2.2307
  800SOL     OW 2398   0.227   1.286   0.240 -1.0911 -0.4347 -0.1024
  800SOL    HW1 2399   0.200   1.385   0.263 -1.1937  1.8906 -1.7352
  800SOL    HW2 2400   0.311   1.288   0.179  3.7464 -0.5367 -0.8268
  801SOL     OW 2401   2.016   1.636   0.373  0.1438  0.0345  0.3681
  801SOL    HW1 2402   2.080   1.560   0.358 -3.2400  0.3899  3.1586
  801SOL    HW2 2403   1.946   1.612   0.442 -1.9972 -2.4021 -3.4372
  802SOL     OW 2404   1.404   1.021   2.756 -0.3315 -0.2008 -0.6060
  802SOL    HW1 2405   1.358   1.067   2.680  0.4877 -1.2121 -0.3533
  802SOL    HW2 2406   1.431   0.924   2.747  0.1930  0.0576  3.3713
  803SOL     OW 2407   1.117   2.001   1.782  0.0297  0.2779 -0.4170
  803SOL    HW1 2408   1.129   2.093   1.735  1.5786 -0.7274 -1.4761
  803SOL    HW2 2409   1.202   1.966   1.825 -0.9877 -0.2725 -1.3191
  804SOL     OW 2410   1.563   2.399   0.885 -0.0839 -0.8468  0.2447
  804SOL    HW1 2411   1.636   2.326   0.870 -0.5947  0.2863 -0.9794
  804SOL    HW2 2412   1.478   2.390   0.830 -1.4636 -0.1677 -0.4174
  805SOL     OW 2413   2.815   2.407   2.473 -0.5138  0.0416 -0.2145
  805SOL    HW1 2414   2.915   2.394   2.492  0.3633  0.3442 -0.2553
  805SOL    HW2 2415   2.797   2.504   2.452  0.8540 -0.2909 -1.0469
  806SOL     OW 2416   3.064   0.042   0.426  0.1294 -0.3819 -0.0018
  806SOL    HW1 2417   3.020   0.047   0.515  0.8937  0.5256 -1.2397
  806SOL    HW2 2418   0.018   3.099   0.423  1.0142  0.5048  2.4673
  807SOL     OW 2419   2.431   0.790   2.857 -1.1757  0.1543  0.0254
  807SOL    HW1 2420   2.474   0.740   2.779 -2.5783  0.9293 -2.4212
  807SOL    HW2 2421   2.413   0.729   2.942  3.0047 -1.9593  1.8174
  808SOL     OW 2422   1.253   2.390   0.746  0.3759 -0.9726 -0.2757
  808SOL    HW1 2423   1.325   2.329   0.707  0.0869  0.4836  1.4924
  808SOL    HW2 2424   1.187   2.325   0.793  1.9149 -2.5096 -1.4522
  809SOL     OW 2425   2.826   0.256   2.669 -0.2775 -0.0652 -0.0417
  809SOL    HW1 2426   2.823   0.157   2.646 -0.1982 -1.9546  0.4640
  809SOL    HW2 2427   2.801   0.316   2.590 -1.2553 -1.3423 -0.1886
  810SOL     OW 2428   1.683   0.961   0.811 -0.2551  1.0576 -0.1946
  810SOL    HW1 2429   1.602   1.020   0.790  0.3899 -0.7413  0.2239
  810SOL    HW2 2430   1.712   0.973   0.906  0.3406 -2.8144  1.5326
  811SOL     OW 2431   1.889   2.965   1.625  0.1622 -0.0722 -0.4531
  811SOL    HW1 2432   1.831   2.998   1.545 -1.9477  1.2225 -2.1316
  811SOL    HW2 2433   1.878   2.861   1.637 -2.3532 -1.8996  0.7967
  812SOL     OW 2434   1.632   2.733   0.383 -0.0781 -0.0462  0.5991
  812SOL    HW1 2435   1.639   2.663   0.454 -1.7435 -0.8179 -0.2955
  812SOL    HW2 2436   1.556   2.701   0.316  1.8891 -1.4489 -1.9911
  813SOL     OW 2437   1.297   0.562   2.019 -0.1133  0.2482 -0.0194
  813SOL    HW1 2438   1.206   0.600   2.030  3.8589  0.0251 -0.0086
  813SOL    HW2 2439   1.293   0.463   2.036  1.6357  3.5597 -0.4471
  814SOL     OW 2440   0.313   3.105   1.124 -0.4826  0.1592  0.0236
  814SOL    HW1 2441   0.242   3.029   1.117  0.0154  0.9019  0.8829
  814SOL    HW2 2442   0.390   3.081   1.187 -1.4640  3.1917 -1.2175
  815SOL     OW 2443   0.223   2.897   0.576  0.8922  0.1107 -0.2461
  815SOL    HW1 2444   0.211   2.813   0.636  0.0510 -2.4154  2.6451
  815SOL    HW2 2445   0.309   2.946   0.601 -0.6368  1.5801 -2.1245
  816SOL     OW 2446   2.685   1.596   2.729 -0.0392 -0.2587  0.1283
  816SOL    HW1 2447   2.587   1.624   2.742  2.3404  1.2024 -0.5386
  816SOL    HW2 2448   2.724   1.656   2.654 -2.6000 -0.5319  2.5239
  817SOL     OW 2449   1.229   0.046   3.088  0.4252  0.1686  0.1116
  817SOL    HW1 2450   1.307   0.113   3.083  1.6869  1.2926 -1.0988
  817SOL    HW2 2451   1.237   3.094   3.017  2.0333 -1.6382 -1.4225
  818SOL     OW 2452   1.781   0.708   3.100 -0.2502 -0.2532 -0.6957
  818SOL    HW1 2453   1.811   0.764   0.060  2.1465  1.8571  0.4656
  818SOL    HW2 2454   1.766   0.609   0.008  0.6049  0.5994 -2.5272
  819SOL     OW 2455   1.843   2.737   3.014 -0.5914 -0.7551  0.2100
  819SOL    HW1 2456   1.793   2.684   2.946  1.7599  1.7486 -1.6213
  819SOL    HW2 2457   1.792   2.820   3.040 -0.7169  1.6890  1.9249
  820SOL     OW 2458   1.509   1.076   0.094 -0.1946  0.0854  0.0908
  820SOL    HW1 2459   1.523   0.989   0.046 -1.4268  0.7070  2.7426
  820SOL    HW2 2460   1.590   1.098   0.144 -0.0862  0.6570 -0.9870
  821SOL     OW 2461   0.315   0.615   1.443 -0.1275 -0.6701 -0.3200
  821SOL    HW1 2462   0.322   0.717   1.432  0.0926  0.6005 -1.6753
  821SOL    HW2 2463   0.292   0.576   1.351  0.2032  1.2751  0.1133
  822SOL     OW 2464   1.271   2.584   2.236 -0.2322 -0.1932 -0.8328
  822SOL    HW1 2465   1.329   2.629   2.168 -2.3748 -2.8780  0.0406
  822SOL    HW2 2466   1.264   2.485   2.212 -0.9203 -1.8451  5.2691
  823SOL     OW 2467   0.458   1.470   2.019 -0.0625  0.5151 -0.5067
  823SOL    HW1 2468   0.400   1.513   2.094  0.5206 -1.7743  0.2202
  823SOL    HW2 2469   0.537   1.418   2.061  5.2928 -0.4674 -1.1853
  824SOL     OW 2470   1.922   3.069   1.904 -0.4164  0.2219 -0.1730
  824SOL    HW1 2471   1.907   3.067   1.805 -0.9848  1.0374 -0.9747
  824SOL    HW2 2472   1.847   3.114   1.956  1.3348 -0.7133  3.6301
  825SOL     OW 2473   0.721   1.414   0.115  0.3071  0.1307  0.4684
  825SOL    HW1 2474   0.789   1.488   0.109 -1.2362 -0.7376 -0.2832
  825SOL    HW2 2475   0.765   1.326   0.087 -1.5410  0.7447 -1.2082
  826SOL     OW 2476   2.075   0.533   2.676 -0.4534 -0.1526  1.0561
  826SOL    HW1 2477   2.117   0.498   2.764 -1.0211 -1.1269  2.4328
  826SOL    HW2 2478   2.023   0.457   2.634  1.2874 -1.5727  2.1692
  827SOL     OW 2479   0.484   2.193   2.901  0.0557 -0.0858 -0.1669
  827SOL    HW1 2480   0.510   2.276   2.843  0.6941  0.7965  0.8330
  827SOL    HW2 2481   0.396   2.153   2.867  1.3702 -0.2798 -1.0257
  828SOL     OW 2482   3.052   0.005   1.292  0.4656  0.9098  0.3276
  828SOL    HW1 2483   3.119   3.078   1.236  5.7963 -0.5797  3.5557
  828SOL    HW2 2484   2.987   0.053   1.232 -0.8293  0.3199 -1.0045
  829SOL     OW 2485   1.217   1.420   1.278 -0.0490  0.0487  0.0792
  829SOL    HW1 2486   1.230   1.482   1.357  2.7656  1.9771  0.4454
  829SOL    HW2 2487   1.161   1.464   1.206  2.5481 -0.2153  0.5537
  830SOL     OW 2488   0.413   1.246   1.526 -0.3105 -0.2765 -0.5481
  830SOL    HW1 2489   0.314   1.276   1.530  2.0319 -1.8248 -1.7766
  830SOL    HW2 2490   0.447   1.252   1.430  0.7504  1.0412  2.4109
  831SOL     OW 2491   0.567   1.818   0.188  0.3931  0.6384  0.4672
  831SOL    HW1 2492   0.497   1.801   0.115  1.6503  1.3757  0.2385
  831SOL    HW2 2493   0.569   1.920   0.202 -1.6474  1.8537  0.2154
  832SOL     OW 2494   0.760   3.021   2.614  0.2423 -0.1064 -0.1557
  832SOL    HW1 2495   0.788   3.030   2.713  2.1592  0.6579  1.3636
  832SOL    HW2 2496   0.686   3.088   2.588  0.2600 -1.6285 -2.9375
  833SOL     OW 2497   0.131   0.583   2.022  0.1695 -0.6410 -0.1565
  833SOL    HW1 2498   0.122   0.495   2.061  1.1088  3.7135  0.9697
  833SOL    HW2 2499   0.058   0.645   2.056  0.2324  0.9418  0.5117
  834SOL     OW 2500   0.142   0.665   1.041  0.4630  0.3785  0.2377
  834SOL    HW1 2501   0.205   0.739   1.002 -0.0930  1.8465 -2.4156
  834SOL    HW2 2502   0.101   0.604   0.970 -0.1426 -1.9105  0.0698
  835SOL     OW 2503   2.844   2.891   1.141 -0.2989  0.4337 -0.0685
  835SOL    HW1 2504   2.848   2.939   1.053 -1.2503  1.9057  1.5110
  835SOL    HW2 2505   2.784   2.950   1.202 -1.3158 -0.9180 -0.0377
  836SOL     OW 2506   0.603   2.028   3.080  0.1496  0.6715 -0.3167
  836SOL    HW1 2507   0.631   2.073   0.048 -0.1917  2.3758  0.4832
  836SOL    HW2 2508   0.545   2.095   3.033 -2.0275  1.5493 -0.0300
  837SOL     OW 2509   1.925   2.178   0.131  0.4638  0.4697 -0.0037
  837SOL    HW1 2510   1.915   2.215   0.036  0.9791 -0.6733  0.5448
  837SOL    HW2 2511   2.021   2.163   0.155 -1.7570 -1.2701 -2.9718
  838SOL     OW 2512   2.653   1.256   1.981  0.0405 -0.4339  0.3969
  838SOL    HW1 2513   2.608   1.234   2.068  1.5679  0.2729 -2.2639
  838SOL    HW2 2514   2.728   1.199   1.948 -0.0538  2.2738  1.6635
  839SOL     OW 2515   1.217   1.001   0.591  0.0135 -0.1840 -0.2043
  839SOL    HW1 2516   1.134   0.949   0.615  0.3658  0.4072  1.5397
  839SOL    HW2 2517   1.197   1.098   0.574  0.9123 -0.8114  1.6084
  840SOL     OW 2518   1.892   0.653   0.925 -0.1081 -0.2511  0.7054
  840SOL    HW1 2519   1.918   0.642   0.828 -3.0782 -4.0264 -1.5763
  840SOL    HW2 2520   1.803   0.602   0.945 -2.4408  0.9405  1.5728
  841SOL     OW 2521   0.494   2.833   0.780  0.2859  0.6300  0.0002
  841SOL    HW1 2522   0.457   2.925   0.785 -0.6287 -2.6795  1.4148
  841SOL    HW2 2523   0.424   2.762   0.775  1.0771  0.0143  1.2100
  842SOL     OW 2524   0.521   0.524   0.568  0.1766 -0.2025  0.0073
  842SOL    HW1 2525   0.440   0.488   0.624 -1.0866  0.4352  1.2910
  842SOL    HW2 2526   0.500   0.500   0.474 -0.0480  0.7318  1.0138
  843SOL     OW 2527   0.529   0.746   1.781 -0.6643 -0.1159 -0.3560
  843SOL    HW1 2528   0.499   0.833   1.739 -1.5937 -2.1107  1.2131
  843SOL    HW2 2529   0.478   0.731   1.866 -1.0176 -0.5249 -1.1713
  844SOL     OW 2530   1.468   2.503   3.079 -0.2547 -0.0591 -0.0515
  844SOL    HW1 2531   1.496   2.534   2.989 -1.1776  0.2205  1.5777
  844SOL    HW2 2532   1.385   2.449   3.063  1.6194  0.3711  0.6920
  845SOL     OW 2533   2.759   2.649   2.367  0.0489 -0.0114 -0.3754
  845SOL    HW1 2534   2.858   2.677   2.378  1.9859  2.3562 -1.5637
  845SOL    HW2 2535   2.724   2.679   2.279  0.3784 -0.3511  0.1882
  846SOL     OW 2536   1.588   1.955   2.739  0.1271  0.2451  0.4456
  846SOL    HW1 2537   1.530   2.012   2.805  0.0661  0.7795 -0.1893
  846SOL    HW2 2538   1.618   1.870   2.788 -0.5967  1.0620  0.2251
  847SOL     OW 2539   2.165   2.947   2.346 -0.2773  0.0539  0.3628
  847SOL    HW1 2540   2.239   2.882   2.370 -1.2355  1.1984 -2.2666
  847SOL    HW2 2541   2.137   2.920   2.249  0.3761 -0.3188 -0.5750
  848SOL     OW 2542   0.660   0.278   0.396  0.3130  0.0068 -0.4541
  848SOL    HW1 2543   0.579   0.342   0.400 -0.2302 -2.6838  3.1078
  848SOL    HW2 2544   0.743   0.331   0.366  1.9671  0.1603  0.9870
  849SOL     OW 2545   0.707   2.861   1.314  0.1837  0.3705 -0.1933
  849SOL    HW1 2546   0.772   2.826   1.245 -0.6426 -1.8846  1.2224
  849SOL    HW2 2547   0.744   2.940   1.368 -1.6430  0.2710  1.1081
  850SOL     OW 2548   0.033   1.486   0.380  0.5578 -0.4344  1.2755
  850SOL    HW1 2549   0.035   1.543   0.296 -0.3550  0.1703 -0.9797
  850SOL    HW2 2550   3.074   1.526   0.431  1.6396 -0.4637 -0.4095
  851SOL     OW 2551   0.202   0.711   3.053 -0.0979 -0.1367 -0.4201
  851SOL    HW1 2552   0.245   0.799   3.076 -1.2141  1.0874  0.6487
  851SOL    HW2 2553   0.198   0.698   2.953  0.1765 -0.3133 -1.0364
  852SOL     OW 2554   1.598   1.868   2.080 -0.5020  0.1584 -0.6373
  852SOL    HW1 2555   1.663   1.883   2.002  0.4816 -1.0108 -1.4406
  852SOL    HW2 2556   1.503   1.893   2.059 -0.0591 -1.6121 -1.9735
  853SOL     OW 2557   0.511   1.841   0.494 -0.1455  0.7174  0.0079
  853SOL    HW1 2558   0.524   1.842   0.393 -2.7737  1.7560 -0.3554
  853SOL    HW2 2559   0.437   1.907   0.518 -0.0307 -2.9861 -0.6729
  854SOL     OW 2560   1.908   1.162   1.404  0.6244  0.1835 -0.3251
  854SOL    HW1 2561   1.872   1.071   1.442 -1.9846 -3.5528  0.9278
  854SOL    HW2 2562   2.004   1.160   1.376  2.3909  1.6369 -0.5565
  855SOL     OW 2563   0.589   2.127   0.205  0.3222 -0.0281 -0.2696
  855SOL    HW1 2564   0.497   2.163   0.170 -1.0226  0.4298 -0.1799
  855SOL    HW2 2565   0.624   2.194   0.267 -1.5264 -0.0114 -3.1649
  856SOL     OW 2566   2.976   3.080   1.970  0.1981 -0.1171  0.4022
  856SOL    HW1 2567   2.980   0.050   2.017  0.2960  1.8267  0.4323
  856SOL    HW2 2568   3.033   3.086   1.886 -0.7975  0.0534 -0.7404
  857SOL     OW 2569   0.366   0.305   1.856 -0.5462  0.6100 -0.0454
  857SOL    HW1 2570   0.279   0.328   1.814  0.7919 -0.0028  0.6498
  857SOL    HW2 2571   0.429   0.275   1.778  2.5796 -0.9055 -4.9084
  858SOL     OW 2572   2.669   2.035   2.372 -0.0418 -0.3385 -0.5577
  858SOL    HW1 2573   2.642   1.936   2.398  1.2800 -3.8977 -0.8661
  858SOL    HW2 2574   2.759   2.058   2.415  1.4949  0.9409  0.1071
  859SOL     OW 2575   2.015   2.923   0.614 -0.4726 -0.3384  0.1759
  859SOL    HW1 2576   1.929   2.917   0.677  0.0323 -0.2571 -0.0981
  859SOL    HW2 2577   2.060   2.833   0.600 -0.5134 -4.2278  0.4679
  860SOL     OW 2578   1.954   0.263   0.129 -0.6031  0.0938  0.4578
  860SOL    HW1 2579   2.008   0.234   0.047  1.3502 -1.4045 -1.0262
  860SOL    HW2 2580   1.873   0.317   0.094 -0.0436  0.8310  1.4822
  861SOL     OW 2581   0.316   0.443   0.790  0.0397  0.1665  0.3708
  861SOL    HW1 2582   0.217   0.472   0.790  0.6097 -1.1518  2.7367
  861SOL    HW2 2583   0.361   0.461   0.877 -0.4224  0.5577  0.5522
  862SOL     OW 2584   1.957   0.428   1.615  0.1004  0.2892  0.3338
  862SOL    HW1 2585   1.938   0.329   1.636  2.6891  1.4218 -1.1517
  862SOL    HW2 2586   2.022   0.437   1.535  2.5859  1.5070  0.3964
  863SOL     OW 2587   0.323   1.485   1.043  0.0491  0.9044 -0.2766
  863SOL    HW1 2588   0.249   1.533   0.996  0.7989  1.5168  0.0480
  863SOL    HW2 2589   0.406   1.465   0.989  1.9510  2.0294  0.9361
  864SOL     OW 2590   2.698   3.091   2.022  0.3046 -0.1828 -0.1019
  864SOL    HW1 2591   2.792   3.097   1.981 -0.4582  0.6925 -0.2792
  864SOL    HW2 2592   2.667   2.995   2.025  0.0169  0.0190 -3.1697
  865SOL     OW 2593   1.424   0.521   1.486  0.4429  0.2468  0.2651
  865SOL    HW1 2594   1.491   0.558   1.547 -0.9276  0.4057 -1.0768
  865SOL    HW2 2595   1.410   0.424   1.516 -1.6570  1.1537 -1.5976
  866SOL     OW 2596   2.537   2.767   0.779 -0.2720 -0.1114 -0.1488
  866SOL    HW1 2597   2.563   2.828   0.853 -1.4521 -1.2482 -1.5739
  866SOL    HW2 2598   2.518   2.672   0.811 -0.1472  1.2646 -1.4705
  867SOL     OW 2599   2.774   2.606   0.624 -0.6499 -0.5463 -0.2293
  867SOL    HW1 2600   2.743   2.585   0.717  3.5368  0.6895 -0.2967
  867SOL    HW2 2601   2.791   2.708   0.616  1.3462 -0.2742 -1.6532
  868SOL     OW 2602   1.369   1.855   2.608 -0.7040 -0.2816 -0.1436
  868SOL    HW1 2603   1.366   1.847   2.509 -2.4284  1.5367  6.2100
  868SOL    HW2 2604   1.463   1.858   2.641  1.3153 -1.8589  0.2830
  869SOL     OW 2605   2.269   1.360   0.595  0.0770  0.2455 -0.0857
  869SOL    HW1 2606   2.262   1.318   0.501  0.5912 -1.7232 -0.0216
  869SOL    HW2 2607   2.183   1.354   0.647  0.6934 -0.8277 -0.6925
  870SOL     OW 2608   2.468   1.744   0.420  0.0679 -0.0561  0.0652
  870SOL    HW1 2609   2.373   1.765   0.411  2.7555  0.0935 -0.8830
  870SOL    HW2 2610   2.513   1.725   0.331  0.9140 -0.3517 -0.6330
  871SOL     OW 2611   3.063   0.696   1.553  0.1573 -0.3620 -0.4643
  871SOL    HW1 2612   3.079   0.767   1.483  0.4153  1.0674 -0.6872
  871SOL    HW2 2613   0.015   0.692   1.625 -0.2477  0.8167  2.0559
  872SOL     OW 2614   0.480   1.798   2.764 -0.0250  0.8068  0.0775
  872SOL    HW1 2615   0.571   1.769   2.802 -0.4550 -0.4475 -0.4923
  872SOL    HW2 2616   0.408   1.723   2.779 -2.7138 -2.0441  2.6602
  873SOL     OW 2617   0.496   2.640   1.779 -0.2254 -0.1703 -0.7314
  873SOL    HW1 2618   0.586   2.671   1.813 -0.3290 -1.6570 -0.2127
  873SOL    HW2 2619   0.486   2.689   1.690 -1.7316  0.3854  1.7833
  874SOL     OW 2620   1.198   0.967   2.094 -0.6182  0.0885 -0.5738
  874SOL    HW1 2621   1.206   1.017   2.180  0.7616 -1.0415  1.9193
  874SOL    HW2 2622   1.270   0.897   2.095  1.0364  3.8525 -1.5419
  875SOL     OW 2623   3.092   2.797   1.287  0.0067 -0.2047  0.4096
  875SOL    HW1 2624   3.112   2.727   1.362  0.6407 -2.2134  0.4522
  875SOL    HW2 2625   3.004   2.843   1.295 -0.5269 -0.9379 -0.2190
  876SOL     OW 2626   1.010   1.366   0.846 -0.6654 -0.7643  0.9791
  876SOL    HW1 2627   0.961   1.279   0.867  1.1920 -0.9179  0.6652
  876SOL    HW2 2628   0.969   1.413   0.763 -3.7175  1.8669 -4.1463
  877SOL     OW 2629   0.619   0.513   1.335  0.0087  0.4052  0.1840
  877SOL    HW1 2630   0.566   0.510   1.420 -1.9292  1.4981 -0.4390
  877SOL    HW2 2631   0.619   0.421   1.289  0.6200 -0.0275  1.1898
  878SOL     OW 2632   2.663   1.888   2.993 -0.2127 -0.2242  0.4505
  878SOL    HW1 2633   2.733   1.829   2.950  1.1513  1.9070  0.1148
  878SOL    HW2 2634   2.576   1.902   2.939 -1.0217  2.8127 -2.4190
  879SOL     OW 2635   2.320   1.927   1.297 -0.2504 -0.1006  0.4450
  879SOL    HW1 2636   2.316   1.996   1.373  0.6601  0.4764  3.8989
  879SOL    HW2 2637   2.328   1.973   1.210 -0.2260 -4.2782  0.3281
  880SOL     OW 2638   0.909   2.478   1.304 -0.1144 -0.4018 -0.3846
  880SOL    HW1 2639   0.983   2.472   1.375 -1.1070  1.3749  0.4692
  880SOL    HW2 2640   0.956   2.481   1.213  0.5078 -0.1228  5.2552
  881SOL     OW 2641   1.239   2.005   0.938  0.0835  0.2008  0.6871
  881SOL    HW1 2642   1.220   2.005   0.838 -0.6362 -1.0116  3.1433
  881SOL    HW2 2643   1.213   1.912   0.972  0.6745 -1.0905  3.5133
  882SOL     OW 2644   2.034   1.711   2.514  0.3283 -0.7409  0.2897
  882SOL    HW1 2645   2.086   1.647   2.575 -1.0632 -0.7037  1.2117
  882SOL    HW2 2646   2.094   1.757   2.438  4.1337 -0.1176 -3.6137
  883SOL     OW 2647   1.299   0.497   1.040  0.3820  0.8535 -0.3114
  883SOL    HW1 2648   1.356   0.542   0.965  2.9558 -0.2905 -1.2093
  883SOL    HW2 2649   1.335   0.402   1.050  1.8085 -0.0259 -0.6971
  884SOL     OW 2650   0.009   2.850   0.857 -0.1227  0.1122 -0.1041
  884SOL    HW1 2651   3.097   2.848   0.758  0.4918  1.0737 -1.7103
  884SOL    HW2 2652   0.048   2.762   0.887 -0.4804  0.2544  1.0025
  885SOL     OW 2653   0.975   1.043   1.909  0.5970  0.5060 -0.3012
  885SOL    HW1 2654   1.013   1.038   1.815  0.3156  0.7551 -2.4650
  885SOL    HW2 2655   1.048   1.009   1.978  1.7238 -0.5515  2.3305
  886SOL     OW 2656   1.143   0.997   2.965 -0.8339 -0.3160 -0.3089
  886SOL    HW1 2657   1.075   1.008   2.887 -0.6250 -1.1070 -1.7401
  886SOL    HW2 2658   1.222   1.062   2.959  0.1405 -1.1260 -0.0702
  887SOL     OW 2659   1.495   0.121   0.856 -0.1370  0.1586  0.0422
  887SOL    HW1 2660   1.518   0.217   0.833  1.0637 -0.7196  0.0521
  887SOL    HW2 2661   1.580   0.070   0.893 -2.0841 -0.9034  2.3254
  888SOL     OW 2662   2.419   1.205   1.842  0.4265  0.0808  0.0744
  888SOL    HW1 2663   2.370   1.117   1.854 -0.2806 -1.9702  2.6795
  888SOL    HW2 2664   2.505   1.204   1.894  0.9314 -0.5420  0.6116
  889SOL     OW 2665   0.137   2.207   1.027 -0.2353 -0.0986  0.1826
  889SOL    HW1 2666   0.224   2.234   1.070 -1.7558 -1.2751 -1.2105
  889SOL    HW2 2667   0.047   2.223   1.074 -1.6079 -2.6423 -0.1350
  890SOL     OW 2668   1.221   2.268   0.404 -0.3006  0.1479  0.8147
  890SOL    HW1 2669   1.300   2.320   0.431 -1.6105 -2.7501 -0.6791
  890SOL    HW2 2670   1.142   2.328   0.375 -0.3960 -0.0531 -0.7257
  891SOL     OW 2671   2.849   0.630   2.292 -0.3461 -0.1815  0.5196
  891SOL    HW1 2672   2.859   0.622   2.190 -0.1415 -0.6182  0.4467
  891SOL    HW2 2673   2.934   0.669   2.332  1.1944 -1.6214 -0.7832
  892SOL     OW 2674   0.122   2.536   1.725 -1.1178  0.3430 -0.3981
  892SOL    HW1 2675   0.201   2.476   1.707 -1.0022  2.0053  0.0450
  892SOL    HW2 2676   0.061   2.490   1.793  0.8568 -0.8806 -1.4202
  893SOL     OW 2677   1.117   0.328   1.513 -0.3660 -0.2353  0.0053
  893SOL    HW1 2678   1.163   0.264   1.446  0.2772 -0.6316  2.3823
  893SOL    HW2 2679   1.110   0.287   1.607  1.2934  1.2445  0.0818
  894SOL     OW 2680   2.772   3.084   0.951  0.2578 -0.0488 -0.0432
  894SOL    HW1 2681   2.841   0.028   0.984 -2.1993 -1.6838 -0.8880
  894SOL    HW2 2682   2.687   0.006   0.921  0.5103  0.2707  2.5926
  895SOL     OW 2683   1.844   1.937   2.545  0.5768  0.6719  0.2597
  895SOL    HW1 2684   1.898   1.853   2.544 -1.5001 -0.2512 -0.1068
  895SOL    HW2 2685   1.760   1.921   2.601 -0.2180  2.7054 -3.0010
  896SOL     OW 2686   1.795   0.469   1.274 -0.0551  0.7107 -0.5168
  896SOL    HW1 2687   1.733   0.539   1.322  0.2875  0.3489  0.8349
  896SOL    HW2 2688   1.890   0.477   1.309 -0.4070 -0.4730 -0.0088
  897SOL     OW 2689   0.545   1.594   1.772  0.3140  0.6388 -0.3401
  897SOL    HW1 2690   0.646   1.594   1.766 -1.0440 -0.9271 -0.3939
  897SOL    HW2 2691   0.516   1.556   1.863  0.9730  0.9425 -0.1170
  898SOL     OW 2692   1.893   2.213   2.204 -0.3157  0.2364 -0.1083
  898SOL    HW1 2693   1.978   2.158   2.208  1.1813  2.0966 -0.1476
  898SOL    HW2 2694   1.921   2.314   2.218  2.9863  4.4216  0.9610
  899SOL     OW 2695   1.583   2.002   0.710 -0.4942  0.2462 -0.0296
  899SOL    HW1 2696   1.600   1.908   0.753  0.6367  0.5949 -1.8481
  899SOL    HW2 2697   1.592   1.997   0.605  2.7856  0.3602 -2.2214
  900SOL     OW 2698   0.875   0.031   2.289 -0.0397 -0.0877  0.2085
  900SOL    HW1 2699   0.904   3.077   2.354  1.3379 -0.6617 -2.1724
  900SOL    HW2 2700   0.933   0.034   2.210  0.2893  1.3778 -1.1528
  901SOL     OW 2701   1.134   1.532   2.094 -0.1756 -0.4555  0.1869
  901SOL    HW1 2702   1.061   1.509   2.029  2.3050  0.0048  1.6260
  901SOL    HW2 2703   1.136   1.457   2.163 -0.7225 -0.3133 -0.7248
  902SOL     OW 2704   2.107   0.634   3.029  0.0437 -0.7562  0.4019
  902SOL    HW1 2705   2.044   0.699   2.987  0.3780 -2.1423  2.3549
  902SOL    HW2 2706   2.100   0.641   0.012 -0.2842 -0.7438 -0.9091
  903SOL     OW 2707   1.794   1.050   2.440 -0.0055 -0.2985  0.4637
  903SOL    HW1 2708   1.745   1.135   2.459 -0.2301  0.4124  0.7883
  903SOL    HW2 2709   1.801   1.033   2.339 -2.4296 -1.1790  0.4286
  904SOL     OW 2710   1.960   1.016   1.915  0.2705 -0.0867  0.5085
  904SOL    HW1 2711   1.985   0.915   1.916 -1.1785 -1.2670 -0.6888
  904SOL    HW2 2712   1.903   1.038   1.833 -1.0495  0.3549 -1.8814
  905SOL     OW 2713   2.489   0.313   0.913 -0.4546 -0.5900 -0.0336
  905SOL    HW1 2714   2.493   0.413   0.909 -1.7876 -1.2830 -2.5188
  905SOL    HW2 2715   2.465   0.282   1.008  0.5263 -1.3399 -1.6688
  906SOL     OW 2716   2.729   1.460   0.634 -0.1726 -0.2307  0.1989
  906SOL    HW1 2717   2.732   1.440   0.734  0.3613  3.4788  1.8468
  906SOL    HW2 2718   2.637   1.498   0.618  1.5012 -2.3983  1.0045
  907SOL     OW 2719   1.128   0.373   0.698 -0.0313 -0.1120 -0.1936
  907SOL    HW1 2720   1.196   0.441   0.663  1.5625  0.2732 -2.4778
  907SOL    HW2 2721   1.148   0.353   0.798  0.6957  0.0483  0.9545
  908SOL     OW 2722   1.388   2.704   1.940  0.6119  0.3968  0.1403
  908SOL    HW1 2723   1.463   2.668   2.002  2.2121  0.4044  0.0894
  908SOL    HW2 2724   1.432   2.752   1.864  0.5262 -0.1835  1.4979
  909SOL     OW 2725   2.689   0.854   1.790 -0.3725  0.2085 -0.2317
  909SOL    HW1 2726   2.610   0.795   1.817 -2.4397 -0.4392 -4.2243
  909SOL    HW2 2727   2.650   0.934   1.745 -0.1319 -2.6545  0.5900
  910SOL     OW 2728   1.267   0.163   2.324 -0.2357  0.0786 -0.3318
  910SOL    HW1 2729   1.212   0.132   2.245  0.0811 -0.7275  2.3044
  910SOL    HW2 2730   1.221   0.141   2.410  1.1578  0.0637  0.4233
  911SOL     OW 2731   2.162   1.267   2.560 -0.3287  0.1777 -0.4437
  911SOL    HW1 2732   2.247   1.274   2.620  0.5891  1.6823  0.8591
  911SOL    HW2 2733   2.085   1.222   2.609  1.5849  3.4018 -0.2869
  912SOL     OW 2734   2.654   2.234   1.288 -0.2050 -0.0572  0.0532
  912SOL    HW1 2735   2.643   2.174   1.366 -1.0187  0.9431 -0.5800
  912SOL    HW2 2736   2.710   2.319   1.314  1.3157  0.7032  1.9464
  913SOL     OW 2737   2.576   2.174   1.755  0.0507 -0.5045  0.3788
  913SOL    HW1 2738   2.614   2.217   1.837 -1.6161 -2.1209  0.4644
  913SOL    HW2 2739   2.519   2.095   1.784 -0.9684  0.8183  0.7611
  914SOL     OW 2740   2.024   1.917   0.653 -0.1126 -0.1261 -0.5273
  914SOL    HW1 2741   2.026   1.890   0.555 -0.5360  1.3054 -1.5964
  914SOL    HW2 2742   2.012   1.833   0.712 -0.8681 -3.0525  0.0277
  915SOL     OW 2743   0.965   2.507   2.072 -0.8255  0.1196 -0.3477
  915SOL    HW1 2744   0.880   2.477   2.020 -1.0561 -1.7152 -1.3618
  915SOL    HW2 2745   0.954   2.598   2.120 -1.5091 -1.3271  0.4629
  916SOL     OW 2746   0.282   2.356   0.849 -0.8676 -0.0808 -0.2519
  916SOL    HW1 2747   0.365   2.320   0.804  2.1254  0.0775  0.8231
  916SOL    HW2 2748   0.243   2.282   0.906 -0.7964 -0.1278 -1.3805
  917SOL     OW 2749   2.660   0.979   2.942 -0.1130 -0.1587 -0.0466
  917SOL    HW1 2750   2.570   0.934   2.931 -2.3244 -0.2363 -0.8654
  917SOL    HW2 2751   2.709   0.966   2.854 -1.0090 -0.7138  3.1449
  918SOL     OW 2752   1.630   2.132   2.290 -0.4089  0.4905  0.4616
  918SOL    HW1 2753   1.724   2.175   2.292  4.1156 -0.1845  3.6222
  918SOL    HW2 2754   1.576   2.163   2.373 -4.4630  0.6538  2.7306
  919SOL     OW 2755   1.748   2.193   0.830  0.4310 -0.0466 -0.1250
  919SOL    HW1 2756   1.688   2.119   0.793 -0.2861  0.9873  1.7332
  919SOL    HW2 2757   1.826   2.210   0.763  0.1971  0.4571 -1.4239
  920SOL     OW 2758   1.381   0.387   2.433 -0.0525  0.1942 -0.2735
  920SOL    HW1 2759   1.325   0.304   2.410 -0.1684  1.0069 -1.3768
  920SOL    HW2 2760   1.328   0.472   2.452  0.4701 -0.6217  1.2994
  921SOL     OW 2761   0.184   0.617   2.797 -0.2543 -0.5264  0.4825
  921SOL    HW1 2762   0.219   0.699   2.750  0.0508  1.9140  0.3884
  921SOL    HW2 2763   0.195   0.536   2.737  0.5368 -0.8243  0.1572
  922SOL     OW 2764   2.807   1.845   1.520 -0.3675 -0.1152  0.6245
  922SOL    HW1 2765   2.884   1.858   1.456  0.4586  0.7485 -0.0651
  922SOL    HW2 2766   2.722   1.905   1.503 -2.4373  0.3454 -1.0433
  923SOL     OW 2767   0.095   1.902   2.525  0.2960 -0.0587 -0.0679
  923SOL    HW1 2768   0.009   1.928   2.572 -1.9282  1.1111  0.4710
  923SOL    HW2 2769   0.179   1.930   2.579 -1.2878 -0.4136 -2.4043
  924SOL     OW 2770   1.739   0.525   2.081  0.2004 -0.0112 -0.2175
  924SOL    HW1 2771   1.697   0.464   2.153 -3.0346 -0.8470 -0.3194
  924SOL    HW2 2772   1.793   0.601   2.119  1.3104 -0.4675 -0.4569
  925SOL     OW 2773   0.083   1.065   0.197 -0.1960  0.1338 -0.2614
  925SOL    HW1 2774   3.104   1.079   0.199  2.6038  0.3909  0.7502
  925SOL    HW2 2775   0.124   1.151   0.235 -3.8102  0.3228  1.6780
  926SOL     OW 2776   2.464   0.175   1.147  0.1238  0.5537  0.0016
  926SOL    HW1 2777   2.473   0.089   1.093 -0.7190  0.3838  3.1453
  926SOL    HW2 2778   2.398   0.160   1.225 -0.3605  0.0839 -2.4145
  927SOL     OW 2779   1.285   0.857   0.816  0.1221 -0.7798  0.3352
  927SOL    HW1 2780   1.273   0.931   0.746  0.8734 -1.0598 -1.9716
  927SOL    HW2 2781   1.203   0.857   0.881 -1.1472 -1.1558  1.2424
  928SOL     OW 2782   2.974   0.222   2.104 -0.5107 -0.4466  0.3367
  928SOL    HW1 2783   2.943   0.170   2.188 -2.1924  0.6935 -0.3271
  928SOL    HW2 2784   3.063   0.266   2.117 -0.4222 -1.5200 -2.3471
  929SOL     OW 2785   2.377   0.784   1.360  0.3546  0.3956  0.5023
  929SOL    HW1 2786   2.306   0.817   1.426 -0.1777  0.5812 -0.4513
  929SOL    HW2 2787   2.449   0.852   1.332  1.2862  0.6282 -0.9905
  930SOL     OW 2788   2.080   2.503   1.077 -0.1293 -0.0917  0.0604
  930SOL    HW1 2789   1.988   2.477   1.042 -0.2413 -0.9622  0.4717
  930SOL    HW2 2790   2.061   2.562   1.159  0.7078 -0.0723 -0.3521
  931SOL     OW 2791   2.026   0.903   1.200 -0.3026  0.5715  0.0703
  931SOL    HW1 2792   2.026   0.878   1.098  0.3729  0.0155  2.3104
  931SOL    HW2 2793   2.087   0.981   1.218 -0.3628 -1.8600 -1.0891
  932SOL     OW 2794   3.081   0.857   1.163  0.2899 -0.5731  0.2623
  932SOL    HW1 2795   3.074   0.944   1.110  1.3319  4.6181  0.6239
  932SOL    HW2 2796   0.018   0.795   1.107  0.2220 -0.8211 -3.7279
  933SOL     OW 2797   2.128   1.657   2.171 -0.1521 -0.4414 -0.0710
  933SOL    HW1 2798   2.112   1.559   2.158  4.0061 -0.6719  2.0642
  933SOL    HW2 2799   2.087   1.711   2.095  0.6637  0.5324  1.6092
  934SOL     OW 2800   1.528   2.937   1.519  0.1921 -0.1342 -0.1313
  934SOL    HW1 2801   1.606   2.913   1.455 -1.4335 -1.1461 -2.5923
  934SOL    HW2 2802   1.485   3.029   1.489  0.4049  3.1150 -2.6078
  935SOL     OW 2803   0.368   0.872   1.353 -0.0766  0.1568 -0.8653
  935SOL    HW1 2804   0.356   0.936   1.277  1.1376 -1.4168  0.4860
  935SOL    HW2 2805   0.370   0.919   1.445 -1.7644  0.7359  0.3941
  936SOL     OW 2806   2.704   0.419   1.393  0.1828 -0.0162 -0.0030
  936SOL    HW1 2807   2.635   0.432   1.466  2.1595  0.6246  1.0301
  936SOL    HW2 2808   2.787   0.479   1.401 -1.2327 -1.5279  0.6479
  937SOL     OW 2809   0.908   0.177   1.488  0.2448 -0.1729  0.3085
  937SOL    HW1 2810   0.985   0.244   1.489  0.5107 -2.2589 -2.1135
  937SOL    HW2 2811   0.845   0.190   1.559  1.9565 -0.9276 -1.1182
  938SOL     OW 2812   0.038   2.385   0.711 -0.0231 -0.3501 -0.0717
  938SOL    HW1 2813   3.106   2.296   0.697  1.1753  0.3810 -3.2277
  938SOL    HW2 2814   0.115   2.362   0.769  0.2745  1.5088  0.0347
  939SOL     OW 2815   3.121   2.318   2.701 -0.2538 -0.2450 -0.4411
  939SOL    HW1 2816   0.015   2.339   2.602  0.4123 -2.2105  2.8702
  939SOL    HW2 2817   0.002   2.403   2.757  2.0260 -1.9477 -0.8261
  940SOL     OW 2818   1.894   2.260   2.979  0.1866  0.5473 -0.0412
  940SOL    HW1 2819   1.797   2.289   2.972  1.9829  0.4419  0.9348
  940SOL    HW2 2820   1.921   2.197   2.906  0.0360  2.1944  0.1618
  941SOL     OW 2821   1.656   2.566   0.616 -0.2273  0.1571 -0.0355
  941SOL    HW1 2822   1.595   2.617   0.679  0.0487 -0.2826  0.3806
  941SOL    HW2 2823   1.744   2.553   0.669 -0.0454  0.3394  0.9115
  942SOL     OW 2824   1.615   1.962   1.328  0.2492 -0.9840  0.6098
  942SOL    HW1 2825   1.698   2.018   1.316 -1.4438  0.2757 -1.7353
  942SOL    HW2 2826   1.560   1.975   1.244 -1.9295  3.4215  0.1145
  943SOL     OW 2827   2.059   0.744   1.893  0.3030  0.2734 -0.6376
  943SOL    HW1 2828   1.992   0.720   1.822  0.4993  1.2928  1.9379
  943SOL    HW2 2829   2.141   0.687   1.888 -0.6000  0.8459  0.5649
  944SOL     OW 2830   1.893   0.659   1.696  0.0172 -0.2593  0.0040
  944SOL    HW1 2831   1.791   0.665   1.691 -0.2202 -4.1818  1.7469
  944SOL    HW2 2832   1.929   0.561   1.680 -4.6844 -2.0020 -1.7420
  945SOL     OW 2833   2.770   2.494   1.341 -0.0483 -0.0132  0.0040
  945SOL    HW1 2834   2.673   2.523   1.332  0.4781 -0.9882  1.2368
  945SOL    HW2 2835   2.833   2.536   1.273  1.2548 -1.7866 -0.1733
  946SOL     OW 2836   0.384   1.289   1.240  0.0170 -0.4904 -0.4264
  946SOL    HW1 2837   0.353   1.367   1.177 -2.9268  2.4783  0.4267
  946SOL    HW2 2838   0.313   1.216   1.241 -1.7327  1.3928  2.1336
  947SOL     OW 2839   0.750   2.537   0.758 -0.2517 -0.3954  0.0785
  947SOL    HW1 2840   0.736   2.627   0.809  0.3529  0.0073 -1.4306
  947SOL    HW2 2841   0.675   2.519   0.691  0.7061 -0.8357 -0.8283
  948SOL     OW 2842   0.090   1.580   1.657 -0.3268 -0.2448 -0.1573
  948SOL    HW1 2843   0.007   1.591   1.716  0.5828 -2.4743  0.5945
  948SOL    HW2 2844   0.166   1.635   1.690  2.7852 -0.1687 -1.4991
  949SOL     OW 2845   0.565   0.809   2.207 -0.0381 -0.3670 -0.5839
  949SOL    HW1 2846   0.625   0.869   2.150  2.5519 -0.8171  1.6318
  949SOL    HW2 2847   0.496   0.766   2.146 -0.3333  0.4224  0.7017
  950SOL     OW 2848   0.272   0.502   1.208 -0.2629 -0.0590 -0.2550
  950SOL    HW1 2849   0.244   0.579   1.151  2.4910 -2.7222  1.0206
  950SOL    HW2 2850   0.249   0.414   1.159 -0.2150  0.2518 -0.7110
  951SOL     OW 2851   1.163   1.774   2.214 -0.3485  0.2782  0.2577
  951SOL    HW1 2852   1.144   1.688   2.165 -1.2036  2.1372  1.6042
  951SOL    HW2 2853   1.081   1.828   2.214  0.1486  0.6381  0.4747
  952SOL     OW 2854   1.184   1.500   0.279 -0.1250 -1.2768  0.2625
  952SOL    HW1 2855   1.183   1.597   0.290  1.7393 -2.1901  1.8221
  952SOL    HW2 2856   1.274   1.467   0.239  1.5174  0.0954  0.7586
  953SOL     OW 2857   0.975   2.971   2.471 -0.1446 -0.4865  0.0953
  953SOL    HW1 2858   0.907   2.993   2.537  4.3202 -0.0892  1.1606
  953SOL    HW2 2859   1.070   2.996   2.503  0.0616  1.8399 -0.5097
  954SOL     OW 2860   2.036   1.372   0.218  0.3851  0.0473  0.8767
  954SOL    HW1 2861   1.959   1.406   0.274 -1.5541 -0.4831  4.0579
  954SOL    HW2 2862   2.099   1.313   0.273 -3.2331 -0.4149  0.4273
  955SOL     OW 2863   0.328   2.604   2.918 -0.0808  0.1520 -0.1430
  955SOL    HW1 2864   0.415   2.569   2.891 -1.1097  1.0005  1.3854
  955SOL    HW2 2865   0.281   2.660   2.846  1.0811  1.4815  0.7963
  956SOL     OW 2866   1.311   1.017   1.722  0.3126 -0.0495  0.3236
  956SOL    HW1 2867   1.210   1.005   1.702 -2.6793 -0.2194 -1.7395
  956SOL    HW2 2868   1.355   1.040   1.631  1.1355 -0.5680  1.4510
  957SOL     OW 2869   1.981   1.803   1.990 -0.3875  0.2114 -0.1399
  957SOL    HW1 2870   1.957   1.812   2.088  3.0783  0.2343 -0.3153
  957SOL    HW2 2871   1.906   1.834   1.924 -1.1073  1.5246  1.2384
  958SOL     OW 2872   1.424   2.246   1.547 -0.4373 -0.1489  0.7338
  958SOL    HW1 2873   1.369   2.315   1.505  1.1711 -1.7715  1.2643
  958SOL    HW2 2874   1.521   2.279   1.560  0.4609 -2.1584 -0.2076
  959SOL     OW 2875   1.248   1.591   1.494  0.4203  0.6934 -0.0164
  959SOL    HW1 2876   1.326   1.652   1.483 -2.5577  0.1350 -0.1778
  959SOL    HW2 2877   1.256   1.537   1.578  0.6637 -2.0934 -0.7887
  960SOL     OW 2878   0.140   1.285   2.929  0.4522 -0.3545  0.2282
  960SOL    HW1 2879   0.069   1.212   2.939  0.9025 -1.9968  0.5970
  960SOL    HW2 2880   0.186   1.292   2.836  1.7275 -2.4154 -3.1409
  961SOL     OW 2881   0.388   1.206   2.179 -0.1570 -0.0446 -0.6745
  961SOL    HW1 2882   0.393   1.187   2.278 -2.3088 -1.2929 -1.0397
  961SOL    HW2 2883   0.466   1.265   2.151  2.5461  1.3887  1.4564
  962SOL     OW 2884   1.106   1.767   0.718  0.5057  0.0619  0.0791
  962SOL    HW1 2885   1.132   1.863   0.697  0.7576 -1.7601  0.7444
  962SOL    HW2 2886   1.187   1.707   0.735 -0.3626 -1.8365  1.6589
  963SOL     OW 2887   1.240   2.329   2.521  0.3677 -0.1965 -0.7090
  963SOL    HW1 2888   1.242   2.353   2.419 -2.1934  0.2358 -0.9641
  963SOL    HW2 2889   1.203   2.237   2.543 -1.2628  2.2455 -2.3438
  964SOL     OW 2890   0.810   2.998   0.133 -0.5176 -0.1293 -0.5126
  964SOL    HW1 2891   0.831   2.957   0.223 -2.6723 -0.1039 -0.8075
  964SOL    HW2 2892   0.740   3.071   0.151  1.6531  0.4245 -0.3810
  965SOL     OW 2893   0.481   3.118   0.907  0.1141 -0.6543 -0.6108
  965SOL    HW1 2894   0.566   0.030   0.948 -2.3399  0.4609 -0.8344
  965SOL    HW2 2895   0.412   3.103   0.981  1.7083  0.0338  0.5621
  966SOL     OW 2896   0.384   1.590   2.923 -0.5849  0.3675 -0.4185
  966SOL    HW1 2897   0.479   1.559   2.953  3.3644 -0.0088  2.2575
  966SOL    HW2 2898   0.354   1.520   2.856  0.4649  0.0234 -1.5008
  967SOL     OW 2899   0.719   2.772   2.455 -0.5336 -0.3806 -0.2363
  967SOL    HW1 2900   0.731   2.867   2.500 -1.2614  1.4713  2.9983
  967SOL    HW2 2901   0.714   2.788   2.353 -2.5210 -0.9210  3.4677
  968SOL     OW 2902   2.267   0.535   0.277 -0.1163  0.3055  0.1484
  968SOL    HW1 2903   2.213   0.475   0.342  0.5217 -1.4333 -0.8287
  968SOL    HW2 2904   2.198   0.597   0.232 -2.1427  0.6440  0.0368
  969SOL     OW 2905   3.092   1.925   2.055 -0.3618  0.4542  0.4118
  969SOL    HW1 2906   0.010   1.911   1.961 -1.7458 -1.5594 -1.6003
  969SOL    HW2 2907   2.999   1.881   2.057 -0.3432 -0.9017 -0.6148
  970SOL     OW 2908   2.061   1.506   1.244  0.0997 -0.4611  0.3267
  970SOL    HW1 2909   2.116   1.512   1.155 -1.5176  1.3349 -2.3918
  970SOL    HW2 2910   2.120   1.485   1.323  0.3481  0.4450 -0.0067
  971SOL     OW 2911   1.967   0.076   1.204  0.6872  0.2822  0.5220
  971SOL    HW1 2912   1.975   0.150   1.130  0.2469  0.5284  1.3835
  971SOL    HW2 2913   2.014   3.111   1.169  1.9826 -2.4920  1.9423
  972SOL     OW 2914   0.339   3.090   1.569 -0.7468 -0.2949 -0.4491
  972SOL    HW1 2915   0.397   3.097   1.654 -1.1156  1.6471  0.3867
  972SOL    HW2 2916   0.278   3.008   1.566 -0.8922  1.0185 -1.9016
  973SOL     OW 2917   2.670   0.870   0.250  0.6706 -0.3928  0.0768
  973SOL    HW1 2918   2.766   0.857   0.211  0.5844 -0.5893 -0.1715
  973SOL    HW2 2919   2.663   0.958   0.307  0.9920  1.7870  2.1054
  974SOL     OW 2920   1.853   1.565   2.368  0.6210  0.1922 -0.4763
  974SOL    HW1 2921   1.927   1.626   2.395 -0.3510 -2.7499  1.7717
  974SOL    HW2 2922   1.797   1.596   2.291  2.4311  0.4621  2.4711
  975SOL     OW 2923   0.266   2.779   1.558  0.2797  0.4514  0.2084
  975SOL    HW1 2924   0.247   2.729   1.470  0.4398 -0.3808 -0.9122
  975SOL    HW2 2925   0.182   2.767   1.613 -0.9558  2.4120  2.2641
  976SOL     OW 2926   0.375   1.878   1.983  0.2438 -0.3390  0.1903
  976SOL    HW1 2927   0.319   1.965   1.979  0.4582  2.0597 -1.5861
  976SOL    HW2 2928   0.347   1.820   2.061 -0.8360  0.5391 -0.5886
  977SOL     OW 2929   0.824   2.714   0.090  0.4619 -0.0975  0.2222
  977SOL    HW1 2930   0.919   2.699   0.046  3.9012 -1.5353  0.5702
  977SOL    HW2 2931   0.809   2.815   0.095  1.0029  1.3173  0.2270
  978SOL     OW 2932   0.387   1.825   3.073 -0.3171 -0.3511  0.3415
  978SOL    HW1 2933   0.431   1.916   3.056 -1.4537 -0.7036  0.8074
  978SOL    HW2 2934   0.410   1.750   3.005 -2.1087  1.5809 -1.4656
  979SOL     OW 2935   1.740   2.390   1.280  0.2686 -0.2990 -0.1674
  979SOL    HW1 2936   1.745   2.482   1.233  0.4371  3.2753  0.4735
  979SOL    HW2 2937   1.792   2.323   1.222  0.7354  3.6054  1.2473
  980SOL     OW 2938   1.015   1.739   2.622 -0.4452 -0.2307 -0.2885
  980SOL    HW1 2939   1.082   1.673   2.662 -1.4375 -0.8863 -0.6192
  980SOL    HW2 2940   0.980   1.694   2.538 -1.0815 -0.8279 -2.0477
  981SOL     OW 2941   2.516   0.000   2.418 -0.0997  0.2795 -0.2694
  981SOL    HW1 2942   2.530   0.071   2.346 -0.1919  0.9194  1.4554
  981SOL    HW2 2943   2.472   0.043   2.496 -1.2458 -0.3925 -2.9440
  982SOL     OW 2944   0.160   3.010   2.527 -0.2194  0.3755 -0.1490
  982SOL    HW1 2945   0.077   3.062   2.552  2.1597  0.2226  0.5214
  982SOL    HW2 2946   0.148   2.958   2.439  2.6413  2.4794 -0.3820
  983SOL     OW 2947   2.230   1.405   1.838  0.0529 -0.2541  0.2708
  983SOL    HW1 2948   2.309   1.342   1.845 -1.5731 -0.7976  1.8263
  983SOL    HW2 2949   2.166   1.367   1.761 -0.8789 -2.1572 -0.8266
  984SOL     OW 2950   1.574   0.509   1.881  0.2364  0.2851  0.1851
  984SOL    HW1 2951   1.491   0.512   1.936 -0.8544 -0.1426 -1.0199
  984SOL    HW2 2952   1.651   0.528   1.944  0.2988  2.3059  0.4711
  985SOL     OW 2953   1.682   1.612   2.168  0.4317 -0.2544 -0.0150
  985SOL    HW1 2954   1.584   1.572   2.164 -3.0324  0.0952  0.0024
  985SOL    HW2 2955   1.687   1.715   2.164  1.7703  0.0848 -0.0587
  986SOL     OW 2956   1.968   0.396   1.943 -0.4204 -0.1908 -0.0748
  986SOL    HW1 2957   2.048   0.455   1.926 -0.9268 -1.7322  1.7172
  986SOL    HW2 2958   1.897   0.446   1.997  4.1428 -1.0944  0.8920
  987SOL     OW 2959   2.202   0.516   1.888 -0.2752  0.2011  0.1264
  987SOL    HW1 2960   2.241   0.466   1.973 -0.3557  2.7173  0.9256
  987SOL    HW2 2961   2.262   0.513   1.806 -1.9629 -0.4212  2.0563
  988SOL     OW 2962   2.637   0.799   2.331 -0.5778  0.6742  0.0615
  988SOL    HW1 2963   2.723   0.749   2.322  0.8409 -1.2001 -1.1860
  988SOL    HW2 2964   2.648   0.897   2.344  1.0102  0.2008  0.2236
  989SOL     OW 2965   2.225   2.517   2.813 -0.5029  0.3003  0.2520
  989SOL    HW1 2966   2.252   2.439   2.751  1.6009 -0.1036 -1.6199
  989SOL    HW2 2967   2.212   2.479   2.909 -0.0898  1.2764  1.1546
  990SOL     OW 2968   1.002   0.600   2.639 -0.5199  0.0643  0.1362
  990SOL    HW1 2969   0.910   0.554   2.654 -0.8036 -0.0510 -0.9201
  990SOL    HW2 2970   0.989   0.697   2.622  0.7271  1.2657 -0.2137
  991SOL     OW 2971   1.305   0.739   0.171  0.1604 -0.1990 -0.1401
  991SOL    HW1 2972   1.296   0.845   0.168  1.0711  0.9718  2.0337
  991SOL    HW2 2973   1.308   0.692   0.079 -1.2313 -1.6951 -0.7081
  992SOL     OW 2974   2.524   2.399   2.690  0.4028  0.8281  0.3937
  992SOL    HW1 2975   2.446   2.360   2.642  0.7056  0.9445 -0.5758
  992SOL    HW2 2976   2.539   2.495   2.664  0.1397 -1.8446  1.4074
  993SOL     OW 2977   0.270   0.217   0.268 -0.1544 -0.4716 -0.1683
  993SOL    HW1 2978   0.341   0.288   0.257 -2.2404  0.5635  0.3237
  993SOL    HW2 2979   0.233   0.221   0.362 -0.1554  1.6065  0.2887
  994SOL     OW 2980   0.310   2.170   1.712 -0.0747 -0.0814 -0.0995
  994SOL    HW1 2981   0.289   2.153   1.809 -0.4841  1.8150 -2.3755
  994SOL    HW2 2982   0.330   2.270   1.708 -0.6829  1.2305  0.1127
  995SOL     OW 2983   1.961   1.701   2.935  0.0720  0.3840 -0.6116
  995SOL    HW1 2984   1.996   1.745   3.014 -2.1002 -2.3567 -2.0616
  995SOL    HW2 2985   2.005   1.610   2.917  0.8859  1.6040 -1.4585
  996SOL     OW 2986   1.471   1.594   2.986  0.0774  0.4572 -0.0478
  996SOL    HW1 2987   1.546   1.620   2.922  1.5604  0.1910  0.4106
  996SOL    HW2 2988   1.431   1.680   3.028  0.8291  0.7752 -0.1585
  997SOL     OW 2989   1.859   1.239   1.145 -0.0364 -0.1953  0.2512
  997SOL    HW1 2990   1.878   1.218   1.244  0.2529  0.5002 -1.3456
  997SOL    HW2 2991   1.800   1.319   1.143 -1.0820 -1.5475 -0.6456
  998SOL     OW 2992   2.515   1.487   0.119 -0.4445 -0.1029  0.0571
  998SOL    HW1 2993   2.541   1.389   0.122 -1.9036 -1.6838 -1.5669
  998SOL    HW2 2994   2.595   1.544   0.088  0.0346 -0.6237  1.3249
  999SOL     OW 2995   2.967   2.335   0.281 -0.5225 -0.4518  0.4519
  999SOL    HW1 2996   2.961   2.383   0.371 -1.2227  0.3477  1.1885
  999SOL    HW2 2997   2.945   2.398   0.200  0.6010 -0.5209 -0.7986
 1000SOL     OW 2998   0.690   3.010   1.965 -0.1080 -0.1365  0.4693
 1000SOL    HW1 2999   0.609   3.008   1.903 -0.1990 -2.9056 -1.6869
 1000SOL    HW2 3000   0.776   3.030   1.905  4.2976  2.0030 -2.6965
   3.12152   3.12152   3.12152
