1000 SPC/Fw water molecules t= 420.00000 step= 420000
 3000
    1SOL     OW    1   0.145   3.057   1.211  0.0235 -0.1412 -0.4590
    1SOL    HW1    2   0.215   0.008   1.281 -0.3477 -0.5194 -0.2402
    1SOL    HW2    3   0.105   2.964   1.234 -0.5731 -0.4574  2.4161
    2SOL     OW    4   2.669   0.073   0.165  0.0395 -0.0812  0.2374
    2SOL    HW1    5   2.681   3.051   0.159  0.1722  1.7139 -1.5411
    2SOL    HW2    6   2.710   0.112   0.077 -0.7195  0.4150 -0.9086
    3SOL     OW    7   1.561   2.663   0.067  0.0543  0.5560 -0.0895
    3SOL    HW1    8   1.499   2.595   0.021  0.5908  1.7391 -0.7196
    3SOL    HW2    9   1.520   2.754   0.056 -0.5170 -0.5948 -2.2116
    4SOL     OW   10   0.980   0.055   2.220  0.3138 -0.3091  0.0990
    4SOL    HW1   11   0.975   0.058   2.322  1.5657  0.1800 -1.6020
    4SOL    HW2   12   0.978   3.042   2.173 -2.5313  2.3305  0.4402
    5SOL     OW   13   2.218   0.069   1.954  0.3632  0.1612 -0.8179
    5SOL    HW1   14   2.134   0.014   1.963 -2.5347  2.4181  2.0059
    5SOL    HW2   15   2.205   0.158   1.908  1.4441 -2.5057  2.0684
    6SOL     OW   16   2.516   1.890   1.351 -0.0130  0.1192  0.9952
    6SOL    HW1   17   2.505   1.864   1.252 -0.4102 -2.4023  1.0154
    6SOL    HW2   18   2.437   1.850   1.402 -2.8812  2.0608  0.0009
    7SOL     OW   19   1.953   1.137   0.736 -0.1831  0.0892 -0.2752
    7SOL    HW1   20   1.919   1.204   0.807 -3.0820  2.4184  1.7181
    7SOL    HW2   21   2.059   1.133   0.733  0.9181  1.8804 -0.7953
    8SOL     OW   22   0.385   1.642   0.918 -0.4302 -0.1936 -0.5450
    8SOL    HW1   23   0.443   1.638   1.004  2.1654 -0.7837 -4.3264
    8SOL    HW2   24   0.287   1.663   0.935  0.2818  0.9975 -2.4088
    9SOL     OW   25   0.026   2.822   1.256  0.4460  0.1462  0.0400
    9SOL    HW1   26   3.041   2.820   1.334  1.5776  0.2747  1.3019
    9SOL    HW2   27   3.060   2.787   1.169 -0.0347  0.3821  2.3087
   10SOL     OW   28   1.221   2.162   0.563  0.5651  0.7957  0.1585
   10SOL    HW1   29   1.321   2.163   0.531  1.3332 -1.0451 -1.2229
   10SOL    HW2   30   1.154   2.159   0.487 -0.3099 -2.2175 -0.6475
   11SOL     OW   31   1.662   1.832   1.060  0.0020 -0.3759 -0.0768
   11SOL    HW1   32   1.754   1.794   1.040 -1.8925 -0.4908  1.4580
   11SOL    HW2   33   1.638   1.909   0.997  0.9361  0.5734  1.3304
   12SOL     OW   34   3.065   0.701   2.204  0.3300  0.1229 -0.0844
   12SOL    HW1   35   0.006   0.781   2.145  0.8691 -1.3401 -2.1950
   12SOL    HW2   36   3.070   0.613   2.148 -1.6199 -3.3938  1.1411
   13SOL     OW   37   2.470   2.697   0.186 -0.2111  0.1997 -0.0971
   13SOL    HW1   38   2.472   2.743   0.091 -0.1985 -0.0768 -1.1562
   13SOL    HW2   39   2.519   2.606   0.178  0.3325 -1.2038 -1.3267
   14SOL     OW   40   1.389   1.701   0.089  0.3857 -0.1894 -0.1995
   14SOL    HW1   41   1.396   1.629   0.020  0.1235  1.9935  0.7268
   14SOL    HW2   42   1.479   1.752   0.097  0.5459  1.0141  1.7114
   15SOL     OW   43   2.891   2.768   1.914 -0.0317 -0.4347  0.1903
   15SOL    HW1   44   2.969   2.761   1.851  0.6419  0.8639  0.6900
   15SOL    HW2   45   2.853   2.861   1.926 -1.8812 -1.4931  2.1898
   16SOL     OW   46   2.774   0.374   0.831  0.3745  0.9802 -0.0265
   16SOL    HW1   47   2.865   0.398   0.873 -0.5441 -0.0216  1.0679
   16SOL    HW2   48   2.795   0.315   0.754  2.5233 -0.4244  1.6550
   17SOL     OW   49   1.222   3.060   0.767  0.2439 -0.6620  0.2420
   17SOL    HW1   50   1.136   3.047   0.823 -0.9010 -1.1382 -1.0350
   17SOL    HW2   51   1.305   3.047   0.820 -3.1599  1.3629  0.8773
   18SOL     OW   52   1.281   0.269   1.115 -0.8541  0.4847  0.6292
   18SOL    HW1   53   1.373   0.217   1.102  3.1939 -2.1202  0.2372
   18SOL    HW2   54   1.212   0.242   1.049  0.7226  0.5522 -0.5033
   19SOL     OW   55   2.225   0.884   0.616 -0.3553  0.4333  0.0354
   19SOL    HW1   56   2.258   0.980   0.632 -1.2767 -3.3029 -1.0132
   19SOL    HW2   57   2.148   0.885   0.544  1.5036  0.2287 -5.4684
   20SOL     OW   58   2.487   1.718   2.528  0.2434 -0.1014  0.0422
   20SOL    HW1   59   2.535   1.675   2.449 -2.4474 -0.0537 -1.2587
   20SOL    HW2   60   2.537   1.700   2.614 -1.2175  2.1811 -2.3194
   21SOL     OW   61   1.359   3.013   0.245 -0.0221  0.1599 -0.3885
   21SOL    HW1   62   1.410   2.970   0.323 -1.0280 -0.3232 -2.7546
   21SOL    HW2   63   1.285   3.073   0.278 -1.5949  0.2878  0.1791
   22SOL     OW   64   2.793   1.118   0.859 -0.1378 -0.3190 -0.6155
   22SOL    HW1   65   2.749   1.093   0.947  1.1427 -2.3550  2.2792
   22SOL    HW2   66   2.729   1.169   0.799  0.4400  1.0811  0.2631
   23SOL     OW   67   0.624   0.226   2.097 -0.1118 -0.0052 -0.2223
   23SOL    HW1   68   0.684   0.190   2.026 -1.6874 -1.5824  1.2532
   23SOL    HW2   69   0.581   0.313   2.065 -1.3815 -0.5809  0.6931
   24SOL     OW   70   2.321   2.130   0.850  0.8238  0.4731 -0.2555
   24SOL    HW1   71   2.257   2.207   0.819 -0.4076  1.9385  0.1511
   24SOL    HW2   72   2.285   2.080   0.933 -0.0223  1.6231  2.5864
   25SOL     OW   73   1.680   3.069   2.502 -0.0780 -0.1166  0.1340
   25SOL    HW1   74   1.617   0.048   2.441  0.5021 -0.3936 -2.3935
   25SOL    HW2   75   1.628   3.040   2.584  0.3398 -0.3475  1.4128
   26SOL     OW   76   1.560   2.358   0.006 -0.5616  0.5565 -0.3160
   26SOL    HW1   77   1.660   2.380   0.025  1.5835  0.6716  1.7557
   26SOL    HW2   78   1.548   2.308   2.992  1.3749 -0.1581  1.1740
   27SOL     OW   79   1.422   0.456   1.517  0.1358 -0.5468  0.3801
   27SOL    HW1   80   1.343   0.395   1.516  1.5725  0.0538  1.4459
   27SOL    HW2   81   1.500   0.420   1.463  1.6109 -1.3158  0.5400
   28SOL     OW   82   1.033   1.474   0.552 -0.3069  0.0111 -0.4543
   28SOL    HW1   83   0.962   1.429   0.613 -0.1792  0.1154  2.4215
   28SOL    HW2   84   1.122   1.467   0.600 -2.8310 -2.7668 -0.4303
   29SOL     OW   85   2.499   0.334   1.684  0.1485  0.1758  0.2816
   29SOL    HW1   86   2.532   0.274   1.606  0.8807 -0.6721 -0.3071
   29SOL    HW2   87   2.498   0.288   1.777 -0.4444  1.4212  4.9944
   30SOL     OW   88   1.308   2.276   1.613  0.3759 -0.3542 -0.8411
   30SOL    HW1   89   1.369   2.237   1.542 -1.8024 -0.9997 -1.0563
   30SOL    HW2   90   1.222   2.314   1.573 -1.9567 -1.0056  1.3557
   31SOL     OW   91   2.021   2.667   1.381  0.3783 -0.5131  0.1443
   31SOL    HW1   92   1.997   2.763   1.405 -2.7935  1.1886 -2.7115
   31SOL    HW2   93   2.089   2.626   1.444 -1.1016 -0.3620 -1.4429
   32SOL     OW   94   2.032   1.468   2.533 -0.4019  0.1908  0.0430
   32SOL    HW1   95   1.949   1.412   2.509 -1.4055 -1.5505  0.4080
   32SOL    HW2   96   2.112   1.404   2.549  2.0230 -0.8920 -0.7234
   33SOL     OW   97   2.337   0.612   3.012  0.1254 -0.1226 -0.3208
   33SOL    HW1   98   2.306   0.601   0.039 -0.9138 -3.2518  3.3070
   33SOL    HW2   99   2.259   0.604   2.947 -1.6827 -0.6630  0.4087
   34SOL     OW  100   1.799   0.251   0.312  0.2552 -0.4438  0.2500
   34SOL    HW1  101   1.701   0.274   0.319  0.2594 -1.4949  1.5785
   34SOL    HW2  102   1.812   0.153   0.344  4.2013 -0.6636  0.7401
   35SOL     OW  103   0.118   2.028   1.895 -0.0566 -0.1288 -0.4416
   35SOL    HW1  104   0.093   2.126   1.924 -0.1190 -0.1328  1.8510
   35SOL    HW2  105   0.122   1.968   1.974  0.6750  3.0014 -0.9676
   36SOL     OW  106   2.617   1.727   2.785  0.5213  0.0631 -0.1055
   36SOL    HW1  107   2.655   1.802   2.848 -0.1599  0.3688  0.6652
   36SOL    HW2  108   2.688   1.660   2.763  0.2203  1.0486 -4.2389
   37SOL     OW  109   1.580   2.808   1.643 -0.6314  0.0424  0.6944
   37SOL    HW1  110   1.640   2.735   1.681 -0.4165 -1.9304  1.6957
   37SOL    HW2  111   1.503   2.849   1.705  0.1082  1.3573 -0.4810
   38SOL     OW  112   0.288   0.638   2.514 -0.0217  0.6004  0.3229
   38SOL    HW1  113   0.229   0.718   2.493 -3.0242  0.0865 -0.0768
   38SOL    HW2  114   0.371   0.637   2.453 -0.5322 -2.0511 -0.1593
   39SOL     OW  115   1.814   0.719   1.358  0.0823  0.0309 -0.4713
   39SOL    HW1  116   1.873   0.662   1.425 -2.1796  0.9908  0.8416
   39SOL    HW2  117   1.863   0.786   1.299 -1.6828 -1.1132 -3.0652
   40SOL     OW  118   1.175   2.218   0.820  0.4239  0.6754  0.0004
   40SOL    HW1  119   1.076   2.215   0.842 -2.2809  0.4639  0.9858
   40SOL    HW2  120   1.205   2.165   0.737  0.4696 -1.5453  0.3679
   41SOL     OW  121   1.971   2.112   1.097 -0.0503 -0.5684 -0.4731
   41SOL    HW1  122   1.937   2.074   1.009  2.8668  0.5704 -0.1625
   41SOL    HW2  123   1.980   2.213   1.085 -2.2670 -1.7289 -0.6374
   42SOL     OW  124   2.552   0.473   0.699  0.1396 -0.2467 -0.0589
   42SOL    HW1  125   2.636   0.458   0.754 -1.3914  0.7557  2.5795
   42SOL    HW2  126   2.543   0.571   0.689  0.4346 -0.4192  3.4209
   43SOL     OW  127   0.391   1.493   2.357  0.3492  0.0588 -0.1334
   43SOL    HW1  128   0.427   1.416   2.299  1.8244 -1.5409  0.4769
   43SOL    HW2  129   0.463   1.563   2.351  1.3317 -1.9965 -1.2119
   44SOL     OW  130   1.669   2.641   1.193 -0.2765 -0.0084  0.6044
   44SOL    HW1  131   1.647   2.540   1.193 -1.0951  0.6733  1.5040
   44SOL    HW2  132   1.754   2.650   1.140 -3.0683 -1.2580  1.0805
   45SOL     OW  133   0.988   0.074   2.482 -0.4826 -0.6911 -0.1799
   45SOL    HW1  134   0.934   0.111   2.561 -0.3824  1.5649  1.8614
   45SOL    HW2  135   1.039   3.059   2.502  0.5243 -1.2900 -2.8405
   46SOL     OW  136   0.713   2.692   1.894 -0.4100  0.0700 -0.2740
   46SOL    HW1  137   0.643   2.688   1.815 -2.6164 -1.3930 -3.0695
   46SOL    HW2  138   0.735   2.790   1.910 -2.3702  1.4560 -2.3871
   47SOL     OW  139   1.061   1.941   0.869  0.8765  0.7208 -0.6585
   47SOL    HW1  140   1.038   1.881   0.791 -0.9393  0.2251 -0.9573
   47SOL    HW2  141   1.033   1.890   0.957  1.2572 -0.3212  2.0746
   48SOL     OW  142   1.079   2.299   1.417  0.6864  0.1377  0.4708
   48SOL    HW1  143   1.076   2.232   1.345  3.4824  1.3000  2.4927
   48SOL    HW2  144   1.052   2.391   1.379 -0.7245 -0.2776  0.7042
   49SOL     OW  145   2.858   0.209   2.791  0.1289  0.4108  0.1611
   49SOL    HW1  146   2.789   0.267   2.838  0.0026 -0.1620  1.1186
   49SOL    HW2  147   2.924   0.260   2.732 -2.7296  0.9487  0.1321
   50SOL     OW  148   1.467   0.978   0.309 -0.0985 -0.2000 -0.2105
   50SOL    HW1  149   1.476   0.916   0.390 -0.7382  1.6792 -4.0753
   50SOL    HW2  150   1.424   1.073   0.323 -1.5146  1.5374  0.7623
   51SOL     OW  151   1.915   0.086   0.598 -0.2701  0.3233 -0.4361
   51SOL    HW1  152   1.974   0.117   0.523 -5.6721 -0.7412  1.7655
   51SOL    HW2  153   1.957   0.087   0.689  0.6458  1.2442  0.9680
   52SOL     OW  154   1.022   1.537   0.096 -0.2216 -0.2645 -0.1442
   52SOL    HW1  155   1.053   1.527   0.002  0.3124  0.2291  1.3288
   52SOL    HW2  156   0.938   1.601   0.097 -0.8103 -1.4916 -0.9105
   53SOL     OW  157   0.128   1.015   2.663 -0.1234 -0.2943  0.2442
   53SOL    HW1  158   0.194   1.039   2.735 -0.6534  1.4084  1.1952
   53SOL    HW2  159   0.103   1.097   2.605  1.5450  0.1698  0.9813
   54SOL     OW  160   2.328   1.912   2.867  0.5913 -0.2771 -0.4893
   54SOL    HW1  161   2.376   1.971   2.931 -0.0730 -1.6148 -0.2574
   54SOL    HW2  162   2.324   1.816   2.895  0.3942 -2.2290  0.5056
   55SOL     OW  163   2.330   2.209   1.325 -0.5640  0.0291  0.1815
   55SOL    HW1  164   2.431   2.192   1.335  0.5289  0.9704 -1.0820
   55SOL    HW2  165   2.290   2.156   1.250  0.5904  1.6315  0.7479
   56SOL     OW  166   1.794   3.043   1.216  0.2862 -0.9467 -0.2861
   56SOL    HW1  167   1.720   2.975   1.220  2.9893  2.1739 -0.1751
   56SOL    HW2  168   1.788   0.019   1.130  1.5539 -0.9460 -0.1790
   57SOL     OW  169   1.565   1.349   0.728 -0.9285 -0.3594  0.0502
   57SOL    HW1  170   1.629   1.416   0.769  2.1190  0.1375 -0.8530
   57SOL    HW2  171   1.605   1.301   0.647  3.0703 -1.6371 -1.4440
   58SOL     OW  172   2.568   0.049   1.630 -0.3750  0.0978  0.6464
   58SOL    HW1  173   2.521   0.062   1.541  2.3357  2.8386 -1.9321
   58SOL    HW2  174   2.654   3.072   1.624  0.0016 -1.5720 -0.8283
   59SOL     OW  175   0.949   2.791   2.487  0.1546 -0.1038  0.0962
   59SOL    HW1  176   0.927   2.748   2.396 -0.9031 -1.1784 -0.8324
   59SOL    HW2  177   0.864   2.823   2.527 -2.2695 -0.3489 -0.8643
   60SOL     OW  178   0.570   0.318   2.581  0.2816 -0.1384 -0.1218
   60SOL    HW1  179   0.476   0.330   2.618  0.3313  0.3243  0.0215
   60SOL    HW2  180   0.626   0.394   2.616 -2.3908 -2.0233 -0.1232
   61SOL     OW  181   0.948   2.182   0.929  0.7192 -0.2177 -0.0908
   61SOL    HW1  182   0.993   2.092   0.911 -3.9108 -0.3219 -0.0607
   61SOL    HW2  183   0.846   2.171   0.934  3.0408  1.6619  1.3084
   62SOL     OW  184   1.010   2.110   2.107  0.5011  0.0108 -0.0292
   62SOL    HW1  185   1.016   2.154   2.199  2.4718  0.3999 -1.0897
   62SOL    HW2  186   1.101   2.078   2.078 -1.8677  2.3185  2.0436
   63SOL     OW  187   1.555   1.808   0.600 -0.1877 -0.3403 -0.0555
   63SOL    HW1  188   1.607   1.860   0.526  0.2810  1.2073 -1.3005
   63SOL    HW2  189   1.512   1.724   0.560  0.9525  3.4162 -2.4836
   64SOL     OW  190   1.711   1.487   0.397 -0.0027  0.1333 -0.4873
   64SOL    HW1  191   1.721   1.484   0.296 -2.6380  1.8328 -1.0755
   64SOL    HW2  192   1.709   1.392   0.438 -2.2491  1.2173 -0.9812
   65SOL     OW  193   1.664   2.068   2.375  0.6138 -0.3144  0.3687
   65SOL    HW1  194   1.671   1.980   2.426 -0.8260 -0.4677  1.4867
   65SOL    HW2  195   1.711   2.135   2.440  0.9720  0.7341 -0.1599
   66SOL     OW  196   0.289   0.857   1.277 -0.1146  0.2282  0.1573
   66SOL    HW1  197   0.200   0.810   1.262 -1.2731 -0.0930 -0.4095
   66SOL    HW2  198   0.345   0.852   1.192 -0.9158 -3.2505  0.1348
   67SOL     OW  199   2.096   2.605   0.431 -0.0096  0.1042  1.0786
   67SOL    HW1  200   2.055   2.684   0.482  1.1761 -0.0697  0.3504
   67SOL    HW2  201   2.064   2.517   0.474  2.7318  0.1364  3.8166
   68SOL     OW  202   2.230   2.245   1.601  0.1523  0.0989 -0.2732
   68SOL    HW1  203   2.267   2.242   1.509  0.6700 -1.3117  0.3837
   68SOL    HW2  204   2.283   2.185   1.669  1.8555 -2.1565 -0.0075
   69SOL     OW  205   2.523   2.247   2.577 -0.2493  0.2207 -0.2133
   69SOL    HW1  206   2.537   2.148   2.599 -0.7016 -1.0497  0.0523
   69SOL    HW2  207   2.457   2.259   2.499 -1.0700  0.1569 -0.2571
   70SOL     OW  208   0.075   1.228   2.518 -0.0980  0.1909 -0.0374
   70SOL    HW1  209   0.024   1.266   2.599 -2.4705  1.9249 -2.4689
   70SOL    HW2  210   0.032   1.264   2.434 -0.4455  2.3897  0.2841
   71SOL     OW  211   0.641   1.073   2.117 -0.4253 -0.4258  0.1097
   71SOL    HW1  212   0.686   1.010   2.186  0.2914 -0.5916  1.5780
   71SOL    HW2  213   0.606   1.024   2.038  0.6634  2.9291  1.3948
   72SOL     OW  214   2.337   1.464   1.871  0.0702  0.4958  0.4005
   72SOL    HW1  215   2.344   1.489   1.773  1.4290 -1.3639  0.5624
   72SOL    HW2  216   2.349   1.365   1.878  0.8046  2.3586 -0.2875
   73SOL     OW  217   0.896   1.718   2.866 -0.3841 -0.2792 -0.4832
   73SOL    HW1  218   0.912   1.780   2.948 -1.0130  2.6623  0.0679
   73SOL    HW2  219   0.799   1.689   2.855  0.5794  1.6720 -0.3273
   74SOL     OW  220   1.845   2.764   2.077  0.4259  0.0233  0.2144
   74SOL    HW1  221   1.819   2.722   1.985 -1.3228 -0.7000 -3.8011
   74SOL    HW2  222   1.804   2.857   2.101  0.8625  2.1843  1.2214
   75SOL     OW  223   1.143   2.600   0.484 -0.5113 -0.5258  0.2256
   75SOL    HW1  224   1.229   2.580   0.434 -0.4644  0.7831  0.6228
   75SOL    HW2  225   1.133   2.700   0.482  1.2106  1.9413 -0.0119
   76SOL     OW  226   3.007   1.996   2.650 -0.2503 -0.0159  0.2380
   76SOL    HW1  227   3.008   1.923   2.723 -1.4303  1.7510  0.1458
   76SOL    HW2  228   0.007   2.064   2.685  1.6130  1.2030  2.0646
   77SOL     OW  229   3.034   2.518   1.231 -0.3462  0.4346 -0.2266
   77SOL    HW1  230   0.014   2.576   1.172 -3.6566  2.0304 -0.4007
   77SOL    HW2  231   3.074   2.503   1.324  0.6681 -0.3614 -4.1227
   78SOL     OW  232   2.540   0.862   0.149  0.1610  0.3609  0.2198
   78SOL    HW1  233   2.536   0.960   0.177 -3.9597  4.7729  1.3122
   78SOL    HW2  234   2.606   0.848   0.073  1.1020  0.2508 -1.4798
   79SOL     OW  235   0.030   1.797   2.806 -0.3310  0.5507  0.0243
   79SOL    HW1  236   0.033   1.695   2.805  0.5640 -0.5153 -1.2055
   79SOL    HW2  237   0.030   1.833   2.900  0.9761  0.4223  1.7756
   80SOL     OW  238   1.691   1.416   1.588  0.2188  0.6125 -0.1530
   80SOL    HW1  239   1.764   1.487   1.584 -1.4720  3.6286  1.7004
   80SOL    HW2  240   1.601   1.443   1.549 -0.6868 -3.2447  1.4955
   81SOL     OW  241   2.030   1.045   2.166  0.1295 -0.6763  0.0188
   81SOL    HW1  242   1.939   1.029   2.130  2.7148 -0.6387 -0.9169
   81SOL    HW2  243   2.038   1.141   2.209 -0.6071 -0.5809  2.3846
   82SOL     OW  244   1.592   1.214   1.734  0.5087 -0.1919  0.2385
   82SOL    HW1  245   1.641   1.280   1.676  3.0155  0.0513 -1.9225
   82SOL    HW2  246   1.496   1.238   1.739  1.0232  1.2632  0.0685
   83SOL     OW  247   0.074   0.353   2.949 -0.3772  0.2906 -0.1099
   83SOL    HW1  248   0.025   0.297   3.014  2.4636  4.0212 -0.3908
   83SOL    HW2  249   0.092   0.302   2.866  1.3650  0.7174 -1.2272
   84SOL     OW  250   0.245   1.335   2.966 -0.1284 -0.0229 -0.3151
   84SOL    HW1  251   0.219   1.255   2.910 -2.9209  0.1906  1.7304
   84SOL    HW2  252   0.180   1.342   3.044 -0.2148 -2.8563 -0.1999
   85SOL     OW  253   2.189   1.524   2.097  0.2263 -0.1038 -0.2778
   85SOL    HW1  254   2.260   1.496   2.026  0.5530 -2.6945  0.0163
   85SOL    HW2  255   2.224   1.599   2.154  0.7413  1.0424 -0.8801
   86SOL     OW  256   0.466   0.860   1.080 -0.6517  0.2035 -0.1258
   86SOL    HW1  257   0.517   0.948   1.071 -3.2761  0.3001  0.3775
   86SOL    HW2  258   0.437   0.835   0.988  1.0264 -1.6009 -2.2138
   87SOL     OW  259   2.757   1.860   2.395  0.5391  0.5570  0.5826
   87SOL    HW1  260   2.688   1.936   2.390 -1.7034 -2.0637  0.1077
   87SOL    HW2  261   2.849   1.905   2.401 -2.6323  0.3019 -1.3936
   88SOL     OW  262   0.318   2.836   0.213  0.2218  0.0323 -0.1965
   88SOL    HW1  263   0.384   2.839   0.289  1.4760  0.9508 -0.5558
   88SOL    HW2  264   0.356   2.797   0.125  1.1148  2.0862  0.4926
   89SOL     OW  265   1.527   0.595   0.257 -0.0382  0.0228  0.3084
   89SOL    HW1  266   1.441   0.613   0.207  2.2521 -0.0726  0.1184
   89SOL    HW2  267   1.613   0.639   0.219 -0.0926 -0.9021 -2.3813
   90SOL     OW  268   2.911   1.569   2.212  0.6702 -0.2022 -0.4378
   90SOL    HW1  269   2.947   1.477   2.213  0.1614  3.1536 -1.1798
   90SOL    HW2  270   2.928   1.616   2.307 -0.2905  2.1028  1.8940
   91SOL     OW  271   2.248   2.942   1.214 -0.4816 -0.6498  0.3496
   91SOL    HW1  272   2.210   2.853   1.180  1.3852 -0.0790  2.3618
   91SOL    HW2  273   2.176   3.002   1.253 -1.1933 -1.3608  3.5201
   92SOL     OW  274   2.100   1.502   1.035 -0.2267 -0.1153  0.2017
   92SOL    HW1  275   2.062   1.469   0.949 -1.8236 -2.7451  1.8279
   92SOL    HW2  276   2.051   1.579   1.077 -0.4674 -0.0932 -0.5844
   93SOL     OW  277   0.140   1.376   0.133  0.0591 -0.0737 -0.2705
   93SOL    HW1  278   0.077   1.374   0.220 -1.0753  0.6250  2.8613
   93SOL    HW2  279   0.214   1.445   0.141  0.2605  2.9693 -1.7685
   94SOL     OW  280   1.174   2.718   1.658 -0.1555  0.2930  0.8100
   94SOL    HW1  281   1.114   2.699   1.735  1.6890  0.0591  0.6072
   94SOL    HW2  282   1.265   2.669   1.668  0.3775 -0.3950 -0.9784
   95SOL     OW  283   0.011   0.707   0.601 -0.3697 -0.2445 -0.2896
   95SOL    HW1  284   0.061   0.792   0.632 -0.3340  2.3312  0.0900
   95SOL    HW2  285   3.004   0.684   0.657  0.9375 -1.5482  0.1396
   96SOL     OW  286   0.024   2.755   1.750  0.2887 -0.4998 -0.2689
   96SOL    HW1  287   0.053   2.850   1.774 -2.3488 -0.8435 -0.9379
   96SOL    HW2  288   0.099   2.701   1.700  1.8172  0.1021  2.4409
   97SOL     OW  289   2.241   0.428   1.367  0.1992  0.1254  0.2245
   97SOL    HW1  290   2.276   0.498   1.304 -3.9125 -0.1664 -0.3392
   97SOL    HW2  291   2.249   0.335   1.328 -1.4536  1.0344 -0.3314
   98SOL     OW  292   2.878   2.472   1.587  1.1140  0.1975  0.2170
   98SOL    HW1  293   2.790   2.510   1.544 -1.5546 -1.4389 -4.4095
   98SOL    HW2  294   2.958   2.471   1.522 -0.0028  0.5343 -0.2513
   99SOL     OW  295   0.229   0.284   1.488 -0.8077  0.0059  0.3061
   99SOL    HW1  296   0.149   0.234   1.513  1.3501  0.3575  1.9156
   99SOL    HW2  297   0.235   0.375   1.532  0.6585 -4.1887 -1.0565
  100SOL     OW  298   2.249   0.310   2.525  0.3796 -0.3681  0.1204
  100SOL    HW1  299   2.149   0.330   2.503 -0.4956 -0.0975  0.5373
  100SOL    HW2  300   2.265   0.237   2.593 -0.4534  2.3168 -0.5273
  101SOL     OW  301   0.490   0.345   2.322  0.3349 -0.2591 -0.8113
  101SOL    HW1  302   0.539   0.289   2.253 -1.3490 -0.2342  1.4896
  101SOL    HW2  303   0.543   0.343   2.411  1.4083 -1.5902 -1.3506
  102SOL     OW  304   0.573   0.391   1.766  0.1253 -0.1518 -0.2068
  102SOL    HW1  305   0.560   0.426   1.667 -0.5639  0.7649 -1.3184
  102SOL    HW2  306   0.671   0.378   1.800  0.7090 -0.1721  1.3929
  103SOL     OW  307   1.164   0.780   2.501  0.0782 -0.1994  0.1587
  103SOL    HW1  308   1.230   0.846   2.463 -3.1152 -1.2673 -0.9844
  103SOL    HW2  309   1.150   0.702   2.431 -0.1300 -4.0311 -4.1775
  104SOL     OW  310   0.169   0.578   1.859  0.2694  0.5191  0.7115
  104SOL    HW1  311   0.177   0.677   1.835 -0.5599  0.6979 -1.8469
  104SOL    HW2  312   0.200   0.551   1.951  0.0916  0.1893 -3.3412
  105SOL     OW  313   2.216   1.782   1.721 -0.3341  0.2897 -0.3655
  105SOL    HW1  314   2.157   1.862   1.715  1.7506 -0.1002 -1.8501
  105SOL    HW2  315   2.192   1.716   1.790 -2.2887 -0.5449 -0.2845
  106SOL     OW  316   1.496   0.214   0.528 -0.1259  0.4101 -0.0497
  106SOL    HW1  317   1.406   0.224   0.573  0.7505 -0.2406 -1.0227
  106SOL    HW2  318   1.502   0.259   0.434  0.4678 -2.2741 -2.1657
  107SOL     OW  319   2.248   2.035   1.114  0.7532  0.2102 -0.2208
  107SOL    HW1  320   2.140   2.036   1.119 -4.7704 -0.7654 -0.0511
  107SOL    HW2  321   2.285   1.941   1.103  3.2584  0.4505 -0.4144
  108SOL     OW  322   0.231   2.312   1.119  0.8046 -0.4759 -0.6706
  108SOL    HW1  323   0.256   2.400   1.074 -0.2295 -1.3563  0.7609
  108SOL    HW2  324   0.279   2.306   1.211 -1.9181 -0.9608 -0.0663
  109SOL     OW  325   1.540   2.561   0.875  0.7565  0.2795  0.3443
  109SOL    HW1  326   1.483   2.541   0.789 -1.5083  0.7337 -0.6854
  109SOL    HW2  327   1.479   2.578   0.957  2.5753 -1.1301  1.6592
  110SOL     OW  328   1.906   1.687   1.128  0.2394  0.0227  0.1390
  110SOL    HW1  329   1.962   1.733   1.199  3.5212  0.8200 -1.2357
  110SOL    HW2  330   1.845   1.619   1.180 -1.6242 -0.8070 -0.1878
  111SOL     OW  331   1.490   2.270   2.010  0.2527 -0.5201  0.4369
  111SOL    HW1  332   1.544   2.194   2.046 -4.3337  0.4234 -1.2741
  111SOL    HW2  333   1.541   2.356   1.993  0.6818 -0.2223  1.8046
  112SOL     OW  334   2.211   2.157   3.008 -0.2989  0.0307  0.1448
  112SOL    HW1  335   2.142   2.083   2.989 -0.1584  0.3375  1.7273
  112SOL    HW2  336   2.308   2.125   2.996  1.4870  0.8827  2.9176
  113SOL     OW  337   2.050   1.753   1.967  0.5832  0.3491 -0.2438
  113SOL    HW1  338   2.036   1.821   2.040 -1.0212 -0.5895 -1.7688
  113SOL    HW2  339   2.070   1.665   2.012  1.3200  4.3267  1.2646
  114SOL     OW  340   3.010   1.325   1.754  0.0785 -0.0178  0.6208
  114SOL    HW1  341   2.930   1.381   1.790  3.7184 -0.4538 -1.2078
  114SOL    HW2  342   2.983   1.225   1.745 -1.9166 -1.7360 -2.7186
  115SOL     OW  343   2.856   1.016   0.163  0.3189 -0.4953 -0.2117
  115SOL    HW1  344   2.951   1.052   0.168 -1.5004 -0.1800  0.7640
  115SOL    HW2  345   2.858   0.921   0.133  0.4957  0.9705 -0.0287
  116SOL     OW  346   2.618   0.871   2.958  0.5477 -0.2509 -0.2330
  116SOL    HW1  347   2.655   0.776   2.968 -2.9419  2.3174 -0.8012
  116SOL    HW2  348   2.623   0.910   2.861 -1.2243  0.9322  0.1593
  117SOL     OW  349   2.917   2.206   2.885 -0.1739 -0.0893  0.5039
  117SOL    HW1  350   2.892   2.305   2.889 -0.6085 -1.3756  0.0819
  117SOL    HW2  351   2.872   2.157   2.804 -1.8719 -0.4761  2.5523
  118SOL     OW  352   0.415   2.164   2.834 -0.2874 -0.2470  0.1559
  118SOL    HW1  353   0.446   2.239   2.775 -0.8014  1.2567  1.8014
  118SOL    HW2  354   0.406   2.201   2.931 -1.8501  2.0206  2.8446
  119SOL     OW  355   0.786   2.782   0.405  0.7123  0.3208  0.3792
  119SOL    HW1  356   0.737   2.706   0.452  0.0089  0.6618  2.3826
  119SOL    HW2  357   0.806   2.858   0.467 -0.8972  0.1623  0.1235
  120SOL     OW  358   1.176   0.886   0.120  0.5064  0.6069 -0.3516
  120SOL    HW1  359   1.173   0.863   0.219  1.5171 -0.6723 -0.5559
  120SOL    HW2  360   1.223   0.974   0.099  1.8456  1.5852 -0.7270
  121SOL     OW  361   1.560   2.808   0.721  0.2606 -0.4247  0.1515
  121SOL    HW1  362   1.558   2.739   0.799  2.3827  0.9554  1.1993
  121SOL    HW2  363   1.627   2.788   0.647  4.5680  1.5710 -1.5360
  122SOL     OW  364   2.500   1.378   2.406  0.0423 -0.5505 -0.0427
  122SOL    HW1  365   2.570   1.447   2.387  0.6046  1.2846 -3.9613
  122SOL    HW2  366   2.523   1.290   2.359 -2.3238 -3.0709  0.8188
  123SOL     OW  367   1.304   1.193   1.306  0.1336  0.2179 -0.1064
  123SOL    HW1  368   1.205   1.208   1.320  0.1664  0.1092 -3.2191
  123SOL    HW2  369   1.326   1.178   1.210  0.6211  1.2114  0.3243
  124SOL     OW  370   0.506   0.543   0.029  0.4556  0.2352 -0.1118
  124SOL    HW1  371   0.413   0.513   0.053 -0.6473  1.6164 -0.6406
  124SOL    HW2  372   0.503   0.592   3.017  0.9456  0.6089  0.2663
  125SOL     OW  373   0.625   0.239   0.422  0.1366  0.2796 -0.1256
  125SOL    HW1  374   0.624   0.148   0.382  0.1036  0.9075 -0.4873
  125SOL    HW2  375   0.534   0.285   0.401 -1.0664  1.5877  0.0561
  126SOL     OW  376   0.259   1.738   0.406  0.2409 -0.0349 -0.4561
  126SOL    HW1  377   0.305   1.825   0.438 -3.1042 -1.0178 -1.4182
  126SOL    HW2  378   0.209   1.712   0.489  2.1949  0.8241 -2.8258
  127SOL     OW  379   0.663   2.748   1.621 -0.2564  0.6925  0.2090
  127SOL    HW1  380   0.602   2.815   1.568 -1.4419  1.9378  1.2465
  127SOL    HW2  381   0.747   2.784   1.667  1.2877 -2.3137 -0.3562
  128SOL     OW  382   1.257   1.601   0.312  0.3923  0.3505  0.2319
  128SOL    HW1  383   1.189   1.523   0.301 -0.5331  0.8186 -0.0312
  128SOL    HW2  384   1.302   1.629   0.227  1.0901  2.5696 -2.0420
  129SOL     OW  385   1.772   1.466   2.013  0.7013 -0.2707 -0.0908
  129SOL    HW1  386   1.687   1.497   1.968 -0.9244  0.3131  0.7718
  129SOL    HW2  387   1.855   1.461   1.951 -0.0513  0.7267  1.7655
  130SOL     OW  388   1.512   2.169   1.431 -0.4270  0.1073  0.0201
  130SOL    HW1  389   1.569   2.237   1.479  1.0498 -0.8468  1.9500
  130SOL    HW2  390   1.524   2.172   1.331  0.5282  2.6194  0.6452
  131SOL     OW  391   0.115   2.293   1.946 -0.2319 -0.2812  0.1905
  131SOL    HW1  392   0.026   2.333   1.922  1.9957 -1.7398  0.7312
  131SOL    HW2  393   0.138   2.325   2.040 -2.6344 -1.7404  0.6148
  132SOL     OW  394   2.705   1.936   0.796  0.0761 -0.0290 -0.5752
  132SOL    HW1  395   2.790   1.985   0.780 -2.2519 -0.3561  1.5314
  132SOL    HW2  396   2.683   1.930   0.895  0.4874 -0.7990 -1.3104
  133SOL     OW  397   0.566   0.829   1.646  0.0336 -0.5304  0.4968
  133SOL    HW1  398   0.582   0.784   1.557  1.0527  3.1045  2.7541
  133SOL    HW2  399   0.621   0.783   1.723  2.0063  0.4636  0.4947
  134SOL     OW  400   2.423   1.617   0.090  0.5100  0.4093 -0.0871
  134SOL    HW1  401   2.358   1.633   0.163 -0.6458 -0.3468  1.2181
  134SOL    HW2  402   2.377   1.614   3.071  0.6910  1.4133 -1.3028
  135SOL     OW  403   1.752   1.069   2.640 -0.1981  0.4425 -0.1372
  135SOL    HW1  404   1.783   0.972   2.658  2.1984 -0.7723 -0.7463
  135SOL    HW2  405   1.657   1.078   2.604  0.5392 -1.6369 -1.0283
  136SOL     OW  406   2.782   1.816   1.424  0.4833  0.3777 -0.1637
  136SOL    HW1  407   2.779   1.717   1.456 -3.1235  0.5450 -0.5304
  136SOL    HW2  408   2.689   1.854   1.406 -0.5061 -0.0300  0.1602
  137SOL     OW  409   2.403   1.795   0.479  0.1978  0.1056  0.0113
  137SOL    HW1  410   2.488   1.739   0.482  0.9660 -0.5710 -2.2798
  137SOL    HW2  411   2.408   1.868   0.550 -1.0210 -0.7519 -3.0546
  138SOL     OW  412   2.856   0.725   0.813  0.3721  0.2750  0.2356
  138SOL    HW1  413   2.811   0.686   0.725 -0.2899 -0.9786  0.0376
  138SOL    HW2  414   2.830   0.668   0.895 -3.7869 -0.4776  0.1810
  139SOL     OW  415   0.111   3.026   0.187  0.2982  0.8578 -0.0767
  139SOL    HW1  416   0.184   2.954   0.196  2.1928 -1.2270 -1.1319
  139SOL    HW2  417   0.093   0.006   0.271  1.5623 -0.4141  0.0484
  140SOL     OW  418   0.804   1.225   1.471  0.3501  0.3464  0.2299
  140SOL    HW1  419   0.765   1.315   1.504 -1.5537 -2.0425 -0.0538
  140SOL    HW2  420   0.731   1.158   1.440  0.6430 -1.4006  0.8018
  141SOL     OW  421   1.263   1.453   1.009 -0.0894 -0.0658 -0.0804
  141SOL    HW1  422   1.174   1.405   1.027 -2.5201 -2.4627  1.7081
  141SOL    HW2  423   1.245   1.536   0.952 -1.1237  1.1544  1.3697
  142SOL     OW  424   1.325   0.545   1.103 -0.3674  0.2849 -0.0145
  142SOL    HW1  425   1.305   0.446   1.109  0.8673  1.9631  3.2903
  142SOL    HW2  426   1.238   0.598   1.101 -2.5095  1.3291 -0.3883
  143SOL     OW  427   0.313   1.017   2.279  0.0055  0.4158 -0.1864
  143SOL    HW1  428   0.381   1.060   2.347  0.8360 -0.5753  0.9405
  143SOL    HW2  429   0.299   1.083   2.199 -0.4675  2.1016  0.2829
  144SOL     OW  430   2.443   0.084   0.329  0.1337  0.2480  0.8154
  144SOL    HW1  431   2.464   0.131   0.415 -0.5593 -1.4841  1.8046
  144SOL    HW2  432   2.526   0.080   0.271 -1.0839  2.4261  0.3400
  145SOL     OW  433   2.296   0.132   2.716  0.7775 -0.1337 -0.4401
  145SOL    HW1  434   2.390   0.118   2.759  1.1132 -0.2758 -0.2865
  145SOL    HW2  435   2.246   0.203   2.770 -0.0127  0.2764  2.9186
  146SOL     OW  436   2.997   2.872   0.441 -0.1455  0.2153  0.1158
  146SOL    HW1  437   2.998   2.827   0.349 -0.7642 -1.4261 -0.8616
  146SOL    HW2  438   2.992   2.803   0.514  1.3031  2.4312  1.7288
  147SOL     OW  439   0.885   1.181   2.516  0.6929  0.3298  0.4438
  147SOL    HW1  440   0.851   1.207   2.421  1.2513  1.3519 -1.3433
  147SOL    HW2  441   0.897   1.077   2.520  1.0003 -4.6194 -1.3464
  148SOL     OW  442   1.463   0.176   0.081  0.0569  0.3322 -0.0138
  148SOL    HW1  443   1.433   0.093   0.128 -1.4078  0.7035  0.1232
  148SOL    HW2  444   1.389   0.210   0.021  0.0490  0.2868 -0.3954
  149SOL     OW  445   1.559   0.031   1.980 -0.2491 -0.5163  0.0387
  149SOL    HW1  446   1.656   0.006   2.004  1.0945 -2.0311  4.2546
  149SOL    HW2  447   1.534   0.126   2.005  0.2556 -0.2412  0.5630
  150SOL     OW  448   2.033   2.791   2.972  0.3076  0.6115  0.3000
  150SOL    HW1  449   2.119   2.732   2.979  0.5346 -0.9253 -0.4124
  150SOL    HW2  450   1.956   2.757   3.036 -3.7549  0.3658  0.5026
  151SOL     OW  451   0.596   1.576   0.067  0.3191  0.1883  0.2025
  151SOL    HW1  452   0.503   1.594   0.100  0.7398 -2.0548  0.7439
  151SOL    HW2  453   0.626   1.484   0.097  1.2807  1.1246 -1.2799
  152SOL     OW  454   0.368   0.090   1.340  0.7807 -0.5577 -0.3702
  152SOL    HW1  455   0.450   0.115   1.287  0.9725  1.0920  1.3504
  152SOL    HW2  456   0.345   0.166   1.405 -0.4936 -1.3588  0.7184
  153SOL     OW  457   2.652   2.687   1.850  0.1416 -0.4913  0.6171
  153SOL    HW1  458   2.754   2.716   1.857  2.9304  1.3374 -1.5309
  153SOL    HW2  459   2.592   2.760   1.901 -2.0437  2.1468  2.4910
  154SOL     OW  460   2.491   2.761   2.446 -0.0230 -0.4165 -0.2256
  154SOL    HW1  461   2.547   2.687   2.414 -1.8791  0.9876 -0.0860
  154SOL    HW2  462   2.401   2.754   2.397  0.3916 -0.8806 -1.4986
  155SOL     OW  463   0.260   1.177   0.631  0.1062 -0.3154  0.2502
  155SOL    HW1  464   0.169   1.210   0.605 -0.5069 -0.4810  0.4339
  155SOL    HW2  465   0.330   1.246   0.655 -3.0060 -0.9726  0.0480
  156SOL     OW  466   2.690   1.693   0.698  0.3549 -0.0516 -0.7411
  156SOL    HW1  467   2.707   1.783   0.738  0.0948  0.9536  0.6362
  156SOL    HW2  468   2.678   1.693   0.599 -1.5694 -2.8034  3.6583
  157SOL     OW  469   0.868   0.340   0.340 -0.0815  0.5941 -0.1631
  157SOL    HW1  470   0.768   0.323   0.355 -0.3970 -0.4794 -1.6552
  157SOL    HW2  471   0.928   0.281   0.400 -0.8958  2.0938 -0.8953
  158SOL     OW  472   1.628   0.852   0.906 -0.2394 -0.1445  0.2316
  158SOL    HW1  473   1.624   0.917   0.989  0.2799 -1.9997  1.3084
  158SOL    HW2  474   1.609   0.757   0.941  1.4491  0.6366  1.0608
  159SOL     OW  475   0.223   0.587   0.251 -0.3241 -0.3340 -0.1363
  159SOL    HW1  476   0.311   0.638   0.277  0.6813  0.7172 -0.9511
  159SOL    HW2  477   0.200   0.594   0.148 -2.0454  0.1911 -3.0291
  160SOL     OW  478   2.234   2.061   1.982 -0.0488 -0.3155 -0.0233
  160SOL    HW1  479   2.163   2.035   2.048  3.8197  0.4460  1.4728
  160SOL    HW2  480   2.253   2.160   2.000  1.8898  2.5505 -1.9061
  161SOL     OW  481   0.341   1.034   2.837 -0.0616 -0.0433 -0.1633
  161SOL    HW1  482   0.393   0.965   2.781 -1.1662 -0.8008  2.6809
  161SOL    HW2  483   0.361   1.018   2.935  0.2431 -3.1983  2.1529
  162SOL     OW  484   0.527   0.474   2.026  0.1960  0.3234 -0.3939
  162SOL    HW1  485   0.526   0.446   1.928 -1.3587  2.8191  0.4994
  162SOL    HW2  486   0.432   0.466   2.064 -0.4643  1.3625 -0.6269
  163SOL     OW  487   2.846   3.024   2.660  0.1197 -0.4381  0.3983
  163SOL    HW1  488   2.838   0.038   2.709  0.8169  1.7804 -2.2860
  163SOL    HW2  489   2.839   3.042   2.560  0.1079 -2.7734 -0.7405
  164SOL     OW  490   2.212   2.193   0.200  0.3933  0.9716  0.5478
  164SOL    HW1  491   2.214   2.171   0.100  1.8503 -0.0561 -0.5498
  164SOL    HW2  492   2.310   2.206   0.225 -0.0769  0.8449 -0.5305
  165SOL     OW  493   0.470   0.345   1.057  0.3217  0.1042  0.4291
  165SOL    HW1  494   0.548   0.387   1.002  0.8653 -0.4762  0.7487
  165SOL    HW2  495   0.502   0.270   1.124  4.1009 -2.5647  4.2147
  166SOL     OW  496   2.493   0.460   0.324  0.2638 -0.5442 -0.2472
  166SOL    HW1  497   2.571   0.423   0.268 -0.4381 -0.1443 -1.5374
  166SOL    HW2  498   2.474   0.399   0.403 -0.9705 -1.9660  2.6441
  167SOL     OW  499   2.142   0.879   0.129 -0.4411 -0.0657  0.0020
  167SOL    HW1  500   2.214   0.912   0.062  1.1368 -0.6216 -1.4450
  167SOL    HW2  501   2.176   0.791   0.168 -0.8743  3.0851 -1.5182
  168SOL     OW  502   1.301   2.825   2.111  0.3253  0.0791  0.0043
  168SOL    HW1  503   1.209   2.785   2.126  0.3082 -1.6035 -2.3183
  168SOL    HW2  504   1.342   2.850   2.201 -1.2515  0.1283 -0.3765
  169SOL     OW  505   0.601   2.016   0.642  0.0738  0.2784 -0.3406
  169SOL    HW1  506   0.646   2.094   0.588 -1.6195 -0.2454  0.6009
  169SOL    HW2  507   0.670   1.961   0.698  1.8548 -1.2260  0.1841
  170SOL     OW  508   2.787   0.797   1.301 -0.2203  0.4365 -0.2278
  170SOL    HW1  509   2.724   0.816   1.380  1.1621  1.3918  3.5027
  170SOL    HW2  510   2.735   0.801   1.212  0.0082 -3.2327  1.1007
  171SOL     OW  511   2.701   1.206   2.284 -0.1746  0.5579 -0.1161
  171SOL    HW1  512   2.728   1.109   2.262 -3.2129 -1.7356  0.6437
  171SOL    HW2  513   2.707   1.258   2.198 -1.8651 -0.9173 -0.5315
  172SOL     OW  514   1.047   1.772   1.107  0.0767  0.1834 -0.3130
  172SOL    HW1  515   1.099   1.806   1.188 -1.8166 -0.5684  0.2580
  172SOL    HW2  516   1.098   1.690   1.071  0.8622  2.5243 -1.3736
  173SOL     OW  517   2.032   1.946   3.019  0.6567  0.3084  0.1467
  173SOL    HW1  518   1.931   1.972   3.032 -1.2273 -0.8264 -1.4868
  173SOL    HW2  519   2.058   1.876   0.014  0.6582 -0.1676  2.1550
  174SOL     OW  520   1.797   0.801   2.670 -0.0739 -0.2758  0.0556
  174SOL    HW1  521   1.810   0.747   2.587 -2.3357  4.1393  2.0430
  174SOL    HW2  522   1.818   0.743   2.750 -0.8763 -0.0094 -1.1954
  175SOL     OW  523   0.995   1.475   1.103 -0.0212 -0.1086 -0.4762
  175SOL    HW1  524   1.000   1.377   1.114 -1.4311  2.3994 -0.6236
  175SOL    HW2  525   0.944   1.516   1.185 -1.0141  1.0713  0.6997
  176SOL     OW  526   1.126   0.098   0.253 -0.1869  0.7018  0.3556
  176SOL    HW1  527   1.025   0.083   0.260 -2.1522 -4.7685  2.0369
  176SOL    HW2  528   1.155   0.195   0.274 -1.6935  1.8140 -0.4226
  177SOL     OW  529   0.353   1.579   0.226  0.0715  0.6113  0.6334
  177SOL    HW1  530   0.324   1.649   0.290 -1.8228 -1.3688 -1.2747
  177SOL    HW2  531   0.391   1.501   0.278  0.0381 -2.0505 -1.4823
  178SOL     OW  532   0.042   2.392   2.569 -0.3619 -0.8587  0.0037
  178SOL    HW1  533   0.031   2.483   2.611  1.8709 -2.1388 -0.4452
  178SOL    HW2  534   0.059   2.323   2.644 -1.7362  1.1842  0.1192
  179SOL     OW  535   2.823   2.768   2.626  0.0838  0.3113 -0.2668
  179SOL    HW1  536   2.827   2.754   2.526  1.1401 -0.5784 -0.7027
  179SOL    HW2  537   2.819   2.867   2.649  0.1647  3.6512  2.2635
  180SOL     OW  538   2.285   0.306   0.822  0.1598 -0.1909 -0.0005
  180SOL    HW1  539   2.244   0.369   0.890 -3.0698  1.0787 -0.7896
  180SOL    HW2  540   2.384   0.284   0.840 -2.5345  3.7327 -0.8108
  181SOL     OW  541   2.689   0.383   2.615  0.3337 -0.4367 -0.4249
  181SOL    HW1  542   2.790   0.391   2.614 -1.5168 -1.0190 -0.8135
  181SOL    HW2  543   2.655   0.300   2.561  0.4500  1.7475 -0.9311
  182SOL     OW  544   2.352   2.152   2.405  0.3342 -0.4910 -0.3960
  182SOL    HW1  545   2.312   2.091   2.476 -2.1168  1.2191  0.2816
  182SOL    HW2  546   2.273   2.187   2.350  0.6228  3.2772 -2.1821
  183SOL     OW  547   2.195   0.558   1.944  0.1707 -0.9237 -0.2112
  183SOL    HW1  548   2.299   0.544   1.940  0.5308  1.8575 -0.4805
  183SOL    HW2  549   2.164   0.654   1.913 -1.2441  0.7598  0.4466
  184SOL     OW  550   0.055   1.685   0.616  0.5467 -0.2527  0.1271
  184SOL    HW1  551   0.031   1.621   0.696 -1.5003 -1.7257  2.7794
  184SOL    HW2  552   0.074   1.781   0.658  2.8672  1.6600 -0.0269
  185SOL     OW  553   2.867   0.205   0.625 -0.2307 -0.1926 -0.0210
  185SOL    HW1  554   2.913   0.167   0.704 -0.8513 -2.0398 -1.2086
  185SOL    HW2  555   2.863   0.136   0.549  0.7792 -3.3150  0.2217
  186SOL     OW  556   2.366   2.461   2.737  0.1511 -0.2560  0.0676
  186SOL    HW1  557   2.319   2.441   2.650  0.4086  2.3637 -3.7067
  186SOL    HW2  558   2.402   2.553   2.731  1.2180  0.3471  0.0092
  187SOL     OW  559   0.570   1.584   0.735 -0.0117  0.2482  0.1385
  187SOL    HW1  560   0.512   1.609   0.816  0.5835 -3.5447  2.3324
  187SOL    HW2  561   0.650   1.651   0.732 -0.4383  0.2413 -1.0575
  188SOL     OW  562   1.909   1.568   0.777  0.5843 -0.2776  0.7050
  188SOL    HW1  563   1.921   1.573   0.672  2.1730 -0.6674 -4.5147
  188SOL    HW2  564   1.928   1.661   0.813  0.2462 -2.6578  0.8788
  189SOL     OW  565   2.745   1.385   2.959  0.4186 -0.4978  0.1927
  189SOL    HW1  566   2.757   1.286   2.978 -1.5436  3.5533  2.7468
  189SOL    HW2  567   2.704   1.395   2.864 -1.7953  0.3566 -1.7697
  190SOL     OW  568   2.419   0.349   2.305  0.0321 -0.1392 -0.0141
  190SOL    HW1  569   2.396   0.341   2.402  1.5352 -0.4418 -1.2820
  190SOL    HW2  570   2.335   0.340   2.251  0.9153  0.1503  3.8307
  191SOL     OW  571   1.023   0.444   2.346 -0.0177 -0.1498  0.0338
  191SOL    HW1  572   1.059   0.352   2.318 -0.4607 -2.9548  0.8618
  191SOL    HW2  573   1.012   0.453   2.447 -0.4624  0.2160 -0.1579
  192SOL     OW  574   1.127   1.773   1.681  0.3239 -0.5133  0.1062
  192SOL    HW1  575   1.106   1.733   1.587 -1.1712  0.8615  1.1197
  192SOL    HW2  576   1.110   1.875   1.695  0.5021  3.7702  3.9065
  193SOL     OW  577   1.358   2.589   1.078  0.4248  0.2273  0.1173
  193SOL    HW1  578   1.349   2.579   1.178  1.9011  0.1531 -1.4270
  193SOL    HW2  579   1.275   2.562   1.031  0.2795  0.9333 -1.1372
  194SOL     OW  580   0.963   1.761   1.966  0.3999 -0.1952 -0.1123
  194SOL    HW1  581   0.979   1.666   1.993 -1.0348  1.7350 -0.1884
  194SOL    HW2  582   0.996   1.781   1.873 -0.5667  0.3092 -0.9288
  195SOL     OW  583   2.150   0.372   0.584 -0.1930 -0.4833 -0.7029
  195SOL    HW1  584   2.233   0.360   0.643  2.4490  1.6017 -1.5480
  195SOL    HW2  585   2.114   0.469   0.602 -0.3975  2.9202  1.3043
  196SOL     OW  586   1.234   1.579   2.158  0.1064 -0.0065  0.4528
  196SOL    HW1  587   1.292   1.630   2.228  2.9509 -0.5018 -0.9803
  196SOL    HW2  588   1.138   1.558   2.186 -0.2638 -2.1451 -3.1365
  197SOL     OW  589   0.144   0.250   1.964 -0.1011  0.0021  0.1553
  197SOL    HW1  590   0.134   0.201   2.052  1.1029  0.5717  0.6179
  197SOL    HW2  591   0.243   0.256   1.929  1.7163  2.3732  2.6869
  198SOL     OW  592   0.158   1.145   1.010 -0.3358 -0.3220  0.6252
  198SOL    HW1  593   0.138   1.053   1.049 -0.3717 -1.3274  0.7055
  198SOL    HW2  594   0.073   1.205   1.014 -0.7256 -0.4631 -1.0237
  199SOL     OW  595   0.341   2.539   1.004 -0.0710  0.0223  0.8809
  199SOL    HW1  596   0.293   2.601   0.941 -0.1052  0.0949  1.3323
  199SOL    HW2  597   0.416   2.583   1.058 -1.1386 -1.9639  1.8205
  200SOL     OW  598   1.804   1.701   2.747  0.1529 -1.2256  0.0964
  200SOL    HW1  599   1.892   1.753   2.763 -1.1996  0.5317  1.4882
  200SOL    HW2  600   1.817   1.607   2.784  0.7758 -0.9793 -0.4889
  201SOL     OW  601   0.344   2.406   1.739 -0.0834 -0.2392 -0.0200
  201SOL    HW1  602   0.433   2.447   1.712  1.4478 -0.4507 -1.5289
  201SOL    HW2  603   0.345   2.306   1.758 -2.6406 -0.0930  1.0060
  202SOL     OW  604   1.033   2.774   2.857 -0.0127 -0.5881  0.6164
  202SOL    HW1  605   1.076   2.715   2.930  2.2926  1.4163 -0.4021
  202SOL    HW2  606   1.106   2.813   2.797 -1.9010 -0.1058 -1.4485
  203SOL     OW  607   1.508   0.295   2.082  0.3571  0.7691  0.3745
  203SOL    HW1  608   1.425   0.348   2.069  0.4976 -1.3771  1.7493
  203SOL    HW2  609   1.585   0.357   2.054 -0.7490  1.2587 -2.5991
  204SOL     OW  610   0.602   1.068   1.421  0.1677 -0.2644  0.0746
  204SOL    HW1  611   0.615   0.984   1.477 -1.0434 -1.7012  1.6808
  204SOL    HW2  612   0.503   1.067   1.393  0.2383  1.6150  0.7732
  205SOL     OW  613   2.093   0.906   2.620 -0.5956  0.1617  0.1632
  205SOL    HW1  614   2.074   0.841   2.695  1.0853  3.8740  0.3945
  205SOL    HW2  615   2.021   0.898   2.549 -2.3282 -0.5538  0.0486
  206SOL     OW  616   0.701   1.959   2.944 -0.1255 -0.2925 -0.2964
  206SOL    HW1  617   0.611   1.987   2.986 -2.7002  1.0786  1.6212
  206SOL    HW2  618   0.692   1.863   2.916 -0.9899 -1.2418  0.1461
  207SOL     OW  619   0.382   0.231   1.836 -0.1158  0.4998  0.2034
  207SOL    HW1  620   0.452   0.306   1.813  0.5928  0.2796 -0.9722
  207SOL    HW2  621   0.380   0.161   1.759 -0.0468 -1.8281 -2.0899
  208SOL     OW  622   0.566   2.524   1.691 -0.4952 -0.1854 -0.3254
  208SOL    HW1  623   0.638   2.456   1.711 -2.1526  0.0335 -0.3048
  208SOL    HW2  624   0.605   2.603   1.637  0.9244  0.1542 -0.5482
  209SOL     OW  625   1.350   2.703   2.819 -0.5122 -0.4501  0.3187
  209SOL    HW1  626   1.283   2.663   2.888 -1.6528  0.9991  3.3276
  209SOL    HW2  627   1.373   2.799   2.844 -0.5889 -1.5486  0.6468
  210SOL     OW  628   2.651   1.388   1.704  0.0440 -0.2236 -0.5899
  210SOL    HW1  629   2.712   1.424   1.778 -0.8083  2.4934  2.7512
  210SOL    HW2  630   2.607   1.471   1.663 -0.2193  1.2218 -1.2573
  211SOL     OW  631   1.364   0.134   1.722 -0.4087  0.4071  0.1521
  211SOL    HW1  632   1.462   0.166   1.723 -0.8916 -1.4015 -0.1939
  211SOL    HW2  633   1.358   0.049   1.662 -0.0371 -1.0609 -1.6249
  212SOL     OW  634   0.816   2.202   1.501 -0.4733  0.3171 -0.3531
  212SOL    HW1  635   0.899   2.262   1.493  1.1357  0.0921 -2.0586
  212SOL    HW2  636   0.757   2.222   1.584 -1.5948  1.3919 -0.9558
  213SOL     OW  637   2.450   0.514   2.007  0.0401  0.4543 -0.2814
  213SOL    HW1  638   2.552   0.512   1.992  2.2394  2.0874  0.3664
  213SOL    HW2  639   2.430   0.592   2.076  1.5697 -0.6782  0.3628
  214SOL     OW  640   0.702   1.922   1.764  0.1233 -0.4239 -0.0900
  214SOL    HW1  641   0.784   1.902   1.707  0.7139  0.0045  1.7610
  214SOL    HW2  642   0.734   1.985   1.837  0.1062  0.5985  1.6847
  215SOL     OW  643   2.748   1.903   1.087  0.5164 -1.3427 -0.2407
  215SOL    HW1  644   2.835   1.876   1.139  0.0369 -2.9323  2.0043
  215SOL    HW2  645   2.722   1.999   1.110 -2.3898  0.3784  2.5814
  216SOL     OW  646   2.612   0.825   1.056 -0.2643 -0.5144  0.3439
  216SOL    HW1  647   2.662   0.744   1.020  0.5363  0.5412  0.5268
  216SOL    HW2  648   2.517   0.806   1.054  1.8920 -1.0559  0.6618
  217SOL     OW  649   2.487   0.171   1.412  0.7183  0.0551  0.1216
  217SOL    HW1  650   2.409   0.202   1.351 -1.9027  0.6921  0.6594
  217SOL    HW2  651   2.556   0.131   1.349 -2.4514  0.4000  0.1127
  218SOL     OW  652   1.660   2.373   1.173 -0.0547 -0.3660  0.3766
  218SOL    HW1  653   1.697   2.294   1.228  1.6754 -0.6782 -1.3663
  218SOL    HW2  654   1.687   2.362   1.076 -0.3578  0.0782  1.5823
  219SOL     OW  655   1.691   2.189   0.271 -0.6210 -0.2579  0.6224
  219SOL    HW1  656   1.792   2.176   0.262  1.5374 -0.7865  0.2100
  219SOL    HW2  657   1.646   2.199   0.180 -0.6120  0.2190 -4.0728
  220SOL     OW  658   1.821   2.398   0.065  0.0291 -0.1038 -0.5582
  220SOL    HW1  659   1.862   2.358   3.053 -1.3381 -0.0833  0.0870
  220SOL    HW2  660   1.885   2.365   0.141 -0.2680 -0.8763 -0.0905
  221SOL     OW  661   2.995   2.360   0.737 -0.1727 -0.5637 -0.3398
  221SOL    HW1  662   0.005   2.333   0.684  0.4617  1.7723 -0.4456
  221SOL    HW2  663   2.933   2.283   0.770  0.6799  2.2647  0.5258
  222SOL     OW  664   1.755   2.424   0.907  0.2089 -0.1140 -0.1606
  222SOL    HW1  665   1.676   2.487   0.895  1.8799 -0.8732  1.8776
  222SOL    HW2  666   1.772   2.380   0.815 -2.9388 -1.1094 -3.5927
  223SOL     OW  667   0.528   2.555   2.270 -0.4396  0.3753 -0.1684
  223SOL    HW1  668   0.540   2.652   2.291 -0.0327  0.8043  0.4596
  223SOL    HW2  669   0.588   2.532   2.191 -3.6113  0.6116  0.2423
  224SOL     OW  670   2.987   1.883   1.201  0.5319  0.0046 -0.1909
  224SOL    HW1  671   2.958   1.962   1.259 -0.4635  1.6869  1.0222
  224SOL    HW2  672   0.012   1.885   1.196 -0.6311 -0.4575 -0.2954
  225SOL     OW  673   2.263   1.799   0.821  0.4342 -0.0515  0.0688
  225SOL    HW1  674   2.323   1.733   0.772  2.2396 -1.3770  1.0630
  225SOL    HW2  675   2.161   1.785   0.815  1.7348  2.3713 -1.8900
  226SOL     OW  676   1.371   2.526   0.349 -0.3197 -0.3584 -0.2967
  226SOL    HW1  677   1.472   2.534   0.345  2.2159  2.7783  1.5781
  226SOL    HW2  678   1.333   2.493   0.260 -2.7202  0.0149  0.1085
  227SOL     OW  679   1.929   0.742   0.924  0.2650  0.0448 -0.2076
  227SOL    HW1  680   1.931   0.757   1.023 -1.4263  0.6094  0.0373
  227SOL    HW2  681   1.835   0.778   0.890 -1.9604 -0.3792 -1.6319
  228SOL     OW  682   1.368   0.686   1.964  0.5158  0.2717 -0.2149
  228SOL    HW1  683   1.459   0.729   1.985 -1.9173 -0.2867 -0.1003
  228SOL    HW2  684   1.327   0.716   1.875  1.6082  1.3124  1.8352
  229SOL     OW  685   2.778   1.049   2.730  0.6523  0.2038 -0.0131
  229SOL    HW1  686   2.797   1.142   2.694 -0.1673 -1.5065  1.1203
  229SOL    HW2  687   2.844   0.976   2.699  0.6445  2.1399 -2.0247
  230SOL     OW  688   0.926   1.180   0.924  0.2030 -0.4979 -0.0948
  230SOL    HW1  689   1.028   1.183   0.921 -0.9833 -0.3854 -0.7827
  230SOL    HW2  690   0.893   1.194   1.024 -1.7274  2.7174  1.1785
  231SOL     OW  691   2.578   2.917   2.002 -0.1297 -0.1592  0.3764
  231SOL    HW1  692   2.676   2.960   2.012  3.3218  1.4638  1.7933
  231SOL    HW2  693   2.505   2.976   2.046  0.1218 -0.7511  0.6559
  232SOL     OW  694   0.496   2.032   0.333 -0.3433  0.3637 -0.6737
  232SOL    HW1  695   0.447   2.026   0.419  0.1665 -0.2272 -0.7299
  232SOL    HW2  696   0.500   2.129   0.298  0.1758 -1.1199 -2.2233
  233SOL     OW  697   1.258   2.337   2.225 -0.1553 -0.3046  0.4946
  233SOL    HW1  698   1.267   2.425   2.267  0.5213 -1.4036 -0.2028
  233SOL    HW2  699   1.194   2.277   2.289 -1.6209  0.3087 -3.6740
  234SOL     OW  700   0.982   1.518   1.738  0.6289  0.2080 -0.3104
  234SOL    HW1  701   1.056   1.454   1.764  1.4290 -0.8160 -0.6208
  234SOL    HW2  702   1.020   1.575   1.658  1.2406 -0.0649 -2.3835
  235SOL     OW  703   0.716   1.620   1.741  0.5467 -0.2869 -0.0507
  235SOL    HW1  704   0.812   1.581   1.749  3.6782 -2.1189  0.4424
  235SOL    HW2  705   0.714   1.722   1.756 -1.0377 -0.0769  1.8250
  236SOL     OW  706   1.530   2.695   2.449  0.4279 -0.0013  0.0468
  236SOL    HW1  707   1.625   2.676   2.417  1.3487  2.0656 -0.4382
  236SOL    HW2  708   1.521   2.664   2.545  0.8002  0.1687 -0.1490
  237SOL     OW  709   1.348   2.953   0.565 -0.2838 -0.0156 -0.5304
  237SOL    HW1  710   1.306   3.017   0.634 -2.7630  0.4982 -1.1059
  237SOL    HW2  711   1.421   2.900   0.608 -0.0198 -0.3421 -0.9564
  238SOL     OW  712   0.795   0.825   2.792 -0.4694 -0.4138 -0.2660
  238SOL    HW1  713   0.795   0.755   2.866  0.7037 -0.1787 -0.2195
  238SOL    HW2  714   0.763   0.913   2.835  3.5433 -1.4803 -2.6468
  239SOL     OW  715   0.248   0.506   2.119 -0.6034  0.1176 -0.1542
  239SOL    HW1  716   0.303   0.592   2.141  0.2860  1.7908 -0.5297
  239SOL    HW2  717   0.220   0.461   2.206  2.4910  3.0031  0.0196
  240SOL     OW  718   2.303   2.587   0.635  0.1327 -0.3433  0.0926
  240SOL    HW1  719   2.240   2.601   0.557 -2.7731  1.0357 -0.0329
  240SOL    HW2  720   2.279   2.647   0.715 -2.4377 -2.0220  1.4604
  241SOL     OW  721   1.532   1.089   1.392 -0.4569 -0.4777 -0.1629
  241SOL    HW1  722   1.445   1.136   1.367 -0.2141  2.5175  0.1444
  241SOL    HW2  723   1.516   1.026   1.472  0.4817 -0.3992  0.0985
  242SOL     OW  724   0.155   0.940   0.697 -0.3712 -0.2026  0.3360
  242SOL    HW1  725   0.075   0.937   0.755  2.5238  1.5344  1.6157
  242SOL    HW2  726   0.189   1.039   0.680 -1.0573  3.4884 -0.7767
  243SOL     OW  727   0.112   0.656   1.216 -0.1716 -0.1274 -0.1758
  243SOL    HW1  728   0.029   0.625   1.272 -1.6828 -1.9588  1.3489
  243SOL    HW2  729   0.169   0.574   1.194 -4.1135  1.9627 -2.4816
  244SOL     OW  730   0.942   0.531   3.037  0.1858  0.1407 -0.3833
  244SOL    HW1  731   0.880   0.585   0.023 -1.1096  1.3375 -0.1631
  244SOL    HW2  732   0.940   0.431   3.066 -0.1012 -2.4035 -0.3763
  245SOL     OW  733   1.930   0.861   3.014  0.0920 -0.5009  0.2225
  245SOL    HW1  734   2.016   0.854   3.067  0.3923  2.5462  0.7103
  245SOL    HW2  735   1.870   0.938   3.045 -0.3993  0.1480  1.2790
  246SOL     OW  736   0.040   0.991   2.058 -0.0881 -0.6116  0.1383
  246SOL    HW1  737   3.036   1.037   2.012 -0.6043 -0.0572  0.7137
  246SOL    HW2  738   0.125   0.997   2.002 -2.1775  1.9250  0.1249
  247SOL     OW  739   0.495   2.992   1.890  0.6680 -0.0998 -0.4304
  247SOL    HW1  740   0.424   2.935   1.933 -1.2520 -0.6509  0.7754
  247SOL    HW2  741   0.581   2.991   1.942 -2.8668 -1.4292 -2.5427
  248SOL     OW  742   0.550   1.340   2.155  0.0325  0.2859  0.2683
  248SOL    HW1  743   0.579   1.412   2.087 -1.1243  0.0678 -0.5507
  248SOL    HW2  744   0.583   1.247   2.132 -1.6930 -0.7295  1.2626
  249SOL     OW  745   0.387   0.383   2.784  0.1224  0.2990  0.0735
  249SOL    HW1  746   0.357   0.310   2.845  2.3472 -0.1292 -0.2660
  249SOL    HW2  747   0.327   0.461   2.769  0.4665 -0.4143  0.0613
  250SOL     OW  748   0.081   0.123   2.752  0.2229  0.4154 -0.2693
  250SOL    HW1  749   0.028   0.036   2.761  1.6145  1.4809  0.2485
  250SOL    HW2  750   0.080   0.146   2.655 -0.5994 -0.6223  1.9754
  251SOL     OW  751   2.956   1.661   0.968 -0.1544 -0.1654 -0.1553
  251SOL    HW1  752   2.949   1.581   0.903  0.9374  0.9375  2.1876
  251SOL    HW2  753   2.899   1.738   0.937 -1.6430  3.2385 -2.3739
  252SOL     OW  754   1.661   2.525   2.111  0.0105 -0.1302 -0.1350
  252SOL    HW1  755   1.751   2.503   2.068 -1.7441 -0.6627 -0.2839
  252SOL    HW2  756   1.651   2.482   2.208 -1.0614  0.4731  2.8132
  253SOL     OW  757   1.594   1.828   2.888  0.3762 -0.1409  0.4690
  253SOL    HW1  758   1.501   1.800   2.853 -3.5324  0.9306 -0.6322
  253SOL    HW2  759   1.663   1.828   2.813 -2.6116 -1.1400 -0.7650
  254SOL     OW  760   0.418   1.439   1.820 -0.4176 -0.1093  0.5888
  254SOL    HW1  761   0.328   1.426   1.774 -0.9316 -1.5632  0.6090
  254SOL    HW2  762   0.434   1.531   1.864  0.9270  0.4377  0.6815
  255SOL     OW  763   0.922   3.013   1.452 -1.0251 -0.2808 -0.2508
  255SOL    HW1  764   1.021   2.999   1.478 -0.6548 -1.7507  0.4169
  255SOL    HW2  765   0.869   2.967   1.530 -1.9106  1.2475 -1.0461
  256SOL     OW  766   2.903   2.515   0.936 -0.0382  0.0444 -0.2620
  256SOL    HW1  767   2.937   2.464   1.014 -0.3196 -0.0721 -0.4858
  256SOL    HW2  768   2.951   2.472   0.854  1.9505  0.9412 -1.0067
  257SOL     OW  769   0.222   2.808   2.739  0.5139 -0.2439  0.2801
  257SOL    HW1  770   0.307   2.857   2.766 -2.0686  0.5462  1.5869
  257SOL    HW2  771   0.142   2.863   2.762  2.8758 -2.4714 -0.5886
  258SOL     OW  772   0.919   2.357   2.053  0.5267 -0.0333  0.0405
  258SOL    HW1  773   0.947   2.260   2.049 -1.2158  0.7466 -0.5896
  258SOL    HW2  774   0.996   2.420   2.049  2.2077  0.6989  0.0069
  259SOL     OW  775   1.045   1.986   2.520  0.6213 -0.4789  0.4962
  259SOL    HW1  776   1.115   1.964   2.594  0.8519  0.8085  0.4769
  259SOL    HW2  777   0.957   1.937   2.532 -0.3998 -0.1524 -4.3568
  260SOL     OW  778   2.196   0.640   2.341  0.3095 -0.2882  0.1926
  260SOL    HW1  779   2.233   0.630   2.436  3.2064 -0.1039  0.2601
  260SOL    HW2  780   2.168   0.548   2.304 -0.1737 -0.8267 -0.5643
  261SOL     OW  781   1.218   0.687   0.846  0.0199 -0.4984 -0.5414
  261SOL    HW1  782   1.250   0.597   0.812  0.1111 -1.7450  1.6018
  261SOL    HW2  783   1.256   0.769   0.799 -0.5496  2.6416 -1.6699
  262SOL     OW  784   2.205   2.011   2.606  0.4894 -0.0282  0.1220
  262SOL    HW1  785   2.263   2.000   2.687 -2.5410 -1.6182  0.9385
  262SOL    HW2  786   2.134   2.084   2.619 -1.2199  1.5440  0.9085
  263SOL     OW  787   0.515   2.369   0.843  0.2118  0.3463  0.4839
  263SOL    HW1  788   0.453   2.444   0.871  1.7718  0.6387  0.1741
  263SOL    HW2  789   0.611   2.395   0.829 -1.1766 -1.6360  0.1604
  264SOL     OW  790   0.170   2.515   0.560  0.5307  0.3277  0.0020
  264SOL    HW1  791   0.206   2.543   0.468 -1.3293 -1.7874 -2.5376
  264SOL    HW2  792   0.167   2.417   0.574 -0.7379  2.1246 -3.1673
  265SOL     OW  793   0.698   1.327   0.106  0.1626 -0.2904 -0.3055
  265SOL    HW1  794   0.647   1.314   0.015  1.2100  1.3702 -1.5480
  265SOL    HW2  795   0.785   1.278   0.115 -1.8479 -1.8552  1.4084
  266SOL     OW  796   0.754   1.991   2.355 -0.3013 -0.0512 -0.6177
  266SOL    HW1  797   0.832   2.043   2.388  2.2320  0.6033 -0.3303
  266SOL    HW2  798   0.729   1.922   2.428 -0.4741 -0.0896  2.0561
  267SOL     OW  799   1.658   0.620   2.241  0.3771  0.0104 -0.1776
  267SOL    HW1  800   1.730   0.590   2.307  0.4430  0.2400 -0.1876
  267SOL    HW2  801   1.574   0.634   2.292  2.0245  0.7520 -1.4074
  268SOL     OW  802   0.687   0.945   0.085  0.1094  0.1417  0.0166
  268SOL    HW1  803   0.747   1.015   0.035  1.2303  1.4509 -0.8225
  268SOL    HW2  804   0.712   0.956   0.189  2.1430 -2.0059  2.4030
  269SOL     OW  805   2.355   1.733   2.242 -0.4335 -0.2995  0.1333
  269SOL    HW1  806   2.436   1.676   2.254 -0.2594 -0.0259  0.1839
  269SOL    HW2  807   2.382   1.806   2.172 -1.3137 -0.7367 -2.5401
  270SOL     OW  808   1.177   1.910   0.081  0.1036 -0.6859  0.3467
  270SOL    HW1  809   1.086   1.892   0.038 -1.9233  2.2843  0.6387
  270SOL    HW2  810   1.231   1.825   0.105 -0.9267  2.5540 -3.6683
  271SOL     OW  811   0.160   0.579   3.049  0.1808  0.8425  0.1800
  271SOL    HW1  812   0.210   0.622   2.974  2.1633  0.2620 -1.3855
  271SOL    HW2  813   0.109   0.498   3.004 -1.2876 -0.8604  0.3999
  272SOL     OW  814   2.868   0.390   0.422 -0.2040  0.3444  0.1913
  272SOL    HW1  815   2.874   0.332   0.507  0.3033 -0.9313 -0.5419
  272SOL    HW2  816   2.959   0.426   0.391  0.6608 -0.7180 -1.7815
  273SOL     OW  817   0.416   0.028   1.656 -0.2772  0.7257 -0.3610
  273SOL    HW1  818   0.438   3.037   1.735 -1.3817 -2.1069  0.7180
  273SOL    HW2  819   0.315   0.015   1.630  0.3608 -1.5525  0.6351
  274SOL     OW  820   2.690   0.447   1.529 -0.1213  0.4815 -0.1049
  274SOL    HW1  821   2.748   0.527   1.563 -0.1814  0.3788 -2.8027
  274SOL    HW2  822   2.616   0.421   1.597  0.4873 -0.6216  1.0379
  275SOL     OW  823   0.915   1.598   0.845  0.0467 -0.5798 -0.0852
  275SOL    HW1  824   0.952   1.588   0.940 -0.6336 -1.4466  2.1250
  275SOL    HW2  825   0.889   1.512   0.800 -0.7043  1.9494 -0.8419
  276SOL     OW  826   0.577   1.214   1.813  0.2023  0.1977 -0.5759
  276SOL    HW1  827   0.531   1.308   1.818 -1.5462  3.0503  0.4008
  276SOL    HW2  828   0.533   1.134   1.862 -1.5457  1.1748 -1.2223
  277SOL     OW  829   1.009   2.644   1.856 -0.5157  0.9122 -0.3327
  277SOL    HW1  830   1.082   2.576   1.887  1.2512 -0.0885  0.3211
  277SOL    HW2  831   0.913   2.626   1.888  1.6501 -0.8234 -1.1655
  278SOL     OW  832   2.170   2.809   1.912  0.2315 -0.2017  0.5468
  278SOL    HW1  833   2.244   2.785   1.976 -0.4644  4.1189  2.5925
  278SOL    HW2  834   2.193   2.821   1.811 -2.6532  0.2299  0.1492
  279SOL     OW  835   1.814   1.442   0.131  0.1511 -0.2270  0.1208
  279SOL    HW1  836   1.885   1.493   0.083 -0.7828 -0.5159  3.4803
  279SOL    HW2  837   1.739   1.426   0.064 -1.1348  2.1266  2.4866
  280SOL     OW  838   1.555   0.937   0.044 -0.1899  0.2018  0.1116
  280SOL    HW1  839   1.525   0.950   0.144  1.3260  0.2866  1.2998
  280SOL    HW2  840   1.532   0.843   0.014 -1.2900  1.8284  3.0907
  281SOL     OW  841   0.518   0.485   1.500  0.1635 -0.3647 -0.4491
  281SOL    HW1  842   0.571   0.573   1.479  1.1845  0.0834  0.7608
  281SOL    HW2  843   0.416   0.509   1.521 -3.0688  0.7979 -0.7237
  282SOL     OW  844   0.262   2.635   0.777 -0.0368  0.2945  0.0919
  282SOL    HW1  845   0.232   2.581   0.696  1.2801 -3.0641  2.8927
  282SOL    HW2  846   0.258   2.736   0.769  1.7155 -0.5640 -1.2230
  283SOL     OW  847   1.285   2.067   2.057  0.1706  0.3869 -0.1435
  283SOL    HW1  848   1.356   1.992   2.043  2.3490 -0.4770  1.8295
  283SOL    HW2  849   1.331   2.157   2.057  1.1610  3.5287  1.3119
  284SOL     OW  850   2.934   2.760   1.044  0.6297 -0.6456 -0.0427
  284SOL    HW1  851   2.854   2.824   1.055 -4.7365  3.4461  0.7443
  284SOL    HW2  852   2.910   2.661   1.025 -2.3123  0.2942 -1.9684
  285SOL     OW  853   0.403   2.319   0.279 -0.0839  0.4309 -0.0763
  285SOL    HW1  854   0.344   2.401   0.300 -0.7048 -0.7046 -0.3284
  285SOL    HW2  855   0.501   2.331   0.303 -0.6962 -2.2795 -0.2483
  286SOL     OW  856   0.528   2.936   1.127  0.6300  0.0174 -0.2357
  286SOL    HW1  857   0.618   2.954   1.170 -3.3731 -1.7792 -0.9976
  286SOL    HW2  858   0.473   3.019   1.112 -1.2977  0.2007 -0.6215
  287SOL     OW  859   0.727   1.282   0.540 -0.0869 -0.3181 -0.1393
  287SOL    HW1  860   0.775   1.223   0.471 -1.5660 -2.7661 -1.6310
  287SOL    HW2  861   0.696   1.369   0.494 -1.2873 -0.6553 -0.6863
  288SOL     OW  862   2.034   1.815   2.775 -0.2475 -0.2759  0.1874
  288SOL    HW1  863   2.120   1.782   2.725 -0.9311  1.8337 -1.3950
  288SOL    HW2  864   2.044   1.849   2.872 -2.5717 -0.2149  1.4038
  289SOL     OW  865   2.964   2.013   0.334 -0.3515  0.4529 -0.2165
  289SOL    HW1  866   2.934   2.051   0.246  2.0880  0.4417  0.5451
  289SOL    HW2  867   3.018   1.928   0.325 -0.5488 -1.0941  0.6807
  290SOL     OW  868   1.433   1.391   1.440  0.1095  0.1852 -0.6630
  290SOL    HW1  869   1.413   1.469   1.379  1.9368 -1.9372  1.2123
  290SOL    HW2  870   1.374   1.311   1.417  2.0561  0.3982 -2.3081
  291SOL     OW  871   1.162   1.237   2.917  0.0799 -0.2443 -0.2707
  291SOL    HW1  872   1.152   1.337   2.900  0.7403  1.9414 -0.8961
  291SOL    HW2  873   1.090   1.183   2.870 -1.4381 -0.5615  0.2800
  292SOL     OW  874   1.078   1.400   0.298  0.2410 -0.3510  0.0745
  292SOL    HW1  875   1.027   1.439   0.383  0.9027  2.4350 -0.8709
  292SOL    HW2  876   1.044   1.440   0.207 -1.4854 -0.6830 -1.2171
  293SOL     OW  877   1.247   2.755   0.833  0.5997 -0.4504  0.4813
  293SOL    HW1  878   1.146   2.773   0.826  1.0475  1.1644  1.7463
  293SOL    HW2  879   1.286   2.741   0.736 -1.1689 -0.1023 -0.1979
  294SOL     OW  880   1.807   1.333   2.461 -0.1629 -0.4247 -0.2058
  294SOL    HW1  881   1.776   1.338   2.364  0.3167  0.3704 -0.1434
  294SOL    HW2  882   1.806   1.237   2.495 -0.8221  0.1134  0.6946
  295SOL     OW  883   1.697   2.020   3.060 -0.9900 -0.5308 -0.2340
  295SOL    HW1  884   1.632   1.968   3.005 -0.0682  2.0846  2.7498
  295SOL    HW2  885   1.732   2.103   3.009  0.3629  0.6691 -2.1662
  296SOL     OW  886   1.317   0.872   1.758 -0.1921  0.3342 -0.9251
  296SOL    HW1  887   1.282   0.817   1.680  0.9204 -0.7010 -0.0765
  296SOL    HW2  888   1.252   0.951   1.775 -0.4904  0.5439  1.3829
  297SOL     OW  889   2.945   0.669   1.863 -0.0100 -0.0241  0.4809
  297SOL    HW1  890   2.845   0.695   1.866 -3.3935 -1.3791 -1.5321
  297SOL    HW2  891   3.006   0.741   1.822  2.3175  0.1595  1.7473
  298SOL     OW  892   1.309   1.613   1.249 -0.1412  0.7925 -0.1769
  298SOL    HW1  893   1.293   1.547   1.171 -1.9628  0.1725 -0.1928
  298SOL    HW2  894   1.357   1.693   1.207  0.7966 -1.7687  0.4873
  299SOL     OW  895   1.211   2.921   2.551  0.1163  0.3666  0.6501
  299SOL    HW1  896   1.295   2.925   2.492 -1.8795 -0.0589  1.5954
  299SOL    HW2  897   1.140   2.865   2.505  1.8635 -1.8499 -2.9175
  300SOL     OW  898   2.571   1.360   0.092 -0.4490  0.5150  0.1185
  300SOL    HW1  899   2.643   1.361   0.016 -2.5220 -2.8568 -4.5757
  300SOL    HW2  900   2.521   1.448   0.086  0.3225 -1.1930  0.3832
  301SOL     OW  901   1.867   0.632   2.433 -0.1417 -0.1865  0.0657
  301SOL    HW1  902   1.915   0.542   2.440  1.5471 -1.9376  0.0290
  301SOL    HW2  903   1.924   0.705   2.389  0.0608 -0.3862  0.4275
  302SOL     OW  904   2.505   1.985   2.657 -0.2247 -0.3359  0.0080
  302SOL    HW1  905   2.479   1.903   2.597  0.2737 -2.1292 -0.9177
  302SOL    HW2  906   2.465   1.973   2.749 -2.5634  1.0611 -1.7675
  303SOL     OW  907   0.337   2.232   0.043  0.1073 -0.3043 -0.4244
  303SOL    HW1  908   0.373   2.284   0.125  0.6746  0.9425 -0.3009
  303SOL    HW2  909   0.240   2.258   0.021 -1.0401  2.2985  1.2018
  304SOL     OW  910   0.407   1.861   1.306 -0.0814  0.3048  0.1318
  304SOL    HW1  911   0.330   1.817   1.360 -2.1027 -0.5928  1.4347
  304SOL    HW2  912   0.460   1.793   1.253  1.5904  1.0094  2.7449
  305SOL     OW  913   2.660   0.727   1.810  0.3375 -0.0170  0.3102
  305SOL    HW1  914   2.657   0.650   1.878 -0.6335  1.4213  0.0341
  305SOL    HW2  915   2.581   0.727   1.743  2.0363 -0.8531  1.0347
  306SOL     OW  916   1.764   1.441   1.188  0.8065 -0.6690  0.2243
  306SOL    HW1  917   1.675   1.471   1.152  3.6397 -0.4416  0.7571
  306SOL    HW2  918   1.755   1.359   1.244  0.3894  1.0257  1.9258
  307SOL     OW  919   3.033   0.398   0.940  0.5519  0.0539  0.3868
  307SOL    HW1  920   0.060   0.390   0.945 -2.1652  0.3900 -0.4554
  307SOL    HW2  921   2.990   0.380   1.031  0.5773 -1.9314  0.7185
  308SOL     OW  922   0.184   1.401   1.662 -0.4016 -0.0171 -0.8253
  308SOL    HW1  923   0.180   1.411   1.562 -2.3155 -1.2033  1.9394
  308SOL    HW2  924   0.101   1.353   1.689  0.1026  1.6454  0.4930
  309SOL     OW  925   2.680   2.001   1.958  0.4065 -0.2057  1.0437
  309SOL    HW1  926   2.742   1.944   2.013 -0.9626 -0.0740 -2.0740
  309SOL    HW2  927   2.706   2.100   1.962  0.2451 -0.2754 -0.7234
  310SOL     OW  928   2.294   1.079   2.564 -0.2354 -0.1052 -0.3879
  310SOL    HW1  929   2.391   1.059   2.597 -2.4083  2.1171 -1.7167
  310SOL    HW2  930   2.230   0.998   2.576 -0.4912  1.2242  1.8361
  311SOL     OW  931   1.635   1.370   3.040  0.6533 -0.8865 -0.1256
  311SOL    HW1  932   1.544   1.412   3.068  0.7628  1.5751 -2.6118
  311SOL    HW2  933   1.626   1.280   2.994  1.6625 -3.1941  3.5296
  312SOL     OW  934   1.391   2.125   2.566 -0.4688  0.8969 -0.4702
  312SOL    HW1  935   1.466   2.189   2.582 -2.7309  1.3147  2.1555
  312SOL    HW2  936   1.382   2.088   2.471  0.8253 -0.1416  0.3993
  313SOL     OW  937   0.257   0.542   0.704 -0.7604  0.4171  0.4733
  313SOL    HW1  938   0.319   0.530   0.620  0.5013  0.1728  1.2265
  313SOL    HW2  939   0.178   0.601   0.680  1.4611  0.3435  1.0367
  314SOL     OW  940   0.782   1.768   1.245 -0.4227 -0.6903 -0.0733
  314SOL    HW1  941   0.747   1.857   1.289  2.4025 -0.0143  1.3342
  314SOL    HW2  942   0.853   1.791   1.174  1.2819 -0.0863  0.9085
  315SOL     OW  943   0.633   2.133   2.143  0.3627  0.7467  0.6247
  315SOL    HW1  944   0.535   2.128   2.168 -1.8664 -0.8006  0.9326
  315SOL    HW2  945   0.693   2.101   2.222  0.3249 -0.8836 -0.4688
  316SOL     OW  946   0.516   2.679   0.681  0.0694  0.6120 -0.1631
  316SOL    HW1  947   0.451   2.630   0.741  1.0346 -0.2269 -2.5482
  316SOL    HW2  948   0.582   2.731   0.737 -2.6154 -0.0037 -0.9382
  317SOL     OW  949   2.647   0.091   1.226 -0.9423 -0.3387  0.1140
  317SOL    HW1  950   2.601   0.151   1.155  0.4802 -0.1898  1.0544
  317SOL    HW2  951   2.713   0.022   1.186 -0.0044  0.6138  3.2873
  318SOL     OW  952   2.213   2.594   0.199 -0.3120  0.1251 -0.5954
  318SOL    HW1  953   2.305   2.636   0.209 -0.2680  0.9910  1.4849
  318SOL    HW2  954   2.179   2.581   0.294  1.9838 -1.2335  1.5977
  319SOL     OW  955   1.575   0.843   2.528 -0.2446 -0.5037  0.1030
  319SOL    HW1  956   1.651   0.841   2.598  0.6574  1.9204  1.0213
  319SOL    HW2  957   1.554   0.748   2.486  1.4010 -1.4905  2.5307
  320SOL     OW  958   0.035   2.193   2.238  0.4960  0.2969  0.1718
  320SOL    HW1  959   0.027   2.278   2.182  3.3559  0.8850 -1.1672
  320SOL    HW2  960   0.133   2.170   2.237 -2.2221  0.1334 -0.8816
  321SOL     OW  961   0.758   2.409   0.110 -0.2458  0.3030 -0.0313
  321SOL    HW1  962   0.820   2.463   0.166 -2.2601  0.6494 -0.4813
  321SOL    HW2  963   0.679   2.457   0.064  2.7703  2.0809 -1.3273
  322SOL     OW  964   2.565   0.626   2.544  0.2895  0.2518  0.1254
  322SOL    HW1  965   2.612   0.541   2.582 -1.9210  1.3774  2.3021
  322SOL    HW2  966   2.458   0.607   2.544 -3.0776  1.2091 -0.7549
  323SOL     OW  967   2.381   1.049   0.912  0.2400 -0.1552 -0.7222
  323SOL    HW1  968   2.400   1.151   0.919  4.4241 -0.1351  1.1422
  323SOL    HW2  969   2.442   0.987   0.858 -1.8884 -1.7436  3.0935
  324SOL     OW  970   2.912   0.356   1.196  0.4363 -0.1169  0.1548
  324SOL    HW1  971   2.954   0.438   1.239  1.7797 -1.3273  0.2349
  324SOL    HW2  972   2.878   0.297   1.273  0.0598  2.2051  1.1110
  325SOL     OW  973   0.086   3.005   1.841 -0.3402 -0.6922  0.0494
  325SOL    HW1  974   0.063   0.010   1.896  0.2044 -3.2323 -1.7160
  325SOL    HW2  975   0.111   3.031   1.742  2.6823 -0.9338 -3.1652
  326SOL     OW  976   1.983   2.846   0.215  0.1543  0.2705  0.5390
  326SOL    HW1  977   1.918   2.788   0.163 -2.6045 -0.9513 -0.6352
  326SOL    HW2  978   2.068   2.792   0.241 -0.1114 -0.1559 -0.7210
  327SOL     OW  979   1.923   1.624   0.517  0.5674 -0.6390  0.2357
  327SOL    HW1  980   1.931   1.719   0.476 -0.4327  0.8012  0.2857
  327SOL    HW2  981   1.843   1.585   0.472  1.8243  0.8180  0.1928
  328SOL     OW  982   0.115   2.188   2.728 -0.0027  0.3191  0.4276
  328SOL    HW1  983   0.078   2.195   2.822  1.4055 -0.3849 -1.9291
  328SOL    HW2  984   0.209   2.156   2.721 -4.0602  1.1399 -0.5389
  329SOL     OW  985   0.196   2.183   1.500 -0.3906  0.2231  0.0497
  329SOL    HW1  986   0.278   2.193   1.435  1.6421 -0.1680  1.4850
  329SOL    HW2  987   0.226   2.176   1.595  0.0401 -1.2148 -2.1991
  330SOL     OW  988   2.370   0.792   2.768  0.9070  0.4284  0.4408
  330SOL    HW1  989   2.457   0.750   2.730  0.2629  0.2897  1.9545
  330SOL    HW2  990   2.303   0.799   2.691 -2.5328  1.7000  0.7233
  331SOL     OW  991   2.507   2.303   0.975  0.1137  0.3644  0.2661
  331SOL    HW1  992   2.565   2.264   1.049  0.0404 -0.6310  0.2859
  331SOL    HW2  993   2.447   2.234   0.930 -1.7302 -1.8950  0.5812
  332SOL     OW  994   0.662   2.873   0.848  0.3498  0.1578  0.0448
  332SOL    HW1  995   0.615   2.959   0.823  0.8354 -0.8251 -2.7356
  332SOL    HW2  996   0.653   2.858   0.947 -0.4579  2.1791  2.3883
  333SOL     OW  997   2.156   1.882   2.352 -0.2928 -0.7990 -0.1794
  333SOL    HW1  998   2.165   1.925   2.443 -1.2354  0.7839 -1.3594
  333SOL    HW2  999   2.248   1.841   2.330  0.6521 -1.7912 -0.2158
  334SOL     OW 1000   0.489   1.310   0.732 -0.0499  0.3593 -0.0277
  334SOL    HW1 1001   0.525   1.406   0.746 -1.8556  0.2452  0.2341
  334SOL    HW2 1002   0.556   1.248   0.686  1.4140 -0.5116 -1.5753
  335SOL     OW 1003   3.014   1.966   2.384  0.2573  0.3362 -0.1592
  335SOL    HW1 1004   3.060   2.033   2.321  1.5865 -0.2126 -0.0578
  335SOL    HW2 1005   2.998   2.005   2.477 -0.6151  0.2408  2.6764
  336SOL     OW 1006   2.406   2.728   2.078 -0.4687  0.5870 -0.0571
  336SOL    HW1 1007   2.454   2.640   2.071 -2.6347 -0.2160  0.4225
  336SOL    HW2 1008   2.469   2.803   2.056  2.2421 -0.9084 -0.6258
  337SOL     OW 1009   0.674   0.821   0.651 -0.3031 -0.1083 -0.2008
  337SOL    HW1 1010   0.632   0.743   0.700  1.6361  2.2590 -0.4203
  337SOL    HW2 1011   0.708   0.889   0.720  1.3653  0.2495 -1.5885
  338SOL     OW 1012   1.379   1.813   1.106  0.1819  0.2233 -0.3622
  338SOL    HW1 1013   1.480   1.826   1.107  0.2785  0.1286  1.7177
  338SOL    HW2 1014   1.327   1.893   1.143  0.0181 -1.5400  0.7637
  339SOL     OW 1015   0.070   1.760   1.407  0.2228 -0.2392  0.4051
  339SOL    HW1 1016   0.063   1.795   1.501  0.1509 -1.6335 -1.9141
  339SOL    HW2 1017   3.062   1.794   1.351 -0.4124 -2.1021 -1.4580
  340SOL     OW 1018   1.127   2.978   1.814  0.1367  0.2688 -0.2254
  340SOL    HW1 1019   1.170   3.070   1.823  0.1996 -0.9794 -2.5406
  340SOL    HW2 1020   1.205   2.911   1.800  0.0376 -0.4497 -2.2977
  341SOL     OW 1021   1.523   1.470   1.013  0.4310 -0.2970 -0.1263
  341SOL    HW1 1022   1.417   1.456   1.003 -2.4580 -0.9082  0.9332
  341SOL    HW2 1023   1.559   1.543   0.957 -3.1257 -0.2279  1.1600
  342SOL     OW 1024   2.395   1.310   0.940  0.0675  0.1849  0.9993
  342SOL    HW1 1025   2.484   1.330   0.987  0.7913 -0.1182 -2.4054
  342SOL    HW2 1026   2.336   1.387   0.948  1.9182  0.3557  0.3312
  343SOL     OW 1027   2.088   0.127   0.802  0.0316 -0.2787  0.2429
  343SOL    HW1 1028   2.162   0.191   0.769  1.8916  0.6880 -2.4598
  343SOL    HW2 1029   2.135   0.039   0.814  2.3341  1.1207  0.7067
  344SOL     OW 1030   2.132   0.140   0.455  0.4942  0.3067 -0.3707
  344SOL    HW1 1031   2.119   0.231   0.500  1.3069 -0.4476 -0.4079
  344SOL    HW2 1032   2.231   0.126   0.446  1.3352 -0.9537 -0.9478
  345SOL     OW 1033   0.857   2.959   1.699  0.3279 -0.4884 -0.5107
  345SOL    HW1 1034   0.802   3.033   1.745 -0.0153 -1.4705 -1.4427
  345SOL    HW2 1035   0.952   2.965   1.721 -2.5138 -0.5966  0.0172
  346SOL     OW 1036   2.463   1.973   0.676 -0.2528  0.4806  0.3907
  346SOL    HW1 1037   2.546   1.953   0.736  0.7544 -3.5060 -0.2334
  346SOL    HW2 1038   2.381   1.996   0.737  0.3537  0.2207  0.0376
  347SOL     OW 1039   2.488   2.854   1.348 -0.2561  0.2855  0.0828
  347SOL    HW1 1040   2.562   2.914   1.313 -0.0941  0.0119 -1.1064
  347SOL    HW2 1041   2.398   2.891   1.310  0.2421 -2.1299  2.4559
  348SOL     OW 1042   0.923   0.980   1.601 -0.1774 -0.5356  0.9491
  348SOL    HW1 1043   0.869   1.063   1.577 -0.4656  1.7431 -0.8013
  348SOL    HW2 1044   0.920   0.910   1.529 -0.9552  3.5379  1.8874
  349SOL     OW 1045   2.305   0.569   2.586 -0.4735  0.1749  0.7536
  349SOL    HW1 1046   2.274   0.471   2.560 -1.4477 -0.6669  1.9288
  349SOL    HW2 1047   2.257   0.584   2.675  1.2514  0.6685  3.6949
  350SOL     OW 1048   1.969   2.299   0.261  0.3464 -0.0544  0.5391
  350SOL    HW1 1049   1.967   2.342   0.355 -0.2931 -1.4491  0.7351
  350SOL    HW2 1050   2.065   2.277   0.239  0.6739  0.8726 -1.1870
  351SOL     OW 1051   1.294   0.586   0.126  0.3126 -1.2219  0.1157
  351SOL    HW1 1052   1.219   0.646   0.159  3.7312 -0.2806  1.7264
  351SOL    HW2 1053   1.337   0.620   0.039  0.1450 -0.3749  1.7659
  352SOL     OW 1054   1.833   2.255   2.495  0.0372 -0.1988 -0.0135
  352SOL    HW1 1055   1.873   2.184   2.555 -1.9062  0.5551  1.1306
  352SOL    HW2 1056   1.838   2.343   2.545 -2.0535 -2.5628 -0.2077
  353SOL     OW 1057   0.377   1.362   2.610 -0.0389  0.0514  0.3199
  353SOL    HW1 1058   0.287   1.340   2.636  3.3811  1.3937 -2.1472
  353SOL    HW2 1059   0.377   1.445   2.549  1.7685 -3.2462  0.3887
  354SOL     OW 1060   0.505   2.686   2.585  0.2909 -0.1254  0.1935
  354SOL    HW1 1061   0.526   2.727   2.494  0.1765 -2.4339  1.4137
  354SOL    HW2 1062   0.551   2.596   2.592  1.6209  0.9561 -0.6257
  355SOL     OW 1063   2.409   2.642   1.499  0.7072 -0.3403  0.5404
  355SOL    HW1 1064   2.446   2.725   1.447  1.1849 -0.2016  2.2120
  355SOL    HW2 1065   2.342   2.673   1.567 -0.1819  0.8259 -0.5489
  356SOL     OW 1066   3.002   0.936   0.838 -0.4469 -0.1641 -0.5094
  356SOL    HW1 1067   2.961   1.024   0.815  0.5320  0.8446 -0.2069
  356SOL    HW2 1068   2.933   0.862   0.834  0.8011 -0.9541 -2.7600
  357SOL     OW 1069   3.057   0.125   1.533  0.1557 -0.4426  0.1003
  357SOL    HW1 1070   3.050   0.165   1.630 -0.2215  1.9365  2.5914
  357SOL    HW2 1071   2.975   0.167   1.484 -1.3492 -0.2894  0.7667
  358SOL     OW 1072   2.822   1.539   1.500 -0.3306 -0.0206  0.0925
  358SOL    HW1 1073   2.826   1.510   1.596  1.2214  0.6996 -0.2011
  358SOL    HW2 1074   2.899   1.510   1.443 -1.8423  4.2501 -1.4336
  359SOL     OW 1075   2.673   2.574   2.386 -0.1638 -0.0095  0.0354
  359SOL    HW1 1076   2.698   2.519   2.468  1.0027 -1.2821  0.0126
  359SOL    HW2 1077   2.683   2.512   2.305 -0.3038  0.9820 -1.1429
  360SOL     OW 1078   1.093   0.557   1.287 -0.2218  0.1797 -0.4189
  360SOL    HW1 1079   1.074   0.478   1.348  2.9350 -1.5964 -0.1647
  360SOL    HW2 1080   1.168   0.608   1.327 -2.2089 -0.2885 -0.5219
  361SOL     OW 1081   2.343   2.520   1.022 -0.5074 -0.1369 -0.0409
  361SOL    HW1 1082   2.399   2.450   0.977  2.0033  1.4007 -0.6725
  361SOL    HW2 1083   2.337   2.506   1.125 -0.0290 -0.9767 -1.6193
  362SOL     OW 1084   1.207   0.224   0.635 -0.2014 -0.5208  0.3975
  362SOL    HW1 1085   1.108   0.249   0.655 -0.8811 -0.3500 -2.1778
  362SOL    HW2 1086   1.219   0.123   0.655 -1.1146  0.7249 -0.3496
  363SOL     OW 1087   1.582   1.177   0.969  0.4684  0.4474  0.6802
  363SOL    HW1 1088   1.610   1.151   0.872  2.3575  0.4792 -3.0155
  363SOL    HW2 1089   1.543   1.272   0.971 -0.5811  2.6758 -1.1159
  364SOL     OW 1090   0.206   0.837   1.546  0.2638 -0.3818 -0.0463
  364SOL    HW1 1091   0.264   0.904   1.596 -0.8441 -0.2592  3.0386
  364SOL    HW2 1092   0.230   0.829   1.449  1.3179  0.5748 -0.6937
  365SOL     OW 1093   2.703   0.572   1.013  0.3756 -0.1378  0.0424
  365SOL    HW1 1094   2.715   0.492   0.962  0.5067  2.8088  0.1796
  365SOL    HW2 1095   2.636   0.545   1.088 -2.6576  1.9947  2.1904
  366SOL     OW 1096   2.837   1.472   0.786 -0.6514  0.0372 -0.6886
  366SOL    HW1 1097   2.776   1.549   0.757  1.8192  1.2345  2.4929
  366SOL    HW2 1098   2.790   1.384   0.781  1.3027  1.1386 -1.8326
  367SOL     OW 1099   2.037   2.013   2.150  0.2026 -0.3244  0.3554
  367SOL    HW1 1100   1.972   2.078   2.191  1.0280  0.3666  0.7024
  367SOL    HW2 1101   2.096   1.979   2.225 -0.8982  2.3571 -3.0902
  368SOL     OW 1102   2.597   2.145   1.407 -0.4229 -0.3370  0.0452
  368SOL    HW1 1103   2.635   2.149   1.499 -0.8843 -0.2640 -1.4162
  368SOL    HW2 1104   2.580   2.048   1.379 -0.9140  2.0685 -0.4709
  369SOL     OW 1105   2.384   2.808   2.698 -0.2090 -0.0057  0.1368
  369SOL    HW1 1106   2.435   2.770   2.621 -0.1021 -0.0528  2.6441
  369SOL    HW2 1107   2.448   2.860   2.759 -1.6458  0.8248  0.8098
  370SOL     OW 1108   0.765   0.595   1.068 -0.2648 -0.3742  0.1227
  370SOL    HW1 1109   0.765   0.527   0.994 -1.9254 -0.5948  1.3529
  370SOL    HW2 1110   0.687   0.577   1.130  0.0587  0.9586 -0.9482
  371SOL     OW 1111   0.561   1.541   0.457  0.1066  0.0622 -0.3791
  371SOL    HW1 1112   0.597   1.626   0.420 -3.1384 -1.8366  2.1233
  371SOL    HW2 1113   0.541   1.555   0.554 -1.1384 -1.0792 -3.5755
  372SOL     OW 1114   0.578   1.146   2.590 -0.0366 -0.4197 -0.5402
  372SOL    HW1 1115   0.653   1.209   2.563  1.3140 -0.3696  0.3160
  372SOL    HW2 1116   0.493   1.197   2.618 -0.6139 -1.0585  0.8467
  373SOL     OW 1117   1.184   2.585   2.615  0.0438 -0.3480 -0.1922
  373SOL    HW1 1118   1.097   2.594   2.671 -0.8857  0.9974 -1.3991
  373SOL    HW2 1119   1.261   2.645   2.649  1.7758  4.8427 -2.0920
  374SOL     OW 1120   0.886   1.906   0.498  0.7979  0.0431 -0.0109
  374SOL    HW1 1121   0.882   1.884   0.596 -1.2450 -0.1463  1.0182
  374SOL    HW2 1122   0.981   1.881   0.459  0.8138 -0.5032  0.5259
  375SOL     OW 1123   0.702   0.695   1.855 -0.3045  0.8781 -0.0142
  375SOL    HW1 1124   0.724   0.593   1.874 -1.9734 -3.2673  0.1405
  375SOL    HW2 1125   0.781   0.751   1.890 -0.3142 -1.4423  0.7818
  376SOL     OW 1126   0.061   2.449   1.470 -0.5153 -0.3711 -0.1152
  376SOL    HW1 1127   0.108   2.360   1.469 -0.3210  1.4709 -0.6930
  376SOL    HW2 1128   0.107   2.519   1.525  1.3327 -1.1117  1.4764
  377SOL     OW 1129   2.857   1.632   3.023  0.3646  0.4132 -0.1913
  377SOL    HW1 1130   2.861   1.645   2.920  1.4348 -0.7847 -1.5691
  377SOL    HW2 1131   2.814   1.543   3.046  0.8053  0.0876  0.8667
  378SOL     OW 1132   1.671   2.987   2.934 -0.6598 -0.0301 -0.0309
  378SOL    HW1 1133   1.592   2.994   3.000 -0.2199 -1.2118 -0.3691
  378SOL    HW2 1134   1.758   3.032   2.971 -0.9291  0.5606  0.1045
  379SOL     OW 1135   1.853   0.547   0.543 -0.2883 -0.7163  0.1395
  379SOL    HW1 1136   1.850   0.454   0.576  1.9484  0.2504 -0.2109
  379SOL    HW2 1137   1.912   0.602   0.607 -1.9225  0.6405 -1.3016
  380SOL     OW 1138   0.095   1.813   1.712 -0.7751 -0.3618 -0.4723
  380SOL    HW1 1139   0.001   1.848   1.688 -0.2633  0.8788  2.1785
  380SOL    HW2 1140   0.147   1.882   1.764 -0.7132  0.2470 -0.1075
  381SOL     OW 1141   2.276   1.341   2.544  0.3596  0.6747  0.7533
  381SOL    HW1 1142   2.345   1.361   2.466 -2.3711 -0.0251 -0.8753
  381SOL    HW2 1143   2.269   1.239   2.561 -0.0743 -0.0512 -0.2977
  382SOL     OW 1144   3.039   2.952   2.830  0.2868  0.0315 -0.4090
  382SOL    HW1 1145   3.004   2.952   2.923 -1.0385  0.8241 -4.0508
  382SOL    HW2 1146   2.967   2.971   2.759  0.5417  2.0638  1.9756
  383SOL     OW 1147   1.287   1.124   0.043  0.2593 -0.2524  0.3921
  383SOL    HW1 1148   1.238   1.168   3.040  0.8662  0.1166  1.5359
  383SOL    HW2 1149   1.383   1.130   0.018 -2.3051 -1.0324 -0.7004
  384SOL     OW 1150   1.153   1.875   1.376  0.3078  0.1855 -0.1203
  384SOL    HW1 1151   1.233   1.888   1.433 -2.4917  1.4070 -2.6074
  384SOL    HW2 1152   1.139   1.952   1.312 -1.4801 -0.4828 -1.6977
  385SOL     OW 1153   1.903   2.737   1.008  0.4458  0.5432 -0.8471
  385SOL    HW1 1154   1.916   2.836   1.000  0.4551 -0.6943  0.0214
  385SOL    HW2 1155   1.896   2.693   0.918 -1.1699  1.8417  1.7315
  386SOL     OW 1156   1.629   1.616   0.804 -0.2682  0.0004  0.5094
  386SOL    HW1 1157   1.587   1.694   0.755 -0.4125  1.4580 -1.6918
  386SOL    HW2 1158   1.729   1.620   0.780  2.2298  0.5059  0.1001
  387SOL     OW 1159   2.717   2.175   1.156  0.0721 -0.0507 -0.1321
  387SOL    HW1 1160   2.805   2.228   1.158 -1.2820  0.6417  2.4666
  387SOL    HW2 1161   2.681   2.175   1.251 -0.7799  1.3730 -1.2199
  388SOL     OW 1162   2.943   1.061   1.646 -0.1601  0.0545 -0.9727
  388SOL    HW1 1163   3.000   1.108   1.577 -0.2418  1.2095 -0.1999
  388SOL    HW2 1164   3.000   0.980   1.670 -0.3859  3.6569  0.6474
  389SOL     OW 1165   2.079   0.270   0.023  0.2186 -0.3694 -0.4011
  389SOL    HW1 1166   2.000   0.331   0.045  1.8454 -0.1947  1.7750
  389SOL    HW2 1167   2.076   0.186   0.076  1.2044  1.0196 -1.6104
  390SOL     OW 1168   1.342   1.730   2.762  0.4836 -0.3323 -0.8406
  390SOL    HW1 1169   1.273   1.804   2.771 -1.3037  1.0103  3.2457
  390SOL    HW2 1170   1.330   1.690   2.674  0.2614  3.3376 -0.2517
  391SOL     OW 1171   1.222   2.179   0.223  0.4203 -0.1500 -0.2214
  391SOL    HW1 1172   1.297   2.127   0.260  0.7590  4.1295 -2.2576
  391SOL    HW2 1173   1.163   2.122   0.162 -1.6504  0.4380 -0.3271
  392SOL     OW 1174   0.221   2.638   1.638  0.0813 -0.1229 -0.7164
  392SOL    HW1 1175   0.248   2.570   1.713  1.3845  0.3265 -1.3777
  392SOL    HW2 1176   0.300   2.663   1.579 -0.1759  2.3685  1.3922
  393SOL     OW 1177   1.297   2.391   0.072  0.0179  0.5487  0.2522
  393SOL    HW1 1178   1.264   2.337   0.154 -3.3120  1.3864  0.7366
  393SOL    HW2 1179   1.391   2.357   0.055 -0.6858  0.5587 -0.6947
  394SOL     OW 1180   0.393   0.775   2.167 -0.0078 -0.5109 -0.1797
  394SOL    HW1 1181   0.341   0.860   2.186 -1.3202 -0.5876 -2.4167
  394SOL    HW2 1182   0.480   0.769   2.218 -1.2115  0.2217  0.7732
  395SOL     OW 1183   0.410   1.238   0.983  0.0881  0.1695  0.5017
  395SOL    HW1 1184   0.427   1.263   0.885 -1.5917  1.6659  2.3695
  395SOL    HW2 1185   0.320   1.193   0.998  1.5884 -1.1272 -2.4342
  396SOL     OW 1186   1.775   1.050   2.037 -0.0711  0.4915 -0.2399
  396SOL    HW1 1187   1.714   0.975   2.069 -0.2410  0.6082 -0.1410
  396SOL    HW2 1188   1.738   1.140   2.062 -0.1050  1.0662 -0.0196
  397SOL     OW 1189   0.861   0.284   0.070 -0.5262 -0.2169 -0.3558
  397SOL    HW1 1190   0.783   0.219   0.049  1.6833 -0.2304  3.4829
  397SOL    HW2 1191   0.880   0.295   0.170 -0.0352 -1.5507  2.3262
  398SOL     OW 1192   0.700   2.436   2.711  0.0106  0.2937 -0.1609
  398SOL    HW1 1193   0.769   2.415   2.638 -3.1807 -2.3296 -4.3577
  398SOL    HW2 1194   0.740   2.419   2.807  2.9215 -1.3899  1.3332
  399SOL     OW 1195   1.742   1.843   2.519 -0.3539 -0.1381  0.4816
  399SOL    HW1 1196   1.770   1.787   2.599  0.9791 -1.3435 -0.4219
  399SOL    HW2 1197   1.734   1.788   2.433  1.3845  0.6187 -1.2152
  400SOL     OW 1198   2.091   1.572   1.418 -0.6539  0.2802  0.2919
  400SOL    HW1 1199   2.070   1.665   1.377  1.8743  0.1531 -1.7028
  400SOL    HW2 1200   2.079   1.496   1.354  0.1957 -0.8275  0.4164
  401SOL     OW 1201   1.220   1.146   1.038 -0.1669 -0.4910  0.4469
  401SOL    HW1 1202   1.215   1.042   1.040  0.8628 -0.2794 -0.5526
  401SOL    HW2 1203   1.255   1.175   0.948  1.6566 -1.0028 -2.8350
  402SOL     OW 1204   2.950   2.427   1.881  0.4554 -0.3404  0.3336
  402SOL    HW1 1205   2.916   2.476   1.794  1.0665  2.5961 -0.2308
  402SOL    HW2 1206   2.967   2.499   1.953  0.3897  4.2881  3.5603
  403SOL     OW 1207   0.031   1.581   1.854 -0.0878 -0.1353 -0.5579
  403SOL    HW1 1208   0.064   1.666   1.804 -1.1781 -1.8697  1.7975
  403SOL    HW2 1209   0.073   1.499   1.813 -0.9104 -1.1678  0.0521
  404SOL     OW 1210   2.083   2.030   1.440 -0.1895 -0.1295  0.4056
  404SOL    HW1 1211   2.087   2.021   1.539 -1.1382 -0.0390 -1.7429
  404SOL    HW2 1212   2.126   2.118   1.410 -1.9170  2.1021  1.8591
  405SOL     OW 1213   2.632   0.352   2.870 -0.0811  0.2176 -0.6611
  405SOL    HW1 1214   2.610   0.437   2.920  2.3795 -0.6421  1.1800
  405SOL    HW2 1215   2.648   0.377   2.771  1.6036  1.8755 -2.3352
  406SOL     OW 1216   0.963   1.457   2.490 -0.7113  0.0416 -0.3477
  406SOL    HW1 1217   0.925   1.494   2.406  1.1314 -2.2884  2.6392
  406SOL    HW2 1218   0.928   1.360   2.502 -0.0845  1.3186 -0.3710
  407SOL     OW 1219   1.830   2.678   0.077  0.2300 -0.1230 -0.6858
  407SOL    HW1 1220   1.857   2.586   0.040 -0.7795 -1.5585 -1.6984
  407SOL    HW2 1221   1.726   2.684   0.081 -0.8065  2.2368 -2.2179
  408SOL     OW 1222   0.507   0.039   0.792  0.2295 -0.1045  0.0357
  408SOL    HW1 1223   0.483   0.076   0.698 -1.8609  0.1627 -2.0162
  408SOL    HW2 1224   0.429   0.045   0.854 -1.7822  2.2646 -1.4917
  409SOL     OW 1225   2.315   1.779   1.115 -0.2563  0.0478  0.6213
  409SOL    HW1 1226   2.278   1.754   1.021 -1.5393 -2.9012 -0.2772
  409SOL    HW2 1227   2.409   1.751   1.123 -3.7348 -0.4727 -1.0687
  410SOL     OW 1228   2.491   2.104   2.982  0.7986  0.2565 -1.2230
  410SOL    HW1 1229   2.530   2.078   0.001  0.8483 -0.4682  1.9350
  410SOL    HW2 1230   2.548   2.167   2.924 -1.8096  1.8909 -0.5525
  411SOL     OW 1231   3.030   0.863   0.379 -0.1374  0.2519  0.7708
  411SOL    HW1 1232   0.004   0.810   0.452  0.4419  2.3732  2.7455
  411SOL    HW2 1233   2.960   0.928   0.415 -1.1728  1.6509  2.4505
  412SOL     OW 1234   1.646   2.583   0.358 -0.7101 -0.2241  0.4709
  412SOL    HW1 1235   1.676   2.673   0.399 -1.0020  0.3426  0.5687
  412SOL    HW2 1236   1.662   2.575   0.258 -0.0448 -1.5813  0.8637
  413SOL     OW 1237   1.980   0.203   2.275 -0.1464  0.1084 -0.2395
  413SOL    HW1 1238   1.968   0.211   2.171  0.5081 -0.8406 -2.4522
  413SOL    HW2 1239   1.963   0.112   2.309  1.5808  1.6145 -1.1270
  414SOL     OW 1240   0.134   0.255   0.629 -0.2733 -0.0936 -0.4507
  414SOL    HW1 1241   0.113   0.335   0.569  1.1801 -0.4580  3.3427
  414SOL    HW2 1242   0.142   0.293   0.721 -1.4054 -0.0780 -1.1352
  415SOL     OW 1243   0.850   1.529   1.359  0.0619  0.2019  0.3900
  415SOL    HW1 1244   0.828   1.624   1.330 -0.9490 -0.2930 -0.9681
  415SOL    HW2 1245   0.776   1.496   1.417 -2.5381 -0.3438  0.7581
  416SOL     OW 1246   0.569   3.053   0.330  0.4106 -0.0098 -0.0543
  416SOL    HW1 1247   0.520   3.046   0.243  0.5008  0.7586  2.9411
  416SOL    HW2 1248   0.535   2.985   0.396  1.4572  1.6564  0.5060
  417SOL     OW 1249   2.706   2.923   1.068 -0.7805  0.1446  0.3585
  417SOL    HW1 1250   2.644   2.840   1.075  1.1373 -3.5052  0.5874
  417SOL    HW2 1251   2.705   2.956   0.970  0.9785  0.7518 -0.6053
  418SOL     OW 1252   0.729   0.559   2.624 -0.3905 -0.1826  0.1446
  418SOL    HW1 1253   0.757   0.654   2.644  1.7883 -1.8580  1.4230
  418SOL    HW2 1254   0.776   0.493   2.683  0.1326  1.8292  1.4173
  419SOL     OW 1255   0.137   1.667   1.050  0.1307 -0.4733 -0.1835
  419SOL    HW1 1256   0.034   1.668   1.039 -1.9656  0.5422 -0.3913
  419SOL    HW2 1257   0.163   1.756   1.099 -1.0138  2.5846 -0.1175
  420SOL     OW 1258   1.610   2.003   0.793  0.0279 -0.3457  0.0785
  420SOL    HW1 1259   1.538   2.051   0.847  0.9899 -0.4078 -1.2917
  420SOL    HW2 1260   1.576   1.932   0.729  0.7548  0.5638 -0.8444
  421SOL     OW 1261   1.751   1.852   1.979 -0.4315  0.2855  0.3208
  421SOL    HW1 1262   1.806   1.832   1.896  2.1271  0.8791  1.6296
  421SOL    HW2 1263   1.771   1.787   2.054 -0.1160 -0.0886 -0.4232
  422SOL     OW 1264   2.861   0.599   2.983  0.4593  0.1086  0.3270
  422SOL    HW1 1265   2.760   0.587   2.999  0.0476 -1.6794  2.2989
  422SOL    HW2 1266   2.911   0.561   3.062  1.2269  1.8342 -0.2787
  423SOL     OW 1267   1.411   2.143   0.932 -0.1952  0.0112  0.0424
  423SOL    HW1 1268   1.324   2.168   0.895 -1.0117  0.1473  2.7877
  423SOL    HW2 1269   1.420   2.180   1.025 -2.6947  1.9601  1.4995
  424SOL     OW 1270   0.656   1.455   1.527 -0.3840 -0.0108 -0.2534
  424SOL    HW1 1271   0.572   1.428   1.481  1.6995 -0.1470 -0.7663
  424SOL    HW2 1272   0.638   1.511   1.614 -0.7718  2.9911  1.6853
  425SOL     OW 1273   2.944   2.612   2.116  0.6444  0.6012 -0.0484
  425SOL    HW1 1274   2.921   2.689   2.057  0.4806  0.6636  0.5579
  425SOL    HW2 1275   2.859   2.563   2.147  0.4048  1.6646  1.6048
  426SOL     OW 1276   2.027   2.822   0.570  0.0388  0.1102 -0.1096
  426SOL    HW1 1277   2.053   2.832   0.666 -1.4431 -0.6257 -0.1851
  426SOL    HW2 1278   2.066   2.897   0.521  0.6623  0.1040  2.7868
  427SOL     OW 1279   0.516   0.866   2.659 -0.3197 -0.2039 -0.2370
  427SOL    HW1 1280   0.519   0.964   2.628 -0.3493 -2.4054  1.9109
  427SOL    HW2 1281   0.527   0.792   2.593 -0.2981 -1.5533  1.0810
  428SOL     OW 1282   2.065   1.223   0.367  0.5143  0.5935 -0.0660
  428SOL    HW1 1283   1.988   1.203   0.306  2.3329 -1.9044  2.6614
  428SOL    HW2 1284   2.095   1.136   0.413 -1.9980 -1.0502  1.0667
  429SOL     OW 1285   0.050   0.093   0.403  0.0472 -0.0769  0.3735
  429SOL    HW1 1286   0.078   0.130   0.492  0.8097 -0.8982 -0.1198
  429SOL    HW2 1287   3.027   0.067   0.410  0.3695 -1.9479  0.8374
  430SOL     OW 1288   0.544   2.841   2.321  0.4561 -0.4255 -0.0591
  430SOL    HW1 1289   0.605   2.916   2.288 -1.4395  1.3426  0.5570
  430SOL    HW2 1290   0.445   2.873   2.328  1.0668  2.1656 -0.4992
  431SOL     OW 1291   2.597   1.201   1.353  0.2646 -0.3109 -0.3957
  431SOL    HW1 1292   2.500   1.224   1.376  0.3572  0.3935  0.5254
  431SOL    HW2 1293   2.657   1.185   1.436 -1.8558 -1.2790  0.1405
  432SOL     OW 1294   1.882   2.356   1.964  0.2447 -0.2839  0.6732
  432SOL    HW1 1295   1.976   2.358   1.913  1.2486  0.4541  0.5485
  432SOL    HW2 1296   1.887   2.304   2.050 -0.6532  1.2204  0.6347
  433SOL     OW 1297   1.099   1.841   0.326  0.7157  0.4326  0.2949
  433SOL    HW1 1298   1.149   1.751   0.340  2.7103 -3.7903  2.0023
  433SOL    HW2 1299   1.112   1.877   0.231 -1.3448  1.1537  0.1124
  434SOL     OW 1300   0.351   2.044   2.587 -0.3567 -0.3015 -0.4978
  434SOL    HW1 1301   0.391   2.080   2.670 -1.4205 -1.3180 -1.0339
  434SOL    HW2 1302   0.390   2.098   2.513 -1.1054 -2.2702  4.9018
  435SOL     OW 1303   0.475   0.701   0.284 -0.2202 -0.0725 -0.0212
  435SOL    HW1 1304   0.518   0.679   0.197  0.9794 -2.7378  2.9291
  435SOL    HW2 1305   0.534   0.770   0.327 -1.8697 -1.6810  0.1442
  436SOL     OW 1306   0.267   2.804   1.388 -0.3646  0.1019  0.2257
  436SOL    HW1 1307   0.319   2.716   1.385 -1.3039  3.4324  0.8291
  436SOL    HW2 1308   0.184   2.779   1.331  0.1784 -2.8104  1.8200
  437SOL     OW 1309   1.366   1.957   1.528  0.2007  0.1471  0.0412
  437SOL    HW1 1310   1.322   1.965   1.620  0.6205  0.6751  0.3837
  437SOL    HW2 1311   1.427   2.036   1.505  1.3115  0.3070 -1.4674
  438SOL     OW 1312   0.120   1.918   0.736  0.0924 -0.3712  0.1604
  438SOL    HW1 1313   0.131   1.961   0.825 -1.3206 -2.2181 -1.5750
  438SOL    HW2 1314   0.206   1.915   0.685 -1.7003  0.9118 -1.9849
  439SOL     OW 1315   0.259   0.409   1.233  0.0939  0.2691  0.0060
  439SOL    HW1 1316   0.232   0.353   1.313 -2.1720 -3.3630 -0.4128
  439SOL    HW2 1317   0.336   0.372   1.173  0.5346 -1.8954  0.7808
  440SOL     OW 1318   0.193   2.786   2.456 -0.8012 -0.1623 -0.7220
  440SOL    HW1 1319   0.217   2.779   2.558  0.5824  0.0841  1.7903
  440SOL    HW2 1320   0.205   2.698   2.404 -0.2492 -1.2543  1.4483
  441SOL     OW 1321   2.977   0.565   1.363 -0.1216 -0.1389 -0.7221
  441SOL    HW1 1322   2.901   0.627   1.344  1.2812  0.4258 -1.8495
  441SOL    HW2 1323   2.980   0.548   1.465 -1.9192  1.7206 -0.5808
  442SOL     OW 1324   1.849   2.203   2.856 -0.3523  0.4363  0.3221
  442SOL    HW1 1325   1.890   2.296   2.846 -0.0895 -0.1916  0.2984
  442SOL    HW2 1326   1.874   2.150   2.771  1.0178 -4.2416 -0.4401
  443SOL     OW 1327   0.533   1.267   2.969  0.9388  0.5833  0.0184
  443SOL    HW1 1328   0.459   1.230   3.029  2.1230  0.2063 -2.7073
  443SOL    HW2 1329   0.501   1.341   2.907  0.1001  0.0625  0.1902
  444SOL     OW 1330   1.307   1.688   1.865  0.3521 -0.2516  0.2347
  444SOL    HW1 1331   1.230   1.733   1.804 -2.1868  0.1368 -3.0073
  444SOL    HW2 1332   1.268   1.645   1.947 -1.6335  0.1294  0.3075
  445SOL     OW 1333   0.281   0.087   0.989  0.1964 -0.0757 -0.1834
  445SOL    HW1 1334   0.250   0.174   0.948  0.6857 -1.3835  0.8037
  445SOL    HW2 1335   0.228   0.065   1.073  0.0969  1.6277 -2.4933
  446SOL     OW 1336   2.296   0.625   1.215  0.4693  0.0804  0.6185
  446SOL    HW1 1337   2.318   0.718   1.249 -0.1450 -0.1832  0.1881
  446SOL    HW2 1338   2.248   0.623   1.124 -0.9792  1.6510 -2.1362
  447SOL     OW 1339   0.413   1.015   0.029 -0.5745  0.2902  0.2291
  447SOL    HW1 1340   0.514   0.995   0.029  1.2321  1.1989  1.4509
  447SOL    HW2 1341   0.369   0.977   0.111  3.5385  1.1942 -1.5388
  448SOL     OW 1342   1.251   2.053   1.761  0.3550 -0.1258 -0.6203
  448SOL    HW1 1343   1.273   2.141   1.710  4.2574 -1.4556 -0.2734
  448SOL    HW2 1344   1.277   2.051   1.860  1.2298 -0.0516 -0.6534
  449SOL     OW 1345   1.109   1.198   0.594 -0.3621  0.0554  0.2542
  449SOL    HW1 1346   1.120   1.262   0.515  2.4405 -0.2310  0.2399
  449SOL    HW2 1347   1.086   1.103   0.566 -1.2606  1.6795  2.6985
  450SOL     OW 1348   2.716   1.815   1.748  0.2452 -0.4665  0.3072
  450SOL    HW1 1349   2.810   1.822   1.711 -0.4836  0.1948  1.0683
  450SOL    HW2 1350   2.713   1.871   1.833 -0.4294 -1.5094 -0.7993
  451SOL     OW 1351   2.611   1.368   2.684 -0.5343 -0.2386 -0.1947
  451SOL    HW1 1352   2.560   1.309   2.748  1.8802  1.7393 -3.2306
  451SOL    HW2 1353   2.562   1.381   2.596  1.1861 -1.2852  2.5231
  452SOL     OW 1354   1.740   0.515   1.189  0.1272  0.3376  0.1185
  452SOL    HW1 1355   1.698   0.555   1.103  1.9176 -0.5218 -1.9740
  452SOL    HW2 1356   1.764   0.592   1.250  2.2262 -0.6552 -2.3195
  453SOL     OW 1357   1.863   1.113   1.111  0.4706  0.3631  0.8471
  453SOL    HW1 1358   1.782   1.072   1.146  2.1181  1.4562 -2.9387
  453SOL    HW2 1359   1.845   1.197   1.055 -0.6716 -1.3487 -2.1661
  454SOL     OW 1360   2.835   0.703   0.240 -0.2098  0.2124 -0.0973
  454SOL    HW1 1361   2.907   0.766   0.273 -1.3764 -0.8312 -1.9769
  454SOL    HW2 1362   2.752   0.696   0.295 -2.1374 -2.5126 -2.0958
  455SOL     OW 1363   2.571   1.710   1.142  0.1019 -0.2178  0.0755
  455SOL    HW1 1364   2.597   1.627   1.199  0.6449 -0.4222  1.1256
  455SOL    HW2 1365   2.658   1.768   1.137 -2.9655  0.7890  0.7672
  456SOL     OW 1366   0.812   0.165   1.380 -0.2905  0.2886  0.0424
  456SOL    HW1 1367   0.735   0.184   1.442 -2.7052 -0.5807 -2.0939
  456SOL    HW2 1368   0.857   0.079   1.407 -0.5181  1.1353 -1.3386
  457SOL     OW 1369   1.876   2.975   0.894  0.0691  0.3092  0.0558
  457SOL    HW1 1370   1.806   2.935   0.831  1.0921  0.5143 -0.4007
  457SOL    HW2 1371   1.853   3.070   0.920  1.9259  0.1460  0.9224
  458SOL     OW 1372   2.468   0.233   0.566  0.1858  0.2430 -0.0548
  458SOL    HW1 1373   2.471   0.159   0.635  1.5642  0.1438 -0.9370
  458SOL    HW2 1374   2.496   0.318   0.619  0.5008  0.0131 -1.5285
  459SOL     OW 1375   1.903   0.642   2.867 -0.1259  0.3781  0.1042
  459SOL    HW1 1376   1.918   0.737   2.910 -3.6058 -0.3271  0.7785
  459SOL    HW2 1377   1.832   0.584   2.908 -0.7961 -2.1790 -0.6335
  460SOL     OW 1378   3.072   2.622   2.702  0.2156 -0.2046  0.8881
  460SOL    HW1 1379   0.086   2.672   2.713  0.9010  1.3215  2.0104
  460SOL    HW2 1380   2.995   2.689   2.702 -1.5557  1.8640  0.6322
  461SOL     OW 1381   0.812   1.696   0.180 -0.5399  0.5063 -0.3032
  461SOL    HW1 1382   0.787   1.718   0.278 -1.3492 -1.4138  1.1712
  461SOL    HW2 1383   0.730   1.656   0.138  2.9518  0.3833  2.0108
  462SOL     OW 1384   2.188   2.343   0.752 -0.4151 -0.3417 -0.3721
  462SOL    HW1 1385   2.252   2.419   0.717  2.1557 -0.0601  0.7684
  462SOL    HW2 1386   2.128   2.381   0.829 -1.3254  1.5708  1.0036
  463SOL     OW 1387   0.042   0.472   0.421  0.1793 -0.4857 -0.3438
  463SOL    HW1 1388   0.053   0.538   0.501  1.0257  0.5123  0.4241
  463SOL    HW2 1389   0.105   0.515   0.351 -1.5867  4.1868  1.7301
  464SOL     OW 1390   0.716   2.534   0.511 -0.1365 -0.0765  0.0159
  464SOL    HW1 1391   0.639   2.563   0.573 -0.2952 -1.0909 -3.0243
  464SOL    HW2 1392   0.689   2.453   0.451 -1.1076 -0.0706 -1.3558
  465SOL     OW 1393   2.453   0.733   0.627  1.0538 -0.0129  0.2593
  465SOL    HW1 1394   2.368   0.791   0.619 -1.4587  0.2792  0.7940
  465SOL    HW2 1395   2.480   0.695   0.534  0.9031 -1.7950  0.2138
  466SOL     OW 1396   2.109   3.025   2.877  0.6822  0.4146 -0.1612
  466SOL    HW1 1397   2.202   3.047   2.910 -0.4257  0.4143  0.4594
  466SOL    HW2 1398   2.080   2.934   2.918 -2.3813 -1.0948 -1.6890
  467SOL     OW 1399   1.261   0.448   2.054  0.0045  0.8626 -0.1005
  467SOL    HW1 1400   1.162   0.472   2.058  1.2779  1.1554  1.0993
  467SOL    HW2 1401   1.311   0.516   1.995  0.2544  2.3993 -0.6328
  468SOL     OW 1402   3.020   0.450   2.009  0.6702 -0.4310 -0.7123
  468SOL    HW1 1403   0.036   0.409   1.993 -2.0605  1.8413 -0.5422
  468SOL    HW2 1404   3.007   0.536   1.949  0.6942  1.8900  1.3049
  469SOL     OW 1405   0.729   2.888   2.624  0.1800 -0.2633  0.0016
  469SOL    HW1 1406   0.688   2.806   2.680 -1.6011 -2.3625  1.2253
  469SOL    HW2 1407   0.654   2.939   2.584  0.7761 -2.9303  2.5733
  470SOL     OW 1408   1.667   1.327   2.225  0.7308  0.5037 -0.0234
  470SOL    HW1 1409   1.566   1.313   2.232  1.4251  0.4752  1.6046
  470SOL    HW2 1410   1.684   1.400   2.154 -0.0797 -2.2471 -1.5138
  471SOL     OW 1411   2.689   1.127   3.060  0.2598  0.4676  0.1077
  471SOL    HW1 1412   2.674   1.044   3.006  2.5008 -0.9222  0.1151
  471SOL    HW2 1413   2.747   1.110   0.069 -0.9906  1.2312  0.8015
  472SOL     OW 1414   0.451   2.838   0.448 -0.0125 -0.1798 -0.2110
  472SOL    HW1 1415   0.355   2.878   0.451 -0.8316  0.3723 -1.8521
  472SOL    HW2 1416   0.468   2.774   0.528 -0.3733 -0.4173  1.0150
  473SOL     OW 1417   0.834   0.098   2.727 -0.0670  0.0186  0.1506
  473SOL    HW1 1418   0.781   0.176   2.759  1.1689 -1.5937 -0.8213
  473SOL    HW2 1419   0.767   0.021   2.697  1.5492 -0.8401 -2.1223
  474SOL     OW 1420   1.721   2.992   2.186 -0.1453  0.2253  0.1903
  474SOL    HW1 1421   1.625   3.019   2.167  0.9949 -0.7534  2.3804
  474SOL    HW2 1422   1.746   3.029   2.277  0.0891 -0.4076 -2.8063
  475SOL     OW 1423   0.922   2.576   0.244  0.3480  0.2593  0.1217
  475SOL    HW1 1424   0.997   2.612   0.183  1.5305 -0.2099 -2.0898
  475SOL    HW2 1425   0.891   2.648   0.310 -0.6088 -2.5021  0.7046
  476SOL     OW 1426   0.341   0.788   0.823 -0.0177 -0.5632 -0.0714
  476SOL    HW1 1427   0.280   0.848   0.770 -0.1681 -0.9094 -1.4321
  476SOL    HW2 1428   0.324   0.689   0.799 -2.0831 -3.5030  1.4149
  477SOL     OW 1429   1.790   2.003   1.507 -0.1671 -0.0700 -0.4792
  477SOL    HW1 1430   1.892   2.019   1.515 -1.1131  0.8856  0.7722
  477SOL    HW2 1431   1.763   1.964   1.597 -0.3645  0.2970  1.9197
  478SOL     OW 1432   0.294   1.210   2.092  0.0047  0.2253 -0.4313
  478SOL    HW1 1433   0.382   1.260   2.093  1.2495 -2.2100  0.1564
  478SOL    HW2 1434   0.216   1.271   2.070 -1.5883 -2.1081 -0.4295
  479SOL     OW 1435   0.721   0.099   0.946 -0.2208 -0.0017 -0.0184
  479SOL    HW1 1436   0.809   0.053   0.942  0.8430 -0.6571  1.0267
  479SOL    HW2 1437   0.667   0.074   0.864  0.0292 -3.7438 -2.4296
  480SOL     OW 1438   2.267   2.654   2.946 -0.1607  0.0507  0.0993
  480SOL    HW1 1439   2.219   2.574   2.989 -1.6511  0.6137  1.6326
  480SOL    HW2 1440   2.297   2.633   2.849  1.0733 -3.0718  0.0546
  481SOL     OW 1441   2.539   0.469   1.232  0.4757  0.3063  0.2369
  481SOL    HW1 1442   2.473   0.549   1.231 -0.5577 -0.3145 -0.9134
  481SOL    HW2 1443   2.524   0.420   1.320 -0.3929 -0.7573 -2.1340
  482SOL     OW 1444   1.368   2.550   1.712  0.3081  0.2362  0.1526
  482SOL    HW1 1445   1.377   2.451   1.694  0.6437 -3.7730 -3.3214
  482SOL    HW2 1446   1.405   2.564   1.806  0.6810 -2.0093 -0.7147
  483SOL     OW 1447   0.048   1.526   2.803  0.4366 -0.8147  0.1900
  483SOL    HW1 1448   0.015   1.442   2.757 -0.8034 -2.7107  0.4828
  483SOL    HW2 1449   0.141   1.514   2.841  3.1056  0.2997  1.1224
  484SOL     OW 1450   1.263   1.960   2.357 -0.5161  0.2003  0.1255
  484SOL    HW1 1451   1.239   2.018   2.274  0.6966 -0.9287 -1.5471
  484SOL    HW2 1452   1.179   1.958   2.418 -1.2751 -1.5502  2.6721
  485SOL     OW 1453   0.082   0.201   2.493  0.5713  0.2103  0.0175
  485SOL    HW1 1454   0.128   0.254   2.425 -2.1046  1.7723  2.1126
  485SOL    HW2 1455   0.055   0.106   2.461  0.7940 -1.6229 -2.3619
  486SOL     OW 1456   1.676   3.066   0.496 -0.2282  0.6391  0.3783
  486SOL    HW1 1457   1.592   0.045   0.513 -0.2998  0.6739  1.0532
  486SOL    HW2 1458   1.766   0.030   0.525 -0.5593 -0.2553 -0.8350
  487SOL     OW 1459   1.171   2.468   0.922 -0.1192  0.4796 -0.3207
  487SOL    HW1 1460   1.168   2.389   0.861 -1.8789  1.5791  1.7146
  487SOL    HW2 1461   1.209   2.550   0.874 -2.1544 -0.9676 -2.5755
  488SOL     OW 1462   1.708   0.991   0.700 -0.0938 -0.2008  0.1086
  488SOL    HW1 1463   1.681   0.942   0.785  0.4752 -2.0265  1.8588
  488SOL    HW2 1464   1.807   1.025   0.716  0.2878 -0.1148 -0.8161
  489SOL     OW 1465   1.113   2.811   1.264  0.3846 -0.4954  0.0636
  489SOL    HW1 1466   1.118   2.711   1.297  1.6492  0.5723 -1.1339
  489SOL    HW2 1467   1.145   2.862   1.346  1.9621  0.4218  1.6960
  490SOL     OW 1468   0.841   0.574   0.626  0.0500  0.0826 -0.0777
  490SOL    HW1 1469   0.898   0.648   0.672  1.3871  0.2288  0.7919
  490SOL    HW2 1470   0.841   0.590   0.525  0.2996  0.2672 -1.2707
  491SOL     OW 1471   1.399   2.925   3.062 -0.3533  0.3232  0.0110
  491SOL    HW1 1472   1.387   2.955   0.084 -0.9807  3.5968 -1.9752
  491SOL    HW2 1473   1.351   2.984   2.994 -0.6916 -0.2042 -1.4667
  492SOL     OW 1474   1.391   1.353   2.157 -0.4756 -0.2334  0.5492
  492SOL    HW1 1475   1.334   1.441   2.153 -1.8040  5.8028 -1.3038
  492SOL    HW2 1476   1.371   1.301   2.243 -1.2626  1.6090  1.0602
  493SOL     OW 1477   3.066   1.749   0.285  0.0502  0.3142 -0.3502
  493SOL    HW1 1478   3.030   1.659   0.317 -0.1728  0.9474  1.1297
  493SOL    HW2 1479   0.089   1.758   0.309  0.2193 -1.4642 -0.2294
  494SOL     OW 1480   2.126   1.447   0.473 -0.2207  0.7510  0.1316
  494SOL    HW1 1481   2.038   1.495   0.489 -1.7018 -2.0841 -0.4950
  494SOL    HW2 1482   2.115   1.356   0.431 -0.4518 -0.5314 -2.2922
  495SOL     OW 1483   2.967   0.873   2.667 -0.1426 -0.5543  0.2347
  495SOL    HW1 1484   2.953   0.829   2.574  0.9919  0.9443  1.9868
  495SOL    HW2 1485   3.059   0.920   2.672  2.6958 -0.6466 -2.8921
  496SOL     OW 1486   2.854   3.051   2.382  0.2616 -0.1663  0.1028
  496SOL    HW1 1487   2.811   0.033   2.309  1.6356  0.0405  0.4753
  496SOL    HW2 1488   2.811   2.957   2.379 -0.3917  0.0440  0.6194
  497SOL     OW 1489   2.562   0.922   0.762  0.1170 -0.4793 -0.3912
  497SOL    HW1 1490   2.531   0.847   0.697 -3.6787 -3.5388 -0.8039
  497SOL    HW2 1491   2.664   0.941   0.763  4.8059  0.1143  1.7081
  498SOL     OW 1492   0.102   2.714   3.054  0.2234 -0.1728  0.4589
  498SOL    HW1 1493   0.064   2.806   0.016  0.4114  2.1232 -0.2928
  498SOL    HW2 1494   0.205   2.721   3.037  2.2274 -0.6679  0.0131
  499SOL     OW 1495   1.374   2.495   0.663  0.1301 -0.4377 -0.1532
  499SOL    HW1 1496   1.307   2.516   0.588  0.4050  0.7261 -1.1414
  499SOL    HW2 1497   1.421   2.409   0.637  1.3853 -1.3609  0.3307
  500SOL     OW 1498   1.061   0.401   2.675  0.3335 -0.2370 -0.0430
  500SOL    HW1 1499   0.986   0.393   2.742  0.7258  3.0321 -2.0784
  500SOL    HW2 1500   1.115   0.485   2.696 -0.4584 -1.9935  2.2902
  501SOL     OW 1501   1.036   0.336   1.427 -0.7521  0.0487 -0.3411
  501SOL    HW1 1502   1.119   0.277   1.430  2.7741 -1.6971  1.1843
  501SOL    HW2 1503   0.958   0.278   1.424  2.9506  4.8551 -2.8181
  502SOL     OW 1504   3.065   0.030   2.129  0.7671  0.2552 -0.2333
  502SOL    HW1 1505   0.030   3.074   2.219  1.6609  1.5354  0.0893
  502SOL    HW2 1506   3.015   0.121   2.137 -4.2266  2.5758 -2.5357
  503SOL     OW 1507   1.693   2.099   2.106  0.0274 -0.3469  0.5742
  503SOL    HW1 1508   1.713   2.020   2.044 -0.8252  0.0820 -0.1937
  503SOL    HW2 1509   1.680   2.064   2.200  0.0003 -2.1302 -0.6527
  504SOL     OW 1510   2.219   2.780   1.627  0.0521  0.2992  0.2528
  504SOL    HW1 1511   2.287   2.852   1.644  3.0858 -1.5248 -0.0545
  504SOL    HW2 1512   2.152   2.817   1.554 -0.0203  2.2290 -2.4325
  505SOL     OW 1513   2.685   1.140   1.606 -0.4812  0.4145  0.0767
  505SOL    HW1 1514   2.778   1.100   1.630  0.7696 -1.1323  1.7923
  505SOL    HW2 1515   2.674   1.239   1.638  0.7411  0.4337  1.2240
  506SOL     OW 1516   0.151   1.549   2.313  0.2209  0.6915 -0.6697
  506SOL    HW1 1517   0.110   1.464   2.281  0.8929  0.4007  3.8250
  506SOL    HW2 1518   0.250   1.534   2.335 -1.5805 -1.1154  1.0348
  507SOL     OW 1519   0.163   3.025   1.585  0.1920 -0.0907  0.6751
  507SOL    HW1 1520   0.108   0.020   1.535 -0.0753  0.9524 -0.6300
  507SOL    HW2 1521   0.184   2.953   1.515  2.4612 -3.3895 -2.9524
  508SOL     OW 1522   1.260   0.676   1.528  0.0891 -0.3070  0.0447
  508SOL    HW1 1523   1.258   0.743   1.452  1.4286 -1.6286  2.2973
  508SOL    HW2 1524   1.330   0.602   1.504  3.0549 -0.8740  0.3874
  509SOL     OW 1525   1.215   2.098   1.167 -0.5477  0.0360  0.1427
  509SOL    HW1 1526   1.267   2.171   1.214 -1.3843  0.5504 -0.2572
  509SOL    HW2 1527   1.159   2.146   1.099  0.7625 -0.4390  0.5836
  510SOL     OW 1528   2.489   1.234   2.890 -0.0536  0.4534 -0.0926
  510SOL    HW1 1529   2.406   1.279   2.937 -2.1658  2.0878  3.4765
  510SOL    HW2 1530   2.537   1.190   2.966 -1.6591  1.1230  1.5088
  511SOL     OW 1531   0.558   1.391   1.150  0.0571 -0.6217  0.5497
  511SOL    HW1 1532   0.502   1.388   1.232  1.4841  0.7869 -1.4206
  511SOL    HW2 1533   0.515   1.345   1.072 -1.8919 -1.3760  2.9529
  512SOL     OW 1534   2.849   2.405   0.311  0.2071  0.2324 -0.1576
  512SOL    HW1 1535   2.864   2.321   0.369  0.8629  2.7374 -0.1686
  512SOL    HW2 1536   2.758   2.438   0.311  3.4730  1.1880  0.5511
  513SOL     OW 1537   0.378   1.548   2.883 -0.0419 -0.1795 -0.1196
  513SOL    HW1 1538   0.378   1.622   2.957 -3.3618  1.7832 -0.2095
  513SOL    HW2 1539   0.323   1.470   2.913 -1.1238  3.6332 -1.2291
  514SOL     OW 1540   0.142   2.357   2.988  0.3383 -0.4894  0.0171
  514SOL    HW1 1541   0.203   2.415   2.932 -0.8787  0.2505 -1.4039
  514SOL    HW2 1542   0.049   2.388   2.995  1.6369 -2.7094  1.0718
  515SOL     OW 1543   1.391   0.993   2.193 -0.1966  0.5276 -0.1789
  515SOL    HW1 1544   1.320   1.016   2.124 -0.7551  3.3279 -2.4977
  515SOL    HW2 1545   1.385   1.047   2.276  0.4617 -1.0495 -1.3721
  516SOL     OW 1546   2.052   2.132   0.627  0.0278  0.5369  0.3801
  516SOL    HW1 1547   2.088   2.072   0.558  1.0563  0.7466  3.8016
  516SOL    HW2 1548   2.111   2.206   0.663  0.1196 -0.0305 -3.2036
  517SOL     OW 1549   1.272   1.482   0.664  0.5740 -0.3037  0.2098
  517SOL    HW1 1550   1.288   1.417   0.742 -0.8898  0.1981  3.1037
  517SOL    HW2 1551   1.356   1.525   0.631 -2.4503 -0.3672  0.5145
  518SOL     OW 1552   2.136   2.301   2.280  0.0883  0.6566 -0.3663
  518SOL    HW1 1553   2.035   2.291   2.258 -0.0410  0.2192 -0.6330
  518SOL    HW2 1554   2.142   2.357   2.366  2.5273  0.8920  4.2600
  519SOL     OW 1555   1.765   2.150   1.289 -0.3277  0.0808 -0.2159
  519SOL    HW1 1556   1.850   2.132   1.234 -1.0130 -1.4463  1.0822
  519SOL    HW2 1557   1.766   2.100   1.380  0.4734  0.2611 -0.0463
  520SOL     OW 1558   2.749   2.410   2.591 -0.0268  0.3440 -1.0394
  520SOL    HW1 1559   2.816   2.378   2.521  1.4103  2.5227 -0.5533
  520SOL    HW2 1560   2.663   2.352   2.600  0.1360  1.6609  0.7619
  521SOL     OW 1561   0.085   1.358   2.003  0.2368 -0.2084  0.0957
  521SOL    HW1 1562   0.023   1.315   1.929 -1.1104 -0.8054 -2.3050
  521SOL    HW2 1563   0.068   1.459   2.013  2.1228 -2.1616 -0.2272
  522SOL     OW 1564   0.700   0.608   2.194  0.5913 -0.1679  0.1515
  522SOL    HW1 1565   0.652   0.557   2.117 -1.6896  1.7411  0.8913
  522SOL    HW2 1566   0.779   0.562   2.233 -2.3715  2.4149  0.7073
  523SOL     OW 1567   0.720   2.021   0.984  0.3102  0.0057 -0.2303
  523SOL    HW1 1568   0.747   2.057   1.071  3.1676 -0.7118 -0.4151
  523SOL    HW2 1569   0.618   2.035   0.968 -1.1690 -1.4557 -1.8160
  524SOL     OW 1570   1.755   2.817   0.418 -0.0126 -0.5260  0.1015
  524SOL    HW1 1571   1.857   2.809   0.437  2.4139  1.2171  2.3537
  524SOL    HW2 1572   1.727   2.907   0.456 -0.9266  0.0133  1.7671
  525SOL     OW 1573   2.287   0.522   1.627  0.1860 -0.0814  0.4301
  525SOL    HW1 1574   2.239   0.514   1.539  0.6486  1.2347  0.4726
  525SOL    HW2 1575   2.342   0.439   1.641 -1.3189 -1.4729  1.2268
  526SOL     OW 1576   0.931   2.614   0.671 -0.1576 -0.3952 -0.2882
  526SOL    HW1 1577   1.015   2.585   0.628 -2.4434  3.3456 -0.4152
  526SOL    HW2 1578   0.856   2.612   0.599 -0.2824 -1.1749 -0.3800
  527SOL     OW 1579   2.582   2.414   0.240 -0.5976  0.6744  0.0364
  527SOL    HW1 1580   2.526   2.331   0.245  2.3694  0.5117 -1.5286
  527SOL    HW2 1581   2.616   2.421   0.146  0.9462 -2.1187  0.5500
  528SOL     OW 1582   2.322   0.152   0.055 -0.7442  0.5494  0.3432
  528SOL    HW1 1583   2.334   0.119   0.153 -0.0026 -3.6300  1.2414
  528SOL    HW2 1584   2.264   0.233   0.039 -0.6539 -0.0794  3.4163
  529SOL     OW 1585   1.395   1.621   2.509 -0.0580  0.6325 -0.1886
  529SOL    HW1 1586   1.485   1.574   2.528  0.3681  1.0711 -2.6859
  529SOL    HW2 1587   1.411   1.674   2.420 -0.9126  1.7650 -2.5297
  530SOL     OW 1588   2.243   0.628   0.191 -0.5951 -1.1139  0.0880
  530SOL    HW1 1589   2.164   0.618   0.254  1.9043  2.6020 -0.0803
  530SOL    HW2 1590   2.317   0.565   0.219 -0.0866 -2.3791  0.4590
  531SOL     OW 1591   1.590   1.128   2.936 -0.2623 -0.2889 -0.2866
  531SOL    HW1 1592   1.581   1.050   3.001 -1.0315 -2.3374 -0.0477
  531SOL    HW2 1593   1.531   1.109   2.853  0.9868 -0.3263  0.0057
  532SOL     OW 1594   1.531   0.569   0.521  0.1016 -0.5971  0.4248
  532SOL    HW1 1595   1.633   0.558   0.529 -0.3156  2.2924 -1.2888
  532SOL    HW2 1596   1.529   0.567   0.421  4.1221  2.6674  1.3012
  533SOL     OW 1597   0.993   0.878   2.127  0.4134 -0.0154 -0.7942
  533SOL    HW1 1598   0.915   0.901   2.188 -1.5871  0.0144  0.2991
  533SOL    HW2 1599   0.955   0.882   2.031 -0.9304  0.3274  1.5654
  534SOL     OW 1600   1.483   0.335   2.529  0.4058 -0.1687  0.2711
  534SOL    HW1 1601   1.548   0.316   2.601  0.1744 -0.3856 -2.8360
  534SOL    HW2 1602   1.390   0.322   2.566  3.7970  0.5752 -0.4649
  535SOL     OW 1603   0.368   0.283   0.345  0.1099  0.1140 -0.1605
  535SOL    HW1 1604   0.365   0.202   0.404  1.0697  0.3393 -1.4178
  535SOL    HW2 1605   0.341   0.261   0.250 -0.5434  0.5328 -0.7185
  536SOL     OW 1606   0.737   0.154   0.643 -0.2733 -0.8759 -0.4286
  536SOL    HW1 1607   0.694   0.203   0.563 -0.5772 -0.1703 -1.1325
  536SOL    HW2 1608   0.808   0.213   0.688 -0.4610 -0.6167  0.7693
  537SOL     OW 1609   1.510   0.866   0.580  0.2371 -0.1783  0.0135
  537SOL    HW1 1610   1.588   0.915   0.623  0.2797 -2.0155 -0.3896
  537SOL    HW2 1611   1.519   0.766   0.569 -2.3509  1.7964  2.2442
  538SOL     OW 1612   2.931   2.086   0.054  0.0388 -0.4810 -0.6351
  538SOL    HW1 1613   2.935   2.150   3.047  0.3113 -0.6825 -0.3552
  538SOL    HW2 1614   2.955   1.988   0.030 -0.0900  2.0542 -0.8169
  539SOL     OW 1615   2.050   1.749   0.126 -0.5050  0.1392 -0.1914
  539SOL    HW1 1616   2.126   1.717   0.190 -1.8897  1.9617  1.0672
  539SOL    HW2 1617   2.026   1.685   0.047  0.2849 -0.5253 -0.2145
  540SOL     OW 1618   0.381   2.571   1.396 -0.1678  0.1856 -0.4252
  540SOL    HW1 1619   0.374   2.472   1.415 -1.4680  1.7824 -0.5151
  540SOL    HW2 1620   0.466   2.602   1.339  2.5492  0.9261 -0.5236
  541SOL     OW 1621   2.050   2.846   2.263 -0.2127  0.1207 -0.1018
  541SOL    HW1 1622   2.006   2.936   2.297 -0.9815  3.7061 -2.4214
  541SOL    HW2 1623   1.996   2.801   2.193 -0.2573  1.5422  0.6260
  542SOL     OW 1624   3.059   0.605   2.761  0.3476  0.3833 -0.0263
  542SOL    HW1 1625   3.016   0.581   2.851  0.4351  2.5664  3.4896
  542SOL    HW2 1626   3.017   0.689   2.717 -2.4631  0.9227 -1.8084
  543SOL     OW 1627   2.989   1.268   1.031 -0.0403 -0.0578 -0.4628
  543SOL    HW1 1628   2.942   1.333   1.094  0.4167  0.9200  1.2762
  543SOL    HW2 1629   2.917   1.211   0.988 -3.2146  1.8337 -1.2499
  544SOL     OW 1630   2.517   0.259   1.066 -0.3419  0.9454 -0.1705
  544SOL    HW1 1631   2.557   0.339   1.117 -0.3041 -0.9805 -1.4466
  544SOL    HW2 1632   2.557   0.248   0.973 -1.8084 -0.8573  1.1978
  545SOL     OW 1633   1.671   2.531   0.613  0.1266  0.2290  0.2100
  545SOL    HW1 1634   1.636   2.543   0.517  1.5182 -0.4446  1.3416
  545SOL    HW2 1635   1.630   2.445   0.651  1.6377 -3.1826  1.3509
  546SOL     OW 1636   2.003   2.591   1.665  0.2014  0.7415  0.5777
  546SOL    HW1 1637   1.999   2.499   1.706 -1.3922 -1.9053 -0.8649
  546SOL    HW2 1638   2.098   2.623   1.664 -1.7932 -1.4654  0.3084
  547SOL     OW 1639   0.360   0.077   2.122 -0.2673  0.3382  0.2875
  547SOL    HW1 1640   0.431   0.143   2.091 -2.0380 -1.0608 -1.0238
  547SOL    HW2 1641   0.348   0.000   2.057 -2.1824  0.2473  1.7330
  548SOL     OW 1642   1.848   1.466   2.857 -0.1372  0.0726  0.2698
  548SOL    HW1 1643   1.794   1.432   2.936  0.9680  0.7214  1.5384
  548SOL    HW2 1644   1.881   1.384   2.803 -0.8624  1.2374 -1.8276
  549SOL     OW 1645   2.863   1.156   0.404 -0.6223  0.2862 -0.1108
  549SOL    HW1 1646   2.771   1.184   0.432  3.2758  0.8167 -1.7438
  549SOL    HW2 1647   2.858   1.098   0.317 -0.7371  1.3193 -1.8801
  550SOL     OW 1648   1.891   2.039   0.839 -0.2079  0.0784 -0.3444
  550SOL    HW1 1649   1.942   2.066   0.753  0.5892  0.8795 -1.4803
  550SOL    HW2 1650   1.784   2.039   0.831 -3.7954 -0.3099  0.5883
  551SOL     OW 1651   1.292   0.437   0.780 -0.1361 -0.2027  0.7939
  551SOL    HW1 1652   1.237   0.360   0.742  0.1044 -0.3885  2.2831
  551SOL    HW2 1653   1.355   0.402   0.849  0.3816 -1.3814 -0.4936
  552SOL     OW 1654   2.841   2.775   2.359 -0.3944  0.6769  0.5376
  552SOL    HW1 1655   2.914   2.751   2.287  1.4206  1.6345 -1.9006
  552SOL    HW2 1656   2.773   2.701   2.371  0.9955  4.9315 -0.7257
  553SOL     OW 1657   0.042   2.999   2.381  0.1841  0.2435  0.2320
  553SOL    HW1 1658   3.017   3.022   2.390  0.9612  0.4091 -1.5318
  553SOL    HW2 1659   0.059   2.902   2.409  0.6915  0.1344 -0.2622
  554SOL     OW 1660   0.897   2.844   1.100  0.4941 -0.0286  0.4819
  554SOL    HW1 1661   0.823   2.866   1.170  0.0986 -0.8447 -0.4164
  554SOL    HW2 1662   0.988   2.833   1.149 -1.2751 -1.9478 -0.4886
  555SOL     OW 1663   2.486   2.465   2.083  0.4894  0.3317 -0.2418
  555SOL    HW1 1664   2.508   2.457   1.985  1.7793  1.5549  1.5658
  555SOL    HW2 1665   2.557   2.421   2.140  1.0806  0.2528 -0.4171
  556SOL     OW 1666   1.263   0.233   2.633 -0.3425  0.6223  0.4974
  556SOL    HW1 1667   1.187   0.302   2.630  1.6172 -2.0956  5.0124
  556SOL    HW2 1668   1.253   0.166   2.554  0.5067  2.3316 -1.4271
  557SOL     OW 1669   0.311   1.805   2.274  0.3282  0.0979  0.1841
  557SOL    HW1 1670   0.252   1.841   2.346 -1.7182  2.3222 -1.4421
  557SOL    HW2 1671   0.397   1.767   2.317  0.1811  2.5751 -1.0587
  558SOL     OW 1672   2.020   0.833   2.359 -0.1087 -0.8473 -0.4091
  558SOL    HW1 1673   2.092   0.764   2.341  0.2865 -1.4187  0.9623
  558SOL    HW2 1674   2.019   0.909   2.289 -0.8856 -2.1100 -0.4214
  559SOL     OW 1675   2.573   2.040   2.311 -0.2982  0.7403 -0.7219
  559SOL    HW1 1676   2.484   2.080   2.347 -2.1914 -0.1367  0.6786
  559SOL    HW2 1677   2.558   1.984   2.231 -0.3354  0.1433 -0.8850
  560SOL     OW 1678   2.423   0.706   2.187 -0.2532  0.1108  0.8632
  560SOL    HW1 1679   2.344   0.685   2.247  0.5434  0.0188  2.3752
  560SOL    HW2 1680   2.439   0.807   2.171  0.5720  1.1867 -1.8687
  561SOL     OW 1681   0.300   0.211   0.086  0.1063 -0.4240  0.5207
  561SOL    HW1 1682   0.201   0.237   0.106 -2.8320 -1.3190  1.9703
  561SOL    HW2 1683   0.302   0.188   3.059  0.2305 -1.0285 -1.9067
  562SOL     OW 1684   1.062   1.246   1.402 -0.5371 -0.0616 -0.7497
  562SOL    HW1 1685   1.108   1.326   1.437 -1.3948 -1.7980 -0.9929
  562SOL    HW2 1686   0.969   1.246   1.448  1.1128  1.0307  0.9419
  563SOL     OW 1687   1.520   3.017   2.704  0.4099 -0.1168  0.4678
  563SOL    HW1 1688   1.417   3.006   2.725  0.4397  0.9428  2.1409
  563SOL    HW2 1689   1.568   3.005   2.793 -1.5580  0.4665  0.8503
  564SOL     OW 1690   0.106   2.098   0.960  0.6573 -0.1082 -0.2562
  564SOL    HW1 1691   0.006   2.101   0.940  0.8976  0.2861 -0.7546
  564SOL    HW2 1692   0.142   2.199   0.970  0.2993  1.3813  0.6840
  565SOL     OW 1693   0.668   2.486   2.070  0.0179 -0.4094  0.1892
  565SOL    HW1 1694   0.662   2.571   2.011 -1.6125  1.2635 -0.5523
  565SOL    HW2 1695   0.733   2.416   2.038 -3.9693 -0.9378  1.3731
  566SOL     OW 1696   1.183   2.464   1.985 -0.5241 -0.4961 -0.2239
  566SOL    HW1 1697   1.207   2.397   2.057  0.2105  0.0851  2.0899
  566SOL    HW2 1698   1.265   2.515   1.951 -2.6618  0.7786 -1.2247
  567SOL     OW 1699   2.035   2.394   0.983  0.1720  0.0404  0.0797
  567SOL    HW1 1700   2.052   2.422   1.080  0.0770  0.5387 -0.8720
  567SOL    HW2 1701   1.940   2.422   0.954 -0.9987 -0.3097 -0.2149
  568SOL     OW 1702   1.979   0.631   0.296  0.0990  0.0352 -0.9167
  568SOL    HW1 1703   1.917   0.693   0.245 -0.0648 -1.9961 -1.5827
  568SOL    HW2 1704   1.939   0.605   0.387  0.3947 -0.0132 -0.7991
  569SOL     OW 1705   2.871   1.609   2.696  0.6799 -0.7053 -0.0522
  569SOL    HW1 1706   2.913   1.655   2.618 -0.3959  0.2776 -0.5360
  569SOL    HW2 1707   2.943   1.557   2.752  1.5470 -1.1771 -0.4912
  570SOL     OW 1708   2.972   0.114   1.094 -0.5050 -0.0800 -0.1716
  570SOL    HW1 1709   3.058   0.081   1.136  0.7848  0.4176 -0.0795
  570SOL    HW2 1710   2.948   0.210   1.117  0.5340 -1.0940  1.3350
  571SOL     OW 1711   2.989   0.498   1.649 -0.5236 -0.2572  0.5489
  571SOL    HW1 1712   2.975   0.566   1.724 -2.4134 -2.3472 -0.0041
  571SOL    HW2 1713   3.011   0.410   1.693  0.1670  0.7488 -0.7748
  572SOL     OW 1714   2.770   2.523   0.622 -0.0104 -0.1505  0.0658
  572SOL    HW1 1715   2.708   2.512   0.705 -1.7855 -0.7278 -0.2865
  572SOL    HW2 1716   2.811   2.434   0.593 -2.3688 -1.4078 -1.4693
  573SOL     OW 1717   0.746   0.663   0.092 -0.0032  0.6365  0.1233
  573SOL    HW1 1718   0.673   0.593   0.087  4.0196  2.1132 -0.6484
  573SOL    HW2 1719   0.708   0.752   0.059 -3.5765  0.0039  0.5335
  574SOL     OW 1720   2.988   2.947   0.031  0.0703 -0.5039 -0.4645
  574SOL    HW1 1721   2.890   2.954   0.048  0.2498  1.7123  1.6199
  574SOL    HW2 1722   3.046   2.993   0.108  2.5114  0.1979  4.6543
  575SOL     OW 1723   1.391   2.292   1.205 -0.2074  0.2225 -0.3038
  575SOL    HW1 1724   1.336   2.375   1.229  0.7004 -1.0322 -0.6102
  575SOL    HW2 1725   1.492   2.311   1.190  1.2607 -1.0900  1.3787
  576SOL     OW 1726   0.747   2.467   1.147  0.1199  0.2133  0.0104
  576SOL    HW1 1727   0.830   2.461   1.197 -4.1240  1.5172  1.2694
  576SOL    HW2 1728   0.773   2.494   1.052  0.1559  0.1946 -0.2248
  577SOL     OW 1729   2.089   1.811   1.274 -0.2786 -0.4435 -0.4128
  577SOL    HW1 1730   2.089   1.900   1.328  1.2551  0.7921  2.3481
  577SOL    HW2 1731   2.175   1.814   1.214  5.4537 -0.3655 -2.1878
  578SOL     OW 1732   1.533   0.332   0.283  0.1065 -0.1383 -0.0182
  578SOL    HW1 1733   1.521   0.432   0.269 -1.0772 -0.5342  0.8317
  578SOL    HW2 1734   1.502   0.276   0.208 -1.2427 -0.1296  2.5987
  579SOL     OW 1735   2.190   1.109   2.831  0.2135 -0.1843 -0.5661
  579SOL    HW1 1736   2.250   1.093   2.745 -0.2049 -1.2766 -0.8900
  579SOL    HW2 1737   2.237   1.065   2.908  5.4948  2.8523  0.0951
  580SOL     OW 1738   1.728   0.529   1.815  0.6117  0.1526  0.6382
  580SOL    HW1 1739   1.746   0.632   1.808 -0.4395  3.3441  0.4774
  580SOL    HW2 1740   1.733   0.497   1.913 -1.6543 -1.2158  3.2219
  581SOL     OW 1741   0.631   1.074   1.075  0.1099 -0.6612 -0.2602
  581SOL    HW1 1742   0.571   1.157   1.053 -2.2659  3.0002 -1.3323
  581SOL    HW2 1743   0.661   1.081   1.175  1.0731 -1.1653  2.0345
  582SOL     OW 1744   2.668   0.088   2.210  0.1936  0.8582 -0.1479
  582SOL    HW1 1745   2.568   0.071   2.187  0.2850  0.1984 -0.2513
  582SOL    HW2 1746   2.715   0.170   2.169 -0.5545  3.1634 -1.9511
  583SOL     OW 1747   2.721   0.524   1.981  0.0976 -0.3760 -0.0083
  583SOL    HW1 1748   2.798   0.490   1.919  0.6371  1.7615 -0.5640
  583SOL    HW2 1749   2.740   0.495   2.078 -3.8077 -3.6444 -0.9745
  584SOL     OW 1750   1.224   1.989   2.723  0.5352  0.1729  0.0729
  584SOL    HW1 1751   1.243   2.014   2.817 -0.2502 -0.0600  0.0955
  584SOL    HW2 1752   1.296   2.025   2.655 -0.6067  1.2795 -1.5534
  585SOL     OW 1753   0.427   3.057   0.097 -0.1636 -0.5941  0.2622
  585SOL    HW1 1754   0.368   2.974   0.126 -0.4827  0.9753 -0.2787
  585SOL    HW2 1755   0.378   0.072   0.101  0.9896 -1.0830 -0.5350
  586SOL     OW 1756   1.917   2.026   2.638  0.0821  0.2767  0.3695
  586SOL    HW1 1757   1.993   1.962   2.673  2.4887 -1.5432  0.3675
  586SOL    HW2 1758   1.834   1.977   2.603 -0.1517  1.1005  1.4960
  587SOL     OW 1759   2.474   2.423   0.505  0.5309 -0.6291  0.2437
  587SOL    HW1 1760   2.536   2.465   0.432  1.9494  2.3766 -2.1901
  587SOL    HW2 1761   2.429   2.495   0.566 -1.7320  2.2406 -1.8470
  588SOL     OW 1762   2.289   0.200   1.206 -0.2205 -0.2024 -0.0023
  588SOL    HW1 1763   2.361   0.214   1.136 -1.4285  0.2997  0.4698
  588SOL    HW2 1764   2.220   0.134   1.167  0.2799  0.0083  2.6888
  589SOL     OW 1765   0.592   0.522   0.709  0.0950 -0.4632 -0.0836
  589SOL    HW1 1766   0.687   0.540   0.678  1.2769  0.1473  1.5597
  589SOL    HW2 1767   0.531   0.503   0.629  0.0305  1.3420 -1.8712
  590SOL     OW 1768   2.171   2.008   0.410 -0.2022 -0.2316  0.1126
  590SOL    HW1 1769   2.258   1.955   0.429  0.1819 -2.1907  1.1834
  590SOL    HW2 1770   2.180   2.074   0.330  0.4254  0.1428 -1.3387
  591SOL     OW 1771   0.575   2.248   1.103 -0.2260  0.0089  0.5838
  591SOL    HW1 1772   0.544   2.274   1.010 -1.1586 -1.8343 -1.4811
  591SOL    HW2 1773   0.631   2.330   1.140  2.3599 -0.2483 -2.1389
  592SOL     OW 1774   0.900   0.783   1.332 -0.6287  0.6405  0.4610
  592SOL    HW1 1775   0.910   0.830   1.238 -1.4723  0.1531 -0.6989
  592SOL    HW2 1776   0.940   0.689   1.323  0.3837  1.3287  0.2102
  593SOL     OW 1777   0.875   1.228   1.185 -0.0659 -0.3576 -0.4417
  593SOL    HW1 1778   0.955   1.235   1.248  1.4906  1.0489 -1.6751
  593SOL    HW2 1779   0.792   1.277   1.216 -1.9773 -0.9687  0.9886
  594SOL     OW 1780   0.818   2.178   0.516  0.1275  0.0977 -1.0265
  594SOL    HW1 1781   0.885   2.237   0.465  0.2668 -0.8662 -1.6105
  594SOL    HW2 1782   0.847   2.082   0.497  2.0264 -1.9983 -0.1876
  595SOL     OW 1783   1.560   0.347   1.284 -0.7052  0.3624  0.3772
  595SOL    HW1 1784   1.518   0.297   1.204  0.9491 -0.6981  0.3031
  595SOL    HW2 1785   1.629   0.408   1.240  1.1913 -0.9754 -1.8069
  596SOL     OW 1786   2.864   1.494   1.172 -0.5925  0.4242  0.6129
  596SOL    HW1 1787   2.883   1.567   1.102  0.4478  1.9367 -0.6049
  596SOL    HW2 1788   2.782   1.517   1.224  0.3977  0.2592  2.4253
  597SOL     OW 1789   0.210   2.513   2.393 -0.8011 -0.1890 -0.3431
  597SOL    HW1 1790   0.296   2.463   2.411 -1.4145 -2.7544 -0.8582
  597SOL    HW2 1791   0.145   2.468   2.455 -0.0661  2.3279  5.5287
  598SOL     OW 1792   2.770   2.256   1.949 -0.1330  0.2319 -0.4423
  598SOL    HW1 1793   2.862   2.303   1.940  1.5985  1.4518 -1.2906
  598SOL    HW2 1794   2.701   2.308   1.888 -1.8808  1.4688 -3.6446
  599SOL     OW 1795   0.994   0.152   2.948 -0.6354 -0.2343 -0.0640
  599SOL    HW1 1796   0.935   0.206   3.013 -0.3155  2.1031  1.0564
  599SOL    HW2 1797   0.947   0.128   2.863  2.3798  1.7735  3.5624
  600SOL     OW 1798   0.520   2.495   0.020  0.1857 -0.1763 -0.1230
  600SOL    HW1 1799   0.489   2.587   0.001  1.0250 -0.4158  2.4286
  600SOL    HW2 1800   0.495   2.431   3.019 -1.8692  1.5941  0.6533
  601SOL     OW 1801   0.642   0.718   1.411 -0.2075  0.1281 -0.0810
  601SOL    HW1 1802   0.741   0.743   1.394  1.8476 -0.5243  0.6459
  601SOL    HW2 1803   0.602   0.679   1.325  0.3962  0.9491 -0.5285
  602SOL     OW 1804   0.987   2.820   0.839 -0.0961 -0.1627  0.2808
  602SOL    HW1 1805   0.938   2.745   0.792  0.3359  0.7782  0.3952
  602SOL    HW2 1806   0.939   2.829   0.931 -0.5878  3.1377  0.0124
  603SOL     OW 1807   0.547   0.647   2.436 -0.4389 -0.1461 -0.3607
  603SOL    HW1 1808   0.557   0.588   2.352  1.2508  0.1465 -1.5166
  603SOL    HW2 1809   0.608   0.612   2.509 -0.3697  3.0310 -0.8932
  604SOL     OW 1810   0.519   2.924   1.476 -0.6054 -0.0137  0.8727
  604SOL    HW1 1811   0.491   3.016   1.509 -0.6761 -0.4986 -0.0351
  604SOL    HW2 1812   0.450   2.887   1.405  1.1739 -1.3195 -3.8196
  605SOL     OW 1813   1.768   0.800   1.826  0.0503  0.2617 -0.5330
  605SOL    HW1 1814   1.711   0.853   1.756  0.7181  0.5444 -0.7310
  605SOL    HW2 1815   1.744   0.834   1.921 -1.4013 -1.2451  0.1166
  606SOL     OW 1816   2.504   2.815   3.017 -0.1737 -0.0216  0.2272
  606SOL    HW1 1817   2.405   2.813   2.998  1.7847  0.6085 -0.5420
  606SOL    HW2 1818   2.560   2.856   2.942 -2.4194 -1.0279 -0.7886
  607SOL     OW 1819   0.877   0.833   1.052 -0.2864  0.2868 -0.6329
  607SOL    HW1 1820   0.822   0.746   1.075 -2.2805  0.3281  1.2056
  607SOL    HW2 1821   0.826   0.888   0.980 -1.2028 -0.6672 -0.5757
  608SOL     OW 1822   0.218   1.815   2.575 -0.5747 -0.0173 -0.1759
  608SOL    HW1 1823   0.258   1.911   2.584  3.0111 -0.6868 -1.4580
  608SOL    HW2 1824   0.135   1.806   2.627  2.5366 -0.1536 -0.1508
  609SOL     OW 1825   1.305   1.209   0.309  0.4053  0.1796  0.1340
  609SOL    HW1 1826   1.236   1.279   0.318  0.5430  0.7271  2.6238
  609SOL    HW2 1827   1.302   1.157   0.224  2.8435  0.8998 -1.6363
  610SOL     OW 1828   0.513   0.589   1.204 -0.0256 -0.0242  0.4620
  610SOL    HW1 1829   0.465   0.665   1.157 -0.4947 -0.4190  1.2931
  610SOL    HW2 1830   0.458   0.507   1.227 -1.0341 -2.5617  1.9478
  611SOL     OW 1831   1.285   0.919   0.718 -0.1575  0.6557  0.2862
  611SOL    HW1 1832   1.282   1.013   0.749 -1.9664 -3.4226 -0.0441
  611SOL    HW2 1833   1.373   0.898   0.671  0.2619  2.7711 -0.9368
  612SOL     OW 1834   1.757   0.968   0.314 -0.3258  0.4529 -0.4329
  612SOL    HW1 1835   1.657   0.989   0.326 -3.9949 -0.8305  0.4463
  612SOL    HW2 1836   1.809   1.044   0.271  3.2572  0.0228 -0.1270
  613SOL     OW 1837   1.881   0.437   0.135  0.1128  0.1077  0.7385
  613SOL    HW1 1838   1.853   0.352   0.190 -0.1241 -1.1316 -2.2374
  613SOL    HW2 1839   1.924   0.504   0.198  2.9403 -0.4822  0.1854
  614SOL     OW 1840   2.565   0.160   2.503  0.1829 -0.2407 -0.0960
  614SOL    HW1 1841   2.580   0.152   2.402 -1.4368 -0.8251 -3.1506
  614SOL    HW2 1842   2.495   0.096   2.539  4.3786 -0.4931  0.6628
  615SOL     OW 1843   0.763   1.846   0.765 -0.0550 -0.2258 -0.0034
  615SOL    HW1 1844   0.825   1.766   0.782  1.1726 -0.4217 -0.4278
  615SOL    HW2 1845   0.762   1.907   0.848  0.2715 -0.8288  0.1862
  616SOL     OW 1846   1.361   1.135   2.754  0.3413 -0.1448  0.1665
  616SOL    HW1 1847   1.390   1.233   2.749 -1.4188  2.7622 -2.0593
  616SOL    HW2 1848   1.272   1.120   2.798 -1.1797 -0.3096 -0.0971
  617SOL     OW 1849   1.496   0.692   3.005  0.0295  0.1222  0.0269
  617SOL    HW1 1850   1.448   0.737   2.926 -0.1293  1.4492  1.4018
  617SOL    HW2 1851   1.587   0.645   2.986  1.9314 -0.0449  0.3094
  618SOL     OW 1852   1.532   2.356   2.595 -0.3017 -0.3230 -0.9280
  618SOL    HW1 1853   1.551   2.341   2.493  0.6854 -0.8125  0.9211
  618SOL    HW2 1854   1.522   2.455   2.623 -1.6605 -0.1232 -1.9703
  619SOL     OW 1855   2.431   1.578   0.753  0.0353  0.2052 -0.0534
  619SOL    HW1 1856   2.527   1.615   0.748  1.7445  1.8012  2.5419
  619SOL    HW2 1857   2.421   1.481   0.742 -3.3684  1.5260  0.9017
  620SOL     OW 1858   2.273   2.698   2.311 -0.0214  0.1607  0.4406
  620SOL    HW1 1859   2.303   2.724   2.218  0.7258 -0.9521  1.1698
  620SOL    HW2 1860   2.181   2.745   2.327  2.1483 -1.3817  0.9059
  621SOL     OW 1861   0.024   1.390   0.805  0.0848 -0.2626  0.1291
  621SOL    HW1 1862   0.051   1.390   0.899  0.1939 -1.6124 -1.6244
  621SOL    HW2 1863   2.998   1.397   0.791 -2.3695  1.6054 -0.3120
  622SOL     OW 1864   1.430   1.400   2.748 -0.6378  0.2449 -0.7526
  622SOL    HW1 1865   1.507   1.455   2.708 -2.3045  1.0151 -0.5800
  622SOL    HW2 1866   1.348   1.397   2.683  0.0342  1.7736  3.3198
  623SOL     OW 1867   0.086   2.470   2.164  0.2557  0.2317  0.0592
  623SOL    HW1 1868   0.111   2.493   2.261 -3.1842 -0.7303  1.2424
  623SOL    HW2 1869   0.022   2.541   2.129  1.5658  2.9728  1.2464
  624SOL     OW 1870   0.620   2.860   2.989  0.1441  0.0675  0.1990
  624SOL    HW1 1871   0.677   2.818   2.914  1.1604  0.2457 -1.6061
  624SOL    HW2 1872   0.666   2.853   0.009  0.8190  0.1560  0.8304
  625SOL     OW 1873   0.346   2.130   2.189 -0.4269 -0.6020  0.1935
  625SOL    HW1 1874   0.352   2.182   2.100  0.4359 -0.0155  1.3598
  625SOL    HW2 1875   0.333   2.028   2.182 -0.0468 -0.2422  3.4479
  626SOL     OW 1876   0.323   0.134   2.888 -0.1424 -0.0682 -0.5246
  626SOL    HW1 1877   0.231   0.131   2.844 -2.0708 -0.2204 -0.8312
  626SOL    HW2 1878   0.367   0.045   2.888  0.5223  2.9026 -0.7504
  627SOL     OW 1879   2.021   1.531   3.037  0.2015 -0.1699 -0.2662
  627SOL    HW1 1880   2.098   1.466   3.032  0.5725  2.0585  0.1556
  627SOL    HW2 1881   1.954   1.505   2.966  2.6570 -0.2357  0.2451
  628SOL     OW 1882   1.404   1.958   0.341 -0.3664  0.6138  0.5786
  628SOL    HW1 1883   1.478   1.929   0.274  2.5281 -1.2985 -0.3858
  628SOL    HW2 1884   1.392   1.890   0.419 -1.0665  1.1934  2.4552
  629SOL     OW 1885   3.016   0.228   1.783 -0.1372 -0.0771  0.0160
  629SOL    HW1 1886   0.009   0.240   1.863  2.0595  1.2107  0.4803
  629SOL    HW2 1887   2.921   0.210   1.816 -0.6125  1.5451  1.0790
  630SOL     OW 1888   2.032   0.825   1.768 -0.4010  0.0540 -0.3277
  630SOL    HW1 1889   1.934   0.818   1.782  1.2285 -2.3162 -0.2833
  630SOL    HW2 1890   2.052   0.877   1.680 -1.0759  0.6986  1.8983
  631SOL     OW 1891   1.542   0.169   1.059  0.3720 -0.0805 -0.3249
  631SOL    HW1 1892   1.598   0.240   1.010 -0.1189  1.7516  0.6548
  631SOL    HW2 1893   1.542   0.078   1.020  1.1565  1.7128  1.1183
  632SOL     OW 1894   2.661   0.980   1.955  0.2496  0.3104  0.1053
  632SOL    HW1 1895   2.682   0.902   1.890  1.6817  0.6369  0.6550
  632SOL    HW2 1896   2.574   0.961   2.010  1.0061 -2.3749  0.9284
  633SOL     OW 1897   0.926   0.922   2.557 -0.0329  0.7084  0.4433
  633SOL    HW1 1898   1.021   0.895   2.545 -1.9486  1.7652  0.5271
  633SOL    HW2 1899   0.885   0.879   2.641 -0.7308 -0.2536 -0.0008
  634SOL     OW 1900   0.448   2.972   2.824  0.4739 -0.0189  0.1986
  634SOL    HW1 1901   0.472   3.011   2.735  0.5264  0.9045  0.0561
  634SOL    HW2 1902   0.525   2.946   2.882 -1.2434  0.3527 -0.4414
  635SOL     OW 1903   3.033   1.441   1.378  0.4063 -0.1965 -0.4400
  635SOL    HW1 1904   2.988   1.424   1.289  1.9226  2.0459 -0.5652
  635SOL    HW2 1905   0.043   1.497   1.357  0.6118  0.3216 -0.0188
  636SOL     OW 1906   0.339   1.757   3.070  0.0331 -0.1972 -0.6877
  636SOL    HW1 1907   0.270   1.737   0.071 -1.5190  2.3227  0.5278
  636SOL    HW2 1908   0.390   1.850   3.071 -0.5924  2.4220 -1.1398
  637SOL     OW 1909   0.032   2.355   0.192  0.0666 -0.4739 -0.4443
  637SOL    HW1 1910   0.043   2.343   0.092 -1.3793 -0.3148  2.8698
  637SOL    HW2 1911   3.010   2.374   0.218 -0.9079 -1.8242 -1.9951
  638SOL     OW 1912   2.943   2.683   0.229 -0.0264  0.0819  0.0874
  638SOL    HW1 1913   2.997   2.664   0.142  1.1364 -0.2075 -1.1719
  638SOL    HW2 1914   2.921   2.593   0.275  0.0154 -1.1341 -2.5463
  639SOL     OW 1915   1.095   0.764   2.972 -0.3901 -0.1683  0.1818
  639SOL    HW1 1916   1.035   0.682   2.986 -0.8062 -2.5691 -0.7818
  639SOL    HW2 1917   1.111   0.819   3.062  0.4542 -1.4908  4.0873
  640SOL     OW 1918   2.022   2.013   1.752 -0.5148  0.3420 -0.4121
  640SOL    HW1 1919   1.959   1.936   1.783 -2.6256  2.0125  3.0628
  640SOL    HW2 1920   2.043   2.075   1.828  4.1315 -2.7635 -1.9237
  641SOL     OW 1921   2.950   0.036   0.822 -0.4088 -0.0531 -0.0643
  641SOL    HW1 1922   2.959   0.079   0.916 -0.4130 -0.8590 -0.9690
  641SOL    HW2 1923   2.980   3.015   0.822  1.5415 -0.7204 -2.6585
  642SOL     OW 1924   1.143   1.084   1.748 -0.0114  0.7664 -0.1510
  642SOL    HW1 1925   1.166   1.182   1.729 -1.1966  0.8012 -2.1679
  642SOL    HW2 1926   1.059   1.056   1.696 -1.3460 -0.6268  2.0532
  643SOL     OW 1927   0.653   1.810   2.536 -0.1241 -0.5564 -0.3288
  643SOL    HW1 1928   0.741   1.770   2.573  0.3631  3.2430  3.6583
  643SOL    HW2 1929   0.573   1.787   2.600 -2.2225  2.1570 -0.2472
  644SOL     OW 1930   1.282   2.560   2.371 -0.0146  0.4460 -0.0346
  644SOL    HW1 1931   1.367   2.612   2.376 -3.0270 -2.7005  0.0223
  644SOL    HW2 1932   1.221   2.567   2.456 -1.3607 -0.2288 -3.2982
  645SOL     OW 1933   1.586   0.934   1.683  0.3075 -0.4360  0.8219
  645SOL    HW1 1934   1.594   1.033   1.713 -0.6090  1.6942 -0.9508
  645SOL    HW2 1935   1.500   0.897   1.721  0.7394  0.9896  1.4494
  646SOL     OW 1936   1.132   2.329   2.713 -0.1539 -0.1103  0.1619
  646SOL    HW1 1937   1.185   2.412   2.680  1.5516 -1.0166 -3.5290
  646SOL    HW2 1938   1.183   2.240   2.706 -1.1930 -2.2026 -2.3070
  647SOL     OW 1939   1.114   2.877   0.451  0.6186 -0.7181 -0.0536
  647SOL    HW1 1940   1.201   2.922   0.465  0.0491 -1.0604  0.5654
  647SOL    HW2 1941   1.037   2.925   0.500  0.0075 -0.4398 -1.9390
  648SOL     OW 1942   2.588   2.680   1.126 -0.0631 -0.2001 -0.0776
  648SOL    HW1 1943   2.581   2.602   1.059 -1.2811 -0.6712 -2.7021
  648SOL    HW2 1944   2.524   2.671   1.202  2.1659 -1.3617 -3.5543
  649SOL     OW 1945   0.454   2.382   2.663  0.0965 -0.6625  0.2916
  649SOL    HW1 1946   0.443   2.345   2.573  0.5290  1.4928  1.4089
  649SOL    HW2 1947   0.555   2.396   2.680 -1.4814  1.0700  0.4255
  650SOL     OW 1948   2.651   1.620   2.326 -0.9429 -0.1444  0.6114
  650SOL    HW1 1949   2.730   1.602   2.262  0.0293  1.7434  0.9524
  650SOL    HW2 1950   2.664   1.713   2.358  3.5636 -2.6359 -2.0540
  651SOL     OW 1951   2.703   2.363   2.214  0.0370 -0.1045  0.4546
  651SOL    HW1 1952   2.709   2.321   2.121 -0.0577  2.6846  2.0119
  651SOL    HW2 1953   2.756   2.316   2.283 -0.2920  2.0728 -1.3989
  652SOL     OW 1954   2.576   2.182   0.524  0.1925  0.0868 -0.2503
  652SOL    HW1 1955   2.532   2.111   0.581  2.2118  0.0989 -0.3305
  652SOL    HW2 1956   2.534   2.274   0.532 -0.4559  0.9683 -0.2464
  653SOL     OW 1957   2.689   1.085   1.103  0.8017 -0.3181 -0.0653
  653SOL    HW1 1958   2.653   0.996   1.069 -0.3854 -1.5793 -0.0030
  653SOL    HW2 1959   2.676   1.089   1.205  0.9240  1.6871 -0.1505
  654SOL     OW 1960   0.843   0.425   2.827 -0.7434 -0.1591  0.2377
  654SOL    HW1 1961   0.764   0.364   2.854  2.3697  1.9035  0.7542
  654SOL    HW2 1962   0.866   0.480   2.905 -2.3404 -1.4079  1.1505
  655SOL     OW 1963   1.017   0.116   1.178  0.5338 -0.1431  0.0129
  655SOL    HW1 1964   1.104   0.125   1.229  2.3602  1.1317 -3.5513
  655SOL    HW2 1965   0.942   0.157   1.234  0.7231  0.9646  2.9278
  656SOL     OW 1966   0.416   2.346   2.005  0.2395  0.2191  0.1047
  656SOL    HW1 1967   0.352   2.358   1.924 -3.8345 -1.8193 -3.5534
  656SOL    HW2 1968   0.514   2.370   1.983  1.9345  0.7965  0.2236
  657SOL     OW 1969   2.589   0.719   0.358  0.7741 -0.1818 -0.2440
  657SOL    HW1 1970   2.542   0.632   0.348  0.3356  2.3106  0.9057
  657SOL    HW2 1971   2.566   0.774   0.274 -1.7495 -0.0014  0.3179
  658SOL     OW 1972   1.987   1.800   0.889  0.4088 -0.4550 -0.4158
  658SOL    HW1 1973   1.951   1.895   0.863 -2.8740  1.3954 -1.5574
  658SOL    HW2 1974   1.952   1.764   0.979 -2.5454  2.8889  1.2256
  659SOL     OW 1975   2.751   1.932   2.897 -0.1563  0.0877  0.4476
  659SOL    HW1 1976   2.687   1.944   2.968 -0.4418  0.4358 -1.6289
  659SOL    HW2 1977   2.746   2.002   2.820  0.0767  2.1063 -2.6515
  660SOL     OW 1978   1.230   0.375   0.280  0.2198  0.5965 -0.1958
  660SOL    HW1 1979   1.261   0.421   0.366  0.7030  0.7279 -0.4355
  660SOL    HW2 1980   1.268   0.420   0.193 -1.4207 -0.6493 -0.9979
  661SOL     OW 1981   1.899   0.041   3.021  0.0924  0.3029 -0.9863
  661SOL    HW1 1982   1.948   0.047   0.035 -1.1169  1.8100  1.5696
  661SOL    HW2 1983   1.966   0.030   2.941  2.3143 -0.3629 -1.4945
  662SOL     OW 1984   0.873   2.965   0.587  0.1191  0.0554  0.0203
  662SOL    HW1 1985   0.815   3.051   0.604 -0.7223  0.4955  2.4467
  662SOL    HW2 1986   0.914   2.940   0.674 -1.2766 -2.5861  0.7886
  663SOL     OW 1987   1.489   0.136   2.327  0.0538  0.0249  0.1016
  663SOL    HW1 1988   1.490   0.163   2.228 -0.7645  2.2009 -2.1373
  663SOL    HW2 1989   1.471   0.224   2.388 -1.3127  5.1014 -0.5225
  664SOL     OW 1990   0.730   2.918   1.297  0.0714 -0.4549 -0.3451
  664SOL    HW1 1991   0.659   2.917   1.371  0.3032  1.3081 -0.2200
  664SOL    HW2 1992   0.818   2.966   1.329  4.4999  0.7403  2.5926
  665SOL     OW 1993   0.694   2.250   1.725 -0.3432 -0.3987 -0.3548
  665SOL    HW1 1994   0.735   2.194   1.798  0.2552  1.5184 -1.5743
  665SOL    HW2 1995   0.601   2.223   1.721  0.8298  0.9670  1.4063
  666SOL     OW 1996   0.544   0.025   2.561 -0.2734 -0.3619  0.3939
  666SOL    HW1 1997   0.547   0.122   2.583  0.6891 -4.6458  0.8477
  666SOL    HW2 1998   0.465   0.001   2.506 -0.6781 -2.7284  0.9147
  667SOL     OW 1999   1.940   1.551   1.645  0.2601 -0.0074 -0.4115
  667SOL    HW1 2000   2.007   1.565   1.571  0.2531 -1.7860 -0.8509
  667SOL    HW2 2001   1.976   1.483   1.712  0.7442 -0.3647 -2.1401
  668SOL     OW 2002   1.854   2.960   1.708  0.2198 -0.0783 -0.4930
  668SOL    HW1 2003   1.794   2.876   1.717 -1.1382 -2.8114  2.6543
  668SOL    HW2 2004   1.800   3.042   1.694 -2.0437 -1.0753  2.1636
  669SOL     OW 2005   2.640   2.504   0.849  0.0190 -0.3396  0.3883
  669SOL    HW1 2006   2.578   2.429   0.880 -0.5512  0.0317 -1.1581
  669SOL    HW2 2007   2.723   2.515   0.905 -1.1813  1.5081 -1.4604
  670SOL     OW 2008   1.278   2.061   2.986  0.1702 -0.3807  0.6574
  670SOL    HW1 2009   1.233   2.002   3.055  0.3089 -2.0775 -0.0465
  670SOL    HW2 2010   1.290   2.156   3.017 -0.6551 -0.9695 -0.5442
  671SOL     OW 2011   0.844   1.105   0.375  0.0440 -0.1013 -0.2909
  671SOL    HW1 2012   0.916   1.042   0.415 -2.2845 -1.5447  1.3387
  671SOL    HW2 2013   0.755   1.055   0.395 -0.9996 -1.4152 -1.2221
  672SOL     OW 2014   2.532   0.997   2.599 -0.1536  0.3096  0.2289
  672SOL    HW1 2015   2.620   1.025   2.644  1.8436 -0.7276  1.4755
  672SOL    HW2 2016   2.544   0.921   2.529  0.0859 -1.9304  0.2264
  673SOL     OW 2017   2.625   2.061   1.653  0.2485 -0.1130 -0.4763
  673SOL    HW1 2018   2.646   1.964   1.666  0.3426  0.7432  0.4113
  673SOL    HW2 2019   2.530   2.083   1.683 -0.0172 -0.7011 -0.2392
  674SOL     OW 2020   0.429   2.320   2.377 -0.5631 -0.4781  0.0687
  674SOL    HW1 2021   0.440   2.407   2.325 -2.0356 -1.2191  0.9890
  674SOL    HW2 2022   0.416   2.238   2.314  0.9494 -2.5075  0.5757
  675SOL     OW 2023   1.082   0.632   1.709  1.0988 -0.4459  0.0663
  675SOL    HW1 2024   1.040   0.540   1.699  2.0533 -0.7870 -1.1794
  675SOL    HW2 2025   1.145   0.656   1.629 -0.0674  0.5013 -2.2496
  676SOL     OW 2026   2.038   0.011   1.289  0.0223  0.2458  0.2439
  676SOL    HW1 2027   1.941   3.066   1.252 -2.9243 -0.1237  0.3872
  676SOL    HW2 2028   2.033   0.107   1.325  1.1286  1.6998 -0.3531
  677SOL     OW 2029   2.228   1.360   2.984 -0.1286  0.0985 -0.2509
  677SOL    HW1 2030   2.282   1.418   2.923 -0.9155  0.8943  0.7664
  677SOL    HW2 2031   2.213   1.271   2.939 -0.5245 -0.1682  2.1122
  678SOL     OW 2032   2.616   1.357   1.062 -0.6225  0.3607  0.2438
  678SOL    HW1 2033   2.669   1.271   1.086 -0.6870 -2.7416  1.8293
  678SOL    HW2 2034   2.612   1.424   1.140 -2.0468 -0.4260  0.3117
  679SOL     OW 2035   2.602   0.572   3.037 -0.1687  0.4482 -0.2959
  679SOL    HW1 2036   2.619   0.521   0.045  0.1508 -0.7392  0.3047
  679SOL    HW2 2037   2.513   0.622   3.038 -1.2807 -0.3277 -0.2054
  680SOL     OW 2038   0.441   1.767   1.947 -0.1367  0.0419 -0.3045
  680SOL    HW1 2039   0.360   1.766   2.003  2.2119  0.6294  0.1173
  680SOL    HW2 2040   0.511   1.698   1.979 -0.4305 -0.1120  0.0309
  681SOL     OW 2041   2.352   2.049   1.724  0.2001  0.1166 -0.1813
  681SOL    HW1 2042   2.351   2.047   1.826  0.0275 -1.8339  1.6652
  681SOL    HW2 2043   2.300   1.967   1.694  1.1132 -2.1871 -0.9845
  682SOL     OW 2044   0.471   2.000   0.042 -0.2189  0.4759  0.0100
  682SOL    HW1 2045   0.433   2.090   0.022  2.7578 -0.1562 -1.5609
  682SOL    HW2 2046   0.496   1.990   0.138  2.1411  1.2663 -1.4293
  683SOL     OW 2047   3.034   2.092   1.389  0.1372 -0.0607 -0.0722
  683SOL    HW1 2048   2.964   2.142   1.447  1.1083 -1.2173 -0.8547
  683SOL    HW2 2049   0.051   2.108   1.431 -0.2796  0.1336  0.4566
  684SOL     OW 2050   2.881   1.173   1.966  0.0232 -0.4039  0.7159
  684SOL    HW1 2051   2.840   1.254   2.016 -2.2366 -1.5095  1.7126
  684SOL    HW2 2052   2.807   1.110   1.937 -0.3636  3.2088 -0.9455
  685SOL     OW 2053   1.275   0.576   0.471  0.3102  0.2128  0.0558
  685SOL    HW1 2054   1.376   0.600   0.481  1.1131  0.1289  0.8088
  685SOL    HW2 2055   1.243   0.534   0.561  1.1982  0.9818  4.0105
  686SOL     OW 2056   0.703   0.380   0.913 -0.0471  0.2191 -0.3124
  686SOL    HW1 2057   0.644   0.423   0.844  0.2683 -0.5657 -1.7705
  686SOL    HW2 2058   0.723   0.278   0.890  0.3504 -0.6649 -3.5257
  687SOL     OW 2059   0.724   2.127   2.704  0.0756 -0.5082 -0.4208
  687SOL    HW1 2060   0.689   2.033   2.698 -1.1486 -0.0608  1.6448
  687SOL    HW2 2061   0.720   2.161   2.802 -1.8003  2.7750 -0.1430
  688SOL     OW 2062   1.982   0.618   1.533  0.1251 -0.4581 -0.1304
  688SOL    HW1 2063   2.063   0.679   1.539 -0.4206  2.1081  4.5058
  688SOL    HW2 2064   1.980   0.543   1.602  0.2989  0.6405 -1.0398
  689SOL     OW 2065   1.576   0.441   0.765 -0.5962  0.1982  0.2837
  689SOL    HW1 2066   1.653   0.384   0.721 -0.8422 -0.8777 -2.4993
  689SOL    HW2 2067   1.505   0.471   0.701 -1.4557  1.8187 -1.8537
  690SOL     OW 2068   2.630   1.521   1.314  0.7075  0.0820  0.3059
  690SOL    HW1 2069   2.548   1.460   1.324 -2.1083  0.1332 -1.5056
  690SOL    HW2 2070   2.678   1.528   1.402 -2.3536 -4.3846 -0.3963
  691SOL     OW 2071   0.409   2.286   1.336  0.1470 -0.2561  0.1901
  691SOL    HW1 2072   0.446   2.263   1.242 -1.8286 -0.3486 -0.5649
  691SOL    HW2 2073   0.445   2.214   1.402  2.4454 -3.2843 -2.9940
  692SOL     OW 2074   1.478   3.034   1.523 -0.1503 -0.2666 -0.2297
  692SOL    HW1 2075   1.525   2.947   1.556  1.1871  2.8027  3.1219
  692SOL    HW2 2076   1.535   0.021   1.470 -0.6753 -2.8004  0.6048
  693SOL     OW 2077   0.734   1.799   2.126  0.4020 -0.5181  0.4248
  693SOL    HW1 2078   0.759   1.874   2.194  2.2463  3.7771 -2.0506
  693SOL    HW2 2079   0.809   1.798   2.056  1.0664 -1.4120  0.9037
  694SOL     OW 2080   1.850   1.335   0.939 -0.0179 -0.3078 -0.2985
  694SOL    HW1 2081   1.855   1.406   0.867  1.6881 -1.5516  0.5948
  694SOL    HW2 2082   1.805   1.368   1.024  0.1138  0.3622  1.1307
  695SOL     OW 2083   1.171   0.866   1.053  0.8506 -0.1876 -0.4991
  695SOL    HW1 2084   1.194   0.785   0.997 -1.6965 -1.8335 -0.9586
  695SOL    HW2 2085   1.070   0.875   1.073  1.6817  0.4810  1.3003
  696SOL     OW 2086   0.352   0.090   0.554 -0.0311 -0.1652 -0.4963
  696SOL    HW1 2087   0.275   0.153   0.586  0.5987  3.3128  3.8346
  696SOL    HW2 2088   0.337   3.067   0.568  0.8512  0.7879 -0.7798
  697SOL     OW 2089   2.132   0.513   0.978  0.4990 -0.7233  0.8561
  697SOL    HW1 2090   2.058   0.573   0.935 -1.4020  1.6986  0.6855
  697SOL    HW2 2091   2.093   0.460   1.055 -1.5800  0.5851  0.4053
  698SOL     OW 2092   1.368   1.372   1.881  0.2758  0.0543  0.2012
  698SOL    HW1 2093   1.444   1.443   1.882  2.1106  3.3285  3.1066
  698SOL    HW2 2094   1.366   1.346   1.978  0.2365  1.9337  1.2003
  699SOL     OW 2095   2.927   0.257   2.156 -0.1776 -0.0208  0.3090
  699SOL    HW1 2096   2.882   0.298   2.232 -0.0631  0.0462 -0.9878
  699SOL    HW2 2097   2.948   0.328   2.083  2.6660  1.7829  2.2456
  700SOL     OW 2098   1.844   2.704   0.734  0.5659  0.1049 -0.2367
  700SOL    HW1 2099   1.910   2.713   0.661 -2.4066 -0.7832  0.8778
  700SOL    HW2 2100   1.770   2.638   0.709  0.9439  1.5530  0.2552
  701SOL     OW 2101   3.007   1.694   2.449 -0.0502  0.5483  0.4206
  701SOL    HW1 2102   3.041   1.786   2.424  0.5198  0.6801  2.7630
  701SOL    HW2 2103   0.012   1.629   2.441  1.2090 -1.3675  2.4039
  702SOL     OW 2104   0.855   0.017   0.334  0.2286  0.1950  0.1495
  702SOL    HW1 2105   0.911   3.049   0.409  1.5932 -0.7277 -0.8351
  702SOL    HW2 2106   0.770   3.040   0.318  0.8730  3.8936  0.1901
  703SOL     OW 2107   1.982   2.735   2.490 -0.1194  0.4516  0.2606
  703SOL    HW1 2108   2.029   2.767   2.572 -2.4022 -0.8026 -0.8806
  703SOL    HW2 2109   2.012   2.787   2.409 -0.6608 -1.1501  0.6080
  704SOL     OW 2110   2.658   2.028   0.111  0.3270  0.0583 -0.0589
  704SOL    HW1 2111   2.751   2.073   0.116 -0.5015  0.5059 -0.4249
  704SOL    HW2 2112   2.667   1.923   0.107 -2.2124 -3.8593 -3.3911
  705SOL     OW 2113   2.915   2.312   2.399  0.0617 -0.2972 -0.2995
  705SOL    HW1 2114   2.959   2.231   2.353  3.7479 -1.3534  0.5899
  705SOL    HW2 2115   2.985   2.352   2.461 -3.4705 -0.1801  0.0106
  706SOL     OW 2116   2.862   0.044   0.400 -0.0637  0.0107 -0.0458
  706SOL    HW1 2117   2.800   0.064   0.323 -2.8839 -2.5071  1.0912
  706SOL    HW2 2118   2.880   3.016   0.411 -0.3528  2.4507 -1.5782
  707SOL     OW 2119   1.263   0.189   2.909 -0.3996 -0.7306 -0.1717
  707SOL    HW1 2120   1.270   0.198   2.807  2.1651  0.6080 -1.0735
  707SOL    HW2 2121   1.165   0.210   2.937 -3.6828  0.9660 -1.7405
  708SOL     OW 2122   0.335   2.143   1.743  0.6711 -0.1388 -0.1510
  708SOL    HW1 2123   0.249   2.122   1.796 -2.1185 -3.2222  0.2970
  708SOL    HW2 2124   0.362   2.052   1.705 -1.7602 -2.0617 -0.2168
  709SOL     OW 2125   1.405   2.911   1.849  0.1208  0.1712 -0.0103
  709SOL    HW1 2126   1.447   2.991   1.894  0.4974  1.7219  1.4417
  709SOL    HW2 2127   1.377   2.842   1.918 -0.6885  1.9023 -0.3176
  710SOL     OW 2128   1.554   2.596   2.698 -0.5969  0.1164 -0.1357
  710SOL    HW1 2129   1.635   2.646   2.725  1.2436 -3.8273 -0.6501
  710SOL    HW2 2130   1.472   2.620   2.757 -1.5596  1.0557  1.1940
  711SOL     OW 2131   0.768   2.706   2.825 -0.1771  0.5401  0.2700
  711SOL    HW1 2132   0.868   2.735   2.826  2.9961  1.0456  0.5445
  711SOL    HW2 2133   0.744   2.620   2.770 -2.4774 -3.0546 -1.4470
  712SOL     OW 2134   0.928   1.881   0.008 -0.2717 -0.3718 -0.0143
  712SOL    HW1 2135   0.847   1.928   3.039  2.8965 -2.2895 -2.6885
  712SOL    HW2 2136   0.886   1.818   0.080 -2.8037  0.7845 -0.0964
  713SOL     OW 2137   1.970   1.075   1.383  0.6408  0.0509  0.0747
  713SOL    HW1 2138   1.975   1.028   1.293 -0.2854  1.5342 -1.2682
  713SOL    HW2 2139   1.886   1.133   1.387 -2.2521 -2.9565 -0.6693
  714SOL     OW 2140   1.009   1.243   2.069 -0.0844  0.3996  0.4102
  714SOL    HW1 2141   0.977   1.243   1.971  1.9065 -0.9815 -0.2891
  714SOL    HW2 2142   1.088   1.179   2.085  0.0661  0.2851  0.7672
  715SOL     OW 2143   2.692   0.409   0.157  0.2180 -0.1871 -0.0847
  715SOL    HW1 2144   2.751   0.410   0.240  0.1516 -1.6692  0.7877
  715SOL    HW2 2145   2.718   0.338   0.089 -0.7428 -3.3026  0.4485
  716SOL     OW 2146   0.520   2.659   1.182 -0.0400 -0.0157 -0.3185
  716SOL    HW1 2147   0.609   2.615   1.171 -3.6247  4.7485  0.9130
  716SOL    HW2 2148   0.520   2.754   1.154 -0.2298  0.8257  1.0390
  717SOL     OW 2149   2.767   0.635   0.574 -0.1959  0.5848 -0.2560
  717SOL    HW1 2150   2.790   0.537   0.555  1.4027  0.1312  0.1708
  717SOL    HW2 2151   2.704   0.669   0.502 -0.2190 -0.7508  0.3325
  718SOL     OW 2152   1.747   1.240   1.393 -0.1118 -0.4953 -0.1749
  718SOL    HW1 2153   1.732   1.310   1.466  0.9837  1.5044 -0.4168
  718SOL    HW2 2154   1.661   1.185   1.377 -0.0877 -0.1602  0.2356
  719SOL     OW 2155   2.737   2.893   0.125  0.3334  0.0477 -0.5832
  719SOL    HW1 2156   2.651   2.848   0.086 -0.7894  1.3341 -1.3813
  719SOL    HW2 2157   2.793   2.822   0.169 -3.2418  2.7030 -1.3810
  720SOL     OW 2158   1.024   0.371   0.991  0.1033  0.3100  0.4270
  720SOL    HW1 2159   0.987   0.465   1.016 -1.5314 -3.3483  1.5116
  720SOL    HW2 2160   1.012   0.306   1.063  1.0943  3.5166 -2.2437
  721SOL     OW 2161   1.856   0.153   0.959  0.6181  0.3694 -0.7328
  721SOL    HW1 2162   1.940   0.164   0.900 -0.4425  0.0215  2.1884
  721SOL    HW2 2163   1.858   0.227   1.036 -0.6635  0.5483 -0.8269
  722SOL     OW 2164   0.443   1.903   1.678 -0.1545  0.4004 -0.1817
  722SOL    HW1 2165   0.389   1.830   1.722  0.4857  1.9623  2.3170
  722SOL    HW2 2166   0.541   1.907   1.714  2.0187 -0.5771  0.0109
  723SOL     OW 2167   1.245   0.169   1.352 -0.1477 -0.2142 -0.0261
  723SOL    HW1 2168   1.256   0.210   1.261 -2.8912 -1.1944 -2.0714
  723SOL    HW2 2169   1.301   0.086   1.364 -0.8460 -0.2442  1.3541
  724SOL     OW 2170   1.826   1.790   1.731  0.2681  0.5861 -0.0341
  724SOL    HW1 2171   1.732   1.743   1.717 -1.2764 -2.3521  1.7022
  724SOL    HW2 2172   1.900   1.729   1.695  2.6117 -3.6154 -2.4118
  725SOL     OW 2173   1.313   2.529   1.348 -0.3304 -0.7831 -0.2177
  725SOL    HW1 2174   1.407   2.550   1.383  0.7494 -1.1623  1.1154
  725SOL    HW2 2175   1.237   2.532   1.418 -0.8202 -1.8428  0.9571
  726SOL     OW 2176   1.674   0.217   2.977 -0.0008 -0.5915 -0.5045
  726SOL    HW1 2177   1.766   0.174   2.991  0.4555  1.2932 -0.8696
  726SOL    HW2 2178   1.604   0.203   3.052 -2.8515 -1.3439  1.0131
  727SOL     OW 2179   1.471   2.193   0.442  0.2416 -0.2784 -0.4958
  727SOL    HW1 2180   1.436   2.102   0.419 -2.1202  1.4324  1.8491
  727SOL    HW2 2181   1.555   2.222   0.388  1.0353 -0.4678  2.8937
  728SOL     OW 2182   1.763   2.667   2.334 -0.5605 -0.0961 -0.9204
  728SOL    HW1 2183   1.775   2.682   2.232 -0.3894  0.4986 -0.9837
  728SOL    HW2 2184   1.850   2.691   2.384 -0.5609 -0.4077  0.1760
  729SOL     OW 2185   2.110   2.337   1.816  0.0195  0.1416 -0.2938
  729SOL    HW1 2186   2.161   2.297   1.738  0.4723  0.3126  2.8318
  729SOL    HW2 2187   2.164   2.328   1.900  0.0267  0.4941  0.2385
  730SOL     OW 2188   1.472   0.623   2.438  0.0261 -0.4942 -0.3590
  730SOL    HW1 2189   1.468   0.520   2.441 -0.7786 -1.6826  0.5131
  730SOL    HW2 2190   1.389   0.667   2.396 -0.7495  1.6778 -1.7131
  731SOL     OW 2191   0.615   0.160   1.185  0.2457 -0.4705 -0.4820
  731SOL    HW1 2192   0.665   0.157   1.095 -0.3992  0.8431 -2.2077
  731SOL    HW2 2193   0.677   0.153   1.265 -1.6900 -2.2711 -0.5876
  732SOL     OW 2194   1.583   2.885   1.178 -0.0915 -0.7329  0.1768
  732SOL    HW1 2195   1.620   2.788   1.183  0.2612 -2.3893 -0.1596
  732SOL    HW2 2196   1.482   2.884   1.168 -0.7135 -0.3226 -0.2910
  733SOL     OW 2197   1.285   0.848   1.294 -0.1940  0.3107 -0.2886
  733SOL    HW1 2198   1.248   0.868   1.200 -2.5882 -0.2809 -1.4294
  733SOL    HW2 2199   1.386   0.833   1.293 -1.1211  0.0623  1.3866
  734SOL     OW 2200   2.481   2.151   0.275 -0.3092  0.3482 -0.0508
  734SOL    HW1 2201   2.521   2.083   0.212 -0.3891 -0.0008  1.0460
  734SOL    HW2 2202   2.531   2.156   0.367  0.4552 -1.2163 -0.8638
  735SOL     OW 2203   0.406   0.511   0.488 -0.2451  0.1131  0.0331
  735SOL    HW1 2204   0.452   0.585   0.431  1.0207 -1.1118 -1.1550
  735SOL    HW2 2205   0.375   0.445   0.410  1.8889  1.0313 -0.7088
  736SOL     OW 2206   2.121   2.251   2.727  0.3013  0.6702  0.1388
  736SOL    HW1 2207   2.115   2.333   2.668 -0.6175  0.8593 -1.5783
  736SOL    HW2 2208   2.191   2.261   2.800  0.1274 -1.9726  2.1833
  737SOL     OW 2209   1.032   2.354   1.129  0.7089  0.2596  0.0798
  737SOL    HW1 2210   1.093   2.401   1.056  0.3814  2.0724  0.5856
  737SOL    HW2 2211   0.999   2.260   1.094 -0.6324 -4.0725 -1.9202
  738SOL     OW 2212   1.420   2.604   1.977  0.1195  0.3569  0.2938
  738SOL    HW1 2213   1.392   2.682   2.038 -1.7627 -1.8702  0.9580
  738SOL    HW2 2214   1.500   2.561   2.022 -1.5601 -1.3249 -1.5383
  739SOL     OW 2215   0.788   2.107   1.929 -0.3021  0.0477  0.0176
  739SOL    HW1 2216   0.886   2.095   1.956 -2.3420 -4.3099 -0.9105
  739SOL    HW2 2217   0.729   2.107   2.010  1.8833  1.6165 -2.3284
  740SOL     OW 2218   1.660   2.357   1.558  0.0483 -0.1183 -0.1319
  740SOL    HW1 2219   1.628   2.447   1.529  1.2878  0.6721  3.3522
  740SOL    HW2 2220   1.758   2.335   1.526  3.4701  2.1130 -1.8082
  741SOL     OW 2221   2.339   1.614   2.904 -0.6927  0.0235  0.3531
  741SOL    HW1 2222   2.291   1.622   2.817  2.7014  0.1643  1.0280
  741SOL    HW2 2223   2.435   1.651   2.896  1.8169  0.0146 -1.0579
  742SOL     OW 2224   0.818   1.497   2.272 -0.1245  0.2028 -0.0197
  742SOL    HW1 2225   0.740   1.555   2.305 -1.4954 -0.2530 -0.5826
  742SOL    HW2 2226   0.788   1.399   2.267 -2.2600 -0.7288  0.6721
  743SOL     OW 2227   2.963   1.060   2.291 -0.4207  1.0609 -0.5292
  743SOL    HW1 2228   2.958   0.994   2.368 -0.4063  1.5420 -0.5952
  743SOL    HW2 2229   3.016   1.014   2.213 -3.7330  0.4744  3.5855
  744SOL     OW 2230   2.256   2.335   2.048  0.0079 -0.0588  0.1715
  744SOL    HW1 2231   2.195   2.326   2.130  0.0835  1.0170 -0.9024
  744SOL    HW2 2232   2.338   2.390   2.070  1.2145 -1.0912 -0.7470
  745SOL     OW 2233   2.338   1.729   1.502  0.0279  0.5524 -0.1654
  745SOL    HW1 2234   2.297   1.757   1.596 -2.4560  1.9877  2.7198
  745SOL    HW2 2235   2.280   1.680   1.437  1.9083  0.3075 -3.1470
  746SOL     OW 2236   2.617   1.274   0.719  0.0594  0.2547 -0.0655
  746SOL    HW1 2237   2.585   1.268   0.625 -0.6487 -0.2798  2.9325
  746SOL    HW2 2238   2.537   1.266   0.783 -0.5461  1.3790 -0.9755
  747SOL     OW 2239   1.942   2.405   0.524  0.0148  0.7977 -0.7926
  747SOL    HW1 2240   1.963   2.318   0.571  0.2713 -0.4644  0.5859
  747SOL    HW2 2241   1.848   2.439   0.540  1.6265 -2.8147 -0.5454
  748SOL     OW 2242   0.976   2.310   0.337  0.3257 -0.0844 -0.0143
  748SOL    HW1 2243   1.057   2.278   0.288 -0.9013  0.2810  2.2664
  748SOL    HW2 2244   0.949   2.406   0.308  1.3615 -1.5151  0.4203
  749SOL     OW 2245   2.678   0.428   2.245  0.2516  0.1872 -0.1496
  749SOL    HW1 2246   2.680   0.529   2.259 -3.2530 -2.0956 -1.5819
  749SOL    HW2 2247   2.590   0.380   2.270 -4.4840  0.1366  0.0931
  750SOL     OW 2248   1.671   0.132   1.402  0.5590  0.7581  0.1195
  750SOL    HW1 2249   1.660   0.228   1.367 -1.8359  2.2726 -0.7020
  750SOL    HW2 2250   1.719   0.073   1.328  1.2372 -0.8621 -0.7868
  751SOL     OW 2251   1.883   2.506   2.624 -0.6644  0.6123  0.8015
  751SOL    HW1 2252   1.877   2.598   2.581  0.9076 -0.1317  2.3841
  751SOL    HW2 2253   1.881   2.512   2.726 -1.8487  1.0063  1.0852
  752SOL     OW 2254   1.710   1.979   0.454  0.3415  0.6517  0.3925
  752SOL    HW1 2255   1.690   2.068   0.406  0.2663  0.7361 -0.2509
  752SOL    HW2 2256   1.788   1.922   0.422 -0.1764  1.1400 -0.5850
  753SOL     OW 2257   1.577   0.849   2.075 -0.1401 -0.1167 -0.2767
  753SOL    HW1 2258   1.606   0.774   2.138 -1.5151 -1.1476 -2.4847
  753SOL    HW2 2259   1.506   0.906   2.115  3.4469 -0.2024 -1.2720
  754SOL     OW 2260   0.207   2.946   0.802 -0.4045  0.6169 -0.2616
  754SOL    HW1 2261   0.226   3.005   0.881  0.8341 -0.2960 -2.1219
  754SOL    HW2 2262   0.114   2.910   0.813  3.5204 -1.0746  2.3269
  755SOL     OW 2263   2.026   2.912   1.485  0.1007  0.2788  0.4038
  755SOL    HW1 2264   2.031   2.977   1.406 -0.1050 -2.3404 -1.6226
  755SOL    HW2 2265   1.951   2.940   1.553 -0.1086  0.6120  1.7810
  756SOL     OW 2266   1.346   1.007   2.493  0.0800 -0.3470 -0.1447
  756SOL    HW1 2267   1.421   0.940   2.489 -0.5954  0.7601 -1.3028
  756SOL    HW2 2268   1.316   1.026   2.585  1.6861 -1.1285 -1.8748
  757SOL     OW 2269   2.977   2.774   1.505 -0.4065 -0.2011  0.0281
  757SOL    HW1 2270   3.031   2.780   1.592 -0.3429  0.3362  1.4768
  757SOL    HW2 2271   2.876   2.755   1.516 -1.1671  0.3056 -0.9266
  758SOL     OW 2272   0.586   0.214   1.515 -0.4365  0.4929 -0.6084
  758SOL    HW1 2273   0.522   0.165   1.582 -0.5572 -1.9176 -1.4472
  758SOL    HW2 2274   0.565   0.311   1.506  0.2532 -0.8562 -0.8672
  759SOL     OW 2275   2.212   1.145   0.722 -0.1815 -0.1318  0.3684
  759SOL    HW1 2276   2.275   1.205   0.672 -3.3443 -0.3585  0.1737
  759SOL    HW2 2277   2.258   1.108   0.801  0.6133  0.2923 -1.7475
  760SOL     OW 2278   2.010   0.294   1.388 -0.1913 -0.2793 -0.3397
  760SOL    HW1 2279   1.942   0.290   1.462  0.4097 -2.5636 -1.7044
  760SOL    HW2 2280   2.090   0.354   1.410  0.2466 -0.2612 -0.1329
  761SOL     OW 2281   2.038   0.042   0.184 -0.5882 -0.0817  0.2002
  761SOL    HW1 2282   2.072   0.089   0.271  0.4228  0.5630  0.5094
  761SOL    HW2 2283   2.006   3.020   0.208  0.9499 -0.1480  0.9518
  762SOL     OW 2284   2.723   2.458   0.006 -0.2869 -0.6935 -0.0265
  762SOL    HW1 2285   2.696   2.445   2.982  3.3747 -0.3890 -1.0211
  762SOL    HW2 2286   2.822   2.491   0.007  2.8979 -0.2163  2.5971
  763SOL     OW 2287   0.765   0.983   0.852 -0.0697  0.6453  0.3016
  763SOL    HW1 2288   0.828   1.063   0.863 -0.3024 -0.8349 -2.2126
  763SOL    HW2 2289   0.675   1.007   0.891 -0.7643  0.0769  0.9598
  764SOL     OW 2290   2.569   2.347   2.861  0.4420 -0.5949 -0.1438
  764SOL    HW1 2291   2.482   2.367   2.806 -0.4946  0.2271 -0.2008
  764SOL    HW2 2292   2.635   2.295   2.808  0.4888 -0.0146  1.4547
  765SOL     OW 2293   0.509   0.936   1.923 -0.0919  0.1929  0.2751
  765SOL    HW1 2294   0.458   0.871   1.979  0.9382  2.2475  1.0635
  765SOL    HW2 2295   0.568   0.881   1.854  1.5265 -2.2272  0.9225
  766SOL     OW 2296   2.814   1.265   2.546 -0.8450 -0.0832 -0.3990
  766SOL    HW1 2297   2.749   1.327   2.600 -2.6601  2.0963  1.6678
  766SOL    HW2 2298   2.786   1.243   2.451 -0.0316  1.8839  2.3378
  767SOL     OW 2299   0.138   1.793   2.087 -0.1216  0.2328 -0.1954
  767SOL    HW1 2300   0.108   1.700   2.062  1.2019  2.2649  0.8131
  767SOL    HW2 2301   0.204   1.785   2.165  1.2268  0.0295  1.7443
  768SOL     OW 2302   0.966   1.124   2.779 -0.9225 -0.3574 -0.3482
  768SOL    HW1 2303   0.878   1.107   2.824  1.8164  1.6991 -1.4120
  768SOL    HW2 2304   0.954   1.173   2.688 -1.7734  0.1551 -0.2548
  769SOL     OW 2305   1.757   2.753   2.814 -0.2514 -0.1676  0.5617
  769SOL    HW1 2306   1.837   2.792   2.762  0.0323  0.2028 -2.8611
  769SOL    HW2 2307   1.719   2.810   2.892  1.5048 -0.5562 -2.0526
  770SOL     OW 2308   0.211   0.398   2.350  0.4608 -0.3910 -0.7948
  770SOL    HW1 2309   0.220   0.468   2.423  0.9220  1.7668 -0.7918
  770SOL    HW2 2310   0.303   0.356   2.343 -1.1176  2.3923  0.4134
  771SOL     OW 2311   0.733   2.070   1.272 -0.0779 -0.1411  0.0808
  771SOL    HW1 2312   0.769   2.121   1.352  0.2180 -0.6025 -1.0258
  771SOL    HW2 2313   0.636   2.114   1.258 -4.9443  2.3946 -1.3052
  772SOL     OW 2314   0.482   0.688   2.887  0.1259 -0.2744  0.1950
  772SOL    HW1 2315   0.394   0.652   2.845  0.4263 -0.6890 -2.8328
  772SOL    HW2 2316   0.517   0.762   2.824  0.6760 -0.5831  0.0386
  773SOL     OW 2317   2.286   1.016   1.779  0.6188 -0.3467  0.0240
  773SOL    HW1 2318   2.375   1.053   1.806 -4.7851  1.0897  1.3920
  773SOL    HW2 2319   2.242   0.975   1.863 -0.1559  0.5097  1.0693
  774SOL     OW 2320   1.021   0.957   0.524  0.3773 -0.1562  0.2270
  774SOL    HW1 2321   0.989   0.898   0.601  0.6647 -1.0674  2.4311
  774SOL    HW2 2322   1.078   0.895   0.464  2.0477 -2.1458 -0.3412
  775SOL     OW 2323   2.119   2.795   2.704  0.2615 -0.5275  0.4564
  775SOL    HW1 2324   2.218   2.812   2.688 -1.3977  3.2430  0.4940
  775SOL    HW2 2325   2.095   2.768   2.799  2.1945  0.5783 -2.7286
  776SOL     OW 2326   2.368   3.026   2.449 -0.1267 -0.2810 -0.4992
  776SOL    HW1 2327   2.274   3.030   2.493 -0.3474 -0.2013  0.2343
  776SOL    HW2 2328   2.413   2.934   2.452  1.7008 -3.3182  3.1551
  777SOL     OW 2329   0.649   1.654   2.870 -0.1612  0.1576  0.1444
  777SOL    HW1 2330   0.567   1.657   2.808  0.4965  0.6592 -0.8596
  777SOL    HW2 2331   0.624   1.644   2.970 -1.2701 -1.5499  3.6777
  778SOL     OW 2332   0.791   2.879   0.142 -0.3947  0.1758 -0.6363
  778SOL    HW1 2333   0.888   2.914   0.134  0.6042  0.7679 -0.6168
  778SOL    HW2 2334   0.770   2.832   0.232 -2.2580  2.2108 -0.1603
  779SOL     OW 2335   3.003   1.151   2.955 -0.3687  0.1808  0.1979
  779SOL    HW1 2336   3.034   1.146   3.053 -0.7873 -1.7888 -2.1544
  779SOL    HW2 2337   2.939   1.074   2.935  0.5645 -1.0831 -0.4535
  780SOL     OW 2338   1.984   0.386   2.471 -0.1267 -0.0107 -0.5887
  780SOL    HW1 2339   1.950   0.354   2.565 -1.0792 -3.1627  0.3480
  780SOL    HW2 2340   1.983   0.324   2.395  1.0947  0.8227  0.1018
  781SOL     OW 2341   2.179   0.893   2.002 -0.2222 -0.2301 -0.4331
  781SOL    HW1 2342   2.123   0.942   2.072 -0.9617 -1.3046 -1.1775
  781SOL    HW2 2343   2.116   0.869   1.922 -0.3466 -1.9840 -1.8156
  782SOL     OW 2344   1.411   1.752   2.287  0.0449 -0.0017 -0.2619
  782SOL    HW1 2345   1.449   1.761   2.193  1.9934 -0.2612  0.2188
  782SOL    HW2 2346   1.337   1.825   2.308 -0.9645  1.1628 -0.9709
  783SOL     OW 2347   1.320   2.875   1.075  0.0599 -0.4865 -0.1310
  783SOL    HW1 2348   1.224   2.885   1.120 -1.0472  1.1337  0.5402
  783SOL    HW2 2349   1.315   2.818   0.990 -3.5358  0.1206 -0.1082
  784SOL     OW 2350   1.438   0.853   2.785 -0.7720 -0.0635  0.0267
  784SOL    HW1 2351   1.473   0.840   2.692  0.3230  1.1499  1.5408
  784SOL    HW2 2352   1.345   0.883   2.797  0.0796 -1.6075 -2.5923
  785SOL     OW 2353   1.872   0.344   2.724 -0.3858  0.1878 -0.1521
  785SOL    HW1 2354   1.845   0.430   2.778  0.7009 -0.7690  1.1761
  785SOL    HW2 2355   1.782   0.294   2.698 -1.9739  0.1448  2.0844
  786SOL     OW 2356   0.015   1.248   0.548 -0.3100 -0.3165  0.4150
  786SOL    HW1 2357   3.010   1.202   0.498  0.1918  1.5172 -1.4653
  786SOL    HW2 2358   3.069   1.276   0.643  0.3909  2.2946  0.7707
  787SOL     OW 2359   1.592   1.854   0.179 -0.0197 -0.2409  0.0250
  787SOL    HW1 2360   1.645   1.910   0.114 -0.5232 -1.5959 -2.1286
  787SOL    HW2 2361   1.655   1.804   0.240  0.1002  3.5215  1.3408
  788SOL     OW 2362   1.681   1.808   1.345  0.0273 -0.0278  0.1695
  788SOL    HW1 2363   1.688   1.835   1.249 -2.0278 -1.6409 -2.2958
  788SOL    HW2 2364   1.729   1.874   1.409  0.4305 -3.1771 -0.0151
  789SOL     OW 2365   3.058   1.306   2.243  0.1488  0.1663  0.2114
  789SOL    HW1 2366   3.023   1.213   2.273  0.4690  0.2578  0.9445
  789SOL    HW2 2367   0.011   1.310   2.145 -0.0425  0.7956 -0.8208
  790SOL     OW 2368   0.673   0.089   0.031  0.1784  0.0487  0.0914
  790SOL    HW1 2369   0.585   0.047   0.062  3.2068  0.7863 -0.7804
  790SOL    HW2 2370   0.734   0.010   0.049 -1.4714  4.1651  0.4444
  791SOL     OW 2371   0.677   0.001   2.239 -0.0105 -0.1608 -0.2819
  791SOL    HW1 2372   0.670   0.088   2.183  2.1287  1.8172 -0.2017
  791SOL    HW2 2373   0.748   0.005   2.308  1.0064  1.2272 -0.9918
  792SOL     OW 2374   1.743   0.432   2.050 -0.1626 -0.1655  0.2615
  792SOL    HW1 2375   1.728   0.506   2.118 -0.7844 -0.3216  0.9291
  792SOL    HW2 2376   1.799   0.352   2.081  0.4246 -3.2922  0.4230
  793SOL     OW 2377   2.581   0.888   1.524 -0.3225  0.2334  0.4867
  793SOL    HW1 2378   2.514   0.853   1.584  1.6387 -1.3105  0.1296
  793SOL    HW2 2379   2.623   0.975   1.560  0.7964 -2.2567 -0.7299
  794SOL     OW 2380   0.252   0.533   1.595 -0.0682 -0.4519  0.3337
  794SOL    HW1 2381   0.229   0.625   1.560 -1.8798 -1.9735 -0.9781
  794SOL    HW2 2382   0.240   0.521   1.697 -2.5452 -0.8578  1.1672
  795SOL     OW 2383   0.064   1.480   0.426 -0.6573  0.6355 -0.7656
  795SOL    HW1 2384   0.085   1.552   0.493 -2.2685 -1.5197  0.6791
  795SOL    HW2 2385   0.056   1.387   0.475  0.4867  2.3105  0.4972
  796SOL     OW 2386   0.203   2.558   0.295 -0.0472  0.3351  0.9065
  796SOL    HW1 2387   0.233   2.653   0.280 -0.3506 -1.7541 -1.0884
  796SOL    HW2 2388   0.121   2.532   0.241  0.1888  1.1076  2.0069
  797SOL     OW 2389   1.899   2.520   2.872 -0.5066  0.0159 -0.8188
  797SOL    HW1 2390   1.977   2.526   2.943  2.6763  0.7178 -0.5558
  797SOL    HW2 2391   1.840   2.601   2.867  1.8236 -1.5439  2.4711
  798SOL     OW 2392   0.046   1.182   1.457 -0.2905  0.2405  0.2065
  798SOL    HW1 2393   3.069   1.113   1.397  1.1165 -1.3381 -0.4640
  798SOL    HW2 2394   0.017   1.280   1.438 -1.3344 -0.1625  0.8599
  799SOL     OW 2395   2.912   0.867   2.980  0.3229  0.6559 -0.1848
  799SOL    HW1 2396   2.954   0.886   2.892  1.4242 -1.2536 -1.5508
  799SOL    HW2 2397   2.886   0.769   2.991 -2.0283 -0.8384  0.3049
  800SOL     OW 2398   2.681   1.718   0.433  0.0259  0.3534  0.2209
  800SOL    HW1 2399   2.626   1.763   0.358  2.2951  1.1314 -0.4285
  800SOL    HW2 2400   2.773   1.696   0.398 -0.2670 -1.0472  0.0420
  801SOL     OW 2401   1.618   0.980   1.163 -0.0197  0.3855  0.2778
  801SOL    HW1 2402   1.572   1.065   1.128  0.5755  0.5472 -0.7685
  801SOL    HW2 2403   1.597   0.983   1.263  1.9533  0.2445 -2.4327
  802SOL     OW 2404   0.910   1.963   1.572 -0.5198  0.2086 -0.2840
  802SOL    HW1 2405   0.985   1.949   1.507 -0.6149 -0.9287 -1.3434
  802SOL    HW2 2406   0.861   2.054   1.555 -0.8270  1.7431 -0.9567
  803SOL     OW 2407   0.354   1.956   0.572 -0.2135 -0.1384  0.6108
  803SOL    HW1 2408   0.456   1.942   0.592 -0.3350  0.9499  0.1716
  803SOL    HW2 2409   0.335   2.039   0.633  2.1742 -2.6043 -0.6323
  804SOL     OW 2410   1.016   2.609   1.445 -0.6014 -0.0333 -0.0703
  804SOL    HW1 2411   1.074   2.646   1.523  1.2647 -0.3032  0.2697
  804SOL    HW2 2412   0.918   2.636   1.453  0.7910 -0.1270 -0.1614
  805SOL     OW 2413   1.888   1.163   0.167 -0.1675 -0.7149 -0.4875
  805SOL    HW1 2414   1.876   1.134   0.071 -0.8181  2.8803 -1.6998
  805SOL    HW2 2415   1.866   1.258   0.175  2.1849 -0.2846  0.2202
  806SOL     OW 2416   1.459   3.054   0.894 -1.0476 -0.2579 -0.6158
  806SOL    HW1 2417   1.515   2.986   0.840  2.8376 -1.5953  2.2320
  806SOL    HW2 2418   1.410   3.014   0.978  1.1043  4.0436  1.3169
  807SOL     OW 2419   2.598   2.969   2.819 -0.0155 -0.2320  0.2826
  807SOL    HW1 2420   2.554   3.051   2.861 -0.5750 -0.5284  1.2666
  807SOL    HW2 2421   2.677   2.998   2.767  0.7652 -0.5597  2.3248
  808SOL     OW 2422   0.043   1.117   0.162 -0.1890 -0.3257 -0.2953
  808SOL    HW1 2423   0.111   1.052   0.201 -1.3534  1.8824  0.6326
  808SOL    HW2 2424   0.087   1.207   0.147  0.9813 -2.5526 -0.5777
  809SOL     OW 2425   2.677   0.710   2.324  0.2844 -0.3179 -0.0312
  809SOL    HW1 2426   2.642   0.676   2.411  1.2308  1.6417 -3.5362
  809SOL    HW2 2427   2.603   0.721   2.258  4.7121  0.6161 -2.3182
  810SOL     OW 2428   1.971   3.021   1.935  0.0656  0.2195 -0.2833
  810SOL    HW1 2429   1.925   3.002   1.847  0.7790 -0.4872  1.1923
  810SOL    HW2 2430   2.008   2.935   1.980  0.1457 -1.4500 -0.3174
  811SOL     OW 2431   2.599   2.426   1.817 -0.0059 -0.1518  0.4684
  811SOL    HW1 2432   2.629   2.523   1.837  1.4130  2.0136  1.2663
  811SOL    HW2 2433   2.594   2.420   1.714 -1.5623 -0.6412 -0.6584
  812SOL     OW 2434   1.646   0.207   2.714 -0.1035 -0.2160 -0.1241
  812SOL    HW1 2435   1.648   0.217   2.818 -0.4734 -0.3167  2.5430
  812SOL    HW2 2436   1.590   0.131   2.685  0.0063  0.6423 -0.8440
  813SOL     OW 2437   1.925   0.205   2.018 -0.4562  0.5742  0.6174
  813SOL    HW1 2438   1.938   0.108   1.995  2.1696 -0.5151 -1.7107
  813SOL    HW2 2439   1.976   0.260   1.945  1.2378  0.1285 -1.8054
  814SOL     OW 2440   1.859   1.141   1.787  0.1595  0.0855 -0.6376
  814SOL    HW1 2441   1.848   1.082   1.872 -1.9131 -1.2998  2.8023
  814SOL    HW2 2442   1.772   1.172   1.747 -4.5427  0.6945 -0.5862
  815SOL     OW 2443   0.607   0.919   0.395  0.1664 -0.0914 -0.8084
  815SOL    HW1 2444   0.518   0.972   0.411 -0.8645  0.3110 -0.0187
  815SOL    HW2 2445   0.634   0.877   0.486 -1.9529 -2.4431 -0.4062
  816SOL     OW 2446   2.235   1.686   2.637 -0.2003 -0.6623  0.3529
  816SOL    HW1 2447   2.181   1.608   2.605  1.7906  0.4410 -0.8425
  816SOL    HW2 2448   2.326   1.682   2.587  0.8444 -0.4612 -2.5751
  817SOL     OW 2449   0.208   2.924   0.540 -0.0154  0.3571  0.0981
  817SOL    HW1 2450   0.223   2.912   0.639  0.7365 -3.3495  2.1513
  817SOL    HW2 2451   0.112   2.944   0.512  0.4284  0.2024  0.4138
  818SOL     OW 2452   1.928   3.048   2.396 -0.6014  0.2222 -0.4199
  818SOL    HW1 2453   2.003   3.053   2.464  0.3124 -2.9876 -0.6223
  818SOL    HW2 2454   1.835   3.063   2.446 -0.4772 -0.4357  2.2340
  819SOL     OW 2455   1.116   0.759   0.366 -1.0012 -0.5346  0.2028
  819SOL    HW1 2456   1.166   0.676   0.399 -1.3558  0.4835  1.9503
  819SOL    HW2 2457   1.016   0.737   0.347 -3.9254  0.4259  0.1521
  820SOL     OW 2458   2.040   0.664   0.696 -0.0640 -0.2788  0.1805
  820SOL    HW1 2459   2.101   0.736   0.657 -1.3007  1.2220  0.0163
  820SOL    HW2 2460   1.998   0.694   0.783 -1.5485  3.3455 -2.4648
  821SOL     OW 2461   2.478   2.876   0.400 -0.4792  0.7559  0.4474
  821SOL    HW1 2462   2.486   2.974   0.373 -1.0500  2.5033 -1.0496
  821SOL    HW2 2463   2.464   2.814   0.320 -1.1816 -2.2565  1.0981
  822SOL     OW 2464   0.337   3.030   2.383  0.3471  0.1855  0.7278
  822SOL    HW1 2465   0.327   3.064   2.286  0.1856 -2.1113 -2.0186
  822SOL    HW2 2466   0.247   2.990   2.409  1.2196 -2.2559 -0.9983
  823SOL     OW 2467   2.889   2.187   1.595  0.0764  0.1948  0.3964
  823SOL    HW1 2468   2.909   2.287   1.606  1.4180 -1.9074 -2.0150
  823SOL    HW2 2469   2.806   2.166   1.639  5.6629  0.8873 -1.5432
  824SOL     OW 2470   0.739   2.935   2.018  0.2493 -0.3071  0.0653
  824SOL    HW1 2471   0.714   2.977   2.108 -0.1412 -0.0119 -0.9537
  824SOL    HW2 2472   0.827   2.881   2.028 -1.5523  0.3911 -1.7827
  825SOL     OW 2473   1.455   1.585   0.492 -0.2777  0.3668 -0.3749
  825SOL    HW1 2474   1.539   1.558   0.443  2.4194 -0.9770 -1.1391
  825SOL    HW2 2475   1.375   1.594   0.427 -0.1734  1.3428  1.3583
  826SOL     OW 2476   1.727   0.473   2.984 -0.3467  1.2565 -0.0122
  826SOL    HW1 2477   1.693   0.378   2.964  0.4098  0.2052  0.9121
  826SOL    HW2 2478   1.786   0.468   3.070 -2.0065  1.8986  1.6075
  827SOL     OW 2479   0.193   1.550   1.305 -0.1899 -0.5766 -0.2719
  827SOL    HW1 2480   0.155   1.629   1.365  1.4471 -1.2678  1.8481
  827SOL    HW2 2481   0.204   1.572   1.206  3.4730  1.6079 -0.1771
  828SOL     OW 2482   2.038   1.217   1.606  0.0111  0.3072 -0.3745
  828SOL    HW1 2483   2.034   1.164   1.519  0.3759  1.6533 -1.9148
  828SOL    HW2 2484   1.979   1.173   1.679 -0.9742 -0.1565  0.6581
  829SOL     OW 2485   0.112   2.175   0.392  0.6296 -0.3364 -0.0565
  829SOL    HW1 2486   0.040   2.104   0.375  0.6137  1.4862 -2.7497
  829SOL    HW2 2487   0.120   2.232   0.310 -2.1021 -1.0010  2.4948
  830SOL     OW 2488   0.981   0.795   0.750  0.6965  0.4852  0.3885
  830SOL    HW1 2489   1.048   0.741   0.807  0.2454 -0.6848  1.5047
  830SOL    HW2 2490   0.921   0.857   0.802 -4.2767  1.2180 -2.9673
  831SOL     OW 2491   2.660   1.759   0.082  0.1289 -0.1495 -0.0788
  831SOL    HW1 2492   2.738   1.713   0.034 -0.0182  1.5710 -1.7665
  831SOL    HW2 2493   2.577   1.699   0.085  0.6340 -0.6338 -1.4506
  832SOL     OW 2494   1.129   2.768   0.180  0.2830 -0.0197  0.0327
  832SOL    HW1 2495   1.107   2.856   0.134  0.2731 -2.4935 -2.6549
  832SOL    HW2 2496   1.144   2.780   0.279 -0.4280  0.0985  2.3447
  833SOL     OW 2497   0.993   0.507   2.083  0.0075 -0.2760  0.1101
  833SOL    HW1 2498   1.001   0.478   2.178 -1.9805  1.7057  0.0981
  833SOL    HW2 2499   0.984   0.607   2.073  1.6814  1.5365 -1.2450
  834SOL     OW 2500   0.037   0.926   1.091 -0.6844  0.1015  1.1902
  834SOL    HW1 2501   3.063   0.937   0.998  0.1443 -1.6965 -1.2750
  834SOL    HW2 2502   0.047   0.824   1.109  0.4751 -2.3330  2.6566
  835SOL     OW 2503   2.487   0.223   1.919 -0.3484  0.1592  0.0904
  835SOL    HW1 2504   2.469   0.278   2.006 -0.0810  0.3765 -2.0559
  835SOL    HW2 2505   2.441   0.135   1.924  1.5606  1.5582  0.7568
  836SOL     OW 2506   0.362   2.128   0.779  0.1596 -0.4650 -0.0797
  836SOL    HW1 2507   0.408   2.218   0.759 -1.1017 -0.6186 -2.5387
  836SOL    HW2 2508   0.410   2.089   0.858 -2.8415 -0.6616  3.1804
  837SOL     OW 2509   1.971   1.692   2.391 -0.0517 -0.0116  0.3735
  837SOL    HW1 2510   1.988   1.612   2.454  0.6902 -2.1269  0.4040
  837SOL    HW2 2511   2.054   1.753   2.387 -0.5141 -3.2151 -1.1592
  838SOL     OW 2512   0.309   1.109   1.395  0.0825 -0.4001 -0.5949
  838SOL    HW1 2513   0.296   1.022   1.339  1.1383 -0.5728 -0.2448
  838SOL    HW2 2514   0.221   1.144   1.430  1.4776  3.8461 -2.4765
  839SOL     OW 2515   0.245   0.355   0.893 -0.2977 -0.0082  0.1949
  839SOL    HW1 2516   0.254   0.427   0.825  1.9689  1.0972  2.5552
  839SOL    HW2 2517   0.321   0.354   0.958 -0.4317  1.1371  0.0355
  840SOL     OW 2518   3.005   0.371   2.645 -0.0487 -0.5342  0.2140
  840SOL    HW1 2519   3.064   0.331   2.575 -0.3626 -0.2982  1.4864
  840SOL    HW2 2520   3.041   0.464   2.669  2.4084  2.3721  0.1024
  841SOL     OW 2521   0.377   2.720   3.029 -0.2502 -0.6335 -0.1144
  841SOL    HW1 2522   0.447   2.800   3.022 -1.3139  0.4987 -0.0957
  841SOL    HW2 2523   0.354   2.674   2.940 -0.9312 -0.0657 -1.7567
  842SOL     OW 2524   0.996   0.010   0.936  0.2989 -0.0213 -0.1280
  842SOL    HW1 2525   0.978   2.987   0.960  1.2203  3.4550  1.0768
  842SOL    HW2 2526   1.011   0.073   1.017  0.4931  0.4396  2.2636
  843SOL     OW 2527   3.018   1.296   2.727 -0.1537 -0.4094  0.2076
  843SOL    HW1 2528   3.014   1.235   2.810  0.0340 -0.6902 -0.4920
  843SOL    HW2 2529   2.940   1.272   2.672  2.1059 -1.3153  1.9703
  844SOL     OW 2530   0.821   2.446   2.316 -0.4408 -0.3094 -0.0239
  844SOL    HW1 2531   0.720   2.440   2.338 -1.2014  1.3272  1.7058
  844SOL    HW2 2532   0.841   2.409   2.225  1.4801  3.8980  0.1213
  845SOL     OW 2533   2.167   2.490   2.499 -0.0649  0.3242  0.6563
  845SOL    HW1 2534   2.220   2.556   2.434  1.9828  0.7879  0.0085
  845SOL    HW2 2535   2.074   2.521   2.525  2.5831 -0.8093 -1.6994
  846SOL     OW 2536   1.636   1.499   2.589  0.1162  0.4038 -0.2468
  846SOL    HW1 2537   1.695   1.560   2.646 -1.6771  0.7808  0.3046
  846SOL    HW2 2538   1.693   1.434   2.530 -0.6429 -0.9399 -1.0440
  847SOL     OW 2539   2.849   0.209   0.009  0.3630  0.2664  0.2346
  847SOL    HW1 2540   2.925   0.213   0.080  1.4213  0.5670 -0.5472
  847SOL    HW2 2541   2.893   0.190   2.992  1.6535 -2.4127 -2.7732
  848SOL     OW 2542   0.237   0.945   0.268  0.6435 -0.1083  0.2875
  848SOL    HW1 2543   0.159   0.902   0.318  2.0403  0.9024  1.8520
  848SOL    HW2 2544   0.288   1.005   0.330 -2.5562 -0.0900 -0.2044
  849SOL     OW 2545   1.185   0.225   2.311 -0.0686  0.2756 -0.2835
  849SOL    HW1 2546   1.147   0.132   2.314  1.1006  3.4233 -0.2999
  849SOL    HW2 2547   1.277   0.230   2.260 -1.2995  0.3246 -0.0079
  850SOL     OW 2548   0.407   1.087   0.410 -0.2663 -0.1334 -0.1903
  850SOL    HW1 2549   0.435   1.174   0.360  0.5624 -0.1268 -0.3889
  850SOL    HW2 2550   0.346   1.112   0.489  0.1829 -2.8141 -2.0660
  851SOL     OW 2551   0.510   1.307   0.298 -0.1375 -0.1256  0.0535
  851SOL    HW1 2552   0.534   1.377   0.373  1.3426  1.7130  1.1077
  851SOL    HW2 2553   0.598   1.303   0.245  3.0529 -1.7862  0.8557
  852SOL     OW 2554   1.229   1.324   1.669  0.1510  0.5545  0.4860
  852SOL    HW1 2555   1.270   1.350   1.762 -0.5667  0.3458  0.8733
  852SOL    HW2 2556   1.255   1.396   1.602 -0.2950  1.4864  0.6549
  853SOL     OW 2557   2.512   1.423   0.352 -0.1646 -0.6464 -0.1127
  853SOL    HW1 2558   2.531   1.526   0.350 -0.2293  0.4159  0.9792
  853SOL    HW2 2559   2.509   1.386   0.253  0.2321  2.3870 -0.6505
  854SOL     OW 2560   1.282   1.234   2.365 -0.1302 -0.6136  0.0768
  854SOL    HW1 2561   1.290   1.144   2.416  0.2828 -0.4226 -1.6678
  854SOL    HW2 2562   1.240   1.304   2.423 -0.3956 -0.7662 -0.8607
  855SOL     OW 2563   0.315   2.544   2.795  0.3937 -0.8721 -0.3088
  855SOL    HW1 2564   0.364   2.485   2.725  1.8347  0.0253 -0.2488
  855SOL    HW2 2565   0.270   2.634   2.762  1.1875  0.5738 -1.9912
  856SOL     OW 2566   1.189   1.034   2.027  0.4168 -0.5743  0.4650
  856SOL    HW1 2567   1.183   1.062   1.926 -2.6015  1.3478 -0.4621
  856SOL    HW2 2568   1.118   0.964   2.057  1.1833  1.6899  0.2314
  857SOL     OW 2569   1.269   0.649   2.267 -0.5807 -0.5305  0.1422
  857SOL    HW1 2570   1.233   0.556   2.238 -1.8737 -0.0360  0.1234
  857SOL    HW2 2571   1.264   0.719   2.190 -1.7889 -0.2669 -1.0531
  858SOL     OW 2572   0.051   0.861   1.752  0.6102 -0.1280 -0.6960
  858SOL    HW1 2573   0.099   0.924   1.822  2.4410  0.9904  1.5688
  858SOL    HW2 2574   0.114   0.843   1.675 -0.8670  1.0416  0.0914
  859SOL     OW 2575   2.691   2.986   0.783  0.5821 -1.3347 -0.0244
  859SOL    HW1 2576   2.785   3.013   0.762 -1.4437 -0.6475  1.4508
  859SOL    HW2 2577   2.666   2.900   0.742 -1.5462  0.0129  4.4620
  860SOL     OW 2578   1.750   0.263   0.648 -0.1511  0.0893 -0.1493
  860SOL    HW1 2579   1.665   0.226   0.610  0.8034 -2.0322  1.2322
  860SOL    HW2 2580   1.816   0.185   0.646 -0.7788 -0.6611 -0.6121
  861SOL     OW 2581   1.575   0.587   1.005 -0.3628 -0.0123 -0.1798
  861SOL    HW1 2582   1.493   0.580   1.063 -0.6724  1.2393 -1.7956
  861SOL    HW2 2583   1.578   0.515   0.929 -2.6029 -1.3912 -0.3797
  862SOL     OW 2584   1.400   2.938   2.350 -0.1668  0.7284  0.5594
  862SOL    HW1 2585   1.481   2.881   2.382 -0.3322 -0.7873 -0.6295
  862SOL    HW2 2586   1.427   3.032   2.322  1.7706 -0.7813  1.4327
  863SOL     OW 2587   3.031   2.859   0.816 -0.1713 -0.1189  0.1208
  863SOL    HW1 2588   3.022   2.806   0.903  1.6578 -0.9162 -0.3330
  863SOL    HW2 2589   2.999   2.804   0.729 -0.9782  1.5508 -4.1012
  864SOL     OW 2590   2.408   3.056   2.151  0.0743 -0.7731  0.6601
  864SOL    HW1 2591   2.403   3.070   2.250  0.2137 -0.2979  2.7373
  864SOL    HW2 2592   2.317   0.002   2.100 -4.9234 -2.4100 -1.8514
  865SOL     OW 2593   0.974   1.518   2.051  0.3896  0.3173  0.0918
  865SOL    HW1 2594   1.002   1.420   2.053 -1.5422 -0.5420 -1.8509
  865SOL    HW2 2595   0.886   1.528   2.108 -1.3268  1.2619  0.7726
  866SOL     OW 2596   2.174   2.720   1.068 -0.1296 -0.7130 -0.4691
  866SOL    HW1 2597   2.098   2.678   1.125 -1.4136  1.4715  0.1622
  866SOL    HW2 2598   2.237   2.648   1.043  0.0128  0.7287  0.0806
  867SOL     OW 2599   2.118   2.871   0.836  0.2936 -0.6332 -0.3255
  867SOL    HW1 2600   2.165   2.826   0.919 -1.2019 -0.3367 -1.9312
  867SOL    HW2 2601   2.035   2.923   0.861  3.1294  2.2337 -0.1767
  868SOL     OW 2602   2.938   1.921   1.618 -0.1285 -0.4102 -0.3274
  868SOL    HW1 2603   2.897   1.869   1.547  3.0296 -0.1006  1.4858
  868SOL    HW2 2604   2.941   2.021   1.594  2.5831  0.7738  0.1169
  869SOL     OW 2605   1.866   2.262   2.221  0.2991 -0.3354 -0.1704
  869SOL    HW1 2606   1.843   2.276   2.322 -2.7451  1.9001  1.5086
  869SOL    HW2 2607   1.780   2.226   2.179  2.3860  0.7107  0.6571
  870SOL     OW 2608   1.301   1.238   0.801 -0.7181 -0.1693  0.6647
  870SOL    HW1 2609   1.253   1.253   0.711  2.1625 -1.7892  0.7128
  870SOL    HW2 2610   1.398   1.256   0.779  1.5500  0.4669 -0.3755
  871SOL     OW 2611   2.822   1.828   2.125 -0.0052  0.5685  0.3654
  871SOL    HW1 2612   2.811   1.866   2.217 -0.3214  0.9612  1.7642
  871SOL    HW2 2613   2.921   1.801   2.107  2.1314 -0.4374  0.1650
  872SOL     OW 2614   1.231   1.426   2.570  0.2990  0.0956 -0.0080
  872SOL    HW1 2615   1.131   1.422   2.542 -1.0161 -2.5708  0.6480
  872SOL    HW2 2616   1.284   1.500   2.530 -0.3439  0.1797 -0.5028
  873SOL     OW 2617   0.841   1.265   1.840 -0.4972 -0.1406  0.2154
  873SOL    HW1 2618   0.870   1.349   1.792 -0.1952 -1.2236  1.5376
  873SOL    HW2 2619   0.742   1.251   1.836  1.8895 -1.0477  1.1140
  874SOL     OW 2620   1.535   0.778   1.405 -0.2887  0.4685  0.0495
  874SOL    HW1 2621   1.621   0.778   1.347  1.1362 -0.3872 -1.3137
  874SOL    HW2 2622   1.559   0.770   1.501 -1.1200 -0.3867 -0.8975
  875SOL     OW 2623   0.006   0.268   0.173 -0.1311  0.0117 -0.2049
  875SOL    HW1 2624   0.007   0.208   0.256 -3.1301 -1.7790  1.8086
  875SOL    HW2 2625   3.048   0.365   0.188 -1.3102  0.7300 -0.3910
  876SOL     OW 2626   0.907   1.161   0.123 -0.0262 -0.3388 -0.0266
  876SOL    HW1 2627   0.889   1.124   0.218  2.4188 -1.9339  2.1492
  876SOL    HW2 2628   1.002   1.198   0.120 -1.9912 -0.5346  0.8943
  877SOL     OW 2629   2.439   2.753   0.896 -0.1703  0.4252 -0.5076
  877SOL    HW1 2630   2.428   2.661   0.937 -0.1721  1.8842 -0.9800
  877SOL    HW2 2631   2.490   2.745   0.807 -0.5515  1.2918  2.0134
  878SOL     OW 2632   1.926   1.868   0.354  0.3775  0.1419 -0.6960
  878SOL    HW1 2633   1.992   1.928   0.404  2.7724  0.1704  0.5260
  878SOL    HW2 2634   1.960   1.844   0.265 -1.8862 -1.6380  2.9610
  879SOL     OW 2635   2.847   1.509   1.836 -0.0841  0.0455 -0.3189
  879SOL    HW1 2636   2.936   1.555   1.829  0.8148 -1.1859  0.3320
  879SOL    HW2 2637   2.787   1.569   1.893 -1.0010 -0.7270  1.7706
  880SOL     OW 2638   0.449   1.947   0.982 -0.0214  0.4678 -0.6801
  880SOL    HW1 2639   0.407   1.922   1.070 -0.5440 -1.3209 -0.5497
  880SOL    HW2 2640   0.466   1.867   0.923  0.2874 -0.5454  1.0486
  881SOL     OW 2641   1.172   0.236   1.862  0.0234  0.1189 -0.4318
  881SOL    HW1 2642   1.238   0.197   1.798 -4.0768  0.7154  0.1257
  881SOL    HW2 2643   1.223   0.292   1.929  1.5265  0.3594 -3.4060
  882SOL     OW 2644   2.245   0.940   1.151 -0.0554  0.5737 -0.1413
  882SOL    HW1 2645   2.301   0.996   1.093  2.2336  0.1718  3.6718
  882SOL    HW2 2646   2.306   0.892   1.221  0.9606 -1.7045 -0.4128
  883SOL     OW 2647   1.715   0.136   1.686  0.0651  0.2738  0.0434
  883SOL    HW1 2648   1.677   0.155   1.593 -1.2718  3.2228  1.9609
  883SOL    HW2 2649   1.659   0.182   1.761 -1.1155  1.6264  0.1239
  884SOL     OW 2650   2.819   3.022   2.000 -0.2613 -0.4148 -0.1193
  884SOL    HW1 2651   2.896   3.041   2.068 -0.8146 -2.1511  1.5641
  884SOL    HW2 2652   2.786   0.036   1.960  0.1429  1.7427  2.3195
  885SOL     OW 2653   1.378   1.463   3.051  0.1166  0.2589 -0.0127
  885SOL    HW1 2654   1.367   1.459   2.954  0.0282 -0.6711  2.6903
  885SOL    HW2 2655   1.335   1.385   0.023  0.8184  0.3617 -1.9635
  886SOL     OW 2656   2.114   0.292   2.826 -0.0817  0.0177  0.4644
  886SOL    HW1 2657   2.117   0.291   2.929  0.5981  0.5848 -1.6633
  886SOL    HW2 2658   2.019   0.291   2.789  1.7945  1.0886 -2.0950
  887SOL     OW 2659   1.202   2.945   1.511  0.0608 -0.5758  0.4336
  887SOL    HW1 2660   1.300   2.961   1.494 -0.7922  3.1366  1.8524
  887SOL    HW2 2661   1.187   2.897   1.596  0.7540  0.8666  0.0354
  888SOL     OW 2662   1.818   1.696   2.172  0.2667  0.4691  0.1209
  888SOL    HW1 2663   1.828   1.604   2.131  2.1804  0.3739  0.0292
  888SOL    HW2 2664   1.887   1.711   2.244 -1.7075  0.1052  3.3836
  889SOL     OW 2665   1.965   2.432   1.277 -0.2976 -0.1389  0.3815
  889SOL    HW1 2666   1.920   2.380   1.351  0.8560  3.1949 -5.1358
  889SOL    HW2 2667   1.962   2.528   1.314  0.6542 -0.0072  0.1729
  890SOL     OW 2668   1.230   1.688   0.903  0.5199 -0.9398 -0.0361
  890SOL    HW1 2669   1.282   1.754   0.955 -1.3517  2.3435  1.4385
  890SOL    HW2 2670   1.213   1.720   0.809 -1.2852  1.1758  0.2575
  891SOL     OW 2671   2.504   1.112   0.199 -0.1356 -0.1417 -0.4374
  891SOL    HW1 2672   2.401   1.124   0.200 -1.9749 -2.8153  2.0356
  891SOL    HW2 2673   2.546   1.171   0.131  2.0457 -0.5517  1.3708
  892SOL     OW 2674   2.270   1.223   0.148  0.0691 -0.1508 -0.0168
  892SOL    HW1 2675   2.198   1.237   0.222  1.0641 -2.0385 -0.7092
  892SOL    HW2 2676   2.244   1.277   0.066 -0.1978  2.2298 -1.9201
  893SOL     OW 2677   1.931   2.347   1.525  0.3454 -0.2880 -0.0628
  893SOL    HW1 2678   1.961   2.446   1.531 -0.3891  1.6465  1.9976
  893SOL    HW2 2679   2.000   2.281   1.559 -2.4640 -1.1175 -2.7360
  894SOL     OW 2680   2.586   2.757   0.660 -0.5952 -0.4257  0.9419
  894SOL    HW1 2681   2.554   2.795   0.570  1.4173  0.8938  1.9651
  894SOL    HW2 2682   2.641   2.670   0.643  5.0524 -1.5268 -2.2235
  895SOL     OW 2683   2.803   2.574   2.817 -0.8243  0.7621  0.6486
  895SOL    HW1 2684   2.765   2.655   2.776 -0.2124  0.2580  0.5735
  895SOL    HW2 2685   2.819   2.511   2.740 -1.4915  1.6011 -1.4963
  896SOL     OW 2686   2.132   3.058   2.580  0.6475 -0.3619  0.3997
  896SOL    HW1 2687   2.192   0.062   2.611  2.3418 -0.0273 -0.2649
  896SOL    HW2 2688   2.106   3.005   2.661  1.7011 -3.0271 -0.9692
  897SOL     OW 2689   0.619   1.568   2.002  0.1069  0.1303 -0.3475
  897SOL    HW1 2690   0.646   1.592   1.906  1.7003 -1.8893  0.7994
  897SOL    HW2 2691   0.668   1.634   2.066  1.8971  2.4993 -0.2323
  898SOL     OW 2692   2.537   1.616   1.633  0.3833 -0.0256 -0.3859
  898SOL    HW1 2693   2.591   1.671   1.695  1.4684 -2.1323  1.8024
  898SOL    HW2 2694   2.468   1.669   1.580 -0.9968 -0.3426 -2.0680
  899SOL     OW 2695   1.556   2.622   1.457 -0.3394  0.3283  0.3327
  899SOL    HW1 2696   1.563   2.690   1.535 -0.1652  1.1977  1.1283
  899SOL    HW2 2697   1.596   2.654   1.365  0.4814  1.0471 -3.9411
  900SOL     OW 2698   1.155   0.929   2.790 -0.5269  1.2991 -0.0430
  900SOL    HW1 2699   1.074   0.988   2.782  0.1605 -1.8883  2.6551
  900SOL    HW2 2700   1.161   0.881   2.881 -1.6273 -1.4493  0.5454
  901SOL     OW 2701   0.829   1.220   2.260 -0.0645  0.3150 -0.0461
  901SOL    HW1 2702   0.753   1.169   2.214  2.8517  2.4485  0.2727
  901SOL    HW2 2703   0.906   1.230   2.192 -0.1396 -0.9766 -3.1114
  902SOL     OW 2704   2.843   2.204   0.510 -0.0851 -0.4873 -0.1465
  902SOL    HW1 2705   2.742   2.219   0.520 -1.1494  3.6308  0.5134
  902SOL    HW2 2706   2.870   2.124   0.453 -0.3077 -2.0770 -0.7541
  903SOL     OW 2707   2.503   1.197   1.874  0.0185 -0.0921 -0.3253
  903SOL    HW1 2708   2.540   1.239   1.788 -0.2545 -0.7972  0.1622
  903SOL    HW2 2709   2.560   1.120   1.905 -0.4966  1.7058  1.1592
  904SOL     OW 2710   1.759   0.738   0.164  0.1452  0.3919 -0.1627
  904SOL    HW1 2711   1.783   0.765   0.072 -2.8819 -0.7924  2.8589
  904SOL    HW2 2712   1.735   0.824   0.220 -1.6828  0.7506  2.6414
  905SOL     OW 2713   2.316   2.497   1.296 -0.4035 -0.2749  0.2290
  905SOL    HW1 2714   2.359   2.540   1.381  1.2179  0.0820 -0.7967
  905SOL    HW2 2715   2.304   2.398   1.310 -3.0695 -0.0389  1.0330
  906SOL     OW 2716   1.583   2.254   2.830  0.0041 -0.0303  0.0378
  906SOL    HW1 2717   1.551   2.297   2.743  1.2232  1.0226 -0.1551
  906SOL    HW2 2718   1.685   2.229   2.832  2.4172  1.7323  3.4058
  907SOL     OW 2719   0.797   2.449   0.878  0.0192  0.4672  0.0455
  907SOL    HW1 2720   0.839   2.361   0.907 -0.1308  2.0286  0.4505
  907SOL    HW2 2721   0.860   2.498   0.819 -1.4840 -0.1730  3.9299
  908SOL     OW 2722   1.004   2.885   2.070  0.0178 -0.8234  0.1058
  908SOL    HW1 2723   1.017   2.785   2.066  1.1795 -0.0569 -1.1613
  908SOL    HW2 2724   1.056   2.916   1.991 -1.4630  1.2613 -0.9803
  909SOL     OW 2725   1.901   0.364   1.669  0.2132 -1.0475  0.6521
  909SOL    HW1 2726   1.845   0.284   1.665  1.1279  2.5811 -1.1694
  909SOL    HW2 2727   1.860   0.441   1.719  0.8775  2.4432 -0.6024
  910SOL     OW 2728   1.160   0.634   2.746  0.1854 -0.2397 -0.1363
  910SOL    HW1 2729   1.143   0.691   2.829  0.2839  1.1151 -2.8924
  910SOL    HW2 2730   1.172   0.697   2.664  1.8845  3.2359 -3.9829
  911SOL     OW 2731   3.001   0.519   0.144 -0.2148  0.5286 -0.2110
  911SOL    HW1 2732   2.934   0.590   0.181 -0.7234 -0.1957  1.7468
  911SOL    HW2 2733   0.012   0.559   0.103  0.7093 -1.6010  0.4740
  912SOL     OW 2734   2.981   2.535   3.008  0.2800  0.0126 -0.5370
  912SOL    HW1 2735   2.907   2.557   2.941  1.2145 -0.8898  1.0219
  912SOL    HW2 2736   3.057   2.603   3.012 -1.3783 -0.1897 -1.1176
  913SOL     OW 2737   2.762   2.099   2.696 -0.1870 -0.7374 -0.1923
  913SOL    HW1 2738   2.676   2.051   2.675  3.2846  0.5067 -0.0803
  913SOL    HW2 2739   2.846   2.052   2.658 -0.3649 -1.8734  0.1520
  914SOL     OW 2740   1.561   1.688   1.552  0.0694  0.2037 -0.1303
  914SOL    HW1 2741   1.467   1.725   1.556 -0.3845  1.5177  3.7717
  914SOL    HW2 2742   1.595   1.706   1.454 -0.0489  2.0923 -0.6008
  915SOL     OW 2743   0.285   2.638   2.071 -0.1075  0.0434  0.1457
  915SOL    HW1 2744   0.209   2.590   2.111 -2.0395  0.8262 -1.4451
  915SOL    HW2 2745   0.368   2.610   2.121 -0.4317  2.0321 -0.2699
  916SOL     OW 2746   0.397   1.380   1.373 -0.7734  0.3932 -0.1259
  916SOL    HW1 2747   0.325   1.424   1.318 -1.3255  2.2946  0.6170
  916SOL    HW2 2748   0.374   1.283   1.396 -0.8359  0.1491 -0.5357
  917SOL     OW 2749   2.499   0.121   2.921  0.1752  0.3736 -0.4217
  917SOL    HW1 2750   2.448   0.122   3.009  1.4115 -0.8882  2.6892
  917SOL    HW2 2751   2.564   0.198   2.915  1.5772  1.3124  1.9121
  918SOL     OW 2752   1.525   2.305   2.327 -0.0320  0.8135 -0.2676
  918SOL    HW1 2753   1.561   2.212   2.314 -1.7326  2.1807 -0.6413
  918SOL    HW2 2754   1.428   2.322   2.299  0.0924  2.8515  1.1405
  919SOL     OW 2755   1.669   2.443   1.811 -0.4033  0.0834  0.7603
  919SOL    HW1 2756   1.661   2.405   1.715  0.6779  0.2053  1.7814
  919SOL    HW2 2757   1.748   2.405   1.864  2.2401 -0.4545  0.9508
  920SOL     OW 2758   0.694   1.074   2.858  0.7602  0.2861  0.1760
  920SOL    HW1 2759   0.679   1.076   2.755 -1.1325 -0.1060  0.5342
  920SOL    HW2 2760   0.622   1.130   2.906  1.8920  0.7215  0.8701
  921SOL     OW 2761   2.919   0.786   2.415  0.1412  0.0258  0.0692
  921SOL    HW1 2762   2.843   0.740   2.361 -1.8054 -2.1211 -4.1027
  921SOL    HW2 2763   3.012   0.752   2.382 -1.7996 -1.0834  1.9149
  922SOL     OW 2764   0.668   1.779   0.394  0.0708  0.1896  0.5810
  922SOL    HW1 2765   0.741   1.814   0.454  1.5862 -0.9265 -0.7277
  922SOL    HW2 2766   0.593   1.848   0.370 -0.3025  1.0652  0.2333
  923SOL     OW 2767   0.384   1.014   1.669  0.3485  0.6393 -0.3998
  923SOL    HW1 2768   0.466   0.953   1.648  3.6874  0.5963 -0.5927
  923SOL    HW2 2769   0.406   1.109   1.644  1.2575  1.1927  5.2994
  924SOL     OW 2770   1.280   3.012   2.823  0.2568 -0.0373  0.0126
  924SOL    HW1 2771   1.198   2.993   2.764 -0.9463  0.1038  2.1299
  924SOL    HW2 2772   1.267   0.036   2.853 -2.2702  1.3393 -1.5747
  925SOL     OW 2773   2.394   1.379   1.365 -0.0391  0.5520  0.1257
  925SOL    HW1 2774   2.302   1.355   1.325  0.0542  0.1231  1.7260
  925SOL    HW2 2775   2.386   1.384   1.462 -2.0017  0.6005 -2.2953
  926SOL     OW 2776   2.089   0.321   1.850  0.0950 -0.2065  0.2180
  926SOL    HW1 2777   2.153   0.402   1.872  0.0764  2.2642 -1.7856
  926SOL    HW2 2778   2.042   0.338   1.760  0.9888  0.8125 -2.4318
  927SOL     OW 2779   2.589   2.427   1.525 -0.7778  0.1126  0.1417
  927SOL    HW1 2780   2.605   2.352   1.461  1.0310  1.3260  3.2020
  927SOL    HW2 2781   2.525   2.499   1.494 -2.7371  0.1313 -0.8017
  928SOL     OW 2782   0.158   0.849   2.437  0.4448 -0.5772 -0.2028
  928SOL    HW1 2783   0.150   0.904   2.523 -1.7673  0.9774 -0.5863
  928SOL    HW2 2784   0.211   0.901   2.368 -0.8828 -2.2316 -1.9652
  929SOL     OW 2785   2.515   0.110   0.825 -0.1794  0.0649  0.2454
  929SOL    HW1 2786   2.590   0.042   0.801 -0.5580  0.4866  1.8366
  929SOL    HW2 2787   2.460   0.070   0.904 -1.0704  1.3636 -0.7510
  930SOL     OW 2788   2.828   3.022   1.650 -0.5230 -0.0758  0.6919
  930SOL    HW1 2789   2.859   2.929   1.668  0.1338  0.4216  1.3190
  930SOL    HW2 2790   2.900   3.071   1.600  2.1009  1.3453 -1.5551
  931SOL     OW 2791   2.019   0.929   0.414  0.1019  0.2724  0.0704
  931SOL    HW1 2792   1.917   0.920   0.398 -0.2429 -1.5557  2.8157
  931SOL    HW2 2793   2.063   0.893   0.329 -0.1989 -0.9915 -2.2206
  932SOL     OW 2794   2.238   1.428   1.598  0.4420 -0.0398  0.1153
  932SOL    HW1 2795   2.197   1.344   1.635 -2.8234  0.3752 -0.0354
  932SOL    HW2 2796   2.170   1.487   1.549  2.7077  1.8868 -0.2556
  933SOL     OW 2797   2.963   2.273   1.170  0.0408 -0.1739 -0.2117
  933SOL    HW1 2798   3.001   2.367   1.190 -0.7334  0.1972 -1.4904
  933SOL    HW2 2799   3.019   2.202   1.215 -0.2459  0.3129 -1.7253
  934SOL     OW 2800   0.492   2.050   1.458  0.4661  0.0641 -0.8188
  934SOL    HW1 2801   0.459   1.978   1.393  1.4887 -1.5820  0.6749
  934SOL    HW2 2802   0.503   2.012   1.554 -1.9306  0.1603 -0.8407
  935SOL     OW 2803   2.649   1.379   2.079 -0.2296  0.5316 -0.4232
  935SOL    HW1 2804   2.589   1.319   2.019  0.0265 -1.3921  0.0522
  935SOL    HW2 2805   2.632   1.476   2.058 -2.4105 -0.1952 -0.5988
  936SOL     OW 2806   2.669   1.623   2.005  0.7845  0.1971  0.3779
  936SOL    HW1 2807   2.739   1.682   2.056  0.7163  2.1094 -0.1388
  936SOL    HW2 2808   2.595   1.681   1.956 -1.4412  0.3598  0.4573
  937SOL     OW 2809   2.088   1.320   2.271 -0.0245  0.4022 -0.1893
  937SOL    HW1 2810   2.011   1.354   2.331 -1.7647  1.2517  0.5416
  937SOL    HW2 2811   2.133   1.392   2.213  0.8220  1.7137 -0.1418
  938SOL     OW 2812   0.909   2.300   2.576  0.0618 -0.1913 -0.1498
  938SOL    HW1 2813   0.846   2.234   2.628 -1.4692 -1.4440  0.9411
  938SOL    HW2 2814   0.998   2.322   2.614  0.0909  4.9296 -1.1983
  939SOL     OW 2815   2.325   0.924   3.017 -0.5320  0.0851 -0.0176
  939SOL    HW1 2816   2.348   0.861   2.939  2.2035  0.1382  0.5279
  939SOL    HW2 2817   2.391   0.910   0.020  0.6419 -3.7281  0.6415
  940SOL     OW 2818   1.057   1.726   0.675 -0.0201 -0.0440  0.2323
  940SOL    HW1 2819   1.096   1.667   0.600 -0.6803 -1.8504  1.4107
  940SOL    HW2 2820   0.989   1.680   0.732  0.0125 -0.9550 -0.8999
  941SOL     OW 2821   1.012   2.633   2.242  0.0702 -0.8193  0.3540
  941SOL    HW1 2822   1.089   2.593   2.291 -4.5930 -1.4730 -1.4173
  941SOL    HW2 2823   0.931   2.581   2.270  0.1644 -1.6331 -1.5627
  942SOL     OW 2824   0.653   2.308   0.353 -0.4692  0.6776 -0.5870
  942SOL    HW1 2825   0.710   2.337   0.274  1.4608 -3.0194 -0.0717
  942SOL    HW2 2826   0.709   2.255   0.422 -0.2441 -1.3605 -2.1136
  943SOL     OW 2827   1.763   2.679   1.792 -0.1576 -0.1178 -0.2790
  943SOL    HW1 2828   1.716   2.587   1.799  1.0990  2.8182 -0.2263
  943SOL    HW2 2829   1.856   2.668   1.758 -1.0778 -0.6545  0.4335
  944SOL     OW 2830   1.136   1.570   2.908  0.5991 -0.1100  0.5491
  944SOL    HW1 2831   1.224   1.595   2.873 -0.2817  2.9181  2.7396
  944SOL    HW2 2832   1.065   1.636   2.868  0.5998  1.5291 -0.3079
  945SOL     OW 2833   2.978   2.678   0.623  0.4670  0.1658 -0.3070
  945SOL    HW1 2834   2.888   2.627   0.631 -1.1423  2.1228  0.7108
  945SOL    HW2 2835   3.055   2.612   0.626 -0.1370  2.0756  1.6976
  946SOL     OW 2836   0.906   1.730   2.607 -0.1742  0.4933  0.4667
  946SOL    HW1 2837   0.905   1.739   2.705 -0.5230  1.4744  0.3736
  946SOL    HW2 2838   0.942   1.639   2.577 -2.9317 -1.2935 -1.0425
  947SOL     OW 2839   2.753   0.160   1.852 -0.3811 -0.0523  0.1596
  947SOL    HW1 2840   2.770   0.102   1.771  0.5581  0.3065  0.9464
  947SOL    HW2 2841   2.656   0.189   1.863 -1.3977  1.3794  3.1273
  948SOL     OW 2842   0.192   1.930   1.149  0.2366 -0.3742 -0.4837
  948SOL    HW1 2843   0.174   1.998   1.076  1.1544 -0.0069  0.9785
  948SOL    HW2 2844   0.267   1.958   1.212 -3.0312  0.9124  0.9694
  949SOL     OW 2845   0.916   0.879   1.875  0.5857  0.5373 -0.3126
  949SOL    HW1 2846   0.987   0.816   1.834 -1.7940  0.9358  2.6119
  949SOL    HW2 2847   0.880   0.946   1.808  0.5033 -0.4803  1.2287
  950SOL     OW 2848   2.996   1.020   1.295 -0.2313 -0.1840 -0.3052
  950SOL    HW1 2849   3.044   0.978   1.217 -1.0554  1.3616  1.8168
  950SOL    HW2 2850   2.914   0.958   1.313  0.2868 -2.2893  0.3752
  951SOL     OW 2851   0.588   1.685   2.305 -0.7509 -0.0415  0.4401
  951SOL    HW1 2852   0.620   1.726   2.394  0.0429 -0.1604 -0.4193
  951SOL    HW2 2853   0.634   1.739   2.229  1.3465  1.1338 -1.0027
  952SOL     OW 2854   1.556   2.294   0.674  0.0189 -0.3246  0.2702
  952SOL    HW1 2855   1.534   2.237   0.593 -0.3879 -1.4754  2.5741
  952SOL    HW2 2856   1.533   2.245   0.761 -0.7089 -0.3341 -2.0228
  953SOL     OW 2857   0.855   0.616   0.351  0.2483  0.2414 -0.3236
  953SOL    HW1 2858   0.903   0.527   0.326  2.8200 -1.5581  0.5795
  953SOL    HW2 2859   0.800   0.649   0.272 -0.2394 -0.1520 -1.8091
  954SOL     OW 2860   1.980   0.860   1.158  0.1937  0.3811  0.2156
  954SOL    HW1 2861   2.081   0.864   1.146  1.6530 -1.0748  0.8572
  954SOL    HW2 2862   1.938   0.948   1.126 -2.2553 -1.2287  1.7561
  955SOL     OW 2863   2.354   1.344   0.558  0.4941  0.1077 -0.1205
  955SOL    HW1 2864   2.260   1.384   0.539 -2.5872  1.4692 -0.9058
  955SOL    HW2 2865   2.419   1.372   0.486 -1.9863  0.1231 -0.2287
  956SOL     OW 2866   0.808   0.431   1.900 -0.1996 -0.2658  0.3401
  956SOL    HW1 2867   0.878   0.462   1.970  1.6630 -0.6227  0.7367
  956SOL    HW2 2868   0.861   0.406   1.817 -0.6695  0.2875  1.0366
  957SOL     OW 2869   1.938   0.336   1.140  0.1316 -0.1092 -0.0772
  957SOL    HW1 2870   1.882   0.422   1.128  0.9792  0.4245 -2.1447
  957SOL    HW2 2871   1.950   0.319   1.237 -3.2238 -0.1657 -0.4479
  958SOL     OW 2872   0.148   2.253   0.645  0.0843  0.4973  0.1774
  958SOL    HW1 2873   0.146   2.216   0.548  2.8764 -0.5870 -2.1385
  958SOL    HW2 2874   0.224   2.208   0.704  0.3434 -0.1347 -0.8283
  959SOL     OW 2875   1.985   1.411   1.849  0.4892  0.2294 -0.6041
  959SOL    HW1 2876   2.075   1.389   1.891 -1.3509 -0.7004 -0.7689
  959SOL    HW2 2877   1.944   1.324   1.813 -1.4493  1.0044  0.1887
  960SOL     OW 2878   3.041   1.810   0.019 -0.7302 -0.3108 -0.2419
  960SOL    HW1 2879   3.068   1.774   0.112 -0.9315 -1.3638  1.4231
  960SOL    HW2 2880   2.964   1.750   3.063  0.1567  0.5711 -0.5898
  961SOL     OW 2881   0.553   1.674   1.156  0.0652  0.2934  0.2482
  961SOL    HW1 2882   0.561   1.573   1.152 -0.5181  2.0857 -1.3161
  961SOL    HW2 2883   0.643   1.704   1.192  1.9591 -0.1416  0.8016
  962SOL     OW 2884   0.863   1.365   0.748  0.0601 -0.5911 -0.1855
  962SOL    HW1 2885   0.784   1.329   0.691  1.5919  0.5105  1.0922
  962SOL    HW2 2886   0.894   1.296   0.815 -1.3920  1.8913  3.3495
  963SOL     OW 2887   1.026   2.189   2.354 -0.0845  0.4302 -0.4059
  963SOL    HW1 2888   1.044   2.114   2.424  1.4192 -0.9417  1.9169
  963SOL    HW2 2889   0.962   2.253   2.398 -0.7989 -0.4062 -0.1859
  964SOL     OW 2890   0.282   2.895   2.028 -0.4107  0.0126  0.4466
  964SOL    HW1 2891   0.201   2.921   1.976  1.6416  2.7019 -0.5893
  964SOL    HW2 2892   0.286   2.791   2.033  0.3309 -0.6339  1.0539
  965SOL     OW 2893   0.748   2.257   2.941  0.0731 -0.0080  0.2180
  965SOL    HW1 2894   0.734   2.322   3.016  0.7152 -1.0249  1.2853
  965SOL    HW2 2895   0.817   2.186   2.967 -0.8732 -2.2438 -1.1015
  966SOL     OW 2896   2.880   1.511   0.312 -0.1329  0.5729 -0.2296
  966SOL    HW1 2897   2.977   1.495   0.348 -0.8710 -2.1842 -0.5509
  966SOL    HW2 2898   2.844   1.421   0.279  0.0528 -1.1506  0.5753
  967SOL     OW 2899   2.105   2.437   3.063 -0.4776 -0.0551 -0.1334
  967SOL    HW1 2900   2.152   2.343   3.062  1.5550  0.4666 -1.3566
  967SOL    HW2 2901   2.140   2.494   0.070 -2.8069  2.7993  1.4166
  968SOL     OW 2902   2.398   3.002   1.007 -0.4958 -0.3293 -0.0932
  968SOL    HW1 2903   2.351   2.977   1.090  0.8136  1.7317  0.6088
  968SOL    HW2 2904   2.413   2.926   0.946 -4.2153  0.0401  1.4054
  969SOL     OW 2905   0.208   1.020   1.877  0.2578  0.3126 -0.2482
  969SOL    HW1 2906   0.241   1.101   1.929 -0.7160  1.6576  0.9932
  969SOL    HW2 2907   0.276   1.003   1.807 -3.6534  1.2497  0.3461
  970SOL     OW 2908   1.719   1.230   0.538 -0.1684  0.7176  0.1588
  970SOL    HW1 2909   1.815   1.223   0.578  0.2007  0.1539 -0.3520
  970SOL    HW2 2910   1.679   1.134   0.529 -1.4853 -1.3447 -0.9612
  971SOL     OW 2911   2.714   2.748   1.589 -0.8908  0.2643  1.0463
  971SOL    HW1 2912   2.662   2.749   1.678 -0.7095 -0.8051  1.2557
  971SOL    HW2 2913   2.660   2.786   1.514 -0.1911 -1.4110  1.3006
  972SOL     OW 2914   2.832   0.227   1.402  0.0437 -0.1468  0.3078
  972SOL    HW1 2915   2.769   0.163   1.340 -2.6492 -4.3097 -3.5801
  972SOL    HW2 2916   2.793   0.311   1.438  0.1605  0.7199 -2.5945
  973SOL     OW 2917   0.257   0.607   2.768  0.0290  0.6688 -0.3121
  973SOL    HW1 2918   0.292   0.621   2.673  1.8268  1.1496 -0.4836
  973SOL    HW2 2919   0.158   0.592   2.776  3.0820 -1.2541  4.0010
  974SOL     OW 2920   2.423   0.972   2.119  0.0417 -0.2152 -0.3760
  974SOL    HW1 2921   2.338   0.951   2.067 -3.1193 -0.6617  1.1039
  974SOL    HW2 2922   2.400   1.046   2.189 -0.6162  1.2402  1.9679
  975SOL     OW 2923   1.002   0.382   1.692  0.1232 -0.6833  0.2429
  975SOL    HW1 2924   1.021   0.374   1.594  0.5864  1.4023 -1.0746
  975SOL    HW2 2925   1.047   0.318   1.748 -4.6031 -1.4783 -1.1281
  976SOL     OW 2926   1.097   1.546   1.496  0.4147  0.1012  0.0934
  976SOL    HW1 2927   1.167   1.583   1.436  1.6188  0.9960  0.6041
  976SOL    HW2 2928   1.002   1.554   1.459  2.3881 -0.8589  0.0433
  977SOL     OW 2929   1.079   3.011   0.043 -0.2039  0.1024  0.5845
  977SOL    HW1 2930   1.032   3.046   3.034  3.4089  0.0061  1.7073
  977SOL    HW2 2931   1.101   0.013   0.110 -0.8777  1.3279 -0.5880
  978SOL     OW 2932   2.291   1.155   2.301  0.2200  0.7134 -0.3781
  978SOL    HW1 2933   2.296   1.114   2.396  0.5069 -0.5384 -0.8109
  978SOL    HW2 2934   2.207   1.215   2.283  0.1667  1.8126  2.1271
  979SOL     OW 2935   1.539   0.337   1.754  0.7779 -0.8376  0.0068
  979SOL    HW1 2936   1.611   0.409   1.771 -0.4098  2.0034 -0.2073
  979SOL    HW2 2937   1.461   0.381   1.707  1.7555 -0.9072  2.5503
  980SOL     OW 2938   1.560   1.570   1.868 -0.0391 -0.4984 -0.1900
  980SOL    HW1 2939   1.588   1.563   1.772  2.3206  0.0877  0.3121
  980SOL    HW2 2940   1.480   1.634   1.875 -1.1534  1.4809  0.8913
  981SOL     OW 2941   2.143   0.906   1.526  0.0687 -0.0465 -0.1697
  981SOL    HW1 2942   2.068   0.956   1.469 -2.6549  1.0636  1.5377
  981SOL    HW2 2943   2.185   0.965   1.594 -1.5314 -1.5013 -0.1149
  982SOL     OW 2944   0.649   0.242   2.882 -0.9784 -0.3696  0.0483
  982SOL    HW1 2945   0.554   0.271   2.867  3.4402 -0.7753 -0.8141
  982SOL    HW2 2946   0.657   0.183   2.966  1.2195 -1.0842  0.5512
  983SOL     OW 2947   2.160   0.571   2.819 -0.6060 -0.5451 -0.1552
  983SOL    HW1 2948   2.162   0.475   2.859  0.0554 -0.1818 -0.6637
  983SOL    HW2 2949   2.065   0.597   2.821 -0.3300  0.1423 -0.9116
  984SOL     OW 2950   0.922   0.128   1.956 -0.3652 -0.7341 -0.0910
  984SOL    HW1 2951   0.903   0.123   2.053  1.7260 -2.3851 -0.9778
  984SOL    HW2 2952   1.008   0.186   1.944  0.8245  0.5890  1.1300
  985SOL     OW 2953   1.440   1.864   2.020  0.2510  0.1197 -0.2255
  985SOL    HW1 2954   1.539   1.867   2.000  0.1062 -0.8168  4.1073
  985SOL    HW2 2955   1.377   1.808   1.957  0.9191  0.1839 -0.7291
  986SOL     OW 2956   2.335   2.997   1.721 -0.0245  0.3159  0.4325
  986SOL    HW1 2957   2.422   3.043   1.708 -1.0731 -3.1009 -0.4516
  986SOL    HW2 2958   2.292   3.032   1.810  1.7019 -0.4043  1.8737
  987SOL     OW 2959   2.137   1.332   1.257 -0.2078 -0.4083 -0.2520
  987SOL    HW1 2960   2.114   1.366   1.160 -1.5091 -0.5937 -2.2672
  987SOL    HW2 2961   2.067   1.266   1.286  0.3521  0.8179 -1.8524
  988SOL     OW 2962   2.443   1.906   2.053  0.2249  0.0527  0.0658
  988SOL    HW1 2963   2.531   1.934   2.009  1.6410  2.0678  1.2789
  988SOL    HW2 2964   2.368   1.974   2.031 -2.5272  0.2655  0.6791
  989SOL     OW 2965   1.193   2.624   3.024 -0.3861  0.0905 -0.4993
  989SOL    HW1 2966   1.170   2.679   0.033 -0.0225 -1.6134  1.0063
  989SOL    HW2 2967   1.208   2.530   3.057 -0.2943 -0.4465 -0.5112
  990SOL     OW 2968   1.844   1.115   2.997 -0.2555 -0.3117  0.6656
  990SOL    HW1 2969   1.906   1.142   2.917  1.7895 -0.3605 -3.6688
  990SOL    HW2 2970   1.749   1.122   2.964  2.9895 -1.8702 -2.0063
  991SOL     OW 2971   0.950   0.332   0.716 -0.2772  0.4509  0.4134
  991SOL    HW1 2972   0.924   0.425   0.679 -0.4615  2.8400 -3.3105
  991SOL    HW2 2973   0.956   0.335   0.815  2.3113 -0.1332 -0.2884
  992SOL     OW 2974   2.383   0.841   1.346 -0.0263 -0.1976  0.2003
  992SOL    HW1 2975   2.461   0.870   1.405 -0.9023 -0.8556 -0.3040
  992SOL    HW2 2976   2.305   0.844   1.409  0.8467 -0.9530  0.5347
  993SOL     OW 2977   2.396   0.770   1.683 -0.7340  0.3242  0.2176
  993SOL    HW1 2978   2.350   0.683   1.669 -0.8525  2.0756  1.7257
  993SOL    HW2 2979   2.333   0.849   1.661 -2.3329 -1.0279 -2.0455
  994SOL     OW 2980   0.449   1.699   2.685 -0.0038  0.0999 -0.6498
  994SOL    HW1 2981   0.369   1.751   2.653 -1.3230 -2.6979  1.5353
  994SOL    HW2 2982   0.417   1.631   2.755 -2.1015 -0.9900 -1.1692
  995SOL     OW 2983   1.957   1.232   2.771  0.0785 -0.2882 -0.3004
  995SOL    HW1 2984   2.042   1.174   2.781  0.1650 -2.8896 -0.4287
  995SOL    HW2 2985   1.889   1.186   2.708 -0.7470  0.5805 -1.1082
  996SOL     OW 2986   2.237   1.663   0.294  0.0961  0.3792  0.6321
  996SOL    HW1 2987   2.224   1.582   0.360  1.3493 -1.6278  0.2841
  996SOL    HW2 2988   2.296   1.732   0.336 -1.1297 -1.5398 -2.4911
  997SOL     OW 2989   2.145   0.426   2.180  0.3558  0.5631 -0.6986
  997SOL    HW1 2990   2.153   0.466   2.086 -0.6597 -1.5778 -1.0801
  997SOL    HW2 2991   2.095   0.338   2.180 -1.7087  1.5504  1.4445
  998SOL     OW 2992   2.618   1.195   0.466  0.0776  0.3420  1.0562
  998SOL    HW1 2993   2.562   1.138   0.402 -2.2806 -2.1207  1.2457
  998SOL    HW2 2994   2.600   1.295   0.441 -1.2850  2.9471  2.4952
  999SOL     OW 2995   2.949   2.078   0.744 -0.0274 -0.6608  0.3801
  999SOL    HW1 2996   2.923   2.124   0.655 -0.5327 -1.8640  0.8005
  999SOL    HW2 2997   3.021   2.009   0.729 -0.3367 -2.7334  0.3565
 1000SOL     OW 2998   0.730   0.898   2.287 -0.2295  0.2403  0.4312
 1000SOL    HW1 2999   0.769   0.930   2.373 -1.1849  2.1606 -2.1630
 1000SOL    HW2 3000   0.731   0.796   2.277 -0.3610 -0.1004  5.1674
   3.07408   3.07408   3.07408
