1000 SPC/Fw water molecules t= 463.00000 step= 463000
 3000
    1SOL     OW    1   2.912   2.965   1.566  0.0266 -0.2447  0.5020
    1SOL    HW1    2   2.870   3.020   1.496 -0.2531 -0.3742  0.5096
    1SOL    HW2    3   2.842   2.915   1.620  2.2873  2.5292  2.5443
    2SOL     OW    4   2.734   0.061   0.065 -0.0125  0.3267  0.4878
    2SOL    HW1    5   2.728   0.084   0.162  3.1899 -0.8464 -0.6759
    2SOL    HW2    6   2.805   3.100   0.036 -1.8173 -0.3081 -0.9116
    3SOL     OW    7   1.241   2.584   0.261  0.1392 -0.0860 -0.1338
    3SOL    HW1    8   1.169   2.510   0.257  0.8076 -0.4320  0.4407
    3SOL    HW2    9   1.301   2.579   0.340 -1.4176 -1.2703  0.5065
    4SOL     OW   10   1.316   2.565   2.465 -0.3428 -0.1748  0.1967
    4SOL    HW1   11   1.333   2.607   2.558  1.4329 -0.1904  0.3691
    4SOL    HW2   12   1.250   2.487   2.472  0.5469  0.1795  0.8559
    5SOL     OW   13   2.168   0.250   2.221  0.0930  0.3406 -0.6057
    5SOL    HW1   14   2.184   0.189   2.138  0.9214 -2.2425  1.5290
    5SOL    HW2   15   2.101   0.323   2.203  0.8722  0.7448 -1.6207
    6SOL     OW   16   2.662   1.771   1.193 -0.0984  0.0830  0.1830
    6SOL    HW1   17   2.678   1.677   1.182 -3.1761  2.8665  1.0139
    6SOL    HW2   18   2.574   1.788   1.240  0.0865  0.6453 -0.5633
    7SOL     OW   19   1.137   2.150   0.435 -0.0490 -0.3010  0.2456
    7SOL    HW1   20   1.062   2.136   0.504  1.4833  0.4270 -0.9380
    7SOL    HW2   21   1.106   2.106   0.348 -1.3557  2.2164 -0.0928
    8SOL     OW   22   0.289   0.748   0.406 -0.3315  0.9091 -0.3100
    8SOL    HW1   23   0.341   0.741   0.318 -0.6943  0.9241 -2.3619
    8SOL    HW2   24   0.190   0.740   0.387  0.1056  0.4632  1.4430
    9SOL     OW   25   0.261   2.978   1.648  0.4414  0.0886  0.2828
    9SOL    HW1   26   0.334   2.918   1.613  0.2531  1.0661  0.4690
    9SOL    HW2   27   0.177   2.922   1.671 -1.5424 -3.4320 -0.1962
   10SOL     OW   28   1.045   2.413   0.386 -0.6068  0.2973 -0.0784
   10SOL    HW1   29   1.100   2.328   0.402  0.6537 -1.6101 -1.0644
   10SOL    HW2   30   1.053   2.486   0.459  3.4163  0.4318  0.2125
   11SOL     OW   31   2.232   0.809   1.415 -0.1238 -0.5291  0.4729
   11SOL    HW1   32   2.280   0.723   1.434  0.3919  1.1110  0.9252
   11SOL    HW2   33   2.138   0.805   1.447 -1.2654  0.6647  0.1290
   12SOL     OW   34   0.349   0.790   2.142 -0.0644 -0.1226 -0.4784
   12SOL    HW1   35   0.359   0.889   2.122  0.4350 -1.0975  3.0043
   12SOL    HW2   36   0.376   0.772   2.239  1.8380  2.5584  0.9101
   13SOL     OW   37   2.085   3.095   0.236  0.0851  0.1417 -0.0561
   13SOL    HW1   38   2.088   3.106   0.340  0.0733  1.3788 -1.9613
   13SOL    HW2   39   2.061   0.071   0.194  1.2820  0.5499  3.4541
   14SOL     OW   40   2.015   2.084   0.167 -0.3622  0.4013  0.0360
   14SOL    HW1   41   1.964   2.093   0.077  1.0247  0.2319 -1.1512
   14SOL    HW2   42   1.978   2.000   0.219 -0.2041 -1.8941  1.0105
   15SOL     OW   43   0.014   3.037   2.803  0.1856 -0.1003 -0.2515
   15SOL    HW1   44   0.013   0.001   2.733  1.7813 -1.1740 -0.5777
   15SOL    HW2   45   0.089   3.058   2.866 -0.0683  1.2956 -1.3653
   16SOL     OW   46   2.986   0.687   1.222  0.2695 -0.2313 -0.2014
   16SOL    HW1   47   2.958   0.704   1.126 -1.6798  0.5323  0.7339
   16SOL    HW2   48   2.931   0.606   1.260  1.2577 -1.3696 -4.1448
   17SOL     OW   49   0.684   0.306   0.798  0.1531  0.3607 -0.5584
   17SOL    HW1   50   0.705   0.298   0.899  0.0439  1.7314  3.8711
   17SOL    HW2   51   0.751   0.260   0.737  2.2134 -2.2773 -1.1285
   18SOL     OW   52   0.091   0.126   0.482 -0.1549  0.3495 -0.0729
   18SOL    HW1   53   0.017   0.074   0.526  0.8002 -2.3524  3.3747
   18SOL    HW2   54   0.176   0.130   0.538 -2.5947  0.4062 -0.2467
   19SOL     OW   55   1.795   1.245   1.275  0.6529  0.2095 -0.8648
   19SOL    HW1   56   1.772   1.264   1.177  0.1754  1.3233  1.7636
   19SOL    HW2   57   1.791   1.327   1.335 -1.2050  0.8856  1.8976
   20SOL     OW   58   2.321   1.899   2.502 -0.1475  0.2900  0.2989
   20SOL    HW1   59   2.274   1.925   2.592 -1.0261 -1.8734  1.8474
   20SOL    HW2   60   2.418   1.875   2.520 -3.5654 -0.4229  2.6579
   21SOL     OW   61   1.576   2.991   0.310  0.6598 -0.1753 -0.0923
   21SOL    HW1   62   1.600   2.896   0.292  2.9042  0.6614  2.1021
   21SOL    HW2   63   1.487   3.015   0.265  0.3343  0.5108  0.3537
   22SOL     OW   64   2.407   0.865   0.287  0.6950 -0.2863  0.4791
   22SOL    HW1   65   2.458   0.943   0.238  0.2756  1.8243 -0.5568
   22SOL    HW2   66   2.424   0.862   0.387  5.3670  2.3166  0.9233
   23SOL     OW   67   1.019   0.494   2.092 -0.0373  0.4830  0.4330
   23SOL    HW1   68   0.986   0.406   2.050  1.1303  1.7749 -1.6120
   23SOL    HW2   69   1.118   0.487   2.120 -0.7029 -1.1420 -0.1248
   24SOL     OW   70   1.948   2.271   0.895  0.0413 -0.3903  0.2787
   24SOL    HW1   71   2.050   2.282   0.898 -0.2124 -0.4695  1.0476
   24SOL    HW2   72   1.916   2.354   0.845 -0.0744 -1.1219 -0.3253
   25SOL     OW   73   1.595   0.007   3.005  0.3278  0.0969  0.2299
   25SOL    HW1   74   1.650   3.032   3.027  0.0124  0.3954 -2.8744
   25SOL    HW2   75   1.607   0.027   2.906  0.8807 -1.1416 -0.6123
   26SOL     OW   76   1.167   2.854   2.658  0.6196  0.4618 -0.1105
   26SOL    HW1   77   1.262   2.820   2.656 -1.7264 -1.6508 -1.1619
   26SOL    HW2   78   1.105   2.790   2.615 -2.6960  0.9067 -0.2659
   27SOL     OW   79   0.978   0.556   0.994 -0.7056  0.3683  0.2322
   27SOL    HW1   80   0.890   0.555   0.945 -1.3695  2.5015  0.7616
   27SOL    HW2   81   0.987   0.500   1.075 -0.1056 -0.7008 -1.7839
   28SOL     OW   82   0.177   1.946   1.052 -0.1103 -0.1970  0.1161
   28SOL    HW1   83   0.281   1.940   1.050  2.4421 -3.2554  2.1005
   28SOL    HW2   84   0.144   1.923   1.145 -1.2750 -0.2033 -2.5572
   29SOL     OW   85   2.439   1.011   1.325 -0.3227  0.3309 -0.5162
   29SOL    HW1   86   2.372   0.943   1.364 -4.0339  1.7787  0.8936
   29SOL    HW2   87   2.464   1.078   1.394 -1.7054  0.0885 -0.4620
   30SOL     OW   88   1.633   2.857   1.340  0.8658  0.3969  0.0091
   30SOL    HW1   89   1.639   2.796   1.260 -1.5809 -1.6106 -3.2616
   30SOL    HW2   90   1.568   2.925   1.313  1.4956 -1.0803  0.0691
   31SOL     OW   91   1.187   2.965   1.245  0.0100  0.0928  0.0950
   31SOL    HW1   92   1.168   2.937   1.148  1.3361 -2.7092  2.4557
   31SOL    HW2   93   1.181   2.871   1.292 -1.3239  0.8082  0.3741
   32SOL     OW   94   2.196   1.487   1.977 -0.0209 -0.0107 -0.0804
   32SOL    HW1   95   2.218   1.478   1.879  1.5119 -1.2763 -0.0595
   32SOL    HW2   96   2.201   1.393   2.015  0.2468 -1.9994  0.9796
   33SOL     OW   97   2.221   2.808   2.654 -0.0011  0.1305 -0.5718
   33SOL    HW1   98   2.242   2.892   2.600 -1.8756 -2.6487  1.6812
   33SOL    HW2   99   2.170   2.736   2.598 -0.9819  1.4818  0.0426
   34SOL     OW  100   2.158   0.989   0.366  0.5355  0.6525 -0.2390
   34SOL    HW1  101   2.236   0.946   0.315  1.0105  0.6830 -1.9647
   34SOL    HW2  102   2.073   0.956   0.329 -2.1596 -1.2180 -2.3808
   35SOL     OW  103   0.208   1.629   1.781  0.7348  0.1365 -0.2850
   35SOL    HW1  104   0.212   1.612   1.877  0.9812  0.1663 -1.0225
   35SOL    HW2  105   0.118   1.598   1.744 -0.2476  0.5071  3.2242
   36SOL     OW  106   2.609   2.565   3.017 -0.4911 -0.3724 -0.0749
   36SOL    HW1  107   2.552   2.584   3.101  0.4636  0.7704 -1.6367
   36SOL    HW2  108   2.549   2.562   2.934 -1.0429  2.3616  1.8148
   37SOL     OW  109   1.716   2.787   1.803  0.6428 -0.4061  0.9010
   37SOL    HW1  110   1.804   2.808   1.851  2.2151  1.8125 -0.2360
   37SOL    HW2  111   1.645   2.767   1.875 -0.6553 -1.5868  1.3620
   38SOL     OW  112   0.764   1.297   2.332 -0.0723  0.1164  0.0951
   38SOL    HW1  113   0.831   1.253   2.394  0.0427 -0.1159  1.9259
   38SOL    HW2  114   0.692   1.226   2.301 -2.1829 -2.3393  0.7620
   39SOL     OW  115   1.856   0.562   1.787 -0.4430  0.0597 -0.0324
   39SOL    HW1  116   1.769   0.575   1.839  2.9662  0.6121 -1.5893
   39SOL    HW2  117   1.904   0.484   1.831 -0.7119 -3.4150  2.9462
   40SOL     OW  118   0.885   2.456   0.747  0.7212  0.4842  0.6077
   40SOL    HW1  119   0.838   2.391   0.682 -0.9459  0.4354 -0.9051
   40SOL    HW2  120   0.913   2.406   0.834 -1.0680 -0.6323  2.8411
   41SOL     OW  121   2.197   2.068   0.887  0.0526  0.4046  0.4959
   41SOL    HW1  122   2.193   2.163   0.910 -1.2856 -0.7265  0.0742
   41SOL    HW2  123   2.285   2.019   0.910  0.0349  0.0747 -0.7084
   42SOL     OW  124   2.255   0.310   0.359  0.5048  0.4063 -0.0258
   42SOL    HW1  125   2.232   0.375   0.283 -0.1897 -1.0114 -0.9021
   42SOL    HW2  126   2.278   0.220   0.327 -0.5235 -0.7042 -0.7951
   43SOL     OW  127   0.577   1.393   2.500 -0.0260  0.3402 -0.1676
   43SOL    HW1  128   0.515   1.317   2.526 -0.6601 -1.9334 -0.8529
   43SOL    HW2  129   0.656   1.360   2.442 -0.0695 -1.9087  1.4612
   44SOL     OW  130   1.676   2.646   1.144  0.3908  0.5713  0.0933
   44SOL    HW1  131   1.598   2.581   1.176 -1.3311  2.5371  1.9086
   44SOL    HW2  132   1.759   2.591   1.117  0.3099  0.7957  0.0508
   45SOL     OW  133   0.545   2.290   2.787  0.6557 -0.4118  0.2454
   45SOL    HW1  134   0.582   2.268   2.876  0.3922  1.6405 -1.0962
   45SOL    HW2  135   0.579   2.385   2.762 -0.4677  4.2691 -1.4375
   46SOL     OW  136   0.716   2.749   2.272 -0.1376 -0.1059  0.3137
   46SOL    HW1  137   0.725   2.717   2.178  0.5789  3.6927  4.6510
   46SOL    HW2  138   0.662   2.680   2.324  2.5321  0.5854  2.3260
   47SOL     OW  139   0.446   1.750   0.830  0.0331  0.2162  0.0569
   47SOL    HW1  140   0.508   1.671   0.818 -0.5016 -0.5314  2.1908
   47SOL    HW2  141   0.479   1.811   0.907  1.0523 -0.5539  3.1519
   48SOL     OW  142   0.677   2.801   1.417 -0.4747  0.3292 -0.5080
   48SOL    HW1  143   0.689   2.699   1.427 -0.0784 -0.0799 -0.0840
   48SOL    HW2  144   0.767   2.848   1.446  3.0613 -0.2389 -0.0849
   49SOL     OW  145   0.154   3.102   3.030  0.6963 -0.5386 -0.1495
   49SOL    HW1  146   0.105   0.063   3.085 -1.8955 -0.0241  0.0329
   49SOL    HW2  147   0.199   3.037   3.091 -0.0962  1.4627 -1.6942
   50SOL     OW  148   1.346   0.761   0.342  0.3367 -0.3205 -0.1793
   50SOL    HW1  149   1.249   0.764   0.311 -0.2324  1.6239 -0.2920
   50SOL    HW2  150   1.369   0.832   0.413  3.0472  1.3676  2.4729
   51SOL     OW  151   1.824   0.114   0.516 -0.0584 -0.4212 -0.4911
   51SOL    HW1  152   1.781   0.156   0.433  1.3285  0.0575 -2.2993
   51SOL    HW2  153   1.762   0.107   0.600 -0.6295  1.8125 -1.6491
   52SOL     OW  154   0.283   1.531   1.159 -0.3715  0.2006 -0.0708
   52SOL    HW1  155   0.349   1.460   1.128 -1.8673  0.0457 -3.3983
   52SOL    HW2  156   0.283   1.610   1.094  2.1600  0.1652  0.6900
   53SOL     OW  157   0.016   0.889   3.028  0.3692  0.0144 -0.1080
   53SOL    HW1  158   3.031   0.857   3.017  2.7374 -1.7994  1.6183
   53SOL    HW2  159   0.020   0.986   2.997 -2.2861 -0.3245  0.9898
   54SOL     OW  160   2.814   2.386   3.053  0.0865  0.3768  0.2634
   54SOL    HW1  161   2.797   2.293   3.013 -1.2763 -0.1788 -1.1797
   54SOL    HW2  162   2.722   2.432   3.075 -0.8349 -0.7842  1.8552
   55SOL     OW  163   2.553   2.119   1.238  0.4862  0.0246  0.7058
   55SOL    HW1  164   2.573   2.218   1.234 -0.9482 -0.5153 -0.4970
   55SOL    HW2  165   2.463   2.101   1.286 -2.5390 -0.2793  1.7305
   56SOL     OW  166   1.672   0.576   1.137  0.2709 -0.1930 -0.4682
   56SOL    HW1  167   1.579   0.613   1.102 -1.1551 -1.4771 -3.2034
   56SOL    HW2  168   1.731   0.540   1.065 -3.9466  1.8378 -0.9214
   57SOL     OW  169   1.908   1.694   0.962 -0.0545  0.2567 -0.0555
   57SOL    HW1  170   1.902   1.600   0.926  0.2068 -0.5821  1.7511
   57SOL    HW2  171   1.943   1.757   0.893 -0.9037 -1.2395  0.0234
   58SOL     OW  172   2.678   0.343   2.084 -0.4014  0.3655 -0.1459
   58SOL    HW1  173   2.733   0.346   2.165 -1.6715  1.2577 -1.9005
   58SOL    HW2  174   2.611   0.422   2.082 -1.3710 -0.8498  0.2122
   59SOL     OW  175   1.617   2.524   1.980 -0.4764  0.1086 -0.5468
   59SOL    HW1  176   1.532   2.460   1.985 -2.7524 -0.1232 -2.3371
   59SOL    HW2  177   1.591   2.617   2.010 -0.5876  0.7401 -0.3352
   60SOL     OW  178   1.107   2.051   3.056 -0.1124  0.0949  0.1923
   60SOL    HW1  179   1.008   2.056   3.024  0.4962 -0.2014  0.2273
   60SOL    HW2  180   1.152   1.962   3.027  1.0323  0.9671  0.4059
   61SOL     OW  181   0.527   2.050   0.439  0.3170 -0.2735  0.2988
   61SOL    HW1  182   0.585   1.970   0.464  0.3724 -0.1167  1.2805
   61SOL    HW2  183   0.474   2.023   0.358  2.2656  2.2725 -0.0632
   62SOL     OW  184   1.367   1.687   1.433 -0.2218 -0.1547  0.0872
   62SOL    HW1  185   1.331   1.601   1.476  2.9101 -1.4137  1.4029
   62SOL    HW2  186   1.451   1.729   1.474  0.1914  1.1424  1.2124
   63SOL     OW  187   0.973   2.059   0.651  0.2915  0.0608 -0.6045
   63SOL    HW1  188   0.873   2.050   0.661 -0.3110 -2.7580  0.2247
   63SOL    HW2  189   1.025   1.971   0.650  0.9976 -0.3038 -0.5715
   64SOL     OW  190   1.622   1.615   2.549 -0.2476  0.0016 -0.1183
   64SOL    HW1  191   1.671   1.576   2.468  1.9895  1.1721 -1.2632
   64SOL    HW2  192   1.666   1.600   2.640 -0.6630  0.9089 -0.2698
   65SOL     OW  193   1.589   1.805   1.560 -0.1634  0.6911 -0.3414
   65SOL    HW1  194   1.645   1.778   1.480  1.9766  1.3804 -0.4093
   65SOL    HW2  195   1.612   1.896   1.596 -1.3143 -3.0185  0.1164
   66SOL     OW  196   2.810   0.920   0.920  0.3600 -0.7456 -0.5186
   66SOL    HW1  197   2.806   0.828   0.960  1.6494  1.9784  2.0162
   66SOL    HW2  198   2.908   0.944   0.896  2.0503  1.1537 -0.3709
   67SOL     OW  199   2.229   2.344   0.934 -0.2732 -0.0391  0.0023
   67SOL    HW1  200   2.291   2.375   1.010  0.3480  0.3682  2.9482
   67SOL    HW2  201   2.250   2.401   0.853  1.1850  2.1593 -1.2569
   68SOL     OW  202   2.423   2.701   1.592 -0.0281 -0.0474 -0.4556
   68SOL    HW1  203   2.364   2.750   1.527 -2.7672 -0.8138  1.8274
   68SOL    HW2  204   2.379   2.699   1.684 -1.1503 -0.4019  0.4284
   69SOL     OW  205   2.593   2.858   0.262  0.3348  0.2916  0.0977
   69SOL    HW1  206   2.663   2.857   0.192 -1.5273 -1.7328  2.7578
   69SOL    HW2  207   2.533   2.944   0.257  0.5181  1.2842 -1.2274
   70SOL     OW  208   0.494   1.630   2.684 -0.3067  0.0749  0.7643
   70SOL    HW1  209   0.581   1.682   2.672  5.5269 -2.3520 -0.8731
   70SOL    HW2  210   0.505   1.542   2.633 -0.1940 -1.1267 -1.9971
   71SOL     OW  211   0.854   1.567   1.967  0.0115  0.2049 -0.3550
   71SOL    HW1  212   0.803   1.493   1.915  1.2407  0.3436 -0.4025
   71SOL    HW2  213   0.819   1.660   1.948  2.3688  0.2189  3.0382
   72SOL     OW  214   2.995   1.114   1.729  0.1058 -0.4290 -0.0902
   72SOL    HW1  215   3.049   1.169   1.795 -1.1716  0.6179 -2.5249
   72SOL    HW2  216   2.990   1.161   1.638 -0.6616 -0.4742 -2.6208
   73SOL     OW  217   1.031   2.181   2.259 -0.6073  0.0958  0.1914
   73SOL    HW1  218   0.991   2.256   2.201 -1.9873  0.0679 -0.3747
   73SOL    HW2  219   1.120   2.144   2.226  0.8424 -0.4536 -0.3670
   74SOL     OW  220   1.358   0.117   1.909 -0.0486  0.2393  0.1184
   74SOL    HW1  221   1.293   0.147   1.985  0.0547  1.8413  2.8080
   74SOL    HW2  222   1.401   0.028   1.926  2.8559  1.7411 -0.6894
   75SOL     OW  223   1.200   3.029   0.542  0.3076  0.0789  0.2100
   75SOL    HW1  224   1.188   2.947   0.482 -1.3075 -0.8701  0.0302
   75SOL    HW2  225   1.297   3.039   0.569 -2.4632 -1.5415 -2.9260
   76SOL     OW  226   0.334   1.844   2.709  0.2394  0.2216  0.4973
   76SOL    HW1  227   0.385   1.758   2.683 -2.0564  0.4279  0.0702
   76SOL    HW2  228   0.340   1.913   2.634  2.1088  2.2806 -0.6643
   77SOL     OW  229   0.450   2.439   1.199  0.2907  0.2502 -0.0735
   77SOL    HW1  230   0.445   2.447   1.097  0.6119  2.4726 -1.3325
   77SOL    HW2  231   0.401   2.512   1.249 -0.1733 -1.8467  0.0372
   78SOL     OW  232   2.475   1.093   0.158 -0.3564  0.2588  0.3319
   78SOL    HW1  233   2.382   1.097   0.119  0.6342  1.3569  1.6726
   78SOL    HW2  234   2.504   1.186   0.192  0.2773 -1.2589 -0.9613
   79SOL     OW  235   0.428   1.514   2.924  0.3944 -0.7767 -0.0515
   79SOL    HW1  236   0.501   1.478   2.983 -2.9564  0.1073  1.0169
   79SOL    HW2  237   0.463   1.558   2.841  0.4278 -0.1895  0.0822
   80SOL     OW  238   2.039   1.310   1.493  0.1904  0.0729 -0.2997
   80SOL    HW1  239   2.069   1.306   1.592 -0.8472 -0.8282  1.8411
   80SOL    HW2  240   2.005   1.223   1.461 -0.8141  0.6676 -1.0935
   81SOL     OW  241   1.987   0.818   2.526  0.0324  0.6143 -0.2138
   81SOL    HW1  242   1.913   0.791   2.593 -0.4532 -1.2058  0.8255
   81SOL    HW2  243   1.992   0.759   2.444  0.5897  2.1876  3.2661
   82SOL     OW  244   2.086   1.633   1.307 -0.7091  0.1875 -0.1998
   82SOL    HW1  245   2.044   1.539   1.307  0.5839 -0.3839 -2.7139
   82SOL    HW2  246   2.126   1.651   1.216  0.3166 -1.8534  2.4307
   83SOL     OW  247   2.348   2.925   2.977 -0.5506  0.2202 -0.7960
   83SOL    HW1  248   2.437   2.932   2.927  0.7605 -0.0642  0.1116
   83SOL    HW2  249   2.268   2.913   2.922  3.1439  0.3069  0.8755
   84SOL     OW  250   0.692   0.629   0.462  0.2935  0.0474  0.2196
   84SOL    HW1  251   0.661   0.716   0.420  0.1041 -2.2420  0.4583
   84SOL    HW2  252   0.764   0.643   0.530 -2.9625 -2.5158 -2.6291
   85SOL     OW  253   2.347   1.644   1.064 -0.1769  0.4510  0.4461
   85SOL    HW1  254   2.276   1.596   1.012  0.9981  0.9968  1.0562
   85SOL    HW2  255   2.414   1.690   0.999  0.2428  0.3241 -0.1539
   86SOL     OW  256   0.698   0.845   1.358  0.1296  0.5552  0.4546
   86SOL    HW1  257   0.658   0.789   1.434  1.4592  0.3469 -0.7462
   86SOL    HW2  258   0.693   0.945   1.379  1.3867  0.3508  0.4607
   87SOL     OW  259   3.062   2.395   2.398 -0.0382  0.4679 -0.5086
   87SOL    HW1  260   3.032   2.314   2.344 -0.5051  2.0503 -0.1146
   87SOL    HW2  261   3.033   2.482   2.353 -1.8255 -2.3471  2.6427
   88SOL     OW  262   0.294   2.996   0.375  0.0427 -0.6278 -0.3861
   88SOL    HW1  263   0.279   3.088   0.324  3.0226  3.4134 -2.3273
   88SOL    HW2  264   0.389   2.975   0.409 -2.1418  3.1139 -1.2952
   89SOL     OW  265   1.257   3.073   0.919  0.0235 -0.3094 -0.0285
   89SOL    HW1  266   1.355   3.067   0.898  1.9904  2.1820 -0.0859
   89SOL    HW2  267   1.231   0.062   0.939  1.1159 -0.9418 -0.5471
   90SOL     OW  268   3.096   0.954   2.192 -0.5040 -0.3980 -0.2580
   90SOL    HW1  269   3.011   0.921   2.145 -0.5175  1.9973 -0.0811
   90SOL    HW2  270   0.017   0.903   2.278  1.5330  1.1181  1.7823
   91SOL     OW  271   1.961   2.914   0.868 -0.1859  0.5540  0.2012
   91SOL    HW1  272   1.866   2.875   0.874 -0.6365 -0.2577  0.0569
   91SOL    HW2  273   2.021   2.860   0.809  0.6246 -2.7781  0.3679
   92SOL     OW  274   1.663   1.484   0.670 -0.2161 -0.5415 -0.3571
   92SOL    HW1  275   1.735   1.498   0.743  1.5783  0.3892  3.1692
   92SOL    HW2  276   1.709   1.515   0.586 -0.8389 -1.1472  0.8677
   93SOL     OW  277   0.472   1.440   0.627 -0.3225  0.3798  0.7722
   93SOL    HW1  278   0.535   1.389   0.565  0.1586  0.8752 -1.6727
   93SOL    HW2  279   0.527   1.504   0.685  0.9045  0.0153 -3.1201
   94SOL     OW  280   0.798   2.531   1.460 -0.1368 -0.1149  0.2595
   94SOL    HW1  281   0.892   2.497   1.488  1.3743  0.8593  0.7732
   94SOL    HW2  282   0.755   2.461   1.400  0.3567  2.4955  0.3297
   95SOL     OW  283   0.112   1.112   0.632 -0.2602 -0.0253 -0.2657
   95SOL    HW1  284   0.154   1.204   0.653 -1.9997 -0.8573  1.4330
   95SOL    HW2  285   0.155   1.048   0.701 -1.6694 -2.8838  1.4395
   96SOL     OW  286   0.786   2.698   2.020 -0.5783  0.1085  0.3669
   96SOL    HW1  287   0.748   2.770   1.961  0.5866 -3.5123 -1.0072
   96SOL    HW2  288   0.750   2.604   1.993  1.0953 -1.6121  0.4075
   97SOL     OW  289   2.506   0.962   0.902 -0.3150  0.1331  0.3403
   97SOL    HW1  290   2.473   0.878   0.954  0.5264 -0.5590 -3.0809
   97SOL    HW2  291   2.542   1.029   0.969 -1.5316 -2.3699  1.5499
   98SOL     OW  292   0.413   2.017   2.201 -0.2835 -0.0755 -0.7273
   98SOL    HW1  293   0.405   1.936   2.144 -0.6167  0.7490  1.5247
   98SOL    HW2  294   0.332   2.078   2.186  0.0744 -0.2601 -0.9774
   99SOL     OW  295   2.923   0.308   1.504  0.2075 -0.4732 -0.0033
   99SOL    HW1  296   2.982   0.232   1.467  1.7288  1.8186 -0.6329
   99SOL    HW2  297   2.954   0.337   1.599 -1.2845  0.5018  3.0508
  100SOL     OW  298   1.871   0.336   2.518 -0.2905  0.0982 -0.9100
  100SOL    HW1  299   1.969   0.352   2.538 -1.4222  1.1095 -0.6226
  100SOL    HW2  300   1.865   0.267   2.439 -2.0579 -0.3540 -1.0631
  101SOL     OW  301   1.344   2.950   2.247 -0.4789 -0.1039  0.2202
  101SOL    HW1  302   1.282   3.027   2.268 -0.5378 -2.4471 -0.4850
  101SOL    HW2  303   1.296   2.861   2.233  0.9543  0.3268 -2.5066
  102SOL     OW  304   0.749   0.751   1.735  0.0996 -0.1786  0.0137
  102SOL    HW1  305   0.723   0.713   1.823  0.9792  1.5971 -1.5770
  102SOL    HW2  306   0.808   0.690   1.676 -0.3397  0.3567  1.0275
  103SOL     OW  307   0.634   0.969   2.909  0.0496 -0.6069 -0.0969
  103SOL    HW1  308   0.645   1.049   2.846  1.8063  1.0698 -0.2333
  103SOL    HW2  309   0.572   0.899   2.862 -0.9138 -2.3136  0.6669
  104SOL     OW  310   0.604   0.393   2.039  0.3757  0.1033 -0.6496
  104SOL    HW1  311   0.613   0.305   1.991 -0.4390  3.4529  0.7072
  104SOL    HW2  312   0.687   0.423   2.092 -4.5677 -0.3374  0.1588
  105SOL     OW  313   2.790   2.429   1.689  0.8315 -0.0224 -0.2420
  105SOL    HW1  314   2.799   2.334   1.666  1.4197  1.6500  0.7932
  105SOL    HW2  315   2.875   2.488   1.670  3.8753  0.4404  0.7913
  106SOL     OW  316   0.969   3.019   0.704 -0.0269 -0.1113 -0.1191
  106SOL    HW1  317   1.055   3.010   0.650  0.6566 -0.0168  0.1450
  106SOL    HW2  318   0.898   2.956   0.669 -0.3996  0.4260 -1.1577
  107SOL     OW  319   2.834   1.961   1.053  0.1201 -0.1656 -0.1882
  107SOL    HW1  320   2.809   1.948   0.951 -1.0638  0.4908  0.2064
  107SOL    HW2  321   2.775   1.901   1.111 -2.3353  3.2730  0.3433
  108SOL     OW  322   0.133   2.426   0.790  0.2349 -0.1460 -0.1742
  108SOL    HW1  323   0.084   2.422   0.704 -3.6226 -0.8086  2.3879
  108SOL    HW2  324   0.120   2.342   0.844  0.9649 -0.4172  0.1271
  109SOL     OW  325   1.656   2.905   0.643  0.2088  0.1536  0.3651
  109SOL    HW1  326   1.670   2.897   0.746 -0.1215  0.7261  2.0708
  109SOL    HW2  327   1.735   2.879   0.590  1.8804  0.0233  4.1205
  110SOL     OW  328   1.843   2.038   0.571 -0.3094  0.1333 -0.5665
  110SOL    HW1  329   1.778   2.007   0.502  0.3193  0.6144  0.5515
  110SOL    HW2  330   1.804   2.068   0.659 -0.6097  0.5121  1.1752
  111SOL     OW  331   2.073   2.601   1.892  0.4135 -0.1689 -0.6732
  111SOL    HW1  332   2.144   2.584   1.966 -0.5397  1.7138 -0.8496
  111SOL    HW2  333   1.985   2.633   1.938 -1.6092 -1.1762  3.6397
  112SOL     OW  334   1.846   2.316   2.560  0.8125  0.0752  0.0635
  112SOL    HW1  335   1.761   2.310   2.503  0.1505  0.5445  0.5572
  112SOL    HW2  336   1.872   2.417   2.562  1.0445 -2.0068  0.1095
  113SOL     OW  337   2.529   2.110   2.001 -0.7870  0.2831  0.4837
  113SOL    HW1  338   2.437   2.076   2.021 -0.3051 -3.8837 -1.6166
  113SOL    HW2  339   2.547   2.096   1.904 -1.2510 -1.1363  1.8093
  114SOL     OW  340   0.136   1.058   1.228  0.1712  0.5278 -0.1281
  114SOL    HW1  341   0.069   1.002   1.278  2.8176  1.6220  2.9228
  114SOL    HW2  342   0.100   1.151   1.225  2.2677 -1.0020 -0.0623
  115SOL     OW  343   2.565   0.553   2.844 -0.0285 -0.0483  0.4493
  115SOL    HW1  344   2.576   0.655   2.858 -0.5366  1.7834  0.3907
  115SOL    HW2  345   2.660   0.521   2.820 -1.3739 -1.1438 -1.0317
  116SOL     OW  346   2.805   0.410   2.833 -0.2705 -0.1980 -0.0457
  116SOL    HW1  347   2.761   0.346   2.896  0.1864 -0.0706 -3.2380
  116SOL    HW2  348   2.805   0.369   2.739  0.8547  2.2058 -0.2428
  117SOL     OW  349   2.642   2.800   0.706 -0.2732 -0.1917  0.0147
  117SOL    HW1  350   2.565   2.851   0.747 -1.4489  1.0859  0.5691
  117SOL    HW2  351   2.700   2.780   0.789 -0.8094 -0.0636 -0.4012
  118SOL     OW  352   0.926   2.098   2.488  0.3525 -0.4128 -0.1474
  118SOL    HW1  353   0.921   2.002   2.455 -0.3394  1.7498 -2.6537
  118SOL    HW2  354   0.965   2.153   2.410  1.3036  3.7663 -1.3192
  119SOL     OW  355   0.735   2.806   0.574 -0.1308 -0.3035 -0.3192
  119SOL    HW1  356   0.806   2.795   0.499  1.6489  0.6462  0.9060
  119SOL    HW2  357   0.678   2.720   0.568 -1.9849 -0.2354 -1.4760
  120SOL     OW  358   1.332   0.716   0.683  0.4261  0.0173 -0.3561
  120SOL    HW1  359   1.385   0.632   0.700 -0.1027  0.0384 -0.4796
  120SOL    HW2  360   1.399   0.791   0.684 -3.5945  0.4307  2.8566
  121SOL     OW  361   1.830   0.479   0.927 -0.0695  0.2094 -0.0225
  121SOL    HW1  362   1.928   0.486   0.902 -0.2488 -0.7338  0.8962
  121SOL    HW2  363   1.819   0.403   0.996  1.7786 -0.8509  0.6873
  122SOL     OW  364   1.975   1.604   2.314 -0.6107  0.2774  0.0882
  122SOL    HW1  365   2.018   1.685   2.354  0.2126  3.6346  0.8796
  122SOL    HW2  366   1.977   1.606   2.212  1.2026 -1.1442  0.6198
  123SOL     OW  367   0.772   1.012   0.765 -0.0467  0.1020  0.0782
  123SOL    HW1  368   0.861   0.986   0.800  0.5518 -0.0256  0.6508
  123SOL    HW2  369   0.687   0.984   0.822 -2.6762 -0.8139  1.5622
  124SOL     OW  370   0.691   0.377   2.967  0.1179 -0.0836 -0.3592
  124SOL    HW1  371   0.647   0.309   3.029  1.1071 -1.2565 -0.4605
  124SOL    HW2  372   0.785   0.346   2.932  1.7580  2.3659  0.2618
  125SOL     OW  373   0.842   0.029   3.003 -0.4528  0.8946 -0.1086
  125SOL    HW1  374   0.916   0.002   3.072 -0.4650  1.5667 -1.1036
  125SOL    HW2  375   0.885   0.034   2.912  0.5421 -1.2694  0.7790
  126SOL     OW  376   0.783   1.223   0.250 -0.0792 -0.3612 -0.0218
  126SOL    HW1  377   0.722   1.157   0.206  2.3672 -0.8511 -1.5856
  126SOL    HW2  378   0.736   1.311   0.267 -0.1957 -0.5622  2.5916
  127SOL     OW  379   1.130   2.514   1.103 -0.5164 -0.1814 -0.0990
  127SOL    HW1  380   1.076   2.578   1.161  2.9633  0.4105  1.0312
  127SOL    HW2  381   1.214   2.561   1.077 -0.7117 -3.0011 -1.2585
  128SOL     OW  382   1.394   1.878   0.188  0.0056  0.5484  0.1147
  128SOL    HW1  383   1.409   1.848   0.285  0.2061  0.7706 -1.7306
  128SOL    HW2  384   1.301   1.926   0.176 -3.6864  3.1410  0.2937
  129SOL     OW  385   2.014   1.553   1.720 -0.5412  0.1369  0.2613
  129SOL    HW1  386   2.016   1.454   1.729  0.4987 -0.0842 -0.8685
  129SOL    HW2  387   1.929   1.577   1.767  2.3039  0.2220  0.2520
  130SOL     OW  388   2.228   1.656   1.561  0.1408  0.4651  0.5074
  130SOL    HW1  389   2.171   1.619   1.639  1.0264 -0.6014  0.9514
  130SOL    HW2  390   2.182   1.631   1.473  0.4180  1.3858  0.0285
  131SOL     OW  391   0.928   2.367   2.100 -0.1406 -0.0391 -0.2290
  131SOL    HW1  392   0.980   2.317   2.032 -1.2933  1.9041  0.1634
  131SOL    HW2  393   0.830   2.388   2.069 -3.0453  0.8342 -0.5489
  132SOL     OW  394   2.667   1.609   0.582 -0.2308 -0.1298  0.0533
  132SOL    HW1  395   2.704   1.574   0.670  1.6688  0.6979 -1.1073
  132SOL    HW2  396   2.668   1.712   0.592 -0.3279  0.1805  0.5097
  133SOL     OW  397   0.711   1.824   1.950 -0.2340  0.0210 -0.0585
  133SOL    HW1  398   0.679   1.822   1.852  1.4970 -0.9105 -0.8894
  133SOL    HW2  399   0.745   1.920   1.983 -0.8265  0.9514  2.3376
  134SOL     OW  400   3.018   1.752   0.770 -0.2573  0.4492 -0.4954
  134SOL    HW1  401   3.045   1.711   0.680  0.5637  0.9095 -2.7761
  134SOL    HW2  402   3.091   1.737   0.841 -0.5110  2.6811  0.1398
  135SOL     OW  403   2.059   1.259   2.782  0.4030 -0.1609  0.0022
  135SOL    HW1  404   2.134   1.327   2.800 -0.9252  2.2506 -2.1605
  135SOL    HW2  405   2.069   1.200   2.694 -0.3454 -1.3587 -0.8591
  136SOL     OW  406   0.091   1.331   1.196  0.2351 -0.2232 -0.5169
  136SOL    HW1  407   0.004   1.368   1.159  0.9018 -1.8102  1.5440
  136SOL    HW2  408   0.164   1.404   1.185 -0.6799  2.4459 -0.6055
  137SOL     OW  409   2.300   1.351   0.172  0.0715 -0.1280  0.0381
  137SOL    HW1  410   2.278   1.279   0.102  0.6292 -0.8165  1.4175
  137SOL    HW2  411   2.401   1.373   0.169 -0.2435 -2.8035 -0.9048
  138SOL     OW  412   2.526   0.519   0.749 -0.2575 -0.6427  0.4392
  138SOL    HW1  413   2.454   0.497   0.680 -0.1050  1.2921 -0.2784
  138SOL    HW2  414   2.615   0.486   0.713  0.0761  0.0876  0.4978
  139SOL     OW  415   2.278   2.586   2.993 -0.1472 -0.3788 -0.0317
  139SOL    HW1  416   2.319   2.655   3.060 -2.0983 -0.1627 -1.2304
  139SOL    HW2  417   2.345   2.569   2.911  0.2132  0.6654 -0.7453
  140SOL     OW  418   0.602   1.603   1.092  0.0007  0.0445  0.1275
  140SOL    HW1  419   0.540   1.541   1.134 -0.7572 -1.1603  0.9278
  140SOL    HW2  420   0.634   1.575   0.998  0.3465 -1.2314 -0.2110
  141SOL     OW  421   1.095   1.320   0.697  0.5279 -0.1717  0.6282
  141SOL    HW1  422   1.141   1.291   0.785  1.6928  1.0800  0.4209
  141SOL    HW2  423   1.156   1.299   0.617 -0.3160 -0.3806  1.6368
  142SOL     OW  424   1.748   0.721   0.851 -0.1178 -0.3141  0.9685
  142SOL    HW1  425   1.802   0.635   0.872 -2.3679 -0.5465  1.8940
  142SOL    HW2  426   1.726   0.775   0.933 -0.8923  0.4941  1.9595
  143SOL     OW  427   0.333   0.544   2.923 -0.9213  0.2765 -0.0462
  143SOL    HW1  428   0.253   0.562   2.868  2.0114  1.2227  2.3696
  143SOL    HW2  429   0.412   0.602   2.888  2.2515  0.5060  0.4648
  144SOL     OW  430   2.423   0.117   0.228  0.0994  0.0560 -0.3821
  144SOL    HW1  431   2.414   0.034   0.173  0.0530 -0.4385  0.9327
  144SOL    HW2  432   2.500   0.110   0.301  2.3957  0.5682  1.4374
  145SOL     OW  433   2.333   0.055   2.402 -0.0838  0.2543 -0.0364
  145SOL    HW1  434   2.386   0.134   2.446  3.1284 -1.9528  2.8601
  145SOL    HW2  435   2.254   0.091   2.356  4.0036  0.1176  1.1694
  146SOL     OW  436   3.058   3.027   0.576 -0.4340 -0.4950 -0.1659
  146SOL    HW1  437   0.033   3.000   0.632 -2.5850  2.9175 -0.6225
  146SOL    HW2  438   3.012   2.948   0.527  0.2595 -2.1090  0.2806
  147SOL     OW  439   1.548   0.851   2.917  0.3107 -0.1461 -0.2772
  147SOL    HW1  440   1.494   0.774   2.959  3.4001  0.5183 -1.1906
  147SOL    HW2  441   1.571   0.917   2.986 -1.3583  0.0150 -1.2962
  148SOL     OW  442   1.136   0.120   0.139 -0.4457  0.2388 -0.0613
  148SOL    HW1  443   1.088   0.191   0.194  0.3593 -1.2208  3.0861
  148SOL    HW2  444   1.152   0.150   0.041 -0.2864 -1.3836 -2.8890
  149SOL     OW  445   1.279   0.895   2.529  0.3257  0.2611 -0.3033
  149SOL    HW1  446   1.377   0.904   2.565  3.4249 -2.3566  2.3600
  149SOL    HW2  447   1.259   0.965   2.461 -0.5352 -3.8853  0.6300
  150SOL     OW  448   1.373   2.940   3.025 -0.5069 -0.5955  0.1475
  150SOL    HW1  449   1.436   2.867   3.064 -0.2265 -0.9671  0.2296
  150SOL    HW2  450   1.427   3.026   3.022 -1.3868  2.1613  2.3748
  151SOL     OW  451   0.547   1.311   0.026  0.2480  0.3435 -0.4034
  151SOL    HW1  452   0.590   1.230   0.070 -1.6687 -0.6817 -1.7799
  151SOL    HW2  453   0.582   1.401   0.065 -2.9078  3.2533  0.9117
  152SOL     OW  454   0.755   0.296   1.393 -0.9273 -0.2064 -0.3157
  152SOL    HW1  455   0.770   0.302   1.493  0.3927 -0.0591  0.3295
  152SOL    HW2  456   0.660   0.258   1.386  1.2897 -0.3986 -0.7795
  153SOL     OW  457   2.712   2.933   1.927  0.1363 -0.0800 -0.0535
  153SOL    HW1  458   2.615   2.948   1.964 -2.3741 -1.8507 -1.9447
  153SOL    HW2  459   2.752   3.023   1.918 -2.0231 -1.7004  0.6994
  154SOL     OW  460   2.429   2.880   2.013  0.4700  0.3268  0.3139
  154SOL    HW1  461   2.409   2.906   2.112 -0.7975 -0.8947  1.6753
  154SOL    HW2  462   2.360   2.927   1.954 -2.9321 -0.8553 -1.0729
  155SOL     OW  463   0.129   1.180   0.348  0.7798 -0.1215  0.4324
  155SOL    HW1  464   0.073   1.106   0.299 -4.7950 -2.2750  1.9476
  155SOL    HW2  465   0.200   1.138   0.406  1.1051 -0.0346 -2.2660
  156SOL     OW  466   2.157   1.266   0.404 -0.1680  0.2405 -0.7399
  156SOL    HW1  467   2.174   1.299   0.312 -1.8691  1.2110  0.2965
  156SOL    HW2  468   2.185   1.166   0.417  1.6104 -1.2723 -1.6244
  157SOL     OW  469   0.700   2.752   2.828  0.1477  0.1765 -0.1032
  157SOL    HW1  470   0.742   2.750   2.920 -1.2869 -2.2428 -1.7129
  157SOL    HW2  471   0.597   2.754   2.830  0.9558 -0.1123  0.0917
  158SOL     OW  472   1.993   0.825   1.542 -0.0929 -0.0261 -0.0047
  158SOL    HW1  473   1.984   0.825   1.645 -0.6142 -2.1877  2.1735
  158SOL    HW2  474   1.979   0.918   1.504 -0.7534 -1.2337 -0.8835
  159SOL     OW  475   3.045   0.126   0.067  0.3193 -0.3248 -0.0200
  159SOL    HW1  476   3.000   0.077   3.097  1.7117  0.1826  1.7425
  159SOL    HW2  477   3.047   0.225   0.046 -2.3073 -4.5155  2.3792
  160SOL     OW  478   2.560   1.969   1.720 -0.4962  0.0682  0.4757
  160SOL    HW1  479   2.611   1.967   1.628 -0.4910 -1.3153 -2.2731
  160SOL    HW2  480   2.465   1.939   1.721  2.4972  1.2108  0.5407
  161SOL     OW  481   0.037   0.372   0.035  0.8536 -0.6811  0.0296
  161SOL    HW1  482   0.131   0.361   0.012 -2.3700 -0.1776  0.3760
  161SOL    HW2  483   0.026   0.401   0.130  0.6784  0.4428  0.8764
  162SOL     OW  484   0.634   0.642   1.939  0.8444 -0.4388  0.2516
  162SOL    HW1  485   0.546   0.683   1.900 -2.4745 -1.4688  1.1811
  162SOL    HW2  486   0.615   0.549   1.979  1.1587  2.8671  0.0851
  163SOL     OW  487   2.786   0.048   2.484 -0.0495 -0.5120 -0.1773
  163SOL    HW1  488   2.748   0.083   2.394  0.2226  0.9523  1.1506
  163SOL    HW2  489   2.859   3.085   2.476 -0.9872 -2.5420 -0.3757
  164SOL     OW  490   2.216   1.617   0.073 -0.7087  0.4345  0.3398
  164SOL    HW1  491   2.121   1.659   0.073 -2.5100  0.8596  1.8499
  164SOL    HW2  492   2.207   1.518   0.102  0.8024 -0.2956  2.3085
  165SOL     OW  493   0.135   0.005   0.961  0.1179  0.0540  0.0200
  165SOL    HW1  494   0.175   0.066   0.890  0.1572  1.7625  0.9864
  165SOL    HW2  495   0.200   3.045   0.987  0.5662  2.6318 -0.4494
  166SOL     OW  496   2.742   0.421   0.087 -0.0364  0.2173  0.0375
  166SOL    HW1  497   2.659   0.396   0.143  1.0610 -0.8298 -0.3004
  166SOL    HW2  498   2.740   0.366   0.001  0.6695 -1.0889  1.0212
  167SOL     OW  499   1.984   0.581   0.567  0.7084 -0.1174  0.0521
  167SOL    HW1  500   1.982   0.655   0.638  0.4933 -0.6748 -1.0876
  167SOL    HW2  501   2.006   0.488   0.606 -0.0449 -2.8877 -1.2018
  168SOL     OW  502   1.338   0.318   2.381 -0.3068 -0.2095 -0.6188
  168SOL    HW1  503   1.271   0.358   2.448  0.5430 -0.8405  0.0834
  168SOL    HW2  504   1.423   0.374   2.387  0.8418  2.8323  0.6104
  169SOL     OW  505   0.487   1.941   1.011  0.6706  0.2196 -0.2217
  169SOL    HW1  506   0.475   1.956   1.109  0.6810 -2.1576 -0.5018
  169SOL    HW2  507   0.583   1.953   0.988 -1.0895  2.7459 -1.4531
  170SOL     OW  508   0.191   0.086   1.462 -0.0183  0.3806 -0.3466
  170SOL    HW1  509   0.222   0.173   1.501  0.3000 -1.4204 -0.8316
  170SOL    HW2  510   0.227   0.022   1.535 -0.3867  0.5114 -0.1498
  171SOL     OW  511   2.570   1.392   2.350  0.3277 -0.0616 -0.3758
  171SOL    HW1  512   2.626   1.466   2.398  1.4166 -1.8526  0.3491
  171SOL    HW2  513   2.540   1.412   2.254 -0.6312 -0.1597 -1.9261
  172SOL     OW  514   1.204   1.851   1.062  0.1982 -0.3245  0.1053
  172SOL    HW1  515   1.170   1.930   1.116  2.1032  0.0380  0.4829
  172SOL    HW2  516   1.303   1.875   1.047 -0.1095  2.1807 -1.8589
  173SOL     OW  517   2.224   2.230   0.082 -0.3689  0.3965 -0.1798
  173SOL    HW1  518   2.221   2.328   0.090 -1.8383 -4.9213  1.6606
  173SOL    HW2  519   2.134   2.190   0.102  0.9949 -2.2768 -1.2954
  174SOL     OW  520   1.811   0.913   0.268 -0.2663  0.2582 -0.0236
  174SOL    HW1  521   1.892   0.954   0.219  2.4713 -0.5401  0.5645
  174SOL    HW2  522   1.839   0.829   0.322 -1.1598  0.6355  1.8780
  175SOL     OW  523   0.635   1.717   1.621 -0.0545  0.7119  0.0309
  175SOL    HW1  524   0.581   1.639   1.658  0.5207 -2.7066  2.0239
  175SOL    HW2  525   0.573   1.801   1.610 -2.4536  1.2410 -0.4340
  176SOL     OW  526   0.423   0.150   0.501 -0.2035  0.2442 -0.2402
  176SOL    HW1  527   0.518   0.158   0.473 -1.2394  0.7116  3.3247
  176SOL    HW2  528   0.370   0.229   0.479  2.6817 -1.8040  2.7715
  177SOL     OW  529   3.054   1.562   0.184  0.1757 -0.3321  0.2968
  177SOL    HW1  530   2.983   1.548   0.254  1.3385 -0.9486 -3.0788
  177SOL    HW2  531   0.017   1.484   0.188 -0.1542 -2.5255 -0.4981
  178SOL     OW  532   2.950   2.356   2.070 -0.1350  0.2858  0.4776
  178SOL    HW1  533   2.856   2.395   2.052  0.8127  0.3477  0.7271
  178SOL    HW2  534   3.009   2.411   2.133 -1.1030 -2.3069 -0.6343
  179SOL     OW  535   2.101   0.074   2.871  0.5990 -0.2227  0.3324
  179SOL    HW1  536   2.179   0.124   2.906 -3.1497 -0.2820 -1.8048
  179SOL    HW2  537   2.018   0.103   2.913 -0.7404 -0.4225 -2.1619
  180SOL     OW  538   2.328   0.462   0.578 -1.2753 -0.6039 -0.0625
  180SOL    HW1  539   2.295   0.406   0.501  0.1363 -0.2139  3.6317
  180SOL    HW2  540   2.256   0.459   0.647 -0.9690 -0.4022 -0.7282
  181SOL     OW  541   3.097   0.095   2.419  0.2722  0.2647  0.1284
  181SOL    HW1  542   3.084   0.168   2.348 -0.4546  0.2146 -0.5607
  181SOL    HW2  543   3.028   0.018   2.404  1.5171 -1.8910  0.3693
  182SOL     OW  544   2.640   2.342   2.393  1.0059 -1.0538 -0.3307
  182SOL    HW1  545   2.690   2.428   2.421  0.7398  1.2289 -0.5352
  182SOL    HW2  546   2.640   2.333   2.291  2.4778  0.6472  2.6873
  183SOL     OW  547   2.679   0.936   1.526 -0.0013 -0.3007 -0.1648
  183SOL    HW1  548   2.761   0.965   1.476  0.1006 -0.7208  0.5435
  183SOL    HW2  549   2.658   1.012   1.591  0.6459  0.6183  1.8866
  184SOL     OW  550   2.968   1.493   1.134 -0.3485 -0.0860 -0.0242
  184SOL    HW1  551   2.973   1.590   1.106 -0.6604 -0.7128 -1.3381
  184SOL    HW2  552   2.935   1.424   1.061  0.6531 -2.7974 -0.6205
  185SOL     OW  553   0.014   0.229   1.108  0.3874 -0.0149 -0.0084
  185SOL    HW1  554   0.034   0.158   1.040 -3.4603  2.2792  1.4082
  185SOL    HW2  555   0.073   0.315   1.096  1.8204  2.4713 -0.7732
  186SOL     OW  556   2.394   2.314   2.473 -0.0348  0.0393 -0.0897
  186SOL    HW1  557   2.324   2.389   2.475  0.6007  0.6102  0.1950
  186SOL    HW2  558   2.485   2.349   2.453 -2.6798  1.7906  1.6797
  187SOL     OW  559   0.242   1.326   0.728  0.3583 -0.3889 -0.5898
  187SOL    HW1  560   0.335   1.357   0.705  1.0287 -0.3369  1.6579
  187SOL    HW2  561   0.183   1.386   0.790  1.2695  0.2677 -0.4145
  188SOL     OW  562   1.724   1.921   3.006  0.0051  0.4658  0.0383
  188SOL    HW1  563   1.801   1.990   3.017 -0.0381  0.5250  1.0514
  188SOL    HW2  564   1.687   1.884   3.096 -0.4134 -0.4206  2.5328
  189SOL     OW  565   0.011   1.494   2.878  0.1213  0.1939 -0.0165
  189SOL    HW1  566   3.039   1.487   2.937  0.6096 -0.6788 -2.2848
  189SOL    HW2  567   0.033   1.589   2.860 -0.3476 -0.2535  1.8451
  190SOL     OW  568   2.331   0.567   2.713 -0.6396  0.0792  0.4307
  190SOL    HW1  569   2.285   0.658   2.710 -2.0623  0.9147 -1.8850
  190SOL    HW2  570   2.415   0.560   2.766 -2.1219  0.9189  2.0280
  191SOL     OW  571   0.946   1.118   2.063  0.1014  0.4817 -0.0583
  191SOL    HW1  572   0.911   1.052   1.993  0.6343  0.7934 -0.6208
  191SOL    HW2  573   0.878   1.139   2.134 -1.1138 -0.7374 -1.2136
  192SOL     OW  574   1.668   1.147   2.040 -0.0009  0.3795  0.1405
  192SOL    HW1  575   1.615   1.234   2.017 -1.4919  1.2832  1.0962
  192SOL    HW2  576   1.667   1.087   1.958 -0.6428  1.2539 -2.3135
  193SOL     OW  577   1.162   2.835   0.984  0.3330 -0.4989  0.2053
  193SOL    HW1  578   1.181   2.764   0.912  0.3001  0.7063 -4.2401
  193SOL    HW2  579   1.207   2.923   0.956  3.0584  2.6622 -0.3099
  194SOL     OW  580   1.314   1.498   1.615 -0.0119 -0.1586 -0.2976
  194SOL    HW1  581   1.231   1.436   1.615 -1.9019 -0.7929  3.5874
  194SOL    HW2  582   1.342   1.504   1.716 -0.6161 -1.8309 -1.4141
  195SOL     OW  583   1.751   0.278   0.748  0.3742 -0.1139  0.3085
  195SOL    HW1  584   1.753   0.359   0.804  1.8590 -0.7428  0.9680
  195SOL    HW2  585   1.816   0.209   0.791  0.9754  0.0449 -1.3157
  196SOL     OW  586   0.947   1.441   2.180  0.5193 -0.4146  0.1224
  196SOL    HW1  587   0.913   1.497   2.100 -0.6314  3.3062  1.4253
  196SOL    HW2  588   0.870   1.395   2.231  0.7594 -0.3431  1.1414
  197SOL     OW  589   0.748   0.311   2.463  0.5147 -0.0955  0.1109
  197SOL    HW1  590   0.687   0.355   2.533  0.3877  1.3459 -0.6508
  197SOL    HW2  591   0.695   0.233   2.420 -1.3214 -0.8820  3.0083
  198SOL     OW  592   2.790   1.031   1.149 -0.3252 -0.0495  0.8112
  198SOL    HW1  593   2.709   1.096   1.150 -0.3022  0.8685  0.0017
  198SOL    HW2  594   2.807   0.994   1.056  0.6289 -0.2062  1.2668
  199SOL     OW  595   0.689   2.330   1.304  0.1051 -0.3748 -0.5029
  199SOL    HW1  596   0.728   2.295   1.218 -0.2704  5.3330  2.0659
  199SOL    HW2  597   0.608   2.386   1.287 -0.9041 -4.4040  0.4894
  200SOL     OW  598   2.902   2.100   2.697 -0.1731  0.0782  0.1580
  200SOL    HW1  599   2.981   2.156   2.668 -1.7034 -2.6530 -2.9678
  200SOL    HW2  600   2.869   2.118   2.793  3.8580 -1.2101  1.3940
  201SOL     OW  601   1.019   2.364   1.538 -0.1300 -0.4614 -0.3315
  201SOL    HW1  602   1.071   2.329   1.457  1.2461 -3.0261  1.7385
  201SOL    HW2  603   0.951   2.290   1.568  1.0218  0.8403 -0.5533
  202SOL     OW  604   0.664   2.496   0.060 -0.7521 -0.9119 -0.5972
  202SOL    HW1  605   0.699   2.439   0.136  2.4361  1.1366 -2.2098
  202SOL    HW2  606   0.579   2.550   0.077  1.2855  0.3105 -0.8550
  203SOL     OW  607   1.857   0.135   2.343  0.5318  0.2661 -0.0552
  203SOL    HW1  608   1.917   0.106   2.270 -0.8062 -0.8999  2.5198
  203SOL    HW2  609   1.793   0.062   2.369  2.7676  0.3586  0.8260
  204SOL     OW  610   0.461   1.541   1.732 -0.0890 -0.6630  0.1245
  204SOL    HW1  611   0.370   1.585   1.731  2.3550  0.5644 -0.9342
  204SOL    HW2  612   0.465   1.465   1.796 -0.5190  1.8052  1.2614
  205SOL     OW  613   2.437   1.478   2.555  0.0274  0.4799 -0.3739
  205SOL    HW1  614   2.464   1.428   2.469 -0.4646 -1.2183 -1.5447
  205SOL    HW2  615   2.337   1.488   2.544  0.3710  1.2676 -0.2176
  206SOL     OW  616   0.017   2.273   2.665 -0.0389 -0.2714  0.7826
  206SOL    HW1  617   0.011   2.326   2.576 -0.5829  1.3792  3.5709
  206SOL    HW2  618   0.109   2.243   2.685  2.3494  1.3647  2.3999
  207SOL     OW  619   0.618   2.884   1.878  0.3180 -0.0377 -0.8052
  207SOL    HW1  620   0.565   2.930   1.959 -3.5846  0.6523  3.6257
  207SOL    HW2  621   0.556   2.841   1.812 -0.5745 -0.2756  1.2507
  208SOL     OW  622   0.010   2.552   1.271 -0.3022  0.2692  0.4033
  208SOL    HW1  623   0.095   2.549   1.320 -0.4441  1.1006  0.0240
  208SOL    HW2  624   0.021   2.639   1.217 -1.6784 -1.9139 -1.1612
  209SOL     OW  625   1.204   2.726   2.209 -0.1578  0.1465 -0.4848
  209SOL    HW1  626   1.189   2.684   2.303  0.8800 -0.3397  1.6298
  209SOL    HW2  627   1.119   2.737   2.158 -1.2554 -1.2568  1.2643
  210SOL     OW  628   3.063   1.241   2.177 -0.1637  0.0240  0.3488
  210SOL    HW1  629   0.004   1.291   2.252  0.4322 -0.5662 -0.5567
  210SOL    HW2  630   3.071   1.139   2.186 -3.5578 -0.2996  0.0319
  211SOL     OW  631   1.541   2.792   2.013 -0.3049  0.5570 -0.5225
  211SOL    HW1  632   1.449   2.827   1.992  1.9113  1.6851  1.8345
  211SOL    HW2  633   1.607   2.862   2.050 -1.6036  0.5864  0.7588
  212SOL     OW  634   1.736   2.599   1.609  0.4441 -0.0004  0.0572
  212SOL    HW1  635   1.735   2.684   1.671 -0.1098  1.4377  0.9518
  212SOL    HW2  636   1.794   2.619   1.526  1.8161 -1.2287  1.0340
  213SOL     OW  637   2.374   0.642   1.692  0.1244 -0.1536 -0.4060
  213SOL    HW1  638   2.382   0.616   1.596  0.0926  1.4695  1.3307
  213SOL    HW2  639   2.464   0.687   1.718  0.7846 -0.5569  1.6100
  214SOL     OW  640   0.723   2.219   1.031 -0.3386  0.0662  0.0806
  214SOL    HW1  641   0.807   2.270   1.005 -1.7156  1.5651  0.8349
  214SOL    HW2  642   0.643   2.276   1.005 -0.7584  1.2058 -0.5663
  215SOL     OW  643   2.376   1.865   0.512 -0.5039  0.2488  0.6025
  215SOL    HW1  644   2.463   1.842   0.559  0.9975  1.9613  1.0881
  215SOL    HW2  645   2.372   1.962   0.477 -1.1383  1.3034  0.2918
  216SOL     OW  646   0.048   0.909   1.888 -0.2247 -0.0592  0.2809
  216SOL    HW1  647   0.107   0.988   1.913  0.8692  0.5609 -0.8279
  216SOL    HW2  648   0.009   0.923   1.793 -1.2205  0.5522  0.2947
  217SOL     OW  649   2.267   0.336   1.330  0.1259  0.3350  0.2353
  217SOL    HW1  650   2.344   0.275   1.310  1.3875  1.3583  1.1741
  217SOL    HW2  651   2.207   0.345   1.247  0.4328 -1.7780 -2.0261
  218SOL     OW  652   1.798   2.018   1.235 -0.0764 -0.3953  0.2012
  218SOL    HW1  653   1.825   2.112   1.211  1.9596  0.0546 -0.8202
  218SOL    HW2  654   1.707   2.030   1.279  0.4772  0.3504  1.5323
  219SOL     OW  655   1.778   2.326   0.014  0.0643  0.0953 -0.5530
  219SOL    HW1  656   1.681   2.299   0.018 -1.3211 -0.3870  0.1790
  219SOL    HW2  657   1.803   2.396   0.085 -1.7275 -0.1302  0.3361
  220SOL     OW  658   1.502   2.748   0.037 -0.1314 -0.1696  0.3984
  220SOL    HW1  659   1.422   2.690   0.008  1.2389  0.4559  0.2669
  220SOL    HW2  660   1.554   2.713   0.121  3.9471 -1.8730  1.9900
  221SOL     OW  661   0.236   2.674   1.774 -0.2956  0.0290  0.1170
  221SOL    HW1  662   0.158   2.729   1.744 -0.2882 -3.8410 -1.8993
  221SOL    HW2  663   0.269   2.687   1.872  0.6403 -0.3899 -0.7953
  222SOL     OW  664   1.847   2.275   1.160  0.1926 -0.0856 -0.5032
  222SOL    HW1  665   1.895   2.337   1.226 -1.7544 -0.1408 -1.2003
  222SOL    HW2  666   1.883   2.285   1.065 -1.3987 -0.8048  0.6841
  223SOL     OW  667   1.366   2.300   1.722 -0.2141 -1.0113 -0.3626
  223SOL    HW1  668   1.378   2.312   1.823 -2.2490  3.5435  1.2304
  223SOL    HW2  669   1.402   2.213   1.690  0.8393  3.7488 -0.6008
  224SOL     OW  670   2.628   2.399   1.286  0.7798  0.6593 -0.5521
  224SOL    HW1  671   2.713   2.447   1.304 -1.0634 -1.3843  1.5195
  224SOL    HW2  672   2.578   2.404   1.378 -0.0710  1.2645  1.7044
  225SOL     OW  673   2.345   2.118   0.485  0.1152 -0.2311  0.1575
  225SOL    HW1  674   2.248   2.142   0.486  0.3954 -0.6465 -1.9843
  225SOL    HW2  675   2.404   2.175   0.421  2.4570 -1.4035  1.6920
  226SOL     OW  676   1.361   2.578   0.500 -0.4115 -0.5395  0.8900
  226SOL    HW1  677   1.427   2.502   0.514  0.9720 -0.3533  0.1657
  226SOL    HW2  678   1.338   2.624   0.583 -0.6707  3.7510  1.3846
  227SOL     OW  679   2.190   1.061   0.854  0.5801 -0.4379 -0.1958
  227SOL    HW1  680   2.107   1.114   0.821  1.7975 -1.0298 -0.6026
  227SOL    HW2  681   2.222   0.988   0.789 -0.6272 -1.0472  1.2101
  228SOL     OW  682   1.645   0.336   2.902  0.2784  0.3438  0.5304
  228SOL    HW1  683   1.577   0.284   2.955  0.5120 -1.3541  0.7922
  228SOL    HW2  684   1.614   0.429   2.875  0.5043 -0.3065  0.6387
  229SOL     OW  685   2.858   1.141   2.727 -0.0903  0.3320  0.1696
  229SOL    HW1  686   2.791   1.076   2.685 -1.7478 -2.3474 -1.9710
  229SOL    HW2  687   2.956   1.116   2.704  0.0621  0.3077  0.9227
  230SOL     OW  688   0.468   1.334   1.105  0.1025  0.2578  0.5861
  230SOL    HW1  689   0.435   1.260   1.171 -0.4041 -1.7487  0.6877
  230SOL    HW2  690   0.498   1.290   1.018  0.8228 -0.7364 -0.1064
  231SOL     OW  691   2.481   0.269   2.529  0.1152 -0.1855  0.1128
  231SOL    HW1  692   2.417   0.340   2.500  3.3637  0.4085  2.1658
  231SOL    HW2  693   2.573   0.312   2.549  0.5333  0.1693 -3.4028
  232SOL     OW  694   2.947   2.161   0.428  0.4539  0.4133  0.4886
  232SOL    HW1  695   2.990   2.078   0.387 -2.6013  0.3407  1.2081
  232SOL    HW2  696   2.856   2.141   0.470  1.1216  1.4732  2.6689
  233SOL     OW  697   1.632   2.320   2.374 -0.3202  0.5102  0.1063
  233SOL    HW1  698   1.564   2.389   2.339 -0.0629  1.5258 -0.3013
  233SOL    HW2  699   1.698   2.284   2.301  1.2962 -0.8371 -1.8923
  234SOL     OW  700   1.220   1.599   1.183  0.4638  0.5675  0.2555
  234SOL    HW1  701   1.282   1.631   1.256 -0.0150  1.0517  0.2376
  234SOL    HW2  702   1.184   1.681   1.129  0.1658  0.5957 -2.4537
  235SOL     OW  703   0.889   1.822   1.619 -0.4419 -0.4094 -0.2563
  235SOL    HW1  704   0.794   1.791   1.616  1.3264 -0.0022 -0.0348
  235SOL    HW2  705   0.952   1.743   1.628 -0.4144  1.9115  0.6993
  236SOL     OW  706   1.140   2.978   2.911  0.0931  0.0392  0.2250
  236SOL    HW1  707   1.226   2.952   2.964  1.7021 -1.6169  2.0772
  236SOL    HW2  708   1.126   2.931   2.818  0.9268  1.0479  0.6393
  237SOL     OW  709   1.053   0.091   1.608 -0.0724 -0.3623 -0.1697
  237SOL    HW1  710   1.022   0.073   1.512 -1.5516 -0.9378  0.4372
  237SOL    HW2  711   1.153   0.091   1.615 -2.1918 -1.7914  0.9735
  238SOL     OW  712   1.079   0.949   0.064  0.1471  0.3841 -0.0274
  238SOL    HW1  713   1.092   0.991   3.080  0.1557  0.6907 -1.4488
  238SOL    HW2  714   1.100   0.851   0.061 -1.4518  2.7898  2.1965
  239SOL     OW  715   2.598   0.801   2.949 -0.4641 -0.5624  0.0033
  239SOL    HW1  716   2.498   0.830   2.958  0.4871 -1.8698  2.3971
  239SOL    HW2  717   2.640   0.804   3.039  1.3940  0.2806  0.2169
  240SOL     OW  718   2.475   2.163   0.728  0.0845  0.7320  0.4968
  240SOL    HW1  719   2.452   2.121   0.822  2.5853  0.8933  2.5262
  240SOL    HW2  720   2.405   2.143   0.656 -0.1567  1.8786 -0.7506
  241SOL     OW  721   0.799   1.254   1.116 -0.3894  0.0880 -0.1017
  241SOL    HW1  722   0.772   1.317   1.042 -1.4218 -0.1790 -0.8810
  241SOL    HW2  723   0.827   1.310   1.193 -0.1942 -4.8974 -1.7376
  242SOL     OW  724   0.737   0.560   0.878 -0.2915  0.2710  0.8343
  242SOL    HW1  725   0.774   0.625   0.801 -1.8692  1.9600 -4.3926
  242SOL    HW2  726   0.737   0.467   0.834 -0.6259 -0.1787 -4.4585
  243SOL     OW  727   0.341   0.658   1.096 -0.2900  0.8970 -0.2763
  243SOL    HW1  728   0.296   0.718   1.165  1.5990  0.3874 -0.5244
  243SOL    HW2  729   0.442   0.669   1.096  0.7218 -0.3644  1.2497
  244SOL     OW  730   1.213   0.212   0.454 -0.2101 -0.0925 -0.4506
  244SOL    HW1  731   1.202   0.118   0.492  3.1944  1.5185  1.5418
  244SOL    HW2  732   1.164   0.231   0.364  2.0878  0.2320 -0.1315
  245SOL     OW  733   1.967   0.618   0.299 -0.1436  0.3083  0.4460
  245SOL    HW1  734   1.985   0.603   0.400 -1.6833 -1.6434  0.8271
  245SOL    HW2  735   2.032   0.558   0.248  0.2278 -1.2294  0.1980
  246SOL     OW  736   0.272   0.311   1.589 -0.0188  0.2742 -0.2680
  246SOL    HW1  737   0.226   0.364   1.662 -1.0395 -0.3381  0.4057
  246SOL    HW2  738   0.357   0.364   1.561  1.7131  0.2450 -0.9353
  247SOL     OW  739   1.036   0.030   1.880  0.0055 -0.1093  0.3873
  247SOL    HW1  740   1.030   0.046   1.778 -2.5221 -0.4509  1.2959
  247SOL    HW2  741   1.035   3.038   1.907  0.5354  2.3725 -1.0523
  248SOL     OW  742   0.579   1.627   2.107 -0.3280  0.3568 -0.0044
  248SOL    HW1  743   0.653   1.687   2.066  0.9353  0.0206  0.9739
  248SOL    HW2  744   0.593   1.629   2.210  0.5131 -0.6454  2.7936
  249SOL     OW  745   0.425   2.644   0.102  0.2085 -0.1755 -0.2627
  249SOL    HW1  746   0.331   2.637   0.065 -3.0292  1.6737  0.0652
  249SOL    HW2  747   0.436   2.591   0.191 -2.1210 -0.7845  1.4303
  250SOL     OW  748   0.968   0.215   2.069 -0.1467 -0.4432  0.1872
  250SOL    HW1  749   0.886   0.170   2.112 -1.5467 -1.1712  0.7398
  250SOL    HW2  750   1.001   0.154   1.992  2.4089  1.6834 -0.1419
  251SOL     OW  751   2.685   1.981   1.473 -0.0747 -0.2893  0.5380
  251SOL    HW1  752   2.712   1.882   1.485 -0.1018  0.1744  0.4044
  251SOL    HW2  753   2.654   1.998   1.378  1.7810 -3.3280 -0.0932
  252SOL     OW  754   1.690   0.080   1.747 -0.2753 -0.3095 -0.6087
  252SOL    HW1  755   1.678   0.081   1.849 -0.4270  1.5690 -0.8536
  252SOL    HW2  756   1.695   3.099   1.706 -0.4671  2.3332  1.5057
  253SOL     OW  757   2.061   1.851   2.434 -0.0827 -0.0021 -0.1885
  253SOL    HW1  758   2.009   1.936   2.416 -0.6384 -1.2420 -0.7212
  253SOL    HW2  759   2.157   1.864   2.448 -0.6453 -1.0068 -0.1397
  254SOL     OW  760   0.721   1.483   1.477  0.4524  0.4640  0.1798
  254SOL    HW1  761   0.785   1.478   1.400 -1.5706 -0.6246  0.0803
  254SOL    HW2  762   0.696   1.577   1.487  2.5746 -3.0365 -0.2150
  255SOL     OW  763   0.781   3.062   1.703 -0.3057  0.4489 -0.2547
  255SOL    HW1  764   0.821   3.021   1.616 -0.6537 -0.2631 -2.1384
  255SOL    HW2  765   0.774   2.987   1.776  0.6747 -0.9622  1.7267
  256SOL     OW  766   0.258   2.718   0.736  0.1286  0.0526  0.1656
  256SOL    HW1  767   0.215   2.670   0.813  0.5133 -0.0741 -2.2728
  256SOL    HW2  768   0.357   2.726   0.753  0.8229  0.0564 -0.7126
  257SOL     OW  769   0.869   2.395   2.457 -0.0596  0.1046 -0.1717
  257SOL    HW1  770   0.969   2.380   2.454 -0.3631 -0.6537 -2.2100
  257SOL    HW2  771   0.819   2.353   2.381  0.1854  0.3334  3.5470
  258SOL     OW  772   1.548   1.938   1.826 -0.4848 -0.4164  0.6144
  258SOL    HW1  773   1.535   1.844   1.862  0.5675  2.7240 -2.6384
  258SOL    HW2  774   1.474   1.960   1.760  1.9821 -2.6619  0.5079
  259SOL     OW  775   1.227   1.116   2.051 -0.3306  0.0289 -0.0515
  259SOL    HW1  776   1.128   1.097   2.064 -1.9087 -0.7955  0.4934
  259SOL    HW2  777   1.238   1.216   2.062 -1.3546  0.1517  1.8660
  260SOL     OW  778   2.459   0.625   2.358 -0.7183 -0.2733 -0.3582
  260SOL    HW1  779   2.382   0.573   2.392  3.5424  1.1088 -2.8665
  260SOL    HW2  780   2.489   0.696   2.427 -1.9426 -0.8874 -0.1214
  261SOL     OW  781   0.769   1.314   0.857 -0.0477 -0.6494 -0.7499
  261SOL    HW1  782   0.687   1.260   0.864  2.4884  1.4970  0.9627
  261SOL    HW2  783   0.827   1.266   0.793  0.1157 -0.2456  0.2037
  262SOL     OW  784   2.443   2.253   2.764 -0.6758 -0.6006  0.0387
  262SOL    HW1  785   2.413   2.248   2.669 -1.3018  1.8531 -2.5215
  262SOL    HW2  786   2.427   2.171   2.823 -1.7051 -0.2060  0.0142
  263SOL     OW  787   0.817   2.778   1.088 -0.1841 -0.0884 -0.3727
  263SOL    HW1  788   0.836   2.862   1.037 -2.4809 -1.7583  1.5680
  263SOL    HW2  789   0.875   2.771   1.169 -3.0353 -0.8367 -1.3806
  264SOL     OW  790   0.025   2.311   0.308 -0.2851 -0.1104 -0.0729
  264SOL    HW1  791   3.057   2.250   0.343 -1.4587 -1.5915 -1.0725
  264SOL    HW2  792   0.082   2.268   0.232  0.5225 -3.1545 -0.7970
  265SOL     OW  793   1.571   1.208   2.585 -0.3780  0.9061  0.2183
  265SOL    HW1  794   1.590   1.176   2.490 -2.9903 -3.2478  0.1167
  265SOL    HW2  795   1.515   1.292   2.593  0.6678  0.6552  1.6073
  266SOL     OW  796   1.186   1.839   2.148  0.3296  0.4904  0.1683
  266SOL    HW1  797   1.218   1.927   2.186 -0.3825 -0.5118  2.3447
  266SOL    HW2  798   1.185   1.842   2.045 -1.5680  0.8075  0.5674
  267SOL     OW  799   2.361   1.040   2.731  0.4301 -0.5493  0.4966
  267SOL    HW1  800   2.378   1.074   2.635 -2.5462  1.3897 -0.5789
  267SOL    HW2  801   2.343   1.122   2.793 -1.1458  0.5286  3.6176
  268SOL     OW  802   0.911   1.141   2.760 -0.2282 -0.4578 -0.0461
  268SOL    HW1  803   0.825   1.169   2.805 -1.4874  0.2604  2.2468
  268SOL    HW2  804   0.987   1.122   2.824 -1.0292 -0.4124 -1.0866
  269SOL     OW  805   0.002   1.891   2.039  0.3026  0.1073 -0.5412
  269SOL    HW1  806   0.044   1.874   1.949 -1.2905 -0.0446  2.2449
  269SOL    HW2  807   3.010   1.866   2.045 -2.6359 -2.2475  1.2326
  270SOL     OW  808   0.111   2.154   2.984  0.4705 -0.1586 -0.3485
  270SOL    HW1  809   0.061   2.068   2.990  1.3463  0.7250  0.6918
  270SOL    HW2  810   0.051   2.224   2.945  1.4609 -3.5596  1.0078
  271SOL     OW  811   3.105   0.416   0.442  0.3180 -0.4434 -0.2783
  271SOL    HW1  812   3.099   0.326   0.495 -0.3464 -1.6911  0.0932
  271SOL    HW2  813   3.029   0.438   0.383  3.2977  2.8946  1.4545
  272SOL     OW  814   0.226   0.102   0.233 -0.0324 -0.2194 -0.3727
  272SOL    HW1  815   0.269   0.190   0.209 -1.7468  2.0794 -0.3287
  272SOL    HW2  816   0.149   0.118   0.300 -1.8566 -0.6939  0.6507
  273SOL     OW  817   0.401   2.957   2.035 -0.3468 -0.1947  0.3338
  273SOL    HW1  818   0.350   2.991   2.119  0.1183  0.3938  2.7494
  273SOL    HW2  819   0.396   3.037   1.972  0.0050 -0.2816  4.3581
  274SOL     OW  820   0.141   0.733   1.271  0.4261  0.4180  0.6545
  274SOL    HW1  821   0.051   0.696   1.243 -0.6072  0.2255 -2.1136
  274SOL    HW2  822   0.141   0.758   1.368 -1.7555  0.7985 -0.9525
  275SOL     OW  823   0.837   1.720   1.200  1.0453 -0.3229  0.2095
  275SOL    HW1  824   0.885   1.631   1.226  4.1765 -0.5636 -0.1158
  275SOL    HW2  825   0.741   1.696   1.172  1.4632 -1.6290  1.3162
  276SOL     OW  826   0.536   1.320   1.866  0.4761  0.1739  0.4823
  276SOL    HW1  827   0.613   1.378   1.835 -0.9120 -0.5751 -1.7151
  276SOL    HW2  828   0.495   1.345   1.963 -0.5295  1.9138  1.0235
  277SOL     OW  829   1.182   1.836   1.859 -0.1497 -0.1182  0.4025
  277SOL    HW1  830   1.081   1.834   1.848  2.3406  2.0156  2.6429
  277SOL    HW2  831   1.227   1.899   1.792 -2.7757 -1.1118  0.2749
  278SOL     OW  832   2.270   2.533   2.085  0.2170  0.1799 -0.4034
  278SOL    HW1  833   2.284   2.603   2.160 -0.3694  0.3970  1.9306
  278SOL    HW2  834   2.252   2.442   2.129 -3.1850 -0.7110  0.2741
  279SOL     OW  835   1.373   1.744   2.865 -0.2962  0.0678  0.3311
  279SOL    HW1  836   1.426   1.680   2.808 -1.4426 -1.1182  1.2689
  279SOL    HW2  837   1.428   1.826   2.881 -1.0986 -0.7256 -2.3398
  280SOL     OW  838   1.461   0.532   0.400  0.3182  0.1933  0.5156
  280SOL    HW1  839   1.547   0.512   0.448 -0.4990  1.2979 -0.8336
  280SOL    HW2  840   1.425   0.624   0.430  2.9144  0.9924  2.4283
  281SOL     OW  841   0.526   0.413   1.585 -0.2061  0.8057 -0.0662
  281SOL    HW1  842   0.526   0.517   1.585  1.3584  1.3329  3.4379
  281SOL    HW2  843   0.619   0.374   1.609 -2.3986  0.2355  1.1261
  282SOL     OW  844   0.218   2.974   0.631 -0.2551  0.0423 -0.3149
  282SOL    HW1  845   0.262   2.971   0.540  1.0293  1.1131  1.4341
  282SOL    HW2  846   0.219   2.878   0.672  0.0436 -3.6447  1.2230
  283SOL     OW  847   1.268   1.945   1.409 -0.2098 -0.6610  0.7365
  283SOL    HW1  848   1.217   1.970   1.324 -0.9389  0.2319 -1.1675
  283SOL    HW2  849   1.277   1.841   1.413 -3.3111  0.2419 -1.2497
  284SOL     OW  850   2.444   2.865   1.195 -0.1277  0.7424 -0.1956
  284SOL    HW1  851   2.534   2.855   1.225 -1.8857  0.7785 -0.4262
  284SOL    HW2  852   2.421   2.810   1.109  1.3093 -1.6983 -1.9382
  285SOL     OW  853   0.505   2.389   0.941  0.4876 -0.5247  0.6947
  285SOL    HW1  854   0.573   2.464   0.926  2.4711 -1.6703 -0.5794
  285SOL    HW2  855   0.439   2.385   0.858 -0.5058 -0.8837  0.2104
  286SOL     OW  856   0.268   2.609   1.366 -0.1203  0.2002 -0.1886
  286SOL    HW1  857   0.309   2.577   1.458 -0.9468 -3.3981  1.7700
  286SOL    HW2  858   0.233   2.704   1.371 -1.3103 -2.1393  0.9494
  287SOL     OW  859   0.512   1.205   0.880  0.5114  0.6406 -0.2098
  287SOL    HW1  860   0.427   1.222   0.826 -0.2514  0.2563 -0.8911
  287SOL    HW2  861   0.513   1.111   0.924  1.8028 -1.0941 -3.7169
  288SOL     OW  862   1.126   1.859   2.839  0.2436 -0.2631 -0.3431
  288SOL    HW1  863   1.218   1.816   2.856  1.7228 -2.5382  1.4136
  288SOL    HW2  864   1.132   1.948   2.788 -1.6541 -0.2226  0.0094
  289SOL     OW  865   2.527   1.550   3.020  0.1606 -0.1842  0.0382
  289SOL    HW1  866   2.488   1.643   3.046 -1.9020  0.2252  0.2335
  289SOL    HW2  867   2.530   1.539   2.920 -2.2480 -2.9782  0.3948
  290SOL     OW  868   1.251   1.267   0.906  0.1410 -0.0243 -0.0241
  290SOL    HW1  869   1.191   1.217   0.973 -2.0060  0.6406 -0.8150
  290SOL    HW2  870   1.323   1.330   0.948  2.0331 -1.1445 -1.1108
  291SOL     OW  871   1.110   1.046   2.918  0.5476  0.0861 -0.1445
  291SOL    HW1  872   1.176   1.117   2.885 -1.2287  0.5351  0.5909
  291SOL    HW2  873   1.136   0.950   2.894 -2.3021  0.4916  0.6672
  292SOL     OW  874   1.653   1.802   0.140  0.3269  0.1808 -0.2256
  292SOL    HW1  875   1.692   1.745   0.218  2.9153 -0.6143 -2.6322
  292SOL    HW2  876   1.557   1.836   0.157 -0.6952  0.2143 -1.2603
  293SOL     OW  877   1.540   3.048   0.964  0.0720  0.7033  0.0542
  293SOL    HW1  878   1.497   3.023   1.054 -0.0254 -2.4965  0.5134
  293SOL    HW2  879   1.565   0.038   0.969 -0.2710  3.4299  1.1186
  294SOL     OW  880   2.199   0.867   0.642  0.5130  0.3438 -0.5708
  294SOL    HW1  881   2.146   0.906   0.567  0.5241 -1.2836 -0.4698
  294SOL    HW2  882   2.287   0.831   0.602  0.9488  1.6509  0.0726
  295SOL     OW  883   2.000   1.822   2.699 -0.4048 -0.3432 -0.0699
  295SOL    HW1  884   2.018   1.816   2.599 -2.2966 -1.7147  0.3140
  295SOL    HW2  885   1.900   1.848   2.715  0.4424  0.3465 -0.5236
  296SOL     OW  886   1.371   1.069   1.379  0.0942 -0.7037  0.2910
  296SOL    HW1  887   1.279   1.117   1.369 -2.1275 -2.1384 -0.8999
  296SOL    HW2  888   1.360   0.982   1.331 -0.6191 -1.2447 -1.5670
  297SOL     OW  889   0.102   0.795   2.391  0.2288  0.4404  0.3617
  297SOL    HW1  890   0.203   0.764   2.400  1.5357 -2.8883  0.5188
  297SOL    HW2  891   0.045   0.762   2.468  0.8334  0.0519  0.0581
  298SOL     OW  892   1.543   2.053   1.354 -0.0760  0.0813 -0.4175
  298SOL    HW1  893   1.469   1.990   1.383 -2.6476 -2.7692 -0.4509
  298SOL    HW2  894   1.601   2.078   1.434 -4.8200  0.9856 -1.7721
  299SOL     OW  895   1.184   0.403   2.592 -0.3219  0.3714  0.2444
  299SOL    HW1  896   1.196   0.411   2.695  0.7474 -0.8515  0.7377
  299SOL    HW2  897   1.130   0.317   2.569  1.1553 -1.8057 -0.2145
  300SOL     OW  898   2.309   1.559   0.382 -0.1665 -0.2660  0.1502
  300SOL    HW1  899   2.314   1.480   0.314  1.3707  1.5610 -0.1786
  300SOL    HW2  900   2.405   1.580   0.407  1.9939 -1.4296 -1.8625
  301SOL     OW  901   2.155   0.359   2.665 -0.3484  0.0685 -0.7187
  301SOL    HW1  902   2.196   0.450   2.694  1.2593  1.8617 -0.7179
  301SOL    HW2  903   2.182   0.280   2.730  0.6510 -4.4663 -0.0977
  302SOL     OW  904   2.673   2.102   2.547 -0.1457 -0.0839  0.1408
  302SOL    HW1  905   2.767   2.104   2.584 -1.2700 -0.7403 -1.4468
  302SOL    HW2  906   2.638   2.195   2.527 -1.6579 -2.8887 -0.8432
  303SOL     OW  907   0.373   2.547   2.291 -0.0175 -0.3656  0.1212
  303SOL    HW1  908   0.465   2.558   2.341 -1.2297  1.9037 -0.5084
  303SOL    HW2  909   0.301   2.527   2.358 -2.3890  0.3712 -0.2499
  304SOL     OW  910   3.015   1.552   1.413 -0.0503  0.2096 -0.0062
  304SOL    HW1  911   2.992   1.502   1.325 -1.3984  0.7804 -1.0350
  304SOL    HW2  912   3.095   1.618   1.400  1.7951 -1.9695  0.8007
  305SOL     OW  913   0.361   0.360   2.179 -0.1480 -0.5895  0.4007
  305SOL    HW1  914   0.453   0.357   2.144  0.8896 -0.0581  1.8212
  305SOL    HW2  915   0.300   0.287   2.137 -1.2764 -1.1304  0.4039
  306SOL     OW  916   1.245   1.618   0.583  0.1579  0.1911 -0.2948
  306SOL    HW1  917   1.171   1.578   0.524  0.9629  0.5102  1.0728
  306SOL    HW2  918   1.331   1.639   0.534 -2.1488  1.0667 -1.6521
  307SOL     OW  919   2.970   3.041   0.922 -0.3857  0.5673  0.2196
  307SOL    HW1  920   3.071   3.058   0.935  1.9771 -1.3227  2.6311
  307SOL    HW2  921   2.946   3.044   0.825  3.0115 -0.5475  1.7716
  308SOL     OW  922   3.084   1.386   2.446 -0.3214  0.0671 -0.0688
  308SOL    HW1  923   3.029   1.399   2.528  1.4991 -1.9228 -3.3086
  308SOL    HW2  924   0.075   1.403   2.457 -1.7406  4.3924  1.5157
  309SOL     OW  925   2.872   1.808   2.637  0.0386 -0.6338 -0.2017
  309SOL    HW1  926   2.842   1.734   2.696 -0.1161  1.3983 -0.2414
  309SOL    HW2  927   2.885   1.892   2.688  0.2007 -3.5078  0.3954
  310SOL     OW  928   2.162   0.478   0.155  0.1643 -0.1396  0.1944
  310SOL    HW1  929   2.222   0.560   0.129  2.6296  0.1774 -0.3829
  310SOL    HW2  930   2.119   0.446   0.065  2.4759 -0.5345 -3.5167
  311SOL     OW  931   2.005   1.156   3.026  0.6408 -0.0499 -0.5835
  311SOL    HW1  932   2.025   1.206   2.939  0.5756 -2.0679 -0.7085
  311SOL    HW2  933   1.906   1.130   3.019  3.8748 -0.0781  0.8530
  312SOL     OW  934   1.305   1.526   1.895 -0.4373  0.6880 -0.4508
  312SOL    HW1  935   1.351   1.606   1.936 -0.8871  3.8302  2.2851
  312SOL    HW2  936   1.242   1.488   1.968  0.7380  0.0739  0.3937
  313SOL     OW  937   0.045   0.706   0.262  1.1600 -0.2633 -0.1624
  313SOL    HW1  938   0.098   0.691   0.174 -1.1375 -1.9727 -1.7809
  313SOL    HW2  939   3.072   0.644   0.277 -2.5204 -1.3197  1.3241
  314SOL     OW  940   0.282   1.825   1.486 -0.1145  0.2920  0.2662
  314SOL    HW1  941   0.357   1.874   1.538 -0.7909  1.2557 -1.6126
  314SOL    HW2  942   0.288   1.721   1.494 -1.9617 -1.1380  1.2098
  315SOL     OW  943   0.967   1.481   1.281 -0.2356  0.3118  0.5065
  315SOL    HW1  944   1.003   1.439   1.366  0.1863  0.7775 -0.6777
  315SOL    HW2  945   1.039   1.493   1.211 -2.8676  1.5167  0.6784
  316SOL     OW  946   0.379   2.432   0.699 -0.4343  1.0272 -0.3215
  316SOL    HW1  947   0.287   2.434   0.739  0.2329 -2.1372  1.7738
  316SOL    HW2  948   0.369   2.361   0.628  0.4376  0.0292  1.4782
  317SOL     OW  949   2.525   0.253   1.232  0.1652  0.2683  0.2273
  317SOL    HW1  950   2.564   0.275   1.326  0.1230 -0.6381 -1.4806
  317SOL    HW2  951   2.587   0.288   1.160 -4.4986 -0.9542 -0.5417
  318SOL     OW  952   1.337   3.028   0.187  0.4170  0.5004 -0.1276
  318SOL    HW1  953   1.329   2.986   0.091  0.0324  0.0566  3.3667
  318SOL    HW2  954   1.272   3.106   0.204 -1.3342  3.1709  0.0694
  319SOL     OW  955   1.438   0.480   2.771 -0.5531 -0.2900 -0.3578
  319SOL    HW1  956   1.526   0.496   2.719  0.7240  2.8050  0.7838
  319SOL    HW2  957   1.413   0.567   2.822 -0.6554  0.2590  1.1677
  320SOL     OW  958   2.916   2.028   1.805 -0.2720  0.0631 -0.0792
  320SOL    HW1  959   2.884   1.982   1.894  0.7321 -1.8986  1.8258
  320SOL    HW2  960   2.991   1.965   1.776  0.0859 -0.0605  1.1690
  321SOL     OW  961   0.104   2.606   2.895  0.6656 -0.9140 -0.0298
  321SOL    HW1  962   0.143   2.622   2.985 -0.9709  0.0534 -2.4680
  321SOL    HW2  963   0.043   2.525   2.892  0.3014  2.0493 -1.1613
  322SOL     OW  964   2.826   0.891   2.122  0.6736  0.5028 -0.2793
  322SOL    HW1  965   2.773   0.979   2.141 -0.6769 -0.9727 -0.9296
  322SOL    HW2  966   2.768   0.823   2.064 -1.1880 -3.1048  1.1413
  323SOL     OW  967   1.948   1.327   0.545 -0.0015 -0.2216 -0.4791
  323SOL    HW1  968   2.023   1.307   0.481 -1.0229 -3.4907 -0.1865
  323SOL    HW2  969   1.929   1.244   0.604 -1.3537 -1.4101  1.3031
  324SOL     OW  970   3.078   0.138   1.336 -0.3120 -0.1750  0.0349
  324SOL    HW1  971   0.062   0.110   1.377 -0.4649  0.4729  1.3565
  324SOL    HW2  972   3.084   0.176   1.241 -0.0030  3.6709 -2.4763
  325SOL     OW  973   2.549   0.001   1.423  0.1307  0.2745 -0.1758
  325SOL    HW1  974   2.620   3.075   1.359  2.0638  1.7056 -2.1200
  325SOL    HW2  975   2.583   0.088   1.459 -0.3815 -0.6894 -3.9822
  326SOL     OW  976   1.614   2.661   0.279 -0.0783  0.3673  0.4461
  326SOL    HW1  977   1.585   2.620   0.369  2.6829 -3.0075 -0.1805
  326SOL    HW2  978   1.680   2.594   0.238 -0.0077  1.5030  0.5523
  327SOL     OW  979   1.976   2.304   0.343  0.1118 -0.0222  0.4651
  327SOL    HW1  980   1.929   2.258   0.422  0.6692 -0.0771  0.2074
  327SOL    HW2  981   2.005   2.232   0.273  1.5495 -0.5273  1.9654
  328SOL     OW  982   3.078   2.257   1.842  0.3247 -0.3195 -0.5522
  328SOL    HW1  983   3.012   2.184   1.812 -0.7443 -0.8875  2.2554
  328SOL    HW2  984   3.038   2.309   1.920  1.1395  0.0377 -1.0940
  329SOL     OW  985   2.904   2.193   1.176  0.0657  0.6271 -0.2643
  329SOL    HW1  986   2.909   2.189   1.275 -0.0793 -1.1014 -0.3507
  329SOL    HW2  987   2.872   2.104   1.138  0.5320 -0.7172 -0.1510
  330SOL     OW  988   2.195   0.816   2.687 -0.0107 -0.2940 -0.2793
  330SOL    HW1  989   2.126   0.809   2.609  3.5533  0.9988 -0.0032
  330SOL    HW2  990   2.223   0.913   2.703 -1.1750 -1.7230  0.2771
  331SOL     OW  991   2.423   1.405   0.705 -0.3265 -0.1271  0.5911
  331SOL    HW1  992   2.337   1.444   0.675  1.1719  2.1317  0.1162
  331SOL    HW2  993   2.456   1.339   0.633 -0.6039 -1.3543 -2.6308
  332SOL     OW  994   0.127   2.779   1.174  0.0575 -0.1566  0.3722
  332SOL    HW1  995   0.204   2.763   1.111  1.5829 -3.1917 -0.7091
  332SOL    HW2  996   0.154   2.853   1.242  1.4095  0.5453  1.9715
  333SOL     OW  997   0.018   1.835   2.515 -0.1495 -0.1252  0.2907
  333SOL    HW1  998   0.026   1.932   2.481 -0.6174 -1.0740 -0.0810
  333SOL    HW2  999   3.033   1.818   2.546 -1.3248  2.2813  1.4784
  334SOL     OW 1000   0.096   0.894   0.997 -0.6908 -0.0094 -0.4436
  334SOL    HW1 1001   0.064   0.799   0.993  1.0765  0.7801 -0.2323
  334SOL    HW2 1002   0.143   0.918   1.088  1.1287  1.2857  1.1994
  335SOL     OW 1003   0.174   1.628   2.074  0.0002  0.3114  0.4222
  335SOL    HW1 1004   0.100   1.694   2.109  0.6779  0.5953  0.5926
  335SOL    HW2 1005   0.194   1.561   2.149 -0.4219 -2.0401  0.5838
  336SOL     OW 1006   2.178   2.714   2.302 -0.0904  0.2560  0.8700
  336SOL    HW1 1007   2.158   2.625   2.342  0.9568  0.1291 -2.6170
  336SOL    HW2 1008   2.093   2.761   2.298  1.2860  1.1381 -1.0441
  337SOL     OW 1009   0.927   0.701   1.334 -0.3224 -0.0900  0.0004
  337SOL    HW1 1010   0.853   0.768   1.347  0.0718 -2.7640  1.1455
  337SOL    HW2 1011   0.996   0.732   1.270 -2.5106 -0.3367 -1.6354
  338SOL     OW 1012   1.535   2.083   1.024 -0.2837 -0.0976  0.4749
  338SOL    HW1 1013   1.532   2.085   1.125  2.5347  0.8887 -0.0548
  338SOL    HW2 1014   1.526   1.986   0.992 -1.9870 -3.1784 -0.4675
  339SOL     OW 1015   0.066   1.747   1.313  0.0505  0.1434  0.4131
  339SOL    HW1 1016   0.168   1.761   1.337  0.8966 -0.9867  0.7032
  339SOL    HW2 1017   0.005   1.808   1.366  1.2437 -0.0367 -2.8220
  340SOL     OW 1018   0.704   0.063   2.125  0.1350 -0.1942 -0.6792
  340SOL    HW1 1019   0.747   3.083   2.142 -1.1204 -1.9547  0.8371
  340SOL    HW2 1020   0.632   0.071   2.201 -1.4671  0.4575 -0.1514
  341SOL     OW 1021   1.892   1.590   0.509  0.3818 -0.4683  1.0203
  341SOL    HW1 1022   1.984   1.638   0.501  1.5894  1.1146 -1.8563
  341SOL    HW2 1023   1.906   1.491   0.522  1.4498  2.0404  0.5320
  342SOL     OW 1024   1.691   1.616   0.347  0.7420  0.1325  0.5217
  342SOL    HW1 1025   1.678   1.522   0.310 -0.8714  2.5383  2.0110
  342SOL    HW2 1026   1.768   1.611   0.414  1.4218  1.3028  0.2193
  343SOL     OW 1027   1.896   0.102   0.875  0.2893  0.6085  0.1921
  343SOL    HW1 1028   1.858   0.156   0.951 -0.7561 -2.7035 -1.1536
  343SOL    HW2 1029   1.901   0.000   0.895  2.0192 -0.9968 -3.3520
  344SOL     OW 1030   2.667   0.248   2.986  0.6016  0.0448 -0.0962
  344SOL    HW1 1031   2.679   0.166   3.049  0.0757  1.2637  0.2930
  344SOL    HW2 1032   2.604   0.219   2.908 -0.6528 -0.8356 -0.2490
  345SOL     OW 1033   1.474   2.514   1.588 -0.4823  0.1220 -0.2551
  345SOL    HW1 1034   1.571   2.540   1.593 -3.1310 -0.9476  0.3854
  345SOL    HW2 1035   1.457   2.428   1.641 -0.4616  1.0276 -0.8289
  346SOL     OW 1036   2.304   2.041   1.351  0.4961 -0.0040  0.5492
  346SOL    HW1 1037   2.215   2.017   1.311 -0.7325 -0.7257  1.8225
  346SOL    HW2 1038   2.308   2.110   1.431 -1.6455 -0.9501  2.2161
  347SOL     OW 1039   2.011   2.800   1.120  0.1492 -0.4553  0.1593
  347SOL    HW1 1040   1.973   2.828   1.032 -0.8022 -1.2941 -0.3094
  347SOL    HW2 1041   2.049   2.883   1.171 -1.9046  0.8687 -0.8660
  348SOL     OW 1042   0.766   1.143   1.560 -0.2410  0.4454 -0.0798
  348SOL    HW1 1043   0.703   1.102   1.628  2.5822  0.1503 -1.8215
  348SOL    HW2 1044   0.711   1.153   1.475  0.3815 -3.3215 -1.8466
  349SOL     OW 1045   2.307   0.243   2.907 -0.2712 -0.1709 -0.5947
  349SOL    HW1 1046   2.332   0.323   2.963 -1.6694 -0.2610 -1.3739
  349SOL    HW2 1047   2.387   0.199   2.860 -2.8365 -1.8662 -0.3840
  350SOL     OW 1048   2.329   2.085   2.951  0.2321  0.4323 -0.2260
  350SOL    HW1 1049   2.399   2.034   3.008  1.1703 -1.4663  1.4610
  350SOL    HW2 1050   2.280   2.160   3.003 -0.2552  1.6388  0.2745
  351SOL     OW 1051   1.117   0.360   0.671  0.1537 -0.1717 -1.0371
  351SOL    HW1 1052   1.154   0.307   0.598 -2.6473  1.5425  5.6207
  351SOL    HW2 1053   1.083   0.445   0.627  4.1408 -2.3678 -0.9810
  352SOL     OW 1054   1.990   2.125   2.423  0.7623 -0.0605 -0.7907
  352SOL    HW1 1055   1.950   2.206   2.467 -0.2114 -2.1245  0.0156
  352SOL    HW2 1056   2.082   2.138   2.381  1.1113  1.0278 -2.3190
  353SOL     OW 1057   0.190   0.675   0.026 -0.2503  0.4897 -0.7838
  353SOL    HW1 1058   0.264   0.643   3.068  2.2205  0.1850 -0.7942
  353SOL    HW2 1059   0.129   0.740   3.084  1.2333 -0.3382 -0.0982
  354SOL     OW 1060   0.879   2.376   3.024  0.4964  0.6105  0.6697
  354SOL    HW1 1061   0.851   2.277   3.012  1.3414 -1.3358  3.0927
  354SOL    HW2 1062   0.811   2.423   3.078  3.8232 -0.7979 -0.3304
  355SOL     OW 1063   2.682   2.804   1.661 -0.7649  0.1536 -0.3566
  355SOL    HW1 1064   2.694   2.836   1.757  1.8004  2.4530  0.5914
  355SOL    HW2 1065   2.587   2.789   1.634  1.7673  0.3910  2.1023
  356SOL     OW 1066   2.662   1.319   0.820  0.4313 -0.1325  0.0840
  356SOL    HW1 1067   2.633   1.220   0.809  0.2725 -1.6663 -1.2130
  356SOL    HW2 1068   2.575   1.381   0.802 -5.8671  3.7219  0.1878
  357SOL     OW 1069   2.736   0.341   1.100  0.1249 -0.2438 -0.1809
  357SOL    HW1 1070   2.773   0.247   1.117 -1.0543  1.1496  0.2041
  357SOL    HW2 1071   2.786   0.371   1.016 -1.2244  1.0103  0.1584
  358SOL     OW 1072   1.156   2.276   1.286  0.5782  0.0125  0.3329
  358SOL    HW1 1073   1.142   2.339   1.210 -0.1225 -3.1189  0.4891
  358SOL    HW2 1074   1.247   2.295   1.325  2.6026  0.5861 -0.3811
  359SOL     OW 1075   3.011   2.780   2.792 -0.1748 -0.8929  0.4556
  359SOL    HW1 1076   3.084   2.734   2.845 -0.1828  0.3212 -0.5007
  359SOL    HW2 1077   3.041   2.868   2.755 -1.2431 -1.1520  0.2141
  360SOL     OW 1078   1.146   0.761   1.732  0.1676  0.0662  0.4081
  360SOL    HW1 1079   1.202   0.829   1.676 -0.2422  0.8819 -1.2951
  360SOL    HW2 1080   1.068   0.719   1.675 -3.5417  0.5116 -0.8746
  361SOL     OW 1081   2.380   0.079   0.606  0.3691 -0.2778  0.6066
  361SOL    HW1 1082   2.376   0.118   0.699 -3.1287 -1.0888 -0.0447
  361SOL    HW2 1083   2.287   0.094   0.564  0.1893 -0.8851  2.5576
  362SOL     OW 1084   0.230   0.109   0.736 -0.6390  0.2757  0.1845
  362SOL    HW1 1085   0.243   0.018   0.694  1.3732  1.4031 -0.6532
  362SOL    HW2 1086   0.311   0.148   0.788  1.7848  0.0040  1.1810
  363SOL     OW 1087   0.669   1.312   0.512 -0.6541 -0.0395  0.1075
  363SOL    HW1 1088   0.667   1.209   0.514 -1.1919 -4.9225  2.4196
  363SOL    HW2 1089   0.762   1.352   0.529 -1.1952 -1.0901  1.3574
  364SOL     OW 1090   0.555   1.055   1.725  0.0311 -0.1070 -0.1640
  364SOL    HW1 1091   0.470   1.001   1.690  0.8533 -0.6498  0.6950
  364SOL    HW2 1092   0.529   1.150   1.759 -2.5411 -2.9088 -0.8335
  365SOL     OW 1093   2.879   1.522   0.363 -0.3311  0.2882 -0.4369
  365SOL    HW1 1094   2.884   1.433   0.419  1.6783 -4.7084 -2.0775
  365SOL    HW2 1095   2.779   1.552   0.355  0.1263  1.2442 -0.9586
  366SOL     OW 1096   2.773   1.634   0.883  0.4289 -0.1475 -0.2893
  366SOL    HW1 1097   2.773   1.575   0.966  2.9949  0.4059 -1.1216
  366SOL    HW2 1098   2.862   1.675   0.861  0.9383  0.7510  1.5236
  367SOL     OW 1099   2.304   1.969   2.089 -0.3379  0.6883 -0.4184
  367SOL    HW1 1100   2.293   2.014   2.181 -0.2222  0.4671  1.1743
  367SOL    HW2 1101   2.215   1.932   2.058  0.2906 -0.4844  0.5124
  368SOL     OW 1102   2.623   1.474   1.099 -0.1023 -0.0577 -0.2261
  368SOL    HW1 1103   2.601   1.423   1.012 -1.8579 -2.6024  0.4032
  368SOL    HW2 1104   2.540   1.521   1.137 -4.2252 -0.8977 -2.4769
  369SOL     OW 1105   2.172   2.489   0.113 -0.3890  0.4062  0.4616
  369SOL    HW1 1106   2.190   2.521   0.018 -1.7103  0.4186  0.1603
  369SOL    HW2 1107   2.112   2.560   0.161 -0.5886  1.5832 -0.0472
  370SOL     OW 1108   2.885   3.043   1.302 -0.2976 -0.1096  0.2838
  370SOL    HW1 1109   2.924   2.962   1.253  2.6757  0.6898  1.3111
  370SOL    HW2 1110   2.961   3.107   1.327 -0.8851  1.1278  2.1324
  371SOL     OW 1111   0.671   1.622   3.057 -0.4296 -0.4528  0.0241
  371SOL    HW1 1112   0.754   1.653   3.012 -0.9722 -2.6459 -0.1411
  371SOL    HW2 1113   0.585   1.680   3.046 -0.1067  2.3833 -0.0297
  372SOL     OW 1114   1.058   1.227   0.166  0.7185  0.1202  0.1066
  372SOL    HW1 1115   0.961   1.242   0.198 -0.9437 -2.9100  2.2532
  372SOL    HW2 1116   1.069   1.131   0.152  2.9052 -1.2517  1.5756
  373SOL     OW 1117   1.579   2.654   2.862  0.1287  0.4709 -0.6792
  373SOL    HW1 1118   1.657   2.580   2.854  1.3884 -1.2729 -0.5992
  373SOL    HW2 1119   1.561   2.686   2.961  2.1705 -4.8990  0.4818
  374SOL     OW 1120   0.195   2.149   0.138  0.2662 -0.6275  0.0658
  374SOL    HW1 1121   0.293   2.171   0.143 -1.4849  2.4135 -0.2085
  374SOL    HW2 1122   0.164   2.134   0.038  0.8148 -2.0756 -2.6276
  375SOL     OW 1123   0.762   1.445   1.747  0.1190 -0.2567  0.0836
  375SOL    HW1 1124   0.755   1.471   1.650  1.3692  1.7416 -0.2570
  375SOL    HW2 1125   0.847   1.392   1.762  0.6540  1.3351  0.9914
  376SOL     OW 1126   0.683   2.465   1.947 -0.2517 -0.0243  0.1965
  376SOL    HW1 1127   0.680   2.447   1.849  0.4202 -1.5587  2.2567
  376SOL    HW2 1128   0.612   2.412   1.993  0.7930 -2.2146 -2.1454
  377SOL     OW 1129   2.938   1.496   2.127 -0.0357  0.1319 -0.0238
  377SOL    HW1 1130   2.925   1.548   2.215 -1.1674  1.2168  2.3636
  377SOL    HW2 1131   2.991   1.413   2.143  0.4109  1.7966 -0.0536
  378SOL     OW 1132   1.014   3.002   0.055 -0.2261 -0.2008 -0.7436
  378SOL    HW1 1133   1.038   2.982   3.066 -1.3262  0.6677 -0.8786
  378SOL    HW2 1134   1.067   3.078   0.100  0.0240 -1.3463 -2.7294
  379SOL     OW 1135   2.053   0.342   0.643 -0.4579  0.1941  0.4687
  379SOL    HW1 1136   2.049   0.284   0.560  1.1624  1.7984 -2.1684
  379SOL    HW2 1137   2.096   0.292   0.724 -0.1566  2.3196  0.6438
  380SOL     OW 1138   2.995   1.923   1.430 -0.0936  0.1933  0.3643
  380SOL    HW1 1139   2.894   1.927   1.428  3.1811  1.3233 -0.0406
  380SOL    HW2 1140   3.030   2.017   1.434  1.9679 -0.3510 -2.7857
  381SOL     OW 1141   2.099   1.849   1.954  0.3164 -0.0119 -0.1215
  381SOL    HW1 1142   2.074   1.758   2.000  0.1359 -2.1527  0.7424
  381SOL    HW2 1143   2.033   1.878   1.879  0.1572  0.9961 -0.8555
  382SOL     OW 1144   0.089   0.441   2.591  0.1319  0.5310 -0.1955
  382SOL    HW1 1145   0.193   0.443   2.586  3.7031  1.1238 -4.2152
  382SOL    HW2 1146   0.051   0.436   2.502  0.0471 -0.6917  3.0232
  383SOL     OW 1147   1.750   1.481   2.359 -0.3057  0.0032  0.3703
  383SOL    HW1 1148   1.781   1.387   2.386  1.4821 -1.1207 -0.5669
  383SOL    HW2 1149   1.832   1.540   2.339  2.0668  0.9006  0.4543
  384SOL     OW 1150   1.085   2.031   1.217 -0.5721 -0.7164  0.1020
  384SOL    HW1 1151   1.103   2.129   1.238  0.2619 -2.5032  0.0287
  384SOL    HW2 1152   1.009   1.998   1.275 -1.2658  1.3181  0.0070
  385SOL     OW 1153   1.826   2.495   0.792  0.2706  0.3194 -0.5440
  385SOL    HW1 1154   1.728   2.520   0.782 -0.6224  1.0791 -0.1432
  385SOL    HW2 1155   1.876   2.575   0.760 -0.0616 -2.0410  2.0222
  386SOL     OW 1156   1.951   1.798   0.717 -0.2114 -0.5298  0.5944
  386SOL    HW1 1157   1.922   1.892   0.686 -0.3859  1.4998  0.3708
  386SOL    HW2 1158   1.933   1.730   0.643 -1.5643 -0.3986 -0.5487
  387SOL     OW 1159   0.321   2.277   1.510  0.6144 -0.3552 -0.0656
  387SOL    HW1 1160   0.301   2.276   1.410  0.0165 -1.1118  0.0479
  387SOL    HW2 1161   0.244   2.234   1.560  1.8783  0.5145 -1.9077
  388SOL     OW 1162   2.947   0.409   1.753  0.0942  0.3691  0.4945
  388SOL    HW1 1163   2.915   0.506   1.744 -0.9786  0.9369 -0.8127
  388SOL    HW2 1164   2.868   0.360   1.803 -0.8013  0.0478  2.1219
  389SOL     OW 1165   1.880   1.084   0.640 -0.8318  0.2633  0.2604
  389SOL    HW1 1166   1.885   1.078   0.739 -0.7280  0.3506 -2.2118
  389SOL    HW2 1167   1.863   0.994   0.603  0.8849  1.2321 -1.1598
  390SOL     OW 1168   1.005   2.148   2.747  0.5095  0.5139  0.0623
  390SOL    HW1 1169   0.967   2.102   2.661 -1.5728  1.0128  0.5151
  390SOL    HW2 1170   1.018   2.249   2.739 -2.0132  0.9283  1.4096
  391SOL     OW 1171   0.847   2.102   2.961 -0.3987 -0.4628  0.0710
  391SOL    HW1 1172   0.905   2.096   2.874  1.6543 -0.9272 -0.0054
  391SOL    HW2 1173   0.759   2.049   2.950 -0.5295 -0.8801 -0.2636
  392SOL     OW 1174   0.026   2.830   1.715  0.1413 -0.3964 -0.6898
  392SOL    HW1 1175   3.072   2.862   1.642 -2.1269 -1.0676 -0.3313
  392SOL    HW2 1176   3.106   2.865   1.805 -2.1759  1.5923  1.6560
  393SOL     OW 1177   1.820   2.501   0.210 -0.2383 -0.4065  0.1346
  393SOL    HW1 1178   1.845   2.421   0.261 -0.9109  1.0686 -3.5883
  393SOL    HW2 1179   1.883   2.584   0.228  4.7855  2.0130 -1.3382
  394SOL     OW 1180   0.800   0.456   2.235  0.4204  0.2950  0.2232
  394SOL    HW1 1181   0.806   0.411   2.323 -1.2134 -0.6542 -1.3177
  394SOL    HW2 1182   0.894   0.469   2.192  4.6452  0.0589 -2.0650
  395SOL     OW 1183   0.387   1.128   1.315  0.1510 -0.1521  0.0037
  395SOL    HW1 1184   0.287   1.103   1.296 -1.0126 -1.5781  0.2992
  395SOL    HW2 1185   0.397   1.197   1.389 -0.4741 -2.2104 -0.8716
  396SOL     OW 1186   1.631   1.510   2.092 -0.0825 -0.0408 -0.1028
  396SOL    HW1 1187   1.582   1.430   2.048  1.2406  1.7147  0.7775
  396SOL    HW2 1188   1.660   1.490   2.188  1.1309 -2.2749 -0.0157
  397SOL     OW 1189   0.793   0.579   0.000 -0.2090 -0.0250  0.4131
  397SOL    HW1 1190   0.791   0.547   0.094 -0.8902  1.7376 -1.0855
  397SOL    HW2 1191   0.731   0.526   3.044  0.4243 -1.8540 -1.4652
  398SOL     OW 1192   0.725   1.841   2.640  0.1389 -0.6515  0.0360
  398SOL    HW1 1193   0.684   1.938   2.630 -3.1091  5.0290 -0.6536
  398SOL    HW2 1194   0.775   1.809   2.556 -1.5644  1.9608  1.5405
  399SOL     OW 1195   2.635   1.648   2.396 -0.0335 -0.4284  0.0589
  399SOL    HW1 1196   2.608   1.676   2.304  3.7514 -0.9320  0.3276
  399SOL    HW2 1197   2.736   1.635   2.396 -0.3841  0.2808  0.2665
  400SOL     OW 1198   2.309   0.978   1.625 -0.3550 -0.1069  0.3721
  400SOL    HW1 1199   2.384   1.032   1.574  2.1155 -0.4376 -2.4886
  400SOL    HW2 1200   2.283   0.896   1.569 -1.2096 -1.7612 -1.0833
  401SOL     OW 1201   1.052   1.815   0.686 -0.3203  0.4875  0.0657
  401SOL    HW1 1202   1.026   1.793   0.785 -4.1711 -0.9659  1.2615
  401SOL    HW2 1203   1.117   1.746   0.653 -2.2165  2.5097 -1.9651
  402SOL     OW 1204   0.080   2.691   2.090  0.0031  1.3708  0.1697
  402SOL    HW1 1205   0.176   2.662   2.079 -1.0056  2.4919 -0.9468
  402SOL    HW2 1206   0.055   2.762   2.024  0.0324 -2.8559  0.8805
  403SOL     OW 1207   0.283   1.301   2.506 -0.0862  0.3872 -0.1561
  403SOL    HW1 1208   0.268   1.353   2.591  1.8490  2.5673 -0.7739
  403SOL    HW2 1209   0.266   1.199   2.503  0.2137  3.2574  0.0131
  404SOL     OW 1210   1.918   2.107   1.488  0.4219 -0.0847  0.2179
  404SOL    HW1 1211   2.005   2.146   1.523 -2.4328 -0.1769  0.2892
  404SOL    HW2 1212   1.932   2.014   1.460 -2.1226 -0.8136  0.5824
  405SOL     OW 1213   2.906   3.091   2.967  0.1428 -0.5594  0.1677
  405SOL    HW1 1214   2.837   3.022   2.940 -2.8836 -1.0394 -3.3118
  405SOL    HW2 1215   2.988   3.073   2.910 -0.5282 -3.4702  1.2980
  406SOL     OW 1216   0.726   0.800   0.184 -0.4726 -0.3408  0.2927
  406SOL    HW1 1217   0.814   0.772   0.146 -0.6385  2.9637  0.9464
  406SOL    HW2 1218   0.723   0.902   0.172  0.5027  1.4076 -2.7448
  407SOL     OW 1219   2.103   2.503   2.774 -0.6178 -0.8210  0.8637
  407SOL    HW1 1220   2.070   2.426   2.827  0.4734  2.1638 -2.1252
  407SOL    HW2 1221   2.174   2.548   2.834  2.0729  5.9885 -1.1222
  408SOL     OW 1222   2.953   0.114   0.314  0.4430  0.9647 -0.6935
  408SOL    HW1 1223   3.027   0.080   0.382  4.4214 -0.4801  1.7969
  408SOL    HW2 1224   2.984   0.109   0.219 -0.8305  0.6366 -2.3156
  409SOL     OW 1225   2.137   1.438   0.905  0.1589 -0.5955 -0.1383
  409SOL    HW1 1226   2.171   1.499   0.832  0.8850 -0.5702  0.8023
  409SOL    HW2 1227   2.194   1.361   0.926 -2.2423 -0.0543  0.6358
  410SOL     OW 1228   2.680   2.133   0.153  0.1095 -0.2357 -0.2501
  410SOL    HW1 1229   2.585   2.109   0.121 -0.8646 -0.4682  1.4704
  410SOL    HW2 1230   2.739   2.148   0.073  0.0104 -0.7392 -2.8700
  411SOL     OW 1231   0.116   1.476   0.879 -0.2324  0.3199  0.2592
  411SOL    HW1 1232   0.134   1.583   0.877  1.2512  2.1925 -0.7835
  411SOL    HW2 1233   0.021   1.452   0.901  1.1066 -0.4847 -2.7176
  412SOL     OW 1234   2.260   2.492   0.705  0.6145 -0.0846 -0.3139
  412SOL    HW1 1235   2.360   2.502   0.704 -3.0171 -0.8060 -0.6699
  412SOL    HW2 1236   2.223   2.493   0.612  3.2486 -0.9101  1.7475
  413SOL     OW 1237   2.012   0.685   2.286 -0.3115  0.2785  0.3875
  413SOL    HW1 1238   1.913   0.710   2.278 -1.2639  0.7475 -0.4794
  413SOL    HW2 1239   2.067   0.745   2.227 -3.9791  0.6524  3.1405
  414SOL     OW 1240   2.785   0.294   0.422  0.6735 -0.4882 -0.3335
  414SOL    HW1 1241   2.850   0.225   0.385  0.3915  1.7877  1.1842
  414SOL    HW2 1242   2.690   0.260   0.420  0.2850 -2.7741 -1.0220
  415SOL     OW 1243   0.873   1.928   1.362 -0.2583 -0.4862 -0.0543
  415SOL    HW1 1244   0.836   1.855   1.299  0.3776 -0.7350 -0.2518
  415SOL    HW2 1245   0.877   1.885   1.455  1.3215  0.9974 -1.6966
  416SOL     OW 1246   0.552   3.044   2.643  0.1273 -0.4350 -0.1393
  416SOL    HW1 1247   0.462   3.040   2.688 -0.4277 -2.2157 -0.1302
  416SOL    HW2 1248   0.545   3.005   2.547  0.3542 -0.7218 -2.2500
  417SOL     OW 1249   2.464   0.494   1.003  0.3991  0.1261 -0.2525
  417SOL    HW1 1250   2.524   0.506   0.921 -0.6409  4.1473  1.1271
  417SOL    HW2 1251   2.512   0.437   1.070  1.1082  1.8141 -0.2573
  418SOL     OW 1252   0.105   0.623   2.796 -0.3367  0.1757  0.1805
  418SOL    HW1 1253   0.043   0.602   2.872  1.7632 -0.4583 -0.1293
  418SOL    HW2 1254   0.089   0.560   2.721  0.9898 -0.9459  0.6098
  419SOL     OW 1255   0.242   1.169   1.615  0.0895 -0.5019 -0.0062
  419SOL    HW1 1256   0.323   1.226   1.600 -1.5567  1.8162 -0.8827
  419SOL    HW2 1257   0.170   1.191   1.542  0.0304  1.0686 -0.0192
  420SOL     OW 1258   0.644   1.564   0.807 -0.5113  0.3259 -0.2057
  420SOL    HW1 1259   0.705   1.625   0.752  0.6949  0.3726 -2.7935
  420SOL    HW2 1260   0.701   1.479   0.831  0.5010 -4.1382  1.4048
  421SOL     OW 1261   2.448   2.527   2.810  0.1532 -0.6805  0.2462
  421SOL    HW1 1262   2.429   2.427   2.824 -0.6762  1.2112  0.5897
  421SOL    HW2 1263   2.451   2.551   2.707  0.7286  0.9643 -2.2802
  422SOL     OW 1264   3.021   0.552   2.948  0.5319  0.1782  0.3327
  422SOL    HW1 1265   2.935   0.507   2.910 -2.2043  0.5642 -0.2070
  422SOL    HW2 1266   3.060   0.497   3.026  1.4265 -1.7375  2.2958
  423SOL     OW 1267   1.334   2.173   0.866 -0.0053  0.8787  0.3130
  423SOL    HW1 1268   1.400   2.151   0.940 -0.8344  4.0828 -0.3561
  423SOL    HW2 1269   1.237   2.157   0.895  1.5513  1.0107  0.8981
  424SOL     OW 1270   0.493   1.941   1.604  0.0063 -0.1489 -0.3620
  424SOL    HW1 1271   0.522   2.022   1.550 -2.2805  0.2568  1.1553
  424SOL    HW2 1272   0.445   1.974   1.685 -2.5051 -0.7667 -3.6778
  425SOL     OW 1273   0.090   2.844   2.326 -0.4225  0.1338 -0.0479
  425SOL    HW1 1274   0.090   2.770   2.257 -2.8352  0.2911  0.4754
  425SOL    HW2 1275   3.106   2.883   2.341  0.4359 -0.7810 -1.2670
  426SOL     OW 1276   1.606   0.790   0.475 -0.4923 -0.3063 -0.2822
  426SOL    HW1 1277   1.582   0.814   0.378 -0.8550 -0.6120  0.8838
  426SOL    HW2 1278   1.576   0.850   0.551 -1.4965  1.1981  1.3118
  427SOL     OW 1279   0.622   1.048   0.081  0.4849  0.0163  0.6424
  427SOL    HW1 1280   0.522   1.040   0.095 -1.8956  1.6599 -2.3732
  427SOL    HW2 1281   0.646   1.001   3.102  0.5581 -2.4350 -0.2547
  428SOL     OW 1282   1.402   1.367   3.024 -0.1272 -0.0388 -0.1603
  428SOL    HW1 1283   1.435   1.281   3.070  0.6283 -0.2011  3.5474
  428SOL    HW2 1284   1.300   1.377   3.037 -0.8504 -0.4160  1.7655
  429SOL     OW 1285   2.861   2.616   0.651  0.6238 -0.7179 -0.0575
  429SOL    HW1 1286   2.767   2.645   0.653 -0.6645  0.2157  1.3364
  429SOL    HW2 1287   2.916   2.677   0.587  0.2180 -1.6699  0.5182
  430SOL     OW 1288   0.623   2.527   2.399 -0.5252 -0.3357 -0.0917
  430SOL    HW1 1289   0.665   2.520   2.493  0.5538  1.0797 -1.7867
  430SOL    HW2 1290   0.647   2.441   2.350 -0.6087  0.1968  0.7121
  431SOL     OW 1291   2.842   1.321   0.546  0.2283  0.0517  0.5319
  431SOL    HW1 1292   2.803   1.336   0.635 -0.1007 -0.5828 -2.5580
  431SOL    HW2 1293   2.898   1.243   0.545 -3.1363  2.4638  0.7261
  432SOL     OW 1294   2.129   2.287   2.188  0.1447  0.2309  0.4213
  432SOL    HW1 1295   2.183   2.216   2.238  0.2268 -0.1651 -2.4749
  432SOL    HW2 1296   2.075   2.252   2.108  0.3129 -0.8473 -2.9723
  433SOL     OW 1297   1.370   2.435   0.899  0.0093 -0.1154  0.1601
  433SOL    HW1 1298   1.346   2.337   0.884  0.7838  2.8613  0.3271
  433SOL    HW2 1299   1.434   2.465   0.828 -0.6754  1.3069 -0.0379
  434SOL     OW 1300   0.847   2.037   2.068 -0.1745  0.0074  0.8770
  434SOL    HW1 1301   0.930   2.091   2.084  1.5879 -3.4269  1.0553
  434SOL    HW2 1302   0.801   2.030   2.158  1.8417 -0.8426  0.7877
  435SOL     OW 1303   2.879   0.988   0.044 -0.1088 -0.3408  0.3323
  435SOL    HW1 1304   2.969   1.001   0.093 -0.5711  0.7341 -0.3283
  435SOL    HW2 1305   2.849   0.891   0.049  1.9879  0.0998 -0.3048
  436SOL     OW 1306   0.344   2.673   2.041  0.7647 -0.0871  0.0064
  436SOL    HW1 1307   0.393   2.762   2.031 -0.6628  1.4812  2.2260
  436SOL    HW2 1308   0.368   2.634   2.131  3.6933  0.2892  0.8230
  437SOL     OW 1309   2.095   2.778   1.680 -0.3982 -0.2873 -0.1780
  437SOL    HW1 1310   2.027   2.752   1.609  0.3683  0.1212  0.3051
  437SOL    HW2 1311   2.099   2.707   1.753 -2.3689 -0.0634  1.9259
  438SOL     OW 1312   0.306   1.975   0.693 -0.0446 -0.0752  0.0335
  438SOL    HW1 1313   0.363   1.899   0.735  0.2821  0.1558  0.5774
  438SOL    HW2 1314   0.326   2.058   0.748  1.2266  2.0626  0.1574
  439SOL     OW 1315   0.117   0.616   0.873  0.3389  0.0736  0.2240
  439SOL    HW1 1316   0.180   0.643   0.797 -1.5034  0.6578 -0.8255
  439SOL    HW2 1317   0.160   0.557   0.942 -0.2613  0.5925 -0.0635
  440SOL     OW 1318   0.337   2.862   2.471  0.3309 -0.7258 -0.5020
  440SOL    HW1 1319   0.312   2.805   2.553 -0.6253  1.0927  1.0064
  440SOL    HW2 1320   0.261   2.873   2.399  0.9574 -1.9909 -2.4286
  441SOL     OW 1321   2.985   1.060   0.499  0.0421 -0.6107 -0.4245
  441SOL    HW1 1322   3.080   1.090   0.525  1.9307 -0.7791 -0.3587
  441SOL    HW2 1323   2.964   0.979   0.559 -0.8988  0.2760 -0.3750
  442SOL     OW 1324   1.147   2.349   2.511 -0.5182 -0.4217  0.1358
  442SOL    HW1 1325   1.225   2.293   2.488 -3.9192  2.9592  1.1065
  442SOL    HW2 1326   1.158   2.386   2.607 -0.7888  2.5510  0.2431
  443SOL     OW 1327   0.715   0.169   0.446 -0.5362 -0.2845  0.0321
  443SOL    HW1 1328   0.754   0.217   0.368 -3.0495 -1.7548  1.9419
  443SOL    HW2 1329   0.790   0.164   0.512  1.7437  0.3216 -2.4504
  444SOL     OW 1330   1.429   1.771   2.468 -0.4175 -0.5798 -0.5295
  444SOL    HW1 1331   1.504   1.711   2.500 -0.7282 -2.1859 -0.7302
  444SOL    HW2 1332   1.462   1.826   2.388  0.4914 -1.4853 -1.5617
  445SOL     OW 1333   3.073   0.609   0.661  0.0795  0.5276 -0.3275
  445SOL    HW1 1334   3.103   0.554   0.578 -0.3475 -2.3714 -1.3082
  445SOL    HW2 1335   0.022   0.582   0.739 -3.0877  1.1497  0.1464
  446SOL     OW 1336   1.985   0.842   1.060 -0.0867  0.0358  0.3448
  446SOL    HW1 1337   1.929   0.871   1.139 -0.4128 -0.4736  0.8271
  446SOL    HW2 1338   2.071   0.898   1.063  2.2293  0.5382 -0.0823
  447SOL     OW 1339   3.057   0.977   0.240  0.2790 -0.4794 -0.3985
  447SOL    HW1 1340   3.107   0.887   0.233 -1.4168  2.8700  2.1739
  447SOL    HW2 1341   3.003   0.982   0.325  2.5033  2.0749 -1.3171
  448SOL     OW 1342   1.730   1.719   1.366  0.1746 -0.1861 -0.7654
  448SOL    HW1 1343   1.736   1.738   1.267  1.0988  2.9789 -0.1245
  448SOL    HW2 1344   1.776   1.632   1.391 -0.1642  1.2175 -1.3667
  449SOL     OW 1345   0.891   1.453   0.566  0.0245 -0.1489 -0.3049
  449SOL    HW1 1346   0.972   1.401   0.601  0.6360 -0.3360  0.2358
  449SOL    HW2 1347   0.881   1.541   0.614 -0.2990 -0.1441 -2.2542
  450SOL     OW 1348   2.757   2.785   2.361  0.2298 -0.5545 -0.1233
  450SOL    HW1 1349   2.673   2.819   2.412 -4.4676 -0.7561  2.9955
  450SOL    HW2 1350   2.738   2.739   2.277  1.2694 -2.1879  1.9919
  451SOL     OW 1351   2.351   0.923   2.992 -0.2112 -0.1330  0.2972
  451SOL    HW1 1352   2.335   1.010   3.042 -2.6333  0.1747 -0.7559
  451SOL    HW2 1353   2.359   0.945   2.892 -1.8345 -0.7389  1.2115
  452SOL     OW 1354   1.667   0.900   1.046  0.3556 -0.1696 -0.1380
  452SOL    HW1 1355   1.706   0.911   1.136 -1.6605 -1.6254  0.5637
  452SOL    HW2 1356   1.572   0.867   1.049  1.0190 -0.1697 -1.4227
  453SOL     OW 1357   1.956   0.538   1.441  0.0873 -0.0239 -0.6741
  453SOL    HW1 1358   1.931   0.607   1.512 -1.3842  0.5083 -2.2828
  453SOL    HW2 1359   1.985   0.584   1.355 -1.3351 -1.3824  0.1377
  454SOL     OW 1360   2.618   1.257   2.908  0.2799 -0.3505  0.2988
  454SOL    HW1 1361   2.671   1.213   2.835  2.5007  2.3199  0.4278
  454SOL    HW2 1362   2.679   1.261   2.986  0.9615  2.5477  0.0567
  455SOL     OW 1363   2.518   1.565   1.432 -0.2793  0.4848  0.2068
  455SOL    HW1 1364   2.449   1.488   1.433  1.2893  1.0712  1.1913
  455SOL    HW2 1365   2.476   1.656   1.408  2.8283  0.7824 -0.0151
  456SOL     OW 1366   1.331   2.932   1.587  0.3568  0.0739 -0.2780
  456SOL    HW1 1367   1.339   3.034   1.583  1.7982  1.9350  1.2720
  456SOL    HW2 1368   1.411   2.891   1.542  0.6353  3.6850 -0.4823
  457SOL     OW 1369   1.720   2.820   0.936  0.0279  0.0447 -0.2286
  457SOL    HW1 1370   1.695   2.752   1.006  0.3777 -2.5954 -0.1549
  457SOL    HW2 1371   1.675   2.911   0.946  2.8388  2.2760 -0.1801
  458SOL     OW 1372   2.862   0.101   0.718  1.2585 -0.3502  0.1831
  458SOL    HW1 1373   2.879   0.056   0.631 -1.1628  2.1636  1.0763
  458SOL    HW2 1374   2.765   0.082   0.759 -1.5068 -0.7459  3.4478
  459SOL     OW 1375   1.546   1.157   0.058  0.1914  0.5511  0.5909
  459SOL    HW1 1376   1.528   1.083   0.129  0.0176 -3.2197  0.7010
  459SOL    HW2 1377   1.634   1.134   0.008  0.5099 -0.8011 -0.9404
  460SOL     OW 1378   0.251   2.688   2.679  0.7944 -0.1122  0.1751
  460SOL    HW1 1379   0.197   2.653   2.758  1.9288  2.1775 -0.7727
  460SOL    HW2 1380   0.222   2.632   2.599 -0.1955  0.9439  2.7743
  461SOL     OW 1381   0.675   1.487   0.192  0.0082 -0.1276 -0.0052
  461SOL    HW1 1382   0.758   1.506   0.252 -0.9522  2.4449 -0.8713
  461SOL    HW2 1383   0.666   1.552   0.111  0.4149  2.1852 -1.4114
  462SOL     OW 1384   2.103   2.076   0.591  0.2704 -0.1242  0.1023
  462SOL    HW1 1385   2.127   2.053   0.686  0.9799 -0.5289  0.5578
  462SOL    HW2 1386   2.003   2.062   0.565 -2.6128  0.2124 -0.3927
  463SOL     OW 1387   2.754   0.460   0.624  0.1099 -0.5211 -0.0913
  463SOL    HW1 1388   2.805   0.549   0.607 -0.9502  1.9421 -0.1892
  463SOL    HW2 1389   2.778   0.394   0.554  0.2786  4.6835 -0.3264
  464SOL     OW 1390   0.748   2.332   0.557 -0.3230  0.2757 -0.0265
  464SOL    HW1 1391   0.750   2.329   0.453  0.6660 -0.3863  0.7891
  464SOL    HW2 1392   0.726   2.237   0.591  0.0086 -3.8039 -0.4816
  465SOL     OW 1393   2.132   0.346   1.092 -0.2014  0.4394 -0.6403
  465SOL    HW1 1394   2.067   0.272   1.068  0.0401 -0.3753  0.1594
  465SOL    HW2 1395   2.189   0.372   1.011  0.7566 -2.8086 -0.8902
  466SOL     OW 1396   2.064   0.054   0.490 -0.8221  0.0040  0.1716
  466SOL    HW1 1397   2.097   3.075   0.532 -0.5344  1.4114 -0.8378
  466SOL    HW2 1398   1.967   0.077   0.503  1.9954  1.2222 -0.0087
  467SOL     OW 1399   1.289   0.478   2.156  0.2499 -0.2144  0.1792
  467SOL    HW1 1400   1.302   0.406   2.226  0.4296 -1.6763  0.2374
  467SOL    HW2 1401   1.353   0.472   2.078 -0.9772 -1.6218  0.7750
  468SOL     OW 1402   2.725   0.270   1.825 -0.0208  0.3866 -0.2176
  468SOL    HW1 1403   2.646   0.281   1.764  3.5999 -1.2353 -0.1185
  468SOL    HW2 1404   2.689   0.301   1.914 -0.9069 -0.8258 -0.9047
  469SOL     OW 1405   1.085   2.208   1.934 -0.1809 -0.1161 -0.0262
  469SOL    HW1 1406   1.175   2.246   1.917 -0.2639  0.3959  0.6988
  469SOL    HW2 1407   1.051   2.143   1.864  1.1420 -1.6436  2.2864
  470SOL     OW 1408   2.124   1.216   2.012  0.3282  0.1661  0.1990
  470SOL    HW1 1409   2.170   1.134   1.975 -0.1366 -0.9096 -0.6525
  470SOL    HW2 1410   2.092   1.193   2.109 -0.4184 -0.9367  1.6232
  471SOL     OW 1411   2.898   1.463   3.052 -0.0438 -0.8898  0.3655
  471SOL    HW1 1412   2.860   1.375   3.088  0.7102 -0.7914 -1.9522
  471SOL    HW2 1413   2.924   1.523   0.024 -5.1683  1.3143 -0.9417
  472SOL     OW 1414   0.587   2.575   0.554  0.0955 -0.4931  0.4134
  472SOL    HW1 1415   0.497   2.545   0.595  2.4117  1.2965  2.8621
  472SOL    HW2 1416   0.645   2.490   0.542  2.9578 -0.7892  1.0825
  473SOL     OW 1417   1.288   2.114   2.207 -0.1543  0.2834 -0.4637
  473SOL    HW1 1418   1.377   2.133   2.159 -0.2721 -2.3586 -2.2628
  473SOL    HW2 1419   1.296   2.147   2.301 -1.6372 -0.1265  2.5156
  474SOL     OW 1420   1.116   3.085   2.539 -0.2875  0.2145  1.2331
  474SOL    HW1 1421   1.051   3.052   2.466 -0.7420  1.2101 -1.6603
  474SOL    HW2 1422   1.133   3.004   2.596  2.1376  1.0744 -0.1762
  475SOL     OW 1423   0.780   2.335   0.282 -0.6054  0.3239  0.3429
  475SOL    HW1 1424   0.875   2.358   0.322  1.2081  1.6099 -0.4489
  475SOL    HW2 1425   0.779   2.249   0.229 -0.8359 -0.5740  0.7653
  476SOL     OW 1426   0.601   0.732   1.095  0.4842  0.0037  0.7697
  476SOL    HW1 1427   0.633   0.763   1.187  0.6600 -0.6918  3.5459
  476SOL    HW2 1428   0.665   0.667   1.050  3.0730  0.8490  0.4669
  477SOL     OW 1429   2.106   1.956   1.198 -0.2526  0.1226  0.0008
  477SOL    HW1 1430   2.110   1.973   1.100  0.8495 -0.8961  1.4386
  477SOL    HW2 1431   2.007   1.956   1.234 -0.9429  0.9246  1.6890
  478SOL     OW 1432   2.758   0.744   0.062  0.2096 -0.3158  0.4967
  478SOL    HW1 1433   2.711   0.747   0.151  2.4494  1.8235 -1.6530
  478SOL    HW2 1434   2.807   0.657   0.055 -1.9817 -1.1640 -0.4983
  479SOL     OW 1435   0.598   3.080   0.989 -0.2933 -0.2303  0.3524
  479SOL    HW1 1436   0.552   3.035   1.065  1.5601  0.7810 -1.6382
  479SOL    HW2 1437   0.695   3.043   0.982  1.6455 -2.6367 -1.1274
  480SOL     OW 1438   2.407   2.540   0.382 -0.8690  0.3656  0.3941
  480SOL    HW1 1439   2.445   2.450   0.360 -1.1084  0.3475 -1.5315
  480SOL    HW2 1440   2.417   2.555   0.481 -1.2318 -0.1394 -1.1101
  481SOL     OW 1441   2.827   0.484   1.309  0.3794 -0.0348 -0.2007
  481SOL    HW1 1442   2.771   0.418   1.258 -1.8397 -2.7637 -0.8013
  481SOL    HW2 1443   2.873   0.432   1.389  1.1839  0.5698  0.9502
  482SOL     OW 1444   0.862   3.025   0.966  0.0239  0.1266 -0.2394
  482SOL    HW1 1445   0.912   3.025   0.878  0.3771 -1.0800  1.1120
  482SOL    HW2 1446   0.900   3.100   1.023  0.1795 -1.4637  1.9557
  483SOL     OW 1447   3.083   1.169   2.900 -0.3123  0.1685  0.0621
  483SOL    HW1 1448   2.984   1.155   2.891  0.9530 -1.7619  1.7599
  483SOL    HW2 1449   0.001   1.270   2.905 -1.4778  2.5895  0.1000
  484SOL     OW 1450   1.756   1.548   1.868  0.1799 -0.5653  0.3390
  484SOL    HW1 1451   1.707   1.531   1.779 -0.0876 -0.7909 -1.0497
  484SOL    HW2 1452   1.699   1.530   1.959 -1.7821 -0.6941  3.7285
  485SOL     OW 1453   0.260   0.112   2.455  0.1785  0.2269  0.0863
  485SOL    HW1 1454   0.318   0.154   2.533 -0.5849 -0.5954 -0.1056
  485SOL    HW2 1455   0.162   0.098   2.485 -1.7689 -0.3474  0.4389
  486SOL     OW 1456   1.481   3.089   0.544  0.0533  0.6199 -0.1906
  486SOL    HW1 1457   1.538   3.030   0.603  0.1807  0.2367 -0.5540
  486SOL    HW2 1458   1.495   3.053   0.452  0.4193 -1.0428  1.0456
  487SOL     OW 1459   1.500   0.237   0.662 -0.2762  0.0827 -0.0529
  487SOL    HW1 1460   1.592   0.258   0.703  0.8268  0.1735  1.3567
  487SOL    HW2 1461   1.493   0.143   0.630  0.8633  1.4413  0.0577
  488SOL     OW 1462   2.107   0.703   0.852  0.2223  0.2037 -0.5189
  488SOL    HW1 1463   2.142   0.768   0.782 -1.7041 -1.2320 -0.7191
  488SOL    HW2 1464   2.051   0.753   0.923  0.9430  0.6375  0.6868
  489SOL     OW 1465   1.019   0.033   1.345  0.0705  0.3623 -0.1976
  489SOL    HW1 1466   1.086   3.082   1.296  0.2883 -1.5334  1.4011
  489SOL    HW2 1467   0.982   0.113   1.290  0.1944  0.6131  0.6386
  490SOL     OW 1468   1.069   0.821   0.350  0.9238  0.4318 -0.2249
  490SOL    HW1 1469   1.032   0.842   0.255 -3.0261  1.6752 -1.0387
  490SOL    HW2 1470   1.066   0.905   0.410 -0.4576 -0.9595  2.0152
  491SOL     OW 1471   1.189   2.835   0.338  0.2860 -0.2286 -0.1389
  491SOL    HW1 1472   1.227   2.898   0.269 -1.8715  0.4056 -1.6524
  491SOL    HW2 1473   1.220   2.743   0.306  1.0694  1.8466  1.2176
  492SOL     OW 1474   1.042   1.411   1.554  0.0960 -0.3340 -0.3657
  492SOL    HW1 1475   1.052   1.491   1.619 -0.0651 -2.2762 -0.4395
  492SOL    HW2 1476   1.007   1.335   1.609  0.7384 -1.0193 -2.6702
  493SOL     OW 1477   0.274   1.732   0.279 -0.1592  0.1695 -0.8971
  493SOL    HW1 1478   0.244   1.781   0.366  1.5977  3.4058 -0.0308
  493SOL    HW2 1479   0.320   1.638   0.294 -0.5629 -2.6739 -4.3374
  494SOL     OW 1480   1.909   1.870   0.296 -0.4413  0.2453 -0.7150
  494SOL    HW1 1481   1.973   1.829   0.361 -1.4377 -1.7824 -0.9261
  494SOL    HW2 1482   1.826   1.904   0.347  3.2889  2.0750  2.1411
  495SOL     OW 1483   0.260   1.041   2.484  0.2298 -0.4541 -0.3344
  495SOL    HW1 1484   0.242   0.947   2.525 -1.2414  0.2394 -2.5127
  495SOL    HW2 1485   0.252   1.034   2.386  1.5271 -0.0696  0.6786
  496SOL     OW 1486   0.574   0.125   2.356  0.3669 -0.0459 -0.4905
  496SOL    HW1 1487   0.481   0.168   2.343  1.3494 -0.9832 -1.0405
  496SOL    HW2 1488   0.557   0.029   2.383 -2.0234  0.5809 -1.0137
  497SOL     OW 1489   1.648   1.164   0.493 -0.3836  0.0308 -0.1832
  497SOL    HW1 1490   1.668   1.231   0.413  2.4802  0.9374 -0.1508
  497SOL    HW2 1491   1.716   1.173   0.567 -1.4146 -0.5460 -2.3364
  498SOL     OW 1492   2.942   2.811   0.453  0.0419 -1.0539  0.0366
  498SOL    HW1 1493   2.976   2.803   0.356  2.5990  1.6789  0.0801
  498SOL    HW2 1494   2.849   2.856   0.458  1.6081 -0.7618  0.4522
  499SOL     OW 1495   1.888   2.585   0.525 -0.4554 -0.4223 -0.0521
  499SOL    HW1 1496   1.896   2.690   0.511  1.0610  0.8597 -0.0982
  499SOL    HW2 1497   1.979   2.540   0.510  2.4788  1.4062 -1.7633
  500SOL     OW 1498   0.580   0.482   2.717 -0.1455 -0.4251  0.0261
  500SOL    HW1 1499   0.597   0.582   2.708 -0.0113 -1.8076  0.2627
  500SOL    HW2 1500   0.613   0.437   2.803 -0.1537 -0.3399  0.9943
  501SOL     OW 1501   1.640   2.956   1.588  0.2301 -0.3377 -0.1890
  501SOL    HW1 1502   1.655   2.884   1.663 -0.4326  2.5515  3.4760
  501SOL    HW2 1503   1.635   2.910   1.494 -0.4407  0.4161  0.1269
  502SOL     OW 1504   0.194   0.164   2.085  0.2436  0.2464 -0.5647
  502SOL    HW1 1505   0.214   0.087   2.148 -0.8951  1.4770 -1.7274
  502SOL    HW2 1506   0.160   0.123   1.995 -0.3029  0.0415  1.5991
  503SOL     OW 1507   1.742   2.301   2.113 -0.5040 -0.3296 -0.1559
  503SOL    HW1 1508   1.710   2.385   2.061 -1.1425  0.3015 -0.0957
  503SOL    HW2 1509   1.832   2.263   2.090  0.0163  0.0093 -1.7427
  504SOL     OW 1510   1.930   0.253   1.741 -0.3163  0.1029  0.2187
  504SOL    HW1 1511   1.978   0.247   1.649  0.4870  0.3904 -0.5418
  504SOL    HW2 1512   1.845   0.198   1.748  3.2527  2.3916  1.8321
  505SOL     OW 1513   2.765   1.714   1.502 -0.6524  0.1724  0.1064
  505SOL    HW1 1514   2.858   1.691   1.475 -0.7627  1.3135 -0.0942
  505SOL    HW2 1515   2.704   1.640   1.474 -0.8479  0.5554 -1.8825
  506SOL     OW 1516   0.261   1.445   2.283  0.6116 -0.4151  0.4582
  506SOL    HW1 1517   0.265   1.531   2.338  2.1190 -0.8973 -0.2366
  506SOL    HW2 1518   0.259   1.364   2.347 -0.0198 -0.9192  0.8746
  507SOL     OW 1519   0.246   2.947   1.331 -0.7443  0.2623 -0.1939
  507SOL    HW1 1520   0.346   2.945   1.297  0.9302 -0.3103 -0.0869
  507SOL    HW2 1521   0.224   3.024   1.396 -1.1756  0.0871 -2.0435
  508SOL     OW 1522   0.953   0.625   1.589  0.4220 -0.3029 -0.0148
  508SOL    HW1 1523   0.937   0.645   1.488 -1.0846  1.2396 -2.1495
  508SOL    HW2 1524   0.997   0.536   1.603  0.0809 -1.7749  1.9382
  509SOL     OW 1525   1.740   2.373   1.763 -0.3281  0.6810  0.2955
  509SOL    HW1 1526   1.743   2.445   1.693 -2.7498  1.7373 -0.6876
  509SOL    HW2 1527   1.689   2.405   1.847  1.2311  2.0360  1.0422
  510SOL     OW 1528   2.346   1.273   2.863 -0.5658  0.3378 -0.1762
  510SOL    HW1 1529   2.448   1.284   2.869 -0.1993  1.4512 -2.2053
  510SOL    HW2 1530   2.303   1.361   2.828  0.3301 -1.0626  0.8177
  511SOL     OW 1531   0.433   1.323   1.510  0.5761  0.1333 -0.4924
  511SOL    HW1 1532   0.403   1.421   1.517  0.4355  0.6247 -2.1197
  511SOL    HW2 1533   0.531   1.321   1.536  0.0686  0.9073 -2.7669
  512SOL     OW 1534   2.732   1.907   0.325 -0.4954  0.1304 -0.0905
  512SOL    HW1 1535   2.722   1.987   0.261 -0.9137 -0.5229 -2.8678
  512SOL    HW2 1536   2.818   1.862   0.295  2.7007  2.1164 -1.7181
  513SOL     OW 1537   0.801   1.765   2.388 -0.3797 -0.5063  0.1098
  513SOL    HW1 1538   0.889   1.724   2.347 -2.6008  0.2178  1.3936
  513SOL    HW2 1539   0.724   1.698   2.396 -0.7891  1.5044  0.3567
  514SOL     OW 1540   0.237   2.198   1.953 -0.0206 -0.3949 -0.0425
  514SOL    HW1 1541   0.211   2.148   2.040 -0.4862  0.0648  0.3550
  514SOL    HW2 1542   0.162   2.261   1.925 -1.0304  2.2399 -1.1867
  515SOL     OW 1543   1.994   1.289   1.760  0.5722 -0.2183  0.4007
  515SOL    HW1 1544   2.025   1.255   1.851 -1.4253  2.1077  2.2897
  515SOL    HW2 1545   1.897   1.264   1.743 -0.1275 -0.2368  0.4575
  516SOL     OW 1546   2.269   2.799   0.365  0.1431  0.3415  0.1222
  516SOL    HW1 1547   2.290   2.875   0.306  0.9693 -2.0718  4.7039
  516SOL    HW2 1548   2.342   2.733   0.353 -1.4483  3.6116  0.3537
  517SOL     OW 1549   0.859   1.600   0.332 -0.2423  0.6284 -0.2247
  517SOL    HW1 1550   0.920   1.608   0.253 -1.4844  0.1582  0.4533
  517SOL    HW2 1551   0.891   1.534   0.404  2.3750 -0.9602 -0.8375
  518SOL     OW 1552   1.933   2.693   1.442  0.4034 -0.0075  0.1907
  518SOL    HW1 1553   1.930   2.759   1.363  1.5460  1.1129 -0.7743
  518SOL    HW2 1554   2.020   2.640   1.441  0.5587 -1.9880  1.7243
  519SOL     OW 1555   2.065   2.523   1.155  0.0517  0.2086  0.3809
  519SOL    HW1 1556   2.049   2.619   1.132 -1.0063 -2.0735  0.1254
  519SOL    HW2 1557   2.078   2.463   1.076  0.1592 -2.6927  1.9673
  520SOL     OW 1558   3.003   2.134   2.273 -0.0653  0.2714  0.2956
  520SOL    HW1 1559   2.939   2.058   2.297 -0.1557 -0.6361  1.2064
  520SOL    HW2 1560   2.999   2.178   2.179  1.2049  1.5202 -2.7775
  521SOL     OW 1561   2.721   0.880   2.673 -0.6380 -0.3350  0.2010
  521SOL    HW1 1562   2.670   0.876   2.757 -1.0272  0.5240 -4.6100
  521SOL    HW2 1563   2.663   0.855   2.594  0.3635 -2.7343 -0.1516
  522SOL     OW 1564   0.862   0.859   2.455  0.5854 -0.3143 -0.2575
  522SOL    HW1 1565   0.929   0.819   2.519  0.1577 -0.1726  0.0706
  522SOL    HW2 1566   0.878   0.819   2.364  1.0087 -1.3777  1.2547
  523SOL     OW 1567   0.098   2.183   0.916  0.1973 -0.1803  0.1592
  523SOL    HW1 1568   0.123   2.093   0.960  1.1772  3.2082  0.8074
  523SOL    HW2 1569   0.072   2.256   0.994 -0.6857  0.8321  1.1841
  524SOL     OW 1570   1.931   2.728   3.028  0.6288  0.7717  0.4762
  524SOL    HW1 1571   2.005   2.688   3.088  0.3418 -0.8706  0.0111
  524SOL    HW2 1572   1.966   2.807   2.970 -1.1809  1.6724  1.0382
  525SOL     OW 1573   2.401   0.571   1.435  0.1143 -0.0026  0.6041
  525SOL    HW1 1574   2.481   0.605   1.379 -0.3900  2.6221 -0.7486
  525SOL    HW2 1575   2.354   0.495   1.386  1.2561 -1.1506 -0.4762
  526SOL     OW 1576   1.037   2.591   0.586 -1.1994 -0.3724  0.1860
  526SOL    HW1 1577   0.975   2.537   0.642 -1.5301 -0.4536 -1.2454
  526SOL    HW2 1578   0.993   2.663   0.525 -0.9182 -0.1093 -2.2613
  527SOL     OW 1579   2.124   2.906   0.574 -0.4090 -0.1372 -0.2297
  527SOL    HW1 1580   2.138   2.847   0.658 -2.0527  0.6512  1.1832
  527SOL    HW2 1581   2.194   2.874   0.502  0.1264 -0.2532 -0.4424
  528SOL     OW 1582   1.553   0.915   0.196 -0.1335 -0.1895 -0.2142
  528SOL    HW1 1583   1.654   0.928   0.212 -1.0267 -1.8808  1.0207
  528SOL    HW2 1584   1.536   0.820   0.175 -0.1674 -0.4568  0.3131
  529SOL     OW 1585   1.333   1.510   2.319  0.2499 -0.2208  0.5673
  529SOL    HW1 1586   1.378   1.599   2.328  0.8152 -2.2358  0.9233
  529SOL    HW2 1587   1.257   1.508   2.389 -0.9574  2.4825 -0.0300
  530SOL     OW 1588   2.337   2.979   0.142 -0.3516 -0.4137 -0.2981
  530SOL    HW1 1589   2.251   3.032   0.147 -1.8098 -2.0771  0.0816
  530SOL    HW2 1590   2.354   2.954   0.046 -1.9590 -0.4329  2.4207
  531SOL     OW 1591   1.752   1.085   2.987 -0.0581 -0.3469  0.3496
  531SOL    HW1 1592   1.750   1.145   2.901  0.4810  1.7727 -0.7180
  531SOL    HW2 1593   1.793   0.989   2.971 -1.1730 -2.4953 -0.9665
  532SOL     OW 1594   1.522   0.542   0.730 -0.2501  0.0210 -0.2082
  532SOL    HW1 1595   1.540   0.461   0.665 -0.6543 -1.1402 -0.8807
  532SOL    HW2 1596   1.608   0.586   0.755  0.3814 -0.9199  1.1363
  533SOL     OW 1597   0.519   0.780   2.712  0.5091  0.0787  0.1887
  533SOL    HW1 1598   0.558   0.827   2.630  2.5211  1.6508 -1.0052
  533SOL    HW2 1599   0.416   0.800   2.716 -2.9135  1.2888 -0.2240
  534SOL     OW 1600   1.481   0.211   0.004  0.2253 -0.3712  0.1110
  534SOL    HW1 1601   1.498   0.210   0.106 -1.6180  0.7521  1.7768
  534SOL    HW2 1602   1.505   0.127   3.062 -0.8822  2.3039 -2.2039
  535SOL     OW 1603   0.439   2.764   2.875  0.1161 -0.1158 -1.0559
  535SOL    HW1 1604   0.413   2.788   2.970 -2.4351 -0.3248 -2.3900
  535SOL    HW2 1605   0.363   2.720   2.828  1.6301  0.9479 -0.1868
  536SOL     OW 1606   0.540   2.996   0.480  0.1893  0.3889  1.0116
  536SOL    HW1 1607   0.523   3.080   0.532 -3.4410  0.6304 -2.3396
  536SOL    HW2 1608   0.614   2.936   0.517  1.0987 -0.9861 -2.7889
  537SOL     OW 1609   1.711   0.473   0.231 -1.1570 -0.0972 -0.1190
  537SOL    HW1 1610   1.619   0.499   0.206  0.1739 -2.0239 -1.8326
  537SOL    HW2 1611   1.724   0.461   0.331 -1.1046  0.5900 -2.5118
  538SOL     OW 1612   2.786   2.102   2.988 -0.6382  0.0278 -0.6801
  538SOL    HW1 1613   2.864   2.052   3.030  1.5363 -1.2563 -1.2805
  538SOL    HW2 1614   2.719   2.038   2.951  2.2947 -0.3947 -2.1686
  539SOL     OW 1615   2.421   1.814   3.044  0.2562 -0.1599  0.4913
  539SOL    HW1 1616   2.332   1.766   3.031  1.2996 -0.0081  0.0073
  539SOL    HW2 1617   2.420   1.864   0.025 -1.3225 -1.4140 -0.2298
  540SOL     OW 1618   1.050   2.866   1.924 -0.5743  0.2287 -1.1581
  540SOL    HW1 1619   1.148   2.853   1.889 -1.2197 -0.4859 -1.7512
  540SOL    HW2 1620   0.991   2.783   1.912 -1.5079  2.5229 -0.6210
  541SOL     OW 1621   2.618   0.119   2.242 -0.0973 -0.2905 -0.1996
  541SOL    HW1 1622   2.599   0.196   2.181 -1.0417  1.8393 -2.2042
  541SOL    HW2 1623   2.541   0.111   2.309 -2.7509  2.2079 -1.2297
  542SOL     OW 1624   0.245   0.872   2.721 -0.6449  0.1672  0.6689
  542SOL    HW1 1625   0.244   0.948   2.793 -1.8659 -1.0251  1.7555
  542SOL    HW2 1626   0.194   0.791   2.748  0.9986  0.8543  3.2234
  543SOL     OW 1627   0.289   0.921   0.795  0.4311  0.3349  0.0632
  543SOL    HW1 1628   0.220   0.897   0.871  1.6418 -0.7379  0.8440
  543SOL    HW2 1629   0.326   0.833   0.756  0.2610 -0.9188 -0.6653
  544SOL     OW 1630   2.624   0.691   1.314 -0.2467  0.0078 -0.1916
  544SOL    HW1 1631   2.708   0.637   1.291 -0.7163  0.2870 -0.0430
  544SOL    HW2 1632   2.652   0.778   1.360  2.3493 -1.4443  1.5547
  545SOL     OW 1633   1.406   2.021   0.463  1.1602 -0.2479 -0.2721
  545SOL    HW1 1634   1.343   2.090   0.421  3.6922 -1.1750 -1.0469
  545SOL    HW2 1635   1.403   2.020   0.567 -0.6854  0.1234  1.0073
  546SOL     OW 1636   2.269   2.812   1.400 -0.6615  0.4467 -0.3067
  546SOL    HW1 1637   2.210   2.735   1.368  1.0522 -0.7051 -1.4203
  546SOL    HW2 1638   2.342   2.842   1.335  3.9984  0.5275  0.0250
  547SOL     OW 1639   0.671   2.294   2.273 -0.1046 -0.0941 -0.4521
  547SOL    HW1 1640   0.670   2.193   2.273  0.4015 -0.3636  1.5941
  547SOL    HW2 1641   0.590   2.315   2.211  2.1382  0.3801  1.9893
  548SOL     OW 1642   1.325   0.666   2.979  0.4448  0.3803  0.0895
  548SOL    HW1 1643   1.292   0.570   2.992  3.1782 -2.6182 -0.9188
  548SOL    HW2 1644   1.247   0.721   2.941  0.5682  2.1391 -0.9740
  549SOL     OW 1645   2.692   0.717   0.335  0.2866  0.9328 -0.2190
  549SOL    HW1 1646   2.609   0.661   0.317 -0.1075  3.0604 -1.9067
  549SOL    HW2 1647   2.658   0.799   0.383 -0.1335  1.7002 -0.5190
  550SOL     OW 1648   2.179   1.468   0.632 -0.1915  0.1168 -0.0343
  550SOL    HW1 1649   2.209   1.493   0.537  1.3558  1.6191 -3.1222
  550SOL    HW2 1650   2.086   1.430   0.623  0.5758  1.3586  1.5935
  551SOL     OW 1651   1.178   0.281   0.925 -0.0928  0.0449  0.1696
  551SOL    HW1 1652   1.271   0.320   0.943  0.0973 -1.2676 -2.5043
  551SOL    HW2 1653   1.155   0.308   0.828 -0.1650 -2.5355  1.0340
  552SOL     OW 1654   2.374   2.919   2.276  0.2242 -0.8465  0.2743
  552SOL    HW1 1655   2.298   2.855   2.305 -1.7013 -1.3662 -1.9899
  552SOL    HW2 1656   2.361   3.015   2.313 -2.2271  0.8763  2.5226
  553SOL     OW 1657   0.561   2.965   2.386  0.3672  0.4502 -0.5749
  553SOL    HW1 1658   0.626   2.896   2.337  0.7525  1.5184 -1.0673
  553SOL    HW2 1659   0.475   2.922   2.425 -1.3899 -1.4469  1.4371
  554SOL     OW 1660   0.506   3.037   1.323  0.1246 -0.6607 -0.0801
  554SOL    HW1 1661   0.530   0.028   1.348  0.2785  3.9281  0.2744
  554SOL    HW2 1662   0.561   2.973   1.376 -1.6488  0.2583  0.0177
  555SOL     OW 1663   2.628   2.021   2.253 -0.4517 -0.1374  0.5434
  555SOL    HW1 1664   2.608   2.026   2.150 -0.5098  0.3542 -3.1970
  555SOL    HW2 1665   2.590   2.102   2.300  0.1890 -1.6757 -1.4043
  556SOL     OW 1666   1.129   0.489   2.861  0.4565 -0.1048  0.0761
  556SOL    HW1 1667   1.116   0.592   2.865 -2.7957 -0.2165 -1.1584
  556SOL    HW2 1668   1.038   0.445   2.869  2.7964  0.9090  2.3600
  557SOL     OW 1669   0.396   2.039   2.494 -0.2822  0.2188  0.3106
  557SOL    HW1 1670   0.493   2.048   2.528  1.3210  0.5312 -1.8897
  557SOL    HW2 1671   0.389   2.025   2.392 -1.0936 -2.6780  0.1081
  558SOL     OW 1672   2.110   0.766   3.032 -0.1466  0.1583 -0.0384
  558SOL    HW1 1673   2.198   0.791   2.977  3.6782 -2.1736 -0.0484
  558SOL    HW2 1674   2.089   0.667   3.031  0.7256 -3.0875  0.1442
  559SOL     OW 1675   2.316   1.884   1.724  0.1599  0.2923  0.4999
  559SOL    HW1 1676   2.296   1.811   1.654  3.6544  0.4742 -0.9663
  559SOL    HW2 1677   2.252   1.875   1.805 -0.6476 -2.5639  2.9271
  560SOL     OW 1678   2.130   0.807   2.040 -0.2861 -0.2038 -0.6923
  560SOL    HW1 1679   2.175   0.721   2.002 -0.3010  2.4752  1.2733
  560SOL    HW2 1680   2.198   0.881   2.020  2.0825 -3.2690  1.6686
  561SOL     OW 1681   0.046   0.158   2.665 -0.2018  0.9100 -0.0308
  561SOL    HW1 1682   0.013   0.141   2.569  1.6844 -1.0406 -2.0441
  561SOL    HW2 1683   0.086   0.250   2.683 -1.1230 -1.1477  2.4624
  562SOL     OW 1684   1.066   1.148   1.381 -0.5606  0.1473 -0.2703
  562SOL    HW1 1685   1.060   1.241   1.421  1.6578 -1.5032 -1.6832
  562SOL    HW2 1686   1.036   1.070   1.443  0.2433 -3.0064  1.3984
  563SOL     OW 1687   1.159   0.128   2.978  0.4118  0.5707 -0.2914
  563SOL    HW1 1688   1.157   0.026   2.946 -1.8632 -1.4405 -0.8790
  563SOL    HW2 1689   1.228   0.181   2.932 -1.3803  1.3080  0.6213
  564SOL     OW 1690   2.964   2.225   0.777 -0.1758 -0.2939 -0.2800
  564SOL    HW1 1691   3.052   2.197   0.821  0.1309 -0.1432 -0.6489
  564SOL    HW2 1692   2.918   2.297   0.833 -1.2681 -0.9901  2.9049
  565SOL     OW 1693   0.363   1.994   1.271  0.5772  0.2403  0.5850
  565SOL    HW1 1694   0.379   1.983   1.369  1.5476 -0.7293 -1.0006
  565SOL    HW2 1695   0.328   2.088   1.259  0.7813 -3.5937 -0.2115
  566SOL     OW 1696   1.493   2.568   2.277  0.4206  0.1355 -0.6166
  566SOL    HW1 1697   1.489   2.660   2.236  0.3628 -2.1249 -0.4769
  566SOL    HW2 1698   1.420   2.560   2.352  1.5238 -1.8199 -0.3487
  567SOL     OW 1699   2.385   2.938   0.744 -0.4057 -0.1253  0.3307
  567SOL    HW1 1700   2.367   2.979   0.835  0.5023  0.9997 -1.5924
  567SOL    HW2 1701   2.428   3.005   0.678  2.4054  2.4022 -1.4481
  568SOL     OW 1702   1.605   1.250   0.780  0.0365  0.9288  0.4347
  568SOL    HW1 1703   1.510   1.227   0.743 -3.5423 -1.3570  0.0591
  568SOL    HW2 1704   1.645   1.338   0.742 -3.3828  0.2367  1.5801
  569SOL     OW 1705   2.908   1.394   2.643 -0.7694 -0.1387 -0.5829
  569SOL    HW1 1706   2.854   1.455   2.704 -0.2862 -2.2255 -1.3949
  569SOL    HW2 1707   2.877   1.297   2.663  1.6390 -2.6452  1.8473
  570SOL     OW 1708   3.092   0.073   1.667 -0.1539 -0.8092 -0.0238
  570SOL    HW1 1709   0.038   0.124   1.598 -1.5373  0.2826 -0.3761
  570SOL    HW2 1710   3.037   0.002   1.615  1.1255  0.8419  1.7176
  571SOL     OW 1711   0.444   0.044   1.837 -0.0992 -0.3125 -0.7230
  571SOL    HW1 1712   0.511   0.119   1.827 -1.0187 -1.0240 -0.4899
  571SOL    HW2 1713   0.470   3.083   1.770 -1.5857  0.9339  0.9809
  572SOL     OW 1714   2.862   2.536   1.345  0.2709 -0.1124  0.3850
  572SOL    HW1 1715   2.954   2.539   1.302 -0.6093 -0.9796 -0.5174
  572SOL    HW2 1716   2.871   2.567   1.444 -0.1476 -0.6368 -0.0418
  573SOL     OW 1717   1.067   0.679   0.051  0.0020 -1.3108 -0.2651
  573SOL    HW1 1718   0.983   0.651   3.106 -3.8403  0.5500  1.0571
  573SOL    HW2 1719   1.112   0.599   0.093 -0.9303 -0.1627  0.6423
  574SOL     OW 1720   2.088   2.902   2.866  0.1757 -0.5710 -0.2126
  574SOL    HW1 1721   2.109   3.001   2.846  1.2305  0.3305  0.9112
  574SOL    HW2 1722   2.121   2.846   2.784 -1.5171  1.3241 -3.6537
  575SOL     OW 1723   1.313   2.616   1.374 -0.4430 -0.1866 -0.1676
  575SOL    HW1 1724   1.334   2.588   1.471 -1.5202  0.9872  0.9708
  575SOL    HW2 1725   1.372   2.567   1.308 -0.8616  1.7814  0.7508
  576SOL     OW 1726   0.968   0.148   1.079  0.3836  0.0247 -0.3650
  576SOL    HW1 1727   1.031   0.198   1.021 -2.7221 -0.0216  3.9323
  576SOL    HW2 1728   0.875   0.181   1.076  3.9391 -1.3976 -0.2245
  577SOL     OW 1729   2.377   1.248   0.933  0.6366  0.5781  0.1646
  577SOL    HW1 1730   2.397   1.309   0.852 -0.3588 -1.2287 -2.4276
  577SOL    HW2 1731   2.330   1.169   0.898  0.8599 -0.0675 -0.8439
  578SOL     OW 1732   1.762   0.433   0.494  0.2958 -0.3650 -0.0124
  578SOL    HW1 1733   1.792   0.357   0.556 -2.4611  1.1711  0.3655
  578SOL    HW2 1734   1.831   0.504   0.497 -2.4657 -1.3699 -1.2686
  579SOL     OW 1735   1.871   0.818   2.932 -0.0435  0.2836 -0.4127
  579SOL    HW1 1736   1.973   0.813   2.933 -3.5486 -0.2076  1.8575
  579SOL    HW2 1737   1.832   0.750   2.999  0.8261  0.3246 -1.9718
  580SOL     OW 1738   1.747   0.733   2.282 -0.2593  0.2152 -0.3927
  580SOL    HW1 1739   1.678   0.722   2.361  0.6753 -0.5293  2.6067
  580SOL    HW2 1740   1.694   0.740   2.195  1.6524 -1.6512  0.2527
  581SOL     OW 1741   0.298   0.656   0.685  0.2762 -0.1574  0.0794
  581SOL    HW1 1742   0.370   0.592   0.658  1.4254  1.3528 -1.2868
  581SOL    HW2 1743   0.263   0.709   0.607  1.5869 -0.4549 -0.0086
  582SOL     OW 1744   2.885   0.066   1.857  0.6888  0.3163  1.0127
  582SOL    HW1 1745   2.956   0.068   1.781  2.0264 -3.5377 -2.6626
  582SOL    HW2 1746   2.824   0.145   1.854  0.1446 -0.4845  3.2746
  583SOL     OW 1747   0.394   0.742   2.398  0.2047 -0.1034 -0.6389
  583SOL    HW1 1748   0.470   0.804   2.435  2.2580 -0.6077 -0.6804
  583SOL    HW2 1749   0.410   0.640   2.416  3.6906  1.8461 -0.7896
  584SOL     OW 1750   1.924   2.130   3.012 -0.4671  0.7963 -0.5784
  584SOL    HW1 1751   1.954   2.156   2.919 -0.5203  0.7456  0.9348
  584SOL    HW2 1752   1.864   2.200   3.048 -0.2828 -1.2519 -0.4330
  585SOL     OW 1753   0.566   2.161   3.057 -0.1213 -0.1487  0.0609
  585SOL    HW1 1754   0.487   2.128   3.004 -0.3410  1.2027 -0.3721
  585SOL    HW2 1755   0.539   2.201   0.037  0.7157 -0.5563 -2.3973
  586SOL     OW 1756   2.195   2.015   2.721  0.0008 -0.8007 -0.4075
  586SOL    HW1 1757   2.234   2.015   2.812  0.7230 -1.8989 -3.2840
  586SOL    HW2 1758   2.116   1.950   2.720 -2.3731  1.4795  0.9534
  587SOL     OW 1759   2.604   1.928   2.882 -0.4575  0.5551 -0.1857
  587SOL    HW1 1760   2.541   1.878   2.945 -0.8343  0.2406  2.4099
  587SOL    HW2 1761   2.568   1.924   2.785 -2.3068  0.7813 -0.1761
  588SOL     OW 1762   2.964   0.631   0.964 -0.3149 -0.6511  0.2219
  588SOL    HW1 1763   2.912   0.546   0.934 -2.3160 -3.6729 -2.0201
  588SOL    HW2 1764   3.041   0.641   0.903 -1.3055 -0.5217  1.3784
  589SOL     OW 1765   1.027   0.321   0.259  0.5255  0.0922  0.1613
  589SOL    HW1 1766   1.094   0.397   0.225 -1.2277  2.9735 -3.3719
  589SOL    HW2 1767   0.938   0.361   0.288  0.8804  0.6535  2.9612
  590SOL     OW 1768   2.149   2.481   0.468  0.0873  0.0036 -0.0704
  590SOL    HW1 1769   2.194   2.509   0.385 -4.1593 -2.4921  1.4384
  590SOL    HW2 1770   2.074   2.410   0.446 -2.6759  1.5993 -1.3225
  591SOL     OW 1771   0.247   2.254   1.249 -0.3776  0.7557 -0.2789
  591SOL    HW1 1772   0.159   2.286   1.205  1.0786  1.9357 -0.9956
  591SOL    HW2 1773   0.325   2.321   1.236  1.2406  0.4510  0.3496
  592SOL     OW 1774   1.426   0.660   1.085 -0.1853 -0.3738  0.1358
  592SOL    HW1 1775   1.340   0.636   1.043  3.2366  2.5369  2.4477
  592SOL    HW2 1776   1.412   0.727   1.159 -1.5362  1.7404 -2.6468
  593SOL     OW 1777   0.834   2.162   1.564 -0.6210  0.4582 -0.0410
  593SOL    HW1 1778   0.821   2.102   1.482 -1.1932 -1.7680 -0.4976
  593SOL    HW2 1779   0.741   2.199   1.593 -1.1606  1.4944  1.3135
  594SOL     OW 1780   1.043   2.037   0.217 -0.4604 -0.4804  0.4383
  594SOL    HW1 1781   1.056   2.045   0.114 -1.4896  1.3406 -3.3453
  594SOL    HW2 1782   0.951   2.004   0.247  2.9467 -0.2290 -2.0260
  595SOL     OW 1783   1.677   0.606   1.576  0.0948  0.6438  0.3782
  595SOL    HW1 1784   1.690   0.524   1.516  2.0558  0.6302  0.6521
  595SOL    HW2 1785   1.718   0.596   1.664 -0.7493  1.3187 -1.7655
  596SOL     OW 1786   2.903   0.673   1.745 -0.1509 -0.3831  0.3695
  596SOL    HW1 1787   2.965   0.659   1.820  0.6973  2.9561 -0.7844
  596SOL    HW2 1788   2.942   0.754   1.692  0.8656  0.2473  0.7030
  597SOL     OW 1789   1.187   2.467   2.095 -0.1155  0.1320  1.0129
  597SOL    HW1 1790   1.092   2.443   2.103  0.4216  0.7393  0.2310
  597SOL    HW2 1791   1.211   2.555   2.141  1.2487  2.8013  1.2610
  598SOL     OW 1792   2.388   1.441   1.715 -0.0630 -0.0371  0.0133
  598SOL    HW1 1793   2.408   1.525   1.657  0.4922  3.5477 -0.3648
  598SOL    HW2 1794   2.470   1.410   1.772 -0.7391 -2.6902  0.7806
  599SOL     OW 1795   0.805   2.919   0.173  0.2701  0.0114  0.2826
  599SOL    HW1 1796   0.740   2.997   0.165  0.5229  2.0939 -0.1786
  599SOL    HW2 1797   0.900   2.938   0.131  2.4161 -1.1135 -0.3280
  600SOL     OW 1798   0.155   2.610   0.042  0.0085 -0.3481  0.0797
  600SOL    HW1 1799   0.163   2.686   0.104 -0.0454 -1.8738  0.6135
  600SOL    HW2 1800   0.097   2.536   0.085  1.4114 -1.0258 -0.9133
  601SOL     OW 1801   0.548   0.703   1.555 -0.4790 -0.2547 -0.0209
  601SOL    HW1 1802   0.460   0.754   1.555  0.3957 -0.1292 -2.5931
  601SOL    HW2 1803   0.604   0.728   1.634  0.4408 -0.1498 -3.3403
  602SOL     OW 1804   0.444   0.193   0.885 -0.4638  0.7089 -0.0221
  602SOL    HW1 1805   0.496   0.120   0.933  1.6897  1.2508 -1.8061
  602SOL    HW2 1806   0.510   0.254   0.840  2.1611  0.0943  1.2075
  603SOL     OW 1807   0.405   0.313   2.641  0.1470 -0.0629 -0.1263
  603SOL    HW1 1808   0.380   0.276   2.732 -1.0886  1.8863  1.8957
  603SOL    HW2 1809   0.479   0.385   2.661  0.6932  0.1741  1.7398
  604SOL     OW 1810   1.157   2.542   1.721 -0.4961  0.2380  0.2217
  604SOL    HW1 1811   1.237   2.480   1.726  1.4840 -1.9925 -0.5269
  604SOL    HW2 1812   1.085   2.492   1.672 -0.7251 -0.4440  0.6989
  605SOL     OW 1813   1.501   1.341   1.938  0.3129  0.0688 -0.2496
  605SOL    HW1 1814   1.428   1.416   1.928  0.0339  2.2744  0.0892
  605SOL    HW2 1815   1.476   1.256   1.884 -0.3651 -3.5938  1.7451
  606SOL     OW 1816   1.988   0.036   2.604 -0.3569  0.0916 -0.1083
  606SOL    HW1 1817   2.007   0.132   2.578  0.4064  2.7142 -0.6894
  606SOL    HW2 1818   2.014   0.029   2.703 -1.3967 -2.5587 -0.7194
  607SOL     OW 1819   1.065   0.371   1.615 -0.3775  0.0809  0.4027
  607SOL    HW1 1820   1.149   0.394   1.671 -1.1025  2.6521  0.7300
  607SOL    HW2 1821   1.072   0.269   1.588 -2.0431  1.3070  0.4193
  608SOL     OW 1822   0.297   2.255   2.644  0.3775  0.4003 -0.7950
  608SOL    HW1 1823   0.315   2.179   2.583  0.0829  1.9886  0.6598
  608SOL    HW2 1824   0.380   2.276   2.701  0.6642  1.1311 -1.2468
  609SOL     OW 1825   1.150   1.423   0.330 -1.0688  0.0355 -0.3870
  609SOL    HW1 1826   1.140   1.337   0.277 -0.5582  1.0429  3.1161
  609SOL    HW2 1827   1.132   1.492   0.259  1.1646 -1.4918  1.6869
  610SOL     OW 1828   0.259   0.415   1.004  0.2948 -0.1693 -0.0813
  610SOL    HW1 1829   0.333   0.346   0.997  1.2099  4.0068  1.5173
  610SOL    HW2 1830   0.291   0.500   1.047  0.3959 -1.9491 -0.0688
  611SOL     OW 1831   1.228   1.225   0.478 -0.2264  0.0471 -0.5756
  611SOL    HW1 1832   1.219   1.309   0.419  0.3849  0.8617  0.7172
  611SOL    HW2 1833   1.292   1.159   0.439  1.3807  2.2721  2.1818
  612SOL     OW 1834   1.948   1.694   0.045  0.7212  0.4061 -0.1026
  612SOL    HW1 1835   1.940   1.765   0.115  0.5786 -2.7202 -0.8901
  612SOL    HW2 1836   1.889   1.614   0.074  1.2062  2.4913 -3.1368
  613SOL     OW 1837   1.670   1.322   0.245 -0.3074 -0.4398 -0.3742
  613SOL    HW1 1838   1.748   1.344   0.187 -1.3054  1.9507 -1.8935
  613SOL    HW2 1839   1.590   1.274   0.201  2.4537  0.2540 -2.6594
  614SOL     OW 1840   2.754   0.308   2.564  0.0527  0.1410 -0.4776
  614SOL    HW1 1841   2.763   0.361   2.477  0.6606  1.4696  0.7737
  614SOL    HW2 1842   2.782   0.211   2.546  0.3320 -1.7790 -1.5515
  615SOL     OW 1843   0.806   1.703   0.621 -0.0129  0.2069  0.3691
  615SOL    HW1 1844   0.883   1.766   0.623 -2.8671 -0.3181 -2.2037
  615SOL    HW2 1845   0.742   1.729   0.543 -0.4555 -0.7892  2.4482
  616SOL     OW 1846   1.528   0.926   2.658 -0.0570 -0.0944  0.5145
  616SOL    HW1 1847   1.568   1.022   2.642  1.3735  1.4298 -2.2121
  616SOL    HW2 1848   1.532   0.891   2.753  0.5913 -0.1835  1.3967
  617SOL     OW 1849   1.455   0.287   0.306 -0.1799  0.1066  0.3364
  617SOL    HW1 1850   1.452   0.381   0.336  2.0741 -1.0840 -1.3583
  617SOL    HW2 1851   1.408   0.226   0.372 -0.7424 -0.0518 -0.2929
  618SOL     OW 1852   2.854   1.925   2.361 -0.0618 -0.5397  0.1893
  618SOL    HW1 1853   2.763   1.957   2.327  0.8677  0.1508  0.9791
  618SOL    HW2 1854   2.861   1.928   2.464 -0.5502 -2.1623 -0.9840
  619SOL     OW 1855   2.244   1.778   0.756 -0.4271 -0.3223  0.0391
  619SOL    HW1 1856   2.147   1.799   0.778 -0.4499  0.5337  0.4679
  619SOL    HW2 1857   2.261   1.830   0.672  0.6193  1.9608  3.0834
  620SOL     OW 1858   2.334   3.054   1.575 -0.3017  0.1744 -0.1979
  620SOL    HW1 1859   2.291   2.967   1.548  0.4263  1.0119  0.5186
  620SOL    HW2 1860   2.424   3.070   1.531  0.1600 -1.4665  1.5456
  621SOL     OW 1861   2.855   1.965   0.771  0.2121 -0.0544 -0.0568
  621SOL    HW1 1862   2.923   1.887   0.769 -1.1807 -3.4105 -1.8852
  621SOL    HW2 1863   2.898   2.060   0.762  2.4343  1.4699  0.3964
  622SOL     OW 1864   0.546   1.643   2.384  0.5431  0.2854  0.0197
  622SOL    HW1 1865   0.448   1.675   2.399 -0.5856  1.3029 -1.7540
  622SOL    HW2 1866   0.562   1.540   2.387  1.9265 -2.6059  0.2018
  623SOL     OW 1867   2.783   2.856   2.877  0.0499 -0.0280  0.3989
  623SOL    HW1 1868   2.870   2.824   2.838  2.9840 -0.4549 -0.2389
  623SOL    HW2 1869   2.786   2.831   2.976  0.5320  0.6578  0.9184
  624SOL     OW 1870   0.664   1.779   0.399 -0.4849 -0.1565  0.2856
  624SOL    HW1 1871   0.735   1.710   0.365  0.0271 -2.2628 -2.8015
  624SOL    HW2 1872   0.601   1.803   0.322 -0.4476  1.5750 -1.4628
  625SOL     OW 1873   0.698   2.007   2.290  0.1382  0.4914  0.1327
  625SOL    HW1 1874   0.742   1.930   2.336 -0.9554 -1.3345  0.0753
  625SOL    HW2 1875   0.609   1.979   2.249  3.1210  1.1154  1.3200
  626SOL     OW 1876   0.183   2.579   0.515 -0.0899  0.3249  0.4589
  626SOL    HW1 1877   0.218   2.634   0.595 -1.5216 -0.1726  2.1620
  626SOL    HW2 1878   0.089   2.555   0.529 -0.3325  1.6733  1.6584
  627SOL     OW 1879   0.933   1.396   2.853 -0.4773 -0.2200 -0.2103
  627SOL    HW1 1880   0.932   1.333   2.772 -0.5682 -2.8605 -2.0375
  627SOL    HW2 1881   0.852   1.380   2.907 -0.2084  2.1557  1.8985
  628SOL     OW 1882   1.564   2.282   0.730  0.0704  0.3187 -0.0707
  628SOL    HW1 1883   1.500   2.210   0.757  0.4135 -2.0875 -1.7477
  628SOL    HW2 1884   1.659   2.247   0.736  0.4751 -0.4888 -0.2772
  629SOL     OW 1885   0.765   0.362   1.694 -0.1912 -0.1246 -0.1838
  629SOL    HW1 1886   0.742   0.301   1.773  0.7237 -3.0374 -1.1702
  629SOL    HW2 1887   0.862   0.375   1.677 -1.5173 -0.4199 -0.9248
  630SOL     OW 1888   2.484   0.353   1.694 -0.0616 -0.0704 -0.2433
  630SOL    HW1 1889   2.412   0.280   1.685 -0.7821  1.7332  1.3871
  630SOL    HW2 1890   2.440   0.447   1.692 -0.0038  0.1033 -2.5384
  631SOL     OW 1891   1.412   0.397   0.959  0.2835  0.6917 -0.6810
  631SOL    HW1 1892   1.440   0.441   0.872 -0.1377 -1.8852 -1.0070
  631SOL    HW2 1893   1.422   0.460   1.039 -0.5904  0.0042 -0.2839
  632SOL     OW 1894   2.643   0.749   1.980 -0.4868 -0.4871  0.3598
  632SOL    HW1 1895   2.581   0.680   2.020 -0.3661 -2.7256  0.0811
  632SOL    HW2 1896   2.643   0.732   1.875 -0.2529 -2.2690 -3.1726
  633SOL     OW 1897   1.285   1.209   2.787 -0.0043 -0.4381  0.2930
  633SOL    HW1 1898   1.354   1.277   2.810 -0.5336 -0.9669 -1.2297
  633SOL    HW2 1899   1.273   1.195   2.685  0.2815 -1.3290 -1.9397
  634SOL     OW 1900   0.439   2.285   0.152 -0.4322  0.0011  0.2440
  634SOL    HW1 1901   0.412   2.378   0.126  2.8679  1.4940  1.8527
  634SOL    HW2 1902   0.473   2.279   0.249 -1.3159 -1.0437  2.5659
  635SOL     OW 1903   2.852   1.535   1.883 -0.0739  0.2211  0.1181
  635SOL    HW1 1904   2.789   1.614   1.865  0.2210 -0.4212 -0.5725
  635SOL    HW2 1905   2.862   1.519   1.981 -0.1719 -1.8352 -0.9323
  636SOL     OW 1906   0.120   1.733   0.035  0.4391  0.0166  0.4951
  636SOL    HW1 1907   0.051   1.661   0.056 -2.9436  0.6407  1.8812
  636SOL    HW2 1908   0.184   1.755   0.116  1.7750  1.3409  2.7793
  637SOL     OW 1909   3.035   2.435   0.563  0.6348  0.4655  0.0390
  637SOL    HW1 1910   3.030   2.358   0.496 -0.5275  2.4195 -1.6269
  637SOL    HW2 1911   2.938   2.454   0.592 -3.3763 -0.6450 -0.1660
  638SOL     OW 1912   2.716   2.944   0.483  0.4006  0.3991 -0.0961
  638SOL    HW1 1913   2.679   2.891   0.563 -1.3477  1.4130 -0.2460
  638SOL    HW2 1914   2.666   2.913   0.401  3.6877 -2.5002  2.3502
  639SOL     OW 1915   1.222   0.500   0.200 -0.0170 -0.1102  0.1723
  639SOL    HW1 1916   1.302   0.503   0.266 -1.4089 -0.4263  0.6279
  639SOL    HW2 1917   1.261   0.482   0.107  1.4599 -1.5929 -0.9333
  640SOL     OW 1918   2.398   2.188   1.571 -0.1298  0.0745  0.3221
  640SOL    HW1 1919   2.428   2.118   1.636  0.7008  3.7776 -2.0388
  640SOL    HW2 1920   2.458   2.269   1.579  0.2554 -0.8755 -0.7530
  641SOL     OW 1921   2.790   0.071   1.097 -0.5357 -0.1591  0.4490
  641SOL    HW1 1922   2.851   0.051   1.015  0.5371  0.4346  1.2278
  641SOL    HW2 1923   2.816   0.011   1.175 -0.7045  1.6986  1.2734
  642SOL     OW 1924   1.585   0.874   1.616 -0.4454  0.0795  0.3738
  642SOL    HW1 1925   1.615   0.788   1.574  0.5375  0.3179 -4.7871
  642SOL    HW2 1926   1.596   0.958   1.556 -3.3518  0.3298  2.5618
  643SOL     OW 1927   1.014   1.672   2.275  0.0500 -0.3281 -0.1171
  643SOL    HW1 1928   1.077   1.726   2.209  2.6153  0.1399 -3.1230
  643SOL    HW2 1929   0.990   1.575   2.249 -1.6977 -1.6936  0.0222
  644SOL     OW 1930   1.692   0.074   2.061 -0.2738  0.1940 -0.1303
  644SOL    HW1 1931   1.671   3.102   2.119 -2.0825 -0.8912 -0.1219
  644SOL    HW2 1932   1.631   0.152   2.080 -2.6508  0.5998 -0.3914
  645SOL     OW 1933   1.724   1.246   1.702 -0.3705 -0.8758 -0.7387
  645SOL    HW1 1934   1.689   1.175   1.637 -0.4406  0.0989 -0.0234
  645SOL    HW2 1935   1.676   1.335   1.688 -2.4648  1.1494  0.8952
  646SOL     OW 1936   1.515   2.323   0.067 -0.4730 -0.0738  0.0602
  646SOL    HW1 1937   1.460   2.254   0.020 -1.2818  1.1288  1.9628
  646SOL    HW2 1938   1.471   2.414   0.057  0.1153 -0.5565 -0.4487
  647SOL     OW 1939   1.464   2.469   1.165  0.6504  0.5749 -0.0755
  647SOL    HW1 1940   1.446   2.442   1.067 -1.4579 -1.5964  0.8317
  647SOL    HW2 1941   1.448   2.380   1.219 -0.4494 -0.3110  0.7631
  648SOL     OW 1942   3.028   2.205   1.438  0.5394 -0.0750  0.2003
  648SOL    HW1 1943   2.944   2.208   1.491  2.8059  1.9058  0.3853
  648SOL    HW2 1944   3.102   2.220   1.502  0.8703  0.5085  0.8976
  649SOL     OW 1945   1.141   2.497   2.746 -0.0704  0.0085 -0.7559
  649SOL    HW1 1946   1.113   2.525   2.841 -2.7611  3.7038  0.9462
  649SOL    HW2 1947   1.097   2.555   2.678 -2.0644  0.5501 -0.0996
  650SOL     OW 1948   3.030   1.956   3.036  0.5128  0.0882  0.2121
  650SOL    HW1 1949   3.061   1.875   2.982  2.4248 -2.9737  0.7244
  650SOL    HW2 1950   2.992   1.935   0.022 -1.7368  0.6438  1.5326
  651SOL     OW 1951   2.656   2.319   2.110 -0.2235  0.1232  0.2614
  651SOL    HW1 1952   2.599   2.246   2.076  0.5459  0.2495 -1.9483
  651SOL    HW2 1953   2.639   2.393   2.042  0.1482 -1.5936 -1.7821
  652SOL     OW 1954   2.184   2.757   0.765 -0.0250  0.7831  0.3099
  652SOL    HW1 1955   2.275   2.810   0.770  0.2487 -0.7029 -1.2392
  652SOL    HW2 1956   2.200   2.656   0.751  1.2847 -2.7248 -1.0913
  653SOL     OW 1957   0.063   1.253   1.445  0.4588 -0.4894  0.1380
  653SOL    HW1 1958   3.071   1.236   1.461 -2.0744  0.8040 -0.8498
  653SOL    HW2 1959   0.082   1.282   1.348 -0.0948 -0.0512  1.0798
  654SOL     OW 1960   1.104   0.779   2.862 -0.9939  0.3689 -0.1456
  654SOL    HW1 1961   1.093   0.772   2.760 -2.0645 -0.4593  0.9708
  654SOL    HW2 1962   1.016   0.795   2.910  0.9394  0.5465  0.4608
  655SOL     OW 1963   1.116   0.838   1.159 -0.2276  0.2791 -0.2368
  655SOL    HW1 1964   1.098   0.935   1.132  1.3068  0.2310  0.6519
  655SOL    HW2 1965   1.129   0.783   1.075 -0.7130  1.1899 -3.6632
  656SOL     OW 1966   1.405   2.363   1.974  0.4713  0.0262 -0.0193
  656SOL    HW1 1967   1.461   2.291   2.022 -1.0555  1.8669  2.1961
  656SOL    HW2 1968   1.328   2.397   2.036  1.8887  1.2772  3.3117
  657SOL     OW 1969   1.792   1.450   0.023 -0.5957  0.6382 -0.5221
  657SOL    HW1 1970   1.861   1.440   3.056  1.8796  2.3584 -5.0579
  657SOL    HW2 1971   1.700   1.471   3.095  3.0674 -0.0017  3.0994
  658SOL     OW 1972   1.683   2.172   1.537 -0.1132  0.4083 -0.2340
  658SOL    HW1 1973   1.780   2.148   1.513 -3.2116  1.4404  1.6008
  658SOL    HW2 1974   1.677   2.216   1.631  0.0581 -0.2525 -1.6983
  659SOL     OW 1975   2.971   1.842   0.179  0.0737 -0.1785 -0.4003
  659SOL    HW1 1976   3.022   1.777   0.128 -0.5160  1.5901  0.0275
  659SOL    HW2 1977   3.032   1.897   0.243 -0.3815 -0.6432 -0.9813
  660SOL     OW 1978   0.893   0.168   0.666  0.0147  0.0319 -0.1229
  660SOL    HW1 1979   0.974   0.224   0.686  0.4798 -0.0910  1.9646
  660SOL    HW2 1980   0.913   0.068   0.665  1.4057  2.1236  0.9560
  661SOL     OW 1981   2.050   0.491   2.998 -0.7430 -0.3281  0.0292
  661SOL    HW1 1982   1.954   0.515   3.008  0.0798 -0.1722 -0.4888
  661SOL    HW2 1983   2.061   0.402   2.949  2.0871  0.1472  2.2476
  662SOL     OW 1984   0.278   0.368   0.387 -0.5592  0.3579  0.1880
  662SOL    HW1 1985   0.180   0.389   0.391 -0.1639 -0.5003 -0.6986
  662SOL    HW2 1986   0.327   0.429   0.454 -1.7289 -0.4430  2.1411
  663SOL     OW 1987   1.671   2.675   2.531  0.3415  0.1483 -0.4398
  663SOL    HW1 1988   1.573   2.701   2.546  0.3512  0.0190 -1.5167
  663SOL    HW2 1989   1.687   2.606   2.464 -2.9141  1.4424  1.4991
  664SOL     OW 1990   0.661   2.445   1.683  0.0934 -0.0129  0.2079
  664SOL    HW1 1991   0.574   2.494   1.655 -4.7772  2.4426 -1.5393
  664SOL    HW2 1992   0.722   2.467   1.603  1.9970  0.4361 -2.5237
  665SOL     OW 1993   1.414   2.305   1.363 -0.3004 -0.0676 -0.0178
  665SOL    HW1 1994   1.440   2.368   1.440 -1.1854  0.3381 -0.4479
  665SOL    HW2 1995   1.465   2.215   1.358  0.4042  0.6976 -0.2376
  666SOL     OW 1996   0.925   3.002   2.386  0.4784  0.4919  0.2645
  666SOL    HW1 1997   0.877   2.931   2.443 -1.1006  0.7582 -1.5587
  666SOL    HW2 1998   0.902   2.989   2.289  2.6300  1.6092 -0.5274
  667SOL     OW 1999   2.637   0.733   1.709 -0.1441  0.0278  0.3882
  667SOL    HW1 2000   2.625   0.812   1.639 -1.6373  0.7803  0.6328
  667SOL    HW2 2001   2.735   0.696   1.703 -1.6035 -2.2198  0.4455
  668SOL     OW 2002   1.409   0.184   1.304 -0.3181 -0.0387 -0.0938
  668SOL    HW1 2003   1.414   0.183   1.406  0.6279 -0.8330  2.5092
  668SOL    HW2 2004   1.330   0.252   1.279  0.0662  0.4946 -0.5393
  669SOL     OW 2005   2.430   2.448   1.085  0.0933  0.5516 -0.6484
  669SOL    HW1 2006   2.478   2.430   1.177 -1.7088  2.2997  0.2610
  669SOL    HW2 2007   2.499   2.437   1.009  2.7029 -1.4512 -0.8671
  670SOL     OW 2008   1.378   2.402   2.830  0.6590  0.0532 -0.1494
  670SOL    HW1 2009   1.431   2.481   2.866 -1.5138  1.8748 -2.6736
  670SOL    HW2 2010   1.279   2.425   2.821  0.3976 -1.1042  0.5798
  671SOL     OW 2011   0.550   0.882   0.395  0.1471 -0.3380 -0.6066
  671SOL    HW1 2012   0.520   0.823   0.315  0.6110  0.9426  0.4731
  671SOL    HW2 2013   0.472   0.895   0.457 -0.0410 -1.3713 -1.2607
  672SOL     OW 2014   2.766   1.243   0.037 -0.1766 -0.3631 -0.1891
  672SOL    HW1 2015   2.803   1.149   0.052  0.2473  0.5227 -1.7046
  672SOL    HW2 2016   2.690   1.269   0.099  1.7958 -2.6951 -0.1933
  673SOL     OW 2017   0.050   1.889   1.741  0.1798 -0.4888  0.1787
  673SOL    HW1 2018   3.102   1.818   1.691  2.1193 -0.9242  0.6143
  673SOL    HW2 2019   0.148   1.868   1.725  0.1984 -0.6664 -2.7012
  674SOL     OW 2020   1.300   2.008   1.667  0.1023 -0.9539  1.0594
  674SOL    HW1 2021   1.208   2.038   1.696 -0.2169  1.5346 -2.4639
  674SOL    HW2 2022   1.294   2.003   1.560  0.4751 -0.5740 -2.9663
  675SOL     OW 2023   1.083   1.143   1.109 -0.3021  0.8562 -0.3907
  675SOL    HW1 2024   1.077   1.131   1.207 -2.6091  0.1391 -3.6189
  675SOL    HW2 2025   0.996   1.172   1.068  0.4025 -0.7879 -0.4722
  676SOL     OW 2026   2.220   0.442   0.865 -0.3549  0.0168  0.1502
  676SOL    HW1 2027   2.170   0.529   0.845  0.9305  1.0003 -0.0454
  676SOL    HW2 2028   2.304   0.465   0.917  1.5209 -2.2141 -0.0872
  677SOL     OW 2029   2.502   0.374   0.169 -0.8249 -0.5119  0.2872
  677SOL    HW1 2030   2.462   0.289   0.210 -0.2413 -0.6370  0.1246
  677SOL    HW2 2031   2.462   0.377   0.074  3.3338 -1.9046  1.2231
  678SOL     OW 2032   2.670   1.283   1.392  0.6524  0.1651  0.8384
  678SOL    HW1 2033   2.657   1.368   1.330 -2.0425  3.2137  0.6140
  678SOL    HW2 2034   2.591   1.263   1.456 -0.6389  0.1335  1.6665
  679SOL     OW 2035   2.407   0.478   3.040  0.0905  0.1951  0.1327
  679SOL    HW1 2036   2.464   0.486   2.955 -0.2207 -0.0768 -1.5472
  679SOL    HW2 2037   2.427   0.549   0.005 -1.8995  1.4130  1.5642
  680SOL     OW 2038   0.587   1.095   2.285 -0.0506 -0.3651  0.3495
  680SOL    HW1 2039   0.631   1.027   2.224  0.3000  0.3877  1.2352
  680SOL    HW2 2040   0.487   1.104   2.271 -1.5068  1.2932  2.5892
  681SOL     OW 2041   2.809   2.184   1.616  0.1422  0.4828 -0.1245
  681SOL    HW1 2042   2.842   2.130   1.694  1.1898  1.4341  1.4943
  681SOL    HW2 2043   2.743   2.127   1.561 -0.8914 -0.1455 -0.6229
  682SOL     OW 2044   0.464   1.779   3.026 -0.3607 -0.2931  0.6931
  682SOL    HW1 2045   0.434   1.868   2.992  1.9139 -0.3977 -0.4698
  682SOL    HW2 2046   0.399   1.703   3.005  0.9789 -0.3950  0.2894
  683SOL     OW 2047   2.444   2.014   0.974  0.5465  0.0039  0.0857
  683SOL    HW1 2048   2.498   1.942   0.921 -1.2496  0.3940  0.4778
  683SOL    HW2 2049   2.473   2.036   1.068 -0.4625  0.2436 -0.5073
  684SOL     OW 2050   2.545   1.003   1.993 -0.3257  0.2852 -1.0032
  684SOL    HW1 2051   2.588   0.914   1.997 -1.2801  2.7988 -2.4532
  684SOL    HW2 2052   2.579   1.074   2.060  1.2516  2.2347 -0.2050
  685SOL     OW 2053   1.206   0.696   0.916  0.3615  0.4419 -0.1249
  685SOL    HW1 2054   1.240   0.720   0.822  1.2866  0.0485  0.0970
  685SOL    HW2 2055   1.119   0.647   0.918  3.9048  0.9754 -2.3435
  686SOL     OW 2056   0.701   0.188   0.064  0.1762  0.5114  0.1458
  686SOL    HW1 2057   0.757   0.135   3.105 -0.3598  1.8975  2.5315
  686SOL    HW2 2058   0.648   0.122   0.118  0.4808 -1.9274 -2.0082
  687SOL     OW 2059   0.203   2.495   2.478  0.2006 -0.1263 -0.3310
  687SOL    HW1 2060   0.114   2.477   2.438  1.1134  1.1839 -1.4039
  687SOL    HW2 2061   0.234   2.412   2.529 -2.4073 -1.7084 -3.9234
  688SOL     OW 2062   2.067   0.303   1.507 -0.0929  0.0610  0.3846
  688SOL    HW1 2063   2.002   0.383   1.502 -0.0711 -0.1024  1.1360
  688SOL    HW2 2064   2.142   0.321   1.441  0.0548  1.6238 -2.1482
  689SOL     OW 2065   1.834   0.824   0.605  0.0857 -0.0849 -0.0292
  689SOL    HW1 2066   1.755   0.821   0.537 -1.9632 -0.3796 -0.3517
  689SOL    HW2 2067   1.804   0.792   0.697 -0.0484  0.8760  0.8081
  690SOL     OW 2068   3.036   0.876   1.612  0.3295 -0.2188  0.0667
  690SOL    HW1 2069   3.010   0.963   1.653 -0.2090 -4.0110 -1.1107
  690SOL    HW2 2070   3.012   0.887   1.510  0.2376 -0.7013 -1.3252
  691SOL     OW 2071   0.213   1.140   1.893  0.2716  0.0709 -0.2718
  691SOL    HW1 2072   0.229   1.150   1.795  3.6481 -0.7805  2.6198
  691SOL    HW2 2073   0.144   1.207   1.928 -0.6808  1.0319  0.7036
  692SOL     OW 2074   1.107   0.765   2.001  0.6135 -0.4598  0.0639
  692SOL    HW1 2075   1.071   0.673   2.021 -0.5315  0.9456 -0.4997
  692SOL    HW2 2076   1.128   0.779   1.902 -3.3538  0.0806  1.7812
  693SOL     OW 2077   0.473   1.387   2.124 -0.2692  0.3083 -0.1551
  693SOL    HW1 2078   0.525   1.472   2.101 -0.7114  4.0293 -0.1483
  693SOL    HW2 2079   0.383   1.399   2.174 -0.4711 -0.1792  2.5026
  694SOL     OW 2080   1.479   1.750   0.472  0.4719 -0.8358 -0.8848
  694SOL    HW1 2081   1.568   1.729   0.431 -0.3669  1.3628  4.8185
  694SOL    HW2 2082   1.464   1.848   0.497 -1.0077 -1.0953 -1.2526
  695SOL     OW 2083   0.660   1.115   1.328 -0.4480 -0.6184  0.4796
  695SOL    HW1 2084   0.708   1.131   1.238  1.2708 -0.7818 -0.5317
  695SOL    HW2 2085   0.559   1.102   1.317  1.9054  1.0988 -0.0144
  696SOL     OW 2086   0.398   2.521   0.338 -0.0103 -0.4649  0.1838
  696SOL    HW1 2087   0.304   2.525   0.379  1.0851  0.2463 -0.3819
  696SOL    HW2 2088   0.469   2.567   0.391 -2.5310  0.3771  0.1587
  697SOL     OW 2089   1.237   0.377   1.292  0.0185 -0.0680  0.1091
  697SOL    HW1 2090   1.248   0.447   1.365  3.2833 -2.0420 -1.5246
  697SOL    HW2 2091   1.141   0.375   1.250  0.6442 -0.5443  2.3400
  698SOL     OW 2092   1.601   1.512   1.628 -0.1088  0.0828  0.3891
  698SOL    HW1 2093   1.506   1.495   1.592 -0.2234  1.9895 -0.3312
  698SOL    HW2 2094   1.616   1.612   1.629  0.1602 -1.1749  0.6768
  699SOL     OW 2095   0.097   0.503   2.303 -0.6070 -0.3837 -0.0564
  699SOL    HW1 2096   0.067   0.597   2.293  1.6118  0.7925  1.2884
  699SOL    HW2 2097   0.184   0.501   2.354 -1.0069  0.4172  0.7828
  700SOL     OW 2098   1.515   2.678   0.743  0.1542 -0.6830 -0.1430
  700SOL    HW1 2099   1.550   2.758   0.688 -1.2719 -0.2305 -0.0599
  700SOL    HW2 2100   1.429   2.703   0.789  1.7484  2.0840 -0.2453
  701SOL     OW 2101   0.246   1.424   2.744  0.2129 -0.4932 -0.0989
  701SOL    HW1 2102   0.154   1.448   2.776 -0.0571 -0.0630  0.4624
  701SOL    HW2 2103   0.308   1.430   2.820 -1.9638  2.0620 -1.6177
  702SOL     OW 2104   0.305   0.337   3.071  0.3818  0.0996 -0.4971
  702SOL    HW1 2105   0.338   0.265   3.007  1.1836 -0.3231  1.3358
  702SOL    HW2 2106   0.325   0.430   3.026  2.8475  0.7465 -2.2155
  703SOL     OW 2107   1.532   3.028   2.676  0.0868 -0.0853  0.0915
  703SOL    HW1 2108   1.622   3.054   2.636  1.4863  1.7620 -1.0892
  703SOL    HW2 2109   1.453   3.092   2.657 -0.9014 -1.3578 -1.6006
  704SOL     OW 2110   2.657   1.877   0.593  0.6822 -0.0934 -0.2935
  704SOL    HW1 2111   2.681   1.931   0.512 -2.0439 -3.1035  2.1042
  704SOL    HW2 2112   2.726   1.900   0.667  2.8438 -4.1132  0.2436
  705SOL     OW 2113   2.833   1.891   2.041  0.6862 -0.0484 -0.7164
  705SOL    HW1 2114   2.759   1.836   2.000 -2.0582  3.0512 -0.2239
  705SOL    HW2 2115   2.837   1.888   2.141 -1.8322  0.1657 -0.1299
  706SOL     OW 2116   3.003   2.569   0.879 -0.3234 -0.1026 -0.2160
  706SOL    HW1 2117   2.945   2.594   0.796 -1.7174  1.3910 -0.4295
  706SOL    HW2 2118   3.092   2.526   0.852 -0.1414 -1.2251 -1.1989
  707SOL     OW 2119   0.919   2.778   0.382 -0.1490 -0.1749 -0.6971
  707SOL    HW1 2120   1.017   2.792   0.362  1.6074 -0.3891 -0.6398
  707SOL    HW2 2121   0.862   2.807   0.301  0.3957 -0.6833 -2.5229
  708SOL     OW 2122   0.562   2.176   1.486  0.2253 -0.1387  0.3280
  708SOL    HW1 2123   0.613   2.231   1.420 -2.2132  1.2651  0.4452
  708SOL    HW2 2124   0.481   2.224   1.525 -0.4430 -0.4246  1.1591
  709SOL     OW 2125   1.625   2.980   2.214  0.2274 -0.3244  0.0471
  709SOL    HW1 2126   1.525   2.979   2.236  0.7894  1.1731 -0.0168
  709SOL    HW2 2127   1.672   2.952   2.298 -0.1300  1.0423 -1.7337
  710SOL     OW 2128   1.431   2.767   2.673 -0.5472 -0.0207  0.2711
  710SOL    HW1 2129   1.481   2.712   2.743  0.5139  0.6952 -3.7457
  710SOL    HW2 2130   1.457   2.866   2.692 -1.3376  0.6058  0.3957
  711SOL     OW 2131   1.341   2.175   3.010  0.3131 -0.5613  0.2138
  711SOL    HW1 2132   1.255   2.128   3.022  2.8604  0.7525  0.9210
  711SOL    HW2 2133   1.341   2.246   2.939  1.5854  0.5704  0.3133
  712SOL     OW 2134   0.859   1.780   2.913  0.4760 -0.3687  0.3220
  712SOL    HW1 2135   0.958   1.796   2.924  1.6040 -1.4861  0.1177
  712SOL    HW2 2136   0.825   1.811   2.824  2.1137 -2.5779 -1.9135
  713SOL     OW 2137   1.330   0.945   1.625  0.2029  0.0717  0.5398
  713SOL    HW1 2138   1.319   1.007   1.545 -0.1716  0.4005  1.2147
  713SOL    HW2 2139   1.428   0.919   1.642 -0.5073 -0.7613 -1.3774
  714SOL     OW 2140   1.419   1.455   1.006 -0.2176 -0.5503 -0.1899
  714SOL    HW1 2141   1.433   1.512   0.921 -0.9668 -1.7518 -0.9034
  714SOL    HW2 2142   1.349   1.494   1.069  1.3855  2.0942 -1.5146
  715SOL     OW 2143   2.436   0.220   0.858  0.7814  0.1948 -0.1941
  715SOL    HW1 2144   2.335   0.224   0.870 -0.1638  2.8507 -0.0308
  715SOL    HW2 2145   2.470   0.298   0.809 -3.6127 -4.0387 -0.6325
  716SOL     OW 2146   0.554   2.767   0.793 -0.0088 -0.0699  0.0931
  716SOL    HW1 2147   0.598   2.715   0.867 -0.7325 -0.5827  1.8890
  716SOL    HW2 2148   0.627   2.804   0.733  1.6828  1.4513 -1.3837
  717SOL     OW 2149   2.907   0.553   0.272  0.0138 -0.0685 -0.1266
  717SOL    HW1 2150   2.847   0.488   0.225  3.3606  0.9722  0.7360
  717SOL    HW2 2151   2.852   0.628   0.314 -0.2816 -2.2725  2.6408
  718SOL     OW 2152   1.701   1.792   1.093 -0.0394  0.1039  0.0250
  718SOL    HW1 2153   1.770   1.731   1.049 -2.3823 -0.4461  0.2303
  718SOL    HW2 2154   1.748   1.863   1.146 -2.2540 -1.5304  1.2685
  719SOL     OW 2155   2.584   2.391   0.831 -0.6900 -0.1017  0.4302
  719SOL    HW1 2156   2.556   2.302   0.788 -1.5729  0.9700 -0.1974
  719SOL    HW2 2157   2.679   2.392   0.866  0.3294 -0.1449  0.9538
  720SOL     OW 2158   1.092   0.923   0.712  0.4683 -0.0329 -0.3714
  720SOL    HW1 2159   1.162   0.854   0.706  2.0089 -0.8469  3.8575
  720SOL    HW2 2160   1.065   0.967   0.626  0.4694  1.6536  0.5212
  721SOL     OW 2161   1.567   0.205   1.068 -0.2498 -0.2072 -0.2738
  721SOL    HW1 2162   1.501   0.254   1.007  0.3266  0.3982  2.1787
  721SOL    HW2 2163   1.522   0.200   1.158 -1.2603 -0.4307  2.5872
  722SOL     OW 2164   1.216   1.391   2.098  0.1449  0.0678 -0.5241
  722SOL    HW1 2165   1.267   1.441   2.171 -3.1413 -0.6442 -0.9344
  722SOL    HW2 2166   1.118   1.381   2.132 -0.9781 -2.2198 -2.8939
  723SOL     OW 2167   0.891   2.925   1.484  0.0324  0.3715 -0.1991
  723SOL    HW1 2168   0.931   2.999   1.431  2.0516  1.2191 -0.2094
  723SOL    HW2 2169   0.966   2.880   1.542 -0.4983 -0.8152 -1.7575
  724SOL     OW 2170   1.964   1.838   1.519  0.2520 -0.4444  0.4482
  724SOL    HW1 2171   1.883   1.811   1.461 -0.4874  0.6369  1.7934
  724SOL    HW2 2172   2.053   1.794   1.490  0.5852  0.7142 -0.4597
  725SOL     OW 2173   1.043   2.697   1.312  0.5488  0.1057  0.2808
  725SOL    HW1 2174   0.986   2.715   1.396 -1.1443 -1.1536  1.5182
  725SOL    HW2 2175   1.130   2.648   1.336  0.7150 -1.1893  1.0277
  726SOL     OW 2176   1.723   2.898   3.071 -0.1336  0.1644  0.1354
  726SOL    HW1 2177   1.642   2.839   3.089  1.5345 -0.7764  2.5012
  726SOL    HW2 2178   1.812   2.852   3.056  0.8053  2.8043 -0.3303
  727SOL     OW 2179   1.440   1.618   0.759  0.4663  0.3065 -0.1622
  727SOL    HW1 2180   1.354   1.626   0.698 -0.8331  1.2729 -3.7114
  727SOL    HW2 2181   1.521   1.589   0.706 -0.9579  1.2780  2.5588
  728SOL     OW 2182   1.941   2.872   2.239  0.2848  0.1255  0.0780
  728SOL    HW1 2183   1.984   2.958   2.212  1.7445 -0.7627  2.0259
  728SOL    HW2 2184   1.877   2.891   2.318  3.9456  1.0291 -1.2551
  729SOL     OW 2185   2.404   1.784   1.318 -0.2081  0.5342 -0.6421
  729SOL    HW1 2186   2.378   1.886   1.340  1.0817  3.0558  0.1601
  729SOL    HW2 2187   2.357   1.750   1.236 -0.7798  0.3486 -0.4874
  730SOL     OW 2188   1.682   0.504   2.623 -0.2693 -0.4941  0.1492
  730SOL    HW1 2189   1.759   0.445   2.594 -1.8944 -1.1804  0.5196
  730SOL    HW2 2190   1.707   0.606   2.641  1.5658  3.4057 -0.2073
  731SOL     OW 2191   0.494   0.188   1.402 -0.1177 -0.3095 -0.1154
  731SOL    HW1 2192   0.485   0.248   1.487  0.1359  0.0205 -1.6061
  731SOL    HW2 2193   0.410   0.168   1.348 -0.5648  1.4937  0.0264
  732SOL     OW 2194   1.827   0.262   1.082  0.9490 -0.0673 -0.6580
  732SOL    HW1 2195   1.729   0.237   1.077  0.4639  0.6319 -0.9449
  732SOL    HW2 2196   1.883   0.208   1.148  1.9122  2.1102  0.7003
  733SOL     OW 2197   0.952   0.952   1.547 -0.4136  0.1606 -0.0635
  733SOL    HW1 2198   0.885   1.030   1.559 -0.5514  1.0595  0.1047
  733SOL    HW2 2199   0.913   0.857   1.568  0.3381 -1.5473  2.8442
  734SOL     OW 2200   2.356   1.815   0.225  0.3401 -0.0955 -0.0112
  734SOL    HW1 2201   2.307   1.737   0.183  0.9253 -0.8332 -0.0479
  734SOL    HW2 2202   2.341   1.831   0.326 -1.8026 -0.8678  3.3360
  735SOL     OW 2203   0.475   0.711   0.192 -0.1397  0.5026 -0.6704
  735SOL    HW1 2204   0.456   0.608   0.170 -1.2036 -1.9531 -0.2840
  735SOL    HW2 2205   0.575   0.730   0.187  2.5644  2.4642  2.4703
  736SOL     OW 2206   1.920   2.595   2.582  0.0606  0.3137  0.4239
  736SOL    HW1 2207   1.939   2.554   2.677  0.5286 -3.0612  0.5709
  736SOL    HW2 2208   1.825   2.635   2.569 -1.5290 -1.7427  0.5261
  737SOL     OW 2209   0.961   1.809   0.966 -0.6464  0.6163 -0.0196
  737SOL    HW1 2210   0.917   1.764   1.049  1.1403  1.9964 -2.3742
  737SOL    HW2 2211   1.062   1.831   0.989 -0.1543  0.3601 -0.2843
  738SOL     OW 2212   1.866   2.683   2.031 -0.4030  0.2774 -0.0825
  738SOL    HW1 2213   1.876   2.720   2.128 -1.2089 -0.0275  1.2365
  738SOL    HW2 2214   1.784   2.628   2.023 -1.6100 -3.7684  2.7815
  739SOL     OW 2215   1.370   2.212   2.458 -0.0729  0.7650 -0.3976
  739SOL    HW1 2216   1.374   2.134   2.525  0.7422 -1.4524  1.8287
  739SOL    HW2 2217   1.455   2.269   2.464 -0.7422  0.5396  1.7688
  740SOL     OW 2218   2.006   2.365   1.791 -0.1646 -0.3771 -0.6168
  740SOL    HW1 2219   2.044   2.456   1.818  1.1346 -0.5741 -0.8561
  740SOL    HW2 2220   1.908   2.366   1.807  5.1096  0.5887 -2.2449
  741SOL     OW 2221   2.473   1.657   2.750 -0.5587  0.2032  0.1950
  741SOL    HW1 2222   2.467   1.590   2.676  2.5127  1.9534 -0.1172
  741SOL    HW2 2223   2.489   1.750   2.708  0.0329  1.5092 -1.9784
  742SOL     OW 2224   0.652   1.243   2.848 -0.0080  0.2966  0.5906
  742SOL    HW1 2225   0.589   1.271   2.923 -1.4124 -0.9312 -2.2701
  742SOL    HW2 2226   0.597   1.222   2.764 -1.2875 -0.0963 -2.7836
  743SOL     OW 2227   2.069   1.105   2.547  0.0306 -0.0909 -0.1482
  743SOL    HW1 2228   2.037   1.007   2.545  1.3979  1.0029 -1.8960
  743SOL    HW2 2229   2.009   1.166   2.485  1.1829  1.1756 -0.7989
  744SOL     OW 2230   2.120   3.002   1.269 -0.1098 -0.6448  0.1934
  744SOL    HW1 2231   2.187   3.074   1.244  0.5764 -2.4125 -0.4459
  744SOL    HW2 2232   2.167   2.939   1.332 -1.4000 -3.6833 -1.4327
  745SOL     OW 2233   2.554   1.143   1.114 -0.1686  0.4691 -0.1194
  745SOL    HW1 2234   2.509   1.086   1.184  1.0355  1.8650 -3.1476
  745SOL    HW2 2235   2.486   1.214   1.084  2.0614 -0.9451 -0.5847
  746SOL     OW 2236   2.500   1.749   0.871 -0.2331  0.3555  0.1054
  746SOL    HW1 2237   2.435   1.732   0.798 -0.8245 -0.7428  3.2055
  746SOL    HW2 2238   2.590   1.701   0.850  1.0248 -1.2588 -0.3213
  747SOL     OW 2239   2.046   2.688   0.247  0.5000  0.1689 -0.4343
  747SOL    HW1 2240   1.978   2.766   0.245 -1.2590 -1.7792  2.9821
  747SOL    HW2 2241   2.120   2.712   0.313 -1.5927 -1.9234 -2.5437
  748SOL     OW 2242   0.734   2.067   0.168 -0.0305 -0.1408  0.3557
  748SOL    HW1 2243   0.673   2.000   0.219  1.9908  1.1381  3.0868
  748SOL    HW2 2244   0.708   2.069   0.072 -0.6060 -0.2939  1.0301
  749SOL     OW 2245   2.842   0.403   2.289  0.1241 -0.3700  0.4238
  749SOL    HW1 2246   2.926   0.356   2.248  1.0997 -0.4241 -0.8316
  749SOL    HW2 2247   2.856   0.501   2.272 -1.4829 -0.5897  0.2639
  750SOL     OW 2248   1.288   0.501   1.728 -0.4218 -0.0778  0.1259
  750SOL    HW1 2249   1.340   0.449   1.799  0.4223  1.4311 -3.4233
  750SOL    HW2 2250   1.261   0.593   1.759 -0.3860  3.5479  0.9264
  751SOL     OW 2251   2.662   2.516   1.919 -0.2745  0.7588 -0.4853
  751SOL    HW1 2252   2.700   2.474   1.838  0.0164  0.8940  1.1093
  751SOL    HW2 2253   2.583   2.582   1.894 -3.7068  2.0004 -0.6896
  752SOL     OW 2254   1.852   1.427   0.852  0.9348 -1.0659  0.0246
  752SOL    HW1 2255   1.803   1.364   0.915  0.5183 -2.0672 -0.4183
  752SOL    HW2 2256   1.949   1.428   0.873 -1.2065 -1.4236  3.7732
  753SOL     OW 2257   1.622   1.164   2.306  0.2082 -0.1300 -0.1378
  753SOL    HW1 2258   1.669   1.156   2.217  0.2004  0.7702 -1.2832
  753SOL    HW2 2259   1.520   1.152   2.297  0.7753  1.6765  0.1355
  754SOL     OW 2260   0.025   2.336   1.113  0.4177  0.1080  0.4002
  754SOL    HW1 2261   0.022   2.432   1.147 -1.4092 -2.0370  2.1266
  754SOL    HW2 2262   3.046   2.296   1.155 -2.5242 -1.7224  0.2182
  755SOL     OW 2263   2.371   0.029   1.184 -0.0302  0.4196  0.1953
  755SOL    HW1 2264   2.429   0.113   1.198  1.1601  1.8652 -0.5145
  755SOL    HW2 2265   2.411   3.050   1.220 -2.5434 -0.8354 -1.0059
  756SOL     OW 2266   1.882   1.914   2.169  0.6341  0.3032 -0.4667
  756SOL    HW1 2267   1.870   1.823   2.119 -1.8295  0.7339 -1.6576
  756SOL    HW2 2268   1.821   1.915   2.251  1.9847 -0.8418 -1.1322
  757SOL     OW 2269   3.082   2.922   1.972 -0.1941 -0.0419 -0.3286
  757SOL    HW1 2270   2.983   2.948   1.963  3.0847 -0.8221  2.7074
  757SOL    HW2 2271   0.034   3.005   1.962  0.9059  2.6624  1.6949
  758SOL     OW 2272   0.497   2.788   1.663 -0.4849  0.2307  0.1488
  758SOL    HW1 2273   0.570   2.800   1.603 -1.1260  1.4631  3.1855
  758SOL    HW2 2274   0.455   2.696   1.649  0.0916  2.9051  2.6329
  759SOL     OW 2275   2.171   1.020   1.135 -0.6272  0.0779 -0.2669
  759SOL    HW1 2276   2.251   0.998   1.193 -0.8987 -2.5958  1.3992
  759SOL    HW2 2277   2.192   1.063   1.047 -1.8661  1.8088 -1.6113
  760SOL     OW 2278   1.553   0.260   1.552  0.7144 -0.4338 -0.4998
  760SOL    HW1 2279   1.614   0.190   1.593 -1.4735 -2.4374 -0.6522
  760SOL    HW2 2280   1.602   0.312   1.479 -0.9999 -0.7050 -2.3461
  761SOL     OW 2281   2.152   0.136   0.820 -0.4450 -0.1500 -0.5535
  761SOL    HW1 2282   2.071   0.115   0.879  0.3275  1.3333  0.6366
  761SOL    HW2 2283   2.210   0.051   0.823 -0.4048 -2.0960 -0.6838
  762SOL     OW 2284   1.885   2.913   0.210 -0.1594  1.0460  0.2802
  762SOL    HW1 2285   1.954   2.987   0.192  0.8419 -0.7314 -0.0772
  762SOL    HW2 2286   1.811   2.909   0.142  1.8767 -0.9193  0.2015
  763SOL     OW 2287   0.906   0.438   1.241 -0.1603 -0.2858  0.1625
  763SOL    HW1 2288   0.852   0.385   1.310 -1.5377  0.1044  0.3359
  763SOL    HW2 2289   0.927   0.526   1.283 -2.5421  0.4242 -1.7977
  764SOL     OW 2290   2.517   2.586   2.555 -0.0509 -0.0230 -0.0447
  764SOL    HW1 2291   2.601   2.535   2.529 -1.3768  2.2147 -0.3019
  764SOL    HW2 2292   2.527   2.687   2.546  0.5967  2.9675 -0.2509
  765SOL     OW 2293   3.075   1.029   2.574 -0.2649  0.1056  0.2606
  765SOL    HW1 2294   0.067   1.043   2.562 -0.4668  0.1169 -0.5593
  765SOL    HW2 2295   3.062   0.934   2.590 -0.4507  1.4299 -1.4745
  766SOL     OW 2296   2.880   1.119   2.405  0.1762 -0.5455  0.0399
  766SOL    HW1 2297   2.950   1.068   2.455 -1.1195  1.8358  0.6052
  766SOL    HW2 2298   2.915   1.217   2.390 -2.0764  1.2350 -0.0965
  767SOL     OW 2299   0.103   2.155   1.648  0.2039 -0.0539 -0.9259
  767SOL    HW1 2300   0.085   2.200   1.736 -2.1232  1.2051 -1.4143
  767SOL    HW2 2301   0.086   2.057   1.662  0.1286  0.1979 -2.8143
  768SOL     OW 2302   0.841   0.785   2.954  0.1980  0.2867 -0.0815
  768SOL    HW1 2303   0.802   0.701   3.006 -0.1681  0.0176 -0.2842
  768SOL    HW2 2304   0.773   0.857   2.950 -0.1919  0.2812 -1.5821
  769SOL     OW 2305   1.315   2.562   3.103 -0.3075 -0.1876  0.1303
  769SOL    HW1 2306   1.230   2.554   3.045  0.9858 -0.6630 -4.2236
  769SOL    HW2 2307   1.298   2.607   0.091  0.1748  4.4030  5.1367
  770SOL     OW 2308   0.977   0.236   2.569 -0.1999  0.1453 -0.1856
  770SOL    HW1 2309   0.893   0.278   2.524 -1.3944 -0.3885 -0.9845
  770SOL    HW2 2310   0.988   0.141   2.544 -1.5817  3.8662 -2.3862
  771SOL     OW 2311   0.704   2.576   0.949  0.6163 -0.3785  0.6256
  771SOL    HW1 2312   0.757   2.551   0.867  1.0054 -0.4166 -1.1658
  771SOL    HW2 2313   0.761   2.636   1.012  1.5847 -0.0655 -0.2160
  772SOL     OW 2314   2.708   0.995   0.420  0.8706 -0.1451  0.6269
  772SOL    HW1 2315   2.674   1.036   0.335 -1.7799  2.5043  3.5692
  772SOL    HW2 2316   2.801   1.028   0.444 -2.3906  0.9061 -0.3456
  773SOL     OW 2317   1.733   0.932   1.863  0.0320 -0.3119  0.1279
  773SOL    HW1 2318   1.830   0.908   1.855 -1.6713  2.0952  1.6490
  773SOL    HW2 2319   1.686   0.904   1.781 -0.9061  1.3425  0.1478
  774SOL     OW 2320   0.512   0.477   0.618 -0.7574  0.6221  0.6497
  774SOL    HW1 2321   0.578   0.528   0.558 -0.5119  0.9815  0.3105
  774SOL    HW2 2322   0.562   0.421   0.688 -3.4030 -0.8506  0.9491
  775SOL     OW 2323   1.678   0.147   0.279  0.0185 -0.0780  0.2438
  775SOL    HW1 2324   1.647   0.049   0.264  0.8967 -1.8353  1.0373
  775SOL    HW2 2325   1.601   0.206   0.296  0.6560 -0.5653 -0.5763
  776SOL     OW 2326   2.273   0.396   2.429 -0.4907 -0.6028 -0.2413
  776SOL    HW1 2327   2.215   0.386   2.510  1.8174 -0.3702 -2.3490
  776SOL    HW2 2328   2.249   0.328   2.359  1.9286  2.3632  2.8727
  777SOL     OW 2329   1.113   1.392   3.040  0.5486 -0.4373 -0.1380
  777SOL    HW1 2330   1.067   1.386   2.952  1.1468 -0.2174 -0.3809
  777SOL    HW2 2331   1.089   1.319   3.107 -1.6351 -0.5758 -0.5480
  778SOL     OW 2332   0.174   2.771   0.265  0.0295  0.6144  0.2160
  778SOL    HW1 2333   0.180   2.704   0.340 -0.4354  0.5347 -0.7898
  778SOL    HW2 2334   0.232   2.857   0.284  1.5256 -0.5714  1.6290
  779SOL     OW 2335   0.154   1.447   0.392 -0.1505  0.2174  0.0306
  779SOL    HW1 2336   0.141   1.347   0.382 -0.6077 -0.4083 -0.2361
  779SOL    HW2 2337   0.247   1.475   0.373 -2.0787 -0.5269  0.8538
  780SOL     OW 2338   1.973   0.012   2.129  0.5564 -0.2506  0.3770
  780SOL    HW1 2339   2.048   0.054   2.070  2.0381  0.5041  0.8692
  780SOL    HW2 2340   1.887   0.009   2.076 -0.5376 -0.1564  0.9308
  781SOL     OW 2341   1.635   1.077   1.472 -0.4189 -0.8432  0.4462
  781SOL    HW1 2342   1.538   1.071   1.437  0.0715  0.0703  2.4365
  781SOL    HW2 2343   1.694   1.139   1.400  2.4220 -0.0786 -1.9911
  782SOL     OW 2344   1.967   2.133   2.020  0.5677 -0.2987  0.1990
  782SOL    HW1 2345   1.978   2.113   1.919 -2.3751  2.1795 -1.6745
  782SOL    HW2 2346   1.947   2.051   2.078 -0.7492 -0.8852 -1.0973
  783SOL     OW 2347   1.421   0.384   1.915  0.1394  0.7301 -0.0879
  783SOL    HW1 2348   1.515   0.416   1.931  0.9459  0.5378  0.5503
  783SOL    HW2 2349   1.412   0.278   1.922  1.6130  0.6475  0.1029
  784SOL     OW 2350   1.892   1.168   2.376  0.4615  0.0171  0.4560
  784SOL    HW1 2351   1.796   1.160   2.401  3.5878 -0.7085 -0.6517
  784SOL    HW2 2352   1.907   1.123   2.286  0.5156 -0.7712 -2.1890
  785SOL     OW 2353   1.833   0.660   0.049  0.1446  0.1495 -0.1963
  785SOL    HW1 2354   1.898   0.673   0.123 -1.0815 -0.3523 -0.2047
  785SOL    HW2 2355   1.761   0.595   0.087 -2.5545  0.6102  0.0918
  786SOL     OW 2356   0.154   1.857   0.499 -0.4175  0.4026  0.3263
  786SOL    HW1 2357   0.079   1.795   0.536 -0.4990  0.9843  2.3223
  786SOL    HW2 2358   0.213   1.903   0.568 -1.8368 -1.4682  0.2898
  787SOL     OW 2359   1.667   1.987   0.389 -0.2587 -0.3352  0.5128
  787SOL    HW1 2360   1.572   1.985   0.414  1.8224 -0.0601 -3.3041
  787SOL    HW2 2361   1.674   2.085   0.355  1.1496  0.6729  3.5149
  788SOL     OW 2362   2.286   1.372   1.338  0.0954  0.1510  0.5304
  788SOL    HW1 2363   2.274   1.447   1.269  0.6495 -1.2619 -2.5914
  788SOL    HW2 2364   2.198   1.355   1.389  0.4154  1.4817 -0.9166
  789SOL     OW 2365   2.913   1.628   2.354  0.1667  0.0876  0.2392
  789SOL    HW1 2366   2.957   1.719   2.358  2.1950 -3.8817  0.7085
  789SOL    HW2 2367   2.968   1.560   2.410 -0.4818 -2.3088  0.9830
  790SOL     OW 2368   0.793   0.022   2.665 -0.2935 -0.4547 -0.1292
  790SOL    HW1 2369   0.813   0.112   2.628 -0.8719 -1.6581  1.4348
  790SOL    HW2 2370   0.695   3.104   2.652  1.3383  0.7801 -1.4676
  791SOL     OW 2371   0.833   2.864   2.612  0.0805  0.2470 -0.1341
  791SOL    HW1 2372   0.792   2.819   2.698  0.9802 -0.3604  0.9083
  791SOL    HW2 2373   0.832   2.968   2.622  3.0637  0.4768  0.8411
  792SOL     OW 2374   1.685   0.325   2.211 -0.3876 -0.2836 -0.0506
  792SOL    HW1 2375   1.755   0.266   2.257  0.0867 -2.6611  0.8748
  792SOL    HW2 2376   1.637   0.393   2.272  2.0600  0.0602 -0.4888
  793SOL     OW 2377   2.888   3.097   2.145 -0.4038 -0.0978 -0.4087
  793SOL    HW1 2378   2.914   0.015   2.052 -0.0925 -0.3059  1.5948
  793SOL    HW2 2379   2.812   0.046   2.178  2.4962 -1.3533 -0.5274
  794SOL     OW 2380   0.399   0.769   1.880  0.4825  0.3547  0.1945
  794SOL    HW1 2381   0.376   0.782   1.980  0.0589 -1.0268 -0.7774
  794SOL    HW2 2382   0.339   0.824   1.818  0.2384  0.3123  1.0276
  795SOL     OW 2383   3.082   1.649   0.498  0.1459  0.1120 -0.2159
  795SOL    HW1 2384   2.994   1.616   0.454 -0.6614  0.3592  2.7470
  795SOL    HW2 2385   0.050   1.585   0.475  1.7773  2.4884  0.3352
  796SOL     OW 2386   2.776   2.792   0.039  0.0377 -0.2416  0.4706
  796SOL    HW1 2387   2.871   2.800   0.076 -1.3106 -0.6941  1.4783
  796SOL    HW2 2388   2.755   2.694   0.018  2.8237 -0.6888 -0.3241
  797SOL     OW 2389   2.522   2.280   0.364 -0.4104 -0.1703 -0.1003
  797SOL    HW1 2390   2.587   2.246   0.297 -2.6164 -1.1408  1.3436
  797SOL    HW2 2391   2.574   2.299   0.449 -1.3492  1.0250  0.0080
  798SOL     OW 2392   0.361   0.924   1.578 -0.0224  0.8478 -0.2314
  798SOL    HW1 2393   0.288   0.847   1.569 -3.6026  0.0924  0.8852
  798SOL    HW2 2394   0.314   1.009   1.600  0.9634 -2.0404  3.2721
  799SOL     OW 2395   2.945   0.640   2.217 -0.2381 -0.1181 -0.0860
  799SOL    HW1 2396   2.904   0.732   2.225  1.5132  0.8422  0.3739
  799SOL    HW2 2397   2.985   0.629   2.119  0.3452  0.6083  0.2403
  800SOL     OW 2398   2.700   2.165   0.590 -0.9163 -0.1477 -0.0840
  800SOL    HW1 2399   2.615   2.154   0.642 -0.3420  1.8298 -1.2265
  800SOL    HW2 2400   2.785   2.155   0.651  0.7442  2.3270 -1.2632
  801SOL     OW 2401   1.364   1.150   0.691  0.1000 -0.7361  0.1337
  801SOL    HW1 2402   1.317   1.186   0.605  4.0106 -0.2930 -0.2999
  801SOL    HW2 2403   1.327   1.192   0.776  0.6032  0.3877  2.1116
  802SOL     OW 2404   1.469   1.830   0.958 -0.3829  0.0646 -0.0798
  802SOL    HW1 2405   1.561   1.801   0.992  1.9758  0.7360  2.1640
  802SOL    HW2 2406   1.426   1.758   0.899 -1.0874 -3.2146 -0.2385
  803SOL     OW 2407   0.029   2.001   0.318  0.2693 -0.2431  0.3689
  803SOL    HW1 2408   0.073   1.957   0.399 -0.6062 -2.1981 -2.0010
  803SOL    HW2 2409   0.100   2.052   0.260  0.6940 -0.7293 -0.4647
  804SOL     OW 2410   1.219   2.637   0.802 -0.1678 -0.0547 -0.3921
  804SOL    HW1 2411   1.144   2.602   0.740 -0.5672 -0.5224 -0.4258
  804SOL    HW2 2412   1.273   2.564   0.850  2.3126  2.4532 -1.0433
  805SOL     OW 2413   1.751   1.924   2.691 -0.1075  0.7099 -0.3489
  805SOL    HW1 2414   1.711   1.838   2.728 -1.0161  1.9119  0.3935
  805SOL    HW2 2415   1.702   2.005   2.725  0.0226  0.9129 -0.7369
  806SOL     OW 2416   1.455   3.026   1.215 -0.2625  0.8010 -0.0675
  806SOL    HW1 2417   1.444   0.014   1.234 -0.8385 -5.0631 -0.4390
  806SOL    HW2 2418   1.364   2.981   1.228 -1.6360 -0.0726 -1.1078
  807SOL     OW 2419   1.785   2.952   2.467  0.9123  0.0765 -0.1071
  807SOL    HW1 2420   1.744   2.881   2.521  3.3520  3.5504 -3.3744
  807SOL    HW2 2421   1.856   3.000   2.516 -0.7093 -0.9801 -3.2248
  808SOL     OW 2422   0.438   1.515   0.321  0.4148 -0.2423  0.4137
  808SOL    HW1 2423   0.532   1.507   0.288  0.0440 -2.0784  1.4888
  808SOL    HW2 2424   0.428   1.483   0.415  0.5549  1.4212 -0.9845
  809SOL     OW 2425   2.506   0.853   2.519 -0.3600 -0.3494  1.1989
  809SOL    HW1 2426   2.532   0.943   2.473  3.5364  1.2515 -0.6936
  809SOL    HW2 2427   2.432   0.858   2.585 -1.7213  0.6821  1.2630
  810SOL     OW 2428   3.065   0.284   2.201  0.2653 -0.5600  0.1470
  810SOL    HW1 2429   0.011   0.372   2.232  1.9158  3.5838 -0.8825
  810SOL    HW2 2430   0.016   0.230   2.143 -1.7236  0.8088 -2.1337
  811SOL     OW 2431   2.151   2.294   1.557 -0.4117 -0.1005 -0.0150
  811SOL    HW1 2432   2.115   2.307   1.648  2.5772  0.9330  0.7922
  811SOL    HW2 2433   2.243   2.246   1.563 -1.0371  0.2973 -0.5476
  812SOL     OW 2434   1.498   0.673   0.123  0.4306  0.1083  0.2031
  812SOL    HW1 2435   1.439   0.693   0.204  0.9815  1.7059  1.1372
  812SOL    HW2 2436   1.445   0.646   0.040 -2.9114 -2.1882  0.3213
  813SOL     OW 2437   1.967   0.424   2.151 -0.0658  0.1809  0.2156
  813SOL    HW1 2438   1.873   0.430   2.109 -0.4936  0.5812 -1.2357
  813SOL    HW2 2439   1.977   0.505   2.209 -0.9610  1.2664  2.4114
  814SOL     OW 2440   2.005   1.075   1.349 -0.0081 -0.4283 -0.3719
  814SOL    HW1 2441   2.081   1.045   1.289 -0.1237 -0.7713  0.1699
  814SOL    HW2 2442   1.935   1.128   1.301 -1.8759  2.6472 -0.4201
  815SOL     OW 2443   0.730   1.048   0.510 -0.6870  0.2009  0.2783
  815SOL    HW1 2444   0.736   1.028   0.611  2.4550  1.3919  0.1146
  815SOL    HW2 2445   0.677   0.982   0.449  0.2485  1.1762  1.7112
  816SOL     OW 2446   2.010   2.188   2.766  0.0106 -0.4924  0.3372
  816SOL    HW1 2447   2.088   2.133   2.730  0.1650  1.8474 -0.5030
  816SOL    HW2 2448   1.966   2.230   2.687 -0.3268  0.3891 -1.2096
  817SOL     OW 2449   2.992   2.854   1.135 -0.5933  0.0631 -0.3650
  817SOL    HW1 2450   2.978   2.921   1.060  1.5349  0.8637 -1.0326
  817SOL    HW2 2451   3.091   2.824   1.141 -0.6699 -1.3842 -0.7568
  818SOL     OW 2452   1.299   0.394   3.070  0.5402 -0.0690 -0.2001
  818SOL    HW1 2453   1.222   0.374   3.006  1.2178  1.7169  2.3826
  818SOL    HW2 2454   1.365   0.316   3.076  0.1480  0.6031 -2.6983
  819SOL     OW 2455   0.567   0.923   0.926  0.2009  0.1811 -0.3028
  819SOL    HW1 2456   0.469   0.902   0.909 -1.1457  0.4763  1.9402
  819SOL    HW2 2457   0.603   0.857   0.996 -0.1777  2.6694  0.8114
  820SOL     OW 2458   2.034   0.603   1.178  0.5378  0.0637 -0.0696
  820SOL    HW1 2459   2.038   0.697   1.133 -2.0582  4.1272 -1.3512
  820SOL    HW2 2460   2.105   0.539   1.137  2.4191  1.1576 -1.0480
  821SOL     OW 2461   2.599   0.088   0.445 -0.1538  0.2156  0.1478
  821SOL    HW1 2462   2.513   0.088   0.505 -2.6324  0.1504 -0.7478
  821SOL    HW2 2463   2.657   0.016   0.478 -2.6286 -0.0565  0.7493
  822SOL     OW 2464   0.990   2.649   2.531 -0.0292 -0.4595 -0.6182
  822SOL    HW1 2465   0.935   2.567   2.499 -1.6751  0.0166  3.5535
  822SOL    HW2 2466   0.925   2.729   2.538 -4.2031 -2.5395  0.4301
  823SOL     OW 2467   3.052   1.596   1.691  0.2249 -0.2049  0.5538
  823SOL    HW1 2468   2.987   1.577   1.768  3.2491  0.2594  0.7904
  823SOL    HW2 2469   3.021   1.566   1.597  2.1678  1.7923 -1.9282
  824SOL     OW 2470   0.881   2.941   2.144 -0.2769  0.0244  0.1060
  824SOL    HW1 2471   0.965   2.912   2.096 -1.7419 -0.1937  0.5262
  824SOL    HW2 2472   0.823   2.859   2.171 -2.0185 -1.5398  0.5732
  825SOL     OW 2473   1.215   1.755   0.006  0.3747 -0.0280  0.0739
  825SOL    HW1 2474   1.282   1.751   0.081 -3.0004 -0.4624 -0.7256
  825SOL    HW2 2475   1.262   1.744   3.025 -2.9089  0.5642 -1.3806
  826SOL     OW 2476   1.038   2.594   2.992 -0.1003 -0.5034  0.0683
  826SOL    HW1 2477   0.974   2.517   3.020  0.1840  1.7941  2.0761
  826SOL    HW2 2478   0.995   2.688   3.002 -1.2962  2.2507  0.3114
  827SOL     OW 2479   0.365   1.997   1.820  0.2890 -0.0729  0.0393
  827SOL    HW1 2480   0.388   1.923   1.890  2.2226 -2.7700  0.6518
  827SOL    HW2 2481   0.324   2.078   1.861 -1.0005  1.1951 -0.8295
  828SOL     OW 2482   3.006   1.744   1.090  0.0693  0.5013 -0.3166
  828SOL    HW1 2483   3.082   1.756   1.158  0.9937  0.9952  0.3318
  828SOL    HW2 2484   2.975   1.834   1.055 -0.8055  1.1279  2.5932
  829SOL     OW 2485   3.028   2.746   0.187  0.2748  0.3235 -0.0330
  829SOL    HW1 2486   0.017   2.774   0.221  1.7671  1.3855  0.8743
  829SOL    HW2 2487   3.017   2.645   0.183 -1.2847  2.0594 -0.8543
  830SOL     OW 2488   1.113   0.641   0.540  0.1922  0.1383 -0.0308
  830SOL    HW1 2489   1.201   0.673   0.578  0.1499  2.6406 -0.4050
  830SOL    HW2 2490   1.085   0.696   0.455  1.6107  0.4840  0.1028
  831SOL     OW 2491   3.024   2.486   0.137  0.2252  0.1479 -0.5262
  831SOL    HW1 2492   2.950   2.446   0.074 -2.6014  1.0901 -0.7821
  831SOL    HW2 2493   3.036   2.422   0.216  1.1248 -0.3230 -1.7702
  832SOL     OW 2494   1.638   2.451   0.536 -0.1729 -0.0751 -0.1996
  832SOL    HW1 2495   1.727   2.500   0.555 -1.8284  2.4775  1.2235
  832SOL    HW2 2496   1.613   2.393   0.617  1.0278  0.1811  3.4585
  833SOL     OW 2497   0.597   0.896   2.467 -0.0485  0.3269  0.0948
  833SOL    HW1 2498   0.694   0.866   2.471 -2.8315 -1.4047  2.0529
  833SOL    HW2 2499   0.597   0.992   2.428  0.5367  0.0652 -2.1140
  834SOL     OW 2500   2.652   0.782   0.717 -0.6767  0.2969  0.2109
  834SOL    HW1 2501   2.614   0.694   0.757 -1.8151 -1.7670 -1.4295
  834SOL    HW2 2502   2.657   0.853   0.794  0.0607  2.4341  3.6736
  835SOL     OW 2503   2.484   0.534   2.080 -0.2744  0.6162  0.0155
  835SOL    HW1 2504   2.389   0.528   2.039  0.0247 -1.4630  0.1997
  835SOL    HW2 2505   2.473   0.562   2.177  0.4789 -1.1820  0.7609
  836SOL     OW 2506   0.688   2.083   0.672  0.3030  0.4044 -0.1144
  836SOL    HW1 2507   0.618   2.067   0.598 -0.2395  3.5697 -1.2427
  836SOL    HW2 2508   0.676   2.026   0.756  1.1055 -0.7551  0.1061
  837SOL     OW 2509   2.393   1.703   1.992  0.0274  0.7688 -1.0297
  837SOL    HW1 2510   2.381   1.799   2.023 -1.4094 -2.6217 -0.5242
  837SOL    HW2 2511   2.305   1.651   2.003  0.5011  1.5827 -0.4423
  838SOL     OW 2512   0.227   1.057   2.213  0.9576 -0.1433  0.5633
  838SOL    HW1 2513   0.142   1.004   2.190  1.3654 -0.8555  1.3727
  838SOL    HW2 2514   0.295   1.064   2.137  1.1323  1.7291 -1.0017
  839SOL     OW 2515   0.596   3.076   2.942  0.4893 -0.1117 -1.2016
  839SOL    HW1 2516   0.600   3.014   2.865  1.5870 -2.1710  0.2364
  839SOL    HW2 2517   0.695   3.107   2.966  1.0668  1.6852 -1.4134
  840SOL     OW 2518   3.004   0.767   2.609  0.3069  0.0742  0.2793
  840SOL    HW1 2519   3.009   0.733   2.705  0.9959  1.6133 -0.3924
  840SOL    HW2 2520   2.910   0.791   2.588 -1.0699  0.8011  0.3876
  841SOL     OW 2521   0.673   2.086   2.616 -0.2087 -0.4569  0.1708
  841SOL    HW1 2522   0.644   2.166   2.671  1.2128 -1.9993  0.6591
  841SOL    HW2 2523   0.759   2.107   2.569 -0.9150 -1.0567 -2.0330
  842SOL     OW 2524   0.724   0.304   1.063  0.0688 -0.1783  0.8483
  842SOL    HW1 2525   0.646   0.311   1.126  2.3836 -2.2065 -2.2815
  842SOL    HW2 2526   0.804   0.352   1.095 -2.8736 -3.7138 -0.1441
  843SOL     OW 2527   0.235   1.624   2.497 -0.3094  0.5050 -0.1842
  843SOL    HW1 2528   0.161   1.693   2.511  1.2114  1.1835 -1.2923
  843SOL    HW2 2529   0.245   1.564   2.581  0.1749  0.6732  2.3654
  844SOL     OW 2530   1.528   1.901   2.254 -0.2370  0.1503 -0.1623
  844SOL    HW1 2531   1.507   1.968   2.182 -0.5354 -2.3005 -0.5351
  844SOL    HW2 2532   1.616   1.926   2.296 -0.5756 -0.1518  1.5781
  845SOL     OW 2533   2.538   2.863   2.500  0.4192  0.2069 -0.0293
  845SOL    HW1 2534   2.483   2.907   2.571  0.2869 -1.4236 -2.4255
  845SOL    HW2 2535   2.503   2.894   2.405  0.1800  1.0448 -1.5653
  846SOL     OW 2536   2.029   1.635   2.903 -0.1458 -0.4132 -0.0365
  846SOL    HW1 2537   2.025   1.701   2.827  2.8685 -0.4294 -1.1712
  846SOL    HW2 2538   1.995   1.678   2.989  0.6431  0.0586 -0.4146
  847SOL     OW 2539   2.513   0.152   2.764 -0.5995 -0.3918 -0.3986
  847SOL    HW1 2540   2.513   0.199   2.673  0.2347  1.7163 -0.1135
  847SOL    HW2 2541   2.547   0.057   2.756 -1.3852 -1.0639 -3.2017
  848SOL     OW 2542   2.468   0.572   0.378 -0.0877  0.4014 -0.2972
  848SOL    HW1 2543   2.441   0.504   0.304 -0.3510  0.8597 -0.4426
  848SOL    HW2 2544   2.424   0.541   0.459  1.5329 -0.1304 -1.0711
  849SOL     OW 2545   1.346   0.246   2.818 -0.7332 -0.1009  0.1798
  849SOL    HW1 2546   1.370   0.180   2.745 -0.8902 -1.5453  0.3746
  849SOL    HW2 2547   1.400   0.328   2.802 -0.3817  0.3625  0.8542
  850SOL     OW 2548   2.431   0.784   0.554 -0.2683  0.4800  0.2463
  850SOL    HW1 2549   2.456   0.711   0.487  1.2965  0.7850  0.8607
  850SOL    HW2 2550   2.497   0.784   0.631 -2.7300 -0.2530 -0.3231
  851SOL     OW 2551   3.054   1.073   0.866  0.4044  0.0775 -0.0717
  851SOL    HW1 2552   3.091   1.094   0.774 -3.7375 -0.7299  0.0088
  851SOL    HW2 2553   0.012   1.022   0.927  0.8252  0.7743  1.4588
  852SOL     OW 2554   1.346   0.888   2.112  0.4223 -0.3527 -0.0023
  852SOL    HW1 2555   1.324   0.988   2.091  0.2460  3.9396  0.3445
  852SOL    HW2 2556   1.261   0.833   2.105  0.2409 -1.4635 -1.0106
  853SOL     OW 2557   1.775   1.236   2.777  0.0407 -0.6636 -0.0579
  853SOL    HW1 2558   1.869   1.282   2.774  0.4527 -1.7769  0.3376
  853SOL    HW2 2559   1.728   1.233   2.687 -0.0858  1.6910  2.6901
  854SOL     OW 2560   1.385   1.123   1.843 -0.0170 -0.4068  0.1371
  854SOL    HW1 2561   1.364   1.054   1.773  1.8580 -1.1686 -1.2799
  854SOL    HW2 2562   1.322   1.105   1.922 -1.3943  0.3378 -0.2066
  855SOL     OW 2563   0.471   2.334   2.108  0.4436 -0.5710  0.2326
  855SOL    HW1 2564   0.411   2.274   2.051  0.0429 -1.8909  0.1005
  855SOL    HW2 2565   0.411   2.400   2.154 -0.4796 -1.4176  1.8267
  856SOL     OW 2566   1.329   1.127   2.306  0.3394 -0.2011 -0.5688
  856SOL    HW1 2567   1.267   1.181   2.370 -0.7603 -0.0270  0.1903
  856SOL    HW2 2568   1.313   1.130   2.207 -1.8192  1.1802 -1.5165
  857SOL     OW 2569   0.928   1.131   2.481 -0.0082  0.2922  0.6671
  857SOL    HW1 2570   0.902   1.146   2.579 -0.3917 -0.3082 -0.5497
  857SOL    HW2 2571   0.885   1.041   2.448 -1.9971  1.5703 -0.0623
  858SOL     OW 2572   0.098   0.505   1.741 -0.5236  0.1038 -0.0817
  858SOL    HW1 2573   0.007   0.462   1.733 -0.2991 -0.8211 -3.3440
  858SOL    HW2 2574   0.129   0.514   1.836 -1.4222 -1.5475 -2.5022
  859SOL     OW 2575   2.256   3.027   0.967 -0.0551  0.3270 -0.4720
  859SOL    HW1 2576   2.306   3.068   1.044 -1.9265 -0.5113  0.6692
  859SOL    HW2 2577   2.172   2.980   0.999 -1.5293  0.0081 -1.7195
  860SOL     OW 2578   1.367   0.579   1.478 -0.7856  0.1587  0.3892
  860SOL    HW1 2579   1.310   0.566   1.558  0.1992  2.4614 -0.9673
  860SOL    HW2 2580   1.460   0.555   1.507 -2.3784  0.6152 -0.3777
  861SOL     OW 2581   1.789   0.816   1.276 -0.0152 -0.3744  0.6359
  861SOL    HW1 2582   1.760   0.722   1.251  0.7217  0.3719  1.8466
  861SOL    HW2 2583   1.836   0.823   1.367 -0.9566  1.2832  1.2456
  862SOL     OW 2584   1.251   0.193   2.149  0.0343 -0.1232 -0.0083
  862SOL    HW1 2585   1.147   0.197   2.153 -0.8174  0.9824  1.7130
  862SOL    HW2 2586   1.294   0.216   2.240  1.2961 -1.6089 -0.6193
  863SOL     OW 2587   2.640   0.260   1.484  0.2824 -0.0574  0.0284
  863SOL    HW1 2588   2.581   0.299   1.563 -0.5648  0.0951  1.2134
  863SOL    HW2 2589   2.739   0.277   1.491 -2.4232 -0.8763  1.5697
  864SOL     OW 2590   2.955   2.959   2.371  0.4946 -0.0547 -0.2037
  864SOL    HW1 2591   2.891   2.880   2.388 -0.1470 -4.0501  1.4499
  864SOL    HW2 2592   2.929   3.003   2.281 -3.6744  2.4687 -0.8924
  865SOL     OW 2593   1.170   1.240   2.488 -0.3109 -0.0179  0.1357
  865SOL    HW1 2594   1.079   1.194   2.498 -0.8524 -0.1089 -0.4323
  865SOL    HW2 2595   1.162   1.341   2.481 -0.9937 -0.4024  0.8866
  866SOL     OW 2596   2.765   2.725   0.952 -0.0952  0.0110 -0.1101
  866SOL    HW1 2597   2.858   2.686   0.967 -1.3665 -1.3653  0.2157
  866SOL    HW2 2598   2.718   2.750   1.035 -2.6212 -2.1768 -1.2803
  867SOL     OW 2599   2.749   2.748   1.219 -0.0137  0.1582  0.8232
  867SOL    HW1 2600   2.840   2.784   1.193  2.0311  1.4096 -3.3947
  867SOL    HW2 2601   2.769   2.656   1.259  0.3639  1.6855 -1.0552
  868SOL     OW 2602   2.918   1.171   1.466  0.0334  0.2971 -0.0598
  868SOL    HW1 2603   2.826   1.210   1.451 -1.8293  0.6491 -0.4620
  868SOL    HW2 2604   2.927   1.075   1.418 -1.1050 -1.4621 -3.1110
  869SOL     OW 2605   2.279   2.109   2.337  0.1553  0.2516 -0.4472
  869SOL    HW1 2606   2.327   2.190   2.385  0.2413 -0.1620  1.8901
  869SOL    HW2 2607   2.302   2.017   2.376 -3.0170  0.2226 -0.7789
  870SOL     OW 2608   1.511   0.916   0.694 -0.3594  0.2282  0.3638
  870SOL    HW1 2609   1.594   0.926   0.748 -1.9954 -1.3225 -0.4939
  870SOL    HW2 2610   1.460   1.005   0.691  0.0773  2.2198  0.4952
  871SOL     OW 2611   2.638   1.751   1.877 -0.2755 -0.3816 -0.2112
  871SOL    HW1 2612   2.548   1.719   1.907 -0.2912  2.6722 -3.1935
  871SOL    HW2 2613   2.628   1.845   1.838 -0.4496  1.3385  1.5740
  872SOL     OW 2614   1.100   1.601   2.736  0.1920  0.2562  0.4305
  872SOL    HW1 2615   1.056   1.530   2.797 -0.2009 -2.4132  3.9621
  872SOL    HW2 2616   1.088   1.695   2.768  0.9220 -0.4627  0.3050
  873SOL     OW 2617   0.976   1.254   1.804 -0.6308 -0.5019 -0.4006
  873SOL    HW1 2618   1.034   1.230   1.887  0.4305 -2.1521  1.3743
  873SOL    HW2 2619   0.935   1.171   1.761 -2.7030 -1.2616  0.6997
  874SOL     OW 2620   1.348   0.801   1.295 -0.6498  0.5177 -0.0008
  874SOL    HW1 2621   1.339   0.757   1.388 -1.6590  0.2389  2.7489
  874SOL    HW2 2622   1.263   0.809   1.247 -0.3279 -0.0068  2.6214
  875SOL     OW 2623   2.578   2.987   2.731 -0.3217  0.7375  0.6370
  875SOL    HW1 2624   2.636   2.990   2.644  0.6059  0.1295 -0.2559
  875SOL    HW2 2625   2.625   2.918   2.794  1.4845 -1.6273 -1.1958
  876SOL     OW 2626   1.011   1.048   0.473 -0.6429  0.0570 -0.2018
  876SOL    HW1 2627   0.908   1.066   0.476 -4.6171  1.7926  1.2206
  876SOL    HW2 2628   1.065   1.134   0.495  0.2782 -2.0786  1.1316
  877SOL     OW 2629   1.878   2.866   0.485 -0.1101  0.6026  0.7999
  877SOL    HW1 2630   1.852   2.885   0.384  1.3028  0.4200 -2.0819
  877SOL    HW2 2631   1.973   2.903   0.515  1.4771  1.8979 -0.1946
  878SOL     OW 2632   2.426   2.051   0.115  0.4819 -0.2399 -0.0412
  878SOL    HW1 2633   2.388   1.969   0.160 -1.0910  0.8291 -1.5166
  878SOL    HW2 2634   2.350   2.120   0.109  1.2775  1.6606 -0.5503
  879SOL     OW 2635   0.392   2.542   1.609 -0.2724  0.1847  0.6001
  879SOL    HW1 2636   0.318   2.572   1.671 -1.7221 -0.7530  0.4173
  879SOL    HW2 2637   0.389   2.445   1.585  0.9789 -0.0920  2.0508
  880SOL     OW 2638   0.167   1.727   0.875 -0.1279  0.1244  0.3847
  880SOL    HW1 2639   0.153   1.809   0.932 -0.2285  0.4554 -0.7837
  880SOL    HW2 2640   0.253   1.730   0.824 -2.6908  0.8189 -0.5465
  881SOL     OW 2641   1.350   0.109   2.575  0.9930 -0.3076  0.3114
  881SOL    HW1 2642   1.257   0.072   2.556  2.9470  0.2968  0.6770
  881SOL    HW2 2643   1.388   0.185   2.518 -0.2453 -0.2435 -0.1806
  882SOL     OW 2644   2.564   1.279   0.471  0.2289  0.1185 -0.1999
  882SOL    HW1 2645   2.587   1.201   0.534  2.1169  0.8063  0.8431
  882SOL    HW2 2646   2.651   1.326   0.455 -2.7977  1.7845 -0.5108
  883SOL     OW 2647   1.459   0.724   2.337  0.1307  0.4740  0.2592
  883SOL    HW1 2648   1.406   0.762   2.410  2.1681  0.0986  0.7957
  883SOL    HW2 2649   1.445   0.779   2.253 -0.2934 -1.8588  0.5822
  884SOL     OW 2650   0.129   0.029   1.882 -0.3384 -0.3289  0.3239
  884SOL    HW1 2651   0.076   0.058   1.797 -1.5209  2.5330  0.6387
  884SOL    HW2 2652   0.228   0.008   1.868  0.6942 -0.4490 -0.2416
  885SOL     OW 2653   2.172   1.522   2.499 -0.0168 -0.1288 -0.1394
  885SOL    HW1 2654   2.096   1.553   2.442  2.5064 -0.7806 -2.1052
  885SOL    HW2 2655   2.147   1.442   2.555  0.1568  0.5912  1.0602
  886SOL     OW 2656   1.682   0.163   2.680 -0.2481  0.5127 -0.3541
  886SOL    HW1 2657   1.650   0.214   2.758  2.9633 -2.4172 -5.2809
  886SOL    HW2 2658   1.744   0.217   2.619 -0.5277 -0.5614  1.5412
  887SOL     OW 2659   1.085   2.778   1.594 -0.0989 -0.9674  0.4509
  887SOL    HW1 2660   1.167   2.841   1.587  3.0271  1.8867  0.2573
  887SOL    HW2 2661   1.108   2.696   1.655  1.2662 -3.5950  1.5083
  888SOL     OW 2662   2.428   1.219   1.525  0.3087  0.1890  0.0064
  888SOL    HW1 2663   2.365   1.273   1.467 -1.6083  2.6850  4.2330
  888SOL    HW2 2664   2.430   1.262   1.619 -0.8580 -0.0974 -0.8693
  889SOL     OW 2665   2.170   2.546   1.402  0.3883  0.0317 -0.1305
  889SOL    HW1 2666   2.138   2.511   1.311 -1.1692 -0.2939 -2.0679
  889SOL    HW2 2667   2.223   2.479   1.457  0.4789  0.8997  0.5100
  890SOL     OW 2668   0.961   2.348   0.979 -0.0857 -0.0478  0.4863
  890SOL    HW1 2669   1.014   2.271   0.940  0.8589  1.7054  0.6153
  890SOL    HW2 2670   1.030   2.409   1.031  0.3267  2.1569 -1.2887
  891SOL     OW 2671   2.561   1.396   0.144  0.6581  0.1569 -0.8699
  891SOL    HW1 2672   2.568   1.454   0.058 -1.1386  2.4701 -2.3160
  891SOL    HW2 2673   2.585   1.462   0.218  0.0195 -2.2257  0.4448
  892SOL     OW 2674   2.570   1.872   2.598  0.4650  0.7189  0.4328
  892SOL    HW1 2675   2.616   1.964   2.588  0.1108  1.4641  2.4283
  892SOL    HW2 2676   2.606   1.800   2.530  0.1994 -1.4110  0.1336
  893SOL     OW 2677   2.382   2.691   0.978 -0.5732  0.7715 -0.4249
  893SOL    HW1 2678   2.296   2.681   0.926  2.7495  1.2244 -0.2945
  893SOL    HW2 2679   2.402   2.602   1.024 -1.1449 -2.1433 -0.4147
  894SOL     OW 2680   2.906   0.830   0.633 -0.5373 -0.2409 -0.6540
  894SOL    HW1 2681   2.806   0.817   0.643 -1.9374  1.6379  1.0422
  894SOL    HW2 2682   2.958   0.747   0.662 -2.3060  0.5575 -0.1910
  895SOL     OW 2683   2.800   2.549   2.493  0.5099 -0.5926  0.2880
  895SOL    HW1 2684   2.827   2.645   2.467  2.2411 -0.1317  0.0357
  895SOL    HW2 2685   2.829   2.515   2.585  1.4099  0.8055  1.5220
  896SOL     OW 2686   2.228   2.537   2.519  0.2117  0.2205  0.2641
  896SOL    HW1 2687   2.315   2.563   2.558  0.4243 -2.0305 -0.5403
  896SOL    HW2 2688   2.155   2.522   2.590  0.0358  0.1593 -0.2231
  897SOL     OW 2689   0.405   1.810   2.010 -0.6485 -0.2823 -0.1408
  897SOL    HW1 2690   0.326   1.749   2.006 -1.9228  1.6016  0.6565
  897SOL    HW2 2691   0.493   1.760   2.034  2.5662 -1.9350 -0.1131
  898SOL     OW 2692   0.137   2.099   2.172 -0.1245  0.3136  0.3710
  898SOL    HW1 2693   0.119   2.008   2.126 -0.0355 -0.5163 -1.1902
  898SOL    HW2 2694   0.061   2.116   2.235  3.2248 -1.0317 -1.3036
  899SOL     OW 2695   1.897   0.001   1.191 -0.7307 -0.0852 -0.4394
  899SOL    HW1 2696   1.827   3.058   1.242 -0.1729  0.8219 -0.3134
  899SOL    HW2 2697   1.992   3.079   1.219  0.2332  0.1909  0.1938
  900SOL     OW 2698   1.416   1.057   0.395  0.8815  0.0364 -0.5734
  900SOL    HW1 2699   1.491   1.092   0.459  1.2931  1.2591  0.8878
  900SOL    HW2 2700   1.449   1.008   0.311 -1.0779 -0.7766 -0.1291
  901SOL     OW 2701   1.406   1.420   2.588 -0.1500 -0.0878  0.3810
  901SOL    HW1 2702   1.391   1.449   2.490  1.5401 -1.2855 -2.4355
  901SOL    HW2 2703   1.430   1.495   2.653 -0.5715  0.7000  2.4504
  902SOL     OW 2704   2.838   2.377   0.994  0.7269  0.2070 -0.2058
  902SOL    HW1 2705   2.905   2.454   0.979  1.3955 -1.1974  2.1123
  902SOL    HW2 2706   2.860   2.313   1.077 -0.8010 -1.8304  2.1722
  903SOL     OW 2707   3.070   1.302   1.904  0.2510 -0.4104 -0.4650
  903SOL    HW1 2708   3.045   1.400   1.896  1.4791 -1.0512 -2.3274
  903SOL    HW2 2709   3.066   1.268   2.001  3.2046  0.4284 -1.1007
  904SOL     OW 2710   1.008   1.584   0.109 -0.0993 -0.0568 -0.3860
  904SOL    HW1 2711   1.028   1.515   0.039 -0.4456 -0.4942  0.9622
  904SOL    HW2 2712   1.071   1.660   0.098 -0.0195 -1.8474 -1.4231
  905SOL     OW 2713   2.535   2.442   1.554 -0.6272 -0.3107  0.0950
  905SOL    HW1 2714   2.475   2.521   1.580  0.7657  0.1007 -3.1042
  905SOL    HW2 2715   2.621   2.455   1.607 -3.1538  0.1628 -2.1702
  906SOL     OW 2716   1.800   2.514   2.884 -0.2255 -1.0624 -0.3804
  906SOL    HW1 2717   1.790   2.440   2.951 -1.6724  1.7665 -2.1984
  906SOL    HW2 2718   1.855   2.594   2.923 -0.5547 -1.9558  0.3274
  907SOL     OW 2719   0.354   2.860   0.994  0.0540 -0.4254  0.4303
  907SOL    HW1 2720   0.415   2.828   1.074 -1.3454 -0.3250  1.4815
  907SOL    HW2 2721   0.397   2.836   0.906 -1.0775  0.6056 -0.3970
  908SOL     OW 2722   0.719   0.153   1.866  0.2891  0.6603 -0.5196
  908SOL    HW1 2723   0.731   0.116   1.962  0.7607  1.0067  1.4326
  908SOL    HW2 2724   0.739   0.084   1.796 -2.4063  3.5284  0.8621
  909SOL     OW 2725   1.694   0.425   1.378 -0.6399 -0.8643  0.0850
  909SOL    HW1 2726   1.798   0.435   1.380  1.0339 -0.8197 -0.5221
  909SOL    HW2 2727   1.663   0.464   1.286  1.6409  0.4778 -2.6370
  910SOL     OW 2728   0.747   0.413   0.280 -0.2769 -0.2637  0.1723
  910SOL    HW1 2729   0.754   0.504   0.325 -2.4757 -1.3532 -2.5433
  910SOL    HW2 2730   0.651   0.398   0.250 -0.1803  0.5394 -1.3443
  911SOL     OW 2731   0.387   0.143   2.902  0.2348  0.6512  0.0462
  911SOL    HW1 2732   0.304   0.091   2.922  0.6559  1.9694 -1.4663
  911SOL    HW2 2733   0.468   0.080   2.905 -0.9923 -0.5763  1.6665
  912SOL     OW 2734   2.814   2.547   2.765 -0.1194 -0.6814 -0.0036
  912SOL    HW1 2735   2.878   2.625   2.783  1.7983 -2.5886  1.1970
  912SOL    HW2 2736   2.754   2.527   2.846 -1.2488  0.8780  1.7610
  913SOL     OW 2737   2.491   2.629   0.152 -0.3759 -0.3992 -0.5908
  913SOL    HW1 2738   2.540   2.716   0.179  0.3234  4.5498  0.2807
  913SOL    HW2 2739   2.464   2.576   0.232  2.1984 -1.2275  1.0238
  914SOL     OW 2740   1.442   1.709   2.027  0.1156  0.0180  0.3998
  914SOL    HW1 2741   1.517   1.640   2.039 -0.9389 -0.6647 -1.5937
  914SOL    HW2 2742   1.410   1.754   2.113 -0.0842  1.1435 -0.7851
  915SOL     OW 2743   2.997   2.593   2.236  0.2206 -0.0855  0.0392
  915SOL    HW1 2744   3.076   2.654   2.196  2.7642  1.2064 -2.8905
  915SOL    HW2 2745   2.914   2.619   2.188  1.6076  0.8517  2.6277
  916SOL     OW 2746   3.075   0.652   1.981  0.5485 -0.3310  0.1367
  916SOL    HW1 2747   3.096   0.745   1.952 -0.7896 -2.1870 -0.4177
  916SOL    HW2 2748   0.054   0.615   2.010 -1.3534  1.8509 -0.3727
  917SOL     OW 2749   1.886   0.239   2.981  0.1426 -0.0704  0.0941
  917SOL    HW1 2750   1.881   0.246   3.084 -0.2389 -0.2737  0.7210
  917SOL    HW2 2751   1.807   0.282   2.934  0.7044 -2.4660  1.4943
  918SOL     OW 2752   1.973   2.481   2.312 -0.5152  0.1697 -0.3966
  918SOL    HW1 2753   2.018   2.495   2.404  1.0857 -0.8266  0.1335
  918SOL    HW2 2754   2.019   2.413   2.253 -1.5869  0.5128 -1.6944
  919SOL     OW 2755   1.887   1.954   1.797 -0.4765  0.1769 -0.7860
  919SOL    HW1 2756   1.901   1.913   1.705  0.9622  0.7331 -0.8737
  919SOL    HW2 2757   1.786   1.967   1.815 -2.6456  2.2878 -2.6746
  920SOL     OW 2758   0.353   1.036   0.087 -0.6773 -0.3598 -0.4215
  920SOL    HW1 2759   0.277   0.986   0.134 -1.8537 -1.7321  1.0306
  920SOL    HW2 2760   0.330   1.137   0.082 -2.0191  2.5150 -0.8906
  921SOL     OW 2761   2.581   1.110   2.422  0.5359  1.0130 -0.7690
  921SOL    HW1 2762   2.552   1.205   2.399 -3.1052  1.8824  1.0455
  921SOL    HW2 2763   2.677   1.101   2.447 -6.5799 -2.3604 -1.0463
  922SOL     OW 2764   0.494   1.876   0.216  0.3737  0.1834 -0.6875
  922SOL    HW1 2765   0.483   1.857   0.116 -0.7703  0.2040 -1.1002
  922SOL    HW2 2766   0.420   1.818   0.259  2.3563 -0.3412 -1.9419
  923SOL     OW 2767   0.714   0.925   2.109  0.5958  0.1923 -0.4080
  923SOL    HW1 2768   0.769   0.935   2.022  1.1276 -1.4445  1.9340
  923SOL    HW2 2769   0.723   0.828   2.143  1.1761 -2.3352 -1.0547
  924SOL     OW 2770   0.692   2.490   2.714 -0.1036 -0.3809  0.0116
  924SOL    HW1 2771   0.777   2.446   2.672 -1.4415 -0.1499  0.0263
  924SOL    HW2 2772   0.706   2.584   2.751  4.3807 -2.2522 -5.3600
  925SOL     OW 2773   1.668   1.301   1.031  0.1355 -0.6283 -0.0732
  925SOL    HW1 2774   1.652   1.257   0.942  0.3473 -1.8091  1.0893
  925SOL    HW2 2775   1.598   1.373   1.051  1.4717 -0.3011 -2.7666
  926SOL     OW 2776   1.545   0.468   2.383  0.2141 -0.5793  0.3534
  926SOL    HW1 2777   1.506   0.556   2.343 -0.6493  0.0213  0.3934
  926SOL    HW2 2778   1.597   0.493   2.469 -0.5795 -0.6922 -0.6391
  927SOL     OW 2779   2.809   2.693   2.062  0.5818 -0.2499  1.1037
  927SOL    HW1 2780   2.749   2.616   2.024 -0.9689 -0.3497  0.8121
  927SOL    HW2 2781   2.785   2.774   2.006 -0.2748 -0.0211  2.2207
  928SOL     OW 2782   0.266   1.063   2.902  0.0464  0.0452  0.2507
  928SOL    HW1 2783   0.182   1.116   2.912  1.0649 -0.5005 -2.5069
  928SOL    HW2 2784   0.320   1.045   2.985  0.7775  0.5938 -3.2123
  929SOL     OW 2785   3.088   0.241   0.754 -0.2912  0.4880 -0.1021
  929SOL    HW1 2786   0.067   0.193   0.747 -3.4560  4.6178  1.8473
  929SOL    HW2 2787   3.004   0.181   0.750 -1.8870  0.8917 -0.9099
  930SOL     OW 2788   2.178   0.113   1.991 -0.0276  0.6057  0.0657
  930SOL    HW1 2789   2.217   0.035   1.935  3.0082 -0.1678 -0.9461
  930SOL    HW2 2790   2.172   0.193   1.932  1.2518 -1.0416 -1.0245
  931SOL     OW 2791   2.269   1.147   3.096 -0.0686 -0.6926 -0.1730
  931SOL    HW1 2792   2.166   1.153   3.087  0.4070  1.8372  1.3472
  931SOL    HW2 2793   2.307   1.187   3.010  0.7157  2.2050 -2.0138
  932SOL     OW 2794   2.637   1.368   1.872 -0.6178 -0.1929 -0.2088
  932SOL    HW1 2795   2.716   1.438   1.850  1.4315  2.9576  0.0182
  932SOL    HW2 2796   2.646   1.277   1.833 -1.0551 -0.9384  1.5617
  933SOL     OW 2797   2.924   2.647   1.613  0.4607 -0.0648 -0.3860
  933SOL    HW1 2798   3.016   2.680   1.641  1.9050 -1.3082 -0.0097
  933SOL    HW2 2799   2.852   2.717   1.614 -0.9967 -0.3069 -2.5911
  934SOL     OW 2800   0.540   2.773   1.173 -0.1992 -0.3465  0.1163
  934SOL    HW1 2801   0.599   2.716   1.118  0.5816 -2.9679  2.1286
  934SOL    HW2 2802   0.596   2.798   1.251  0.7118 -2.4263 -0.8271
  935SOL     OW 2803   2.733   1.137   2.166  0.3709 -0.2213 -0.1141
  935SOL    HW1 2804   2.778   1.123   2.257 -1.3066 -0.2528 -0.3566
  935SOL    HW2 2805   2.738   1.234   2.136  0.4964 -1.4197 -0.4809
  936SOL     OW 2806   2.275   0.995   1.910  0.4934  0.3172  0.3803
  936SOL    HW1 2807   2.279   0.980   1.810 -0.4142 -1.5341 -2.4119
  936SOL    HW2 2808   2.368   1.023   1.939 -0.2899  0.3675  1.2339
  937SOL     OW 2809   1.927   1.005   2.137  0.0555 -0.4272  0.1211
  937SOL    HW1 2810   1.840   1.031   2.086 -2.3723 -0.0373 -0.0039
  937SOL    HW2 2811   1.976   0.933   2.087 -1.3886  1.6026  0.8579
  938SOL     OW 2812   0.809   2.742   3.068  0.3560 -0.1715 -0.1759
  938SOL    HW1 2813   0.756   2.652   3.080 -1.7439 -3.9948 -0.7817
  938SOL    HW2 2814   0.809   2.802   0.042 -0.1660 -0.1660 -1.6645
  939SOL     OW 2815   2.364   0.687   0.112 -0.1198 -0.0153  0.4675
  939SOL    HW1 2816   2.361   0.751   0.035 -0.5496 -1.6894 -1.1027
  939SOL    HW2 2817   2.382   0.728   0.205  2.0412 -1.8791 -2.1871
  940SOL     OW 2818   1.059   2.118   0.891 -0.2174 -0.1152 -0.1357
  940SOL    HW1 2819   1.003   2.060   0.948  0.1035  1.8228 -0.2891
  940SOL    HW2 2820   1.024   2.104   0.790  0.2861  0.4886 -3.5308
  941SOL     OW 2821   1.020   2.050   1.711 -0.1367  0.3941 -0.3813
  941SOL    HW1 2822   0.947   2.112   1.681  0.1403 -2.4687  2.8790
  941SOL    HW2 2823   0.994   1.958   1.676  0.8702  0.9185  0.3533
  942SOL     OW 2824   0.348   2.018   2.925 -0.0931 -0.1195 -0.3519
  942SOL    HW1 2825   0.363   1.954   2.848 -1.4070  2.4135  0.0275
  942SOL    HW2 2826   0.260   2.063   2.925 -1.1103 -0.6067 -0.7458
  943SOL     OW 2827   2.278   2.997   1.833  0.7069  0.1157 -0.3862
  943SOL    HW1 2828   2.209   2.922   1.806  0.5502  0.1060  1.3277
  943SOL    HW2 2829   2.291   3.048   1.746 -1.9351 -1.5827 -0.5222
  944SOL     OW 2830   1.492   1.989   2.873  0.2025 -0.1860  0.5182
  944SOL    HW1 2831   1.567   1.989   2.938  0.6985 -1.8487 -0.7446
  944SOL    HW2 2832   1.439   2.077   2.883  0.9361  0.1343  0.0043
  945SOL     OW 2833   2.509   2.565   0.643 -0.4581 -0.0625  0.0627
  945SOL    HW1 2834   2.525   2.493   0.717 -0.0490 -0.0023  1.5523
  945SOL    HW2 2835   2.557   2.655   0.658 -1.1306  0.2147  2.2592
  946SOL     OW 2836   1.136   1.523   2.486 -0.3215 -0.1171  0.1370
  946SOL    HW1 2837   1.093   1.598   2.432  0.0434  0.3122  2.0571
  946SOL    HW2 2838   1.127   1.534   2.584 -0.2150 -1.6110 -3.6015
  947SOL     OW 2839   0.228   0.559   2.034 -0.0200 -0.2849  0.0102
  947SOL    HW1 2840   0.268   0.650   2.048 -2.7985 -1.4315 -2.1122
  947SOL    HW2 2841   0.272   0.484   2.086  0.9982  1.2073  1.2362
  948SOL     OW 2842   2.915   1.310   0.926  0.5529  0.3210  0.0902
  948SOL    HW1 2843   2.941   1.215   0.913  0.8722 -1.2955  1.5902
  948SOL    HW2 2844   2.822   1.325   0.894  3.4414  1.8604  0.1175
  949SOL     OW 2845   0.885   0.739   2.225  0.1137 -0.1963 -0.1048
  949SOL    HW1 2846   0.840   0.649   2.228 -1.1936  1.1897 -1.7427
  949SOL    HW2 2847   0.963   0.734   2.162 -0.3777  2.2177  4.8840
  950SOL     OW 2848   0.134   0.739   1.551  0.2512 -0.1722  0.9804
  950SOL    HW1 2849   0.048   0.796   1.562  1.0270  1.1860  1.5734
  950SOL    HW2 2850   0.128   0.654   1.611 -0.8392  2.7126  0.3767
  951SOL     OW 2851   0.453   1.149   2.703  0.1339 -0.3151  0.0400
  951SOL    HW1 2852   0.418   1.120   2.615 -0.5918  1.5679  1.7632
  951SOL    HW2 2853   0.396   1.113   2.781 -0.9617  2.8398 -1.5421
  952SOL     OW 2854   1.749   2.078   0.834 -0.1523  0.1011  0.0003
  952SOL    HW1 2855   1.684   2.088   0.910  1.3889 -0.1118 -1.3426
  952SOL    HW2 2856   1.840   2.102   0.865 -0.4519 -1.0417 -0.3869
  953SOL     OW 2857   0.590   3.094   0.211  0.9614 -0.8857 -0.2060
  953SOL    HW1 2858   0.607   3.063   0.305 -0.5123  1.0078  0.1811
  953SOL    HW2 2859   0.496   3.073   0.182 -2.8939  1.3311  0.6076
  954SOL     OW 2860   2.466   0.760   1.062  0.0279  0.2724  0.1563
  954SOL    HW1 2861   2.476   0.784   1.160 -0.4544 -0.1375 -2.0577
  954SOL    HW2 2862   2.457   0.660   1.049 -1.6411 -1.6650 -0.4689
  955SOL     OW 2863   1.592   1.451   2.870  0.4158 -0.0237  0.2318
  955SOL    HW1 2864   1.645   1.368   2.845  0.9220 -1.1434  1.2989
  955SOL    HW2 2865   1.513   1.427   2.937 -1.2199 -1.6684  1.8517
  956SOL     OW 2866   1.079   0.689   2.609  0.0873 -0.0687 -0.0361
  956SOL    HW1 2867   1.129   0.765   2.560  1.4504  0.6515  1.6603
  956SOL    HW2 2868   1.106   0.599   2.568 -2.0563 -0.0529 -0.8999
  957SOL     OW 2869   1.331   0.119   1.642 -0.3878  0.2070  0.0505
  957SOL    HW1 2870   1.328   0.104   1.743 -2.4642  2.1305 -0.1796
  957SOL    HW2 2871   1.397   0.195   1.622  1.3099 -0.9767 -0.4490
  958SOL     OW 2872   0.303   2.250   0.503 -0.3429  0.0400 -0.0665
  958SOL    HW1 2873   0.339   2.161   0.481 -2.7263  0.9744  1.3493
  958SOL    HW2 2874   0.230   2.279   0.436  1.6829  0.4172 -0.4485
  959SOL     OW 2875   1.972   0.840   1.813 -0.4075 -0.0225 -0.2658
  959SOL    HW1 2876   2.048   0.846   1.882 -0.0749 -0.3389  1.7580
  959SOL    HW2 2877   1.936   0.743   1.822  1.4132  0.6931  1.0103
  960SOL     OW 2878   0.112   1.738   2.866 -0.2987  0.2777 -0.4554
  960SOL    HW1 2879   0.181   1.801   2.818  0.1989  0.1074 -2.3792
  960SOL    HW2 2880   0.128   1.729   2.968 -0.4008  0.0203 -1.1196
  961SOL     OW 2881   0.743   1.960   0.945  0.2767 -0.0284  0.0895
  961SOL    HW1 2882   0.727   2.041   1.001 -0.8696 -1.5170  2.8892
  961SOL    HW2 2883   0.826   1.912   0.969  2.0299  1.4255 -0.4755
  962SOL     OW 2884   0.255   1.520   1.437  0.3432 -0.0324  0.0305
  962SOL    HW1 2885   0.278   1.554   1.343 -0.8288 -3.2690  2.2769
  962SOL    HW2 2886   0.174   1.458   1.430 -0.6861 -0.8261  0.3848
  963SOL     OW 2887   1.363   2.017   2.631 -0.4057  0.4177 -0.4780
  963SOL    HW1 2888   1.347   1.928   2.590 -1.9386  2.1990  2.0473
  963SOL    HW2 2889   1.435   2.009   2.699 -1.4112 -2.4183  0.2208
  964SOL     OW 2890   0.242   3.056   2.237 -0.0016  0.2183 -0.0747
  964SOL    HW1 2891   0.174   2.984   2.258  1.3675 -0.9214 -0.2583
  964SOL    HW2 2892   0.256   0.004   2.321 -1.5139 -0.0760 -0.8630
  965SOL     OW 2893   3.060   2.390   2.931 -0.0621  0.2293  0.2820
  965SOL    HW1 2894   2.974   2.421   2.973  0.4100 -0.4282 -0.4392
  965SOL    HW2 2895   3.050   2.357   2.832  0.2661 -2.0080 -3.2229
  966SOL     OW 2896   2.802   1.599   2.818 -0.2893  0.4368  0.3360
  966SOL    HW1 2897   2.704   1.609   2.842  0.2204 -0.2470  0.9590
  966SOL    HW2 2898   2.844   1.551   2.897  1.5272  1.1664  1.2284
  967SOL     OW 2899   1.883   0.252   0.137  0.7837  0.1659  0.8106
  967SOL    HW1 2900   1.890   0.347   0.171 -0.2155  0.2343 -0.4404
  967SOL    HW2 2901   1.805   0.198   0.186 -0.4340 -1.9262  0.2866
  968SOL     OW 2902   2.641   0.060   0.854  0.1533  0.1035  0.0479
  968SOL    HW1 2903   2.699   0.052   0.939 -0.6709 -2.2714  0.0331
  968SOL    HW2 2904   2.565   0.127   0.865 -0.0430 -1.2995  1.7687
  969SOL     OW 2905   0.429   1.064   2.032 -0.2771  0.5457 -0.3463
  969SOL    HW1 2906   0.351   1.082   1.969  0.1780 -1.0362  2.2893
  969SOL    HW2 2907   0.519   1.072   1.985 -3.0618 -0.4264 -0.4707
  970SOL     OW 2908   1.686   1.707   2.839  0.0135 -0.1369 -0.2637
  970SOL    HW1 2909   1.639   1.621   2.871 -2.7540 -1.0650  1.5124
  970SOL    HW2 2910   1.717   1.773   2.912  0.4015 -0.5776 -0.9406
  971SOL     OW 2911   2.271   0.200   1.648  0.2716  0.0773 -0.1504
  971SOL    HW1 2912   2.202   0.262   1.609  0.7900 -0.9551 -0.7634
  971SOL    HW2 2913   2.259   0.107   1.609 -1.6770 -2.8216  0.4788
  972SOL     OW 2914   2.864   0.379   0.861  0.2022 -0.9362 -0.0144
  972SOL    HW1 2915   2.821   0.409   0.767 -4.6547  2.2389 -2.0455
  972SOL    HW2 2916   2.951   0.334   0.855 -1.6173 -0.8918 -1.0854
  973SOL     OW 2917   0.362   0.469   2.415 -0.2203  0.6037 -0.2293
  973SOL    HW1 2918   0.376   0.437   2.318 -2.6916 -2.2445  1.2800
  973SOL    HW2 2919   0.391   0.392   2.480  3.4384 -0.6295  0.7266
  974SOL     OW 2920   2.696   1.094   1.765 -0.1873  0.1718  0.1923
  974SOL    HW1 2921   2.669   1.033   1.846 -0.5785 -0.0990 -1.7834
  974SOL    HW2 2922   2.798   1.105   1.759 -0.0871  0.9961  0.2821
  975SOL     OW 2923   1.309   2.780   1.843 -0.1331  0.3401  0.3245
  975SOL    HW1 2924   1.350   2.814   1.758  0.5192 -1.2776  1.6519
  975SOL    HW2 2925   1.276   2.685   1.827  2.1442  1.4630 -1.4506
  976SOL     OW 2926   1.803   1.456   1.443 -0.0346 -0.2054  0.1725
  976SOL    HW1 2927   1.896   1.419   1.473  1.5890  0.2280  3.3096
  976SOL    HW2 2928   1.733   1.464   1.517 -0.7845 -0.2780  0.4651
  977SOL     OW 2929   0.398   2.918   0.012  0.1826  0.2550 -0.2987
  977SOL    HW1 2930   0.456   2.980   3.061  0.1331 -0.3227  0.8765
  977SOL    HW2 2931   0.454   2.849   0.062  0.9114 -1.6054 -3.4293
  978SOL     OW 2932   1.972   1.625   2.036  0.7137  0.2034 -0.3192
  978SOL    HW1 2933   2.051   1.565   2.005  1.3711 -0.2208 -1.7008
  978SOL    HW2 2934   1.882   1.608   1.988 -1.9171 -1.9312 -0.0557
  979SOL     OW 2935   1.595   0.806   2.064 -0.5350 -0.2268 -0.5503
  979SOL    HW1 2936   1.498   0.837   2.079 -1.2018 -0.1633  0.9387
  979SOL    HW2 2937   1.647   0.869   2.002 -0.8759 -1.1289 -1.1281
  980SOL     OW 2938   1.761   1.993   2.396  0.3892 -0.2184 -0.4144
  980SOL    HW1 2939   1.841   2.060   2.396 -2.5130  1.1463 -2.8655
  980SOL    HW2 2940   1.753   1.963   2.493  1.6345 -4.8998  2.9070
  981SOL     OW 2941   1.598   0.598   1.888  0.1571 -0.2615  0.4654
  981SOL    HW1 2942   1.533   0.618   1.815  3.3732 -0.5230 -0.2708
  981SOL    HW2 2943   1.587   0.655   1.975 -1.7207  0.7873  0.1546
  982SOL     OW 2944   0.469   0.430   0.197 -0.0349 -0.0583 -0.4915
  982SOL    HW1 2945   0.417   0.392   0.276  1.0037  1.7822 -1.3289
  982SOL    HW2 2946   0.438   0.387   0.112  0.0903 -2.1215  1.2723
  983SOL     OW 2947   2.000   0.970   0.110  0.3602  0.6881  0.3233
  983SOL    HW1 2948   2.010   1.042   0.039  0.0143  1.3612 -1.6954
  983SOL    HW2 2949   2.028   0.880   0.073  0.3218  2.0644 -0.8216
  984SOL     OW 2950   0.928   0.261   2.846  0.7176 -0.5700  0.0484
  984SOL    HW1 2951   0.942   0.253   2.746 -1.3351  2.5107  0.2895
  984SOL    HW2 2952   1.002   0.211   2.898  1.2533  2.1893  0.7998
  985SOL     OW 2953   1.522   2.107   2.052 -0.1205  0.1762  0.4891
  985SOL    HW1 2954   1.527   2.049   1.967 -1.5074 -2.6269 -0.5874
  985SOL    HW2 2955   1.610   2.152   2.075 -1.9087 -0.0316  0.2180
  986SOL     OW 2956   2.430   2.655   1.861  0.4749 -0.9775  0.3037
  986SOL    HW1 2957   2.438   2.744   1.917  0.3700  1.4200  1.9672
  986SOL    HW2 2958   2.354   2.600   1.895 -0.6301 -2.0246 -0.2530
  987SOL     OW 2959   1.879   1.058   0.932  0.1082 -0.4005  0.4880
  987SOL    HW1 2960   1.951   0.996   0.964  0.6910  1.8881  1.5928
  987SOL    HW2 2961   1.788   1.021   0.966 -1.9867 -2.4706 -0.9101
  988SOL     OW 2962   2.534   1.464   2.103 -0.5463 -0.0680  0.3184
  988SOL    HW1 2963   2.480   1.548   2.094  0.3512  0.7294  0.5362
  988SOL    HW2 2964   2.561   1.433   2.008 -0.6640  1.7382 -1.1128
  989SOL     OW 2965   1.662   2.237   0.350 -0.1455  0.0344  0.2800
  989SOL    HW1 2966   1.614   2.243   0.258 -1.4047 -0.3747 -1.1685
  989SOL    HW2 2967   1.639   2.322   0.410  0.0935  0.7309  1.8611
  990SOL     OW 2968   1.754   0.767   2.672  0.6780  0.3536 -0.5793
  990SOL    HW1 2969   1.671   0.822   2.654  2.8632 -1.2072  0.9896
  990SOL    HW2 2970   1.791   0.791   2.764 -0.6381  2.2083  3.7514
  991SOL     OW 2971   0.858   0.719   0.660 -0.1429 -0.2373 -0.6066
  991SOL    HW1 2972   0.838   0.819   0.646  1.7473  0.1014  1.0525
  991SOL    HW2 2973   0.954   0.702   0.634  1.3319  1.2388 -1.8241
  992SOL     OW 2974   2.946   0.935   1.339 -0.0876 -0.0649  0.0064
  992SOL    HW1 2975   2.886   0.986   1.273 -0.6548 -2.3624 -0.1166
  992SOL    HW2 2976   2.963   0.842   1.299  1.3705 -0.3174  2.0414
  993SOL     OW 2977   2.248   0.589   1.935 -0.3705  0.0089 -0.2721
  993SOL    HW1 2978   2.169   0.519   1.931  0.7351  0.3242 -0.9741
  993SOL    HW2 2979   2.288   0.607   1.841  0.7588  0.1807 -2.4917
  994SOL     OW 2980   1.036   1.614   1.738 -0.4475 -0.6153  0.0012
  994SOL    HW1 2981   1.123   1.631   1.789 -1.8867 -0.3678  2.7537
  994SOL    HW2 2982   0.969   1.577   1.801  0.7787  1.8941 -3.5252
  995SOL     OW 2983   2.229   1.491   2.777  0.6514 -0.4907  0.2882
  995SOL    HW1 2984   2.276   1.558   2.719  0.8157 -1.5989  2.9440
  995SOL    HW2 2985   2.154   1.534   2.827  0.3533  2.0530 -0.3059
  996SOL     OW 2986   2.106   1.752   0.446 -0.2076 -0.0483 -0.1671
  996SOL    HW1 2987   2.144   1.836   0.493 -0.0254  1.9101 -0.0413
  996SOL    HW2 2988   2.172   1.694   0.395  2.1710  0.2993 -0.8023
  997SOL     OW 2989   2.077   0.391   1.912 -0.0487 -0.3965  0.3512
  997SOL    HW1 2990   2.029   0.409   2.000 -1.3954  0.9747 -0.1020
  997SOL    HW2 2991   2.021   0.326   1.855 -1.9846  2.4107  1.8626
  998SOL     OW 2992   2.557   1.073   0.660  0.2588 -0.0674 -0.8038
  998SOL    HW1 2993   2.519   1.025   0.741  0.6182 -1.5996  0.5829
  998SOL    HW2 2994   2.567   1.013   0.579 -2.0726 -1.6717 -0.1191
  999SOL     OW 2995   2.614   1.603   0.324  0.3383  0.0694  0.3086
  999SOL    HW1 2996   2.609   1.698   0.278 -2.7578  0.0749 -0.7114
  999SOL    HW2 2997   2.612   1.611   0.427 -0.2406 -0.5832 -0.2890
 1000SOL     OW 2998   0.775   0.984   1.865  0.3766  0.9404  0.0266
 1000SOL    HW1 2999   0.775   0.905   1.804  0.1108  1.6531  2.8939
 1000SOL    HW2 3000   0.697   1.042   1.833 -0.8177  3.4652  0.4115
   3.10798   3.10798   3.10798
