1000 SPC/Fw water molecules t= 121.00000 step= 121000
 3000
    1SOL     OW    1   2.181   2.112   0.824 -0.2479  0.2720  0.2207
    1SOL    HW1    2   2.223   2.102   0.726  2.9678  2.4016 -0.5032
    1SOL    HW2    3   2.191   2.019   0.871 -0.5075 -3.3123  3.0607
    2SOL     OW    4   1.382   1.797   2.274  0.0538  0.3513  0.5158
    2SOL    HW1    5   1.287   1.777   2.303 -0.6452 -3.7742 -1.3886
    2SOL    HW2    6   1.427   1.709   2.251  0.7312 -0.9663  0.8338
    3SOL     OW    7   1.393   2.441   2.281  0.0474 -0.1591  0.4268
    3SOL    HW1    8   1.312   2.414   2.230  0.9643 -0.2553  1.0214
    3SOL    HW2    9   1.438   2.358   2.318 -0.5413  1.0645  0.9626
    4SOL     OW   10   1.173   2.260   1.847 -0.2848  0.2823  0.7392
    4SOL    HW1   11   1.223   2.188   1.793 -0.6483  0.7123  1.7086
    4SOL    HW2   12   1.144   2.329   1.777 -3.0165  0.7437  1.4809
    5SOL     OW   13   0.630   0.913   1.687 -0.0365  0.0658 -0.1341
    5SOL    HW1   14   0.678   0.962   1.760 -0.0938  0.1872 -0.1949
    5SOL    HW2   15   0.543   0.959   1.666  1.2937 -0.0875 -1.0622
    6SOL     OW   16   2.303   0.912   0.054  0.4375  0.7123 -0.3816
    6SOL    HW1   17   2.236   0.863   3.101  2.5350  1.4600 -0.2965
    6SOL    HW2   18   2.351   0.845   0.116  0.3892 -1.7843 -0.9870
    7SOL     OW   19   0.861   0.320   1.483  0.2144  0.1035  0.0881
    7SOL    HW1   20   0.936   0.326   1.555  0.2542 -1.2012  1.7167
    7SOL    HW2   21   0.805   0.247   1.517  3.9294  1.6493 -0.6268
    8SOL     OW   22   1.367   0.150   1.654  0.4638 -0.1732  0.1875
    8SOL    HW1   23   1.368   0.170   1.556  0.5106 -3.0575  1.5477
    8SOL    HW2   24   1.454   0.174   1.697 -1.0224  0.3587 -0.9384
    9SOL     OW   25   0.572   0.728   0.601 -0.1429 -0.0019 -0.3416
    9SOL    HW1   26   0.670   0.745   0.617  0.9399  0.5154 -0.1458
    9SOL    HW2   27   0.513   0.794   0.655 -2.0862 -0.4831  0.1046
   10SOL     OW   28   0.505   2.392   2.417  0.1045  0.3967 -0.9428
   10SOL    HW1   29   0.507   2.365   2.518 -1.8714 -0.9813  3.0225
   10SOL    HW2   30   0.431   2.450   2.389  0.3734  2.0636  4.3615
   11SOL     OW   31   0.397   1.989   2.836  0.0715 -0.5135 -0.1603
   11SOL    HW1   32   0.477   1.973   2.774 -1.8592 -0.4580  3.6109
   11SOL    HW2   33   0.411   1.938   2.926  1.4844  0.6714 -0.3681
   12SOL     OW   34   0.196   3.094   1.429  0.2890  0.0354 -0.4662
   12SOL    HW1   35   0.297   3.106   1.412 -1.0205  2.1522 -1.6187
   12SOL    HW2   36   0.180   2.999   1.412 -1.6366 -0.2498 -0.1649
   13SOL     OW   37   0.962   2.683   0.005 -0.2538 -0.0764  0.4814
   13SOL    HW1   38   0.996   2.597   3.072 -0.4266 -2.1257  0.4076
   13SOL    HW2   39   0.905   2.736   3.048  0.7459 -1.2115  1.4853
   14SOL     OW   40   1.540   1.575   0.993  0.3821  0.3591 -0.9466
   14SOL    HW1   41   1.561   1.514   1.076  1.0097 -2.2028  1.3565
   14SOL    HW2   42   1.444   1.604   1.008 -0.2566  0.2065  1.8413
   15SOL     OW   43   2.757   1.218   2.077  0.1824  0.6285 -0.1171
   15SOL    HW1   44   2.853   1.186   2.101  0.7522 -0.5174 -2.8917
   15SOL    HW2   45   2.732   1.298   2.133  0.3982  0.0163 -0.6518
   16SOL     OW   46   1.220   2.902   2.915  0.4434  0.1729 -0.1514
   16SOL    HW1   47   1.154   2.822   2.924  0.2033  0.4901  0.7702
   16SOL    HW2   48   1.180   2.971   2.851  0.2307 -0.7880 -1.6767
   17SOL     OW   49   0.586   2.418   2.037  0.4499 -0.3635  0.1816
   17SOL    HW1   50   0.631   2.384   2.120 -0.6808  0.1087  0.1815
   17SOL    HW2   51   0.492   2.381   2.035 -0.6907 -0.8862  1.4446
   18SOL     OW   52   1.780   0.848   0.245 -0.2064  0.2680  0.2911
   18SOL    HW1   53   1.742   0.937   0.259 -0.2673 -0.1539  0.1435
   18SOL    HW2   54   1.813   0.838   0.149  2.4347  0.1480  1.3164
   19SOL     OW   55   2.310   1.874   2.673 -0.3751 -0.6995 -0.0635
   19SOL    HW1   56   2.288   1.831   2.761  0.7770  2.0124 -1.7626
   19SOL    HW2   57   2.399   1.931   2.681 -4.3250  0.4978 -0.0295
   20SOL     OW   58   2.445   2.184   2.346 -0.3876 -0.2579  0.4256
   20SOL    HW1   59   2.426   2.261   2.408  0.0928  1.5217 -0.0205
   20SOL    HW2   60   2.518   2.128   2.388  0.6580  1.2069  0.9327
   21SOL     OW   61   0.567   1.946   0.168  0.3047  0.2149  0.4152
   21SOL    HW1   62   0.559   2.043   0.199  0.4997  1.6286 -1.8110
   21SOL    HW2   63   0.543   1.881   0.242  1.1725  0.5161  4.7939
   22SOL     OW   64   2.423   2.652   1.146 -0.3389 -0.3620  0.2729
   22SOL    HW1   65   2.503   2.699   1.186  0.5140 -2.3103  0.0029
   22SOL    HW2   66   2.336   2.703   1.172 -1.1992 -0.2183 -1.5403
   23SOL     OW   67   0.413   1.353   1.521 -0.1731 -0.1430 -0.1883
   23SOL    HW1   68   0.383   1.386   1.616  2.6803  0.5929  2.5230
   23SOL    HW2   69   0.511   1.376   1.506  0.4108  0.1209  0.4922
   24SOL     OW   70   2.045   2.018   1.727  0.3036  0.3633  0.0166
   24SOL    HW1   71   2.025   1.924   1.696  1.6915  2.2493  2.3681
   24SOL    HW2   72   2.071   2.022   1.822  0.5403  1.1137 -0.1808
   25SOL     OW   73   1.849   0.101   2.655  0.0090 -0.0455 -0.1697
   25SOL    HW1   74   1.836   0.201   2.635 -0.4156 -1.8180  1.4321
   25SOL    HW2   75   1.810   0.040   2.582 -1.9270  2.6072  0.4279
   26SOL     OW   76   1.564   2.975   0.931 -0.5375 -0.1413 -0.3019
   26SOL    HW1   77   1.617   2.948   0.848  1.7846  0.6729 -0.8871
   26SOL    HW2   78   1.567   3.075   0.955  0.9876 -3.8779  0.9653
   27SOL     OW   79   1.103   1.830   3.072  0.2811 -0.6838 -0.3897
   27SOL    HW1   80   1.145   1.878   0.047  2.7304 -1.1543 -0.1547
   27SOL    HW2   81   0.999   1.825   3.077  1.7185  0.4642  2.7843
   28SOL     OW   82   2.799   1.933   1.282  0.7534 -0.0026  0.1082
   28SOL    HW1   83   2.763   1.847   1.323  0.6885 -0.2992  1.0156
   28SOL    HW2   84   2.894   1.953   1.318  1.7687  0.7466  0.2350
   29SOL     OW   85   2.260   2.658   1.969  0.2977 -0.2553  0.3540
   29SOL    HW1   86   2.255   2.555   1.968 -0.6062  0.8500  0.7811
   29SOL    HW2   87   2.340   2.677   2.037 -0.9784  0.7208  3.9716
   30SOL     OW   88   1.061   2.770   1.179  0.1021 -0.0673  0.2586
   30SOL    HW1   89   1.119   2.712   1.117 -0.1734  0.3962  0.1653
   30SOL    HW2   90   1.039   2.860   1.132 -0.0894  1.9959 -0.9293
   31SOL     OW   91   3.063   2.298   2.148  0.1194 -0.3227  0.1743
   31SOL    HW1   92   0.038   2.251   2.170 -0.9204  0.3676  1.9033
   31SOL    HW2   93   3.086   2.379   2.095 -1.1883  0.3345  4.4768
   32SOL     OW   94   1.514   1.234   1.928  0.3846  0.2283  0.1985
   32SOL    HW1   95   1.492   1.142   1.964  0.5292  1.2483 -1.8075
   32SOL    HW2   96   1.437   1.295   1.931  1.7828 -2.6934  0.4106
   33SOL     OW   97   0.169   3.041   2.711 -0.5793 -0.5074 -0.3710
   33SOL    HW1   98   0.257   3.097   2.694  0.2863 -3.3856  0.6175
   33SOL    HW2   99   0.174   2.955   2.653  0.5571 -0.5177 -0.6004
   34SOL     OW  100   1.753   0.146   1.465  0.2124  0.1379  0.5716
   34SOL    HW1  101   1.814   0.223   1.500 -1.4556 -3.0515  0.7281
   34SOL    HW2  102   1.809   0.059   1.466 -1.4782  0.9117  1.9699
   35SOL     OW  103   2.310   0.591   1.357 -0.2092 -0.3563  0.1762
   35SOL    HW1  104   2.275   0.638   1.441 -1.9812  3.6194 -2.7977
   35SOL    HW2  105   2.300   0.655   1.275 -0.4931  0.9467 -1.0147
   36SOL     OW  106   2.428   2.957   2.345  0.1373  0.2130  0.2270
   36SOL    HW1  107   2.355   2.904   2.389 -1.1078 -1.0246  0.0895
   36SOL    HW2  108   2.497   2.980   2.418 -0.1008 -3.4600  1.0490
   37SOL     OW  109   1.135   2.194   2.918  0.0144 -0.5825 -0.0669
   37SOL    HW1  110   1.122   2.120   2.987  0.1236 -0.7670  1.8819
   37SOL    HW2  111   1.059   2.185   2.851  0.3092 -3.1335  0.1886
   38SOL     OW  112   2.969   0.954   2.683  0.1311 -0.2929  0.6439
   38SOL    HW1  113   2.963   0.854   2.696 -0.6262 -1.9767  0.9120
   38SOL    HW2  114   2.911   0.995   2.754 -1.4888  0.6089  2.1114
   39SOL     OW  115   2.099   2.094   2.276  0.0051  0.0268 -0.4051
   39SOL    HW1  116   2.026   2.024   2.265  0.2627  1.0358 -0.7452
   39SOL    HW2  117   2.152   2.076   2.365 -0.2974 -0.5038  3.4696
   40SOL     OW  118   0.451   0.311   3.063 -0.2905 -0.1390 -0.1048
   40SOL    HW1  119   0.546   0.277   3.072  1.4259  1.8666 -1.0486
   40SOL    HW2  120   0.392   0.255   0.018  1.1285  0.5277 -0.7290
   41SOL     OW  121   1.402   0.907   1.457 -0.1126 -0.1415  0.5407
   41SOL    HW1  122   1.487   0.923   1.407 -0.2564 -0.3358  0.7852
   41SOL    HW2  123   1.415   0.905   1.555  0.5187  1.0496 -1.0521
   42SOL     OW  124   0.270   0.239   2.009  0.0020 -0.2191  0.3738
   42SOL    HW1  125   0.205   0.314   2.026  1.0352  0.9419  1.3102
   42SOL    HW2  126   0.339   0.238   2.080 -0.3579  0.4781 -3.8099
   43SOL     OW  127   1.582   1.302   2.184 -0.1069 -0.0741 -0.2548
   43SOL    HW1  128   1.510   1.363   2.222 -2.5968 -0.7012  0.4682
   43SOL    HW2  129   1.558   1.268   2.089 -0.0528 -0.1957 -0.3471
   44SOL     OW  130   2.853   2.835   2.901  0.0405 -0.1961  0.5285
   44SOL    HW1  131   2.902   2.922   2.907 -0.3349 -1.3583 -0.3792
   44SOL    HW2  132   2.892   2.772   2.975  0.2139 -1.3874 -0.0141
   45SOL     OW  133   0.751   2.299   1.425  0.4092 -0.2305  0.0984
   45SOL    HW1  134   0.832   2.312   1.362  1.9846 -0.6344 -1.4440
   45SOL    HW2  135   0.763   2.202   1.456  0.6109  2.2844  0.7577
   46SOL     OW  136   2.624   2.573   1.920 -0.0720  0.1044 -0.1569
   46SOL    HW1  137   2.639   2.633   1.840  1.4336 -0.4266  1.5699
   46SOL    HW2  138   2.550   2.509   1.902  0.0407 -0.6909 -1.8873
   47SOL     OW  139   1.711   1.650   1.384 -0.6727 -0.2299  0.1685
   47SOL    HW1  140   1.660   1.737   1.400  0.0255  1.1316  0.3008
   47SOL    HW2  141   1.810   1.671   1.386  1.1478  3.1845 -0.1693
   48SOL     OW  142   0.303   2.183   0.498 -0.5878 -0.2242 -0.0200
   48SOL    HW1  143   0.209   2.217   0.502  0.7893  2.7941 -0.6545
   48SOL    HW2  144   0.350   2.191   0.585  2.3915 -2.1017 -1.2863
   49SOL     OW  145   2.689   1.306   1.819 -0.8741 -0.1918  0.0193
   49SOL    HW1  146   2.674   1.407   1.822 -1.5892 -1.1468  1.8445
   49SOL    HW2  147   2.709   1.272   1.911  0.7846  0.7499 -1.0426
   50SOL     OW  148   2.069   0.911   0.637 -0.3588  0.1876  0.2188
   50SOL    HW1  149   2.141   0.843   0.611 -1.4203 -2.1380 -0.4159
   50SOL    HW2  150   1.987   0.888   0.583  1.1838  0.4905  2.1495
   51SOL     OW  151   1.205   0.701   0.735 -0.3052 -0.4471  0.4259
   51SOL    HW1  152   1.110   0.720   0.767 -2.1606 -0.4753 -0.2655
   51SOL    HW2  153   1.271   0.699   0.811 -2.6914  0.6713 -0.7753
   52SOL     OW  154   1.326   1.117   0.338 -0.4033  0.2860 -0.4204
   52SOL    HW1  155   1.319   1.021   0.308 -0.0933  1.8123  0.3606
   52SOL    HW2  156   1.400   1.125   0.408  1.5634  1.0822 -1.4376
   53SOL     OW  157   1.168   2.397   2.597  0.2078  0.5202  0.1847
   53SOL    HW1  158   1.183   2.327   2.522 -0.8419 -1.3465  0.1796
   53SOL    HW2  159   1.242   2.398   2.665  0.4153 -1.1629 -1.4361
   54SOL     OW  160   1.644   0.742   1.607  0.3887  0.1584  0.4938
   54SOL    HW1  161   1.542   0.735   1.624 -2.8029 -1.7060 -0.8365
   54SOL    HW2  162   1.674   0.669   1.537  2.2671 -1.4171  1.3773
   55SOL     OW  163   2.234   2.875   0.642  0.3947 -0.5176  0.0276
   55SOL    HW1  164   2.166   2.937   0.599 -1.6154  0.1459 -2.6346
   55SOL    HW2  165   2.290   2.830   0.572 -1.2090 -0.6502 -0.9990
   56SOL     OW  166   1.035   2.696   1.613  0.7324  0.2935  0.3844
   56SOL    HW1  167   1.026   2.720   1.711 -0.1845 -2.1767 -2.5306
   56SOL    HW2  168   1.070   2.771   1.555  1.2506  0.4421  2.6019
   57SOL     OW  169   1.953   0.660   2.861  0.1062  0.0255 -0.0842
   57SOL    HW1  170   1.910   0.734   2.819  0.7175 -1.9056  3.3485
   57SOL    HW2  171   1.891   0.583   2.857 -1.9886 -0.8788 -0.4957
   58SOL     OW  172   2.795   1.171   1.613 -0.1371  0.0936 -0.2369
   58SOL    HW1  173   2.745   1.218   1.686 -1.9598 -0.8451 -1.6754
   58SOL    HW2  174   2.829   1.242   1.552  0.9628 -1.3601  1.2521
   59SOL     OW  175   0.414   2.798   2.331  0.0378  0.5609 -0.0250
   59SOL    HW1  176   0.449   2.789   2.237  1.2384  1.0123  0.6199
   59SOL    HW2  177   0.432   2.892   2.367 -0.0319 -1.4517  0.6610
   60SOL     OW  178   2.715   2.460   0.903  0.1122 -0.1421  0.5253
   60SOL    HW1  179   2.661   2.399   0.963  1.3270  0.8183 -0.6756
   60SOL    HW2  180   2.652   2.498   0.832 -1.3097 -1.0939 -1.3858
   61SOL     OW  181   1.078   2.451   0.296  0.2624 -0.0942 -0.1418
   61SOL    HW1  182   1.172   2.410   0.275  0.9386 -2.1326 -1.6053
   61SOL    HW2  183   1.019   2.375   0.334 -1.0333  0.7563  2.1309
   62SOL     OW  184   2.098   2.679   2.980  0.0209 -0.2550  0.0191
   62SOL    HW1  185   2.164   2.647   2.912  0.9735  1.7175 -0.7090
   62SOL    HW2  186   2.006   2.693   2.939  1.5104 -1.7365  2.0185
   63SOL     OW  187   1.914   0.203   2.972 -0.2253  0.1546  0.8286
   63SOL    HW1  188   1.850   0.125   2.956  0.5051  1.2230 -2.9833
   63SOL    HW2  189   2.003   0.170   3.011  0.4453 -1.0576  2.8144
   64SOL     OW  190   0.746   1.044   2.577  0.1457  0.1950  0.4174
   64SOL    HW1  191   0.805   0.960   2.591  3.2756  2.0494 -1.3146
   64SOL    HW2  192   0.645   1.022   2.575  2.5539  0.8229 -2.7501
   65SOL     OW  193   1.379   2.651   0.650  1.0620  0.1810  0.4622
   65SOL    HW1  194   1.279   2.626   0.652 -1.5019  0.6982 -0.9162
   65SOL    HW2  195   1.408   2.618   0.557 -1.0460 -1.7263  0.3696
   66SOL     OW  196   0.452   1.620   1.842 -0.3283  0.2225  0.5044
   66SOL    HW1  197   0.466   1.602   1.944 -2.4032 -1.8219  0.7325
   66SOL    HW2  198   0.363   1.576   1.814 -2.8577  0.9757 -3.5426
   67SOL     OW  199   2.151   3.036   1.963 -0.2988 -0.2959 -0.4914
   67SOL    HW1  200   2.159   2.965   1.888  0.3236 -0.4644 -0.7880
   67SOL    HW2  201   2.248   3.055   1.994  0.2806 -3.9033  1.7983
   68SOL     OW  202   0.855   0.812   1.558 -0.0298  0.3957  0.0918
   68SOL    HW1  203   0.824   0.718   1.534 -1.8666 -0.6496 -0.5874
   68SOL    HW2  204   0.776   0.850   1.611  0.3686 -0.9492 -1.1610
   69SOL     OW  205   2.021   3.007   0.546 -0.5415 -0.0946  0.1042
   69SOL    HW1  206   1.937   2.949   0.565  1.1332  0.6465  1.0386
   69SOL    HW2  207   1.985   3.089   0.496  2.4190  0.9847  2.8521
   70SOL     OW  208   2.524   0.791   2.932 -0.1891 -0.1055  0.1993
   70SOL    HW1  209   2.588   0.833   2.995 -0.7429 -1.0667 -0.7572
   70SOL    HW2  210   2.471   0.717   2.980 -1.5859 -0.7548 -0.2470
   71SOL     OW  211   2.736   1.853   3.085  0.0252  0.4473  0.0127
   71SOL    HW1  212   2.704   1.774   3.027 -1.7456 -1.2072 -0.2820
   71SOL    HW2  213   2.837   1.855   3.084  1.2147  0.6189  0.4761
   72SOL     OW  214   2.915   1.866   0.442  1.0598  0.4416  0.6346
   72SOL    HW1  215   2.929   1.765   0.467 -0.0340 -2.6541  1.3096
   72SOL    HW2  216   2.972   1.910   0.516 -0.4563  0.7796  1.9400
   73SOL     OW  217   0.968   0.982   0.419 -0.2172 -0.9777 -0.7932
   73SOL    HW1  218   0.935   1.077   0.419 -1.0653 -1.4300  1.3876
   73SOL    HW2  219   0.934   0.933   0.341  0.0597 -1.1699  3.6204
   74SOL     OW  220   0.050   2.112   1.797  0.3276 -0.0220  0.7595
   74SOL    HW1  221   0.090   2.205   1.779 -1.4093  1.7948  0.5199
   74SOL    HW2  222   0.124   2.050   1.816  0.6240  2.4975  3.7856
   75SOL     OW  223   1.794   1.280   1.585  0.6001 -0.1627  0.2476
   75SOL    HW1  224   1.705   1.291   1.535 -0.1598  1.6668 -0.6733
   75SOL    HW2  225   1.782   1.332   1.674 -1.5042  0.8445  0.8480
   76SOL     OW  226   2.058   2.284   1.305 -0.2538  0.4081  0.1025
   76SOL    HW1  227   2.045   2.189   1.338  1.3947 -0.1073  1.8283
   76SOL    HW2  228   2.158   2.309   1.311  2.8375  1.5166 -0.0167
   77SOL     OW  229   2.800   1.595   1.602 -0.8368  0.2802  0.6717
   77SOL    HW1  230   2.752   1.575   1.687  1.5834 -0.6478 -4.8198
   77SOL    HW2  231   2.890   1.634   1.620 -2.7199 -1.1444  2.7308
   78SOL     OW  232   1.547   0.492   0.601 -0.1538 -0.3714 -0.1123
   78SOL    HW1  233   1.566   0.531   0.697  1.0635  1.7372  2.3711
   78SOL    HW2  234   1.640   0.469   0.560 -0.8310  0.0054 -0.2873
   79SOL     OW  235   2.313   1.694   1.612  0.0691  0.6471 -0.1876
   79SOL    HW1  236   2.339   1.737   1.704  0.7885 -0.9152  1.2179
   79SOL    HW2  237   2.372   1.613   1.598 -1.6539  0.9312 -1.2401
   80SOL     OW  238   0.760   0.581   1.463 -0.3828  0.3176  0.0326
   80SOL    HW1  239   0.792   0.479   1.462  1.8338 -0.2724 -0.7244
   80SOL    HW2  240   0.726   0.606   1.371  2.9413 -1.8928 -0.7299
   81SOL     OW  241   0.668   2.648   0.897  0.0267 -0.1037  0.2052
   81SOL    HW1  242   0.762   2.685   0.882  0.3102 -0.0329 -2.8289
   81SOL    HW2  243   0.598   2.706   0.852  1.9198 -0.3971  0.6086
   82SOL     OW  244   1.205   0.012   1.799  0.0153 -0.2745  0.0700
   82SOL    HW1  245   1.278   0.045   1.735  0.7366 -2.2883 -1.2271
   82SOL    HW2  246   1.202   0.054   1.891  1.7202  1.5919 -1.2987
   83SOL     OW  247   1.233   1.902   0.735  0.3367  0.5101  0.2458
   83SOL    HW1  248   1.278   1.943   0.822  0.9886  0.7484  2.1101
   83SOL    HW2  249   1.185   1.970   0.684  0.5827 -1.7245  1.3939
   84SOL     OW  250   0.058   1.439   2.835 -0.1191  0.0818  0.1379
   84SOL    HW1  251   0.062   1.344   2.869 -0.6316  1.9026  1.1369
   84SOL    HW2  252   3.087   1.446   2.766 -1.1693 -0.0255 -2.1960
   85SOL     OW  253   0.189   2.333   0.922 -0.0110  0.1059 -0.0178
   85SOL    HW1  254   0.178   2.380   0.833 -1.4554 -1.1002  2.3430
   85SOL    HW2  255   0.268   2.373   0.972  0.8259  1.5207 -0.2164
   86SOL     OW  256   2.154   2.588   1.566 -0.1230 -0.0988 -0.7691
   86SOL    HW1  257   2.257   2.575   1.577  2.3221 -0.7203  0.3437
   86SOL    HW2  258   2.101   2.555   1.645 -1.2442 -0.9221 -0.1491
   87SOL     OW  259   3.043   2.014   0.642 -0.4706  0.6287 -0.0976
   87SOL    HW1  260   0.001   2.095   0.636 -1.1390  0.6738 -0.4432
   87SOL    HW2  261   3.059   1.962   0.722 -1.6245  0.3713 -2.0365
   88SOL     OW  262   0.925   0.708   1.076 -0.2544  0.3239  0.3976
   88SOL    HW1  263   0.895   0.803   1.090  0.7023 -0.7416 -0.7758
   88SOL    HW2  264   1.026   0.696   1.075 -0.6270  0.2694  1.1622
   89SOL     OW  265   0.953   3.004   2.023  0.2682  0.3279  0.1427
   89SOL    HW1  266   0.885   3.040   1.954  1.0131 -0.1918 -0.1048
   89SOL    HW2  267   1.020   3.074   2.049 -1.3173 -1.1043 -0.2617
   90SOL     OW  268   0.245   2.066   1.438  0.0792 -0.1694 -0.4809
   90SOL    HW1  269   0.307   2.094   1.365  0.5755  0.4834  1.1383
   90SOL    HW2  270   0.294   2.083   1.525  2.2072  0.8079 -1.1665
   91SOL     OW  271   1.383   2.047   1.368  0.1524  0.4810 -0.5899
   91SOL    HW1  272   1.374   2.122   1.436  1.2845  1.8375 -0.3021
   91SOL    HW2  273   1.447   2.072   1.293  0.9568  0.8669  2.9828
   92SOL     OW  274   2.717   2.924   1.470  0.2457 -0.2206 -0.3841
   92SOL    HW1  275   2.725   3.026   1.455 -1.2688  0.6110  1.5883
   92SOL    HW2  276   2.814   2.890   1.474 -1.0937  0.7994 -1.5703
   93SOL     OW  277   0.077   1.185   2.978  0.1905  0.2532  0.0421
   93SOL    HW1  278   0.110   1.116   2.908 -1.5311 -2.3065  1.2364
   93SOL    HW2  279   0.143   1.192   3.054 -2.3313  1.0552  2.8131
   94SOL     OW  280   2.890   2.625   1.940  0.3631 -0.0938 -0.1057
   94SOL    HW1  281   2.871   2.715   1.986 -0.9720  0.3108 -0.1243
   94SOL    HW2  282   2.812   2.562   1.967 -2.6006 -1.9950 -0.0683
   95SOL     OW  283   1.549   0.653   1.981  0.1173 -0.0714 -0.3526
   95SOL    HW1  284   1.568   0.588   2.057 -0.3127  0.4287 -0.4194
   95SOL    HW2  285   1.458   0.698   1.996  1.0055 -1.7300  1.7281
   96SOL     OW  286   2.609   0.537   1.767 -0.3608 -0.6501  0.5755
   96SOL    HW1  287   2.588   0.462   1.695  0.2633 -3.1678  0.8521
   96SOL    HW2  288   2.691   0.525   1.832  1.4632  0.0745 -0.7322
   97SOL     OW  289   2.282   0.250   1.553  0.6586 -0.0809  0.0428
   97SOL    HW1  290   2.381   0.262   1.575  0.1746 -2.5890 -0.3314
   97SOL    HW2  291   2.228   0.333   1.581 -1.1937  1.1414  4.3491
   98SOL     OW  292   2.333   2.295   1.279  0.2421 -0.7062 -0.1123
   98SOL    HW1  293   2.383   2.346   1.353  0.2734  0.4512  2.6140
   98SOL    HW2  294   2.369   2.326   1.187 -0.2696 -0.0219 -1.4077
   99SOL     OW  295   2.970   0.360   2.128 -0.8024  0.1720 -0.5335
   99SOL    HW1  296   2.966   0.367   2.230  0.1895  0.1475 -2.2993
   99SOL    HW2  297   2.920   0.435   2.083  2.6736  1.1905 -0.1945
  100SOL     OW  298   2.420   1.747   1.859 -0.5710 -0.6648  0.1149
  100SOL    HW1  299   2.361   1.706   1.931  1.0533  2.4515 -0.2388
  100SOL    HW2  300   2.448   1.836   1.892 -1.4922 -2.7165 -1.5500
  101SOL     OW  301   1.865   0.108   0.807  0.2647  0.6487 -0.1333
  101SOL    HW1  302   1.950   0.142   0.857  1.1844 -0.4844 -0.3881
  101SOL    HW2  303   1.852   0.008   0.826 -1.5513 -1.7308  1.1230
  102SOL     OW  304   0.540   0.856   1.402  0.3356  0.2898  0.4484
  102SOL    HW1  305   0.584   0.781   1.343  1.7250 -2.7650 -0.8372
  102SOL    HW2  306   0.587   0.870   1.491  1.9739 -1.2713  0.1043
  103SOL     OW  307   2.615   0.283   0.070 -0.3117  0.0935 -0.3557
  103SOL    HW1  308   2.639   0.259   3.081  2.1639 -0.0924  0.4115
  103SOL    HW2  309   2.661   0.369   0.100 -1.5996  0.4094 -1.7570
  104SOL     OW  310   2.755   0.201   1.985  0.1114 -0.3804  0.1295
  104SOL    HW1  311   2.783   0.216   1.887  0.3186 -1.0768  1.1022
  104SOL    HW2  312   2.822   0.256   2.042 -2.1228 -0.0709 -0.8941
  105SOL     OW  313   1.814   0.753   2.329  0.1270  0.1503  0.2836
  105SOL    HW1  314   1.828   0.664   2.377  0.9570  1.5657 -0.2637
  105SOL    HW2  315   1.881   0.828   2.350 -2.5448  2.5463  0.6624
  106SOL     OW  316   1.872   2.925   0.873 -0.3307  0.7032  0.0737
  106SOL    HW1  317   1.842   2.959   0.962  0.7438 -1.9190 -0.5445
  106SOL    HW2  318   1.971   2.899   0.878  2.2079  2.8404  0.4068
  107SOL     OW  319   0.762   1.199   0.797 -0.1617  0.0988 -0.2348
  107SOL    HW1  320   0.706   1.188   0.878  1.9855 -0.0802 -3.6316
  107SOL    HW2  321   0.762   1.294   0.760 -0.0429 -0.0531 -2.1342
  108SOL     OW  322   2.869   0.488   2.434 -0.1850 -0.1655  0.4868
  108SOL    HW1  323   2.934   0.404   2.431  2.5144 -2.0268 -0.6122
  108SOL    HW2  324   2.774   0.458   2.413  0.7809 -1.9529  0.1803
  109SOL     OW  325   1.958   0.282   0.164  0.1255  0.1143 -0.7461
  109SOL    HW1  326   1.930   0.233   0.084  2.3033  1.4597  0.6075
  109SOL    HW2  327   1.894   0.355   0.189  2.6797 -1.7675 -0.5386
  110SOL     OW  328   0.100   2.189   2.645 -0.3030 -0.6280  0.5440
  110SOL    HW1  329   0.008   2.231   2.650 -1.7436 -3.1113 -0.1708
  110SOL    HW2  330   0.099   2.102   2.695  1.1090  1.4863 -1.7572
  111SOL     OW  331   2.043   0.112   2.152  0.2129 -0.5645  0.6555
  111SOL    HW1  332   2.083   0.043   2.084  1.0165 -0.1847 -1.1192
  111SOL    HW2  333   2.100   0.136   2.231 -1.7908 -2.0293 -1.1373
  112SOL     OW  334   2.463   3.006   0.736 -0.4379  0.7147 -0.4948
  112SOL    HW1  335   2.427   3.060   0.814 -0.2267  1.4885  0.7505
  112SOL    HW2  336   2.387   2.958   0.691 -1.0947 -1.9970 -1.8872
  113SOL     OW  337   2.412   2.360   1.752 -0.4608  0.2200  0.1023
  113SOL    HW1  338   2.412   2.457   1.710 -0.0637  3.1813 -0.6136
  113SOL    HW2  339   2.345   2.351   1.832 -1.1221 -0.0660  0.9905
  114SOL     OW  340   2.892   0.669   0.743  0.2685 -0.1098  0.2712
  114SOL    HW1  341   2.947   0.584   0.740  0.5084  5.7420 -0.3636
  114SOL    HW2  342   2.947   0.753   0.742 -0.1761  0.5631  2.4192
  115SOL     OW  343   2.698   1.826   0.244 -0.9405  1.0386  0.1027
  115SOL    HW1  344   2.773   1.851   0.305 -0.2103  0.3771  1.5113
  115SOL    HW2  345   2.717   1.841   0.145  0.2696 -1.1271  1.3286
  116SOL     OW  346   3.057   1.635   1.961  0.0395  1.3968 -0.9638
  116SOL    HW1  347   2.963   1.618   1.997 -0.1975  0.7120  0.1448
  116SOL    HW2  348   3.050   1.681   1.868 -1.0188 -1.2658 -0.2947
  117SOL     OW  349   2.679   0.002   0.617  0.7493  0.2583 -0.0219
  117SOL    HW1  350   2.615   3.052   0.676  1.3675  0.4504 -0.5255
  117SOL    HW2  351   2.636   0.030   0.528 -2.2214 -1.9996 -2.9396
  118SOL     OW  352   0.510   2.632   1.601 -0.3265 -0.4740 -0.4860
  118SOL    HW1  353   0.491   2.536   1.577  0.9358 -0.5764  0.0547
  118SOL    HW2  354   0.600   2.658   1.564  1.3253  0.0915  0.1265
  119SOL     OW  355   1.671   2.275   1.012 -0.0362  0.3621 -0.1929
  119SOL    HW1  356   1.759   2.236   0.975  0.8741  1.2047 -1.0250
  119SOL    HW2  357   1.690   2.343   1.088  0.3754 -2.2797 -0.3880
  120SOL     OW  358   0.539   1.938   2.198  0.2500 -0.3607 -0.0494
  120SOL    HW1  359   0.535   1.851   2.252  0.4332  1.1486 -0.7759
  120SOL    HW2  360   0.493   2.021   2.241  2.4591  3.1481  0.2660
  121SOL     OW  361   2.924   1.423   0.959 -0.1920 -0.3129  0.4915
  121SOL    HW1  362   2.860   1.469   1.028 -0.6773  0.7269  2.6315
  121SOL    HW2  363   2.885   1.341   0.913  0.5136 -1.1662 -1.6490
  122SOL     OW  364   1.930   1.641   2.551 -0.0175 -0.6832  0.0476
  122SOL    HW1  365   1.875   1.678   2.475 -0.9377  0.2803 -2.5727
  122SOL    HW2  366   2.028   1.630   2.530 -0.4912 -2.7289  0.1694
  123SOL     OW  367   2.824   0.246   0.680  0.3058  0.0654  0.3382
  123SOL    HW1  368   2.915   0.287   0.653 -0.9268 -1.7260 -1.6048
  123SOL    HW2  369   2.805   0.158   0.634  0.0129  1.2692  0.0993
  124SOL     OW  370   1.466   1.128   2.699 -0.4380 -0.4083  0.0297
  124SOL    HW1  371   1.398   1.199   2.732  3.4254  2.9308  0.2317
  124SOL    HW2  372   1.538   1.124   2.773  0.9596  0.1218 -0.3110
  125SOL     OW  373   0.318   1.668   2.459  0.5534 -0.0246 -0.3145
  125SOL    HW1  374   0.294   1.643   2.554  0.9749 -2.0555 -2.4966
  125SOL    HW2  375   0.408   1.712   2.456 -0.5137 -1.3086  1.3991
  126SOL     OW  376   2.788   2.096   0.404 -0.0072 -0.5175  0.8934
  126SOL    HW1  377   2.861   2.160   0.373 -0.0407 -2.1263  0.9032
  126SOL    HW2  378   2.831   2.008   0.433  0.6044  3.0765 -1.1926
  127SOL     OW  379   0.588   1.723   0.992  0.2617 -0.0468 -0.2207
  127SOL    HW1  380   0.536   1.775   1.058  1.0332 -1.4418 -0.1478
  127SOL    HW2  381   0.526   1.711   0.911 -0.4964  1.1869 -2.7467
  128SOL     OW  382   1.444   0.804   3.079 -0.3219 -0.5428  0.5628
  128SOL    HW1  383   1.427   0.823   0.069  1.0516  1.0136  0.0640
  128SOL    HW2  384   1.540   0.836   3.061 -2.0301  0.0233  2.8581
  129SOL     OW  385   2.388   1.763   1.330 -0.0622 -0.2295 -0.4594
  129SOL    HW1  386   2.410   1.856   1.301  0.1734  2.2278 -1.7434
  129SOL    HW2  387   2.297   1.765   1.380 -0.1401  0.1494 -0.2271
  130SOL     OW  388   1.880   1.334   0.492 -1.0202 -0.3823  0.3425
  130SOL    HW1  389   1.983   1.346   0.482  1.0855  0.3808 -1.9260
  130SOL    HW2  390   1.856   1.327   0.589  0.7228  1.2511 -0.0546
  131SOL     OW  391   2.929   1.138   2.478 -0.8113  0.1619 -0.0006
  131SOL    HW1  392   2.941   1.060   2.540 -1.1947 -0.7021 -0.9670
  131SOL    HW2  393   2.848   1.195   2.504  0.8532 -1.9036  1.3111
  132SOL     OW  394   2.088   1.553   1.648  0.7254  0.4794  0.2951
  132SOL    HW1  395   2.178   1.596   1.633 -1.1576  2.0542 -1.6131
  132SOL    HW2  396   2.064   1.544   1.750  4.3034  0.8130  1.4387
  133SOL     OW  397   0.221   1.608   3.008  0.0709  0.0980 -0.0756
  133SOL    HW1  398   0.147   1.558   2.959 -0.7276 -0.1240 -0.1665
  133SOL    HW2  399   0.203   1.602   0.003  1.7736  1.1123 -1.7337
  134SOL     OW  400   2.727   1.402   0.057 -0.1283 -0.3091  0.5702
  134SOL    HW1  401   2.799   1.368   3.103  2.0634 -2.1395 -0.7021
  134SOL    HW2  402   2.764   1.473   0.123 -0.2945 -0.8283 -2.1467
  135SOL     OW  403   2.638   1.089   0.160 -0.3412 -0.0136 -0.0252
  135SOL    HW1  404   2.587   1.119   0.077  3.2345  1.0067  0.0552
  135SOL    HW2  405   2.693   1.168   0.198 -1.8186  1.1842  0.1067
  136SOL     OW  406   2.005   1.383   1.458 -0.0462  0.0589  0.1059
  136SOL    HW1  407   2.025   1.439   1.541  0.1001  0.1110 -1.1563
  136SOL    HW2  408   1.922   1.330   1.471  1.5449  1.2076  1.4029
  137SOL     OW  409   2.517   2.041   0.388  0.0112  0.9090 -0.0179
  137SOL    HW1  410   2.481   1.947   0.366  2.7729  4.8567  1.0195
  137SOL    HW2  411   2.613   2.058   0.363 -0.8855  2.8513 -0.0259
  138SOL     OW  412   1.603   0.213   1.801  0.3348  0.9927 -0.0374
  138SOL    HW1  413   1.590   0.180   1.894 -0.2431 -1.9876 -2.8601
  138SOL    HW2  414   1.692   0.260   1.800 -1.6412 -1.8884 -0.2618
  139SOL     OW  415   2.373   0.131   0.079  0.1942  0.0760 -0.0206
  139SOL    HW1  416   2.457   0.182   0.050  0.9762 -2.2832  0.1460
  139SOL    HW2  417   2.392   0.037   0.117  2.2598 -1.0611  2.0946
  140SOL     OW  418   1.273   1.950   2.659 -0.8320 -0.2294  0.1559
  140SOL    HW1  419   1.334   1.868   2.685  1.4358 -0.9038  1.1882
  140SOL    HW2  420   1.190   1.945   2.719 -0.4275 -0.1354 -0.7886
  141SOL     OW  421   0.979   0.976   2.019 -0.0316 -0.1822 -0.4438
  141SOL    HW1  422   0.903   0.954   2.081 -0.1580  3.2470 -0.2075
  141SOL    HW2  423   1.025   0.889   1.991 -3.9713 -1.4557  2.9291
  142SOL     OW  424   2.149   2.514   0.071  0.3260  0.0908 -0.4485
  142SOL    HW1  425   2.125   2.581   0.003  1.6089 -0.2877  4.8176
  142SOL    HW2  426   2.227   2.463   0.034 -1.1289  1.9376  0.7299
  143SOL     OW  427   0.771   2.047   3.052 -0.0355  0.2915 -0.3487
  143SOL    HW1  428   0.855   2.088   3.085 -0.0117 -1.9835 -2.9718
  143SOL    HW2  429   0.688   2.092   3.089  0.4534  2.4443  2.2595
  144SOL     OW  430   1.056   2.719   0.259  0.1762  0.3491 -0.2072
  144SOL    HW1  431   1.033   2.717   0.161 -1.5007  2.2576  3.4717
  144SOL    HW2  432   1.062   2.624   0.296 -1.7952  0.7647  1.1795
  145SOL     OW  433   2.206   1.791   2.935 -0.1079  0.5089  0.3905
  145SOL    HW1  434   2.276   1.826   3.002  1.1442 -0.7894 -1.5730
  145SOL    HW2  435   2.112   1.820   2.956 -2.7699 -0.3236 -2.5221
  146SOL     OW  436   2.454   2.834   2.665  0.0517  0.6487  0.2067
  146SOL    HW1  437   2.366   2.844   2.611  2.0083 -1.9535 -2.7306
  146SOL    HW2  438   2.482   2.926   2.705 -0.4648  2.5425 -0.2110
  147SOL     OW  439   2.623   1.867   1.095  0.0153  0.1184 -0.3728
  147SOL    HW1  440   2.701   1.913   1.144  0.7813 -1.1055  2.8024
  147SOL    HW2  441   2.609   1.774   1.135  2.0668  1.4911 -0.3063
  148SOL     OW  442   1.807   3.034   3.004  0.0543 -0.0751  0.1683
  148SOL    HW1  443   1.739   2.994   2.942 -0.5814 -0.1863 -1.2490
  148SOL    HW2  444   1.783   3.031   3.105  2.0190 -1.0863 -2.5750
  149SOL     OW  445   1.017   1.361   2.758  0.3881  0.0987  0.0559
  149SOL    HW1  446   1.051   1.438   2.819  1.1973  0.0196  0.3756
  149SOL    HW2  447   0.914   1.355   2.767  1.0842 -0.1531 -0.4809
  150SOL     OW  448   0.620   2.182   0.731 -0.4878  0.1738 -0.4616
  150SOL    HW1  449   0.638   2.248   0.807 -0.1889 -0.6193  1.0027
  150SOL    HW2  450   0.699   2.116   0.718 -0.2929 -1.5407  0.6527
  151SOL     OW  451   0.424   1.846   3.068  0.5283 -0.6531 -0.1885
  151SOL    HW1  452   0.471   1.899   0.042  3.8651  1.3350  1.1308
  151SOL    HW2  453   0.369   1.762   3.092  3.0497  2.3790  0.1580
  152SOL     OW  454   2.774   1.331   0.383 -0.1237  0.2783  0.4349
  152SOL    HW1  455   2.748   1.328   0.478  1.9836  0.6935 -0.2775
  152SOL    HW2  456   2.754   1.418   0.341  0.5032 -1.7824  0.7454
  153SOL     OW  457   2.094   2.238   0.461  0.4319 -0.2896  0.1778
  153SOL    HW1  458   2.001   2.216   0.424 -2.3597 -2.5071 -1.7292
  153SOL    HW2  459   2.084   2.332   0.506 -1.8954 -0.4677 -1.7227
  154SOL     OW  460   0.695   3.007   0.533 -0.6737 -0.1512  0.1296
  154SOL    HW1  461   0.784   3.002   0.587  0.0328 -0.3366 -0.2136
  154SOL    HW2  462   0.632   2.930   0.552  4.0711  1.0344 -0.1644
  155SOL     OW  463   0.430   1.994   0.887  0.3979 -0.0915 -0.0439
  155SOL    HW1  464   0.495   2.071   0.889 -0.3307  0.2585 -1.9525
  155SOL    HW2  465   0.335   2.016   0.921  0.9934  0.7995  1.3588
  156SOL     OW  466   2.354   2.362   0.001  0.1780 -0.2150  0.4532
  156SOL    HW1  467   2.404   2.432   3.054  2.0050 -0.6096 -0.6679
  156SOL    HW2  468   2.400   2.347   0.092 -1.3440  1.2286  0.9888
  157SOL     OW  469   1.038   1.988   1.393  0.2385  0.4282  0.4439
  157SOL    HW1  470   1.034   2.080   1.351 -0.9272  1.4125  0.4774
  157SOL    HW2  471   1.091   1.996   1.477  0.4622  0.7953  0.2421
  158SOL     OW  472   1.696   0.403   0.185 -0.0629 -0.0819  0.0347
  158SOL    HW1  473   1.657   0.481   0.129 -1.2231 -3.0430 -0.1902
  158SOL    HW2  474   1.678   0.311   0.137 -0.5928  2.4770 -1.2130
  159SOL     OW  475   1.085   0.611   0.009  0.5006 -0.0181 -0.0690
  159SOL    HW1  476   1.175   0.591   3.073  1.8733 -0.2935 -1.8601
  159SOL    HW2  477   1.088   0.671   0.089 -0.8912 -1.7067 -1.0257
  160SOL     OW  478   1.088   1.495   0.100 -0.5967 -0.0947  0.0251
  160SOL    HW1  479   1.104   1.595   0.116 -0.3495  2.1833  1.7292
  160SOL    HW2  480   1.108   1.436   0.182  1.1827 -0.6363  0.8692
  161SOL     OW  481   0.142   2.139   2.391  0.3219 -0.3814  0.1277
  161SOL    HW1  482   0.128   2.172   2.486 -1.5549  2.3624 -1.2972
  161SOL    HW2  483   0.143   2.040   2.390  1.3238  0.5704  0.5064
  162SOL     OW  484   0.658   2.366   0.936  0.7551  0.0282  0.1439
  162SOL    HW1  485   0.652   2.460   0.884  0.3568  1.8341 -1.3659
  162SOL    HW2  486   0.586   2.362   1.003 -1.1320  0.9722  0.3733
  163SOL     OW  487   2.964   0.638   0.130  0.0067  0.1039 -0.0885
  163SOL    HW1  488   2.973   0.616   0.030  0.6639  1.1666  1.4320
  163SOL    HW2  489   2.988   0.735   0.148  0.4619  0.6243  1.6886
  164SOL     OW  490   0.377   0.189   2.819 -0.3377 -0.4316  0.1127
  164SOL    HW1  491   0.432   0.190   2.905  0.5701  0.1010  1.6285
  164SOL    HW2  492   0.390   0.104   2.756 -1.9617 -1.2332 -0.7513
  165SOL     OW  493   2.136   0.485   1.535  0.3534 -0.2705 -0.4350
  165SOL    HW1  494   2.196   0.487   1.455 -0.1823 -3.0213  3.7482
  165SOL    HW2  495   2.134   0.573   1.586 -1.0118  0.5466  2.1046
  166SOL     OW  496   2.165   2.866   1.515  0.3787  0.2823  0.0879
  166SOL    HW1  497   2.168   2.899   1.612 -2.6670 -0.4558  0.7919
  166SOL    HW2  498   2.169   2.767   1.516  2.1330  2.4081  2.0347
  167SOL     OW  499   1.078   0.474   1.947 -0.0940 -0.2140  0.0238
  167SOL    HW1  500   1.010   0.439   2.019 -1.4434 -3.3923 -0.1430
  167SOL    HW2  501   1.172   0.440   1.969  0.7993 -0.7283  1.0184
  168SOL     OW  502   2.478   0.238   1.999  0.1364  0.2302  0.6753
  168SOL    HW1  503   2.579   0.235   2.010 -0.7472  2.0396  0.5792
  168SOL    HW2  504   2.444   0.146   2.023  1.4593 -2.0169  1.9802
  169SOL     OW  505   0.148   1.527   0.149  0.0988 -0.1557  0.4425
  169SOL    HW1  506   0.107   1.572   0.227  1.0482 -0.4536 -3.1771
  169SOL    HW2  507   0.120   1.428   0.137  0.8096 -0.1174 -0.1933
  170SOL     OW  508   0.145   1.584   1.589  0.3473  0.0761 -0.0509
  170SOL    HW1  509   0.206   1.660   1.562  1.9355  0.2293  1.9639
  170SOL    HW2  510   0.093   1.540   1.511 -2.0197  1.3814 -1.2516
  171SOL     OW  511   0.937   2.534   2.252 -0.1945 -0.1724  0.1568
  171SOL    HW1  512   0.856   2.469   2.244 -1.5695 -3.7217 -3.2442
  171SOL    HW2  513   1.025   2.491   2.218  3.8133 -3.1487 -1.0041
  172SOL     OW  514   0.740   2.739   1.514 -0.6124 -0.3013 -0.0718
  172SOL    HW1  515   0.783   2.750   1.606  0.4228 -0.8552 -0.2432
  172SOL    HW2  516   0.804   2.682   1.454  0.3550  0.6395 -1.3343
  173SOL     OW  517   1.422   2.399   0.907 -0.5923 -0.3065 -0.1659
  173SOL    HW1  518   1.494   2.333   0.918 -1.5766 -0.2920 -3.0008
  173SOL    HW2  519   1.442   2.487   0.951 -1.8208 -0.0235 -0.3449
  174SOL     OW  520   1.345   0.189   0.656  0.3454  0.8929 -0.1879
  174SOL    HW1  521   1.387   0.237   0.736  0.8618 -2.5699  0.7509
  174SOL    HW2  522   1.390   0.099   0.645 -0.3508 -1.3240  0.1834
  175SOL     OW  523   1.123   1.290   0.279  0.2013  0.2576 -0.3237
  175SOL    HW1  524   1.208   1.235   0.299  3.1790  1.7982  2.2309
  175SOL    HW2  525   1.090   1.342   0.359  0.9811  0.9282 -2.0810
  176SOL     OW  526   1.594   0.670   0.354  0.2467 -0.3147 -0.0924
  176SOL    HW1  527   1.671   0.720   0.309  0.7462 -0.4835  3.0928
  176SOL    HW2  528   1.593   0.568   0.331 -1.1521 -1.4752 -0.7798
  177SOL     OW  529   1.265   0.681   1.386  0.1582  0.2591  0.3390
  177SOL    HW1  530   1.243   0.627   1.469 -0.4845 -0.7275 -2.0772
  177SOL    HW2  531   1.338   0.754   1.405  1.8986  0.7138  0.2177
  178SOL     OW  532   2.669   1.654   2.930 -0.1075  0.0980  0.1738
  178SOL    HW1  533   2.712   1.576   2.975  1.5864 -1.3341  0.6319
  178SOL    HW2  534   2.572   1.634   2.904  3.1691 -0.6154  0.5580
  179SOL     OW  535   0.635   2.529   3.050  0.2257  0.2983 -0.2456
  179SOL    HW1  536   0.606   2.626   3.039 -0.1979  2.0884  1.0941
  179SOL    HW2  537   0.680   2.516   0.037  0.2151 -0.8568  2.7862
  180SOL     OW  538   1.952   1.541   1.893  0.4225 -0.0286 -0.4576
  180SOL    HW1  539   2.016   1.468   1.929  0.5883  0.6387 -1.2873
  180SOL    HW2  540   1.864   1.502   1.859 -0.2946 -1.4137 -0.0649
  181SOL     OW  541   1.141   1.173   2.351  0.5342 -0.4505 -0.3290
  181SOL    HW1  542   1.150   1.177   2.252  0.9355  1.7802  3.6294
  181SOL    HW2  543   1.143   1.080   2.392  1.0824 -2.1152 -0.1274
  182SOL     OW  544   2.989   1.143   2.187 -0.3489 -0.5742  0.1672
  182SOL    HW1  545   3.078   1.188   2.182 -1.2010  1.2831 -0.5243
  182SOL    HW2  546   2.958   1.142   2.285  2.8926 -1.7751 -0.8991
  183SOL     OW  547   1.584   0.471   2.202 -0.2298 -0.3742 -0.3225
  183SOL    HW1  548   1.562   0.528   2.285  1.6694  0.2328  1.2879
  183SOL    HW2  549   1.683   0.469   2.188  0.4364 -3.7899  2.5758
  184SOL     OW  550   0.248   0.703   1.515  0.0289 -0.0282  0.2805
  184SOL    HW1  551   0.344   0.670   1.492  1.3078 -0.6448  1.5164
  184SOL    HW2  552   0.188   0.708   1.434  2.5543 -0.6993  0.2913
  185SOL     OW  553   2.257   1.737   0.821 -0.0954  0.6275  0.3104
  185SOL    HW1  554   2.211   1.801   0.886 -1.0649  2.7138 -0.0494
  185SOL    HW2  555   2.350   1.761   0.782 -0.1907  3.5805  0.9059
  186SOL     OW  556   0.514   1.683   2.734 -0.7026  0.0886  0.4906
  186SOL    HW1  557   0.572   1.766   2.713 -0.1037  0.4900 -0.6892
  186SOL    HW2  558   0.415   1.695   2.710 -0.9258  1.9371 -2.5544
  187SOL     OW  559   2.353   1.917   0.039  0.2353  0.1039  0.2133
  187SOL    HW1  560   2.446   1.939   0.007 -0.2529  0.7703  0.6580
  187SOL    HW2  561   2.354   1.871   0.129  0.5063  1.5115 -0.9416
  188SOL     OW  562   0.694   2.316   0.502 -0.4216  0.2032  0.3250
  188SOL    HW1  563   0.672   2.247   0.573  2.9462 -1.0576 -1.2257
  188SOL    HW2  564   0.646   2.296   0.413  0.8942  1.0385 -0.9144
  189SOL     OW  565   2.179   0.552   2.717 -0.0606  0.2757 -0.4761
  189SOL    HW1  566   2.105   0.578   2.782 -1.0868  3.8573 -0.1753
  189SOL    HW2  567   2.223   0.634   2.678  0.5748 -1.3398 -0.8930
  190SOL     OW  568   1.109   1.910   2.167 -0.3672 -0.3455 -0.3573
  190SOL    HW1  569   1.162   1.999   2.170 -1.9475  1.9933  1.3042
  190SOL    HW2  570   1.113   1.877   2.259  1.9410  2.1328 -1.2504
  191SOL     OW  571   2.256   0.853   1.244 -0.3242 -0.5580 -0.4851
  191SOL    HW1  572   2.284   0.898   1.335  2.2409 -0.8053  0.4551
  191SOL    HW2  573   2.233   0.922   1.171 -0.7065  1.5135  1.9491
  192SOL     OW  574   2.028   0.335   2.013  0.2241 -0.1564 -0.3428
  192SOL    HW1  575   2.121   0.370   1.996 -3.1342 -4.0742  1.8409
  192SOL    HW2  576   2.037   0.253   2.069 -0.0110  4.1495 -1.0931
  193SOL     OW  577   0.085   0.356   0.959  0.0600  0.1812  0.0528
  193SOL    HW1  578   0.080   0.283   1.032  0.8526 -0.8028  1.5504
  193SOL    HW2  579   0.171   0.408   0.974  1.8848 -1.8140  2.3933
  194SOL     OW  580   1.460   2.469   1.659  0.5268 -0.6400 -0.0940
  194SOL    HW1  581   1.436   2.529   1.586  0.3599 -0.7274  1.1740
  194SOL    HW2  582   1.559   2.457   1.663 -4.2860  0.3419  1.3173
  195SOL     OW  583   2.637   0.642   0.759 -0.6026 -0.1911  0.0429
  195SOL    HW1  584   2.603   0.548   0.743  0.1230 -0.0487  1.1777
  195SOL    HW2  585   2.743   0.643   0.753  3.7716  0.5124 -1.0632
  196SOL     OW  586   1.212   1.946   1.661  0.5689 -0.5702  0.2293
  196SOL    HW1  587   1.268   2.028   1.641 -0.3906  2.1293 -2.1117
  196SOL    HW2  588   1.271   1.860   1.641  2.3255 -2.4667 -0.6549
  197SOL     OW  589   0.201   0.376   2.768  0.6886  0.1396  0.0155
  197SOL    HW1  590   0.271   0.302   2.781 -1.7494  2.1039 -1.7469
  197SOL    HW2  591   0.245   0.463   2.735  1.4392 -0.0071 -1.6510
  198SOL     OW  592   1.124   0.955   0.646  0.1686  0.4931 -0.2763
  198SOL    HW1  593   1.169   0.863   0.668  1.1509 -0.1692  0.0543
  198SOL    HW2  594   1.065   0.956   0.560 -1.0985  0.4535  0.2868
  199SOL     OW  595   2.380   0.695   1.832 -0.4971  0.3515 -0.0839
  199SOL    HW1  596   2.392   0.785   1.883 -1.0131  0.3160  1.1496
  199SOL    HW2  597   2.466   0.659   1.788  1.8335 -3.8770 -2.4137
  200SOL     OW  598   2.471   2.652   2.138  0.0688  0.0033 -0.3540
  200SOL    HW1  599   2.525   2.699   2.214 -0.4621  2.7133  0.9532
  200SOL    HW2  600   2.537   2.633   2.062  0.4368  1.0317 -1.2128
  201SOL     OW  601   2.521   0.266   1.679 -0.1641  0.4388  0.3286
  201SOL    HW1  602   2.484   0.242   1.771 -1.8017 -0.2269  0.4309
  201SOL    HW2  603   2.621   0.233   1.673  2.6967 -0.4870 -0.9014
  202SOL     OW  604   2.153   2.926   0.197 -0.0780 -0.8208 -0.1671
  202SOL    HW1  605   2.081   2.876   0.241  1.2583 -0.6031 -1.1220
  202SOL    HW2  606   2.140   2.927   0.094  1.5721 -3.0306 -1.3805
  203SOL     OW  607   1.056   2.178   2.274 -0.3648 -0.1675 -0.3898
  203SOL    HW1  608   0.964   2.166   2.317  2.3961  0.7095  3.0950
  203SOL    HW2  609   1.128   2.139   2.333 -5.0028  1.7297 -2.7614
  204SOL     OW  610   1.191   1.355   2.530  0.0067  0.0852 -0.5171
  204SOL    HW1  611   1.134   1.348   2.616 -0.6848  2.0175  2.0537
  204SOL    HW2  612   1.172   1.276   2.467 -1.3004  2.3987 -0.8753
  205SOL     OW  613   0.869   1.200   1.347 -0.3429 -0.4951  0.1888
  205SOL    HW1  614   0.908   1.105   1.359 -0.8082 -1.2773 -0.7221
  205SOL    HW2  615   0.943   1.265   1.329  0.3439 -0.7978  2.8466
  206SOL     OW  616   0.513   0.488   2.814  0.5136 -0.4231 -0.1971
  206SOL    HW1  617   0.440   0.557   2.793 -1.0675  2.3512 -1.0626
  206SOL    HW2  618   0.467   0.397   2.819 -0.7516 -1.1244  2.2882
  207SOL     OW  619   1.678   2.714   2.502 -0.0025  0.1181 -0.2303
  207SOL    HW1  620   1.756   2.754   2.450  1.1128  1.9226 -0.6156
  207SOL    HW2  621   1.584   2.735   2.464 -1.1406  0.1818 -0.9643
  208SOL     OW  622   0.865   2.601   1.284 -0.4125  0.4557  0.1303
  208SOL    HW1  623   0.916   2.676   1.239 -0.9615 -1.1645 -1.7036
  208SOL    HW2  624   0.919   2.515   1.273 -0.1652 -2.6158 -0.2590
  209SOL     OW  625   1.633   1.363   2.616  0.8337 -0.1472 -0.2695
  209SOL    HW1  626   1.681   1.309   2.542 -0.6145  1.5862 -1.3259
  209SOL    HW2  627   1.556   1.303   2.659 -2.3123 -0.8960  1.0072
  210SOL     OW  628   1.894   0.987   0.843 -0.3004 -0.7122 -0.1604
  210SOL    HW1  629   1.931   1.013   0.937  0.8289  0.5042  1.0546
  210SOL    HW2  630   1.971   0.972   0.774  0.1042  0.5028 -0.6206
  211SOL     OW  631   0.851   2.533   0.602 -0.0742  0.5357 -0.6651
  211SOL    HW1  632   0.835   2.594   0.519 -1.8663  2.3531 -0.6215
  211SOL    HW2  633   0.789   2.452   0.589  1.1063 -0.2328 -2.3453
  212SOL     OW  634   1.907   1.767   0.352  0.8114 -0.0650 -0.2524
  212SOL    HW1  635   1.894   1.844   0.283  1.9344 -0.4904  3.0885
  212SOL    HW2  636   1.884   1.798   0.447 -0.7579 -0.3149  2.0336
  213SOL     OW  637   1.790   0.445   2.906  0.0204 -0.5052  0.0571
  213SOL    HW1  638   1.844   0.358   2.932 -2.5066 -1.8439 -0.4270
  213SOL    HW2  639   1.718   0.416   2.840 -1.1908 -1.7949  1.2431
  214SOL     OW  640   1.198   1.590   2.115  0.1185  0.7005 -0.2413
  214SOL    HW1  641   1.100   1.557   2.108 -1.1765  0.7516 -0.1945
  214SOL    HW2  642   1.222   1.669   2.055 -1.4383  2.8012  0.3580
  215SOL     OW  643   0.858   1.802   0.317  0.3000  0.2229 -0.3756
  215SOL    HW1  644   0.873   1.812   0.213 -0.3066  0.0575  0.4284
  215SOL    HW2  645   0.757   1.795   0.329  1.9092 -1.2342 -0.2715
  216SOL     OW  646   0.168   2.820   2.551 -0.5929  0.0428  0.0997
  216SOL    HW1  647   0.247   2.755   2.549  0.1771  1.7648 -0.5891
  216SOL    HW2  648   0.076   2.770   2.544 -1.8342 -1.7790  2.3574
  217SOL     OW  649   2.548   0.775   0.996  0.1198 -0.5680 -0.2332
  217SOL    HW1  650   2.576   0.713   0.922 -0.0572 -0.8304  0.8798
  217SOL    HW2  651   2.568   0.731   1.085 -0.7126 -0.1152 -0.8097
  218SOL     OW  652   1.782   1.760   2.363  0.2382 -0.2415  0.2618
  218SOL    HW1  653   1.740   1.690   2.299 -2.3594 -3.6925 -1.0069
  218SOL    HW2  654   1.707   1.802   2.410 -1.1378 -2.6926 -2.7335
  219SOL     OW  655   2.110   1.612   0.243  0.0624 -0.3526  0.1296
  219SOL    HW1  656   2.086   1.585   0.146 -1.4132 -0.6378 -2.4088
  219SOL    HW2  657   2.033   1.659   0.284  1.3025  0.2254 -2.0320
  220SOL     OW  658   1.557   1.064   0.533 -0.5464 -0.4276 -0.4445
  220SOL    HW1  659   1.575   0.970   0.563 -1.3587  1.3661 -1.0844
  220SOL    HW2  660   1.545   1.126   0.617  0.2265  2.5130  0.6869
  221SOL     OW  661   0.675   0.636   2.992  0.1941 -0.1260 -0.3332
  221SOL    HW1  662   0.606   0.677   3.055 -2.0382  1.8224  1.7422
  221SOL    HW2  663   0.628   0.578   2.923 -1.1513 -3.8199 -0.4966
  222SOL     OW  664   1.392   1.397   0.081  0.1866  0.4031  0.0583
  222SOL    HW1  665   1.430   1.432   0.171  0.2209  2.0203  2.8804
  222SOL    HW2  666   1.293   1.397   0.078  0.2859 -0.4476 -2.0389
  223SOL     OW  667   1.184   0.366   0.214 -0.9801 -0.2999  0.1601
  223SOL    HW1  668   1.090   0.346   0.244  3.4547  1.1489  1.5695
  223SOL    HW2  669   1.244   0.374   0.294  1.5473  0.7977  0.4627
  224SOL     OW  670   1.935   3.065   1.483 -0.1908  0.0646  0.3889
  224SOL    HW1  671   1.923   3.104   1.578  0.6609 -0.2546  3.2417
  224SOL    HW2  672   2.005   2.982   1.478  1.6546 -4.3584 -2.7029
  225SOL     OW  673   0.446   2.565   1.256  0.2898  0.5398 -0.6804
  225SOL    HW1  674   0.466   2.516   1.346  1.6251 -0.2324  2.2456
  225SOL    HW2  675   0.523   2.626   1.231 -0.1447 -2.2358  1.3586
  226SOL     OW  676   1.094   1.567   2.918  0.0050  0.3157  0.2363
  226SOL    HW1  677   1.184   1.608   2.917 -0.3036  0.4027  1.1392
  226SOL    HW2  678   1.074   1.546   3.013  1.4788 -1.5104 -1.4802
  227SOL     OW  679   1.031   1.421   0.846  0.3493 -0.2646  0.2298
  227SOL    HW1  680   1.001   1.515   0.872 -2.8313  1.4248  1.2377
  227SOL    HW2  681   1.110   1.396   0.897 -1.1151  1.1043  0.4689
  228SOL     OW  682   0.349   1.922   0.471 -0.2517 -0.3360 -1.1770
  228SOL    HW1  683   0.397   1.906   0.565 -1.4855  0.6451  1.4873
  228SOL    HW2  684   0.292   2.004   0.468  0.7006  0.6497  1.7206
  229SOL     OW  685   1.483   0.150   2.997  0.0442 -0.0688 -0.5099
  229SOL    HW1  686   1.529   0.130   2.904  2.0817 -0.4283  0.0737
  229SOL    HW2  687   1.427   0.233   3.012  0.6123 -2.0090  0.4657
  230SOL     OW  688   1.529   0.860   2.621  0.2259  0.5042  0.0713
  230SOL    HW1  689   1.617   0.877   2.667  0.4400 -0.4533  0.6438
  230SOL    HW2  690   1.472   0.940   2.622 -0.3141 -0.7391  2.0726
  231SOL     OW  691   1.160   1.789   2.422 -0.3138  0.7392  0.2309
  231SOL    HW1  692   1.172   1.831   2.512 -0.6628 -1.3750 -1.7030
  231SOL    HW2  693   1.087   1.722   2.424  4.1652  0.2900 -0.8082
  232SOL     OW  694   2.342   2.270   0.336  0.0994  0.2275  0.3063
  232SOL    HW1  695   2.256   2.253   0.389  0.5406 -0.3157  0.0140
  232SOL    HW2  696   2.404   2.188   0.352  0.5415  0.1304  0.4323
  233SOL     OW  697   2.343   2.545   0.343  0.6269 -0.1315  0.3066
  233SOL    HW1  698   2.246   2.573   0.332 -0.0365  0.0472 -0.8445
  233SOL    HW2  699   2.342   2.447   0.337  1.0062  0.3474  0.1638
  234SOL     OW  700   0.782   0.843   2.858 -0.1515  0.0925 -0.3126
  234SOL    HW1  701   0.746   0.770   2.922 -0.5140  0.3913 -0.3485
  234SOL    HW2  702   0.873   0.862   2.898  2.2778  1.8643 -2.6509
  235SOL     OW  703   2.882   0.404   2.846 -0.6741 -0.0339  0.5552
  235SOL    HW1  704   2.891   0.363   2.934 -1.0356 -0.2429 -5.9390
  235SOL    HW2  705   2.798   0.376   2.795 -1.1551 -0.9629  4.0843
  236SOL     OW  706   2.034   2.486   1.809  0.3341 -0.6577 -0.2672
  236SOL    HW1  707   2.006   2.403   1.858 -1.6023  0.8347 -3.8617
  236SOL    HW2  708   2.002   2.565   1.866  3.6035  1.0272  1.1834
  237SOL     OW  709   0.721   1.700   2.041 -0.6110  0.3377  0.2391
  237SOL    HW1  710   0.750   1.792   2.073 -0.2843  0.1022  0.2112
  237SOL    HW2  711   0.713   1.634   2.119 -1.0894  2.1124  2.6789
  238SOL     OW  712   1.582   0.391   2.736 -0.3502  0.4954 -0.0774
  238SOL    HW1  713   1.520   0.474   2.734 -0.2715  2.1847 -1.1718
  238SOL    HW2  714   1.534   0.299   2.741  0.1367 -0.4040  1.0405
  239SOL     OW  715   0.374   2.191   1.623 -0.4090  0.1388 -0.4853
  239SOL    HW1  716   0.317   2.240   1.693 -2.2494  0.5150 -1.7148
  239SOL    HW2  717   0.451   2.139   1.667  0.4476 -2.2326 -0.4792
  240SOL     OW  718   2.735   2.260   0.601 -0.8686 -0.0279  0.1453
  240SOL    HW1  719   2.688   2.346   0.567  0.5459  0.2496 -0.2998
  240SOL    HW2  720   2.735   2.186   0.532 -1.3467 -0.3184 -3.3165
  241SOL     OW  721   2.736   0.968   0.873 -0.4744  0.8000  0.6370
  241SOL    HW1  722   2.702   0.913   0.952 -3.8453 -0.4085  1.3554
  241SOL    HW2  723   2.650   1.004   0.826  0.0763 -1.1799  0.1365
  242SOL     OW  724   2.279   2.512   2.325  0.9195 -0.2754 -0.1793
  242SOL    HW1  725   2.194   2.471   2.294 -1.1176  0.5826 -0.5449
  242SOL    HW2  726   2.342   2.531   2.254 -3.3508 -0.7124 -0.9699
  243SOL     OW  727   0.795   2.472   1.627 -0.2649 -0.4944  0.2122
  243SOL    HW1  728   0.867   2.540   1.609 -0.2673 -0.4086 -0.5347
  243SOL    HW2  729   0.769   2.418   1.545 -1.7502 -0.9162  1.6081
  244SOL     OW  730   1.612   0.077   2.771  0.3234  0.0112 -0.0345
  244SOL    HW1  731   1.710   0.090   2.747 -1.4676 -0.3111  0.3479
  244SOL    HW2  732   1.603   3.086   2.792 -0.7741 -0.4074  0.9508
  245SOL     OW  733   1.426   0.112   1.291  0.1112 -0.1115 -0.5390
  245SOL    HW1  734   1.323   0.118   1.266 -1.8658 -1.6545 -1.7751
  245SOL    HW2  735   1.440   0.018   1.328 -3.0386 -0.2476  0.5811
  246SOL     OW  736   1.719   2.606   0.201 -0.2365  0.4002  0.2754
  246SOL    HW1  737   1.785   2.540   0.159 -1.6797 -1.2500 -0.2107
  246SOL    HW2  738   1.651   2.643   0.135 -0.6095  0.5015  1.3300
  247SOL     OW  739   1.188   0.526   2.539  0.4263 -0.4109 -0.4873
  247SOL    HW1  740   1.084   0.542   2.530  1.3059 -1.1292  0.7320
  247SOL    HW2  741   1.216   0.429   2.531  0.2805 -0.5042 -0.3093
  248SOL     OW  742   0.591   2.097   1.742 -0.0950  0.1479 -0.0838
  248SOL    HW1  743   0.654   2.170   1.783 -2.0395 -2.8423 -0.9060
  248SOL    HW2  744   0.586   2.013   1.803  1.3110 -0.0438 -1.4542
  249SOL     OW  745   2.211   0.130   0.542  0.3124  0.1591 -0.0817
  249SOL    HW1  746   2.194   0.157   0.444  2.1604 -2.0476 -2.0083
  249SOL    HW2  747   2.159   0.043   0.566  0.4719  1.2690 -0.3174
  250SOL     OW  748   0.124   0.490   0.509 -0.7495  0.0987  0.6191
  250SOL    HW1  749   0.199   0.469   0.445  0.5246 -0.2422  0.4253
  250SOL    HW2  750   0.038   0.498   0.455 -2.4428  1.2878 -0.6579
  251SOL     OW  751   1.318   0.594   2.956  0.3472  0.1030  0.3804
  251SOL    HW1  752   1.366   0.677   2.998  1.2209  0.7335 -0.4795
  251SOL    HW2  753   1.336   0.592   2.857 -2.4946 -0.9131  2.1852
  252SOL     OW  754   1.688   1.766   2.101 -0.3907 -0.2797 -0.5538
  252SOL    HW1  755   1.761   1.790   2.030 -0.0850 -1.2357 -1.1658
  252SOL    HW2  756   1.602   1.737   2.051 -0.6745 -0.6027  0.1209
  253SOL     OW  757   2.524   2.369   1.469  0.2036  0.3796  0.1396
  253SOL    HW1  758   2.519   2.308   1.552 -2.4252 -2.8020  1.7118
  253SOL    HW2  759   2.608   2.347   1.414  2.3958 -0.2493 -0.2470
  254SOL     OW  760   2.926   1.060   1.252 -0.3539  0.2644 -0.1363
  254SOL    HW1  761   2.969   1.084   1.344  2.9869 -0.6564 -0.4493
  254SOL    HW2  762   2.988   1.063   1.171 -1.3385  1.5731 -1.4524
  255SOL     OW  763   1.257   0.404   1.023  0.4697 -0.0668 -0.3309
  255SOL    HW1  764   1.211   0.327   1.072 -2.3337 -1.5241  0.6291
  255SOL    HW2  765   1.231   0.497   1.062 -0.5938  1.0459 -1.3961
  256SOL     OW  766   1.793   2.286   1.352  0.4216 -0.4099 -0.1021
  256SOL    HW1  767   1.778   2.260   1.446 -1.7809 -1.8811  1.1658
  256SOL    HW2  768   1.891   2.282   1.329 -0.2096  0.6895  0.9978
  257SOL     OW  769   0.430   3.071   2.650  0.1855 -0.2920  0.5552
  257SOL    HW1  770   0.469   2.997   2.704  0.3665 -0.4423 -1.6152
  257SOL    HW2  771   0.455   3.060   2.551 -0.5551 -0.9195  0.8964
  258SOL     OW  772   0.911   2.235   0.322 -0.0378  0.2925  0.1669
  258SOL    HW1  773   0.846   2.294   0.370  3.0235  2.1166  0.9967
  258SOL    HW2  774   0.926   2.148   0.375  2.8484  0.6500  0.8117
  259SOL     OW  775   1.109   3.074   2.719  0.6899 -0.0971 -0.6189
  259SOL    HW1  776   1.017   3.037   2.702 -1.4303  0.0152  0.1899
  259SOL    HW2  777   1.160   3.081   2.633 -0.9619  1.4762  4.3047
  260SOL     OW  778   2.106   0.750   0.987 -0.4943 -0.1143 -0.7403
  260SOL    HW1  779   2.050   0.698   1.061 -2.5244 -1.4504  0.6243
  260SOL    HW2  780   2.054   0.752   0.900 -1.2886  0.0676 -0.1455
  261SOL     OW  781   0.450   0.399   2.491  0.6139  0.4473 -0.7100
  261SOL    HW1  782   0.347   0.404   2.478 -2.6751  4.2189 -1.6237
  261SOL    HW2  783   0.493   0.485   2.460 -1.7658  0.3047  0.6922
  262SOL     OW  784   0.234   2.297   1.811  0.2124  0.0449  0.4299
  262SOL    HW1  785   0.266   2.257   1.900  0.0795 -3.4173 -2.0383
  262SOL    HW2  786   0.211   2.396   1.815 -0.8775 -0.3558 -4.7831
  263SOL     OW  787   2.926   1.592   2.327  0.5382 -0.5210 -0.2256
  263SOL    HW1  788   3.015   1.550   2.349 -0.4250  2.4456 -0.5074
  263SOL    HW2  789   2.939   1.688   2.304  1.9694  0.7307 -1.0341
  264SOL     OW  790   1.035   1.102   0.873  0.3475  0.0318  0.4674
  264SOL    HW1  791   0.964   1.173   0.850 -0.1557  0.4293  0.5903
  264SOL    HW2  792   1.060   1.048   0.791  1.3824 -3.4145 -1.6002
  265SOL     OW  793   1.479   2.644   0.990 -0.1372 -0.1582 -0.4659
  265SOL    HW1  794   1.484   2.710   1.071  0.5540  2.8409  0.4734
  265SOL    HW2  795   1.557   2.659   0.923 -0.0907  1.6160 -2.6793
  266SOL     OW  796   1.647   1.030   1.381  0.4562 -0.4304 -0.0208
  266SOL    HW1  797   1.735   1.018   1.430 -2.4427 -0.4485 -1.8094
  266SOL    HW2  798   1.661   1.026   1.281 -1.5444  1.3994  1.3007
  267SOL     OW  799   2.498   1.072   3.027 -0.2328 -0.0648 -0.2251
  267SOL    HW1  800   2.510   1.010   2.947  1.0265  0.0476  0.2330
  267SOL    HW2  801   2.425   1.032   3.087  1.8118 -0.8192  2.0271
  268SOL     OW  802   1.362   0.383   0.461  0.5647 -0.2484  0.2480
  268SOL    HW1  803   1.345   0.299   0.517  3.1553 -0.0492 -0.2448
  268SOL    HW2  804   1.433   0.438   0.514 -1.3010  1.2678  2.7469
  269SOL     OW  805   2.904   0.701   2.667  0.2320 -0.3983 -0.2978
  269SOL    HW1  806   2.902   0.611   2.621 -0.2575 -1.5454 -0.4656
  269SOL    HW2  807   2.825   0.749   2.632  1.6323 -0.4048 -1.2515
  270SOL     OW  808   0.267   1.365   2.677 -0.1140 -0.5924 -0.1620
  270SOL    HW1  809   0.346   1.356   2.739 -0.0669 -0.5952  2.0031
  270SOL    HW2  810   0.203   1.433   2.714 -1.8178 -2.1127 -1.1969
  271SOL     OW  811   2.715   0.874   0.003 -0.1461 -0.0614 -0.3807
  271SOL    HW1  812   2.723   0.785   0.048  0.3721  0.3763 -0.7742
  271SOL    HW2  813   2.691   0.943   0.074 -1.3400 -0.6235 -0.3686
  272SOL     OW  814   2.783   2.516   2.578  0.1607  0.6802  0.2150
  272SOL    HW1  815   2.827   2.609   2.590  0.6553 -2.2903 -1.5855
  272SOL    HW2  816   2.847   2.439   2.599  0.8387 -1.3272 -0.1560
  273SOL     OW  817   2.980   3.043   3.033 -0.3215  0.2118 -0.4879
  273SOL    HW1  818   2.987   0.029   3.067  2.6750 -1.2429 -0.9150
  273SOL    HW2  819   2.989   2.973   0.000  3.5502  0.3509  2.0659
  274SOL     OW  820   0.937   2.350   0.974  0.3800 -0.2868  0.3338
  274SOL    HW1  821   0.840   2.366   0.951 -1.7528  0.2478  1.3910
  274SOL    HW2  822   1.001   2.380   0.903  0.4465 -0.1890  0.0053
  275SOL     OW  823   2.262   0.789   0.476  0.1913  0.0402  0.1899
  275SOL    HW1  824   2.282   0.694   0.447  1.5982  0.9930  0.0366
  275SOL    HW2  825   2.353   0.832   0.500 -4.3190 -0.3928  0.5848
  276SOL     OW  826   2.844   1.396   1.430  0.2498  0.7591 -0.8959
  276SOL    HW1  827   2.765   1.383   1.364  2.2580 -0.8513  0.0594
  276SOL    HW2  828   2.823   1.480   1.483 -0.9963 -2.0155  0.2941
  277SOL     OW  829   2.141   3.063   1.103  0.7349 -0.2451  0.6488
  277SOL    HW1  830   2.050   3.020   1.108  1.9047  0.4325  0.5361
  277SOL    HW2  831   2.148   0.003   1.196  3.5478 -0.1838  2.5891
  278SOL     OW  832   1.425   2.681   2.391 -0.8641 -0.2951  0.3038
  278SOL    HW1  833   1.420   2.587   2.359  0.4516 -0.8104  0.2139
  278SOL    HW2  834   1.336   2.725   2.404 -1.0297 -1.8405 -1.2128
  279SOL     OW  835   1.522   2.112   1.151 -0.3415  0.1917  0.1059
  279SOL    HW1  836   1.594   2.052   1.190 -0.4356 -3.9547  1.4667
  279SOL    HW2  837   1.562   2.188   1.092  0.0686  1.4720 -0.3241
  280SOL     OW  838   0.339   1.390   0.946 -1.1039 -0.2749 -0.4297
  280SOL    HW1  839   0.247   1.411   0.983 -0.4452 -0.1842  0.8970
  280SOL    HW2  840   0.402   1.384   1.023 -2.0045 -0.3757 -0.0662
  281SOL     OW  841   2.816   1.365   2.797  0.1647  0.1856  0.3877
  281SOL    HW1  842   2.722   1.347   2.761  2.7055 -1.7385  1.2557
  281SOL    HW2  843   2.865   1.417   2.725 -0.1327 -1.1421  1.1250
  282SOL     OW  844   0.584   1.764   0.386  0.2522  0.3210  0.5204
  282SOL    HW1  845   0.529   1.786   0.465  3.2681 -0.1468 -1.8726
  282SOL    HW2  846   0.558   1.675   0.345 -0.4496  1.5700 -0.0241
  283SOL     OW  847   1.929   2.381   0.124  0.2367 -1.0142  0.3720
  283SOL    HW1  848   2.020   2.410   0.084  3.0167  0.1165 -2.1771
  283SOL    HW2  849   1.854   2.389   0.049 -0.8535 -0.3282 -3.0771
  284SOL     OW  850   1.163   0.037   0.867  0.1040  0.5505 -0.4266
  284SOL    HW1  851   1.173   0.101   0.791  2.3755 -1.1937 -0.4375
  284SOL    HW2  852   1.227   3.068   0.848  0.1719  2.1114  1.3217
  285SOL     OW  853   2.249   1.044   2.764 -0.4081  0.6623 -0.0878
  285SOL    HW1  854   2.251   1.106   2.686 -2.0007 -1.9288  2.3099
  285SOL    HW2  855   2.220   1.089   2.852 -2.3923  0.1745  3.5422
  286SOL     OW  856   2.010   2.413   0.956 -0.0512  0.1328  0.3757
  286SOL    HW1  857   2.019   2.316   0.915 -0.8353 -1.1474  0.7102
  286SOL    HW2  858   2.101   2.454   0.976 -1.6776  1.2042  2.3651
  287SOL     OW  859   1.455   0.318   0.875 -0.1517 -0.1150  0.4171
  287SOL    HW1  860   1.496   0.227   0.911  1.1370 -2.7281 -0.5966
  287SOL    HW2  861   1.379   0.356   0.934  1.1881  0.5085 -1.4814
  288SOL     OW  862   0.719   2.462   2.809 -0.2016 -0.8354  0.0221
  288SOL    HW1  863   0.748   2.552   2.769  1.9690  1.0602  1.7743
  288SOL    HW2  864   0.682   2.470   2.901 -1.5622 -0.9297 -1.0799
  289SOL     OW  865   0.113   1.552   0.785 -0.1996 -0.2838 -0.3776
  289SOL    HW1  866   0.123   1.484   0.862  3.3057  1.0421  2.8438
  289SOL    HW2  867   0.067   1.636   0.820  0.0089 -1.5811 -0.2197
  290SOL     OW  868   1.353   2.009   0.958  0.0311  0.0542 -0.2606
  290SOL    HW1  869   1.265   2.050   0.991 -1.6127 -1.6948  0.0630
  290SOL    HW2  870   1.434   2.049   1.009  1.7947 -1.6444 -0.4960
  291SOL     OW  871   1.471   3.025   0.277 -0.0588  0.3267 -0.2563
  291SOL    HW1  872   1.413   2.940   0.269  0.8697  0.6172 -0.2997
  291SOL    HW2  873   1.418   3.099   0.232 -2.6535 -1.4783  0.4141
  292SOL     OW  874   0.460   0.320   2.198  0.7831 -0.4350 -0.6013
  292SOL    HW1  875   0.438   0.341   2.290  0.1383 -0.3581 -0.1105
  292SOL    HW2  876   0.499   0.402   2.154 -1.5524 -0.9436 -1.7815
  293SOL     OW  877   2.389   2.020   1.122  0.0072 -0.0967  0.1977
  293SOL    HW1  878   2.468   1.963   1.093  0.5953 -1.1867 -2.1179
  293SOL    HW2  879   2.415   2.066   1.211  1.6131 -0.6341  2.1301
  294SOL     OW  880   0.820   0.233   2.380  0.7809 -0.0258  0.1465
  294SOL    HW1  881   0.800   0.243   2.477 -1.0727 -1.2012  0.8079
  294SOL    HW2  882   0.750   0.176   2.329  1.6412  0.4275 -0.6355
  295SOL     OW  883   1.601   1.464   1.235 -0.5138  0.4759  0.5677
  295SOL    HW1  884   1.569   1.386   1.296 -0.3315 -1.0705 -0.5646
  295SOL    HW2  885   1.648   1.538   1.290  0.6038  0.2617  2.4195
  296SOL     OW  886   2.445   1.791   0.301  0.5797  0.0072  0.3370
  296SOL    HW1  887   2.415   1.696   0.316 -0.5844  1.9249  2.0773
  296SOL    HW2  888   2.541   1.799   0.265  0.8258  1.6032 -0.0453
  297SOL     OW  889   2.520   0.015   0.383  0.0108 -0.2067  0.2012
  297SOL    HW1  890   2.483   3.063   0.308 -1.3244  2.4614 -0.1623
  297SOL    HW2  891   2.453   0.018   0.461  0.5069  3.9398 -1.7224
  298SOL     OW  892   0.697   0.195   3.026  0.0283 -0.3985 -0.3459
  298SOL    HW1  893   0.730   0.160   2.934  0.0744  0.8164 -0.4068
  298SOL    HW2  894   0.758   0.270   3.062  1.9542 -0.8031  1.4679
  299SOL     OW  895   0.708   2.304   2.242 -0.1599  0.0843  0.3982
  299SOL    HW1  896   0.768   2.225   2.264 -2.1575  1.6955  0.8267
  299SOL    HW2  897   0.655   2.332   2.321 -2.1718  0.2261 -1.3245
  300SOL     OW  898   2.855   0.059   2.490  0.0257 -0.3155 -0.1473
  300SOL    HW1  899   2.887   0.157   2.493 -0.8554 -0.6462 -1.6276
  300SOL    HW2  900   2.903   0.005   2.559  0.2210  2.1628 -0.0667
  301SOL     OW  901   1.215   0.529   1.605  0.4545 -0.0073  0.1936
  301SOL    HW1  902   1.302   0.521   1.663 -2.2004  1.8963  0.3055
  301SOL    HW2  903   1.159   0.453   1.627  3.6074  2.5559 -1.2992
  302SOL     OW  904   2.815   2.144   2.816 -0.2252  0.0145  0.0417
  302SOL    HW1  905   2.838   2.187   2.907 -2.1923  1.0668 -1.2007
  302SOL    HW2  906   2.717   2.127   2.811 -0.3638 -2.2986 -1.8695
  303SOL     OW  907   2.415   2.585   1.614 -0.2076 -0.1189 -0.0824
  303SOL    HW1  908   2.446   2.515   1.548  1.0036  0.9557 -1.2513
  303SOL    HW2  909   2.488   2.658   1.631  1.8757 -1.0843  1.9783
  304SOL     OW  910   2.679   0.750   1.575  0.4578  0.0061  0.0094
  304SOL    HW1  911   2.672   0.670   1.637 -0.6131  0.0059 -1.4048
  304SOL    HW2  912   2.752   0.816   1.602 -1.5897  1.6260  0.9334
  305SOL     OW  913   0.832   1.774   0.910 -0.3985 -0.4798 -0.9787
  305SOL    HW1  914   0.857   1.834   0.989  0.1321  0.2452  1.7418
  305SOL    HW2  915   0.743   1.727   0.932  0.8512  0.3471 -0.6477
  306SOL     OW  916   0.400   1.644   2.125  0.0778  0.2961 -0.1473
  306SOL    HW1  917   0.323   1.695   2.082  1.3222  1.1127  1.1534
  306SOL    HW2  918   0.470   1.709   2.154 -1.7262 -1.5100  0.9221
  307SOL     OW  919   1.073   0.330   1.707 -0.1331  0.4527  0.9020
  307SOL    HW1  920   1.065   0.382   1.793 -0.1691  0.5520  1.2313
  307SOL    HW2  921   1.129   0.246   1.710 -3.1766 -0.1668 -1.0435
  308SOL     OW  922   3.100   1.011   1.022  0.0122 -0.2386  0.0993
  308SOL    HW1  923   0.010   0.909   1.015 -1.7276 -1.0025 -1.6256
  308SOL    HW2  924   0.041   1.067   0.950 -0.3881 -0.4660  0.6904
  309SOL     OW  925   2.673   1.101   1.342 -0.0269  0.2298  0.4137
  309SOL    HW1  926   2.644   1.200   1.369 -0.3708  1.2588  0.6981
  309SOL    HW2  927   2.767   1.096   1.293  2.3605 -1.6883 -1.0673
  310SOL     OW  928   0.151   1.832   2.314  0.1710 -0.3202 -0.4810
  310SOL    HW1  929   0.219   1.766   2.350 -2.6208 -1.2774 -2.3296
  310SOL    HW2  930   0.153   1.834   2.209  0.5826  0.5999 -0.3343
  311SOL     OW  931   2.746   2.758   2.240  0.3045 -0.6345  0.0239
  311SOL    HW1  932   2.805   2.803   2.164 -0.1565  0.3228 -0.4872
  311SOL    HW2  933   2.798   2.762   2.330  2.2372 -0.3559 -0.4403
  312SOL     OW  934   1.959   2.136   2.974  0.2227  0.0013 -0.0769
  312SOL    HW1  935   1.903   2.210   3.013 -2.4161  1.1759  1.5726
  312SOL    HW2  936   2.056   2.142   3.006  3.9794  0.5473  1.9537
  313SOL     OW  937   2.901   2.975   0.667  0.4756  0.4680 -0.2511
  313SOL    HW1  938   2.809   3.028   0.669 -3.6564  2.6831 -1.8358
  313SOL    HW2  939   2.964   3.028   0.612 -0.9610  0.6874  0.3029
  314SOL     OW  940   1.936   1.001   0.050  0.5253  0.4345 -0.5208
  314SOL    HW1  941   1.945   1.054   0.136 -0.4209  0.8802  2.0247
  314SOL    HW2  942   1.987   1.054   3.086  0.5373  0.6647 -2.0087
  315SOL     OW  943   1.333   0.012   2.519  0.2565 -0.6889  0.6621
  315SOL    HW1  944   1.347   0.005   2.418  1.6247 -1.1524 -3.7169
  315SOL    HW2  945   1.358   3.032   2.569 -0.0770  0.6636  2.5581
  316SOL     OW  946   0.008   1.366   0.427 -1.2843 -0.2953  0.3727
  316SOL    HW1  947   0.097   1.421   0.451  3.0151 -0.3001 -1.0625
  316SOL    HW2  948   0.020   1.293   0.358  0.4120 -2.3432 -1.2354
  317SOL     OW  949   0.529   2.779   3.022 -0.3301  0.3407  0.1341
  317SOL    HW1  950   0.433   2.776   3.055 -0.3250 -0.1151 -1.4849
  317SOL    HW2  951   0.586   2.839   3.081  1.8788  1.0846  0.9390
  318SOL     OW  952   2.667   2.273   1.261 -0.3124 -0.4250 -0.6014
  318SOL    HW1  953   2.717   2.205   1.205  2.6265  0.9020  1.8064
  318SOL    HW2  954   2.603   2.321   1.199  1.2042  1.4018 -1.7132
  319SOL     OW  955   1.063   1.929   2.815  0.2398  0.0100 -0.6408
  319SOL    HW1  956   1.002   1.872   2.755 -0.2128  0.5319 -0.4145
  319SOL    HW2  957   1.079   1.882   2.906  0.9199  2.2426  0.9383
  320SOL     OW  958   0.637   1.998   1.225  0.7067  0.1050  0.0287
  320SOL    HW1  959   0.723   1.967   1.174 -0.3581 -2.1443 -0.2103
  320SOL    HW2  960   0.661   2.009   1.325  1.8389 -0.1486 -0.6131
  321SOL     OW  961   1.183   2.816   2.493 -0.2613 -0.0855 -0.6783
  321SOL    HW1  962   1.153   2.880   2.415 -0.7973 -0.2905 -3.9731
  321SOL    HW2  963   1.121   2.736   2.511 -2.5700 -1.8619 -2.0422
  322SOL     OW  964   2.438   1.984   1.974  0.5090  0.2358  0.1244
  322SOL    HW1  965   2.413   1.962   2.067  1.0293 -0.2663 -3.7928
  322SOL    HW2  966   2.533   2.010   1.963 -1.0121  0.5202 -0.9892
  323SOL     OW  967   3.006   0.612   1.054 -0.3180 -0.3712  0.0617
  323SOL    HW1  968   3.099   0.655   1.045 -1.3808  0.6746 -1.6566
  323SOL    HW2  969   3.020   0.519   1.093  1.3247 -1.4242 -0.3740
  324SOL     OW  970   2.599   3.076   2.496  0.0917  0.3552  0.0514
  324SOL    HW1  971   2.581   3.064   2.594 -0.6275 -1.2450 -2.6205
  324SOL    HW2  972   2.696   3.106   2.480  0.3133  0.7681 -2.9757
  325SOL     OW  973   0.895   0.549   2.495  0.1695  0.1895  0.5873
  325SOL    HW1  974   0.818   0.486   2.503  1.4667 -0.4083  1.9838
  325SOL    HW2  975   0.880   0.607   2.409  0.4620  0.3828 -0.7828
  326SOL     OW  976   1.993   2.664   2.007  0.5569  0.2287  0.4295
  326SOL    HW1  977   1.978   2.708   2.098 -0.3929 -0.8079  1.2023
  326SOL    HW2  978   2.090   2.659   1.987 -0.8946 -0.4631  0.8541
  327SOL     OW  979   2.155   0.097   3.012 -0.3749 -0.0088  0.2820
  327SOL    HW1  980   2.220   0.134   3.081  1.9519 -1.6894 -1.0548
  327SOL    HW2  981   2.147   3.106   3.024 -0.9289  0.9786  1.1322
  328SOL     OW  982   0.094   1.402   1.972 -0.8846  0.3507  0.3471
  328SOL    HW1  983   0.096   1.344   2.060 -0.5472 -1.5890  0.4338
  328SOL    HW2  984   0.044   1.488   1.985 -0.3909  1.7545  5.4637
  329SOL     OW  985   1.911   0.330   1.563 -0.1673  0.1549 -0.4201
  329SOL    HW1  986   1.884   0.314   1.659 -0.6466  0.2076 -0.1337
  329SOL    HW2  987   1.993   0.388   1.552  0.9318 -0.0631  0.3430
  330SOL     OW  988   0.290   1.142   0.841  0.6519 -0.5627  0.1000
  330SOL    HW1  989   0.190   1.128   0.804 -0.5481 -1.4870 -3.4507
  330SOL    HW2  990   0.307   1.237   0.874  0.3741  2.0916  0.7550
  331SOL     OW  991   0.172   1.797   2.024  0.3556  0.7206 -0.3555
  331SOL    HW1  992   0.091   1.736   2.003  0.6544 -3.0303 -1.8710
  331SOL    HW2  993   0.192   1.836   1.934 -2.6340 -1.4412  0.3690
  332SOL     OW  994   2.948   2.812   1.488  0.4308  0.1480 -0.4122
  332SOL    HW1  995   3.004   2.789   1.405 -0.2540  3.2079 -0.2171
  332SOL    HW2  996   2.929   2.731   1.545  1.1377  2.6600 -0.1065
  333SOL     OW  997   2.361   0.046   0.935  0.1115 -0.1386 -0.0464
  333SOL    HW1  998   2.282   0.041   0.997 -0.1959  1.9716 -2.5260
  333SOL    HW2  999   2.450   0.055   0.980 -2.5371  0.4739  1.2601
  334SOL     OW 1000   0.499   1.840   0.687  0.2552 -0.7277  0.2148
  334SOL    HW1 1001   0.497   1.746   0.719 -0.4877  4.5229 -3.4284
  334SOL    HW2 1002   0.468   1.901   0.763 -0.7170  1.1644 -1.5090
  335SOL     OW 1003   0.147   2.558   2.957 -0.2876 -0.1121 -0.0243
  335SOL    HW1 1004   0.094   2.523   2.880 -1.5783 -0.9516  0.2005
  335SOL    HW2 1005   0.239   2.505   2.976  4.1552 -1.8028  0.1763
  336SOL     OW 1006   3.019   2.799   2.384 -0.7602  0.1783 -0.3890
  336SOL    HW1 1007   3.003   2.890   2.338 -0.1923  2.1324  2.0090
  336SOL    HW2 1008   3.086   2.751   2.323 -1.7491 -2.7866 -0.0189
  337SOL     OW 1009   1.844   2.476   2.168 -0.5442  0.6108  0.0234
  337SOL    HW1 1010   1.899   2.513   2.093 -1.2713  0.9528  0.7155
  337SOL    HW2 1011   1.756   2.429   2.132 -1.7224 -0.8768  0.9989
  338SOL     OW 1012   0.603   2.870   0.177 -0.3071  0.3662  0.0676
  338SOL    HW1 1013   0.534   2.946   0.187 -1.2683  1.1029 -0.7235
  338SOL    HW2 1014   0.701   2.896   0.203  1.4420  1.2727  2.5700
  339SOL     OW 1015   0.415   1.182   2.118 -0.0222  0.1682  0.7113
  339SOL    HW1 1016   0.458   1.258   2.172 -2.0794 -0.2346  0.8571
  339SOL    HW2 1017   0.422   1.188   2.016 -2.4544 -0.1849 -0.7133
  340SOL     OW 1018   1.832   2.791   0.563  0.1561  0.6137 -0.4355
  340SOL    HW1 1019   1.844   2.691   0.585  0.1536 -0.4968 -0.6386
  340SOL    HW2 1020   1.762   2.826   0.626 -0.4576  0.2298  0.6002
  341SOL     OW 1021   2.257   1.068   0.750 -0.1118 -0.4686 -0.8564
  341SOL    HW1 1022   2.193   1.017   0.687  3.6369 -1.1733 -0.5879
  341SOL    HW2 1023   2.286   1.008   0.830  1.6516 -2.1376 -1.6028
  342SOL     OW 1024   2.410   2.979   0.189 -0.3650  0.5231  0.4516
  342SOL    HW1 1025   2.311   2.942   0.199 -0.2652  0.4817 -0.2579
  342SOL    HW2 1026   2.475   2.906   0.161  0.8039 -1.6515  0.4901
  343SOL     OW 1027   1.385   2.188   1.632  0.3373 -0.0216 -0.0528
  343SOL    HW1 1028   1.385   2.293   1.640 -1.8930 -0.3293 -0.7800
  343SOL    HW2 1029   1.473   2.146   1.666 -0.4234  1.6046 -2.8092
  344SOL     OW 1030   2.716   2.872   1.051  0.9927  0.1200  0.8478
  344SOL    HW1 1031   2.709   2.816   1.131  1.1340  1.9759 -2.1846
  344SOL    HW2 1032   2.808   2.872   1.015 -1.3355 -1.6375  0.6528
  345SOL     OW 1033   2.592   2.052   2.982 -0.4420 -0.0825  0.3845
  345SOL    HW1 1034   2.664   1.983   2.995  2.5439  4.5908 -1.2828
  345SOL    HW2 1035   2.596   2.124   3.055  0.8179  2.0570  0.3433
  346SOL     OW 1036   2.373   2.023   0.644 -0.2904 -0.3681  0.3650
  346SOL    HW1 1037   2.433   2.051   0.566 -1.2073 -0.0231  0.5054
  346SOL    HW2 1038   2.424   1.943   0.684 -0.0771  2.5687 -0.9532
  347SOL     OW 1039   1.651   1.888   1.576 -0.0651 -0.2930  0.5892
  347SOL    HW1 1040   1.653   1.977   1.618 -0.6361 -0.2517 -0.2723
  347SOL    HW2 1041   1.565   1.840   1.606  0.4554 -1.0145  1.2053
  348SOL     OW 1042   0.569   1.713   2.357  0.1263  0.4587 -0.5331
  348SOL    HW1 1043   0.659   1.758   2.385  1.5517  3.7662 -1.5498
  348SOL    HW2 1044   0.578   1.614   2.349  0.0648  0.5219 -0.8067
  349SOL     OW 1045   2.281   1.496   0.954 -0.0821  0.3307  0.3683
  349SOL    HW1 1046   2.309   1.438   0.871 -2.2021 -2.5392  1.6146
  349SOL    HW2 1047   2.278   1.595   0.918 -0.8062  0.5585 -1.5306
  350SOL     OW 1048   2.993   2.424   0.748 -0.0984 -0.3182  0.1849
  350SOL    HW1 1049   2.988   2.512   0.701 -1.2415 -1.0346  4.1682
  350SOL    HW2 1050   2.896   2.404   0.771  0.3502  2.9480 -1.8354
  351SOL     OW 1051   0.521   3.044   1.798 -0.1914 -0.4990 -0.3011
  351SOL    HW1 1052   0.424   3.073   1.815 -2.0647  2.3234 -0.7624
  351SOL    HW2 1053   0.550   3.096   1.717 -1.2536 -3.0303  0.4568
  352SOL     OW 1054   0.782   1.581   1.221 -0.5662  0.3613 -0.1009
  352SOL    HW1 1055   0.691   1.610   1.247  2.0266  0.1611  1.6033
  352SOL    HW2 1056   0.783   1.524   1.129 -0.9542 -2.4901 -1.8839
  353SOL     OW 1057   1.419   1.511   2.540  0.3663  0.0595 -0.4785
  353SOL    HW1 1058   1.337   1.455   2.546  3.1962  0.6817 -1.1910
  353SOL    HW2 1059   1.500   1.455   2.558  0.5793 -0.7485  3.0077
  354SOL     OW 1060   1.618   2.955   1.546 -0.2775 -0.2736 -0.1830
  354SOL    HW1 1061   1.520   2.963   1.513 -0.3955  2.2503 -0.1077
  354SOL    HW2 1062   1.631   3.024   1.619 -2.3815 -1.6418 -0.5456
  355SOL     OW 1063   2.318   1.344   0.735 -0.3606 -0.4332 -0.9364
  355SOL    HW1 1064   2.283   1.251   0.765  0.8965 -0.0067 -0.0261
  355SOL    HW2 1065   2.256   1.378   0.662  1.2412 -0.5490 -0.0236
  356SOL     OW 1066   2.630   1.797   2.213 -0.3304 -0.2283 -0.5676
  356SOL    HW1 1067   2.545   1.855   2.225 -2.7513  1.6089  2.6461
  356SOL    HW2 1068   2.707   1.855   2.247  0.2712 -0.9310 -0.5650
  357SOL     OW 1069   0.609   2.982   1.217  0.2940 -0.0765 -0.0270
  357SOL    HW1 1070   0.641   2.884   1.194  2.4992  0.1302 -0.8174
  357SOL    HW2 1071   0.680   3.050   1.197  0.0960 -1.7718 -1.3849
  358SOL     OW 1072   2.422   1.398   1.812  0.5827  0.6259 -0.3281
  358SOL    HW1 1073   2.469   1.486   1.832 -1.7365  0.5310  3.0722
  358SOL    HW2 1074   2.491   1.324   1.801  2.7748 -3.0340 -1.2584
  359SOL     OW 1075   2.237   2.845   2.473  0.4048  0.1602  0.0552
  359SOL    HW1 1076   2.184   2.764   2.505  1.5540 -2.6247  1.8883
  359SOL    HW2 1077   2.188   2.933   2.476  3.3999 -2.1041 -1.7263
  360SOL     OW 1078   0.709   0.390   0.852  0.4506 -0.1459  0.1131
  360SOL    HW1 1079   0.732   0.437   0.769 -1.8255  1.7430 -0.1667
  360SOL    HW2 1080   0.664   0.300   0.837 -1.0736  2.0183  0.9350
  361SOL     OW 1081   1.823   2.954   1.137  0.0521 -0.1064  0.0486
  361SOL    HW1 1082   1.822   3.052   1.167  1.3549  1.8771  1.1089
  361SOL    HW2 1083   1.792   2.888   1.210 -0.8720  0.3679 -1.3785
  362SOL     OW 1084   1.248   1.048   1.040  0.4831 -0.2173  0.3135
  362SOL    HW1 1085   1.324   1.116   1.053  1.1234  1.2475  1.2774
  362SOL    HW2 1086   1.181   1.076   0.962 -3.6457  1.4529 -1.9632
  363SOL     OW 1087   2.375   1.438   2.474  0.0727 -0.5949  0.0347
  363SOL    HW1 1088   2.445   1.420   2.549  0.9641 -1.0102  0.3039
  363SOL    HW2 1089   2.419   1.480   2.389 -1.3364 -2.5663  0.6796
  364SOL     OW 1090   0.199   0.011   0.954  0.0654 -0.0753 -0.0402
  364SOL    HW1 1091   0.259   0.052   1.031  0.5186 -0.6846  2.4552
  364SOL    HW2 1092   0.101   0.027   0.977 -2.6200  0.5563  0.6773
  365SOL     OW 1093   0.140   3.047   2.993 -0.0897  0.1144 -0.3758
  365SOL    HW1 1094   0.172   3.040   2.895 -0.6888  1.3642  0.9501
  365SOL    HW2 1095   0.037   3.029   3.003 -1.4671 -0.5608 -0.6051
  366SOL     OW 1096   2.229   2.131   3.026 -0.6570 -0.1577  0.3797
  366SOL    HW1 1097   2.272   2.046   3.057  1.3220  0.2830  0.7227
  366SOL    HW2 1098   2.272   2.207   3.078 -0.8151 -0.9921  1.0895
  367SOL     OW 1099   2.498   2.528   2.949  0.2909  0.0741  0.2329
  367SOL    HW1 1100   2.520   2.575   2.862  0.5985  0.3970  1.0418
  367SOL    HW2 1101   2.585   2.535   3.007  1.5900 -1.2096 -1.4129
  368SOL     OW 1102   0.084   1.395   1.014 -0.0508  0.7017  0.5165
  368SOL    HW1 1103   3.098   1.427   1.014  1.8134 -1.0665  0.9737
  368SOL    HW2 1104   0.101   1.330   1.090  2.1404  0.0046 -2.0276
  369SOL     OW 1105   0.589   2.874   2.778  0.6444  0.1975  0.0567
  369SOL    HW1 1106   0.563   2.849   2.873 -0.0449  1.3287  0.1855
  369SOL    HW2 1107   0.679   2.842   2.756 -0.2846  0.4716  1.1049
  370SOL     OW 1108   2.891   0.886   0.456 -0.3953  0.5681  0.3705
  370SOL    HW1 1109   2.914   0.919   0.364 -0.5358 -1.5771  0.3310
  370SOL    HW2 1110   2.864   0.787   0.456  2.4916  0.8481  1.6232
  371SOL     OW 1111   1.935   2.126   0.915  0.0115 -0.1362  0.0223
  371SOL    HW1 1112   2.029   2.120   0.871  2.1016  3.2417 -1.5517
  371SOL    HW2 1113   1.905   2.050   0.980  0.3206  1.5201 -0.4430
  372SOL     OW 1114   0.198   0.933   2.876 -0.4084 -0.6101 -0.5217
  372SOL    HW1 1115   0.292   0.906   2.915  2.5043 -0.3971  1.5839
  372SOL    HW2 1116   0.124   0.878   2.917 -0.0879  2.3829 -0.6902
  373SOL     OW 1117   3.074   1.956   1.089  0.1011  0.4267 -0.3854
  373SOL    HW1 1118   2.994   2.018   1.075 -0.3594  0.9558 -0.0219
  373SOL    HW2 1119   3.093   1.954   1.187  0.9798  0.4080 -2.1560
  374SOL     OW 1120   0.398   2.662   0.161 -0.3557 -0.6230 -0.6930
  374SOL    HW1 1121   0.323   2.700   0.099 -1.2546  2.2635  0.6481
  374SOL    HW2 1122   0.477   2.725   0.169 -0.1389  1.6249  0.1304
  375SOL     OW 1123   0.134   0.176   0.275  0.4821  0.1502  0.4771
  375SOL    HW1 1124   0.187   0.263   0.291  1.0954  1.3153 -2.3692
  375SOL    HW2 1125   0.035   0.202   0.254 -0.6546  0.6950 -1.4994
  376SOL     OW 1126   0.120   2.562   1.569 -0.9139  0.6160  0.3440
  376SOL    HW1 1127   0.024   2.586   1.575  1.1843 -0.1552  1.6669
  376SOL    HW2 1128   0.177   2.640   1.539  1.0018  0.6578  0.0789
  377SOL     OW 1129   1.845   2.511   2.854 -0.3790 -1.0829  0.4439
  377SOL    HW1 1130   1.842   2.612   2.852 -0.5097 -1.5288  0.3842
  377SOL    HW2 1131   1.886   2.472   2.767 -0.4126  1.0158  0.0142
  378SOL     OW 1132   0.527   0.287   0.304  0.7119  0.3472  0.3319
  378SOL    HW1 1133   0.619   0.332   0.287  0.9329  1.7199 -2.3137
  378SOL    HW2 1134   0.533   0.216   0.382 -1.2348 -0.3268  2.2080
  379SOL     OW 1135   0.490   1.452   0.506 -0.4630 -0.6246 -0.4563
  379SOL    HW1 1136   0.499   1.454   0.402  2.8846 -0.7796  1.1673
  379SOL    HW2 1137   0.580   1.438   0.549 -0.2091 -0.2973 -0.2817
  380SOL     OW 1138   0.288   1.794   1.508  0.1460 -0.5883  0.5593
  380SOL    HW1 1139   0.385   1.769   1.512  1.4088  1.0252  0.5334
  380SOL    HW2 1140   0.270   1.877   1.456 -1.2790 -1.4974  1.5716
  381SOL     OW 1141   0.598   0.983   2.088  0.0653 -0.1766  0.2643
  381SOL    HW1 1142   0.669   1.013   2.020 -0.6507 -2.0300  0.2082
  381SOL    HW2 1143   0.524   1.056   2.093  1.1001  1.8683  0.3703
  382SOL     OW 1144   2.230   1.898   0.441  0.1573 -0.6367 -0.4112
  382SOL    HW1 1145   2.278   1.958   0.508  0.3350  1.2925  1.9479
  382SOL    HW2 1146   2.285   1.872   0.361 -1.5917 -1.4581  1.4249
  383SOL     OW 1147   2.802   1.842   2.475  0.1659 -0.6138 -0.6955
  383SOL    HW1 1148   2.834   1.828   2.566  1.9834 -0.2071 -0.9737
  383SOL    HW2 1149   2.877   1.846   2.403  0.6951  0.3503 -0.5583
  384SOL     OW 1150   0.392   2.160   2.287 -0.4970  0.1331 -0.0765
  384SOL    HW1 1151   0.299   2.129   2.314  0.0622 -1.1098 -1.8172
  384SOL    HW2 1152   0.416   2.241   2.346  0.3609  0.7541  0.6411
  385SOL     OW 1153   2.737   1.845   0.846  0.1428 -1.2529 -0.3501
  385SOL    HW1 1154   2.692   1.860   0.940  0.1128  0.8944  1.8697
  385SOL    HW2 1155   2.767   1.942   0.818  1.1285  1.7882 -2.2981
  386SOL     OW 1156   1.748   1.123   1.143 -0.0917  0.4724  0.0056
  386SOL    HW1 1157   1.793   1.207   1.106  1.2413 -3.6505 -0.4084
  386SOL    HW2 1158   1.711   1.068   1.068 -0.4808 -0.2043  0.9197
  387SOL     OW 1159   0.342   1.073   1.688  0.4435  0.2143 -0.1343
  387SOL    HW1 1160   0.400   1.136   1.746 -1.6898  2.9619 -2.4420
  387SOL    HW2 1161   0.285   1.127   1.623  2.8008 -2.9323 -1.9163
  388SOL     OW 1162   2.235   0.967   2.122 -0.1262  0.0116  0.9230
  388SOL    HW1 1163   2.242   0.977   2.223  0.1236  1.3112 -0.9000
  388SOL    HW2 1164   2.237   0.869   2.100 -0.2272  0.1320  1.7496
  389SOL     OW 1165   2.020   1.197   2.182 -0.2351  0.2510 -0.0298
  389SOL    HW1 1166   2.120   1.219   2.191  3.8171  0.1887  0.1525
  389SOL    HW2 1167   1.964   1.279   2.154  3.2822 -0.4538 -0.6911
  390SOL     OW 1168   1.882   2.805   0.297  0.0268  0.3854 -0.0259
  390SOL    HW1 1169   1.862   2.826   0.397  0.9774 -0.2781  0.6734
  390SOL    HW2 1170   1.810   2.744   0.257  1.8150 -0.9867  1.9313
  391SOL     OW 1171   2.145   1.909   1.015 -0.0334 -0.0869 -0.4101
  391SOL    HW1 1172   2.052   1.922   1.056  0.4748  0.4865 -1.0967
  391SOL    HW2 1173   2.215   1.942   1.078 -2.9641  0.4206 -1.2049
  392SOL     OW 1174   3.085   2.757   1.264  0.0515 -0.2483 -0.0637
  392SOL    HW1 1175   3.033   2.704   1.191  0.4141  3.0838  0.3843
  392SOL    HW2 1176   0.070   2.711   1.280 -0.6999  1.2729 -1.3708
  393SOL     OW 1177   1.943   1.877   3.017 -0.2587  0.4194 -0.2400
  393SOL    HW1 1178   1.977   1.975   3.007  1.0498  1.6140  0.4637
  393SOL    HW2 1179   1.858   1.866   2.966 -0.7192  3.3599  0.6958
  394SOL     OW 1180   0.270   0.622   2.715 -0.0500  0.2066  0.1451
  394SOL    HW1 1181   0.320   0.707   2.729 -0.7474 -1.5751 -1.5823
  394SOL    HW2 1182   0.193   0.642   2.653  0.7475  2.6677 -0.2263
  395SOL     OW 1183   0.941   0.728   0.804  0.3884  0.2956 -0.1932
  395SOL    HW1 1184   0.917   0.703   0.901 -1.2007  1.2666 -0.2572
  395SOL    HW2 1185   0.882   0.804   0.773 -2.8040 -1.2720  1.4354
  396SOL     OW 1186   1.161   1.220   3.095 -0.0317 -0.6533  0.1018
  396SOL    HW1 1187   1.112   1.269   0.061 -2.1056  0.3430  0.9375
  396SOL    HW2 1188   1.207   1.136   0.016 -2.7346  1.1836  0.8980
  397SOL     OW 1189   0.362   0.795   2.202 -0.1204  0.4158 -0.7282
  397SOL    HW1 1190   0.373   0.886   2.166 -0.0390 -1.8720  0.7632
  397SOL    HW2 1191   0.384   0.732   2.123  0.5651  0.5351  1.4739
  398SOL     OW 1192   0.782   0.124   0.396  0.2349 -0.1462  0.2039
  398SOL    HW1 1193   0.766   0.195   0.466 -1.0064 -2.8270 -0.6710
  398SOL    HW2 1194   0.772   0.031   0.431 -1.8199  0.4486  2.1285
  399SOL     OW 1195   1.941   3.092   1.747 -0.4706  0.2834 -0.4764
  399SOL    HW1 1196   2.025   0.038   1.781  2.9796 -1.6141 -0.3731
  399SOL    HW2 1197   1.873   3.070   1.822 -1.7019 -1.6611 -2.1660
  400SOL     OW 1198   0.499   1.896   1.916  0.4770 -0.0299 -0.0592
  400SOL    HW1 1199   0.526   1.914   2.012 -0.9488 -1.5604  0.5506
  400SOL    HW2 1200   0.497   1.796   1.898 -0.5377  2.3714 -0.2750
  401SOL     OW 1201   0.578   0.774   2.652 -0.1495  0.0195 -0.0521
  401SOL    HW1 1202   0.654   0.790   2.720 -1.2081 -1.4897 -0.0172
  401SOL    HW2 1203   0.525   0.861   2.652 -0.3950  1.9230  0.7860
  402SOL     OW 1204   2.926   2.351   1.534 -0.0412 -1.0794  0.3529
  402SOL    HW1 1205   2.866   2.273   1.558  0.8466  2.9871 -2.0084
  402SOL    HW2 1206   3.002   2.317   1.471  0.7366  0.7507 -0.3192
  403SOL     OW 1207   0.473   1.252   1.852  0.3604  0.4192  0.0322
  403SOL    HW1 1208   0.404   1.327   1.834  1.0720 -1.7304 -0.7977
  403SOL    HW2 1209   0.561   1.267   1.807  3.1064  1.2458  0.1382
  404SOL     OW 1210   2.976   2.927   1.804 -0.3376  0.0159 -0.4620
  404SOL    HW1 1211   3.073   2.904   1.784  1.6559 -2.2708  0.3339
  404SOL    HW2 1212   2.933   2.937   1.713 -0.0154  0.2258 -0.3752
  405SOL     OW 1213   0.450   0.411   1.805  0.2372  0.3847 -0.4620
  405SOL    HW1 1214   0.524   0.346   1.831 -0.8672 -0.0220  0.2918
  405SOL    HW2 1215   0.457   0.492   1.863  1.9280 -0.0404 -2.9047
  406SOL     OW 1216   1.691   2.268   2.550 -0.0335 -0.0352  0.4777
  406SOL    HW1 1217   1.753   2.339   2.500  0.8936  1.4586 -1.7720
  406SOL    HW2 1218   1.752   2.211   2.608  1.3642 -0.8456  1.1268
  407SOL     OW 1219   1.431   1.521   2.271 -0.1293  0.4451  0.1540
  407SOL    HW1 1220   1.345   1.547   2.218 -0.9546 -0.3698 -0.4708
  407SOL    HW2 1221   1.415   1.523   2.378 -1.0905 -2.5886  3.7460
  408SOL     OW 1222   0.696   0.370   2.598 -0.2246 -0.3707 -0.3346
  408SOL    HW1 1223   0.603   0.361   2.558  1.4103  1.5971 -1.7384
  408SOL    HW2 1224   0.701   0.434   2.677  4.3963 -0.1826 -1.7511
  409SOL     OW 1225   0.120   1.966   2.964 -0.4177 -0.4170 -0.0267
  409SOL    HW1 1226   0.214   1.956   2.917  3.3552 -0.8331 -0.0279
  409SOL    HW2 1227   0.122   2.043   3.034  2.4417  1.8632  2.6552
  410SOL     OW 1228   2.826   1.586   0.230  0.4498  0.2836  0.3310
  410SOL    HW1 1229   2.903   1.591   0.296 -0.5427 -0.3015 -0.4137
  410SOL    HW2 1230   2.766   1.671   0.238 -0.5259  1.5687  1.0823
  411SOL     OW 1231   2.767   0.501   1.026  0.0156 -0.1470 -0.0356
  411SOL    HW1 1232   2.840   0.572   1.012 -0.0647  0.1496 -1.5171
  411SOL    HW2 1233   2.678   0.537   0.986 -2.9962  0.1182 -1.1279
  412SOL     OW 1234   1.199   1.037   1.303 -0.0639 -0.2157  0.5311
  412SOL    HW1 1235   1.214   1.030   1.201  0.4502  0.6965 -3.2596
  412SOL    HW2 1236   1.275   1.001   1.361 -1.1149 -0.7288  0.2602
  413SOL     OW 1237   0.643   2.711   1.177  0.5018 -0.1179  0.0329
  413SOL    HW1 1238   0.721   2.662   1.217  0.4417  1.2122 -2.6320
  413SOL    HW2 1239   0.650   2.689   1.081 -1.4266  0.4095 -1.0672
  414SOL     OW 1240   2.982   1.520   2.657 -0.2274 -0.2450  0.4272
  414SOL    HW1 1241   3.040   1.530   2.571 -0.5845  1.7354  1.5293
  414SOL    HW2 1242   2.954   1.614   2.685 -0.7570 -0.7109 -0.8978
  415SOL     OW 1243   0.309   2.253   2.837  0.0488  0.6463  0.3247
  415SOL    HW1 1244   0.338   2.164   2.875  0.1591  2.0848 -0.1169
  415SOL    HW2 1245   0.258   2.237   2.754  0.9930  0.7288  2.0081
  416SOL     OW 1246   1.511   3.101   0.535 -0.5595  0.4309 -0.6857
  416SOL    HW1 1247   1.593   0.047   0.557 -4.1485  1.0138 -0.7862
  416SOL    HW2 1248   1.517   3.082   0.435  0.7157 -2.3328  1.1840
  417SOL     OW 1249   0.463   0.935   0.757 -0.3276  0.2153 -0.3018
  417SOL    HW1 1250   0.535   0.934   0.830 -1.0345  3.5848  0.5242
  417SOL    HW2 1251   0.393   1.006   0.777  0.8898 -1.1072  0.8775
  418SOL     OW 1252   2.382   1.007   1.908  0.6087 -0.3046 -0.4852
  418SOL    HW1 1253   2.357   1.084   1.844 -1.1532 -0.4570  2.4045
  418SOL    HW2 1254   2.324   1.012   1.992 -2.2535  1.6129  1.4159
  419SOL     OW 1255   3.043   0.428   0.718  0.7137 -0.3235  1.3468
  419SOL    HW1 1256   0.017   0.432   0.655 -0.1531  0.0795 -2.8115
  419SOL    HW2 1257   3.067   0.393   0.806  0.6148 -0.1500 -5.1104
  420SOL     OW 1258   0.482   1.572   0.742  0.0352 -1.1499  0.1550
  420SOL    HW1 1259   0.459   1.556   0.646 -1.1927 -0.6357  2.4060
  420SOL    HW2 1260   0.442   1.503   0.803  2.1774  2.4772 -1.2269
  421SOL     OW 1261   1.107   2.601   0.688 -0.5814 -0.2093 -0.7556
  421SOL    HW1 1262   1.012   2.611   0.657  3.0354  1.0558 -0.1558
  421SOL    HW2 1263   1.123   2.500   0.700 -0.5602  0.6499 -0.6707
  422SOL     OW 1264   0.098   0.780   1.283  0.3047 -0.1904 -0.3954
  422SOL    HW1 1265   3.105   0.776   1.304 -2.0422 -1.0787 -0.3142
  422SOL    HW2 1266   0.109   0.752   1.185  0.8329 -0.0403 -3.9199
  423SOL     OW 1267   1.131   1.328   1.285 -0.2699 -0.8507  0.0019
  423SOL    HW1 1268   1.187   1.244   1.280  0.5830  1.8389 -0.8288
  423SOL    HW2 1269   1.120   1.366   1.188  1.5612  0.7392 -2.1048
  424SOL     OW 1270   2.082   1.152   2.962 -0.1921 -0.1126 -0.3575
  424SOL    HW1 1271   2.125   1.203   3.038 -3.0419  0.4219 -1.9235
  424SOL    HW2 1272   2.018   1.211   2.906 -0.1495 -4.5021 -0.3739
  425SOL     OW 1273   0.116   0.457   2.045  0.2644  0.0073 -0.0657
  425SOL    HW1 1274   0.116   0.555   2.019 -0.5553 -0.5568  0.4782
  425SOL    HW2 1275   0.021   0.421   2.062  1.8102  1.5657  1.8294
  426SOL     OW 1276   2.944   2.680   3.086  0.0725 -0.1895 -0.2011
  426SOL    HW1 1277   2.993   2.594   3.091 -2.7143  3.3105  0.6404
  426SOL    HW2 1278   2.981   2.745   0.051  1.9904 -0.3456 -0.0627
  427SOL     OW 1279   0.768   0.652   2.273  0.2171 -0.2498 -0.0918
  427SOL    HW1 1280   0.678   0.649   2.320  0.6579 -0.3796  2.4976
  427SOL    HW2 1281   0.792   0.750   2.256 -0.0839 -1.3980  0.7609
  428SOL     OW 1282   2.255   1.005   1.476  0.8688  0.2610  0.6916
  428SOL    HW1 1283   2.352   0.975   1.468  0.6219  1.1179 -3.3369
  428SOL    HW2 1284   2.249   1.088   1.423  0.9612 -0.9168  2.0047
  429SOL     OW 1285   2.574   2.467   0.473 -0.0079 -0.4250  0.1966
  429SOL    HW1 1286   2.573   2.516   0.560 -2.3117 -1.7516  0.2050
  429SOL    HW2 1287   2.482   2.466   0.435  0.3363 -0.6465 -0.6187
  430SOL     OW 1288   1.531   1.838   2.492 -0.3501  0.0176  0.0873
  430SOL    HW1 1289   1.460   1.836   2.415  1.2153  0.6987 -3.8482
  430SOL    HW2 1290   1.496   1.809   2.584 -0.3516 -0.9667 -0.0854
  431SOL     OW 1291   0.105   1.703   1.265 -0.3814  1.1010 -0.3349
  431SOL    HW1 1292   0.067   1.610   1.284  0.2491  0.1497 -0.3259
  431SOL    HW2 1293   0.042   1.777   1.293  0.3520  0.0926  1.4123
  432SOL     OW 1294   1.454   2.868   2.634  0.2419 -0.3292 -0.1915
  432SOL    HW1 1295   1.358   2.831   2.622 -0.6623 -1.6044 -0.8460
  432SOL    HW2 1296   1.519   2.800   2.603 -1.0813  1.2417 -1.0608
  433SOL     OW 1297   1.748   3.036   2.446 -0.1409 -0.5503  0.4794
  433SOL    HW1 1298   1.804   2.954   2.451 -0.8280  0.6095 -1.2303
  433SOL    HW2 1299   1.658   3.020   2.492  1.0155  2.0910 -1.1607
  434SOL     OW 1300   0.153   2.852   2.041  0.4403  0.0455 -0.0799
  434SOL    HW1 1301   0.128   2.774   2.097  0.0285 -0.7718 -0.6639
  434SOL    HW2 1302   0.137   2.837   1.943 -0.3488 -0.4016 -0.1403
  435SOL     OW 1303   0.001   2.417   0.042 -0.1997  0.1681 -0.6207
  435SOL    HW1 1304   0.067   2.453   3.081  0.7670 -0.6419 -1.1544
  435SOL    HW2 1305   0.002   2.474   0.131  1.6907 -1.3554  1.2054
  436SOL     OW 1306   0.462   0.672   1.922 -0.0855 -0.0324 -0.1104
  436SOL    HW1 1307   0.383   0.719   1.873  0.2298 -0.5214  0.5950
  436SOL    HW2 1308   0.550   0.726   1.919  1.4436 -1.1192 -0.5914
  437SOL     OW 1309   0.425   2.703   2.631  0.6423  0.4038 -0.8717
  437SOL    HW1 1310   0.454   2.728   2.537  1.1823  0.5400  0.1886
  437SOL    HW2 1311   0.480   2.750   2.704 -1.6511 -1.5198 -2.7039
  438SOL     OW 1312   0.545   1.685   1.581  0.4642 -0.2070 -0.4868
  438SOL    HW1 1313   0.647   1.703   1.590 -0.2260  1.4770 -0.7993
  438SOL    HW2 1314   0.514   1.641   1.669  0.2644  0.7458 -1.0125
  439SOL     OW 1315   2.337   0.799   2.640 -0.4434  0.1566 -0.0408
  439SOL    HW1 1316   2.440   0.794   2.653  2.9499 -1.8003  0.4632
  439SOL    HW2 1317   2.292   0.879   2.680 -1.8959 -1.6616 -2.1671
  440SOL     OW 1318   0.496   0.696   0.068 -0.2227  0.2516  0.3279
  440SOL    HW1 1319   0.521   0.700   0.166 -2.7004 -1.7271  2.6441
  440SOL    HW2 1320   0.399   0.650   0.076 -1.3313 -1.2604  1.0719
  441SOL     OW 1321   1.184   2.307   1.416 -0.5694  0.5198  0.9611
  441SOL    HW1 1322   1.247   2.359   1.356  0.4157  1.4461 -0.0892
  441SOL    HW2 1323   1.172   2.352   1.510 -1.5053  0.4599 -0.3368
  442SOL     OW 1324   2.875   1.635   0.752 -0.0727 -0.3496  0.1185
  442SOL    HW1 1325   2.807   1.711   0.777 -1.4124  2.3612  0.3073
  442SOL    HW2 1326   2.914   1.584   0.833 -0.2809 -0.8471  1.5124
  443SOL     OW 1327   2.616   2.035   2.475  0.0770  0.6642  0.0456
  443SOL    HW1 1328   2.696   1.968   2.477  1.6016  2.5946  0.7922
  443SOL    HW2 1329   2.585   2.046   2.572 -2.5778 -2.6624 -0.9421
  444SOL     OW 1330   1.610   1.216   0.034  0.0952 -0.3749 -0.4722
  444SOL    HW1 1331   1.638   1.152   0.113  2.7939 -2.7695 -1.6142
  444SOL    HW2 1332   1.528   1.274   0.048  3.6194 -1.3951 -0.8355
  445SOL     OW 1333   2.648   3.051   1.972 -0.6931 -0.6301 -0.0786
  445SOL    HW1 1334   2.681   0.039   1.989 -1.6615 -1.7657  1.1427
  445SOL    HW2 1335   2.720   2.985   2.005 -0.9116  0.5772  0.7149
  446SOL     OW 1336   0.304   0.940   1.067  0.5417  0.2810 -0.0507
  446SOL    HW1 1337   0.321   0.966   1.164  0.4410 -1.8740 -0.9567
  446SOL    HW2 1338   0.381   0.974   1.007 -1.1797  1.6197 -3.5295
  447SOL     OW 1339   1.079   1.700   0.879 -0.0513 -0.0862  0.4824
  447SOL    HW1 1340   0.984   1.732   0.888  2.7502 -3.9771  0.9249
  447SOL    HW2 1341   1.132   1.762   0.818  0.4816  0.8122  1.5668
  448SOL     OW 1342   1.372   0.867   1.727  0.7244 -0.1251 -0.3653
  448SOL    HW1 1343   1.398   0.903   1.823  1.9565  2.8159  0.1185
  448SOL    HW2 1344   1.280   0.839   1.721  3.1171  1.1815 -1.0667
  449SOL     OW 1345   2.789   2.289   2.151  0.5276 -0.0728 -0.0138
  449SOL    HW1 1346   2.768   2.375   2.205  1.4243  0.8846  0.6691
  449SOL    HW2 1347   2.890   2.276   2.153  0.2433  0.5554  2.1738
  450SOL     OW 1348   2.993   1.959   1.617  0.3330  0.0145  0.9398
  450SOL    HW1 1349   2.904   2.011   1.597 -1.0693 -0.9245 -1.4621
  450SOL    HW2 1350   3.044   1.996   1.694 -0.8092  1.6611  3.0906
  451SOL     OW 1351   2.336   0.910   0.942  0.1542 -0.9232  0.2530
  451SOL    HW1 1352   2.252   0.852   0.956 -0.9213  0.3403 -0.3002
  451SOL    HW2 1353   2.425   0.858   0.955  0.8845 -2.5831  1.8014
  452SOL     OW 1354   0.686   1.457   0.986 -0.2112 -0.6144 -0.2657
  452SOL    HW1 1355   0.654   1.549   0.965 -1.1684 -0.4422 -0.4457
  452SOL    HW2 1356   0.627   1.410   1.058 -1.4552 -0.2856  1.0710
  453SOL     OW 1357   1.084   2.096   0.953  0.6265 -0.1315 -0.2352
  453SOL    HW1 1358   1.022   2.169   0.989 -2.7431  0.7189  1.5088
  453SOL    HW2 1359   1.095   2.103   0.850  0.4304 -2.1467 -2.5599
  454SOL     OW 1360   0.456   1.515   2.918  0.1249  0.7749  0.4621
  454SOL    HW1 1361   0.480   1.557   2.826 -0.9815 -0.1147 -0.6233
  454SOL    HW2 1362   0.366   1.554   2.950  0.4332  0.3832 -1.4875
  455SOL     OW 1363   1.625   0.797   0.613 -0.3638  0.1860 -0.1263
  455SOL    HW1 1364   1.595   0.757   0.700 -0.0768  2.0138  1.4140
  455SOL    HW2 1365   1.596   0.737   0.535 -1.3748 -0.0539 -1.0371
  456SOL     OW 1366   2.320   2.317   0.912  0.2939 -0.5039  0.3937
  456SOL    HW1 1367   2.273   2.225   0.901 -0.3375 -0.5649 -1.4365
  456SOL    HW2 1368   2.317   2.366   0.824 -1.1919  2.0537  0.8400
  457SOL     OW 1369   1.589   2.942   2.858  0.3680  0.2538 -0.4094
  457SOL    HW1 1370   1.535   2.965   2.942  2.4355 -1.2315  0.4278
  457SOL    HW2 1371   1.527   2.902   2.788 -0.2662  0.3614 -0.6649
  458SOL     OW 1372   2.328   0.483   0.349  0.4026 -0.4305  0.0065
  458SOL    HW1 1373   2.329   0.383   0.356  1.1796  2.4261 -3.6459
  458SOL    HW2 1374   2.248   0.510   0.294  0.2866  0.1004 -2.0941
  459SOL     OW 1375   3.034   0.861   2.107  0.5878  0.0894 -0.4864
  459SOL    HW1 1376   3.037   0.963   2.109 -0.3782  1.0321  1.2074
  459SOL    HW2 1377   2.954   0.833   2.055 -2.8609 -0.9000  1.5012
  460SOL     OW 1378   0.453   0.905   3.007  0.9509 -0.2727  0.0753
  460SOL    HW1 1379   0.528   0.971   2.996 -2.9139  2.7032  1.4985
  460SOL    HW2 1380   0.478   0.845   3.085  1.7629 -1.1872 -0.3576
  461SOL     OW 1381   2.806   2.722   0.630  0.1624 -0.2295 -0.5541
  461SOL    HW1 1382   2.832   2.819   0.655 -0.6581 -0.8200 -1.6242
  461SOL    HW2 1383   2.737   2.684   0.696  0.2006  0.0940 -0.4652
  462SOL     OW 1384   0.157   0.179   1.613  0.3824 -0.0372 -0.7961
  462SOL    HW1 1385   0.140   0.273   1.581 -1.1021 -0.6747  3.0143
  462SOL    HW2 1386   0.146   0.106   1.542  1.5127  1.1190 -0.9450
  463SOL     OW 1387   2.087   2.351   2.208 -0.2405 -0.4296  0.0962
  463SOL    HW1 1388   2.084   2.248   2.216  1.4984  2.0956 -0.8067
  463SOL    HW2 1389   1.993   2.387   2.209 -1.1844 -1.0322 -0.6909
  464SOL     OW 1390   0.891   3.105   1.269  0.3777  0.5664  0.2365
  464SOL    HW1 1391   0.931   3.047   1.192 -2.9505 -0.2290 -0.2886
  464SOL    HW2 1392   0.909   0.099   1.255  0.2403  1.2130  0.0413
  465SOL     OW 1393   0.702   0.125   1.598 -0.3034  0.0195  0.5558
  465SOL    HW1 1394   0.718   0.034   1.557  1.2135 -0.1473  2.9662
  465SOL    HW2 1395   0.721   0.120   1.696  0.3199  3.9226 -0.5004
  466SOL     OW 1396   1.166   2.373   2.135 -0.3994  0.6214 -0.0897
  466SOL    HW1 1397   1.113   2.296   2.181  2.4032  2.4918 -0.8160
  466SOL    HW2 1398   1.188   2.346   2.040  1.5553  0.6939  3.9630
  467SOL     OW 1399   0.405   2.131   1.220  0.3535 -0.0734  0.0347
  467SOL    HW1 1400   0.342   2.091   1.146  0.5532  0.5964 -0.4223
  467SOL    HW2 1401   0.493   2.076   1.219  2.1710 -0.0332  0.6083
  468SOL     OW 1402   2.609   1.631   2.528  0.3716 -0.2377  0.5620
  468SOL    HW1 1403   2.708   1.659   2.530  0.5594  2.8915  0.2336
  468SOL    HW2 1404   2.559   1.644   2.436 -0.9517  1.0982 -4.2632
  469SOL     OW 1405   1.097   2.134   0.598 -0.0743 -0.1643  0.2464
  469SOL    HW1 1406   1.187   2.119   0.547 -1.3878 -1.0266 -1.5750
  469SOL    HW2 1407   1.020   2.090   0.547  0.3560 -2.0462  0.0244
  470SOL     OW 1408   2.572   1.369   1.367 -0.1752 -0.3068  0.0621
  470SOL    HW1 1409   2.549   1.424   1.283 -1.9426  0.8423 -1.2785
  470SOL    HW2 1410   2.503   1.368   1.445 -0.4337 -0.3361  0.6681
  471SOL     OW 1411   0.370   2.417   3.031 -0.8898  0.2988  0.0064
  471SOL    HW1 1412   0.350   2.354   2.951  0.4750 -0.6763 -2.5946
  471SOL    HW2 1413   0.467   2.443   3.034  0.2366  1.0015 -2.3626
  472SOL     OW 1414   3.004   2.035   2.016  0.2256 -0.0118  0.5921
  472SOL    HW1 1415   3.064   2.084   1.951  2.3609  1.7641  2.7164
  472SOL    HW2 1416   2.904   2.051   2.000 -1.6233 -0.5229 -3.5864
  473SOL     OW 1417   0.901   2.786   0.851  0.4945 -0.1242 -0.0122
  473SOL    HW1 1418   1.003   2.770   0.847  1.9084 -2.4346  0.5782
  473SOL    HW2 1419   0.864   2.845   0.775 -1.0539 -0.4327 -0.9074
  474SOL     OW 1420   3.043   0.059   1.026 -0.3248  0.3309 -0.3530
  474SOL    HW1 1421   2.973   0.114   0.980  1.6595 -1.4573  1.3191
  474SOL    HW2 1422   3.042   0.062   1.130  2.3120  2.9462  3.7535
  475SOL     OW 1423   1.728   3.049   1.922  0.3451 -0.3072  0.4426
  475SOL    HW1 1424   1.761   3.086   2.009 -2.0274  0.0975  1.1148
  475SOL    HW2 1425   1.627   3.022   1.927 -0.1783 -1.7461 -1.1006
  476SOL     OW 1426   0.571   0.597   0.987  0.1081  0.8693  0.3072
  476SOL    HW1 1427   0.553   0.660   0.909 -2.2394  0.8534 -1.2761
  476SOL    HW2 1428   0.608   0.512   0.948 -1.5467 -0.5264 -1.1977
  477SOL     OW 1429   0.944   2.331   1.256 -0.2985 -0.2212 -0.5695
  477SOL    HW1 1430   0.941   2.327   1.153 -1.4339 -0.7224 -1.4091
  477SOL    HW2 1431   1.040   2.335   1.293 -0.8223 -2.7513 -0.7727
  478SOL     OW 1432   0.185   2.429   2.331 -0.1749  0.3740 -0.2152
  478SOL    HW1 1433   0.193   2.471   2.425  1.4541  0.7802 -0.1910
  478SOL    HW2 1434   0.154   2.333   2.338  0.0883  0.7834 -4.0842
  479SOL     OW 1435   0.281   0.809   1.757 -0.0212  0.2844 -0.5498
  479SOL    HW1 1436   0.321   0.906   1.753  1.0747  4.0559 -1.2171
  479SOL    HW2 1437   0.260   0.780   1.666  2.9710 -0.6887 -1.5819
  480SOL     OW 1438   2.915   2.238   3.067 -0.5708  0.1491 -0.4545
  480SOL    HW1 1439   2.882   2.205   0.047 -0.7649  1.1795 -1.6167
  480SOL    HW2 1440   2.994   2.305   3.083  1.3976 -0.9320 -1.2600
  481SOL     OW 1441   1.553   1.980   2.189  0.8760 -0.3055 -0.4238
  481SOL    HW1 1442   1.619   1.902   2.173 -1.9333 -3.1417 -3.8620
  481SOL    HW2 1443   1.459   1.940   2.208 -2.4622  0.5878  0.7831
  482SOL     OW 1444   1.510   2.114   2.689  0.3290 -0.1839  0.4546
  482SOL    HW1 1445   1.463   2.038   2.638 -1.8170 -1.7119 -0.1052
  482SOL    HW2 1446   1.562   2.175   2.624  0.9717  0.0174 -0.4984
  483SOL     OW 1447   0.712   2.150   2.617  0.4540  0.3378  0.2641
  483SOL    HW1 1448   0.636   2.206   2.650  2.6358  0.9787  0.7345
  483SOL    HW2 1449   0.797   2.188   2.661  1.7531  2.2256  1.6103
  484SOL     OW 1450   0.106   0.271   1.234  0.0040 -0.0056  0.1598
  484SOL    HW1 1451   0.094   0.344   1.304  1.0943 -2.3495 -2.7280
  484SOL    HW2 1452   0.058   0.185   1.262 -0.2450 -0.3090  1.0922
  485SOL     OW 1453   2.022   0.595   0.426 -0.1442 -0.0371  0.4630
  485SOL    HW1 1454   1.976   0.684   0.442 -0.6628  2.6619  0.0336
  485SOL    HW2 1455   2.043   0.591   0.324  1.1785  0.8566 -2.1528
  486SOL     OW 1456   1.923   2.822   2.397 -0.3816 -0.5080  0.3399
  486SOL    HW1 1457   1.970   2.890   2.335  1.0690 -0.3284  2.3883
  486SOL    HW2 1458   1.996   2.750   2.417  0.6616 -1.3071  0.3212
  487SOL     OW 1459   1.594   1.399   0.761 -0.1171 -0.0790 -0.6635
  487SOL    HW1 1460   1.684   1.353   0.758 -1.5763  2.7801 -0.4504
  487SOL    HW2 1461   1.583   1.447   0.852 -2.3930 -1.3247 -0.0456
  488SOL     OW 1462   2.255   1.270   0.309  0.0925 -0.1321  0.1801
  488SOL    HW1 1463   2.239   1.170   0.326  0.1721  1.3003 -2.8676
  488SOL    HW2 1464   2.218   1.297   0.213 -0.8937 -0.9991 -0.2837
  489SOL     OW 1465   2.380   0.245   0.741 -0.7533  0.0853 -0.1723
  489SOL    HW1 1466   2.313   0.217   0.672 -2.1884 -0.1181  1.4366
  489SOL    HW2 1467   2.364   0.179   0.816 -4.0698 -0.4725 -2.3755
  490SOL     OW 1468   1.502   2.725   0.059 -0.6695  0.4740 -0.1136
  490SOL    HW1 1469   1.421   2.710   0.121 -2.3286  0.9320 -0.2350
  490SOL    HW2 1470   1.508   2.824   0.032 -1.1267  1.2335 -0.6362
  491SOL     OW 1471   0.816   0.945   0.692  0.3597 -0.5574  0.0030
  491SOL    HW1 1472   0.795   1.043   0.720  0.5870 -1.3065  1.8061
  491SOL    HW2 1473   0.856   0.950   0.602 -3.7908  1.2868 -1.6278
  492SOL     OW 1474   1.657   0.172   0.090 -0.1471  0.3823  0.2512
  492SOL    HW1 1475   1.677   0.082   0.136 -0.7233  0.5901  0.5904
  492SOL    HW2 1476   1.604   0.167   0.006  2.7674 -0.4963  2.1419
  493SOL     OW 1477   1.726   2.311   3.028  0.2804 -0.1561 -0.3919
  493SOL    HW1 1478   1.668   2.243   2.983 -0.2417 -1.3566  0.4820
  493SOL    HW2 1479   1.742   2.381   2.960 -0.0250 -0.0889  0.1611
  494SOL     OW 1480   0.573   1.163   0.567 -0.0899 -0.1464  0.0435
  494SOL    HW1 1481   0.520   1.097   0.621  0.6407  0.9541  1.1836
  494SOL    HW2 1482   0.550   1.257   0.599 -1.7052 -0.1895 -1.2561
  495SOL     OW 1483   3.052   0.054   1.304  0.6072  0.3710 -0.0001
  495SOL    HW1 1484   2.963   0.034   1.353 -2.1562 -0.3560  0.9352
  495SOL    HW2 1485   0.027   0.008   1.354  1.3059 -1.4563 -1.4471
  496SOL     OW 1486   2.475   2.990   1.790  0.2329  0.4271 -0.5519
  496SOL    HW1 1487   2.553   3.000   1.857  1.7409  0.3503  3.1000
  496SOL    HW2 1488   2.490   3.042   1.706 -1.9470  1.0347  0.6530
  497SOL     OW 1489   1.716   1.631   2.733 -0.5615  0.2707 -0.1476
  497SOL    HW1 1490   1.670   1.543   2.729  2.4007  1.9766  3.3290
  497SOL    HW2 1491   1.793   1.640   2.669  2.4468  0.1430  0.4859
  498SOL     OW 1492   0.756   1.930   0.680  0.0471 -0.2695  0.0040
  498SOL    HW1 1493   0.661   1.897   0.675  0.4075  0.1879  0.6415
  498SOL    HW2 1494   0.801   1.869   0.746 -0.2575  0.4258 -0.6742
  499SOL     OW 1495   0.354   1.754   1.185  0.7048  0.2400  0.4289
  499SOL    HW1 1496   0.354   1.837   1.129  0.1387 -1.3770 -1.5976
  499SOL    HW2 1497   0.258   1.723   1.199  1.5337  0.5280 -1.5461
  500SOL     OW 1498   1.338   2.360   0.328 -0.2055  0.2706 -0.2957
  500SOL    HW1 1499   1.381   2.341   0.239 -1.5712 -0.4668  0.6868
  500SOL    HW2 1500   1.343   2.279   0.386  3.6647  0.3220  0.3302
  501SOL     OW 1501   2.504   2.400   1.069 -0.1261  0.1587 -0.3343
  501SOL    HW1 1502   2.486   2.494   1.106 -0.4119  0.0483 -2.6021
  501SOL    HW2 1503   2.432   2.379   0.996 -0.8189  1.9755  0.0894
  502SOL     OW 1504   0.297   0.961   1.352 -0.4247  0.4492  0.0856
  502SOL    HW1 1505   0.382   0.916   1.388  0.3188  1.2326 -1.6000
  502SOL    HW2 1506   0.222   0.890   1.334  1.1285 -1.0480 -0.1072
  503SOL     OW 1507   2.269   0.726   1.592  0.3458  0.8052 -0.5122
  503SOL    HW1 1508   2.312   0.710   1.686 -0.0264 -0.2444 -0.3934
  503SOL    HW2 1509   2.256   0.828   1.580 -0.4917  3.5951 -3.3201
  504SOL     OW 1510   1.768   0.633   1.818 -0.1241  0.3663 -0.0483
  504SOL    HW1 1511   1.691   0.659   1.878 -1.6203  0.0593  0.7694
  504SOL    HW2 1512   1.745   0.657   1.719  1.7742 -1.2772 -0.3161
  505SOL     OW 1513   1.158   0.252   2.811 -0.1579  0.2630  0.2230
  505SOL    HW1 1514   1.165   0.151   2.812 -1.2730  0.3241  0.9711
  505SOL    HW2 1515   1.196   0.304   2.889 -1.0926 -1.1807 -0.8723
  506SOL     OW 1516   0.499   0.571   1.559 -0.5951 -0.0996 -0.1987
  506SOL    HW1 1517   0.600   0.584   1.546 -0.0208 -0.1200  2.6810
  506SOL    HW2 1518   0.481   0.518   1.645  0.8693  0.9335 -0.5518
  507SOL     OW 1519   1.446   2.995   3.070  0.3172 -0.1138  0.6448
  507SOL    HW1 1520   1.358   2.962   3.028 -0.1045 -0.2068 -0.9286
  507SOL    HW2 1521   1.449   3.098   3.066 -0.7751 -2.4777 -0.4268
  508SOL     OW 1522   2.622   0.358   2.690  0.0468  0.3552  0.1009
  508SOL    HW1 1523   2.533   0.359   2.735  2.3726 -1.6959  1.6252
  508SOL    HW2 1524   2.621   0.320   2.595  0.3644 -2.0836 -0.8299
  509SOL     OW 1525   0.972   1.459   2.045  0.2849  0.5570  0.0667
  509SOL    HW1 1526   0.894   1.434   2.104  0.5134  0.5633  1.2875
  509SOL    HW2 1527   0.947   1.464   1.950  0.7250 -1.7869  0.9340
  510SOL     OW 1528   0.055   1.098   0.740 -0.5948  0.0535  0.3759
  510SOL    HW1 1529   0.017   1.180   0.699  0.0717  0.9991  2.1695
  510SOL    HW2 1530   3.104   1.009   0.743  1.2759 -1.9799 -0.3685
  511SOL     OW 1531   1.795   1.360   1.026  0.1173  0.2581 -0.1883
  511SOL    HW1 1532   1.725   1.410   1.083 -2.7538  1.7997  0.4309
  511SOL    HW2 1533   1.884   1.414   1.017 -1.5528  1.3897  0.5124
  512SOL     OW 1534   0.854   1.370   0.071  0.4491 -0.1030 -0.0446
  512SOL    HW1 1535   0.803   1.431   0.005  1.0538 -0.4667 -0.1535
  512SOL    HW2 1536   0.951   1.402   0.075 -2.4568 -3.3357 -0.5390
  513SOL     OW 1537   0.252   2.465   0.681  0.3831 -0.1876  0.1960
  513SOL    HW1 1538   0.203   2.554   0.681  0.2325 -2.3020  2.7257
  513SOL    HW2 1539   0.349   2.488   0.661 -1.0812 -0.2404 -0.7701
  514SOL     OW 1540   0.080   1.836   2.579 -0.0394  0.3612 -0.6192
  514SOL    HW1 1541   0.081   1.851   2.479  1.8569 -0.4961 -0.7688
  514SOL    HW2 1542   3.106   1.880   2.622 -2.0952  0.2709  0.8904
  515SOL     OW 1543   2.428   0.676   0.181  0.1224  0.1790  0.2803
  515SOL    HW1 1544   2.493   0.742   0.231  1.7823 -0.0633  0.3954
  515SOL    HW2 1545   2.397   0.600   0.239 -0.3307  1.0681 -1.1593
  516SOL     OW 1546   2.563   2.788   0.864  0.5569  0.1479  0.4963
  516SOL    HW1 1547   2.618   2.818   0.944  2.3625 -3.2271  0.8950
  516SOL    HW2 1548   2.519   2.863   0.811  0.5866  2.4164 -1.2338
  517SOL     OW 1549   1.323   1.695   2.979 -0.0689  0.2153 -0.1796
  517SOL    HW1 1550   1.398   1.676   3.044  1.9171  1.9471 -2.3567
  517SOL    HW2 1551   1.270   1.771   3.010  1.0144  0.0892 -0.1655
  518SOL     OW 1552   1.104   0.777   1.673 -0.6773 -0.3272  0.4207
  518SOL    HW1 1553   1.016   0.818   1.637  0.3463  1.5104 -1.9737
  518SOL    HW2 1554   1.111   0.684   1.632  1.2364  0.6904 -1.6973
  519SOL     OW 1555   2.944   1.595   0.483  0.0322 -0.1199  0.1982
  519SOL    HW1 1556   2.906   1.591   0.581 -0.4235  0.0687 -0.7992
  519SOL    HW2 1557   2.981   1.506   0.453 -1.5864  2.8143  2.1046
  520SOL     OW 1558   2.143   2.063   1.985 -0.5863 -0.8497  0.3548
  520SOL    HW1 1559   2.240   2.026   1.983 -0.6561 -2.0197 -0.7931
  520SOL    HW2 1560   2.098   2.047   2.073  0.9005 -1.0400 -1.1801
  521SOL     OW 1561   0.862   3.018   2.671 -0.4846 -0.1455  0.3143
  521SOL    HW1 1562   0.812   0.001   2.685  0.1939  2.3932 -0.8716
  521SOL    HW2 1563   0.831   2.962   2.593  2.1528 -0.6515  0.3326
  522SOL     OW 1564   2.634   0.367   2.369  0.8899  0.5914  0.4518
  522SOL    HW1 1565   2.604   0.437   2.297 -4.1764  1.5609 -1.5645
  522SOL    HW2 1566   2.572   0.284   2.366  0.6993  1.4429  1.0029
  523SOL     OW 1567   1.843   2.270   1.623 -0.0374  0.3705 -0.6963
  523SOL    HW1 1568   1.807   2.365   1.634 -1.8624  0.4930 -0.9150
  523SOL    HW2 1569   1.915   2.255   1.696 -0.0953  0.2206  0.3744
  524SOL     OW 1570   1.573   2.079   2.946 -0.3449  0.0653 -0.0535
  524SOL    HW1 1571   1.532   2.103   2.854 -1.1346 -1.0634  1.2189
  524SOL    HW2 1572   1.621   1.992   2.939  0.4136  3.5018  1.7436
  525SOL     OW 1573   0.183   0.759   0.080  0.2810  0.0332  0.0887
  525SOL    HW1 1574   0.200   0.795   0.175  2.6685 -0.5135 -2.0995
  525SOL    HW2 1575   0.206   0.662   0.068  0.1869 -0.1092 -1.4127
  526SOL     OW 1576   1.232   2.989   0.563  0.1740  0.8076 -0.8893
  526SOL    HW1 1577   1.327   3.017   0.536 -1.2570 -0.0342 -0.1185
  526SOL    HW2 1578   1.236   2.944   0.653 -0.7669 -0.3008  3.2707
  527SOL     OW 1579   2.484   1.781   0.712 -0.2959 -0.4688  0.0954
  527SOL    HW1 1580   2.578   1.794   0.755  1.7341 -1.2149  0.4641
  527SOL    HW2 1581   2.483   1.693   0.657  0.2380 -0.1548  0.7693
  528SOL     OW 1582   0.811   0.930   2.253  0.2106 -0.2582 -0.2136
  528SOL    HW1 1583   0.837   1.010   2.311 -2.7254  1.1765  1.8983
  528SOL    HW2 1584   0.719   0.947   2.210 -0.8188  2.9818 -0.0531
  529SOL     OW 1585   1.393   1.726   2.716  0.3815 -0.1273 -0.1819
  529SOL    HW1 1586   1.390   1.707   2.816  1.3317  0.8427 -0.0866
  529SOL    HW2 1587   1.407   1.634   2.668  0.2560 -0.7957 -1.2298
  530SOL     OW 1588   1.762   1.236   2.414  0.0822 -0.0290  0.1661
  530SOL    HW1 1589   1.680   1.245   2.357 -1.9651 -0.8274 -2.0011
  530SOL    HW2 1590   1.808   1.148   2.398  0.4143 -0.9767  0.3892
  531SOL     OW 1591   0.516   2.323   2.676  0.0821  0.5784 -0.1377
  531SOL    HW1 1592   0.425   2.318   2.725  0.0296 -0.5148  0.9418
  531SOL    HW2 1593   0.582   2.382   2.727  4.4573  2.6768 -0.1475
  532SOL     OW 1594   2.514   0.866   0.582 -0.3376  0.2687  0.1124
  532SOL    HW1 1595   2.511   0.945   0.649  0.2147 -0.3279 -0.2765
  532SOL    HW2 1596   2.577   0.795   0.624  0.5460 -1.1526  0.6373
  533SOL     OW 1597   0.190   0.465   1.704 -0.4454 -0.7609  0.3221
  533SOL    HW1 1598   0.234   0.537   1.650 -0.8790 -0.7702 -3.0043
  533SOL    HW2 1599   0.263   0.411   1.754  0.5758  0.7061 -0.4278
  534SOL     OW 1600   1.335   0.123   0.159 -0.6223 -0.0644  0.2147
  534SOL    HW1 1601   1.292   0.208   0.196  0.6828 -1.6527  1.7131
  534SOL    HW2 1602   1.422   0.142   0.117 -1.5379 -0.0418 -0.3632
  535SOL     OW 1603   0.262   0.122   0.046  0.2020 -0.0045  0.0459
  535SOL    HW1 1604   0.215   0.068   3.079  0.1785 -1.0937 -2.9764
  535SOL    HW2 1605   0.203   0.135   0.126  0.2167 -0.3298  1.9318
  536SOL     OW 1606   0.537   1.620   1.308 -0.0666  0.3197  0.2794
  536SOL    HW1 1607   0.460   1.662   1.253 -1.3723  0.7080  0.4613
  536SOL    HW2 1608   0.526   1.646   1.409  1.4193  0.7074  1.4707
  537SOL     OW 1609   0.777   2.808   1.789 -0.2525  0.4804 -0.3417
  537SOL    HW1 1610   0.866   2.769   1.821 -0.6013 -0.0759 -3.6062
  537SOL    HW2 1611   0.697   2.785   1.844  3.5794  1.4290  0.5096
  538SOL     OW 1612   3.003   1.849   3.089  0.1970 -0.0191  0.1204
  538SOL    HW1 1613   3.075   1.882   3.025  4.3318 -1.3797 -1.4650
  538SOL    HW2 1614   3.038   1.826   0.077 -0.5484  2.1774  0.7801
  539SOL     OW 1615   2.609   0.762   2.678 -0.7425  0.3121  0.1174
  539SOL    HW1 1616   2.610   0.660   2.664 -1.3620  1.7358  1.8832
  539SOL    HW2 1617   2.602   0.781   2.779 -0.2657 -2.1719  2.8404
  540SOL     OW 1618   1.806   0.350   2.605 -0.0689 -0.4416  0.9108
  540SOL    HW1 1619   1.724   0.391   2.651  1.7277  1.7349  0.9522
  540SOL    HW2 1620   1.843   0.408   2.531 -4.3308 -0.7843 -0.5253
  541SOL     OW 1621   0.805   0.112   1.869  0.2623 -0.0759  0.1833
  541SOL    HW1 1622   0.748   0.072   1.942  1.4981 -0.8582  0.7002
  541SOL    HW2 1623   0.807   0.209   1.860  0.2787 -1.5557 -0.9182
  542SOL     OW 1624   1.852   2.771   2.853 -0.6046  0.2423  0.3021
  542SOL    HW1 1625   1.766   2.815   2.858  4.0216  1.3195 -1.1681
  542SOL    HW2 1626   1.920   2.814   2.791 -0.7365 -1.7435 -0.1852
  543SOL     OW 1627   0.910   3.020   0.675 -0.0692 -0.1284 -0.3120
  543SOL    HW1 1628   0.899   3.102   0.734  0.1148  0.4416 -2.2946
  543SOL    HW2 1629   0.994   3.028   0.621 -0.8375  0.6208 -0.2946
  544SOL     OW 1630   2.628   1.582   1.844  0.0781 -0.0627  0.3097
  544SOL    HW1 1631   2.698   1.610   1.915 -1.5698  1.3150 -0.4169
  544SOL    HW2 1632   2.548   1.647   1.846  0.2618  0.6033 -1.1244
  545SOL     OW 1633   2.118   1.796   1.431  0.2013  0.2210 -0.1316
  545SOL    HW1 1634   2.173   1.755   1.510 -0.0529 -0.1328  0.1075
  545SOL    HW2 1635   2.092   1.713   1.373  0.7202 -0.8207  2.4486
  546SOL     OW 1636   0.122   0.147   2.248  0.5801 -0.0207 -0.1874
  546SOL    HW1 1637   0.140   0.175   2.152  1.0957 -3.4710 -0.7653
  546SOL    HW2 1638   0.182   0.075   2.277 -1.3780 -0.5106  0.0152
  547SOL     OW 1639   1.198   0.636   1.132 -0.1117 -0.2899 -0.1506
  547SOL    HW1 1640   1.193   0.650   1.236  2.4287  0.1385  2.6322
  547SOL    HW2 1641   1.275   0.688   1.090  3.2265  1.5703 -0.2854
  548SOL     OW 1642   1.337   2.320   2.798  0.0780 -0.1300  0.1399
  548SOL    HW1 1643   1.266   2.284   2.863 -0.7897 -1.5945 -0.7261
  548SOL    HW2 1644   1.400   2.246   2.773  1.4263  1.3253  0.3650
  549SOL     OW 1645   2.201   0.214   0.268  0.4426  0.0833 -0.3239
  549SOL    HW1 1646   2.117   0.248   0.224  0.6007 -0.8816  0.3495
  549SOL    HW2 1647   2.261   0.185   0.195 -1.8702  0.6936  0.2090
  550SOL     OW 1648   2.832   2.098   0.782  0.1245  0.1848  0.1106
  550SOL    HW1 1649   2.789   2.167   0.725  4.5050  0.0887  0.4761
  550SOL    HW2 1650   2.903   2.051   0.727  0.5491 -1.6260  0.5227
  551SOL     OW 1651   1.069   2.977   2.295  0.4874  0.4910  0.4401
  551SOL    HW1 1652   1.028   2.974   2.202  3.0032  0.0515 -0.8727
  551SOL    HW2 1653   1.071   3.074   2.323  1.9554  0.9110 -0.4655
  552SOL     OW 1654   2.944   2.297   2.644  0.1191 -0.3925  0.5093
  552SOL    HW1 1655   2.923   2.256   2.557  1.6568 -2.1330  4.5425
  552SOL    HW2 1656   2.901   2.243   2.721 -1.1340  2.8498  2.4802
  553SOL     OW 1657   0.273   2.848   1.001  0.6715 -0.3199  0.2930
  553SOL    HW1 1658   0.255   2.949   1.009  1.8627 -1.7820 -1.7585
  553SOL    HW2 1659   0.188   2.800   1.018 -0.0025  1.9522 -0.0011
  554SOL     OW 1660   2.272   2.107   1.628 -0.2033  0.7592 -0.6526
  554SOL    HW1 1661   2.175   2.086   1.660  2.0170 -1.4077  0.4806
  554SOL    HW2 1662   2.304   2.192   1.675 -1.4776  2.9642 -0.6833
  555SOL     OW 1663   1.672   2.178   1.998  0.4829 -0.2020  0.1002
  555SOL    HW1 1664   1.624   2.106   2.053 -3.5243 -2.9748  0.5594
  555SOL    HW2 1665   1.650   2.275   2.029 -0.1415  0.2910 -0.5059
  556SOL     OW 1666   1.242   1.403   1.003 -0.1222 -0.2087  0.4645
  556SOL    HW1 1667   1.327   1.345   0.997  0.3610  0.6862 -1.4637
  556SOL    HW2 1668   1.270   1.496   1.014 -0.2702 -3.6480 -2.4480
  557SOL     OW 1669   1.711   2.774   1.733  0.0911 -0.0616 -0.5021
  557SOL    HW1 1670   1.746   2.832   1.810  0.7801  0.5137 -1.1325
  557SOL    HW2 1671   1.678   2.833   1.656 -2.5913 -2.5135  0.0038
  558SOL     OW 1672   0.266   0.029   1.794  0.3349 -0.1110  0.2008
  558SOL    HW1 1673   0.232   0.074   1.882 -0.1960 -0.5775  3.1079
  558SOL    HW2 1674   0.230   0.084   1.709  0.4774  3.7788 -1.9382
  559SOL     OW 1675   2.147   2.851   0.903  0.1247  0.5086  0.2062
  559SOL    HW1 1676   2.168   2.939   0.948  0.1556 -2.5243 -0.1082
  559SOL    HW2 1677   2.200   2.848   0.813  1.8174 -0.2644  0.2698
  560SOL     OW 1678   1.890   2.514   0.743 -0.3816  0.9316  0.0365
  560SOL    HW1 1679   1.941   2.477   0.822 -1.2149  1.5582 -0.7235
  560SOL    HW2 1680   1.819   2.576   0.781  1.6039 -0.8646  1.0524
  561SOL     OW 1681   0.886   0.148   0.804 -0.1360 -0.1992  0.2816
  561SOL    HW1 1682   0.955   0.215   0.836  1.0082 -2.6474  0.5694
  561SOL    HW2 1683   0.831   0.185   0.730 -0.3431  0.5003 -0.8327
  562SOL     OW 1684   0.489   1.428   2.250 -0.1065  0.6109 -0.4883
  562SOL    HW1 1685   0.438   1.508   2.214 -2.4890 -1.9921 -0.4439
  562SOL    HW2 1686   0.452   1.389   2.341 -0.9128 -0.3794 -1.0836
  563SOL     OW 1687   1.509   2.202   2.339 -0.0904  0.3942  0.0441
  563SOL    HW1 1688   1.516   2.122   2.269 -2.3498 -1.6800 -3.6769
  563SOL    HW2 1689   1.587   2.205   2.408 -0.4957  0.6505  2.2893
  564SOL     OW 1690   2.949   0.925   0.724 -0.0752 -0.2702  0.3871
  564SOL    HW1 1691   2.917   0.931   0.629 -1.7744  0.3348  0.1252
  564SOL    HW2 1692   2.874   0.929   0.792  2.3037  0.4151  0.1769
  565SOL     OW 1693   0.698   1.042   0.061 -0.0544  0.1565  0.6991
  565SOL    HW1 1694   0.777   1.060   3.106  0.0272 -1.5581 -1.2588
  565SOL    HW2 1695   0.670   1.129   0.111 -0.2541  3.4310  2.0152
  566SOL     OW 1696   2.316   0.241   2.659 -0.7898  0.1414 -0.3011
  566SOL    HW1 1697   2.246   0.183   2.704  0.1884  1.4225 -1.2015
  566SOL    HW2 1698   2.356   0.302   2.723 -3.9737 -0.3992 -0.0813
  567SOL     OW 1699   1.359   0.774   0.973 -0.1208  0.4346  0.5298
  567SOL    HW1 1700   1.454   0.752   0.995 -0.4529  1.8081 -1.6739
  567SOL    HW2 1701   1.340   0.872   0.984  0.4041 -2.3789 -2.5622
  568SOL     OW 1702   1.707   1.823   2.903  0.4581  0.0771 -0.6501
  568SOL    HW1 1703   1.661   1.788   2.988  3.0556  0.7524 -1.1024
  568SOL    HW2 1704   1.707   1.756   2.825  1.7387 -0.9627 -0.6290
  569SOL     OW 1705   2.189   1.323   0.037  0.0179 -0.1152 -0.6613
  569SOL    HW1 1706   2.114   1.385   0.015 -1.8193 -0.6645  0.0801
  569SOL    HW2 1707   2.275   1.361   0.005 -0.8722 -1.7512  1.7673
  570SOL     OW 1708   0.268   2.583   1.841 -0.0019 -0.1685  0.1310
  570SOL    HW1 1709   0.325   2.666   1.851  0.5389  4.7652 -1.3956
  570SOL    HW2 1710   0.253   2.572   1.741 -0.2323  1.3540 -0.0180
  571SOL     OW 1711   3.027   1.701   1.697  0.2351 -0.0046 -0.1440
  571SOL    HW1 1712   3.011   1.789   1.647  0.5552  1.9733 -3.0704
  571SOL    HW2 1713   0.011   1.659   1.671  0.9654  0.5646 -2.0408
  572SOL     OW 1714   1.537   1.917   0.481 -0.2245  0.0237  0.3360
  572SOL    HW1 1715   1.495   1.903   0.574  2.2959  1.1827 -1.4259
  572SOL    HW2 1716   1.616   1.983   0.489 -0.2095 -0.9014  0.2211
  573SOL     OW 1717   1.748   2.087   0.507 -0.2181 -0.2144  0.2099
  573SOL    HW1 1718   1.791   2.127   0.419 -0.1553  1.0889 -1.4420
  573SOL    HW2 1719   1.768   2.149   0.584  0.2119  0.4196 -1.0521
  574SOL     OW 1720   0.696   3.047   0.914 -0.1789  0.1654 -0.4318
  574SOL    HW1 1721   0.611   0.001   0.929 -0.1850  0.5006 -0.7026
  574SOL    HW2 1722   0.780   3.105   0.895  1.5945 -0.5508 -0.7193
  575SOL     OW 1723   0.756   1.076   1.879 -0.0499 -0.2764  0.2896
  575SOL    HW1 1724   0.748   1.172   1.833  0.9075  0.4841 -0.3885
  575SOL    HW2 1725   0.850   1.063   1.906  0.8645  3.4106 -2.1576
  576SOL     OW 1726   2.772   0.083   1.470  0.3096 -0.1446 -0.5976
  576SOL    HW1 1727   2.805   0.149   1.539  1.4031 -2.4643  0.7929
  576SOL    HW2 1728   2.699   0.120   1.406 -1.7337 -1.9514 -2.8887
  577SOL     OW 1729   1.102   0.907   2.419 -0.0955  0.6516  0.0238
  577SOL    HW1 1730   1.045   0.888   2.501 -0.2357  0.3409 -2.1774
  577SOL    HW2 1731   1.157   0.829   2.382  2.6152  1.0675 -0.9066
  578SOL     OW 1732   2.196   1.225   2.469 -0.2272  0.0549 -0.4806
  578SOL    HW1 1733   2.108   1.238   2.521 -3.9577  2.2176  0.2238
  578SOL    HW2 1734   2.253   1.309   2.451  1.2557 -0.1885 -3.6755
  579SOL     OW 1735   1.643   2.121   1.718  0.1156 -0.1828 -0.7256
  579SOL    HW1 1736   1.643   2.144   1.819 -2.0306  0.0282  1.0303
  579SOL    HW2 1737   1.734   2.151   1.675 -0.5974  1.9528 -4.5810
  580SOL     OW 1738   1.242   1.725   0.296 -0.8172  0.1107 -0.6080
  580SOL    HW1 1739   1.324   1.668   0.274 -2.6061  3.1464  4.2714
  580SOL    HW2 1740   1.227   1.710   0.396  0.6961 -1.5324  2.7258
  581SOL     OW 1741   1.322   0.769   2.083  0.9471  0.2045  0.2486
  581SOL    HW1 1742   1.232   0.756   2.037  2.1410 -2.5095 -2.1221
  581SOL    HW2 1743   1.303   0.778   2.182 -2.8074 -2.2237 -0.0103
  582SOL     OW 1744   0.720   1.311   1.731 -0.2476  0.1183  0.2303
  582SOL    HW1 1745   0.761   1.395   1.772 -0.4486 -1.7371  1.0237
  582SOL    HW2 1746   0.711   1.315   1.628 -1.2638  0.9377 -0.8292
  583SOL     OW 1747   1.114   1.216   2.100 -0.7418 -0.1638 -0.4806
  583SOL    HW1 1748   1.063   1.129   2.078 -0.9057 -1.0045  1.1994
  583SOL    HW2 1749   1.063   1.297   2.059  1.1100  0.4956  0.6808
  584SOL     OW 1750   2.525   2.580   0.705 -0.4073 -0.6258 -0.2728
  584SOL    HW1 1751   2.425   2.566   0.706  1.9285 -1.2050  0.9587
  584SOL    HW2 1752   2.549   2.659   0.767  1.5199  1.4374 -0.4310
  585SOL     OW 1753   2.103   0.111   2.741 -0.2174 -0.1195 -0.3429
  585SOL    HW1 1754   2.011   0.123   2.702 -0.0756  2.7144  0.5797
  585SOL    HW2 1755   2.111   0.130   2.843 -0.1568 -1.1719  2.6504
  586SOL     OW 1756   0.069   2.263   0.643 -0.1816 -0.2676  0.0209
  586SOL    HW1 1757   3.087   2.295   0.686 -0.0954  1.0398  0.1470
  586SOL    HW2 1758   0.141   2.332   0.648 -1.1258  0.4988 -0.3362
  587SOL     OW 1759   1.570   1.688   0.010 -0.5400  0.2158 -0.1537
  587SOL    HW1 1760   1.564   1.736   0.101 -3.4119  0.3457  3.5762
  587SOL    HW2 1761   1.630   1.606   0.011 -1.1061 -1.8027 -0.1398
  588SOL     OW 1762   0.355   0.135   1.163  0.0047 -0.1855 -0.1495
  588SOL    HW1 1763   0.401   0.117   1.256  1.6324  0.7102  1.8330
  588SOL    HW2 1764   0.267   0.174   1.188  3.6278  1.6264 -0.2859
  589SOL     OW 1765   1.646   0.622   0.831  0.1539 -0.0551 -0.4806
  589SOL    HW1 1766   1.747   0.605   0.840 -1.9322  2.9148  1.3818
  589SOL    HW2 1767   1.606   0.652   0.920  0.2688 -0.0946  1.1242
  590SOL     OW 1768   1.293   1.274   2.842 -0.1740 -0.8588 -0.1721
  590SOL    HW1 1769   1.190   1.287   2.826  1.6472 -2.3962 -1.1075
  590SOL    HW2 1770   1.314   1.268   2.941 -4.2382  3.4726  1.3416
  591SOL     OW 1771   2.459   2.408   2.504 -0.0134 -0.4506 -0.2673
  591SOL    HW1 1772   2.521   2.474   2.556  1.3231 -1.5084  0.3777
  591SOL    HW2 1773   2.397   2.457   2.439  1.5376 -2.1194  0.3953
  592SOL     OW 1774   2.025   2.037   1.408 -0.4220 -0.4874  0.0361
  592SOL    HW1 1775   2.018   2.083   1.497 -1.2854 -0.9885 -1.3319
  592SOL    HW2 1776   2.058   1.942   1.416 -1.1641  2.8906  0.1222
  593SOL     OW 1777   0.933   0.254   1.240 -0.0464 -0.2375  0.7200
  593SOL    HW1 1778   0.891   0.287   1.329  1.1300 -1.3500  1.1958
  593SOL    HW2 1779   0.920   0.320   1.162  0.0035 -1.1885  0.9869
  594SOL     OW 1780   2.565   0.987   2.445 -0.6330 -0.1977  0.0005
  594SOL    HW1 1781   2.566   0.917   2.524 -0.7283 -1.7368 -0.1821
  594SOL    HW2 1782   2.582   0.936   2.357  0.7809 -0.0774 -0.4151
  595SOL     OW 1783   0.186   0.034   0.696  0.1920 -0.0658  0.1179
  595SOL    HW1 1784   0.203   0.026   0.796  4.4331  0.0536  0.8270
  595SOL    HW2 1785   0.220   3.054   0.652 -0.3654  1.7172 -1.4984
  596SOL     OW 1786   0.115   1.194   1.192  0.2727  0.9428 -0.6149
  596SOL    HW1 1787   0.100   1.178   1.292  1.3721 -0.1611 -0.1530
  596SOL    HW2 1788   0.077   1.123   1.137  0.1437  5.0825  0.7045
  597SOL     OW 1789   1.744   1.528   0.364  0.0943 -0.2828  0.0482
  597SOL    HW1 1790   1.789   1.446   0.405 -1.1251 -1.7244  1.8857
  597SOL    HW2 1791   1.801   1.613   0.370  0.4286  0.8559  0.5906
  598SOL     OW 1792   0.125   2.910   1.744  0.1021 -0.3447  0.3960
  598SOL    HW1 1793   0.169   2.875   1.655  1.0526 -0.5811  0.6273
  598SOL    HW2 1794   0.179   2.989   1.779 -0.2325 -1.6914  0.6902
  599SOL     OW 1795   2.563   1.422   2.668 -0.6412  0.1223  1.0210
  599SOL    HW1 1796   2.519   1.430   2.758  0.2360 -0.6249 -1.0232
  599SOL    HW2 1797   2.586   1.518   2.635  1.6634 -1.1704 -1.2744
  600SOL     OW 1798   0.670   1.249   0.221  0.5443 -0.1737  0.1461
  600SOL    HW1 1799   0.734   1.302   0.162 -1.6984  0.9357 -0.1474
  600SOL    HW2 1800   0.708   1.214   0.308 -0.1617 -1.8940 -0.8502
  601SOL     OW 1801   0.611   0.979   0.981 -0.6130  0.2130  0.2280
  601SOL    HW1 1802   0.717   0.970   0.985  3.1278  1.0041 -2.0966
  601SOL    HW2 1803   0.572   1.006   1.069 -2.8633  0.3532  0.1467
  602SOL     OW 1804   1.475   2.598   0.402  0.4070 -0.3159 -0.5900
  602SOL    HW1 1805   1.437   2.501   0.389 -1.6505 -2.3436  1.2058
  602SOL    HW2 1806   1.560   2.609   0.346  1.7398 -2.2340 -2.7556
  603SOL     OW 1807   0.547   2.666   2.080 -0.1259  0.0832  0.1064
  603SOL    HW1 1808   0.533   2.710   1.990  0.3566  2.0593  2.1122
  603SOL    HW2 1809   0.572   2.569   2.066  1.9468 -0.3173 -0.0499
  604SOL     OW 1810   0.211   0.445   2.329 -0.0438 -0.1716  0.0182
  604SOL    HW1 1811   0.192   0.514   2.253 -0.9923 -0.2814 -2.0211
  604SOL    HW2 1812   0.127   0.409   2.366  0.6639  0.4329  0.4434
  605SOL     OW 1813   3.058   1.095   1.515 -0.4445 -0.0267 -0.1283
  605SOL    HW1 1814   0.048   1.130   1.527 -1.6203  0.5882  0.8113
  605SOL    HW2 1815   3.003   1.151   1.576  0.8293 -1.2062  0.9300
  606SOL     OW 1816   0.973   1.539   2.484  0.0366  0.0040  0.0353
  606SOL    HW1 1817   0.881   1.494   2.507 -0.2267  1.4967  3.8640
  606SOL    HW2 1818   1.049   1.477   2.499 -2.5960  0.7929  2.4512
  607SOL     OW 1819   0.213   3.021   0.314  0.3749  0.0167 -0.2039
  607SOL    HW1 1820   0.307   3.039   0.273  1.5517  0.5244  1.5380
  607SOL    HW2 1821   0.161   3.100   0.290  3.2570 -0.7041  0.1308
  608SOL     OW 1822   2.182   1.769   2.276  0.1643 -0.0535 -0.2033
  608SOL    HW1 1823   2.086   1.777   2.238 -0.9188  1.2605 -1.4231
  608SOL    HW2 1824   2.184   1.722   2.372 -1.0743 -1.8860  0.4288
  609SOL     OW 1825   2.752   0.424   1.290 -0.2142 -0.5951 -0.5797
  609SOL    HW1 1826   2.760   0.477   1.202 -1.0418  2.6234 -0.5409
  609SOL    HW2 1827   2.694   0.342   1.274  0.6816  0.0553  1.5629
  610SOL     OW 1828   0.511   2.804   0.549 -0.4233 -0.5900  0.1532
  610SOL    HW1 1829   0.476   2.833   0.640  2.6711 -0.2623 -1.3296
  610SOL    HW2 1830   0.488   2.706   0.532 -1.7165  0.5580 -0.4314
  611SOL     OW 1831   1.703   0.874   3.040  0.0347 -0.0347 -0.1141
  611SOL    HW1 1832   1.767   0.946   3.082  2.2389  1.9413  4.1048
  611SOL    HW2 1833   1.712   0.887   2.941  1.3304 -1.1952  0.2496
  612SOL     OW 1834   0.743   2.290   1.847 -0.1938 -0.1137 -0.6757
  612SOL    HW1 1835   0.693   2.348   1.917  0.1081 -0.1707  1.0480
  612SOL    HW2 1836   0.766   2.347   1.768  0.1513 -0.2762  1.1397
  613SOL     OW 1837   0.497   2.535   0.577 -0.0611  0.7660  0.9992
  613SOL    HW1 1838   0.558   2.484   0.641 -2.5552 -1.0670  2.4285
  613SOL    HW2 1839   0.500   2.496   0.480 -0.8068 -0.5509  1.2426
  614SOL     OW 1840   2.254   2.858   1.224 -0.0973  0.4453  0.0081
  614SOL    HW1 1841   2.212   2.852   1.319 -2.0032 -1.4253  0.6567
  614SOL    HW2 1842   2.252   2.952   1.181 -2.7548  0.1573  0.8148
  615SOL     OW 1843   1.682   1.105   0.273 -0.0081 -0.3395  0.3699
  615SOL    HW1 1844   1.645   1.107   0.367  0.2247  0.6321 -0.0149
  615SOL    HW2 1845   1.784   1.112   0.268 -0.5985  0.1633 -0.4746
  616SOL     OW 1846   2.117   0.557   0.167 -0.0706 -0.5603  0.2621
  616SOL    HW1 1847   2.122   0.632   0.100 -0.2170 -2.2159  0.7355
  616SOL    HW2 1848   2.085   0.480   0.114  0.0853  2.1801 -0.5699
  617SOL     OW 1849   1.022   0.849   2.980  0.3486  0.1898  0.8690
  617SOL    HW1 1850   1.121   0.879   2.967  0.4724  0.8384  0.6403
  617SOL    HW2 1851   1.028   0.753   3.021 -2.1534 -2.6654  0.0303
  618SOL     OW 1852   0.684   3.040   2.036 -0.4536 -0.1187 -0.4323
  618SOL    HW1 1853   0.686   2.947   2.071  0.8212 -1.9245  1.1569
  618SOL    HW2 1854   0.635   3.048   1.950  0.3159 -0.5535  4.0786
  619SOL     OW 1855   0.005   1.438   1.379 -0.6600  0.2797  0.4767
  619SOL    HW1 1856   0.049   1.342   1.382  3.2985 -2.5036 -0.0036
  619SOL    HW2 1857   3.012   1.432   1.387  0.0338  1.1774  2.3567
  620SOL     OW 1858   2.871   0.992   2.937  0.6404  0.0433  0.3744
  620SOL    HW1 1859   2.880   1.086   2.967 -0.4287 -0.2939  0.2790
  620SOL    HW2 1860   2.830   0.944   3.014 -2.5171  1.0797 -0.8569
  621SOL     OW 1861   2.281   2.397   2.011  0.0440 -0.0696 -0.0757
  621SOL    HW1 1862   2.373   2.358   2.040  1.2729 -2.2517  0.7208
  621SOL    HW2 1863   2.212   2.364   2.076 -0.6371  0.9941 -1.5655
  622SOL     OW 1864   0.865   0.422   2.168 -0.0477  0.0289  0.6283
  622SOL    HW1 1865   0.859   0.345   2.231  1.3943  1.2904 -1.8548
  622SOL    HW2 1866   0.823   0.508   2.212 -1.3001  0.1400 -0.2100
  623SOL     OW 1867   0.893   0.819   2.595  0.4020 -0.0140  0.1507
  623SOL    HW1 1868   0.896   0.724   2.560  2.1172  1.8370  0.1331
  623SOL    HW2 1869   0.894   0.824   2.699 -1.7595  1.3260  2.6257
  624SOL     OW 1870   2.565   0.868   0.311 -0.1005 -0.0953  0.3324
  624SOL    HW1 1871   2.593   0.961   0.279  1.5961  1.1265  1.0224
  624SOL    HW2 1872   2.569   0.865   0.410  1.5443  2.8267 -0.2725
  625SOL     OW 1873   1.000   1.375   0.597  0.4232  0.5185  0.1501
  625SOL    HW1 1874   1.002   1.396   0.696 -0.5835  0.3348 -2.4722
  625SOL    HW2 1875   0.983   1.461   0.544  0.7092 -3.4800 -1.4758
  626SOL     OW 1876   1.754   0.911   2.774  0.2645 -0.2712 -0.0380
  626SOL    HW1 1877   1.854   0.887   2.753  2.6104 -2.2454 -0.2291
  626SOL    HW2 1878   1.742   1.008   2.807 -0.9987 -0.1791 -0.3249
  627SOL     OW 1879   0.875   2.888   2.946 -0.2171 -0.4363 -0.0051
  627SOL    HW1 1880   0.862   2.954   2.870  1.1137 -0.9554  2.8442
  627SOL    HW2 1881   0.854   2.946   3.026  1.1989 -1.8830 -0.2479
  628SOL     OW 1882   2.188   0.191   2.351  0.1387  0.2235  0.0996
  628SOL    HW1 1883   2.288   0.175   2.348 -0.4077  0.6674 -0.2678
  628SOL    HW2 1884   2.175   0.278   2.410 -1.3900  0.9410 -1.0297
  629SOL     OW 1885   0.868   0.452   0.002 -0.1510 -0.1721  0.2714
  629SOL    HW1 1886   0.791   0.506   3.061 -1.7188  1.5269 -2.9126
  629SOL    HW2 1887   0.955   0.505   0.007 -1.8545  2.2439  0.4886
  630SOL     OW 1888   0.892   0.349   2.846 -0.4173 -0.0604  0.3809
  630SOL    HW1 1889   0.982   0.310   2.825 -0.8009 -0.9361 -2.1291
  630SOL    HW2 1890   0.894   0.399   2.938 -0.4496  1.5497  2.2072
  631SOL     OW 1891   2.536   1.101   0.722 -0.1147 -0.0793  0.8520
  631SOL    HW1 1892   2.435   1.104   0.718 -0.3337 -0.3768 -0.3061
  631SOL    HW2 1893   2.572   1.183   0.679  0.1420  0.0406 -1.5808
  632SOL     OW 1894   1.880   0.654   1.254  0.2263 -1.0797 -0.9892
  632SOL    HW1 1895   1.922   0.742   1.289  0.8437  0.4912 -1.4873
  632SOL    HW2 1896   1.834   0.610   1.335  3.7717  1.4422 -1.0957
  633SOL     OW 1897   0.963   1.611   0.489  0.2677  0.3434  0.6124
  633SOL    HW1 1898   0.923   1.675   0.422  1.2266 -0.3152  0.3828
  633SOL    HW2 1899   1.048   1.652   0.526 -1.2235 -1.1751 -3.3827
  634SOL     OW 1900   2.119   0.128   1.338 -0.1961  0.0891 -0.0829
  634SOL    HW1 1901   2.040   0.087   1.380  0.2550  3.0306  2.0294
  634SOL    HW2 1902   2.191   0.154   1.400 -1.1551  0.4919 -1.9725
  635SOL     OW 1903   1.858   0.422   1.126 -0.5707 -0.4460 -0.3234
  635SOL    HW1 1904   1.865   0.513   1.165 -1.5065 -2.9379 -2.2507
  635SOL    HW2 1905   1.812   0.415   1.039  0.7486  0.0251 -0.6215
  636SOL     OW 1906   0.820   1.195   0.449  0.0426 -0.1137  0.2486
  636SOL    HW1 1907   0.739   1.176   0.511 -1.6561 -2.1296 -0.0950
  636SOL    HW2 1908   0.886   1.260   0.489 -4.1530 -0.1341  0.2494
  637SOL     OW 1909   2.501   2.054   2.725  0.0375 -0.4813  0.0868
  637SOL    HW1 1910   2.520   2.054   2.828 -0.9884  3.1203 -0.0545
  637SOL    HW2 1911   2.430   2.124   2.706  0.2569  1.8434  1.3879
  638SOL     OW 1912   1.575   2.591   2.754  0.1222  0.0305  0.3046
  638SOL    HW1 1913   1.615   2.613   2.666 -0.9033  2.0149  0.2200
  638SOL    HW2 1914   1.642   2.544   2.810 -3.6019  1.8083 -1.6038
  639SOL     OW 1915   1.369   1.605   1.367 -0.1293  0.6053 -0.0510
  639SOL    HW1 1916   1.342   1.686   1.310  0.1417 -1.0641  1.8492
  639SOL    HW2 1917   1.431   1.548   1.307 -0.2512  3.9788  3.6009
  640SOL     OW 1918   2.438   2.789   0.475  0.0064  0.1239 -0.3015
  640SOL    HW1 1919   2.417   2.695   0.441 -0.1399  3.2245  3.7383
  640SOL    HW2 1920   2.521   2.823   0.429 -0.0511  0.4202  1.8348
  641SOL     OW 1921   3.037   2.851   0.165 -0.3432  0.2543  0.2716
  641SOL    HW1 1922   0.012   2.803   0.200  0.5298 -0.4681 -0.5146
  641SOL    HW2 1923   2.993   2.908   0.236  1.8987 -1.0521  1.1391
  642SOL     OW 1924   2.930   0.762   1.302 -0.1433 -0.0860 -0.1369
  642SOL    HW1 1925   2.902   0.706   1.219  0.4734  2.0598 -2.3610
  642SOL    HW2 1926   2.901   0.860   1.290 -0.8743 -2.4829 -0.7033
  643SOL     OW 1927   0.852   1.920   2.121 -0.3459 -0.5192 -0.6742
  643SOL    HW1 1928   0.840   2.006   2.067  1.3985 -1.9138 -0.4361
  643SOL    HW2 1929   0.952   1.912   2.137 -0.0843 -2.0759 -1.3532
  644SOL     OW 1930   1.789   2.247   0.709  0.1547  0.1200  0.1007
  644SOL    HW1 1931   1.851   2.187   0.769  0.2629 -1.1195  2.5807
  644SOL    HW2 1932   1.791   2.343   0.746 -0.9335  1.0383  0.5719
  645SOL     OW 1933   1.875   1.927   1.082 -0.6656 -0.1119  0.1421
  645SOL    HW1 1934   1.838   1.840   1.048  1.1557  1.5840 -0.3103
  645SOL    HW2 1935   1.827   1.970   1.163 -1.9697  2.3483 -0.3818
  646SOL     OW 1936   1.094   2.476   3.008 -0.0184 -0.2567 -0.3100
  646SOL    HW1 1937   1.196   2.499   2.998  1.1350 -1.8791 -0.4208
  646SOL    HW2 1938   1.080   2.383   2.968  3.3079 -1.9775 -0.5906
  647SOL     OW 1939   0.479   2.768   1.828 -0.1297  0.2936 -0.3107
  647SOL    HW1 1940   0.504   2.861   1.804  1.7534  0.3277  0.8669
  647SOL    HW2 1941   0.487   2.704   1.745  2.6871  1.8187  0.2537
  648SOL     OW 1942   1.591   0.655   1.098 -0.1314  0.5390  0.5168
  648SOL    HW1 1943   1.542   0.613   1.177  0.8496  1.0446  0.2863
  648SOL    HW2 1944   1.682   0.690   1.125  0.1259  0.2304  0.5377
  649SOL     OW 1945   1.431   2.109   0.081 -0.4166 -0.1609  0.4151
  649SOL    HW1 1946   1.440   2.207   0.105 -0.0749  0.4576  2.2286
  649SOL    HW2 1947   1.472   2.089   3.098  0.0595  1.7448  2.1250
  650SOL     OW 1948   2.291   1.587   2.050 -0.1904  0.2633 -0.3406
  650SOL    HW1 1949   2.272   1.620   2.141  0.3666 -1.5987 -1.5949
  650SOL    HW2 1950   2.274   1.485   2.055  0.7243 -1.1798 -1.0067
  651SOL     OW 1951   1.451   2.381   0.079 -0.5263 -0.2609 -0.2260
  651SOL    HW1 1952   1.403   2.395   3.099  0.3165 -0.3248 -0.0677
  651SOL    HW2 1953   1.549   2.409   0.063 -3.2285  0.6749 -0.0384
  652SOL     OW 1954   0.491   2.209   0.285  0.1823 -0.4806 -0.3144
  652SOL    HW1 1955   0.418   2.178   0.343  2.2730  0.7956 -0.4898
  652SOL    HW2 1956   0.496   2.309   0.282  1.4048 -1.8676 -0.0605
  653SOL     OW 1957   2.430   2.069   1.418  0.0487  0.1212  0.3069
  653SOL    HW1 1958   2.414   2.147   1.354 -0.0757 -0.4727  0.7887
  653SOL    HW2 1959   2.361   2.076   1.495  0.2892 -1.1239  2.0525
  654SOL     OW 1960   2.641   2.740   1.274 -0.5931 -0.1564 -0.2399
  654SOL    HW1 1961   2.643   2.822   1.336 -0.7183 -0.6348 -1.1325
  654SOL    HW2 1962   2.683   2.661   1.323  0.4240  2.2026  0.3193
  655SOL     OW 1963   0.010   2.275   1.372 -0.6907  0.1165 -0.4698
  655SOL    HW1 1964   0.096   2.211   1.378  2.6294 -3.3982  0.6043
  655SOL    HW2 1965   3.103   2.287   1.271 -0.4925  0.9908  1.2519
  656SOL     OW 1966   2.967   2.717   2.654 -0.0274  0.0858 -0.1541
  656SOL    HW1 1967   2.981   2.773   2.576 -0.4351 -3.5293  1.0754
  656SOL    HW2 1968   2.945   2.767   2.741 -0.4778 -0.6509 -0.3598
  657SOL     OW 1969   3.030   0.895   0.184  0.4376 -0.1264  0.5964
  657SOL    HW1 1970   3.006   0.987   0.143 -2.4698  0.2609 -0.7776
  657SOL    HW2 1971   0.016   0.863   0.157  1.5263 -0.0909  1.8772
  658SOL     OW 1972   1.788   1.687   0.924  0.4758  0.4162  0.1752
  658SOL    HW1 1973   1.833   1.686   0.830  0.5426 -0.7135  0.0183
  658SOL    HW2 1974   1.694   1.642   0.921 -1.3732 -1.6735 -1.5651
  659SOL     OW 1975   1.468   0.531   1.317  0.1185  0.5896  0.0012
  659SOL    HW1 1976   1.379   0.583   1.318 -0.9161  1.3372  1.0294
  659SOL    HW2 1977   1.453   0.437   1.358 -0.6690 -0.7714 -1.9040
  660SOL     OW 1978   1.721   1.474   0.088 -0.3578  0.6618  0.0175
  660SOL    HW1 1979   1.713   1.481   0.189 -1.2477 -0.2428 -0.1969
  660SOL    HW2 1980   1.687   1.379   0.060  2.2261 -2.8219 -0.8611
  661SOL     OW 1981   0.153   2.172   0.032  0.1562  0.5051  0.0654
  661SOL    HW1 1982   0.237   2.189   0.081  1.1317  2.4216 -1.7118
  661SOL    HW2 1983   0.093   2.255   0.042 -0.6270 -0.9428  2.6664
  662SOL     OW 1984   0.123   0.722   1.953 -0.1114  0.3521  0.8513
  662SOL    HW1 1985   0.049   0.779   1.984  3.1357  0.5956  0.7854
  662SOL    HW2 1986   0.162   0.753   1.861  0.0451 -1.3964 -2.3767
  663SOL     OW 1987   1.840   1.278   0.768 -0.3489  0.3161  0.5106
  663SOL    HW1 1988   1.873   1.180   0.763  2.8749 -1.7141  0.6346
  663SOL    HW2 1989   1.820   1.305   0.864 -3.0360 -1.2888  4.1257
  664SOL     OW 1990   0.881   0.447   1.058  0.4266 -0.6234 -0.1114
  664SOL    HW1 1991   0.891   0.549   1.078 -0.6128  1.7006 -0.3476
  664SOL    HW2 1992   0.832   0.430   0.970 -2.7983 -2.4943 -3.3536
  665SOL     OW 1993   1.039   0.093   0.151 -0.0967 -0.6867 -0.6825
  665SOL    HW1 1994   1.015   0.028   0.224 -3.3769 -0.8968  0.3099
  665SOL    HW2 1995   1.131   0.077   0.121 -3.3887  1.7149 -1.5422
  666SOL     OW 1996   3.059   0.373   2.667  0.3010  0.2926  0.2766
  666SOL    HW1 1997   0.049   0.372   2.701 -3.4182  1.0659 -0.1390
  666SOL    HW2 1998   2.991   0.396   2.743  1.7138  0.9708  0.8906
  667SOL     OW 1999   2.394   1.924   2.240 -0.1839 -0.0114  0.4113
  667SOL    HW1 2000   2.389   2.014   2.288 -0.9509  0.0648  1.5755
  667SOL    HW2 2001   2.310   1.869   2.257  0.5442 -0.1358 -0.5391
  668SOL     OW 2002   0.695   1.491   2.581  0.2901  0.2257 -0.3819
  668SOL    HW1 2003   0.635   1.545   2.640 -1.7887 -2.8388 -0.0766
  668SOL    HW2 2004   0.677   1.391   2.592  1.4031 -0.4449 -0.3112
  669SOL     OW 2005   2.121   2.608   2.511  0.5809 -0.1362  0.3208
  669SOL    HW1 2006   2.191   2.583   2.451 -3.3318 -0.9890  2.9992
  669SOL    HW2 2007   2.083   2.532   2.565  0.2289  1.3124  1.0595
  670SOL     OW 2008   2.268   0.986   2.391 -0.0200  0.2693  0.1895
  670SOL    HW1 2009   2.366   0.970   2.412  2.4856 -1.3115  0.5545
  670SOL    HW2 2010   2.248   1.081   2.422  0.8971 -0.7422 -1.7936
  671SOL     OW 2011   2.462   1.358   3.062  0.1503  0.0671 -0.1790
  671SOL    HW1 2012   2.465   1.259   3.037  1.8042 -1.3168  1.5911
  671SOL    HW2 2013   2.545   1.372   0.018  1.0836  0.9676  1.0570
  672SOL     OW 2014   2.670   1.268   2.469  0.2138 -0.3749  0.1173
  672SOL    HW1 2015   2.610   1.314   2.538 -1.1344 -0.2111 -1.4777
  672SOL    HW2 2016   2.619   1.186   2.432 -0.0139 -1.7573  2.6952
  673SOL     OW 2017   2.508   0.923   1.466 -0.3862 -0.4189  0.3869
  673SOL    HW1 2018   2.570   0.989   1.419  0.1498 -0.5181 -0.4272
  673SOL    HW2 2019   2.563   0.843   1.500  2.1350  0.7551  0.5301
  674SOL     OW 2020   1.909   1.808   1.911  0.6441 -0.0236 -0.0203
  674SOL    HW1 2021   1.947   1.713   1.924 -1.1175  1.1186 -1.6270
  674SOL    HW2 2022   1.893   1.827   1.814 -0.3785 -1.2480  0.5586
  675SOL     OW 2023   0.301   0.502   0.992  0.3853  0.4629 -0.3565
  675SOL    HW1 2024   0.282   0.490   0.891  1.5199 -0.0683  1.8058
  675SOL    HW2 2025   0.400   0.495   1.017  2.1582 -0.6045  1.5639
  676SOL     OW 2026   2.030   1.079   1.065  0.1085 -0.0790  0.1246
  676SOL    HW1 2027   2.095   1.156   1.081  0.0727  1.0130 -0.3318
  676SOL    HW2 2028   1.975   1.055   1.152  0.9782  1.0727  0.8394
  677SOL     OW 2029   1.844   1.396   2.135  0.7260 -0.0783 -0.2607
  677SOL    HW1 2030   1.757   1.353   2.162  2.2830  0.4491 -1.8429
  677SOL    HW2 2031   1.847   1.496   2.155  1.1797  1.0682 -0.6096
  678SOL     OW 2032   3.061   1.823   0.831  0.1353 -0.2529 -0.3403
  678SOL    HW1 2033   3.044   1.859   0.927 -1.3376 -0.4952  0.2953
  678SOL    HW2 2034   2.994   1.753   0.800 -2.3657  0.2288 -0.1926
  679SOL     OW 2035   2.708   2.792   0.359 -0.8289 -0.0428 -0.1757
  679SOL    HW1 2036   2.765   2.876   0.377  0.3190  1.0077  1.7387
  679SOL    HW2 2037   2.743   2.716   0.420 -1.8107  0.6562  0.2724
  680SOL     OW 2038   0.182   2.585   1.277  0.0164  0.5120  0.3686
  680SOL    HW1 2039   0.283   2.592   1.262 -0.4731  0.0835 -1.2550
  680SOL    HW2 2040   0.152   2.527   1.356  0.4249 -1.3420  0.1076
  681SOL     OW 2041   0.604   1.091   1.258 -0.0877  0.2604  0.0869
  681SOL    HW1 2042   0.692   1.132   1.265 -4.3204  1.1623 -1.9956
  681SOL    HW2 2043   0.588   1.019   1.328 -0.6664 -1.7759  3.1674
  682SOL     OW 2044   1.897   2.589   1.124  0.2726  0.5468  0.2773
  682SOL    HW1 2045   1.942   2.522   1.060 -1.1951  0.2510 -2.6966
  682SOL    HW2 2046   1.950   2.593   1.209  1.0931 -1.0687  0.3722
  683SOL     OW 2047   2.215   1.256   1.084  0.0078 -0.4028  0.3100
  683SOL    HW1 2048   2.236   1.338   1.024  0.8763 -0.7393  0.1589
  683SOL    HW2 2049   2.293   1.185   1.081  1.4310 -0.0087 -0.7045
  684SOL     OW 2050   0.931   2.130   1.911 -0.4369 -0.5060 -0.6391
  684SOL    HW1 2051   0.861   2.202   1.895  0.7803  2.0996  0.8975
  684SOL    HW2 2052   1.025   2.161   1.904 -1.7246  1.0089 -0.6534
  685SOL     OW 2053   2.362   1.524   0.337  0.1232  0.2861  0.1086
  685SOL    HW1 2054   2.351   1.428   0.372  0.5687 -1.4043  3.0176
  685SOL    HW2 2055   2.272   1.551   0.288 -3.6451  1.4020 -0.6801
  686SOL     OW 2056   2.998   0.495   0.362  0.3706  0.0335 -0.4494
  686SOL    HW1 2057   3.009   0.525   0.270  1.1131 -1.0060  1.4080
  686SOL    HW2 2058   2.929   0.555   0.413  0.1419 -2.3450 -0.8120
  687SOL     OW 2059   1.039   3.006   0.328  0.0361 -0.1671 -0.1822
  687SOL    HW1 2060   1.113   3.013   0.401 -4.0538  0.9357 -0.7653
  687SOL    HW2 2061   1.042   2.917   0.283 -2.2944  0.7285 -0.1346
  688SOL     OW 2062   1.938   1.903   2.177  0.1475 -0.2192  0.1039
  688SOL    HW1 2063   1.929   1.867   2.083 -1.2958  0.9392 -1.3776
  688SOL    HW2 2064   1.867   1.861   2.241  0.0592 -0.4569  1.0193
  689SOL     OW 2065   2.624   0.979   2.005 -0.5603 -0.0628  0.7804
  689SOL    HW1 2066   2.531   0.976   1.966  1.4544  1.8010  1.8942
  689SOL    HW2 2067   2.656   1.072   2.038  1.7171  1.5945  0.6589
  690SOL     OW 2068   1.630   1.004   0.930  0.0275 -0.0918 -0.3382
  690SOL    HW1 2069   1.703   0.979   0.866 -1.9065  0.1390  2.1333
  690SOL    HW2 2070   1.555   1.043   0.870 -0.1118 -2.5804 -2.0852
  691SOL     OW 2071   0.990   1.550   1.387 -0.8250 -0.4375  0.0132
  691SOL    HW1 2072   1.036   1.464   1.363  1.8100  0.3931 -1.4923
  691SOL    HW2 2073   0.915   1.571   1.322  1.5354  2.6728  2.9853
  692SOL     OW 2074   1.558   0.209   2.110  0.4409 -0.7707 -0.5286
  692SOL    HW1 2075   1.552   0.309   2.136  0.2775  2.1983  0.1133
  692SOL    HW2 2076   1.650   0.167   2.135 -2.2787 -0.5582 -2.4874
  693SOL     OW 2077   0.322   1.137   0.018  0.4196 -0.0875 -0.0294
  693SOL    HW1 2078   0.411   1.182   0.030 -4.3770 -0.3964  0.5609
  693SOL    HW2 2079   0.321   1.037   3.094  0.1878 -2.2408 -0.6119
  694SOL     OW 2080   2.271   2.497   0.721 -0.0577 -0.3984  0.4491
  694SOL    HW1 2081   2.226   2.528   0.806  2.1382  1.4917  3.0378
  694SOL    HW2 2082   2.204   2.494   0.645  0.0990 -0.5161  2.1923
  695SOL     OW 2083   1.698   1.152   2.864  0.2896 -0.4116 -0.7662
  695SOL    HW1 2084   1.659   1.184   2.952 -0.5357  0.0472  0.8813
  695SOL    HW2 2085   1.786   1.205   2.853 -0.0444  0.1569 -0.8797
  696SOL     OW 2086   1.521   0.291   1.443  0.0237 -0.4076  0.2145
  696SOL    HW1 2087   1.485   0.224   1.370 -1.3622 -0.1399 -0.4495
  696SOL    HW2 2088   1.610   0.257   1.473 -0.6847  1.6130 -2.0390
  697SOL     OW 2089   1.314   0.317   1.979  0.3263  0.1290  0.1463
  697SOL    HW1 2090   1.333   0.270   1.890  1.8423  0.9236  1.5339
  697SOL    HW2 2091   1.402   0.315   2.031 -0.8886 -3.4235 -1.3152
  698SOL     OW 2092   1.953   1.320   2.586 -0.8158 -0.1848  0.1536
  698SOL    HW1 2093   1.957   1.420   2.579 -0.0466 -0.0713 -0.0810
  698SOL    HW2 2094   1.882   1.285   2.516 -1.8992 -2.0510 -1.2324
  699SOL     OW 2095   1.455   1.222   1.108 -1.0986 -0.3263  0.5356
  699SOL    HW1 2096   1.550   1.213   1.065 -0.1524  1.2869 -1.7874
  699SOL    HW2 2097   1.464   1.219   1.208 -0.4820  3.5618  1.1215
  700SOL     OW 2098   1.722   3.039   0.158  0.1958 -0.6204 -0.0028
  700SOL    HW1 2099   1.795   3.035   0.228  0.3087 -0.1701  0.3442
  700SOL    HW2 2100   1.631   3.016   0.200  2.2623  1.4407  0.4868
  701SOL     OW 2101   0.490   0.042   1.382  0.5620 -0.3825 -0.1992
  701SOL    HW1 2102   0.542   3.075   1.331  0.6057 -1.5655 -1.4363
  701SOL    HW2 2103   0.538   0.067   1.468 -2.9386  0.6681  1.0319
  702SOL     OW 2104   1.531   2.820   1.185 -0.5570 -0.0634 -0.1263
  702SOL    HW1 2105   1.609   2.791   1.242 -1.8282 -0.4687  0.6239
  702SOL    HW2 2106   1.556   2.879   1.106 -0.7629 -1.1269 -0.9156
  703SOL     OW 2107   2.403   3.081   2.082  0.1114  0.8611  0.1358
  703SOL    HW1 2108   2.418   3.039   2.178  0.2268 -0.4030 -0.0719
  703SOL    HW2 2109   2.479   3.054   2.024 -1.8616  1.4650  0.8911
  704SOL     OW 2110   1.292   1.663   1.033 -0.0898 -0.2549  0.2909
  704SOL    HW1 2111   1.216   1.706   0.976 -0.5902  0.9684 -0.3882
  704SOL    HW2 2112   1.298   1.724   1.115  0.4230  0.4492 -1.0124
  705SOL     OW 2113   2.801   1.637   2.054 -0.2745  0.0529 -0.2029
  705SOL    HW1 2114   2.760   1.719   2.099 -0.0059 -0.4827 -1.2549
  705SOL    HW2 2115   2.798   1.559   2.122  2.5409 -0.4585  0.9731
  706SOL     OW 2116   1.589   2.865   0.655  0.1898  0.3651 -0.7484
  706SOL    HW1 2117   1.525   2.786   0.641  2.8118  1.9251 -0.2189
  706SOL    HW2 2118   1.557   2.940   0.604  2.6922 -3.9128  4.2435
  707SOL     OW 2119   1.014   2.606   2.521  0.2495 -0.5140 -0.2451
  707SOL    HW1 2120   0.962   2.601   2.432 -1.9819 -0.3991 -0.6675
  707SOL    HW2 2121   1.066   2.523   2.548  0.0256 -0.9177 -0.5851
  708SOL     OW 2122   0.511   2.388   1.488 -0.5299  0.1347 -0.4655
  708SOL    HW1 2123   0.468   2.323   1.558 -0.9052 -0.0285  0.7919
  708SOL    HW2 2124   0.595   2.351   1.449 -1.2933 -0.3652 -0.7211
  709SOL     OW 2125   2.206   0.671   2.099 -0.0281  0.1238  0.0265
  709SOL    HW1 2126   2.249   0.581   2.062 -0.0345  0.8372 -2.0353
  709SOL    HW2 2127   2.121   0.687   2.040  1.0424  2.4515 -0.8278
  710SOL     OW 2128   3.010   0.530   1.719  0.3935 -0.1398 -0.1900
  710SOL    HW1 2129   2.980   0.528   1.620 -0.9042 -2.7156 -1.8571
  710SOL    HW2 2130   0.002   0.520   1.739  3.7636 -0.3809 -0.0028
  711SOL     OW 2131   2.967   2.321   0.352  0.1249  0.1741 -0.0062
  711SOL    HW1 2132   2.966   2.370   0.437 -1.2964 -3.2326 -1.3448
  711SOL    HW2 2133   3.028   2.372   0.294 -3.0306 -1.3171  0.6849
  712SOL     OW 2134   0.234   2.503   2.587 -0.1465 -0.7031  0.0517
  712SOL    HW1 2135   0.313   2.562   2.618 -0.6750 -0.2467  0.3269
  712SOL    HW2 2136   0.162   2.486   2.656  2.5345 -1.2846  0.4752
  713SOL     OW 2137   2.094   0.783   3.074  0.0636 -0.5947 -0.2976
  713SOL    HW1 2138   2.033   0.843   0.017  0.8774 -2.1205 -0.1235
  713SOL    HW2 2139   2.055   0.748   2.985 -0.3738  0.4417  0.1817
  714SOL     OW 2140   1.349   2.139   0.483  0.0413 -0.3892  0.1661
  714SOL    HW1 2141   1.407   2.070   0.444  1.1485  1.7879  0.2296
  714SOL    HW2 2142   1.394   2.178   0.566 -0.9490 -0.9077 -0.8188
  715SOL     OW 2143   3.060   0.057   0.521  0.6815 -0.2466  0.0329
  715SOL    HW1 2144   0.004   0.121   0.461  0.7091  0.2600 -0.5272
  715SOL    HW2 2145   0.019   0.028   0.598  0.5096 -0.3773  2.1275
  716SOL     OW 2146   0.626   0.115   2.248 -0.1463  0.1153 -0.2300
  716SOL    HW1 2147   0.556   0.185   2.220  2.5715 -0.9309  0.1525
  716SOL    HW2 2148   0.652   0.057   2.166 -0.0558 -1.6493 -0.7449
  717SOL     OW 2149   0.271   0.500   0.050  0.3085 -0.2985 -0.7236
  717SOL    HW1 2150   0.347   0.452   3.106 -1.8142 -1.5215 -0.9335
  717SOL    HW2 2151   0.187   0.472   0.004  2.7295 -2.2993  1.3365
  718SOL     OW 2152   1.148   0.552   0.480  0.5520 -0.1472  0.1320
  718SOL    HW1 2153   1.177   0.610   0.560  0.2273 -2.2574 -0.7395
  718SOL    HW2 2154   1.217   0.479   0.460 -2.3381 -0.0662  0.6929
  719SOL     OW 2155   2.282   2.238   2.710  0.3897 -0.6523  0.3501
  719SOL    HW1 2156   2.330   2.328   2.695 -1.7827  2.8014  1.3600
  719SOL    HW2 2157   2.245   2.230   2.803  0.3099 -0.4625  2.2031
  720SOL     OW 2158   1.737   0.872   2.093 -0.0966  0.5384 -0.3382
  720SOL    HW1 2159   1.696   0.790   2.048  0.3713 -2.6260  3.2191
  720SOL    HW2 2160   1.774   0.848   2.182  0.5265  1.0622 -1.0632
  721SOL     OW 2161   2.801   0.221   0.942  0.8172 -0.3631 -0.0415
  721SOL    HW1 2162   2.788   0.313   0.982  1.9707 -0.4141  2.2441
  721SOL    HW2 2163   2.812   0.224   0.840  0.5725 -0.2720 -1.5380
  722SOL     OW 2164   1.246   2.125   2.454  0.5611  0.7630 -0.2433
  722SOL    HW1 2165   1.342   2.122   2.413 -0.8956 -1.4222 -1.4428
  722SOL    HW2 2166   1.247   2.067   2.541  5.2334 -1.6843  5.7837
  723SOL     OW 2167   1.105   0.320   0.779  0.2541 -0.6326  0.4114
  723SOL    HW1 2168   1.138   0.397   0.840 -1.8611  2.5416 -1.7182
  723SOL    HW2 2169   1.158   0.326   0.696 -1.2577  0.1823  0.2813
  724SOL     OW 2170   0.811   2.101   2.363  0.3676  0.6648  0.1807
  724SOL    HW1 2171   0.767   2.110   2.452  1.7344 -0.6117 -2.9359
  724SOL    HW2 2172   0.773   2.024   2.313 -1.3577 -1.1196  1.0971
  725SOL     OW 2173   0.145   0.731   1.021  0.0205  0.2306 -0.5924
  725SOL    HW1 2174   0.206   0.811   1.012 -2.3401 -2.5831  0.4198
  725SOL    HW2 2175   0.203   0.645   1.010 -2.1476  0.9446 -1.8825
  726SOL     OW 2176   1.726   0.159   0.585 -0.0201 -0.0211 -0.3755
  726SOL    HW1 2177   1.740   0.254   0.549 -0.3534 -1.8345 -0.1385
  726SOL    HW2 2178   1.767   0.137   0.676  2.4196  0.7925  1.6747
  727SOL     OW 2179   1.949   1.031   2.382 -0.4028 -0.0320 -0.3262
  727SOL    HW1 2180   1.983   1.094   2.312  0.7963  0.2643 -1.5923
  727SOL    HW2 2181   2.031   0.989   2.429  0.0693  0.1925  2.5061
  728SOL     OW 2182   1.728   2.508   1.621  0.5274 -0.3810  0.7443
  728SOL    HW1 2183   1.703   2.596   1.675 -2.2250  1.8236  1.2742
  728SOL    HW2 2184   1.787   2.535   1.538  0.5468  3.7479 -0.7200
  729SOL     OW 2185   1.841   0.361   1.828 -0.1730 -0.1070 -0.6485
  729SOL    HW1 2186   1.910   0.345   1.896  0.5830 -0.1956 -0.4014
  729SOL    HW2 2187   1.809   0.459   1.836 -0.3626  0.6033  1.0326
  730SOL     OW 2188   0.820   1.645   1.592 -0.2138  0.4290  0.1039
  730SOL    HW1 2189   0.863   1.734   1.618 -3.4789  0.8524 -1.8235
  730SOL    HW2 2190   0.878   1.587   1.534 -0.2714 -1.2523  0.8525
  731SOL     OW 2191   0.435   3.100   0.211 -0.2639 -0.0482  0.1141
  731SOL    HW1 2192   0.504   0.061   0.242  1.4010 -1.3179 -0.9219
  731SOL    HW2 2193   0.372   0.027   0.138 -0.1495  1.3972  0.9970
  732SOL     OW 2194   0.559   0.691   0.318 -0.4964  0.6279  0.2498
  732SOL    HW1 2195   0.656   0.660   0.316  2.5492 -0.0900  3.0552
  732SOL    HW2 2196   0.525   0.703   0.414 -3.2725  1.8373  0.2593
  733SOL     OW 2197   1.478   1.707   1.942 -0.0665 -0.0646 -0.3326
  733SOL    HW1 2198   1.385   1.751   1.943  1.3066 -0.5995 -1.7562
  733SOL    HW2 2199   1.499   1.645   1.863 -0.6171  0.9106 -1.8663
  734SOL     OW 2200   0.040   2.510   1.983  0.3055  0.0214  0.5249
  734SOL    HW1 2201   0.114   2.562   1.945 -2.3722 -1.0370  0.7119
  734SOL    HW2 2202   3.054   2.551   1.957  0.1564 -1.6280  1.5890
  735SOL     OW 2203   1.307   2.923   0.829  0.5921  0.1853 -0.0156
  735SOL    HW1 2204   1.248   2.861   0.881 -1.0339 -2.3968  0.4786
  735SOL    HW2 2205   1.402   2.922   0.858  0.9856 -0.0217 -1.0232
  736SOL     OW 2206   1.264   0.923   2.913 -0.2672 -0.1999 -0.0048
  736SOL    HW1 2207   1.336   0.882   2.980 -2.4635  0.6529  0.0150
  736SOL    HW2 2208   1.300   0.921   2.817  0.6227  0.3816  0.7270
  737SOL     OW 2209   0.043   1.060   0.392  0.1233  0.2314 -0.1208
  737SOL    HW1 2210   3.082   0.986   0.374 -3.0699 -0.0279  0.6294
  737SOL    HW2 2211   0.019   1.110   0.479 -0.1973  1.1491  1.1910
  738SOL     OW 2212   0.300   2.782   1.506  0.0588 -0.2090  0.8662
  738SOL    HW1 2213   0.376   2.714   1.534  2.2246  1.1784 -1.1621
  738SOL    HW2 2214   0.330   2.839   1.425  1.3327  1.8439 -1.9033
  739SOL     OW 2215   1.321   2.769   0.254 -0.2978 -0.0668  0.0716
  739SOL    HW1 2216   1.373   2.702   0.314 -0.8635 -3.9550  3.0428
  739SOL    HW2 2217   1.223   2.756   0.276  0.1851 -1.7111  0.8092
  740SOL     OW 2218   1.738   2.787   1.356  0.0820  0.4711 -0.0142
  740SOL    HW1 2219   1.695   2.844   1.431 -1.0993 -1.0285 -0.2310
  740SOL    HW2 2220   1.825   2.742   1.388  1.5436 -0.7504 -0.8037
  741SOL     OW 2221   2.114   0.465   0.696 -0.5313  0.1350  0.5877
  741SOL    HW1 2222   2.202   0.503   0.713 -1.5815 -1.5471  0.9500
  741SOL    HW2 2223   2.100   0.459   0.594  0.6821  0.6479 -1.9725
  742SOL     OW 2224   0.734   2.703   2.270  0.0620  0.1763 -0.4837
  742SOL    HW1 2225   0.649   2.678   2.217  0.3591  0.5337  0.3551
  742SOL    HW2 2226   0.814   2.664   2.225 -2.2838  0.0351 -0.2671
  743SOL     OW 2227   2.195   1.152   1.728 -0.4328  0.1686 -0.2011
  743SOL    HW1 2228   2.233   1.105   1.648 -0.1687  1.2081 -0.2142
  743SOL    HW2 2229   2.095   1.140   1.726  3.0212  0.5731 -1.4033
  744SOL     OW 2230   2.336   0.620   0.775 -0.4106 -0.3245  0.2937
  744SOL    HW1 2231   2.387   0.592   0.864  1.4180 -2.2642  2.5297
  744SOL    HW2 2232   2.386   0.693   0.723 -1.6586  4.2353 -4.6635
  745SOL     OW 2233   2.168   1.358   1.925  0.1816  0.0373  0.0096
  745SOL    HW1 2234   2.246   1.389   1.874  0.4273  1.7820  0.9851
  745SOL    HW2 2235   2.164   1.256   1.916 -0.2726 -1.1369 -0.4957
  746SOL     OW 2236   1.378   1.473   0.582 -0.7667  0.3787  0.0632
  746SOL    HW1 2237   1.468   1.458   0.628 -2.1613 -2.0764 -1.1688
  746SOL    HW2 2238   1.319   1.388   0.586 -1.2906 -1.8879 -0.5328
  747SOL     OW 2239   2.027   1.584   1.261  0.1378 -0.8232 -0.2897
  747SOL    HW1 2240   2.010   1.565   1.163 -1.5591 -1.4548 -0.6033
  747SOL    HW2 2241   2.006   1.506   1.324  0.4825 -2.1835  0.5567
  748SOL     OW 2242   0.160   2.769   0.270 -0.2004 -0.0436 -0.3264
  748SOL    HW1 2243   0.166   2.863   0.308 -0.2170 -0.2645  2.2291
  748SOL    HW2 2244   0.258   2.740   0.254  2.5360 -0.9894  3.5155
  749SOL     OW 2245   0.117   0.747   2.291 -0.5371  0.0144  0.5602
  749SOL    HW1 2246   0.216   0.759   2.268 -0.3730  0.1878 -0.5525
  749SOL    HW2 2247   0.065   0.785   2.216  1.2563 -2.5931  0.7799
  750SOL     OW 2248   1.460   2.974   1.917 -0.1178 -0.6676  0.3436
  750SOL    HW1 2249   1.389   2.970   1.846  0.5540  1.1272 -2.9980
  750SOL    HW2 2250   1.425   2.934   2.007 -2.4775 -0.8814 -0.1480
  751SOL     OW 2251   2.573   0.538   0.428 -0.4362  0.5572 -0.0031
  751SOL    HW1 2252   2.481   0.505   0.391 -1.2195  0.6482  0.1197
  751SOL    HW2 2253   2.598   0.488   0.514  0.0322 -0.0897  4.3109
  752SOL     OW 2254   0.219   2.063   1.015 -0.0254 -0.6693  0.2190
  752SOL    HW1 2255   0.127   2.015   1.016  0.3696  2.3446 -1.2780
  752SOL    HW2 2256   0.212   2.161   0.985  3.2728  0.0033  1.0883
  753SOL     OW 2257   1.193   0.138   1.157 -0.4860  0.0165 -0.6214
  753SOL    HW1 2258   1.191   0.094   1.064  3.8340 -0.3272 -1.2152
  753SOL    HW2 2259   1.100   0.172   1.190 -2.1660 -0.7610  1.5177
  754SOL     OW 2260   0.576   3.014   2.413  0.4134 -0.0475 -0.1283
  754SOL    HW1 2261   0.577   3.088   2.339 -0.0959 -1.0543 -0.6516
  754SOL    HW2 2262   0.668   2.971   2.423 -0.6780  1.9447  2.8325
  755SOL     OW 2263   2.186   0.998   0.311  0.2533 -0.4457 -0.2824
  755SOL    HW1 2264   2.189   0.932   0.390  0.0581 -0.3855 -1.1918
  755SOL    HW2 2265   2.240   0.960   0.238 -0.2522  0.2731  2.4713
  756SOL     OW 2266   2.131   2.048   2.552  0.5726 -0.2892 -0.0830
  756SOL    HW1 2267   2.188   1.971   2.583 -2.3531  1.3375 -3.4092
  756SOL    HW2 2268   2.167   2.132   2.596 -3.3793 -3.8582 -1.3460
  757SOL     OW 2269   1.751   0.353   0.873 -0.0583  0.4735  0.2428
  757SOL    HW1 2270   1.652   0.362   0.884  0.1892 -1.5599 -0.5326
  757SOL    HW2 2271   1.767   0.265   0.823 -4.2435 -1.1966  0.2701
  758SOL     OW 2272   1.739   2.686   0.891 -0.2345 -0.6009 -0.5572
  758SOL    HW1 2273   1.784   2.776   0.891  0.2412 -0.6934  1.4213
  758SOL    HW2 2274   1.753   2.645   0.984  0.0758 -1.2162  3.8930
  759SOL     OW 2275   2.580   0.695   1.257 -0.6326  0.4268 -1.0108
  759SOL    HW1 2276   2.505   0.746   1.305 -1.7276  0.2486 -0.0588
  759SOL    HW2 2277   2.635   0.638   1.323 -1.4977 -0.1125  0.2803
  760SOL     OW 2278   2.426   1.090   1.140  0.0067  0.2091 -0.1429
  760SOL    HW1 2279   2.521   1.072   1.178  0.4828 -2.8057 -0.8514
  760SOL    HW2 2280   2.409   1.022   1.069  1.7180  2.5403  1.1534
  761SOL     OW 2281   0.500   0.462   0.557  0.1931  0.3341  0.5765
  761SOL    HW1 2282   0.481   0.454   0.455  1.6963 -1.5488 -2.1295
  761SOL    HW2 2283   0.495   0.559   0.589 -0.9729 -0.1688 -0.2970
  762SOL     OW 2284   1.747   1.989   1.329 -0.2401  0.3948 -0.1092
  762SOL    HW1 2285   1.843   1.997   1.358 -0.0901  0.3493 -0.4483
  762SOL    HW2 2286   1.685   1.970   1.408 -1.7790  3.2750 -0.1148
  763SOL     OW 2287   1.287   1.353   1.945 -0.2364 -0.0446  0.1932
  763SOL    HW1 2288   1.250   1.426   2.011  3.0428 -0.8246  2.5924
  763SOL    HW2 2289   1.264   1.261   1.976  1.5894 -1.5405 -0.1978
  764SOL     OW 2290   2.979   1.883   2.269  0.0015  0.4458  0.0681
  764SOL    HW1 2291   2.970   1.945   2.185 -0.6788  0.5788 -0.6380
  764SOL    HW2 2292   3.077   1.856   2.290  0.4769  0.2409 -1.2426
  765SOL     OW 2293   1.637   2.451   1.219  0.3310  0.2309  0.0768
  765SOL    HW1 2294   1.684   2.386   1.284 -0.0015 -1.4685  2.6098
  765SOL    HW2 2295   1.669   2.547   1.226 -3.0924 -1.1271 -0.8554
  766SOL     OW 2296   3.104   2.506   2.739  0.3405  0.6365 -0.4905
  766SOL    HW1 2297   3.049   2.586   2.726  0.9111 -2.8682  3.3899
  766SOL    HW2 2298   3.061   2.427   2.700  0.2390  2.1916 -0.1234
  767SOL     OW 2299   1.262   0.697   2.348  0.1395 -0.0795  0.6257
  767SOL    HW1 2300   1.366   0.703   2.330  1.2079  2.6923  1.0509
  767SOL    HW2 2301   1.241   0.626   2.415 -0.9962  2.8153  0.4447
  768SOL     OW 2302   1.213   1.956   0.163 -0.4694  0.5063  0.1935
  768SOL    HW1 2303   1.301   1.997   0.132  0.7147  0.2247  2.2156
  768SOL    HW2 2304   1.217   1.876   0.230  0.9061 -1.7478  3.9454
  769SOL     OW 2305   0.416   2.367   1.068 -0.4534  0.5292 -0.6232
  769SOL    HW1 2306   0.399   2.284   1.126 -0.7717  1.9456  0.2125
  769SOL    HW2 2307   0.429   2.449   1.128  0.7700  2.9283  0.4818
  770SOL     OW 2308   1.690   0.612   0.009 -0.4779 -0.1505  0.2288
  770SOL    HW1 2309   1.740   0.558   3.041 -1.4226 -2.0453  1.1303
  770SOL    HW2 2310   1.679   0.707   3.088 -1.3665 -0.5761 -1.9664
  771SOL     OW 2311   0.210   2.988   2.297 -0.5336 -0.6692 -0.5429
  771SOL    HW1 2312   0.181   2.938   2.382  3.5781  0.4967 -0.0818
  771SOL    HW2 2313   0.190   2.937   2.210  1.0899 -1.5857 -1.2191
  772SOL     OW 2314   2.112   2.899   2.190  0.0982  0.1883  0.0954
  772SOL    HW1 2315   2.210   2.872   2.213  0.0141  2.2052  0.8796
  772SOL    HW2 2316   2.107   2.947   2.100 -1.0757 -0.5281  1.9126
  773SOL     OW 2317   0.923   1.939   1.699 -0.0976  0.8786  0.1229
  773SOL    HW1 2318   1.023   1.928   1.680 -1.3389 -0.5899  2.7138
  773SOL    HW2 2319   0.906   2.000   1.776  0.6735 -1.7855  0.4804
  774SOL     OW 2320   1.144   0.107   2.080  0.4723 -0.5337  0.1195
  774SOL    HW1 2321   1.122   0.130   2.176  1.3818 -0.0616 -3.0960
  774SOL    HW2 2322   1.189   0.189   2.038  1.2986  0.1123  1.5256
  775SOL     OW 2323   2.082   2.944   3.039  0.3951  0.2231  0.2044
  775SOL    HW1 2324   2.099   2.841   3.040 -0.9290  0.1760  0.6841
  775SOL    HW2 2325   1.981   2.965   3.026 -3.0189  2.0806 -0.7100
  776SOL     OW 2326   2.626   0.824   2.237 -0.6366  0.0456 -0.4994
  776SOL    HW1 2327   2.724   0.807   2.252  1.0494  2.0907  1.9723
  776SOL    HW2 2328   2.608   0.891   2.164  0.9149 -3.2961 -0.1321
  777SOL     OW 2329   2.525   2.291   2.103  0.1800 -0.3634 -0.5431
  777SOL    HW1 2330   2.498   2.252   2.195 -0.9170 -1.3229  1.4379
  777SOL    HW2 2331   2.625   2.312   2.100  4.3031  1.6027 -1.2707
  778SOL     OW 2332   2.014   0.897   2.701 -0.1743  0.0758 -0.4508
  778SOL    HW1 2333   2.096   0.948   2.740  0.4523  1.5362 -1.8543
  778SOL    HW2 2334   2.036   0.861   2.606 -0.5189 -1.6162  0.3777
  779SOL     OW 2335   2.985   0.253   0.228  0.9748  0.5869 -0.0372
  779SOL    HW1 2336   2.967   0.333   0.288  1.4361  2.5901  1.3197
  779SOL    HW2 2337   2.903   0.188   0.239  1.3970 -1.2834 -1.6821
  780SOL     OW 2338   2.413   0.513   3.068  0.5781  1.1352  0.3237
  780SOL    HW1 2339   2.473   0.443   0.007  0.3276 -1.9512  0.8208
  780SOL    HW2 2340   2.406   0.594   0.017  3.8853  0.4895 -0.4441
  781SOL     OW 2341   0.358   2.893   1.279  0.9191 -0.6962  0.4820
  781SOL    HW1 2342   0.440   2.949   1.267 -0.1275 -0.9406 -3.3103
  781SOL    HW2 2343   0.322   2.854   1.191 -2.2086  0.4510 -1.2997
  782SOL     OW 2344   2.073   2.497   0.534  0.1659  0.3796  0.1570
  782SOL    HW1 2345   2.068   2.558   0.452 -0.8496 -1.9687 -0.7471
  782SOL    HW2 2346   1.995   2.492   0.603 -0.3090 -0.6183  1.3686
  783SOL     OW 2347   0.693   1.346   1.463  0.0165 -0.0490 -0.1075
  783SOL    HW1 2348   0.719   1.443   1.440  0.9361 -0.1825  0.5634
  783SOL    HW2 2349   0.759   1.267   1.431  3.6477 -2.2858 -0.0286
  784SOL     OW 2350   1.385   0.609   2.688 -0.8963  0.1278  0.4566
  784SOL    HW1 2351   1.303   0.576   2.631 -1.6728  0.2082  0.6217
  784SOL    HW2 2352   1.425   0.694   2.648 -1.6363 -0.0282 -0.5001
  785SOL     OW 2353   2.399   0.382   1.212 -0.5201 -0.6540 -0.6049
  785SOL    HW1 2354   2.405   0.458   1.278 -2.3986  1.6002  0.2492
  785SOL    HW2 2355   2.303   0.354   1.195 -1.5157 -2.8583 -1.3966
  786SOL     OW 2356   1.252   2.658   2.024  0.1161 -0.0549  0.6982
  786SOL    HW1 2357   1.342   2.639   1.978  0.3770 -0.6403 -1.8898
  786SOL    HW2 2358   1.223   2.576   2.070 -1.7613  1.9427  1.0062
  787SOL     OW 2359   1.820   0.140   1.196  0.1733 -0.1982 -0.9213
  787SOL    HW1 2360   1.786   0.154   1.297 -3.1183  0.8620  2.8688
  787SOL    HW2 2361   1.859   0.226   1.157 -1.6186  0.6541 -1.3900
  788SOL     OW 2362   0.261   0.852   0.316  0.3924 -0.7640 -0.9791
  788SOL    HW1 2363   0.211   0.877   0.401 -4.7323 -0.5035 -2.5933
  788SOL    HW2 2364   0.350   0.903   0.313  0.0830  0.8113  1.4856
  789SOL     OW 2365   0.733   2.046   1.501 -0.4574  1.0280 -0.0386
  789SOL    HW1 2366   0.822   2.002   1.519 -0.6932  0.6016  0.0046
  789SOL    HW2 2367   0.674   2.040   1.578 -0.8650  1.9404 -2.4447
  790SOL     OW 2368   0.522   0.659   2.399  0.3138  0.2851 -0.2417
  790SOL    HW1 2369   0.545   0.682   2.495 -1.3782 -1.4756 -0.1589
  790SOL    HW2 2370   0.449   0.721   2.365 -2.8310  0.8350  1.8792
  791SOL     OW 2371   1.925   0.643   0.796  0.3901  0.0513 -0.1594
  791SOL    HW1 2372   1.994   0.575   0.772 -0.7772 -0.1358 -2.8559
  791SOL    HW2 2373   1.893   0.697   0.717  0.2509  0.9122  1.5124
  792SOL     OW 2374   1.035   2.760   1.900  0.2356 -0.2216  0.4754
  792SOL    HW1 2375   1.010   2.843   1.956  0.8589  2.4165 -2.4641
  792SOL    HW2 2376   1.118   2.715   1.945  1.2045 -0.7069  0.3253
  793SOL     OW 2377   0.504   0.110   0.505  0.7478 -0.1984  0.2325
  793SOL    HW1 2378   0.433   0.035   0.504 -2.1452 -1.0196 -1.8017
  793SOL    HW2 2379   0.594   0.075   0.528 -0.9633  3.3397  0.9013
  794SOL     OW 2380   0.268   1.403   1.778 -0.0615 -0.3434 -0.0707
  794SOL    HW1 2381   0.200   1.390   1.854  2.5988  1.1163 -2.2723
  794SOL    HW2 2382   0.230   1.452   1.692  0.6811  1.7864 -3.5640
  795SOL     OW 2383   0.326   2.300   2.078 -0.5297 -0.2569  0.5491
  795SOL    HW1 2384   0.257   2.353   2.125  1.6379 -1.1340 -1.6554
  795SOL    HW2 2385   0.364   2.231   2.139 -1.8445 -0.5673 -0.4829
  796SOL     OW 2386   2.277   0.443   1.956  0.0686 -0.1595  0.1065
  796SOL    HW1 2387   2.359   0.378   1.964  1.4191 -2.2863  0.9303
  796SOL    HW2 2388   2.300   0.527   1.894  2.9751  0.8850 -0.7238
  797SOL     OW 2389   2.559   2.587   2.683  0.0023  0.2488  0.1021
  797SOL    HW1 2390   2.524   2.680   2.654  1.6088  1.7823  0.7983
  797SOL    HW2 2391   2.655   2.563   2.653  4.1199  2.2962 -1.0163
  798SOL     OW 2392   2.987   3.057   2.275  0.5393  0.7330 -0.7999
  798SOL    HW1 2393   2.920   3.101   2.338  1.3265  0.4695 -0.3487
  798SOL    HW2 2394   3.067   0.014   2.257  1.3817 -3.5977  0.8948
  799SOL     OW 2395   0.150   2.690   2.264 -0.5546  0.2930  0.1480
  799SOL    HW1 2396   0.243   2.730   2.259  1.2091  0.4697 -1.3015
  799SOL    HW2 2397   0.146   2.589   2.263  1.4182  1.2291 -1.0748
  800SOL     OW 2398   3.028   1.981   2.771  0.0899  0.6544  0.3267
  800SOL    HW1 2399   2.954   2.043   2.800  0.1665 -1.1266 -0.0495
  800SOL    HW2 2400   3.105   1.975   2.837 -1.4799  0.1861 -2.5711
  801SOL     OW 2401   1.536   1.269   1.406 -0.2376 -0.0592 -0.2823
  801SOL    HW1 2402   1.578   1.173   1.407  0.4602 -0.1793  1.5286
  801SOL    HW2 2403   1.446   1.270   1.449 -1.9248 -2.2287 -0.8896
  802SOL     OW 2404   0.212   1.511   0.527  0.1604 -0.5811 -0.2885
  802SOL    HW1 2405   0.194   1.525   0.626  0.1003  3.1514 -2.6737
  802SOL    HW2 2406   0.307   1.491   0.505 -1.1238 -1.7654  1.4988
  803SOL     OW 2407   1.216   1.805   1.925  0.0149  0.3247 -0.1942
  803SOL    HW1 2408   1.218   1.846   1.830  0.2084  1.8730  0.1621
  803SOL    HW2 2409   1.166   1.858   1.991  2.0809 -1.5755  0.5547
  804SOL     OW 2410   2.006   1.522   1.016  0.1520  0.9083 -0.2853
  804SOL    HW1 2411   2.105   1.527   0.987 -1.5949  1.0589 -0.3315
  804SOL    HW2 2412   1.953   1.586   0.962 -0.5455 -0.6292  2.1999
  805SOL     OW 2413   2.937   1.282   3.018 -0.1761 -0.0948 -0.3791
  805SOL    HW1 2414   2.888   1.313   2.935  0.0802  1.2783  1.9473
  805SOL    HW2 2415   3.032   1.252   3.000  3.1719  1.5632  0.7299
  806SOL     OW 2416   0.521   2.492   0.310  0.0367  0.1813 -0.2373
  806SOL    HW1 2417   0.618   2.496   0.274 -0.8544 -2.4523  1.9222
  806SOL    HW2 2418   0.458   2.559   0.265 -0.8834  1.3314  0.6812
  807SOL     OW 2419   2.429   1.556   2.890 -0.2704  0.2923  0.3189
  807SOL    HW1 2420   2.427   1.477   2.962  1.4049 -0.8856  1.6562
  807SOL    HW2 2421   2.340   1.604   2.882 -1.2444 -2.2038 -2.0693
  808SOL     OW 2422   1.249   1.821   1.251 -0.1760  0.4984 -0.0075
  808SOL    HW1 2423   1.161   1.859   1.281  1.7314 -1.0346  0.9057
  808SOL    HW2 2424   1.327   1.885   1.265  1.0225  1.8808 -1.3521
  809SOL     OW 2425   2.805   0.633   0.486 -0.6361  0.1396  0.8752
  809SOL    HW1 2426   2.827   0.634   0.587  2.4963 -2.1184 -3.9469
  809SOL    HW2 2427   2.709   0.609   0.472  1.9284 -0.5930  0.7561
  810SOL     OW 2428   0.748   1.463   0.625 -0.6196  0.0713 -0.0459
  810SOL    HW1 2429   0.777   1.494   0.717  0.6414 -2.8181  0.1147
  810SOL    HW2 2430   0.802   1.503   0.553  1.0278  0.3639  1.2137
  811SOL     OW 2431   1.918   2.576   1.432  0.0542  0.3007 -0.4591
  811SOL    HW1 2432   1.926   2.489   1.385 -2.1337  0.0728  0.2921
  811SOL    HW2 2433   1.997   2.595   1.489 -0.8401 -0.3797 -2.1099
  812SOL     OW 2434   1.364   2.636   1.454  0.5146 -0.0176  0.7398
  812SOL    HW1 2435   1.357   2.584   1.368 -0.0860  0.5554  1.3445
  812SOL    HW2 2436   1.297   2.711   1.462  1.7099  0.6204 -0.2885
  813SOL     OW 2437   0.751   3.003   1.483  0.6601 -0.3526  0.3800
  813SOL    HW1 2438   0.746   2.903   1.489  2.2937  0.7555 -0.1279
  813SOL    HW2 2439   0.809   3.027   1.399  1.0938  0.3253 -0.8677
  814SOL     OW 2440   0.836   2.900   2.422  0.2455  0.1368  0.5868
  814SOL    HW1 2441   0.931   2.905   2.384 -2.1717  1.0108  0.9312
  814SOL    HW2 2442   0.789   2.816   2.380 -0.5002 -0.0305 -0.3674
  815SOL     OW 2443   0.690   0.139   2.741  0.2664  0.1764 -0.0901
  815SOL    HW1 2444   0.593   0.108   2.739  2.1578 -1.0871  1.0523
  815SOL    HW2 2445   0.696   0.232   2.699 -0.4056 -1.8866 -1.2225
  816SOL     OW 2446   2.412   0.434   2.820  0.0168  0.0377 -0.1992
  816SOL    HW1 2447   2.415   0.461   2.921 -0.6976  2.4192  2.9116
  816SOL    HW2 2448   2.327   0.478   2.783 -1.1665 -3.1628  1.1649
  817SOL     OW 2449   2.236   2.861   1.785  0.7209 -0.2815  0.1866
  817SOL    HW1 2450   2.316   2.921   1.794 -1.4348 -0.2077 -1.2154
  817SOL    HW2 2451   2.246   2.778   1.840  1.3955  2.4790  0.4229
  818SOL     OW 2452   1.111   0.733   0.241 -0.6143 -0.6501  0.1081
  818SOL    HW1 2453   1.030   0.789   0.226  2.7667  2.2942  1.2775
  818SOL    HW2 2454   1.104   0.668   0.319 -0.1180 -1.1860 -0.1057
  819SOL     OW 2455   2.010   1.612   2.843  0.0809  0.0819 -0.3077
  819SOL    HW1 2456   2.089   1.657   2.887 -0.3007  1.1549 -0.9694
  819SOL    HW2 2457   1.963   1.679   2.789  1.4313  1.4209  0.6944
  820SOL     OW 2458   0.053   1.504   2.456 -0.3780 -0.4512  0.7110
  820SOL    HW1 2459   0.057   1.399   2.457 -0.6788 -0.2068  0.4236
  820SOL    HW2 2460   0.131   1.539   2.398  2.2155 -0.7256 -2.4030
  821SOL     OW 2461   0.119   2.729   0.675 -0.0079 -0.1509  0.0477
  821SOL    HW1 2462   0.176   2.800   0.633  3.5991 -1.3595 -1.9622
  821SOL    HW2 2463   0.116   2.731   0.776  1.2222  1.2440  1.2755
  822SOL     OW 2464   2.244   2.608   2.778 -0.3270  0.1108  0.3721
  822SOL    HW1 2465   2.260   2.638   2.681  0.6984 -1.5456 -1.2115
  822SOL    HW2 2466   2.329   2.566   2.813 -0.5221  0.3134 -0.6092
  823SOL     OW 2467   1.405   3.102   2.271 -0.2663  0.4588  0.0447
  823SOL    HW1 2468   1.469   0.057   2.223  0.8770 -2.3926  2.0066
  823SOL    HW2 2469   1.372   3.026   2.212  0.5963 -0.0949  0.9152
  824SOL     OW 2470   2.716   2.475   2.312  0.2420 -0.0417  0.5654
  824SOL    HW1 2471   2.698   2.562   2.266  2.3625 -1.0961  0.3747
  824SOL    HW2 2472   2.730   2.482   2.412  1.2464  1.5196  0.0342
  825SOL     OW 2473   2.820   2.204   2.432 -0.7489 -0.0380  0.4338
  825SOL    HW1 2474   2.736   2.149   2.453  2.3099  0.7585 -1.3470
  825SOL    HW2 2475   2.827   2.230   2.334  0.0961  0.6134  0.9079
  826SOL     OW 2476   2.168   0.442   2.465 -0.6331 -0.0635 -0.7510
  826SOL    HW1 2477   2.235   0.510   2.432 -0.6896 -0.9421  1.8186
  826SOL    HW2 2478   2.180   0.426   2.565 -1.8972  2.1419  0.1598
  827SOL     OW 2479   2.784   2.110   1.515  0.0317  0.0330 -0.2649
  827SOL    HW1 2480   2.702   2.132   1.562  1.1378 -2.0208  0.0325
  827SOL    HW2 2481   2.763   2.072   1.424 -0.9985 -0.0670 -2.5027
  828SOL     OW 2482   2.836   0.261   1.679  0.5413  0.2954 -0.5587
  828SOL    HW1 2483   2.917   0.212   1.717 -1.9197 -1.1730 -0.2343
  828SOL    HW2 2484   2.860   0.352   1.639 -0.0063 -1.0945  0.3660
  829SOL     OW 2485   0.886   1.824   2.628  0.0791 -0.5035  0.2161
  829SOL    HW1 2486   0.807   1.837   2.685  3.2063  0.8013  0.0452
  829SOL    HW2 2487   0.862   1.813   2.526 -1.2266  1.5372 -1.3111
  830SOL     OW 2488   0.889   0.969   1.090  0.1449  0.1199  0.2541
  830SOL    HW1 2489   0.920   1.000   1.181 -0.9257  2.6610  0.5448
  830SOL    HW2 2490   0.947   1.007   1.016  0.7387 -1.8713 -0.4061
  831SOL     OW 2491   2.873   1.774   2.730 -0.4953  0.0516 -0.4884
  831SOL    HW1 2492   2.928   1.856   2.754  0.8432  1.4078 -1.1010
  831SOL    HW2 2493   2.814   1.751   2.817 -3.8135  1.2749  5.6565
  832SOL     OW 2494   1.813   2.479   2.437 -0.4111 -0.0735  0.4122
  832SOL    HW1 2495   1.826   2.484   2.334  0.4717  0.9404 -2.7193
  832SOL    HW2 2496   1.771   2.565   2.472  2.5499 -3.0117  1.0267
  833SOL     OW 2497   0.755   0.402   1.900 -0.2817  0.2229  0.1729
  833SOL    HW1 2498   0.798   0.468   1.834 -2.1040 -0.9807 -0.4695
  833SOL    HW2 2499   0.782   0.417   1.993  0.3095 -2.5433 -2.7079
  834SOL     OW 2500   0.047   0.415   1.468 -0.3491  0.4123 -0.0283
  834SOL    HW1 2501   3.077   0.473   1.439 -0.8679  1.4042  0.5272
  834SOL    HW2 2502   0.087   0.451   1.549  0.4448 -2.1616 -0.7922
  835SOL     OW 2503   2.720   0.532   0.138  0.0294 -0.6029 -0.2053
  835SOL    HW1 2504   2.670   0.563   0.221  1.7614  0.6384  1.2080
  835SOL    HW2 2505   2.816   0.570   0.137  0.4036 -0.4553 -0.1152
  836SOL     OW 2506   1.551   1.869   0.224  0.0933  0.1292 -0.0319
  836SOL    HW1 2507   1.498   1.947   0.183 -3.6131  1.0418  1.7674
  836SOL    HW2 2508   1.538   1.863   0.324  0.8564 -1.8759 -1.1001
  837SOL     OW 2509   1.949   1.679   0.717  0.0963 -0.2546  0.0658
  837SOL    HW1 2510   2.020   1.641   0.659  0.9753  2.9628  1.4594
  837SOL    HW2 2511   1.939   1.778   0.683 -0.8120 -0.9977 -3.5246
  838SOL     OW 2512   1.542   0.751   2.358 -0.4982 -0.1065  0.5183
  838SOL    HW1 2513   1.532   0.769   2.457 -1.1192  0.9208  0.3330
  838SOL    HW2 2514   1.641   0.758   2.328  2.9009  2.4736  0.5845
  839SOL     OW 2515   0.763   1.415   2.216 -0.5202 -0.4803 -0.2128
  839SOL    HW1 2516   0.663   1.402   2.234 -1.3444 -0.4154 -1.9608
  839SOL    HW2 2517   0.819   1.345   2.268  1.6433  0.3187  2.4720
  840SOL     OW 2518   1.238   1.700   0.565 -0.0066  0.3237  0.7459
  840SOL    HW1 2519   1.247   1.781   0.632  1.1488 -0.9301  2.0317
  840SOL    HW2 2520   1.294   1.619   0.593 -4.4582 -0.3177 -0.6920
  841SOL     OW 2521   1.493   2.255   0.663  0.0817 -0.0098  0.4434
  841SOL    HW1 2522   1.588   2.238   0.680 -0.1926 -0.1808 -0.8604
  841SOL    HW2 2523   1.470   2.346   0.698  1.1608  0.6688 -0.4538
  842SOL     OW 2524   0.286   0.409   0.298 -0.0723 -0.5551 -0.6001
  842SOL    HW1 2525   0.372   0.354   0.311 -1.0683 -2.8446  0.3659
  842SOL    HW2 2526   0.288   0.454   0.210  1.0633 -3.1298  1.1108
  843SOL     OW 2527   0.748   0.323   0.573 -0.1482 -0.2154 -0.4114
  843SOL    HW1 2528   0.648   0.338   0.589 -1.7400 -1.0836 -0.0385
  843SOL    HW2 2529   0.805   0.412   0.570  1.1332  0.9172 -0.0908
  844SOL     OW 2530   2.695   0.181   2.938  0.1285 -0.0065 -0.4081
  844SOL    HW1 2531   2.680   0.204   2.839 -0.6956  1.1376  3.1844
  844SOL    HW2 2532   2.699   0.082   2.960 -0.4694  0.8881 -0.6482
  845SOL     OW 2533   2.952   2.574   1.664 -0.0613  0.6467  0.0609
  845SOL    HW1 2534   2.933   2.579   1.764  3.6590 -2.1628  0.9090
  845SOL    HW2 2535   2.954   2.482   1.621  0.6668 -1.2323 -1.4637
  846SOL     OW 2536   2.504   1.560   2.271 -0.2354  0.2618  0.1805
  846SOL    HW1 2537   2.580   1.499   2.240  1.1907 -0.7717  0.9450
  846SOL    HW2 2538   2.516   1.656   2.236 -2.9130 -0.4436 -0.4519
  847SOL     OW 2539   1.077   0.742   1.939 -0.0694 -0.2722 -0.2310
  847SOL    HW1 2540   1.079   0.641   1.949  2.5594  0.7392 -1.2382
  847SOL    HW2 2541   1.071   0.765   1.841  0.6193  0.0750  0.5720
  848SOL     OW 2542   2.526   3.092   2.749  0.5229  0.7519 -0.3347
  848SOL    HW1 2543   2.559   3.054   2.838 -1.8482 -1.3531  1.8585
  848SOL    HW2 2544   2.456   0.055   2.770 -2.2089  2.2750  0.8334
  849SOL     OW 2545   0.247   2.802   3.072 -0.2448 -0.0351  0.0657
  849SOL    HW1 2546   0.207   2.895   3.072  1.5552  0.4304  2.9083
  849SOL    HW2 2547   0.177   2.734   3.030  0.7248  1.5440  0.6269
  850SOL     OW 2548   1.188   2.673   0.947  0.0002 -0.4476 -0.2472
  850SOL    HW1 2549   1.284   2.691   0.975 -1.2055  4.8466 -0.4127
  850SOL    HW2 2550   1.184   2.619   0.862 -0.5768 -1.4686  1.7317
  851SOL     OW 2551   2.318   0.632   2.355 -0.1160  0.5798  0.1493
  851SOL    HW1 2552   2.395   0.560   2.340  1.8809 -1.7356  2.6289
  851SOL    HW2 2553   2.261   0.638   2.271 -1.3677  1.2166 -3.2012
  852SOL     OW 2554   1.249   0.259   2.561 -0.6247  0.0437  0.4322
  852SOL    HW1 2555   1.311   0.175   2.558 -0.9472 -1.6099 -1.5205
  852SOL    HW2 2556   1.195   0.253   2.651  1.1738  1.4019  1.3269
  853SOL     OW 2557   0.009   2.556   0.269  0.0948 -0.7408 -0.1572
  853SOL    HW1 2558   3.079   2.580   0.362  1.4188  0.6573 -0.3797
  853SOL    HW2 2559   0.094   2.616   0.257  0.9904  0.9908  1.9582
  854SOL     OW 2560   2.091   0.775   2.473  0.0177  0.0057  0.4220
  854SOL    HW1 2561   2.182   0.808   2.430  2.6997  0.8374 -0.4796
  854SOL    HW2 2562   2.090   0.678   2.463 -0.7617  5.9108 -1.5207
  855SOL     OW 2563   0.766   2.563   0.201  0.0129  0.2717  0.6099
  855SOL    HW1 2564   0.769   2.616   0.286  4.0370 -0.7685 -3.6603
  855SOL    HW2 2565   0.843   2.594   0.141  2.3148 -0.3540  0.4002
  856SOL     OW 2566   2.981   3.071   2.714 -0.5605  0.3431  0.2983
  856SOL    HW1 2567   3.078   3.049   2.708  0.6554  0.2328 -1.6865
  856SOL    HW2 2568   2.958   0.033   2.786 -0.2867 -0.8882  1.2394
  857SOL     OW 2569   1.151   2.873   1.412 -0.4887  0.4434 -0.2225
  857SOL    HW1 2570   1.112   2.964   1.441  2.3387  2.0789  0.9697
  857SOL    HW2 2571   1.100   2.833   1.327 -1.7157  1.9352 -0.7217
  858SOL     OW 2572   2.583   2.151   1.708  0.3770  0.1511  0.7200
  858SOL    HW1 2573   2.517   2.228   1.723 -0.2759  0.7931  0.8305
  858SOL    HW2 2574   2.526   2.075   1.672  0.1611 -0.7973 -1.6274
  859SOL     OW 2575   1.948   2.244   1.919 -0.1795  0.1037  0.0759
  859SOL    HW1 2576   2.030   2.186   1.943 -1.4157 -1.5917 -0.6532
  859SOL    HW2 2577   1.861   2.201   1.944 -0.9954 -0.2082 -2.3188
  860SOL     OW 2578   1.883   0.064   0.375 -0.1887  0.4821 -0.1906
  860SOL    HW1 2579   1.915   0.126   0.306 -0.1768  0.4840  1.5375
  860SOL    HW2 2580   1.819   0.111   0.442 -0.6450 -0.1127 -0.7415
  861SOL     OW 2581   2.590   0.378   0.652 -0.0890  0.6264  0.3114
  861SOL    HW1 2582   2.672   0.318   0.656 -0.4109  0.7474 -1.0808
  861SOL    HW2 2583   2.507   0.325   0.680 -2.1923 -1.8710 -0.6186
  862SOL     OW 2584   0.833   2.688   2.697  0.1170 -0.5351 -0.1553
  862SOL    HW1 2585   0.883   2.743   2.771  0.0315  2.7366  2.0299
  862SOL    HW2 2586   0.901   2.669   2.624  1.0510  0.5655  2.1675
  863SOL     OW 2587   0.685   0.681   1.233  0.2046  0.4995  0.0827
  863SOL    HW1 2588   0.779   0.694   1.200 -0.0014  0.1088  0.4664
  863SOL    HW2 2589   0.632   0.647   1.155 -2.1646  0.9414  4.4596
  864SOL     OW 2590   3.045   0.123   1.757 -0.2638 -0.1169 -0.2001
  864SOL    HW1 2591   0.027   0.143   1.705 -0.1912  1.2804 -1.3427
  864SOL    HW2 2592   3.036   0.043   1.817 -1.5851  0.6720  1.7428
  865SOL     OW 2593   0.515   1.279   2.817 -0.7425 -0.2329 -0.2310
  865SOL    HW1 2594   0.615   1.252   2.816 -1.3743  0.6427 -0.5176
  865SOL    HW2 2595   0.499   1.357   2.880 -0.9954 -0.0277 -0.3996
  866SOL     OW 2596   3.003   0.233   3.070  0.3963 -0.4406 -0.2595
  866SOL    HW1 2597   3.064   0.303   3.031  0.0446 -0.7845  0.9740
  866SOL    HW2 2598   2.998   0.248   0.066  1.6886  0.2366  0.6808
  867SOL     OW 2599   2.656   2.999   3.000  0.0314  0.1764  0.0674
  867SOL    HW1 2600   2.610   2.973   3.087 -0.3492 -0.9993  1.1852
  867SOL    HW2 2601   2.719   2.929   2.966 -1.5487 -0.2018 -1.1010
  868SOL     OW 2602   1.370   0.827   0.230 -0.2088 -0.3338 -0.1030
  868SOL    HW1 2603   1.277   0.782   0.233  1.1773  0.8461  0.1881
  868SOL    HW2 2604   1.436   0.792   0.294 -1.5730  1.0795 -2.9802
  869SOL     OW 2605   2.671   1.345   0.630 -0.0481 -1.1327 -0.1854
  869SOL    HW1 2606   2.659   1.446   0.621 -1.4907  1.9395  0.4104
  869SOL    HW2 2607   2.762   1.316   0.668  0.9341  0.2645 -2.8567
  870SOL     OW 2608   2.490   1.559   0.574  0.1793 -0.4452 -0.3477
  870SOL    HW1 2609   2.455   1.550   0.474 -1.1722  0.4116  0.8235
  870SOL    HW2 2610   2.437   1.497   0.636 -0.1364  0.4110  0.2126
  871SOL     OW 2611   1.234   1.223   0.633 -0.4037 -0.3395  0.5960
  871SOL    HW1 2612   1.229   1.129   0.594  0.4928 -0.9777 -0.7786
  871SOL    HW2 2613   1.146   1.271   0.638  3.7945 -1.4199 -3.5813
  872SOL     OW 2614   1.396   1.745   1.622 -0.2364 -0.1504 -0.3947
  872SOL    HW1 2615   1.390   1.668   1.688 -0.9268  1.7133  0.1584
  872SOL    HW2 2616   1.398   1.704   1.528 -0.4783  2.0320  0.8483
  873SOL     OW 2617   0.836   1.771   2.375 -0.2327  0.4559  0.2910
  873SOL    HW1 2618   0.862   1.825   2.292  2.5141 -1.4860  0.4622
  873SOL    HW2 2619   0.892   1.687   2.379  0.3134  2.0914 -1.3049
  874SOL     OW 2620   0.911   1.932   1.121  0.2173 -0.0689  0.2508
  874SOL    HW1 2621   0.981   2.001   1.100 -0.4695  0.1644  3.5077
  874SOL    HW2 2622   0.926   1.890   1.209 -0.7308  1.3131  0.0111
  875SOL     OW 2623   2.139   0.337   1.153 -0.0414 -0.0663  0.6747
  875SOL    HW1 2624   2.123   0.264   1.223  0.5250  0.0937  1.0267
  875SOL    HW2 2625   2.056   0.397   1.146 -0.8933 -1.1116  0.8351
  876SOL     OW 2626   0.814   0.599   0.326 -0.1904 -0.3209  0.2925
  876SOL    HW1 2627   0.838   0.596   0.427  1.7886 -0.8820  1.5437
  876SOL    HW2 2628   0.847   0.512   0.279 -0.8597  1.6652  0.2490
  877SOL     OW 2629   2.917   0.533   1.462 -0.2816  0.2728  0.4113
  877SOL    HW1 2630   2.857   0.476   1.401  1.4357  1.5306 -2.3910
  877SOL    HW2 2631   2.908   0.633   1.440  1.7639  1.4436 -0.4317
  878SOL     OW 2632   1.860   2.173   0.296 -0.3951  0.2369 -0.3626
  878SOL    HW1 2633   1.888   2.256   0.240  2.1898  0.4153 -1.9485
  878SOL    HW2 2634   1.831   2.097   0.237 -0.1226  0.1653  0.4583
  879SOL     OW 2635   2.678   1.715   1.378 -0.1872 -0.1683 -0.6999
  879SOL    HW1 2636   2.577   1.739   1.367 -1.6844  1.0359  0.4547
  879SOL    HW2 2637   2.696   1.660   1.459  0.4131 -3.2053 -0.0010
  880SOL     OW 2638   1.412   2.953   1.377 -0.1781 -0.2956 -0.2989
  880SOL    HW1 2639   1.462   2.892   1.313  0.0608 -3.3606  0.8802
  880SOL    HW2 2640   1.322   2.917   1.415 -0.7947 -0.7902  2.8504
  881SOL     OW 2641   1.024   2.113   0.080  0.4839  0.1856 -0.1618
  881SOL    HW1 2642   0.996   2.192   0.134  0.0260 -1.1609 -2.3085
  881SOL    HW2 2643   1.096   2.051   0.112 -1.3728 -1.2666 -0.2309
  882SOL     OW 2644   1.964   0.740   1.984  0.4501 -0.1342 -0.0383
  882SOL    HW1 2645   1.931   0.697   1.896 -0.2424 -0.1387  0.4489
  882SOL    HW2 2646   1.923   0.833   1.993  0.7310  0.6873  0.1893
  883SOL     OW 2647   1.081   0.169   2.338 -0.3199 -0.8961  0.1334
  883SOL    HW1 2648   1.154   0.223   2.383  0.9487 -0.1040 -1.4665
  883SOL    HW2 2649   0.984   0.197   2.358 -2.5643  1.9285 -1.2628
  884SOL     OW 2650   2.731   0.136   0.257 -0.4058  0.4998 -0.3651
  884SOL    HW1 2651   2.652   0.103   0.313 -2.1507  2.0807  1.4390
  884SOL    HW2 2652   2.693   0.200   0.185 -0.4480 -0.8659  2.0341
  885SOL     OW 2653   0.701   1.535   3.036  0.3346 -0.0940  0.4076
  885SOL    HW1 2654   0.744   1.567   2.951 -1.8398  0.1047  0.3880
  885SOL    HW2 2655   0.606   1.529   3.016  1.8236  0.7195  0.7848
  886SOL     OW 2656   1.915   1.323   2.848  0.0892 -0.3471  0.3939
  886SOL    HW1 2657   1.938   1.312   2.749 -1.9354  0.0499 -1.2131
  886SOL    HW2 2658   1.914   1.421   2.873  0.3065  2.4499  0.8944
  887SOL     OW 2659   1.431   0.506   1.751 -0.1683 -0.1476 -0.0041
  887SOL    HW1 2660   1.492   0.427   1.734 -0.1176 -0.8364 -0.4216
  887SOL    HW2 2661   1.472   0.575   1.814  1.7368 -0.0221 -2.4805
  888SOL     OW 2662   2.858   0.572   1.937 -0.0155  1.2143  0.6011
  888SOL    HW1 2663   2.819   0.668   1.946  1.8485 -2.1408  2.0514
  888SOL    HW2 2664   2.921   0.564   1.859 -0.5867  2.7567 -0.2806
  889SOL     OW 2665   3.036   2.630   0.517 -0.1369  0.2024  0.1851
  889SOL    HW1 2666   2.945   2.669   0.555 -3.0222 -0.7640 -0.7198
  889SOL    HW2 2667   0.006   2.667   0.575 -0.2187  1.7885 -1.5394
  890SOL     OW 2668   2.711   2.544   0.001 -0.0003 -0.1329 -0.1401
  890SOL    HW1 2669   2.720   2.489   0.088  1.5234  1.5308  0.2372
  890SOL    HW2 2670   2.789   2.599   3.087 -1.9876  1.0260  0.0055
  891SOL     OW 2671   0.845   1.629   2.833 -0.3970 -0.0934  0.1437
  891SOL    HW1 2672   0.937   1.599   2.872 -0.2203  0.3813  1.2168
  891SOL    HW2 2673   0.851   1.665   2.736 -1.8012  0.3304  0.6452
  892SOL     OW 2674   2.955   2.926   0.951 -0.2758  0.4143 -0.5107
  892SOL    HW1 2675   2.940   2.949   0.854 -1.2097 -0.7248  2.3785
  892SOL    HW2 2676   2.981   3.007   1.011  0.5834  2.0010  0.4482
  893SOL     OW 2677   1.005   2.990   1.031  0.7014  0.2326  0.0106
  893SOL    HW1 2678   0.962   2.913   0.980  1.0855  2.8600 -2.3959
  893SOL    HW2 2679   1.041   3.060   0.967  1.0546 -2.8269 -1.5513
  894SOL     OW 2680   3.037   1.340   0.682  0.0899  0.1517  0.2721
  894SOL    HW1 2681   3.078   1.418   0.734 -1.1953 -0.2629  1.2712
  894SOL    HW2 2682   3.064   1.349   0.584 -0.3712  0.3361  1.0360
  895SOL     OW 2683   2.612   2.758   1.706  0.5598 -0.3341  0.0267
  895SOL    HW1 2684   2.545   2.819   1.746  3.9246  1.8079  1.0128
  895SOL    HW2 2685   2.649   2.806   1.621 -0.9859 -0.8871  0.1562
  896SOL     OW 2686   1.017   3.052   1.590  0.3931  0.0557 -0.0489
  896SOL    HW1 2687   0.922   3.059   1.633  0.6791  0.8671  1.0868
  896SOL    HW2 2688   1.087   3.074   1.656 -2.5327 -1.0070 -0.5220
  897SOL     OW 2689   0.786   1.543   1.841  0.1405 -0.5882 -0.1003
  897SOL    HW1 2690   0.804   1.593   1.753  1.6255  1.0390  0.0155
  897SOL    HW2 2691   0.748   1.610   1.909 -3.3435  1.7810 -1.8611
  898SOL     OW 2692   1.472   2.601   1.897 -0.1215 -0.4633 -0.4838
  898SOL    HW1 2693   1.549   2.675   1.885  1.3199  0.5833 -0.8943
  898SOL    HW2 2694   1.466   2.540   1.812  0.3895  1.0992 -0.1843
  899SOL     OW 2695   0.890   0.554   0.584  0.1504  0.3502  0.5846
  899SOL    HW1 2696   0.916   0.587   0.676 -0.7980  0.5706 -0.7824
  899SOL    HW2 2697   0.973   0.559   0.521  2.4376 -2.3685 -1.7066
  900SOL     OW 2698   1.583   2.410   2.070 -0.4622 -0.5154  0.1115
  900SOL    HW1 2699   1.540   2.470   2.000  1.2451  0.2682 -0.0992
  900SOL    HW2 2700   1.535   2.427   2.155  2.2772  1.0420  0.3662
  901SOL     OW 2701   0.918   2.294   2.711 -0.1762 -1.0775 -0.0784
  901SOL    HW1 2702   0.992   2.360   2.690 -2.1891  0.6331  0.9863
  901SOL    HW2 2703   0.843   2.354   2.751  1.3014  0.0030 -1.0972
  902SOL     OW 2704   1.953   1.137   0.316 -0.8074  0.7282 -0.4088
  902SOL    HW1 2705   2.044   1.086   0.317  1.9665  0.1888  0.0596
  902SOL    HW2 2706   1.934   1.173   0.409  0.1656 -0.8142  0.5217
  903SOL     OW 2707   1.861   0.817   0.513 -0.0828 -0.5586 -0.4927
  903SOL    HW1 2708   1.771   0.812   0.563 -1.5464  0.4329  1.6952
  903SOL    HW2 2709   1.843   0.865   0.424  0.8367 -1.1301 -0.3993
  904SOL     OW 2710   0.919   1.114   2.980 -1.2297 -0.3040 -0.1475
  904SOL    HW1 2711   0.977   1.186   3.018 -3.1415  0.3338  0.4602
  904SOL    HW2 2712   0.962   1.021   2.996 -0.3181 -0.9038 -1.3594
  905SOL     OW 2713   2.105   0.210   0.887 -0.2333 -0.4060  0.2986
  905SOL    HW1 2714   2.123   0.255   0.976 -0.6023  1.8566  1.5578
  905SOL    HW2 2715   2.090   0.280   0.814  0.3792  1.8708 -2.5241
  906SOL     OW 2716   3.060   2.316   1.093  0.2082  0.4211 -0.5322
  906SOL    HW1 2717   2.999   2.394   1.104 -1.1340 -0.5389  0.8331
  906SOL    HW2 2718   0.023   2.316   1.019  2.6814 -4.2281  2.7183
  907SOL     OW 2719   0.863   0.853   0.195  0.0108 -0.1488  0.0346
  907SOL    HW1 2720   0.816   0.773   0.230 -0.0498  0.8129 -0.7733
  907SOL    HW2 2721   0.805   0.914   0.137 -3.5600 -1.4067 -0.8755
  908SOL     OW 2722   2.209   2.614   0.975  0.1399 -0.1930  0.5790
  908SOL    HW1 2723   2.294   2.621   1.030  2.3955 -3.2634  0.6107
  908SOL    HW2 2724   2.174   2.708   0.941  0.9405  0.4207  0.0771
  909SOL     OW 2725   2.209   1.257   1.355 -0.1447  0.4133  0.0292
  909SOL    HW1 2726   2.207   1.256   1.253 -0.1520  2.8846  0.5551
  909SOL    HW2 2727   2.133   1.312   1.395 -3.0506  1.1866  2.0505
  910SOL     OW 2728   1.290   2.894   2.157 -0.4619  0.0297 -0.1009
  910SOL    HW1 2729   1.268   2.809   2.105 -1.1382  1.4492  1.1188
  910SOL    HW2 2730   1.204   2.928   2.203  0.2144  0.1181 -0.5297
  911SOL     OW 2731   2.882   0.720   2.308  0.3135  0.0981 -0.0022
  911SOL    HW1 2732   2.966   0.769   2.277  0.9005 -0.7803 -1.9973
  911SOL    HW2 2733   2.904   0.634   2.360  2.5259 -1.4364  0.2655
  912SOL     OW 2734   0.208   1.197   1.477  0.5752  1.0206 -0.6111
  912SOL    HW1 2735   0.234   1.105   1.436 -0.9951 -1.2991 -1.3081
  912SOL    HW2 2736   0.290   1.246   1.498 -1.1108 -1.8073 -3.6969
  913SOL     OW 2737   2.803   2.494   1.348 -0.0415  0.1292 -0.0841
  913SOL    HW1 2738   2.870   2.451   1.410 -1.4602 -2.6514 -1.4012
  913SOL    HW2 2739   2.750   2.417   1.307 -1.6455 -0.0136  1.3388
  914SOL     OW 2740   1.852   0.925   1.557 -0.4728  0.2769 -0.5046
  914SOL    HW1 2741   1.780   0.867   1.590  2.5454  5.3130 -1.9757
  914SOL    HW2 2742   1.889   0.989   1.630  2.6154  0.5248  2.0748
  915SOL     OW 2743   1.727   0.514   1.467  0.0613 -0.1077  0.2624
  915SOL    HW1 2744   1.795   0.445   1.498 -0.9192  0.4332  1.5268
  915SOL    HW2 2745   1.642   0.471   1.436  0.8981  0.1660 -0.9362
  916SOL     OW 2746   2.881   2.584   1.086 -0.0997  0.6293  0.1354
  916SOL    HW1 2747   2.796   2.579   1.030 -0.1844  0.8640 -0.6700
  916SOL    HW2 2748   2.853   2.566   1.188 -2.5804 -1.7694  2.8549
  917SOL     OW 2749   1.818   1.950   0.140 -0.3506  0.0555  0.2053
  917SOL    HW1 2750   1.725   1.922   0.169  2.5522 -3.4343  1.9169
  917SOL    HW2 2751   1.863   1.891   0.066  3.8340 -2.6597 -0.4362
  918SOL     OW 2752   2.027   2.926   2.705 -0.0960 -0.9623  0.5524
  918SOL    HW1 2753   1.999   2.978   2.622 -0.9447 -1.1637  0.6150
  918SOL    HW2 2754   2.103   2.969   2.750 -0.9894 -2.3687 -2.0027
  919SOL     OW 2755   1.354   2.451   1.222  0.3955 -0.2914  0.2265
  919SOL    HW1 2756   1.336   2.434   1.126 -1.0430 -3.2811  1.8491
  919SOL    HW2 2757   1.454   2.452   1.239 -0.1748 -0.9040 -0.7060
  920SOL     OW 2758   3.025   0.268   2.407 -0.0861  0.1204  0.2104
  920SOL    HW1 2759   3.057   0.276   2.505 -2.4693 -0.5741 -3.6263
  920SOL    HW2 2760   3.096   0.220   2.350  1.5389 -2.3152  1.6873
  921SOL     OW 2761   2.871   0.922   1.651  0.4480 -0.2395 -0.6619
  921SOL    HW1 2762   2.823   1.014   1.642  1.3428  0.7534 -1.0354
  921SOL    HW2 2763   2.970   0.923   1.618  2.4227 -0.5346  0.6524
  922SOL     OW 2764   1.933   1.912   0.584 -0.0549 -0.0021  0.1391
  922SOL    HW1 2765   2.023   1.927   0.533 -0.9855  0.0526 -0.4549
  922SOL    HW2 2766   1.865   1.990   0.570 -0.4448 -0.5897 -3.2746
  923SOL     OW 2767   0.839   1.772   0.042 -0.0645 -0.3492 -0.6533
  923SOL    HW1 2768   0.768   1.700   0.025 -0.6645  2.8407 -1.4525
  923SOL    HW2 2769   0.806   1.867   0.027  2.4382  0.9222 -1.1159
  924SOL     OW 2770   0.899   0.346   0.249 -0.4627 -0.1778  0.6748
  924SOL    HW1 2771   0.871   0.252   0.279  2.3374  0.9658 -0.5154
  924SOL    HW2 2772   0.909   0.357   0.146 -0.1646  1.5301 -0.1363
  925SOL     OW 2773   2.493   0.470   0.963  0.6239  0.0756  0.4880
  925SOL    HW1 2774   2.450   0.411   0.895  0.7469 -1.6037  0.6715
  925SOL    HW2 2775   2.464   0.435   1.054 -2.0356 -1.0189 -0.7753
  926SOL     OW 2776   0.482   0.154   0.925  0.1898 -0.1344 -0.2610
  926SOL    HW1 2777   0.416   0.187   0.854  1.1417  1.7554  0.7627
  926SOL    HW2 2778   0.439   0.155   1.023 -3.6870  0.0139  1.5342
  927SOL     OW 2779   0.071   1.238   2.471 -0.0392  0.1022 -0.0338
  927SOL    HW1 2780   0.140   1.183   2.517 -1.3300  0.5714 -1.5503
  927SOL    HW2 2781   3.084   1.198   2.480  1.3515 -1.8712 -0.1601
  928SOL     OW 2782   2.986   0.655   2.942  0.5130 -0.4489  0.2422
  928SOL    HW1 2783   2.980   0.749   2.908  1.2025 -0.8330  2.4059
  928SOL    HW2 2784   2.935   0.596   2.880  2.8430  1.5319  0.2518
  929SOL     OW 2785   2.619   0.177   1.269 -0.1556 -0.6151  0.0581
  929SOL    HW1 2786   2.533   0.229   1.271 -0.0409  1.6761 -1.2050
  929SOL    HW2 2787   2.625   0.127   1.181  0.6500  1.1778 -1.9207
  930SOL     OW 2788   1.840   1.129   1.996  0.1348  0.1339 -0.3079
  930SOL    HW1 2789   1.783   1.044   2.008 -2.0646 -2.1910  1.7995
  930SOL    HW2 2790   1.908   1.138   2.072  2.1832 -0.9191  0.5966
  931SOL     OW 2791   2.130   1.386   0.522 -0.4481  0.4149 -0.0441
  931SOL    HW1 2792   2.181   1.354   0.437  0.0919  3.6274 -0.8208
  931SOL    HW2 2793   2.148   1.488   0.538  1.0038  0.7589 -2.0405
  932SOL     OW 2794   2.840   1.205   0.845 -0.0314 -0.2048  0.0862
  932SOL    HW1 2795   2.935   1.215   0.808 -0.4358 -2.4803 -1.1924
  932SOL    HW2 2796   2.812   1.108   0.850 -1.3799  2.7537 -0.3605
  933SOL     OW 2797   2.770   1.536   1.144  0.0418  0.4415 -0.4412
  933SOL    HW1 2798   2.783   1.585   1.232 -0.3305 -1.6670 -1.5367
  933SOL    HW2 2799   2.671   1.534   1.121  0.8624 -0.5559 -1.4171
  934SOL     OW 2800   1.912   0.503   2.403 -0.0171  0.4447  0.3453
  934SOL    HW1 2801   1.884   0.503   2.306 -4.0270  0.0641  1.4907
  934SOL    HW2 2802   2.009   0.478   2.421  2.9104  1.3066 -0.3352
  935SOL     OW 2803   0.161   1.736   0.394  0.1536  0.3524  0.3777
  935SOL    HW1 2804   0.180   1.645   0.442  0.7133 -0.5145 -2.4947
  935SOL    HW2 2805   0.223   1.815   0.419  0.4113  0.3352  0.0121
  936SOL     OW 2806   0.278   0.596   0.728  0.5172  0.4481 -0.2075
  936SOL    HW1 2807   0.258   0.698   0.724  1.1305  3.0306 -3.0680
  936SOL    HW2 2808   0.243   0.547   0.645 -1.0561  2.2799 -1.7961
  937SOL     OW 2809   2.611   0.048   1.027  0.1064 -0.2560  0.3470
  937SOL    HW1 2810   2.627   3.055   1.053 -1.1288 -4.3644  0.7712
  937SOL    HW2 2811   2.696   0.088   0.988 -0.4189  0.0691 -0.8260
  938SOL     OW 2812   2.734   2.428   0.233  0.4407  0.1910 -0.1355
  938SOL    HW1 2813   2.826   2.412   0.269 -1.1921  1.8491 -1.6534
  938SOL    HW2 2814   2.666   2.446   0.314 -0.0282  1.4773  4.7102
  939SOL     OW 2815   0.902   2.009   0.466  0.0750  0.5498  0.0879
  939SOL    HW1 2816   0.898   1.930   0.398 -0.1238  0.8898 -1.8943
  939SOL    HW2 2817   0.837   1.982   0.548 -1.2812 -0.8318  2.2661
  940SOL     OW 2818   0.051   0.441   2.985  0.0088 -0.1044  0.1679
  940SOL    HW1 2819   0.104   0.404   2.906  2.0717 -1.1430 -0.9233
  940SOL    HW2 2820   0.017   0.537   2.971 -1.2385  0.8800  0.7628
  941SOL     OW 2821   1.282   0.334   3.064 -0.5101 -0.0284  0.1320
  941SOL    HW1 2822   1.311   0.429   3.033 -1.0200  0.4936 -2.7995
  941SOL    HW2 2823   1.231   0.332   0.049  0.7988  1.0676  1.8739
  942SOL     OW 2824   0.949   0.950   1.348  0.1480  0.0995 -0.0646
  942SOL    HW1 2825   1.050   0.973   1.356  2.2738 -1.3867  0.1221
  942SOL    HW2 2826   0.907   0.902   1.431 -1.2400 -0.2650  0.4431
  943SOL     OW 2827   1.466   1.004   2.074  0.4796 -0.0966  0.0921
  943SOL    HW1 2828   1.564   0.983   2.086 -1.4170  1.8116  1.8569
  943SOL    HW2 2829   1.406   0.923   2.081 -2.2304  2.6897  1.3651
  944SOL     OW 2830   1.937   1.113   1.736  0.4091 -0.1236  0.4853
  944SOL    HW1 2831   1.901   1.137   1.829  1.4455 -0.2075 -0.2451
  944SOL    HW2 2832   1.890   1.174   1.663 -0.0371 -1.5539 -2.6192
  945SOL     OW 2833   2.899   3.034   0.317  0.3602 -0.0467  0.6583
  945SOL    HW1 2834   2.954   3.064   0.398 -1.2786  0.8459 -2.5739
  945SOL    HW2 2835   2.840   0.008   0.290 -1.1364  3.0694 -1.5135
  946SOL     OW 2836   2.832   0.856   1.916  0.2014  0.1983 -0.1098
  946SOL    HW1 2837   2.841   0.876   1.818  2.3758  1.5135  2.7579
  946SOL    HW2 2838   2.750   0.908   1.956 -0.7774  1.0435 -1.2098
  947SOL     OW 2839   0.803   2.725   0.401 -0.1161  0.2232  0.2371
  947SOL    HW1 2840   0.744   2.806   0.405  1.8855  0.9116 -1.4273
  947SOL    HW2 2841   0.901   2.750   0.396 -2.4989  0.5392 -0.6383
  948SOL     OW 2842   2.360   1.421   1.539  0.6970 -0.0403  0.2465
  948SOL    HW1 2843   2.353   1.376   1.634  1.6895  2.5176  0.6974
  948SOL    HW2 2844   2.306   1.373   1.469  1.0770  2.5351 -0.8722
  949SOL     OW 2845   0.412   1.290   2.461 -0.8938  0.3587 -0.1528
  949SOL    HW1 2846   0.344   1.317   2.532 -0.1676  1.0278 -2.5583
  949SOL    HW2 2847   0.439   1.193   2.451  0.4598  2.2948  2.2800
  950SOL     OW 2848   0.493   2.849   0.834  0.2332 -0.0070 -0.1427
  950SOL    HW1 2849   0.419   2.852   0.907 -1.9241 -1.8662  1.7096
  950SOL    HW2 2850   0.568   2.911   0.861  2.9276 -4.2938 -0.1925
  951SOL     OW 2851   0.872   1.209   2.370  0.4821  0.5821  0.0655
  951SOL    HW1 2852   0.970   1.234   2.357 -1.3070  1.8860 -2.3104
  951SOL    HW2 2853   0.851   1.150   2.450  0.3436  0.9735 -0.4313
  952SOL     OW 2854   0.498   1.475   0.238  0.0510 -0.0919 -0.2462
  952SOL    HW1 2855   0.569   1.415   0.203 -3.6809 -0.2654  2.1692
  952SOL    HW2 2856   0.407   1.434   0.217  1.2250  1.7639  1.1356
  953SOL     OW 2857   2.458   0.174   2.423  0.3672  0.1809  0.0907
  953SOL    HW1 2858   2.409   0.200   2.509 -2.8454 -2.6412 -1.0237
  953SOL    HW2 2859   2.510   0.090   2.441  0.2739  2.3255  2.0317
  954SOL     OW 2860   1.452   1.168   0.775 -0.7794 -0.0281  0.0951
  954SOL    HW1 2861   1.362   1.167   0.728  0.5397  1.4156 -0.4006
  954SOL    HW2 2862   1.497   1.261   0.769 -0.2099 -1.2911 -0.8265
  955SOL     OW 2863   0.666   1.935   2.773 -0.2322 -0.2481 -0.0912
  955SOL    HW1 2864   0.698   1.947   2.869 -2.4344 -0.3472 -0.7815
  955SOL    HW2 2865   0.687   2.018   2.721 -0.1748 -0.1759  0.9790
  956SOL     OW 2866   1.846   0.495   2.127  0.4823  0.0797  0.0017
  956SOL    HW1 2867   1.908   0.413   2.100 -1.9248  0.5128 -1.2635
  956SOL    HW2 2868   1.873   0.574   2.075  0.6157 -1.7957 -2.1171
  957SOL     OW 2869   1.902   2.133   2.705  0.2473 -0.2567  0.5793
  957SOL    HW1 2870   1.961   2.070   2.647  1.5159  0.8843  2.0867
  957SOL    HW2 2871   1.916   2.136   2.807 -0.2945 -0.2599 -0.4286
  958SOL     OW 2872   1.258   1.397   1.514  0.0457 -0.3241  0.1137
  958SOL    HW1 2873   1.184   1.356   1.458 -1.4309  2.8231 -1.5770
  958SOL    HW2 2874   1.291   1.478   1.465  1.0840 -0.0302 -0.6185
  959SOL     OW 2875   1.977   2.390   2.621 -0.5951 -0.1555 -0.2166
  959SOL    HW1 2876   1.927   2.415   2.535  0.4360 -0.1948  1.3682
  959SOL    HW2 2877   1.972   2.288   2.636  1.0837  0.7738 -2.9595
  960SOL     OW 2878   0.070   0.688   2.551 -0.1823 -0.0847 -0.5937
  960SOL    HW1 2879   0.076   0.707   2.450  1.7115  1.4412 -1.4574
  960SOL    HW2 2880   3.078   0.680   2.573 -0.4034  0.5674 -0.2525
  961SOL     OW 2881   0.450   1.015   2.635  0.3175 -0.0429 -0.5189
  961SOL    HW1 2882   0.348   1.000   2.611 -4.6948 -1.3627 -2.4521
  961SOL    HW2 2883   0.468   1.083   2.710  0.1382 -0.4960 -1.5458
  962SOL     OW 2884   0.775   1.222   2.786 -0.8274 -0.4349 -0.0096
  962SOL    HW1 2885   0.815   1.182   2.868 -0.4410  3.4869 -3.6966
  962SOL    HW2 2886   0.776   1.155   2.708 -0.0566  1.0080 -1.1359
  963SOL     OW 2887   2.613   2.202   0.110 -0.1557 -0.5326 -0.5333
  963SOL    HW1 2888   2.663   2.284   0.146  2.2672 -1.3191  2.4909
  963SOL    HW2 2889   2.551   2.169   0.182 -2.6132  2.2280 -0.8104
  964SOL     OW 2890   1.175   2.449   1.646 -0.2932  0.1557  0.0475
  964SOL    HW1 2891   1.265   2.474   1.678 -3.9480 -1.7503 -1.8337
  964SOL    HW2 2892   1.110   2.524   1.649  3.4213  0.0026  2.0880
  965SOL     OW 2893   1.480   1.554   0.327 -0.1565 -0.0257 -0.0032
  965SOL    HW1 2894   1.581   1.561   0.338 -1.0875 -0.2152 -0.9956
  965SOL    HW2 2895   1.439   1.519   0.410  0.6707  1.6624 -0.2110
  966SOL     OW 2896   3.076   1.804   0.230  0.0372 -0.0465 -0.2967
  966SOL    HW1 2897   0.056   1.783   0.279 -0.1927  1.9104  1.9134
  966SOL    HW2 2898   2.999   1.830   0.295 -1.0971  1.0795  1.2987
  967SOL     OW 2899   1.793   0.047   2.188 -0.6295  0.7643 -0.2924
  967SOL    HW1 2900   1.895   0.065   2.175  0.4892  1.4424  1.1047
  967SOL    HW2 2901   1.771   0.019   2.285 -0.8765 -0.9040 -2.1576
  968SOL     OW 2902   1.784   0.433   0.459 -0.1716 -0.0535  0.4137
  968SOL    HW1 2903   1.758   0.391   0.371 -0.3502 -0.8232 -1.5200
  968SOL    HW2 2904   1.868   0.486   0.446  0.3270 -2.9036 -3.2083
  969SOL     OW 2905   0.139   1.256   2.201  0.4025 -0.5233  0.2135
  969SOL    HW1 2906   0.232   1.221   2.169  0.5319  1.3360 -1.0766
  969SOL    HW2 2907   0.140   1.254   2.301  3.6014  2.0152 -2.9176
  970SOL     OW 2908   2.487   1.563   1.161 -0.2496  0.4973  0.5451
  970SOL    HW1 2909   2.415   1.533   1.098  0.0743  2.6782 -1.3796
  970SOL    HW2 2910   2.438   1.617   1.231 -0.3919 -2.0679 -1.3600
  971SOL     OW 2911   0.025   2.717   0.927 -0.5574 -0.9253 -0.5437
  971SOL    HW1 2912   3.083   2.630   0.950 -2.2883  1.1156 -0.9745
  971SOL    HW2 2913   3.067   2.796   0.938  0.3180  1.4211 -0.5589
  972SOL     OW 2914   0.166   0.994   2.571  0.0895 -0.1488 -0.0490
  972SOL    HW1 2915   0.165   0.991   2.675  2.0551  0.7080  1.9454
  972SOL    HW2 2916   0.097   0.931   2.531 -2.2982  1.0723 -0.7082
  973SOL     OW 2917   0.336   0.297   0.719 -0.1421  0.1449  0.3613
  973SOL    HW1 2918   0.271   0.243   0.656 -1.8293 -0.3539 -4.6995
  973SOL    HW2 2919   0.409   0.335   0.659 -2.7324 -0.1955 -1.4662
  974SOL     OW 2920   2.010   0.919   1.331  0.1064  0.9147 -0.5063
  974SOL    HW1 2921   1.997   0.920   1.431 -2.8721  0.7055  1.1938
  974SOL    HW2 2922   2.099   0.876   1.304 -1.2503 -1.1493 -0.1265
  975SOL     OW 2923   2.599   2.795   0.104 -0.1579 -0.3164 -0.3712
  975SOL    HW1 2924   2.646   2.810   0.193  3.4381 -0.1655 -1.8910
  975SOL    HW2 2925   2.635   2.708   0.057  1.6475  0.8621  1.9320
  976SOL     OW 2926   0.522   1.355   1.173  0.2852  0.1836 -0.0527
  976SOL    HW1 2927   0.545   1.262   1.211  2.4217 -2.3419  2.0377
  976SOL    HW2 2928   0.521   1.431   1.242  0.4110 -0.1660 -1.5731
  977SOL     OW 2929   1.150   2.359   0.760  0.5075  0.4542 -0.2632
  977SOL    HW1 2930   1.124   2.288   0.696 -1.8058  2.5847  0.2532
  977SOL    HW2 2931   1.245   2.355   0.797  0.4431  1.4955 -1.0281
  978SOL     OW 2932   0.505   1.014   0.290 -0.1735 -0.1421  0.1456
  978SOL    HW1 2933   0.563   1.095   0.319  1.0818  1.3201  1.1988
  978SOL    HW2 2934   0.552   0.968   0.215 -0.3533  0.2490 -2.3694
  979SOL     OW 2935   2.179   1.639   0.573 -0.1619 -0.2317 -0.5731
  979SOL    HW1 2936   2.215   1.677   0.665  2.8025  1.1430  0.1631
  979SOL    HW2 2937   2.199   1.714   0.505 -2.7054 -0.0728  1.3745
  980SOL     OW 2938   0.240   1.886   1.774 -0.5393  0.3176  0.6662
  980SOL    HW1 2939   0.233   1.868   1.674 -0.6853  1.6690 -0.1188
  980SOL    HW2 2940   0.332   1.902   1.814  1.9427 -2.3294  0.1247
  981SOL     OW 2941   2.916   1.192   0.207 -0.2535  0.4146  0.3535
  981SOL    HW1 2942   2.869   1.251   0.276  2.5114  1.5567  1.5491
  981SOL    HW2 2943   2.910   1.225   0.113  2.5213  0.4887 -0.6347
  982SOL     OW 2944   2.872   2.902   2.053 -0.9930 -0.0547  0.1967
  982SOL    HW1 2945   2.906   2.971   2.115 -1.2026  0.3265 -0.4457
  982SOL    HW2 2946   2.912   2.921   1.959  1.0531  2.6935 -2.2743
  983SOL     OW 2947   1.587   0.111   1.036  0.0200 -0.1984  0.4154
  983SOL    HW1 2948   1.512   0.103   1.105 -0.1071 -0.5824 -0.6679
  983SOL    HW2 2949   1.669   0.144   1.085  0.0789 -1.0154  1.7251
  984SOL     OW 2950   1.374   2.568   2.965  0.7761 -0.0433  0.1147
  984SOL    HW1 2951   1.428   2.641   3.019  0.4653  0.3152  3.0018
  984SOL    HW2 2952   1.393   2.585   2.866  0.2489  0.4985 -1.7620
  985SOL     OW 2953   1.895   1.799   1.646  0.8264 -0.7220 -0.0414
  985SOL    HW1 2954   1.815   1.837   1.586 -3.9794  0.5260 -2.3848
  985SOL    HW2 2955   1.946   1.724   1.598  1.1215  1.0100  0.1093
  986SOL     OW 2956   2.143   3.092   2.506 -0.0771 -0.1671 -0.1780
  986SOL    HW1 2957   2.152   0.051   2.429  0.7686 -4.7411  2.7119
  986SOL    HW2 2958   2.133   0.039   2.592  2.4484 -0.1764  1.3244
  987SOL     OW 2959   2.742   1.423   2.266  0.0896  0.1844  0.1287
  987SOL    HW1 2960   2.728   1.346   2.335  0.9615 -0.2410  1.8450
  987SOL    HW2 2961   2.814   1.483   2.308  1.9233  1.1803  3.6119
  988SOL     OW 2962   2.541   0.563   2.218 -0.2423  0.4297 -0.5227
  988SOL    HW1 2963   2.543   0.552   2.118 -0.4799  2.7048  0.1020
  988SOL    HW2 2964   2.563   0.661   2.241  0.3617 -0.4895  0.5929
  989SOL     OW 2965   1.747   1.361   1.855  0.3543  0.4792 -0.8300
  989SOL    HW1 2966   1.653   1.318   1.839 -2.2192 -0.7371 -1.8871
  989SOL    HW2 2967   1.788   1.310   1.941  0.5075 -1.0019  2.4152
  990SOL     OW 2968   0.169   1.212   0.231  0.0679  0.0384  0.1559
  990SOL    HW1 2969   0.128   1.140   0.288 -0.4227  0.1024  0.8777
  990SOL    HW2 2970   0.231   1.178   0.155 -3.0696 -0.2436 -1.0022
  991SOL     OW 2971   0.241   1.679   2.724 -0.1001 -0.1331  0.3305
  991SOL    HW1 2972   0.163   1.729   2.673  1.5782  1.4002 -0.4321
  991SOL    HW2 2973   0.220   1.647   2.819  0.8479  2.7296  0.2294
  992SOL     OW 2974   2.726   2.091   1.972 -0.5331 -0.2826 -1.1085
  992SOL    HW1 2975   2.736   2.156   2.052 -2.0239 -1.1234 -1.7299
  992SOL    HW2 2976   2.684   2.134   1.890 -3.2528 -2.5308  2.6814
  993SOL     OW 2977   0.271   2.925   0.552  0.2799  0.2004 -0.0588
  993SOL    HW1 2978   0.227   2.968   0.471  1.6241  0.5164  0.9673
  993SOL    HW2 2979   0.369   2.895   0.536  1.7757 -0.4952  1.9989
  994SOL     OW 2980   3.099   1.945   1.371  0.1465  0.2076  0.1767
  994SOL    HW1 2981   3.046   1.938   1.460 -0.6063  1.4967  0.3414
  994SOL    HW2 2982   0.068   2.008   1.387 -0.2503 -0.8237  0.3064
  995SOL     OW 2983   2.215   1.653   2.511  0.4212 -0.1103  0.0006
  995SOL    HW1 2984   2.257   1.725   2.575  0.8956 -4.1269 -0.1716
  995SOL    HW2 2985   2.271   1.569   2.505 -1.5775  0.2052 -2.8148
  996SOL     OW 2986   2.008   1.524   0.012  0.1998 -0.0054  0.0815
  996SOL    HW1 2987   1.923   1.496   0.068 -2.8155  0.8823  0.2231
  996SOL    HW2 2988   1.982   1.601   3.055 -0.1090  3.2127 -1.0773
  997SOL     OW 2989   1.378   1.511   1.734  0.1108 -0.0282  0.1027
  997SOL    HW1 2990   1.356   1.462   1.818 -0.2355 -3.1107 -3.7896
  997SOL    HW2 2991   1.343   1.455   1.655  1.0033 -2.1869  1.2626
  998SOL     OW 2992   2.831   2.176   1.065 -0.0118 -0.0717 -0.2074
  998SOL    HW1 2993   2.916   2.230   1.071  1.9931 -0.3656  1.5033
  998SOL    HW2 2994   2.810   2.149   0.966 -1.0039 -2.7306 -1.2849
  999SOL     OW 2995   2.077   2.627   0.304 -0.1963 -0.4211 -0.3539
  999SOL    HW1 2996   2.009   2.704   0.306  1.8461  0.5987 -0.3149
  999SOL    HW2 2997   2.078   2.575   0.217  1.8596  1.9102  2.8904
 1000SOL     OW 2998   0.832   3.069   0.008 -0.4218  0.0961 -0.4533
 1000SOL    HW1 2999   0.910   0.013   0.056  0.7167  1.3362  0.4851
 1000SOL    HW2 3000   0.758   0.028   3.093 -4.5479 -0.4720 -0.4013
   3.10669   3.10669   3.10669
