1000 SPC/Fw water molecules t=  97.00000 step= 97000
 3000
    1SOL     OW    1   1.830   2.445   0.609  0.2232 -0.3320 -0.2588
    1SOL    HW1    2   1.740   2.399   0.599 -2.3945 -2.1473 -0.8184
    1SOL    HW2    3   1.884   2.398   0.687  1.4744 -0.2974  2.5227
    2SOL     OW    4   1.213   1.259   1.962 -0.2573  0.6874 -0.1193
    2SOL    HW1    5   1.203   1.302   2.057 -0.8420  3.3835  3.6204
    2SOL    HW2    6   1.285   1.305   1.909 -2.8076 -2.1149 -1.0638
    3SOL     OW    7   1.288   2.557   2.385 -0.4137  0.0103  0.1550
    3SOL    HW1    8   1.369   2.566   2.327 -3.5653 -0.6279  0.3376
    3SOL    HW2    9   1.242   2.472   2.368 -0.9174 -0.5748  1.7826
    4SOL     OW   10   1.416   1.941   2.403 -0.3152 -0.4451 -0.2965
    4SOL    HW1   11   1.498   1.885   2.366 -0.4136  1.5466 -1.2834
    4SOL    HW2   12   1.454   2.030   2.442  1.9159  1.0593  0.6731
    5SOL     OW   13   0.573   0.785   1.750 -0.0808 -0.6494  0.1655
    5SOL    HW1   14   0.621   0.762   1.835 -1.5018 -3.1520 -0.3195
    5SOL    HW2   15   0.635   0.755   1.673  1.7782 -1.9124 -1.4298
    6SOL     OW   16   2.066   0.874   2.759 -0.0836  0.1510  0.3619
    6SOL    HW1   17   2.060   0.959   2.703 -0.2857 -2.1068  1.0843
    6SOL    HW2   18   2.134   0.811   2.717 -1.0668 -3.9984  1.1291
    7SOL     OW   19   0.566   0.457   1.432  0.0606 -0.0988  0.2636
    7SOL    HW1   20   0.650   0.510   1.459  1.1551  2.7866  0.9773
    7SOL    HW2   21   0.495   0.516   1.391  1.3729  0.5209 -0.6966
    8SOL     OW   22   1.741   3.019   1.892  0.0060  0.6301 -0.1139
    8SOL    HW1   23   1.832   3.060   1.897 -0.7907 -1.1323 -0.5322
    8SOL    HW2   24   1.752   2.928   1.838 -0.8536 -2.9340 -1.0027
    9SOL     OW   25   0.181   0.440   0.483 -0.0658 -0.1362 -0.1415
    9SOL    HW1   26   0.239   0.376   0.540 -0.5997 -0.5073 -0.8891
    9SOL    HW2   27   0.191   0.535   0.516  0.8644 -0.0353  0.9780
   10SOL     OW   28   0.626   2.051   2.355 -0.2159 -0.0717  0.3311
   10SOL    HW1   29   0.604   2.144   2.317 -3.0435 -1.7611 -2.1663
   10SOL    HW2   30   0.664   2.060   2.449 -0.5068 -2.1523  2.6937
   11SOL     OW   31   0.767   1.615   0.143 -0.0602  0.1728 -0.1464
   11SOL    HW1   32   0.855   1.653   0.164 -1.9093 -2.0903 -0.3040
   11SOL    HW2   33   0.759   1.518   0.174  1.1355  0.6192  0.7805
   12SOL     OW   34   0.080   2.858   1.395 -0.2388  0.2816  0.0701
   12SOL    HW1   35   0.039   2.905   1.477 -0.1941 -0.0973 -1.2589
   12SOL    HW2   36   0.112   2.926   1.328 -1.6581  0.2801 -2.9698
   13SOL     OW   37   0.781   3.033   0.382  0.3225 -0.0296  0.1885
   13SOL    HW1   38   0.878   3.023   0.418  0.5850  0.5830  1.1155
   13SOL    HW2   39   0.774   0.029   0.313 -0.7984  0.8418 -0.7105
   14SOL     OW   40   1.614   1.585   0.884 -0.1167  0.2788 -0.0340
   14SOL    HW1   41   1.518   1.626   0.898  0.0705  3.1948  0.6344
   14SOL    HW2   42   1.658   1.572   0.975  1.0789  2.8951 -0.7827
   15SOL     OW   43   2.960   1.577   2.411  0.2736  0.1407 -0.2743
   15SOL    HW1   44   2.960   1.544   2.504 -1.3690  1.2034 -2.2813
   15SOL    HW2   45   2.930   1.677   2.408  0.0068 -1.4213 -2.1485
   16SOL     OW   46   1.430   0.363   2.628 -0.1858 -0.9227 -0.3680
   16SOL    HW1   47   1.381   0.434   2.677  1.9150 -0.8747  1.3449
   16SOL    HW2   48   1.371   0.286   2.594 -0.4567 -1.0123 -1.4099
   17SOL     OW   49   0.274   2.318   2.263  0.4600 -0.0223 -0.0046
   17SOL    HW1   50   0.300   2.282   2.354  0.3800 -1.4097  1.5813
   17SOL    HW2   51   0.192   2.270   2.225  0.2625  0.3023 -0.0001
   18SOL     OW   52   1.171   1.363   0.473 -1.3153  0.2844  0.3689
   18SOL    HW1   53   1.192   1.350   0.572 -1.9857 -0.2733  1.0290
   18SOL    HW2   54   1.185   1.279   0.415 -0.2588 -1.0119 -0.6653
   19SOL     OW   55   2.440   1.457   2.579 -0.1193 -0.5743 -0.1354
   19SOL    HW1   56   2.500   1.400   2.636 -1.3837  0.2763 -2.1062
   19SOL    HW2   57   2.361   1.407   2.536  0.2898 -1.9639  0.6767
   20SOL     OW   58   2.487   2.116   2.424 -0.5943 -0.0208  0.0076
   20SOL    HW1   59   2.456   2.107   2.328 -0.7252  0.7028  1.3922
   20SOL    HW2   60   2.524   2.210   2.440 -2.3275  0.0383  0.4753
   21SOL     OW   61   0.968   2.082   0.189 -0.2797  0.2402 -0.2457
   21SOL    HW1   62   1.010   2.081   0.096  0.4628  1.4569  1.5478
   21SOL    HW2   63   1.032   2.057   0.266 -0.2070  1.2141  0.9615
   22SOL     OW   64   2.333   2.099   1.325 -0.0235 -0.4442  0.2741
   22SOL    HW1   65   2.337   2.199   1.353  1.7221 -1.4427 -0.5470
   22SOL    HW2   66   2.241   2.077   1.282 -2.9230 -0.9899 -1.3927
   23SOL     OW   67   0.320   1.177   1.599 -0.2991 -0.4761 -0.2782
   23SOL    HW1   68   0.316   1.199   1.698  0.7482 -2.4155 -0.7429
   23SOL    HW2   69   0.367   1.086   1.589  1.1624 -2.1831 -1.6945
   24SOL     OW   70   2.108   1.778   2.175  0.5944 -0.0106  0.1863
   24SOL    HW1   71   2.090   1.678   2.159  2.0629 -0.1898  0.1809
   24SOL    HW2   72   2.198   1.786   2.216 -0.8637 -3.4636 -0.2533
   25SOL     OW   73   1.904   0.583   2.481  0.2968 -0.4340 -0.0062
   25SOL    HW1   74   1.888   0.484   2.488 -1.2683 -2.4978  0.7956
   25SOL    HW2   75   1.815   0.634   2.488  0.3170 -0.2506 -0.2494
   26SOL     OW   76   1.544   0.349   0.504 -0.4218  0.0370 -0.1709
   26SOL    HW1   77   1.461   0.400   0.470 -0.8767  0.1429  2.1956
   26SOL    HW2   78   1.627   0.410   0.535  2.6152  2.7748  2.2448
   27SOL     OW   79   0.866   1.786   0.496 -0.5252  0.1054 -0.4980
   27SOL    HW1   80   0.795   1.811   0.422 -0.3294  1.7159  2.2312
   27SOL    HW2   81   0.836   1.708   0.555 -2.0583 -3.2437  1.4531
   28SOL     OW   82   2.674   1.832   1.169 -0.5926  0.0019 -0.0564
   28SOL    HW1   83   2.672   1.729   1.171  0.5248  0.6411  1.0525
   28SOL    HW2   84   2.599   1.877   1.118  1.7666 -2.6719  0.5450
   29SOL     OW   85   2.209   2.704   1.627 -1.0949 -0.3816 -0.1938
   29SOL    HW1   86   2.137   2.777   1.618  2.6348 -1.6779 -1.0530
   29SOL    HW2   87   2.256   2.712   1.716  3.2136 -2.5548 -0.2885
   30SOL     OW   88   0.614   0.018   1.322  0.0837 -0.0027  0.6730
   30SOL    HW1   89   0.707   3.065   1.292 -2.5166  1.0134 -0.1170
   30SOL    HW2   90   0.625   0.101   1.380 -0.7024 -1.2488 -1.7150
   31SOL     OW   91   2.862   2.226   1.883 -0.4632  0.0111 -0.0394
   31SOL    HW1   92   2.960   2.242   1.907 -0.7144 -0.7759  0.2122
   31SOL    HW2   93   2.806   2.243   1.966 -2.9348 -1.5005 -0.4020
   32SOL     OW   94   1.543   1.483   1.779  0.4931  0.6543 -0.2665
   32SOL    HW1   95   1.460   1.521   1.731  0.7458 -1.1444  1.0197
   32SOL    HW2   96   1.621   1.516   1.726  1.3546  1.8096  0.6807
   33SOL     OW   97   0.159   0.199   2.998  0.0727  0.0746 -0.9025
   33SOL    HW1   98   0.251   0.237   2.999 -0.9819 -1.1860  1.1330
   33SOL    HW2   99   0.134   0.171   0.016 -2.0021  1.3151  2.2212
   34SOL     OW  100   2.234   2.998   1.150  0.0204  0.4450  0.4919
   34SOL    HW1  101   2.316   3.033   1.196 -2.9385 -0.2359 -0.0615
   34SOL    HW2  102   2.232   2.897   1.131 -0.4756  2.7289  3.1825
   35SOL     OW  103   2.521   0.016   1.659 -0.1594 -0.1773  0.8775
   35SOL    HW1  104   2.546   3.031   1.583  1.5914 -0.2749 -2.4781
   35SOL    HW2  105   2.575   3.078   1.747 -1.5906 -2.6289 -1.4435
   36SOL     OW  106   2.581   2.680   2.532 -0.0243 -0.2786 -0.3769
   36SOL    HW1  107   2.548   2.749   2.602 -3.0266  0.7753  0.6332
   36SOL    HW2  108   2.682   2.653   2.547  5.0011 -0.0923  1.8843
   37SOL     OW  109   1.115   2.870   3.072 -0.3467  0.5628 -0.7880
   37SOL    HW1  110   1.208   2.885   3.026  1.2507 -0.7935 -1.4964
   37SOL    HW2  111   1.130   2.800   0.070  0.1676 -2.4995  1.4063
   38SOL     OW  112   2.762   1.091   2.789  0.0991 -0.9626 -0.0268
   38SOL    HW1  113   2.800   1.078   2.883 -1.5919 -0.9507  1.6941
   38SOL    HW2  114   2.718   1.009   2.748 -1.4856  3.0555 -0.0453
   39SOL     OW  115   2.180   1.978   2.003  0.2204  0.5972 -0.5798
   39SOL    HW1  116   2.144   1.901   2.061 -0.3379 -0.6298 -0.8759
   39SOL    HW2  117   2.125   2.061   2.029 -1.9315  0.4621  0.0030
   40SOL     OW  118   0.365   0.195   2.579  0.2231  0.5180 -0.1053
   40SOL    HW1  119   0.377   0.158   2.674  1.2362  0.3242  0.6799
   40SOL    HW2  120   0.453   0.236   2.536  0.4581 -0.9496  1.2694
   41SOL     OW  121   1.470   1.360   1.446  0.1579  0.4255 -0.0647
   41SOL    HW1  122   1.402   1.381   1.520 -1.3515  0.0736  1.6617
   41SOL    HW2  123   1.561   1.332   1.491  1.5259  2.9296  0.8221
   42SOL     OW  124   0.098   0.329   1.853 -0.2730 -0.3404  0.7226
   42SOL    HW1  125   0.060   0.406   1.793  1.2892  2.4757 -1.3255
   42SOL    HW2  126   0.045   0.322   1.936  2.5945  1.2111  2.7362
   43SOL     OW  127   1.544   1.388   2.027 -0.7112  0.5988 -0.1143
   43SOL    HW1  128   1.580   1.293   2.014  2.4585 -2.5919  1.7672
   43SOL    HW2  129   1.545   1.440   1.936  1.9617  2.0221 -2.2817
   44SOL     OW  130   2.731   0.103   3.036  0.0501 -0.1051 -0.2042
   44SOL    HW1  131   2.776   0.024   2.985 -2.5023  2.7163  1.7659
   44SOL    HW2  132   2.718   0.080   0.057  1.1739  0.8853  0.6799
   45SOL     OW  133   0.677   1.984   1.194 -0.4819  0.4347 -0.2693
   45SOL    HW1  134   0.632   2.075   1.197  0.3879  1.0984  2.4567
   45SOL    HW2  135   0.614   1.907   1.216 -2.3955  2.1971  0.6340
   46SOL     OW  136   2.363   2.748   1.836 -0.3669  0.0223 -0.2840
   46SOL    HW1  137   2.350   2.850   1.820 -0.1179  0.2521  0.8403
   46SOL    HW2  138   2.460   2.727   1.845 -2.1905  0.4462 -1.7842
   47SOL     OW  139   0.911   1.860   1.318 -0.3437 -0.1858  0.2309
   47SOL    HW1  140   0.830   1.904   1.285  4.1164  2.0109 -0.5734
   47SOL    HW2  141   0.914   1.872   1.421 -1.2815  0.6385  2.1936
   48SOL     OW  142   0.275   2.517   0.227  0.3719 -0.2411 -0.3086
   48SOL    HW1  143   0.241   2.436   0.281 -0.3877  1.0775 -0.8021
   48SOL    HW2  144   0.256   2.606   0.279  0.0268  0.5882 -0.8650
   49SOL     OW  145   2.884   1.523   1.932  0.4645  0.4476  0.5280
   49SOL    HW1  146   2.885   1.544   2.034  0.2849 -1.3860 -1.1258
   49SOL    HW2  147   2.784   1.524   1.898 -2.5378  1.8143 -2.7661
   50SOL     OW  148   2.119   1.033   0.616 -0.7347 -0.1989 -0.4485
   50SOL    HW1  149   2.109   1.009   0.515  0.6379 -3.3267 -0.9415
   50SOL    HW2  150   2.068   0.961   0.670 -0.2833  0.5347 -3.9037
   51SOL     OW  151   1.311   0.719   0.875  0.1311  0.2002 -0.2571
   51SOL    HW1  152   1.338   0.749   0.968 -2.1501 -3.1321  0.8891
   51SOL    HW2  153   1.210   0.713   0.872 -1.0009  0.3630  2.0968
   52SOL     OW  154   1.134   1.471   0.203 -0.1061 -0.2088  0.3319
   52SOL    HW1  155   1.177   1.441   0.290 -0.4803  0.1292  0.4177
   52SOL    HW2  156   1.071   1.550   0.213 -2.0922 -1.6765  0.1630
   53SOL     OW  157   0.937   2.374   2.714  0.5197 -0.5414 -0.5410
   53SOL    HW1  158   0.872   2.304   2.752  0.5930 -2.5232 -0.2233
   53SOL    HW2  159   0.987   2.422   2.784 -0.7240 -1.0498 -1.1381
   54SOL     OW  160   1.706   0.642   1.619  0.1953  0.5749  0.1163
   54SOL    HW1  161   1.656   0.555   1.600  0.7207 -0.8547  0.2320
   54SOL    HW2  162   1.711   0.687   1.524 -1.6583  0.0485 -1.0669
   55SOL     OW  163   2.386   2.507   0.184 -0.0164  0.1639  0.3685
   55SOL    HW1  164   2.356   2.439   0.256  1.0439  0.0114 -1.5120
   55SOL    HW2  165   2.424   2.589   0.234  0.8565  1.2407 -0.7690
   56SOL     OW  166   0.672   2.411   1.836  0.3942  0.3254  0.3582
   56SOL    HW1  167   0.590   2.354   1.853  1.5959 -0.2049 -0.0099
   56SOL    HW2  168   0.650   2.506   1.798  0.6310  0.5775 -1.3265
   57SOL     OW  169   1.494   0.858   2.406 -0.0481 -0.3944  0.0258
   57SOL    HW1  170   1.487   0.761   2.377  1.3124  0.1447 -1.4321
   57SOL    HW2  171   1.574   0.870   2.470 -0.7267  1.4872  1.1080
   58SOL     OW  172   2.986   1.220   1.953  0.2479 -0.4514 -0.5410
   58SOL    HW1  173   3.005   1.262   1.865 -1.1260  0.9993  1.9045
   58SOL    HW2  174   2.902   1.262   1.992  0.7984 -2.0923 -2.3225
   59SOL     OW  175   0.590   2.980   2.358 -0.4242  0.3120 -0.0914
   59SOL    HW1  176   0.692   2.964   2.358 -0.6331  0.4756 -0.9968
   59SOL    HW2  177   0.532   2.900   2.336  1.1614  0.5774  0.6393
   60SOL     OW  178   2.678   2.061   0.399  0.7260  0.0683  0.1102
   60SOL    HW1  179   2.693   1.960   0.400  0.4833  0.3870  2.9853
   60SOL    HW2  180   2.719   2.103   0.317 -2.0481  1.5615  1.1024
   61SOL     OW  181   0.630   2.816   0.411  0.0459 -0.3461  0.2472
   61SOL    HW1  182   0.664   2.747   0.346 -0.7523  3.0314  0.5305
   61SOL    HW2  183   0.688   2.902   0.413 -0.3435  1.6074  0.5939
   62SOL     OW  184   1.940   2.518   2.596  0.1412  0.4396  0.1934
   62SOL    HW1  185   1.877   2.511   2.519 -1.7855  1.3324 -0.5633
   62SOL    HW2  186   2.033   2.530   2.563  1.0401 -1.7759  1.7628
   63SOL     OW  187   2.197   0.479   2.976 -0.4146 -0.5603 -0.0077
   63SOL    HW1  188   2.169   0.512   2.881 -1.0910  1.7617 -1.7262
   63SOL    HW2  189   2.125   0.421   3.016  1.0265  1.5044 -1.9759
   64SOL     OW  190   0.843   1.151   2.719 -0.6729 -0.2616 -0.1042
   64SOL    HW1  191   0.937   1.124   2.751  1.2611  0.1806 -1.4373
   64SOL    HW2  192   0.772   1.116   2.778  1.8832  1.4374 -1.5664
   65SOL     OW  193   1.428   3.064   0.549 -0.3622  0.3612  0.2727
   65SOL    HW1  194   1.400   2.980   0.596 -0.2710 -0.4247  3.5543
   65SOL    HW2  195   1.507   0.022   0.596  0.1587 -0.7139  0.2637
   66SOL     OW  196   0.684   1.527   1.743 -0.2487 -0.0412 -0.5178
   66SOL    HW1  197   0.761   1.581   1.694  1.4604  2.6355 -1.0729
   66SOL    HW2  198   0.670   1.547   1.845 -1.1247  1.0977  2.0956
   67SOL     OW  199   2.169   2.927   2.187  0.3272  0.6383  0.0420
   67SOL    HW1  200   2.205   2.852   2.126 -0.1677 -0.2585 -0.5637
   67SOL    HW2  201   2.247   2.991   2.218 -2.9685 -1.3571  1.5371
   68SOL     OW  202   0.726   0.714   1.547  0.0316  1.2524 -0.2866
   68SOL    HW1  203   0.816   0.752   1.508 -0.5782 -1.0461 -0.1495
   68SOL    HW2  204   0.648   0.743   1.490 -0.4215  0.6516 -1.7550
   69SOL     OW  205   2.039   2.544   0.261 -0.5629 -0.0143 -0.4167
   69SOL    HW1  206   2.066   2.640   0.282  0.5147 -3.0450  0.0742
   69SOL    HW2  207   2.074   2.511   0.171  1.5135 -2.2751 -0.3812
   70SOL     OW  208   2.479   0.672   2.588  0.1694 -0.0725 -0.7215
   70SOL    HW1  209   2.558   0.735   2.610  0.6918  2.9092  1.1111
   70SOL    HW2  210   2.479   0.598   2.654  2.3365  2.0355 -1.2581
   71SOL     OW  211   2.974   2.096   0.297  0.2315 -0.0791 -0.1161
   71SOL    HW1  212   2.962   1.997   0.270 -2.2214 -1.1833 -1.1060
   71SOL    HW2  213   2.900   2.145   0.247 -1.1861 -0.7507 -3.7607
   72SOL     OW  214   3.002   1.865   0.491 -0.1301  0.3777  0.0388
   72SOL    HW1  215   2.990   1.954   0.539  1.4367 -1.0246  1.9251
   72SOL    HW2  216   2.988   1.790   0.563 -2.0605  1.9795  1.1323
   73SOL     OW  217   0.989   0.840   0.480  0.0070 -0.1185 -0.1261
   73SOL    HW1  218   0.890   0.811   0.463  0.9273  1.3355  0.6534
   73SOL    HW2  219   0.991   0.923   0.538 -0.8544  1.4559  1.6003
   74SOL     OW  220   0.192   1.741   2.034 -0.5348  0.7491 -0.1572
   74SOL    HW1  221   0.263   1.702   2.101  1.8754 -0.8030  1.7823
   74SOL    HW2  222   0.232   1.817   1.978 -1.0704  0.0900 -2.9063
   75SOL     OW  223   1.746   1.660   1.344  0.2870  0.9180  0.2656
   75SOL    HW1  224   1.841   1.695   1.327  0.5282 -1.4278 -1.7243
   75SOL    HW2  225   1.727   1.599   1.266 -0.0707  0.9836  2.0162
   76SOL     OW  226   1.692   1.940   0.984 -0.2309 -0.5669 -0.0029
   76SOL    HW1  227   1.791   1.915   0.973  0.0794 -2.6995  2.7830
   76SOL    HW2  228   1.656   1.908   1.075 -0.3496 -0.2174 -0.2707
   77SOL     OW  229   2.416   1.623   1.907 -0.3601  0.1603  0.2632
   77SOL    HW1  230   2.416   1.626   2.009 -0.0750  1.0118  4.7764
   77SOL    HW2  231   2.382   1.714   1.869 -1.7553  1.9423 -2.4239
   78SOL     OW  232   1.470   0.859   0.608  0.0216  0.2399 -0.2591
   78SOL    HW1  233   1.395   0.894   0.662  0.9257 -1.6886 -0.2739
   78SOL    HW2  234   1.516   0.769   0.635  1.6072 -2.6998 -1.4900
   79SOL     OW  235   2.165   1.772   1.497  0.8838 -0.3076 -0.6244
   79SOL    HW1  236   2.247   1.711   1.490 -1.6538 -1.1940  2.8142
   79SOL    HW2  237   2.197   1.868   1.510 -0.1826  1.0744 -2.8932
   80SOL     OW  238   1.112   0.313   1.168 -0.6343  0.0008  0.4223
   80SOL    HW1  239   1.078   0.325   1.265  0.2148  0.1454  0.0368
   80SOL    HW2  240   1.132   0.215   1.148 -0.8367  0.7040 -0.9168
   81SOL     OW  241   0.366   2.379   0.708  0.2217  0.4781 -0.5114
   81SOL    HW1  242   0.401   2.286   0.711 -1.4927  1.0212 -0.8197
   81SOL    HW2  243   0.447   2.447   0.715  2.2349  0.2359  0.2928
   82SOL     OW  244   1.297   0.226   1.602  0.4886  0.3848 -0.3079
   82SOL    HW1  245   1.250   0.223   1.697 -0.8422 -0.1926  0.4814
   82SOL    HW2  246   1.317   0.323   1.576 -1.3760 -0.4852 -2.6759
   83SOL     OW  247   0.815   1.583   0.678  0.1438  0.1454 -0.4432
   83SOL    HW1  248   0.761   1.646   0.738  0.0125  2.0021 -1.1954
   83SOL    HW2  249   0.862   1.514   0.738  0.0068 -2.6435  0.2523
   84SOL     OW  250   2.593   1.212   0.233  0.0272  0.0795 -0.3290
   84SOL    HW1  251   2.530   1.239   0.150 -2.4927 -1.1371 -2.4536
   84SOL    HW2  252   2.652   1.129   0.217  0.5934 -0.0360 -1.4531
   85SOL     OW  253   3.074   2.616   1.304 -0.1764  0.0043  0.2550
   85SOL    HW1  254   0.014   2.709   1.334  2.0488 -2.0068 -1.8207
   85SOL    HW2  255   2.986   2.578   1.338  1.7383 -0.4058 -0.8157
   86SOL     OW  256   1.754   2.548   0.936 -0.2234  0.4024 -0.2329
   86SOL    HW1  257   1.755   2.515   1.035 -1.3757  1.3053  0.0867
   86SOL    HW2  258   1.663   2.523   0.897 -4.0764 -0.6058  2.6222
   87SOL     OW  259   2.975   1.672   0.671 -0.2794 -0.3058 -0.1736
   87SOL    HW1  260   2.911   1.633   0.738  2.7089  2.4187 -3.2401
   87SOL    HW2  261   2.996   1.593   0.610  0.2866  2.4577  3.5179
   88SOL     OW  262   0.891   0.560   1.235 -0.5697 -0.1530  0.3975
   88SOL    HW1  263   0.886   0.502   1.149 -1.0259 -0.1113 -0.4936
   88SOL    HW2  264   0.911   0.499   1.310 -1.5686  1.1285 -2.7104
   89SOL     OW  265   0.811   2.783   1.983  0.8077 -0.4622  0.1653
   89SOL    HW1  266   0.783   2.834   1.896 -0.9687  0.7608 -2.0804
   89SOL    HW2  267   0.727   2.734   2.021 -0.6667  0.9433  2.0477
   90SOL     OW  268   3.016   1.838   1.357  0.9285 -0.3019  0.1471
   90SOL    HW1  269   0.037   1.845   1.348 -1.7149  0.2166 -0.4960
   90SOL    HW2  270   2.968   1.879   1.273 -0.8802 -2.3502 -2.4495
   91SOL     OW  271   1.016   2.100   0.902 -0.2862 -0.5270 -0.0719
   91SOL    HW1  272   1.036   2.190   0.868  2.5285 -0.6477  0.2061
   91SOL    HW2  273   1.031   2.029   0.834 -2.9687  2.4879  1.9024
   92SOL     OW  274   2.989   2.881   1.628  0.1568 -0.2861  0.6068
   92SOL    HW1  275   3.015   2.918   1.720  1.1293 -1.0274 -1.5026
   92SOL    HW2  276   2.996   2.955   1.556 -0.5520 -1.4708 -0.2056
   93SOL     OW  277   2.934   1.278   3.043 -0.0822  0.2770 -0.3427
   93SOL    HW1  278   3.018   1.290   2.986 -0.8285 -0.5882  1.1229
   93SOL    HW2  279   2.892   1.183   3.027  0.6769 -0.9792  1.3461
   94SOL     OW  280   2.626   2.751   1.857 -0.3856 -0.5515 -0.1048
   94SOL    HW1  281   2.693   2.680   1.884 -3.6340 -0.8377 -1.5189
   94SOL    HW2  282   2.665   2.846   1.872  1.3324  0.7670 -0.6991
   95SOL     OW  283   1.511   0.612   1.828 -0.4688 -0.4085  0.3323
   95SOL    HW1  284   1.451   0.546   1.882  3.0373 -2.0492  0.6380
   95SOL    HW2  285   1.576   0.552   1.776 -0.8932 -2.0722 -1.6637
   96SOL     OW  286   2.626   0.336   1.742 -0.6116  0.1564  0.2667
   96SOL    HW1  287   2.622   0.410   1.672  0.1061  1.0184 -1.0572
   96SOL    HW2  288   2.691   0.262   1.710  2.6823 -0.7124  0.6737
   97SOL     OW  289   2.430   2.852   1.480  0.2344 -0.3071 -0.1477
   97SOL    HW1  290   2.509   2.792   1.511  0.6124  0.5530 -1.9828
   97SOL    HW2  291   2.342   2.812   1.493  2.7543 -2.8557 -1.5022
   98SOL     OW  292   1.993   2.654   1.238  0.2437  0.2768 -0.6552
   98SOL    HW1  293   2.031   2.584   1.301  1.0200  1.7840  0.4715
   98SOL    HW2  294   1.892   2.642   1.235 -2.3770 -0.8595 -0.3108
   99SOL     OW  295   2.725   0.306   1.979 -0.3899  0.0605  0.1234
   99SOL    HW1  296   2.807   0.248   1.958  0.3999 -1.0421 -0.0009
   99SOL    HW2  297   2.678   0.325   1.892 -1.8299 -1.0319 -0.4522
  100SOL     OW  298   1.964   1.524   1.801 -0.0048  0.2286 -0.0241
  100SOL    HW1  299   1.901   1.557   1.873  0.2975  2.6676 -0.1562
  100SOL    HW2  300   1.992   1.426   1.814 -0.8417  0.0901 -0.9822
  101SOL     OW  301   2.057   0.418   0.437 -0.6909  0.5177 -0.1068
  101SOL    HW1  302   2.118   0.351   0.482 -1.7968 -0.6790 -1.2368
  101SOL    HW2  303   2.108   0.498   0.407  0.8088  0.4051  2.2664
  102SOL     OW  304   0.421   0.660   1.267  0.3760  0.1038  0.1413
  102SOL    HW1  305   0.324   0.648   1.275  1.2411  1.0665  0.6597
  102SOL    HW2  306   0.462   0.627   1.180  2.0530 -0.1653  2.7587
  103SOL     OW  307   2.459   0.122   2.688  0.1552  0.2487  0.0327
  103SOL    HW1  308   2.529   0.177   2.743  1.1573  1.3919  0.0229
  103SOL    HW2  309   2.365   0.142   2.725 -2.5716  0.9506 -1.5053
  104SOL     OW  310   0.031   2.988   1.878  0.0473  1.0076 -0.3615
  104SOL    HW1  311   0.100   3.050   1.837 -2.6630  1.9154  0.5704
  104SOL    HW2  312   0.081   2.920   1.937 -1.9947  1.0307  3.2024
  105SOL     OW  313   1.606   0.805   2.046 -0.2689  0.7353 -0.5436
  105SOL    HW1  314   1.540   0.881   2.048 -0.3790 -1.0148  1.0902
  105SOL    HW2  315   1.562   0.724   2.005 -1.8566 -0.1557  1.0234
  106SOL     OW  316   1.836   0.370   0.874 -0.9444 -0.7703  0.1862
  106SOL    HW1  317   1.853   0.270   0.889 -0.5993  1.8822 -0.3783
  106SOL    HW2  318   1.739   0.385   0.895  1.7535  0.1208  2.2299
  107SOL     OW  319   0.791   1.065   1.204 -0.5286  0.1542 -0.0668
  107SOL    HW1  320   0.810   1.060   1.304  3.4665 -0.7234 -0.3435
  107SOL    HW2  321   0.760   0.976   1.166  2.0727  0.8757  0.9183
  108SOL     OW  322   3.009   0.433   2.666  0.1772 -0.2141  0.4239
  108SOL    HW1  323   2.971   0.349   2.625  0.9675  2.2908 -1.6499
  108SOL    HW2  324   3.047   0.409   2.760  0.3366  2.5083  1.2230
  109SOL     OW  325   2.054   0.128   0.118  0.1438 -0.4458 -0.2330
  109SOL    HW1  326   1.998   0.042   0.114  0.4220 -0.6147  0.0180
  109SOL    HW2  327   2.143   0.105   0.162  1.0626  0.4981 -0.9636
  110SOL     OW  328   0.000   1.890   2.874  0.2742  0.2028  0.1456
  110SOL    HW1  329   0.060   1.938   2.940 -0.2353 -1.2691 -2.3018
  110SOL    HW2  330   0.025   1.789   2.863 -1.8312 -3.5510 -0.3455
  111SOL     OW  331   2.256   0.167   2.312 -0.1487  0.1654 -0.2991
  111SOL    HW1  332   2.264   0.133   2.216  0.6100  2.8439  0.8107
  111SOL    HW2  333   2.350   0.169   2.356 -0.3347  0.2169  0.4751
  112SOL     OW  334   2.475   2.983   1.253 -0.0850 -0.1983 -0.1211
  112SOL    HW1  335   2.485   2.909   1.186  1.0025  1.0661  1.4575
  112SOL    HW2  336   2.456   2.937   1.343  0.5884  1.7304 -2.3275
  113SOL     OW  337   2.419   2.341   2.040 -0.2610  0.1609 -0.0824
  113SOL    HW1  338   2.408   2.374   1.942  0.0950  0.4058 -3.7469
  113SOL    HW2  339   2.345   2.376   2.102  2.9036  0.0743 -0.8229
  114SOL     OW  340   2.749   3.048   0.782 -0.3523  0.6809 -0.4249
  114SOL    HW1  341   2.683   2.971   0.791  1.0258  1.9078 -1.2344
  114SOL    HW2  342   2.735   0.036   0.856  0.2444 -0.2889 -3.0947
  115SOL     OW  343   2.821   1.689   0.145  0.1054  0.2561  0.2435
  115SOL    HW1  344   2.918   1.724   0.162 -1.7147 -2.4490  0.5380
  115SOL    HW2  345   2.803   1.599   0.194 -0.0051  0.5791 -0.5717
  116SOL     OW  346   0.170   1.486   1.931  0.0942  0.0095  0.1651
  116SOL    HW1  347   0.174   1.590   1.934 -1.4555  2.0895  0.3753
  116SOL    HW2  348   0.112   1.449   1.852  1.0534 -1.6009 -3.1166
  117SOL     OW  349   2.464   2.798   1.072 -0.4589  0.3507 -0.2427
  117SOL    HW1  350   2.541   2.732   1.058  1.1301  2.7126 -0.3224
  117SOL    HW2  351   2.375   2.751   1.078  1.6010  0.2561  0.3734
  118SOL     OW  352   0.206   2.167   1.783  0.2206 -0.1466  0.2258
  118SOL    HW1  353   0.131   2.096   1.771 -0.8524 -0.0021  0.6385
  118SOL    HW2  354   0.259   2.187   1.694  1.1093  0.3673  0.1777
  119SOL     OW  355   1.154   2.245   1.209  0.4765 -0.0681 -0.1721
  119SOL    HW1  356   1.078   2.311   1.202  0.9040 -0.0223  0.9440
  119SOL    HW2  357   1.129   2.145   1.197  1.0374 -1.2194 -0.0890
  120SOL     OW  358   0.323   1.920   1.512 -0.2219  0.3062  0.3812
  120SOL    HW1  359   0.271   1.848   1.568 -0.0356  0.0481  1.4717
  120SOL    HW2  360   0.422   1.917   1.538  1.7312  0.6429 -2.3850
  121SOL     OW  361   2.586   1.400   1.004 -0.0550 -0.5325 -0.1065
  121SOL    HW1  362   2.635   1.436   1.083 -0.0241 -1.6112  0.7989
  121SOL    HW2  363   2.532   1.471   0.954  1.1943 -1.4443  1.8789
  122SOL     OW  364   2.044   1.614   2.590 -0.2358 -0.1171  0.2435
  122SOL    HW1  365   2.039   1.627   2.690  2.4685 -0.6245 -4.0889
  122SOL    HW2  366   2.064   1.703   2.542 -0.3863 -0.8795 -3.0100
  123SOL     OW  367   2.571   2.682   0.596  0.5294 -0.8749 -0.1428
  123SOL    HW1  368   2.665   2.672   0.632 -1.8471  0.2221 -1.9919
  123SOL    HW2  369   2.507   2.663   0.673  0.7178  0.3249  1.1552
  124SOL     OW  370   1.469   1.177   2.827  0.1166  0.7631 -0.4205
  124SOL    HW1  371   1.417   1.200   2.907  0.5173 -0.7026 -0.1153
  124SOL    HW2  372   1.454   1.252   2.764 -0.9749  3.4791 -0.7506
  125SOL     OW  373   0.227   1.467   2.761 -0.3204  0.3093 -0.0277
  125SOL    HW1  374   0.248   1.550   2.705  0.1406 -0.8374 -0.3926
  125SOL    HW2  375   0.308   1.402   2.756 -0.5270  0.5820 -0.6626
  126SOL     OW  376   0.042   2.301   0.323 -0.4054  0.1031  0.6129
  126SOL    HW1  377   0.130   2.289   0.376  0.2734  1.8828  0.4816
  126SOL    HW2  378   3.073   2.206   0.320 -0.1660 -0.9231  1.7144
  127SOL     OW  379   0.235   1.621   0.900  0.5013 -0.2656  0.0203
  127SOL    HW1  380   0.229   1.537   0.953 -0.3715 -1.5074 -0.3617
  127SOL    HW2  381   0.235   1.605   0.799  0.4941  0.1814 -1.6356
  128SOL     OW  382   1.311   1.133   3.064  0.2370  0.0891 -0.3333
  128SOL    HW1  383   1.326   1.048   0.041 -1.1371 -0.2108  0.2039
  128SOL    HW2  384   1.217   1.171   3.070  0.1275  0.7839  1.6648
  129SOL     OW  385   2.290   1.822   1.208  0.0746  0.0803 -0.4482
  129SOL    HW1  386   2.228   1.900   1.218  2.7134 -0.6301 -0.7640
  129SOL    HW2  387   2.340   1.796   1.296  0.2239  0.1206  2.8452
  130SOL     OW  388   1.824   1.202   0.405 -0.2646  0.1642 -0.0506
  130SOL    HW1  389   1.914   1.171   0.364  1.8839  0.2151  0.3898
  130SOL    HW2  390   1.815   1.193   0.507 -1.0583  0.1019 -1.2261
  131SOL     OW  391   2.850   1.275   2.590  0.3355  0.4390  0.1650
  131SOL    HW1  392   2.811   1.231   2.678 -1.5201 -1.7548  0.7193
  131SOL    HW2  393   2.875   1.375   2.599 -2.6998 -0.7838  0.1048
  132SOL     OW  394   1.696   1.766   1.872  0.4117 -0.1984 -0.1367
  132SOL    HW1  395   1.628   1.837   1.866  0.6721  1.1108 -1.6604
  132SOL    HW2  396   1.766   1.773   1.795  0.2694 -3.3234 -0.6539
  133SOL     OW  397   0.097   1.262   0.124  0.0044  0.0612  0.0698
  133SOL    HW1  398   0.084   1.276   0.223 -1.8496  6.7066 -0.1559
  133SOL    HW2  399   0.018   1.216   0.082  1.6374 -2.6407  0.5180
  134SOL     OW  400   2.753   1.086   0.583  0.4099 -0.1350  0.1182
  134SOL    HW1  401   2.666   1.121   0.540  1.7677  1.2499 -0.3083
  134SOL    HW2  402   2.759   1.125   0.678  0.8787 -0.0618 -0.3302
  135SOL     OW  403   2.351   0.965   0.190 -0.1697 -0.0790  0.3265
  135SOL    HW1  404   2.326   1.048   0.241  0.9522  1.1249 -0.4023
  135SOL    HW2  405   2.262   0.915   0.158  0.4332  1.4943  0.9492
  136SOL     OW  406   1.889   1.817   1.665 -0.1034  0.1149 -0.2230
  136SOL    HW1  407   1.927   1.908   1.690 -1.3285  0.9964  0.4059
  136SOL    HW2  408   1.968   1.754   1.643  2.5112 -1.0897  0.3447
  137SOL     OW  409   2.651   2.200   0.634  0.5421 -0.0681 -0.0896
  137SOL    HW1  410   2.670   2.141   0.554  1.2926  0.2561 -0.8292
  137SOL    HW2  411   2.672   2.150   0.720 -1.7731 -2.1382 -1.0926
  138SOL     OW  412   2.113   0.215   1.782 -0.0288 -0.0668  0.5970
  138SOL    HW1  413   2.070   0.303   1.815 -1.6817 -0.2326  2.3499
  138SOL    HW2  414   2.215   0.229   1.769  1.3234 -0.9186 -0.0273
  139SOL     OW  415   2.485   0.211   3.029 -0.0192 -0.1194  0.2483
  139SOL    HW1  416   2.423   0.130   3.050  0.8063  1.8505  1.3520
  139SOL    HW2  417   2.580   0.175   3.011  1.3159  0.0674  1.1285
  140SOL     OW  418   1.417   1.592   2.523  0.2027  0.1176 -0.5295
  140SOL    HW1  419   1.446   1.555   2.430 -1.7469  0.3607  0.2460
  140SOL    HW2  420   1.331   1.648   2.513 -1.8490  0.6934 -0.1811
  141SOL     OW  421   0.681   0.780   2.013 -0.1604 -0.0907 -0.0848
  141SOL    HW1  422   0.585   0.752   2.020  2.6132  0.0540 -0.5862
  141SOL    HW2  423   0.681   0.882   2.008 -1.3268  0.0852 -0.7911
  142SOL     OW  424   2.193   2.597   2.863 -0.1224  0.2566 -0.3453
  142SOL    HW1  425   2.259   2.649   2.923  2.1354 -1.4332 -0.3410
  142SOL    HW2  426   2.176   2.642   2.772 -1.0412 -0.2479 -1.9279
  143SOL     OW  427   0.895   2.062   0.511  0.1354 -0.1780  0.3331
  143SOL    HW1  428   0.835   2.068   0.595  0.0377  0.8135 -1.0007
  143SOL    HW2  429   0.869   1.985   0.451 -0.9322  2.7500 -0.7082
  144SOL     OW  430   0.976   2.588   0.251  0.1409 -0.1239  0.3388
  144SOL    HW1  431   0.937   2.495   0.259 -1.8540  0.7308 -0.6010
  144SOL    HW2  432   0.900   2.646   0.219  1.1007 -0.3371  1.1864
  145SOL     OW  433   1.690   2.043   2.590  0.2984 -0.2988 -0.1780
  145SOL    HW1  434   1.705   2.094   2.678  2.3170  1.3967 -1.5235
  145SOL    HW2  435   1.636   1.955   2.595  0.4151  0.2658  0.3672
  146SOL     OW  436   2.616   2.421   3.024 -0.4110 -0.3030 -0.1911
  146SOL    HW1  437   2.569   2.493   2.963  0.8719 -1.2159 -4.3227
  146SOL    HW2  438   2.589   2.325   2.999 -1.3546 -0.7030 -0.0581
  147SOL     OW  439   0.059   1.347   1.382 -0.7723  0.3091 -0.1271
  147SOL    HW1  440   0.148   1.391   1.410 -0.6625 -2.0604 -0.7509
  147SOL    HW2  441   0.005   1.410   1.331  0.0861 -1.5850  1.1084
  148SOL     OW  442   1.913   2.939   0.064 -0.4599  0.1127 -0.2231
  148SOL    HW1  443   1.834   2.899   0.119 -1.6804 -2.3634 -0.0883
  148SOL    HW2  444   1.877   2.994   3.061  0.6117 -0.1698 -0.8721
  149SOL     OW  445   0.753   1.820   2.687  0.1728  0.1346  0.3006
  149SOL    HW1  446   0.654   1.823   2.684  0.1123 -0.6543  2.2769
  149SOL    HW2  447   0.789   1.799   2.783 -0.4032  1.8220 -0.0154
  150SOL     OW  448   0.278   2.301   0.447  0.1155  0.3898  0.3078
  150SOL    HW1  449   0.360   2.255   0.406 -0.5696  1.8045  0.1092
  150SOL    HW2  450   0.299   2.346   0.536 -0.2065  2.3243 -2.1938
  151SOL     OW  451   0.480   1.255   0.322  0.3813  0.3284 -0.8218
  151SOL    HW1  452   0.414   1.180   0.339 -0.8084 -0.2800  2.3154
  151SOL    HW2  453   0.443   1.320   0.249 -2.0139  3.7709  0.3856
  152SOL     OW  454   2.592   1.697   0.631  0.2318  0.3387 -0.0702
  152SOL    HW1  455   2.524   1.754   0.680  1.4739 -0.2516 -0.4209
  152SOL    HW2  456   2.617   1.735   0.540  1.4802 -0.7760 -0.3523
  153SOL     OW  457   2.062   2.376   0.475  0.4984 -0.2963  0.1746
  153SOL    HW1  458   2.069   2.436   0.395  0.7572  1.2616  0.8864
  153SOL    HW2  459   1.968   2.393   0.514 -1.2924  0.1797  0.2570
  154SOL     OW  460   0.696   2.782   0.919 -0.0543 -0.3072 -0.4304
  154SOL    HW1  461   0.691   2.850   0.846 -0.0428  2.6661 -1.3912
  154SOL    HW2  462   0.614   2.783   0.979 -3.0531  1.1654  0.4809
  155SOL     OW  463   3.037   1.868   0.872  0.2593  0.0894 -0.1928
  155SOL    HW1  464   3.067   1.804   0.801 -1.5426  0.1387  0.3571
  155SOL    HW2  465   3.069   1.966   0.864 -1.7090 -1.2055  0.3415
  156SOL     OW  466   2.332   2.248   0.086  0.0887  0.0473 -0.0811
  156SOL    HW1  467   2.328   2.160   0.139  1.1665 -0.6027  2.5532
  156SOL    HW2  468   2.387   2.318   0.133  1.5295 -0.5300 -1.6668
  157SOL     OW  469   0.583   1.904   1.575  0.0759 -0.1786  0.0466
  157SOL    HW1  470   0.576   1.879   1.675  0.5863 -0.7668  2.6217
  157SOL    HW2  471   0.610   1.828   1.520 -0.7758  2.0144  1.1175
  158SOL     OW  472   1.495   0.784   3.053 -0.6302 -0.2662 -0.2735
  158SOL    HW1  473   1.435   0.701   3.066  1.4381  3.2406  0.9578
  158SOL    HW2  474   1.589   0.768   0.014  0.6455  0.8374 -0.9320
  159SOL     OW  475   1.170   0.865   2.925 -0.0955 -0.8178  0.2884
  159SOL    HW1  476   1.102   0.820   2.988 -2.7505  1.8907 -0.3482
  159SOL    HW2  477   1.259   0.819   2.926 -2.8253 -0.4664  2.5421
  160SOL     OW  478   0.905   1.429   0.456 -0.3661  0.2040  0.0344
  160SOL    HW1  479   0.874   1.485   0.535  1.6453  0.2023  0.4495
  160SOL    HW2  480   1.007   1.423   0.444  2.8841  2.2913 -1.8460
  161SOL     OW  481   0.255   2.145   2.653 -0.3677  0.3996  0.1645
  161SOL    HW1  482   0.154   2.134   2.652 -0.7514 -0.6669 -1.9028
  161SOL    HW2  483   0.294   2.132   2.745 -1.2614 -1.7958 -0.5786
  162SOL     OW  484   0.175   2.365   0.933  0.5232  0.5960  0.1249
  162SOL    HW1  485   0.187   2.306   1.011  0.0627  0.2317 -1.2506
  162SOL    HW2  486   0.251   2.349   0.870  0.4018  1.3287 -0.0640
  163SOL     OW  487   2.880   0.650   2.826 -0.4204  0.1193  0.1767
  163SOL    HW1  488   2.943   0.588   2.774  0.3756  0.0853 -0.4315
  163SOL    HW2  489   2.935   0.690   2.900  1.7429  1.2393  1.6368
  164SOL     OW  490   0.422   0.049   2.823  0.1722 -0.0930 -0.4227
  164SOL    HW1  491   0.380   3.048   2.876 -0.3633 -2.7609  0.2916
  164SOL    HW2  492   0.481   0.014   2.752 -0.9394  0.7394  2.0342
  165SOL     OW  493   2.364   0.345   1.791 -0.0537 -0.4643 -0.0801
  165SOL    HW1  494   2.341   0.418   1.858  1.2397 -1.3502 -0.7331
  165SOL    HW2  495   2.463   0.331   1.791 -2.0782  2.0945  1.4540
  166SOL     OW  496   1.913   2.365   1.636  0.6459  0.3505 -0.1477
  166SOL    HW1  497   1.947   2.266   1.630 -0.6142 -3.6068 -0.7880
  166SOL    HW2  498   1.815   2.368   1.662 -1.1255 -0.2780  1.7104
  167SOL     OW  499   1.125   0.760   2.212  0.2933 -0.7339  0.0443
  167SOL    HW1  500   1.109   0.844   2.269  0.8147  1.8260 -0.5373
  167SOL    HW2  501   1.199   0.709   2.250 -2.8507  0.2463  0.5763
  168SOL     OW  502   2.310   0.066   2.069 -0.3615  0.2655 -0.6370
  168SOL    HW1  503   2.255   0.050   1.983  0.6105  0.7287  1.5179
  168SOL    HW2  504   2.404   0.096   2.048 -1.4213  1.6915  1.4538
  169SOL     OW  505   0.294   1.050   0.291  0.8136 -0.0634  0.1099
  169SOL    HW1  506   0.325   0.953   0.314  0.5568  0.1519  2.7456
  169SOL    HW2  507   0.290   1.052   0.187  1.3096 -0.9330 -0.5329
  170SOL     OW  508   3.030   1.584   1.708 -0.0891 -0.3678  0.1553
  170SOL    HW1  509   2.962   1.637   1.651 -1.0285 -0.9880 -0.9269
  170SOL    HW2  510   2.993   1.538   1.793  0.4106 -0.0130  0.5058
  171SOL     OW  511   1.054   2.265   2.108  0.0596  0.2623  0.1253
  171SOL    HW1  512   0.951   2.280   2.114  1.3912  3.2002 -0.1939
  171SOL    HW2  513   1.089   2.254   2.205 -0.8973  0.6515  0.4036
  172SOL     OW  514   0.752   2.368   2.091 -0.3330  0.2717 -0.0239
  172SOL    HW1  515   0.737   2.390   1.991 -0.3904  2.1073  0.0277
  172SOL    HW2  516   0.740   2.451   2.150 -0.1903 -0.5861 -0.1482
  173SOL     OW  517   1.163   2.644   0.849 -0.3105  0.0032 -0.3917
  173SOL    HW1  518   1.235   2.648   0.924 -1.3141  1.2559  1.2815
  173SOL    HW2  519   1.215   2.628   0.760  0.4954  1.4592 -1.1210
  174SOL     OW  520   2.248   0.260   0.568 -0.1673 -0.2821 -0.0584
  174SOL    HW1  521   2.236   0.282   0.667 -1.3280 -0.2431  3.8752
  174SOL    HW2  522   2.212   0.163   0.558  0.0666 -0.2407  0.6495
  175SOL     OW  523   1.129   1.764   0.435  0.2075  0.2363  0.4414
  175SOL    HW1  524   1.180   1.684   0.472  1.0182  1.9423 -2.1664
  175SOL    HW2  525   1.031   1.770   0.466  2.6971 -1.1675 -0.4358
  176SOL     OW  526   0.987   1.449   0.871  0.1239 -0.3393  0.3469
  176SOL    HW1  527   1.030   1.540   0.889  1.6311  1.5746  0.1297
  176SOL    HW2  528   0.959   1.402   0.961 -0.5678  1.8023 -2.5935
  177SOL     OW  529   1.355   0.862   1.124  0.0335  0.0914 -0.0045
  177SOL    HW1  530   1.314   0.882   1.214  0.5785  0.5526 -1.4029
  177SOL    HW2  531   1.454   0.844   1.134 -3.7395 -2.7082 -0.9438
  178SOL     OW  532   2.737   1.481   0.294 -0.3174  0.3163  0.3808
  178SOL    HW1  533   2.824   1.472   0.341 -2.8102  1.6778 -0.3359
  178SOL    HW2  534   2.684   1.399   0.301  0.8783 -2.0441  0.5842
  179SOL     OW  535   0.632   2.230   3.050  0.5209 -0.0438  0.1992
  179SOL    HW1  536   0.677   2.322   3.055  3.4882  0.2910 -1.3555
  179SOL    HW2  537   0.529   2.234   3.053 -0.4752  0.0415 -1.6762
  180SOL     OW  538   1.759   1.512   1.570 -0.3885 -0.1398  0.2739
  180SOL    HW1  539   1.844   1.558   1.607  0.5341 -0.0042 -1.1783
  180SOL    HW2  540   1.732   1.564   1.488  0.6608  0.4950  0.1277
  181SOL     OW  541   0.912   1.099   2.245  0.0365  0.2210 -0.1691
  181SOL    HW1  542   0.938   1.082   2.149 -1.5224 -0.9049  2.7312
  181SOL    HW2  543   0.991   1.071   2.310 -0.7787  0.4200  1.0120
  182SOL     OW  544   2.889   1.061   2.299  0.0029 -0.3757  0.6405
  182SOL    HW1  545   2.827   1.109   2.359  3.0263 -0.6711 -1.6235
  182SOL    HW2  546   2.851   1.045   2.206  0.6581 -0.9375 -0.3769
  183SOL     OW  547   1.612   0.381   2.242 -0.4444 -0.3662 -0.0971
  183SOL    HW1  548   1.682   0.423   2.176  0.7667 -1.5472  1.1126
  183SOL    HW2  549   1.543   0.328   2.192  1.9208  2.4287 -2.1599
  184SOL     OW  550   0.313   0.692   1.695  0.0702 -0.0471  0.4163
  184SOL    HW1  551   0.303   0.620   1.766  0.8538 -1.1743 -0.6400
  184SOL    HW2  552   0.401   0.745   1.705 -0.1257  0.2171  2.0102
  185SOL     OW  553   2.269   1.767   0.364 -0.2815  0.2675  0.1165
  185SOL    HW1  554   2.344   1.701   0.387 -0.6569 -2.9010  1.2529
  185SOL    HW2  555   2.194   1.761   0.431  0.7294 -2.0292 -0.0176
  186SOL     OW  556   0.536   1.888   3.025  0.2479  0.0383 -0.0754
  186SOL    HW1  557   0.637   1.914   3.033  3.2999  1.3387  0.0959
  186SOL    HW2  558   0.519   1.789   3.037 -0.9699  0.1098  1.1375
  187SOL     OW  559   2.423   1.799   2.975 -0.0261  0.3840 -0.2841
  187SOL    HW1  560   2.447   1.770   2.881  0.0268 -0.9765 -0.2509
  187SOL    HW2  561   2.508   1.819   3.030  1.5301  2.2104  2.0113
  188SOL     OW  562   0.898   2.665   0.771 -0.4889  0.2747 -0.3292
  188SOL    HW1  563   0.991   2.666   0.809  0.8801  2.6257  2.2291
  188SOL    HW2  564   0.828   2.695   0.838  2.9084 -2.0496 -0.0169
  189SOL     OW  565   1.832   0.981   2.384  0.2602 -0.0610 -0.0932
  189SOL    HW1  566   1.797   0.973   2.475  0.4455 -0.8480 -0.4745
  189SOL    HW2  567   1.845   1.081   2.354 -1.7878  0.4009 -1.2376
  190SOL     OW  568   0.949   1.991   2.262  0.0263 -0.2641  0.2078
  190SOL    HW1  569   0.895   1.908   2.239 -2.6910  3.1854  0.9370
  190SOL    HW2  570   0.940   2.025   2.359 -0.4540  0.9404  0.6338
  191SOL     OW  571   2.410   0.623   1.466 -0.5796  0.2840  0.2063
  191SOL    HW1  572   2.335   0.562   1.493  2.6060  1.9638 -0.7637
  191SOL    HW2  573   2.497   0.599   1.514  1.3459 -0.3236  0.8953
  192SOL     OW  574   2.286   0.473   2.214 -0.3239  0.6082 -0.2142
  192SOL    HW1  575   2.367   0.522   2.260  0.6642 -1.2782 -0.1104
  192SOL    HW2  576   2.279   0.378   2.247  2.0501 -0.9959 -0.7590
  193SOL     OW  577   0.693   0.368   0.691  0.3887 -0.1646  0.3077
  193SOL    HW1  578   0.674   0.327   0.599 -0.2975  0.6429  2.2053
  193SOL    HW2  579   0.685   0.306   0.767  0.7459  1.9777 -0.3550
  194SOL     OW  580   1.285   2.478   1.628 -0.2482  0.4860 -0.4206
  194SOL    HW1  581   1.223   2.538   1.690 -1.1592  2.2329  1.5921
  194SOL    HW2  582   1.275   2.381   1.659 -0.2049  0.3719 -2.4281
  195SOL     OW  583   2.647   0.962   0.866  0.0502  0.2617 -0.0846
  195SOL    HW1  584   2.567   0.940   0.929  0.9948 -3.3667  2.5903
  195SOL    HW2  585   2.654   1.059   0.843 -0.5305 -2.5367  2.8605
  196SOL     OW  586   1.252   1.884   1.707 -0.0699 -0.0338  0.0219
  196SOL    HW1  587   1.229   1.910   1.614 -0.4540 -2.3377  1.8459
  196SOL    HW2  588   1.164   1.873   1.761  1.9964  3.7571  1.1017
  197SOL     OW  589   0.353   0.758   2.301 -0.0668 -0.1991 -0.4491
  197SOL    HW1  590   0.385   0.741   2.205  1.6087 -0.3740  1.3744
  197SOL    HW2  591   0.279   0.691   2.332 -1.1441 -2.6480  2.0238
  198SOL     OW  592   1.557   0.974   0.378  0.2824 -0.3841  0.6501
  198SOL    HW1  593   1.539   0.918   0.459  1.5981  2.1995 -2.1349
  198SOL    HW2  594   1.546   1.073   0.401 -1.6050  3.4686 -1.8895
  199SOL     OW  595   2.672   0.493   2.194  0.0019 -0.0898 -0.3282
  199SOL    HW1  596   2.650   0.420   2.134  0.1838  3.1842  0.6672
  199SOL    HW2  597   2.591   0.539   2.241  0.7556 -2.8373 -2.0512
  200SOL     OW  598   2.183   2.485   2.460 -0.2735  0.4643 -0.1752
  200SOL    HW1  599   2.260   2.539   2.415  0.8960  1.1282  0.0143
  200SOL    HW2  600   2.210   2.390   2.493 -1.7331 -1.8657  0.7840
  201SOL     OW  601   2.207   0.082   1.468  0.1041 -0.0318 -0.0556
  201SOL    HW1  602   2.115   0.100   1.500  2.2000 -0.5669 -1.2821
  201SOL    HW2  603   2.218   0.002   1.407  1.9845  2.5685 -0.5855
  202SOL     OW  604   2.176   2.877   0.148 -0.2718  0.3716 -0.4506
  202SOL    HW1  605   2.180   2.854   0.249 -0.1445 -1.2533 -1.8390
  202SOL    HW2  606   2.081   2.901   0.127  1.0955  0.7055  3.2941
  203SOL     OW  607   0.916   2.004   2.553  0.3763  0.5881 -0.1632
  203SOL    HW1  608   0.865   1.936   2.611  1.3905 -1.1573  1.1496
  203SOL    HW2  609   0.881   2.094   2.571  1.3313 -0.9536  0.1009
  204SOL     OW  610   0.852   1.395   2.569  0.2992  0.4706 -0.1216
  204SOL    HW1  611   0.755   1.425   2.602 -2.3304  0.7687  0.1888
  204SOL    HW2  612   0.870   1.302   2.610 -1.2976  0.9260  2.3741
  205SOL     OW  613   1.051   0.851   1.205  0.1326  0.1238  0.6017
  205SOL    HW1  614   1.122   0.800   1.154  2.3140 -0.5734  0.0017
  205SOL    HW2  615   0.963   0.818   1.167 -0.1518 -1.5848  0.2554
  206SOL     OW  616   0.238   0.706   2.648  0.0092  0.1878 -0.7172
  206SOL    HW1  617   0.305   0.782   2.652  0.0843  1.1364  0.3871
  206SOL    HW2  618   0.220   0.676   2.551  1.6280 -0.0750 -3.7712
  207SOL     OW  619   1.906   2.383   1.940 -0.3096  0.5478  0.4854
  207SOL    HW1  620   1.898   2.482   1.964  1.7883  0.3532 -0.2835
  207SOL    HW2  621   1.930   2.372   1.841 -0.2647  0.0283 -2.4145
  208SOL     OW  622   0.899   2.701   1.249 -0.2351 -0.5867 -0.0181
  208SOL    HW1  623   0.868   2.637   1.170  1.6401 -0.3215 -2.0771
  208SOL    HW2  624   0.842   2.689   1.333  1.2413  2.3627 -1.5797
  209SOL     OW  625   1.202   1.529   2.807 -0.6408  0.1433  0.0412
  209SOL    HW1  626   1.191   1.576   2.897 -0.3193  1.3732  0.7873
  209SOL    HW2  627   1.269   1.576   2.748  0.8066  1.0110 -0.5631
  210SOL     OW  628   2.336   0.809   0.856  0.0747  0.3864 -0.3064
  210SOL    HW1  629   2.394   0.852   0.934  3.2873  3.1970  1.0896
  210SOL    HW2  630   2.348   0.865   0.774  1.7565  0.3197  0.0362
  211SOL     OW  631   0.990   2.742   0.506  0.3053 -0.4357 -0.6282
  211SOL    HW1  632   0.928   2.716   0.590 -2.6239  0.1572  4.1154
  211SOL    HW2  633   0.967   2.694   0.422  2.2517  1.1975 -2.2116
  212SOL     OW  634   2.259   2.037   0.652 -0.0978 -0.1309  0.1026
  212SOL    HW1  635   2.160   2.037   0.633  3.0630 -0.3691  2.1152
  212SOL    HW2  636   2.312   2.044   0.563  0.4200  0.4059  0.4151
  213SOL     OW  637   1.842   0.719   2.741 -0.2284 -0.0214  0.4519
  213SOL    HW1  638   1.806   0.646   2.801 -1.5192 -1.1565  1.3192
  213SOL    HW2  639   1.935   0.755   2.759 -0.3854 -2.9054 -2.0108
  214SOL     OW  640   1.033   1.818   1.875 -0.4046 -0.3464 -0.0415
  214SOL    HW1  641   0.936   1.845   1.866  1.6741  0.3106 -0.1005
  214SOL    HW2  642   1.053   1.746   1.943 -1.2388 -1.0394 -1.1831
  215SOL     OW  643   0.558   1.419   0.540  0.1464 -0.1684 -0.2560
  215SOL    HW1  644   0.550   1.335   0.484  2.3549 -0.5151  0.7174
  215SOL    HW2  645   0.631   1.476   0.506 -0.6545  0.9534 -1.2089
  216SOL     OW  646   3.030   2.969   2.402  0.6696 -0.1861  0.3105
  216SOL    HW1  647   0.041   2.998   2.437 -0.9040 -1.5480 -0.4473
  216SOL    HW2  648   3.025   2.994   2.301  2.0219  1.0182 -1.9974
  217SOL     OW  649   2.447   0.843   1.322  0.3019  0.2940  0.1372
  217SOL    HW1  650   2.413   0.765   1.383 -1.3289 -0.2697  3.4243
  217SOL    HW2  651   2.543   0.861   1.348 -1.0879 -1.7337  1.4305
  218SOL     OW  652   1.435   1.838   2.054  0.3604  0.2434  0.4965
  218SOL    HW1  653   1.414   1.826   1.956 -0.4566 -1.0718 -0.6961
  218SOL    HW2  654   1.352   1.885   2.099 -2.9561 -0.8260 -0.1023
  219SOL     OW  655   1.773   1.673   0.096  0.5551 -0.0301 -0.5457
  219SOL    HW1  656   1.780   1.596   0.164  0.5250  0.7115 -1.4780
  219SOL    HW2  657   1.745   1.767   0.131 -1.0638  1.3226  0.5859
  220SOL     OW  658   2.106   0.885   0.111 -0.0020  0.4993  0.2283
  220SOL    HW1  659   2.048   0.967   0.092  1.0098 -0.4752 -0.6837
  220SOL    HW2  660   2.078   0.810   0.047 -0.8266  0.3662 -0.6011
  221SOL     OW  661   0.040   0.502   0.144 -0.1231  0.1821 -0.0303
  221SOL    HW1  662   0.055   0.585   0.199 -1.8622 -0.0278  1.2426
  221SOL    HW2  663   0.074   0.511   0.047  1.1753 -2.1306  1.0256
  222SOL     OW  664   1.474   1.819   0.680  0.1742 -0.1177 -0.4596
  222SOL    HW1  665   1.568   1.778   0.688  0.7719 -2.6170 -0.3493
  222SOL    HW2  666   1.471   1.912   0.721 -1.0612  0.9721  1.7089
  223SOL     OW  667   0.896   0.091   3.001  0.3070 -0.4096 -0.3190
  223SOL    HW1  668   0.979   0.106   3.062  0.7143  0.6889 -0.4060
  223SOL    HW2  669   0.901   3.069   2.970  1.0367  1.3208  0.4572
  224SOL     OW  670   1.764   3.066   1.321  0.0871 -0.5274  0.2511
  224SOL    HW1  671   1.673   3.019   1.307 -1.2132  0.4022 -0.7231
  224SOL    HW2  672   1.841   3.006   1.296  2.6797 -0.3218  0.7084
  225SOL     OW  673   0.552   2.219   1.278  0.3547 -0.1059 -0.3343
  225SOL    HW1  674   0.581   2.313   1.247  3.0565 -0.4142  0.3517
  225SOL    HW2  675   0.605   2.199   1.365  0.8156 -0.7442  1.2207
  226SOL     OW  676   1.002   1.711   0.203 -0.3639 -0.3839  0.2947
  226SOL    HW1  677   1.015   1.766   0.119  1.2885 -2.0759  0.7611
  226SOL    HW2  678   1.053   1.747   0.280  0.0890 -1.6922  0.2332
  227SOL     OW  679   0.964   1.654   1.147  0.4994  0.2568 -0.2373
  227SOL    HW1  680   0.895   1.585   1.123  1.5337  1.9431 -1.1404
  227SOL    HW2  681   0.932   1.725   1.210 -1.5687  0.1891  0.5709
  228SOL     OW  682   0.240   1.587   0.629  0.2907 -0.4355  0.3101
  228SOL    HW1  683   0.181   1.556   0.553  1.7044 -2.1064  0.9201
  228SOL    HW2  684   0.289   1.673   0.604  2.3746  0.5293  0.2624
  229SOL     OW  685   1.892   0.326   2.605 -0.1435 -0.3117  0.3811
  229SOL    HW1  686   1.951   0.245   2.609 -2.0572  1.6512 -0.5378
  229SOL    HW2  687   1.803   0.304   2.560  1.6932  0.9660  3.4558
  230SOL     OW  688   1.853   1.207   2.779 -0.6955  0.1222  0.4235
  230SOL    HW1  689   1.807   1.293   2.811 -0.4705  2.9530 -1.9725
  230SOL    HW2  690   1.867   1.145   2.856 -1.5937 -1.2661  0.2904
  231SOL     OW  691   1.169   1.728   2.480 -0.1898 -0.7014 -0.0552
  231SOL    HW1  692   1.078   1.691   2.455  1.7694  0.7409  0.3791
  231SOL    HW2  693   1.194   1.810   2.429 -1.2203  2.1398  3.7874
  232SOL     OW  694   2.413   2.059   0.425  0.2075 -0.5357  0.8391
  232SOL    HW1  695   2.514   2.063   0.418  0.5660  0.8741 -1.0343
  232SOL    HW2  696   2.384   2.028   0.332  1.1124  0.8836 -1.3880
  233SOL     OW  697   2.917   2.493   0.379  0.0717 -0.3042 -0.5600
  233SOL    HW1  698   2.999   2.431   0.364 -1.2419 -0.3114 -0.2954
  233SOL    HW2  699   2.851   2.498   0.303 -0.3890  1.7006 -3.0066
  234SOL     OW  700   0.559   0.667   2.748 -0.2049 -0.6686 -0.4009
  234SOL    HW1  701   0.558   0.712   2.654 -0.5294 -1.2286 -1.9181
  234SOL    HW2  702   0.629   0.699   2.814  1.2395  2.7975  1.2378
  235SOL     OW  703   2.732   0.227   2.789 -0.2057  0.4788  0.6433
  235SOL    HW1  704   2.713   0.326   2.818 -0.9945  0.1063 -0.6038
  235SOL    HW2  705   2.745   0.169   2.875  2.7293 -1.4027  3.1042
  236SOL     OW  706   1.755   2.352   1.147 -0.7900  0.1713 -0.2769
  236SOL    HW1  707   1.783   2.306   1.235  0.6064  0.4575  1.8056
  236SOL    HW2  708   1.807   2.316   1.071  1.0287 -1.5211 -1.7302
  237SOL     OW  709   0.870   1.738   2.234 -0.0154 -0.2725 -0.0297
  237SOL    HW1  710   0.955   1.720   2.186 -0.1767  0.3049 -1.1485
  237SOL    HW2  711   0.871   1.700   2.327  0.7790 -1.3259 -1.0086
  238SOL     OW  712   1.284   0.160   2.531  0.2931 -0.2240 -0.1026
  238SOL    HW1  713   1.298   0.095   2.606 -1.2781 -0.7637 -2.0050
  238SOL    HW2  714   1.316   0.123   2.441  0.0689  1.1105 -3.3631
  239SOL     OW  715   0.284   1.974   1.935 -0.3553  0.0665  0.3235
  239SOL    HW1  716   0.361   1.997   2.000 -1.3882 -0.9660 -0.5052
  239SOL    HW2  717   0.244   2.061   1.893 -0.4704  0.8208 -3.0552
  240SOL     OW  718   2.332   2.334   0.390 -0.1262 -0.2773  0.4362
  240SOL    HW1  719   2.243   2.349   0.434  1.1225 -0.8688 -0.1007
  240SOL    HW2  720   2.347   2.230   0.399 -1.5851 -1.6413  0.9884
  241SOL     OW  721   2.442   0.944   1.055  0.1055 -0.4348  0.4712
  241SOL    HW1  722   2.436   0.897   1.146 -0.8213 -1.1398  0.8169
  241SOL    HW2  723   2.406   1.040   1.055 -0.5076  2.3948  0.2933
  242SOL     OW  724   2.206   2.404   2.186 -0.3643  0.0414 -0.1402
  242SOL    HW1  725   2.167   2.317   2.142  0.1496 -0.6740 -0.9066
  242SOL    HW2  726   2.185   2.415   2.282 -2.3120  0.1766 -0.3544
  243SOL     OW  727   0.669   2.669   1.734  0.4701  0.3054 -0.4397
  243SOL    HW1  728   0.571   2.705   1.727 -3.5651 -3.0085  0.0735
  243SOL    HW2  729   0.730   2.749   1.741 -1.6003  1.0721 -0.7072
  244SOL     OW  730   2.080   0.524   2.728  0.4819  0.2170  0.4487
  244SOL    HW1  731   2.001   0.479   2.677 -2.8271 -3.3644  0.1910
  244SOL    HW2  732   2.139   0.576   2.664 -0.3600 -1.3287  2.4697
  245SOL     OW  733   1.480   0.292   1.314 -0.0944 -0.0198 -0.0948
  245SOL    HW1  734   1.407   0.279   1.381  3.4608  1.1878 -0.3026
  245SOL    HW2  735   1.465   0.244   1.228  2.1490 -0.0395  0.6951
  246SOL     OW  736   1.726   2.479   3.030  0.4270 -0.1658 -0.2534
  246SOL    HW1  737   1.809   2.448   2.981 -1.0853  0.6816 -0.6514
  246SOL    HW2  738   1.666   2.546   2.979 -3.2019  1.5808  0.6344
  247SOL     OW  739   1.253   0.507   2.302 -0.6244 -0.2163 -0.1558
  247SOL    HW1  740   1.205   0.455   2.378 -0.8493 -1.9121 -1.1381
  247SOL    HW2  741   1.349   0.541   2.331  1.1376  1.0435  1.3008
  248SOL     OW  742   0.545   1.850   1.841  0.0813 -0.2855  0.0438
  248SOL    HW1  743   0.570   1.762   1.884  0.9970  1.1877 -2.2901
  248SOL    HW2  744   0.456   1.887   1.870 -0.4800 -0.0720  1.3551
  249SOL     OW  745   2.506   0.358   0.576 -0.0029 -0.2398  0.0523
  249SOL    HW1  746   2.563   0.338   0.494 -1.6733 -1.4789  0.5313
  249SOL    HW2  747   2.420   0.293   0.580 -0.6276 -1.1191 -0.7621
  250SOL     OW  748   2.690   0.486   2.916 -0.3032 -0.3443 -0.3486
  250SOL    HW1  749   2.732   0.438   2.997  1.2077 -1.1115 -0.8532
  250SOL    HW2  750   2.757   0.556   2.877  0.8512 -2.2463  0.1970
  251SOL     OW  751   1.299   0.598   3.038  0.3556 -0.3309 -0.0745
  251SOL    HW1  752   1.314   0.554   2.947  0.2591  0.5809  1.1817
  251SOL    HW2  753   1.200   0.587   3.061 -2.7728 -0.2133  1.0170
  252SOL     OW  754   1.806   2.045   1.941 -0.3257 -0.1353 -0.6743
  252SOL    HW1  755   1.719   2.097   1.945 -1.7628  0.6195  1.2761
  252SOL    HW2  756   1.821   1.983   2.024 -0.4094 -2.0986  0.4899
  253SOL     OW  757   2.294   2.425   1.126  0.7600 -0.4036  1.1830
  253SOL    HW1  758   2.272   2.518   1.092 -0.8250 -0.3333 -1.2664
  253SOL    HW2  759   2.293   2.407   1.231 -2.6127  0.3743  5.7081
  254SOL     OW  760   2.652   1.236   0.807  0.0841 -0.9089  0.1697
  254SOL    HW1  761   2.627   1.285   0.893 -1.6993  0.9139  1.7180
  254SOL    HW2  762   2.691   1.299   0.736  1.5694 -2.0774  0.5076
  255SOL     OW  763   1.383   0.182   1.080  0.5216  0.2022 -0.3310
  255SOL    HW1  764   1.305   0.136   1.042  2.0960 -0.1042 -0.3319
  255SOL    HW2  765   1.445   0.225   1.015 -0.8485  2.0516  0.6806
  256SOL     OW  766   1.371   2.292   1.371 -0.2433 -0.0265 -0.0314
  256SOL    HW1  767   1.355   2.351   1.447  2.8754  2.2857 -1.1570
  256SOL    HW2  768   1.288   2.257   1.325  2.5246  0.1143 -1.3279
  257SOL     OW  769   0.644   3.054   2.622 -1.1288 -0.1586 -0.5851
  257SOL    HW1  770   0.733   0.027   2.619 -0.7014 -2.1625  2.2785
  257SOL    HW2  771   0.597   3.032   2.532 -0.3616 -0.0777  0.7538
  258SOL     OW  772   0.828   2.423   0.643  0.1579  0.2872  0.5319
  258SOL    HW1  773   0.849   2.518   0.676 -0.0030  3.3164  1.7441
  258SOL    HW2  774   0.904   2.376   0.598 -0.3167  0.4566  3.3540
  259SOL     OW  775   1.427   0.151   2.803  0.4354  0.3416  0.1564
  259SOL    HW1  776   1.335   0.153   2.844  1.5805 -0.0128 -0.7102
  259SOL    HW2  777   1.447   0.228   2.737  1.0848  0.6435 -1.1251
  260SOL     OW  778   2.436   0.209   1.485  0.0259  0.6692 -0.0823
  260SOL    HW1  779   2.336   0.183   1.466  1.3814 -4.3443  0.4490
  260SOL    HW2  780   2.468   0.167   1.573 -0.8731 -1.7273 -0.6033
  261SOL     OW  781   0.669   0.532   2.470  0.2966  0.1661 -0.0497
  261SOL    HW1  782   0.615   0.616   2.494 -1.0547 -0.1427 -0.9256
  261SOL    HW2  783   0.758   0.559   2.433  2.8523 -0.1811  2.2040
  262SOL     OW  784   0.550   2.328   2.311  0.3305 -0.2487  0.3014
  262SOL    HW1  785   0.471   2.314   2.245 -1.7046  0.8460 -0.7611
  262SOL    HW2  786   0.607   2.409   2.290  0.5097  1.1562 -1.9477
  263SOL     OW  787   0.230   1.671   2.580  0.1800 -0.5303  0.5624
  263SOL    HW1  788   0.169   1.750   2.572 -0.0336 -2.0245 -1.8688
  263SOL    HW2  789   0.211   1.609   2.499 -1.8032 -0.9055 -0.7291
  264SOL     OW  790   1.204   1.357   0.751  0.0945  0.2401  0.2151
  264SOL    HW1  791   1.265   1.310   0.824  1.8005 -0.0313  0.2432
  264SOL    HW2  792   1.107   1.364   0.787  0.5156  3.1565  2.3417
  265SOL     OW  793   1.388   2.856   0.727 -0.6321  0.1265 -0.4304
  265SOL    HW1  794   1.378   2.754   0.699  0.0701 -3.1990  0.0103
  265SOL    HW2  795   1.455   2.864   0.806 -0.3021 -2.8364  2.0350
  266SOL     OW  796   1.718   0.660   1.338  0.0907 -0.0896 -0.0025
  266SOL    HW1  797   1.704   0.574   1.286 -1.1014  1.6412 -0.1183
  266SOL    HW2  798   1.809   0.701   1.320  2.8247  0.4248 -1.0445
  267SOL     OW  799   2.557   1.258   2.724  0.4168  0.0032 -0.0287
  267SOL    HW1  800   2.468   1.205   2.709 -1.4415  0.5797  1.5925
  267SOL    HW2  801   2.640   1.205   2.757  0.0012 -0.4666  1.3731
  268SOL     OW  802   1.496   0.330   0.123 -0.0963  0.0793 -0.4068
  268SOL    HW1  803   1.545   0.280   0.201  1.5365 -0.0704  4.4063
  268SOL    HW2  804   1.395   0.333   0.138  1.1508  1.0400 -0.3138
  269SOL     OW  805   2.889   0.815   2.465 -0.0212 -0.3631  0.0887
  269SOL    HW1  806   2.972   0.823   2.525  0.4922 -2.2909 -0.1870
  269SOL    HW2  807   2.887   0.894   2.403  1.0367  1.5761 -0.0327
  270SOL     OW  808   0.115   1.507   0.372  0.3474 -0.2724  0.0294
  270SOL    HW1  809   0.152   1.414   0.381 -1.3487  2.3662 -1.8871
  270SOL    HW2  810   0.151   1.557   0.289  1.9085  1.1560 -3.4107
  271SOL     OW  811   2.367   1.044   2.917  0.0041  0.0025  0.1228
  271SOL    HW1  812   2.359   1.053   2.816 -0.2583  0.2820  0.2944
  271SOL    HW2  813   2.404   0.959   2.956  0.1707  0.2023  1.8155
  272SOL     OW  814   2.962   2.457   2.309 -0.3897  0.0052  0.0479
  272SOL    HW1  815   3.058   2.485   2.344 -0.8929  1.0529  0.2656
  272SOL    HW2  816   2.917   2.394   2.379 -3.7006  0.0249  2.0568
  273SOL     OW  817   0.129   0.051   0.477 -0.0699  0.5649 -0.5309
  273SOL    HW1  818   0.062   0.020   0.549 -1.6327  1.0690 -0.4848
  273SOL    HW2  819   0.153   0.152   0.490 -0.0728  2.8647 -0.9107
  274SOL     OW  820   0.756   2.016   0.943 -0.1210 -0.2201 -0.1954
  274SOL    HW1  821   0.748   2.008   1.042  0.4496 -1.3414  1.2332
  274SOL    HW2  822   0.852   2.049   0.924  0.8079  2.9883  0.6801
  275SOL     OW  823   2.389   1.012   0.631  0.0753 -0.0545 -0.2529
  275SOL    HW1  824   2.288   1.031   0.628  1.2619  0.4149 -0.7653
  275SOL    HW2  825   2.441   1.094   0.593  1.6016  0.1739 -0.3692
  276SOL     OW  826   2.496   1.424   1.490  0.5008  0.2406  0.3000
  276SOL    HW1  827   2.481   1.333   1.462  0.3554  2.8768 -0.0555
  276SOL    HW2  828   2.591   1.439   1.531 -0.1178  1.3220 -1.4113
  277SOL     OW  829   2.400   2.959   0.843  0.0235 -0.4594  0.3431
  277SOL    HW1  830   2.405   3.059   0.859  0.4804 -0.5143 -0.6388
  277SOL    HW2  831   2.408   2.909   0.930 -0.1148  0.5482 -4.3442
  278SOL     OW  832   1.548   3.009   2.178 -0.5109  0.3333 -0.6870
  278SOL    HW1  833   1.553   2.911   2.156  0.2290 -0.7898  0.2707
  278SOL    HW2  834   1.630   3.033   2.238  1.0083  0.5552  1.9327
  279SOL     OW  835   1.381   2.644   1.017 -0.0300  0.1127 -0.0498
  279SOL    HW1  836   1.445   2.711   0.979  0.3870 -1.8993  0.6943
  279SOL    HW2  837   1.430   2.582   1.084  1.2376  0.4333  1.2464
  280SOL     OW  838   0.858   1.159   0.796  0.3366  0.1430  0.5508
  280SOL    HW1  839   0.887   1.174   0.892 -0.1176 -1.2488  0.8357
  280SOL    HW2  840   0.769   1.211   0.788  0.6580 -0.9637 -2.7747
  281SOL     OW  841   2.460   1.440   2.901 -0.0988  0.5639  0.2835
  281SOL    HW1  842   2.503   1.366   2.846  0.0594 -2.3464  1.2078
  281SOL    HW2  843   2.482   1.530   2.860  0.3679 -1.9869 -0.0367
  282SOL     OW  844   0.169   1.242   0.443  0.3909 -0.6368  0.5818
  282SOL    HW1  845   0.193   1.156   0.395 -4.5220  0.5044  2.0710
  282SOL    HW2  846   0.226   1.255   0.525  0.2694 -0.4014 -1.1822
  283SOL     OW  847   1.830   2.779   2.717 -0.0911  0.2270  0.0775
  283SOL    HW1  848   1.850   2.856   2.654 -2.9228  1.3478 -1.1789
  283SOL    HW2  849   1.867   2.690   2.677 -1.9405  0.4525 -1.7141
  284SOL     OW  850   1.088   0.094   0.105  0.1571  0.4833 -0.1573
  284SOL    HW1  851   1.132   0.023   0.163  0.4044  0.2378  1.0917
  284SOL    HW2  852   1.138   0.182   0.127  0.0513  3.3761 -1.1886
  285SOL     OW  853   2.180   1.360   2.500 -0.3301  0.2333  0.1352
  285SOL    HW1  854   2.172   1.457   2.526 -0.7606  1.9909  1.9222
  285SOL    HW2  855   2.187   1.340   2.399 -2.5189  0.7246 -2.4360
  286SOL     OW  856   1.492   2.456   0.823  0.3327 -0.1441  0.2017
  286SOL    HW1  857   1.453   2.397   0.895 -1.6257 -0.0272  0.0488
  286SOL    HW2  858   1.541   2.396   0.755  2.5437 -0.0655  2.0749
  287SOL     OW  859   1.671   0.928   0.814 -0.6316 -0.0396  0.4660
  287SOL    HW1  860   1.670   1.019   0.846  0.6382 -0.8135  0.9749
  287SOL    HW2  861   1.616   0.913   0.733 -0.1315  2.3809  0.4949
  288SOL     OW  862   0.743   2.699   2.482  0.2507 -0.0371 -0.3911
  288SOL    HW1  863   0.758   2.714   2.582 -2.1622  1.3686 -0.8220
  288SOL    HW2  864   0.775   2.788   2.435 -1.6543  3.3979 -1.8044
  289SOL     OW  865   0.259   1.340   0.964  0.2250  0.3718  0.0176
  289SOL    HW1  866   0.285   1.277   1.039 -2.3821  1.1702 -0.3788
  289SOL    HW2  867   0.155   1.328   0.958  0.8767  0.0686 -1.2804
  290SOL     OW  868   1.109   2.374   0.841  0.1670 -0.2500 -0.4031
  290SOL    HW1  869   1.105   2.477   0.856 -1.1686  1.9568 -0.6758
  290SOL    HW2  870   1.105   2.343   0.742 -0.1674  0.7578 -2.2564
  291SOL     OW  871   1.547   3.062   0.305 -0.2462  0.0696  0.4394
  291SOL    HW1  872   1.510   3.037   0.397 -1.2765 -0.4984 -0.4794
  291SOL    HW2  873   1.602   0.069   0.311  0.1323  0.0787  1.8626
  292SOL     OW  874   0.448   0.311   2.228  0.0768 -0.3058 -0.5882
  292SOL    HW1  875   0.352   0.327   2.254  1.4281 -0.0348  1.2472
  292SOL    HW2  876   0.503   0.332   2.312 -1.4254 -0.7739 -2.9885
  293SOL     OW  877   2.759   1.596   0.832 -0.2666 -0.4141  0.0472
  293SOL    HW1  878   2.699   1.662   0.786  1.8804 -0.1097  0.3239
  293SOL    HW2  879   2.702   1.535   0.888  0.0262  0.5338 -1.5590
  294SOL     OW  880   0.858   0.118   2.176  0.5164  0.0868 -0.1773
  294SOL    HW1  881   0.757   0.094   2.171  1.3427 -0.9947  1.2258
  294SOL    HW2  882   0.916   0.062   2.119 -0.0003 -1.9180 -1.3207
  295SOL     OW  883   1.132   1.697   0.928  0.4442 -0.3155  0.0330
  295SOL    HW1  884   1.229   1.686   0.957  0.2272 -0.3402 -1.4667
  295SOL    HW2  885   1.068   1.688   1.008 -0.7361 -0.2405  2.3571
  296SOL     OW  886   2.445   1.544   0.331  0.4194 -0.0175 -0.1315
  296SOL    HW1  887   2.410   1.573   0.238 -2.3607  2.3735  2.1102
  296SOL    HW2  888   2.543   1.543   0.340 -0.4401 -0.2692 -0.1540
  297SOL     OW  889   2.319   3.032   3.014  0.0813 -0.1829  0.3051
  297SOL    HW1  890   2.291   2.992   0.028 -0.4966  0.2334  1.3419
  297SOL    HW2  891   2.411   3.008   2.982  0.1002 -0.5873 -1.9367
  298SOL     OW  892   0.938   0.207   2.768  0.1673  0.3226  0.7293
  298SOL    HW1  893   0.959   0.305   2.769 -2.0667  0.5379 -0.0807
  298SOL    HW2  894   0.901   0.167   2.858 -0.2874  0.6468 -0.0617
  299SOL     OW  895   0.690   2.578   2.248 -0.0971 -0.2551 -0.1011
  299SOL    HW1  896   0.624   2.636   2.186 -0.5926  1.1238 -2.5035
  299SOL    HW2  897   0.709   2.626   2.335 -0.0860 -1.6993  2.6310
  300SOL     OW  898   2.739   2.844   2.274  0.2732  0.3208 -0.3273
  300SOL    HW1  899   2.660   2.905   2.283  2.2416  0.4771  0.1704
  300SOL    HW2  900   2.818   2.891   2.319 -1.0731 -0.2458  0.6319
  301SOL     OW  901   1.578   0.405   1.594 -0.3978  0.9600 -0.5021
  301SOL    HW1  902   1.486   0.442   1.568  0.4697  0.7114  0.3998
  301SOL    HW2  903   1.603   0.321   1.536  0.6713 -2.6255 -0.0827
  302SOL     OW  904   0.221   2.457   3.052  0.3096  0.1926  0.3158
  302SOL    HW1  905   0.250   2.485   0.065 -3.9023 -0.7668 -1.4179
  302SOL    HW2  906   0.304   2.466   2.996  1.3426  1.0431 -0.0043
  303SOL     OW  907   1.803   2.266   1.409 -0.0448 -0.4974 -0.8091
  303SOL    HW1  908   1.716   2.227   1.442  0.6899 -1.6849  0.3420
  303SOL    HW2  909   1.834   2.344   1.464  2.6465 -0.1809  0.4466
  304SOL     OW  910   2.690   0.907   1.386 -0.8083  0.5333 -0.4493
  304SOL    HW1  911   2.754   0.877   1.311 -2.6873 -0.6929 -2.7231
  304SOL    HW2  912   2.727   0.902   1.481  1.5980  0.1101  3.1318
  305SOL     OW  913   0.640   1.315   0.780  0.7484 -0.1418  0.2236
  305SOL    HW1  914   0.634   1.344   0.875  1.3237 -3.5594 -0.2474
  305SOL    HW2  915   0.601   1.377   0.707  3.7410  1.1251 -1.8348
  306SOL     OW  916   0.439   1.295   2.776  0.3587 -0.3861  0.0817
  306SOL    HW1  917   0.483   1.259   2.859 -0.9269 -0.0182 -3.2775
  306SOL    HW2  918   0.463   1.244   2.687 -0.2993 -1.2767 -3.0826
  307SOL     OW  919   0.911   0.179   1.555  0.3064 -0.2044  0.4248
  307SOL    HW1  920   0.920   0.080   1.533  1.3907  3.6000 -0.0151
  307SOL    HW2  921   0.913   0.193   1.658  1.2951 -1.6773  1.9803
  308SOL     OW  922   0.129   0.739   0.991 -0.0036  0.1477  0.1416
  308SOL    HW1  923   0.043   0.724   0.936 -1.1667  1.9854  0.8606
  308SOL    HW2  924   0.213   0.728   0.930  0.2409 -0.2393 -0.9982
  309SOL     OW  925   2.379   1.226   1.059  0.7608 -0.4027 -0.4142
  309SOL    HW1  926   2.298   1.255   1.011  1.4571  0.2188 -0.5549
  309SOL    HW2  927   2.460   1.291   1.050  0.1032  0.8197 -1.1809
  310SOL     OW  928   0.477   1.748   2.691 -0.3352 -0.1928 -0.1684
  310SOL    HW1  929   0.402   1.701   2.631  0.0560 -0.0581 -3.2004
  310SOL    HW2  930   0.442   1.835   2.724  0.3570  0.9679  0.9216
  311SOL     OW  931   2.416   2.593   2.352  0.1944  0.5542 -0.0013
  311SOL    HW1  932   2.474   2.598   2.268 -0.2278  1.3993  2.4633
  311SOL    HW2  933   2.467   2.636   2.428 -0.9267  0.9440 -2.6583
  312SOL     OW  934   2.142   1.958   2.970  0.3568  0.4991 -0.5140
  312SOL    HW1  935   2.115   1.886   3.042 -1.3967 -0.2443  2.9168
  312SOL    HW2  936   2.239   1.935   2.944  1.4336 -0.2313  0.8671
  313SOL     OW  937   0.422   0.140   0.483 -0.3089 -0.1726 -0.1047
  313SOL    HW1  938   0.476   0.200   0.423 -0.1114 -1.9410 -2.6045
  313SOL    HW2  939   0.383   0.062   0.436  3.6109  1.3717  2.3920
  314SOL     OW  940   2.083   1.143   2.638  0.1945  0.1788 -0.0236
  314SOL    HW1  941   2.010   1.179   2.699 -3.0251 -0.0337  1.0679
  314SOL    HW2  942   2.112   1.222   2.584 -2.2665 -1.1274  0.3720
  315SOL     OW  943   1.636   0.279   2.477  0.3990  0.7008  0.3274
  315SOL    HW1  944   1.570   0.322   2.539  1.4545  1.6352  0.4247
  315SOL    HW2  945   1.621   0.309   2.378 -1.7735 -0.1490 -5.8847
  316SOL     OW  946   3.026   0.921   0.749 -0.5186 -0.4784 -0.2122
  316SOL    HW1  947   2.993   0.840   0.705 -0.0542  4.2338  0.5156
  316SOL    HW2  948   2.998   0.934   0.846 -0.9942 -0.5246 -0.2483
  317SOL     OW  949   0.491   2.771   2.919 -0.2969 -0.0691 -0.2445
  317SOL    HW1  950   0.399   2.812   2.914  0.0670 -0.6662  2.3162
  317SOL    HW2  951   0.543   2.820   2.991 -1.9190 -0.5664 -2.8324
  318SOL     OW  952   2.399   2.556   0.766 -0.5992  0.0886 -0.6244
  318SOL    HW1  953   2.403   2.463   0.723 -1.9850  2.3123  0.1651
  318SOL    HW2  954   2.457   2.558   0.851  0.9472 -0.7880 -0.7059
  319SOL     OW  955   1.105   1.823   2.770  0.1191  0.1060 -0.3589
  319SOL    HW1  956   1.176   1.890   2.740 -0.9612 -3.0045  2.9924
  319SOL    HW2  957   1.072   1.774   2.687 -0.3398  0.2907  1.5156
  320SOL     OW  958   0.618   1.703   1.411  0.8424 -0.3021  0.5465
  320SOL    HW1  959   0.650   1.607   1.426  0.5995  0.4997 -0.0211
  320SOL    HW2  960   0.559   1.701   1.328 -1.1458 -1.6086 -0.8197
  321SOL     OW  961   1.065   2.679   2.034  0.2155 -0.2441 -0.3248
  321SOL    HW1  962   0.963   2.690   2.026 -2.6497  1.6331 -0.5315
  321SOL    HW2  963   1.104   2.770   2.041 -1.0891 -2.4157 -2.2763
  322SOL     OW  964   2.387   1.746   2.184  0.1200 -0.0344  0.1841
  322SOL    HW1  965   2.387   1.656   2.231 -2.4421  1.5652  0.1138
  322SOL    HW2  966   2.480   1.784   2.175 -2.1365 -0.3940 -0.9854
  323SOL     OW  967   2.787   0.396   0.734  0.0207 -0.3876  0.3782
  323SOL    HW1  968   2.683   0.395   0.724 -1.8057  0.0532 -2.3168
  323SOL    HW2  969   2.809   0.386   0.833  1.3404  2.2568  0.9328
  324SOL     OW  970   2.862   2.625   2.573 -0.1776 -0.1216  0.3010
  324SOL    HW1  971   2.906   2.590   2.656 -0.8441  0.3742 -1.0939
  324SOL    HW2  972   2.874   2.554   2.505  4.0115  1.2056  3.6909
  325SOL     OW  973   1.095   0.355   2.455 -0.0488  0.4710  0.1096
  325SOL    HW1  974   1.156   0.294   2.502  4.0691 -0.6497  2.1754
  325SOL    HW2  975   1.004   0.313   2.450  0.3358  1.5813  1.2902
  326SOL     OW  976   2.091   2.508   1.468 -0.2777  0.3142  0.6383
  326SOL    HW1  977   2.144   2.585   1.507 -0.2074 -0.5486 -2.3462
  326SOL    HW2  978   2.037   2.455   1.537 -0.2929  0.6716 -1.4802
  327SOL     OW  979   2.304   0.075   0.230 -0.0551  0.7363  0.3671
  327SOL    HW1  980   2.356   0.161   0.214  1.1523 -0.1981 -0.9886
  327SOL    HW2  981   2.273   0.065   0.321 -1.0643  2.0410 -3.2446
  328SOL     OW  982   0.339   1.266   1.865 -0.0450  0.0803 -0.0356
  328SOL    HW1  983   0.409   1.273   1.942 -1.0766 -1.1323  0.3440
  328SOL    HW2  984   0.268   1.335   1.880  1.3147 -1.8173 -1.4576
  329SOL     OW  985   2.222   0.459   1.585 -0.0853  0.1133 -0.6672
  329SOL    HW1  986   2.158   0.445   1.661  0.6252 -0.4942 -1.0765
  329SOL    HW2  987   2.316   0.436   1.621 -0.3516  2.5557  1.5155
  330SOL     OW  988   0.155   0.979   1.113  0.3913  0.3297  0.1223
  330SOL    HW1  989   0.074   1.043   1.137 -2.3443  0.0643  0.9579
  330SOL    HW2  990   0.124   0.894   1.059  0.0570 -4.0804  0.2075
  331SOL     OW  991   0.778   1.451   2.059  0.3271  0.2609  0.0325
  331SOL    HW1  992   0.861   1.440   2.005  0.3371 -0.9012  0.3055
  331SOL    HW2  993   0.801   1.463   2.158 -1.6388 -2.3422 -1.6308
  332SOL     OW  994   0.188   2.652   1.589  0.3131 -0.6590 -1.2257
  332SOL    HW1  995   0.167   2.723   1.522  1.3471 -0.1162  2.4852
  332SOL    HW2  996   0.205   2.564   1.537  1.8478 -1.3445 -1.4372
  333SOL     OW  997   2.427   0.137   0.955  0.2135  0.4016  0.4556
  333SOL    HW1  998   2.530   0.140   0.964 -3.0071  0.4027 -0.8152
  333SOL    HW2  999   2.390   0.164   1.047  1.5739  0.3991 -3.1364
  334SOL     OW 1000   0.327   1.304   0.687 -0.7739 -0.8407 -0.0148
  334SOL    HW1 1001   0.366   1.395   0.662 -0.7860  0.1826 -0.4008
  334SOL    HW2 1002   0.283   1.305   0.780 -1.1067 -0.3595  0.2357
  335SOL     OW 1003   0.202   2.630   2.774  0.0213 -0.0902  0.1140
  335SOL    HW1 1004   0.232   2.724   2.755  4.3921 -2.0174 -0.2438
  335SOL    HW2 1005   0.220   2.604   2.873 -1.2892 -1.4798 -0.0188
  336SOL     OW 1006   2.935   2.697   2.171  0.9135 -0.2294  0.2455
  336SOL    HW1 1007   2.933   2.603   2.210 -0.8528  2.6775  3.0372
  336SOL    HW2 1008   2.852   2.742   2.208 -0.2488  0.8531 -0.1905
  337SOL     OW 1009   1.983   2.099   1.726  0.1617 -0.7429  0.0833
  337SOL    HW1 1010   1.931   2.086   1.815  1.0017  1.9143 -1.6830
  337SOL    HW2 1011   2.082   2.118   1.740  1.7017  0.1810 -0.4841
  338SOL     OW 1012   0.708   0.412   2.856 -0.1043 -0.3754  0.3307
  338SOL    HW1 1013   0.668   0.342   2.917 -0.4968  1.1080  0.6848
  338SOL    HW2 1014   0.635   0.464   2.814  2.4471  0.4992 -1.9593
  339SOL     OW 1015   0.553   1.257   2.066  0.5777 -0.3517  0.5047
  339SOL    HW1 1016   0.516   1.248   2.163  0.3458  0.3848  1.1964
  339SOL    HW2 1017   0.625   1.328   2.061  1.2263  2.3433 -1.0709
  340SOL     OW 1018   1.806   3.044   0.740 -0.2381 -0.0853 -0.8550
  340SOL    HW1 1019   1.781   2.957   0.785  3.6665  0.5453 -1.0758
  340SOL    HW2 1020   1.737   0.043   0.737  0.7923  0.9905 -2.4169
  341SOL     OW 1021   1.943   1.120   0.974  0.0516 -0.1640 -0.1222
  341SOL    HW1 1022   1.888   1.097   0.894  1.2265 -0.0093 -0.4339
  341SOL    HW2 1023   1.997   1.038   0.998  1.4192  1.0222 -1.3140
  342SOL     OW 1024   2.335   2.728   3.066 -0.6042 -0.1305 -0.3892
  342SOL    HW1 1025   2.278   2.789   0.051 -0.9348 -2.1706  0.6523
  342SOL    HW2 1026   2.397   2.671   0.046 -1.9140  0.1568 -2.0096
  343SOL     OW 1027   0.944   2.214   1.502  0.0274  0.1074  0.4877
  343SOL    HW1 1028   0.943   2.279   1.581 -1.4188 -1.3797 -1.6512
  343SOL    HW2 1029   0.924   2.270   1.419  2.0196  3.4313 -1.2020
  344SOL     OW 1030   2.337   2.350   1.394 -0.2513  0.2109  0.1978
  344SOL    HW1 1031   2.263   2.389   1.448  3.6113  0.7229  1.6639
  344SOL    HW2 1032   2.424   2.374   1.442  0.0677 -1.1945 -1.2063
  345SOL     OW 1033   2.664   1.871   3.075  0.7601  0.2788  0.1347
  345SOL    HW1 1034   2.721   1.909   3.000  0.8087 -0.6932 -0.6846
  345SOL    HW2 1035   2.719   1.805   0.049  0.6074  1.2051 -1.5656
  346SOL     OW 1036   2.055   2.102   0.939  0.7040 -0.3371  0.2539
  346SOL    HW1 1037   2.130   2.164   0.906 -1.7593  0.3865 -0.0845
  346SOL    HW2 1038   1.970   2.157   0.921  0.3558  1.5865 -0.6502
  347SOL     OW 1039   1.383   1.974   1.102 -0.4318 -0.2790 -0.5474
  347SOL    HW1 1040   1.390   2.042   1.030  0.9950 -1.6939  2.5719
  347SOL    HW2 1041   1.283   1.964   1.122  1.8560 -0.0141 -0.7659
  348SOL     OW 1042   0.596   1.785   2.317  0.0017 -0.0853  0.0604
  348SOL    HW1 1043   0.592   1.885   2.348 -0.1493  2.6943  0.0098
  348SOL    HW2 1044   0.675   1.775   2.247  0.9763  1.0776 -1.7759
  349SOL     OW 1045   1.956   1.550   0.778  0.6671 -0.2746  0.0031
  349SOL    HW1 1046   1.954   1.525   0.875 -0.1751 -0.9257 -3.0282
  349SOL    HW2 1047   1.996   1.480   0.717  1.3420 -0.4704 -2.1230
  350SOL     OW 1048   2.799   2.444   0.629 -0.0412 -0.1320 -0.2522
  350SOL    HW1 1049   2.752   2.350   0.624 -3.0716  0.2379  2.1078
  350SOL    HW2 1050   2.832   2.461   0.537 -2.1008  1.4087  1.0144
  351SOL     OW 1051   0.414   2.778   1.695  0.5498  0.1000  0.2894
  351SOL    HW1 1052   0.450   2.853   1.639 -1.2763 -0.7754  1.1418
  351SOL    HW2 1053   0.334   2.727   1.646 -4.9050 -0.8786 -4.6297
  352SOL     OW 1054   0.479   1.454   1.217 -0.5289  0.0894 -0.5984
  352SOL    HW1 1055   0.502   1.367   1.166  0.3023  1.7434 -1.6348
  352SOL    HW2 1056   0.428   1.424   1.301  0.5920  0.9122  0.6039
  353SOL     OW 1057   1.138   1.386   2.188 -0.3615 -0.6325  0.7048
  353SOL    HW1 1058   1.045   1.369   2.225  0.9773 -2.2759  0.2370
  353SOL    HW2 1059   1.209   1.353   2.251  0.0615 -2.7872 -0.1629
  354SOL     OW 1060   1.335   3.036   1.930  0.4704 -0.3198  0.5592
  354SOL    HW1 1061   1.296   3.067   1.842 -1.7844 -2.0563  0.4099
  354SOL    HW2 1062   1.431   3.066   1.937 -1.1832 -0.3380 -0.6839
  355SOL     OW 1063   2.512   1.232   0.496 -0.6806 -0.6028 -0.4699
  355SOL    HW1 1064   2.571   1.310   0.528  2.9132  1.3161 -0.3849
  355SOL    HW2 1065   2.532   1.214   0.395  0.4539  0.1880 -1.2761
  356SOL     OW 1066   2.853   1.708   1.540  0.0307  0.1452 -0.3493
  356SOL    HW1 1067   2.755   1.741   1.541 -0.8101 -0.2444  1.0571
  356SOL    HW2 1068   2.918   1.771   1.498  2.3655 -0.0475  1.8637
  357SOL     OW 1069   0.381   2.725   1.301 -0.3638  0.0012 -0.1015
  357SOL    HW1 1070   0.329   2.668   1.237  1.8851  0.5200  0.4286
  357SOL    HW2 1071   0.321   2.785   1.355  2.6838 -2.5243 -0.0174
  358SOL     OW 1072   2.655   1.498   1.802  0.4093 -0.0481 -0.0076
  358SOL    HW1 1073   2.678   1.504   1.703  1.2142  1.3391  0.4387
  358SOL    HW2 1074   2.564   1.536   1.826 -0.5235  0.4193 -1.7194
  359SOL     OW 1075   2.215   2.821   2.657 -0.7196 -0.2685  0.6458
  359SOL    HW1 1076   2.150   2.792   2.583 -0.2220  0.7895  0.1309
  359SOL    HW2 1077   2.166   2.871   2.736 -0.3518 -1.2357  0.8428
  360SOL     OW 1078   0.955   0.446   0.744  0.3176 -0.0178 -0.3667
  360SOL    HW1 1079   1.026   0.417   0.676 -2.7706  1.1005  0.5130
  360SOL    HW2 1080   0.864   0.399   0.724 -1.2955 -0.7223  0.7935
  361SOL     OW 1081   2.113   0.111   1.001 -0.1729 -0.0032  1.2171
  361SOL    HW1 1082   2.174   0.192   0.992  1.9264 -0.0552 -0.0740
  361SOL    HW2 1083   2.167   0.031   1.039  0.7164 -0.0523 -4.8926
  362SOL     OW 1084   1.899   1.259   1.267  0.6481 -0.1923 -0.8852
  362SOL    HW1 1085   1.942   1.319   1.196 -2.3852  0.4117 -0.5588
  362SOL    HW2 1086   1.956   1.263   1.350  0.8217 -1.8114 -1.2375
  363SOL     OW 1087   2.183   1.345   2.238  0.1730  0.5633 -0.2191
  363SOL    HW1 1088   2.144   1.436   2.214  0.1144  0.8189 -0.8098
  363SOL    HW2 1089   2.249   1.313   2.168  1.4409 -0.7648  3.1010
  364SOL     OW 1090   0.269   0.210   1.066 -0.4154 -0.4150  0.1072
  364SOL    HW1 1091   0.173   0.235   1.098 -1.5052 -2.3101 -0.9798
  364SOL    HW2 1092   0.288   0.115   1.102  1.6215 -0.4294  0.1328
  365SOL     OW 1093   0.616   0.168   2.957 -0.3550 -0.4472 -0.4769
  365SOL    HW1 1094   0.551   0.144   2.883  3.0143  0.7395  2.1370
  365SOL    HW2 1095   0.699   0.106   2.963  2.1384 -0.6706  0.2037
  366SOL     OW 1096   1.951   2.388   2.853  0.5280 -0.4883  0.2077
  366SOL    HW1 1097   1.942   2.452   2.776  0.3693 -0.3969  1.1941
  366SOL    HW2 1098   2.022   2.430   2.915  2.0788  1.8156  1.2799
  367SOL     OW 1099   2.903   2.379   2.944 -0.1095  0.7322 -0.4270
  367SOL    HW1 1100   2.804   2.374   2.957  0.9784 -0.3825 -1.1577
  367SOL    HW2 1101   2.949   2.334   3.027  1.0965 -1.9248  1.0665
  368SOL     OW 1102   0.066   1.133   1.527  0.3397 -0.1200  0.4698
  368SOL    HW1 1103   0.067   1.208   1.459  0.0806 -0.5601  0.4958
  368SOL    HW2 1104   0.160   1.110   1.557 -2.7836 -0.6677  1.2465
  369SOL     OW 1105   0.891   2.907   2.950  0.1565 -0.0003  0.7553
  369SOL    HW1 1106   0.980   2.886   2.996  0.1984  0.1450 -0.0511
  369SOL    HW2 1107   0.859   2.836   2.884 -0.9585 -0.8300 -0.2815
  370SOL     OW 1108   2.787   0.820   0.482  0.0649  0.7567  0.1626
  370SOL    HW1 1109   2.756   0.912   0.511  0.7368  0.9009 -1.2886
  370SOL    HW2 1110   2.713   0.762   0.519  0.7068  1.5968 -1.0414
  371SOL     OW 1111   1.588   2.278   0.621  0.2743 -0.2905 -0.0675
  371SOL    HW1 1112   1.578   2.191   0.669  0.8380  1.6692 -0.6795
  371SOL    HW2 1113   1.566   2.268   0.521  2.0706  1.2978  2.3031
  372SOL     OW 1114   0.022   0.847   2.611  0.5464  0.2547  0.0672
  372SOL    HW1 1115   0.117   0.812   2.629 -0.0981  0.8418  0.7160
  372SOL    HW2 1116   0.012   0.943   2.648 -1.0314 -2.3191 -0.4183
  373SOL     OW 1117   2.967   1.562   1.253  0.0662  0.1190 -0.1581
  373SOL    HW1 1118   2.974   1.655   1.300 -0.0814  0.8997 -1.2106
  373SOL    HW2 1119   2.981   1.553   1.151 -2.2372 -2.4433  0.5192
  374SOL     OW 1120   0.673   2.902   0.023 -0.5708 -0.1860 -0.1623
  374SOL    HW1 1121   0.659   3.000   0.061  0.1859  1.8025 -0.6947
  374SOL    HW2 1122   0.765   2.900   3.047  1.2653 -0.1674 -0.7247
  375SOL     OW 1123   0.151   2.923   0.081  0.1554  0.0727  0.1147
  375SOL    HW1 1124   0.193   3.010   0.109  2.3282  3.1924  1.0229
  375SOL    HW2 1125   0.053   2.927   0.109  0.5046  0.9415 -2.7299
  376SOL     OW 1126   0.122   2.237   1.514 -0.1962 -0.2369  0.0536
  376SOL    HW1 1127   0.031   2.217   1.559 -0.7853 -4.4386 -1.1428
  376SOL    HW2 1128   0.154   2.169   1.446 -0.0204 -1.4389  1.6328
  377SOL     OW 1129   1.481   2.306   2.676 -0.0136 -0.3356 -0.4200
  377SOL    HW1 1130   1.566   2.279   2.719 -2.1940 -0.0878  2.0704
  377SOL    HW2 1131   1.479   2.270   2.582  5.2447  0.5209 -2.6260
  378SOL     OW 1132   0.418   0.334   3.013 -0.5416 -0.0324 -0.3985
  378SOL    HW1 1133   0.447   0.432   2.997 -0.5958  1.8591  0.1719
  378SOL    HW2 1134   0.487   0.268   2.987 -0.9045  1.3730  1.4605
  379SOL     OW 1135   0.667   1.025   0.333  0.3522 -0.0622 -0.3561
  379SOL    HW1 1136   0.734   1.081   0.386  0.0026 -2.3862  1.5699
  379SOL    HW2 1137   0.597   1.077   0.276 -3.8903 -0.6259  1.6423
  380SOL     OW 1138   3.012   1.776   1.960 -0.3063 -0.4730 -0.4787
  380SOL    HW1 1139   2.987   1.680   1.951  0.3624  0.4118 -0.9519
  380SOL    HW2 1140   0.029   1.779   1.988 -1.4655  0.0657 -1.2589
  381SOL     OW 1141   0.311   0.976   1.904 -0.1422  0.6565 -0.3259
  381SOL    HW1 1142   0.373   1.056   1.891  1.5678 -1.7296  0.2824
  381SOL    HW2 1143   0.236   0.960   1.835  0.0916 -0.6195 -3.0240
  382SOL     OW 1144   2.313   1.984   0.189  0.0997  0.1548 -0.3345
  382SOL    HW1 1145   2.300   1.906   0.251  0.7745 -0.3497 -0.0651
  382SOL    HW2 1146   2.267   1.959   0.102  2.2947 -0.2754 -2.3548
  383SOL     OW 1147   2.827   1.946   2.874 -0.2504 -0.3258  0.2595
  383SOL    HW1 1148   2.919   1.908   2.904 -0.4429  0.1798  0.5275
  383SOL    HW2 1149   2.841   2.034   2.822 -0.0278  2.3749 -2.9248
  384SOL     OW 1150   0.538   2.367   2.578 -0.0365  0.4189  0.2610
  384SOL    HW1 1151   0.443   2.398   2.587  3.0289 -0.8915  0.2796
  384SOL    HW2 1152   0.558   2.356   2.478 -0.2105  3.0006 -0.7937
  385SOL     OW 1153   3.026   1.173   1.137 -0.2579  0.0728 -0.3521
  385SOL    HW1 1154   3.048   1.216   1.225 -0.3684 -1.9908 -1.8468
  385SOL    HW2 1155   3.025   1.242   1.062 -0.1803  0.0112  2.3224
  386SOL     OW 1156   1.994   1.741   1.283 -0.0905 -0.4020 -0.4639
  386SOL    HW1 1157   2.054   1.731   1.364 -1.0519 -0.0265  0.5381
  386SOL    HW2 1158   2.028   1.810   1.211  0.8284  1.2084  1.3856
  387SOL     OW 1159   2.662   1.241   1.896 -0.3090  0.1802  0.1054
  387SOL    HW1 1160   2.630   1.175   1.822  0.9916  0.7805  0.0967
  387SOL    HW2 1161   2.676   1.330   1.850  0.0769  0.4421 -0.4381
  388SOL     OW 1162   2.641   1.311   2.162  0.3477  0.2654  0.1862
  388SOL    HW1 1163   2.651   1.229   2.222 -1.2362 -0.6006  0.2560
  388SOL    HW2 1164   2.656   1.284   2.065  0.5171 -0.6734 -1.4263
  389SOL     OW 1165   2.045   1.271   1.849  0.2679 -0.0483 -0.3098
  389SOL    HW1 1166   2.026   1.197   1.914 -1.6235 -0.5935 -0.8414
  389SOL    HW2 1167   2.140   1.302   1.839 -1.2211  1.5358 -2.1804
  390SOL     OW 1168   1.556   2.608   0.310 -0.8051 -0.7386 -0.5969
  390SOL    HW1 1169   1.623   2.544   0.272 -0.4687 -0.6072 -0.0132
  390SOL    HW2 1170   1.593   2.639   0.396 -0.3290  0.0987 -1.7909
  391SOL     OW 1171   2.438   1.864   0.778  0.9112 -0.6522  0.8078
  391SOL    HW1 1172   2.478   1.912   0.856 -0.3479 -1.9046 -1.2922
  391SOL    HW2 1173   2.366   1.924   0.732 -0.7330  1.5585 -0.7539
  392SOL     OW 1174   3.008   2.448   1.013 -0.1608  0.0611  0.3622
  392SOL    HW1 1175   0.018   2.407   0.975  2.0631 -1.5145 -0.5877
  392SOL    HW2 1176   3.016   2.541   1.054 -0.2107 -1.1876  1.1789
  393SOL     OW 1177   1.738   1.995   2.950 -0.1334 -0.2638  0.3420
  393SOL    HW1 1178   1.806   1.937   2.897  1.3207 -3.6798 -0.4590
  393SOL    HW2 1179   1.724   1.970   3.048  0.9238  0.2279  0.3871
  394SOL     OW 1180   0.107   0.144   2.716  0.4631  0.4819  0.0290
  394SOL    HW1 1181   0.186   0.188   2.675 -3.4172 -0.1997  1.7237
  394SOL    HW2 1182   0.113   0.140   2.818  0.2526  2.5232 -2.7376
  395SOL     OW 1183   0.842   0.887   0.831 -0.0454 -0.3050  0.5935
  395SOL    HW1 1184   0.921   0.839   0.795 -4.0564  3.3609 -0.0769
  395SOL    HW2 1185   0.853   0.989   0.822  1.3106  2.3044 -1.5858
  396SOL     OW 1186   1.217   1.104   0.374  0.0889  0.4187  0.3518
  396SOL    HW1 1187   1.207   1.045   0.456 -2.0067  1.7091  1.1866
  396SOL    HW2 1188   1.304   1.087   0.335 -0.5684 -0.7113 -0.8817
  397SOL     OW 1189   0.410   0.748   2.023 -0.2356 -0.1276  0.1390
  397SOL    HW1 1190   0.380   0.838   1.977 -0.4593  3.1185  0.2324
  397SOL    HW2 1191   0.346   0.673   2.001 -1.8251  1.2356 -2.0143
  398SOL     OW 1192   1.203   0.145   0.521  0.1619 -0.1251 -0.3757
  398SOL    HW1 1193   1.302   0.110   0.532  1.5666 -2.0491  0.7681
  398SOL    HW2 1194   1.139   0.070   0.505 -2.5648  1.3107 -2.2303
  399SOL     OW 1195   2.026   2.905   1.650  0.4050 -0.1044 -0.3656
  399SOL    HW1 1196   1.951   2.852   1.701 -3.1741  1.6017 -0.6624
  399SOL    HW2 1197   1.991   2.998   1.626  0.3698 -2.8959 -0.8935
  400SOL     OW 1198   1.112   1.698   2.113  0.1293  0.3790 -0.4696
  400SOL    HW1 1199   1.177   1.759   2.163 -1.1477 -0.1176  0.6751
  400SOL    HW2 1200   1.120   1.604   2.152 -0.6267 -1.8445  3.7921
  401SOL     OW 1201   0.647   1.018   2.819  0.1884  0.1068 -0.4765
  401SOL    HW1 1202   0.704   0.938   2.837 -0.4352  0.6493 -0.4448
  401SOL    HW2 1203   0.627   1.060   2.909 -0.1905 -0.1417  0.8379
  402SOL     OW 1204   2.917   1.932   1.105  0.0598  0.6513  0.3948
  402SOL    HW1 1205   2.961   1.905   1.014  1.1978 -1.5462 -1.1065
  402SOL    HW2 1206   2.819   1.893   1.108 -2.7971 -1.8183 -0.7185
  403SOL     OW 1207   0.137   0.940   2.119 -0.1370  0.5166 -0.1036
  403SOL    HW1 1208   0.114   1.009   2.189 -1.1596  0.7297  0.6001
  403SOL    HW2 1209   0.181   0.981   2.037  0.7928  2.1920 -0.1388
  404SOL     OW 1210   0.068   2.610   1.857 -0.4377 -0.3713  0.0564
  404SOL    HW1 1211   0.136   2.623   1.776  0.4084  1.0376 -1.9858
  404SOL    HW2 1212   3.049   2.628   1.822 -0.0126 -2.7899 -2.2497
  405SOL     OW 1213   0.499   0.416   1.995  0.0239 -0.3275 -0.5985
  405SOL    HW1 1214   0.416   0.472   1.971  0.4385  0.0410 -2.2229
  405SOL    HW2 1215   0.487   0.362   2.083 -0.0886  0.8310 -1.9530
  406SOL     OW 1216   1.596   2.083   2.205  0.2310 -0.3949 -0.2198
  406SOL    HW1 1217   1.572   2.095   2.107 -0.6227  1.9533  1.8654
  406SOL    HW2 1218   1.602   1.988   2.233 -1.6612  1.3948 -1.9615
  407SOL     OW 1219   1.316   1.259   2.337 -0.2957  0.0249  0.2292
  407SOL    HW1 1220   1.347   1.226   2.426  1.1508  0.5660  0.4324
  407SOL    HW2 1221   1.340   1.188   2.267  1.1107  2.8147  0.1221
  408SOL     OW 1222   0.860   0.168   2.435  0.2796 -0.3664  0.2188
  408SOL    HW1 1223   0.843   0.156   2.331  0.2876  2.9794 -2.5342
  408SOL    HW2 1224   0.934   0.104   2.465  0.0406  0.7603 -0.5471
  409SOL     OW 1225   0.421   1.879   0.398 -0.1227 -0.6408 -0.2103
  409SOL    HW1 1226   0.500   1.834   0.354  1.6276 -0.2387 -1.2643
  409SOL    HW2 1227   0.452   1.971   0.437  0.6248  0.6949  0.3147
  410SOL     OW 1228   2.938   1.217   0.421  0.6995  0.3542  0.2961
  410SOL    HW1 1229   3.022   1.169   0.386  0.7903  0.4521  0.8818
  410SOL    HW2 1230   2.878   1.151   0.475 -1.2335 -0.8909  0.8204
  411SOL     OW 1231   2.986   0.021   1.066  0.1749 -0.6312  0.1556
  411SOL    HW1 1232   2.900   0.050   1.022  1.0959 -0.8278 -0.6447
  411SOL    HW2 1233   2.984   0.051   1.163  1.8510 -1.6449  0.1748
  412SOL     OW 1234   1.618   0.894   1.340  0.3189  0.0903 -0.1969
  412SOL    HW1 1235   1.705   0.938   1.316 -1.6941  1.1118 -0.3893
  412SOL    HW2 1236   1.638   0.790   1.332  2.5703 -1.7665  1.5759
  413SOL     OW 1237   0.611   2.913   1.512  0.6236  0.0697  0.4236
  413SOL    HW1 1238   0.621   2.981   1.437  1.2456 -3.5150  1.5566
  413SOL    HW2 1239   0.624   2.819   1.477  0.0464  0.1816  0.9289
  414SOL     OW 1240   2.879   1.554   2.660 -0.5821 -0.2774  0.2161
  414SOL    HW1 1241   2.813   1.634   2.648 -1.6477 -0.9830 -1.5102
  414SOL    HW2 1242   2.870   1.527   2.759 -1.4205  1.1765  1.7720
  415SOL     OW 1243   0.446   2.517   2.916  0.1593 -0.6568 -0.4405
  415SOL    HW1 1244   0.518   2.466   2.869 -1.6284  0.0835  1.0227
  415SOL    HW2 1245   0.464   2.616   2.927 -1.1699 -0.5987 -0.9112
  416SOL     OW 1246   1.891   2.956   0.502 -0.5018 -0.1654  0.1770
  416SOL    HW1 1247   1.866   2.980   0.602  0.9866  0.8252 -1.3845
  416SOL    HW2 1248   1.838   3.009   0.432 -2.9096  0.5788 -2.5399
  417SOL     OW 1249   0.339   0.658   0.840  0.3825 -0.0219  0.3091
  417SOL    HW1 1250   0.425   0.712   0.824 -1.3451 -2.8127 -0.4318
  417SOL    HW2 1251   0.352   0.562   0.876  0.6618 -0.1900  1.0193
  418SOL     OW 1252   2.527   0.406   1.299  1.4573  0.5204  0.4529
  418SOL    HW1 1253   2.502   0.502   1.301 -0.7925 -1.4137 -1.2563
  418SOL    HW2 1254   2.498   0.365   1.388 -3.3802  0.1938 -0.3895
  419SOL     OW 1255   2.903   0.105   0.385 -0.6131 -0.0940  0.3821
  419SOL    HW1 1256   2.978   0.161   0.349  2.7317  1.6884 -0.2724
  419SOL    HW2 1257   2.918   0.074   0.482 -2.1351 -1.6432 -1.7686
  420SOL     OW 1258   0.392   1.529   1.682 -0.0168 -0.4863  0.5230
  420SOL    HW1 1259   0.492   1.546   1.706 -0.8133  0.9289 -0.0508
  420SOL    HW2 1260   0.369   1.438   1.715  2.4453  3.8222 -1.3987
  421SOL     OW 1261   1.080   2.988   0.445  0.5259  0.3955  0.1911
  421SOL    HW1 1262   1.050   2.892   0.461  2.2517 -1.1543  1.4921
  421SOL    HW2 1263   1.152   2.997   0.377 -2.4596 -0.3405  0.1901
  422SOL     OW 1264   0.174   0.549   1.516 -0.4473  0.3490  0.1607
  422SOL    HW1 1265   0.239   0.614   1.559  1.5663 -0.5211  0.6287
  422SOL    HW2 1266   0.144   0.581   1.423 -2.1173  2.9338  1.9783
  423SOL     OW 1267   1.206   1.055   1.316  0.3891  0.0915  0.5848
  423SOL    HW1 1268   1.179   1.072   1.416  0.6831  0.8924  0.7992
  423SOL    HW2 1269   1.151   0.987   1.267 -2.0200  0.3799  0.1164
  424SOL     OW 1270   1.994   1.587   2.860  0.0689  0.3087 -0.2582
  424SOL    HW1 1271   2.072   1.530   2.894  1.4622 -0.8801 -0.2182
  424SOL    HW2 1272   1.911   1.530   2.865 -0.4686 -0.8209 -1.2209
  425SOL     OW 1273   3.036   0.332   2.087 -0.2462 -0.1169 -0.3453
  425SOL    HW1 1274   3.032   0.258   2.162  2.7697 -0.0928  1.2458
  425SOL    HW2 1275   3.008   0.420   2.125  0.7365 -1.4841 -1.5922
  426SOL     OW 1276   0.264   2.919   2.908  0.1748 -0.3275 -0.3223
  426SOL    HW1 1277   0.224   2.925   3.005  0.3084 -1.1087  0.9989
  426SOL    HW2 1278   0.194   2.919   2.837  0.8103  1.2707  0.7829
  427SOL     OW 1279   1.167   1.148   2.596  0.2315  0.0504  0.4918
  427SOL    HW1 1280   1.204   1.243   2.617 -0.9994  0.0276 -0.8721
  427SOL    HW2 1281   1.129   1.109   2.682 -0.1370  0.8095  2.2484
  428SOL     OW 1282   2.560   1.097   1.693  0.2762 -0.0073 -0.0674
  428SOL    HW1 1283   2.489   1.018   1.695 -3.7551 -1.6114  1.7593
  428SOL    HW2 1284   2.575   1.119   1.592 -0.8991  0.1983 -1.9049
  429SOL     OW 1285   2.145   2.632   0.701 -0.1755  0.1439 -0.3413
  429SOL    HW1 1286   2.244   2.621   0.724 -0.1274  2.7553  0.4664
  429SOL    HW2 1287   2.108   2.547   0.653 -1.5973  0.0659 -1.2141
  430SOL     OW 1288   0.891   1.363   2.305 -0.4519  0.1749  0.1981
  430SOL    HW1 1289   0.853   1.271   2.284 -2.1879  0.3565 -0.0928
  430SOL    HW2 1290   0.893   1.376   2.405  0.4819 -0.2713 -0.0616
  431SOL     OW 1291   2.757   1.454   1.535  0.5436  0.1785 -0.1543
  431SOL    HW1 1292   2.817   1.536   1.525  3.7105  1.4213 -1.4154
  431SOL    HW2 1293   2.813   1.368   1.531 -1.8411  1.9855  1.1251
  432SOL     OW 1294   1.010   2.724   2.339 -0.2147  0.2987 -0.6228
  432SOL    HW1 1295   1.044   2.704   2.249  0.1337 -0.4845  0.3605
  432SOL    HW2 1296   0.967   2.639   2.376  0.9088 -0.2422  0.5133
  433SOL     OW 1297   2.018   0.163   2.419  0.5595  0.1144  0.6478
  433SOL    HW1 1298   2.114   0.170   2.385  0.4591  1.9601  0.3568
  433SOL    HW2 1299   1.951   0.202   2.347 -3.1841  1.5130 -2.1529
  434SOL     OW 1300   0.427   2.747   2.360 -0.3259 -0.8673 -0.4558
  434SOL    HW1 1301   0.454   2.696   2.444  2.2298  0.4715  2.1948
  434SOL    HW2 1302   0.358   2.700   2.297 -2.0217 -2.1596 -0.8423
  435SOL     OW 1303   3.027   2.753   0.417 -0.6206 -0.2029  0.2782
  435SOL    HW1 1304   3.020   2.790   0.510  1.1385 -2.0060 -1.8002
  435SOL    HW2 1305   2.976   2.664   0.408 -0.8237  0.9087  0.9412
  436SOL     OW 1306   0.861   0.591   1.952 -0.4218 -0.3164  0.0331
  436SOL    HW1 1307   0.798   0.667   1.988 -0.7859  1.0883  2.0468
  436SOL    HW2 1308   0.871   0.512   2.021 -1.2096  0.5659 -0.2379
  437SOL     OW 1309   0.097   2.567   2.447  0.2488 -0.8189 -0.1710
  437SOL    HW1 1310   0.161   2.503   2.491 -2.6586  3.1288 -3.1256
  437SOL    HW2 1311   0.112   2.662   2.482 -0.1793  2.0409 -0.1003
  438SOL     OW 1312   0.763   1.245   1.729  0.4826 -0.1320  0.2215
  438SOL    HW1 1313   0.729   1.330   1.773 -0.4617 -0.7068 -3.3875
  438SOL    HW2 1314   0.763   1.162   1.790 -1.8041 -2.5231  3.0839
  439SOL     OW 1315   2.299   1.014   2.127 -0.4437  0.3654 -0.2223
  439SOL    HW1 1316   2.236   0.997   2.205  0.5537  0.7421 -2.6379
  439SOL    HW2 1317   2.294   1.111   2.098 -0.1491 -0.7743 -0.6954
  440SOL     OW 1318   0.372   0.772   0.336  0.1658 -0.6090  0.2378
  440SOL    HW1 1319   0.453   0.752   0.279 -0.6812 -0.4459  0.5353
  440SOL    HW2 1320   0.361   0.708   0.412 -3.4800 -0.8044 -1.1421
  441SOL     OW 1321   0.708   2.654   1.473  0.2404  0.5973  0.0276
  441SOL    HW1 1322   0.697   2.623   1.572 -0.5510 -0.9113  2.7898
  441SOL    HW2 1323   0.661   2.594   1.407  0.8597  2.8342  1.4827
  442SOL     OW 1324   2.396   1.392   0.700 -0.6122 -0.4690  0.3440
  442SOL    HW1 1325   2.343   1.410   0.616 -0.0987  1.0826  0.4885
  442SOL    HW2 1326   2.467   1.317   0.693  2.1910 -0.6197 -0.1978
  443SOL     OW 1327   2.660   1.892   2.427  0.4002 -0.5737  0.1882
  443SOL    HW1 1328   2.594   1.971   2.418 -1.7282  2.0396 -1.1579
  443SOL    HW2 1329   2.649   1.832   2.342 -1.2619 -1.5163 -1.3571
  444SOL     OW 1330   1.565   1.548   3.010 -0.4603 -0.0061 -0.7944
  444SOL    HW1 1331   1.649   1.584   3.050 -1.6350  2.0000 -0.8728
  444SOL    HW2 1332   1.492   1.610   3.043  3.0873 -1.0549 -3.1713
  445SOL     OW 1333   2.632   2.608   2.171 -0.4650  0.2152 -0.1421
  445SOL    HW1 1334   2.691   2.568   2.097 -0.9247 -2.7603  2.3151
  445SOL    HW2 1335   2.680   2.691   2.205  0.5536 -1.3279 -2.5245
  446SOL     OW 1336   0.475   0.933   1.538 -0.1756 -0.1643  0.4523
  446SOL    HW1 1337   0.525   0.941   1.453 -0.2418  0.7241  1.8311
  446SOL    HW2 1338   0.532   0.906   1.621  3.4483 -0.8405  1.4119
  447SOL     OW 1339   0.918   1.235   1.056 -0.8302  0.0518 -0.3044
  447SOL    HW1 1340   1.007   1.258   1.109  1.0364 -0.6295  2.1131
  447SOL    HW2 1341   0.853   1.180   1.108 -1.1374  0.1605 -0.8535
  448SOL     OW 1342   1.190   1.138   1.591  0.1522 -0.0125 -0.7078
  448SOL    HW1 1343   1.256   1.179   1.655 -0.1110 -0.3464 -0.8259
  448SOL    HW2 1344   1.162   1.041   1.619 -0.4782 -2.9535  0.7002
  449SOL     OW 1345   0.030   2.061   2.313  0.2297 -0.3731  0.4763
  449SOL    HW1 1346   0.015   2.118   2.223  0.1274  2.0113 -3.8468
  449SOL    HW2 1347   0.127   2.044   2.327 -1.5955 -1.0791  2.3358
  450SOL     OW 1348   2.786   1.934   1.896  0.5424  0.1402  0.2292
  450SOL    HW1 1349   2.814   2.030   1.895  0.5096  0.9249 -0.9247
  450SOL    HW2 1350   2.870   1.875   1.909 -0.3350 -2.1548  1.9927
  451SOL     OW 1351   2.165   0.907   1.293 -0.0630  0.6800 -0.4608
  451SOL    HW1 1352   2.101   0.833   1.326 -2.2893  0.2080  1.5583
  451SOL    HW2 1353   2.257   0.895   1.330  1.4113  0.8865 -1.5030
  452SOL     OW 1354   0.570   1.231   1.443  0.6720 -0.3697  0.1453
  452SOL    HW1 1355   0.661   1.183   1.455  0.2106 -1.6179 -1.7514
  452SOL    HW2 1356   0.495   1.174   1.480  4.2446  0.5142 -0.2776
  453SOL     OW 1357   0.593   1.227   1.091 -0.4430 -0.4097 -0.3868
  453SOL    HW1 1358   0.504   1.174   1.098  1.5119  0.7488 -2.0524
  453SOL    HW2 1359   0.671   1.187   1.146  3.4368 -0.7221 -2.0502
  454SOL     OW 1360   0.512   1.618   0.015 -0.0034  0.0694 -0.0420
  454SOL    HW1 1361   0.608   1.595   0.034 -1.9929 -2.0199  0.2105
  454SOL    HW2 1362   0.451   1.539   3.070 -1.1476  0.0881 -1.0832
  455SOL     OW 1363   1.942   0.855   0.746  0.6142  0.1726 -0.4835
  455SOL    HW1 1364   1.975   0.787   0.819 -1.7397  0.6430 -0.3644
  455SOL    HW2 1365   1.845   0.886   0.764 -1.1347 -0.6559 -1.8292
  456SOL     OW 1366   1.981   2.389   0.815 -0.5779 -0.4029 -0.2514
  456SOL    HW1 1367   1.934   2.475   0.845 -0.3140  4.2585 -1.6703
  456SOL    HW2 1368   2.071   2.375   0.864  0.6252 -0.9538 -0.3132
  457SOL     OW 1369   1.881   2.989   2.546 -0.4919 -0.1606 -0.6359
  457SOL    HW1 1370   1.794   3.022   2.506  2.2110  0.7220  0.6788
  457SOL    HW2 1371   1.962   3.044   2.518  1.1353  2.0807  0.3190
  458SOL     OW 1372   2.432   0.339   0.288  0.5543 -0.1690 -1.0713
  458SOL    HW1 1373   2.410   0.404   0.212  1.1744 -0.6784 -1.4018
  458SOL    HW2 1374   2.367   0.354   0.364 -1.2726 -1.8631  1.6553
  459SOL     OW 1375   0.065   1.139   2.328 -0.4470  0.0780  0.1646
  459SOL    HW1 1376   3.043   1.121   2.320  0.4339 -0.0639  1.8566
  459SOL    HW2 1377   0.093   1.219   2.270 -0.9192 -1.3257 -0.8227
  460SOL     OW 1378   0.179   0.811   3.040  0.2452  0.6346  0.3729
  460SOL    HW1 1379   0.184   0.746   2.967 -0.2401 -1.1667 -2.6883
  460SOL    HW2 1380   0.195   0.906   3.004  0.8080 -1.6195 -0.2938
  461SOL     OW 1381   2.769   2.350   1.039  0.0413 -0.3599  0.4559
  461SOL    HW1 1382   2.864   2.392   1.037  1.8826  0.9316 -1.6798
  461SOL    HW2 1383   2.776   2.272   0.974  0.2504 -0.1196 -1.2639
  462SOL     OW 1384   0.397   0.108   1.593  0.1959  0.1862  0.1257
  462SOL    HW1 1385   0.498   0.129   1.599  1.3250  1.9895  0.6444
  462SOL    HW2 1386   0.376   0.038   1.521  0.7322 -0.0649  1.1412
  463SOL     OW 1387   2.042   2.205   2.088  0.4879 -0.4279 -0.1020
  463SOL    HW1 1388   2.010   2.202   2.184  3.3304  0.2507 -0.5685
  463SOL    HW2 1389   1.989   2.274   2.036  2.4672 -0.9135 -0.3290
  464SOL     OW 1390   0.346   3.024   1.336 -0.3149 -0.1880  0.7314
  464SOL    HW1 1391   0.442   3.040   1.311 -1.0670 -0.5314  3.2975
  464SOL    HW2 1392   0.280   3.027   1.256  0.3648  1.8320 -0.8597
  465SOL     OW 1393   0.649   0.192   1.499  0.5206  0.4376  0.2431
  465SOL    HW1 1394   0.745   0.207   1.535  1.3802  2.9857 -0.9008
  465SOL    HW2 1395   0.603   0.282   1.498 -0.3317  0.1520 -0.4612
  466SOL     OW 1396   1.489   1.970   1.766  0.1374  0.2345 -0.2434
  466SOL    HW1 1397   1.553   1.925   1.696  1.5309  1.4140  1.7377
  466SOL    HW2 1398   1.390   1.955   1.738  0.8106 -1.1567 -0.4143
  467SOL     OW 1399   0.187   1.834   1.295 -0.2361  0.6105  0.0421
  467SOL    HW1 1400   0.238   1.866   1.376  1.6054  1.1685 -0.7746
  467SOL    HW2 1401   0.247   1.840   1.215  2.1195  2.9904  0.7986
  468SOL     OW 1402   2.349   1.956   2.641 -0.0694 -0.1732 -0.0755
  468SOL    HW1 1403   2.397   1.991   2.560  0.0527 -2.8397 -0.8282
  468SOL    HW2 1404   2.263   1.907   2.613 -2.7012  2.3930  0.0104
  469SOL     OW 1405   1.073   2.229   0.615  0.1962 -0.2865 -0.8519
  469SOL    HW1 1406   1.018   2.152   0.580 -0.4219 -2.3567  0.5850
  469SOL    HW2 1407   1.148   2.255   0.548 -3.1339  3.0751 -0.5719
  470SOL     OW 1408   2.162   1.696   1.014 -0.6243 -0.0485 -0.1144
  470SOL    HW1 1409   2.216   1.738   1.088  1.3888 -0.8813  0.4466
  470SOL    HW2 1410   2.216   1.624   0.964  2.1507 -1.7757  1.3610
  471SOL     OW 1411   0.561   2.361   0.282  0.2650  0.0635  0.0543
  471SOL    HW1 1412   0.512   2.447   0.270  0.6681 -0.9869  0.5384
  471SOL    HW2 1413   0.517   2.289   0.228  0.7658  1.9501  0.9398
  472SOL     OW 1414   2.669   1.773   2.179  0.2000 -0.0867 -0.1097
  472SOL    HW1 1415   2.706   1.682   2.171 -1.2876  4.3920  0.4290
  472SOL    HW2 1416   2.716   1.831   2.113  0.0985  2.7177 -1.9034
  473SOL     OW 1417   1.077   2.961   0.741  0.6067 -0.0849  0.4415
  473SOL    HW1 1418   1.134   2.886   0.695  1.1364 -1.8459 -1.1209
  473SOL    HW2 1419   1.063   3.036   0.677  0.4535  0.1486 -0.2199
  474SOL     OW 1420   2.927   0.126   1.334  0.7290 -0.0265  0.6221
  474SOL    HW1 1421   2.824   0.118   1.331 -1.4342 -1.8000 -0.3513
  474SOL    HW2 1422   2.955   0.166   1.424  0.8306 -0.9200 -1.0286
  475SOL     OW 1423   1.649   2.617   1.567 -0.3266  0.2934  0.7296
  475SOL    HW1 1424   1.621   2.527   1.598 -0.0715  3.6410  2.4397
  475SOL    HW2 1425   1.573   2.680   1.596 -0.5088 -2.9793 -0.7268
  476SOL     OW 1426   0.440   0.382   0.892 -0.2629  0.0546  0.3738
  476SOL    HW1 1427   0.519   0.426   0.940  0.8925  2.4172  0.1277
  476SOL    HW2 1428   0.394   0.310   0.946 -0.7660  0.2151 -0.7668
  477SOL     OW 1429   0.868   2.470   1.024 -0.0158  0.4497  0.4895
  477SOL    HW1 1430   0.768   2.470   1.001  0.5465 -0.4970  1.3603
  477SOL    HW2 1431   0.919   2.426   0.949 -0.2373  0.6536 -0.3844
  478SOL     OW 1432   0.722   2.788   2.742  0.2666 -0.0974  0.6095
  478SOL    HW1 1433   0.639   2.760   2.792 -0.8114  1.5058  0.6640
  478SOL    HW2 1434   0.713   2.870   2.678 -1.1184  2.0083 -1.1908
  479SOL     OW 1435   0.259   0.527   1.937 -0.3898 -0.2669 -0.3824
  479SOL    HW1 1436   0.187   0.582   1.980 -0.4121 -1.1581 -0.4248
  479SOL    HW2 1437   0.225   0.437   1.908  2.5878 -1.5705  1.1284
  480SOL     OW 1438   0.129   2.074   3.060 -0.2559 -0.4979 -0.5006
  480SOL    HW1 1439   0.073   2.154   0.001  0.5062 -0.5658 -3.1540
  480SOL    HW2 1440   0.164   2.022   0.058  2.0971 -0.1103 -0.2575
  481SOL     OW 1441   1.477   2.492   2.209 -0.1682  0.1699  0.1532
  481SOL    HW1 1442   1.553   2.425   2.184  1.6430  0.5755 -0.8713
  481SOL    HW2 1443   1.404   2.475   2.138 -2.7790 -1.5508  0.3026
  482SOL     OW 1444   1.394   2.177   2.930 -0.1057  0.9358 -0.9686
  482SOL    HW1 1445   1.344   2.247   2.875 -1.5269 -1.2514  1.2956
  482SOL    HW2 1446   1.428   2.095   2.879 -0.1398  1.1724 -0.6767
  483SOL     OW 1447   0.674   2.472   2.776 -0.6879  0.6488 -0.2956
  483SOL    HW1 1448   0.620   2.421   2.707  0.6224  2.6407  0.6643
  483SOL    HW2 1449   0.749   2.524   2.736  0.4613  0.0536  0.0038
  484SOL     OW 1450   0.362   3.071   0.796 -0.5098  0.1674 -0.4240
  484SOL    HW1 1451   0.293   3.003   0.761  1.4094 -3.2783  1.4746
  484SOL    HW2 1452   0.309   0.078   0.806  0.5771 -0.6334 -0.6434
  485SOL     OW 1453   1.848   0.718   0.501  0.1960  0.0954  0.2392
  485SOL    HW1 1454   1.869   0.783   0.575  0.0851  1.1399 -1.0836
  485SOL    HW2 1455   1.855   0.619   0.534  2.8108 -2.1631 -1.8644
  486SOL     OW 1456   1.937   2.644   1.990  0.2472  0.1347  0.1744
  486SOL    HW1 1457   2.036   2.647   2.014  1.8966 -0.2001 -0.1933
  486SOL    HW2 1458   1.881   2.678   2.065  1.4269 -2.8556 -1.2724
  487SOL     OW 1459   1.530   2.089   0.808  0.2303  0.1130  0.4977
  487SOL    HW1 1460   1.462   2.148   0.856  1.1963  2.0080 -0.7149
  487SOL    HW2 1461   1.599   2.044   0.868  0.9993  0.6059  1.4602
  488SOL     OW 1462   1.764   0.803   0.030 -0.1431  0.8506 -0.3471
  488SOL    HW1 1463   1.775   0.841   0.123  1.5422 -2.7903 -3.9143
  488SOL    HW2 1464   1.847   0.746   0.011 -1.2020  1.3966  0.9537
  489SOL     OW 1465   2.234   0.003   0.499 -0.4439  0.3898  0.1632
  489SOL    HW1 1466   2.161   3.070   0.571 -1.0029  1.0035  2.8621
  489SOL    HW2 1467   2.326   3.046   0.524 -1.1895  1.7300 -0.6451
  490SOL     OW 1468   1.604   2.673   2.876  0.4240  0.1032  0.0602
  490SOL    HW1 1469   1.578   2.757   2.932 -1.0270 -1.1019 -1.3759
  490SOL    HW2 1470   1.678   2.699   2.812  1.4598 -2.6724 -0.0712
  491SOL     OW 1471   0.915   0.411   1.005  0.2429  0.5534 -0.7572
  491SOL    HW1 1472   0.947   0.448   0.919 -0.1363  1.2098 -0.3602
  491SOL    HW2 1473   0.986   0.350   1.052 -1.0239  2.1961 -3.9116
  492SOL     OW 1474   1.857   0.436   0.234 -1.1492  0.5069  0.3132
  492SOL    HW1 1475   1.907   0.420   0.146 -0.5423 -1.8991 -1.8896
  492SOL    HW2 1476   1.927   0.443   0.311  2.0952  0.2706 -0.0655
  493SOL     OW 1477   2.138   2.196   2.814 -0.0412  0.3678 -0.7686
  493SOL    HW1 1478   2.053   2.251   2.821  0.8078 -1.2422  0.9275
  493SOL    HW2 1479   2.134   2.113   2.873  1.3643 -0.1100 -1.8113
  494SOL     OW 1480   0.382   1.078   1.042 -0.1340 -0.2803 -0.2034
  494SOL    HW1 1481   0.421   1.039   0.956 -0.4988  2.4600 -2.5766
  494SOL    HW2 1482   0.296   1.032   1.073 -1.7117  0.4557 -2.8176
  495SOL     OW 1483   0.050   0.032   1.542  0.4069  0.2409 -0.4588
  495SOL    HW1 1484   0.083   0.111   1.487  0.8342 -2.2696 -1.3927
  495SOL    HW2 1485   0.086   0.047   1.638  2.5496  1.1603  1.3204
  496SOL     OW 1486   2.787   2.511   1.905 -0.4491 -0.6872  0.5397
  496SOL    HW1 1487   2.852   2.528   1.828  0.0628  2.0350 -2.6722
  496SOL    HW2 1488   2.767   2.412   1.923 -1.4129  0.9369  0.5548
  497SOL     OW 1489   1.578   1.791   2.591 -0.3203 -0.2613 -0.4037
  497SOL    HW1 1490   1.507   1.722   2.572  1.0937  2.1283 -0.4922
  497SOL    HW2 1491   1.668   1.733   2.591  1.8274 -2.1102 -0.2729
  498SOL     OW 1492   0.419   1.825   0.901  0.5457  0.1741 -0.3532
  498SOL    HW1 1493   0.348   1.751   0.916  0.4680  0.9326  3.3815
  498SOL    HW2 1494   0.383   1.906   0.854  1.4121 -0.7674  0.5830
  499SOL     OW 1495   0.322   1.389   1.433  0.4835  0.2682  0.3221
  499SOL    HW1 1496   0.351   1.310   1.492 -2.2620 -0.9816  1.2927
  499SOL    HW2 1497   0.317   1.474   1.487  0.7051 -0.4345 -0.6964
  500SOL     OW 1498   1.248   2.304   0.403  0.7143  0.4490  0.3103
  500SOL    HW1 1499   1.335   2.269   0.364  1.1446  0.1346 -0.1467
  500SOL    HW2 1500   1.194   2.341   0.325 -0.4237  0.6846  0.3271
  501SOL     OW 1501   2.215   2.307   0.903  0.0586  0.0680  0.0716
  501SOL    HW1 1502   2.238   2.335   0.998  0.4759 -2.5558  0.4372
  501SOL    HW2 1503   2.299   2.295   0.845  0.8534 -0.7090  0.4784
  502SOL     OW 1504   0.154   0.895   1.654 -0.1681 -0.6651  0.1120
  502SOL    HW1 1505   0.139   0.923   1.558 -2.0399  1.1819 -2.1103
  502SOL    HW2 1506   0.209   0.814   1.662 -0.4874 -1.5466 -0.0418
  503SOL     OW 1507   2.296   3.010   1.800 -0.4813 -0.0613  0.0336
  503SOL    HW1 1508   2.229   2.975   1.728  1.1623 -2.4262 -0.4155
  503SOL    HW2 1509   2.377   3.055   1.757  3.7262 -2.3138 -0.8498
  504SOL     OW 1510   2.027   0.655   1.973 -0.3417  0.2001 -0.4076
  504SOL    HW1 1511   1.966   0.730   1.999  0.5344  2.1541 -3.4977
  504SOL    HW2 1512   2.121   0.693   1.987 -1.7495  1.7070  1.5104
  505SOL     OW 1513   1.243   2.886   2.353  0.0264 -0.0331 -0.0568
  505SOL    HW1 1514   1.319   2.874   2.418  1.1019  3.3029  1.3417
  505SOL    HW2 1515   1.184   2.800   2.362  1.8524  0.1896 -2.2041
  506SOL     OW 1516   0.704   0.303   1.809 -0.1524 -0.2668 -0.2527
  506SOL    HW1 1517   0.630   0.342   1.869 -1.9003  0.7461  0.3100
  506SOL    HW2 1518   0.758   0.377   1.766 -2.2206 -3.0165 -0.5055
  507SOL     OW 1519   1.602   0.297   2.955  0.6309 -0.1972  0.1717
  507SOL    HW1 1520   1.552   0.224   2.904  0.7038 -1.5154 -0.3971
  507SOL    HW2 1521   1.575   0.303   3.051  0.3336  1.3296 -0.4018
  508SOL     OW 1522   2.488   0.647   2.311 -0.0228  0.3155 -0.0261
  508SOL    HW1 1523   2.479   0.655   2.412  0.0785  0.4725  0.2731
  508SOL    HW2 1524   2.487   0.741   2.274 -1.0678  0.2296  0.6882
  509SOL     OW 1525   0.987   1.410   1.882  0.3722  0.4148 -0.5219
  509SOL    HW1 1526   1.063   1.358   1.930 -1.9318 -0.3304 -3.8163
  509SOL    HW2 1527   1.005   1.410   1.782  1.2964  0.4272  0.2644
  510SOL     OW 1528   2.965   0.621   0.897  0.3634 -0.1013  0.1124
  510SOL    HW1 1529   2.989   0.629   0.798  0.4943 -0.0387  0.8757
  510SOL    HW2 1530   2.874   0.661   0.921 -1.5444  0.7383 -0.4943
  511SOL     OW 1531   1.627   1.332   0.725  0.5608  0.1381  1.1645
  511SOL    HW1 1532   1.562   1.319   0.647  0.4212  0.5265 -2.5474
  511SOL    HW2 1533   1.630   1.429   0.757 -0.5396 -1.5651  0.0293
  512SOL     OW 1534   0.742   1.375   0.245 -0.0451  0.3193 -0.3812
  512SOL    HW1 1535   0.664   1.312   0.270  2.1554  2.0350  2.5250
  512SOL    HW2 1536   0.804   1.407   0.322 -1.4154  0.8110  0.0266
  513SOL     OW 1537   0.307   2.648   0.712 -0.9580 -0.0174 -0.2854
  513SOL    HW1 1538   0.400   2.689   0.689  1.0699  1.2238  1.1705
  513SOL    HW2 1539   0.292   2.554   0.675 -0.0736  0.8174 -0.7649
  514SOL     OW 1540   0.360   1.938   0.149  0.0083  0.4672  0.4272
  514SOL    HW1 1541   0.440   1.918   0.084  0.6533  0.2849 -1.6377
  514SOL    HW2 1542   0.376   1.935   0.245  2.6919  0.7498 -1.7332
  515SOL     OW 1543   2.682   0.442   0.234  0.0752 -0.1426 -0.1734
  515SOL    HW1 1544   2.585   0.410   0.247  1.2695 -0.3743  1.2492
  515SOL    HW2 1545   2.734   0.438   0.327 -0.6675  0.9019 -0.0956
  516SOL     OW 1546   2.219   2.689   1.097  0.1729 -0.6006  0.0087
  516SOL    HW1 1547   2.138   2.679   1.158 -1.1198 -1.2048  1.5300
  516SOL    HW2 1548   2.196   2.721   0.999  3.0622 -0.0519 -0.1927
  517SOL     OW 1549   1.312   1.666   0.072 -0.5918 -0.3266 -0.2998
  517SOL    HW1 1550   1.374   1.618   0.138  0.5085  0.3856 -1.8763
  517SOL    HW2 1551   1.213   1.637   0.070  0.2362  2.9633  1.2633
  518SOL     OW 1552   1.343   0.504   1.508 -0.4336  0.7005  0.3498
  518SOL    HW1 1553   1.345   0.508   1.407  2.7844 -1.4117  0.4098
  518SOL    HW2 1554   1.255   0.536   1.543 -0.1061 -0.2754 -1.4659
  519SOL     OW 1555   2.965   2.110   0.600 -0.0601 -0.0136 -1.0928
  519SOL    HW1 1556   2.999   2.201   0.637  1.0929  1.4235  2.7143
  519SOL    HW2 1557   2.950   2.125   0.499 -0.2876  2.1209  0.6618
  520SOL     OW 1558   2.239   2.218   1.738  0.0658 -0.0053  0.7151
  520SOL    HW1 1559   2.281   2.185   1.824  0.8449  2.1151  1.5380
  520SOL    HW2 1560   2.251   2.317   1.735 -0.3263 -2.1587  2.2291
  521SOL     OW 1561   1.179   2.928   2.721  0.3099  0.2968 -0.1513
  521SOL    HW1 1562   1.157   2.839   2.681 -1.0025 -0.8456  0.1159
  521SOL    HW2 1563   1.231   2.928   2.810 -1.8845  1.4597  0.0587
  522SOL     OW 1564   2.679   3.043   1.864 -0.1541  0.6785  0.7659
  522SOL    HW1 1565   2.766   0.012   1.847  0.5961  3.2492  2.0547
  522SOL    HW2 1566   2.635   3.076   1.951 -0.8819  0.8993  0.7633
  523SOL     OW 1567   1.253   2.214   1.713  0.1995 -0.6559  0.3600
  523SOL    HW1 1568   1.165   2.186   1.758 -0.9808  0.6664 -0.9862
  523SOL    HW2 1569   1.308   2.135   1.679  0.6350  0.9233  1.2695
  524SOL     OW 1570   2.036   2.184   0.095 -0.3203  0.0535 -0.1392
  524SOL    HW1 1571   2.078   2.277   0.090  0.8664  2.4426  1.4225
  524SOL    HW2 1572   2.061   2.113   0.021  1.4837  1.2302 -0.6721
  525SOL     OW 1573   3.030   0.969   0.360  0.1613  0.4911 -0.3352
  525SOL    HW1 1574   3.071   0.896   0.301 -0.9558  0.2091  1.8268
  525SOL    HW2 1575   2.928   0.958   0.385 -2.6835  0.4639  0.0859
  526SOL     OW 1576   0.856   2.957   1.255 -0.1711 -0.4821 -0.4782
  526SOL    HW1 1577   0.855   2.998   1.162 -2.3986 -3.0721  2.9067
  526SOL    HW2 1578   0.892   2.860   1.250 -2.1087 -2.5456 -0.0060
  527SOL     OW 1579   2.691   1.420   0.607  0.5395  0.1555 -0.3554
  527SOL    HW1 1580   2.637   1.497   0.642 -1.5385 -0.8407  2.1867
  527SOL    HW2 1581   2.772   1.459   0.555  0.2475 -0.3905 -1.2028
  528SOL     OW 1582   0.546   0.774   2.500 -0.2972 -0.2149  0.0763
  528SOL    HW1 1583   0.606   0.857   2.499 -3.0019  1.4226  1.1001
  528SOL    HW2 1584   0.481   0.762   2.423  1.1438  0.0031  1.1540
  529SOL     OW 1585   0.950   1.479   2.860 -0.7951  0.2179  0.2334
  529SOL    HW1 1586   1.050   1.483   2.834  2.7756 -0.1013 -1.4680
  529SOL    HW2 1587   0.893   1.450   2.780 -1.0424  0.7266 -0.0374
  530SOL     OW 1588   1.650   1.131   1.948  0.2914  0.1569 -0.4674
  530SOL    HW1 1589   1.750   1.113   1.969  2.2014 -1.5091 -0.7226
  530SOL    HW2 1590   1.596   1.044   1.949  0.1158 -0.7111 -1.6253
  531SOL     OW 1591   0.818   2.158   2.850  0.2502 -0.1574 -0.1008
  531SOL    HW1 1592   0.911   2.162   2.891 -3.2644  2.1426 -0.7212
  531SOL    HW2 1593   0.744   2.177   2.921 -0.4066  0.9609  1.3288
  532SOL     OW 1594   2.441   0.686   0.225  0.4395  0.1633  0.1449
  532SOL    HW1 1595   2.405   0.767   0.173  0.5400  0.5979 -0.0740
  532SOL    HW2 1596   2.449   0.604   0.164  1.0995 -1.0137  1.1828
  533SOL     OW 1597   3.064   0.519   1.694  0.4482  0.2016  0.1705
  533SOL    HW1 1598   0.060   0.532   1.626 -2.2826  1.9680 -0.7270
  533SOL    HW2 1599   2.998   0.598   1.694 -1.5335 -2.0924  2.0373
  534SOL     OW 1600   1.641   0.558   2.883  0.0856 -0.6337 -0.3553
  534SOL    HW1 1601   1.621   0.462   2.905 -0.8081  2.2608  1.7445
  534SOL    HW2 1602   1.593   0.612   2.953  1.2943  2.4579  0.7843
  535SOL     OW 1603   0.778   0.187   0.189 -0.4044  0.1260 -0.0440
  535SOL    HW1 1604   0.855   0.183   0.124  0.3755 -0.6381  1.0869
  535SOL    HW2 1605   0.705   0.116   0.163 -1.7296 -3.3483 -0.1330
  536SOL     OW 1606   0.592   1.627   1.987 -0.2802  0.0685  0.1777
  536SOL    HW1 1607   0.514   1.635   2.046 -0.8356 -1.6434 -0.9951
  536SOL    HW2 1608   0.665   1.563   2.018 -2.2134  3.2213  1.0922
  537SOL     OW 1609   0.452   2.294   1.930  1.0003  0.2674  0.9182
  537SOL    HW1 1610   0.399   2.283   1.845 -2.0017  2.6489 -2.2394
  537SOL    HW2 1611   0.460   2.215   1.995  1.1835  0.0099  2.0219
  538SOL     OW 1612   3.030   1.833   0.216  0.0477  0.2304 -0.0622
  538SOL    HW1 1613   0.036   1.809   0.163  1.2656 -0.1651  0.5189
  538SOL    HW2 1614   3.044   1.832   0.316  0.8618  1.2081  0.1712
  539SOL     OW 1615   2.458   0.477   2.796 -0.4199  0.4034  0.1101
  539SOL    HW1 1616   2.391   0.457   2.872 -0.7979  0.8930  0.5981
  539SOL    HW2 1617   2.552   0.483   2.837  1.3539 -0.2518 -0.4883
  540SOL     OW 1618   1.312   0.772   2.634 -0.2569 -0.2030  0.1300
  540SOL    HW1 1619   1.350   0.782   2.545 -3.2009  0.3614  1.9420
  540SOL    HW2 1620   1.349   0.837   2.696 -1.2178 -0.5102 -1.5185
  541SOL     OW 1621   0.842   0.513   1.705  0.3766 -0.1713 -0.5739
  541SOL    HW1 1622   0.839   0.535   1.808 -0.4236 -0.9023  4.1591
  541SOL    HW2 1623   0.812   0.593   1.652  1.6827  0.1979  1.7961
  542SOL     OW 1624   1.858   2.491   2.330  0.0148 -0.1645 -0.8108
  542SOL    HW1 1625   1.788   2.456   2.262 -0.3361 -0.6505  2.6277
  542SOL    HW2 1626   1.895   2.583   2.303 -0.8586  1.5714  1.3573
  543SOL     OW 1627   0.485   2.839   1.081 -0.7562  0.4968  0.3471
  543SOL    HW1 1628   0.457   2.800   1.172 -2.3708  2.3427 -1.2294
  543SOL    HW2 1629   0.512   2.938   1.085 -0.5415 -3.1968 -1.2413
  544SOL     OW 1630   2.807   1.556   2.188 -0.1354 -0.2878 -0.0109
  544SOL    HW1 1631   2.762   1.465   2.187  1.1804  3.2200  0.3827
  544SOL    HW2 1632   2.870   1.559   2.272  0.8420  0.9082  4.0575
  545SOL     OW 1633   1.834   2.054   1.245 -0.4477 -0.0716  0.0553
  545SOL    HW1 1634   1.799   2.121   1.313  0.0226 -0.2865 -0.0376
  545SOL    HW2 1635   1.760   1.984   1.224 -0.0698  0.8856 -3.1393
  546SOL     OW 1636   0.217   0.301   2.379 -0.6140  0.4450 -0.1090
  546SOL    HW1 1637   0.137   0.250   2.343  0.9756  0.5711  1.0851
  546SOL    HW2 1638   0.261   0.250   2.456 -0.9759 -0.5699  0.3331
  547SOL     OW 1639   1.533   0.359   0.867  0.2604  0.5583 -0.1840
  547SOL    HW1 1640   1.524   0.415   0.951  2.5619  0.6540 -2.6506
  547SOL    HW2 1641   1.509   0.422   0.796  2.2550 -0.2737  1.0200
  548SOL     OW 1642   1.212   2.342   2.773  0.6740  0.6025  0.1748
  548SOL    HW1 1643   1.181   2.300   2.687  4.7363 -0.8825 -1.4155
  548SOL    HW2 1644   1.298   2.398   2.760 -0.3804 -2.1972  0.8435
  549SOL     OW 1645   2.228   0.713   2.586 -0.1983  0.4013 -0.5865
  549SOL    HW1 1646   2.331   0.707   2.590 -1.6276  0.5325 -2.1815
  549SOL    HW2 1647   2.205   0.697   2.491 -0.0807  0.3633  2.4355
  550SOL     OW 1648   2.739   1.796   0.389  0.0263 -0.6087  0.0680
  550SOL    HW1 1649   2.758   1.758   0.296  0.9927  3.2980 -0.6527
  550SOL    HW2 1650   2.819   1.813   0.450 -1.7130 -1.9636  0.6342
  551SOL     OW 1651   1.165   2.928   2.107  0.1093  0.1734  0.1178
  551SOL    HW1 1652   1.231   2.979   2.046  1.4964  0.3643 -2.0836
  551SOL    HW2 1653   1.209   2.906   2.198  0.2066  1.7761  2.0156
  552SOL     OW 1654   3.053   2.147   2.603 -0.2896 -0.3290 -0.2106
  552SOL    HW1 1655   3.044   2.106   2.510 -2.6170 -2.4743 -1.2045
  552SOL    HW2 1656   2.963   2.187   2.639 -0.5534  2.2423  1.6368
  553SOL     OW 1657   0.222   2.529   1.186  0.0202  0.5157 -0.0751
  553SOL    HW1 1658   0.199   2.482   1.096  1.2132 -2.3903  2.2212
  553SOL    HW2 1659   0.135   2.557   1.234  3.3895  0.2028 -3.2854
  554SOL     OW 1660   2.318   1.850   1.809  0.8157  0.0132 -0.2581
  554SOL    HW1 1661   2.261   1.875   1.894 -1.3932  0.0697 -0.1445
  554SOL    HW2 1662   2.301   1.922   1.738  1.9003  1.5036 -1.2673
  555SOL     OW 1663   1.548   2.144   1.957  0.2404  0.3883  0.2132
  555SOL    HW1 1664   1.526   2.085   1.874  2.2299  0.5984 -1.5568
  555SOL    HW2 1665   1.517   2.237   1.931  0.2002 -0.8420  0.4658
  556SOL     OW 1666   1.383   1.682   1.044  0.3039  0.0440  0.1942
  556SOL    HW1 1667   1.358   1.605   1.108  1.0878 -1.1604  0.2685
  556SOL    HW2 1668   1.434   1.760   1.095  1.1474  1.8486  1.6646
  557SOL     OW 1669   1.221   0.009   1.462  0.2325 -0.1531  1.2674
  557SOL    HW1 1670   1.248   0.100   1.495 -1.3849 -0.2190 -0.9542
  557SOL    HW2 1671   1.136   3.050   1.499 -1.7799 -1.0252 -1.2938
  558SOL     OW 1672   0.629   0.042   1.893 -0.2505  0.0432  0.3849
  558SOL    HW1 1673   0.611   0.062   1.993  0.1702 -0.2247 -1.7443
  558SOL    HW2 1674   0.630   0.135   1.847 -1.9929  0.3696  3.7999
  559SOL     OW 1675   2.076   2.777   0.406  0.1617 -0.2807  0.9160
  559SOL    HW1 1676   2.011   2.850   0.445 -2.3357  2.6438  2.6645
  559SOL    HW2 1677   2.145   2.760   0.478 -0.9817  2.9537 -1.4813
  560SOL     OW 1678   1.329   2.598   0.652  0.5252 -0.4407 -0.0820
  560SOL    HW1 1679   1.323   2.537   0.570 -0.3129  0.8863 -0.3161
  560SOL    HW2 1680   1.384   2.562   0.730 -0.4040  0.2465 -3.0211
  561SOL     OW 1681   1.205   0.328   0.162 -0.0892  0.2518  0.2476
  561SOL    HW1 1682   1.159   0.393   0.096 -0.3184  1.8376 -0.9262
  561SOL    HW2 1683   1.171   0.343   0.255  0.6803  1.3531  0.8174
  562SOL     OW 1684   0.415   1.327   2.294 -0.1106 -0.3235  0.2054
  562SOL    HW1 1685   0.448   1.273   2.374 -1.3297  0.9486  0.2692
  562SOL    HW2 1686   0.448   1.424   2.314  0.1053  0.7731  2.7916
  563SOL     OW 1687   1.524   2.185   2.436  0.5762 -0.5348  0.0112
  563SOL    HW1 1688   1.532   2.161   2.336  0.8548  0.9246 -0.8284
  563SOL    HW2 1689   1.612   2.174   2.491 -0.0190  2.0461  2.1507
  564SOL     OW 1690   2.893   0.969   1.001  0.3314 -0.3067  0.2756
  564SOL    HW1 1691   2.796   0.986   0.972  1.0065 -0.7641  1.3593
  564SOL    HW2 1692   2.923   1.056   1.052 -0.2301 -1.4619 -2.0608
  565SOL     OW 1693   0.560   0.713   0.121  0.2575  0.2946 -0.6249
  565SOL    HW1 1694   0.509   0.671   0.050  2.0057  1.0522  3.3391
  565SOL    HW2 1695   0.658   0.687   0.131 -2.5242  1.2243 -1.2619
  566SOL     OW 1696   2.475   2.929   2.623 -0.3595  0.2733  0.5826
  566SOL    HW1 1697   2.477   3.029   2.618  2.0726 -1.1555 -2.8310
  566SOL    HW2 1698   2.379   2.897   2.643 -1.1323 -0.2887 -0.0106
  567SOL     OW 1699   1.576   1.178   0.962 -0.1258 -0.1005  0.2319
  567SOL    HW1 1700   1.615   1.233   0.881  0.0570  1.1330 -0.5339
  567SOL    HW2 1701   1.605   1.212   1.056  2.1130 -1.7029 -1.0483
  568SOL     OW 1702   1.475   1.832   2.887  0.1783 -0.0319  0.5966
  568SOL    HW1 1703   1.482   1.847   2.985  1.4248 -1.1393 -0.0064
  568SOL    HW2 1704   1.551   1.784   2.845 -2.0311 -0.1448 -1.0656
  569SOL     OW 1705   2.195   1.414   2.953  0.2061  0.2245 -0.1758
  569SOL    HW1 1706   2.295   1.423   2.930  1.3678  1.8771  1.2401
  569SOL    HW2 1707   2.163   1.313   2.963 -2.3374 -1.4179  0.2999
  570SOL     OW 1708   0.060   2.350   1.901  0.8905 -0.1404 -0.0488
  570SOL    HW1 1709   0.079   2.448   1.880  1.2980 -0.3919 -0.3955
  570SOL    HW2 1710   0.118   2.288   1.847  0.0999  0.7151  1.4749
  571SOL     OW 1711   2.618   1.855   1.518  0.1413  0.2279 -0.4888
  571SOL    HW1 1712   2.617   1.928   1.446  0.6655 -1.3050  1.3737
  571SOL    HW2 1713   2.603   1.893   1.608  2.9082 -1.6363  0.7085
  572SOL     OW 1714   1.793   2.237   0.181 -0.3768  0.1005  0.4812
  572SOL    HW1 1715   1.772   2.332   0.208  0.6802  0.1004 -0.1059
  572SOL    HW2 1716   1.882   2.226   0.129 -0.3550 -0.4688 -2.3503
  573SOL     OW 1717   1.734   2.094   0.420  0.2897 -0.1793 -0.3070
  573SOL    HW1 1718   1.724   2.153   0.332 -1.7874  1.2405 -0.3423
  573SOL    HW2 1719   1.824   2.102   0.465 -1.5969 -1.4548  0.3672
  574SOL     OW 1720   1.140   0.038   1.171  0.3587 -0.4829 -0.0034
  574SOL    HW1 1721   1.158   0.024   1.271 -1.3668  0.6598  0.7203
  574SOL    HW2 1722   1.193   3.054   1.109  0.1098  0.0258 -3.4666
  575SOL     OW 1723   0.810   1.080   1.494  0.0461  0.1998  0.0973
  575SOL    HW1 1724   0.799   1.125   1.584 -0.1168 -0.1557  0.4908
  575SOL    HW2 1725   0.878   1.005   1.498  1.2285 -0.3446 -0.8810
  576SOL     OW 1726   2.655   0.575   1.594 -0.2642 -0.3624 -0.2109
  576SOL    HW1 1727   2.741   0.615   1.553 -0.0888  0.9222  0.8787
  576SOL    HW2 1728   2.661   0.617   1.688 -0.1108  1.4883 -0.2740
  577SOL     OW 1729   1.359   1.014   2.234  0.0925 -0.7125 -0.1980
  577SOL    HW1 1730   1.420   0.960   2.297 -1.1059  0.1596  0.4722
  577SOL    HW2 1731   1.344   0.976   2.143 -0.5864  1.6912  0.5573
  578SOL     OW 1732   1.945   1.219   2.302 -0.5698  0.1395 -0.9634
  578SOL    HW1 1733   1.902   1.278   2.372 -1.7261 -2.8807  0.6052
  578SOL    HW2 1734   2.047   1.239   2.299  0.4093 -0.4350 -2.5343
  579SOL     OW 1735   1.201   2.013   1.459 -0.5986 -0.1233 -0.4377
  579SOL    HW1 1736   1.110   2.058   1.457 -0.4894 -1.7979  0.7806
  579SOL    HW2 1737   1.230   1.967   1.372  2.0155 -2.4775  1.9575
  580SOL     OW 1738   1.454   2.161   0.258 -0.3974  0.1702  0.0853
  580SOL    HW1 1739   1.471   2.226   0.189 -0.7154 -1.2503  2.5876
  580SOL    HW2 1740   1.436   2.073   0.216  0.3941  2.1528 -1.0725
  581SOL     OW 1741   1.053   0.778   1.955 -0.5498  0.2761  0.3733
  581SOL    HW1 1742   0.978   0.706   1.946 -2.3035  0.0317 -0.2446
  581SOL    HW2 1743   1.076   0.789   2.053 -0.3994  0.4692  0.2682
  582SOL     OW 1744   0.966   0.836   1.471 -0.4320 -0.8004  0.0900
  582SOL    HW1 1745   1.020   0.843   1.555 -1.6569  1.3158  0.8401
  582SOL    HW2 1746   1.022   0.816   1.390 -1.3042 -3.1287  0.1249
  583SOL     OW 1747   0.981   1.053   1.990  0.3009 -0.0561 -0.3133
  583SOL    HW1 1748   0.997   0.961   1.951 -0.1826  2.7344 -1.0916
  583SOL    HW2 1749   1.063   1.105   1.969 -2.3847  2.7281  0.3775
  584SOL     OW 1750   2.408   2.290   0.682  0.1838  0.2450  0.5151
  584SOL    HW1 1751   2.502   2.278   0.640  1.2930  0.4788 -0.7907
  584SOL    HW2 1752   2.336   2.232   0.645  0.6459 -1.7629 -1.1430
  585SOL     OW 1753   1.840   0.260   2.865 -0.6497  0.3694 -0.3489
  585SOL    HW1 1754   1.745   0.285   2.893  0.6513 -0.9997 -1.4381
  585SOL    HW2 1755   1.860   0.297   2.771  1.7934  0.6286  1.1979
  586SOL     OW 1756   0.063   2.113   0.858 -0.0255  0.0403  0.5282
  586SOL    HW1 1757   0.017   2.194   0.815  0.3351  1.0691  0.3923
  586SOL    HW2 1758   0.090   2.141   0.953  0.2514  1.0881 -1.3572
  587SOL     OW 1759   1.736   1.963   0.135 -0.6433 -0.1351  0.3241
  587SOL    HW1 1760   1.776   2.053   0.152  0.2839  1.8523 -0.6872
  587SOL    HW2 1761   1.634   1.974   0.122 -4.1745 -1.9891 -4.1593
  588SOL     OW 1762   0.099   0.209   0.815  0.5129 -0.1246 -0.0023
  588SOL    HW1 1763   0.125   0.211   0.917 -1.4313  0.9335  1.5776
  588SOL    HW2 1764   0.168   0.264   0.761  2.2576  2.0699  0.2763
  589SOL     OW 1765   1.442   0.546   0.691 -0.4833 -0.3753 -0.4403
  589SOL    HW1 1766   1.386   0.610   0.750  0.3286 -1.2574  0.1867
  589SOL    HW2 1767   1.431   0.571   0.588 -0.9354 -0.4712 -0.4138
  590SOL     OW 1768   1.477   1.322   0.168  0.2513  0.5790 -0.8007
  590SOL    HW1 1769   1.415   1.286   0.100  1.0724 -0.0538 -0.6261
  590SOL    HW2 1770   1.571   1.303   0.144 -0.6078  1.8713 -0.0459
  591SOL     OW 1771   2.512   2.379   2.483  0.6313 -0.1742 -0.0692
  591SOL    HW1 1772   2.474   2.417   2.568 -0.6178 -1.4101 -0.6725
  591SOL    HW2 1773   2.478   2.438   2.407 -1.5426 -0.6294  0.4175
  592SOL     OW 1774   1.568   2.129   1.508  0.0145  0.2174  0.1857
  592SOL    HW1 1775   1.477   2.138   1.462 -1.0650  0.6805 -0.1997
  592SOL    HW2 1776   1.593   2.029   1.528  0.4483  3.6139  0.3493
  593SOL     OW 1777   0.746   0.129   0.923 -0.4326  0.0069 -0.0506
  593SOL    HW1 1778   0.812   0.202   0.925  0.2658 -2.8372 -0.8651
  593SOL    HW2 1779   0.785   0.041   0.959  0.1904 -0.7817  0.0756
  594SOL     OW 1780   2.975   0.556   2.428 -0.2501 -0.4117  0.3673
  594SOL    HW1 1781   2.937   0.647   2.454 -2.2433 -2.0282 -1.1168
  594SOL    HW2 1782   3.006   0.500   2.508 -1.8978  1.3726 -4.7672
  595SOL     OW 1783   0.560   2.540   1.276 -0.0032 -0.1461 -0.3590
  595SOL    HW1 1784   0.558   2.510   1.177 -1.9924 -0.9977 -1.6243
  595SOL    HW2 1785   0.492   2.615   1.291 -0.5900 -0.0483 -2.1909
  596SOL     OW 1786   0.214   0.892   1.372 -0.1671  0.0903 -0.3071
  596SOL    HW1 1787   0.204   0.942   1.282 -1.4049 -1.5544 -0.4255
  596SOL    HW2 1788   0.308   0.885   1.417  1.6665 -1.4138 -0.8715
  597SOL     OW 1789   1.479   1.900   0.157  0.5198  0.2405  0.4471
  597SOL    HW1 1790   1.406   1.828   0.149  0.8403  0.1370  0.3344
  597SOL    HW2 1791   1.531   1.892   0.243  0.3198 -0.2160 -1.4570
  598SOL     OW 1792   0.389   2.957   1.945  0.5310  0.0039  0.0396
  598SOL    HW1 1793   0.377   2.883   1.879  3.0522 -0.5676  0.4501
  598SOL    HW2 1794   0.478   3.002   1.928 -0.4290 -0.4410  0.4520
  599SOL     OW 1795   2.469   1.671   2.737 -0.5349 -0.1003 -0.4315
  599SOL    HW1 1796   2.436   1.604   2.669  0.7112 -0.1258  1.0216
  599SOL    HW2 1797   2.548   1.725   2.708 -1.9685 -0.2100  2.6538
  600SOL     OW 1798   0.992   1.041   0.227 -0.5017  0.4277 -0.1263
  600SOL    HW1 1799   0.921   1.022   0.295  1.6442 -0.8147  4.2170
  600SOL    HW2 1800   1.079   1.066   0.273 -0.5066 -0.4932  0.9816
  601SOL     OW 1801   0.555   0.814   0.778  0.1457 -0.2924 -0.4796
  601SOL    HW1 1802   0.491   0.893   0.758 -1.9915 -0.9136 -1.3815
  601SOL    HW2 1803   0.645   0.850   0.807  1.3427  1.2641  0.9693
  602SOL     OW 1804   1.596   0.146   0.710  0.2652 -0.1831 -0.1855
  602SOL    HW1 1805   1.558   0.196   0.787 -3.6318 -2.9630 -1.7660
  602SOL    HW2 1806   1.591   0.206   0.627  0.4478  1.3234 -3.2777
  603SOL     OW 1807   0.850   2.933   2.385  0.0669 -0.0931 -1.0707
  603SOL    HW1 1808   0.924   2.874   2.344  0.3721  0.2509  1.8545
  603SOL    HW2 1809   0.895   2.975   2.470  1.0881  2.1627  3.0715
  604SOL     OW 1810   2.933   2.888   2.644 -0.5554  0.7589 -0.5726
  604SOL    HW1 1811   2.948   2.928   2.551  1.6498 -0.0234 -1.0821
  604SOL    HW2 1812   2.883   2.801   2.630 -1.3386  0.6437 -0.8488
  605SOL     OW 1813   2.686   1.560   1.210  0.0927 -0.1444  0.2018
  605SOL    HW1 1814   2.610   1.548   1.275 -1.0396  0.2702  0.3020
  605SOL    HW2 1815   2.779   1.549   1.250 -0.1990  0.4119 -0.4410
  606SOL     OW 1816   0.610   1.503   2.691 -0.3951  0.0444 -0.1114
  606SOL    HW1 1817   0.585   1.595   2.724  0.0851 -3.0097 -1.8781
  606SOL    HW2 1818   0.547   1.435   2.728 -2.3643  2.8846  0.8569
  607SOL     OW 1819   0.649   0.295   0.420  0.5117  0.6937 -0.1600
  607SOL    HW1 1820   0.716   0.289   0.340 -0.1404  0.4038 -0.6282
  607SOL    HW2 1821   0.585   0.368   0.407  3.0152 -3.3161 -1.5056
  608SOL     OW 1822   1.791   1.565   2.031 -0.0802  0.0202 -0.0117
  608SOL    HW1 1823   1.722   1.490   2.049  1.4255 -2.8070 -1.4821
  608SOL    HW2 1824   1.748   1.647   1.986 -0.4854  0.5734 -0.1639
  609SOL     OW 1825   2.746   0.141   0.998  0.3948  0.4692  0.1314
  609SOL    HW1 1826   2.701   0.130   1.088 -0.2468 -3.1670  1.7461
  609SOL    HW2 1827   2.821   0.212   1.001  0.9310 -1.8851 -0.0005
  610SOL     OW 1828   0.541   2.765   0.647  0.6254  0.1463  0.0338
  610SOL    HW1 1829   0.572   2.764   0.553 -0.9899 -0.1805  1.4346
  610SOL    HW2 1830   0.575   2.847   0.696  0.0934 -0.5687  0.0478
  611SOL     OW 1831   1.466   0.920   2.815 -0.1779 -0.4851 -0.3940
  611SOL    HW1 1832   1.470   1.020   2.820 -1.8340 -1.2795 -1.8625
  611SOL    HW2 1833   1.484   0.884   2.909  0.1089 -0.0640  1.7424
  612SOL     OW 1834   0.754   2.108   2.077  0.2718  0.0241  0.3154
  612SOL    HW1 1835   0.804   2.074   2.160  0.3698 -1.2465  1.5496
  612SOL    HW2 1836   0.750   2.213   2.074 -2.3954  0.7972  0.8478
  613SOL     OW 1837   0.588   2.522   0.740 -0.1938 -0.3495 -0.1789
  613SOL    HW1 1838   0.669   2.479   0.692 -1.9130 -0.2267  0.3320
  613SOL    HW2 1839   0.571   2.615   0.699 -0.0518  1.8509  1.5696
  614SOL     OW 1840   2.653   2.716   1.585 -0.5925 -0.3510 -0.0507
  614SOL    HW1 1841   2.644   2.730   1.687 -3.2655 -0.0978  2.9892
  614SOL    HW2 1842   2.745   2.739   1.544 -1.2654 -0.6583  1.7675
  615SOL     OW 1843   1.764   1.210   0.147 -0.8362  0.2716 -0.3703
  615SOL    HW1 1844   1.730   1.195   0.244 -0.4413  0.0885 -0.2530
  615SOL    HW2 1845   1.867   1.210   0.142  1.2003 -0.9966 -1.3353
  616SOL     OW 1846   1.796   0.890   0.288  0.4823 -0.6328  0.4304
  616SOL    HW1 1847   1.810   0.824   0.363 -1.2959  0.1282  0.0380
  616SOL    HW2 1848   1.695   0.921   0.296 -1.1295  0.5986 -1.0120
  617SOL     OW 1849   1.088   1.110   2.839 -0.4785 -0.4296  0.0320
  617SOL    HW1 1850   1.125   1.022   2.871 -0.7526  2.3134 -1.0372
  617SOL    HW2 1851   1.061   1.172   2.917  0.4268  0.3915 -1.0400
  618SOL     OW 1852   0.917   0.158   1.837  0.0062 -0.3914  0.1463
  618SOL    HW1 1853   0.915   0.067   1.887 -1.4187  0.3212  0.3340
  618SOL    HW2 1854   0.831   0.215   1.834  0.7003  1.1776  0.8870
  619SOL     OW 1855   2.863   1.199   1.528 -0.6391  0.3416  0.6605
  619SOL    HW1 1856   2.958   1.162   1.524 -3.2076 -1.7394  2.0166
  619SOL    HW2 1857   2.801   1.124   1.549  2.4858  0.3301 -0.4149
  620SOL     OW 1858   2.336   1.095   2.667 -0.0385  0.1737 -0.1678
  620SOL    HW1 1859   2.373   1.033   2.596  0.2007  1.0188 -0.3479
  620SOL    HW2 1860   2.239   1.111   2.644 -0.4441  1.0051  1.3945
  621SOL     OW 1861   2.535   2.432   1.548  0.0463 -0.0577 -0.1480
  621SOL    HW1 1862   2.603   2.495   1.511  0.1105  0.3597  2.3320
  621SOL    HW2 1863   2.587   2.361   1.607  3.1018  1.0037 -0.7204
  622SOL     OW 1864   1.001   0.774   2.667  0.0649  0.0459  0.8705
  622SOL    HW1 1865   0.987   0.732   2.578 -0.4919  2.1054 -1.7140
  622SOL    HW2 1866   1.074   0.846   2.659  0.5463 -2.0699 -3.5081
  623SOL     OW 1867   0.969   0.524   2.774  0.9884  0.2351  0.6976
  623SOL    HW1 1868   0.871   0.483   2.775 -4.2490 -2.4154 -2.1901
  623SOL    HW2 1869   0.962   0.619   2.738 -1.8553  1.4828  0.5436
  624SOL     OW 1870   2.034   0.695   3.009 -0.0906 -0.4173  0.1772
  624SOL    HW1 1871   2.059   0.732   2.917 -0.4702 -1.0561  0.8691
  624SOL    HW2 1872   2.083   0.605   3.021 -0.1670  0.0757 -0.0221
  625SOL     OW 1873   1.297   1.212   0.963 -0.3575  0.1699 -0.1782
  625SOL    HW1 1874   1.395   1.209   0.991 -0.4964  1.8505  0.5884
  625SOL    HW2 1875   1.238   1.207   1.044 -1.7747 -1.3385  2.5340
  626SOL     OW 1876   1.696   1.159   2.579  0.1024  0.4846  0.1503
  626SOL    HW1 1877   1.645   1.070   2.590  0.6728  1.0154  0.0444
  626SOL    HW2 1878   1.771   1.165   2.650  0.4114  1.2420 -1.3367
  627SOL     OW 1879   0.992   3.069   2.596  0.3005 -0.7690 -0.7588
  627SOL    HW1 1880   1.063   3.011   2.643  1.4775  1.1381  0.3168
  627SOL    HW2 1881   0.972   0.076   2.648 -1.5702 -0.3799  0.7699
  628SOL     OW 1882   2.480   0.152   2.436 -0.0399  0.6621  0.1620
  628SOL    HW1 1883   2.473   0.146   2.537 -2.6632 -1.0607  0.5809
  628SOL    HW2 1884   2.554   0.211   2.400 -2.7718 -2.6060  1.9608
  629SOL     OW 1885   0.838   0.831   2.864  0.1183  0.1181 -1.1598
  629SOL    HW1 1886   0.906   0.815   2.787 -0.4213  3.0853  1.2502
  629SOL    HW2 1887   0.885   0.845   2.956 -0.0896  0.6597  1.9363
  630SOL     OW 1888   1.222   0.288   2.139  0.4292 -0.3154  0.3827
  630SOL    HW1 1889   1.229   0.379   2.187 -1.2322  0.0785  3.6702
  630SOL    HW2 1890   1.268   0.215   2.194  0.0576 -3.0196  2.3277
  631SOL     OW 1891   2.975   0.673   0.619  0.4871 -0.0951  0.6987
  631SOL    HW1 1892   2.913   0.743   0.573 -1.7941 -0.8489  0.4084
  631SOL    HW2 1893   2.972   0.586   0.569 -0.6948  3.0556  0.1498
  632SOL     OW 1894   1.997   0.736   1.376 -0.1877 -0.8741  0.1410
  632SOL    HW1 1895   1.977   0.791   1.463 -0.9639  0.5963  2.5074
  632SOL    HW2 1896   2.005   0.635   1.389 -1.1650 -2.6303 -1.6553
  633SOL     OW 1897   1.292   0.977   0.800 -0.3540  0.0320  0.4588
  633SOL    HW1 1898   1.297   0.888   0.850 -0.3390  1.3053 -1.0997
  633SOL    HW2 1899   1.293   1.067   0.851 -2.3226 -0.1942 -0.0256
  634SOL     OW 1900   1.806   2.796   0.855  0.0815 -0.3524  0.3271
  634SOL    HW1 1901   1.899   2.816   0.892 -0.4632 -1.2024  2.3701
  634SOL    HW2 1902   1.788   2.693   0.859 -1.2393 -2.5072 -1.0307
  635SOL     OW 1903   1.715   0.782   1.069  0.4388  0.6970 -0.1528
  635SOL    HW1 1904   1.685   0.831   0.987  0.3587 -1.8499  3.7292
  635SOL    HW2 1905   1.786   0.838   1.112 -2.1505  1.1584 -0.8968
  636SOL     OW 1906   1.084   1.038   0.648 -0.2223 -0.3120 -0.5853
  636SOL    HW1 1907   1.015   1.101   0.695 -1.9578 -0.3934  2.0451
  636SOL    HW2 1908   1.162   1.028   0.714 -0.8438  0.6652 -1.9695
  637SOL     OW 1909   2.620   2.151   3.047 -0.0196 -0.1090  0.6864
  637SOL    HW1 1910   2.609   2.059   0.006 -0.1992  0.8371 -0.2784
  637SOL    HW2 1911   2.599   2.150   2.948  0.9939 -2.1703  1.6206
  638SOL     OW 1912   1.163   2.675   2.632  0.3116  0.1373 -0.5911
  638SOL    HW1 1913   1.169   2.632   2.537 -0.9354 -0.7632  0.9683
  638SOL    HW2 1914   1.248   2.648   2.680  1.4541  1.6865  2.3503
  639SOL     OW 1915   0.899   2.373   1.290 -0.3028  0.1378 -0.4245
  639SOL    HW1 1916   0.953   2.436   1.354  1.1213  0.1914 -0.1979
  639SOL    HW2 1917   0.865   2.427   1.209  2.0481  0.6244 -1.9711
  640SOL     OW 1918   2.523   2.702   0.340 -0.1864  0.0720 -0.3864
  640SOL    HW1 1919   2.534   2.802   0.316  0.5704 -2.0025 -1.9656
  640SOL    HW2 1920   2.531   2.686   0.441  0.3602  0.6993 -1.3914
  641SOL     OW 1921   0.396   0.307   0.220  0.8491 -0.2769  1.1879
  641SOL    HW1 1922   0.407   0.393   0.272 -1.0663  1.5482  0.5568
  641SOL    HW2 1923   0.416   0.322   0.123  0.2807  0.9125  1.3708
  642SOL     OW 1924   2.867   0.794   1.204  0.2953 -0.0919  0.7529
  642SOL    HW1 1925   2.798   0.725   1.163 -0.8739 -0.2141  0.8772
  642SOL    HW2 1926   2.888   0.869   1.133  2.2548  0.3529 -1.5732
  643SOL     OW 1927   0.795   1.948   1.837 -0.2411  0.2177  0.1733
  643SOL    HW1 1928   0.704   1.898   1.847  1.1386  3.6572  1.7951
  643SOL    HW2 1929   0.799   2.016   1.913  1.2180 -0.5146  0.6401
  644SOL     OW 1930   1.333   2.485   0.179  0.0243  0.3878  0.1102
  644SOL    HW1 1931   1.383   2.407   0.131  1.4602 -1.8411 -0.0294
  644SOL    HW2 1932   1.395   2.529   0.244 -3.4078 -2.6332 -3.6212
  645SOL     OW 1933   2.023   2.091   0.531 -0.2642  0.1150 -0.4362
  645SOL    HW1 1934   2.019   2.026   0.454  1.3473 -2.7905 -0.7982
  645SOL    HW2 1935   2.047   2.182   0.494 -2.3859 -1.1886 -1.2339
  646SOL     OW 1936   1.193   2.730   0.213  0.1519 -0.1005 -0.2876
  646SOL    HW1 1937   1.105   2.693   0.247 -0.7810  4.3071 -1.2513
  646SOL    HW2 1938   1.263   2.655   0.206 -1.3436  0.8121  0.3691
  647SOL     OW 1939   0.550   2.760   2.073  0.2898 -0.2414 -0.0060
  647SOL    HW1 1940   0.505   2.836   2.022  1.5773  1.7545  1.8689
  647SOL    HW2 1941   0.474   2.702   2.108  2.4668  0.8979 -3.1212
  648SOL     OW 1942   1.854   0.964   1.227  0.2782  0.3920  0.1657
  648SOL    HW1 1943   1.839   1.054   1.179  0.0235  0.1348 -0.1615
  648SOL    HW2 1944   1.950   0.956   1.251 -3.2047  2.1199  1.0876
  649SOL     OW 1945   1.392   2.565   2.720  0.1315  0.2981 -0.3120
  649SOL    HW1 1946   1.430   2.492   2.666 -1.0928  1.5953  2.0072
  649SOL    HW2 1947   1.463   2.596   2.786  0.0482 -1.9855  0.7578
  650SOL     OW 1948   2.184   1.514   1.638 -0.0818 -0.0300 -0.2013
  650SOL    HW1 1949   2.225   1.608   1.628  0.3656 -1.7663  1.5331
  650SOL    HW2 1950   2.117   1.515   1.720 -0.0595 -0.9164  0.2436
  651SOL     OW 1951   1.232   2.005   0.050  0.3032  0.0164 -0.1540
  651SOL    HW1 1952   1.232   1.991   0.153  1.4112 -1.5685  0.3443
  651SOL    HW2 1953   1.310   2.063   0.018 -0.5738  0.8751  1.6405
  652SOL     OW 1954   0.754   2.487   3.034  0.2399 -0.0832  0.1728
  652SOL    HW1 1955   0.852   2.461   3.037  0.1913  1.7430  1.8539
  652SOL    HW2 1956   0.727   2.507   2.935  1.0702 -1.6855  1.1797
  653SOL     OW 1957   2.477   1.966   1.049  0.3192  0.5722 -0.0024
  653SOL    HW1 1958   2.458   2.065   1.026 -0.3093  3.3920 -3.5229
  653SOL    HW2 1959   2.403   1.924   1.106  1.0455  0.7892 -0.3477
  654SOL     OW 1960   2.934   2.588   1.700 -0.0030  0.0676 -0.6997
  654SOL    HW1 1961   2.953   2.677   1.662 -0.2622 -1.1050 -0.6417
  654SOL    HW2 1962   2.930   2.512   1.632 -2.8076  0.4930 -0.2966
  655SOL     OW 1963   2.982   2.174   1.234 -0.0993  0.1938  0.1145
  655SOL    HW1 1964   2.935   2.088   1.205  0.1742 -1.2451  2.2096
  655SOL    HW2 1965   2.947   2.208   1.327  0.5175  0.9107 -3.3701
  656SOL     OW 1966   0.144   2.912   2.675  0.5033 -0.2477  0.1258
  656SOL    HW1 1967   0.187   2.961   2.594 -0.5360  1.0893 -2.1393
  656SOL    HW2 1968   0.046   2.916   2.670  2.6040  0.0527  0.9758
  657SOL     OW 1969   0.118   0.757   0.226 -0.0481 -0.1907 -0.3080
  657SOL    HW1 1970   0.141   0.773   0.130  0.2284 -3.3691  1.6949
  657SOL    HW2 1971   0.201   0.758   0.287 -1.6336  1.9880  1.4705
  658SOL     OW 1972   1.950   1.856   0.938 -0.2105 -0.4559 -0.6184
  658SOL    HW1 1973   2.028   1.793   0.958 -1.7358  0.1548  1.0650
  658SOL    HW2 1974   1.989   1.954   0.930 -0.7803  0.0840  1.4430
  659SOL     OW 1975   1.716   0.404   1.247 -0.2331  0.0425 -0.1642
  659SOL    HW1 1976   1.803   0.355   1.257 -1.5697  1.4107 -0.8739
  659SOL    HW2 1977   1.633   0.347   1.280 -3.3757  0.6326  0.1867
  660SOL     OW 1978   1.451   1.566   0.279  0.4200 -0.2979 -0.1572
  660SOL    HW1 1979   1.469   1.476   0.242  0.2553 -2.6297  0.4463
  660SOL    HW2 1980   1.493   1.585   0.371  1.6325  1.1807 -1.0897
  661SOL     OW 1981   0.209   1.858   0.568 -0.1989 -0.4186 -0.2524
  661SOL    HW1 1982   0.277   1.847   0.489  3.2503  0.8094 -2.7553
  661SOL    HW2 1983   0.110   1.853   0.536 -0.4732 -0.1952  2.3441
  662SOL     OW 1984   0.081   0.695   2.042  0.0172  0.3941  0.0841
  662SOL    HW1 1985   3.071   0.670   2.092 -0.5897 -0.2817  1.9412
  662SOL    HW2 1986   0.102   0.798   2.072 -0.0263  1.1631  0.1879
  663SOL     OW 1987   1.999   1.460   1.075 -0.0955 -0.5915 -0.5624
  663SOL    HW1 1988   2.049   1.391   1.023 -0.2226  1.3831  3.0615
  663SOL    HW2 1989   2.054   1.545   1.098  0.9867  0.9853 -1.3493
  664SOL     OW 1990   0.646   0.483   1.016 -0.4964  0.0380  0.0875
  664SOL    HW1 1991   0.746   0.457   1.015 -0.2253  0.4309  1.7645
  664SOL    HW2 1992   0.605   0.415   1.078 -0.9227  2.0737 -2.2775
  665SOL     OW 1993   1.343   2.951   2.930  0.1811 -0.2634 -0.1046
  665SOL    HW1 1994   1.440   2.943   2.955 -1.9301  3.2696 -1.8597
  665SOL    HW2 1995   1.332   3.057   2.923  2.0002  2.0210 -0.6381
  666SOL     OW 1996   0.178   0.567   2.399 -0.4366  0.3105  0.0170
  666SOL    HW1 1997   0.214   0.470   2.388 -0.1237 -0.4085 -1.1267
  666SOL    HW2 1998   0.075   0.567   2.398  0.0811 -0.5244 -0.1758
  667SOL     OW 1999   1.995   1.537   2.184  0.2394  0.2047  0.0379
  667SOL    HW1 2000   1.961   1.494   2.270  1.1567 -3.0305  1.3998
  667SOL    HW2 2001   1.918   1.542   2.121  1.5443  0.2743  2.1206
  668SOL     OW 2002   0.073   1.635   2.932 -0.3818 -0.6276 -0.0722
  668SOL    HW1 2003   0.138   1.580   2.884  1.3353 -0.3991  3.5235
  668SOL    HW2 2004   3.055   1.598   2.915  1.5076 -1.2566  2.0580
  669SOL     OW 2005   2.045   2.762   2.441 -0.4915  0.0032  0.6352
  669SOL    HW1 2006   2.106   2.766   2.359  2.3739  2.0510  1.1348
  669SOL    HW2 2007   1.968   2.824   2.439  0.3677  1.1798  0.6928
  670SOL     OW 2008   2.375   0.973   2.443  0.6652  0.3144  0.2184
  670SOL    HW1 2009   2.445   0.954   2.370  1.3174  0.6454  0.3882
  670SOL    HW2 2010   2.279   0.955   2.406 -0.4716 -0.5935  0.8005
  671SOL     OW 2011   2.273   1.231   0.264  0.2434  0.1352 -0.0580
  671SOL    HW1 2012   2.312   1.268   0.176 -1.9271  1.3711  1.7175
  671SOL    HW2 2013   2.288   1.298   0.335 -0.8124 -3.5120 -0.8359
  672SOL     OW 2014   2.656   1.145   2.385  0.3129 -0.5421  0.0480
  672SOL    HW1 2015   2.678   1.217   2.456 -0.9092 -0.0034 -0.9924
  672SOL    HW2 2016   2.588   1.080   2.414  1.0437 -0.1832  0.7647
  673SOL     OW 2017   2.493   1.138   1.434  0.1024 -0.4975  0.7956
  673SOL    HW1 2018   2.386   1.139   1.423 -1.9829  1.5053 -1.8285
  673SOL    HW2 2019   2.525   1.057   1.385 -1.4428 -0.0481 -0.5655
  674SOL     OW 2020   1.646   1.875   1.576 -0.5914  0.4465  0.2418
  674SOL    HW1 2021   1.739   1.835   1.586  1.5055  1.6781 -0.6808
  674SOL    HW2 2022   1.590   1.808   1.523 -1.8385 -2.1256  2.0146
  675SOL     OW 2023   2.935   0.356   1.003 -0.5374 -0.1843 -0.7170
  675SOL    HW1 2024   2.961   0.458   0.987 -0.6119  4.0601  0.6574
  675SOL    HW2 2025   3.007   0.320   1.064  1.6779 -0.9969 -2.4310
  676SOL     OW 2026   2.128   0.922   1.011  0.3876  0.4106 -0.3408
  676SOL    HW1 2027   2.177   0.886   1.095  2.4692  0.2369  1.4676
  676SOL    HW2 2028   2.192   0.908   0.935  0.4492 -1.3219  0.7542
  677SOL     OW 2029   1.588   1.794   2.245  0.1315  0.2422  0.2230
  677SOL    HW1 2030   1.532   1.805   2.157 -1.7041  1.3039 -2.6394
  677SOL    HW2 2031   1.687   1.808   2.222  0.4731 -0.5012  0.5701
  678SOL     OW 2032   3.047   1.613   0.999 -0.1516 -0.0033  0.2585
  678SOL    HW1 2033   0.062   1.645   0.984 -1.5675  2.6189  1.8314
  678SOL    HW2 2034   2.978   1.668   0.954 -1.3892 -1.8086  2.6947
  679SOL     OW 2035   2.994   2.829   0.691 -0.0739  0.1925  0.0392
  679SOL    HW1 2036   2.941   2.907   0.727  1.2886 -3.1796  0.4186
  679SOL    HW2 2037   0.015   2.838   0.694  0.2631 -0.3199 -1.8757
  680SOL     OW 2038   0.137   2.150   1.118 -0.0309 -0.3068  0.1190
  680SOL    HW1 2039   0.208   2.141   1.190 -1.7873  1.7002  0.8981
  680SOL    HW2 2040   0.046   2.168   1.162  1.0254  0.6360 -2.4077
  681SOL     OW 2041   0.748   0.806   1.112  0.2372  0.4183  0.4459
  681SOL    HW1 2042   0.778   0.714   1.148 -1.5479 -2.8021  1.1850
  681SOL    HW2 2043   0.766   0.813   1.017  0.2875 -1.9098  4.2678
  682SOL     OW 2044   1.736   2.692   0.511 -0.4039  0.1830  0.4806
  682SOL    HW1 2045   1.796   2.768   0.546  2.0549  1.2011 -0.3345
  682SOL    HW2 2046   1.775   2.601   0.537  1.2932  0.3202 -3.9253
  683SOL     OW 2047   2.084   1.326   1.466 -0.6025 -0.6528 -0.0259
  683SOL    HW1 2048   2.126   1.403   1.523  0.2918 -0.5752 -1.5119
  683SOL    HW2 2049   2.157   1.278   1.407  2.8935 -1.7810 -2.1040
  684SOL     OW 2050   0.197   1.730   1.681  0.1271 -0.2774 -0.2093
  684SOL    HW1 2051   0.286   1.677   1.685 -2.8070 -1.5742  1.8398
  684SOL    HW2 2052   0.120   1.665   1.678  2.8868 -0.6918 -0.5271
  685SOL     OW 2053   2.336   1.616   0.093 -0.1518 -0.1425  0.1396
  685SOL    HW1 2054   2.241   1.585   0.120 -0.0298 -2.5529 -2.1490
  685SOL    HW2 2055   2.342   1.638   3.070  0.3957  2.4784 -2.1621
  686SOL     OW 2056   3.006   0.067   0.658 -0.1877 -0.6186 -0.4386
  686SOL    HW1 2057   2.910   0.072   0.690  1.3813 -1.4986 -1.5260
  686SOL    HW2 2058   3.068   0.120   0.723  2.4670  2.5505  2.1337
  687SOL     OW 2059   1.600   2.908   2.996 -0.4027  0.3018  0.3376
  687SOL    HW1 2060   1.627   2.887   0.012  0.4986  0.1953 -1.6492
  687SOL    HW2 2061   1.674   2.952   2.945 -1.2524 -1.3831  2.5767
  688SOL     OW 2062   1.857   1.890   2.166  0.2759  0.0600 -0.2374
  688SOL    HW1 2063   1.940   1.834   2.153  0.2345  1.1967  1.3925
  688SOL    HW2 2064   1.865   1.945   2.256 -0.4411  0.5607  0.8156
  689SOL     OW 2065   2.752   0.996   2.065 -0.0396 -0.5573  0.0490
  689SOL    HW1 2066   2.736   1.066   1.994  0.0899 -1.4545  0.0421
  689SOL    HW2 2067   2.809   0.918   2.030 -1.8635 -2.7929 -0.7883
  690SOL     OW 2068   2.131   1.300   0.928 -0.4105  0.1473 -0.1575
  690SOL    HW1 2069   2.132   1.326   0.829 -0.2687 -3.0345  2.6690
  690SOL    HW2 2070   2.054   1.233   0.950 -0.6799  0.4607  2.0849
  691SOL     OW 2071   1.144   1.287   1.203 -0.2013 -0.4231  0.3304
  691SOL    HW1 2072   1.164   1.192   1.232 -1.1439  1.0355  0.5880
  691SOL    HW2 2073   1.094   1.338   1.277  1.8109  0.1349  1.7310
  692SOL     OW 2074   1.894   0.206   2.154 -0.9345 -0.4171  0.3981
  692SOL    HW1 2075   1.928   0.148   2.077 -0.2749 -3.7006  0.1444
  692SOL    HW2 2076   1.868   0.303   2.129 -3.3782 -2.3693  0.8500
  693SOL     OW 2077   0.050   1.283   2.868 -0.1593 -0.6056  0.0287
  693SOL    HW1 2078   0.117   1.358   2.836  2.8056 -0.5443  1.0970
  693SOL    HW2 2079   0.023   1.232   2.786  2.7980 -1.2416 -0.1868
  694SOL     OW 2080   2.140   2.838   0.887 -0.1053 -0.2865 -0.1559
  694SOL    HW1 2081   2.110   2.777   0.813  0.4581  0.7809 -0.2921
  694SOL    HW2 2082   2.183   2.917   0.842  0.8288  1.2024  0.3485
  695SOL     OW 2083   1.452   1.341   2.613  0.2841 -0.1751  0.3814
  695SOL    HW1 2084   1.549   1.319   2.585 -1.9299 -0.0688 -1.4277
  695SOL    HW2 2085   1.430   1.438   2.589  2.4494 -0.1663  0.7714
  696SOL     OW 2086   1.965   0.105   1.599 -0.3708 -0.1354  0.2637
  696SOL    HW1 2087   1.922   0.163   1.531 -0.0263  0.7177  1.1205
  696SOL    HW2 2088   2.027   0.158   1.660 -0.2349  1.6602  1.9606
  697SOL     OW 2089   1.762   0.348   1.792  0.0337  0.4225  0.2484
  697SOL    HW1 2090   1.748   0.255   1.818 -0.4931  1.8185 -2.5257
  697SOL    HW2 2091   1.697   0.382   1.726  0.0360 -0.0515  0.6994
  698SOL     OW 2092   1.753   1.386   2.424  0.2559  0.3329 -0.0731
  698SOL    HW1 2093   1.729   1.297   2.475  0.1477 -0.6609  0.7286
  698SOL    HW2 2094   1.675   1.414   2.368  1.9257 -0.8885  0.2722
  699SOL     OW 2095   1.841   1.180   0.707 -0.1250 -0.6485  0.1232
  699SOL    HW1 2096   1.756   1.233   0.734 -2.4268 -2.2356  1.6181
  699SOL    HW2 2097   1.926   1.231   0.716 -1.9559 -1.6248 -2.2000
  700SOL     OW 2098   1.672   2.852   0.187 -0.4240 -0.9835 -0.2967
  700SOL    HW1 2099   1.686   2.775   0.246 -0.4845  0.2119 -1.1811
  700SOL    HW2 2100   1.612   2.924   0.238  0.1588  1.5529  1.3672
  701SOL     OW 2101   0.202   0.286   1.469 -0.4123  0.4763  0.1591
  701SOL    HW1 2102   0.204   0.387   1.505 -1.1905  1.3473 -1.1539
  701SOL    HW2 2103   0.276   0.228   1.509 -1.2198  0.7576 -0.7045
  702SOL     OW 2104   1.561   2.907   1.239 -0.7380 -0.6941 -0.1632
  702SOL    HW1 2105   1.611   2.821   1.223 -1.9706  1.1071  2.3826
  702SOL    HW2 2106   1.492   2.896   1.313 -1.2093 -2.6941  2.0427
  703SOL     OW 2107   2.571   0.075   2.099  0.5883 -0.3378 -0.1935
  703SOL    HW1 2108   2.626   0.148   2.146 -0.3622  1.1127 -1.8048
  703SOL    HW2 2109   2.552   0.000   2.168  0.1842 -2.8326 -1.5744
  704SOL     OW 2110   1.361   2.274   0.973 -0.6173  0.8328 -0.0905
  704SOL    HW1 2111   1.378   2.270   1.073 -0.2148  0.4451  1.1507
  704SOL    HW2 2112   1.265   2.303   0.951  4.0549  0.4363 -0.9494
  705SOL     OW 2113   0.375   1.637   2.201  0.3854 -0.4349  0.1535
  705SOL    HW1 2114   0.424   1.683   2.275 -1.3286  1.1518  2.0883
  705SOL    HW2 2115   0.277   1.614   2.232  0.5311  1.8485 -0.3932
  706SOL     OW 2116   1.986   0.358   3.076 -0.2265  0.1562  0.1809
  706SOL    HW1 2117   1.929   0.322   3.001 -0.4744  1.2795  0.0555
  706SOL    HW2 2118   2.004   0.283   0.063 -2.3707 -0.1494 -2.1000
  707SOL     OW 2119   1.520   2.739   2.133 -0.3366 -0.0033 -0.2189
  707SOL    HW1 2120   1.498   2.652   2.185  1.4907 -0.5061  1.1124
  707SOL    HW2 2121   1.463   2.745   2.046  0.5792  1.0726 -1.5772
  708SOL     OW 2122   0.674   2.175   1.521 -0.3288 -0.0831  0.5608
  708SOL    HW1 2123   0.638   2.086   1.554 -1.9036 -1.0071 -1.6936
  708SOL    HW2 2124   0.780   2.176   1.513  2.0184  1.3212  0.6548
  709SOL     OW 2125   2.600   0.725   1.835 -0.0237 -0.3183  0.5885
  709SOL    HW1 2126   2.531   0.682   1.894  3.3221  1.0169 -1.5007
  709SOL    HW2 2127   2.690   0.732   1.883 -0.8946  2.6125 -2.6280
  710SOL     OW 2128   2.967   0.298   1.545  0.1784  0.2771  0.4343
  710SOL    HW1 2129   2.937   0.359   1.470 -0.0461  0.5167  0.2136
  710SOL    HW2 2130   3.007   0.356   1.618  1.4892 -1.3277 -2.2591
  711SOL     OW 2131   3.054   2.330   0.720  0.0926  0.3692  0.1522
  711SOL    HW1 2132   0.060   2.375   0.742 -1.5159 -2.6798 -2.7192
  711SOL    HW2 2133   2.974   2.392   0.719  0.4484 -1.4551 -0.8128
  712SOL     OW 2134   0.218   3.063   2.465  0.3514 -0.0080 -0.1025
  712SOL    HW1 2135   0.273   0.058   2.508  1.4135  3.2052  1.2084
  712SOL    HW2 2136   0.262   3.032   2.374  0.9168  1.6780 -2.2077
  713SOL     OW 2137   2.173   0.626   0.309 -0.7299  0.6135  0.5547
  713SOL    HW1 2138   2.266   0.663   0.293 -2.4035  0.7131 -2.4684
  713SOL    HW2 2139   2.099   0.681   0.267 -1.4422  1.8925  0.9172
  714SOL     OW 2140   1.557   1.900   0.415 -0.1162  0.0253  0.0831
  714SOL    HW1 2141   1.622   1.978   0.427 -1.0120 -1.0088 -0.2897
  714SOL    HW2 2142   1.511   1.882   0.503  2.8048  1.4790  0.5449
  715SOL     OW 2143   0.007   0.302   0.330  0.1402 -0.5811  0.3037
  715SOL    HW1 2144   3.070   0.370   0.255  1.5514  1.4355  0.9494
  715SOL    HW2 2145   0.091   0.333   0.376  0.9004  0.7640  1.2055
  716SOL     OW 2146   0.946   3.013   2.001  0.2153 -0.2647 -0.1488
  716SOL    HW1 2147   1.030   2.979   2.050 -0.6716 -2.2903  2.0437
  716SOL    HW2 2148   0.875   2.937   1.995 -2.9243  0.1963 -0.9204
  717SOL     OW 2149   0.180   0.571   2.883  0.2045 -0.0770  0.0626
  717SOL    HW1 2150   0.199   0.608   2.789 -3.0073 -0.5967  0.8918
  717SOL    HW2 2151   0.113   0.494   2.877  0.3117  0.6350  1.1308
  718SOL     OW 2152   1.404   0.583   0.418 -0.0780  0.2431  0.4484
  718SOL    HW1 2153   1.486   0.584   0.356  0.9044  0.3329 -0.6590
  718SOL    HW2 2154   1.332   0.640   0.374 -0.2760  0.2140 -1.6862
  719SOL     OW 2155   2.564   2.190   2.754 -0.1373  0.3940  0.6198
  719SOL    HW1 2156   2.497   2.113   2.740 -1.4439 -3.5184  2.5708
  719SOL    HW2 2157   2.509   2.275   2.761  3.3575 -0.1347  1.7600
  720SOL     OW 2158   1.391   0.826   1.729  0.4542  0.4950  0.1439
  720SOL    HW1 2159   1.451   0.880   1.672 -4.1848 -1.3133  1.7408
  720SOL    HW2 2160   1.433   0.736   1.758 -2.4437 -1.6216 -0.1152
  721SOL     OW 2161   0.153   2.992   1.126  0.0684  0.4977  0.7912
  721SOL    HW1 2162   0.067   3.033   1.090  2.9883  0.6585 -1.1560
  721SOL    HW2 2163   0.196   2.926   1.058  1.0373  0.9610 -0.4012
  722SOL     OW 2164   1.346   1.961   2.694  0.1212 -0.4206  0.0086
  722SOL    HW1 2165   1.366   1.910   2.780 -1.6559  0.6278  1.8625
  722SOL    HW2 2166   1.410   1.930   2.621  0.5353  0.9971  1.6237
  723SOL     OW 2167   1.816   0.442   0.582 -0.0107 -0.4813  0.2475
  723SOL    HW1 2168   1.898   0.409   0.533  0.2841  3.3449 -1.1553
  723SOL    HW2 2169   1.832   0.423   0.678  2.8897  0.9495 -0.1497
  724SOL     OW 2170   0.690   2.136   2.614  0.1095  0.4010  0.0001
  724SOL    HW1 2171   0.634   2.218   2.590  0.5213 -0.6716 -2.2845
  724SOL    HW2 2172   0.726   2.139   2.711 -2.1356  0.5164 -0.1480
  725SOL     OW 2173   3.050   0.764   1.397  0.1361  0.0979 -0.2120
  725SOL    HW1 2174   2.975   0.780   1.325  1.3860 -2.1003 -1.5466
  725SOL    HW2 2175   0.066   0.801   1.373  1.9324  0.5868 -1.3178
  726SOL     OW 2176   2.057   0.040   0.719  1.0646 -0.7276 -0.0017
  726SOL    HW1 2177   1.956   0.017   0.728  1.2147  0.3947 -0.1147
  726SOL    HW2 2178   2.089   0.090   0.805  1.3137  0.8551  1.7075
  727SOL     OW 2179   1.918   1.112   2.026  0.0154  0.3713 -0.5124
  727SOL    HW1 2180   1.904   1.015   2.063  0.5246 -1.8703  2.2989
  727SOL    HW2 2181   1.933   1.176   2.108  0.7222  1.2710  0.5700
  728SOL     OW 2182   1.317   2.845   1.387  0.4177  0.0949  0.0689
  728SOL    HW1 2183   1.286   2.937   1.408  1.8127  0.1867 -1.5151
  728SOL    HW2 2184   1.250   2.796   1.339  0.7000 -0.3148 -0.1152
  729SOL     OW 2185   1.814   0.459   2.056 -0.6371  0.1806  0.8246
  729SOL    HW1 2186   1.876   0.544   2.052  2.9263  1.6447  0.6830
  729SOL    HW2 2187   1.794   0.427   1.960  0.1265 -2.0548  0.1626
  730SOL     OW 2188   0.561   0.879   1.295 -0.0116 -0.4553 -0.6513
  730SOL    HW1 2189   0.481   0.810   1.295 -2.1209 -0.7878  2.1257
  730SOL    HW2 2190   0.629   0.850   1.225  0.9839 -0.1613  1.2076
  731SOL     OW 2191   0.182   0.104   0.175  0.2031  0.3440 -0.3466
  731SOL    HW1 2192   0.125   0.092   0.259  0.6752  0.8594 -0.1255
  731SOL    HW2 2193   0.254   0.174   0.194  0.8895 -2.2062  0.1595
  732SOL     OW 2194   0.738   0.790   0.395  0.3276  0.5967 -0.0694
  732SOL    HW1 2195   0.683   0.749   0.465  4.1643 -0.4495 -1.2314
  732SOL    HW2 2196   0.705   0.882   0.364 -1.9758  2.1433  0.6136
  733SOL     OW 2197   1.551   1.499   2.291 -0.1007 -0.2913 -0.0253
  733SOL    HW1 2198   1.582   1.586   2.251 -0.3758  2.3930  0.2337
  733SOL    HW2 2199   1.521   1.441   2.214  3.0707  3.5257  2.6650
  734SOL     OW 2200   0.006   2.272   2.150 -0.3842 -0.0343  0.7198
  734SOL    HW1 2201   0.028   2.289   2.051  2.4479 -0.5488 -0.7440
  734SOL    HW2 2202   3.040   2.355   2.189  1.7785 -1.7684 -0.7645
  735SOL     OW 2203   1.820   0.118   1.007 -0.2289  0.6191  0.3511
  735SOL    HW1 2204   1.919   0.090   1.008  0.7290 -2.4696  1.6179
  735SOL    HW2 2205   1.770   0.087   1.091  2.9704  1.9975  1.8713
  736SOL     OW 2206   1.060   1.238   0.029  0.1437  0.4441  0.3775
  736SOL    HW1 2207   1.028   1.174   0.103 -0.6747 -2.8893 -0.0272
  736SOL    HW2 2208   1.065   1.333   0.063 -1.0258 -0.8619  1.3847
  737SOL     OW 2209   2.846   0.434   0.460 -0.1080 -0.0021 -0.1022
  737SOL    HW1 2210   2.935   0.392   0.436  2.1757 -0.4361 -1.3064
  737SOL    HW2 2211   2.822   0.418   0.560  0.1110  0.7013  1.9740
  738SOL     OW 2212   0.448   2.282   1.621 -0.4133  0.2477  0.0630
  738SOL    HW1 2213   0.404   2.339   1.549  1.3206 -1.3304  0.7427
  738SOL    HW2 2214   0.544   2.260   1.591  1.4109 -0.4454 -0.9024
  739SOL     OW 2215   1.024   2.443   3.022  0.0210  0.0325  0.3669
  739SOL    HW1 2216   1.035   2.341   3.041  0.3921  1.4425 -0.6754
  739SOL    HW2 2217   1.112   2.491   3.008 -0.2144 -1.1808 -1.1430
  740SOL     OW 2218   1.710   2.635   1.292  0.1984 -0.2200 -0.5035
  740SOL    HW1 2219   1.721   2.653   1.393 -0.3071 -0.8880  1.1699
  740SOL    HW2 2220   1.650   2.559   1.273  1.2681  1.8812  0.4497
  741SOL     OW 2221   2.250   0.302   0.832 -0.3682  0.6055  0.1424
  741SOL    HW1 2222   2.244   0.392   0.880 -1.4429 -0.8145 -0.4260
  741SOL    HW2 2223   2.334   0.244   0.859  0.2442 -2.3016 -0.4396
  742SOL     OW 2224   1.126   2.320   2.379  0.0548  0.0565  0.0341
  742SOL    HW1 2225   1.156   2.255   2.456  0.4024 -1.2250 -2.1537
  742SOL    HW2 2226   1.038   2.365   2.401 -1.0361 -1.0892 -1.0283
  743SOL     OW 2227   2.423   0.874   1.694  0.4077 -0.8206 -0.2250
  743SOL    HW1 2228   2.338   0.826   1.668  0.5276  1.5700 -0.2231
  743SOL    HW2 2229   2.490   0.815   1.743 -0.0137  0.7480 -1.0011
  744SOL     OW 2230   2.190   0.570   0.952  0.5451  0.1532  0.4022
  744SOL    HW1 2231   2.261   0.625   0.909 -0.8072 -2.5811  0.8998
  744SOL    HW2 2232   2.101   0.618   0.949 -1.9501  1.9984  1.7387
  745SOL     OW 2233   2.350   1.298   1.752  0.2903 -0.0222 -0.8928
  745SOL    HW1 2234   2.317   1.376   1.699 -0.5731 -2.5842 -0.1775
  745SOL    HW2 2235   2.434   1.251   1.709 -0.3241 -2.7648 -0.7819
  746SOL     OW 2236   1.242   1.612   0.653  0.7694 -0.0242  0.0133
  746SOL    HW1 2237   1.264   1.691   0.712  1.3549  1.2690  2.1845
  746SOL    HW2 2238   1.224   1.530   0.707 -0.1685  0.0684  0.1271
  747SOL     OW 2239   1.612   1.899   1.250 -0.2089 -0.5736  0.6796
  747SOL    HW1 2240   1.513   1.928   1.244  2.4569 -2.3900  1.2324
  747SOL    HW2 2241   1.636   1.849   1.335 -2.7136 -1.5336 -1.8564
  748SOL     OW 2242   0.195   2.753   0.296 -0.1461 -0.0277 -0.3127
  748SOL    HW1 2243   0.108   2.769   0.346  1.0940 -0.4685  1.4022
  748SOL    HW2 2244   0.199   2.796   0.207  0.0378  0.9641  3.8568
  749SOL     OW 2245   0.270   0.996   2.437  0.4077  0.0925  0.2151
  749SOL    HW1 2246   0.296   0.907   2.389  1.2374 -2.3708  1.1493
  749SOL    HW2 2247   0.186   1.038   2.390  1.1805  1.1873 -1.5281
  750SOL     OW 2248   1.361   2.753   1.891 -0.4909  0.2834  0.0112
  750SOL    HW1 2249   1.386   2.757   1.790  0.9771  1.4991 -0.0092
  750SOL    HW2 2250   1.333   2.848   1.918 -1.4482  1.1914 -0.9836
  751SOL     OW 2251   2.787   0.729   0.218 -0.1355 -0.5933  0.1018
  751SOL    HW1 2252   2.772   0.627   0.226 -1.1128  2.2781 -1.3606
  751SOL    HW2 2253   2.775   0.771   0.309 -0.8534 -0.0293 -1.5474
  752SOL     OW 2254   0.295   2.049   0.748 -0.5251  0.4921 -0.0342
  752SOL    HW1 2255   0.284   1.983   0.668  0.0984 -1.5218  1.7468
  752SOL    HW2 2256   0.204   2.074   0.787 -0.3397  0.2572 -2.3456
  753SOL     OW 2257   0.877   2.977   0.973  0.2561 -0.1416 -0.1121
  753SOL    HW1 2258   0.965   2.980   0.923  1.4683  0.4305  0.8683
  753SOL    HW2 2259   0.832   2.887   0.965 -0.2346  2.4724  0.0159
  754SOL     OW 2260   0.586   0.074   2.152 -0.2276 -0.3538  0.0266
  754SOL    HW1 2261   0.527   0.156   2.156 -1.0402  0.0002  0.6975
  754SOL    HW2 2262   0.578   0.010   2.229  1.2095  1.8612 -0.7516
  755SOL     OW 2263   1.872   1.036   2.984 -0.3059  0.2818  0.1242
  755SOL    HW1 2264   1.832   1.097   3.061  0.2196  0.5990  1.9861
  755SOL    HW2 2265   1.815   0.955   2.978  1.0664 -0.8311  0.9836
  756SOL     OW 2266   2.223   2.231   2.531 -0.2987  0.4016 -0.1341
  756SOL    HW1 2267   2.312   2.188   2.506 -0.1481 -1.3732  1.2733
  756SOL    HW2 2268   2.199   2.204   2.629 -0.6391 -0.4064  0.8157
  757SOL     OW 2269   2.060   0.968   0.356  0.1071 -0.3153 -0.3142
  757SOL    HW1 2270   2.094   0.936   0.264 -1.2165  1.2324 -0.6728
  757SOL    HW2 2271   1.964   0.934   0.359 -1.9561 -0.4848 -1.6869
  758SOL     OW 2272   1.910   0.214   1.327  0.3232 -0.4461  0.7462
  758SOL    HW1 2273   1.993   0.210   1.264  1.3173 -0.6461  0.4517
  758SOL    HW2 2274   1.836   0.145   1.304 -1.7273 -0.9642 -0.8498
  759SOL     OW 2275   2.718   0.549   1.179  0.4662  0.0666  0.1996
  759SOL    HW1 2276   2.652   0.478   1.212 -2.6048  0.8267  1.3747
  759SOL    HW2 2277   2.694   0.578   1.083 -0.3583  0.6241 -1.5614
  760SOL     OW 2278   2.244   1.168   1.288  0.2789  0.0446  0.0222
  760SOL    HW1 2279   2.307   1.200   1.216  0.9328  1.1832 -1.2038
  760SOL    HW2 2280   2.174   1.103   1.247 -0.2317 -0.8455 -0.7073
  761SOL     OW 2281   0.465   0.483   0.424  0.5469  0.0785  0.5133
  761SOL    HW1 2282   0.519   0.549   0.482  1.9379  0.2789 -0.3310
  761SOL    HW2 2283   0.365   0.470   0.457 -5.9331 -0.2533  0.1595
  762SOL     OW 2284   1.106   1.982   1.126  0.4761 -0.4069 -0.1271
  762SOL    HW1 2285   1.059   2.009   1.039  0.3871  0.1464 -1.1628
  762SOL    HW2 2286   1.043   1.928   1.182  0.5554  0.9755 -2.7914
  763SOL     OW 2287   1.394   1.266   1.730  0.3928 -0.3801  0.4793
  763SOL    HW1 2288   1.453   1.336   1.777 -0.1801  1.4196  2.5483
  763SOL    HW2 2289   1.448   1.183   1.705 -0.1160  0.3602 -3.0383
  764SOL     OW 2290   0.033   1.845   2.606 -0.0910  0.0296 -0.0828
  764SOL    HW1 2291   3.039   1.867   2.533  1.3103  0.3102  0.9394
  764SOL    HW2 2292   0.008   1.890   2.694  0.3782  1.2596  0.6732
  765SOL     OW 2293   1.173   2.702   1.219  0.1561 -0.5222  0.4155
  765SOL    HW1 2294   1.205   2.657   1.135 -0.4900 -2.9036 -0.4054
  765SOL    HW2 2295   1.073   2.721   1.220  0.3486  1.5803 -0.0412
  766SOL     OW 2296   2.775   2.348   2.487  0.1586  0.3870 -0.1143
  766SOL    HW1 2297   2.673   2.368   2.474 -0.2941  1.3753 -0.3439
  766SOL    HW2 2298   2.794   2.299   2.576 -0.0587  2.5105  3.5340
  767SOL     OW 2299   1.108   0.984   2.392  0.6624  0.1906  0.0106
  767SOL    HW1 2300   1.105   1.052   2.467 -2.2771  0.9337 -0.6215
  767SOL    HW2 2301   1.205   0.973   2.352  0.2597 -0.2713  0.4012
  768SOL     OW 2302   1.069   2.168   2.925 -0.7784 -0.0770 -0.1161
  768SOL    HW1 2303   1.142   2.104   2.927 -2.0027  2.1345  0.1258
  768SOL    HW2 2304   1.100   2.250   2.872 -1.4480 -0.8781 -3.4925
  769SOL     OW 2305   0.467   2.195   0.923  0.3924  0.0849 -0.1835
  769SOL    HW1 2306   0.553   2.146   0.934 -1.0645 -3.2854 -0.5855
  769SOL    HW2 2307   0.409   2.129   0.861 -1.8605 -2.9640 -2.2746
  770SOL     OW 2308   1.665   0.900   2.651  0.3872  0.1842 -0.2699
  770SOL    HW1 2309   1.735   0.848   2.706  1.9869  0.0208  2.6282
  770SOL    HW2 2310   1.582   0.909   2.715 -2.4572  2.9814  1.8024
  771SOL     OW 2311   0.029   0.023   2.152  0.0002  0.0353 -0.1702
  771SOL    HW1 2312   0.112   3.052   2.178 -2.7177 -1.1508 -1.4702
  771SOL    HW2 2313   3.071   3.060   2.068  3.7753 -1.2267  1.5238
  772SOL     OW 2314   2.234   2.663   2.072  0.0561  0.0398 -0.1202
  772SOL    HW1 2315   2.239   2.575   2.124  1.4829  1.6159  1.9363
  772SOL    HW2 2316   2.292   2.672   1.989  0.2524  1.5791  1.5889
  773SOL     OW 2317   0.938   1.941   1.588  0.1059 -0.2910 -0.1734
  773SOL    HW1 2318   0.953   2.036   1.560  0.9229 -0.8356  1.4890
  773SOL    HW2 2319   0.883   1.936   1.675 -0.3241  0.2657  0.4424
  774SOL     OW 2320   1.176   0.232   1.859 -0.5500 -0.7786  0.1296
  774SOL    HW1 2321   1.182   0.249   1.960 -4.7060  1.7044  0.5710
  774SOL    HW2 2322   1.085   0.192   1.838 -0.1577  0.6829 -2.1896
  775SOL     OW 2323   1.800   3.057   2.882 -0.4953 -0.0707 -0.1027
  775SOL    HW1 2324   1.822   0.082   2.896  0.6344 -1.1751 -3.4139
  775SOL    HW2 2325   1.858   3.016   2.813 -2.2450  3.0408  2.7964
  776SOL     OW 2326   2.930   0.580   2.156 -0.0247  0.7142 -0.0134
  776SOL    HW1 2327   2.956   0.557   2.251 -1.5501 -1.6644 -0.4663
  776SOL    HW2 2328   2.832   0.562   2.149  1.2223 -0.0570  0.0404
  777SOL     OW 2329   2.377   2.083   2.180  0.0227 -0.0474 -0.1582
  777SOL    HW1 2330   2.314   2.012   2.146  0.6884 -1.0824 -2.2266
  777SOL    HW2 2331   2.375   2.163   2.117 -0.0149  1.0851  0.5186
  778SOL     OW 2332   1.849   0.861   2.140 -0.2673 -0.4104 -0.7329
  778SOL    HW1 2333   1.843   0.861   2.242 -1.8596 -0.9010  0.7081
  778SOL    HW2 2334   1.754   0.843   2.099 -3.0336  3.1455  0.8432
  779SOL     OW 2335   2.528   0.582   0.738 -0.2867 -0.5020 -0.4326
  779SOL    HW1 2336   2.512   0.492   0.697 -0.5299  0.1838 -1.6425
  779SOL    HW2 2337   2.514   0.650   0.664  0.0700 -1.2757  1.0696
  780SOL     OW 2338   2.422   0.458   0.051  0.1496  0.0388 -0.1856
  780SOL    HW1 2339   2.456   0.378   3.074  0.5407 -1.4002  0.1723
  780SOL    HW2 2340   2.347   0.498   3.076  1.3374 -1.1414  1.0659
  781SOL     OW 2341   0.310   2.436   1.443  0.2532  0.0047  0.2728
  781SOL    HW1 2342   0.315   2.446   1.339 -0.7191 -0.8790 -0.2302
  781SOL    HW2 2343   0.239   2.365   1.471 -1.1488  2.4114  2.1668
  782SOL     OW 2344   2.141   2.442   0.006  0.2208 -0.4432 -0.0497
  782SOL    HW1 2345   2.161   2.505   3.005 -0.0570  0.1769  0.8721
  782SOL    HW2 2346   2.229   2.398   0.039  1.8969  0.4644 -1.5337
  783SOL     OW 2347   0.720   1.453   1.469 -0.2594 -0.7148 -0.5905
  783SOL    HW1 2348   0.651   1.376   1.454 -2.2559  0.7089 -0.0777
  783SOL    HW2 2349   0.728   1.473   1.574 -0.6870  2.1847  2.7803
  784SOL     OW 2350   1.262   0.533   2.751 -0.2538 -0.0562 -0.0186
  784SOL    HW1 2351   1.159   0.522   2.755 -0.5674 -0.0188 -0.5609
  784SOL    HW2 2352   1.284   0.623   2.711 -1.2521 -2.2308 -1.2568
  785SOL     OW 2353   2.339   0.203   1.213  0.5051  0.0141 -0.2219
  785SOL    HW1 2354   2.393   0.210   1.301  0.5591  4.8846  0.3194
  785SOL    HW2 2355   2.278   0.281   1.205 -0.2301  0.2985  0.5520
  786SOL     OW 2356   1.060   2.117   1.883 -0.0553  0.3551  0.1925
  786SOL    HW1 2357   1.045   2.015   1.895  0.0002 -1.5310 -1.2478
  786SOL    HW2 2358   1.066   2.167   1.975  1.5277 -0.0123  0.0137
  787SOL     OW 2359   1.560   0.542   1.094  0.2429 -0.3618 -0.0406
  787SOL    HW1 2360   1.608   0.631   1.100  1.5739  0.2108 -0.4626
  787SOL    HW2 2361   1.612   0.468   1.137 -1.5674 -0.7407  0.3435
  788SOL     OW 2362   0.242   0.677   0.583  0.6301 -0.8889 -0.2509
  788SOL    HW1 2363   0.245   0.657   0.681  0.8738  0.8090 -3.0570
  788SOL    HW2 2364   0.212   0.775   0.574  0.1391  1.0851  0.1312
  789SOL     OW 2365   0.299   2.146   1.338 -0.0043  0.6230  0.0862
  789SOL    HW1 2366   0.388   2.188   1.305  2.6758  1.0788 -2.1063
  789SOL    HW2 2367   0.315   2.065   1.401 -0.4592  1.9982  1.1422
  790SOL     OW 2368   0.972   0.607   2.466 -0.2792 -0.7673  0.0839
  790SOL    HW1 2369   1.001   0.514   2.494 -2.3803 -1.3075 -0.0797
  790SOL    HW2 2370   0.995   0.617   2.370  1.0332 -1.2332  1.5006
  791SOL     OW 2371   1.928   0.633   0.955  0.5145 -0.2688  0.6196
  791SOL    HW1 2372   1.853   0.672   1.014 -0.2387 -0.0441  0.1033
  791SOL    HW2 2373   1.926   0.530   0.945  2.5303  0.8080  1.1489
  792SOL     OW 2374   1.239   2.457   2.051 -0.1410  0.2700  0.0608
  792SOL    HW1 2375   1.191   2.531   2.008  2.1777 -1.4493  0.8981
  792SOL    HW2 2376   1.172   2.383   2.079  0.9224 -1.8129  0.0227
  793SOL     OW 2377   1.184   0.747   0.329  0.0711  0.3599 -0.0942
  793SOL    HW1 2378   1.205   0.817   0.255 -0.2365  1.7519 -2.5505
  793SOL    HW2 2379   1.100   0.781   0.386 -0.4649 -0.4433 -0.5898
  794SOL     OW 2380   0.707   1.044   1.968  0.0738 -0.0222 -0.8292
  794SOL    HW1 2381   0.655   1.128   1.972  0.5867  0.6022 -0.4122
  794SOL    HW2 2382   0.806   1.058   1.996  3.4789  1.7241  3.2216
  795SOL     OW 2383   0.349   2.071   2.401 -0.4279 -0.2324 -0.1271
  795SOL    HW1 2384   0.440   2.026   2.407  0.4703  0.2678  0.7042
  795SOL    HW2 2385   0.320   2.094   2.497  0.2730  0.6496  0.0611
  796SOL     OW 2386   2.537   0.918   2.221 -0.0910 -0.5221 -0.2549
  796SOL    HW1 2387   2.451   0.965   2.186 -2.8528 -0.3436  1.3182
  796SOL    HW2 2388   2.608   0.940   2.148  1.2355  0.0856 -1.5578
  797SOL     OW 2389   2.825   2.216   2.730  0.7847  0.3057 -0.0719
  797SOL    HW1 2390   2.723   2.216   2.720 -0.8056  2.4762  2.3387
  797SOL    HW2 2391   2.855   2.286   2.793 -0.8490 -0.8476 -0.3918
  798SOL     OW 2392   0.327   2.594   2.155  0.1546 -0.2848  0.1411
  798SOL    HW1 2393   0.239   2.619   2.109  0.1289  1.9744  1.1079
  798SOL    HW2 2394   0.325   2.490   2.160 -2.3954 -0.3375 -1.8798
  799SOL     OW 2395   0.270   2.424   2.597  0.0121  1.0208 -0.1294
  799SOL    HW1 2396   0.233   2.334   2.632 -2.0520  0.6051 -0.2800
  799SOL    HW2 2397   0.239   2.503   2.654  0.0748 -0.2466 -1.5695
  800SOL     OW 2398   0.377   2.213   0.136 -0.1388 -0.5445  0.6770
  800SOL    HW1 2399   0.299   2.241   0.078  1.6121 -1.9817  0.9318
  800SOL    HW2 2400   0.399   2.112   0.136 -3.0847  1.7997  0.3497
  801SOL     OW 2401   1.725   1.519   1.112  0.1070 -0.0831 -0.3269
  801SOL    HW1 2402   1.688   1.426   1.140 -1.3903 -0.5817 -0.2834
  801SOL    HW2 2403   1.830   1.524   1.107 -0.8697 -0.8302  0.3273
  802SOL     OW 2404   3.050   1.220   0.706  0.5106  0.7563  0.2252
  802SOL    HW1 2405   3.071   1.251   0.612 -2.6749 -1.0585 -1.6416
  802SOL    HW2 2406   3.066   1.121   0.711 -3.3749  0.2364  0.8788
  803SOL     OW 2407   1.228   1.903   2.218  0.4496 -0.1457  0.2095
  803SOL    HW1 2408   1.300   1.927   2.288  2.3548  1.0559 -0.1864
  803SOL    HW2 2409   1.148   1.969   2.231 -4.1661 -0.0305 -0.1564
  804SOL     OW 2410   1.516   1.546   0.539 -0.8856 -0.0153 -0.1549
  804SOL    HW1 2411   1.576   1.603   0.593  0.6003  0.9053 -2.6633
  804SOL    HW2 2412   1.416   1.569   0.556  0.0718  2.7474  1.4839
  805SOL     OW 2413   2.416   1.256   0.029  0.4963 -0.3182  0.2921
  805SOL    HW1 2414   2.455   1.334   3.043  1.7316  0.4814 -2.6645
  805SOL    HW2 2415   2.409   1.171   3.051  0.9521  2.1437 -1.5943
  806SOL     OW 2416   0.408   2.933   0.360  0.1684 -0.1081  0.6033
  806SOL    HW1 2417   0.501   2.889   0.384 -1.5402 -1.7736 -0.9339
  806SOL    HW2 2418   0.331   2.865   0.365  0.3751  1.0609  2.5612
  807SOL     OW 2419   1.956   1.846   2.823  0.0574  0.3521 -0.2263
  807SOL    HW1 2420   2.027   1.900   2.874  0.6808  0.2031 -1.4373
  807SOL    HW2 2421   1.974   1.746   2.835  1.4493  0.1313 -1.8813
  808SOL     OW 2422   0.776   1.479   1.071  0.0255 -0.1983  0.2362
  808SOL    HW1 2423   0.759   1.392   1.124 -1.1518 -0.1134  0.6410
  808SOL    HW2 2424   0.687   1.516   1.049  1.6400 -0.0052 -0.8524
  809SOL     OW 2425   2.520   0.746   0.494 -0.1750  0.2400 -0.0560
  809SOL    HW1 2426   2.464   0.826   0.514  1.1062 -0.7549 -1.5959
  809SOL    HW2 2427   2.509   0.730   0.391 -2.1164 -1.6122 -1.5760
  810SOL     OW 2428   0.859   1.155   0.489  0.1342  0.7361  0.2402
  810SOL    HW1 2429   0.846   1.126   0.586 -0.9140  0.0356 -2.4756
  810SOL    HW2 2430   0.883   1.253   0.479  2.9814 -2.5511 -0.4770
  811SOL     OW 2431   1.508   2.466   1.192  0.1655 -0.1147  0.4624
  811SOL    HW1 2432   1.576   2.400   1.152  1.2560 -1.5484 -0.2053
  811SOL    HW2 2433   1.465   2.422   1.272 -0.7805 -0.9422  1.5822
  812SOL     OW 2434   1.087   2.547   1.787 -0.1687  0.0736  0.1755
  812SOL    HW1 2435   1.076   2.599   1.871  1.4964 -3.0102 -4.5544
  812SOL    HW2 2436   1.025   2.473   1.778  3.3016  1.3412  0.8299
  813SOL     OW 2437   0.741   2.929   1.748  0.2925  0.3031 -0.4295
  813SOL    HW1 2438   0.706   3.015   1.791  1.1298  0.1241  1.2662
  813SOL    HW2 2439   0.706   2.929   1.652 -1.5839 -1.1591  2.4955
  814SOL     OW 2440   0.888   2.466   2.447  0.8959  0.4664  0.4177
  814SOL    HW1 2441   0.919   2.425   2.540  2.1413 -4.6583  1.8688
  814SOL    HW2 2442   0.806   2.527   2.447 -1.6700  1.1350  1.3825
  815SOL     OW 2443   0.586   0.290   2.509 -0.5959 -0.1081  0.1733
  815SOL    HW1 2444   0.674   0.240   2.484  1.5535  1.8301  3.1667
  815SOL    HW2 2445   0.608   0.393   2.511 -0.4015  3.4511 -0.1392
  816SOL     OW 2446   2.207   0.114   2.822 -0.0052 -0.0229  0.2211
  816SOL    HW1 2447   2.128   0.168   2.849 -1.2535  2.4648  1.3932
  816SOL    HW2 2448   2.243   0.051   2.893 -0.3045  0.0051  0.7002
  817SOL     OW 2449   1.997   0.044   1.974 -0.8182 -0.0527  0.4240
  817SOL    HW1 2450   2.055   3.054   2.019 -3.7003 -2.3791 -0.3052
  817SOL    HW2 2451   2.049   0.097   1.908  0.3737 -0.1286  0.1263
  818SOL     OW 2452   1.585   0.572   0.229 -0.1459  0.2497 -0.2738
  818SOL    HW1 2453   1.571   0.486   0.170 -1.7917 -1.7863  1.6314
  818SOL    HW2 2454   1.686   0.578   0.241 -0.9677 -1.2271  0.6196
  819SOL     OW 2455   1.779   1.600   2.607 -0.0619 -0.4323 -0.1427
  819SOL    HW1 2456   1.745   1.538   2.538  0.2585  0.7522  2.0725
  819SOL    HW2 2457   1.883   1.598   2.602  0.6820  1.2903 -0.6582
  820SOL     OW 2458   0.166   1.727   0.107  0.4334  0.0518  0.4777
  820SOL    HW1 2459   0.121   1.689   0.025 -0.1186  0.7477 -2.1291
  820SOL    HW2 2460   0.260   1.754   0.091  0.0831  1.8610  2.3948
  821SOL     OW 2461   0.188   2.902   0.648 -0.5355  0.9967  0.1938
  821SOL    HW1 2462   0.224   2.960   0.572 -1.5666  1.0080 -0.9028
  821SOL    HW2 2463   0.233   2.806   0.656  1.5324 -1.5718 -0.0872
  822SOL     OW 2464   2.409   2.428   2.758  0.3141 -0.6413 -0.4866
  822SOL    HW1 2465   2.320   2.440   2.810  0.1350  2.1422  1.5634
  822SOL    HW2 2466   2.461   2.512   2.773 -2.3560  0.0088 -2.0398
  823SOL     OW 2467   1.349   0.053   2.281  0.2809 -0.0451 -0.0430
  823SOL    HW1 2468   1.431   0.017   2.237  1.5640  1.5937  1.0557
  823SOL    HW2 2469   1.296   3.054   2.325 -1.3613 -3.6321 -2.3035
  824SOL     OW 2470   2.680   2.278   2.076  0.0998 -0.0497 -0.6054
  824SOL    HW1 2471   2.681   2.213   2.156 -0.6759 -1.6155  5.3082
  824SOL    HW2 2472   2.586   2.313   2.059  0.1712  2.1059 -0.9395
  825SOL     OW 2473   2.933   1.843   2.400 -0.1820 -0.7932 -0.2143
  825SOL    HW1 2474   2.836   1.867   2.423 -0.0575 -0.9494  1.4966
  825SOL    HW2 2475   2.967   1.919   2.335 -0.3186  0.6983  0.2062
  826SOL     OW 2476   2.119   0.949   2.312  0.0872  0.5004  0.3411
  826SOL    HW1 2477   2.099   0.848   2.293 -1.7774 -0.1704  0.7656
  826SOL    HW2 2478   2.032   0.992   2.342  0.0055  0.5331  0.3999
  827SOL     OW 2479   2.601   2.053   1.337  0.0415 -0.0532 -0.3516
  827SOL    HW1 2480   2.500   2.065   1.322  0.9736  0.0679  0.8551
  827SOL    HW2 2481   2.641   1.987   1.269  1.7188  0.1386  2.5885
  828SOL     OW 2482   0.197   0.095   1.776  0.3884  0.3158  0.7243
  828SOL    HW1 2483   0.287   0.103   1.729 -1.8988 -1.3088 -0.7229
  828SOL    HW2 2484   0.162   0.185   1.817 -1.7010  0.6992 -0.5654
  829SOL     OW 2485   1.150   2.135   2.584  0.0958  0.0695  0.2257
  829SOL    HW1 2486   1.236   2.082   2.610  2.4205 -0.8816  1.8520
  829SOL    HW2 2487   1.070   2.070   2.574  1.6091  1.4999  0.0521
  830SOL     OW 2488   1.048   0.708   0.745 -0.1442 -0.1564 -0.4161
  830SOL    HW1 2489   1.003   0.613   0.752  1.4078  0.2059  0.2095
  830SOL    HW2 2490   1.047   0.735   0.650 -2.6060 -0.1420 -0.1987
  831SOL     OW 2491   2.887   1.535   2.928 -0.6003 -0.1698 -0.2391
  831SOL    HW1 2492   2.807   1.581   2.968  1.3298 -0.1667 -2.9683
  831SOL    HW2 2493   2.909   1.449   2.983  0.9678  0.1482 -0.9679
  832SOL     OW 2494   1.715   2.347   2.150 -0.0101 -0.5691 -0.2025
  832SOL    HW1 2495   1.701   2.252   2.173 -0.0990  0.5134 -0.4377
  832SOL    HW2 2496   1.771   2.341   2.066  2.3682  1.4423  2.0923
  833SOL     OW 2497   0.958   0.368   2.099  0.9349  0.2390  0.4858
  833SOL    HW1 2498   1.055   0.362   2.134 -0.9381  0.1253  3.0136
  833SOL    HW2 2499   0.906   0.285   2.125 -0.9876  0.3586  0.5178
  834SOL     OW 2500   0.070   0.316   1.221  0.1807  0.1906 -0.8256
  834SOL    HW1 2501   3.052   0.316   1.253 -1.6149  2.6560  2.6863
  834SOL    HW2 2502   0.133   0.310   1.294  0.8682  0.3530 -0.5334
  835SOL     OW 2503   2.425   0.766   2.921 -0.0041  0.5831  0.0429
  835SOL    HW1 2504   2.359   0.689   2.915  0.4076 -1.5765 -1.1662
  835SOL    HW2 2505   2.524   0.742   2.916 -0.4746 -0.4476 -0.8765
  836SOL     OW 2506   1.225   1.987   0.333 -0.3683 -0.5359 -0.2682
  836SOL    HW1 2507   1.287   2.039   0.400  1.0842  1.3603 -0.6500
  836SOL    HW2 2508   1.189   1.909   0.383  1.7401 -1.3094 -1.7564
  837SOL     OW 2509   1.715   1.702   0.667  0.2183  0.3274 -0.3014
  837SOL    HW1 2510   1.698   1.644   0.752 -0.7835 -3.7503  0.2333
  837SOL    HW2 2511   1.812   1.732   0.673  0.7767 -0.4548 -4.2778
  838SOL     OW 2512   1.380   0.974   1.957 -0.4362  0.2065  0.2120
  838SOL    HW1 2513   1.394   0.914   1.874  1.6272  1.1242 -0.7172
  838SOL    HW2 2514   1.351   1.069   1.932  2.2277  0.4853  1.5947
  839SOL     OW 2515   0.917   1.654   2.493 -0.5163 -0.3418  0.2119
  839SOL    HW1 2516   0.853   1.709   2.544  0.1335  0.7832 -2.1202
  839SOL    HW2 2517   0.886   1.558   2.501  0.8073 -0.1515 -3.1648
  840SOL     OW 2518   0.706   2.158   0.701  0.0820 -0.2182  0.5759
  840SOL    HW1 2519   0.754   2.248   0.722 -2.1696  1.9169 -0.2259
  840SOL    HW2 2520   0.709   2.101   0.782  3.4953  2.7039 -0.5528
  841SOL     OW 2521   1.770   2.485   0.226 -0.2728 -0.4622 -0.2492
  841SOL    HW1 2522   1.864   2.508   0.257  1.9662  0.1046  0.1054
  841SOL    HW2 2523   1.769   2.498   0.126  0.6706  1.9312  0.0038
  842SOL     OW 2524   0.435   0.606   2.968 -0.1531 -0.1983 -0.1685
  842SOL    HW1 2525   0.479   0.618   2.877  0.4783 -0.4033  0.6938
  842SOL    HW2 2526   0.335   0.596   2.952 -0.6841 -2.3758  0.3265
  843SOL     OW 2527   1.203   0.394   0.618 -0.2855 -0.0213 -0.7385
  843SOL    HW1 2528   1.208   0.299   0.586  0.1904  1.8479 -0.0958
  843SOL    HW2 2529   1.291   0.434   0.636  0.4421 -1.7258 -1.5249
  844SOL     OW 2530   2.539   2.948   2.895 -0.2205  0.3432  0.3474
  844SOL    HW1 2531   2.511   2.957   2.794 -0.0852  0.9067 -0.1150
  844SOL    HW2 2532   2.640   2.951   2.893 -1.7591  0.7479 -0.2088
  845SOL     OW 2533   2.952   2.164   1.595 -0.1088 -0.1210  0.1027
  845SOL    HW1 2534   2.855   2.130   1.565 -3.9653 -0.7307 -0.6895
  845SOL    HW2 2535   2.998   2.097   1.657 -2.1246 -0.7364 -1.6720
  846SOL     OW 2536   2.458   1.508   2.298  0.2508 -0.1278  0.6096
  846SOL    HW1 2537   2.462   1.499   2.397  1.7679 -1.4760 -0.1722
  846SOL    HW2 2538   2.543   1.471   2.256 -0.5143 -0.7128  0.3255
  847SOL     OW 2539   1.104   0.487   1.656 -0.3615  0.3893  0.3581
  847SOL    HW1 2540   1.154   0.477   1.745  1.8241  0.2661 -1.2332
  847SOL    HW2 2541   1.006   0.485   1.677  3.1572 -0.2269  1.7062
  848SOL     OW 2542   2.546   2.650   2.879  0.3408  0.4137 -0.2649
  848SOL    HW1 2543   2.471   2.721   2.890  0.5006 -1.1990  1.1559
  848SOL    HW2 2544   2.625   2.678   2.935  0.1084 -1.2421  1.5833
  849SOL     OW 2545   0.554   0.028   0.184 -0.3659 -0.0937  0.6518
  849SOL    HW1 2546   0.516   3.056   0.265 -1.2924 -1.7733 -1.4349
  849SOL    HW2 2547   0.478   0.095   0.154 -3.8967 -0.1762 -2.2440
  850SOL     OW 2548   1.268   2.966   0.992 -0.2170  0.4944  0.2483
  850SOL    HW1 2549   1.338   2.897   1.007 -0.7967 -1.9400 -1.7810
  850SOL    HW2 2550   1.228   2.965   0.901  0.9944 -1.5092  0.4486
  851SOL     OW 2551   2.727   0.264   2.293 -0.0472 -0.1653  0.1731
  851SOL    HW1 2552   2.723   0.357   2.255 -1.1265 -0.2286  0.3777
  851SOL    HW2 2553   2.827   0.235   2.305  0.4983  1.1641  1.7746
  852SOL     OW 2554   1.494   0.582   2.385 -0.1862  0.0240 -0.6997
  852SOL    HW1 2555   1.544   0.579   2.475  0.1022 -0.4250 -1.0127
  852SOL    HW2 2556   1.538   0.513   2.322  0.2971  0.5085 -3.0937
  853SOL     OW 2557   2.729   0.015   0.205  0.4206 -0.4042  0.2735
  853SOL    HW1 2558   2.650   3.043   0.243  1.8195  1.2242 -0.1350
  853SOL    HW2 2559   2.780   0.056   0.282 -1.4452  1.6081  1.4700
  854SOL     OW 2560   2.370   1.284   2.042  0.1954  0.8426  0.3176
  854SOL    HW1 2561   2.454   1.305   2.093  2.6363 -0.8780 -2.6899
  854SOL    HW2 2562   2.381   1.293   1.941 -1.3257 -0.8072 -0.2088
  855SOL     OW 2563   0.723   2.673   0.167  0.0806 -0.3609  0.0485
  855SOL    HW1 2564   0.706   2.766   0.125 -1.1229 -0.6927 -0.8203
  855SOL    HW2 2565   0.719   2.603   0.090 -2.1266  1.0986  0.4688
  856SOL     OW 2566   2.830   2.974   2.880  0.0719  0.1408  0.2653
  856SOL    HW1 2567   2.872   2.958   2.789 -1.2710  0.0095  1.2563
  856SOL    HW2 2568   2.841   2.882   2.936 -0.5527 -4.0862  4.0159
  857SOL     OW 2569   0.973   2.750   1.633  0.9457  0.0378  0.2383
  857SOL    HW1 2570   0.898   2.702   1.584  0.4908  2.5069  2.1125
  857SOL    HW2 2571   1.026   2.686   1.693  2.2985  3.1020  0.3193
  858SOL     OW 2572   2.654   2.223   1.682 -0.1147 -0.5248 -0.3242
  858SOL    HW1 2573   2.738   2.220   1.741  0.3564  1.3552  2.5351
  858SOL    HW2 2574   2.593   2.144   1.693 -1.6702  0.7010 -1.6299
  859SOL     OW 2575   1.642   2.361   1.674  0.2106 -0.1431  0.3260
  859SOL    HW1 2576   1.606   2.295   1.609  1.6196  0.1168  2.9234
  859SOL    HW2 2577   1.582   2.378   1.755 -0.5472 -3.1071 -0.7050
  860SOL     OW 2578   2.077   2.910   2.860  0.7441  0.7551 -0.1856
  860SOL    HW1 2579   2.147   2.939   2.926 -0.4851 -0.3087 -1.4969
  860SOL    HW2 2580   2.008   2.843   2.905 -1.3991  0.3649 -0.4577
  861SOL     OW 2581   2.468   2.941   0.580 -0.5922  0.2224  0.4285
  861SOL    HW1 2582   2.510   2.850   0.565 -0.8157 -0.9625 -0.0547
  861SOL    HW2 2583   2.454   2.953   0.680  0.3701  1.1283  0.4297
  862SOL     OW 2584   1.658   0.013   2.434 -1.1594  0.0489 -0.1187
  862SOL    HW1 2585   1.560   3.056   2.431 -1.4031  1.0824 -2.9705
  862SOL    HW2 2586   1.666   0.110   2.471  1.2252 -0.7863 -1.3067
  863SOL     OW 2587   0.153   0.589   1.237 -0.0977 -0.4742 -0.5776
  863SOL    HW1 2588   0.132   0.656   1.166  1.8956 -2.9661  0.0629
  863SOL    HW2 2589   0.112   0.500   1.216  0.3628  1.2829  1.1620
  864SOL     OW 2590   0.259   2.997   2.224 -0.1025 -0.4776 -0.0423
  864SOL    HW1 2591   0.318   3.019   2.147  2.1524 -0.7775  1.4808
  864SOL    HW2 2592   0.230   2.898   2.210 -2.0744 -1.9589 -2.6070
  865SOL     OW 2593   0.546   1.205   2.999  0.2939 -0.3390  0.1727
  865SOL    HW1 2594   0.633   1.262   3.008  1.0175 -0.2296 -0.3752
  865SOL    HW2 2595   0.530   1.139   3.070 -1.5359  1.2607  0.8648
  866SOL     OW 2596   2.952   0.793   0.010 -0.3908 -0.4064  0.1035
  866SOL    HW1 2597   3.049   0.759   0.021  1.8285  0.7618 -0.5318
  866SOL    HW2 2598   2.898   0.754   0.086  0.6894 -0.1723  1.9942
  867SOL     OW 2599   2.802   2.687   2.961 -0.0737  0.4681  0.0388
  867SOL    HW1 2600   2.823   2.664   3.057 -5.1368  1.2896  2.1979
  867SOL    HW2 2601   2.875   2.654   2.899 -0.4238 -0.7767  1.1090
  868SOL     OW 2602   1.667   0.238   0.310  0.1702  0.2252 -0.1276
  868SOL    HW1 2603   1.616   0.271   0.392  1.1245 -0.1165  1.5536
  868SOL    HW2 2604   1.731   0.310   0.280 -2.4742 -0.2143  0.3945
  869SOL     OW 2605   2.216   1.477   0.476  0.2710  0.0015 -0.0634
  869SOL    HW1 2606   2.294   1.503   0.412 -1.3197 -1.3417 -1.1777
  869SOL    HW2 2607   2.159   1.562   0.493 -2.0229  1.4389 -0.8427
  870SOL     OW 2608   2.062   1.684   0.549 -0.1324 -0.2414  0.4796
  870SOL    HW1 2609   2.042   1.665   0.647  0.1566 -3.2149 -0.3002
  870SOL    HW2 2610   1.982   1.726   0.504 -1.3211 -3.0101  1.6979
  871SOL     OW 2611   1.310   1.518   1.255  0.6987  0.0381 -0.2370
  871SOL    HW1 2612   1.254   1.449   1.208  0.7055  0.9571 -2.6518
  871SOL    HW2 2613   1.357   1.475   1.336 -1.3644 -3.0418  1.4225
  872SOL     OW 2614   1.326   1.583   1.647 -0.2379 -0.2537 -0.1988
  872SOL    HW1 2615   1.240   1.527   1.625 -2.2742 -1.7436  0.3453
  872SOL    HW2 2616   1.298   1.673   1.695 -0.1870  0.9789  2.5205
  873SOL     OW 2617   0.523   1.546   2.427 -0.4021 -0.0506 -0.0141
  873SOL    HW1 2618   0.551   1.537   2.526 -0.7445  0.5063 -0.0474
  873SOL    HW2 2619   0.547   1.638   2.389 -0.8370  0.4118  0.9850
  874SOL     OW 2620   1.001   1.470   1.357 -0.1999 -0.4846 -0.3980
  874SOL    HW1 2621   1.033   1.546   1.299  2.9838  0.4140  0.6406
  874SOL    HW2 2622   0.915   1.485   1.409 -1.4907 -0.2888 -0.0633
  875SOL     OW 2623   2.158   0.413   1.165 -0.7902  0.0694  0.2933
  875SOL    HW1 2624   2.177   0.480   1.088  1.4499  1.3174 -1.6804
  875SOL    HW2 2625   2.124   0.462   1.249  1.8158  0.9652 -3.1241
  876SOL     OW 2626   0.967   0.812   0.045 -0.0028 -0.6572  0.2906
  876SOL    HW1 2627   0.916   0.740   0.094  2.4018 -0.8439 -0.5467
  876SOL    HW2 2628   0.971   0.893   0.111 -1.7279  1.4312  1.6986
  877SOL     OW 2629   2.936   0.487   1.370 -0.8668 -0.4494 -0.4394
  877SOL    HW1 2630   2.877   0.531   1.303 -0.1573 -1.9341  0.7700
  877SOL    HW2 2631   2.994   0.564   1.403  2.5077  0.6027  3.7175
  878SOL     OW 2632   1.517   2.330   0.039  0.3462  0.0014 -0.1052
  878SOL    HW1 2633   1.572   2.407   0.000  2.6601 -1.2738 -2.8247
  878SOL    HW2 2634   1.486   2.262   3.046  3.5220  2.4092  2.3383
  879SOL     OW 2635   2.268   2.004   1.585 -0.2183 -0.4583  0.3951
  879SOL    HW1 2636   2.319   2.034   1.500  0.7615 -0.6103  2.5635
  879SOL    HW2 2637   2.239   2.086   1.638 -0.8886 -1.6269 -1.2786
  880SOL     OW 2638   0.969   3.004   1.489 -0.2339  0.1929  0.0998
  880SOL    HW1 2639   0.954   2.908   1.533  1.0281 -2.6735  1.8413
  880SOL    HW2 2640   0.924   3.007   1.399  0.7184 -0.1013 -2.5494
  881SOL     OW 2641   1.049   1.834   3.040  0.1233 -0.4941 -0.1780
  881SOL    HW1 2642   1.083   1.810   2.947  0.1891 -1.6785 -0.4263
  881SOL    HW2 2643   1.118   1.897   0.003  0.4681 -0.9043 -2.1404
  882SOL     OW 2644   2.273   0.802   1.948  0.5114 -0.1397 -0.3705
  882SOL    HW1 2645   2.287   0.879   2.020 -0.8098  1.8810 -0.4345
  882SOL    HW2 2646   2.276   0.839   1.856 -3.8034 -1.0178  1.6986
  883SOL     OW 2647   1.431   0.381   1.971  0.0768  1.0110 -0.1817
  883SOL    HW1 2648   1.508   0.318   1.968  0.6355  2.8714  0.6766
  883SOL    HW2 2649   1.343   0.339   2.004  0.8856 -0.1492  1.9809
  884SOL     OW 2650   2.838   0.336   0.014  0.2829  0.2554 -0.4293
  884SOL    HW1 2651   2.798   0.246   3.076  1.5252  1.0430 -0.9368
  884SOL    HW2 2652   2.811   0.374   0.107  2.4852 -0.5152  0.2117
  885SOL     OW 2653   0.551   2.147   0.454 -0.3402 -0.0117  0.3476
  885SOL    HW1 2654   0.613   2.166   0.529 -0.6774  0.8444 -2.3618
  885SOL    HW2 2655   0.564   2.219   0.381 -0.0065  0.7130  1.9103
  886SOL     OW 2656   1.751   1.426   2.840 -0.3175 -0.3125 -0.2018
  886SOL    HW1 2657   1.745   1.484   2.758  0.3469 -1.8183 -1.1707
  886SOL    HW2 2658   1.680   1.454   2.905  0.0795  0.6883 -0.0015
  887SOL     OW 2659   2.000   0.482   1.764  0.1753 -0.2240 -0.3657
  887SOL    HW1 2660   2.016   0.553   1.837 -1.0427  2.1820  0.1115
  887SOL    HW2 2661   1.902   0.459   1.762 -0.1233  0.8372 -2.3014
  888SOL     OW 2662   2.794   0.968   1.677  0.6407  0.1992 -0.0714
  888SOL    HW1 2663   2.700   1.004   1.705 -1.6628  1.9819 -0.1820
  888SOL    HW2 2664   2.862   0.989   1.751  0.6496  2.8702  0.6371
  889SOL     OW 2665   2.797   2.677   0.770 -0.0003 -0.4720 -0.1637
  889SOL    HW1 2666   2.815   2.586   0.731  0.2324 -0.3751 -0.8454
  889SOL    HW2 2667   2.870   2.743   0.741 -1.0956 -2.4120  2.7766
  890SOL     OW 2668   2.998   2.584   2.807  0.3132  0.2815 -0.0575
  890SOL    HW1 2669   2.975   2.500   2.868 -2.9638  1.0779 -0.7810
  890SOL    HW2 2670   0.021   2.595   2.800  0.1399  0.0893 -0.3917
  891SOL     OW 2671   0.809   1.732   2.929 -0.0458 -0.5596 -0.2437
  891SOL    HW1 2672   0.886   1.787   2.963 -2.1587 -1.9256  0.8295
  891SOL    HW2 2673   0.843   1.638   2.932  2.0731  3.3254 -1.3378
  892SOL     OW 2674   0.262   2.806   0.951  0.6570 -0.3635 -0.2931
  892SOL    HW1 2675   0.350   2.821   1.002  1.8509 -0.8172  0.1389
  892SOL    HW2 2676   0.275   2.746   0.868  0.2088 -2.1552  1.7061
  893SOL     OW 2677   0.524   0.022   1.012  0.6651 -0.2997 -0.0096
  893SOL    HW1 2678   0.605   0.079   0.986  0.4352  1.7125 -1.0185
  893SOL    HW2 2679   0.469   0.006   0.931  2.4738 -1.8121  0.1202
  894SOL     OW 2680   3.052   1.358   0.945  0.3410 -0.1426 -0.6980
  894SOL    HW1 2681   3.037   1.320   0.850  0.0044  2.5862  3.9024
  894SOL    HW2 2682   3.051   1.460   0.941  1.1681  2.7704  1.0333
  895SOL     OW 2683   2.370   2.481   1.799 -0.6370 -0.3605  0.5460
  895SOL    HW1 2684   2.417   2.481   1.706  0.4909 -0.5982 -0.7908
  895SOL    HW2 2685   2.343   2.576   1.817  0.1426 -2.7389 -0.1971
  896SOL     OW 2686   1.026   0.394   1.424  0.0622  0.4147 -0.0256
  896SOL    HW1 2687   1.016   0.293   1.446  0.5401  0.8231 -0.4901
  896SOL    HW2 2688   1.060   0.446   1.509  1.0067  1.4913  0.3893
  897SOL     OW 2689   0.895   1.672   1.657 -0.4613  0.6762  0.1107
  897SOL    HW1 2690   0.971   1.678   1.725 -2.0534 -0.6394  1.9721
  897SOL    HW2 2691   0.887   1.760   1.605 -0.1562  1.3002  2.3258
  898SOL     OW 2692   1.397   2.735   1.613 -0.0074 -0.3980  0.0101
  898SOL    HW1 2693   1.348   2.643   1.615  1.0598  0.0653  1.6051
  898SOL    HW2 2694   1.360   2.791   1.537 -0.6497  0.3802  0.0450
  899SOL     OW 2695   0.819   0.620   0.185  0.0475  0.4448  0.4108
  899SOL    HW1 2696   0.796   0.660   0.276  0.2193 -0.4228  0.8729
  899SOL    HW2 2697   0.826   0.520   0.190 -0.0380  1.1185  0.1619
  900SOL     OW 2698   1.428   2.359   1.862 -0.0991 -0.4502  0.0289
  900SOL    HW1 2699   1.399   2.432   1.924  2.0551 -2.0312 -2.1385
  900SOL    HW2 2700   1.347   2.304   1.832 -0.3096  5.3977  1.0094
  901SOL     OW 2701   0.841   2.355   0.316  0.0157 -0.8582  0.3581
  901SOL    HW1 2702   0.740   2.367   0.305  0.5591  0.1505  0.0563
  901SOL    HW2 2703   0.871   2.261   0.303  0.3870  2.9829  0.4705
  902SOL     OW 2704   1.856   1.481   0.283  0.0312  0.1148 -0.2835
  902SOL    HW1 2705   1.882   1.553   0.348 -1.4192  0.2330 -0.3106
  902SOL    HW2 2706   1.823   1.394   0.328 -0.7123  1.3755  1.6024
  903SOL     OW 2707   2.035   1.206   0.136 -0.3332  0.1758  0.0617
  903SOL    HW1 2708   2.113   1.208   0.201 -1.9091 -1.0998 -0.7495
  903SOL    HW2 2709   2.066   1.191   0.040  0.0482  0.5086  0.8629
  904SOL     OW 2710   0.770   1.350   3.033  0.4734  0.0440  0.3571
  904SOL    HW1 2711   0.840   1.385   2.975  1.3380 -0.1232  2.2331
  904SOL    HW2 2712   0.802   1.350   0.050 -0.4275 -0.7087 -0.2215
  905SOL     OW 2713   1.977   2.923   1.210 -0.5495  0.5073 -0.0712
  905SOL    HW1 2714   2.067   2.970   1.189  0.6441 -2.2488  0.6163
  905SOL    HW2 2715   1.980   2.823   1.198 -1.1139  1.4931  2.0500
  906SOL     OW 2716   2.712   2.321   1.322 -0.3046 -0.0123 -0.4146
  906SOL    HW1 2717   2.736   2.356   1.228 -1.9733 -0.6065 -0.9449
  906SOL    HW2 2718   2.663   2.234   1.330 -1.3954  0.3701  0.0024
  907SOL     OW 2719   1.376   0.922   0.159 -0.3671  0.5713  0.3993
  907SOL    HW1 2720   1.416   0.877   0.071  1.8716 -2.1526 -0.0667
  907SOL    HW2 2721   1.446   0.927   0.235 -1.9722 -1.0671  1.4249
  908SOL     OW 2722   1.540   2.862   0.961 -0.5621  0.0499  0.3932
  908SOL    HW1 2723   1.638   2.848   0.930  2.9503 -0.1482  0.0582
  908SOL    HW2 2724   1.535   2.915   1.053  1.0823 -0.4677  1.0164
  909SOL     OW 2725   1.948   1.179   1.629  0.3225 -0.7603  0.0379
  909SOL    HW1 2726   1.984   1.206   1.723  2.0379 -1.9480  1.8637
  909SOL    HW2 2727   2.001   1.219   1.549 -1.0222  0.8217 -0.0227
  910SOL     OW 2728   1.569   0.127   1.978  0.5653  0.0666  0.4443
  910SOL    HW1 2729   1.555   0.097   2.072  1.3377  1.0716 -0.1987
  910SOL    HW2 2730   1.640   0.064   1.942  1.7438 -3.3581  2.1999
  911SOL     OW 2731   2.694   0.829   2.679 -0.2171  0.2444 -0.2382
  911SOL    HW1 2732   2.736   0.833   2.590 -1.2051 -0.8831  1.3491
  911SOL    HW2 2733   2.740   0.760   2.736  1.7512  1.0242  0.8528
  912SOL     OW 2734   0.044   1.341   1.722 -0.2585  1.0554 -0.2425
  912SOL    HW1 2735   0.017   1.429   1.683  1.2779 -1.6711 -0.0579
  912SOL    HW2 2736   0.067   1.270   1.650  1.5178 -1.8543 -2.2096
  913SOL     OW 2737   2.899   2.422   1.488  0.2260  0.0649 -0.1101
  913SOL    HW1 2738   2.914   2.339   1.548 -1.3486  1.6829 -0.0710
  913SOL    HW2 2739   2.821   2.396   1.422 -1.8742 -2.6500 -0.1819
  914SOL     OW 2740   1.527   1.020   1.567  0.3268  0.2106 -0.0508
  914SOL    HW1 2741   1.527   0.988   1.473 -1.2675  0.0914  1.6106
  914SOL    HW2 2742   1.583   1.105   1.575  0.7204 -1.6468  0.8263
  915SOL     OW 2743   2.018   0.466   1.410 -0.0944  0.1295  0.3624
  915SOL    HW1 2744   2.092   0.478   1.479 -0.6775 -2.6233  0.5227
  915SOL    HW2 2745   1.986   0.367   1.412 -3.7317 -2.6721  0.8946
  916SOL     OW 2746   2.504   2.241   1.050  0.3377 -0.2881  0.4974
  916SOL    HW1 2747   2.449   2.324   1.069 -0.5508  1.7794 -0.1631
  916SOL    HW2 2748   2.604   2.265   1.054  0.7868 -0.5029  1.8228
  917SOL     OW 2749   1.737   2.217   2.803  0.2131  0.2198  0.5489
  917SOL    HW1 2750   1.827   2.263   2.814  0.0116 -0.1702  0.5782
  917SOL    HW2 2751   1.723   2.144   2.871  0.1328 -0.1651 -1.7941
  918SOL     OW 2752   1.804   2.749   2.183 -0.2412  0.7258  0.1349
  918SOL    HW1 2753   1.835   2.841   2.216 -0.5919 -0.0860  0.0530
  918SOL    HW2 2754   1.706   2.747   2.155  1.0489  1.1239  2.0944
  919SOL     OW 2755   1.055   2.538   1.436  0.3539  0.6136 -0.2851
  919SOL    HW1 2756   1.121   2.493   1.501 -1.8814 -0.7846 -3.2880
  919SOL    HW2 2757   1.103   2.606   1.379  0.8038 -0.4454 -1.1501
  920SOL     OW 2758   3.022   0.211   2.346  0.3187 -0.0770  0.6011
  920SOL    HW1 2759   3.029   0.120   2.295 -0.7830 -2.7631 -2.4828
  920SOL    HW2 2760   2.991   0.201   2.446 -0.0855 -0.5970  0.3772
  921SOL     OW 2761   3.024   0.940   1.830  0.5096 -0.2294 -0.2609
  921SOL    HW1 2762   3.041   0.994   1.918 -1.3225  2.6063  2.9292
  921SOL    HW2 2763   0.024   0.922   1.767 -0.6423  0.6052 -0.4928
  922SOL     OW 2764   2.025   1.983   0.284  0.4321  0.4321 -0.0951
  922SOL    HW1 2765   2.036   2.068   0.229 -2.3937 -1.5404 -2.1980
  922SOL    HW2 2766   2.050   1.894   0.237  2.1356 -1.4952  0.1303
  923SOL     OW 2767   0.677   1.819   0.285 -0.0279  0.3003 -0.4843
  923SOL    HW1 2768   0.705   1.730   0.246  0.8865  0.9859 -0.8173
  923SOL    HW2 2769   0.707   1.899   0.230  2.9001 -1.4215 -0.4870
  924SOL     OW 2770   1.039   0.520   3.062 -0.6916  0.0328 -0.3679
  924SOL    HW1 2771   0.955   0.565   0.020 -0.8254  0.3031  0.5511
  924SOL    HW2 2772   1.019   0.512   2.961  0.2954 -2.2117 -0.5377
  925SOL     OW 2773   2.684   0.679   0.944 -0.4374  0.1290  0.2356
  925SOL    HW1 2774   2.692   0.777   0.916  1.6558 -0.6728  1.9134
  925SOL    HW2 2775   2.619   0.630   0.881  2.9982 -0.6296  1.5665
  926SOL     OW 2776   0.544   0.303   1.198  0.3714 -0.2831  0.1018
  926SOL    HW1 2777   0.507   0.206   1.192 -1.6032 -1.7487  1.9376
  926SOL    HW2 2778   0.562   0.337   1.294  2.8633 -0.5000 -3.0631
  927SOL     OW 2779   0.161   1.552   2.342  0.2486  0.6503  0.3802
  927SOL    HW1 2780   0.068   1.577   2.370  1.2580 -1.5205 -0.5746
  927SOL    HW2 2781   0.146   1.476   2.271 -0.3276  0.4331 -3.7595
  928SOL     OW 2782   2.955   0.177   2.597  0.0568  0.2546  0.1231
  928SOL    HW1 2783   2.874   0.164   2.663  0.4335  1.7078  0.4680
  928SOL    HW2 2784   3.043   0.150   2.647  1.4536  0.8994  1.5285
  929SOL     OW 2785   2.653   0.117   1.248  0.2102 -0.3512 -0.5331
  929SOL    HW1 2786   2.587   0.041   1.247  1.1657 -0.0004 -1.0746
  929SOL    HW2 2787   2.615   0.205   1.279  2.8962 -0.1202  0.4201
  930SOL     OW 2788   1.812   0.806   1.822 -0.0287 -0.2900  0.4259
  930SOL    HW1 2789   1.779   0.751   1.737  0.8767 -0.4231 -1.4573
  930SOL    HW2 2790   1.743   0.814   1.899 -2.7350  2.6762  3.3607
  931SOL     OW 2791   2.110   1.151   2.968 -0.5898  0.0132  0.7783
  931SOL    HW1 2792   2.190   1.099   2.926  0.7467  2.1340 -0.6027
  931SOL    HW2 2793   2.027   1.101   2.953 -0.2136  2.7330  3.4855
  932SOL     OW 2794   2.079   1.306   0.652 -0.2503  0.5209  0.1946
  932SOL    HW1 2795   2.130   1.356   0.579  0.5969  0.9083  0.6880
  932SOL    HW2 2796   2.102   1.206   0.645  1.8935 -1.5585  2.3599
  933SOL     OW 2797   2.450   1.591   0.875 -0.0142 -0.1692  0.0527
  933SOL    HW1 2798   2.419   1.534   0.803  2.3089  3.5303  2.1718
  933SOL    HW2 2799   2.442   1.687   0.848  1.7740 -0.2810 -2.0369
  934SOL     OW 2800   2.123   0.666   2.324  0.2276  0.0473 -0.5899
  934SOL    HW1 2801   2.176   0.595   2.270 -0.7085 -2.3997 -3.5858
  934SOL    HW2 2802   2.042   0.625   2.374  0.7531 -0.7792  4.1984
  935SOL     OW 2803   0.146   0.934   0.590  0.0089 -0.0860  0.0882
  935SOL    HW1 2804   0.112   0.942   0.494 -0.0584  1.8669  0.0426
  935SOL    HW2 2805   0.070   0.929   0.658 -2.1106 -1.6827  3.0784
  936SOL     OW 2806   0.328   0.301   0.667  0.1267  0.1621  0.2010
  936SOL    HW1 2807   0.367   0.233   0.605  0.8904 -1.7172  0.6722
  936SOL    HW2 2808   0.393   0.332   0.740  0.9674 -0.1971 -0.4807
  937SOL     OW 2809   2.898   0.116   1.787 -0.3072  0.2256 -0.5089
  937SOL    HW1 2810   2.909   0.168   1.700 -0.5521 -0.8628 -2.9939
  937SOL    HW2 2811   2.984   0.076   1.824 -1.1504  2.8011 -1.5065
  938SOL     OW 2812   0.011   2.308   0.047  0.3920 -0.5165 -0.0899
  938SOL    HW1 2813   0.003   2.321   0.148 -1.0396 -0.4309  0.9368
  938SOL    HW2 2814   0.087   2.367   0.015 -0.0623 -0.4608 -0.8268
  939SOL     OW 2815   0.662   1.775   0.826  0.0179 -0.3348 -0.1420
  939SOL    HW1 2816   0.701   1.858   0.872  0.5749 -0.6415  0.2587
  939SOL    HW2 2817   0.564   1.784   0.837  3.1903  0.3522 -3.8640
  940SOL     OW 2818   3.061   0.387   2.928  0.1921  0.8655  0.1343
  940SOL    HW1 2819   2.977   0.388   2.990  0.6198 -2.3018  0.7231
  940SOL    HW2 2820   0.040   0.303   2.949 -2.9112 -0.7184 -0.0874
  941SOL     OW 2821   1.640   0.592   2.616  0.0255 -0.4557 -0.3356
  941SOL    HW1 2822   1.588   0.554   2.698 -1.6208 -1.3562  3.6057
  941SOL    HW2 2823   1.710   0.652   2.657  0.7593 -0.5475 -0.1012
  942SOL     OW 2824   1.293   0.542   1.226 -0.7810  0.1798  0.1470
  942SOL    HW1 2825   1.387   0.556   1.181  2.7446 -0.0213 -1.3635
  942SOL    HW2 2826   1.245   0.465   1.178  0.5812 -0.8218  0.8076
  943SOL     OW 2827   1.121   0.844   1.715  0.0316  0.0244 -0.1831
  943SOL    HW1 2828   1.225   0.844   1.709  0.7660  0.4526 -1.9687
  943SOL    HW2 2829   1.093   0.810   1.807 -0.6853 -1.7328  0.2958
  944SOL     OW 2830   1.960   0.893   1.628  0.1783  0.0253  0.8846
  944SOL    HW1 2831   1.931   0.864   1.724 -1.6418  0.3321  0.8581
  944SOL    HW2 2832   1.947   0.996   1.620  1.4572 -0.2472 -1.9260
  945SOL     OW 2833   2.507   2.946   0.291 -0.1640  0.7085 -0.3926
  945SOL    HW1 2834   2.511   2.964   0.390 -1.8091 -2.4756 -1.3771
  945SOL    HW2 2835   2.443   3.006   0.248  1.1735 -0.2435 -1.4913
  946SOL     OW 2836   2.839   0.754   1.960 -0.0442  0.0330 -0.0547
  946SOL    HW1 2837   2.894   0.689   2.018  1.3700 -0.1822  1.7367
  946SOL    HW2 2838   2.892   0.785   1.881 -2.0479 -4.7261  2.5719
  947SOL     OW 2839   1.250   3.011   0.231  0.6215  0.1658 -0.1375
  947SOL    HW1 2840   1.351   3.028   0.245 -1.2339 -3.7377 -2.4162
  947SOL    HW2 2841   1.236   2.920   0.189 -1.3190  0.7015 -0.9024
  948SOL     OW 2842   2.412   1.686   1.474  0.5828 -0.1157 -0.1373
  948SOL    HW1 2843   2.490   1.745   1.480  0.0435  0.0522  0.7907
  948SOL    HW2 2844   2.453   1.589   1.482  0.6626 -1.7428 -0.7412
  949SOL     OW 2845   0.376   1.356   0.080 -0.4753 -0.0958  0.2662
  949SOL    HW1 2846   0.279   1.328   0.076  0.0657  1.1652  1.0514
  949SOL    HW2 2847   0.425   1.302   0.008 -1.4794 -0.6677 -1.8522
  950SOL     OW 2848   0.604   2.428   1.001  0.4110 -0.8132  0.3804
  950SOL    HW1 2849   0.587   2.480   0.915  2.3344  1.6078 -1.5210
  950SOL    HW2 2850   0.541   2.349   0.999  0.4402 -1.1190 -0.3620
  951SOL     OW 2851   0.709   1.020   2.486  0.0271 -0.7606 -0.2855
  951SOL    HW1 2852   0.754   1.048   2.572  0.4205  3.0590 -0.8735
  951SOL    HW2 2853   0.767   1.043   2.405  0.8618 -0.9204 -1.7749
  952SOL     OW 2854   0.383   1.011   0.734 -0.1827  0.3377 -0.3042
  952SOL    HW1 2855   0.371   1.113   0.738  0.7739 -0.4976 -0.3648
  952SOL    HW2 2856   0.303   0.972   0.683 -0.8884  0.1128  1.5728
  953SOL     OW 2857   2.516   2.987   2.335  0.1084 -0.6358  0.0546
  953SOL    HW1 2858   2.499   3.077   2.385 -0.8429 -0.5638  0.5281
  953SOL    HW2 2859   2.495   2.909   2.394 -0.2504  0.0156  0.5709
  954SOL     OW 2860   1.497   1.276   0.438 -0.2966 -0.1948  0.8247
  954SOL    HW1 2861   1.494   1.370   0.475  0.0509 -2.6496  0.5845
  954SOL    HW2 2862   1.459   1.285   0.342 -1.0367  1.8011 -1.9212
  955SOL     OW 2863   0.715   2.028   0.128 -0.6605  0.4405 -0.2339
  955SOL    HW1 2864   0.817   2.055   0.153  0.2214  2.3923 -0.6098
  955SOL    HW2 2865   0.663   2.104   0.085  0.3148 -0.1502 -0.2965
  956SOL     OW 2866   2.341   0.543   1.956  0.5676 -0.3607  0.3164
  956SOL    HW1 2867   2.300   0.506   2.043  0.1976 -1.0170 -0.8540
  956SOL    HW2 2868   2.315   0.641   1.941 -1.7231 -1.2446  0.1357
  957SOL     OW 2869   1.984   2.259   2.352 -0.5370 -0.5161 -0.7479
  957SOL    HW1 2870   1.946   2.355   2.363  2.1258  1.5947  1.5052
  957SOL    HW2 2871   2.074   2.249   2.397 -0.9210 -1.9176 -0.2267
  958SOL     OW 2872   1.643   1.277   1.194  0.5556  0.0401  0.9048
  958SOL    HW1 2873   1.737   1.267   1.237  2.1295 -0.4150  2.7899
  958SOL    HW2 2874   1.565   1.254   1.261  0.8954  1.3574 -2.2663
  959SOL     OW 2875   1.891   2.002   2.410  0.4017 -0.4602 -0.0784
  959SOL    HW1 2876   1.905   2.099   2.384 -0.6072  1.7164  1.3816
  959SOL    HW2 2877   1.820   1.996   2.482 -0.2558  2.9639 -1.3115
  960SOL     OW 2878   0.375   0.982   2.724 -0.1724  0.0804 -0.2038
  960SOL    HW1 2879   0.335   1.017   2.634 -1.0772 -0.8497  1.8199
  960SOL    HW2 2880   0.478   0.985   2.728  2.8828 -1.1981  0.1635
  961SOL     OW 2881   0.222   1.051   2.948  0.0775  0.5233 -0.1231
  961SOL    HW1 2882   0.265   1.026   2.861  0.8765 -2.3598  1.7241
  961SOL    HW2 2883   0.154   1.129   2.949  0.3763  1.0265 -0.9126
  962SOL     OW 2884   0.482   1.158   2.479  0.6503  0.9384 -0.2481
  962SOL    HW1 2885   0.398   1.099   2.463  1.1314 -0.3971 -0.5803
  962SOL    HW2 2886   0.570   1.106   2.484  0.0280  1.6281  2.3278
  963SOL     OW 2887   2.757   2.210   0.179  0.3297  0.0466  0.2813
  963SOL    HW1 2888   2.740   2.310   0.197 -1.3259  1.6122  1.2823
  963SOL    HW2 2889   2.706   2.180   0.095 -0.0518 -0.0629 -2.9516
  964SOL     OW 2890   0.919   2.342   1.734 -0.3616  0.0590 -0.1673
  964SOL    HW1 2891   0.943   2.253   1.779 -1.0109 -3.0047  0.0578
  964SOL    HW2 2892   0.828   2.368   1.772  0.0498 -0.2337 -0.2782
  965SOL     OW 2893   1.843   1.758   0.395 -0.4137  0.1023 -0.4467
  965SOL    HW1 2894   1.754   1.748   0.441 -2.9444 -0.6425  1.5831
  965SOL    HW2 2895   1.857   1.836   0.330 -1.2232  1.0017  0.5333
  966SOL     OW 2896   2.949   1.484   0.470  0.6260 -0.2605 -0.5280
  966SOL    HW1 2897   2.957   1.382   0.496  0.3283 -2.4183  2.4542
  966SOL    HW2 2898   3.033   1.514   0.412  3.0199 -2.2426  0.2572
  967SOL     OW 2899   1.819   2.776   1.774  0.0961 -0.0857 -0.3168
  967SOL    HW1 2900   1.795   2.700   1.715 -0.6805 -3.4169  4.8342
  967SOL    HW2 2901   1.862   2.740   1.859  0.5091  0.4215 -1.4806
  968SOL     OW 2902   1.110   0.448   0.368  0.3277 -0.1123 -0.3498
  968SOL    HW1 2903   1.162   0.435   0.452 -0.4015 -3.2580  0.8478
  968SOL    HW2 2904   1.116   0.546   0.340 -0.5813  1.5140  3.4958
  969SOL     OW 2905   0.168   1.331   2.182  0.6606  0.1717  0.2799
  969SOL    HW1 2906   0.265   1.305   2.206 -0.0510 -2.1384 -0.8863
  969SOL    HW2 2907   0.173   1.369   2.090 -2.5432 -0.2503  4.6837
  970SOL     OW 2908   2.099   2.013   1.204 -0.3532  0.1707 -0.0929
  970SOL    HW1 2909   2.008   2.010   1.251  3.6824  0.1411  0.6565
  970SOL    HW2 2910   2.087   2.033   1.101 -0.8911 -0.0106 -1.4455
  971SOL     OW 2911   2.601   2.596   0.960  0.0897  0.2120  0.3071
  971SOL    HW1 2912   2.645   2.515   1.000 -0.2927  3.1269  0.8584
  971SOL    HW2 2913   2.661   2.633   0.882  0.1325  1.1633  0.8333
  972SOL     OW 2914   0.013   1.141   2.628 -0.2794 -0.3139 -0.1649
  972SOL    HW1 2915   0.068   1.159   2.542  4.0168 -2.1707 -5.2639
  972SOL    HW2 2916   2.996   1.172   2.611 -2.2737 -2.8137  1.0102
  973SOL     OW 2917   0.625   0.639   0.594  0.0798  0.1993  0.1480
  973SOL    HW1 2918   0.582   0.699   0.666 -0.2512  0.4109  1.0238
  973SOL    HW2 2919   0.669   0.558   0.641  0.1250  1.6247  1.4667
  974SOL     OW 2920   2.180   0.750   1.662  0.1500 -0.1317  0.0621
  974SOL    HW1 2921   2.107   0.821   1.634 -1.8292  3.0405  2.5713
  974SOL    HW2 2922   2.151   0.652   1.648 -1.2668 -0.9485  0.3806
  975SOL     OW 2923   2.965   2.904   0.160 -0.4122 -0.4578  0.0579
  975SOL    HW1 2924   2.905   2.979   0.203  0.5639  2.4764  2.2883
  975SOL    HW2 2925   2.995   2.848   0.233 -5.3019  0.2319 -1.3521
  976SOL     OW 2926   0.463   1.721   1.172  0.2847 -0.5161 -0.2382
  976SOL    HW1 2927   0.469   1.620   1.173 -0.2205  1.1051  0.0726
  976SOL    HW2 2928   0.472   1.759   1.074 -0.0044  0.9944 -2.7308
  977SOL     OW 2929   1.007   1.880   0.751 -0.3878  0.3372 -0.2234
  977SOL    HW1 2930   0.981   1.875   0.651 -2.3575  0.8482  0.9854
  977SOL    HW2 2931   1.041   1.785   0.786 -4.8724 -3.4472 -2.6400
  978SOL     OW 2932   0.455   0.973   0.034  0.3924 -0.5399  0.5459
  978SOL    HW1 2933   0.470   0.884   0.080  0.8679 -1.8306  0.8139
  978SOL    HW2 2934   0.400   0.960   3.031  1.4717 -1.8579 -0.2833
  979SOL     OW 2935   2.089   1.542   0.117 -0.3559 -0.1874  0.1577
  979SOL    HW1 2936   2.120   1.474   0.054 -2.2451  4.2651  0.0955
  979SOL    HW2 2937   2.011   1.521   0.173 -0.9558 -1.0707 -2.0388
  980SOL     OW 2938   0.471   2.074   2.094 -0.1684  0.2337 -0.4337
  980SOL    HW1 2939   0.570   2.058   2.081  0.3604  0.5163  0.5581
  980SOL    HW2 2940   0.451   2.063   2.196  1.7549  2.6765  1.2404
  981SOL     OW 2941   2.623   0.950   0.147  0.1740 -0.2398 -0.5517
  981SOL    HW1 2942   2.666   0.857   0.157  1.2964 -1.1792  2.8899
  981SOL    HW2 2943   2.525   0.948   0.177  0.4440  0.9984 -2.1363
  982SOL     OW 2944   0.095   2.787   2.072  0.5553  0.1545  0.2487
  982SOL    HW1 2945   0.002   2.777   2.114  0.1316  2.2168 -1.1770
  982SOL    HW2 2946   0.106   2.731   1.985  1.3250 -2.1761 -1.7882
  983SOL     OW 2947   1.624   0.152   1.519 -0.6524 -0.0494  0.2192
  983SOL    HW1 2948   1.678   0.084   1.463 -1.4604 -0.6331  2.2465
  983SOL    HW2 2949   1.531   0.109   1.544 -2.7053  0.1724  0.8112
  984SOL     OW 2950   1.411   2.961   2.571 -0.4532  0.5530 -0.4306
  984SOL    HW1 2951   1.505   2.991   2.601  1.5088  1.5811 -0.8213
  984SOL    HW2 2952   1.355   2.932   2.652  0.0703 -0.3028  0.9018
  985SOL     OW 2953   1.456   1.735   1.446 -0.1829 -0.4754  0.0053
  985SOL    HW1 2954   1.429   1.699   1.351 -0.2784  1.9706 -1.6399
  985SOL    HW2 2955   1.406   1.702   1.527  1.8180  0.6451 -0.1995
  986SOL     OW 2956   1.911   2.976   2.245 -0.4232  0.1351  0.0077
  986SOL    HW1 2957   2.013   2.963   2.227 -2.1769 -1.1884 -0.7608
  986SOL    HW2 2958   1.880   3.067   2.208 -0.3150  0.4162 -2.0315
  987SOL     OW 2959   2.743   1.787   2.667 -0.1217  0.0648  0.4886
  987SOL    HW1 2960   2.770   1.838   2.750  1.8960 -2.4472 -0.3433
  987SOL    HW2 2961   2.692   1.845   2.601 -1.0446  1.3021  0.2397
  988SOL     OW 2962   2.896   0.721   1.630 -0.9072  0.0815 -0.2913
  988SOL    HW1 2963   2.877   0.820   1.651 -0.5528 -0.5613 -0.4810
  988SOL    HW2 2964   2.948   0.717   1.538 -1.3593 -0.0269 -0.9324
  989SOL     OW 2965   1.696   1.241   1.567 -0.2376 -0.3947  0.3411
  989SOL    HW1 2966   1.723   1.342   1.563  0.4941  0.4690 -0.3587
  989SOL    HW2 2967   1.775   1.200   1.608 -3.3830  1.0924 -2.3100
  990SOL     OW 2968   2.821   1.025   3.038 -0.6692  0.0112  0.6542
  990SOL    HW1 2969   2.747   1.015   0.023  3.0015  0.6124 -2.3560
  990SOL    HW2 2970   2.881   0.943   3.045  1.7228 -0.6962 -1.3930
  991SOL     OW 2971   0.381   2.102   2.926 -0.1421 -0.1588  0.3982
  991SOL    HW1 2972   0.297   2.069   2.982 -0.5953 -0.3881  2.6746
  991SOL    HW2 2973   0.447   2.025   2.908 -1.3655 -0.8262  0.1616
  992SOL     OW 2974   2.559   1.986   1.745 -0.1073  0.2426  0.7709
  992SOL    HW1 2975   2.479   1.925   1.774 -2.3268 -0.0006  0.4042
  992SOL    HW2 2976   2.645   1.960   1.799  0.5152  1.7724 -1.1309
  993SOL     OW 2977   0.606   3.006   0.725  0.3221  0.7085  0.4078
  993SOL    HW1 2978   0.509   3.038   0.733  0.3735 -2.1318 -0.5104
  993SOL    HW2 2979   0.668   0.008   0.709 -0.2072  0.0278  0.8385
  994SOL     OW 2980   0.000   1.927   1.709 -0.2143  0.2923 -0.1061
  994SOL    HW1 2981   3.060   1.898   1.805  0.7964 -1.7817 -1.3664
  994SOL    HW2 2982   0.069   1.866   1.659  0.7462 -0.8907 -0.7341
  995SOL     OW 2983   2.095   1.892   2.579  0.1723  0.6197 -0.0235
  995SOL    HW1 2984   2.029   1.880   2.657 -2.0780  0.0691  2.4138
  995SOL    HW2 2985   2.050   1.942   2.497 -0.2316 -1.6761 -1.1590
  996SOL     OW 2986   2.032   1.801   0.075  0.0400 -0.0063  0.4640
  996SOL    HW1 2987   1.933   1.801   0.097 -0.6209 -1.5098 -1.0049
  996SOL    HW2 2988   2.073   1.707   0.085  2.2080  3.8820  2.6910
  997SOL     OW 2989   1.119   1.404   1.610 -0.0123  0.7583  0.3464
  997SOL    HW1 2990   1.162   1.316   1.615  0.9128  1.8356  0.3690
  997SOL    HW2 2991   1.083   1.418   1.514 -0.5559  0.9563 -1.6402
  998SOL     OW 2992   2.821   2.086   0.841 -0.4777 -0.1735 -0.8459
  998SOL    HW1 2993   2.857   2.078   0.745 -0.7447 -2.2958 -1.0902
  998SOL    HW2 2994   2.864   2.025   0.909  0.7251 -1.1069  1.3346
  999SOL     OW 2995   2.729   2.486   0.197  0.1907 -0.5683  0.4184
  999SOL    HW1 2996   2.690   2.455   0.106 -2.7124 -0.2996  0.9648
  999SOL    HW2 2997   2.669   2.557   0.242 -0.3580  0.3100 -0.6498
 1000SOL     OW 2998   1.183   0.132   2.911 -0.3022 -0.2002 -0.6125
 1000SOL    HW1 2999   1.160   0.122   3.010 -1.4246 -1.8164 -1.8578
 1000SOL    HW2 3000   1.100   0.133   2.855  2.2375 -0.3670  1.1243
   3.07809   3.07809   3.07809
