1000 SPC/Fw water molecules t= 380.00000 step= 380000
 3000
    1SOL     OW    1   2.533   2.779   1.705  0.2932 -0.0239 -0.8695
    1SOL    HW1    2   2.514   2.874   1.742  0.5760  2.4422  0.7197
    1SOL    HW2    3   2.504   2.764   1.605  2.0087  2.5330  0.3322
    2SOL     OW    4   2.327   2.288   0.561  0.0970 -0.2067  0.8378
    2SOL    HW1    5   2.278   2.281   0.472  0.4065  0.0679  1.6257
    2SOL    HW2    6   2.407   2.352   0.552  1.0132 -3.3349  0.3510
    3SOL     OW    7   1.191   3.016   0.138  0.5320 -0.1009  0.0084
    3SOL    HW1    8   1.163   0.013   0.178 -0.4900  0.9417 -3.7304
    3SOL    HW2    9   1.196   3.025   0.034 -0.6624  0.0750 -1.2315
    4SOL     OW   10   1.169   0.024   2.163 -0.4635  0.2050  0.3050
    4SOL    HW1   11   1.160   3.036   2.227 -2.0541  0.2031  1.5137
    4SOL    HW2   12   1.192   3.078   2.071  0.3601  2.2717 -0.3888
    5SOL     OW   13   2.181   0.391   1.402  0.0245  0.3669  0.0360
    5SOL    HW1   14   2.149   0.334   1.323  0.7406  0.0204 -0.4170
    5SOL    HW2   15   2.116   0.387   1.480  2.0320 -4.0909  0.4487
    6SOL     OW   16   2.095   2.049   0.552  0.6215 -0.0986 -0.4310
    6SOL    HW1   17   2.091   2.105   0.467 -2.3709 -1.5152  1.1291
    6SOL    HW2   18   2.031   1.970   0.548  3.0477  2.2894 -1.8062
    7SOL     OW   19   2.110   1.101   0.823  0.0413  0.1437 -0.2591
    7SOL    HW1   20   2.104   1.172   0.895 -0.1938 -0.5300  1.1107
    7SOL    HW2   21   2.074   1.013   0.860 -1.8360  1.5379  0.7647
    8SOL     OW   22   0.844   1.306   1.144 -0.1037  0.1511 -0.2211
    8SOL    HW1   23   0.820   1.405   1.141 -1.6702  1.4246 -2.1757
    8SOL    HW2   24   0.765   1.248   1.143  3.6876  2.8998  2.9391
    9SOL     OW   25   0.764   2.574   1.499 -0.1115  0.5702  0.0323
    9SOL    HW1   26   0.768   2.672   1.533  1.0063  3.0981  0.6959
    9SOL    HW2   27   0.684   2.528   1.537  0.3646  1.8860  0.8668
   10SOL     OW   28   1.125   2.389   0.527 -0.3037  0.2570  0.5510
   10SOL    HW1   29   1.038   2.361   0.485  4.0070 -2.1327 -0.9666
   10SOL    HW2   30   1.192   2.311   0.539  0.4263  2.0390  0.6976
   11SOL     OW   31   1.685   1.661   1.291 -0.4664 -0.1621 -0.0584
   11SOL    HW1   32   1.678   1.762   1.316  1.0590  0.2402 -0.6150
   11SOL    HW2   33   1.736   1.641   1.206  2.4935  1.3314 -2.2469
   12SOL     OW   34   2.689   0.404   1.925 -0.5023  0.7890 -0.0630
   12SOL    HW1   35   2.781   0.414   1.882  2.3582 -0.2185  0.7306
   12SOL    HW2   36   2.670   0.486   1.982 -1.4903 -2.8854 -1.6824
   13SOL     OW   37   2.556   0.251   0.558  0.0105 -0.2615 -0.2990
   13SOL    HW1   38   2.511   0.172   0.519  2.7201  0.8256 -0.4044
   13SOL    HW2   39   2.490   0.314   0.602 -0.2645 -1.2223 -1.1575
   14SOL     OW   40   1.750   1.293   3.020  0.3140 -0.0064  0.2516
   14SOL    HW1   41   1.768   1.199   2.983  2.1471  0.4348 -1.9727
   14SOL    HW2   42   1.660   1.333   2.999 -2.4792  1.6025  0.9737
   15SOL     OW   43   2.456   2.468   1.635  0.4187  0.4553  0.4843
   15SOL    HW1   44   2.457   2.550   1.572  2.6609  0.0797  1.5005
   15SOL    HW2   45   2.421   2.499   1.728 -2.3167  0.5759  0.9982
   16SOL     OW   46   2.226   2.906   1.059  0.1902 -0.0583  0.1579
   16SOL    HW1   47   2.301   2.951   1.012 -0.0864 -1.2723 -0.4210
   16SOL    HW2   48   2.146   2.897   0.998 -1.3630  0.7673 -3.0750
   17SOL     OW   49   1.010   0.344   1.459  0.2104  0.1949  0.8196
   17SOL    HW1   50   1.034   0.272   1.389  2.7481 -2.0879 -1.7641
   17SOL    HW2   51   0.943   0.306   1.529 -0.3639 -0.1970  0.3051
   18SOL     OW   52   1.799   0.375   0.726 -0.1249  0.1526 -0.3920
   18SOL    HW1   53   1.746   0.438   0.782 -0.2822 -1.1084 -1.5936
   18SOL    HW2   54   1.793   0.282   0.765 -0.3234  1.6613  1.7075
   19SOL     OW   55   2.199   1.442   0.169  0.2809  0.3335  0.3527
   19SOL    HW1   56   2.111   1.423   0.117  2.1654 -0.3834  1.6196
   19SOL    HW2   57   2.211   1.546   0.178  0.9540  4.1117 -1.3202
   20SOL     OW   58   2.132   1.448   2.396 -0.1226  0.4668  0.2345
   20SOL    HW1   59   2.223   1.427   2.348  1.0233 -4.0195 -0.7380
   20SOL    HW2   60   2.059   1.377   2.372 -2.8640 -5.1045 -1.2828
   21SOL     OW   61   1.419   0.373   0.552 -0.1218  0.4617  0.4109
   21SOL    HW1   62   1.366   0.295   0.506 -0.8460  0.0839  0.3357
   21SOL    HW2   63   1.518   0.378   0.520  0.1104  1.1362 -1.4054
   22SOL     OW   64   2.594   0.726   1.137  0.0286  0.3018 -0.9110
   22SOL    HW1   65   2.531   0.792   1.179 -2.7660  3.7585 -2.1589
   22SOL    HW2   66   2.607   0.647   1.199  1.1640 -0.4766  0.5738
   23SOL     OW   67   0.230   0.142   1.962  0.5468  0.3940 -0.1710
   23SOL    HW1   68   0.276   0.233   1.970  0.7931  1.0515  1.4585
   23SOL    HW2   69   0.269   0.090   2.038 -1.6456  0.8616 -0.7196
   24SOL     OW   70   2.623   2.811   0.300  0.0014 -0.1839  0.3664
   24SOL    HW1   71   2.547   2.770   0.239 -0.2094  1.3099 -1.0473
   24SOL    HW2   72   2.588   2.836   0.391  2.9880 -0.4869  0.9935
   25SOL     OW   73   1.493   0.051   2.735  0.0441  0.6668 -0.0433
   25SOL    HW1   74   1.521   3.056   2.686  1.4917  0.2034  4.1865
   25SOL    HW2   75   1.489   0.017   2.832 -0.7394  1.5617  0.2831
   26SOL     OW   76   1.717   2.393   0.261 -0.3017  0.6855 -0.4146
   26SOL    HW1   77   1.691   2.466   0.195 -0.8022 -2.1842 -0.3689
   26SOL    HW2   78   1.654   2.393   0.338  0.3226 -0.2546  0.2328
   27SOL     OW   79   1.189   0.724   1.209  0.5218  0.5893 -0.2505
   27SOL    HW1   80   1.167   0.777   1.125 -0.7960  0.8138 -3.2142
   27SOL    HW2   81   1.119   0.647   1.230 -3.2481 -0.1808  2.0341
   28SOL     OW   82   1.198   1.533   0.819  0.0127 -0.7691 -0.1942
   28SOL    HW1   83   1.171   1.484   0.732 -5.4972 -0.0491  0.2384
   28SOL    HW2   84   1.141   1.617   0.828  0.9608 -0.7631  0.4439
   29SOL     OW   85   2.878   0.072   1.834 -0.0971 -0.1879  0.3547
   29SOL    HW1   86   2.928   3.073   1.822  0.2815 -0.0937  0.2189
   29SOL    HW2   87   2.820   0.095   1.752  0.5659  0.1448  0.8062
   30SOL     OW   88   1.141   2.996   1.278 -0.3942 -0.0586 -0.2752
   30SOL    HW1   89   1.153   2.976   1.380 -1.6045 -1.1270  1.1562
   30SOL    HW2   90   1.237   3.017   1.245 -0.2425  0.1507 -0.5891
   31SOL     OW   91   1.954   2.973   1.823 -0.3547  0.0786 -0.4061
   31SOL    HW1   92   1.912   3.055   1.782 -0.2859 -0.9678  2.1517
   31SOL    HW2   93   1.953   2.897   1.750 -0.0707 -1.1615  0.6453
   32SOL     OW   94   0.977   1.814   3.026  0.2097  0.7263 -0.1217
   32SOL    HW1   95   1.011   1.885   2.961  2.3573  1.7160 -1.4740
   32SOL    HW2   96   0.884   1.776   2.997 -2.1969  0.5141 -1.1206
   33SOL     OW   97   2.904   0.871   2.235  0.3460 -0.1357 -0.8335
   33SOL    HW1   98   2.821   0.916   2.196  2.0446  2.1028 -2.2429
   33SOL    HW2   99   2.913   0.778   2.198  2.0751  2.3530 -0.4699
   34SOL     OW  100   2.130   0.112   0.446  0.0474  0.1843  0.1927
   34SOL    HW1  101   2.093   0.161   0.366 -0.1034 -1.9184 -0.1000
   34SOL    HW2  102   2.056   0.103   0.517  0.9839 -1.1835  0.6098
   35SOL     OW  103   2.400   2.521   1.923 -0.2162 -0.2088  0.4000
   35SOL    HW1  104   2.460   2.461   1.976 -2.8399 -2.1911 -0.7646
   35SOL    HW2  105   2.304   2.504   1.950  0.2013 -1.4609 -0.7049
   36SOL     OW  106   2.099   1.916   3.041  0.5713 -0.4739  0.0088
   36SOL    HW1  107   2.149   1.940   2.955  0.7068  0.5498 -1.4403
   36SOL    HW2  108   2.039   1.838   3.027  1.9354  2.3687 -0.1392
   37SOL     OW  109   2.017   0.312   1.616 -0.4539  0.0391 -0.0237
   37SOL    HW1  110   2.025   0.372   1.702  0.1817 -0.9831  1.5191
   37SOL    HW2  111   1.977   0.222   1.648  0.7454 -0.0674  1.0748
   38SOL     OW  112   0.178   0.180   2.947  0.2627 -0.1452  0.3499
   38SOL    HW1  113   0.228   0.251   2.996 -2.4848 -0.2705 -3.1613
   38SOL    HW2  114   0.228   0.087   2.946 -0.3009 -0.3576  2.0975
   39SOL     OW  115   1.852   1.353   1.964  0.5963  0.7905 -0.0876
   39SOL    HW1  116   1.905   1.304   2.038 -1.9803  0.0886  0.0820
   39SOL    HW2  117   1.886   1.450   1.947  0.8376  0.6016  0.4731
   40SOL     OW  118   1.331   2.001   0.906  0.0975 -0.3046 -0.3237
   40SOL    HW1  119   1.363   1.925   0.849 -1.2773  1.3756  0.8777
   40SOL    HW2  120   1.356   2.095   0.872 -0.1481 -2.4894  1.0101
   41SOL     OW  121   1.945   1.987   0.885 -0.2807  0.1652 -0.8001
   41SOL    HW1  122   2.029   2.033   0.852  0.0320  0.4932  2.2063
   41SOL    HW2  123   1.942   1.887   0.868 -2.1229  1.9181  2.8388
   42SOL     OW  124   0.266   0.733   1.381  0.5396  0.2876  0.1715
   42SOL    HW1  125   0.244   0.636   1.405  0.7095  3.1392 -0.0813
   42SOL    HW2  126   0.360   0.759   1.408 -0.2018 -1.4527 -1.2876
   43SOL     OW  127   0.200   1.491   2.787 -0.6084  0.5663 -0.3369
   43SOL    HW1  128   0.153   1.557   2.842  2.1236 -2.8360 -2.2243
   43SOL    HW2  129   0.284   1.458   2.841 -0.1795  0.7204  0.3793
   44SOL     OW  130   1.470   2.790   1.298  0.1032 -0.3344 -0.5617
   44SOL    HW1  131   1.435   2.759   1.388  0.2100 -0.0629 -1.1491
   44SOL    HW2  132   1.474   2.893   1.306 -0.5763  0.8544  1.6579
   45SOL     OW  133   1.215   2.954   2.372 -0.1331 -0.0584  0.3759
   45SOL    HW1  134   1.236   2.853   2.358 -2.2657  0.9718  0.3162
   45SOL    HW2  135   1.147   2.963   2.446 -0.3519 -1.6768  2.4777
   46SOL     OW  136   0.850   2.463   2.362 -0.6428  0.5280  0.0162
   46SOL    HW1  137   0.917   2.504   2.299 -0.5562 -0.8529  1.8855
   46SOL    HW2  138   0.792   2.536   2.404 -0.9607 -0.8203  0.5166
   47SOL     OW  139   1.042   2.400   0.937 -0.0941 -0.4299 -0.4479
   47SOL    HW1  140   0.974   2.450   0.874 -0.3347  2.4131  0.8095
   47SOL    HW2  141   1.094   2.465   0.997 -0.4827  0.9577  1.1078
   48SOL     OW  142   0.968   2.174   1.204 -0.5432  0.6452  0.2022
   48SOL    HW1  143   0.938   2.272   1.186 -0.6887  0.0431  1.2617
   48SOL    HW2  144   0.891   2.110   1.178 -0.7030  0.5880  1.9869
   49SOL     OW  145   2.456   0.458   2.924  0.0226 -0.1545 -0.4413
   49SOL    HW1  146   2.403   0.543   2.956  0.0892  2.0350  1.8376
   49SOL    HW2  147   2.519   0.489   2.846  1.1712  1.3595  1.1170
   50SOL     OW  148   1.847   0.414   0.281 -0.1525  0.5717  0.9529
   50SOL    HW1  149   1.935   0.367   0.264  0.3044 -1.0050  1.3195
   50SOL    HW2  150   1.861   0.514   0.272 -2.1333  0.1216 -1.4862
   51SOL     OW  151   1.943   0.632   1.201  0.1219 -0.2259 -1.1450
   51SOL    HW1  152   2.008   0.578   1.144  1.2637 -1.0143  1.7071
   51SOL    HW2  153   1.970   0.642   1.298 -1.2924 -0.5509  2.4836
   52SOL     OW  154   0.492   1.777   0.135 -0.2138 -0.0660  0.0237
   52SOL    HW1  155   0.508   1.676   0.128 -1.0916  4.4195 -0.0583
   52SOL    HW2  156   0.502   1.805   0.040 -0.6201 -3.2080  0.1975
   53SOL     OW  157   0.373   1.180   2.902  0.1794 -0.9384  0.0891
   53SOL    HW1  158   0.369   1.134   2.993 -3.5374  0.9463  1.0753
   53SOL    HW2  159   0.417   1.276   2.917  1.5629  0.3312  0.6512
   54SOL     OW  160   2.735   1.524   1.919 -0.6193 -0.0181 -0.2170
   54SOL    HW1  161   2.665   1.553   1.986  1.7865  0.3968 -0.9071
   54SOL    HW2  162   2.778   1.439   1.948 -1.1813 -0.5038  0.5126
   55SOL     OW  163   2.313   1.746   0.386  0.2215 -0.8512  0.3047
   55SOL    HW1  164   2.288   1.711   0.295  0.6592 -0.1698 -0.1310
   55SOL    HW2  165   2.237   1.725   0.447  0.3784  1.1658 -2.0497
   56SOL     OW  166   1.891   0.217   1.375 -0.1348 -0.7730 -0.1561
   56SOL    HW1  167   1.968   0.158   1.339 -2.0167  0.3354 -0.9567
   56SOL    HW2  168   1.915   0.272   1.457  4.3457  1.2537 -2.0712
   57SOL     OW  169   1.452   1.262   2.748 -0.2488 -0.1443 -0.1223
   57SOL    HW1  170   1.473   1.171   2.789 -1.2342  0.5420 -0.4192
   57SOL    HW2  171   1.507   1.278   2.662 -1.0670  0.8702  1.5244
   58SOL     OW  172   2.405   0.180   1.511  0.0185  0.2087  0.0532
   58SOL    HW1  173   2.452   0.211   1.593 -0.9958 -1.4239 -0.3637
   58SOL    HW2  174   2.320   0.232   1.483 -0.9437 -1.3607 -2.0113
   59SOL     OW  175   1.375   2.615   0.054  0.2390  0.3828  0.4399
   59SOL    HW1  176   1.394   2.668   3.058  1.4880  1.0061 -0.4246
   59SOL    HW2  177   1.375   2.678   0.135 -0.4959 -2.6583  0.4205
   60SOL     OW  178   0.015   2.148   2.812 -0.3835 -0.0507 -0.2995
   60SOL    HW1  179   3.009   2.151   2.821  0.8119  0.1453 -0.5823
   60SOL    HW2  180   0.048   2.056   2.827 -0.7020  0.2211 -0.9113
   61SOL     OW  181   0.464   2.287   1.064 -0.1999  0.5904 -0.4101
   61SOL    HW1  182   0.524   2.357   1.029 -3.5392 -0.0102  2.0432
   61SOL    HW2  183   0.364   2.300   1.040  0.7522 -3.3179  1.8062
   62SOL     OW  184   1.897   1.836   2.569 -0.0222 -0.0727 -0.3681
   62SOL    HW1  185   1.840   1.857   2.487 -0.2158 -2.9402  0.0456
   62SOL    HW2  186   1.845   1.792   2.645 -1.6464  2.0176  0.8580
   63SOL     OW  187   1.702   1.834   0.053  0.2000 -0.1098  0.2578
   63SOL    HW1  188   1.719   1.896   3.060  0.1448 -0.8861 -1.8463
   63SOL    HW2  189   1.775   1.765   0.050 -3.2491  2.0835  2.4453
   64SOL     OW  190   2.125   1.005   0.144 -0.1053 -0.1386  0.4821
   64SOL    HW1  191   2.201   1.069   0.159 -0.1353 -1.9621  0.3272
   64SOL    HW2  192   2.054   1.013   0.217  0.0227 -1.7064 -0.7923
   65SOL     OW  193   2.138   2.159   1.907  0.5069 -0.2053  0.1913
   65SOL    HW1  194   2.201   2.077   1.920  0.8827 -2.4250  0.0800
   65SOL    HW2  195   2.166   2.244   1.951  1.1777 -0.3285 -2.0280
   66SOL     OW  196   0.522   0.826   1.401 -0.1309  0.0645 -0.4365
   66SOL    HW1  197   0.483   0.873   1.318 -0.6577 -0.9635  0.7924
   66SOL    HW2  198   0.535   0.896   1.473 -2.1719  0.3771 -1.9618
   67SOL     OW  199   2.255   0.077   3.052  0.4117 -0.2581  0.2984
   67SOL    HW1  200   2.164   0.081   0.014 -0.9551 -0.4975  1.2353
   67SOL    HW2  201   2.246   0.140   2.970 -1.3823  1.0804 -3.3590
   68SOL     OW  202   1.671   1.920   1.342  0.0917  0.0777 -0.7692
   68SOL    HW1  203   1.718   1.999   1.380  0.1392 -1.9923  1.1385
   68SOL    HW2  204   1.635   1.928   1.245 -2.8109 -2.2165 -0.6813
   69SOL     OW  205   3.040   2.715   0.015  0.2125 -0.4857 -0.4826
   69SOL    HW1  206   0.008   2.658   3.049  3.8960  0.8898  0.5662
   69SOL    HW2  207   2.953   2.667   0.044  1.0424  0.2648 -0.0262
   70SOL     OW  208   0.068   0.705   1.867 -0.0435 -0.2352 -0.6448
   70SOL    HW1  209   0.120   0.629   1.828  0.7064  0.2986  1.8646
   70SOL    HW2  210   3.072   0.726   1.819 -1.1388  4.0288  0.5712
   71SOL     OW  211   0.822   1.006   2.802 -0.3339 -0.3103  0.2541
   71SOL    HW1  212   0.901   1.042   2.858 -1.8731  0.3759 -1.4330
   71SOL    HW2  213   0.858   0.924   2.753 -1.0354  4.2398  0.8578
   72SOL     OW  214   3.008   1.752   2.088 -0.1522 -0.3491 -0.7042
   72SOL    HW1  215   2.948   1.700   2.019  1.0653 -0.1259 -1.2246
   72SOL    HW2  216   0.011   1.764   2.053 -1.5492 -0.6286  1.1178
   73SOL     OW  217   1.323   1.764   0.206 -0.0406 -0.1347 -0.2493
   73SOL    HW1  218   1.337   1.718   0.117 -1.2852  1.4267  1.2502
   73SOL    HW2  219   1.279   1.695   0.274 -2.7574  0.5976  1.5085
   74SOL     OW  220   2.274   2.929   2.913  0.4371  0.0733  0.0277
   74SOL    HW1  221   2.251   2.960   2.819 -0.9606 -3.8010  0.1065
   74SOL    HW2  222   2.290   3.010   2.975  1.4461  1.4255 -1.4380
   75SOL     OW  223   1.573   2.337   0.860 -0.5289  0.0954 -0.3355
   75SOL    HW1  224   1.480   2.302   0.840  1.0762  0.0220 -2.6406
   75SOL    HW2  225   1.635   2.260   0.828 -3.0201 -2.4847 -1.7517
   76SOL     OW  226   2.397   1.996   2.347  0.4119  0.7401 -0.3620
   76SOL    HW1  227   2.312   1.949   2.339  0.7166  0.0625  3.4097
   76SOL    HW2  228   2.467   1.956   2.283 -1.9257  2.0730  2.9312
   77SOL     OW  229   0.406   2.619   1.659 -0.1441  0.3972  0.2544
   77SOL    HW1  230   0.399   2.634   1.757 -0.8146  0.1441 -0.4903
   77SOL    HW2  231   0.414   2.523   1.632 -1.5643  4.6101  1.4832
   78SOL     OW  232   2.272   0.753   0.247 -0.4427  0.0551  0.0105
   78SOL    HW1  233   2.225   0.663   0.219  1.1948  0.1884  1.2680
   78SOL    HW2  234   2.215   0.829   0.220  1.1122 -0.2869  1.7770
   79SOL     OW  235   0.056   1.405   2.544 -0.5805 -0.0331  0.1007
   79SOL    HW1  236   0.102   1.444   2.626  1.1178  0.9956 -0.2690
   79SOL    HW2  237   0.107   1.318   2.517  0.6723  0.4314 -0.8134
   80SOL     OW  238   1.933   1.626   1.891 -0.3213 -0.2255  0.7216
   80SOL    HW1  239   1.863   1.627   1.820  0.6951  0.3266  2.8912
   80SOL    HW2  240   2.014   1.679   1.857 -2.0412 -1.0689  0.5293
   81SOL     OW  241   1.928   1.278   2.286  0.1409  0.4344  0.0248
   81SOL    HW1  242   1.968   1.226   2.213 -0.5527  0.9135  0.4350
   81SOL    HW2  243   1.826   1.260   2.288 -1.0824  0.9735  0.2569
   82SOL     OW  244   1.454   1.613   1.904 -0.2753  0.2688 -0.3638
   82SOL    HW1  245   1.372   1.632   1.844 -1.4599 -0.1408  0.0371
   82SOL    HW2  246   1.492   1.521   1.888  1.0370  4.7976  0.1701
   83SOL     OW  247   0.450   0.366   0.394 -0.0241 -0.3024 -0.8530
   83SOL    HW1  248   0.429   0.305   0.476 -0.2084 -2.0312  0.8825
   83SOL    HW2  249   0.364   0.389   0.345  0.9805 -1.3819  2.9485
   84SOL     OW  250   0.125   0.436   0.283  0.0480 -0.7013 -0.4467
   84SOL    HW1  251   0.076   0.420   0.193  1.8337  1.8722  1.5375
   84SOL    HW2  252   0.129   0.533   0.313 -1.7997 -1.7991 -2.1974
   85SOL     OW  253   2.346   2.415   1.334 -0.0722 -0.7070  0.0456
   85SOL    HW1  254   2.275   2.431   1.408 -2.5419 -1.9725  0.1513
   85SOL    HW2  255   2.321   2.455   1.244  3.1850 -1.8227 -1.1979
   86SOL     OW  256   0.187   0.434   1.432 -0.5694  0.2920  0.0708
   86SOL    HW1  257   0.206   0.337   1.419  1.4394  1.0126  0.0770
   86SOL    HW2  258   0.093   0.444   1.461  1.7148 -2.7772 -1.0334
   87SOL     OW  259   0.104   2.450   1.965  0.4731  0.1088 -0.6489
   87SOL    HW1  260   0.100   2.389   1.886 -2.8911  1.4069  2.5814
   87SOL    HW2  261   0.020   2.431   2.024  0.5840  0.7022 -1.3796
   88SOL     OW  262   0.155   1.919   2.858  0.1924 -0.0666 -0.1341
   88SOL    HW1  263   0.114   1.831   2.859  1.2344 -1.1151 -0.3276
   88SOL    HW2  264   0.167   1.964   2.951  0.8346  2.2046  1.1247
   89SOL     OW  265   1.107   0.909   0.621  0.2938 -0.0197 -0.1399
   89SOL    HW1  266   1.198   0.871   0.593 -0.4058 -0.1753 -2.0764
   89SOL    HW2  267   1.035   0.868   0.564  2.7229  1.1614 -0.4322
   90SOL     OW  268   0.221   1.461   2.136  0.4240  0.0747  0.1827
   90SOL    HW1  269   0.226   1.486   2.038  2.4827 -1.1884 -2.6898
   90SOL    HW2  270   0.250   1.546   2.187  2.1454  2.1215 -0.7021
   91SOL     OW  271   1.561   0.835   0.804 -0.0331  0.2498 -0.0836
   91SOL    HW1  272   1.473   0.790   0.829  1.0413  2.8052 -0.6560
   91SOL    HW2  273   1.638   0.791   0.855  1.9505 -3.2399  2.1467
   92SOL     OW  274   2.315   1.366   0.754 -0.2215 -0.2105  0.7258
   92SOL    HW1  275   2.282   1.314   0.672  0.4877 -0.7977  1.9175
   92SOL    HW2  276   2.415   1.352   0.776  2.1767  2.1435  0.5516
   93SOL     OW  277   0.178   1.048   2.748 -0.5334  0.4556  0.4977
   93SOL    HW1  278   0.249   1.079   2.814  0.8750 -1.1377 -2.9924
   93SOL    HW2  279   0.176   1.115   2.671  2.0809 -0.4086  0.8598
   94SOL     OW  280   1.870   2.171   2.519 -0.0631  0.4239  0.7933
   94SOL    HW1  281   1.921   2.096   2.569  0.5434 -0.5311 -0.2263
   94SOL    HW2  282   1.914   2.171   2.424 -1.2964 -1.5544 -0.9160
   95SOL     OW  283   0.219   0.163   1.397 -0.1158 -0.2888 -0.5360
   95SOL    HW1  284   0.237   0.099   1.476  0.9888  3.7314 -0.4067
   95SOL    HW2  285   0.280   0.143   1.319  1.2422  2.3544 -1.1963
   96SOL     OW  286   3.006   2.875   1.238 -0.2094  0.0168  0.2504
   96SOL    HW1  287   3.019   2.806   1.164 -2.7266 -1.2280  4.0723
   96SOL    HW2  288   2.931   2.852   1.297  2.2512 -1.3306 -3.1313
   97SOL     OW  289   2.383   0.790   1.362 -0.1440  0.1091 -0.1854
   97SOL    HW1  290   2.457   0.856   1.378  0.4821  0.7767 -0.9535
   97SOL    HW2  291   2.382   0.712   1.424  0.2089 -1.3534 -3.3832
   98SOL     OW  292   1.704   2.522   1.714  0.0347 -0.4531  0.2922
   98SOL    HW1  293   1.720   2.425   1.698  0.2580  0.3540 -2.6165
   98SOL    HW2  294   1.609   2.555   1.728  0.3594  0.7700  1.6151
   99SOL     OW  295   0.368   0.023   1.586  0.2959  0.5739 -0.0836
   99SOL    HW1  296   0.288   0.024   1.646 -0.0812  0.9189  0.4910
   99SOL    HW2  297   0.416   3.024   1.588  0.4105 -5.2677 -1.5110
  100SOL     OW  298   1.694   0.287   2.708  0.2156  0.0305 -0.2096
  100SOL    HW1  299   1.647   0.259   2.794  3.6549  0.0361 -3.6453
  100SOL    HW2  300   1.764   0.222   2.668 -0.9757 -0.0569  0.1751
  101SOL     OW  301   2.896   0.273   2.478 -0.4327  0.0161  0.1346
  101SOL    HW1  302   2.973   0.246   2.415 -0.6916  2.0737  0.2057
  101SOL    HW2  303   2.877   0.373   2.451  1.3938  1.3626 -2.2899
  102SOL     OW  304   0.476   0.693   1.657  0.1286  0.3986 -0.0915
  102SOL    HW1  305   0.470   0.616   1.597 -1.0623  0.5674  0.6375
  102SOL    HW2  306   0.398   0.754   1.632  0.2622  0.1291  0.9082
  103SOL     OW  307   0.911   0.324   2.802 -0.6130 -0.2867 -0.1540
  103SOL    HW1  308   0.935   0.318   2.704  1.3614  0.3529 -0.8614
  103SOL    HW2  309   0.972   0.397   2.841  1.7619  2.0473  1.4779
  104SOL     OW  310   0.650   0.661   2.154 -0.3080  0.4973 -0.4975
  104SOL    HW1  311   0.644   0.742   2.215  1.5556  2.2061 -2.1857
  104SOL    HW2  312   0.568   0.654   2.092 -3.6234 -2.5578 -2.4995
  105SOL     OW  313   2.402   2.062   1.287 -0.1255 -0.8335 -0.4829
  105SOL    HW1  314   2.413   2.095   1.386  0.5253  0.0271 -0.4920
  105SOL    HW2  315   2.322   2.109   1.241 -0.7857 -0.0106 -2.2168
  106SOL     OW  316   1.555   0.091   0.479 -0.4399  0.0513  0.1534
  106SOL    HW1  317   1.601   0.179   0.503  1.5706  0.2548  0.8942
  106SOL    HW2  318   1.456   0.111   0.459 -0.0383  0.4452  1.0083
  107SOL     OW  319   1.993   2.350   1.010  0.1433  0.4125 -0.0308
  107SOL    HW1  320   1.907   2.313   1.051 -2.7305 -0.0121  0.1339
  107SOL    HW2  321   1.990   2.452   1.021 -0.9062 -0.0029 -1.3724
  108SOL     OW  322   0.148   2.382   1.240 -0.2246  0.2210 -0.0656
  108SOL    HW1  323   0.092   2.340   1.170  2.9083 -0.8166  1.6389
  108SOL    HW2  324   0.196   2.464   1.198  0.6867 -1.5333  1.0635
  109SOL     OW  325   2.176   2.626   0.819  0.0144 -0.1293  0.1952
  109SOL    HW1  326   2.168   2.646   0.721 -1.5349  1.0018  1.3577
  109SOL    HW2  327   2.096   2.582   0.850  0.8084  1.8903  0.5598
  110SOL     OW  328   1.225   1.694   1.778  0.0467 -0.2081  0.6520
  110SOL    HW1  329   1.177   1.634   1.715  0.0102  0.8604 -1.4343
  110SOL    HW2  330   1.206   1.788   1.757 -1.5674  0.8772 -2.4223
  111SOL     OW  331   1.758   2.360   2.118 -0.2564  0.0865  0.0853
  111SOL    HW1  332   1.788   2.297   2.045 -2.4555  1.3705 -0.9830
  111SOL    HW2  333   1.827   2.378   2.194  0.9399  0.5232 -0.6059
  112SOL     OW  334   1.390   1.888   2.982  0.5527 -0.1577  0.3676
  112SOL    HW1  335   1.413   1.822   3.058  0.6235  0.4574 -0.0765
  112SOL    HW2  336   1.474   1.939   2.952  0.6113  0.9711  1.3545
  113SOL     OW  337   1.822   1.914   1.760  0.2182  0.1117 -0.4983
  113SOL    HW1  338   1.846   1.816   1.755  0.7677  1.9496 -0.2041
  113SOL    HW2  339   1.719   1.926   1.770  0.0402  0.8369 -2.0548
  114SOL     OW  340   0.265   1.191   1.459 -0.6033  0.0490  0.1443
  114SOL    HW1  341   0.267   1.171   1.356  1.9100 -0.5616 -0.5985
  114SOL    HW2  342   0.179   1.229   1.492  0.7939  0.9432 -1.3767
  115SOL     OW  343   0.561   0.729   0.315  0.4763  0.1261 -0.3762
  115SOL    HW1  344   0.621   0.664   0.366 -0.0136 -1.3395  1.0916
  115SOL    HW2  345   0.558   0.700   0.221 -0.8036  1.9786  2.0513
  116SOL     OW  346   2.536   1.528   2.129 -0.2626 -0.7908 -0.4186
  116SOL    HW1  347   2.465   1.494   2.192  1.2110  0.7532  0.6114
  116SOL    HW2  348   2.624   1.481   2.158  0.1352 -0.6871  1.1956
  117SOL     OW  349   2.947   2.442   0.357 -0.1669  0.0029  0.1803
  117SOL    HW1  350   2.989   2.537   0.372 -0.3457  1.6343  0.6518
  117SOL    HW2  351   2.945   2.386   0.440  2.6098  2.6987 -0.0455
  118SOL     OW  352   0.776   1.783   2.717 -0.8515  0.2720  0.2929
  118SOL    HW1  353   0.767   1.741   2.806  1.3425  0.4904 -0.0263
  118SOL    HW2  354   0.691   1.820   2.676  2.5502 -0.4567 -1.5982
  119SOL     OW  355   0.793   2.349   0.584 -0.3443 -0.5812 -0.0520
  119SOL    HW1  356   0.694   2.352   0.618 -2.8760 -0.5104  2.1800
  119SOL    HW2  357   0.821   2.254   0.555  1.1987 -1.7843  0.8602
  120SOL     OW  358   1.485   0.491   0.194  0.0202  0.3734 -0.1690
  120SOL    HW1  359   1.530   0.411   0.236  1.0679  0.0814  2.1938
  120SOL    HW2  360   1.401   0.466   0.139  0.2749 -3.7499  3.9386
  121SOL     OW  361   1.317   2.264   0.828  0.3530 -0.1705  0.4126
  121SOL    HW1  362   1.228   2.304   0.859 -0.4803  0.6135 -0.6083
  121SOL    HW2  363   1.311   2.237   0.728  1.4182 -0.3527  1.6090
  122SOL     OW  364   2.730   2.228   1.877  0.7534 -0.3898  0.0949
  122SOL    HW1  365   2.679   2.265   1.953  2.7962 -1.6341 -2.1432
  122SOL    HW2  366   2.816   2.181   1.910 -0.8786  0.8956 -0.0082
  123SOL     OW  367   1.014   1.754   0.826  0.4401  0.5441  0.0223
  123SOL    HW1  368   1.020   1.847   0.865  1.7677 -1.7716 -1.4872
  123SOL    HW2  369   0.934   1.711   0.873 -0.6480 -0.5953 -0.0405
  124SOL     OW  370   2.873   0.777   0.371  0.1354  0.4671  0.2333
  124SOL    HW1  371   2.852   0.877   0.375  2.7002 -0.3654  0.0910
  124SOL    HW2  372   2.808   0.723   0.319  0.2137  1.9567 -0.9484
  125SOL     OW  373   0.253   0.204   0.175  0.2702 -0.0294  0.6082
  125SOL    HW1  374   0.207   0.257   0.250  0.2790 -2.7236 -1.0759
  125SOL    HW2  375   0.300   0.266   0.109  2.4662 -0.4091  1.0660
  126SOL     OW  376   3.075   1.864   0.703 -0.2585  0.4135 -0.0383
  126SOL    HW1  377   0.031   1.948   0.668  0.3718  1.0611 -1.8209
  126SOL    HW2  378   2.979   1.861   0.659  0.1952  1.5279  0.2743
  127SOL     OW  379   1.191   2.476   1.469 -0.1353  0.2620 -0.1680
  127SOL    HW1  380   1.166   2.431   1.558  1.1385 -0.8794  1.2838
  127SOL    HW2  381   1.112   2.535   1.438 -3.3939 -1.5307 -2.2959
  128SOL     OW  382   1.237   1.394   0.126 -0.8397  0.1365 -0.6193
  128SOL    HW1  383   1.314   1.433   0.074  1.9122  0.2374  2.2465
  128SOL    HW2  384   1.256   1.295   0.151  1.2754 -2.6447  1.0942
  129SOL     OW  385   1.952   2.099   1.357  0.3900  0.9108 -0.5933
  129SOL    HW1  386   1.917   2.109   1.264  0.3948  3.0655  3.2037
  129SOL    HW2  387   1.914   2.178   1.411 -2.4028 -3.0618  1.9569
  130SOL     OW  388   2.043   1.938   1.564 -0.2575 -0.1934 -0.1002
  130SOL    HW1  389   1.958   1.928   1.624 -1.3670  0.2036  1.1381
  130SOL    HW2  390   2.007   1.973   1.473 -1.4182  0.4971  0.6392
  131SOL     OW  391   2.790   2.638   2.555  0.6062 -0.5305 -0.1759
  131SOL    HW1  392   2.751   2.731   2.555 -0.4874 -1.1728  0.8457
  131SOL    HW2  393   2.853   2.627   2.638 -0.3992 -1.1665  2.9232
  132SOL     OW  394   0.044   2.111   0.461  0.4302 -0.3916  0.7266
  132SOL    HW1  395   0.089   2.095   0.550 -2.1145 -1.1121 -0.2651
  132SOL    HW2  396   3.051   2.169   0.467 -0.3444  1.4407 -1.6542
  133SOL     OW  397   0.324   0.397   1.976 -0.1603  0.0690 -0.4122
  133SOL    HW1  398   0.386   0.350   2.046  0.6313 -0.0818 -0.6148
  133SOL    HW2  399   0.251   0.446   2.022  1.5772  3.1515 -0.3453
  134SOL     OW  400   2.796   2.079   0.127  0.4481 -0.0145 -0.5072
  134SOL    HW1  401   2.895   2.105   0.145  0.0726  1.6337  1.0882
  134SOL    HW2  402   2.743   2.076   0.213  0.4458 -1.2888 -0.4149
  135SOL     OW  403   1.561   1.013   2.504  0.2538 -0.0948  0.3960
  135SOL    HW1  404   1.483   0.955   2.475  2.0787 -1.7722  1.4829
  135SOL    HW2  405   1.545   1.112   2.498 -0.2710 -2.3997 -2.8599
  136SOL     OW  406   2.464   1.810   1.019 -0.4901 -0.6155 -0.5047
  136SOL    HW1  407   2.413   1.802   0.929  0.5455  1.0056  2.2531
  136SOL    HW2  408   2.556   1.846   1.000 -2.3515  1.7001  0.4743
  137SOL     OW  409   2.736   1.541   0.790  0.2116 -0.7799  0.4683
  137SOL    HW1  410   2.793   1.505   0.712  0.8142 -0.6824 -3.2149
  137SOL    HW2  411   2.686   1.625   0.760 -0.6320  1.6471 -0.0943
  138SOL     OW  412   2.716   0.348   0.944  0.0034  0.4053  0.2317
  138SOL    HW1  413   2.624   0.348   0.990  1.7297  1.9012 -1.0096
  138SOL    HW2  414   2.762   0.439   0.941  0.3002  1.3509 -1.6393
  139SOL     OW  415   0.175   2.591   2.924  0.4987 -0.4750 -0.4678
  139SOL    HW1  416   0.227   2.511   2.895 -0.5744  1.5762 -2.0942
  139SOL    HW2  417   0.148   2.644   2.840  1.8783 -0.1482 -0.6639
  140SOL     OW  418   0.933   1.957   1.873  0.0954  0.3362 -0.1922
  140SOL    HW1  419   1.031   1.978   1.850  2.0700  0.5240  1.6597
  140SOL    HW2  420   0.915   1.917   1.964 -0.8747 -0.6683 -1.8252
  141SOL     OW  421   1.508   1.856   0.725  0.3339  0.4972 -0.6765
  141SOL    HW1  422   1.504   1.800   0.638 -1.5457 -1.9405  0.4282
  141SOL    HW2  423   1.524   1.792   0.807 -0.2586 -2.8081  1.5340
  142SOL     OW  424   1.156   0.879   0.994 -0.6264  0.0700 -0.7149
  142SOL    HW1  425   1.073   0.905   0.947 -0.5860 -0.5931  3.3835
  142SOL    HW2  426   1.195   0.960   1.042  0.5972  1.6866  1.6369
  143SOL     OW  427   0.685   1.244   2.840 -0.0103 -0.8673  0.1985
  143SOL    HW1  428   0.734   1.160   2.819  0.3210 -0.7398 -1.0088
  143SOL    HW2  429   0.587   1.238   2.806  2.4978  0.8361 -2.1416
  144SOL     OW  430   1.934   2.894   0.930 -0.3516  0.4140 -0.1748
  144SOL    HW1  431   1.980   2.939   0.851  0.2130  1.1004  0.8123
  144SOL    HW2  432   1.882   2.962   0.985 -0.6560  0.4437  1.7366
  145SOL     OW  433   2.252   0.630   2.544  0.3437 -0.1962  0.0886
  145SOL    HW1  434   2.253   0.626   2.647 -2.8373 -1.0387 -0.3412
  145SOL    HW2  435   2.337   0.671   2.507  1.4600 -0.8479 -0.6127
  146SOL     OW  436   2.894   2.591   0.769 -1.1973  0.5621  0.6335
  146SOL    HW1  437   2.803   2.559   0.791  0.4878  2.8830  0.6231
  146SOL    HW2  438   2.899   2.686   0.724 -1.3795  3.1592  1.0105
  147SOL     OW  439   1.333   0.916   2.398  0.5141 -0.0117 -0.5549
  147SOL    HW1  440   1.276   0.998   2.403 -1.7213  0.1639  1.6734
  147SOL    HW2  441   1.338   0.871   2.309  1.9317 -0.9713 -1.3961
  148SOL     OW  442   1.228   0.477   2.520  0.3702 -0.6722  0.4725
  148SOL    HW1  443   1.262   0.521   2.437  0.2362 -2.4024  0.3748
  148SOL    HW2  444   1.290   0.402   2.544  1.3315  0.7870 -0.7373
  149SOL     OW  445   2.046   3.083   2.068 -0.5970 -0.0718 -0.2445
  149SOL    HW1  446   2.018   3.037   1.983  1.6300  5.5819 -0.2117
  149SOL    HW2  447   2.032   3.021   2.146 -0.7208  0.1343 -2.1990
  150SOL     OW  448   2.320   2.684   3.037  0.4037  0.0692 -0.3691
  150SOL    HW1  449   2.304   2.772   2.990 -2.0154 -3.2247  2.1501
  150SOL    HW2  450   2.421   2.655   3.026  2.7316 -2.1036  1.1248
  151SOL     OW  451   0.451   1.449   2.911 -0.1881  0.6262  0.1139
  151SOL    HW1  452   0.529   1.445   2.974  0.3401 -1.7080  1.7435
  151SOL    HW2  453   0.476   1.511   2.832  1.1630 -1.8320 -0.2767
  152SOL     OW  454   3.011   0.250   1.322 -0.3112  0.1810  0.5885
  152SOL    HW1  455   0.013   0.238   1.364 -1.0110  2.0424  0.1348
  152SOL    HW2  456   3.013   0.316   1.241  1.3212  2.1789  0.4472
  153SOL     OW  457   2.247   0.004   1.775 -0.0240  0.7511  0.2075
  153SOL    HW1  458   2.195   3.042   1.845  0.7312  2.6248  0.2841
  153SOL    HW2  459   2.219   3.068   1.680  2.7676  0.0743  1.8528
  154SOL     OW  460   1.873   0.257   2.335 -0.2754 -0.2802  0.3762
  154SOL    HW1  461   1.923   0.330   2.392 -1.0704  1.7416 -0.3979
  154SOL    HW2  462   1.800   0.307   2.288  1.0401  0.1800 -0.7035
  155SOL     OW  463   0.072   1.854   0.325  0.1467 -0.9299  0.0914
  155SOL    HW1  464   0.170   1.850   0.327 -1.5653  0.5395  0.2768
  155SOL    HW2  465   0.032   1.932   0.383 -0.9050  0.8554  0.7378
  156SOL     OW  466   2.808   1.508   0.010  0.0940 -0.1543  0.0468
  156SOL    HW1  467   2.805   1.589   3.040  1.0032  1.2476 -1.5402
  156SOL    HW2  468   2.788   1.539   0.103 -0.0973 -2.4693 -0.4804
  157SOL     OW  469   0.561   0.373   0.827 -0.5222  0.1283  0.2315
  157SOL    HW1  470   0.512   0.309   0.767 -0.9720  2.9491 -1.9691
  157SOL    HW2  471   0.663   0.370   0.811  2.9502  0.7303  1.3146
  158SOL     OW  472   2.067   0.707   1.445  0.1963  0.5537 -0.4338
  158SOL    HW1  473   2.134   0.775   1.416  1.3891 -0.3913 -0.7522
  158SOL    HW2  474   2.121   0.626   1.480  1.1258 -0.0117  2.9398
  159SOL     OW  475   0.138   0.309   0.543 -0.6111 -0.1939 -0.7073
  159SOL    HW1  476   0.058   0.248   0.567 -0.9565  0.7260 -1.3765
  159SOL    HW2  477   0.137   0.339   0.448 -0.9217  0.6056 -2.0427
  160SOL     OW  478   2.159   2.189   1.647 -0.4083  0.3166 -0.0546
  160SOL    HW1  479   2.161   2.173   1.748 -1.4259 -2.3613  0.4582
  160SOL    HW2  480   2.143   2.096   1.606  0.7195  2.2912  2.6059
  161SOL     OW  481   0.029   0.726   2.563  0.3120 -0.1945  0.1540
  161SOL    HW1  482   0.054   0.632   2.542 -0.2780 -0.6876  0.6172
  161SOL    HW2  483   0.077   0.756   2.650 -1.0096  0.8115  0.2056
  162SOL     OW  484   0.750   2.837   1.619 -0.1467 -0.4536 -0.5406
  162SOL    HW1  485   0.767   2.897   1.700  1.3101 -0.6039  0.9771
  162SOL    HW2  486   0.772   2.893   1.533  0.3826  0.0368 -1.2442
  163SOL     OW  487   2.720   0.092   2.390 -0.1431  0.2798  0.0779
  163SOL    HW1  488   2.757   3.088   2.417  1.2235 -0.3709  1.1133
  163SOL    HW2  489   2.804   0.151   2.403 -0.7346 -2.1518  3.0500
  164SOL     OW  490   2.209   1.703   0.134 -0.6849 -0.0683  0.1992
  164SOL    HW1  491   2.155   1.787   0.127 -1.7486 -0.9015  0.8507
  164SOL    HW2  492   2.256   1.676   0.044 -0.1232 -0.1446 -2.7966
  165SOL     OW  493   3.056   0.246   1.607 -0.0148 -0.2513  0.1979
  165SOL    HW1  494   0.014   0.176   1.662 -1.0536  0.6574 -0.1345
  165SOL    HW2  495   2.960   0.210   1.586 -1.1514  0.0557  0.9535
  166SOL     OW  496   2.004   0.851   0.456  0.0315  0.4377  0.1323
  166SOL    HW1  497   1.963   0.934   0.423 -0.8891 -0.2555  1.9148
  166SOL    HW2  498   1.947   0.765   0.449 -4.3016  1.7655  0.0056
  167SOL     OW  499   2.368   0.952   2.950 -0.2691 -0.1383  0.3727
  167SOL    HW1  500   2.283   0.931   2.895  0.3730 -0.2276 -0.3894
  167SOL    HW2  501   2.393   0.877   3.015  0.2432 -0.0146  3.3005
  168SOL     OW  502   1.607   0.262   2.974 -0.0976  0.7456  0.6614
  168SOL    HW1  503   1.588   0.264   3.074 -1.1653  3.7715 -2.6252
  168SOL    HW2  504   1.557   0.337   2.933  1.2115 -1.5172 -0.5826
  169SOL     OW  505   0.350   1.779   0.914 -0.1878  0.9295 -0.1966
  169SOL    HW1  506   0.319   1.762   1.010  2.9474 -0.8971 -3.6915
  169SOL    HW2  507   0.289   1.713   0.860 -1.0650 -2.4740 -0.1457
  170SOL     OW  508   2.852   1.136   1.051 -0.1423 -0.1618  0.0951
  170SOL    HW1  509   2.912   1.221   1.046  1.0669  0.0786  0.6514
  170SOL    HW2  510   2.773   1.137   0.987  1.4369 -2.5163 -2.4750
  171SOL     OW  511   2.482   1.731   1.971 -0.1300  0.5572 -0.3385
  171SOL    HW1  512   2.473   1.730   1.871  0.5176 -0.6853  0.4782
  171SOL    HW2  513   2.481   1.632   2.008 -1.3645 -1.7678  0.7758
  172SOL     OW  514   0.447   2.049   1.496  0.4073 -0.3085  0.1759
  172SOL    HW1  515   0.402   2.110   1.429  0.2798 -0.8833  1.3715
  172SOL    HW2  516   0.546   2.047   1.477 -1.9810 -2.6428  1.4793
  173SOL     OW  517   1.533   1.474   2.894 -0.2686 -0.6405  0.3768
  173SOL    HW1  518   1.494   1.392   2.845  1.0088 -1.2564 -0.1732
  173SOL    HW2  519   1.527   1.562   2.842 -2.8555 -1.6484 -0.1652
  174SOL     OW  520   1.151   0.505   2.799 -0.3481  0.3620  0.0017
  174SOL    HW1  521   1.223   0.578   2.804  1.8241 -0.5650 -1.5510
  174SOL    HW2  522   1.156   0.447   2.715 -0.6275 -4.7934  2.2718
  175SOL     OW  523   1.259   1.401   1.281  0.0029  0.2762 -0.2125
  175SOL    HW1  524   1.236   1.485   1.335  0.7686 -0.0990  0.7975
  175SOL    HW2  525   1.198   1.322   1.298  4.1596 -0.3297  2.2394
  176SOL     OW  526   1.260   0.140   0.468  0.2595  0.4347  0.1496
  176SOL    HW1  527   1.171   0.143   0.515 -0.3817  0.0509  0.5799
  176SOL    HW2  528   1.245   0.130   0.369  1.0942 -0.2512 -2.5602
  177SOL     OW  529   0.382   0.929   0.288  0.7615 -0.0024  0.5483
  177SOL    HW1  530   0.300   0.878   0.260 -1.7056  2.4291 -1.5867
  177SOL    HW2  531   0.464   0.870   0.286 -1.1244  2.1181 -2.1590
  178SOL     OW  532   2.527   2.234   2.316 -0.3178  0.4148 -0.6814
  178SOL    HW1  533   2.575   2.252   2.405  0.7182 -1.7040 -0.9517
  178SOL    HW2  534   2.491   2.134   2.318  1.5619  0.2734  1.1471
  179SOL     OW  535   2.955   0.100   2.693 -0.0107 -0.7298  0.0150
  179SOL    HW1  536   2.866   0.049   2.711  2.4145 -0.1012  0.6572
  179SOL    HW2  537   2.937   0.176   2.627  1.8487  0.5242 -0.1821
  180SOL     OW  538   2.116   0.496   1.029 -0.0036  0.1507 -0.7211
  180SOL    HW1  539   2.206   0.479   1.082 -0.1002  1.1381  2.4993
  180SOL    HW2  540   2.134   0.524   0.934 -1.2107 -1.5188  0.0234
  181SOL     OW  541   2.157   0.903   2.452 -0.1413  0.1298 -0.1628
  181SOL    HW1  542   2.210   0.825   2.491 -1.0130  1.5045 -1.1974
  181SOL    HW2  543   2.069   0.915   2.496  1.1293  1.0334  2.6160
  182SOL     OW  544   2.603   2.376   2.075  0.0680 -0.6310 -0.3085
  182SOL    HW1  545   2.658   2.463   2.093  0.2759  1.7861  1.0879
  182SOL    HW2  546   2.583   2.325   2.161 -0.1057 -0.9566 -0.5001
  183SOL     OW  547   1.856   0.647   1.736  0.2249 -0.1696  0.0005
  183SOL    HW1  548   1.929   0.578   1.747 -1.2890 -0.0077  0.2105
  183SOL    HW2  549   1.880   0.712   1.661 -0.2366 -0.6168  0.3493
  184SOL     OW  550   0.249   1.685   1.175  0.2313  0.1981 -0.0954
  184SOL    HW1  551   0.253   1.591   1.133  0.2532  0.8801 -0.4839
  184SOL    HW2  552   0.181   1.687   1.249  1.4707  0.5049 -1.2559
  185SOL     OW  553   2.304   0.130   0.869 -0.6989  0.1119 -0.2794
  185SOL    HW1  554   2.275   0.153   0.966 -1.6879 -0.0207 -3.0834
  185SOL    HW2  555   2.371   0.053   0.862 -0.3945 -0.8843  0.0006
  186SOL     OW  556   2.340   2.475   2.714  0.2447  0.2161 -0.6030
  186SOL    HW1  557   2.371   2.575   2.723  1.4782  0.7118  2.0160
  186SOL    HW2  558   2.334   2.428   2.802  0.7946 -2.4533 -1.3397
  187SOL     OW  559   0.343   1.603   0.501 -0.0073  0.4635  0.0275
  187SOL    HW1  560   0.316   1.524   0.441 -1.4596  2.2261 -0.8688
  187SOL    HW2  561   0.403   1.575   0.579  0.4051 -0.0111  0.2990
  188SOL     OW  562   2.067   1.300   1.007  0.5969  0.6994  0.1275
  188SOL    HW1  563   2.136   1.370   1.020 -0.4912 -0.8509 -2.3178
  188SOL    HW2  564   1.981   1.328   1.056  1.6166  0.2545 -3.7165
  189SOL     OW  565   0.220   0.757   2.267  0.0026  0.4833 -0.3055
  189SOL    HW1  566   0.310   0.767   2.306  1.5018 -0.6456  0.0353
  189SOL    HW2  567   0.157   0.835   2.286 -1.4071 -1.3952  1.7650
  190SOL     OW  568   1.935   0.873   1.876 -0.1760 -0.0947 -0.0917
  190SOL    HW1  569   1.901   0.950   1.822 -1.1817 -0.2322  0.0950
  190SOL    HW2  570   1.909   0.789   1.829  0.0032  0.8015  1.6348
  191SOL     OW  571   1.058   0.244   2.274 -0.2687 -0.6426 -0.1502
  191SOL    HW1  572   0.970   0.215   2.311  0.1789 -1.3368  0.2227
  191SOL    HW2  573   1.109   0.176   2.222  1.8267  0.5090 -0.5542
  192SOL     OW  574   1.167   1.973   1.704  0.0046 -0.6618  0.5038
  192SOL    HW1  575   1.142   2.048   1.639 -0.6438 -0.2491 -0.7742
  192SOL    HW2  576   1.257   1.991   1.745  1.8422  1.1366 -0.5695
  193SOL     OW  577   1.416   0.176   0.829  0.3629  0.3970 -0.0924
  193SOL    HW1  578   1.367   0.201   0.749  0.5924 -1.0117  3.9030
  193SOL    HW2  579   1.354   0.132   0.900  1.0783 -1.3633 -1.2941
  194SOL     OW  580   1.092   2.161   1.537 -0.1192  0.0950  0.2659
  194SOL    HW1  581   1.020   2.236   1.518  0.1448  2.1044 -0.2098
  194SOL    HW2  582   1.128   2.124   1.449 -0.5212 -0.3767  1.7598
  195SOL     OW  583   1.682   0.335   0.487 -0.2190 -0.4073  0.3413
  195SOL    HW1  584   1.743   0.352   0.403  1.5462  0.8569 -1.4503
  195SOL    HW2  585   1.720   0.371   0.571 -0.0436  0.4602  0.0960
  196SOL     OW  586   0.794   1.478   2.158  0.4856  0.3327 -0.6577
  196SOL    HW1  587   0.863   1.464   2.234 -1.9475 -1.7711 -2.7669
  196SOL    HW2  588   0.803   1.400   2.088 -1.7832 -3.7523 -3.1955
  197SOL     OW  589   0.703   0.622   1.771  0.1932 -0.1909  0.0947
  197SOL    HW1  590   0.782   0.660   1.716 -2.3671  2.4537  2.6810
  197SOL    HW2  591   0.611   0.659   1.739 -5.5324 -1.9535 -0.5703
  198SOL     OW  592   0.702   0.768   0.900 -0.1238 -0.2322 -0.3341
  198SOL    HW1  593   0.755   0.850   0.875 -0.5250  2.0461  1.9558
  198SOL    HW2  594   0.656   0.721   0.825 -2.3431 -4.2012  0.8759
  199SOL     OW  595   0.605   2.374   1.699 -0.1076 -0.0463 -0.4521
  199SOL    HW1  596   0.657   2.286   1.720  2.3523 -1.1657  1.7896
  199SOL    HW2  597   0.520   2.366   1.643 -1.9079 -1.0672 -0.1594
  200SOL     OW  598   1.675   1.143   2.216  0.5573  0.6685  0.3090
  200SOL    HW1  599   1.632   1.113   2.128 -0.3212  1.2148  2.9014
  200SOL    HW2  600   1.635   1.077   2.285 -0.6621 -1.0984 -2.5621
  201SOL     OW  601   0.718   2.146   1.823  0.1719 -0.1833 -0.4218
  201SOL    HW1  602   0.798   2.079   1.838  0.9366 -1.6600  2.1262
  201SOL    HW2  603   0.628   2.098   1.818  0.8551  0.5053  0.6094
  202SOL     OW  604   1.346   2.823   0.226  0.1769 -0.2242 -0.0226
  202SOL    HW1  605   1.267   2.879   0.193 -1.5275  2.7633  1.7791
  202SOL    HW2  606   1.352   2.832   0.328  2.2985 -2.2395  0.2575
  203SOL     OW  607   1.458   0.094   2.338  0.0798 -0.4755 -0.1275
  203SOL    HW1  608   1.377   0.035   2.351  0.7641 -0.6484 -3.2290
  203SOL    HW2  609   1.540   0.040   2.310  2.1770 -1.4901 -1.5294
  204SOL     OW  610   0.719   1.620   1.917  0.0529 -0.8809 -0.3125
  204SOL    HW1  611   0.765   1.582   1.835  0.6307  1.7846 -0.0404
  204SOL    HW2  612   0.765   1.595   2.005 -1.3883  0.4589  1.0236
  205SOL     OW  613   2.179   1.143   2.658  0.2982  0.3656  0.3641
  205SOL    HW1  614   2.136   1.199   2.586 -0.7232  2.4838  0.5312
  205SOL    HW2  615   2.277   1.145   2.647 -2.5061  2.1423 -0.3649
  206SOL     OW  616   0.175   1.785   2.488  0.3929 -0.5050 -0.0740
  206SOL    HW1  617   0.164   1.886   2.486 -2.2267 -0.1395  2.4311
  206SOL    HW2  618   0.141   1.745   2.573  1.8919 -0.0166 -1.7142
  207SOL     OW  619   1.105   2.863   1.550  0.5941 -0.1508  0.2190
  207SOL    HW1  620   1.071   2.797   1.620 -0.0106  0.3880 -2.4787
  207SOL    HW2  621   1.057   2.950   1.571 -2.7428  0.2913 -0.0201
  208SOL     OW  622   0.480   2.459   1.281  0.5247  0.5560  0.6536
  208SOL    HW1  623   0.394   2.497   1.237  0.3416 -0.3182 -0.7179
  208SOL    HW2  624   0.526   2.387   1.225  0.2339  3.5469 -0.5984
  209SOL     OW  625   1.259   2.947   0.487 -0.2649 -0.5607 -0.2533
  209SOL    HW1  626   1.160   2.919   0.486 -1.0033 -0.9557  0.5029
  209SOL    HW2  627   1.266   3.050   0.484 -1.9047 -1.5788  1.5449
  210SOL     OW  628   2.982   1.372   1.072  0.3595 -0.5206  0.5570
  210SOL    HW1  629   2.918   1.452   1.059 -0.1083  0.9152  0.3037
  210SOL    HW2  630   3.070   1.399   1.028  2.2637  0.5010 -3.0332
  211SOL     OW  631   0.697   0.879   1.935 -0.5002 -0.3424 -0.1877
  211SOL    HW1  632   0.692   0.793   1.880 -1.8416 -1.4099 -0.8482
  211SOL    HW2  633   0.775   0.879   2.000  0.4809  1.0755  3.3100
  212SOL     OW  634   1.485   2.219   1.590 -0.5128 -0.2945 -0.1368
  212SOL    HW1  635   1.477   2.282   1.506  3.1905  3.0294 -3.9846
  212SOL    HW2  636   1.470   2.119   1.571  1.2834  2.0408 -0.7807
  213SOL     OW  637   2.778   0.153   1.572  0.1596  0.5553 -0.0987
  213SOL    HW1  638   2.743   0.222   1.507  0.1462  1.9706  0.1702
  213SOL    HW2  639   2.717   0.068   1.567 -1.1176 -1.1742 -0.0727
  214SOL     OW  640   1.057   2.648   1.732 -0.1166  0.4905 -0.1645
  214SOL    HW1  641   1.111   2.557   1.736 -0.6383 -3.1404  0.8616
  214SOL    HW2  642   0.976   2.643   1.793 -0.8607  1.0938  1.3207
  215SOL     OW  643   2.699   1.982   1.284  0.7677 -0.1272  0.6248
  215SOL    HW1  644   2.606   2.018   1.272 -0.3688  0.3829 -0.9990
  215SOL    HW2  645   2.724   2.002   1.382 -0.7187 -1.2239 -0.4507
  216SOL     OW  646   0.175   0.962   1.837  0.2864 -0.2562  0.2208
  216SOL    HW1  647   0.246   0.962   1.909  0.6157  0.9812  0.6252
  216SOL    HW2  648   0.124   0.872   1.831  1.4059 -3.5768  4.3392
  217SOL     OW  649   2.587   0.278   1.200 -0.1579  0.0011 -0.4769
  217SOL    HW1  650   2.678   0.278   1.161 -0.3795  1.2991  0.4285
  217SOL    HW2  651   2.589   0.287   1.302  1.4909 -0.2698 -3.2480
  218SOL     OW  652   1.475   2.231   1.149  0.3099  0.2309 -0.1046
  218SOL    HW1  653   1.505   2.283   1.072 -0.7334  0.7168  0.8802
  218SOL    HW2  654   1.372   2.244   1.157  0.3786 -1.8436 -0.1212
  219SOL     OW  655   1.536   2.470   0.431  0.0465 -0.5679 -0.7973
  219SOL    HW1  656   1.501   2.568   0.436  1.0778  1.0267 -0.3797
  219SOL    HW2  657   1.470   2.400   0.450 -0.0333  2.1381 -0.8381
  220SOL     OW  658   1.977   2.328   0.375  0.3043 -0.3100  0.2742
  220SOL    HW1  659   2.022   2.396   0.441  0.2710  3.2258  2.8509
  220SOL    HW2  660   1.883   2.360   0.348  0.8870  0.0516 -1.6269
  221SOL     OW  661   2.749   2.146   0.916  0.3050  0.4807  0.0962
  221SOL    HW1  662   2.687   2.116   0.841  2.6921 -0.4449  1.1416
  221SOL    HW2  663   2.846   2.143   0.886 -1.3017 -1.2494 -0.9852
  222SOL     OW  664   0.935   2.168   0.838 -0.1122  0.7522 -0.2878
  222SOL    HW1  665   0.962   2.256   0.875 -1.7760  1.0636  0.3324
  222SOL    HW2  666   0.832   2.167   0.831 -0.5856  2.1176  1.1537
  223SOL     OW  667   1.264   2.686   2.368  0.0043  0.7731  0.1598
  223SOL    HW1  668   1.314   2.600   2.376  1.1101  1.0172 -1.7189
  223SOL    HW2  669   1.168   2.659   2.338 -1.0641  1.1753 -1.4808
  224SOL     OW  670   2.510   1.219   1.040 -0.3917  0.2504  0.0645
  224SOL    HW1  671   2.546   1.271   0.961 -0.1986 -0.8131  1.6302
  224SOL    HW2  672   2.439   1.150   1.011  0.4777  1.7855 -0.2970
  225SOL     OW  673   2.857   1.598   1.020 -0.0928  0.8683  0.0253
  225SOL    HW1  674   2.819   1.582   0.927 -0.3482  0.9038 -0.5844
  225SOL    HW2  675   2.805   1.671   1.069  1.6512 -0.4526  0.8152
  226SOL     OW  676   1.191   2.586   0.727  0.3003 -0.3522 -0.6343
  226SOL    HW1  677   1.176   2.503   0.665  0.3244 -1.7248 -0.7599
  226SOL    HW2  678   1.283   2.582   0.769 -2.9790  0.3856 -0.5466
  227SOL     OW  679   1.071   1.130   1.201  0.2629 -0.1409 -0.5416
  227SOL    HW1  680   1.032   1.070   1.269 -2.7106 -1.3391 -0.4376
  227SOL    HW2  681   1.002   1.196   1.163 -4.0160 -0.0077 -0.2063
  228SOL     OW  682   1.386   0.343   2.174  0.3710 -0.1895  0.1437
  228SOL    HW1  683   1.385   0.249   2.217 -0.3639 -3.8705  0.6635
  228SOL    HW2  684   1.361   0.341   2.075  0.6113 -1.5213 -3.8043
  229SOL     OW  685   2.878   0.795   2.516 -0.5305  0.1750 -0.4407
  229SOL    HW1  686   2.867   0.823   2.423  1.2104 -0.7138  1.6321
  229SOL    HW2  687   2.979   0.769   2.531  0.4601  0.1947  3.7370
  230SOL     OW  688   0.525   1.376   0.871 -0.4697  0.7869 -0.9703
  230SOL    HW1  689   0.450   1.408   0.938  0.0051 -0.9786 -1.4264
  230SOL    HW2  690   0.557   1.451   0.811  1.4963 -2.7406  2.3894
  231SOL     OW  691   2.232   3.008   2.649 -0.3641 -0.6405 -0.2722
  231SOL    HW1  692   2.153   2.980   2.601  4.5280  0.2333  1.9088
  231SOL    HW2  693   2.237   0.017   2.662  0.2175  0.8433 -0.7626
  232SOL     OW  694   0.489   1.831   2.927  0.5592 -0.3133  0.5262
  232SOL    HW1  695   0.459   1.805   2.836 -0.7414 -4.2229 -1.9664
  232SOL    HW2  696   0.435   1.909   2.957 -0.4039 -3.3842  0.3730
  233SOL     OW  697   1.379   2.518   2.804  0.0466 -0.3949  0.1510
  233SOL    HW1  698   1.444   2.466   2.861 -1.3093 -1.1375 -0.8081
  233SOL    HW2  699   1.354   2.608   2.853 -1.0821 -0.6596  3.2691
  234SOL     OW  700   1.079   1.377   1.867 -0.3951 -0.2147 -0.0706
  234SOL    HW1  701   1.152   1.333   1.926  0.7742 -0.9242  4.0155
  234SOL    HW2  702   0.999   1.397   1.930  1.3265 -0.7861  0.0015
  235SOL     OW  703   0.480   2.018   1.776 -0.0011  0.5533 -0.5509
  235SOL    HW1  704   0.477   2.023   1.672  0.4434  0.1927 -0.7893
  235SOL    HW2  705   0.433   1.934   1.817  0.1066  0.2703  1.0354
  236SOL     OW  706   1.655   1.978   2.876  0.0811  0.1162 -0.3775
  236SOL    HW1  707   1.726   2.048   2.892 -4.1324 -1.6479 -1.6053
  236SOL    HW2  708   1.630   1.973   2.777 -1.5991 -1.8416  1.0729
  237SOL     OW  709   1.541   0.430   0.904 -0.3742 -0.0438 -0.2908
  237SOL    HW1  710   1.486   0.475   0.978  1.9919  2.1082 -2.2574
  237SOL    HW2  711   1.492   0.353   0.854  2.1250 -1.8337 -0.4316
  238SOL     OW  712   0.991   0.338   2.565  0.1863  0.5735  0.5250
  238SOL    HW1  713   0.941   0.295   2.488  0.2379 -0.9794  2.3634
  238SOL    HW2  714   1.068   0.392   2.522 -0.3629  1.8646  0.4013
  239SOL     OW  715   0.775   2.990   1.831 -0.1645 -0.2750 -0.0185
  239SOL    HW1  716   0.687   3.012   1.882  0.7780  0.6086 -0.1560
  239SOL    HW2  717   0.853   3.027   1.879 -0.0727  0.8282 -2.5012
  240SOL     OW  718   2.425   2.751   0.774 -0.0969 -0.1139 -0.1169
  240SOL    HW1  719   2.407   2.786   0.681 -0.8500  1.0383 -1.8682
  240SOL    HW2  720   2.342   2.701   0.807  2.9117  0.8389 -1.8527
  241SOL     OW  721   1.029   1.567   1.647  0.1032  0.0658  0.3127
  241SOL    HW1  722   0.941   1.578   1.604  0.9023 -0.1235  1.2961
  241SOL    HW2  723   1.030   1.498   1.723  2.5746 -0.1627  0.8799
  242SOL     OW  724   2.889   0.539   0.506 -0.1954 -0.4418 -0.7965
  242SOL    HW1  725   2.900   0.633   0.466 -0.2485 -1.5713  0.4331
  242SOL    HW2  726   2.839   0.478   0.442 -1.1522  1.6649 -1.8576
  243SOL     OW  727   0.730   0.638   1.389  0.0565 -0.4234  0.1960
  243SOL    HW1  728   0.654   0.705   1.390  0.3449  0.6817 -0.2762
  243SOL    HW2  729   0.801   0.670   1.456  0.2049  0.3702 -1.0297
  244SOL     OW  730   1.243   0.470   0.050  0.0974 -0.6295 -0.0006
  244SOL    HW1  731   1.265   0.414   3.060  0.3684  0.6141 -0.4253
  244SOL    HW2  732   1.152   0.441   0.085 -0.6402 -0.2045  1.2471
  245SOL     OW  733   2.083   0.302   0.222  0.0021 -0.7462  0.3693
  245SOL    HW1  734   2.064   0.223   0.157  0.9389  0.9851 -1.3747
  245SOL    HW2  735   2.181   0.318   0.239 -0.3206 -2.9785 -2.3474
  246SOL     OW  736   0.888   0.726   1.593 -0.4343  0.6426  0.5019
  246SOL    HW1  737   0.872   0.822   1.558  1.0054  0.6612  1.4587
  246SOL    HW2  738   0.986   0.705   1.577  1.1760 -1.6139 -0.3817
  247SOL     OW  739   0.739   2.947   2.191 -0.4779  0.6550  0.1049
  247SOL    HW1  740   0.644   2.973   2.154 -0.2087  0.9739 -0.8614
  247SOL    HW2  741   0.803   3.016   2.151 -3.1499 -2.0533 -0.2547
  248SOL     OW  742   0.227   1.557   1.875 -0.9064 -0.0024 -0.2546
  248SOL    HW1  743   0.143   1.585   1.825  0.2603 -2.1310  1.1427
  248SOL    HW2  744   0.304   1.625   1.862 -0.6670 -2.1586  2.1405
  249SOL     OW  745   0.016   2.990   3.002  0.1956  0.0069 -0.1171
  249SOL    HW1  746   0.106   3.019   2.967 -1.9680 -0.8999  1.0586
  249SOL    HW2  747   0.002   2.889   3.013 -2.8075  0.4540  0.8625
  250SOL     OW  748   2.897   0.130   0.251 -0.2668  0.1510 -0.9083
  250SOL    HW1  749   2.825   0.071   0.210  4.0401  0.8846  0.5645
  250SOL    HW2  750   2.990   0.088   0.236  0.3408  1.8225 -2.1428
  251SOL     OW  751   0.511   1.510   1.270 -0.0074 -0.2978  0.4243
  251SOL    HW1  752   0.443   1.495   1.195 -2.5062 -0.2432  1.4867
  251SOL    HW2  753   0.458   1.535   1.355  2.2926 -0.9043 -0.1538
  252SOL     OW  754   1.596   2.994   1.573  0.6305  0.6469 -0.2624
  252SOL    HW1  755   1.554   3.017   1.663  2.0017  2.3147  0.7599
  252SOL    HW2  756   1.677   2.933   1.577 -0.4680 -2.4565 -1.0583
  253SOL     OW  757   2.035   2.029   2.729 -0.1079 -0.6329 -0.3786
  253SOL    HW1  758   2.129   2.012   2.779  1.9894 -1.5257  1.0853
  253SOL    HW2  759   2.008   1.951   2.669 -1.4799  0.3776  0.1753
  254SOL     OW  760   0.426   1.755   1.862 -0.7249  0.3375  0.4852
  254SOL    HW1  761   0.425   1.739   1.760 -1.9532  0.1915 -0.4199
  254SOL    HW2  762   0.516   1.723   1.898  1.5390  0.7581 -0.3077
  255SOL     OW  763   0.938   0.061   1.614 -0.2349 -0.4070  0.0127
  255SOL    HW1  764   1.017   0.108   1.650 -2.2514  0.0840  0.1383
  255SOL    HW2  765   0.869   0.044   1.689 -0.1067  0.4607  0.3354
  256SOL     OW  766   2.320   2.285   0.873  0.6110 -0.6793  0.0857
  256SOL    HW1  767   2.299   2.345   0.792 -1.3477  0.3804  0.7031
  256SOL    HW2  768   2.418   2.296   0.904  2.9475 -2.6280 -0.1082
  257SOL     OW  769   0.393   2.097   3.064 -0.4581  0.3826  0.0566
  257SOL    HW1  770   0.433   2.141   0.056 -2.3918  0.3103  1.0773
  257SOL    HW2  771   0.451   2.122   2.982  0.0697  1.2269  0.5829
  258SOL     OW  772   0.889   2.205   2.386  0.5076 -0.1133 -0.9496
  258SOL    HW1  773   0.869   2.307   2.371 -1.5787  0.4822 -0.9546
  258SOL    HW2  774   0.865   2.181   2.482  0.1081 -1.4104 -2.0296
  259SOL     OW  775   0.981   1.869   2.575  0.1094  0.2313 -0.1712
  259SOL    HW1  776   1.007   1.968   2.583  0.9521 -3.2063  1.0115
  259SOL    HW2  777   0.902   1.843   2.636  0.8325  0.5658 -0.6601
  260SOL     OW  778   2.371   1.148   1.910 -0.0558  0.4536 -0.1996
  260SOL    HW1  779   2.321   1.236   1.920 -0.1878 -1.3854 -1.2069
  260SOL    HW2  780   2.428   1.120   1.992 -0.0627 -0.2624  0.2389
  261SOL     OW  781   1.336   0.703   0.869  0.5453  0.5816 -0.3547
  261SOL    HW1  782   1.369   0.636   0.938  0.4595 -1.7482 -1.6038
  261SOL    HW2  783   1.269   0.767   0.914  0.3120  1.2762  2.2226
  262SOL     OW  784   1.626   2.057   2.587  0.2179 -0.4904  0.5137
  262SOL    HW1  785   1.704   2.110   2.545 -2.0015  1.8573 -0.1499
  262SOL    HW2  786   1.579   2.113   2.655  1.3347 -0.3227 -1.0618
  263SOL     OW  787   0.101   1.668   0.066  0.1171 -0.3449 -0.2218
  263SOL    HW1  788   0.058   1.711   0.151  0.4617 -0.4050 -1.6662
  263SOL    HW2  789   0.172   1.598   0.097 -2.5341  1.1551 -1.5569
  264SOL     OW  790   0.669   2.140   0.760  0.2356  0.0111  0.2201
  264SOL    HW1  791   0.605   2.210   0.726  1.8327  0.7103  0.4306
  264SOL    HW2  792   0.628   2.091   0.845  1.8920 -1.8856 -0.6664
  265SOL     OW  793   0.538   1.342   0.373  0.1358 -0.0209  0.4396
  265SOL    HW1  794   0.483   1.258   0.401 -0.9419 -1.6589  1.0808
  265SOL    HW2  795   0.588   1.359   0.458 -0.4857  1.0270 -0.4544
  266SOL     OW  796   1.139   1.654   2.892  0.1091  0.1516  0.0621
  266SOL    HW1  797   1.160   1.685   2.800  0.9214 -2.2819  0.6153
  266SOL    HW2  798   1.061   1.706   2.940 -0.7881 -2.0035  1.5026
  267SOL     OW  799   0.916   0.743   2.334  0.1345  0.5392 -0.2709
  267SOL    HW1  800   0.878   0.652   2.312 -1.7653  0.9642  0.1043
  267SOL    HW2  801   0.977   0.730   2.416  2.8108 -0.6483  4.1219
  268SOL     OW  802   0.409   0.598   2.678 -0.3185 -0.4540  0.1732
  268SOL    HW1  803   0.488   0.661   2.654  1.2274  1.8864  0.2334
  268SOL    HW2  804   0.368   0.623   2.768  1.6659 -1.6573 -1.2914
  269SOL     OW  805   2.000   2.964   2.521 -0.4656 -0.5330  0.1784
  269SOL    HW1  806   1.904   2.990   2.534  2.8421 -2.7107 -0.3919
  269SOL    HW2  807   2.006   2.926   2.425 -0.7536 -2.3461  0.3406
  270SOL     OW  808   0.968   1.421   2.381  0.0108 -0.2325  0.5020
  270SOL    HW1  809   0.984   1.522   2.392  3.4741  1.3761  1.9455
  270SOL    HW2  810   0.948   1.374   2.471  1.5979  0.2374  0.0285
  271SOL     OW  811   0.296   3.027   2.978  0.2136 -0.2994  0.0995
  271SOL    HW1  812   0.318   2.949   2.916 -2.4003  1.4086  2.2710
  271SOL    HW2  813   0.334   3.003   3.068 -0.9869 -1.8260  0.2568
  272SOL     OW  814   2.493   0.637   0.405  0.0106  0.0555 -0.4704
  272SOL    HW1  815   2.482   0.653   0.507  1.4758  1.2069  3.5896
  272SOL    HW2  816   2.409   0.671   0.358 -0.4168  1.3050  2.2099
  273SOL     OW  817   0.391   2.928   1.876  0.2535 -0.4232  0.5812
  273SOL    HW1  818   0.412   2.833   1.902  0.0414  4.1809 -0.5027
  273SOL    HW2  819   0.291   2.947   1.869  0.7044  0.6174 -1.2517
  274SOL     OW  820   2.955   0.482   1.858  0.0318 -0.6594 -0.2566
  274SOL    HW1  821   2.935   0.490   1.758 -2.7314  0.0523 -4.0611
  274SOL    HW2  822   3.049   0.446   1.866 -0.0714  0.9393  1.9414
  275SOL     OW  823   1.479   1.654   0.520  0.3457 -0.5064  0.0637
  275SOL    HW1  824   1.507   1.561   0.555 -0.8330 -0.6528 -0.3308
  275SOL    HW2  825   1.388   1.650   0.472 -0.3970 -1.1235 -0.3943
  276SOL     OW  826   0.889   1.159   2.165  0.1620 -0.4477  0.4426
  276SOL    HW1  827   0.885   1.058   2.145  1.0379 -1.5939  0.5125
  276SOL    HW2  828   0.877   1.171   2.265  2.1778  1.2935  2.9996
  277SOL     OW  829   1.743   2.627   1.990 -0.3174 -0.4220 -0.3812
  277SOL    HW1  830   1.750   2.606   1.892  0.2162  1.4578 -1.3660
  277SOL    HW2  831   1.712   2.542   2.038  2.3597 -0.2801 -0.0687
  278SOL     OW  832   2.000   2.876   2.252 -0.5714  0.4678  0.0538
  278SOL    HW1  833   1.919   2.817   2.270  0.6862 -2.7464 -0.6167
  278SOL    HW2  834   2.082   2.815   2.242 -1.0832 -1.9455 -1.3927
  279SOL     OW  835   1.691   1.189   0.189 -0.6230 -0.0716  0.3166
  279SOL    HW1  836   1.712   1.219   0.093 -1.7971  1.4577 -0.0330
  279SOL    HW2  837   1.633   1.105   0.185  3.1246 -2.4654 -0.4600
  280SOL     OW  838   0.545   1.507   0.167  0.1911  0.1049 -0.3912
  280SOL    HW1  839   0.551   1.462   0.262 -1.4458  1.4320 -2.0992
  280SOL    HW2  840   0.588   1.456   0.091  0.7951 -0.7547 -0.1072
  281SOL     OW  841   0.142   0.046   1.730  0.4447 -0.1729 -0.1525
  281SOL    HW1  842   0.070   3.070   1.759  0.1336  0.1024 -0.0178
  281SOL    HW2  843   0.176   0.093   1.814 -0.6121 -0.0361 -3.4449
  282SOL     OW  844   0.031   2.440   0.802 -0.0606 -0.4371  0.2459
  282SOL    HW1  845   3.027   2.478   0.803  0.7760  0.3042 -0.1486
  282SOL    HW2  846   0.069   2.459   0.712 -3.3139  1.8608  0.5073
  283SOL     OW  847   1.419   2.021   2.327  0.6166  0.2652  0.3877
  283SOL    HW1  848   1.492   2.029   2.394  0.1569 -2.8263 -0.9314
  283SOL    HW2  849   1.393   1.926   2.308 -0.9447 -0.3473 -2.9403
  284SOL     OW  850   1.922   0.161   0.613  0.3085  0.4175  0.2117
  284SOL    HW1  851   1.916   0.261   0.618 -0.8977 -0.3068 -0.6318
  284SOL    HW2  852   1.840   0.115   0.647  5.1905  0.6554 -0.3719
  285SOL     OW  853   3.035   2.541   2.422  0.0672 -0.3293  0.5484
  285SOL    HW1  854   2.976   2.592   2.487 -0.3130  0.0023  2.1872
  285SOL    HW2  855   3.081   2.467   2.478 -0.2505  4.4542 -2.5161
  286SOL     OW  856   2.728   2.640   1.321  0.3396 -0.2399 -0.1344
  286SOL    HW1  857   2.712   2.733   1.371  0.4544  0.4865  0.9906
  286SOL    HW2  858   2.814   2.596   1.354 -0.8633 -0.5316  1.5214
  287SOL     OW  859   0.526   1.657   0.732  0.3639  0.2401 -0.7141
  287SOL    HW1  860   0.445   1.668   0.797 -1.7716  0.0946 -1.6454
  287SOL    HW2  861   0.573   1.747   0.706  1.9327  0.2160 -3.4517
  288SOL     OW  862   2.272   2.040   2.841  0.2887 -0.2151  0.2399
  288SOL    HW1  863   2.328   2.015   2.756  1.6483 -1.5327 -3.5248
  288SOL    HW2  864   2.273   2.139   2.868  1.2167  1.4934 -0.9232
  289SOL     OW  865   0.014   1.666   2.911 -0.5461 -1.0553  0.6527
  289SOL    HW1  866   3.013   1.712   2.890 -2.3172  2.1276 -0.1286
  289SOL    HW2  867   0.037   1.678   3.012 -2.1861  1.9055  2.7783
  290SOL     OW  868   1.092   1.731   1.141 -0.3668  0.6449 -0.0170
  290SOL    HW1  869   1.188   1.696   1.140  0.3992  0.7842 -0.1427
  290SOL    HW2  870   1.080   1.820   1.100 -1.7503  0.8357  1.2213
  291SOL     OW  871   1.532   0.977   2.818  0.2925  0.2780  0.7628
  291SOL    HW1  872   1.497   0.934   2.733 -0.9365 -0.6030 -1.1673
  291SOL    HW2  873   1.478   0.942   2.898 -0.4584 -1.8018  1.0796
  292SOL     OW  874   1.236   1.552   0.368 -0.0814  0.0374 -0.2267
  292SOL    HW1  875   1.195   1.513   0.454  3.0202 -1.5087  1.9547
  292SOL    HW2  876   1.214   1.482   0.295 -1.7576 -1.0355 -1.1813
  293SOL     OW  877   1.179   2.775   0.922 -0.0745 -0.0471  0.4031
  293SOL    HW1  878   1.249   2.851   0.923 -2.3070  0.6522  1.5845
  293SOL    HW2  879   1.184   2.713   0.838  0.4596 -2.3141 -0.1454
  294SOL     OW  880   2.316   1.255   2.942 -0.4827  0.5629 -0.1083
  294SOL    HW1  881   2.271   1.167   2.920  1.7478 -0.2535  1.6653
  294SOL    HW2  882   2.417   1.253   2.923 -1.1832 -1.7489  1.0160
  295SOL     OW  883   1.464   1.767   2.732  0.4246 -0.3682  0.5200
  295SOL    HW1  884   1.449   1.802   2.828 -1.0191 -1.8223 -0.9723
  295SOL    HW2  885   1.377   1.765   2.681  0.9891  0.3053  0.4007
  296SOL     OW  886   1.674   0.464   1.861  0.2621 -0.1794  0.2819
  296SOL    HW1  887   1.742   0.542   1.852 -1.8124  0.4531 -0.2340
  296SOL    HW2  888   1.639   0.435   1.774  1.2914  1.5449  0.9405
  297SOL     OW  889   0.114   0.584   2.100 -0.1497  0.0959  0.6674
  297SOL    HW1  890   0.157   0.643   2.168 -0.6841 -2.3297  0.1924
  297SOL    HW2  891   0.101   0.632   2.009 -0.2338 -0.0183 -1.4324
  298SOL     OW  892   1.171   2.375   1.707  0.0120  0.6360 -0.2519
  298SOL    HW1  893   1.118   2.291   1.697  0.7163  0.6376 -2.9122
  298SOL    HW2  894   1.265   2.359   1.737 -0.6093 -2.4774  1.0255
  299SOL     OW  895   1.306   2.868   2.639  0.1931 -0.3836 -0.2839
  299SOL    HW1  896   1.401   2.899   2.618 -2.3867 -0.2197 -0.9260
  299SOL    HW2  897   1.276   2.816   2.553 -1.8039 -2.0534 -1.5732
  300SOL     OW  898   0.164   0.779   2.831  0.5815  0.1693 -0.2719
  300SOL    HW1  899   0.129   0.787   2.927 -1.1203  0.5302  1.1484
  300SOL    HW2  900   0.156   0.869   2.784 -0.7693  0.5489  0.3635
  301SOL     OW  901   1.794   1.105   1.825  0.0843 -0.9662  0.2887
  301SOL    HW1  902   1.712   1.057   1.861 -0.1007 -1.9244  0.2875
  301SOL    HW2  903   1.800   1.200   1.864  2.2284 -0.6101  2.4058
  302SOL     OW  904   2.548   1.765   2.485 -0.5441 -0.2631  0.2443
  302SOL    HW1  905   2.551   1.802   2.388 -0.4207 -0.8245 -0.4954
  302SOL    HW2  906   2.518   1.843   2.548 -1.7790 -2.1516 -1.8389
  303SOL     OW  907   0.245   2.529   2.179  0.1614 -0.4121  0.0061
  303SOL    HW1  908   0.183   2.490   2.107  0.0857  0.6496 -1.3120
  303SOL    HW2  909   0.200   2.602   2.237  0.5730 -3.9040  1.1091
  304SOL     OW  910   0.033   0.789   1.271  0.4577 -0.8132 -0.4741
  304SOL    HW1  911   0.049   0.857   1.195  0.4018  2.2432 -1.8123
  304SOL    HW2  912   0.119   0.756   1.307 -1.6050 -1.5737 -1.8506
  305SOL     OW  913   2.774   0.941   1.857 -0.0645  0.3751  0.3379
  305SOL    HW1  914   2.850   0.875   1.844 -0.2358  0.9496  1.3370
  305SOL    HW2  915   2.804   1.031   1.829  0.2735 -3.2397  1.4797
  306SOL     OW  916   2.475   1.076   1.455  0.7161  0.4202 -0.3289
  306SOL    HW1  917   2.376   1.050   1.472 -1.4010 -1.1811 -1.1844
  306SOL    HW2  918   2.504   1.143   1.519 -3.5765 -1.1582 -2.0532
  307SOL     OW  919   2.457   3.001   0.875  0.1639  0.0498  0.3248
  307SOL    HW1  920   2.456   2.898   0.856 -1.3566 -0.0054  0.8645
  307SOL    HW2  921   2.535   3.022   0.940  0.6359 -3.8577 -1.7716
  308SOL     OW  922   0.099   1.973   1.785 -0.0953 -0.3260 -0.0031
  308SOL    HW1  923   0.117   1.912   1.867  0.0331  0.1448  3.2313
  308SOL    HW2  924   0.119   1.928   1.696  2.5934  1.9358 -0.5858
  309SOL     OW  925   2.418   2.188   1.583  0.2566  0.6577  0.3050
  309SOL    HW1  926   2.447   2.286   1.562  0.3649  1.2474  0.8184
  309SOL    HW2  927   2.317   2.179   1.608  0.4206  1.0486  0.5797
  310SOL     OW  928   2.180   1.475   2.899 -0.1496  0.2631  0.1722
  310SOL    HW1  929   2.193   1.507   2.802 -0.1873 -2.1809 -0.6825
  310SOL    HW2  930   2.253   1.406   2.922 -0.7325 -1.0854 -2.0569
  311SOL     OW  931   1.741   1.032   2.960 -0.2038  0.0217 -0.8944
  311SOL    HW1  932   1.648   1.011   2.918 -0.0607 -0.1573  0.2910
  311SOL    HW2  933   1.810   0.981   2.905  1.8519 -1.8716  1.4783
  312SOL     OW  934   1.042   2.185   2.101 -0.2019  0.5557 -0.1018
  312SOL    HW1  935   1.123   2.119   2.104  2.8368 -0.6198  2.2896
  312SOL    HW2  936   0.977   2.163   2.174 -1.6538 -1.3742  1.4051
  313SOL     OW  937   0.130   0.361   0.964 -0.1133 -0.0203  0.8917
  313SOL    HW1  938   0.116   0.326   0.871 -4.4327  1.4751  1.6140
  313SOL    HW2  939   0.208   0.315   1.007  1.2936  0.4438 -1.6367
  314SOL     OW  940   0.510   2.015   0.943  0.0978 -0.2827 -0.2353
  314SOL    HW1  941   0.463   2.088   0.997  1.0920 -2.2591 -0.5049
  314SOL    HW2  942   0.473   1.925   0.973 -1.0733  0.4883 -1.0743
  315SOL     OW  943   0.615   2.290   2.095 -0.1007  0.1949 -0.2420
  315SOL    HW1  944   0.530   2.275   2.039  0.2086 -0.7227 -1.3609
  315SOL    HW2  945   0.664   2.373   2.066 -0.6611  1.0858  1.4799
  316SOL     OW  946   0.214   2.283   0.972  0.0797 -0.0126  0.6986
  316SOL    HW1  947   0.180   2.184   0.982 -0.2664 -2.1122  0.5017
  316SOL    HW2  948   0.166   2.337   0.903  0.7585  0.6265  1.8594
  317SOL     OW  949   1.954   0.579   0.610  0.2444 -0.2714  0.3250
  317SOL    HW1  950   2.019   0.629   0.669 -1.7650 -1.4637 -1.8881
  317SOL    HW2  951   1.900   0.512   0.656 -1.5307  0.6957 -1.5531
  318SOL     OW  952   2.395   2.223   0.247 -0.0501 -0.2185  0.3002
  318SOL    HW1  953   2.294   2.206   0.249 -0.3915  0.4167 -0.4761
  318SOL    HW2  954   2.431   2.190   0.157 -0.9675  1.3264 -0.3670
  319SOL     OW  955   1.343   1.623   3.082  0.0893 -0.3276 -0.1244
  319SOL    HW1  956   1.249   1.618   3.031 -3.9095 -1.1408 -2.8757
  319SOL    HW2  957   1.418   1.611   3.016  1.2907  0.5948  0.1710
  320SOL     OW  958   0.294   2.673   2.545 -0.7559 -0.2284 -0.1921
  320SOL    HW1  959   0.306   2.571   2.544 -1.4763 -2.5359  2.4103
  320SOL    HW2  960   0.373   2.726   2.507 -0.3661 -1.1475  2.6820
  321SOL     OW  961   1.020   2.715   2.705  0.5873  0.3577  0.4510
  321SOL    HW1  962   1.078   2.630   2.722 -0.5614 -3.0655 -0.1082
  321SOL    HW2  963   0.972   2.701   2.616 -1.4562  2.0711 -1.0869
  322SOL     OW  964   2.306   0.566   2.084  0.1436  0.1683 -0.2715
  322SOL    HW1  965   2.308   0.469   2.095 -2.5419  2.1523 -0.4658
  322SOL    HW2  966   2.366   0.608   2.150 -2.9628  1.9605 -3.3639
  323SOL     OW  967   0.087   1.239   0.703  0.5384 -0.4065  0.0714
  323SOL    HW1  968   0.123   1.156   0.748  1.5591  2.7436 -0.7179
  323SOL    HW2  969   3.091   1.223   0.658  1.5775  2.3255  0.6625
  324SOL     OW  970   0.460   0.651   1.951 -0.6694 -0.0897  0.3821
  324SOL    HW1  971   0.407   0.562   1.951 -0.0468 -0.9284 -2.7774
  324SOL    HW2  972   0.450   0.695   1.855  0.0795  0.5592 -0.4529
  325SOL     OW  973   0.454   0.227   2.162 -0.4932 -0.0573  0.2092
  325SOL    HW1  974   0.531   0.301   2.167  1.7026  2.9464 -0.4460
  325SOL    HW2  975   0.466   0.152   2.227 -1.4154 -2.1369  1.1372
  326SOL     OW  976   2.483   2.463   0.339 -0.3114  0.5014  0.7617
  326SOL    HW1  977   2.429   2.538   0.295 -0.9123 -2.3603 -0.2699
  326SOL    HW2  978   2.444   2.374   0.311  1.1725  2.1597  1.9666
  327SOL     OW  979   2.538   1.449   0.537 -0.0516  0.9469  0.3704
  327SOL    HW1  980   2.446   1.451   0.491 -1.0884  0.3129 -2.1575
  327SOL    HW2  981   2.556   1.533   0.588  1.7226  1.3930 -2.3379
  328SOL     OW  982   2.864   1.937   2.212  0.8153  0.2982  0.4501
  328SOL    HW1  983   2.903   1.856   2.163 -0.5135  1.7757  0.7687
  328SOL    HW2  984   2.909   2.025   2.177  0.4474  0.3576  0.6194
  329SOL     OW  985   0.387   2.364   1.518 -0.0888 -0.4229 -0.0634
  329SOL    HW1  986   0.290   2.329   1.511 -0.3471 -1.9160 -0.6402
  329SOL    HW2  987   0.420   2.387   1.428 -0.9611 -3.8326  0.9555
  330SOL     OW  988   2.577   1.383   2.457 -0.3016  0.7632 -0.2554
  330SOL    HW1  989   2.592   1.470   2.501 -0.4217 -2.3148 -0.8181
  330SOL    HW2  990   2.513   1.319   2.507 -2.6230 -1.9965  2.2029
  331SOL     OW  991   2.626   2.564   0.819  0.0235 -0.2365 -0.1592
  331SOL    HW1  992   2.597   2.485   0.876 -1.0800 -1.2198 -0.7167
  331SOL    HW2  993   2.558   2.641   0.812 -0.5357 -4.1349 -2.1736
  332SOL     OW  994   0.373   3.047   0.718  0.4062 -0.4524 -0.1107
  332SOL    HW1  995   0.274   3.046   0.741 -1.3204 -0.4013  3.2926
  332SOL    HW2  996   0.394   2.986   0.640  1.9942  0.5817  2.1070
  333SOL     OW  997   2.076   2.536   2.517  0.0521 -0.1989 -0.1554
  333SOL    HW1  998   2.146   2.565   2.449 -0.5655 -1.9696 -0.0399
  333SOL    HW2  999   2.124   2.470   2.585  2.0961 -0.6518 -0.0073
  334SOL     OW 1000   0.812   1.255   0.317  0.4235 -0.4246 -0.2375
  334SOL    HW1 1001   0.861   1.223   0.403  2.4578 -2.3453  3.3465
  334SOL    HW2 1002   0.711   1.261   0.334 -0.2725 -1.2236  2.4681
  335SOL     OW 1003   2.765   1.834   1.932  0.5871  0.0274 -0.7628
  335SOL    HW1 1004   2.788   1.762   1.864 -2.0620 -0.0288  1.6434
  335SOL    HW2 1005   2.664   1.852   1.949  0.7375  0.0622  2.0670
  336SOL     OW 1006   2.680   2.874   2.480 -0.1088  0.5472 -0.2046
  336SOL    HW1 1007   2.580   2.880   2.497  0.7851 -0.4450 -3.1568
  336SOL    HW2 1008   2.705   2.860   2.380  1.7206  1.5953  2.3965
  337SOL     OW 1009   0.882   1.227   0.870  0.2996 -0.1662  0.5027
  337SOL    HW1 1010   0.910   1.297   0.799  0.4258 -0.7944  0.3053
  337SOL    HW2 1011   0.858   1.265   0.960  1.9769 -2.6247 -1.0414
  338SOL     OW 1012   1.069   1.967   0.980 -0.0561  0.6253  0.0750
  338SOL    HW1 1013   1.166   1.989   0.954  0.2245  0.4596  0.1782
  338SOL    HW2 1014   1.007   2.051   0.979  1.4296  0.5281  2.5335
  339SOL     OW 1015   0.320   1.466   1.464  0.0492 -0.1638  0.0687
  339SOL    HW1 1016   0.296   1.370   1.433  0.2761  0.4805  0.7871
  339SOL    HW2 1017   0.233   1.522   1.468 -0.2672 -0.3358  1.4313
  340SOL     OW 1018   1.712   2.913   1.987 -0.0458  0.1173  0.1653
  340SOL    HW1 1019   1.782   2.945   1.921  0.0286 -1.2059 -2.9179
  340SOL    HW2 1020   1.701   2.811   1.993  2.3349 -0.6100  1.2539
  341SOL     OW 1021   1.806   1.634   1.063 -0.3631 -0.1301 -0.3676
  341SOL    HW1 1022   1.758   1.579   0.990 -0.6838  0.7002 -3.8765
  341SOL    HW2 1023   1.904   1.656   1.041  1.3288 -0.1367  0.7426
  342SOL     OW 1024   0.100   1.438   0.871  0.0686  0.1584 -0.1779
  342SOL    HW1 1025   0.096   1.355   0.811  1.0697 -0.8836  0.9187
  342SOL    HW2 1026   0.093   1.528   0.820 -0.4493 -0.7790 -2.5167
  343SOL     OW 1027   2.623   0.356   1.492 -0.0563  0.3753  0.3834
  343SOL    HW1 1028   2.593   0.366   1.589 -1.1765 -0.3031  1.7961
  343SOL    HW2 1029   2.667   0.443   1.458 -0.0659  0.7185 -0.2469
  344SOL     OW 1030   1.721   0.282   1.058 -0.5327  0.1923  0.1942
  344SOL    HW1 1031   1.712   0.303   1.155 -1.0918 -2.5455  0.6809
  344SOL    HW2 1032   1.659   0.340   1.002 -1.5296 -0.2174  1.1951
  345SOL     OW 1033   0.741   2.887   2.457 -0.5541 -0.5791  0.2120
  345SOL    HW1 1034   0.794   2.953   2.516 -3.9365 -2.1606  0.9077
  345SOL    HW2 1035   0.770   2.894   2.360 -0.9205  0.6565  0.9309
  346SOL     OW 1036   2.567   1.718   0.629  0.1428 -0.3632  0.2713
  346SOL    HW1 1037   2.584   1.771   0.544  0.9486 -0.3614  0.8344
  346SOL    HW2 1038   2.488   1.746   0.682  3.2392 -0.3233  1.8230
  347SOL     OW 1039   2.250   0.265   1.868 -0.3560  0.1028  0.2250
  347SOL    HW1 1040   2.235   0.171   1.838  0.3155  1.2922 -0.3805
  347SOL    HW2 1041   2.256   0.261   1.969 -1.0947 -1.4060  0.3570
  348SOL     OW 1042   0.998   1.142   1.704 -0.2399 -0.1511 -0.1624
  348SOL    HW1 1043   0.910   1.096   1.720  1.2698  3.0324 -1.3980
  348SOL    HW2 1044   1.009   1.210   1.781 -0.3122 -0.3821  1.3372
  349SOL     OW 1045   2.552   0.807   1.760  0.1815 -0.5132  0.4774
  349SOL    HW1 1046   2.637   0.858   1.779 -0.1611  0.1264 -0.4824
  349SOL    HW2 1047   2.470   0.867   1.762 -2.0519  1.2088 -2.2301
  350SOL     OW 1048   2.143   2.150   0.311 -0.0594 -0.0067  0.0403
  350SOL    HW1 1049   2.081   2.231   0.310  0.8107 -1.2307  1.7226
  350SOL    HW2 1050   2.095   2.070   0.264 -1.1251 -1.9728 -0.6433
  351SOL     OW 1051   0.872   0.468   2.304  0.2725  0.8043  0.5161
  351SOL    HW1 1052   0.960   0.414   2.297  0.6464 -0.8049 -0.0107
  351SOL    HW2 1053   0.801   0.425   2.247  0.1698 -0.2542 -0.1966
  352SOL     OW 1054   2.025   2.599   1.741  0.4274 -0.0527 -0.4133
  352SOL    HW1 1055   2.018   2.583   1.844 -0.0175 -2.7869  1.8504
  352SOL    HW2 1056   1.936   2.635   1.702  0.2768 -0.4339 -0.4022
  353SOL     OW 1057   0.635   0.766   2.596  0.2814  0.0734  0.0697
  353SOL    HW1 1058   0.725   0.791   2.637  1.2295 -1.4781 -1.6294
  353SOL    HW2 1059   0.639   0.684   2.539 -0.7805  1.3100 -0.0615
  354SOL     OW 1060   0.543   2.119   2.842 -0.8964  0.1279 -0.2036
  354SOL    HW1 1061   0.625   2.075   2.893  0.0099 -1.6942  4.3053
  354SOL    HW2 1062   0.577   2.178   2.769  0.0252  1.0219 -1.5331
  355SOL     OW 1063   1.447   2.640   1.081 -0.1575 -0.0071  0.2481
  355SOL    HW1 1064   1.359   2.590   1.075 -2.0147 -0.2321  2.6308
  355SOL    HW2 1065   1.444   2.693   1.170 -2.4299 -0.3618  1.2719
  356SOL     OW 1066   2.506   0.990   0.219 -0.3591 -0.4941 -0.3042
  356SOL    HW1 1067   2.439   1.037   0.158 -2.3415  1.8655 -0.2891
  356SOL    HW2 1068   2.461   0.966   0.313 -2.5140 -0.4023  1.5200
  357SOL     OW 1069   3.038   0.195   2.012 -0.0384  0.4192  0.1721
  357SOL    HW1 1070   0.045   0.209   1.990  2.2163  1.2835  0.5276
  357SOL    HW2 1071   2.979   0.161   1.934 -1.5107 -0.5904 -2.1381
  358SOL     OW 1072   0.155   1.661   0.726 -0.1364 -0.2486 -0.2937
  358SOL    HW1 1073   0.189   1.621   0.643 -0.0948  0.4054  1.9635
  358SOL    HW2 1074   0.097   1.740   0.710  0.6693 -2.2384 -2.0644
  359SOL     OW 1075   2.761   0.474   2.972  0.1200 -0.3913 -0.0181
  359SOL    HW1 1076   2.737   0.380   2.999 -2.7062 -1.4854  0.0051
  359SOL    HW2 1077   2.717   0.496   2.880 -2.6026  0.6901 -1.2241
  360SOL     OW 1078   1.313   1.076   1.121 -0.1670 -0.1754 -0.2627
  360SOL    HW1 1079   1.363   1.015   1.185 -2.6480 -2.3292 -0.9553
  360SOL    HW2 1080   1.235   1.113   1.174  0.7471  1.7599  1.8470
  361SOL     OW 1081   2.700   2.743   1.074  0.1366 -0.1471 -0.2920
  361SOL    HW1 1082   2.711   2.709   1.171  1.9125  0.7134 -0.2651
  361SOL    HW2 1083   2.665   2.670   1.011  3.5280  1.3378 -1.7930
  362SOL     OW 1084   1.167   0.422   0.966  0.2252 -0.3277  0.1764
  362SOL    HW1 1085   1.121   0.449   1.054  0.1737  0.3319 -0.1988
  362SOL    HW2 1086   1.134   0.480   0.891 -0.5920 -1.1641  2.8280
  363SOL     OW 1087   1.835   1.740   0.776 -0.2683  0.4749 -0.4157
  363SOL    HW1 1088   1.813   1.774   0.680 -1.2325  1.1008 -2.5290
  363SOL    HW2 1089   1.796   1.648   0.803 -1.7322 -0.4644  1.1956
  364SOL     OW 1090   0.621   0.397   1.464  0.1483  0.3852 -0.4709
  364SOL    HW1 1091   0.619   0.355   1.370  0.3534  0.3108 -0.1481
  364SOL    HW2 1092   0.667   0.489   1.454  0.8203  1.4422 -0.1104
  365SOL     OW 1093   0.316   0.160   1.036  0.2200  0.1301  0.2449
  365SOL    HW1 1094   0.250   0.085   1.057  2.2647  2.3924  0.7907
  365SOL    HW2 1095   0.412   0.124   1.022  1.1495 -0.5292 -0.5874
  366SOL     OW 1096   2.941   1.063   0.036 -0.1074 -0.5472 -0.2239
  366SOL    HW1 1097   2.879   1.101   0.102  0.3254 -0.3403 -0.1842
  366SOL    HW2 1098   3.008   1.137   0.003  2.9929  2.4543 -0.0505
  367SOL     OW 1099   2.203   2.267   2.598  1.1931  0.3960 -0.2979
  367SOL    HW1 1100   2.136   2.217   2.657 -2.8042  1.9698 -0.7796
  367SOL    HW2 1101   2.259   2.334   2.656 -0.1362  0.2359 -3.3619
  368SOL     OW 1102   2.353   1.789   0.781  0.5156 -0.0735 -0.5421
  368SOL    HW1 1103   2.310   1.873   0.754 -0.3803 -1.7084  2.1740
  368SOL    HW2 1104   2.288   1.711   0.790  1.1622  1.5129 -0.4404
  369SOL     OW 1105   2.042   0.418   2.769  0.1193 -0.2664  0.7048
  369SOL    HW1 1106   2.101   0.503   2.776  1.7952  1.8925  2.5782
  369SOL    HW2 1107   1.958   0.432   2.824  1.4052  0.3378  0.6735
  370SOL     OW 1108   0.492   0.472   1.076 -0.5926  0.0811  0.9549
  370SOL    HW1 1109   0.500   0.456   0.974 -1.4143  0.8889 -2.6914
  370SOL    HW2 1110   0.520   0.389   1.134 -0.4499 -0.0419  2.9655
  371SOL     OW 1111   3.016   1.325   0.011 -0.0193 -0.4353 -0.1346
  371SOL    HW1 1112   3.061   1.348   3.015 -0.5529  1.6958  0.4297
  371SOL    HW2 1113   2.935   1.388   0.032 -0.5042  0.6847  0.3157
  372SOL     OW 1114   0.638   0.556   2.437 -0.7748 -0.8819 -0.4757
  372SOL    HW1 1115   0.732   0.522   2.426  1.5200  1.0174  0.9902
  372SOL    HW2 1116   0.612   0.612   2.357  0.1273  2.0023  2.6006
  373SOL     OW 1117   0.713   2.814   2.978  0.7336  0.1451 -0.2460
  373SOL    HW1 1118   0.659   2.822   3.065  0.3547  1.3167 -1.0623
  373SOL    HW2 1119   0.690   2.894   2.917  1.6679 -0.4336  3.3963
  374SOL     OW 1120   0.702   1.444   3.035  0.3056  0.2503 -0.1938
  374SOL    HW1 1121   0.766   1.412   0.015 -0.3172 -1.2928  0.9920
  374SOL    HW2 1122   0.707   1.378   2.956  0.5981  1.4663 -2.2899
  375SOL     OW 1123   1.004   0.483   1.999 -0.0889  0.1594 -0.0480
  375SOL    HW1 1124   1.008   0.570   1.948 -2.4363 -0.5934 -0.4857
  375SOL    HW2 1125   1.011   0.492   2.101 -1.2842 -1.2140 -3.5700
  376SOL     OW 1126   0.016   2.751   2.045 -0.7893 -0.0809 -0.6359
  376SOL    HW1 1127   0.055   2.783   2.136  1.3026 -1.2467  0.8685
  376SOL    HW2 1128   0.002   2.652   2.044  4.7315  0.6597 -0.6791
  377SOL     OW 1129   2.848   2.141   2.816 -0.3081 -0.6792 -0.0494
  377SOL    HW1 1130   2.753   2.168   2.782  0.2899  0.0125  0.7353
  377SOL    HW2 1131   2.844   2.066   2.883 -2.0439  0.4740 -0.7355
  378SOL     OW 1132   2.044   0.060   0.113 -0.5024 -0.2440 -0.0971
  378SOL    HW1 1133   2.037   3.080   0.184  0.4313 -1.5279  0.3356
  378SOL    HW2 1134   1.957   0.067   0.057  0.5957 -0.0864  3.3590
  379SOL     OW 1135   1.727   0.737   0.524 -0.0207 -0.1108  0.3091
  379SOL    HW1 1136   1.792   0.677   0.574 -2.4198  0.8086 -0.6092
  379SOL    HW2 1137   1.735   0.836   0.532 -1.6935 -3.7301 -2.7107
  380SOL     OW 1138   2.618   2.042   1.683  0.0006  0.7646  0.4166
  380SOL    HW1 1139   2.537   2.087   1.641 -0.5614  0.7473  1.3017
  380SOL    HW2 1140   2.648   2.101   1.760  0.5795 -0.8539 -1.7585
  381SOL     OW 1141   2.342   1.352   2.234  0.3745 -0.0731 -0.5694
  381SOL    HW1 1142   2.316   1.365   2.135 -0.2100  0.1416 -1.1709
  381SOL    HW2 1143   2.405   1.270   2.249  0.1459 -2.6289 -0.0929
  382SOL     OW 1144   2.943   2.607   2.779  0.1051 -0.2746  0.4345
  382SOL    HW1 1145   3.031   2.662   2.772 -1.3378 -1.4842 -0.1140
  382SOL    HW2 1146   2.953   2.534   2.847 -0.6927  0.5143 -2.0776
  383SOL     OW 1147   1.014   1.116   2.964  0.4554  0.2574  0.3821
  383SOL    HW1 1148   0.999   1.126   3.064  0.1292  2.6460 -2.6106
  383SOL    HW2 1149   1.030   1.210   2.934 -1.0917 -0.7867  1.8225
  384SOL     OW 1150   1.718   1.829   2.375 -0.1508  0.7312 -0.2605
  384SOL    HW1 1151   1.680   1.746   2.427 -0.1059 -0.7658 -1.4133
  384SOL    HW2 1152   1.738   1.808   2.279  2.3704  1.9663  0.6642
  385SOL     OW 1153   1.854   2.749   0.574 -0.2966  0.7507  0.2927
  385SOL    HW1 1154   1.792   2.809   0.522  0.9193  0.5861 -1.2243
  385SOL    HW2 1155   1.802   2.671   0.610  5.8789 -0.9964 -0.7509
  386SOL     OW 1156   1.928   1.249   0.517 -0.9835 -0.3955 -0.0647
  386SOL    HW1 1157   1.920   1.352   0.509  0.7168 -3.1920 -3.4559
  386SOL    HW2 1158   1.891   1.211   0.602 -1.4801 -0.6029  0.3945
  387SOL     OW 1159   2.849   1.993   1.556 -0.0325 -0.1100 -0.3777
  387SOL    HW1 1160   2.758   2.016   1.600 -0.3109  1.2227  0.3932
  387SOL    HW2 1161   2.907   2.078   1.549 -0.1464 -0.2038  1.1520
  388SOL     OW 1162   0.352   0.954   1.613 -0.2558  0.5742 -0.1091
  388SOL    HW1 1163   0.317   0.999   1.531  1.3718 -1.1700  1.8734
  388SOL    HW2 1164   0.282   0.940   1.688 -0.5413  1.3672 -0.1070
  389SOL     OW 1165   2.217   0.651   2.817 -0.0549  0.2714 -0.0564
  389SOL    HW1 1166   2.254   0.633   2.911 -1.3690 -1.4991 -0.9236
  389SOL    HW2 1167   2.202   0.751   2.806  1.3274 -0.5605 -1.1342
  390SOL     OW 1168   0.717   1.707   2.997 -0.7953 -0.6853 -0.0172
  390SOL    HW1 1169   0.731   1.611   3.031 -0.0112  0.3809 -0.5682
  390SOL    HW2 1170   0.617   1.732   2.986 -0.9926  0.1364 -0.3383
  391SOL     OW 1171   0.856   2.119   0.069 -0.5572 -0.3053 -0.3218
  391SOL    HW1 1172   0.821   2.199   0.117 -0.9227 -0.0612 -0.9015
  391SOL    HW2 1173   0.915   2.064   0.129 -0.8017  0.5885 -0.0936
  392SOL     OW 1174   2.988   2.468   2.156  0.0821  0.3578  0.2073
  392SOL    HW1 1175   2.908   2.507   2.109  1.6657  0.5907  3.9250
  392SOL    HW2 1176   2.999   2.506   2.251 -2.0864 -0.6434 -2.0994
  393SOL     OW 1177   1.474   2.113   0.414  0.3090  0.2538 -0.3949
  393SOL    HW1 1178   1.561   2.150   0.447  3.9429 -0.5268  0.3205
  393SOL    HW2 1179   1.489   2.015   0.379 -0.4058 -0.9956 -0.4130
  394SOL     OW 1180   0.552   0.254   2.484 -0.1833 -0.0395  0.6746
  394SOL    HW1 1181   0.449   0.230   2.483 -3.0022 -0.6681  1.3607
  394SOL    HW2 1182   0.560   0.356   2.493  1.1976 -1.3643  2.5421
  395SOL     OW 1183   0.666   1.368   1.422  0.2918  0.2408  0.0989
  395SOL    HW1 1184   0.763   1.398   1.415 -3.0136 -1.5122 -0.9495
  395SOL    HW2 1185   0.606   1.413   1.355 -2.6428 -1.5915  1.3714
  396SOL     OW 1186   1.863   1.355   2.756  0.1033 -0.2352  0.3434
  396SOL    HW1 1187   1.853   1.298   2.671  2.4440  0.2441 -1.6518
  396SOL    HW2 1188   1.851   1.303   2.842  0.3752  0.6609  0.2882
  397SOL     OW 1189   0.355   0.385   3.087  0.2237 -0.4449 -0.4593
  397SOL    HW1 1190   0.453   0.418   3.080 -2.4863  0.0322 -3.4263
  397SOL    HW2 1191   0.297   0.425   3.008 -0.1467  0.1846  2.3135
  398SOL     OW 1192   1.086   2.654   0.026  0.0787 -0.3487  0.1944
  398SOL    HW1 1193   1.063   2.717   3.042  0.6454  1.0741  1.1959
  398SOL    HW2 1194   1.189   2.651   0.041  0.5485  0.4821 -0.1093
  399SOL     OW 1195   2.031   2.144   2.298  0.3280 -0.2635 -0.1127
  399SOL    HW1 1196   1.967   2.137   2.221  0.0547 -1.5608  2.6837
  399SOL    HW2 1197   2.116   2.183   2.275 -1.2442 -3.0221  0.2566
  400SOL     OW 1198   2.448   1.394   1.256 -0.3494  0.1264 -0.0660
  400SOL    HW1 1199   2.386   1.362   1.332 -1.8254 -1.2175 -0.1035
  400SOL    HW2 1200   2.484   1.316   1.201 -1.0568  0.6966 -0.9625
  401SOL     OW 1201   1.415   1.120   0.862  0.0181  0.3051 -0.2269
  401SOL    HW1 1202   1.442   1.027   0.823  0.7041  0.7923 -0.3734
  401SOL    HW2 1203   1.371   1.111   0.952  0.5372 -1.0567 -3.6157
  402SOL     OW 1204   0.250   3.016   2.549  0.0961  0.2956 -0.0641
  402SOL    HW1 1205   0.257   0.022   2.529  0.1250 -3.0073 -0.4482
  402SOL    HW2 1206   0.338   2.973   2.576  2.5538 -1.2198 -1.7220
  403SOL     OW 1207   2.841   1.723   1.667  0.0773 -0.7183 -0.0095
  403SOL    HW1 1208   2.806   1.667   1.592  1.1916 -2.2369  1.5645
  403SOL    HW2 1209   2.846   1.822   1.639  0.5584  2.9177 -2.8410
  404SOL     OW 1210   2.393   1.635   1.480  0.4430 -0.0050  0.0195
  404SOL    HW1 1211   2.294   1.635   1.455 -1.5525 -0.2546  0.3976
  404SOL    HW2 1212   2.454   1.642   1.399  1.6251  1.2835 -1.2675
  405SOL     OW 1213   2.242   0.156   2.522 -0.1586  0.1180  0.6731
  405SOL    HW1 1214   2.213   0.123   2.425  2.5797 -0.4025 -1.6081
  405SOL    HW2 1215   2.338   0.193   2.514 -0.8713 -0.7611 -0.3249
  406SOL     OW 1216   0.899   1.325   2.633 -0.3016 -0.3432 -0.0507
  406SOL    HW1 1217   0.847   1.241   2.650  1.8263  1.1247  0.2241
  406SOL    HW2 1218   0.970   1.330   2.702 -2.5912 -2.0895  0.1537
  407SOL     OW 1219   1.995   2.300   0.747  0.1386 -0.3987 -0.3135
  407SOL    HW1 1220   1.996   2.330   0.846 -0.4564  0.7567  0.6566
  407SOL    HW2 1221   2.051   2.222   0.728 -2.0148  1.8927 -1.1064
  408SOL     OW 1222   0.252   2.938   1.027 -0.0741 -0.1794  0.3529
  408SOL    HW1 1223   0.210   2.952   1.115  0.1538 -0.5843 -1.1365
  408SOL    HW2 1224   0.205   2.982   0.946 -0.6418 -0.4750 -2.0241
  409SOL     OW 1225   2.180   1.586   0.797 -0.1843 -0.2987  0.7323
  409SOL    HW1 1226   2.114   1.572   0.870  0.4548  0.9582 -0.9881
  409SOL    HW2 1227   2.242   1.504   0.796  0.2824  0.5341  0.9134
  410SOL     OW 1228   2.134   2.488   0.021  0.2202 -0.2882  0.2907
  410SOL    HW1 1229   2.207   2.547   3.073 -2.6691 -1.3854  1.9268
  410SOL    HW2 1230   2.076   2.536   0.093  1.7518 -1.7113 -0.3100
  411SOL     OW 1231   3.008   2.843   0.680 -0.0332  0.4095  0.4480
  411SOL    HW1 1232   3.071   2.904   0.727 -2.5052  1.1898 -0.0919
  411SOL    HW2 1233   2.929   2.886   0.626 -0.4898 -0.6529 -1.8389
  412SOL     OW 1234   1.423   2.717   0.527 -0.2320  0.3662 -0.1552
  412SOL    HW1 1235   1.358   2.795   0.520  1.4032  1.9631 -0.6390
  412SOL    HW2 1236   1.426   2.681   0.624  2.0555  0.0523  1.9409
  413SOL     OW 1237   1.752   0.056   2.480 -0.4175  0.4527 -0.7670
  413SOL    HW1 1238   1.734   0.006   2.391 -1.4524  0.3091  0.1639
  413SOL    HW2 1239   1.778   0.151   2.449 -1.5797  2.3865 -2.6936
  414SOL     OW 1240   0.322   0.776   0.725  0.0185  0.1185  0.2871
  414SOL    HW1 1241   0.365   0.723   0.647 -1.3450 -0.3714 -2.6694
  414SOL    HW2 1242   0.274   0.707   0.785  0.9733  0.2792  1.5558
  415SOL     OW 1243   0.259   1.129   1.182 -0.6069  0.5141  0.0685
  415SOL    HW1 1244   0.187   1.067   1.136 -1.7067  1.9213  0.9838
  415SOL    HW2 1245   0.345   1.075   1.201  0.4042  0.0925  0.5673
  416SOL     OW 1246   0.363   3.019   0.152 -0.0928  0.0997 -0.1749
  416SOL    HW1 1247   0.330   0.021   0.168  2.0744  2.0526 -1.4012
  416SOL    HW2 1248   0.368   2.972   0.240  0.8579  0.7513  2.8881
  417SOL     OW 1249   2.207   0.488   0.534 -0.0511 -0.1877 -0.4546
  417SOL    HW1 1250   2.263   0.423   0.590  0.5064  1.2448 -1.7311
  417SOL    HW2 1251   2.106   0.490   0.560  1.0015 -2.0154 -0.5604
  418SOL     OW 1252   0.671   0.153   2.698 -0.2247  0.1215 -0.2928
  418SOL    HW1 1253   0.746   0.211   2.733  0.2783  1.8297  1.6549
  418SOL    HW2 1254   0.636   0.196   2.609 -1.7338  0.2547 -3.4709
  419SOL     OW 1255   0.504   0.989   0.697 -0.1311  0.5643 -0.2613
  419SOL    HW1 1256   0.443   0.911   0.680 -0.3262  0.7308 -1.7884
  419SOL    HW2 1257   0.489   1.029   0.795 -0.5890  1.0444  1.6807
  420SOL     OW 1258   2.223   1.890   1.151 -0.0816  0.8044  0.2804
  420SOL    HW1 1259   2.201   1.989   1.172 -1.1971  0.3159  2.0085
  420SOL    HW2 1260   2.315   1.879   1.110 -0.7426  1.6757  0.8826
  421SOL     OW 1261   1.190   1.698   2.610  0.0717 -0.1716  0.2213
  421SOL    HW1 1262   1.132   1.774   2.578 -1.3897 -0.0619  1.1441
  421SOL    HW2 1263   1.233   1.652   2.533 -1.0160  1.8858 -0.6968
  422SOL     OW 1264   2.932   0.603   0.027  0.4829  0.4173  0.1118
  422SOL    HW1 1265   2.956   0.509   0.057 -0.7995 -2.6971  0.2059
  422SOL    HW2 1266   2.828   0.598   0.007 -1.5805  1.1223  0.5413
  423SOL     OW 1267   1.928   1.837   0.507 -0.1601 -0.1392  0.3952
  423SOL    HW1 1268   2.016   1.790   0.493  1.4472 -0.9832  3.0492
  423SOL    HW2 1269   1.847   1.797   0.460 -1.2258 -0.4625  0.9480
  424SOL     OW 1270   0.421   1.685   1.605 -0.5076 -0.4155  0.2192
  424SOL    HW1 1271   0.524   1.686   1.595  2.1226 -1.2139 -0.3617
  424SOL    HW2 1272   0.380   1.619   1.539  0.3948  0.1184 -0.1129
  425SOL     OW 1273   2.392   2.776   2.037 -0.7142 -0.3349 -0.3344
  425SOL    HW1 1274   2.463   2.851   2.033  2.9207  0.3608 -2.9298
  425SOL    HW2 1275   2.404   2.702   1.968  1.6147  0.9515 -1.9124
  426SOL     OW 1276   1.732   2.519   0.635  1.0765  0.1143 -0.3411
  426SOL    HW1 1277   1.638   2.499   0.598 -1.6856  1.6852  1.1794
  426SOL    HW2 1278   1.765   2.443   0.692  0.2861  2.7884 -0.3641
  427SOL     OW 1279   0.183   0.481   2.543 -0.0432  0.0549 -0.5532
  427SOL    HW1 1280   0.264   0.514   2.598 -0.9405 -0.7508  2.8130
  427SOL    HW2 1281   0.131   0.414   2.603 -2.8387 -1.0571  1.5999
  428SOL     OW 1282   2.161   0.913   2.784 -0.1768  0.4405  0.3347
  428SOL    HW1 1283   2.164   1.007   2.755 -0.1439  0.6278 -0.6752
  428SOL    HW2 1284   2.063   0.893   2.809 -0.9760  0.8271 -0.0412
  429SOL     OW 1285   3.054   0.119   0.625 -0.2437  0.0741  0.1073
  429SOL    HW1 1286   2.992   0.049   0.584  0.3408 -1.0771  1.3543
  429SOL    HW2 1287   3.015   0.182   0.692  0.2144 -0.0637  0.9262
  430SOL     OW 1288   1.093   2.852   2.008  0.1598 -0.2102  0.3382
  430SOL    HW1 1289   0.993   2.832   1.997 -1.4302 -1.5498  0.8890
  430SOL    HW2 1290   1.153   2.769   1.991 -0.1332 -1.4031  1.0120
  431SOL     OW 1291   3.027   2.167   1.129  0.2329  0.2245  0.0554
  431SOL    HW1 1292   2.954   2.217   1.174  1.2844 -0.2196 -0.5828
  431SOL    HW2 1293   3.075   2.105   1.198  0.4734 -3.7240  2.9106
  432SOL     OW 1294   2.244   2.751   2.255  0.2472  0.2069  0.3024
  432SOL    HW1 1295   2.316   2.781   2.187  0.8734 -1.8352 -0.1951
  432SOL    HW2 1296   2.293   2.709   2.332 -2.0926 -0.4823 -0.5003
  433SOL     OW 1297   1.157   1.961   0.148 -0.4686  0.2659  0.0919
  433SOL    HW1 1298   1.098   1.902   0.086 -2.9840 -2.0150 -0.9171
  433SOL    HW2 1299   1.240   1.912   0.178  1.3156 -1.5674  3.1048
  434SOL     OW 1300   0.029   2.302   2.590  0.5178 -0.7173 -0.0815
  434SOL    HW1 1301   3.046   2.258   2.538 -1.0222 -0.0280  1.7898
  434SOL    HW2 1302   0.041   2.258   2.683 -1.0980  0.6118 -2.0506
  435SOL     OW 1303   0.091   0.872   0.634  0.7712 -0.0557 -0.1287
  435SOL    HW1 1304   0.079   0.831   0.540 -1.8766 -2.9781 -1.5679
  435SOL    HW2 1305   0.182   0.840   0.671  2.0886  1.5573 -4.8565
  436SOL     OW 1306   0.676   2.527   1.909  0.2493  0.3147  0.7929
  436SOL    HW1 1307   0.630   2.493   1.823 -2.9657  0.4936  2.0457
  436SOL    HW2 1308   0.758   2.470   1.926  0.8226  0.2812  1.6678
  437SOL     OW 1309   1.274   1.974   1.398 -0.0437  0.1592 -0.0617
  437SOL    HW1 1310   1.310   2.000   1.307 -0.2304 -1.9752 -1.9519
  437SOL    HW2 1311   1.345   1.946   1.462 -1.0305 -3.3049  2.0330
  438SOL     OW 1312   0.319   2.343   0.385  0.1806  0.5070 -0.2556
  438SOL    HW1 1313   0.379   2.329   0.305  0.0085  0.0757  0.1655
  438SOL    HW2 1314   0.295   2.254   0.433  1.4656 -0.7321  1.7651
  439SOL     OW 1315   0.469   0.044   1.318 -0.0000 -0.7512 -0.4350
  439SOL    HW1 1316   0.533   3.063   1.288  1.3922  2.1441 -3.3014
  439SOL    HW2 1317   0.438   0.037   1.412  2.5426 -2.2094 -1.2383
  440SOL     OW 1318   2.606   2.594   2.332 -0.3824 -0.5344  0.0575
  440SOL    HW1 1319   2.683   2.591   2.399 -2.5891  1.4958 -1.0046
  440SOL    HW2 1320   2.634   2.614   2.235  1.8718 -0.5771  0.1912
  441SOL     OW 1321   2.963   0.499   1.570 -0.4074  0.5143  0.0533
  441SOL    HW1 1322   2.956   0.539   1.478 -1.6819 -0.8130  2.0752
  441SOL    HW2 1323   2.995   0.401   1.568  1.6803  0.1865 -0.0028
  442SOL     OW 1324   1.931   2.216   0.035  0.4753  0.4472 -0.4953
  442SOL    HW1 1325   1.956   2.315   0.049 -2.5917 -1.5434 -1.4503
  442SOL    HW2 1326   1.865   2.179   0.106 -3.4549 -1.9917  0.2065
  443SOL     OW 1327   0.202   0.514   2.909  0.3504 -0.0465  0.0352
  443SOL    HW1 1328   0.115   0.467   2.896 -2.4255  0.1254 -0.1774
  443SOL    HW2 1329   0.201   0.602   2.863  0.9053  0.1876  0.7403
  444SOL     OW 1330   1.520   1.418   2.268 -0.5309  0.5092 -0.2505
  444SOL    HW1 1331   1.555   1.338   2.214 -0.2161 -0.7129 -0.0388
  444SOL    HW2 1332   1.531   1.508   2.228 -2.4119 -4.3097  1.2629
  445SOL     OW 1333   0.279   2.587   1.157  0.4457 -0.3000  0.0709
  445SOL    HW1 1334   0.279   2.681   1.197  0.9017 -1.1024  0.0960
  445SOL    HW2 1335   0.276   2.593   1.053 -0.2129 -0.3336 -0.3142
  446SOL     OW 1336   2.737   1.572   1.464 -0.3106  0.5915 -0.1232
  446SOL    HW1 1337   2.786   1.489   1.431 -0.4509  0.5825  0.7707
  446SOL    HW2 1338   2.682   1.609   1.386 -2.2670  0.0207  0.3151
  447SOL     OW 1339   0.060   0.788   0.371 -0.2321 -0.2485 -0.4839
  447SOL    HW1 1340   0.105   0.778   0.284 -1.7236  0.6373  2.0829
  447SOL    HW2 1341   3.049   0.795   0.370 -0.0318  0.6166  0.4072
  448SOL     OW 1342   1.422   2.094   1.898 -0.4464  0.3128  0.0037
  448SOL    HW1 1343   1.426   2.196   1.890 -1.9068  0.0733 -0.7643
  448SOL    HW2 1344   1.361   2.072   1.978  1.4980 -0.0444 -2.8075
  449SOL     OW 1345   0.927   1.456   0.151 -0.6859  0.0681 -0.0055
  449SOL    HW1 1346   0.889   1.393   0.219  0.4585 -2.9147 -0.2132
  449SOL    HW2 1347   1.027   1.444   0.140  0.5778  0.5327 -0.2532
  450SOL     OW 1348   2.936   2.048   1.947 -0.3219 -0.2888  0.3233
  450SOL    HW1 1349   3.011   2.030   1.880  0.1878  0.7705 -0.6461
  450SOL    HW2 1350   2.862   1.970   1.950 -1.4281  0.5551  1.2465
  451SOL     OW 1351   2.458   0.823   2.481 -0.1315 -0.2151  0.9040
  451SOL    HW1 1352   2.388   0.901   2.486 -1.2413 -0.6930  1.1220
  451SOL    HW2 1353   2.527   0.825   2.559  0.5863  1.6011  0.1955
  452SOL     OW 1354   1.423   0.554   1.128 -0.0630  0.8889  0.1233
  452SOL    HW1 1355   1.340   0.554   1.184 -0.3445  2.3900 -0.9569
  452SOL    HW2 1356   1.494   0.585   1.190 -1.4352  0.6706 -2.3509
  453SOL     OW 1357   1.662   0.946   1.151 -0.2345  0.3667  0.0506
  453SOL    HW1 1358   1.637   0.929   1.246  0.3872 -0.0781 -1.6756
  453SOL    HW2 1359   1.617   1.027   1.108  0.0395  0.8965  0.4441
  454SOL     OW 1360   0.064   1.115   0.349 -0.1391  0.0801  0.0954
  454SOL    HW1 1361   0.120   1.072   0.423 -0.6110 -0.9158 -0.2127
  454SOL    HW2 1362   3.056   1.089   0.362 -0.0623  1.8814 -0.7757
  455SOL     OW 1363   2.374   2.717   1.513 -0.5367 -0.5514  0.1809
  455SOL    HW1 1364   2.310   2.724   1.597 -1.6498 -0.7667  1.2020
  455SOL    HW2 1365   2.323   2.706   1.425 -0.9596 -3.5482  2.3895
  456SOL     OW 1366   0.275   2.811   1.339 -0.3102  0.3213 -0.2545
  456SOL    HW1 1367   0.347   2.814   1.414 -1.9579 -2.6832  1.0400
  456SOL    HW2 1368   0.222   2.898   1.328  1.6175 -0.2293  1.8186
  457SOL     OW 1369   1.627   2.920   0.534 -0.3429  0.4183  0.6646
  457SOL    HW1 1370   1.554   2.859   0.498 -1.4220  1.0395  0.5799
  457SOL    HW2 1371   1.603   3.016   0.532 -1.2826 -1.7255 -1.3837
  458SOL     OW 1372   2.633   3.009   1.068  0.0922  0.0227  0.3526
  458SOL    HW1 1373   2.699   3.081   1.093 -1.2243  2.9921  0.8906
  458SOL    HW2 1374   2.680   2.920   1.055 -1.6148 -1.1563 -2.5811
  459SOL     OW 1375   2.631   0.553   2.741  0.2709  0.2223 -0.3655
  459SOL    HW1 1376   2.645   0.654   2.752  0.4893 -2.9829  1.6294
  459SOL    HW2 1377   2.608   0.521   2.646  0.6599 -1.8718 -0.5748
  460SOL     OW 1378   2.625   2.357   3.005 -0.8697 -0.0308 -0.9413
  460SOL    HW1 1379   2.576   2.444   3.025 -2.2750 -0.0196  0.9359
  460SOL    HW2 1380   2.726   2.368   3.005 -0.7727 -1.1652 -0.3679
  461SOL     OW 1381   0.705   1.854   0.313  0.1580  0.4597  0.1864
  461SOL    HW1 1382   0.782   1.788   0.284  0.9586 -0.2194 -0.8437
  461SOL    HW2 1383   0.621   1.815   0.273  3.4623 -0.9416 -0.6914
  462SOL     OW 1384   2.191   2.045   0.798  0.1086 -0.4330  0.3076
  462SOL    HW1 1385   2.165   2.040   0.699  1.7451  3.4901  1.4033
  462SOL    HW2 1386   2.259   2.120   0.813  1.7473  1.4869  1.5312
  463SOL     OW 1387   2.788   1.131   0.765 -0.2611 -0.2955 -0.0985
  463SOL    HW1 1388   2.858   1.052   0.766  1.2839 -3.0782 -2.0295
  463SOL    HW2 1389   2.710   1.113   0.704 -4.3412 -1.4293  0.4020
  464SOL     OW 1390   0.991   2.929   0.594  0.4543 -0.3282 -0.1865
  464SOL    HW1 1391   0.926   2.978   0.533  0.4595 -1.2422  0.8762
  464SOL    HW2 1392   0.994   2.830   0.576  1.5161  1.8696  1.7337
  465SOL     OW 1393   2.280   1.428   0.445  0.0385  0.7416 -0.6492
  465SOL    HW1 1394   2.245   1.352   0.505 -0.1556  0.3479  0.4382
  465SOL    HW2 1395   2.273   1.406   0.343  0.1127  1.2686 -1.4079
  466SOL     OW 1396   2.276   0.275   2.865 -0.7957 -0.6880  0.2609
  466SOL    HW1 1397   2.204   0.321   2.809  0.1084 -2.8189 -2.0172
  466SOL    HW2 1398   2.357   0.332   2.889  0.4834  0.3911  2.7497
  467SOL     OW 1399   1.019   0.991   1.475 -0.2623  0.9430  0.3425
  467SOL    HW1 1400   0.995   1.052   1.558  0.2305  0.3783  0.6777
  467SOL    HW2 1401   1.098   0.931   1.497 -0.9228 -1.1704 -0.1679
  468SOL     OW 1402   0.552   0.852   2.326  0.2550 -0.1889 -0.0530
  468SOL    HW1 1403   0.488   0.914   2.280 -1.4210  1.8607  1.2198
  468SOL    HW2 1404   0.561   0.876   2.422  1.1622 -1.0742 -1.2880
  469SOL     OW 1405   0.485   2.286   0.150  0.1726  0.4118  0.2924
  469SOL    HW1 1406   0.465   2.375   0.102  0.1475  0.9042  0.8947
  469SOL    HW2 1407   0.587   2.280   0.172  0.9737 -0.0080 -0.9050
  470SOL     OW 1408   2.565   1.121   2.889 -0.4173  0.0505  0.4836
  470SOL    HW1 1409   2.494   1.059   2.929 -2.8625 -2.3588  0.9635
  470SOL    HW2 1410   2.661   1.083   2.896  1.6457 -0.4031 -0.3771
  471SOL     OW 1411   2.632   1.064   2.419 -0.0599  0.0896  0.1668
  471SOL    HW1 1412   2.721   1.087   2.468  1.0766  1.1284  0.2527
  471SOL    HW2 1413   2.640   0.972   2.379  0.2447 -2.6514  1.1831
  472SOL     OW 1414   0.398   2.598   0.687  0.1998 -0.2970 -0.1286
  472SOL    HW1 1415   0.302   2.575   0.665 -1.0227 -0.4912 -1.0958
  472SOL    HW2 1416   0.441   2.614   0.595 -0.6844  2.4905 -0.1462
  473SOL     OW 1417   0.612   0.051   0.101  0.0270 -0.5098  0.3043
  473SOL    HW1 1418   0.530   3.084   0.115  0.0946 -1.0918  1.1173
  473SOL    HW2 1419   0.682   3.079   0.073 -0.9069 -0.0073  1.2788
  474SOL     OW 1420   1.657   0.362   2.112 -0.6824 -0.2785  0.0515
  474SOL    HW1 1421   1.665   0.391   2.014  1.4306 -1.8398 -3.4200
  474SOL    HW2 1422   1.562   0.365   2.141 -1.8184  0.1994 -0.0289
  475SOL     OW 1423   0.967   2.645   0.258  0.0272 -0.1612  0.3729
  475SOL    HW1 1424   0.918   2.558   0.262  0.1441  0.7244  0.4053
  475SOL    HW2 1425   1.017   2.655   0.173 -0.3997  1.1352  1.0654
  476SOL     OW 1426   0.491   1.117   0.930 -0.4590 -0.0045 -0.4894
  476SOL    HW1 1427   0.556   1.075   1.001  1.7204 -0.5992  0.8129
  476SOL    HW2 1428   0.501   1.222   0.936  1.6238  0.8455  1.2813
  477SOL     OW 1429   1.707   2.475   1.293 -0.5093 -0.0291 -0.6413
  477SOL    HW1 1430   1.624   2.472   1.352 -0.1070 -1.4517 -0.0282
  477SOL    HW2 1431   1.689   2.472   1.190 -0.5677  1.5524  1.0664
  478SOL     OW 1432   0.596   1.385   2.330  0.1228 -0.4132  0.7477
  478SOL    HW1 1433   0.665   1.417   2.260 -0.4170  0.7185 -0.2843
  478SOL    HW2 1434   0.635   1.425   2.421  0.6713  1.1154  3.1133
  479SOL     OW 1435   0.132   3.037   1.274  0.9716  0.5957 -0.6924
  479SOL    HW1 1436   0.042   2.989   1.255 -1.7429  0.6893 -1.2460
  479SOL    HW2 1437   0.112   0.026   1.336 -0.0174  0.8854  2.3931
  480SOL     OW 1438   2.679   3.066   0.165  0.4554  0.0063 -0.5028
  480SOL    HW1 1439   2.585   0.012   0.155  0.7093 -3.8438 -1.5657
  480SOL    HW2 1440   2.664   2.970   0.194  2.4915 -1.6636 -0.5893
  481SOL     OW 1441   2.943   2.777   0.973 -0.4394  0.1411  0.3032
  481SOL    HW1 1442   2.959   2.711   0.900 -0.6163  1.5234  0.8668
  481SOL    HW2 1443   2.847   2.768   1.001 -1.8400  0.4897 -2.0341
  482SOL     OW 1444   1.456   2.272   2.191  0.0507 -0.1193  0.4001
  482SOL    HW1 1445   1.455   2.181   2.240 -2.6675  0.2737  0.4389
  482SOL    HW2 1446   1.548   2.299   2.156  2.7736  0.8033  0.2821
  483SOL     OW 1447   0.489   1.599   2.675  0.2398 -0.5104 -0.6784
  483SOL    HW1 1448   0.564   1.545   2.630  1.5065 -0.5962  1.1381
  483SOL    HW2 1449   0.433   1.655   2.612  0.1002  0.5411 -2.3602
  484SOL     OW 1450   1.157   1.129   2.445 -0.0372  0.5619 -0.1324
  484SOL    HW1 1451   1.059   1.100   2.447  0.1098  0.2369  1.7575
  484SOL    HW2 1452   1.179   1.185   2.527  1.3621 -2.3048 -0.0266
  485SOL     OW 1453   2.762   0.341   0.368  0.2124 -0.6739 -0.0787
  485SOL    HW1 1454   2.711   0.296   0.440  1.3795  1.9300  1.1671
  485SOL    HW2 1455   2.821   0.276   0.321 -0.3694  0.5659 -1.9240
  486SOL     OW 1456   1.639   2.881   0.810  0.2172  0.0107 -0.0053
  486SOL    HW1 1457   1.726   2.903   0.856 -1.3703 -0.4227 -1.1709
  486SOL    HW2 1458   1.657   2.865   0.709  2.1669  0.5236 -2.1366
  487SOL     OW 1459   0.668   2.470   1.009  0.4869  0.0195  0.6838
  487SOL    HW1 1460   0.631   2.560   1.047 -0.6508  1.3325  1.3103
  487SOL    HW2 1461   0.742   2.483   0.938  1.7122 -0.0227 -0.0841
  488SOL     OW 1462   2.318   1.203   0.140  0.2469  0.4187  0.0700
  488SOL    HW1 1463   2.273   1.297   0.158  0.1000  1.4005 -0.1703
  488SOL    HW2 1464   2.350   1.191   0.039  0.5864  2.6418  0.6672
  489SOL     OW 1465   1.375   2.957   0.914 -0.1560  0.0049  0.3853
  489SOL    HW1 1466   1.393   3.001   1.003 -0.2085  0.9263  0.3283
  489SOL    HW2 1467   1.465   2.926   0.877 -0.5345  0.2969  0.9364
  490SOL     OW 1468   0.954   1.088   0.127 -0.5911 -0.1549 -0.3393
  490SOL    HW1 1469   1.018   1.063   0.203 -1.1588 -2.0388  0.3594
  490SOL    HW2 1470   0.876   1.141   0.166  0.0801  1.1434  0.0234
  491SOL     OW 1471   0.826   0.048   0.764 -0.3643 -0.6926  0.2520
  491SOL    HW1 1472   0.778   3.081   0.692  1.3935 -0.7008 -2.6937
  491SOL    HW2 1473   0.896   3.079   0.806 -3.6853 -2.1436 -1.4924
  492SOL     OW 1474   1.349   1.280   2.017  0.2656 -0.5388  0.8247
  492SOL    HW1 1475   1.344   1.338   2.102 -1.6619  2.5427  2.2923
  492SOL    HW2 1476   1.429   1.298   1.952 -0.7871 -0.5490 -3.2368
  493SOL     OW 1477   0.158   2.507   0.572  0.4636  0.1691 -0.0181
  493SOL    HW1 1478   0.223   2.459   0.511 -0.0374  2.4756  1.0790
  493SOL    HW2 1479   0.101   2.575   0.518  0.6503 -1.7887  0.5591
  494SOL     OW 1480   2.474   1.887   2.971 -0.1603 -0.2809  0.0954
  494SOL    HW1 1481   2.399   1.943   2.937  1.8328 -1.7641 -0.0904
  494SOL    HW2 1482   2.442   1.789   2.969 -0.9760  0.3356  1.7709
  495SOL     OW 1483   2.636   1.498   2.872 -0.0468  0.0382 -0.0723
  495SOL    HW1 1484   2.683   1.460   2.789  1.5927 -1.2716 -0.6007
  495SOL    HW2 1485   2.701   1.470   2.946  1.3188  1.0332  1.2922
  496SOL     OW 1486   2.578   3.045   1.528 -0.4066  0.2063  0.1088
  496SOL    HW1 1487   2.542   3.019   1.620 -0.5177  2.2951 -0.8229
  496SOL    HW2 1488   2.511   0.014   1.481  0.5852  2.6417  0.6877
  497SOL     OW 1489   2.585   1.138   0.556 -0.4545  0.4749 -0.3039
  497SOL    HW1 1490   2.495   1.113   0.518  0.3899  0.9526  1.0248
  497SOL    HW2 1491   2.620   1.233   0.541  1.8939  0.2660 -1.0364
  498SOL     OW 1492   2.910   2.198   2.413 -0.0288  0.6876  0.0258
  498SOL    HW1 1493   2.899   2.102   2.446 -1.3323  0.4206 -1.0407
  498SOL    HW2 1494   2.927   2.193   2.317 -0.5137 -1.2188 -0.6454
  499SOL     OW 1495   0.930   2.165   0.436  0.0192  0.1945 -0.2502
  499SOL    HW1 1496   0.971   2.096   0.498  0.5432  1.2813  1.3258
  499SOL    HW2 1497   0.994   2.180   0.359 -0.7718 -4.4060  0.7667
  500SOL     OW 1498   0.867   3.056   2.619 -0.3130  0.3561 -0.1964
  500SOL    HW1 1499   0.969   3.057   2.639  0.5475 -0.4781 -3.9087
  500SOL    HW2 1500   0.812   3.085   2.700  0.1057  0.0888  2.3892
  501SOL     OW 1501   1.430   3.087   1.155  0.1866  0.0725  0.3051
  501SOL    HW1 1502   1.522   3.090   1.199 -0.5327  0.3865 -0.4067
  501SOL    HW2 1503   1.386   0.092   1.147 -1.4960  1.6159 -2.0943
  502SOL     OW 1504   3.061   0.219   2.269  0.0578 -0.0381  0.1193
  502SOL    HW1 1505   0.038   0.296   2.287 -2.3134 -1.6614  2.0751
  502SOL    HW2 1506   3.040   0.211   2.168 -0.5754 -0.1620 -3.1684
  503SOL     OW 1507   2.138   1.906   2.269  0.1789  0.3937  0.0297
  503SOL    HW1 1508   2.084   1.818   2.276  0.2696 -1.5117 -1.6263
  503SOL    HW2 1509   2.087   1.994   2.294  1.2958 -0.0948  0.9349
  504SOL     OW 1510   1.401   0.570   1.885  0.6215 -0.3465  0.2311
  504SOL    HW1 1511   1.326   0.498   1.893 -0.6112  0.3308 -0.1900
  504SOL    HW2 1512   1.473   0.540   1.820 -1.5193  1.4086  0.8644
  505SOL     OW 1513   2.976   0.921   1.462 -0.1679 -0.4694 -0.1718
  505SOL    HW1 1514   2.938   1.007   1.421 -0.8814 -0.1877  2.4640
  505SOL    HW2 1515   3.026   0.865   1.397  0.7908  1.5509  2.1563
  506SOL     OW 1516   0.674   1.135   2.474 -0.2886 -0.0145 -0.0484
  506SOL    HW1 1517   0.597   1.121   2.536  2.7741  1.3419  1.0664
  506SOL    HW2 1518   0.645   1.202   2.403 -0.0564 -1.9633  3.6934
  507SOL     OW 1519   0.486   2.821   2.399  0.1943 -0.0657  0.1844
  507SOL    HW1 1520   0.582   2.858   2.416  2.2924  1.1248 -0.8925
  507SOL    HW2 1521   0.495   2.733   2.346 -0.9292 -1.8186  0.7421
  508SOL     OW 1522   1.399   0.892   1.308 -0.2016 -0.2988 -0.0813
  508SOL    HW1 1523   1.461   0.847   1.373 -1.3366  3.5285 -0.8821
  508SOL    HW2 1524   1.337   0.824   1.265  0.8050 -3.0147  0.6116
  509SOL     OW 1525   0.834   1.897   1.608 -0.2267  0.1380  0.1845
  509SOL    HW1 1526   0.869   1.917   1.701 -0.6372  1.4851  1.1517
  509SOL    HW2 1527   0.909   1.880   1.541 -1.8951 -0.6574 -1.4985
  510SOL     OW 1528   2.471   0.629   2.288 -0.1252  0.2356  0.4269
  510SOL    HW1 1529   2.494   0.564   2.366  2.3440  1.8573  2.2843
  510SOL    HW2 1530   2.471   0.726   2.318  0.2723  0.0301 -1.1914
  511SOL     OW 1531   0.688   1.774   1.277  0.4557 -0.1519  0.1682
  511SOL    HW1 1532   0.746   1.854   1.262  0.2434 -0.0636  1.9369
  511SOL    HW2 1533   0.592   1.796   1.250  1.8766  1.2945  0.8414
  512SOL     OW 1534   2.586   2.084   0.692 -0.0392  0.2550 -0.4630
  512SOL    HW1 1535   2.512   2.033   0.644 -1.1059 -3.1680  0.1861
  512SOL    HW2 1536   2.578   2.184   0.675  0.7121 -1.0082 -2.4985
  513SOL     OW 1537   2.783   1.395   2.688  0.2800  0.0700 -0.0319
  513SOL    HW1 1538   2.758   1.294   2.684  0.0499  3.2100  2.3051
  513SOL    HW2 1539   2.830   1.425   2.606 -0.6168 -1.5414  2.5216
  514SOL     OW 1540   0.333   2.072   2.704  0.8027 -0.6537 -0.1606
  514SOL    HW1 1541   0.266   1.997   2.736  1.9072 -2.3748 -0.2085
  514SOL    HW2 1542   0.406   2.100   2.772  0.5149 -2.2684  0.8713
  515SOL     OW 1543   1.827   1.724   2.127  0.0809 -0.0937 -0.2194
  515SOL    HW1 1544   1.862   1.687   2.040 -2.1836  0.2820  2.7404
  515SOL    HW2 1545   1.896   1.708   2.198 -0.1442 -0.8674  2.6879
  516SOL     OW 1546   2.332   2.302   2.923 -0.1110 -0.6480 -0.4736
  516SOL    HW1 1547   2.263   2.354   2.986 -2.1823  1.2636  2.2551
  516SOL    HW2 1548   2.413   2.267   2.975  1.1871 -1.3352  1.8561
  517SOL     OW 1549   1.308   1.153   0.225  0.1775 -0.0123 -0.6280
  517SOL    HW1 1550   1.377   1.156   0.303 -1.8212  0.9383 -1.1030
  517SOL    HW2 1551   1.259   1.064   0.210  1.0518 -0.7832 -0.0599
  518SOL     OW 1552   2.529   3.025   2.096  0.2760  0.2843 -0.0203
  518SOL    HW1 1553   2.559   0.019   2.054 -1.3415 -1.8644 -0.7222
  518SOL    HW2 1554   2.442   3.042   2.150 -0.4193 -2.2168 -1.4436
  519SOL     OW 1555   1.866   2.221   1.936  0.2298  0.3995  0.4767
  519SOL    HW1 1556   1.801   2.218   1.854  1.7370 -3.5106 -0.0417
  519SOL    HW2 1557   1.958   2.187   1.905  0.6677 -0.0610  0.3139
  520SOL     OW 1558   2.674   3.032   2.718  0.6514 -0.2347  0.1491
  520SOL    HW1 1559   2.603   3.075   2.782 -2.9782 -0.3618 -0.0712
  520SOL    HW2 1560   2.670   2.931   2.735 -1.1418 -0.1119  0.2277
  521SOL     OW 1561   0.337   1.291   2.303  0.0685  0.0390 -0.0565
  521SOL    HW1 1562   0.281   1.347   2.243  0.6868 -1.5344 -0.1499
  521SOL    HW2 1563   0.424   1.337   2.326  1.1387 -1.9690  1.8595
  522SOL     OW 1564   0.864   0.260   1.867  0.0443 -0.6023 -0.1723
  522SOL    HW1 1565   0.931   0.330   1.904  0.4987  1.1459 -1.1202
  522SOL    HW2 1566   0.775   0.299   1.844  1.0612 -0.5021  0.6361
  523SOL     OW 1567   0.407   2.713   0.935 -0.0868 -0.8815  0.4691
  523SOL    HW1 1568   0.364   2.803   0.957 -0.0841 -0.9351  1.8380
  523SOL    HW2 1569   0.402   2.683   0.838 -1.8804 -1.0453 -0.6217
  524SOL     OW 1570   1.458   2.603   0.802  0.1189  0.3461  0.6136
  524SOL    HW1 1571   1.478   2.683   0.858 -0.0092 -0.2154  1.1547
  524SOL    HW2 1572   1.511   2.518   0.832 -1.4642  0.1086 -0.3472
  525SOL     OW 1573   2.199   0.926   1.182 -0.0176  0.2231 -0.0546
  525SOL    HW1 1574   2.242   0.905   1.272  0.6239  1.4458  0.5674
  525SOL    HW2 1575   2.271   0.945   1.112  1.5767 -2.9254 -0.8912
  526SOL     OW 1576   0.865   2.537   0.788 -0.1154  0.4224 -0.4184
  526SOL    HW1 1577   0.832   2.471   0.716 -0.2669  0.5301 -2.9454
  526SOL    HW2 1578   0.905   2.620   0.754 -1.6090 -0.3337  3.5949
  527SOL     OW 1579   2.365   1.973   0.561 -0.1165  0.2963 -0.1763
  527SOL    HW1 1580   2.357   1.891   0.509  0.2886  2.8930  1.1308
  527SOL    HW2 1581   2.285   2.031   0.548 -0.6446 -2.0149 -0.7397
  528SOL     OW 1582   2.249   0.763   0.556  0.2671  0.9726 -0.4130
  528SOL    HW1 1583   2.243   0.661   0.563 -1.9991 -1.0096  1.1954
  528SOL    HW2 1584   2.170   0.801   0.517  2.3847 -0.7226  1.7189
  529SOL     OW 1585   1.200   1.389   2.215 -0.1900  0.2820  0.0281
  529SOL    HW1 1586   1.180   1.314   2.283  2.2161  0.2406  0.5022
  529SOL    HW2 1587   1.164   1.479   2.241  0.9049 -1.6516  0.4705
  530SOL     OW 1588   2.557   0.750   0.082  0.1894  0.5234  0.3437
  530SOL    HW1 1589   2.612   0.689   0.139 -0.7953 -1.0203 -2.6890
  530SOL    HW2 1590   2.545   0.838   0.129  0.0258  0.8356  0.1218
  531SOL     OW 1591   1.172   0.910   0.235 -0.1392 -0.1235  0.5718
  531SOL    HW1 1592   1.111   0.851   0.288 -0.6388 -0.8263 -0.6744
  531SOL    HW2 1593   1.267   0.899   0.270  1.5395  1.4674  0.8423
  532SOL     OW 1594   2.084   0.006   0.780 -0.6885 -0.5558  0.1712
  532SOL    HW1 1595   2.021   0.073   0.732  1.1579  0.2873  1.3642
  532SOL    HW2 1596   2.169   0.054   0.805 -0.1982  0.0210 -2.0630
  533SOL     OW 1597   1.313   0.811   2.112 -0.0772 -0.1957 -0.4375
  533SOL    HW1 1598   1.272   0.904   2.097 -0.9895  0.3850  0.3338
  533SOL    HW2 1599   1.405   0.806   2.070  0.3128  1.6090  0.3983
  534SOL     OW 1600   1.699   2.860   2.789  0.0731  0.5253  0.2303
  534SOL    HW1 1601   1.785   2.910   2.813 -2.7244  1.3269  0.3727
  534SOL    HW2 1602   1.689   2.763   2.818 -3.0301 -0.5848  0.6389
  535SOL     OW 1603   0.411   2.923   0.418  0.3506 -0.2935  0.5655
  535SOL    HW1 1604   0.467   3.005   0.451  0.8759 -0.1029 -0.3270
  535SOL    HW2 1605   0.472   2.846   0.432 -0.3416  1.7406  1.3363
  536SOL     OW 1606   0.772   2.812   0.906 -0.0193  0.1413 -0.1646
  536SOL    HW1 1607   0.711   2.758   0.963 -0.6004  0.0999 -1.7741
  536SOL    HW2 1608   0.853   2.841   0.959 -0.1120 -1.2200 -0.8187
  537SOL     OW 1609   1.771   0.762   0.990  0.3325  0.0820 -0.6768
  537SOL    HW1 1610   1.832   0.702   1.047  1.3216 -1.2824 -1.2286
  537SOL    HW2 1611   1.729   0.841   1.042  1.6334 -2.3396 -0.5512
  538SOL     OW 1612   2.796   2.656   0.160  0.0289 -0.0692  0.6655
  538SOL    HW1 1613   2.801   2.577   0.223  0.5291  3.6905  0.9869
  538SOL    HW2 1614   2.739   2.732   0.201 -0.5946  0.2658  0.5811
  539SOL     OW 1615   2.845   1.739   2.555 -0.0273 -0.2397  0.0711
  539SOL    HW1 1616   2.750   1.771   2.531 -1.0718 -0.9361  1.1395
  539SOL    HW2 1617   2.917   1.811   2.538  0.7549 -1.7409 -1.9857
  540SOL     OW 1618   2.946   2.775   1.606  0.3744 -0.0659 -0.1218
  540SOL    HW1 1619   3.007   2.727   1.538  0.6708 -0.3793 -0.0871
  540SOL    HW2 1620   2.880   2.716   1.659 -0.2859  0.4105 -1.1932
  541SOL     OW 1621   2.512   3.033   1.783 -0.0325 -0.5197  0.5241
  541SOL    HW1 1622   2.571   0.009   1.838  1.2652  0.8462  2.8214
  541SOL    HW2 1623   2.412   3.054   1.788  0.8490 -2.0344 -0.0501
  542SOL     OW 1624   2.939   0.612   2.135 -0.1711  0.0953  0.6441
  542SOL    HW1 1625   3.037   0.589   2.148  0.7862 -0.8696 -0.5374
  542SOL    HW2 1626   2.902   0.568   2.049  0.3169  0.7093  0.6956
  543SOL     OW 1627   0.993   0.536   0.732  0.4802 -0.4690 -0.0244
  543SOL    HW1 1628   0.977   0.636   0.723  0.5414 -1.1411 -1.0911
  543SOL    HW2 1629   1.037   0.509   0.643  3.1009 -1.7657  0.0215
  544SOL     OW 1630   2.575   2.333   0.973 -0.0608 -0.0559  0.1373
  544SOL    HW1 1631   2.650   2.262   0.971  0.9838  0.1849 -0.2979
  544SOL    HW2 1632   2.555   2.367   1.065 -2.6935 -0.7366 -0.2486
  545SOL     OW 1633   0.901   1.719   0.194 -0.6181 -0.1727  0.1359
  545SOL    HW1 1634   0.915   1.767   0.107  2.5887 -2.2930 -0.6787
  545SOL    HW2 1635   0.927   1.621   0.185  1.8438 -0.6883 -0.4293
  546SOL     OW 1636   2.369   0.607   1.831  0.2822  0.0264  0.1737
  546SOL    HW1 1637   2.341   0.584   1.929  0.2883 -0.4831  0.8583
  546SOL    HW2 1638   2.445   0.671   1.819  0.3563 -1.1788 -1.0681
  547SOL     OW 1639   0.297   0.201   2.474 -0.0281 -0.0124  0.6631
  547SOL    HW1 1640   0.226   0.243   2.538  0.8654  1.0298  0.5977
  547SOL    HW2 1641   0.271   0.233   2.379  1.4917  1.5891 -0.8791
  548SOL     OW 1642   2.002   1.689   2.343 -0.1584  0.2273  0.4528
  548SOL    HW1 1643   2.070   1.623   2.375 -1.7313  0.5107  0.0682
  548SOL    HW2 1644   1.950   1.724   2.425  2.9526 -2.1560  0.5790
  549SOL     OW 1645   2.986   0.955   0.794 -0.3984  0.0039 -0.5329
  549SOL    HW1 1646   2.963   0.874   0.850 -0.3280  1.8511  1.1575
  549SOL    HW2 1647   3.064   0.934   0.727 -1.2678 -0.3194  0.0473
  550SOL     OW 1648   1.574   1.423   0.588 -0.4769 -0.2192 -0.3716
  550SOL    HW1 1649   1.509   1.357   0.549  0.9908 -2.9404  2.5704
  550SOL    HW2 1650   1.667   1.394   0.564 -1.5173 -0.8256 -0.8865
  551SOL     OW 1651   1.000   0.142   1.264 -0.4768  0.0224  0.0470
  551SOL    HW1 1652   0.935   0.164   1.185 -1.7382 -0.1775 -1.9898
  551SOL    HW2 1653   1.047   0.056   1.243 -2.9692  2.3776 -0.7728
  552SOL     OW 1654   2.193   2.390   2.056 -0.2811 -0.6013 -0.6136
  552SOL    HW1 1655   2.128   2.466   2.042  0.3710  1.6319  0.7377
  552SOL    HW2 1656   2.209   2.370   2.159  0.3015  3.1285  0.2750
  553SOL     OW 1657   0.038   0.026   0.172 -0.3413 -0.0405 -0.0917
  553SOL    HW1 1658   0.097   0.107   0.150  1.5971  1.5532  0.2938
  553SOL    HW2 1659   0.013   3.069   0.084  0.1768  0.9629 -2.5083
  554SOL     OW 1660   1.336   2.728   1.529  0.3098  0.1762  0.2779
  554SOL    HW1 1661   1.319   2.630   1.519 -1.7165  1.2444  1.4147
  554SOL    HW2 1662   1.251   2.785   1.514  1.1566 -1.4745  0.8738
  555SOL     OW 1663   2.208   2.774   1.738  0.0210 -0.2559 -0.2147
  555SOL    HW1 1664   2.137   2.698   1.735  0.3128 -1.7091  1.0310
  555SOL    HW2 1665   2.238   2.788   1.834 -2.4125  0.1406  1.2378
  556SOL     OW 1666   0.991   2.838   2.928 -0.1498 -0.2586 -0.2972
  556SOL    HW1 1667   1.018   2.787   2.841  0.4932 -1.1017 -0.1840
  556SOL    HW2 1668   0.892   2.831   2.939  3.6067  1.9620 -0.8147
  557SOL     OW 1669   0.250   2.067   2.173 -0.7446 -0.2588 -0.2400
  557SOL    HW1 1670   0.215   2.002   2.106 -0.8251 -0.5026  0.8447
  557SOL    HW2 1671   0.303   2.135   2.114 -0.1769  1.8278  1.4361
  558SOL     OW 1672   2.477   1.145   2.629 -0.0318  0.0087 -0.2239
  558SOL    HW1 1673   2.517   1.148   2.723 -0.6128  0.0671  0.7345
  558SOL    HW2 1674   2.531   1.093   2.561  0.2144 -2.0148  0.5165
  559SOL     OW 1675   2.264   2.324   2.315 -0.1870  0.4666 -0.5552
  559SOL    HW1 1676   2.363   2.313   2.303 -0.4522  0.1471 -2.5442
  559SOL    HW2 1677   2.241   2.297   2.410  0.5371  0.7298  1.1912
  560SOL     OW 1678   0.181   0.405   2.302 -0.5698  0.1416  0.1282
  560SOL    HW1 1679   0.170   0.481   2.235 -2.2807  1.7666  0.4099
  560SOL    HW2 1680   0.183   0.440   2.397 -2.0015  0.7221  0.0712
  561SOL     OW 1681   0.683   0.530   0.453  0.0585  0.3743 -0.1251
  561SOL    HW1 1682   0.777   0.485   0.459  0.8381 -2.7255  0.6102
  561SOL    HW2 1683   0.613   0.458   0.431  2.4672  2.3110 -1.9454
  562SOL     OW 1684   0.770   1.451   1.676 -0.4657 -0.3675  0.0192
  562SOL    HW1 1685   0.731   1.523   1.613 -1.2687  1.6442 -2.1930
  562SOL    HW2 1686   0.747   1.362   1.633 -0.7644 -2.7102  0.1184
  563SOL     OW 1687   1.656   2.607   0.112  0.0855 -0.0966 -1.0932
  563SOL    HW1 1688   1.562   2.574   0.088  1.0250  0.6491 -1.8111
  563SOL    HW2 1689   1.653   2.709   0.118  1.2836  0.0172 -0.5453
  564SOL     OW 1690   0.211   2.065   0.677  0.3531  0.2277 -0.6803
  564SOL    HW1 1691   0.299   2.068   0.625  1.1480  0.8420 -0.0330
  564SOL    HW2 1692   0.226   2.076   0.779 -0.3901  1.7797  0.6549
  565SOL     OW 1693   0.266   2.386   2.441  0.0311 -0.3798  0.0901
  565SOL    HW1 1694   0.232   2.451   2.373  0.0625  0.5626  1.6874
  565SOL    HW2 1695   0.194   2.323   2.477  1.3183 -1.7731 -1.2774
  566SOL     OW 1696   1.450   2.499   2.376  0.4751  0.0252 -0.6524
  566SOL    HW1 1697   1.533   2.522   2.431 -2.7057  0.8121 -0.3467
  566SOL    HW2 1698   1.462   2.412   2.327 -2.5431 -0.8975 -0.2085
  567SOL     OW 1699   1.820   2.108   1.093 -0.1611  0.1773  0.0211
  567SOL    HW1 1700   1.732   2.058   1.099  3.8313  0.2739 -1.6082
  567SOL    HW2 1701   1.879   2.060   1.022  1.0698 -0.8036 -1.6010
  568SOL     OW 1702   2.103   0.573   0.137 -0.2972 -0.5805  0.0608
  568SOL    HW1 1703   2.107   0.476   0.157 -3.0241  2.4161 -1.2434
  568SOL    HW2 1704   2.013   0.599   0.112  3.3147 -0.9607  0.9187
  569SOL     OW 1705   2.744   1.407   2.256 -0.0552 -0.5171  0.1482
  569SOL    HW1 1706   2.823   1.438   2.310 -1.3918  0.4406 -1.5664
  569SOL    HW2 1707   2.662   1.405   2.322 -0.6862 -0.3035 -1.1152
  570SOL     OW 1708   2.763   2.648   1.762 -0.4606 -0.1889  0.0976
  570SOL    HW1 1709   2.673   2.694   1.739  1.0755  2.1619 -0.5971
  570SOL    HW2 1710   2.778   2.565   1.707 -0.6578  2.9614  4.1743
  571SOL     OW 1711   0.184   0.448   1.748 -0.2860  0.6107  0.2154
  571SOL    HW1 1712   0.192   0.377   1.674  1.4482 -3.2292  1.2963
  571SOL    HW2 1713   0.276   0.446   1.795  1.5868  0.0802 -2.5594
  572SOL     OW 1714   3.011   2.179   0.821 -0.6368  0.4309 -0.0793
  572SOL    HW1 1715   3.062   2.260   0.792 -1.8322 -1.3932 -0.8246
  572SOL    HW2 1716   3.006   2.184   0.927  0.3351 -4.0445  2.2765
  573SOL     OW 1717   0.858   0.790   0.066 -0.1532  0.0432  0.1239
  573SOL    HW1 1718   0.858   0.889   0.041  1.2546 -0.6159  0.7452
  573SOL    HW2 1719   0.762   0.746   0.073  0.1757  1.1879 -0.7927
  574SOL     OW 1720   2.589   2.634   3.045 -0.9622  1.2318 -0.2097
  574SOL    HW1 1721   2.601   2.679   2.954 -1.5977  1.5896  0.7686
  574SOL    HW2 1722   2.666   2.654   0.020  0.1576  1.9183  0.7076
  575SOL     OW 1723   1.002   1.864   1.413 -0.0390 -0.1092  0.0471
  575SOL    HW1 1724   0.999   1.829   1.319 -1.7612  2.8442  2.5785
  575SOL    HW2 1725   1.073   1.937   1.427  0.9785  0.3650  2.1339
  576SOL     OW 1726   2.789   2.916   1.415 -0.6232  0.1788 -0.3343
  576SOL    HW1 1727   2.699   2.951   1.445 -0.1333 -1.8704  1.0781
  576SOL    HW2 1728   2.847   2.891   1.497 -0.7934 -0.7197  1.2006
  577SOL     OW 1729   2.319   1.374   1.511  0.1273  0.2316 -0.0338
  577SOL    HW1 1730   2.272   1.344   1.598 -0.1547 -1.9710 -2.0357
  577SOL    HW2 1731   2.350   1.471   1.504 -1.6551  1.2986 -0.6681
  578SOL     OW 1732   1.219   3.063   2.980  0.1288 -0.1831 -0.3397
  578SOL    HW1 1733   1.301   3.004   2.958  0.1483  0.9821  0.3553
  578SOL    HW2 1734   1.237   0.068   2.955 -0.4035 -0.0391 -0.3695
  579SOL     OW 1735   2.582   1.859   2.206  0.9778  0.1628  0.4807
  579SOL    HW1 1736   2.560   1.806   2.124 -0.8216 -0.5692 -0.4749
  579SOL    HW2 1737   2.678   1.891   2.201 -1.9771 -0.3096  2.3963
  580SOL     OW 1738   1.576   0.769   1.502 -0.2082 -0.6002 -0.2831
  580SOL    HW1 1739   1.521   0.781   1.590 -3.1584  0.3296 -0.4684
  580SOL    HW2 1740   1.668   0.810   1.509 -2.7265  2.3312 -1.0584
  581SOL     OW 1741   0.688   1.663   1.539  0.2913  0.0721 -0.5067
  581SOL    HW1 1742   0.688   1.676   1.441 -0.8714 -0.0598  2.5957
  581SOL    HW2 1743   0.734   1.741   1.584  0.3511 -0.8038  1.9373
  582SOL     OW 1744   2.763   2.876   2.189 -0.5643  0.0944  0.0258
  582SOL    HW1 1745   2.854   2.920   2.207 -0.7776  0.0279  1.0140
  582SOL    HW2 1746   2.699   2.941   2.150  1.5057 -1.0917  0.7424
  583SOL     OW 1747   2.049   1.252   1.420  0.0871 -0.3459  0.4004
  583SOL    HW1 1748   1.987   1.278   1.337 -4.2985  0.1905 -4.1346
  583SOL    HW2 1749   2.143   1.291   1.412 -1.0308  2.0433 -2.6295
  584SOL     OW 1750   1.158   1.973   2.839  0.3094 -0.2341 -0.2273
  584SOL    HW1 1751   1.240   1.930   2.885  0.3696  1.5634 -0.5241
  584SOL    HW2 1752   1.183   2.022   2.752  0.4079 -0.3584 -0.4355
  585SOL     OW 1753   0.314   2.671   0.248  0.6342 -0.2854  0.1342
  585SOL    HW1 1754   0.238   2.740   0.255 -3.0217  3.1063 -4.6611
  585SOL    HW2 1755   0.277   2.575   0.232  1.8917  0.5396  0.3637
  586SOL     OW 1756   1.729   2.373   2.707  0.0374 -0.3610 -0.1096
  586SOL    HW1 1757   1.646   2.313   2.714 -1.4009 -1.1548 -1.2211
  586SOL    HW2 1758   1.815   2.325   2.722  0.6636  2.6265 -0.9288
  587SOL     OW 1759   2.620   1.833   0.375  0.2903  0.4682 -0.1535
  587SOL    HW1 1760   2.617   1.932   0.384  1.0082 -2.8292 -0.4632
  587SOL    HW2 1761   2.542   1.803   0.319 -2.8378  1.1496 -0.7293
  588SOL     OW 1762   2.022   0.260   1.095  0.1914 -0.1306 -0.0877
  588SOL    HW1 1763   1.924   0.245   1.067  1.4821  2.1644 -0.5001
  588SOL    HW2 1764   2.070   0.332   1.039  2.3005  1.4931 -0.4701
  589SOL     OW 1765   0.928   0.795   0.452  0.1872  0.3533  0.5471
  589SOL    HW1 1766   0.841   0.830   0.493 -0.2249 -1.0032 -0.9135
  589SOL    HW2 1767   0.924   0.722   0.377  0.7126 -1.8375  0.8577
  590SOL     OW 1768   2.493   2.136   0.002  0.1845  0.1572 -0.8056
  590SOL    HW1 1769   2.575   2.193   3.066 -0.3040 -0.5254  1.9835
  590SOL    HW2 1770   2.496   2.036   3.054  0.6374 -1.4644 -1.8138
  591SOL     OW 1771   0.103   2.648   1.474  0.5002  0.1666  0.0625
  591SOL    HW1 1772   0.153   2.693   1.394  2.4398 -0.3902 -1.2539
  591SOL    HW2 1773   0.166   2.611   1.543 -1.2181  2.0229 -0.5398
  592SOL     OW 1774   0.781   0.973   1.367 -0.4414  0.1921  0.4342
  592SOL    HW1 1775   0.714   1.022   1.419  1.5451  1.4355 -3.0661
  592SOL    HW2 1776   0.875   0.996   1.405  0.6459 -0.7943  1.2019
  593SOL     OW 1777   0.852   1.594   1.148 -0.4059  0.2448 -0.0650
  593SOL    HW1 1778   0.939   1.644   1.147  0.4510  0.5408  0.1788
  593SOL    HW2 1779   0.792   1.642   1.210 -0.0474 -0.8144  0.1807
  594SOL     OW 1780   0.529   1.875   2.599 -0.5314 -0.0700 -0.0461
  594SOL    HW1 1781   0.545   1.863   2.503 -2.1150  1.3305  0.6896
  594SOL    HW2 1782   0.479   1.964   2.629  0.3094  2.6220  3.9609
  595SOL     OW 1783   1.241   0.224   1.127  0.4468  0.0571 -0.2065
  595SOL    HW1 1784   1.224   0.290   1.049 -0.9233  3.0380 -1.0711
  595SOL    HW2 1785   1.155   0.185   1.161  1.9897 -1.0676 -2.5304
  596SOL     OW 1786   0.224   1.359   0.442  0.3632  0.2397 -0.3458
  596SOL    HW1 1787   0.160   1.325   0.514 -1.5704 -0.8483  1.9965
  596SOL    HW2 1788   0.298   1.296   0.421 -1.6292  1.6669  0.2494
  597SOL     OW 1789   0.228   2.273   2.926  0.2084  0.5538 -0.7977
  597SOL    HW1 1790   0.138   2.233   2.894 -1.7133  1.0190 -0.5280
  597SOL    HW2 1791   0.274   2.220   3.000  0.1140  0.0965 -1.6602
  598SOL     OW 1792   2.262   1.917   1.996  0.2700 -0.1945 -0.2189
  598SOL    HW1 1793   2.212   1.885   2.080  2.5361  1.1488 -0.2579
  598SOL    HW2 1794   2.345   1.865   1.972  1.7922  1.7178  0.8871
  599SOL     OW 1795   1.136   0.517   0.488  0.0752 -0.5076 -0.2696
  599SOL    HW1 1796   1.120   0.599   0.425 -1.1071  0.8273 -0.9206
  599SOL    HW2 1797   1.240   0.512   0.499  3.0145 -1.8031 -0.3021
  600SOL     OW 1798   0.512   2.663   0.462 -0.1049 -0.3460 -0.4714
  600SOL    HW1 1799   0.445   2.662   0.385 -1.8957 -0.6981 -0.9162
  600SOL    HW2 1800   0.595   2.618   0.438 -4.3301  3.4558  1.0801
  601SOL     OW 1801   0.470   0.951   1.161  0.1593  0.0266  0.1360
  601SOL    HW1 1802   0.565   0.961   1.145 -2.7452  1.9970  0.1172
  601SOL    HW2 1803   0.429   0.866   1.115  0.8517 -1.5891 -2.4129
  602SOL     OW 1804   0.603   2.725   1.134 -0.7995 -0.1498  0.1804
  602SOL    HW1 1805   0.575   2.681   1.223  0.8733  0.0839 -1.9495
  602SOL    HW2 1806   0.524   2.741   1.076  0.3162 -0.2458  0.2419
  603SOL     OW 1807   1.047   2.590   2.213  0.3984  0.5247 -0.1400
  603SOL    HW1 1808   1.011   2.658   2.140 -0.9297  0.9305 -3.7290
  603SOL    HW2 1809   1.102   2.520   2.163  2.1104  1.5055  0.6138
  604SOL     OW 1810   0.741   2.626   2.540 -0.3316 -0.0300 -0.0789
  604SOL    HW1 1811   0.675   2.618   2.620  0.0520 -1.3285  0.6903
  604SOL    HW2 1812   0.746   2.727   2.528  0.7659 -1.0670  1.2959
  605SOL     OW 1813   1.568   0.746   2.036  0.2529  0.5005 -0.1616
  605SOL    HW1 1814   1.575   0.662   1.980  0.4472 -1.6364  1.8240
  605SOL    HW2 1815   1.657   0.757   2.091 -1.1833 -1.2168 -2.6096
  606SOL     OW 1816   2.003   0.168   2.672  1.2772  0.4688 -0.2661
  606SOL    HW1 1817   2.012   0.261   2.710  0.1551 -2.2658  3.2950
  606SOL    HW2 1818   2.075   0.156   2.604 -0.3472  0.7229  0.7024
  607SOL     OW 1819   0.784   0.604   1.123 -0.2774  0.5912  0.1382
  607SOL    HW1 1820   0.751   0.673   1.056 -0.3432  0.9967 -1.1383
  607SOL    HW2 1821   0.752   0.622   1.216 -0.4301  0.9365 -0.6872
  608SOL     OW 1822   2.978   2.195   2.164 -0.0580  0.0151  0.1169
  608SOL    HW1 1823   2.975   2.296   2.158 -1.6776 -0.9112  1.2085
  608SOL    HW2 1824   2.965   2.150   2.072  1.4467 -1.1329  1.4302
  609SOL     OW 1825   1.546   0.607   3.039  0.1803 -0.4168  0.3578
  609SOL    HW1 1826   1.545   0.555   0.033 -2.1286  0.2226  0.3305
  609SOL    HW2 1827   1.557   0.712   3.052  0.0908  0.9319 -2.4001
  610SOL     OW 1828   0.833   2.960   1.400 -0.1201  0.3268  0.2977
  610SOL    HW1 1829   0.779   2.970   1.313 -1.1043  0.7220 -1.5996
  610SOL    HW2 1830   0.893   3.041   1.423 -1.9912  3.2423  3.3805
  611SOL     OW 1831   1.499   0.705   0.372 -0.1193  0.6710  0.7164
  611SOL    HW1 1832   1.585   0.696   0.427 -0.5555 -0.9727 -0.7681
  611SOL    HW2 1833   1.481   0.626   0.314 -1.5383  2.2634  1.8245
  612SOL     OW 1834   1.805   0.513   2.874  0.1636  0.0009 -0.5187
  612SOL    HW1 1835   1.763   0.487   2.786  1.4139  1.8782  1.4439
  612SOL    HW2 1836   1.729   0.546   2.935 -0.7715  1.8571  1.0996
  613SOL     OW 1837   2.414   0.824   0.764  0.4976  0.6815  0.1413
  613SOL    HW1 1838   2.356   0.801   0.687 -0.5082 -1.2999 -0.0433
  613SOL    HW2 1839   2.504   0.774   0.769 -0.5236 -2.4487  1.3079
  614SOL     OW 1840   2.547   0.242   2.238  0.3830 -0.3870  1.1410
  614SOL    HW1 1841   2.606   0.265   2.158  0.0159  2.0247  1.2312
  614SOL    HW2 1842   2.605   0.184   2.299  0.9120 -1.3661 -0.3523
  615SOL     OW 1843   0.716   2.044   1.164 -0.0864 -0.4102  0.3691
  615SOL    HW1 1844   0.635   2.070   1.111  2.0526  1.1105  0.9526
  615SOL    HW2 1845   0.711   2.074   1.260  0.4722  1.3791 -2.5479
  616SOL     OW 1846   1.561   1.299   2.514  0.5380 -0.4995 -0.0793
  616SOL    HW1 1847   1.538   1.371   2.441 -0.9788  2.7101  1.1788
  616SOL    HW2 1848   1.659   1.277   2.506 -1.6105 -0.0240 -0.1414
  617SOL     OW 1849   1.596   2.894   0.121  0.1749  0.2877 -0.5291
  617SOL    HW1 1850   1.505   2.878   0.161 -0.1138  0.9226 -1.8647
  617SOL    HW2 1851   1.657   2.928   0.195 -1.9283 -1.4135 -1.6492
  618SOL     OW 1852   1.394   1.771   2.297 -0.5654  0.1532 -0.1483
  618SOL    HW1 1853   1.452   1.742   2.218  0.9259 -0.1066  0.1682
  618SOL    HW2 1854   1.385   1.693   2.364 -1.4039 -0.0890  0.7823
  619SOL     OW 1855   2.569   1.331   0.804  0.4642 -0.0471 -0.0960
  619SOL    HW1 1856   2.617   1.426   0.791  2.8383  3.7512  1.5437
  619SOL    HW2 1857   2.632   1.255   0.777  3.3034  1.7668 -3.0547
  620SOL     OW 1858   2.053   2.765   2.687  0.2387  0.1563 -0.0233
  620SOL    HW1 1859   2.064   2.696   2.613  0.6842  0.7615  1.9538
  620SOL    HW2 1860   2.025   2.853   2.645  0.4569 -0.6580  0.2805
  621SOL     OW 1861   3.039   1.600   0.346  0.1933 -0.3265  0.1828
  621SOL    HW1 1862   0.019   1.541   0.311  2.6860  0.2500  0.5621
  621SOL    HW2 1863   3.063   1.702   0.335 -0.4425  2.4975 -1.0479
  622SOL     OW 1864   1.177   2.278   2.407  0.1722 -0.0672 -0.0837
  622SOL    HW1 1865   1.080   2.237   2.418 -0.2990 -0.1528  0.8059
  622SOL    HW2 1866   1.230   2.241   2.326  0.8345  0.4165  0.3982
  623SOL     OW 1867   0.444   2.417   2.806 -0.7178 -0.3402  0.2612
  623SOL    HW1 1868   0.501   2.387   2.725  0.2322 -1.3655 -2.8764
  623SOL    HW2 1869   0.369   2.352   2.811  2.9260  2.2320 -2.1971
  624SOL     OW 1870   0.581   2.639   2.749 -0.2915  0.4304  0.0597
  624SOL    HW1 1871   0.517   2.562   2.772  0.1316 -2.0455  3.1226
  624SOL    HW2 1872   0.636   2.665   2.832 -1.8603 -0.3188  1.9642
  625SOL     OW 1873   0.944   2.145   2.671 -0.3984 -0.0534 -0.4771
  625SOL    HW1 1874   0.922   2.242   2.652  0.3666  2.1799 -0.4134
  625SOL    HW2 1875   0.879   2.116   2.745 -1.2909 -1.1511  0.5889
  626SOL     OW 1876   3.021   0.333   0.095 -0.5572  0.1956 -0.2359
  626SOL    HW1 1877   2.989   0.278   0.178 -1.2267  0.5795 -0.0987
  626SOL    HW2 1878   3.007   0.282   0.008  2.0763  0.3965 -0.9024
  627SOL     OW 1879   1.940   1.703   3.018  0.1651  0.0246 -0.0644
  627SOL    HW1 1880   1.905   1.688   2.919  0.3688  0.7434 -2.2841
  627SOL    HW2 1881   1.958   1.617   3.062  0.8071  1.5802  2.4885
  628SOL     OW 1882   1.247   1.345   2.606  0.4482  0.2073  0.2753
  628SOL    HW1 1883   1.311   1.307   2.681  1.0141  1.7533  1.5501
  628SOL    HW2 1884   1.287   1.418   2.548  0.1693 -3.4386 -0.4646
  629SOL     OW 1885   0.564   3.075   2.029 -0.3365 -0.2579  0.0773
  629SOL    HW1 1886   0.498   3.029   1.965 -1.7737 -1.4978  0.8704
  629SOL    HW2 1887   0.548   0.081   2.030 -3.8074 -1.4740 -0.0624
  630SOL     OW 1888   2.288   0.962   1.735  0.0673 -0.0879 -0.3186
  630SOL    HW1 1889   2.316   1.039   1.805 -1.6836  0.8016  1.1894
  630SOL    HW2 1890   2.229   0.892   1.777  1.9999  2.0287 -0.0769
  631SOL     OW 1891   1.702   0.103   0.807  0.6602  0.1133 -0.5655
  631SOL    HW1 1892   1.707   0.062   0.900  2.1205  1.1665  1.4690
  631SOL    HW2 1893   1.604   0.093   0.778 -0.7521 -0.6413 -0.3284
  632SOL     OW 1894   2.946   0.772   1.714  0.1572 -0.4011  0.0353
  632SOL    HW1 1895   2.955   0.832   1.631 -2.7585  0.2123 -1.1752
  632SOL    HW2 1896   2.921   0.677   1.682  0.7260 -1.5188 -0.8263
  633SOL     OW 1897   0.992   0.418   0.101  0.0304 -0.2161  0.0129
  633SOL    HW1 1898   0.922   0.355   0.138 -0.6836  0.3459  0.4734
  633SOL    HW2 1899   0.965   0.453   0.010 -1.0666 -0.3961  0.0589
  634SOL     OW 1900   0.757   2.554   3.032  0.6330 -0.5481 -0.5684
  634SOL    HW1 1901   0.751   2.649   3.000 -1.4260  1.2886  0.4434
  634SOL    HW2 1902   0.839   2.512   2.988  2.0475  0.5120 -1.9422
  635SOL     OW 1903   0.045   1.011   1.063  0.6845  0.2638  0.6658
  635SOL    HW1 1904   3.034   1.033   1.066 -3.2997  1.1485 -1.4613
  635SOL    HW2 1905   0.074   0.986   0.968  0.0190 -1.4275  0.2575
  636SOL     OW 1906   0.265   1.499   0.175 -0.2460  0.2360 -0.4154
  636SOL    HW1 1907   0.368   1.501   0.173  2.7962  1.2846 -1.5855
  636SOL    HW2 1908   0.233   1.401   0.173 -1.8264 -1.4032 -0.8272
  637SOL     OW 1909   0.006   2.682   0.445 -0.2361 -0.2262 -0.1166
  637SOL    HW1 1910   0.046   2.746   0.380  0.2083 -1.7094  0.7070
  637SOL    HW2 1911   3.041   2.733   0.517 -1.6303 -0.5094 -0.6312
  638SOL     OW 1912   2.899   2.279   0.573  0.2250  0.2661  0.3610
  638SOL    HW1 1913   2.919   2.210   0.645  0.9363  0.1906 -2.4674
  638SOL    HW2 1914   2.820   2.336   0.598  1.7669 -2.6691  1.3759
  639SOL     OW 1915   1.450   0.868   3.062  0.4078  0.6549 -0.2731
  639SOL    HW1 1916   1.364   0.826   0.001  2.0843  1.3259  0.6487
  639SOL    HW2 1917   1.499   0.909   0.053 -3.3146  1.0984  1.8837
  640SOL     OW 1918   1.720   2.263   1.680 -0.4708  0.2994  0.2151
  640SOL    HW1 1919   1.790   2.267   1.600 -0.3635 -0.4831  1.0671
  640SOL    HW2 1920   1.622   2.241   1.653 -2.1564 -1.5992  0.9452
  641SOL     OW 1921   0.125   3.061   0.786 -0.2330  0.0205  0.6719
  641SOL    HW1 1922   0.096   0.023   0.696 -1.5099  3.5256 -3.8096
  641SOL    HW2 1923   0.053   3.076   0.854 -0.4232  1.0144 -0.4811
  642SOL     OW 1924   1.386   0.799   1.717 -0.0159  0.1173  0.1228
  642SOL    HW1 1925   1.400   0.739   1.803  1.4285 -0.5206  1.2358
  642SOL    HW2 1926   1.362   0.893   1.745  0.2120 -0.8271 -1.6681
  643SOL     OW 1927   0.885   2.391   2.641 -0.3433  0.0500  0.1765
  643SOL    HW1 1928   0.952   2.426   2.709  1.7274 -1.6286 -0.6833
  643SOL    HW2 1929   0.866   2.460   2.566 -0.5429  4.4894 -0.6671
  644SOL     OW 1930   1.271   2.354   0.068  0.6358  0.2503 -0.0886
  644SOL    HW1 1931   1.290   2.450   0.041  1.1090  0.5409 -1.0039
  644SOL    HW2 1932   1.336   2.286   0.028 -0.7368  0.7493 -0.4404
  645SOL     OW 1933   1.585   1.357   1.918  0.1894 -0.1600  0.2491
  645SOL    HW1 1934   1.679   1.358   1.959 -1.2791 -5.3491 -0.0800
  645SOL    HW2 1935   1.590   1.330   1.820 -1.6859 -0.4054 -0.1546
  646SOL     OW 1936   0.645   0.215   0.310 -0.0701  0.1083  0.2792
  646SOL    HW1 1937   0.559   0.271   0.314 -0.1976 -0.5641 -0.3896
  646SOL    HW2 1938   0.640   0.148   0.232  0.6764 -1.6510  0.3747
  647SOL     OW 1939   0.995   0.149   0.567 -0.0840 -0.0824 -0.4736
  647SOL    HW1 1940   0.945   0.087   0.505  0.3645  1.5579 -0.3536
  647SOL    HW2 1941   0.954   0.148   0.665  1.0890  1.0552  0.8551
  648SOL     OW 1942   2.211   2.719   1.278  0.2914 -0.2730 -0.0667
  648SOL    HW1 1943   2.240   2.800   1.217 -1.9245  1.3340 -0.5343
  648SOL    HW2 1944   2.207   2.632   1.224  0.8888  2.0175 -1.2864
  649SOL     OW 1945   0.752   2.004   2.962  0.4206  0.2526 -0.5345
  649SOL    HW1 1946   0.745   1.910   2.994 -1.2286  1.0567 -2.5862
  649SOL    HW2 1947   0.806   2.058   3.036  0.9997  0.3777 -3.5004
  650SOL     OW 1948   2.131   1.750   1.757  0.3565 -0.5844  1.0068
  650SOL    HW1 1949   2.166   1.810   1.829  0.4358  2.2852 -0.7750
  650SOL    HW2 1950   2.138   1.789   1.663  0.9654  0.5818 -0.9017
  651SOL     OW 1951   3.071   2.922   2.518 -0.4979  0.0970  0.3082
  651SOL    HW1 1952   0.064   2.977   2.517 -1.2196 -0.6688  3.4175
  651SOL    HW2 1953   2.997   2.964   2.565 -1.7712  0.1118 -1.4005
  652SOL     OW 1954   2.828   1.845   0.611 -0.1097 -0.0122 -1.2316
  652SOL    HW1 1955   2.772   1.905   0.672 -0.6619 -1.3813 -0.6062
  652SOL    HW2 1956   2.775   1.758   0.587 -1.1738 -0.2853 -0.5839
  653SOL     OW 1957   2.683   0.583   1.370 -0.9265  0.1164  0.6974
  653SOL    HW1 1958   2.658   0.675   1.407  0.7803 -0.3049  3.0485
  653SOL    HW2 1959   2.788   0.580   1.360  2.6734 -1.1848 -1.9913
  654SOL     OW 1960   0.868   0.204   0.191 -0.0820 -0.3099 -0.3383
  654SOL    HW1 1961   0.858   0.133   0.118 -0.1194 -1.6054  0.4076
  654SOL    HW2 1962   0.778   0.231   0.234  1.7402 -1.6898  2.1367
  655SOL     OW 1963   0.684   2.983   1.181  0.0011  0.4353 -0.5896
  655SOL    HW1 1964   0.664   3.029   1.093 -3.3814  0.0235  1.3731
  655SOL    HW2 1965   0.683   2.879   1.166  3.3340 -1.4046 -2.8447
  656SOL     OW 1966   0.127   2.764   2.302  0.9325 -0.7029 -0.3210
  656SOL    HW1 1967   0.185   2.840   2.338  0.3152  0.5040 -0.6044
  656SOL    HW2 1968   0.065   2.734   2.375 -0.6371 -1.6510  0.7096
  657SOL     OW 1969   2.322   0.665   3.056  0.2177  0.0136  0.0423
  657SOL    HW1 1970   2.254   0.634   0.039 -3.0557 -0.4942  0.8113
  657SOL    HW2 1971   2.409   0.684   0.012 -1.1886 -0.1242 -0.3743
  658SOL     OW 1972   2.071   1.671   1.048  0.5018 -0.3810 -0.1354
  658SOL    HW1 1973   2.150   1.609   1.063 -0.2716 -0.1254 -3.0832
  658SOL    HW2 1974   2.094   1.767   1.056  0.9285 -4.3472 -0.0096
  659SOL     OW 1975   2.614   2.227   2.743  0.1134 -0.3120 -0.2015
  659SOL    HW1 1976   2.614   2.274   2.833  1.0241 -2.3348  0.8093
  659SOL    HW2 1977   2.649   2.286   2.669  0.5180 -2.0618  1.2556
  660SOL     OW 1978   1.144   0.182   0.206 -0.0124 -0.0862  0.2509
  660SOL    HW1 1979   1.191   0.215   0.123  0.0842 -1.3883 -2.3195
  660SOL    HW2 1980   1.044   0.202   0.202  1.6489 -3.4986 -0.5866
  661SOL     OW 1981   2.399   0.039   0.397 -0.0616 -0.5051  0.6640
  661SOL    HW1 1982   2.303   0.059   0.419 -0.8138  0.8937 -0.5857
  661SOL    HW2 1983   2.419   0.037   0.297 -0.0967  0.8886  1.3993
  662SOL     OW 1984   0.587   0.271   1.225 -0.4431 -0.2028  0.1047
  662SOL    HW1 1985   0.665   0.227   1.180  0.0166 -2.6638  1.2761
  662SOL    HW2 1986   0.531   0.193   1.261  2.0287  1.2758 -0.1927
  663SOL     OW 1987   1.514   2.812   2.344 -0.1101 -0.6159  0.1126
  663SOL    HW1 1988   1.428   2.762   2.341  1.1528 -1.6917 -2.6179
  663SOL    HW2 1989   1.541   2.851   2.439  1.7287  3.0521  2.8057
  664SOL     OW 1990   0.864   2.300   1.471 -0.3293  0.0858  0.0586
  664SOL    HW1 1991   0.802   2.367   1.514  0.3985  2.5406 -2.0291
  664SOL    HW2 1992   0.881   2.334   1.375  0.7287  0.9237 -0.5648
  665SOL     OW 1993   0.881   2.334   1.927 -0.2463  0.5492 -0.2810
  665SOL    HW1 1994   0.823   2.263   1.891 -1.7402  2.5396  1.7721
  665SOL    HW2 1995   0.954   2.285   1.982  0.4492 -2.0312  2.8106
  666SOL     OW 1996   0.081   2.731   2.701 -0.1509  0.7627  0.0278
  666SOL    HW1 1997   0.036   2.801   2.639  1.7177  1.1898  0.4429
  666SOL    HW2 1998   0.144   2.677   2.642 -2.0630 -0.5105 -1.6493
  667SOL     OW 1999   1.490   1.580   1.460 -0.2286 -0.1560 -0.1806
  667SOL    HW1 2000   1.395   1.585   1.424  1.3835 -1.5049 -2.1818
  667SOL    HW2 2001   1.560   1.581   1.386 -2.8164 -0.5942  0.3345
  668SOL     OW 2002   1.235   0.348   1.916 -0.6230  0.3664 -0.1050
  668SOL    HW1 2003   1.224   0.291   1.833  0.5917 -1.4647  1.5685
  668SOL    HW2 2004   1.146   0.389   1.954 -0.7099  0.9803  2.4363
  669SOL     OW 2005   2.594   2.414   1.247 -0.3461 -0.7991  0.1216
  669SOL    HW1 2006   2.503   2.418   1.298 -0.9790  0.8189  0.5949
  669SOL    HW2 2007   2.650   2.497   1.257  0.8244  0.6965 -1.4488
  670SOL     OW 2008   1.578   2.185   0.111  0.4186 -0.4824 -0.0489
  670SOL    HW1 2009   1.528   2.104   0.151 -0.4689 -1.7997 -1.0623
  670SOL    HW2 2010   1.632   2.235   0.182 -1.1745 -1.1423  0.6300
  671SOL     OW 2011   1.230   1.173   0.614 -0.6976 -0.8471  0.0718
  671SOL    HW1 2012   1.288   1.181   0.702 -0.1794 -0.2354  1.3812
  671SOL    HW2 2013   1.153   1.107   0.623 -2.1465  0.6894 -1.4643
  672SOL     OW 2014   3.010   1.090   2.768  0.0477 -0.0179  0.0009
  672SOL    HW1 2015   3.011   1.188   2.793 -0.3549  0.4442 -0.8601
  672SOL    HW2 2016   0.011   1.050   2.763 -0.2195  2.0105 -2.0926
  673SOL     OW 2017   3.065   1.984   1.372 -0.3682  0.4098 -0.3012
  673SOL    HW1 2018   2.976   1.969   1.424 -2.7665 -2.2618 -0.8066
  673SOL    HW2 2019   0.057   1.969   1.439  3.5152  1.7519  2.4327
  674SOL     OW 2020   0.518   2.595   2.281 -0.1092  0.5246  0.0460
  674SOL    HW1 2021   0.454   2.572   2.207 -1.9101  0.4013 -0.5676
  674SOL    HW2 2022   0.586   2.524   2.309 -0.2723  1.3590 -2.4513
  675SOL     OW 2023   0.752   1.042   1.677  0.5993  0.0188  0.2238
  675SOL    HW1 2024   0.684   1.115   1.658  1.5516 -2.2275 -0.9605
  675SOL    HW2 2025   0.704   0.974   1.735 -0.6013  0.3008  0.1557
  676SOL     OW 2026   2.451   0.540   0.966 -0.2972  0.0253 -0.4808
  676SOL    HW1 2027   2.506   0.623   0.969  0.2584 -1.6437  1.4783
  676SOL    HW2 2028   2.414   0.512   1.056  0.7328  1.0606  2.5650
  677SOL     OW 2029   2.376   1.628   2.992 -0.0542  0.3889  0.1620
  677SOL    HW1 2030   2.279   1.590   2.974  0.3802  0.6465 -1.6303
  677SOL    HW2 2031   2.448   1.556   2.989  0.1642 -0.2664  0.3692
  678SOL     OW 2032   2.940   0.592   1.297  0.6020  0.3387 -0.1984
  678SOL    HW1 2033   2.951   0.530   1.218  0.4580 -0.4172 -0.5829
  678SOL    HW2 2034   2.979   0.683   1.274  2.0650  0.6658 -0.6308
  679SOL     OW 2035   2.346   0.353   0.267 -0.2411 -0.1080  0.0547
  679SOL    HW1 2036   2.343   0.421   0.341 -1.2260  0.6359  0.7901
  679SOL    HW2 2037   2.421   0.367   0.200 -1.4624  2.3146  1.6157
  680SOL     OW 2038   0.184   1.809   2.020 -0.3843  0.4086  0.6634
  680SOL    HW1 2039   0.251   1.783   1.945  1.0683  0.5219 -0.0520
  680SOL    HW2 2040   0.215   1.762   2.107  0.6193 -2.8829 -1.2699
  681SOL     OW 2041   2.187   2.166   1.118  0.1745  0.6877  0.2853
  681SOL    HW1 2042   2.098   2.212   1.101  1.1583  0.5272  1.1866
  681SOL    HW2 2043   2.233   2.155   1.029  1.4238 -0.9610  0.6005
  682SOL     OW 2044   2.989   1.944   2.458 -0.5417  0.1223  0.3269
  682SOL    HW1 2045   2.937   1.924   2.376  0.4010  1.7065  1.0284
  682SOL    HW2 2046   3.085   1.976   2.442  0.0554 -0.0311 -2.0914
  683SOL     OW 2047   0.113   2.308   1.492 -0.0258  0.5190  0.2178
  683SOL    HW1 2048   0.129   2.324   1.389  2.1348  0.3260 -3.0081
  683SOL    HW2 2049   0.015   2.283   1.511 -2.1462 -1.8145 -0.3979
  684SOL     OW 2050   2.857   1.162   2.526  0.5835 -0.4135  0.1764
  684SOL    HW1 2051   2.880   1.245   2.462  3.8391  1.2097 -2.9339
  684SOL    HW2 2052   2.929   1.147   2.593 -3.3571  0.5508  1.2385
  685SOL     OW 2053   1.453   1.185   0.452 -0.0282  0.0865  1.1252
  685SOL    HW1 2054   1.373   1.192   0.512  2.4452 -0.7149  1.1606
  685SOL    HW2 2055   1.527   1.129   0.495 -1.5287 -0.5543 -1.0444
  686SOL     OW 2056   0.384   0.202   0.640  0.6346  0.1445 -0.3761
  686SOL    HW1 2057   0.396   0.117   0.693  2.9573  3.4021 -1.5523
  686SOL    HW2 2058   0.288   0.238   0.629  0.1021 -0.0907  0.4999
  687SOL     OW 2059   1.389   1.540   2.454 -0.5584  0.1304  0.1047
  687SOL    HW1 2060   1.467   1.581   2.511  3.7961  0.4747  1.0206
  687SOL    HW2 2061   1.420   1.484   2.372 -0.8603  2.7651 -0.3057
  688SOL     OW 2062   1.524   1.343   1.571  0.6453  0.8906 -0.4824
  688SOL    HW1 2063   1.512   1.434   1.527  2.0337 -0.3314  1.2508
  688SOL    HW2 2064   1.432   1.300   1.599  0.1429 -1.0647 -1.4185
  689SOL     OW 2065   2.175   0.109   1.285  0.3813 -0.2896  0.0713
  689SOL    HW1 2066   2.106   0.138   1.215  0.6105  0.2450  1.7558
  689SOL    HW2 2067   2.265   0.108   1.235 -0.1808  0.2791  0.7554
  690SOL     OW 2068   0.276   1.405   1.073  0.2548  0.5158 -0.8313
  690SOL    HW1 2069   0.206   1.428   0.996  0.8049  1.5205 -4.2026
  690SOL    HW2 2070   0.267   1.309   1.110  0.3579 -2.1889 -1.1255
  691SOL     OW 2071   0.349   2.168   1.276 -0.6001  0.3346 -0.6150
  691SOL    HW1 2072   0.260   2.215   1.280 -2.3161  0.8609 -0.1435
  691SOL    HW2 2073   0.407   2.203   1.204  0.8207 -0.4077  2.1034
  692SOL     OW 2074   2.330   0.594   1.555  0.3772 -0.3514  0.3866
  692SOL    HW1 2075   2.309   0.499   1.524  1.3812  0.6329 -0.0642
  692SOL    HW2 2076   2.332   0.608   1.655  0.6884 -0.1469 -1.7567
  693SOL     OW 2077   0.555   1.655   2.151 -0.4250 -0.2926  0.1467
  693SOL    HW1 2078   0.582   1.648   2.052  0.1934 -1.8297 -1.7628
  693SOL    HW2 2079   0.589   1.573   2.199  1.7514  0.8073 -1.1434
  694SOL     OW 2080   1.572   1.288   1.201  0.2241 -0.1182 -0.2225
  694SOL    HW1 2081   1.599   1.262   1.295 -1.9873  1.0715  0.5251
  694SOL    HW2 2082   1.471   1.302   1.193 -1.5422  1.0476 -0.3306
  695SOL     OW 2083   0.887   1.451   0.740 -0.7016  0.4882  0.9792
  695SOL    HW1 2084   0.848   1.520   0.804  0.2896 -0.2908  0.3196
  695SOL    HW2 2085   0.843   1.463   0.647  0.7492  1.9713 -1.5721
  696SOL     OW 2086   0.795   2.846   0.261  0.4205 -0.2587  0.1665
  696SOL    HW1 2087   0.883   2.795   0.261 -3.2278  0.5425  0.2247
  696SOL    HW2 2088   0.710   2.794   0.237 -0.4601  1.2640 -1.7669
  697SOL     OW 2089   1.510   0.486   1.621 -0.3300 -0.7970 -0.3249
  697SOL    HW1 2090   1.563   0.535   1.543 -0.1885 -1.2987 -0.2758
  697SOL    HW2 2091   1.413   0.466   1.588  0.9271  1.1412 -1.3993
  698SOL     OW 2092   1.577   1.659   2.147 -0.1394 -0.5747 -0.0487
  698SOL    HW1 2093   1.679   1.653   2.138  0.0464  1.1482 -3.6857
  698SOL    HW2 2094   1.528   1.638   2.061 -6.4126 -2.1297  1.3613
  699SOL     OW 2095   2.490   0.349   1.746  0.2168  0.8454 -0.0809
  699SOL    HW1 2096   2.410   0.316   1.794  4.6418 -1.1191  0.1301
  699SOL    HW2 2097   2.552   0.397   1.813  1.2632 -0.0437 -2.7759
  700SOL     OW 2098   1.273   2.151   0.585  0.3496 -0.1236  0.2985
  700SOL    HW1 2099   1.342   2.135   0.509 -2.5184 -1.6148 -3.9698
  700SOL    HW2 2100   1.211   2.068   0.591 -0.5445 -2.5872  2.1300
  701SOL     OW 2101   2.420   2.865   2.513 -0.4178 -0.6819 -0.2010
  701SOL    HW1 2102   2.382   2.780   2.476 -0.0941 -0.6485  1.9074
  701SOL    HW2 2103   2.347   2.920   2.563  1.6180  0.2857  1.7867
  702SOL     OW 2104   0.816   3.062   0.452 -0.3283  0.0981  0.1466
  702SOL    HW1 2105   0.728   3.083   0.493  5.8277 -1.6358 -1.0384
  702SOL    HW2 2106   0.801   3.027   0.354 -1.2884  0.5310  0.7396
  703SOL     OW 2107   2.304   0.301   2.143 -0.7904 -0.1051  0.0029
  703SOL    HW1 2108   2.247   0.254   2.213  0.8219 -0.8461 -2.7394
  703SOL    HW2 2109   2.401   0.283   2.165  0.3872  1.8767 -1.6003
  704SOL     OW 2110   2.625   2.093   0.379  0.2950  0.3507 -0.2338
  704SOL    HW1 2111   2.538   2.129   0.344 -0.9442 -0.1175  2.3033
  704SOL    HW2 2112   2.674   2.167   0.430  0.4049 -2.3755 -1.8117
  705SOL     OW 2113   2.362   2.585   2.433  0.3969 -0.6879 -0.0802
  705SOL    HW1 2114   2.358   2.524   2.514  1.6852 -1.0396  2.4112
  705SOL    HW2 2115   2.451   2.571   2.388 -1.4452 -2.4919  1.4949
  706SOL     OW 2116   2.415   0.076   1.162  0.2086 -0.0122 -0.6680
  706SOL    HW1 2117   2.475   0.157   1.155 -1.8121 -0.1979 -0.1713
  706SOL    HW2 2118   2.472   3.086   1.141 -0.3545 -0.0185  1.1332
  707SOL     OW 2119   0.836   0.157   2.414  0.2108 -0.2238  0.3074
  707SOL    HW1 2120   0.834   0.066   2.468  0.4988 -2.7531  1.8848
  707SOL    HW2 2121   0.738   0.182   2.402 -0.3027  0.3472 -0.2264
  708SOL     OW 2122   0.172   2.246   1.758  0.4569  0.8123 -0.5979
  708SOL    HW1 2123   0.165   2.270   1.662 -0.5552 -1.4705  0.8512
  708SOL    HW2 2124   0.132   2.153   1.782  0.0079  1.5333 -1.1080
  709SOL     OW 2125   1.352   0.054   1.502 -0.0470  0.4533 -0.4117
  709SOL    HW1 2126   1.354   0.135   1.437 -2.1171 -0.0804 -1.1767
  709SOL    HW2 2127   1.433   3.082   1.485 -0.9790 -0.6658 -0.4903
  710SOL     OW 2128   1.262   2.769   2.898  0.3361  0.2043  0.2215
  710SOL    HW1 2129   1.177   2.823   2.925  1.6999  0.8351  2.2133
  710SOL    HW2 2130   1.301   2.807   2.813  0.1812 -1.9428 -1.0831
  711SOL     OW 2131   1.222   2.198   2.681  0.2132 -0.4737  0.2526
  711SOL    HW1 2132   1.130   2.203   2.720 -0.4056 -0.8197  1.3954
  711SOL    HW2 2133   1.217   2.246   2.590 -0.4041  2.3701  0.2436
  712SOL     OW 2134   1.035   2.188   2.955  0.5782  0.0581  0.7721
  712SOL    HW1 2135   1.087   2.109   2.920  0.3697 -0.9578  1.6612
  712SOL    HW2 2136   0.985   2.158   3.036  0.5472  0.2614 -2.7720
  713SOL     OW 2137   2.022   1.130   2.071  0.5266 -0.0227  0.5263
  713SOL    HW1 2138   1.976   1.041   2.043  0.4181  0.3543 -0.0151
  713SOL    HW2 2139   2.119   1.118   2.086  0.0868 -0.8227 -0.5110
  714SOL     OW 2140   0.831   1.306   1.959 -0.0931 -0.4576  0.3055
  714SOL    HW1 2141   0.752   1.291   1.894  2.1057 -0.6223 -0.7665
  714SOL    HW2 2142   0.854   1.231   2.023 -1.3285  0.5489 -0.5537
  715SOL     OW 2143   2.701   0.591   0.252  0.0085 -0.1985 -0.2118
  715SOL    HW1 2144   2.738   0.502   0.281 -1.0001 -0.1756 -2.1556
  715SOL    HW2 2145   2.614   0.615   0.306  0.9797  2.7984  0.6649
  716SOL     OW 2146   2.713   2.410   1.650  0.0498 -0.3415 -0.0595
  716SOL    HW1 2147   2.618   2.439   1.621 -0.7342  2.3171  0.1858
  716SOL    HW2 2148   2.698   2.355   1.735  0.9590 -0.2749 -0.6297
  717SOL     OW 2149   2.354   1.000   0.954 -0.1894 -0.0991 -0.1218
  717SOL    HW1 2150   2.279   1.040   0.893 -3.2567  0.1944 -0.5230
  717SOL    HW2 2151   2.410   0.936   0.898 -0.1886  1.4336 -1.8878
  718SOL     OW 2152   1.181   1.618   1.431  0.2838 -0.6148  0.1553
  718SOL    HW1 2153   1.127   1.599   1.515 -2.5901 -1.9182 -2.3166
  718SOL    HW2 2154   1.169   1.717   1.406 -0.7613  2.7043 -1.4889
  719SOL     OW 2155   3.011   0.186   2.955 -0.2507 -0.5103 -0.0915
  719SOL    HW1 2156   2.975   0.133   2.876 -0.9376  0.3240  2.5071
  719SOL    HW2 2157   0.022   0.178   2.956 -0.1895 -0.0876 -0.4282
  720SOL     OW 2158   0.844   0.406   0.912  0.0801  0.4631  0.2846
  720SOL    HW1 2159   0.902   0.452   0.844  0.9007 -0.9598 -1.1686
  720SOL    HW2 2160   0.810   0.462   0.990  1.8394 -1.8118 -0.3870
  721SOL     OW 2161   2.887   1.052   0.398 -0.1675 -0.5271 -0.0207
  721SOL    HW1 2162   2.853   1.074   0.302 -0.2376  0.0390  1.5008
  721SOL    HW2 2163   2.841   1.109   0.466 -1.1103  1.2714 -0.8189
  722SOL     OW 2164   0.515   2.267   2.391 -0.2708  0.2624  0.3532
  722SOL    HW1 2165   0.543   2.263   2.296  2.0541  2.2686 -0.2055
  722SOL    HW2 2166   0.427   2.320   2.405  0.1959  0.8318 -1.5652
  723SOL     OW 2167   1.777   3.084   1.043 -0.1009  0.0629  0.1516
  723SOL    HW1 2168   1.777   0.083   1.095 -0.2449 -0.9959  2.4879
  723SOL    HW2 2169   1.739   3.008   1.098  2.5410  0.6814  0.6759
  724SOL     OW 2170   1.552   1.866   1.813  0.0614 -0.2379 -0.2191
  724SOL    HW1 2171   1.515   1.951   1.854  0.1638  2.1274 -1.0451
  724SOL    HW2 2172   1.535   1.781   1.864 -0.0309 -0.3539 -2.3111
  725SOL     OW 2173   1.146   2.579   1.150  0.0763 -0.1043  0.0397
  725SOL    HW1 2174   1.070   2.603   1.209  1.4737  0.7800 -2.1480
  725SOL    HW2 2175   1.165   2.657   1.084 -1.3757 -1.6651 -1.4621
  726SOL     OW 2176   2.142   2.632   0.332 -0.4403  0.7432  0.5192
  726SOL    HW1 2177   2.058   2.631   0.283  1.4981 -0.2327  4.4377
  726SOL    HW2 2178   2.126   2.592   0.425 -0.3364 -2.3374 -0.2463
  727SOL     OW 2179   1.517   1.744   0.983 -0.0712 -0.4166 -0.0600
  727SOL    HW1 2180   1.604   1.706   1.020  0.9341 -0.1665 -2.2101
  727SOL    HW2 2181   1.448   1.674   0.995  1.9988  2.8559  1.9541
  728SOL     OW 2182   2.049   2.627   2.027  0.0404 -0.2028  0.1282
  728SOL    HW1 2183   1.954   2.657   2.040 -3.1171  1.3217 -0.3365
  728SOL    HW2 2184   2.103   2.663   2.106  2.9957 -0.1440  2.2912
  729SOL     OW 2185   1.866   2.326   1.470  0.0153 -0.2303 -0.2252
  729SOL    HW1 2186   1.809   2.374   1.397  0.5479  3.2183 -0.9147
  729SOL    HW2 2187   1.958   2.363   1.472 -3.3197 -1.5494  2.5831
  730SOL     OW 2188   1.814   0.889   2.546 -0.1009  0.2298  0.3108
  730SOL    HW1 2189   1.835   0.814   2.479  0.2813  3.3167  2.6051
  730SOL    HW2 2190   1.716   0.919   2.532 -1.4684 -0.0336 -0.1236
  731SOL     OW 2191   0.992   2.850   1.099  0.6015 -0.3208  0.3366
  731SOL    HW1 2192   1.029   2.914   1.165  0.8465 -0.5913  1.0289
  731SOL    HW2 2193   1.063   2.827   1.025  0.9347  0.3996  0.6903
  732SOL     OW 2194   1.091   3.038   0.831 -0.0423 -0.2490  0.2798
  732SOL    HW1 2195   1.066   2.962   0.764  0.3851 -1.3867 -3.0756
  732SOL    HW2 2196   1.192   3.044   0.838  0.6257  0.7823  0.0277
  733SOL     OW 2197   1.099   1.428   0.579  0.1797  0.2274  0.2204
  733SOL    HW1 2198   1.014   1.427   0.633  2.5502  1.1935 -3.4073
  733SOL    HW2 2199   1.149   1.339   0.570 -1.1543  0.7651  0.8617
  734SOL     OW 2200   2.465   2.014   2.633  0.0176  0.2666 -0.4156
  734SOL    HW1 2201   2.533   2.092   2.645  2.8344  0.4353 -0.7071
  734SOL    HW2 2202   2.430   2.021   2.536 -0.2275 -1.0129  0.3673
  735SOL     OW 2203   0.849   0.184   1.057 -0.5015 -0.2242  0.1805
  735SOL    HW1 2204   0.855   0.104   0.993 -0.0797  1.2351  1.5004
  735SOL    HW2 2205   0.873   0.270   1.003 -1.9262  0.8656 -0.9891
  736SOL     OW 2206   1.480   2.241   2.729 -0.1652 -0.1052  0.3248
  736SOL    HW1 2207   1.380   2.238   2.703 -1.3760  2.8357 -0.0564
  736SOL    HW2 2208   1.492   2.248   2.830  2.1424  2.8896 -0.6246
  737SOL     OW 2209   0.841   2.405   1.196 -0.0616 -0.2502 -0.1892
  737SOL    HW1 2210   0.770   2.432   1.133 -0.9190  1.1003  0.7380
  737SOL    HW2 2211   0.873   2.493   1.244  0.9699  1.7343 -0.6883
  738SOL     OW 2212   1.590   2.935   2.571  0.4549  0.3918  0.2444
  738SOL    HW1 2213   1.649   3.018   2.552  1.3509  1.3424  0.1669
  738SOL    HW2 2214   1.631   2.857   2.631  2.0316 -3.2673  2.1691
  739SOL     OW 2215   1.220   2.409   2.118 -0.0325  0.1018  0.0322
  739SOL    HW1 2216   1.157   2.336   2.079 -1.1402 -1.5096  0.4826
  739SOL    HW2 2217   1.306   2.363   2.149 -5.2267 -0.3289  0.2997
  740SOL     OW 2218   1.441   2.395   1.381  0.0297 -0.0542 -0.0181
  740SOL    HW1 2219   1.457   2.345   1.297  1.3958  1.4282 -0.3316
  740SOL    HW2 2220   1.338   2.397   1.397  2.0665 -2.4373 -1.4417
  741SOL     OW 2221   2.746   1.147   0.206 -0.5117  0.5903 -0.2115
  741SOL    HW1 2222   2.726   1.236   0.253  1.1694 -0.5203 -2.4633
  741SOL    HW2 2223   2.665   1.086   0.202  2.8191  0.7249  0.0546
  742SOL     OW 2224   0.628   1.839   2.336 -0.5252 -0.1936  0.5152
  742SOL    HW1 2225   0.654   1.938   2.313  2.9446 -0.0638  0.7143
  742SOL    HW2 2226   0.592   1.793   2.253  0.3766  0.5805  0.4423
  743SOL     OW 2227   0.457   1.130   2.633  0.3995  0.2325 -0.1815
  743SOL    HW1 2228   0.431   1.107   2.731  0.1077 -0.0070  0.8426
  743SOL    HW2 2229   0.376   1.152   2.574 -1.6812 -0.2287  0.3032
  744SOL     OW 2230   2.214   2.512   1.098  0.4486  0.0874 -0.0537
  744SOL    HW1 2231   2.168   2.587   1.052 -0.1776  1.1083  2.8018
  744SOL    HW2 2232   2.186   2.423   1.059  1.2046 -1.8610 -0.5211
  745SOL     OW 2233   2.150   1.743   1.379 -0.0911  0.5372 -0.3806
  745SOL    HW1 2234   2.193   1.791   1.297  1.1784  0.2066 -0.0922
  745SOL    HW2 2235   2.127   1.812   1.452 -0.2655  0.6968  0.6803
  746SOL     OW 2236   2.189   1.191   0.568 -0.0390  0.0937  0.0534
  746SOL    HW1 2237   2.098   1.202   0.520  1.7011 -0.4914 -1.1962
  746SOL    HW2 2238   2.179   1.130   0.650 -1.6076  0.1415 -0.8701
  747SOL     OW 2239   1.691   2.065   0.795 -0.1814  0.2058  0.1031
  747SOL    HW1 2240   1.626   1.987   0.785  0.5597  0.0531  2.4727
  747SOL    HW2 2241   1.786   2.030   0.814 -0.9463 -1.4292 -0.7267
  748SOL     OW 2242   0.664   1.866   0.625 -0.6263 -0.2856  0.1792
  748SOL    HW1 2243   0.693   1.864   0.528  0.2832  1.2779  2.8221
  748SOL    HW2 2244   0.652   1.964   0.643  1.8138 -1.2846  2.5649
  749SOL     OW 2245   3.006   3.000   2.259  0.1708 -0.7992 -0.0612
  749SOL    HW1 2246   3.019   0.006   2.229 -0.3216  2.8004 -0.6670
  749SOL    HW2 2247   3.047   2.984   2.351  1.1817  0.9976 -1.7788
  750SOL     OW 2248   1.667   0.350   1.317 -0.2688  0.6686 -0.1498
  750SOL    HW1 2249   1.758   0.306   1.340  0.2977  2.2475  0.1311
  750SOL    HW2 2250   1.674   0.446   1.289  1.0244 -0.6488 -0.9911
  751SOL     OW 2251   1.935   2.634   0.146  0.4522 -0.1402 -0.1992
  751SOL    HW1 2252   1.835   2.618   0.177 -4.7386 -1.9329  2.6690
  751SOL    HW2 2253   1.937   2.706   0.075 -0.7359  1.6535 -1.3132
  752SOL     OW 2254   2.013   1.953   0.206  0.2809  0.3033  0.2414
  752SOL    HW1 2255   1.950   1.868   0.226 -1.2839 -2.2847 -0.4047
  752SOL    HW2 2256   2.031   1.968   0.107 -2.1312  1.5548 -0.5508
  753SOL     OW 2257   1.814   1.200   2.514  0.1409 -0.1266  0.0819
  753SOL    HW1 2258   1.818   1.099   2.533  1.7371  0.1298  0.7892
  753SOL    HW2 2259   1.882   1.221   2.440 -0.9238 -1.5637 -2.1015
  754SOL     OW 2260   2.963   2.535   1.357  0.1177 -0.1630  0.2340
  754SOL    HW1 2261   2.977   2.434   1.357 -0.8007 -1.5037 -0.8423
  754SOL    HW2 2262   3.051   2.578   1.376 -0.4239 -1.0468 -1.4483
  755SOL     OW 2263   2.128   0.660   0.802  0.0291 -0.2131  0.2957
  755SOL    HW1 2264   2.223   0.672   0.780  0.8258  1.0367  0.7895
  755SOL    HW2 2265   2.094   0.734   0.862 -0.4629 -1.7411  1.9607
  756SOL     OW 2266   1.093   1.374   2.835 -0.0743  0.5061  0.2176
  756SOL    HW1 2267   1.108   1.454   2.897  0.6108 -0.8512  1.0380
  756SOL    HW2 2268   1.152   1.370   2.752  1.6469  0.6355  2.1760
  757SOL     OW 2269   2.029   2.843   1.439  0.1171 -0.2642 -0.0882
  757SOL    HW1 2270   2.063   2.775   1.367 -1.2719  0.3766 -0.6639
  757SOL    HW2 2271   2.093   2.921   1.456 -0.7685  1.1149 -1.5955
  758SOL     OW 2272   0.947   2.640   1.318 -0.1752  0.0055  0.0472
  758SOL    HW1 2273   0.867   2.628   1.382 -1.0458 -0.4178 -2.1400
  758SOL    HW2 2274   0.958   2.739   1.288  0.6439  1.7147 -0.3607
  759SOL     OW 2275   2.271   1.465   1.048 -0.2559  0.0825 -0.4229
  759SOL    HW1 2276   2.333   1.493   0.973 -0.0421  0.0340  0.5217
  759SOL    HW2 2277   2.324   1.436   1.132  0.8474 -0.5412  1.1739
  760SOL     OW 2278   1.865   1.109   1.547  0.5513 -0.0849  0.0705
  760SOL    HW1 2279   1.850   1.134   1.644  0.0826  1.5535 -0.7754
  760SOL    HW2 2280   1.949   1.154   1.504  1.6541 -1.6016 -0.7296
  761SOL     OW 2281   2.052   2.918   0.341 -0.4889  0.3529 -0.2228
  761SOL    HW1 2282   2.080   2.957   0.424 -2.3101 -0.7762 -3.9832
  761SOL    HW2 2283   2.103   2.833   0.322  0.6584 -2.4941  0.8083
  762SOL     OW 2284   1.855   2.175   2.873 -0.5274 -0.6847 -0.3317
  762SOL    HW1 2285   1.917   2.122   2.811 -3.3750  1.1334 -0.7675
  762SOL    HW2 2286   1.892   2.178   2.969  0.3333 -2.2734 -0.5663
  763SOL     OW 2287   0.715   1.054   1.102  0.5534 -0.2096  0.0078
  763SOL    HW1 2288   0.781   1.036   1.026  0.4203 -1.4498  0.5394
  763SOL    HW2 2289   0.740   1.006   1.185 -1.1998  1.1884 -1.9394
  764SOL     OW 2290   2.922   2.383   2.934 -0.1196  0.1625  0.0045
  764SOL    HW1 2291   2.980   2.367   3.017 -0.0126  0.1554 -0.4858
  764SOL    HW2 2292   2.913   2.298   2.882  1.8520 -0.2163  0.3597
  765SOL     OW 2293   0.937   0.036   2.016  0.5331 -0.2665 -0.0830
  765SOL    HW1 2294   1.014   0.054   2.084  1.3337  1.2632 -0.0683
  765SOL    HW2 2295   0.915   0.109   1.949  0.1806 -0.7217  0.0815
  766SOL     OW 2296   2.908   1.493   2.473  0.7841 -0.1284 -0.0040
  766SOL    HW1 2297   2.895   1.597   2.472 -1.4783  0.8651  0.5970
  766SOL    HW2 2298   3.006   1.471   2.487 -0.8952 -0.4726  1.2981
  767SOL     OW 2299   0.106   1.627   1.498 -0.0899  0.3415 -0.1876
  767SOL    HW1 2300   0.066   1.624   1.591  0.8409 -1.0932  2.6643
  767SOL    HW2 2301   0.042   1.617   1.417  0.6333  0.6510 -1.2542
  768SOL     OW 2302   0.953   0.590   2.983 -0.0993  0.0258  0.0780
  768SOL    HW1 2303   0.946   0.675   3.042 -3.1332  2.1275 -0.5847
  768SOL    HW2 2304   1.038   0.597   2.926  4.5788  1.5092 -1.3468
  769SOL     OW 2305   2.061   2.509   0.568 -0.3061  0.6349 -0.3154
  769SOL    HW1 2306   1.989   2.579   0.571  0.9843 -0.4711 -2.2767
  769SOL    HW2 2307   2.046   2.432   0.627  1.2785  3.0099  1.2080
  770SOL     OW 2308   2.726   0.175   3.022 -0.6080 -0.3931  0.3501
  770SOL    HW1 2309   2.700   0.212   0.021  0.8000  0.1624 -0.2275
  770SOL    HW2 2310   2.824   0.149   3.014  1.0151 -2.4690  0.4176
  771SOL     OW 2311   1.431   2.352   1.820 -0.1178  0.5583  0.4347
  771SOL    HW1 2312   1.453   2.447   1.817 -1.8317 -1.8760 -1.1320
  771SOL    HW2 2313   1.471   2.311   1.736 -0.5637  1.8789  0.3043
  772SOL     OW 2314   0.657   0.443   2.906 -0.0317 -0.2820  0.0604
  772SOL    HW1 2315   0.604   0.374   2.860  2.7014 -0.1707  0.4771
  772SOL    HW2 2316   0.753   0.440   2.880 -2.7444  0.8686 -0.6010
  773SOL     OW 2317   0.016   1.327   1.488 -0.4327 -0.0018  0.1236
  773SOL    HW1 2318   3.021   1.356   1.442  0.6556  2.6676  1.9775
  773SOL    HW2 2319   3.081   1.292   1.581 -0.5518 -2.5520  0.6195
  774SOL     OW 2320   1.563   0.958   0.246 -0.2345 -0.6124  0.6202
  774SOL    HW1 2321   1.549   0.867   0.292 -2.7063  0.5249 -0.9687
  774SOL    HW2 2322   1.569   1.028   0.321  1.4529 -0.8968 -1.9647
  775SOL     OW 2323   2.375   2.709   0.213 -0.3806  0.2189  0.0267
  775SOL    HW1 2324   2.367   2.708   0.110 -0.6264 -1.2585  2.0999
  775SOL    HW2 2325   2.289   2.685   0.262 -0.3974  2.5918  1.7118
  776SOL     OW 2326   2.655   0.634   2.060  0.5294  0.3720 -0.1960
  776SOL    HW1 2327   2.675   0.729   2.061  0.5316 -2.8861 -0.3467
  776SOL    HW2 2328   2.593   0.617   2.140 -0.0121  0.3758  3.8812
  777SOL     OW 2329   0.182   1.169   2.472  0.2850 -0.2958  0.1616
  777SOL    HW1 2330   0.250   1.229   2.425 -0.9492  1.7962  0.9878
  777SOL    HW2 2331   0.131   1.111   2.402  1.5279 -1.4090 -1.1619
  778SOL     OW 2332   0.900   0.366   0.454  0.4358  0.0372  0.3228
  778SOL    HW1 2333   0.912   0.273   0.493  0.6066  2.0068 -0.6602
  778SOL    HW2 2334   0.994   0.407   0.450 -2.4538 -2.1313 -1.9711
  779SOL     OW 2335   0.588   0.867   2.839 -0.6747 -0.3044  0.2740
  779SOL    HW1 2336   0.674   0.922   2.853  2.6889  1.7045  0.9950
  779SOL    HW2 2337   0.576   0.828   2.745 -1.8057  1.3069  2.2528
  780SOL     OW 2338   2.245   0.983   2.208  0.0979 -0.2944 -0.2374
  780SOL    HW1 2339   2.200   0.957   2.297  0.0683 -3.7709 -0.9314
  780SOL    HW2 2340   2.227   0.910   2.139 -0.1703 -1.2289 -2.9752
  781SOL     OW 2341   3.022   1.349   1.770 -0.6465 -0.5216  0.0262
  781SOL    HW1 2342   0.006   1.303   1.823  1.7291 -1.4365 -0.3363
  781SOL    HW2 2343   2.929   1.318   1.784  1.7361  1.1494 -0.8344
  782SOL     OW 2344   0.854   1.702   2.376 -0.5190 -0.2066 -0.3482
  782SOL    HW1 2345   0.762   1.746   2.375 -0.4647  1.3233  0.0002
  782SOL    HW2 2346   0.921   1.733   2.451  0.6630  1.7307  3.4786
  783SOL     OW 2347   0.473   2.853   1.558 -0.6138  0.0928  0.7211
  783SOL    HW1 2348   0.433   2.768   1.603  1.6284  0.8390  1.8427
  783SOL    HW2 2349   0.575   2.847   1.568  0.8368 -2.0880  1.4837
  784SOL     OW 2350   1.441   0.446   2.856  0.4001  0.0280 -0.1140
  784SOL    HW1 2351   1.483   0.471   2.766 -1.9112  0.5920 -2.0706
  784SOL    HW2 2352   1.453   0.519   2.930 -0.1571  1.1973  0.1326
  785SOL     OW 2353   1.233   0.270   2.936 -0.1868 -0.0236  0.0636
  785SOL    HW1 2354   1.299   0.300   2.865 -2.1028 -0.1280  1.5906
  785SOL    HW2 2355   1.136   0.293   2.914 -0.1601 -0.2976  1.2345
  786SOL     OW 2356   0.363   1.837   0.382  0.0139  0.3806  0.5948
  786SOL    HW1 2357   0.359   1.757   0.449 -2.0227  0.5948  1.3528
  786SOL    HW2 2358   0.398   1.807   0.291 -0.1554 -1.8974  0.8721
  787SOL     OW 2359   1.868   1.515   0.536 -0.2180 -0.2562  0.4658
  787SOL    HW1 2360   1.950   1.549   0.582 -1.9581 -0.1826  1.5884
  787SOL    HW2 2361   1.811   1.589   0.489 -2.4544  0.1870  1.1173
  788SOL     OW 2362   1.903   1.628   1.451 -0.1314  0.5785  0.2665
  788SOL    HW1 2363   1.827   1.631   1.382  1.8793  1.1354 -0.6449
  788SOL    HW2 2364   1.988   1.655   1.402  0.3438 -2.4820 -1.1042
  789SOL     OW 2365   0.370   1.366   1.728  0.3454 -0.1162  0.0896
  789SOL    HW1 2366   0.313   1.434   1.785  1.9274  1.0829  0.0150
  789SOL    HW2 2367   0.361   1.372   1.632 -2.3111 -2.5015  3.9242
  790SOL     OW 2368   0.588   2.702   0.142 -0.5974 -0.6530 -0.1643
  790SOL    HW1 2369   0.608   2.624   0.086  1.3610  1.8241  0.8891
  790SOL    HW2 2370   0.492   2.702   0.170  0.1280 -1.4930 -0.0794
  791SOL     OW 2371   0.624   3.014   2.818 -0.8044  0.1177  0.0054
  791SOL    HW1 2372   0.649   0.014   2.792 -0.7388 -1.6713  1.7380
  791SOL    HW2 2373   0.532   2.988   2.780  0.9709 -1.2935  1.4106
  792SOL     OW 2374   2.034   0.436   2.467  0.0138 -0.1849 -0.2072
  792SOL    HW1 2375   2.031   0.423   2.567  0.5620  0.3643  2.1046
  792SOL    HW2 2376   2.131   0.461   2.451  0.6122  0.9840  0.4386
  793SOL     OW 2377   0.360   0.710   1.099  0.0726 -0.5731  0.1903
  793SOL    HW1 2378   0.428   0.635   1.093 -0.3894  0.0596 -0.5200
  793SOL    HW2 2379   0.293   0.688   1.169  0.7668 -0.2915 -1.0247
  794SOL     OW 2380   0.683   0.406   2.100  0.2780  0.2733  0.1369
  794SOL    HW1 2381   0.685   0.391   2.001  0.9648 -1.3819  3.2353
  794SOL    HW2 2382   0.689   0.502   2.124 -2.5667 -4.8647  0.5315
  795SOL     OW 2383   0.160   1.246   0.147 -0.2071  0.0368 -0.6420
  795SOL    HW1 2384   0.139   1.198   0.236  2.7854  2.4776 -1.2518
  795SOL    HW2 2385   0.076   1.293   0.112  0.5018  2.3290 -0.1257
  796SOL     OW 2386   0.084   2.854   0.252 -0.3828  0.4206 -0.2689
  796SOL    HW1 2387   0.077   2.957   0.242 -0.1023  2.2616 -0.8283
  796SOL    HW2 2388   0.043   2.812   0.168  1.1343 -0.6600  0.7451
  797SOL     OW 2389   1.603   2.571   2.574 -0.4527 -0.2034 -0.0804
  797SOL    HW1 2390   1.534   2.591   2.644 -0.8899  1.4394 -0.6600
  797SOL    HW2 2391   1.658   2.489   2.600  1.9604  1.8843 -1.0895
  798SOL     OW 2392   3.036   0.538   0.743 -0.5409  0.6437  0.3958
  798SOL    HW1 2393   3.001   0.543   0.646 -1.5581  1.4133  1.9805
  798SOL    HW2 2394   0.047   0.543   0.743 -1.9328 -0.9030  2.3576
  799SOL     OW 2395   2.568   0.466   2.496 -0.1022  0.2164  0.1172
  799SOL    HW1 2396   2.556   0.366   2.527 -3.3130  0.0086  1.1379
  799SOL    HW2 2397   2.655   0.479   2.445  2.6753  1.2198  3.1876
  800SOL     OW 2398   0.006   2.110   0.202 -0.3737 -0.0721  0.0847
  800SOL    HW1 2399   0.027   2.099   0.306  0.3574 -0.9707 -1.5794
  800SOL    HW2 2400   0.052   2.037   0.150  3.8179 -2.9723  0.9879
  801SOL     OW 2401   1.353   1.546   1.028  0.3001 -0.2192  0.5850
  801SOL    HW1 2402   1.356   1.463   1.084  6.3462  2.4505  1.4384
  801SOL    HW2 2403   1.300   1.535   0.943 -0.6259 -1.0827  1.5109
  802SOL     OW 2404   1.151   1.792   2.030  0.2162  0.2733  0.1582
  802SOL    HW1 2405   1.053   1.759   2.038 -2.5107 -3.1057 -0.6044
  802SOL    HW2 2406   1.194   1.742   1.952  0.6304 -1.3000 -0.6781
  803SOL     OW 2407   0.176   2.009   0.953 -0.1719  0.0948  0.0572
  803SOL    HW1 2408   0.097   1.943   0.972  1.6125 -0.6985  0.0602
  803SOL    HW2 2409   0.253   1.950   0.923 -1.2892  0.6766 -0.0759
  804SOL     OW 2410   1.214   2.306   1.180 -0.0076 -0.1433  0.1337
  804SOL    HW1 2411   1.198   2.408   1.188  1.6206  2.6368  1.8859
  804SOL    HW2 2412   1.130   2.251   1.173  0.8631  2.5216  1.7770
  805SOL     OW 2413   1.967   1.432   3.084  0.0615 -0.3359 -0.1041
  805SOL    HW1 2414   2.036   1.435   3.011  1.6250 -1.4348  0.2667
  805SOL    HW2 2415   1.897   1.357   3.066 -3.5254 -2.1946  0.3414
  806SOL     OW 2416   1.950   2.612   1.013  0.2501 -0.2508  0.3220
  806SOL    HW1 2417   1.947   2.708   0.972 -1.7473 -0.6008 -0.1361
  806SOL    HW2 2418   1.856   2.578   1.017  1.2822  0.4076  1.7116
  807SOL     OW 2419   2.680   0.815   2.709  0.0668 -0.1475 -0.4917
  807SOL    HW1 2420   2.702   0.893   2.771 -3.5596 -2.1468  0.5427
  807SOL    HW2 2421   2.750   0.801   2.635 -0.2880 -1.9583  0.9109
  808SOL     OW 2422   0.411   1.128   0.458  0.1078  0.4562  0.0277
  808SOL    HW1 2423   0.432   1.091   0.552  2.1602  0.4479  0.1591
  808SOL    HW2 2424   0.385   1.055   0.393 -1.3230  2.0079  0.5484
  809SOL     OW 2425   2.652   0.926   2.118  0.0338  0.3084  0.4128
  809SOL    HW1 2426   2.595   1.000   2.147  2.3975 -4.8312  0.0215
  809SOL    HW2 2427   2.664   0.942   2.019  0.1051  0.5651 -2.7459
  810SOL     OW 2428   1.264   0.442   1.497 -0.5643 -0.5846  0.1433
  810SOL    HW1 2429   1.174   0.395   1.498  2.7852  2.1881  3.4905
  810SOL    HW2 2430   1.322   0.380   1.437  2.4914 -1.0376  0.2120
  811SOL     OW 2431   1.809   2.805   1.598 -0.1666  0.0917  0.5892
  811SOL    HW1 2432   1.891   2.796   1.528  1.8266  0.3284 -2.2971
  811SOL    HW2 2433   1.761   2.715   1.616  0.0086 -1.1934  0.3045
  812SOL     OW 2434   1.534   2.367   2.983 -0.4075 -0.3001  0.3884
  812SOL    HW1 2435   1.537   2.308   3.065 -1.6136  0.5258 -1.7249
  812SOL    HW2 2436   1.613   2.432   2.979 -1.6021  1.5103 -1.4802
  813SOL     OW 2437   1.575   0.993   1.967  0.1926  0.7819  0.1792
  813SOL    HW1 2438   1.573   0.890   1.983 -0.5301 -0.0418 -0.2031
  813SOL    HW2 2439   1.504   1.023   1.902 -0.9025 -0.8019  3.7045
  814SOL     OW 2440   0.614   0.375   1.854 -0.5512  0.0538 -0.3738
  814SOL    HW1 2441   0.551   0.340   1.783 -2.1748  0.1412 -1.5607
  814SOL    HW2 2442   0.636   0.469   1.831 -0.0395 -0.1828  1.5886
  815SOL     OW 2443   0.690   0.866   0.527  0.4057 -0.4576  0.2327
  815SOL    HW1 2444   0.630   0.823   0.460  2.1157  1.6211  1.0296
  815SOL    HW2 2445   0.641   0.909   0.608  0.5919  4.1746  1.3293
  816SOL     OW 2446   2.186   1.551   2.655  0.2731 -0.6516 -0.5753
  816SOL    HW1 2447   2.159   1.509   2.565 -0.3846  1.0575 -1.0483
  816SOL    HW2 2448   2.282   1.585   2.654 -1.0783  0.4443 -0.1753
  817SOL     OW 2449   0.749   2.547   0.413  0.5216 -0.5465  0.5556
  817SOL    HW1 2450   0.806   2.634   0.416 -0.2647 -0.1157  0.3367
  817SOL    HW2 2451   0.772   2.474   0.482  0.0450  1.5859  0.0869
  818SOL     OW 2452   1.841   0.111   3.020 -0.0844  0.1838  0.2086
  818SOL    HW1 2453   1.750   0.160   2.998  2.5267  1.9360  1.2569
  818SOL    HW2 2454   1.878   0.048   2.948  1.5617 -2.2857 -0.8371
  819SOL     OW 2455   1.660   0.233   0.160 -0.4076 -0.2884  0.2174
  819SOL    HW1 2456   1.684   0.142   0.194 -1.3349 -0.7200 -0.4866
  819SOL    HW2 2457   1.728   0.308   0.181 -0.3617  0.8720 -1.6516
  820SOL     OW 2458   1.841   0.667   0.266 -0.0078  0.1379 -0.2485
  820SOL    HW1 2459   1.772   0.688   0.331 -1.6202  1.3147 -4.7383
  820SOL    HW2 2460   1.848   0.731   0.185  2.9266 -0.6621  0.3703
  821SOL     OW 2461   2.547   0.402   0.090  0.0974 -0.3639 -0.3212
  821SOL    HW1 2462   2.582   0.493   0.125  1.5585 -0.2352  0.1996
  821SOL    HW2 2463   2.507   0.424   0.002  3.9881 -1.8035  0.4255
  822SOL     OW 2464   0.392   2.639   1.923 -0.1020  0.4667 -1.1420
  822SOL    HW1 2465   0.472   2.586   1.952 -0.0258 -0.5427  1.4423
  822SOL    HW2 2466   0.299   2.610   1.959  1.6972  0.5181  1.3622
  823SOL     OW 2467   3.058   1.713   1.258  0.0934  0.9830 -0.2769
  823SOL    HW1 2468   3.047   1.814   1.271 -2.3545  2.0481 -2.2676
  823SOL    HW2 2469   3.046   1.684   1.160  0.7698 -2.9140 -0.2587
  824SOL     OW 2470   1.675   3.008   2.250  0.0170 -0.3250  0.0837
  824SOL    HW1 2471   1.615   2.931   2.282  0.0033 -0.5226  2.0455
  824SOL    HW2 2472   1.695   2.998   2.152  0.4516  0.5931  0.5899
  825SOL     OW 2473   1.820   1.165   0.749 -0.2670 -0.1015  0.4886
  825SOL    HW1 2474   1.919   1.159   0.782 -1.0320 -0.3149 -0.3387
  825SOL    HW2 2475   1.755   1.181   0.827  0.2020 -0.1666 -0.6811
  826SOL     OW 2476   1.863   0.873   0.072  0.2362  0.1102  0.3362
  826SOL    HW1 2477   1.939   0.929   0.107 -0.7538 -0.4752 -1.2403
  826SOL    HW2 2478   1.807   0.929   0.008  1.0567  1.6838  2.7028
  827SOL     OW 2479   0.559   1.105   1.485  0.0196 -0.0440  0.2478
  827SOL    HW1 2480   0.472   1.136   1.529  0.2191  1.6723  2.1939
  827SOL    HW2 2481   0.605   1.187   1.450  0.4675  0.4627 -0.2173
  828SOL     OW 2482   2.253   1.388   1.987 -0.1324 -0.5494  0.5177
  828SOL    HW1 2483   2.154   1.399   1.976  0.2631 -0.8685  0.4011
  828SOL    HW2 2484   2.295   1.438   1.905  2.4302 -0.1025 -1.0932
  829SOL     OW 2485   0.144   1.970   0.012 -0.1454  0.0168 -0.3348
  829SOL    HW1 2486   0.160   1.870   0.010  1.8618  1.3367  0.1200
  829SOL    HW2 2487   0.230   2.025   0.033  1.5467 -0.0328  0.0260
  830SOL     OW 2488   1.642   1.026   0.609 -0.4976 -0.0588 -0.6188
  830SOL    HW1 2489   1.706   1.093   0.651  0.8243 -2.2218  2.7329
  830SOL    HW2 2490   1.628   0.950   0.669  1.5475  0.8161 -3.7287
  831SOL     OW 2491   2.721   1.941   2.993  0.3690 -0.5046 -0.5150
  831SOL    HW1 2492   2.619   1.925   2.986 -0.0403 -1.0711  2.1771
  831SOL    HW2 2493   2.749   1.975   3.086  0.4161 -0.6515  1.8588
  832SOL     OW 2494   0.868   3.030   0.052  0.1446  0.0937  0.0480
  832SOL    HW1 2495   0.864   2.942   0.102  1.4638 -3.2425 -2.6043
  832SOL    HW2 2496   0.903   3.023   3.049 -1.4276  0.2988  2.2733
  833SOL     OW 2497   1.325   0.598   2.289 -0.1979 -0.0638  0.1936
  833SOL    HW1 2498   1.308   0.667   2.214 -2.1586  2.3922  2.1359
  833SOL    HW2 2499   1.361   0.512   2.245 -2.1783 -0.7553 -1.5279
  834SOL     OW 2500   2.984   0.438   1.086 -0.3741  0.1213  0.6022
  834SOL    HW1 2501   3.072   0.407   1.037  0.2854  0.2920 -2.4903
  834SOL    HW2 2502   2.924   0.484   1.018 -1.2997  1.6201  1.5073
  835SOL     OW 2503   3.030   3.067   0.992 -0.4669  0.4178  0.4476
  835SOL    HW1 2504   2.997   2.971   0.979 -0.3450  0.7153 -0.9923
  835SOL    HW2 2505   2.988   0.016   1.078 -0.2943 -3.5972 -1.1328
  836SOL     OW 2506   0.673   2.109   0.383 -0.0476  0.1468  0.1108
  836SOL    HW1 2507   0.687   2.012   0.354  2.4091 -2.0250  1.4383
  836SOL    HW2 2508   0.766   2.147   0.405 -1.9167  0.5398  1.6401
  837SOL     OW 2509   1.621   1.638   2.573 -0.1465 -0.2749  0.0281
  837SOL    HW1 2510   1.581   1.693   2.648  0.4456 -3.3172  0.1632
  837SOL    HW2 2511   1.712   1.602   2.604  1.6744  1.9340  0.1789
  838SOL     OW 2512   0.340   1.021   2.235  0.6493 -0.2997  0.1021
  838SOL    HW1 2513   0.345   1.112   2.284 -0.7881  0.0385 -1.4015
  838SOL    HW2 2514   0.242   0.990   2.234 -2.6688  0.1325 -1.0570
  839SOL     OW 2515   0.230   0.587   0.875  0.2780  0.4709 -0.1713
  839SOL    HW1 2516   0.187   0.497   0.886  1.0368  1.6330 -0.3080
  839SOL    HW2 2517   0.278   0.622   0.957  0.4931  0.1328  0.7612
  840SOL     OW 2518   2.530   0.201   2.585  0.5068 -0.1333 -0.2371
  840SOL    HW1 2519   2.517   0.171   2.683 -1.8614 -0.5011  2.8392
  840SOL    HW2 2520   2.593   0.143   2.523  0.1383  1.2606 -0.5239
  841SOL     OW 2521   0.988   2.454   2.947  0.3618 -0.6224  0.0517
  841SOL    HW1 2522   1.043   2.509   3.012 -0.6337 -0.4382 -0.4529
  841SOL    HW2 2523   1.025   2.358   2.944 -1.7226  0.9742 -1.2446
  842SOL     OW 2524   0.542   0.013   0.944 -0.1808 -0.3434 -0.4029
  842SOL    HW1 2525   0.629   0.029   0.893  0.7026  1.3065  1.6571
  842SOL    HW2 2526   0.469   3.074   0.886  2.0714 -0.2126 -0.0782
  843SOL     OW 2527   0.215   0.792   0.135 -0.0336 -0.1132  0.1169
  843SOL    HW1 2528   0.140   0.790   0.065 -2.0356  2.6046  0.9487
  843SOL    HW2 2529   0.304   0.780   0.087  0.9867 -0.4250  2.2510
  844SOL     OW 2530   1.169   2.498   2.618 -0.1928  0.1108 -1.5911
  844SOL    HW1 2531   1.201   2.462   2.533  0.4390  0.9906 -1.3116
  844SOL    HW2 2532   1.243   2.495   2.690 -2.1206  0.3948  1.5243
  845SOL     OW 2533   2.507   0.101   2.867  0.4989  0.1637 -0.4066
  845SOL    HW1 2534   2.582   0.137   2.926  0.5687 -1.5048  1.6378
  845SOL    HW2 2535   2.419   0.145   2.882  3.1245 -1.0422 -0.1757
  846SOL     OW 2536   1.891   1.627   2.751 -0.3297 -0.4133 -0.2954
  846SOL    HW1 2537   1.981   1.651   2.709  2.9882  1.2322 -1.4081
  846SOL    HW2 2538   1.901   1.531   2.774  0.7139  0.8177 -1.1530
  847SOL     OW 2539   2.461   0.092   0.124  0.4612  0.1328  0.5889
  847SOL    HW1 2540   2.368   0.064   0.081 -1.5526 -0.5676 -0.3861
  847SOL    HW2 2541   2.474   0.194   0.127  1.1261  1.4999 -0.9266
  848SOL     OW 2542   0.577   0.613   0.704  0.1952 -0.2546  0.2869
  848SOL    HW1 2543   0.545   0.526   0.751  0.9298 -1.3571  0.5350
  848SOL    HW2 2544   0.630   0.593   0.623 -1.5714 -0.0370  5.2221
  849SOL     OW 2545   1.543   3.054   1.829  0.1936 -0.0322  0.4510
  849SOL    HW1 2546   1.600   2.998   1.895 -0.7164  1.6866  0.7177
  849SOL    HW2 2547   1.549   0.067   1.842 -0.1241  0.4965 -0.5078
  850SOL     OW 2548   0.684   1.192   0.660  0.6009 -0.3704  0.5976
  850SOL    HW1 2549   0.611   1.126   0.677 -1.2240 -0.3164 -0.6825
  850SOL    HW2 2550   0.692   1.254   0.738  1.6992  3.0727 -1.5341
  851SOL     OW 2551   0.351   1.061   0.068 -0.6060  0.4329  0.3038
  851SOL    HW1 2552   0.395   1.029   0.154 -0.2903 -2.9916 -1.6138
  851SOL    HW2 2553   0.283   1.134   0.090  0.4597  1.7780 -1.5603
  852SOL     OW 2554   1.214   0.155   1.719 -0.0022  0.4446  0.5548
  852SOL    HW1 2555   1.212   0.081   1.795 -0.2939 -0.6917  3.2354
  852SOL    HW2 2556   1.256   0.113   1.638 -1.2702 -1.2153  1.1224
  853SOL     OW 2557   2.717   1.379   0.364  0.5349 -0.2934 -0.5315
  853SOL    HW1 2558   2.733   1.461   0.303  0.2631  1.6576 -3.6647
  853SOL    HW2 2559   2.640   1.394   0.433 -1.9726  2.2820 -1.9783
  854SOL     OW 2560   1.176   1.054   2.070  0.1147 -0.0134 -0.3373
  854SOL    HW1 2561   1.080   1.057   2.106  1.4917 -0.9696  2.9402
  854SOL    HW2 2562   1.230   1.135   2.099 -0.5767 -2.1300 -0.0598
  855SOL     OW 2563   0.408   2.484   3.075  0.2241  0.3663  0.0330
  855SOL    HW1 2564   0.309   2.499   3.090  1.9978 -0.8519 -2.7145
  855SOL    HW2 2565   0.429   2.469   2.976  0.9781 -2.4454  4.0091
  856SOL     OW 2566   0.937   0.900   2.116 -0.0499  0.1382 -0.4884
  856SOL    HW1 2567   1.024   0.877   2.071  1.6058 -0.7592  2.0143
  856SOL    HW2 2568   0.918   0.836   2.194  1.8765 -1.2502  2.4498
  857SOL     OW 2569   1.091   0.718   2.541 -0.4582 -0.6185  0.0024
  857SOL    HW1 2570   1.166   0.776   2.508  0.3731 -2.4166  2.4995
  857SOL    HW2 2571   1.129   0.626   2.567 -4.1206 -2.4842 -0.1637
  858SOL     OW 2572   0.039   1.238   2.114 -0.1353 -0.2460  0.1527
  858SOL    HW1 2573   0.094   1.318   2.144  0.9110  1.1059  2.1479
  858SOL    HW2 2574   0.066   1.223   2.016 -0.2785 -0.2955  1.2858
  859SOL     OW 2575   2.363   0.367   0.721 -0.1180  0.1386 -0.1271
  859SOL    HW1 2576   2.343   0.273   0.756  1.3001 -3.4928  1.2655
  859SOL    HW2 2577   2.412   0.420   0.791 -1.3512 -1.7429 -0.0659
  860SOL     OW 2578   1.755   2.983   0.310  0.0398  0.1769  0.3025
  860SOL    HW1 2579   1.854   2.962   0.310  0.9994  0.3283 -0.2963
  860SOL    HW2 2580   1.721   2.981   0.406 -1.2524  4.2151 -0.1444
  861SOL     OW 2581   1.014   0.517   1.234  0.5936  0.3227  0.4191
  861SOL    HW1 2582   1.012   0.471   1.327 -2.0087 -3.2982  0.0692
  861SOL    HW2 2583   0.926   0.550   1.205  3.4437  2.9378  0.0665
  862SOL     OW 2584   1.356   0.238   2.606 -0.2126 -0.2486  0.4019
  862SOL    HW1 2585   1.404   0.179   2.675  2.3589 -1.0297  0.3094
  862SOL    HW2 2586   1.415   0.239   2.521 -0.0912 -0.8031  0.2432
  863SOL     OW 2587   2.603   2.394   0.594  0.3617 -0.1963  0.0325
  863SOL    HW1 2588   2.611   2.467   0.669  1.4075 -0.6054  0.3676
  863SOL    HW2 2589   2.581   2.430   0.501  3.1570 -2.5683 -0.6731
  864SOL     OW 2590   2.626   0.145   1.943 -0.0457 -0.1737 -0.6627
  864SOL    HW1 2591   2.626   0.248   1.931 -0.3850 -0.6351 -0.1260
  864SOL    HW2 2592   2.709   0.118   1.890 -0.4315 -0.5228 -1.4621
  865SOL     OW 2593   1.332   1.054   1.824  0.0445 -0.2258  0.2349
  865SOL    HW1 2594   1.269   1.090   1.898  1.4134  2.4887 -3.3580
  865SOL    HW2 2595   1.327   1.121   1.745 -3.6574  0.6535 -0.4508
  866SOL     OW 2596   1.686   2.511   1.018  0.7176  0.2313  0.2334
  866SOL    HW1 2597   1.661   2.429   0.964 -0.3726 -1.4813  0.6323
  866SOL    HW2 2598   1.604   2.567   1.049 -0.9243  0.6388  0.4857
  867SOL     OW 2599   2.370   2.859   0.528  0.0663  0.1544  0.5531
  867SOL    HW1 2600   2.271   2.839   0.534  0.5727  0.2161  1.3754
  867SOL    HW2 2601   2.382   2.955   0.504 -0.3258 -1.5515 -0.1242
  868SOL     OW 2602   0.353   2.194   1.944  0.8202  0.2337  0.4819
  868SOL    HW1 2603   0.408   2.130   1.887  0.8118  2.7827  0.2971
  868SOL    HW2 2604   0.281   2.240   1.883  0.6306  0.6627  1.2230
  869SOL     OW 2605   1.857   2.426   2.385  0.4233  0.2040 -0.1434
  869SOL    HW1 2606   1.827   2.339   2.433  0.7500 -2.1581  1.2849
  869SOL    HW2 2607   1.926   2.470   2.445  0.7849 -0.8401  0.0959
  870SOL     OW 2608   1.686   1.513   0.840 -0.0783 -0.5641 -0.5584
  870SOL    HW1 2609   1.631   1.501   0.754  0.9649 -3.6371  0.9849
  870SOL    HW2 2610   1.697   1.425   0.888 -1.0247  0.7258 -2.0287
  871SOL     OW 2611   0.432   1.893   1.223 -0.2706 -0.3618 -0.1912
  871SOL    HW1 2612   0.353   1.826   1.211 -0.7470 -2.2977 -1.5231
  871SOL    HW2 2613   0.418   1.960   1.298  1.1598 -0.3384 -0.5130
  872SOL     OW 2614   0.703   1.480   2.539  0.6123 -0.9566  0.1780
  872SOL    HW1 2615   0.779   1.429   2.581 -0.5996 -1.9947 -2.7546
  872SOL    HW2 2616   0.746   1.567   2.505  1.5619  0.1070  0.0363
  873SOL     OW 2617   0.850   1.816   2.121  0.1390  0.1380 -0.1219
  873SOL    HW1 2618   0.825   1.912   2.114  2.6089  0.4737 -0.0410
  873SOL    HW2 2619   0.799   1.769   2.195  0.6858  1.7528  0.5920
  874SOL     OW 2620   1.106   0.721   1.905 -0.3267 -0.7007 -0.1821
  874SOL    HW1 2621   1.123   0.714   1.805  1.1368  1.0160  2.8722
  874SOL    HW2 2622   1.190   0.701   1.957 -3.2047 -2.2074 -2.3020
  875SOL     OW 2623   2.835   2.980   0.492  0.4221  0.4889  0.1114
  875SOL    HW1 2624   2.791   2.983   0.398 -0.0398  0.7137  1.3896
  875SOL    HW2 2625   2.794   3.047   0.552  0.1393 -0.4139 -2.4546
  876SOL     OW 2626   0.725   1.561   0.541 -0.2214 -0.0796 -0.2153
  876SOL    HW1 2627   0.639   1.579   0.592 -0.9943  2.0846 -2.6661
  876SOL    HW2 2628   0.773   1.644   0.503 -0.7424  2.4496  0.8453
  877SOL     OW 2629   2.935   0.193   0.846 -0.0411 -0.1085 -0.7416
  877SOL    HW1 2630   2.857   0.255   0.875  2.2371 -0.4396  1.7562
  877SOL    HW2 2631   2.973   0.145   0.928  0.0476  0.4244 -0.2271
  878SOL     OW 2632   2.125   1.627   0.548 -0.7440  0.3687 -0.1118
  878SOL    HW1 2633   2.159   1.541   0.508 -1.6195  4.0567  0.7674
  878SOL    HW2 2634   2.141   1.626   0.648  2.0883 -1.1660  0.3534
  879SOL     OW 2635   2.569   1.643   1.250 -0.1833 -0.6965 -0.1460
  879SOL    HW1 2636   2.531   1.549   1.252  1.5800  0.2074  0.4717
  879SOL    HW2 2637   2.557   1.688   1.158  0.6569 -0.7582 -2.3152
  880SOL     OW 2638   0.536   2.358   0.639 -0.1866  0.1171  0.0871
  880SOL    HW1 2639   0.463   2.305   0.601  4.2072  2.6894  0.5546
  880SOL    HW2 2640   0.504   2.452   0.669 -0.3036  3.4553  3.6290
  881SOL     OW 2641   0.948   0.961   0.844 -0.1929  0.2708 -0.2348
  881SOL    HW1 2642   0.997   0.942   0.758 -1.6788  1.1469 -2.3357
  881SOL    HW2 2643   0.936   1.061   0.852 -0.8558 -2.1058 -1.7198
  882SOL     OW 2644   2.370   0.989   0.435  0.0514  0.2022  0.5416
  882SOL    HW1 2645   2.298   1.064   0.444 -0.8345  0.5840  0.1774
  882SOL    HW2 2646   2.343   0.904   0.480  0.0121  1.8768  0.0286
  883SOL     OW 2647   1.636   0.202   1.617 -0.5927  0.1439 -0.2260
  883SOL    HW1 2648   1.643   0.299   1.588  0.4729 -2.1294 -0.9442
  883SOL    HW2 2649   1.549   0.163   1.583 -0.6178 -1.0108 -2.2882
  884SOL     OW 2650   2.848   0.045   1.208 -0.2064  0.2934 -0.0783
  884SOL    HW1 2651   2.887   0.118   1.267 -2.1453  0.1688 -2.0642
  884SOL    HW2 2652   2.863   3.049   1.260 -1.5881 -0.4524  0.3404
  885SOL     OW 2653   1.369   0.813   2.647  0.5618 -0.6512  0.5351
  885SOL    HW1 2654   1.330   0.837   2.555  1.1647  0.4769 -2.3548
  885SOL    HW2 2655   1.305   0.834   2.726 -2.0303  1.9084 -1.5932
  886SOL     OW 2656   1.865   0.654   2.384  0.2482  0.0626  0.4123
  886SOL    HW1 2657   1.940   0.600   2.427  1.5419 -0.9018  1.2922
  886SOL    HW2 2658   1.785   0.589   2.367  1.5677 -1.7258  1.4719
  887SOL     OW 2659   1.405   0.271   1.337 -0.1934 -0.4995 -0.3143
  887SOL    HW1 2660   1.362   0.280   1.243 -1.3601  0.0374 -0.3072
  887SOL    HW2 2661   1.498   0.310   1.327  0.0797 -0.4303  1.2460
  888SOL     OW 2662   2.338   1.520   1.764  1.0922  0.1842  0.2409
  888SOL    HW1 2663   2.409   1.478   1.705 -0.7525 -0.2850 -1.9428
  888SOL    HW2 2664   2.330   1.617   1.748  2.6785 -0.6370  0.8847
  889SOL     OW 2665   1.688   2.221   0.555 -0.2828 -0.3579 -0.2653
  889SOL    HW1 2666   1.681   2.167   0.636 -1.1304  2.5041 -3.6688
  889SOL    HW2 2667   1.789   2.239   0.533  1.8584  1.0361  2.1856
  890SOL     OW 2668   1.049   2.000   0.627 -0.4073  0.2810  0.3371
  890SOL    HW1 2669   0.986   1.932   0.589 -1.0991 -2.8644  0.3512
  890SOL    HW2 2670   1.013   2.040   0.718  0.1456 -0.8313  2.7514
  891SOL     OW 2671   2.797   0.984   2.885  0.5159  0.7392  0.3882
  891SOL    HW1 2672   2.875   1.025   2.833 -1.6787 -0.2035  1.8688
  891SOL    HW2 2673   2.824   0.968   2.981 -0.2595  3.1032 -1.3732
  892SOL     OW 2674   1.594   0.579   2.383  0.0994 -0.0424 -0.0302
  892SOL    HW1 2675   1.604   0.478   2.379  2.8398  0.5586  0.9230
  892SOL    HW2 2676   1.505   0.615   2.356  0.5145  0.1022  3.4114
  893SOL     OW 2677   1.622   0.054   1.340  0.0734 -0.1885 -0.9452
  893SOL    HW1 2678   1.684   0.135   1.347 -1.3173  1.1567  0.1290
  893SOL    HW2 2679   1.627   3.083   1.420 -0.8162  1.4487 -4.0193
  894SOL     OW 2680   2.769   0.090   0.654  0.2957 -0.2165 -0.4896
  894SOL    HW1 2681   2.679   0.137   0.642 -0.3113  1.1646  2.5052
  894SOL    HW2 2682   2.820   0.136   0.731 -2.7353 -1.1393 -0.3567
  895SOL     OW 2683   1.724   2.576   2.892  0.0879 -0.1786 -0.2483
  895SOL    HW1 2684   1.729   2.501   2.824  3.0926  0.2536  0.8012
  895SOL    HW2 2685   1.813   2.609   2.926 -0.8778 -1.3785  0.2324
  896SOL     OW 2686   2.129   0.169   2.274 -0.1453  0.0218 -0.5313
  896SOL    HW1 2687   2.110   0.115   2.185 -2.3561 -1.6217 -0.5786
  896SOL    HW2 2688   2.036   0.194   2.311 -0.1647 -0.5219  1.7414
  897SOL     OW 2689   0.175   1.900   1.527 -0.2839 -0.3753 -0.3139
  897SOL    HW1 2690   0.187   1.810   1.480  1.6929 -1.3207 -2.3415
  897SOL    HW2 2691   0.263   1.953   1.550  3.4619  2.1151 -2.0636
  898SOL     OW 2692   2.485   1.778   1.697 -0.1549 -0.2904  0.2306
  898SOL    HW1 2693   2.444   1.733   1.617 -0.3680  0.4553 -4.6063
  898SOL    HW2 2694   2.545   1.855   1.670 -0.7752 -2.3810 -1.4109
  899SOL     OW 2695   1.571   1.986   1.099  0.3816 -0.3354  0.2060
  899SOL    HW1 2696   1.537   2.084   1.110 -2.1117  3.7741 -0.4744
  899SOL    HW2 2697   1.500   1.922   1.064  0.4630  0.3881 -2.8653
  900SOL     OW 2698   1.159   0.007   2.649  0.3041 -0.4349  0.1578
  900SOL    HW1 2699   1.226   3.018   2.656 -1.3228 -1.5589 -1.1718
  900SOL    HW2 2700   1.206   0.098   2.665  1.0754  3.6666 -0.4132
  901SOL     OW 2701   1.132   1.659   2.281 -0.1102  0.1275 -0.0115
  901SOL    HW1 2702   1.204   1.715   2.238  0.3311 -0.7203  0.2339
  901SOL    HW2 2703   1.039   1.697   2.273 -1.0827 -2.0281  0.6574
  902SOL     OW 2704   2.809   2.921   3.026 -0.4637 -0.1032  0.3150
  902SOL    HW1 2705   2.754   2.977   3.083  1.8570 -4.5733 -3.4652
  902SOL    HW2 2706   2.905   2.950   3.031  1.4486 -0.9020 -0.8485
  903SOL     OW 2707   2.183   0.808   2.007 -0.5236  0.2530 -0.5067
  903SOL    HW1 2708   2.105   0.819   1.941  3.5946  2.0036 -0.2095
  903SOL    HW2 2709   2.202   0.708   2.016  1.0363  1.0799  0.4879
  904SOL     OW 2710   1.599   0.313   2.430  0.1705  0.3458  0.2875
  904SOL    HW1 2711   1.638   0.285   2.516  0.0539 -0.2531 -0.5241
  904SOL    HW2 2712   1.557   0.227   2.388 -0.1388 -0.0265  1.2309
  905SOL     OW 2713   2.142   2.450   1.540  0.4076  0.7830  0.5865
  905SOL    HW1 2714   2.157   2.353   1.572  3.5833 -2.1683  1.7351
  905SOL    HW2 2715   2.085   2.504   1.606  0.6464 -0.5585 -1.4792
  906SOL     OW 2716   1.539   1.902   0.275  0.0833 -0.3143 -0.3268
  906SOL    HW1 2717   1.463   1.837   0.252 -2.2738  1.0478  0.3442
  906SOL    HW2 2718   1.627   1.874   0.219  3.4827 -2.0779 -2.9642
  907SOL     OW 2719   0.656   2.867   0.636 -0.6030  0.0387 -0.1409
  907SOL    HW1 2720   0.683   2.832   0.727  0.4234  1.9435  0.8874
  907SOL    HW2 2721   0.597   2.804   0.581 -1.0772  2.7926 -2.2256
  908SOL     OW 2722   1.320   2.648   2.046 -0.0002  0.3945 -0.4949
  908SOL    HW1 2723   1.313   2.706   2.127 -3.2787 -0.3547  1.4594
  908SOL    HW2 2724   1.275   2.554   2.071 -3.2558 -4.1334  0.6994
  909SOL     OW 2725   2.031   0.461   1.842  0.4253 -0.2787  0.4847
  909SOL    HW1 2726   2.130   0.431   1.827  3.1833 -2.1913 -2.0129
  909SOL    HW2 2727   1.989   0.395   1.907 -0.0313  0.9539  0.4690
  910SOL     OW 2728   1.234   0.744   0.026  0.4900  0.0611  0.2180
  910SOL    HW1 2729   1.255   0.644   0.048 -2.2538 -1.9545  0.9457
  910SOL    HW2 2730   1.181   0.791   0.100 -2.0031  0.1776  1.7259
  911SOL     OW 2731   3.088   0.807   3.067  0.2114 -0.2190 -0.0798
  911SOL    HW1 2732   3.028   0.726   3.086 -0.7224  3.4791 -1.2781
  911SOL    HW2 2733   3.028   0.887   3.060  0.3992  1.2241  1.0591
  912SOL     OW 2734   0.168   2.460   0.187 -0.2946  0.2909 -0.4177
  912SOL    HW1 2735   0.181   2.412   0.276  2.7280 -1.2495  0.2839
  912SOL    HW2 2736   0.110   2.402   0.120 -3.1115  0.8745 -0.9732
  913SOL     OW 2737   2.698   2.341   2.524  0.1791  0.3028  0.0304
  913SOL    HW1 2738   2.779   2.288   2.493 -1.1649  1.5503 -2.8590
  913SOL    HW2 2739   2.723   2.440   2.540 -1.4655  0.1555 -1.0000
  914SOL     OW 2740   1.495   1.945   1.558  0.5468  0.3201 -0.8491
  914SOL    HW1 2741   1.551   1.907   1.479  0.2601  0.9321  1.4567
  914SOL    HW2 2742   1.524   1.894   1.645  0.9997 -3.6773  0.2048
  915SOL     OW 2743   0.846   2.734   2.020  0.0727  0.2903 -0.4850
  915SOL    HW1 2744   0.781   2.668   1.976  0.5144 -2.4030 -1.8671
  915SOL    HW2 2745   0.791   2.797   2.076  0.3051 -0.2171 -1.2277
  916SOL     OW 2746   0.467   1.019   1.944 -0.4214 -0.0392 -0.1849
  916SOL    HW1 2747   0.428   1.038   2.034  2.5133  0.1992 -3.4232
  916SOL    HW2 2748   0.550   0.958   1.950 -0.0416  1.4207  2.5140
  917SOL     OW 2749   2.611   0.656   0.674  0.1407 -0.1659  0.2623
  917SOL    HW1 2750   2.671   0.695   0.598  0.0161  1.1003 -0.2500
  917SOL    HW2 2751   2.647   0.561   0.697  1.0581 -2.3786 -4.8239
  918SOL     OW 2752   1.810   2.688   2.309  0.3155  0.5173 -0.1691
  918SOL    HW1 2753   1.845   2.596   2.332  1.8591  0.7525 -0.3631
  918SOL    HW2 2754   1.715   2.677   2.279  1.7931 -0.7132 -4.6223
  919SOL     OW 2755   1.454   2.645   1.771  0.2612  0.5240 -0.0065
  919SOL    HW1 2756   1.393   2.688   1.698 -0.0993  2.1503  1.1604
  919SOL    HW2 2757   1.420   2.671   1.863  0.8156  0.9745  0.8267
  920SOL     OW 2758   0.626   0.636   0.051 -0.1262 -0.6197  0.8763
  920SOL    HW1 2759   0.563   0.711   0.023  1.8869 -1.1500  0.5260
  920SOL    HW2 2760   0.645   0.565   3.069  0.7603 -2.2581  1.1819
  921SOL     OW 2761   3.012   0.447   2.841 -0.3653 -1.7278  0.5814
  921SOL    HW1 2762   2.937   0.501   2.886 -0.1808  1.6111 -1.2971
  921SOL    HW2 2763   2.999   0.348   2.852 -2.0885 -3.0521 -0.1395
  922SOL     OW 2764   0.767   1.607   0.896  0.4728  0.0081  0.2215
  922SOL    HW1 2765   0.781   1.619   0.995 -0.3126  1.2889  3.4985
  922SOL    HW2 2766   0.697   1.676   0.861 -3.6309  2.3626 -2.1465
  923SOL     OW 2767   0.584   1.218   1.809 -0.2751  0.2024 -0.1771
  923SOL    HW1 2768   0.506   1.287   1.790  1.3577  1.2735  2.4141
  923SOL    HW2 2769   0.539   1.141   1.864  0.8962 -3.1227 -1.0719
  924SOL     OW 2770   1.515   2.960   2.959  0.4406 -0.2464 -0.4339
  924SOL    HW1 2771   1.548   2.950   3.055 -0.2865 -2.3170 -0.9062
  924SOL    HW2 2772   1.587   2.924   2.900 -1.2068 -1.1104 -0.3938
  925SOL     OW 2773   2.875   1.377   1.364  0.0816  0.2707  0.4916
  925SOL    HW1 2774   2.899   1.393   1.267  1.7679  0.5984 -1.3294
  925SOL    HW2 2775   2.802   1.306   1.360  1.2221 -0.9344 -0.3634
  926SOL     OW 2776   1.664   0.614   1.274 -1.0603  0.5277  0.1258
  926SOL    HW1 2777   1.762   0.632   1.244 -0.2922  1.2173 -1.6413
  926SOL    HW2 2778   1.637   0.672   1.350  3.3134 -2.8676 -3.4189
  927SOL     OW 2779   1.715   2.843   1.171  0.3978  0.4713  0.3966
  927SOL    HW1 2780   1.626   2.793   1.187 -2.5942  0.8207  0.9746
  927SOL    HW2 2781   1.798   2.788   1.184 -0.2819  0.6526 -1.2845
  928SOL     OW 2782   0.058   1.000   2.255  1.0297  0.2855  0.4208
  928SOL    HW1 2783   0.045   1.085   2.198  2.3839 -0.2522 -0.1071
  928SOL    HW2 2784   3.059   0.949   2.272 -2.7124 -3.4983  1.8119
  929SOL     OW 2785   2.827   0.864   1.069  0.1367  0.0340 -0.3018
  929SOL    HW1 2786   2.833   0.965   1.087 -0.6242  0.9375 -0.7329
  929SOL    HW2 2787   2.730   0.830   1.084 -1.1194 -2.5070 -1.7557
  930SOL     OW 2788   2.774   2.636   2.069 -0.3907  0.4061 -0.4727
  930SOL    HW1 2789   2.790   2.730   2.109  1.4925  1.7586  1.5503
  930SOL    HW2 2790   2.760   2.647   1.969  1.8388 -0.5497  1.7341
  931SOL     OW 2791   2.034   0.871   0.947  0.6940  0.4253  0.3869
  931SOL    HW1 2792   1.941   0.843   0.984  3.0404 -0.8606 -1.6525
  931SOL    HW2 2793   2.089   0.884   1.030 -1.2108 -0.3865 -0.8006
  932SOL     OW 2794   0.163   1.227   1.872  0.0567  0.0261 -0.4894
  932SOL    HW1 2795   0.171   1.128   1.853  1.3041  1.6688  2.3250
  932SOL    HW2 2796   0.245   1.271   1.833 -1.7637 -1.3685  0.2881
  933SOL     OW 2797   2.930   2.264   1.529  0.3372  0.2219 -0.2205
  933SOL    HW1 2798   2.879   2.318   1.601 -1.8051 -1.4472  2.2107
  933SOL    HW2 2799   2.887   2.254   1.434 -1.8602  1.6467 -0.8430
  934SOL     OW 2800   0.709   2.079   1.450 -0.5771  0.6734 -0.0051
  934SOL    HW1 2801   0.762   2.022   1.518  0.2720 -0.4672 -2.0700
  934SOL    HW2 2802   0.755   2.170   1.440  1.1279  0.7056  0.2522
  935SOL     OW 2803   3.078   1.633   1.748 -0.4279  0.0785  0.1757
  935SOL    HW1 2804   3.069   1.531   1.753 -1.1386 -3.9259  0.2660
  935SOL    HW2 2805   2.991   1.674   1.717  1.3520 -0.2899  0.1122
  936SOL     OW 2806   2.653   1.433   1.699  0.0145 -0.2983 -0.1543
  936SOL    HW1 2807   2.690   1.461   1.608 -0.4797 -0.2883 -0.5298
  936SOL    HW2 2808   2.687   1.493   1.776 -2.0062  1.4731  2.6624
  937SOL     OW 2809   1.838   0.849   1.512 -0.0389 -0.0342  0.0131
  937SOL    HW1 2810   1.920   0.803   1.469 -2.4456  0.1060 -0.8298
  937SOL    HW2 2811   1.855   0.950   1.521  1.4065  1.0379  0.7948
  938SOL     OW 2812   0.629   2.269   2.639 -0.0279 -0.1149  0.2576
  938SOL    HW1 2813   0.582   2.266   2.548  0.9952 -0.6424 -2.1396
  938SOL    HW2 2814   0.722   2.302   2.624 -2.0297  0.4462  0.2810
  939SOL     OW 2815   2.437   1.622   2.681 -0.6025 -0.0893 -0.1404
  939SOL    HW1 2816   2.508   1.634   2.753  0.8474  3.0322 -0.1489
  939SOL    HW2 2817   2.481   1.651   2.590 -1.5189 -1.1402  1.6180
  940SOL     OW 2818   1.724   1.707   0.380  0.2380 -0.3322  0.0432
  940SOL    HW1 2819   1.640   1.708   0.438  1.2431  1.3774  0.8835
  940SOL    HW2 2820   1.722   1.619   0.326 -1.2489  1.9751  1.5943
  941SOL     OW 2821   2.006   2.675   2.946  0.4885  0.3527  0.3550
  941SOL    HW1 2822   2.065   2.598   2.976 -1.2479 -2.1861  0.8879
  941SOL    HW2 2823   2.037   2.716   2.863 -3.0687  0.0976  1.1688
  942SOL     OW 2824   1.023   2.678   0.508 -0.4252 -0.4009 -0.2196
  942SOL    HW1 2825   1.100   2.637   0.558 -2.3283  2.2755 -0.7557
  942SOL    HW2 2826   1.021   2.645   0.410 -0.4430 -0.6136  1.8310
  943SOL     OW 2827   2.219   1.021   1.484  0.2864  0.2226  0.1391
  943SOL    HW1 2828   2.233   0.993   1.580 -0.4389 -2.2758 -0.2229
  943SOL    HW2 2829   2.150   1.094   1.471  2.4958 -2.6359 -1.2127
  944SOL     OW 2830   1.197   0.836   2.862  0.0227 -0.0711 -0.0237
  944SOL    HW1 2831   1.225   0.788   2.951  0.7120  2.0370  2.8958
  944SOL    HW2 2832   1.170   0.932   2.884  0.4455  1.9176 -0.1643
  945SOL     OW 2833   2.812   2.243   1.293  0.0618  0.4755 -0.5632
  945SOL    HW1 2834   2.782   2.152   1.256  0.0992  2.0441  2.2715
  945SOL    HW2 2835   2.729   2.304   1.299 -3.1845 -0.4420  1.8960
  946SOL     OW 2836   0.458   0.829   3.071  0.6895  0.1724  0.1554
  946SOL    HW1 2837   0.425   0.921   0.019  1.0309 -0.8487  2.1084
  946SOL    HW2 2838   0.485   0.836   2.972  0.0280 -0.8044 -0.5960
  947SOL     OW 2839   1.924   0.252   1.982 -0.1065 -0.0912 -0.2641
  947SOL    HW1 2840   1.855   0.302   2.040  0.2259  1.4247 -0.3063
  947SOL    HW2 2841   1.960   0.170   2.030  0.2809  2.4910 -0.6475
  948SOL     OW 2842   3.052   1.836   1.004 -0.3065 -0.6767 -0.2961
  948SOL    HW1 2843   2.956   1.865   1.032 -2.7647  0.1259 -1.9778
  948SOL    HW2 2844   3.062   1.831   0.905 -2.8269  0.8094  1.7599
  949SOL     OW 2845   1.272   1.246   1.646  0.0510  0.6695  0.0565
  949SOL    HW1 2846   1.214   1.183   1.594  1.5098 -1.2672 -1.7424
  949SOL    HW2 2847   1.212   1.314   1.694 -1.7847 -0.5713  1.0675
  950SOL     OW 2848   0.239   1.048   0.852  0.3494  0.1254  0.5980
  950SOL    HW1 2849   0.239   0.951   0.822 -0.9143  0.9742 -1.3611
  950SOL    HW2 2850   0.326   1.075   0.899  0.8147 -1.8567  0.2006
  951SOL     OW 2851   0.277   1.706   2.247  0.3666 -0.4293  0.2280
  951SOL    HW1 2852   0.239   1.753   2.330  1.3086  0.7612 -0.4046
  951SOL    HW2 2853   0.380   1.713   2.243 -0.5430 -0.1750 -1.3719
  952SOL     OW 2854   1.744   1.477   0.210 -0.2590  0.4993 -0.1625
  952SOL    HW1 2855   1.804   1.464   0.135  0.0457 -3.0088  0.3967
  952SOL    HW2 2856   1.679   1.401   0.220 -1.3478  0.1104  0.3397
  953SOL     OW 2857   1.026   0.667   0.230  0.4747 -0.0443 -0.2111
  953SOL    HW1 2858   1.031   0.576   0.191  1.0098 -0.9842 -0.2745
  953SOL    HW2 2859   0.965   0.725   0.165 -0.0485  1.9608 -2.4779
  954SOL     OW 2860   1.926   1.077   0.297  0.1683 -0.0237 -0.2019
  954SOL    HW1 2861   1.924   1.147   0.370 -1.1443  2.5590  0.3738
  954SOL    HW2 2862   1.844   1.087   0.243  0.0273 -0.6068  0.2370
  955SOL     OW 2863   2.409   2.733   2.745  0.1932  0.2208  0.4096
  955SOL    HW1 2864   2.369   2.796   2.815  4.6760  0.4458 -2.3076
  955SOL    HW2 2865   2.463   2.784   2.676 -0.6394 -1.9670  0.5711
  956SOL     OW 2866   1.159   0.696   1.562  0.2420  0.1615  0.3774
  956SOL    HW1 2867   1.186   0.597   1.537 -0.3233 -0.2729 -1.7335
  956SOL    HW2 2868   1.238   0.736   1.609 -1.6620  0.8717 -0.4060
  957SOL     OW 2869   1.636   1.170   1.424  0.5951 -0.2314 -0.3054
  957SOL    HW1 2870   1.724   1.138   1.466 -1.4657  0.7554 -2.3144
  957SOL    HW2 2871   1.586   1.231   1.488  0.5066  2.1420 -0.7782
  958SOL     OW 2872   0.439   2.094   0.519  0.1319  0.3388  0.5473
  958SOL    HW1 2873   0.414   2.006   0.475  0.3470 -0.1453 -1.7462
  958SOL    HW2 2874   0.523   2.133   0.474  1.1419 -1.7292  2.4040
  959SOL     OW 2875   1.865   1.360   1.211 -0.0340  0.1326 -0.0863
  959SOL    HW1 2876   1.786   1.312   1.252  1.0960 -0.4568  0.1186
  959SOL    HW2 2877   1.851   1.458   1.192 -0.8848 -2.0276  1.3084
  960SOL     OW 2878   3.052   1.347   2.825  0.3065  0.7828 -0.0680
  960SOL    HW1 2879   0.049   1.400   2.802 -0.2879  0.4172  1.2615
  960SOL    HW2 2880   2.966   1.398   2.812  1.9031 -0.4171 -0.9421
  961SOL     OW 2881   0.929   1.734   0.539 -0.4473  0.0885 -0.4648
  961SOL    HW1 2882   0.960   1.703   0.452  1.8648 -0.9067  0.2431
  961SOL    HW2 2883   0.982   1.701   0.615 -2.1714  1.8326 -3.9186
  962SOL     OW 2884   0.911   1.136   0.528  0.1720  0.4385 -0.6356
  962SOL    HW1 2885   0.934   1.035   0.529  2.0124 -0.7277  0.0592
  962SOL    HW2 2886   0.829   1.161   0.580  1.4251 -2.2108 -2.7278
  963SOL     OW 2887   1.248   2.028   2.114 -0.1759 -0.0183 -0.2008
  963SOL    HW1 2888   1.308   2.012   2.191 -0.9869 -0.2539 -1.6609
  963SOL    HW2 2889   1.232   1.938   2.065 -0.8589 -2.8546  0.2539
  964SOL     OW 2890   2.705   2.784   2.823  0.2818 -0.1588  0.0001
  964SOL    HW1 2891   2.719   2.851   2.901 -0.8742  1.2436  6.0562
  964SOL    HW2 2892   2.782   2.713   2.816  1.7873 -2.3066  0.4284
  965SOL     OW 2893   0.747   2.377   0.168 -0.3188  0.2668  0.0485
  965SOL    HW1 2894   0.754   2.438   0.086 -1.4282 -0.1070 -1.4209
  965SOL    HW2 2895   0.734   2.424   0.257  0.2494  1.1695  0.9408
  966SOL     OW 2896   2.851   1.751   2.846  0.1310 -0.3258  0.2256
  966SOL    HW1 2897   2.775   1.803   2.893  0.7647  0.9332  0.3678
  966SOL    HW2 2898   2.829   1.743   2.749  1.2692  1.4266  1.2637
  967SOL     OW 2899   1.914   3.035   2.822 -0.3199  0.4020  0.4863
  967SOL    HW1 2900   1.947   0.018   2.760 -2.7598 -1.8842  1.9319
  967SOL    HW2 2901   1.976   2.956   2.813 -0.6280 -0.8120  0.0807
  968SOL     OW 2902   2.117   2.854   0.605  0.1191 -0.0738  0.9344
  968SOL    HW1 2903   2.024   2.825   0.572 -1.5067  3.2379  1.3672
  968SOL    HW2 2904   2.118   2.914   0.684  0.7577 -0.4085 -0.2832
  969SOL     OW 2905   0.903   1.020   2.471 -0.5509  0.2128 -0.4266
  969SOL    HW1 2906   0.890   0.926   2.428 -2.3723  1.1409  0.6027
  969SOL    HW2 2907   0.813   1.063   2.474  3.1459  1.1920  2.4223
  970SOL     OW 2908   1.632   1.250   0.934 -0.4842  0.3491  0.3730
  970SOL    HW1 2909   1.539   1.207   0.918  1.7232  0.4845 -3.8304
  970SOL    HW2 2910   1.652   1.262   1.037 -1.3084  0.6100  2.5485
  971SOL     OW 2911   2.214   3.016   1.508  0.2101  0.5316 -0.0812
  971SOL    HW1 2912   2.211   3.090   1.436 -1.1420 -0.1833 -1.6490
  971SOL    HW2 2913   2.302   2.968   1.512 -0.1257  0.5066  2.0249
  972SOL     OW 2914   3.053   2.939   1.803 -0.7028 -0.0746 -1.2022
  972SOL    HW1 2915   3.080   2.894   1.891  0.5989  2.2455 -1.5788
  972SOL    HW2 2916   3.011   2.882   1.732  0.9940  0.8395  1.7784
  973SOL     OW 2917   0.114   0.215   2.690 -0.0501 -0.6051 -0.2099
  973SOL    HW1 2918   0.135   0.213   2.790 -4.3475 -1.2032  1.7445
  973SOL    HW2 2919   0.029   0.164   2.675 -2.0592  0.0561 -0.7842
  974SOL     OW 2920   2.477   1.112   2.190  0.0884 -0.0468  0.4881
  974SOL    HW1 2921   2.526   1.112   2.278  1.0537 -1.2262  0.3882
  974SOL    HW2 2922   2.390   1.053   2.204 -2.1460 -2.2602  0.9438
  975SOL     OW 2923   0.458   0.294   1.648 -0.0178 -0.3217 -0.4470
  975SOL    HW1 2924   0.418   0.209   1.607 -0.8761 -0.6629 -0.2727
  975SOL    HW2 2925   0.527   0.343   1.591 -1.9805  0.6191  3.4650
  976SOL     OW 2926   0.749   2.066   2.205  0.8611 -0.2244  0.4960
  976SOL    HW1 2927   0.693   2.133   2.152  1.1294  1.2743  1.3718
  976SOL    HW2 2928   0.808   2.110   2.276 -0.7618 -3.4140  1.3377
  977SOL     OW 2929   0.552   0.054   0.499  0.2206 -0.0031  0.5787
  977SOL    HW1 2930   0.592   0.110   0.420  0.9973  1.0436 -1.4679
  977SOL    HW2 2931   0.485   0.106   0.552  2.1479 -2.0199 -1.3809
  978SOL     OW 2932   2.863   1.267   2.041  0.5832 -0.3722  0.0562
  978SOL    HW1 2933   2.961   1.258   2.073  2.6766  2.2354 -1.2755
  978SOL    HW2 2934   2.809   1.302   2.119  0.9863  0.6533 -2.5181
  979SOL     OW 2935   1.874   0.128   1.746 -0.0896  0.6414  0.0442
  979SOL    HW1 2936   1.785   0.135   1.697  0.1089 -1.3548  0.2067
  979SOL    HW2 2937   1.886   0.185   1.835 -0.5059 -0.0565  0.3660
  980SOL     OW 2938   1.741   1.636   1.657 -0.1722 -0.0297  0.8101
  980SOL    HW1 2939   1.818   1.643   1.589 -0.0038 -0.6804  1.4846
  980SOL    HW2 2940   1.654   1.621   1.608  1.7984 -0.4096  1.0122
  981SOL     OW 2941   2.624   0.830   1.482 -0.3907  0.2120  0.0884
  981SOL    HW1 2942   2.598   0.929   1.480 -2.1893 -0.9675  1.5669
  981SOL    HW2 2943   2.610   0.794   1.574 -3.4863 -2.3284  1.3523
  982SOL     OW 2944   0.363   2.841   2.792  0.3572  0.4850  0.0949
  982SOL    HW1 2945   0.443   2.782   2.781  2.0155 -1.3625 -2.0372
  982SOL    HW2 2946   0.280   2.809   2.737 -1.0447  0.6355 -0.7192
  983SOL     OW 2947   2.816   0.539   2.390 -0.4983 -0.5150 -0.6726
  983SOL    HW1 2948   2.816   0.624   2.451  0.0324 -0.4945  2.0482
  983SOL    HW2 2949   2.856   0.558   2.297  0.7537 -1.6292 -0.0515
  984SOL     OW 2950   1.231   3.041   1.899 -0.5670 -0.0555 -0.5019
  984SOL    HW1 2951   1.330   3.020   1.894 -2.6296  0.0053 -2.2559
  984SOL    HW2 2952   1.181   2.957   1.921 -3.2335  3.0197 -0.2557
  985SOL     OW 2953   1.850   2.039   2.157  0.3162 -0.1026 -0.6150
  985SOL    HW1 2954   1.814   2.085   2.072  0.3053  0.3959 -1.4715
  985SOL    HW2 2955   1.785   1.971   2.189  4.3334 -1.6920 -1.0775
  986SOL     OW 2956   2.353   0.413   1.208  1.0543 -0.0366 -0.1670
  986SOL    HW1 2957   2.445   0.379   1.222 -2.3109  1.8896  0.2873
  986SOL    HW2 2958   2.298   0.404   1.290 -0.0623  1.6714 -0.6153
  987SOL     OW 2959   2.696   1.182   1.322  0.5804  0.5165 -0.3812
  987SOL    HW1 2960   2.613   1.129   1.354 -0.7695 -1.6377  2.8544
  987SOL    HW2 2961   2.729   1.129   1.242  0.0830 -1.8647  1.4643
  988SOL     OW 2962   2.761   1.215   1.801 -0.2730 -0.2247  0.5882
  988SOL    HW1 2963   2.798   1.240   1.889 -2.7922 -0.1712 -1.6927
  988SOL    HW2 2964   2.713   1.294   1.760  1.5527  0.1202 -0.0754
  989SOL     OW 2965   1.120   2.218   0.255 -0.4752 -0.4071  0.1173
  989SOL    HW1 2966   1.169   2.287   0.197  1.1281 -2.1781 -0.2933
  989SOL    HW2 2967   1.137   2.123   0.221  1.7772 -1.1630  0.0209
  990SOL     OW 2968   1.557   0.610   2.661 -0.0152 -0.3191 -0.3090
  990SOL    HW1 2969   1.579   0.607   2.561  1.9151 -1.9227  1.3660
  990SOL    HW2 2970   1.487   0.679   2.685  1.6704 -0.7497  0.6719
  991SOL     OW 2971   1.330   0.777   0.560  0.1187  0.1600 -0.3072
  991SOL    HW1 2972   1.371   0.743   0.646 -1.1964 -1.0019 -0.7193
  991SOL    HW2 2973   1.390   0.759   0.483  2.5755 -0.2262  1.0674
  992SOL     OW 2974   2.773   1.895   1.033  0.1918 -0.0905  0.7759
  992SOL    HW1 2975   2.774   1.986   0.983 -0.9373  1.6276 -0.1700
  992SOL    HW2 2976   2.729   1.911   1.123  0.8337  1.4584  0.4040
  993SOL     OW 2977   2.831   0.606   0.922  0.1168 -0.2875 -0.3640
  993SOL    HW1 2978   2.829   0.697   0.968 -0.4171 -0.1447  0.2787
  993SOL    HW2 2979   2.902   0.605   0.847  2.1638 -0.4230  2.0908
  994SOL     OW 2980   0.163   2.043   2.433  0.9454  0.5854 -0.4037
  994SOL    HW1 2981   0.205   2.105   2.500 -0.3513 -1.9369 -2.4412
  994SOL    HW2 2982   0.202   2.054   2.339 -0.0379 -0.6620  0.3852
  995SOL     OW 2983   1.894   0.847   2.812 -0.0103  0.0398  0.1375
  995SOL    HW1 2984   1.872   0.767   2.871 -1.0728  1.2820 -1.5931
  995SOL    HW2 2985   1.854   0.840   2.719  1.6575  0.0856 -0.4645
  996SOL     OW 2986   2.871   1.477   0.575  0.5262 -0.3408 -0.2630
  996SOL    HW1 2987   2.816   1.417   0.519  2.0408 -0.4780  1.0392
  996SOL    HW2 2988   2.946   1.511   0.514  0.0484  0.8290 -1.5490
  997SOL     OW 2989   1.832   0.780   2.138 -0.2371  0.0489  0.5443
  997SOL    HW1 2990   1.854   0.758   2.233  0.4986  0.1888 -2.2730
  997SOL    HW2 2991   1.912   0.813   2.085 -1.6152 -1.9147 -1.1671
  998SOL     OW 2992   2.777   1.628   0.251  0.2821 -0.2943 -0.0104
  998SOL    HW1 2993   2.728   1.709   0.294 -1.2577 -0.9180  1.1195
  998SOL    HW2 2994   2.874   1.623   0.272  0.7576 -0.8329  0.2188
  999SOL     OW 2995   3.041   2.349   0.079 -0.3017  0.4109  0.0973
  999SOL    HW1 2996   3.066   2.254   0.117  1.7289 -1.1482  1.6344
  999SOL    HW2 2997   2.969   2.388   0.143 -0.3729 -0.6996 -1.8510
 1000SOL     OW 2998   0.876   0.740   2.732  0.4952  0.3343  0.1232
 1000SOL    HW1 2999   0.876   0.689   2.820 -0.8207 -0.2250  2.0846
 1000SOL    HW2 3000   0.959   0.729   2.677 -1.8477 -0.1107  0.4476
   3.09112   3.09112   3.09112
