1000 SPC/Fw water molecules t= 452.00000 step= 452000
 3000
    1SOL     OW    1   0.043   3.012   1.512 -0.0379  0.3510 -0.2716
    1SOL    HW1    2   0.003   2.953   1.441  1.7705 -1.3433  1.0579
    1SOL    HW2    3   0.034   2.961   1.601  0.0209 -3.4783  1.9426
    2SOL     OW    4   2.911   0.128   0.037 -0.1737  0.0384 -0.5793
    2SOL    HW1    5   2.945   0.032   0.047 -1.2652 -2.9101 -2.3237
    2SOL    HW2    6   2.836   0.149   0.106 -1.9553 -1.6834  0.9563
    3SOL     OW    7   1.399   2.717   0.171 -0.1001  0.3155 -0.3452
    3SOL    HW1    8   1.368   2.633   0.119 -1.6139 -1.6252 -2.1239
    3SOL    HW2    9   1.499   2.719   0.189 -1.7023  1.8919 -0.5522
    4SOL     OW   10   1.194   2.689   2.459 -0.1572  0.1847 -0.1849
    4SOL    HW1   11   1.296   2.682   2.473 -1.8331  1.0240  2.0776
    4SOL    HW2   12   1.144   2.684   2.547 -1.4923 -2.0909  1.7732
    5SOL     OW   13   2.316   0.330   2.147  0.7866 -0.8114 -0.1311
    5SOL    HW1   14   2.344   0.299   2.053  1.7899  0.2987 -1.0504
    5SOL    HW2   15   2.337   0.431   2.142 -1.2559  1.0449  0.0089
    6SOL     OW   16   2.667   1.976   1.287  0.0931 -0.0919  0.0090
    6SOL    HW1   17   2.652   1.902   1.218  0.4776  1.6028  0.0922
    6SOL    HW2   18   2.679   2.068   1.246  0.9985 -2.2125  0.0655
    7SOL     OW   19   1.133   2.104   0.598  0.2675 -0.3939  0.3745
    7SOL    HW1   20   1.119   2.082   0.694 -0.8391  2.1657  1.2232
    7SOL    HW2   21   1.048   2.151   0.562 -1.3999 -1.8377  0.1910
    8SOL     OW   22   0.337   0.834   0.622 -0.4889 -0.4226 -0.3776
    8SOL    HW1   23   0.404   0.885   0.564  0.7122 -0.2604  0.6959
    8SOL    HW2   24   0.307   0.752   0.566  0.9071 -1.2635 -1.5494
    9SOL     OW   25   0.304   2.980   1.437 -0.1942  0.0525  0.1848
    9SOL    HW1   26   0.294   2.877   1.446  0.9981  1.1404 -1.5606
    9SOL    HW2   27   0.222   3.027   1.476 -1.2869  1.5438  0.6985
   10SOL     OW   28   1.131   2.505   0.748 -0.2778 -0.5023  0.4223
   10SOL    HW1   29   1.072   2.425   0.766  2.5016 -0.2097  0.1378
   10SOL    HW2   30   1.067   2.580   0.719  0.6405  2.3297 -0.4505
   11SOL     OW   31   2.336   1.182   1.295 -0.0403 -0.1087  0.2268
   11SOL    HW1   32   2.325   1.138   1.206  1.9960  1.2131  0.6478
   11SOL    HW2   33   2.257   1.153   1.352  1.3478  0.3039 -0.4608
   12SOL     OW   34   0.098   0.868   1.974 -0.3603  0.3809  0.1214
   12SOL    HW1   35   0.146   0.882   1.883  3.9258  1.4689 -0.8939
   12SOL    HW2   36   0.162   0.838   2.049  0.1637 -3.9300  1.7819
   13SOL     OW   37   2.402   0.083   0.008 -0.1232  0.1701  0.1817
   13SOL    HW1   38   2.437   3.104   0.004  1.0455  0.5835 -3.9165
   13SOL    HW2   39   2.305   0.091   3.094 -3.5596 -0.4932 -0.6275
   14SOL     OW   40   1.631   1.990   0.099  0.3612 -0.2530  0.0451
   14SOL    HW1   41   1.569   1.989   0.183  0.8603 -1.4381 -1.7089
   14SOL    HW2   42   1.591   2.044   0.026 -1.0790 -1.5785 -0.5507
   15SOL     OW   43   3.014   2.330   2.154 -0.4821  0.5824  0.4109
   15SOL    HW1   44   3.086   2.406   2.159  0.0101 -0.9080  0.1917
   15SOL    HW2   45   3.063   2.243   2.125  3.3223  1.2577 -1.3376
   16SOL     OW   46   2.929   0.616   1.068  0.5367 -0.4449 -0.2023
   16SOL    HW1   47   2.954   0.553   0.995 -0.9789  0.0602  1.4168
   16SOL    HW2   48   2.894   0.555   1.145  0.4948 -1.4494 -3.2791
   17SOL     OW   49   0.799   0.343   0.795 -0.2054  0.8265  0.5284
   17SOL    HW1   50   0.818   0.344   0.894 -0.6890 -0.4484 -0.9037
   17SOL    HW2   51   0.883   0.308   0.745 -0.5096  0.1975  0.5342
   18SOL     OW   52   0.229   0.266   0.490  0.1606  0.1794 -0.1575
   18SOL    HW1   53   0.138   0.292   0.523  2.6383 -1.6006  1.8211
   18SOL    HW2   54   0.274   0.202   0.552 -0.1588 -0.0033 -2.3910
   19SOL     OW   55   1.538   1.075   0.857 -0.5385  0.1431 -0.1990
   19SOL    HW1   56   1.494   1.155   0.815 -0.3343 -1.2444 -3.9896
   19SOL    HW2   57   1.515   1.074   0.960 -0.7988 -1.5189  3.2107
   20SOL     OW   58   2.200   1.872   2.661 -0.0224 -0.6891  0.4884
   20SOL    HW1   59   2.208   1.963   2.619 -0.5661 -1.8276 -1.7648
   20SOL    HW2   60   2.276   1.843   2.719 -0.9079  0.1555 -1.5644
   21SOL     OW   61   1.279   2.782   0.636  0.3024  0.0629  0.1743
   21SOL    HW1   62   1.313   2.686   0.610  0.5502  0.0176 -2.3413
   21SOL    HW2   63   1.354   2.852   0.642  3.3247  0.1401  1.0274
   22SOL     OW   64   2.160   0.977   0.358  0.4591  0.1641  0.0477
   22SOL    HW1   65   2.209   0.968   0.447  0.7770  1.0851 -0.7185
   22SOL    HW2   66   2.089   0.901   0.349 -2.0249  0.7447 -0.6247
   23SOL     OW   67   0.810   0.476   1.851  0.1836  0.0496 -0.3227
   23SOL    HW1   68   0.817   0.449   1.754 -2.4586  1.1597 -0.7081
   23SOL    HW2   69   0.903   0.519   1.870  1.4168 -1.9877 -0.4226
   24SOL     OW   70   1.876   2.318   0.563  0.2982  0.3397 -0.1896
   24SOL    HW1   71   1.920   2.268   0.487  0.2306  1.3763  0.3722
   24SOL    HW2   72   1.908   2.415   0.558  0.1351  0.9608 -2.0104
   25SOL     OW   73   1.763   0.019   2.524  0.3333  0.2170  0.2940
   25SOL    HW1   74   1.717   0.063   2.605 -1.0299  1.1819 -0.3693
   25SOL    HW2   75   1.773   0.097   2.460 -0.6635  1.1949 -1.5036
   26SOL     OW   76   1.458   2.763   2.845 -0.0312  0.4874 -0.2829
   26SOL    HW1   77   1.530   2.695   2.824  1.3697 -1.2506  3.1876
   26SOL    HW2   78   1.360   2.731   2.836  0.4818  1.1781 -1.8465
   27SOL     OW   79   1.255   0.268   1.037  0.2084 -0.2904 -0.0495
   27SOL    HW1   80   1.178   0.262   1.103  0.5878  1.9037 -2.0123
   27SOL    HW2   81   1.304   0.181   1.013  1.1287  0.7864 -0.3775
   28SOL     OW   82   0.411   1.860   1.113 -0.2600  0.5845  0.0902
   28SOL    HW1   83   0.512   1.850   1.108  1.2844  0.1536 -0.2549
   28SOL    HW2   84   0.374   1.777   1.158  0.1870 -0.9558 -0.2700
   29SOL     OW   85   2.668   0.920   1.276  0.1715 -0.7010  0.0761
   29SOL    HW1   86   2.585   0.964   1.235 -1.8140  1.2365 -1.8173
   29SOL    HW2   87   2.661   0.939   1.377 -1.9136  0.3715  0.0288
   30SOL     OW   88   1.740   2.490   1.493 -0.5308  0.5225  0.0277
   30SOL    HW1   89   1.824   2.543   1.526 -0.1866  0.1164  1.4913
   30SOL    HW2   90   1.738   2.480   1.394  1.3422 -2.3657  1.3296
   31SOL     OW   91   1.966   2.842   1.266 -0.2430  0.0702  0.0057
   31SOL    HW1   92   1.929   2.749   1.246 -0.6813 -0.5608 -1.6546
   31SOL    HW2   93   2.068   2.854   1.248 -0.1506  1.3026 -0.7790
   32SOL     OW   94   2.149   1.498   1.983  0.1412 -0.2446 -0.6635
   32SOL    HW1   95   2.209   1.454   2.051  0.0646 -0.9235 -1.9140
   32SOL    HW2   96   2.168   1.453   1.893  2.8199 -0.4320 -3.1247
   33SOL     OW   97   2.348   3.045   2.406  0.0704  0.3874 -0.5774
   33SOL    HW1   98   2.428   3.094   2.373  1.4257 -2.2508 -1.9213
   33SOL    HW2   99   2.275   3.057   2.340 -0.9427  0.4654 -1.6991
   34SOL     OW  100   2.095   0.665   0.807  0.4305 -0.0350 -0.0719
   34SOL    HW1  101   2.137   0.585   0.770 -1.7773  0.5815  0.0939
   34SOL    HW2  102   2.000   0.666   0.767 -3.1277 -3.0340  0.2796
   35SOL     OW  103   0.122   1.443   1.900  0.2141 -0.3811 -0.0116
   35SOL    HW1  104   0.192   1.412   1.968  2.4239 -0.2638 -1.6035
   35SOL    HW2  105   0.049   1.487   1.951  0.2650 -0.3430 -2.2879
   36SOL     OW  106   2.538   2.257   2.830 -0.4251 -0.4528  0.9634
   36SOL    HW1  107   2.625   2.254   2.883 -0.7932  0.8047  1.7993
   36SOL    HW2  108   2.458   2.245   2.886  3.7282 -1.2083  1.5743
   37SOL     OW  109   1.150   2.848   1.761  0.1815  0.0970  0.1213
   37SOL    HW1  110   1.200   2.925   1.809  0.6415 -0.9132  0.2161
   37SOL    HW2  111   1.196   2.758   1.770  0.5632  0.9748 -1.0661
   38SOL     OW  112   0.845   0.897   2.309 -0.2317 -0.6723 -0.3125
   38SOL    HW1  113   0.890   0.808   2.295  1.7290  1.3670  1.1811
   38SOL    HW2  114   0.877   0.962   2.234  1.8228  0.1554 -0.4210
   39SOL     OW  115   1.977   0.779   1.757 -0.2455  0.1975  0.0303
   39SOL    HW1  116   1.986   0.715   1.679  0.9899 -0.6622  0.8770
   39SOL    HW2  117   1.975   0.724   1.843 -1.0728 -2.9882 -3.0107
   40SOL     OW  118   0.751   2.449   0.652  0.2364  0.1976 -0.7967
   40SOL    HW1  119   0.833   2.405   0.696 -0.9595  0.8959  1.9145
   40SOL    HW2  120   0.706   2.372   0.600 -0.3197 -0.5192 -2.2988
   41SOL     OW  121   2.386   2.054   1.203  0.0982  0.0008 -0.1998
   41SOL    HW1  122   2.474   2.010   1.219 -1.5339 -0.4954 -0.5436
   41SOL    HW2  123   2.380   2.138   1.258 -0.8369  0.3393  1.6843
   42SOL     OW  124   2.385   0.712   0.531  0.1186  0.0755 -0.4695
   42SOL    HW1  125   2.478   0.712   0.489 -1.3790 -1.1678  1.3985
   42SOL    HW2  126   2.384   0.651   0.610  2.0929 -0.3426 -1.0852
   43SOL     OW  127   0.625   1.050   2.442 -0.3715  0.0851 -0.5090
   43SOL    HW1  128   0.643   1.147   2.437 -0.1913  0.3239 -1.8917
   43SOL    HW2  129   0.703   0.995   2.403 -0.0734 -0.2484  1.6585
   44SOL     OW  130   1.892   2.593   1.235 -0.0078  0.3692 -0.4912
   44SOL    HW1  131   1.801   2.545   1.235 -3.2562  1.6760  1.0901
   44SOL    HW2  132   1.966   2.536   1.273  1.0164  2.5907 -1.2113
   45SOL     OW  133   0.440   2.511   2.961 -0.1207  0.3253  0.3179
   45SOL    HW1  134   0.472   2.530   3.059  1.6028 -0.5665  1.2092
   45SOL    HW2  135   0.513   2.532   2.895 -0.5155  0.1121  1.2385
   46SOL     OW  136   0.464   2.824   1.989  0.0379 -0.5723  0.0966
   46SOL    HW1  137   0.554   2.862   1.959  0.6835  0.5330  0.8949
   46SOL    HW2  138   0.479   2.771   2.080 -0.1258 -1.7232  1.3949
   47SOL     OW  139   0.319   1.855   0.632  0.6350 -1.1724  0.2652
   47SOL    HW1  140   0.395   1.793   0.613 -2.1206  0.3215  1.8060
   47SOL    HW2  141   0.320   1.903   0.721  0.6185 -0.0566  0.1798
   48SOL     OW  142   0.773   2.967   1.218 -0.6266  0.0463 -0.4399
   48SOL    HW1  143   0.789   2.957   1.320  0.5266  0.2375  2.5518
   48SOL    HW2  144   0.681   2.945   1.197  2.5064 -0.8253  1.2001
   49SOL     OW  145   3.009   2.759   2.864 -0.0796 -0.3708 -0.2238
   49SOL    HW1  146   2.907   2.758   2.868 -0.7424 -0.2785  1.2164
   49SOL    HW2  147   3.056   2.683   2.914 -0.1229 -0.9483 -1.6523
   50SOL     OW  148   1.279   1.025   0.239 -0.2805 -0.0485  0.4453
   50SOL    HW1  149   1.201   1.076   0.200  2.1753  3.2870  1.6292
   50SOL    HW2  150   1.363   1.079   0.226 -1.1206  1.3208  0.1076
   51SOL     OW  151   1.965   0.198   0.606  0.8184  0.4521  0.3077
   51SOL    HW1  152   1.913   0.219   0.521  1.6627  0.9981  0.8782
   51SOL    HW2  153   1.911   0.195   0.695 -1.0741 -0.8643  3.2773
   52SOL     OW  154   0.334   1.645   0.852  0.6102 -0.4859 -0.1116
   52SOL    HW1  155   0.385   1.725   0.898  3.9725  1.4435  0.3103
   52SOL    HW2  156   0.371   1.557   0.891  3.1140  1.2299 -0.7619
   53SOL     OW  157   0.110   1.216   2.913  0.6031 -0.0439 -0.5082
   53SOL    HW1  158   0.010   1.207   2.887 -0.4149 -0.8856 -0.8325
   53SOL    HW2  159   0.137   1.206   3.012  2.5297 -2.4676  0.2686
   54SOL     OW  160   2.663   2.257   3.106 -0.4816  0.4423  0.6454
   54SOL    HW1  161   2.733   2.277   0.060 -2.1606  1.6033 -1.5589
   54SOL    HW2  162   2.591   2.327   3.114 -0.5600 -0.0753  2.4040
   55SOL     OW  163   2.686   2.250   1.215 -0.5919 -0.2621 -0.1366
   55SOL    HW1  164   2.762   2.305   1.260  0.7850 -0.3192  2.5858
   55SOL    HW2  165   2.606   2.261   1.272  0.8371  0.7526 -0.1417
   56SOL     OW  166   1.871   0.351   1.384  0.4942 -0.4839 -0.8598
   56SOL    HW1  167   1.796   0.417   1.406  1.1559  0.9521 -0.4880
   56SOL    HW2  168   1.894   0.294   1.464 -0.7494 -1.4512 -0.0028
   57SOL     OW  169   2.114   2.018   1.283 -0.2394  0.0215 -0.2478
   57SOL    HW1  170   2.204   2.018   1.242  0.0700  1.6601  1.3306
   57SOL    HW2  171   2.046   2.013   1.209 -0.3713 -3.0328 -0.5206
   58SOL     OW  172   2.663   0.459   2.054  0.1471  0.0322  0.4741
   58SOL    HW1  173   2.702   0.475   2.146  0.6729  4.1047 -0.6911
   58SOL    HW2  174   2.562   0.483   2.051  0.1272 -1.4486 -0.7497
   59SOL     OW  175   1.325   2.581   2.074 -0.1364  0.2553 -0.0078
   59SOL    HW1  176   1.241   2.577   2.132  3.8220  1.8959  3.6328
   59SOL    HW2  177   1.307   2.602   1.978  0.4221  0.6569 -2.1268
   60SOL     OW  178   0.683   2.556   2.841  0.2803 -0.7450 -0.1541
   60SOL    HW1  179   0.774   2.542   2.882 -2.2794 -1.3493 -0.9861
   60SOL    HW2  180   0.685   2.606   2.751  0.7856 -0.7338  0.1843
   61SOL     OW  181   0.527   2.154   0.321  0.6800  0.5198 -0.1984
   61SOL    HW1  182   0.560   2.205   0.240 -0.6463 -0.7521 -0.8708
   61SOL    HW2  183   0.531   2.053   0.299  0.0250  0.2634 -3.9690
   62SOL     OW  184   1.347   1.591   1.831 -0.7192  0.5362  0.2141
   62SOL    HW1  185   1.284   1.665   1.798  1.2821 -0.5484  0.6904
   62SOL    HW2  186   1.448   1.618   1.830  1.0611  1.3232 -2.9043
   63SOL     OW  187   0.939   2.026   0.783 -0.2666 -0.2268  0.0932
   63SOL    HW1  188   0.848   2.019   0.733  1.5667  2.8599  1.0409
   63SOL    HW2  189   0.951   1.948   0.846  2.0180 -1.4848 -1.5099
   64SOL     OW  190   1.324   1.503   2.677 -0.2415 -0.0613 -0.2667
   64SOL    HW1  191   1.286   1.555   2.751 -0.6176 -0.9088  1.9480
   64SOL    HW2  192   1.248   1.487   2.612 -2.0478 -0.0680  1.4254
   65SOL     OW  193   1.776   2.041   2.135  0.2010  0.1356  0.5037
   65SOL    HW1  194   1.863   2.006   2.095  1.0669 -0.4576 -0.0458
   65SOL    HW2  195   1.750   1.980   2.210  3.7532  2.8004 -0.9313
   66SOL     OW  196   0.014   1.007   1.000 -0.0906  0.3859  0.4819
   66SOL    HW1  197   3.057   0.980   1.064 -1.3615  2.5271  0.4594
   66SOL    HW2  198   0.017   0.962   0.912 -1.0377  1.0599  1.7618
   67SOL     OW  199   2.217   2.385   0.672  0.1960  0.3356  0.1534
   67SOL    HW1  200   2.212   2.284   0.675  0.7058 -1.3146  0.7885
   67SOL    HW2  201   2.168   2.417   0.590  0.9501 -1.0564  0.1943
   68SOL     OW  202   2.521   2.665   1.708  0.3915  0.1536 -0.2394
   68SOL    HW1  203   2.605   2.719   1.696  2.5581  3.0268  0.9568
   68SOL    HW2  204   2.536   2.594   1.778 -1.1424  0.0750 -0.4818
   69SOL     OW  205   2.459   2.704   0.009 -0.3400  0.3080 -0.0018
   69SOL    HW1  206   2.386   2.721   3.059  1.6223 -0.4505 -1.2339
   69SOL    HW2  207   2.497   2.792   0.036  1.7579  1.3440 -0.8387
   70SOL     OW  208   0.603   1.374   2.737  0.0050 -0.0548 -0.7851
   70SOL    HW1  209   0.680   1.349   2.800 -0.9836  2.6341  0.7246
   70SOL    HW2  210   0.512   1.348   2.771  1.8928  2.8013 -2.0038
   71SOL     OW  211   0.759   1.193   2.194 -0.0217  0.3091  0.1463
   71SOL    HW1  212   0.663   1.216   2.155 -2.1141  0.4612  1.0993
   71SOL    HW2  213   0.776   1.244   2.280  0.4196  1.4647 -0.3864
   72SOL     OW  214   2.841   1.427   1.733 -0.1826 -0.7956 -0.5031
   72SOL    HW1  215   2.917   1.487   1.692  0.9784  0.6851 -1.1791
   72SOL    HW2  216   2.829   1.445   1.832  2.5562 -1.1280  0.6418
   73SOL     OW  217   0.882   1.947   2.431  0.0357  0.1299  0.1145
   73SOL    HW1  218   0.788   1.976   2.460 -1.1464  0.3901  0.3980
   73SOL    HW2  219   0.899   1.978   2.335 -1.2437 -0.2566  0.1143
   74SOL     OW  220   1.722   0.025   1.849 -0.5758 -0.2757 -0.4325
   74SOL    HW1  221   1.775   3.058   1.820  0.1253  0.5207  0.0856
   74SOL    HW2  222   1.700   0.029   1.950 -0.4111  0.7605 -1.5100
   75SOL     OW  223   1.126   2.815   0.885 -0.4251 -0.1883 -0.4296
   75SOL    HW1  224   1.048   2.749   0.880 -1.4223  0.0659  1.3883
   75SOL    HW2  225   1.194   2.805   0.809  1.7471  1.7799  1.8148
   76SOL     OW  226   0.612   1.845   2.799 -0.7926  0.8450  0.3161
   76SOL    HW1  227   0.701   1.859   2.849  2.1416 -1.2534  0.5615
   76SOL    HW2  228   0.624   1.755   2.750  1.0040 -1.1395 -1.4483
   77SOL     OW  229   0.566   2.511   1.182 -0.2319  0.1562 -0.0003
   77SOL    HW1  230   0.522   2.594   1.206 -0.1957 -4.3701 -1.8488
   77SOL    HW2  231   0.575   2.510   1.080 -3.5539  0.7726  4.3337
   78SOL     OW  232   2.391   1.404   0.182 -0.0547  0.5224 -0.1268
   78SOL    HW1  233   2.424   1.307   0.164 -0.7666  0.8642 -0.9241
   78SOL    HW2  234   2.453   1.448   0.256  1.7235 -1.5501  1.1379
   79SOL     OW  235   0.451   1.684   3.017  0.3262 -0.0700 -0.3983
   79SOL    HW1  236   0.451   1.589   3.057 -1.5031  0.4097  1.5704
   79SOL    HW2  237   0.531   1.712   2.965 -4.1254  1.2290  2.5838
   80SOL     OW  238   1.884   1.680   1.715  0.1589  0.1442 -0.0766
   80SOL    HW1  239   1.848   1.737   1.638 -0.9947 -1.8042 -1.5056
   80SOL    HW2  240   1.803   1.644   1.767 -0.5478  0.7061  2.0556
   81SOL     OW  241   2.232   0.899   2.337 -0.4698 -0.6165 -0.2379
   81SOL    HW1  242   2.177   0.814   2.333 -0.4023 -0.1845 -0.0877
   81SOL    HW2  243   2.205   0.961   2.261  2.1575 -1.1361 -3.0516
   82SOL     OW  244   1.775   1.873   1.534 -0.2448 -0.1671  0.2841
   82SOL    HW1  245   1.682   1.866   1.560  5.0489  1.4201 -3.2812
   82SOL    HW2  246   1.802   1.976   1.523 -0.3276  3.2219 -0.8193
   83SOL     OW  247   2.987   0.021   2.696  0.1588  0.1769  0.1865
   83SOL    HW1  248   2.985   3.075   2.616 -1.1681 -0.3880  1.7199
   83SOL    HW2  249   2.891   0.033   2.737 -0.9728 -1.1982  1.4363
   84SOL     OW  250   0.809   1.092   0.313 -0.1440 -0.0638  0.0067
   84SOL    HW1  251   0.772   1.053   0.226  0.6887 -1.8258 -0.9114
   84SOL    HW2  252   0.836   1.013   0.371 -1.0354 -1.0474 -0.0792
   85SOL     OW  253   2.138   1.721   1.331  0.4490 -0.5409 -0.6071
   85SOL    HW1  254   2.128   1.824   1.332 -2.0085  1.6176  0.6311
   85SOL    HW2  255   2.127   1.694   1.232 -2.0093  1.5675 -1.3095
   86SOL     OW  256   0.699   0.817   1.102  0.1007  0.0294  0.0096
   86SOL    HW1  257   0.747   0.903   1.133  2.6394  1.8579  2.3386
   86SOL    HW2  258   0.631   0.776   1.168 -0.4440 -1.2524  0.8768
   87SOL     OW  259   2.810   2.161   2.619  0.1715 -0.0887 -0.3836
   87SOL    HW1  260   2.713   2.165   2.641  2.4354  3.5192 -0.1015
   87SOL    HW2  261   2.832   2.182   2.520 -1.1125 -4.1222  0.0769
   88SOL     OW  262   0.059   2.946   0.261  0.1374 -0.1900 -0.4056
   88SOL    HW1  263   0.148   2.985   0.228 -0.9185  0.2366 -2.6469
   88SOL    HW2  264   0.001   3.017   0.304  3.7907  0.8693  1.2132
   89SOL     OW  265   1.367   0.026   0.583  0.1431  0.5525 -0.6011
   89SOL    HW1  266   1.390   3.053   0.534  0.9247 -2.3609 -1.9114
   89SOL    HW2  267   1.445   0.089   0.582  1.1130  1.9317 -1.8936
   90SOL     OW  268   2.678   1.029   2.247  0.5397  0.1176  0.1533
   90SOL    HW1  269   2.657   1.104   2.314 -1.8919  1.0029 -1.1698
   90SOL    HW2  270   2.776   1.038   2.222  0.0902  1.5437  0.9666
   91SOL     OW  271   2.039   3.071   1.060  0.0512 -0.0132  0.2026
   91SOL    HW1  272   2.105   3.094   1.134 -1.4008  1.0995 -0.2195
   91SOL    HW2  273   2.082   3.002   0.999 -2.9495 -2.2544  0.1373
   92SOL     OW  274   1.522   1.742   0.818  0.1896 -0.4083 -0.3938
   92SOL    HW1  275   1.547   1.691   0.736 -1.4387  1.0518  0.9854
   92SOL    HW2  276   1.587   1.823   0.827 -0.7242  2.2901 -1.3698
   93SOL     OW  277   0.195   1.593   0.384 -0.2987 -0.3050  0.1631
   93SOL    HW1  278   0.127   1.673   0.387  1.2304  0.7675 -0.1029
   93SOL    HW2  279   0.278   1.634   0.340 -0.8006 -1.2610  1.4960
   94SOL     OW  280   0.965   2.628   1.308 -0.0688  0.3345 -0.3642
   94SOL    HW1  281   1.054   2.614   1.362  3.4543  0.8333  0.7930
   94SOL    HW2  282   0.981   2.625   1.208  1.8644 -1.9811 -1.2276
   95SOL     OW  283   0.076   0.891   0.737 -0.1422 -0.0352 -0.2610
   95SOL    HW1  284   0.167   0.878   0.696 -0.4469  0.1617  1.3075
   95SOL    HW2  285   0.020   0.808   0.737  0.7009 -1.0161  0.2628
   96SOL     OW  286   0.684   2.960   1.916  0.0758 -0.1035 -0.2833
   96SOL    HW1  287   0.639   2.936   1.826 -0.5822  0.7930  0.2957
   96SOL    HW2  288   0.776   2.923   1.908 -1.9462 -0.7461  0.6172
   97SOL     OW  289   2.405   1.069   0.937 -0.5792 -0.2777  0.4540
   97SOL    HW1  290   2.396   1.004   1.020 -2.0597 -2.6648 -1.0225
   97SOL    HW2  291   2.331   1.054   0.870  2.8631 -1.4500  1.5783
   98SOL     OW  292   0.053   2.306   1.883  0.0190 -0.3474  0.3211
   98SOL    HW1  293   0.093   2.374   1.952  0.7214  1.8109  2.8681
   98SOL    HW2  294   3.072   2.321   1.862  0.9129 -0.2668  0.7707
   99SOL     OW  295   2.858   0.303   1.494  0.3240  0.0073  0.0246
   99SOL    HW1  296   2.940   0.247   1.500  0.1569 -0.7995  2.3023
   99SOL    HW2  297   2.877   0.392   1.539  1.2474 -1.8939  2.3476
  100SOL     OW  298   1.964   0.263   2.662 -0.2647 -0.5036 -0.2611
  100SOL    HW1  299   2.056   0.232   2.638 -0.7561 -1.3885  0.2304
  100SOL    HW2  300   1.903   0.265   2.579 -0.9142  1.0348  0.4858
  101SOL     OW  301   1.098   0.007   2.086  0.3311  0.2078  0.2095
  101SOL    HW1  302   1.002   3.102   2.112  1.9448  0.7696 -0.1230
  101SOL    HW2  303   1.152   3.108   2.173 -0.9435 -0.9041  2.8313
  102SOL     OW  304   0.857   0.734   1.629 -0.8387 -0.1957 -0.0743
  102SOL    HW1  305   0.774   0.682   1.648 -0.5465 -0.5247  1.7283
  102SOL    HW2  306   0.850   0.767   1.531 -3.9163  0.1893  1.0606
  103SOL     OW  307   0.885   0.779   2.828  0.2796  0.5156 -0.0902
  103SOL    HW1  308   0.969   0.742   2.788  2.1145 -0.3462  0.3688
  103SOL    HW2  309   0.834   0.709   2.880  2.0854  1.1253  0.9137
  104SOL     OW  310   0.335   0.384   2.082 -0.2787 -0.1137  0.0209
  104SOL    HW1  311   0.430   0.361   2.052 -0.6577 -1.0842 -1.1463
  104SOL    HW2  312   0.309   0.339   2.172  0.3929  0.5792 -1.8969
  105SOL     OW  313   2.700   2.341   1.636  0.2325 -0.0146  0.0694
  105SOL    HW1  314   2.695   2.235   1.622 -0.5242 -3.6876  0.4253
  105SOL    HW2  315   2.756   2.363   1.720  1.0667  1.0060  0.0436
  106SOL     OW  316   0.964   3.026   0.805  0.7459 -0.1865 -0.0990
  106SOL    HW1  317   0.991   3.072   0.720 -0.3498  0.1422 -0.9867
  106SOL    HW2  318   1.015   2.941   0.822  1.5825  0.6027  0.0093
  107SOL     OW  319   3.018   2.098   1.535 -0.3878 -0.1904 -0.6100
  107SOL    HW1  320   3.058   2.037   1.466 -2.6780  1.4675  1.5205
  107SOL    HW2  321   2.978   2.040   1.613  1.0647  0.4015  3.2775
  108SOL     OW  322   0.086   2.208   0.573  1.0767 -0.2367 -0.3274
  108SOL    HW1  323   0.178   2.159   0.564  1.0225 -0.2478  0.6306
  108SOL    HW2  324   0.051   2.184   0.667  3.4932 -1.9216 -0.5107
  109SOL     OW  325   1.726   2.862   0.778 -0.2803 -0.1376 -0.1202
  109SOL    HW1  326   1.802   2.838   0.713 -0.4094  2.1328 -1.3161
  109SOL    HW2  327   1.756   2.935   0.837 -0.5543 -2.0285 -3.6979
  110SOL     OW  328   1.751   1.905   0.837  0.0915  0.3218 -0.3496
  110SOL    HW1  329   1.776   1.999   0.815  0.8494  0.6420 -1.3708
  110SOL    HW2  330   1.832   1.863   0.885 -0.5974  0.5573 -4.3043
  111SOL     OW  331   1.861   2.690   1.923  0.2053 -0.1428 -0.0958
  111SOL    HW1  332   1.963   2.701   1.938  0.2099  0.8879  1.9943
  111SOL    HW2  333   1.812   2.746   1.995 -2.0005  3.2814  0.1428
  112SOL     OW  334   1.682   2.210   2.519  0.5903 -0.6465 -0.0041
  112SOL    HW1  335   1.600   2.154   2.500 -0.3581  0.4214  1.6059
  112SOL    HW2  336   1.667   2.297   2.469 -3.3877 -0.2609  0.7956
  113SOL     OW  337   2.226   1.926   2.129 -0.4256 -0.3007 -0.3575
  113SOL    HW1  338   2.170   1.854   2.174 -0.5356  0.8131 -0.5063
  113SOL    HW2  339   2.168   1.963   2.052 -0.4299 -0.5988 -0.6729
  114SOL     OW  340   0.138   1.252   1.057  0.4464 -0.6714  0.2260
  114SOL    HW1  341   0.113   1.152   1.059 -0.8617  1.2483  1.9722
  114SOL    HW2  342   0.058   1.307   1.100  0.2009  2.4654  1.6799
  115SOL     OW  343   2.704   0.687   2.710  0.0611  0.0687 -0.3548
  115SOL    HW1  344   2.743   0.782   2.707  2.0273  0.8983 -1.2870
  115SOL    HW2  345   2.658   0.663   2.621 -0.8057 -2.1477 -0.2534
  116SOL     OW  346   2.793   0.469   2.852 -0.2627 -0.2231 -0.2194
  116SOL    HW1  347   2.743   0.555   2.834 -0.6236 -1.8686 -0.0966
  116SOL    HW2  348   2.770   0.399   2.777 -0.1279 -1.2904 -2.1765
  117SOL     OW  349   2.474   2.699   0.622 -0.0725 -0.4534  0.0848
  117SOL    HW1  350   2.525   2.618   0.664 -1.8942 -2.1546  1.6035
  117SOL    HW2  351   2.507   2.712   0.526  1.9164  1.3677 -0.6051
  118SOL     OW  352   0.909   2.042   2.193  0.3346 -0.1533 -0.3579
  118SOL    HW1  353   0.831   2.101   2.155 -1.7420  0.5348 -0.7010
  118SOL    HW2  354   0.950   1.984   2.121 -1.0287  0.8863 -2.1900
  119SOL     OW  355   0.794   2.906   0.404 -0.1401 -0.0986  0.1520
  119SOL    HW1  356   0.879   2.915   0.348 -2.7184 -0.2317 -1.1545
  119SOL    HW2  357   0.770   2.812   0.425  0.3985 -2.4731  1.9042
  120SOL     OW  358   1.313   0.540   0.420 -0.2994  0.2223  0.1562
  120SOL    HW1  359   1.407   0.534   0.453 -0.4683 -3.8123 -2.5603
  120SOL    HW2  360   1.284   0.639   0.417 -0.7644 -0.8672  1.7976
  121SOL     OW  361   1.595   0.630   0.770  0.6334 -0.1980 -0.0045
  121SOL    HW1  362   1.582   0.660   0.868  0.8380  0.3706 -0.6414
  121SOL    HW2  363   1.635   0.709   0.726  1.3421 -3.4913  1.0958
  122SOL     OW  364   1.996   1.329   2.415 -0.2530 -0.7278  0.6312
  122SOL    HW1  365   1.995   1.227   2.404 -0.5627 -1.4716  0.0174
  122SOL    HW2  366   1.980   1.366   2.322 -2.1813 -0.4603 -0.4870
  123SOL     OW  367   0.970   1.286   0.972 -0.0555  0.0710  0.2389
  123SOL    HW1  368   0.977   1.200   0.920 -1.6748  1.8333 -1.7656
  123SOL    HW2  369   0.918   1.356   0.921  0.3073  0.7550  0.0576
  124SOL     OW  370   0.511   0.359   2.614 -0.3244  0.3440 -0.6123
  124SOL    HW1  371   0.474   0.370   2.710 -0.6667  1.7837  1.1561
  124SOL    HW2  372   0.614   0.364   2.615  0.8230  1.1814  1.9659
  125SOL     OW  373   1.000   3.084   3.081  0.6882 -0.0402 -0.1550
  125SOL    HW1  374   1.081   3.076   3.021  1.5494  1.3678  0.9918
  125SOL    HW2  375   1.011   0.044   0.034 -2.4473 -2.6704 -0.5555
  126SOL     OW  376   0.686   1.306   0.065  0.1188 -0.1926 -0.1460
  126SOL    HW1  377   0.712   1.211   0.034  0.5166 -2.3285  0.8629
  126SOL    HW2  378   0.664   1.301   0.165  1.1294 -0.0869  0.3812
  127SOL     OW  379   1.180   2.541   1.430  0.1628  0.0498  0.2165
  127SOL    HW1  380   1.229   2.597   1.496 -0.2688 -1.4240 -2.0823
  127SOL    HW2  381   1.237   2.491   1.362 -2.3907 -1.3156  0.6738
  128SOL     OW  382   0.830   1.716   0.201  0.1323 -1.0450  0.2602
  128SOL    HW1  383   0.838   1.652   0.123  0.0059  0.4179  1.4487
  128SOL    HW2  384   0.919   1.765   0.220 -1.0429 -0.0032  0.4878
  129SOL     OW  385   1.936   1.427   2.164  0.1140 -0.3794 -0.8916
  129SOL    HW1  386   1.864   1.375   2.114  0.1899  0.3185 -0.9221
  129SOL    HW2  387   2.014   1.453   2.102  0.8561  0.9983  0.6402
  130SOL     OW  388   2.099   1.746   1.886  0.3635 -0.0195  0.2206
  130SOL    HW1  389   2.120   1.665   1.948 -0.7032 -1.9564 -0.5375
  130SOL    HW2  390   2.038   1.718   1.810  1.8440 -0.9320 -0.2837
  131SOL     OW  391   0.644   2.478   2.121 -0.2264 -0.4838 -0.4655
  131SOL    HW1  392   0.651   2.392   2.171 -0.2734 -0.9267  0.5812
  131SOL    HW2  393   0.600   2.468   2.031 -0.7406  1.7890  0.0585
  132SOL     OW  394   2.425   1.633   0.670 -0.2459 -0.2884 -0.4100
  132SOL    HW1  395   2.473   1.556   0.625 -0.1615  1.3974 -2.8713
  132SOL    HW2  396   2.479   1.723   0.657  1.9814  1.1210 -0.2225
  133SOL     OW  397   0.595   1.364   1.837 -0.0027 -0.6332 -0.2708
  133SOL    HW1  398   0.608   1.464   1.831 -1.3227  0.2319 -0.7512
  133SOL    HW2  399   0.586   1.328   1.934  3.3770  0.2986  2.4750
  134SOL     OW  400   2.896   1.380   0.826  0.1682 -0.0473 -0.0982
  134SOL    HW1  401   2.934   1.289   0.850 -0.6438 -0.5203 -2.8459
  134SOL    HW2  402   2.893   1.397   0.725  0.4584  2.1846 -0.0792
  135SOL     OW  403   1.795   1.087   2.898  0.0436  0.3157 -0.7000
  135SOL    HW1  404   1.806   1.176   2.852 -0.9465  0.0523 -0.6293
  135SOL    HW2  405   1.721   1.029   2.852 -1.6859  0.7531 -1.3170
  136SOL     OW  406   3.071   1.637   1.095 -0.3447 -0.0178 -0.1450
  136SOL    HW1  407   0.011   1.619   1.175 -0.0046  1.4642  0.4708
  136SOL    HW2  408   3.114   1.688   1.017 -1.1404  1.6836 -0.9666
  137SOL     OW  409   2.189   1.650   0.535 -0.0920  0.6386  0.2719
  137SOL    HW1  410   2.118   1.596   0.583  0.8876  2.0441 -1.9300
  137SOL    HW2  411   2.280   1.641   0.579 -0.8295 -0.9475 -0.2644
  138SOL     OW  412   2.477   0.582   0.752 -0.3599  0.4203  0.0759
  138SOL    HW1  413   2.520   0.576   0.848  3.4730  1.0004 -0.1136
  138SOL    HW2  414   2.468   0.489   0.711  2.4631 -0.4922 -1.1612
  139SOL     OW  415   2.743   0.078   2.797  0.4043  0.3969  0.1913
  139SOL    HW1  416   2.725   0.106   2.895  0.4018  0.3290 -0.2968
  139SOL    HW2  417   2.714   3.094   2.775  0.6478  0.1377 -1.1002
  140SOL     OW  418   0.838   1.423   1.448 -0.1616  0.0177  0.2951
  140SOL    HW1  419   0.777   1.345   1.446 -0.6284  0.4729  2.5038
  140SOL    HW2  420   0.804   1.496   1.509 -1.0795  3.2643 -0.5621
  141SOL     OW  421   1.135   1.622   0.774  0.2142 -0.2293  0.0734
  141SOL    HW1  422   1.159   1.563   0.857 -0.0783 -0.2265  2.7484
  141SOL    HW2  423   1.059   1.687   0.805 -1.6030 -0.5051 -0.3435
  142SOL     OW  424   1.550   0.697   1.054  0.3103 -0.3601  0.2226
  142SOL    HW1  425   1.482   0.625   1.079 -1.3546  0.0709 -0.9216
  142SOL    HW2  426   1.526   0.789   1.088  0.5227  1.9298 -2.1836
  143SOL     OW  427   0.661   0.647   2.956 -0.3007  0.3564 -0.2316
  143SOL    HW1  428   0.599   0.722   2.922 -0.9883  2.0028 -0.4964
  143SOL    HW2  429   0.618   0.556   2.948  0.2192 -0.2811 -0.8776
  144SOL     OW  430   2.658   0.080   0.162  0.4802  0.0019  0.5600
  144SOL    HW1  431   2.593   0.147   0.119 -2.4608  0.6478  0.9973
  144SOL    HW2  432   2.640   0.072   0.260 -0.7340 -1.9319 -1.2031
  145SOL     OW  433   2.198   0.159   2.584  0.4679 -0.3523  0.3946
  145SOL    HW1  434   2.255   0.138   2.666  0.1310 -0.4716  2.0703
  145SOL    HW2  435   2.260   0.174   2.505 -1.0031 -1.2770 -0.3668
  146SOL     OW  436   2.786   2.911   0.373 -0.1638 -0.2527  0.2275
  146SOL    HW1  437   2.793   2.886   0.271 -1.4991 -2.0987 -0.9023
  146SOL    HW2  438   2.862   2.971   0.401  1.4320  0.2990  0.3193
  147SOL     OW  439   1.263   0.885   2.715  0.2901  0.4527 -0.1515
  147SOL    HW1  440   1.309   0.850   2.801  2.8593  1.5244  1.6160
  147SOL    HW2  441   1.284   0.986   2.706  2.3181  0.5887  2.8253
  148SOL     OW  442   1.096   0.009   0.582 -0.1996  0.2662 -0.0704
  148SOL    HW1  443   1.199   0.004   0.577  1.6141  2.0857  0.1241
  148SOL    HW2  444   1.059   3.100   0.493 -1.3867 -0.7970 -1.3254
  149SOL     OW  445   1.257   0.771   2.245 -1.4570  0.3742  0.1284
  149SOL    HW1  446   1.341   0.814   2.286 -0.9106  0.9577  0.4681
  149SOL    HW2  447   1.205   0.848   2.194  0.7054  0.5164 -0.0119
  150SOL     OW  448   1.718   3.085   2.944  0.2174  0.0142  0.5461
  150SOL    HW1  449   1.738   3.085   3.042 -3.4475 -1.4379 -2.8076
  150SOL    HW2  450   1.807   3.084   2.894  1.7669 -0.3016  0.2450
  151SOL     OW  451   0.430   1.430   0.022  0.0028  0.2533  0.5783
  151SOL    HW1  452   0.358   1.359   0.024  1.7526  1.2819  1.2145
  151SOL    HW2  453   0.520   1.399   0.049 -2.4360  1.1036  0.2708
  152SOL     OW  454   0.831   0.382   1.057 -0.5881 -0.7283 -0.1268
  152SOL    HW1  455   0.748   0.406   1.109  2.0804  0.3540 -2.1236
  152SOL    HW2  456   0.910   0.339   1.105  1.2235  0.2977 -2.5250
  153SOL     OW  457   2.543   3.104   1.897  0.0849  0.1383 -0.0521
  153SOL    HW1  458   2.554   0.055   1.976  0.9803 -4.0732  3.0419
  153SOL    HW2  459   2.458   3.050   1.925  1.2243  0.4045 -2.8042
  154SOL     OW  460   2.324   2.999   2.016  0.0286 -0.1973  0.1960
  154SOL    HW1  461   2.268   2.999   2.100  0.6611 -1.4665  0.9304
  154SOL    HW2  462   2.261   3.009   1.936  1.9830  2.1002  1.0050
  155SOL     OW  463   2.997   1.067   0.406  0.7768  0.8179 -0.2785
  155SOL    HW1  464   3.050   0.981   0.395 -0.0844  0.9669 -0.3126
  155SOL    HW2  465   3.008   1.097   0.507 -0.8945 -0.7736 -0.4170
  156SOL     OW  466   1.995   1.465   0.594  0.0586  0.1564 -0.0269
  156SOL    HW1  467   1.962   1.409   0.671  1.0542  0.1744 -1.9106
  156SOL    HW2  468   1.994   1.403   0.513 -1.0633 -0.7238  2.4084
  157SOL     OW  469   0.674   3.020   2.711  0.2085 -0.3814  0.3616
  157SOL    HW1  470   0.687   3.072   2.798  0.5076 -1.3476  0.6494
  157SOL    HW2  471   0.581   3.026   2.669 -0.2192  3.3642 -1.1131
  158SOL     OW  472   2.099   1.090   1.397  0.1635 -0.3491 -0.6893
  158SOL    HW1  473   2.123   1.040   1.486 -0.5175  1.1167  3.0712
  158SOL    HW2  474   2.033   1.168   1.410 -1.2816 -0.2281  2.2064
  159SOL     OW  475   0.154   0.207   0.241  0.8321  0.4799  0.0391
  159SOL    HW1  476   0.190   0.115   0.206 -2.1173 -0.4801  2.5832
  159SOL    HW2  477   0.195   0.234   0.330  0.7115  2.8648  2.4575
  160SOL     OW  478   2.685   2.206   1.995 -0.1912  0.3746 -0.2680
  160SOL    HW1  479   2.681   2.114   2.043 -1.9028  4.3073 -1.5907
  160SOL    HW2  480   2.596   2.250   2.016  0.8207  2.1959  1.7090
  161SOL     OW  481   0.335   0.719   3.002  0.1975 -0.7045  0.2097
  161SOL    HW1  482   0.411   0.783   2.975 -0.7215  0.0055  0.8345
  161SOL    HW2  483   0.308   0.670   2.918 -1.1534  0.3322 -0.5165
  162SOL     OW  484   0.827   0.399   1.566 -0.2721 -0.1481  0.3641
  162SOL    HW1  485   0.918   0.368   1.530  0.3793 -2.4066  0.7788
  162SOL    HW2  486   0.757   0.332   1.539 -0.1212 -2.5254 -1.8522
  163SOL     OW  487   2.691   2.928   2.409  0.1029  0.0052 -0.5238
  163SOL    HW1  488   2.642   2.861   2.353 -0.3511  1.1809  1.4505
  163SOL    HW2  489   2.680   3.022   2.370  0.3137  2.7233 -0.1697
  164SOL     OW  490   2.196   1.730   0.280  0.3968 -0.0169 -0.1763
  164SOL    HW1  491   2.139   1.674   0.213  0.5065 -0.7452 -0.4477
  164SOL    HW2  492   2.197   1.699   0.378  1.7626 -0.4775  1.0553
  165SOL     OW  493   0.233   0.126   0.826  0.1863 -0.4122  0.2633
  165SOL    HW1  494   0.294   0.117   0.747  1.6499 -0.4897 -1.1213
  165SOL    HW2  495   0.286   0.129   0.914  1.0316 -2.7073  4.1649
  166SOL     OW  496   2.851   0.413   3.107  0.3381  0.4120  0.5117
  166SOL    HW1  497   2.813   0.448   3.021  0.1741 -3.1449 -2.5942
  166SOL    HW2  498   2.895   0.323   3.091  2.2601 -0.0420 -1.9343
  167SOL     OW  499   2.185   0.589   0.402  0.0547 -0.0574 -0.0015
  167SOL    HW1  500   2.257   0.639   0.459 -0.3441  2.1201 -0.6392
  167SOL    HW2  501   2.216   0.580   0.307 -0.0756 -2.3890 -0.1127
  168SOL     OW  502   1.601   0.225   2.303  0.8962  0.0515 -0.0416
  168SOL    HW1  503   1.531   0.181   2.365  2.0892  1.2817  1.0742
  168SOL    HW2  504   1.558   0.299   2.254  0.3357 -0.7829 -0.0881
  169SOL     OW  505   0.309   1.964   0.888  0.6017 -0.0650 -0.0441
  169SOL    HW1  506   0.339   1.928   0.978  0.4484  0.9007  0.7739
  169SOL    HW2  507   0.258   2.048   0.889  4.3736 -2.4070  0.1413
  170SOL     OW  508   0.383   0.103   1.323  0.1530  0.0153 -0.2991
  170SOL    HW1  509   0.442   0.160   1.380 -1.4736  0.6229 -1.7434
  170SOL    HW2  510   0.371   0.012   1.365 -0.2723  3.2174  0.8862
  171SOL     OW  511   2.428   1.405   2.333 -0.1552  0.2266 -0.7888
  171SOL    HW1  512   2.365   1.393   2.252 -2.5281  2.0026 -1.3874
  171SOL    HW2  513   2.524   1.413   2.301 -0.7256 -2.2877  0.5711
  172SOL     OW  514   0.819   1.809   1.187 -0.3318 -0.4579 -0.7805
  172SOL    HW1  515   0.738   1.780   1.133 -0.5079  3.1263 -0.5548
  172SOL    HW2  516   0.858   1.732   1.241  0.9762  1.2326  1.8561
  173SOL     OW  517   1.929   2.158   2.966  0.1807  0.4766 -0.5522
  173SOL    HW1  518   1.983   2.075   2.928 -1.4706  0.1495 -1.1640
  173SOL    HW2  519   1.975   2.197   3.048  0.0110 -1.0222 -1.6811
  174SOL     OW  520   1.726   0.607   0.079 -0.1483  0.6128 -0.3185
  174SOL    HW1  521   1.825   0.626   0.052 -1.1933 -0.9056  0.6023
  174SOL    HW2  522   1.670   0.694   0.078  0.7214  0.4876 -2.9291
  175SOL     OW  523   0.562   1.643   1.823  0.0746  0.0675  0.0621
  175SOL    HW1  524   0.478   1.609   1.776 -1.7138  0.3188  1.6835
  175SOL    HW2  525   0.539   1.721   1.880 -0.9212  0.1559 -1.7520
  176SOL     OW  526   0.831   0.302   0.391  0.1292 -0.3767  0.5028
  176SOL    HW1  527   0.827   0.399   0.359  1.5217  3.9450  0.5333
  176SOL    HW2  528   0.763   0.274   0.460 -0.9990 -0.3902  1.8737
  177SOL     OW  529   3.086   1.529   0.004 -0.4557 -0.4490  0.1362
  177SOL    HW1  530   3.027   1.501   3.041  2.1133 -0.1396  1.5285
  177SOL    HW2  531   0.032   1.452   0.037  1.3278  1.2201  3.1121
  178SOL     OW  532   0.093   2.169   2.386 -0.8811  0.2262 -0.1463
  178SOL    HW1  533   0.061   2.131   2.298 -0.9751  2.3729  1.1129
  178SOL    HW2  534   0.111   2.093   2.451 -0.0082  2.7862  1.7029
  179SOL     OW  535   2.335   0.116   2.797  0.0449 -0.0536  0.3092
  179SOL    HW1  536   2.399   0.195   2.799 -1.0629 -3.9880  1.2151
  179SOL    HW2  537   2.263   0.132   2.869  1.1978  2.3921 -1.1922
  180SOL     OW  538   2.418   0.329   0.985 -0.4518  0.1007  0.4011
  180SOL    HW1  539   2.325   0.311   0.945  0.4396 -2.8346 -2.8470
  180SOL    HW2  540   2.437   0.424   1.018 -1.8805 -3.0203  3.4284
  181SOL     OW  541   2.971   2.957   2.511  0.5337 -0.0841  0.0263
  181SOL    HW1  542   2.889   2.935   2.455 -1.2282 -3.4109  0.7499
  181SOL    HW2  543   3.039   2.879   2.517  0.8318 -1.2272 -1.2631
  182SOL     OW  544   2.337   2.287   2.401 -0.0878 -0.1311 -0.1511
  182SOL    HW1  545   2.402   2.336   2.469  4.4673  0.9524 -0.7782
  182SOL    HW2  546   2.387   2.244   2.324  1.3008  0.7727  0.0692
  183SOL     OW  547   2.715   1.224   1.624 -0.3286 -0.4463  0.2501
  183SOL    HW1  548   2.759   1.301   1.668  1.5993 -1.1454 -1.1196
  183SOL    HW2  549   2.697   1.248   1.527 -1.7462 -0.7600  0.2559
  184SOL     OW  550   2.825   1.595   0.979 -0.0463 -0.3324 -0.0397
  184SOL    HW1  551   2.917   1.615   1.021  1.0939  0.1908  0.2654
  184SOL    HW2  552   2.821   1.507   0.923  1.4924  0.6804 -1.0364
  185SOL     OW  553   0.204   2.939   0.993  0.6960 -0.0445 -0.2515
  185SOL    HW1  554   0.156   2.948   0.900 -0.7131 -2.2221 -2.8535
  185SOL    HW2  555   0.302   2.934   0.979  0.2278  1.5952  2.8602
  186SOL     OW  556   2.216   2.610   2.202 -0.2966 -0.4121 -0.2241
  186SOL    HW1  557   2.238   2.658   2.290 -2.2510 -1.6730 -3.2414
  186SOL    HW2  558   2.155   2.533   2.224  0.0128 -0.8038  1.1262
  187SOL     OW  559   0.220   1.486   0.644  0.4524 -1.1218 -0.2259
  187SOL    HW1  560   0.228   1.516   0.548 -1.2909 -0.4139  1.5014
  187SOL    HW2  561   0.256   1.554   0.713  1.4956 -3.5803 -3.9622
  188SOL     OW  562   1.534   1.983   0.357  0.0342  0.3421 -0.5109
  188SOL    HW1  563   1.624   1.962   0.395  1.9323  1.6470  0.5586
  188SOL    HW2  564   1.487   2.049   0.420 -1.4780 -0.1342  0.6617
  189SOL     OW  565   2.955   1.463   2.900  0.0230  0.1645 -0.2383
  189SOL    HW1  566   2.978   1.373   2.869 -1.2330  0.8081 -0.1763
  189SOL    HW2  567   2.889   1.515   2.841  0.3453  3.0315  1.0393
  190SOL     OW  568   2.342   0.764   2.553  0.3314  0.3162  0.0637
  190SOL    HW1  569   2.292   0.819   2.483 -2.9105 -0.7111  0.3160
  190SOL    HW2  570   2.438   0.731   2.521  2.5454 -1.1188  0.1208
  191SOL     OW  571   0.881   1.003   2.052  0.1533 -0.2866 -0.1576
  191SOL    HW1  572   0.850   0.969   1.958 -1.0703 -1.8909 -0.5890
  191SOL    HW2  573   0.832   1.090   2.080 -1.8221  1.1722  1.8564
  192SOL     OW  574   1.741   1.297   2.039  0.4709  0.5097  0.0754
  192SOL    HW1  575   1.647   1.257   2.039  1.5690 -1.5909 -1.1943
  192SOL    HW2  576   1.792   1.255   1.966  0.0292 -0.3985  2.3338
  193SOL     OW  577   1.593   2.689   1.143  0.1922  0.3038  0.5988
  193SOL    HW1  578   1.603   2.791   1.152 -2.5938 -0.6023  0.0136
  193SOL    HW2  579   1.556   2.683   1.044  2.6130 -2.0462 -1.6056
  194SOL     OW  580   1.385   1.327   1.824  0.3568 -0.0808  0.3774
  194SOL    HW1  581   1.421   1.287   1.740 -0.4476 -0.5873  1.2236
  194SOL    HW2  582   1.359   1.429   1.823 -2.9497  0.6870 -0.5654
  195SOL     OW  583   1.819   0.218   0.817 -0.1297  0.5708  0.3954
  195SOL    HW1  584   1.727   0.205   0.858 -1.0275 -0.3934 -3.0455
  195SOL    HW2  585   1.884   0.235   0.891 -2.1909 -1.0611  0.2201
  196SOL     OW  586   0.960   1.302   2.419 -0.0586 -0.3224  0.0908
  196SOL    HW1  587   0.861   1.312   2.443 -2.4109  0.9445 -1.8963
  196SOL    HW2  588   0.993   1.208   2.448 -0.0032 -3.4965  0.7721
  197SOL     OW  589   0.281   0.223   2.280 -0.1260  0.3696  0.1745
  197SOL    HW1  590   0.278   0.207   2.382  2.7001 -1.9719 -1.1394
  197SOL    HW2  591   0.226   0.153   2.231  0.2985  2.1992 -2.0398
  198SOL     OW  592   3.010   1.349   1.138 -0.3209  0.0388  0.2754
  198SOL    HW1  593   3.005   1.450   1.133  0.6510  0.1158 -0.8620
  198SOL    HW2  594   2.930   1.305   1.098  0.7082 -1.0751 -1.6860
  199SOL     OW  595   0.457   2.047   1.322 -0.1974 -0.0326  0.3183
  199SOL    HW1  596   0.429   1.983   1.242  0.3874  0.1086 -4.7381
  199SOL    HW2  597   0.425   2.148   1.307  1.2560  1.1077  2.7831
  200SOL     OW  598   2.605   1.944   2.770 -0.2690 -0.0096  0.1053
  200SOL    HW1  599   2.673   2.003   2.819  1.5505  1.2462 -0.7320
  200SOL    HW2  600   2.540   1.905   2.834  0.4103 -0.4639  0.1888
  201SOL     OW  601   0.858   2.015   1.326  0.2613  0.4642 -0.4047
  201SOL    HW1  602   0.923   2.002   1.403  0.8555  2.2191 -2.8024
  201SOL    HW2  603   0.846   1.930   1.266 -0.7620 -3.5947 -0.4508
  202SOL     OW  604   0.891   2.346   0.066  0.0118 -0.1849 -0.6062
  202SOL    HW1  605   0.922   2.426   0.129  1.7728 -2.4731  0.5384
  202SOL    HW2  606   0.923   2.256   0.114  0.3100 -1.5430  2.3258
  203SOL     OW  607   1.856   0.281   2.427 -0.2073 -0.0711  0.1535
  203SOL    HW1  608   1.939   0.264   2.368  0.0936 -1.1195  0.7879
  203SOL    HW2  609   1.767   0.273   2.378  1.6080  0.3195 -1.3485
  204SOL     OW  610   0.158   1.250   1.721  0.1548  0.4046 -0.3432
  204SOL    HW1  611   0.141   1.332   1.778  2.4683 -0.8254 -0.1674
  204SOL    HW2  612   0.236   1.207   1.763  0.1388  0.3858  1.8744
  205SOL     OW  613   2.361   1.545   2.544 -0.4881  0.0945 -0.9851
  205SOL    HW1  614   2.392   1.489   2.464 -2.1286 -1.3513 -1.3729
  205SOL    HW2  615   2.283   1.605   2.510 -1.7677  2.3309 -0.8282
  206SOL     OW  616   0.155   2.035   2.635 -0.3896 -0.2567  0.3298
  206SOL    HW1  617   0.109   1.945   2.646  0.9998 -0.3936  0.8071
  206SOL    HW2  618   0.099   2.111   2.678  0.3597 -0.3683  2.0429
  207SOL     OW  619   0.532   2.934   1.707  0.1711 -0.0859  0.8055
  207SOL    HW1  620   0.436   2.962   1.734  1.2037  1.9935 -3.2119
  207SOL    HW2  621   0.528   2.856   1.644  1.3225  1.7737  2.4898
  208SOL     OW  622   0.459   2.472   1.520  0.0227 -0.4139 -0.8985
  208SOL    HW1  623   0.445   2.406   1.444 -0.4475  0.4543 -2.3609
  208SOL    HW2  624   0.374   2.467   1.576 -1.7212  0.5226 -0.3234
  209SOL     OW  625   1.029   2.643   2.665 -0.0250  0.2707 -0.3506
  209SOL    HW1  626   1.018   2.549   2.704  0.3704 -0.1173  1.1417
  209SOL    HW2  627   1.010   2.716   2.737  2.7283 -0.3390 -2.3065
  210SOL     OW  628   2.692   1.427   2.289  0.7111 -0.0167  0.2405
  210SOL    HW1  629   2.763   1.376   2.345  0.7116  0.6572 -0.9174
  210SOL    HW2  630   2.713   1.528   2.295 -0.5497  1.7031  1.2720
  211SOL     OW  631   1.288   3.011   1.912 -0.5603 -0.4775 -0.4830
  211SOL    HW1  632   1.374   2.982   1.964 -2.3717 -0.7597 -0.0504
  211SOL    HW2  633   1.223   3.061   1.974  1.0139 -1.6163 -0.2819
  212SOL     OW  634   1.437   2.584   1.611  0.1412 -0.1257  0.4874
  212SOL    HW1  635   1.527   2.579   1.658  0.6031  0.9487 -0.4733
  212SOL    HW2  636   1.441   2.638   1.518 -0.0727  0.1897  1.3010
  213SOL     OW  637   2.542   0.763   1.725  0.3257 -0.0717  0.3642
  213SOL    HW1  638   2.548   0.831   1.650 -0.4450  1.8134  1.6622
  213SOL    HW2  639   2.617   0.773   1.796  0.2622  0.4195 -0.0224
  214SOL     OW  640   0.746   2.300   1.208  0.4202  0.1088  1.1216
  214SOL    HW1  641   0.792   2.323   1.295  0.9315 -0.5157 -0.5838
  214SOL    HW2  642   0.671   2.368   1.184  1.7540 -0.7711 -1.5722
  215SOL     OW  643   2.516   2.137   0.759  0.0848  0.8713  0.3936
  215SOL    HW1  644   2.586   2.163   0.835  0.9599  1.4753  0.8308
  215SOL    HW2  645   2.568   2.110   0.673  0.8430 -1.6298 -1.0217
  216SOL     OW  646   0.157   0.859   1.470 -0.1506 -0.1783  0.1144
  216SOL    HW1  647   0.142   0.760   1.433  1.5697 -2.3314  1.5856
  216SOL    HW2  648   0.081   0.920   1.440  0.9752  1.4128  2.3631
  217SOL     OW  649   2.265   0.371   1.319 -0.6995  0.3543 -0.4760
  217SOL    HW1  650   2.323   0.292   1.289 -2.6528  1.5392  1.1066
  217SOL    HW2  651   2.183   0.383   1.261  0.4203 -0.8875 -1.1394
  218SOL     OW  652   1.930   2.251   1.109 -0.1026  0.1317  0.2540
  218SOL    HW1  653   1.958   2.298   1.023 -0.7871 -0.8804 -0.7124
  218SOL    HW2  654   1.845   2.196   1.101  0.0300  0.3463 -0.9624
  219SOL     OW  655   1.512   2.234   0.010 -0.4947  0.4302 -0.3428
  219SOL    HW1  656   1.567   2.318   0.003  2.1933 -0.8918 -0.8881
  219SOL    HW2  657   1.435   2.256   0.072 -1.3395 -0.9481  0.4810
  220SOL     OW  658   1.581   2.476   2.783  0.1233  0.0454  0.0178
  220SOL    HW1  659   1.491   2.452   2.747 -0.4671  0.1482 -0.4975
  220SOL    HW2  660   1.611   2.440   2.870  0.1521  0.4364 -0.6091
  221SOL     OW  661   0.231   2.460   1.655  0.0047 -0.4866 -0.1431
  221SOL    HW1  662   0.236   2.476   1.756 -0.5181  0.1384  4.0990
  221SOL    HW2  663   0.131   2.433   1.643  2.6762  0.8452  0.2152
  222SOL     OW  664   2.094   2.441   0.926 -0.0032 -0.5179 -0.1888
  222SOL    HW1  665   2.034   2.520   0.947  1.2513  0.1242 -0.3461
  222SOL    HW2  666   2.130   2.446   0.832  1.3891  0.1599  3.7999
  223SOL     OW  667   1.001   2.426   1.840  0.0700 -0.4975  0.1558
  223SOL    HW1  668   0.947   2.438   1.753  1.5555 -0.1376 -2.8149
  223SOL    HW2  669   0.964   2.490   1.912 -1.5857 -1.3486  0.3699
  224SOL     OW  670   2.813   2.426   1.387 -0.6629 -0.5864 -0.0297
  224SOL    HW1  671   2.884   2.498   1.388 -1.5080  0.2539 -0.2703
  224SOL    HW2  672   2.777   2.392   1.477 -0.1448  0.3252  0.3758
  225SOL     OW  673   2.251   2.123   0.671 -0.2448  0.6088 -0.2668
  225SOL    HW1  674   2.348   2.129   0.704  1.9907 -0.2993  0.1480
  225SOL    HW2  675   2.230   2.038   0.615  0.1067 -0.5279 -2.0841
  226SOL     OW  676   1.327   2.527   0.570  0.3743  0.1640  0.0814
  226SOL    HW1  677   1.263   2.490   0.641  0.4362 -0.4272 -0.8124
  226SOL    HW2  678   1.418   2.493   0.584  0.1141  0.3196 -0.8103
  227SOL     OW  679   2.069   1.199   0.968 -0.4300 -0.7148  0.1162
  227SOL    HW1  680   1.978   1.156   0.979  1.5554  2.6793 -1.1558
  227SOL    HW2  681   2.106   1.254   1.050  0.3720  0.0707  1.1680
  228SOL     OW  682   1.424   0.406   2.492  0.8581 -0.2212 -0.0296
  228SOL    HW1  683   1.433   0.372   2.590  1.3013 -0.7799  2.2922
  228SOL    HW2  684   1.502   0.458   2.454 -1.9187 -0.0699  2.4598
  229SOL     OW  685   2.982   1.199   2.819 -0.2847  0.0061  0.4110
  229SOL    HW1  686   3.008   1.100   2.824 -2.6555 -0.7206  1.8801
  229SOL    HW2  687   2.904   1.209   2.752  0.6863 -1.4408 -1.6969
  230SOL     OW  688   0.501   1.436   0.939 -0.3213  0.4176 -0.7055
  230SOL    HW1  689   0.452   1.407   1.023 -0.6689  1.9555  0.2780
  230SOL    HW2  690   0.507   1.361   0.875 -0.0877  2.6774 -0.6309
  231SOL     OW  691   2.406   2.988   2.706 -0.0616 -0.3152  0.0372
  231SOL    HW1  692   2.395   3.084   2.745  1.7932  1.4815 -1.6865
  231SOL    HW2  693   2.356   2.987   2.619 -0.9987 -0.0564  1.8300
  232SOL     OW  694   0.245   2.147   0.087  0.0105 -0.0969 -0.5562
  232SOL    HW1  695   0.315   2.174   0.017 -0.4266  0.4548 -0.8416
  232SOL    HW2  696   0.162   2.118   0.043  4.6443 -0.2524  2.4834
  233SOL     OW  697   1.402   2.321   2.118 -0.1748  0.3113 -0.1391
  233SOL    HW1  698   1.373   2.421   2.120 -1.0320  1.7583 -0.4920
  233SOL    HW2  699   1.502   2.301   2.117 -1.6661 -2.3112  0.8928
  234SOL     OW  700   1.277   1.508   1.545 -0.0881  0.5328  0.5826
  234SOL    HW1  701   1.378   1.496   1.566  0.2164  1.1764 -0.4265
  234SOL    HW2  702   1.264   1.608   1.521 -3.4653  2.6815 -5.4502
  235SOL     OW  703   1.159   1.808   1.827 -0.2360 -0.2932 -0.1897
  235SOL    HW1  704   1.211   1.886   1.790 -1.8050  0.1957  0.1122
  235SOL    HW2  705   1.069   1.837   1.870  0.7857 -0.0013 -0.8734
  236SOL     OW  706   1.439   3.012   2.942 -0.1974 -0.2247  0.4162
  236SOL    HW1  707   1.529   3.053   2.936 -1.8718 -1.1332 -3.8254
  236SOL    HW2  708   1.444   2.910   2.927 -1.2835 -0.0842 -0.9239
  237SOL     OW  709   1.353   0.232   1.342 -0.3249 -0.7317  0.0388
  237SOL    HW1  710   1.398   0.162   1.285 -1.2089  0.1266 -0.1243
  237SOL    HW2  711   1.403   0.243   1.432  1.7104  0.5611  1.0337
  238SOL     OW  712   1.255   0.552   3.090 -0.1559 -0.0228 -0.2457
  238SOL    HW1  713   1.266   0.640   0.026  1.3605  0.2247 -0.6066
  238SOL    HW2  714   1.158   0.519   3.082 -0.6427  0.4147  2.8976
  239SOL     OW  715   2.818   0.938   2.701  0.1885 -0.1731  0.1380
  239SOL    HW1  716   2.773   1.030   2.706 -0.1951 -0.1002  2.3256
  239SOL    HW2  717   2.904   0.940   2.751 -0.3709 -0.1922  0.4986
  240SOL     OW  718   2.458   2.415   0.787 -0.0781 -0.2236  0.4791
  240SOL    HW1  719   2.487   2.318   0.776 -0.7390  0.4712  0.9809
  240SOL    HW2  720   2.372   2.432   0.733 -0.1218 -1.6948 -0.7607
  241SOL     OW  721   1.170   1.277   1.153  0.4719 -0.2940  0.3317
  241SOL    HW1  722   1.160   1.293   1.257  0.5637  0.9896 -0.4529
  241SOL    HW2  723   1.079   1.279   1.107 -0.7676  0.1468  2.9272
  242SOL     OW  724   0.610   0.562   0.831 -0.0488 -0.2445  0.3366
  242SOL    HW1  725   0.617   0.660   0.855 -0.3077 -1.5498  0.2849
  242SOL    HW2  726   0.695   0.517   0.790  1.7591  1.0257 -1.5361
  243SOL     OW  727   0.188   0.416   1.088  0.0263  0.5525  0.3263
  243SOL    HW1  728   0.155   0.499   1.139  1.4810 -0.2654 -1.9988
  243SOL    HW2  729   0.285   0.424   1.064 -0.6931  2.0053 -0.4579
  244SOL     OW  730   1.031   0.197   0.136  0.0228 -0.1627  0.0244
  244SOL    HW1  731   0.958   0.193   0.209 -0.5214 -1.1594  1.9794
  244SOL    HW2  732   1.121   0.172   0.172  1.8487  0.3418 -1.6250
  245SOL     OW  733   1.993   0.758   0.298  0.0036 -0.7925  0.3992
  245SOL    HW1  734   2.010   0.739   0.197  0.2027  0.3641 -0.8535
  245SOL    HW2  735   2.050   0.694   0.355  1.2082 -2.0763  0.7728
  246SOL     OW  736   0.315   0.641   1.711 -0.2525  0.2302 -0.0783
  246SOL    HW1  737   0.319   0.744   1.711  1.3739 -0.4204  0.9944
  246SOL    HW2  738   0.214   0.610   1.726 -1.3606  0.6833 -1.2731
  247SOL     OW  739   0.624   0.128   2.068  0.1565  0.1403 -0.3209
  247SOL    HW1  740   0.554   0.057   2.040  1.3487 -0.7141 -0.2034
  247SOL    HW2  741   0.715   0.086   2.082 -0.2618 -2.0743 -0.6332
  248SOL     OW  742   0.687   1.608   2.286 -0.3738 -0.0999  0.4022
  248SOL    HW1  743   0.748   1.626   2.366 -2.4692  0.1890  0.4858
  248SOL    HW2  744   0.753   1.613   2.209 -0.0296  1.6483  2.8951
  249SOL     OW  745   0.615   2.842   3.094 -0.4335  0.5397 -0.4686
  249SOL    HW1  746   0.582   2.845   2.995 -1.1192 -1.4105  0.4467
  249SOL    HW2  747   0.607   2.746   0.010  1.3398  1.2166 -0.3866
  250SOL     OW  748   0.599   0.280   2.282  0.0135 -0.0907  0.1379
  250SOL    HW1  749   0.507   0.258   2.306  1.0121 -2.0133  1.5348
  250SOL    HW2  750   0.629   0.226   2.200 -0.1372  1.5572 -0.3734
  251SOL     OW  751   3.038   1.898   1.323 -0.0018  0.1593 -0.0940
  251SOL    HW1  752   3.055   1.930   1.230  1.9324 -0.2098 -0.6050
  251SOL    HW2  753   2.962   1.831   1.337  0.5235 -0.7773 -1.0555
  252SOL     OW  754   2.066   3.091   1.877  0.3586  0.6220  0.4298
  252SOL    HW1  755   1.994   0.012   1.937  2.8736  0.2013  1.9955
  252SOL    HW2  756   2.026   3.013   1.825  0.4406 -0.5631  0.4988
  253SOL     OW  757   2.115   1.668   2.534  0.4432 -0.3314  0.5928
  253SOL    HW1  758   2.031   1.615   2.555  1.2596  0.2916  1.7925
  253SOL    HW2  759   2.128   1.754   2.592 -1.1125 -0.0643 -1.0516
  254SOL     OW  760   0.714   1.661   1.587  0.0538 -0.0389  0.5024
  254SOL    HW1  761   0.807   1.700   1.584 -0.0805 -1.1443  0.1686
  254SOL    HW2  762   0.671   1.676   1.682  0.4754 -1.2662  1.1249
  255SOL     OW  763   0.680   0.064   1.632  0.0061  0.6039 -0.1729
  255SOL    HW1  764   0.732   0.090   1.718 -1.3347 -0.3322  1.6854
  255SOL    HW2  765   0.629   3.092   1.652  2.0137  0.3127  0.9262
  256SOL     OW  766   0.081   2.463   0.758  0.0684  0.2183 -0.5433
  256SOL    HW1  767   0.071   2.366   0.758  0.0246 -0.2480  0.7786
  256SOL    HW2  768   0.074   2.508   0.850 -0.9584  1.0209 -2.5376
  257SOL     OW  769   0.514   2.722   2.225 -0.3881  0.1001  0.3402
  257SOL    HW1  770   0.555   2.627   2.221 -0.2773 -0.4167 -1.1271
  257SOL    HW2  771   0.570   2.792   2.277 -2.6840  1.8651  1.7104
  258SOL     OW  772   1.354   1.391   2.236 -0.1556 -0.1962 -0.1143
  258SOL    HW1  773   1.250   1.391   2.229 -1.7739 -0.9183 -1.3610
  258SOL    HW2  774   1.400   1.426   2.154  0.8788  0.8021  0.6620
  259SOL     OW  775   1.144   1.295   1.961 -0.4948  0.1695 -0.0880
  259SOL    HW1  776   1.137   1.328   2.056 -0.6032  0.6255  4.1126
  259SOL    HW2  777   1.235   1.305   1.917 -0.7443 -1.5971  0.6740
  260SOL     OW  778   2.069   0.652   2.360  0.0563 -0.1309  0.3705
  260SOL    HW1  779   2.139   0.583   2.345 -2.7032  0.3990 -0.8232
  260SOL    HW2  780   1.982   0.616   2.399 -1.8645 -1.2527  1.0776
  261SOL     OW  781   0.800   1.414   0.766 -0.2345  0.0250  0.5542
  261SOL    HW1  782   0.707   1.370   0.768  0.2606 -3.1053 -1.1822
  261SOL    HW2  783   0.862   1.376   0.696 -2.3827  0.6108  2.2889
  262SOL     OW  784   2.159   2.123   2.529 -0.5393  0.0799 -0.5750
  262SOL    HW1  785   2.242   2.161   2.474  0.4689  0.2511 -0.0390
  262SOL    HW2  786   2.148   2.171   2.620 -4.9470 -3.4374  0.2449
  263SOL     OW  787   0.999   2.288   1.091 -0.4520  0.6214 -0.0262
  263SOL    HW1  788   0.907   2.293   1.130  0.6315 -0.4621  0.7388
  263SOL    HW2  789   1.062   2.226   1.144  2.3689  2.0805 -2.9085
  264SOL     OW  790   3.083   2.411   0.385  0.2412 -0.0204 -0.3382
  264SOL    HW1  791   3.111   2.340   0.450  1.6566  1.3600  1.4241
  264SOL    HW2  792   0.045   2.417   0.316 -1.2932  0.8002 -0.6386
  265SOL     OW  793   1.481   1.370   2.976  0.4082  0.7213 -0.2618
  265SOL    HW1  794   1.528   1.276   2.980  0.3416  0.0405  1.8100
  265SOL    HW2  795   1.388   1.363   2.934  2.4304 -0.8111 -1.8069
  266SOL     OW  796   1.217   1.840   2.125  0.4596  0.2894 -0.2341
  266SOL    HW1  797   1.240   1.940   2.129  1.6421 -1.8255 -0.3358
  266SOL    HW2  798   1.189   1.816   2.035 -2.2147  1.0949 -2.1443
  267SOL     OW  799   2.369   1.184   2.689 -0.0182 -0.1283 -0.7185
  267SOL    HW1  800   2.416   1.237   2.762  0.9317 -0.3825 -1.6913
  267SOL    HW2  801   2.291   1.234   2.644  1.3059  0.2281 -1.4923
  268SOL     OW  802   1.099   1.443   0.050 -0.3532  0.0915  0.6159
  268SOL    HW1  803   1.153   1.521   0.087  0.1107 -2.2626 -3.4325
  268SOL    HW2  804   1.136   1.420   3.072 -1.6501 -3.1256  2.5972
  269SOL     OW  805   2.867   1.953   2.346  0.3204  0.3704 -0.1797
  269SOL    HW1  806   2.787   1.936   2.289  2.5571  0.3139  0.0373
  269SOL    HW2  807   2.847   1.920   2.442 -1.4407  0.1427  0.8055
  270SOL     OW  808   0.456   2.233   3.008 -0.0937  0.1137 -0.3708
  270SOL    HW1  809   0.444   2.167   2.932 -1.8853  1.4943  2.1756
  270SOL    HW2  810   0.422   2.326   2.980  0.1097 -0.6540  4.2816
  271SOL     OW  811   0.163   0.492   0.206 -0.3009 -0.0658  0.0883
  271SOL    HW1  812   0.158   0.389   0.209  0.6325  0.0026 -1.0046
  271SOL    HW2  813   0.087   0.520   0.143 -0.4241 -0.6131 -2.7992
  272SOL     OW  814   2.995   3.077   0.422 -0.0124 -0.1357  0.0024
  272SOL    HW1  815   3.061   3.075   0.495 -0.2092 -1.9103 -4.9580
  272SOL    HW2  816   2.958   0.052   0.398 -0.5989  1.7388 -1.0831
  273SOL     OW  817   0.289   3.048   1.806 -0.2295 -0.2911 -0.3248
  273SOL    HW1  818   0.332   3.061   1.897  0.5530  3.6173 -2.0965
  273SOL    HW2  819   0.236   0.018   1.780  0.1433 -1.5666  0.8536
  274SOL     OW  820   0.063   0.639   1.180 -0.1557 -0.1941  0.6359
  274SOL    HW1  821   3.092   0.663   1.135  1.3248 -2.8042  2.5090
  274SOL    HW2  822   0.046   0.610   1.273  0.8740 -2.3160 -0.8462
  275SOL     OW  823   0.637   1.670   1.016  0.0774  0.2342 -0.2652
  275SOL    HW1  824   0.693   1.687   0.929  0.4069 -1.8394 -2.0084
  275SOL    HW2  825   0.584   1.580   1.010 -2.0377 -2.0748 -0.3387
  276SOL     OW  826   0.395   1.119   1.793 -0.2854 -0.8893  0.3279
  276SOL    HW1  827   0.448   1.192   1.839  1.6267  2.2848 -1.2383
  276SOL    HW2  828   0.461   1.045   1.761 -3.4528  0.2506 -1.2709
  277SOL     OW  829   1.339   1.997   1.762  0.5924 -0.3870  0.1555
  277SOL    HW1  830   1.399   2.008   1.840  1.1580  1.1631 -2.2643
  277SOL    HW2  831   1.301   2.086   1.730  0.8333  1.2013 -0.1089
  278SOL     OW  832   2.408   2.744   2.086 -0.1143 -0.1981 -0.4039
  278SOL    HW1  833   2.390   2.838   2.045  0.6483 -0.3809  0.6073
  278SOL    HW2  834   2.326   2.697   2.128 -2.3556 -1.1983  2.3299
  279SOL     OW  835   1.406   1.881   2.905 -0.0525  0.0612 -0.7309
  279SOL    HW1  836   1.464   1.847   2.982 -0.1444  0.4044  1.4044
  279SOL    HW2  837   1.418   1.984   2.897  2.7600 -0.0115  1.1578
  280SOL     OW  838   1.400   0.280   0.336 -0.5558  0.4478  0.0681
  280SOL    HW1  839   1.434   0.234   0.418 -0.7958 -0.2844 -1.6053
  280SOL    HW2  840   1.358   0.368   0.363 -0.3894 -0.5582 -1.5220
  281SOL     OW  841   0.631   0.445   1.257 -0.2673 -0.4023 -0.0887
  281SOL    HW1  842   0.618   0.543   1.283  1.8235  0.0845 -0.0228
  281SOL    HW2  843   0.613   0.382   1.335  2.0793 -0.7680  0.2024
  282SOL     OW  844   0.055   2.677   0.593  0.2354 -0.6507  0.2844
  282SOL    HW1  845   0.073   2.589   0.641 -1.1030  0.0941  0.6086
  282SOL    HW2  846   0.112   2.698   0.512 -2.6990  0.8834 -1.8392
  283SOL     OW  847   1.479   1.839   1.577  0.3292  0.1486  0.6243
  283SOL    HW1  848   1.404   1.815   1.512  0.6270 -2.0626 -1.0773
  283SOL    HW2  849   1.441   1.908   1.646  0.9566  3.4788 -0.0343
  284SOL     OW  850   2.778   2.781   1.670 -0.1574 -0.1380 -0.2585
  284SOL    HW1  851   2.759   2.873   1.627 -1.2705  2.6985 -1.6654
  284SOL    HW2  852   2.834   2.719   1.611 -3.7636 -2.4122  2.9891
  285SOL     OW  853   0.426   2.420   0.405  0.1925  0.0405  0.1545
  285SOL    HW1  854   0.334   2.376   0.405  0.3055 -0.9808 -0.9574
  285SOL    HW2  855   0.499   2.350   0.421  2.8420 -0.2673  1.4582
  286SOL     OW  856   0.510   2.785   1.207 -0.3789 -0.5420 -0.1577
  286SOL    HW1  857   0.519   2.822   1.112 -0.3464  0.7633 -0.3115
  286SOL    HW2  858   0.409   2.788   1.233 -1.6386 -2.1617  1.5304
  287SOL     OW  859   0.523   1.206   0.802 -0.4261  0.0017 -0.2136
  287SOL    HW1  860   0.574   1.137   0.743  1.6420  0.8829  1.1837
  287SOL    HW2  861   0.434   1.163   0.829 -1.1456  1.6465  1.4126
  288SOL     OW  862   1.479   2.017   2.470  0.0323 -0.0546 -0.4603
  288SOL    HW1  863   1.526   1.958   2.538 -0.0632 -0.6498 -1.2966
  288SOL    HW2  864   1.487   1.976   2.380  0.4323  0.5132  3.6216
  289SOL     OW  865   2.449   1.783   0.231 -0.3858 -0.4706 -0.4043
  289SOL    HW1  866   2.351   1.750   0.246 -0.2101 -0.3968 -2.0439
  289SOL    HW2  867   2.519   1.712   0.257 -2.3145 -0.5484 -0.0744
  290SOL     OW  868   1.231   1.489   0.982 -0.4718  0.5021  0.5422
  290SOL    HW1  869   1.332   1.500   0.995 -2.3460  1.6362  2.4531
  290SOL    HW2  870   1.192   1.424   1.050 -2.6206  1.3784 -2.1599
  291SOL     OW  871   1.528   1.093   3.001  0.2897  0.5338 -0.1285
  291SOL    HW1  872   1.540   1.075   3.102  0.0210 -0.7891  0.6316
  291SOL    HW2  873   1.557   1.017   2.941 -2.1508 -0.8840  0.1316
  292SOL     OW  874   1.298   1.791   0.322 -0.9571  0.4051 -0.0039
  292SOL    HW1  875   1.378   1.861   0.323  3.5618  2.5577  0.6782
  292SOL    HW2  876   1.288   1.738   0.408 -0.4988 -0.1660 -1.6932
  293SOL     OW  877   1.656   0.133   1.339  0.0140 -0.3857 -0.0903
  293SOL    HW1  878   1.729   0.199   1.366 -1.4474  0.1393 -0.8545
  293SOL    HW2  879   1.643   0.063   1.412  2.0747 -2.4503  1.6226
  294SOL     OW  880   1.997   0.935   3.013 -0.0515 -0.0805 -0.4753
  294SOL    HW1  881   1.916   0.981   2.963 -1.5340 -0.0568 -1.1276
  294SOL    HW2  882   2.057   1.008   3.055 -1.1590  1.6058 -2.1634
  295SOL     OW  883   1.887   1.712   2.899  0.0622  0.2573  0.2598
  295SOL    HW1  884   1.840   1.717   2.989 -0.7139  0.7227  1.9418
  295SOL    HW2  885   1.826   1.755   2.828 -1.9072 -0.2509  0.8638
  296SOL     OW  886   1.679   1.375   1.231  0.2464  0.9316  0.5772
  296SOL    HW1  887   1.700   1.377   1.127  1.6022 -0.6189 -1.1788
  296SOL    HW2  888   1.641   1.281   1.254  0.8777 -1.3360 -0.3101
  297SOL     OW  889   0.224   0.842   2.216 -0.3413  0.1040 -0.0931
  297SOL    HW1  890   0.271   0.758   2.253  2.6197 -1.6363 -0.2259
  297SOL    HW2  891   0.142   0.862   2.275  2.0142 -0.1114  0.0873
  298SOL     OW  892   1.521   2.165   1.317  0.2991  0.2963  0.6013
  298SOL    HW1  893   1.417   2.165   1.309  3.6719 -1.6962  0.5410
  298SOL    HW2  894   1.545   2.207   1.406 -0.0395 -1.3983 -3.4980
  299SOL     OW  895   1.102   0.152   2.490  0.7258  0.1638  0.6264
  299SOL    HW1  896   1.148   0.100   2.414  0.0464  2.2759  1.9200
  299SOL    HW2  897   1.035   0.219   2.449 -0.8726  1.3505  0.1357
  300SOL     OW  898   2.611   2.088   0.493  0.5709 -0.0648 -0.2750
  300SOL    HW1  899   2.705   2.114   0.465 -2.7274 -0.2497  0.2563
  300SOL    HW2  900   2.549   2.061   0.418 -1.0883 -1.0015  1.0904
  301SOL     OW  901   2.286   0.469   2.519 -0.1108 -0.3721 -0.2177
  301SOL    HW1  902   2.285   0.571   2.526 -1.5982  0.2808 -1.1698
  301SOL    HW2  903   2.325   0.422   2.604 -0.6716  0.1955  0.6586
  302SOL     OW  904   2.476   2.067   2.565 -0.0895 -0.6782  0.2450
  302SOL    HW1  905   2.511   2.019   2.642  2.5593  0.1163 -0.1317
  302SOL    HW2  906   2.470   2.164   2.590  0.0339  2.3508 -1.0047
  303SOL     OW  907   3.111   2.702   2.470  0.1767 -0.3810  0.1372
  303SOL    HW1  908   0.023   2.736   2.385 -0.0869 -0.9410 -0.5487
  303SOL    HW2  909   0.073   2.662   2.524 -1.5421 -2.2777 -0.4560
  304SOL     OW  910   0.070   1.553   1.387 -0.3240  0.4634  0.4513
  304SOL    HW1  911   0.109   1.458   1.370 -0.8044 -2.9748  0.1566
  304SOL    HW2  912   0.141   1.626   1.383 -1.0813  2.8169  0.3905
  305SOL     OW  913   0.082   0.465   2.010  0.4994 -0.2186  0.1007
  305SOL    HW1  914   0.170   0.491   2.049 -2.2623 -1.1272 -1.5005
  305SOL    HW2  915   0.071   0.365   2.023 -3.3950  2.0964  0.1918
  306SOL     OW  916   0.976   1.635   0.539  0.0083  0.2608 -0.0470
  306SOL    HW1  917   1.061   1.642   0.598  2.3517  2.0238  2.1611
  306SOL    HW2  918   0.960   1.707   0.468  0.1966 -0.3622 -0.1205
  307SOL     OW  919   0.001   0.005   0.675  0.4147  0.1856 -0.0923
  307SOL    HW1  920   0.061   0.059   0.731 -0.1010  0.5636  0.2645
  307SOL    HW2  921   0.008   3.018   0.694 -1.7419 -0.5370  1.7100
  308SOL     OW  922   2.958   1.057   2.245  0.6750  0.3245  0.5237
  308SOL    HW1  923   3.007   0.984   2.293 -0.7083  2.1932 -1.2328
  308SOL    HW2  924   3.023   1.108   2.188 -0.0872  2.1155  0.2130
  309SOL     OW  925   2.895   1.878   2.654 -0.4039 -0.8296  0.1175
  309SOL    HW1  926   2.837   1.810   2.696  1.1235  0.7123 -0.6853
  309SOL    HW2  927   2.861   1.974   2.667  0.2917  2.0731 -1.0278
  310SOL     OW  928   2.292   0.514   0.168 -0.2950  0.1266 -0.5672
  310SOL    HW1  929   2.335   0.605   0.148 -0.0270 -2.6651  3.1561
  310SOL    HW2  930   2.233   0.491   0.091 -1.1936  1.7255  0.8823
  311SOL     OW  931   2.023   0.698   0.037 -0.6121 -0.6855  0.1119
  311SOL    HW1  932   2.022   0.779   3.086  0.0716  3.2162  0.9920
  311SOL    HW2  933   2.093   0.625   0.009 -0.7488 -0.6002  2.7777
  312SOL     OW  934   1.264   1.801   2.551 -0.0312 -0.4791 -0.4343
  312SOL    HW1  935   1.355   1.848   2.559 -3.1777 -0.5167  0.4480
  312SOL    HW2  936   1.235   1.769   2.643 -1.0444 -1.3062  2.0145
  313SOL     OW  937   0.184   0.631   0.445 -0.3379  0.5162  0.3001
  313SOL    HW1  938   0.184   0.564   0.368 -1.0723 -0.8675 -4.0406
  313SOL    HW2  939   0.094   0.633   0.492  1.4736  0.2321 -1.3858
  314SOL     OW  940   0.567   1.550   1.403 -0.2780 -0.0541  0.7306
  314SOL    HW1  941   0.616   1.612   1.471  2.5004  2.5843  2.2317
  314SOL    HW2  942   0.639   1.504   1.346 -1.1929  2.1810  2.8407
  315SOL     OW  943   0.922   1.844   1.990 -0.5533 -0.3354 -0.5574
  315SOL    HW1  944   0.906   1.752   2.027 -1.7969  1.4994 -0.9677
  315SOL    HW2  945   0.857   1.857   1.915  0.5058  0.4800  2.1450
  316SOL     OW  946   0.326   2.281   0.743  0.0239  0.1953  0.0860
  316SOL    HW1  947   0.254   2.352   0.721  1.5015  0.9341  0.0402
  316SOL    HW2  948   0.353   2.227   0.661  0.7415 -1.0346  1.2192
  317SOL     OW  949   2.471   0.213   1.228  0.2148 -0.4447 -0.2776
  317SOL    HW1  950   2.479   0.227   1.129  0.6854  0.2127 -0.8953
  317SOL    HW2  951   2.554   0.165   1.265 -0.0965 -3.9470  0.2637
  318SOL     OW  952   1.633   2.977   0.260  0.2832 -0.4158 -0.3591
  318SOL    HW1  953   1.534   2.989   0.230 -2.4812  1.1666  0.9189
  318SOL    HW2  954   1.664   2.880   0.264  2.1194  0.3569  2.0785
  319SOL     OW  955   1.687   0.610   2.912  0.5135  0.1543  0.0379
  319SOL    HW1  956   1.711   0.578   3.008  0.6731  0.4059 -1.0052
  319SOL    HW2  957   1.770   0.636   2.859 -0.0002 -0.5185 -0.4618
  320SOL     OW  958   2.968   1.954   1.775  0.4444 -0.1315  0.1550
  320SOL    HW1  959   2.984   1.946   1.876 -1.6954 -0.6160 -0.1792
  320SOL    HW2  960   2.885   1.894   1.760  3.3984  0.6780  0.0504
  321SOL     OW  961   0.032   2.585   3.024 -0.4703  0.3634 -0.6796
  321SOL    HW1  962   0.024   2.613   0.008  2.4864 -0.1871  1.2032
  321SOL    HW2  963   0.008   2.483   3.008 -0.9665 -0.0727  4.2527
  322SOL     OW  964   2.593   0.644   2.465  0.1985 -0.4129  0.4373
  322SOL    HW1  965   2.578   0.711   2.389  0.0321  0.5617  2.6356
  322SOL    HW2  966   2.632   0.559   2.424 -1.4839 -1.5201  1.0305
  323SOL     OW  967   1.905   1.290   0.765 -0.2778  0.5929  0.2138
  323SOL    HW1  968   1.987   1.248   0.812  0.8313  1.0651  1.4554
  323SOL    HW2  969   1.870   1.230   0.692 -0.6115  0.5284  3.1710
  324SOL     OW  970   0.145   0.210   1.274 -0.3233  0.7233 -0.7299
  324SOL    HW1  971   0.238   0.175   1.295 -0.8650 -0.4613  0.5794
  324SOL    HW2  972   0.144   0.300   1.229  0.2980  0.4333  1.6914
  325SOL     OW  973   2.783   3.073   1.777 -0.1649 -0.7800 -0.1469
  325SOL    HW1  974   2.829   0.039   1.815  1.0892 -0.2498 -0.6041
  325SOL    HW2  975   2.687   3.064   1.816 -0.9497 -0.0433  0.4267
  326SOL     OW  976   1.665   2.706   0.200  0.2049  0.3697  0.6456
  326SOL    HW1  977   1.729   2.636   0.238  0.5860 -0.5724 -0.0792
  326SOL    HW2  978   1.707   2.747   0.116 -1.2104  0.2419 -4.0541
  327SOL     OW  979   1.759   2.191   0.233 -0.1417  0.1215 -0.8557
  327SOL    HW1  980   1.678   2.216   0.289 -3.9076 -0.9606  1.4277
  327SOL    HW2  981   1.733   2.138   0.150  0.5248  1.5805  0.1834
  328SOL     OW  982   0.057   2.116   2.109  0.1201 -0.2357 -0.0243
  328SOL    HW1  983   0.009   2.034   2.071 -0.2253 -0.2825  1.1230
  328SOL    HW2  984   0.156   2.095   2.116 -0.2568 -0.2572  0.6065
  329SOL     OW  985   3.039   2.234   1.240  0.0109 -0.1633  0.2271
  329SOL    HW1  986   2.959   2.226   1.178  1.5234 -2.4010 -1.2616
  329SOL    HW2  987   3.025   2.182   1.328 -2.9749  0.0492 -0.0316
  330SOL     OW  988   2.371   0.925   2.782 -0.7032 -0.8360  0.1762
  330SOL    HW1  989   2.376   0.876   2.690  0.9380  2.0408 -0.8182
  330SOL    HW2  990   2.404   1.021   2.763 -0.1830  0.2679 -1.0149
  331SOL     OW  991   2.325   1.724   0.910  0.7486  0.4315 -0.4945
  331SOL    HW1  992   2.369   1.696   0.823 -1.9377  2.4638  0.1333
  331SOL    HW2  993   2.338   1.824   0.925 -1.7138  0.9706 -0.8198
  332SOL     OW  994   0.351   2.587   0.909  0.0917 -0.7162  0.7535
  332SOL    HW1  995   0.359   2.661   0.836  0.5494  1.6231 -1.2835
  332SOL    HW2  996   0.431   2.529   0.914 -0.8866  2.0227 -0.6817
  333SOL     OW  997   0.036   1.857   2.264  0.0241 -0.1799  0.0467
  333SOL    HW1  998   0.020   1.769   2.311  0.1986  2.2577  0.2380
  333SOL    HW2  999   3.085   1.924   2.304 -1.1340 -0.9813 -0.3074
  334SOL     OW 1000   0.586   0.845   0.857 -0.7727  0.5774 -0.4726
  334SOL    HW1 1001   0.490   0.871   0.859 -0.5803 -0.1136 -0.5642
  334SOL    HW2 1002   0.631   0.826   0.951  1.3906  0.5729 -0.0066
  335SOL     OW 1003   0.039   1.594   2.333 -0.5166 -0.5289  0.2902
  335SOL    HW1 1004   0.122   1.632   2.386  1.1536 -0.2769  0.2261
  335SOL    HW2 1005   0.057   1.495   2.311 -1.4758 -1.6879  0.1085
  336SOL     OW 1006   2.135   3.060   2.245 -0.1060 -0.1743  0.1648
  336SOL    HW1 1007   2.075   2.987   2.285 -2.0385  0.1287  0.8859
  336SOL    HW2 1008   2.088   0.034   2.255  1.2788 -1.1080  2.1207
  337SOL     OW 1009   0.914   0.640   1.048  0.0354  0.6789  0.9886
  337SOL    HW1 1010   0.837   0.707   1.055 -0.3079  2.4184 -1.8275
  337SOL    HW2 1011   0.876   0.545   1.042  0.6310  0.9555  1.8376
  338SOL     OW 1012   1.676   1.977   1.177 -0.5503 -0.0916  0.4715
  338SOL    HW1 1013   1.696   1.897   1.230  0.8881  2.6171 -0.7113
  338SOL    HW2 1014   1.635   2.048   1.237  2.8820 -0.0817 -2.8108
  339SOL     OW 1015   0.356   1.632   1.243 -0.6985  0.4155  0.1279
  339SOL    HW1 1016   0.423   1.598   1.314 -0.1043 -2.5362  1.4953
  339SOL    HW2 1017   0.296   1.693   1.295  0.0737 -1.3644  1.0446
  340SOL     OW 1018   0.833   3.089   2.166 -0.1729 -0.3611  0.4004
  340SOL    HW1 1019   0.827   3.058   2.261 -2.4331 -0.4624 -0.6704
  340SOL    HW2 1020   0.792   3.023   2.100  1.3051  1.5694  0.2881
  341SOL     OW 1021   1.824   1.681   0.544  0.2533  0.3368 -0.0459
  341SOL    HW1 1022   1.878   1.766   0.564  2.7541  1.0981  0.2790
  341SOL    HW2 1023   1.877   1.599   0.561 -0.2659  2.5074 -0.0316
  342SOL     OW 1024   1.873   1.320   0.350  0.3950 -0.1438 -0.1072
  342SOL    HW1 1025   1.955   1.293   0.294  1.9591 -0.6580 -1.2242
  342SOL    HW2 1026   1.804   1.355   0.281 -0.2541  1.0030  0.7415
  343SOL     OW 1027   1.992   0.235   1.024 -0.3756 -0.0002  0.2368
  343SOL    HW1 1028   2.012   0.311   1.091 -1.0800  2.4047  3.6343
  343SOL    HW2 1029   2.021   0.146   1.064 -2.1223 -4.0071 -0.9111
  344SOL     OW 1030   2.652   0.531   0.140 -0.6771 -0.0495  0.0882
  344SOL    HW1 1031   2.734   0.484   0.101 -1.8997 -1.6228 -0.6204
  344SOL    HW2 1032   2.579   0.465   0.157  0.6004  0.9830 -2.0812
  345SOL     OW 1033   1.252   2.588   1.808  0.5826  0.1762  0.5494
  345SOL    HW1 1034   1.317   2.584   1.729 -1.9512  1.3479 -2.0711
  345SOL    HW2 1035   1.179   2.522   1.796  0.1522  3.7727 -0.0749
  346SOL     OW 1036   2.435   2.301   1.328 -0.2073 -0.8441  0.9102
  346SOL    HW1 1037   2.384   2.362   1.263 -0.3956 -1.8666 -0.8224
  346SOL    HW2 1038   2.439   2.341   1.420 -1.1252 -1.5804  0.4958
  347SOL     OW 1039   2.207   0.032   1.260 -0.1964  0.6645 -0.2929
  347SOL    HW1 1040   2.306   0.016   1.266 -2.0997  0.9869 -1.4661
  347SOL    HW2 1041   2.160   0.015   1.350 -0.5577  0.8661  0.0125
  348SOL     OW 1042   0.847   0.807   1.361  0.2033 -0.6505 -0.5001
  348SOL    HW1 1043   0.845   0.754   1.278 -0.0074  1.9114  0.3765
  348SOL    HW2 1044   0.866   0.902   1.339  0.5018  0.3772 -1.7265
  349SOL     OW 1045   2.445   0.485   3.007 -0.4349 -0.0222 -0.6460
  349SOL    HW1 1046   2.501   0.571   3.009 -0.2224  0.6090 -0.1073
  349SOL    HW2 1047   2.481   0.425   3.085  0.8975 -0.3454  1.4555
  350SOL     OW 1048   2.118   2.243   2.771  0.2792 -0.2509  0.2980
  350SOL    HW1 1049   2.032   2.221   2.818  2.0025 -0.5363 -0.4001
  350SOL    HW2 1050   2.188   2.256   2.844  0.2727  1.6583 -1.9927
  351SOL     OW 1051   1.066   0.445   0.502 -0.7634 -0.0998 -0.3561
  351SOL    HW1 1052   1.013   0.433   0.415 -0.5719  2.7062 -3.1089
  351SOL    HW2 1053   1.161   0.462   0.473 -1.0568  0.0036 -2.0714
  352SOL     OW 1054   1.710   2.130   2.782 -0.0802  0.2971 -0.5547
  352SOL    HW1 1055   1.704   2.173   2.690  1.0175 -1.0987 -0.0693
  352SOL    HW2 1056   1.789   2.168   2.835 -0.0382 -0.7105 -1.8516
  353SOL     OW 1057   0.537   0.860   2.860 -0.1827 -0.2498  0.5459
  353SOL    HW1 1058   0.486   0.862   2.769 -0.8904 -0.0979 -1.5153
  353SOL    HW2 1059   0.571   0.952   2.893  0.8047  2.8026  0.0346
  354SOL     OW 1060   0.740   2.251   2.669 -0.4643  0.2573 -0.1735
  354SOL    HW1 1061   0.703   2.164   2.629 -2.6083 -0.3371  2.2099
  354SOL    HW2 1062   0.710   2.260   2.766 -1.5262  1.2378 -0.5961
  355SOL     OW 1063   2.819   2.644   1.938 -0.8255 -0.9027  0.0558
  355SOL    HW1 1064   2.855   2.694   2.021 -0.2519  1.1145  0.5440
  355SOL    HW2 1065   2.822   2.698   1.853 -0.6761 -0.2795 -0.0464
  356SOL     OW 1066   2.762   1.202   1.102 -0.0978  0.2435 -0.2281
  356SOL    HW1 1067   2.737   1.219   1.201  1.2925  0.3240 -2.7637
  356SOL    HW2 1068   2.696   1.250   1.039 -0.4323  1.4863 -2.2326
  357SOL     OW 1069   2.716   0.052   1.274  0.4096  0.3091  0.1004
  357SOL    HW1 1070   2.771   0.022   1.355  0.0915 -1.6499 -1.2560
  357SOL    HW2 1071   2.780   0.070   1.192  1.8838  0.8305 -1.7554
  358SOL     OW 1072   0.994   1.984   1.572  0.0339  0.2280  0.1357
  358SOL    HW1 1073   1.028   2.079   1.545  3.4155  0.1989  0.2262
  358SOL    HW2 1074   0.935   2.001   1.655  0.4637 -0.8369 -0.4710
  359SOL     OW 1075   2.902   2.596   2.629  0.0765 -0.1139 -0.2918
  359SOL    HW1 1076   2.941   2.658   2.700 -1.8679  0.8824 -0.5553
  359SOL    HW2 1077   2.962   2.596   2.542  1.8152 -1.9663  0.0787
  360SOL     OW 1078   1.197   0.847   1.396 -0.4911  0.1832  0.1700
  360SOL    HW1 1079   1.112   0.791   1.423  1.3318  0.0011  1.9060
  360SOL    HW2 1080   1.282   0.793   1.380 -1.7621  2.0541  0.3379
  361SOL     OW 1081   2.391   0.330   0.668  0.0798 -0.3994  0.6014
  361SOL    HW1 1082   2.320   0.336   0.739  1.0383  1.4001 -1.9637
  361SOL    HW2 1083   2.368   0.259   0.595 -3.4394  1.1560 -2.3282
  362SOL     OW 1084   0.407   0.089   0.619  0.2581  0.2657 -0.0546
  362SOL    HW1 1085   0.438   3.110   0.593 -0.6634 -0.9745 -0.5004
  362SOL    HW2 1086   0.490   0.150   0.628 -1.9700 -0.0931  0.8869
  363SOL     OW 1087   0.621   1.334   0.341  0.5047 -0.0318 -0.4788
  363SOL    HW1 1088   0.536   1.293   0.375  1.8887  0.5361  0.8145
  363SOL    HW2 1089   0.697   1.294   0.389  1.1246  0.0950 -0.8455
  364SOL     OW 1090   0.562   0.926   1.699 -0.5774 -0.2878 -0.0995
  364SOL    HW1 1091   0.587   0.836   1.742 -1.2522  0.9105  0.2292
  364SOL    HW2 1092   0.533   0.914   1.606  0.6902 -1.0372  1.0300
  365SOL     OW 1093   2.768   1.102   0.639 -0.3633  0.0889 -0.2211
  365SOL    HW1 1094   2.728   1.057   0.722 -0.5379  0.7031 -0.3703
  365SOL    HW2 1095   2.868   1.107   0.656  0.3963  1.6142  1.7859
  366SOL     OW 1096   2.636   1.439   0.560 -0.0684 -0.0860 -0.2412
  366SOL    HW1 1097   2.605   1.342   0.570  0.5484 -0.2368 -1.5344
  366SOL    HW2 1098   2.737   1.444   0.589  4.7288 -0.3947 -0.2293
  367SOL     OW 1099   2.391   1.890   2.380 -0.6114 -0.5164  0.2111
  367SOL    HW1 1100   2.317   1.925   2.325  0.2094  1.7477  1.5868
  367SOL    HW2 1101   2.423   1.960   2.449  1.4445  0.9590 -1.1972
  368SOL     OW 1102   2.783   1.801   0.808 -0.3394  0.2147  0.0270
  368SOL    HW1 1103   2.793   1.705   0.850  0.6579  0.1222  0.3920
  368SOL    HW2 1104   2.706   1.800   0.740  0.6882 -0.9989 -1.6988
  369SOL     OW 1105   2.035   2.440   2.575 -0.9741 -0.4196  0.3366
  369SOL    HW1 1106   2.058   2.381   2.650  0.1551  0.0471 -0.2591
  369SOL    HW2 1107   1.950   2.492   2.596 -0.0068  0.1185 -2.4002
  370SOL     OW 1108   0.047   3.082   1.193 -0.0467 -0.3171 -0.6645
  370SOL    HW1 1109   0.086   0.046   1.247 -0.3860  2.5484  4.0457
  370SOL    HW2 1110   0.116   3.033   1.136 -0.1284 -1.5814 -0.7359
  371SOL     OW 1111   0.710   1.938   0.091  0.1267  0.2815 -0.1051
  371SOL    HW1 1112   0.749   1.853   0.128  0.3768  2.1706 -1.2327
  371SOL    HW2 1113   0.616   1.955   0.121  0.2069 -0.9853 -1.9756
  372SOL     OW 1114   1.086   1.188   0.146 -0.2205 -0.0983 -0.2468
  372SOL    HW1 1115   1.001   1.165   0.092 -2.4977  1.3377 -1.6393
  372SOL    HW2 1116   1.107   1.286   0.126  1.7862 -0.7367  1.5964
  373SOL     OW 1117   1.466   2.650   2.476 -0.3238 -0.2586 -0.2648
  373SOL    HW1 1118   1.508   2.556   2.464  0.4666 -3.9902  0.3464
  373SOL    HW2 1119   1.534   2.716   2.517  2.2705 -1.6326 -1.4186
  374SOL     OW 1120   0.202   2.431   0.213  0.1593 -0.2832 -0.1169
  374SOL    HW1 1121   0.172   2.357   0.152 -0.8630  0.5952 -0.9314
  374SOL    HW2 1122   0.264   2.500   0.164  1.3524  0.2934  0.8815
  375SOL     OW 1123   0.732   1.217   1.682 -0.3357 -0.4889  0.1108
  375SOL    HW1 1124   0.746   1.126   1.724  0.1020  1.7084 -1.8219
  375SOL    HW2 1125   0.683   1.286   1.741  2.0789  0.7403 -0.2881
  376SOL     OW 1126   0.508   2.394   1.880  0.4893 -0.4564  0.6909
  376SOL    HW1 1127   0.583   2.434   1.827 -0.1678 -0.1828 -0.8704
  376SOL    HW2 1128   0.482   2.299   1.851  0.1437  0.6377 -0.5514
  377SOL     OW 1129   2.897   1.527   2.485  0.1252 -0.1943  0.4603
  377SOL    HW1 1130   2.975   1.569   2.436 -0.4337 -0.9041 -0.6068
  377SOL    HW2 1131   2.901   1.428   2.465 -0.3279  0.9837  0.1909
  378SOL     OW 1132   1.396   2.973   0.108 -0.3266  0.0560 -0.0407
  378SOL    HW1 1133   1.412   2.984   0.006 -1.5998  0.0143 -0.7799
  378SOL    HW2 1134   1.400   2.874   0.139  0.5319  1.0009  1.1280
  379SOL     OW 1135   1.803   0.809   0.678  0.0475 -0.1197  0.5951
  379SOL    HW1 1136   1.818   0.865   0.764  1.6358  2.0768  1.7948
  379SOL    HW2 1137   1.831   0.863   0.596  1.8099 -1.3330  0.9292
  380SOL     OW 1138   0.192   1.793   1.394 -0.3489  0.3545 -0.0128
  380SOL    HW1 1139   0.221   1.845   1.475 -1.7471  0.4773 -0.4074
  380SOL    HW2 1140   0.098   1.823   1.368 -2.1301  0.5038 -1.7619
  381SOL     OW 1141   2.116   1.716   2.262  0.6388 -0.0990  0.4030
  381SOL    HW1 1142   2.128   1.691   2.360 -0.5148 -2.7569 -0.3751
  381SOL    HW2 1143   2.087   1.630   2.216 -1.4140  1.7099 -1.3402
  382SOL     OW 1144   0.046   0.236   2.641 -0.0943  0.1975 -0.6452
  382SOL    HW1 1145   3.106   0.151   2.657  0.8870 -0.0259  2.3920
  382SOL    HW2 1146   3.113   0.296   2.579  0.4434  1.4992  2.4800
  383SOL     OW 1147   1.769   1.393   2.814  0.2545 -0.1899  0.1678
  383SOL    HW1 1148   1.866   1.406   2.846  1.6677  0.6536  1.8938
  383SOL    HW2 1149   1.704   1.447   2.871  0.6706 -1.1519  0.9754
  384SOL     OW 1150   1.073   2.226   1.500  0.2200  0.0417  0.1204
  384SOL    HW1 1151   1.136   2.267   1.570 -0.6723  0.3868 -0.4280
  384SOL    HW2 1152   0.997   2.297   1.484 -0.0634  2.8080 -1.7370
  385SOL     OW 1153   1.823   2.580   0.740 -0.2866 -0.3905 -1.0242
  385SOL    HW1 1154   1.839   2.608   0.838 -3.2898  1.4141 -0.3798
  385SOL    HW2 1155   1.870   2.644   0.676 -2.0405 -1.2115  0.1215
  386SOL     OW 1156   1.920   1.891   1.123 -0.0036 -0.1669 -0.0278
  386SOL    HW1 1157   1.918   1.820   1.193 -0.9372 -0.4464 -0.5959
  386SOL    HW2 1158   1.820   1.923   1.101 -1.4322 -2.0148 -2.6204
  387SOL     OW 1159   3.066   2.397   1.620  0.0178  0.6076  0.3751
  387SOL    HW1 1160   3.081   2.308   1.571 -0.5412  2.8667 -0.5409
  387SOL    HW2 1161   3.001   2.390   1.698 -2.5921  3.8748  0.7973
  388SOL     OW 1162   2.915   0.551   1.625 -0.2213 -0.9907  0.2504
  388SOL    HW1 1163   2.908   0.650   1.599  0.1546 -1.4194  0.2549
  388SOL    HW2 1164   2.837   0.517   1.681  1.7272  0.6705 -1.4826
  389SOL     OW 1165   1.802   0.924   0.435  0.3242  0.3612  0.3314
  389SOL    HW1 1166   1.872   0.881   0.366  1.7408  1.2462 -4.0956
  389SOL    HW2 1167   1.707   0.882   0.421 -2.6599  0.8463 -1.5941
  390SOL     OW 1168   1.109   2.027   2.508 -0.9417 -0.4715  0.1290
  390SOL    HW1 1169   1.015   2.014   2.478  2.0297  0.4288  0.7384
  390SOL    HW2 1170   1.153   1.934   2.518 -0.6378 -0.3561  0.0410
  391SOL     OW 1171   0.998   2.153   2.992 -0.1676 -0.2111 -0.0860
  391SOL    HW1 1172   0.984   2.250   3.005  0.5271  1.0025  1.5048
  391SOL    HW2 1173   1.066   2.136   2.918 -0.9210  1.8118  0.8376
  392SOL     OW 1174   0.118   2.849   1.721  0.3518 -0.4967 -0.3163
  392SOL    HW1 1175   0.191   2.911   1.755 -0.4067  4.3711  0.5655
  392SOL    HW2 1176   0.038   2.845   1.784 -0.3061  1.3553 -0.5009
  393SOL     OW 1177   1.803   2.480   0.281 -0.5307  0.6597  0.4094
  393SOL    HW1 1178   1.846   2.445   0.192 -0.2306  0.5455 -0.1255
  393SOL    HW2 1179   1.740   2.404   0.319 -1.3019 -2.4957 -0.0498
  394SOL     OW 1180   0.731   0.504   2.202 -0.1924  0.2732 -0.2239
  394SOL    HW1 1181   0.702   0.496   2.105  0.4025 -1.2030  0.3079
  394SOL    HW2 1182   0.677   0.438   2.258  1.1299 -2.3283 -0.6272
  395SOL     OW 1183   0.418   1.185   1.360  0.0479  0.4139  0.1799
  395SOL    HW1 1184   0.419   1.235   1.270 -2.9713 -1.7467 -1.2065
  395SOL    HW2 1185   0.328   1.195   1.397  0.8747 -0.7424  0.9398
  396SOL     OW 1186   1.931   1.052   2.390 -0.1109 -0.1358 -0.4761
  396SOL    HW1 1187   1.842   1.095   2.414  0.4215  0.5827 -0.7917
  396SOL    HW2 1188   1.951   0.974   2.457 -0.3017 -2.9693  2.1958
  397SOL     OW 1189   0.779   0.085   2.940 -0.1224  0.8210  0.0069
  397SOL    HW1 1190   0.846   0.021   2.980  0.0389  1.4904  0.6480
  397SOL    HW2 1191   0.726   0.147   3.001 -4.2922 -0.2016 -2.4532
  398SOL     OW 1192   0.810   1.941   2.954  0.0430 -0.0091  0.2084
  398SOL    HW1 1193   0.738   1.939   3.027  1.2365 -2.7132  1.7843
  398SOL    HW2 1194   0.873   2.018   2.971 -0.9578 -1.4103  0.6484
  399SOL     OW 1195   2.534   1.561   2.745  0.7916 -0.2602  0.7161
  399SOL    HW1 1196   2.477   1.582   2.659 -1.0623  2.4359  1.6259
  399SOL    HW2 1197   2.517   1.465   2.775 -0.9712  0.6569  1.6232
  400SOL     OW 1198   2.600   1.240   1.361 -0.4606 -0.0329  0.2577
  400SOL    HW1 1199   2.592   1.334   1.325  0.4416 -2.1553  0.7122
  400SOL    HW2 1200   2.511   1.188   1.353  0.1270 -2.9853  0.3871
  401SOL     OW 1201   0.981   1.800   0.943  0.1202 -0.4053  0.0756
  401SOL    HW1 1202   0.938   1.789   1.033 -0.2469 -1.7762  1.1018
  401SOL    HW2 1203   1.078   1.831   0.949  3.6389  0.9691 -0.0113
  402SOL     OW 1204   0.095   2.522   2.105 -0.0875 -0.4405  0.1412
  402SOL    HW1 1205   0.114   2.518   2.204 -0.1643 -1.2146 -4.9815
  402SOL    HW2 1206   0.174   2.568   2.052 -0.8840  1.3676  0.5167
  403SOL     OW 1207   0.056   1.272   2.539  0.1750  0.3784 -0.4294
  403SOL    HW1 1208   0.070   1.341   2.611  0.6718 -2.3963 -1.5148
  403SOL    HW2 1209   0.069   1.175   2.574  1.1723 -2.4375  2.0383
  404SOL     OW 1210   2.122   2.201   1.486 -0.1001 -0.3131  0.1614
  404SOL    HW1 1211   2.165   2.174   1.574  0.3745 -0.3080 -0.2428
  404SOL    HW2 1212   2.117   2.130   1.412  1.4787  0.8735  0.7269
  405SOL     OW 1213   2.712   0.306   2.655 -0.3234 -0.1651  0.4730
  405SOL    HW1 1214   2.714   0.300   2.553  1.0757  1.2366  0.3403
  405SOL    HW2 1215   2.727   0.218   2.702  0.3629  1.2188 -0.0651
  406SOL     OW 1216   0.744   1.042   0.050 -0.2115 -0.1570 -0.3694
  406SOL    HW1 1217   0.826   0.989   0.022  1.0759 -1.4426  0.1034
  406SOL    HW2 1218   0.662   1.022   3.108  0.5030 -1.6247  1.3230
  407SOL     OW 1219   1.810   2.548   2.699  0.4112  0.8902  0.0521
  407SOL    HW1 1220   1.719   2.508   2.728 -0.2300 -1.0900 -2.3493
  407SOL    HW2 1221   1.836   2.631   2.748  0.1013  1.6042 -1.5454
  408SOL     OW 1222   3.027   2.983   0.012  0.3365  0.2008 -0.2072
  408SOL    HW1 1223   3.091   2.955   0.083  0.6175  1.6102  1.3975
  408SOL    HW2 1224   3.079   3.006   3.043 -0.1178  0.5246  1.5084
  409SOL     OW 1225   2.133   1.645   1.071  0.0021  0.1410  0.2217
  409SOL    HW1 1226   2.043   1.644   1.024 -2.8919 -0.7058 -0.8692
  409SOL    HW2 1227   2.210   1.659   1.006  0.9568 -1.8990  1.6916
  410SOL     OW 1228   2.491   2.008   3.090 -0.1621  0.1548  0.0452
  410SOL    HW1 1229   2.540   1.922   3.108  0.1403  0.2645  2.8594
  410SOL    HW2 1230   2.552   2.082   3.053  2.7880  0.1618  3.3359
  411SOL     OW 1231   3.025   1.118   0.696 -0.3252  0.5117  0.3027
  411SOL    HW1 1232   3.094   1.194   0.705 -0.0277 -0.4366 -0.4070
  411SOL    HW2 1233   3.068   1.028   0.714  1.8963 -0.6002  1.1657
  412SOL     OW 1234   1.957   2.601   0.469 -0.8124 -0.4015 -0.3117
  412SOL    HW1 1235   1.889   2.566   0.404 -0.2724  2.2242 -0.0293
  412SOL    HW2 1236   2.049   2.591   0.431 -0.5174  0.4668  0.1343
  413SOL     OW 1237   1.756   0.765   2.066  0.1570 -0.1257 -0.1043
  413SOL    HW1 1238   1.673   0.716   2.092  3.3041 -1.0203 -0.3100
  413SOL    HW2 1239   1.835   0.701   2.070 -1.2967 -2.2262 -0.3651
  414SOL     OW 1240   3.032   0.423   0.395 -0.1472 -0.5972  0.4287
  414SOL    HW1 1241   2.971   0.347   0.370  1.7023 -0.2408  0.4955
  414SOL    HW2 1242   3.079   0.388   0.482  1.2319 -0.3535  1.0097
  415SOL     OW 1243   0.981   1.723   1.590  0.6305 -0.7832 -0.2227
  415SOL    HW1 1244   1.029   1.681   1.665  1.9100  0.6880  1.4524
  415SOL    HW2 1245   1.016   1.817   1.565 -0.4737 -0.6133 -1.3467
  416SOL     OW 1246   0.246   0.015   2.951  0.5512  0.0658  0.3189
  416SOL    HW1 1247   0.210   0.110   2.947 -0.2474  1.7970  1.3000
  416SOL    HW2 1248   0.179   3.058   2.918 -3.4007  0.5394  1.3152
  417SOL     OW 1249   2.699   0.092   0.886 -0.2425 -0.2895 -0.1452
  417SOL    HW1 1250   2.643   0.177   0.910 -0.5934  3.1815  0.0515
  417SOL    HW2 1251   2.771   0.068   0.952 -1.2986  0.5724 -0.4006
  418SOL     OW 1252   0.224   0.485   2.576 -0.3602 -0.1932  0.0931
  418SOL    HW1 1253   0.137   0.455   2.532 -1.4107 -1.0038 -0.0852
  418SOL    HW2 1254   0.284   0.537   2.511 -0.2962 -0.1034  1.7072
  419SOL     OW 1255   0.162   1.276   1.469 -0.0817  0.4247  0.3465
  419SOL    HW1 1256   0.157   1.274   1.569 -0.2238  2.7141 -0.7492
  419SOL    HW2 1257   0.068   1.254   1.443  1.6091  0.5787 -0.0118
  420SOL     OW 1258   0.576   1.773   0.579  0.0357  0.1899 -0.0018
  420SOL    HW1 1259   0.589   1.715   0.498 -0.4124 -0.8341  1.1950
  420SOL    HW2 1260   0.632   1.733   0.656 -0.5333 -0.1806 -0.4411
  421SOL     OW 1261   2.114   2.383   2.303 -0.2108  0.4401 -0.3405
  421SOL    HW1 1262   2.069   2.407   2.393  2.3066 -1.0456 -0.0406
  421SOL    HW2 1263   2.195   2.328   2.325 -0.9600 -0.8930 -0.3083
  422SOL     OW 1264   3.045   0.542   2.791 -0.0370  0.1004  0.1055
  422SOL    HW1 1265   2.958   0.557   2.845 -1.9597 -1.4506  1.9342
  422SOL    HW2 1266   3.072   0.442   2.787 -0.6178 -0.4133  1.4521
  423SOL     OW 1267   1.459   2.058   1.035 -0.2595 -0.1586  0.0735
  423SOL    HW1 1268   1.547   2.016   1.059  0.1245  0.5135  0.8623
  423SOL    HW2 1269   1.433   2.127   1.104 -0.4979  0.7410  3.2997
  424SOL     OW 1270   0.792   2.014   1.773  1.0179 -0.2063 -0.2280
  424SOL    HW1 1271   0.729   1.956   1.716 -1.5342 -1.1657 -0.2689
  424SOL    HW2 1272   0.748   2.036   1.861 -1.9408 -1.0455  0.3610
  425SOL     OW 1273   0.027   2.793   2.119  0.1543  0.0342  0.3615
  425SOL    HW1 1274   0.061   2.694   2.120  0.3947  0.9536 -2.8163
  425SOL    HW2 1275   3.041   2.801   2.142  0.7648 -1.7193  1.1425
  426SOL     OW 1276   1.563   0.559   0.487  0.0097  0.3587 -0.6697
  426SOL    HW1 1277   1.648   0.545   0.431  1.8769 -0.1605 -0.6591
  426SOL    HW2 1278   1.591   0.580   0.580 -0.8274  1.8543 -1.2502
  427SOL     OW 1279   1.028   0.909   0.051 -0.6211  0.2726  0.1895
  427SOL    HW1 1280   1.020   0.888   0.149 -0.1218 -3.1555  0.1036
  427SOL    HW2 1281   1.119   0.878   0.020 -0.0688 -1.1161 -1.0954
  428SOL     OW 1282   1.428   1.300   0.175  0.1163  0.3702  0.4735
  428SOL    HW1 1283   1.366   1.326   0.246  4.4984 -0.8244 -3.2045
  428SOL    HW2 1284   1.409   1.344   0.084  1.2050  0.7298 -1.3243
  429SOL     OW 1285   2.875   2.713   0.584 -0.0308  0.1695  0.3009
  429SOL    HW1 1286   2.979   2.710   0.586  0.6171  0.5565 -2.2130
  429SOL    HW2 1287   2.844   2.759   0.496  1.0373  1.2170  1.7505
  430SOL     OW 1288   0.478   3.008   2.342  0.1033 -0.1312 -0.0767
  430SOL    HW1 1289   0.484   3.045   2.439  2.9983 -0.5820  1.5553
  430SOL    HW2 1290   0.558   2.949   2.316  0.0029 -0.8220  2.2130
  431SOL     OW 1291   2.665   1.012   0.881  0.5203  0.5878  0.7224
  431SOL    HW1 1292   2.569   1.045   0.876  1.5975  0.9436  1.0343
  431SOL    HW2 1293   2.715   1.055   0.956  0.8360 -1.7755 -0.3401
  432SOL     OW 1294   2.135   2.668   1.929  0.4233 -0.0869 -0.0409
  432SOL    HW1 1295   2.179   2.655   2.018 -0.5704 -1.5093  0.2265
  432SOL    HW2 1296   2.128   2.585   1.877  1.7858  0.5166  1.3095
  433SOL     OW 1297   1.577   2.473   0.701  0.7665 -0.1588 -0.1408
  433SOL    HW1 1298   1.580   2.373   0.718 -4.5105 -1.8796  1.5270
  433SOL    HW2 1299   1.670   2.517   0.708 -0.7148 -0.7994 -0.4066
  434SOL     OW 1300   0.637   2.095   2.016  0.0244 -0.2501 -1.2276
  434SOL    HW1 1301   0.634   2.151   2.102 -2.7712  1.6618 -3.9889
  434SOL    HW2 1302   0.557   2.123   1.957 -0.6619 -0.4404 -1.1087
  435SOL     OW 1303   2.965   1.044   0.070  0.0239 -0.0467 -0.9070
  435SOL    HW1 1304   2.946   1.019   0.167  0.2646  1.0403 -0.1096
  435SOL    HW2 1305   3.065   1.040   0.056 -0.5486  0.2255 -1.5000
  436SOL     OW 1306   0.305   2.594   1.956 -0.2840  0.4031  0.0694
  436SOL    HW1 1307   0.352   2.678   1.965 -1.4680 -2.2057 -0.2767
  436SOL    HW2 1308   0.372   2.525   1.917  1.0007  0.1250  0.1221
  437SOL     OW 1309   1.685   2.534   1.757  0.0695 -0.0140 -0.4287
  437SOL    HW1 1310   1.707   2.508   1.662  0.7304  0.1352  2.0185
  437SOL    HW2 1311   1.760   2.585   1.803 -0.4465  0.2315 -2.0584
  438SOL     OW 1312   0.070   1.824   0.505  0.0443 -0.2914  0.2744
  438SOL    HW1 1313   0.161   1.833   0.546 -0.7874 -2.7092 -0.6485
  438SOL    HW2 1314   0.004   1.838   0.578  1.5458 -2.2664 -2.7014
  439SOL     OW 1315   0.144   0.476   0.821  0.1496  0.9218  0.7915
  439SOL    HW1 1316   0.227   0.535   0.813  1.3372  0.6117  0.6096
  439SOL    HW2 1317   0.155   0.408   0.895  1.0105  0.8912 -0.3623
  440SOL     OW 1318   0.225   2.936   2.386  0.0640  0.1242  0.6559
  440SOL    HW1 1319   0.252   2.836   2.398  0.4375 -2.1152  1.8858
  440SOL    HW2 1320   0.301   2.986   2.340 -0.1394  0.5234 -0.7077
  441SOL     OW 1321   3.065   0.646   0.721 -0.2627 -0.4242  0.0112
  441SOL    HW1 1322   0.004   0.573   0.778  1.0491 -2.7654  1.9764
  441SOL    HW2 1323   2.970   0.611   0.719  2.1236  0.0309  1.5921
  442SOL     OW 1324   1.363   2.261   2.438 -0.2910 -0.3071  0.0699
  442SOL    HW1 1325   1.392   2.161   2.454  1.0898 -3.4150 -0.1370
  442SOL    HW2 1326   1.365   2.289   2.340 -1.8282  0.6823  0.5422
  443SOL     OW 1327   0.577   0.736   0.292  0.2225  0.3896  0.1915
  443SOL    HW1 1328   0.506   0.691   0.234 -1.0979 -2.7615 -1.1471
  443SOL    HW2 1329   0.661   0.682   0.295 -1.1601  0.6987 -1.0276
  444SOL     OW 1330   1.555   1.288   2.652 -0.3334 -1.0070 -0.2013
  444SOL    HW1 1331   1.513   1.363   2.602  1.3351 -2.5965 -0.5444
  444SOL    HW2 1332   1.634   1.319   2.700  0.5831  0.1590  0.2511
  445SOL     OW 1333   3.112   0.341   0.637 -0.0801  0.1248 -0.1109
  445SOL    HW1 1334   0.053   0.386   0.707 -0.7434  0.3606  1.2611
  445SOL    HW2 1335   3.046   0.281   0.691  0.7816  0.1017  0.1433
  446SOL     OW 1336   2.213   0.697   1.055 -0.3450  0.3054 -0.0310
  446SOL    HW1 1337   2.161   0.768   1.108  2.5440 -4.0130 -0.8976
  446SOL    HW2 1338   2.162   0.684   0.966  0.5266 -1.2089 -0.8860
  447SOL     OW 1339   0.073   0.754   3.047  0.2752  0.4321  0.1123
  447SOL    HW1 1340   0.171   0.738   3.039 -1.2642 -0.8285  0.3884
  447SOL    HW2 1341   0.019   0.676   3.084 -1.2996  0.8728 -1.5209
  448SOL     OW 1342   1.855   2.141   1.770  0.4786 -0.0031 -0.0017
  448SOL    HW1 1343   1.766   2.188   1.793  0.2275 -0.6999 -0.9427
  448SOL    HW2 1344   1.889   2.165   1.680 -1.2250  0.9402  2.3750
  449SOL     OW 1345   0.762   1.692   0.794 -0.2607  0.2522 -0.4307
  449SOL    HW1 1346   0.844   1.739   0.827  0.7151  0.8731  0.6256
  449SOL    HW2 1347   0.792   1.601   0.756 -0.3098 -1.9614 -0.9663
  450SOL     OW 1348   2.879   2.223   2.377 -0.4828  0.3565 -0.7075
  450SOL    HW1 1349   2.910   2.271   2.295 -0.5822  3.4651  1.7815
  450SOL    HW2 1350   2.875   2.124   2.358 -2.5785  1.7327  0.3544
  451SOL     OW 1351   2.505   1.299   2.904  0.5027  0.1737 -1.1369
  451SOL    HW1 1352   2.513   1.226   2.975  1.3693  0.3244  1.6394
  451SOL    HW2 1353   2.473   1.389   2.939  1.5071 -0.4224 -0.9441
  452SOL     OW 1354   2.083   0.895   1.161  0.1968 -0.0744 -0.0521
  452SOL    HW1 1355   2.111   0.970   1.231  2.6302 -0.6582  1.4682
  452SOL    HW2 1356   1.986   0.889   1.136 -1.3172 -3.0800 -1.8949
  453SOL     OW 1357   2.349   0.822   1.417  0.0586  0.0539  0.0901
  453SOL    HW1 1358   2.283   0.873   1.472  2.0665 -0.1317 -1.0021
  453SOL    HW2 1359   2.375   0.734   1.458  1.3054 -3.5075  0.3823
  454SOL     OW 1360   2.797   1.251   0.038 -0.0282  0.0063 -0.4477
  454SOL    HW1 1361   2.863   1.176   0.027  0.0368 -2.5460 -1.0957
  454SOL    HW2 1362   2.703   1.221   0.018  0.8731 -1.2239 -0.0198
  455SOL     OW 1363   2.548   1.530   1.373 -0.3276 -0.3021  1.0709
  455SOL    HW1 1364   2.493   1.526   1.291 -0.0777 -2.8805  2.9827
  455SOL    HW2 1365   2.520   1.610   1.431 -2.5771 -0.5962  1.6270
  456SOL     OW 1366   1.100   0.325   1.456  0.2198  0.0805 -0.2691
  456SOL    HW1 1367   1.098   0.415   1.508 -2.6236 -1.5674 -2.2714
  456SOL    HW2 1368   1.186   0.310   1.401 -1.9223  1.0157  0.6822
  457SOL     OW 1369   1.967   2.669   0.959  0.0083 -0.1883 -0.2777
  457SOL    HW1 1370   2.020   2.753   0.945  1.1249  1.6719 -2.2401
  457SOL    HW2 1371   1.923   2.656   1.050 -1.7239 -1.6457 -2.1372
  458SOL     OW 1372   2.855   0.222   0.438  0.4343 -0.4812  0.5530
  458SOL    HW1 1373   2.759   0.204   0.418  2.0280  0.7000  0.1956
  458SOL    HW2 1374   2.858   0.240   0.537  0.0204  0.9620  0.5677
  459SOL     OW 1375   1.581   0.814   0.184  0.4278  0.3307 -0.2317
  459SOL    HW1 1376   1.612   0.903   0.164 -4.4929 -1.2357  0.9479
  459SOL    HW2 1377   1.560   0.797   0.282  0.2575 -1.7425  1.9179
  460SOL     OW 1378   0.289   2.635   2.538 -0.0816 -0.0965 -0.4759
  460SOL    HW1 1379   0.292   2.650   2.639 -1.2991  0.6469  1.5745
  460SOL    HW2 1380   0.384   2.610   2.506  3.2673  0.1096  1.2097
  461SOL     OW 1381   0.411   1.663   0.228  0.7586 -0.0145  0.0262
  461SOL    HW1 1382   0.498   1.633   0.274  2.5318  0.4383  0.0779
  461SOL    HW2 1383   0.403   1.608   0.141 -0.4076 -1.2292  0.6250
  462SOL     OW 1384   2.050   1.974   0.886  0.2167  0.1902 -0.4595
  462SOL    HW1 1385   2.154   1.987   0.898  3.9898 -1.7725  1.0472
  462SOL    HW2 1386   2.000   1.954   0.972  0.7275 -1.3209 -0.6661
  463SOL     OW 1387   2.969   0.674   0.313 -0.3809  0.0370 -0.1959
  463SOL    HW1 1388   2.895   0.718   0.369 -2.6764 -1.3384  1.7506
  463SOL    HW2 1389   2.985   0.579   0.348 -0.9509 -0.3132  0.6611
  464SOL     OW 1390   0.781   2.632   0.444  0.0491  0.4927  0.8629
  464SOL    HW1 1391   0.832   2.575   0.375 -1.6298 -0.0535 -1.7519
  464SOL    HW2 1392   0.752   2.578   0.524 -0.1191  1.0945 -0.5173
  465SOL     OW 1393   2.173   0.356   0.854  0.3052  0.7403 -0.3458
  465SOL    HW1 1394   2.105   0.296   0.900 -1.7202  0.1507  2.7623
  465SOL    HW2 1395   2.142   0.401   0.767  1.0520  1.7071  0.8614
  466SOL     OW 1396   2.084   0.158   0.333 -0.3102  0.0576  0.0501
  466SOL    HW1 1397   2.000   0.220   0.342  0.5407  1.5794 -0.6357
  466SOL    HW2 1398   2.086   0.109   0.246 -1.1514  1.3403  2.0215
  467SOL     OW 1399   1.105   0.477   1.910  0.0327  0.5212  0.1614
  467SOL    HW1 1400   1.132   0.489   2.008  2.2974  0.6164  0.7952
  467SOL    HW2 1401   1.088   0.376   1.892  1.0509 -0.4652  0.7603
  468SOL     OW 1402   2.736   0.400   1.795  0.0578 -0.1052  1.1027
  468SOL    HW1 1403   2.660   0.367   1.735  2.0563  0.3884 -2.8856
  468SOL    HW2 1404   2.700   0.430   1.886 -0.6788  2.2263  0.2236
  469SOL     OW 1405   1.038   2.257   2.327 -0.1421 -0.5958 -0.1980
  469SOL    HW1 1406   1.090   2.188   2.384  1.2954  0.1575  0.3348
  469SOL    HW2 1407   0.982   2.206   2.259  3.1810  0.0392  0.8089
  470SOL     OW 1408   1.905   1.137   1.858 -0.5645  0.1454  0.2119
  470SOL    HW1 1409   2.005   1.144   1.833 -2.7362  1.7727  0.3549
  470SOL    HW2 1410   1.894   1.096   1.953  0.0649 -1.9947  0.5243
  471SOL     OW 1411   2.779   1.525   0.122 -0.2776  0.2830  0.0817
  471SOL    HW1 1412   2.857   1.583   0.136 -1.4222 -2.0168  0.7814
  471SOL    HW2 1413   2.803   1.444   0.067 -1.4836  1.1764  0.1143
  472SOL     OW 1414   0.469   2.676   0.342 -0.1647 -0.2324 -0.4780
  472SOL    HW1 1415   0.462   2.576   0.361  2.0237  2.1456 -0.9811
  472SOL    HW2 1416   0.566   2.706   0.350 -0.2896 -1.9523 -0.3941
  473SOL     OW 1417   1.116   2.517   2.241 -0.5526  0.4029  0.1372
  473SOL    HW1 1418   1.107   2.417   2.265  1.8006 -2.8507  0.5819
  473SOL    HW2 1419   1.126   2.578   2.322 -3.5309 -1.6139  2.4720
  474SOL     OW 1420   1.395   2.996   2.627  0.6832  0.0383  0.5206
  474SOL    HW1 1421   1.389   2.999   2.730  0.4736  0.2903  1.0931
  474SOL    HW2 1422   1.310   2.957   2.583 -0.2643 -0.7570 -0.5533
  475SOL     OW 1423   0.981   2.550   0.228 -0.0745  0.4233  0.9737
  475SOL    HW1 1424   1.009   2.640   0.196  1.6202  0.8399 -0.2390
  475SOL    HW2 1425   1.064   2.507   0.266  0.3327  0.2147 -0.2143
  476SOL     OW 1426   0.449   0.422   1.057 -0.1308  0.3613  0.1383
  476SOL    HW1 1427   0.504   0.438   1.143 -1.0148  0.4064  0.8930
  476SOL    HW2 1428   0.498   0.452   0.976  0.3060  0.5962  2.0683
  477SOL     OW 1429   1.842   2.166   1.491  0.4347 -0.3813 -0.2955
  477SOL    HW1 1430   1.775   2.233   1.457  0.8691 -3.3317 -1.7138
  477SOL    HW2 1431   1.939   2.190   1.477 -5.3716  1.2076  1.4763
  478SOL     OW 1432   3.052   0.945   2.843  0.1226 -0.3970  0.3152
  478SOL    HW1 1433   0.015   0.969   2.783 -0.3499  0.2467  0.1156
  478SOL    HW2 1434   3.086   0.873   2.908  0.7908  1.9560 -2.3019
  479SOL     OW 1435   0.725   2.915   0.809 -0.4594  0.0595 -0.5735
  479SOL    HW1 1436   0.749   2.819   0.834  0.5125  1.7142  3.5545
  479SOL    HW2 1437   0.817   2.963   0.813 -0.2816  2.2239  1.0860
  480SOL     OW 1438   2.553   2.707   0.355  0.1029  0.0537 -0.0559
  480SOL    HW1 1439   2.611   2.792   0.377  0.9042 -0.3555  0.4996
  480SOL    HW2 1440   2.617   2.633   0.324  2.8582  0.6016  0.5510
  481SOL     OW 1441   2.796   0.439   1.248 -0.0574  0.4534 -0.2159
  481SOL    HW1 1442   2.724   0.393   1.191 -3.0410  0.2234 -1.3527
  481SOL    HW2 1443   2.810   0.397   1.337  0.1436  0.8927 -1.7028
  482SOL     OW 1444   1.028   2.548   1.044 -0.2622 -0.0397 -0.3763
  482SOL    HW1 1445   1.021   2.448   1.065  0.3219  0.8572 -1.8252
  482SOL    HW2 1446   1.124   2.566   1.019  0.1324 -1.8571  3.3017
  483SOL     OW 1447   0.353   1.309   2.861 -0.3562  0.3467 -0.4508
  483SOL    HW1 1448   0.384   1.359   2.946 -0.2722  2.1851 -1.8935
  483SOL    HW2 1449   0.257   1.276   2.870 -0.4208  1.8863 -1.0450
  484SOL     OW 1450   1.644   1.546   2.042 -0.6263 -0.2598 -0.5015
  484SOL    HW1 1451   1.689   1.455   2.044 -1.5032  1.1633  1.1342
  484SOL    HW2 1452   1.638   1.583   2.140 -0.7486 -1.4654  1.1836
  485SOL     OW 1453   0.039   3.102   2.368  0.1203 -0.1482  0.4172
  485SOL    HW1 1454   3.077   3.084   2.428  0.1373 -0.8814 -0.6270
  485SOL    HW2 1455   0.111   3.030   2.374  1.1720 -0.1647  1.6795
  486SOL     OW 1456   1.541   2.924   0.581  0.3360 -0.4685  0.2317
  486SOL    HW1 1457   1.607   2.908   0.656  0.7555  0.9617 -0.6173
  486SOL    HW2 1458   1.587   2.948   0.491 -0.1494 -0.8093 -2.7449
  487SOL     OW 1459   1.611   2.970   1.150  0.2812  0.7196  0.4183
  487SOL    HW1 1460   1.666   3.003   1.224 -1.0327 -0.0951  1.3741
  487SOL    HW2 1461   1.657   2.994   1.064  1.5430  1.3689  2.2015
  488SOL     OW 1462   2.166   0.961   0.830  0.1800 -0.3536 -0.0148
  488SOL    HW1 1463   2.099   1.024   0.882  1.9317  1.6091  2.1856
  488SOL    HW2 1464   2.139   0.859   0.824  1.2933 -1.1834 -3.6948
  489SOL     OW 1465   1.326   2.946   1.361  0.2764 -0.5183  0.4779
  489SOL    HW1 1466   1.250   2.954   1.426  0.9899  1.1927  0.9626
  489SOL    HW2 1467   1.281   2.937   1.269 -0.5872 -0.1414 -0.4361
  490SOL     OW 1468   0.863   0.881   0.513 -0.1122 -0.1340  0.1517
  490SOL    HW1 1469   0.815   0.941   0.579 -0.9863  0.5924  0.3131
  490SOL    HW2 1470   0.923   0.818   0.566 -3.3407  0.4982 -2.0741
  491SOL     OW 1471   1.239   2.836   0.363 -0.1787  0.2108  0.7589
  491SOL    HW1 1472   1.278   2.825   0.457  0.1139 -2.2317 -3.2405
  491SOL    HW2 1473   1.293   2.778   0.300 -0.1672 -1.4471  1.6487
  492SOL     OW 1474   0.867   1.584   2.074 -0.4677 -0.0169  0.4107
  492SOL    HW1 1475   0.943   1.517   2.096 -0.1643  2.5245 -0.6676
  492SOL    HW2 1476   0.812   1.536   2.007  0.4712 -2.6646  1.0843
  493SOL     OW 1477   0.046   1.911   0.258 -0.1023  0.3844  0.1524
  493SOL    HW1 1478   0.108   1.985   0.228 -1.2611 -0.0163 -0.9389
  493SOL    HW2 1479   0.068   1.880   0.353 -1.8791  0.3421  1.3322
  494SOL     OW 1480   1.801   1.650   0.288  0.2370  0.0868 -0.1891
  494SOL    HW1 1481   1.811   1.679   0.380 -2.6196  0.1045 -0.8606
  494SOL    HW2 1482   1.728   1.580   0.273 -1.3126  0.8394 -1.4246
  495SOL     OW 1483   0.361   0.999   2.447  0.1203 -0.2152 -0.4311
  495SOL    HW1 1484   0.341   0.999   2.347 -0.4558 -1.2172  0.2241
  495SOL    HW2 1485   0.457   1.019   2.466 -1.3796 -0.0316 -0.4499
  496SOL     OW 1486   3.051   0.179   2.220 -0.4962 -0.3586 -0.6079
  496SOL    HW1 1487   3.109   0.112   2.271  0.1355  0.2839  1.1157
  496SOL    HW2 1488   3.089   0.205   2.131  0.0244  0.4473  1.7412
  497SOL     OW 1489   1.796   1.155   0.556 -0.4093  0.2098 -0.1604
  497SOL    HW1 1490   1.835   1.216   0.491 -0.7909 -1.4107  1.5057
  497SOL    HW2 1491   1.804   1.060   0.521  0.2490  4.2596 -2.7742
  498SOL     OW 1492   2.739   2.738   2.865  0.4039  0.0826 -0.0462
  498SOL    HW1 1493   2.662   2.698   2.918 -1.1884 -1.1778 -0.4447
  498SOL    HW2 1494   2.709   2.800   2.790 -0.4530 -0.1017  0.1990
  499SOL     OW 1495   1.975   2.805   0.646  0.5117  0.4818  0.0886
  499SOL    HW1 1496   2.001   2.896   0.610 -2.9809 -1.5801 -1.8410
  499SOL    HW2 1497   1.985   2.731   0.575 -1.3332  1.2043 -0.1294
  500SOL     OW 1498   1.096   0.655   2.728 -0.0837  0.2571 -0.0729
  500SOL    HW1 1499   1.105   0.596   2.648  1.1026  2.9918  2.3825
  500SOL    HW2 1500   1.144   0.747   2.721  1.3661  3.9492 -1.2097
  501SOL     OW 1501   1.537   3.071   1.502 -0.3242 -0.7015 -0.3180
  501SOL    HW1 1502   1.482   3.112   1.581 -0.6171 -0.8740  0.2178
  501SOL    HW2 1503   1.469   3.022   1.440  0.0918 -0.2816 -0.7034
  502SOL     OW 1504   0.023   0.176   1.957  0.1840 -0.1017 -0.0171
  502SOL    HW1 1505   0.039   0.079   1.995  0.8598 -0.2566 -0.7327
  502SOL    HW2 1506   0.072   0.187   1.866 -0.5907 -1.8320  2.4692
  503SOL     OW 1507   1.654   2.294   2.117 -0.8756 -0.0240  0.2492
  503SOL    HW1 1508   1.728   2.361   2.136  0.7235  0.9241 -0.7683
  503SOL    HW2 1509   1.696   2.197   2.118  1.2800 -1.1382 -0.3440
  504SOL     OW 1510   2.184   0.139   1.708 -0.1638 -0.2255  0.1334
  504SOL    HW1 1511   2.170   0.092   1.621 -0.9151  1.2360 -2.3248
  504SOL    HW2 1512   2.121   0.102   1.781 -2.8990 -1.3499 -2.2221
  505SOL     OW 1513   2.765   1.804   1.669  0.1447 -0.5450 -0.3671
  505SOL    HW1 1514   2.759   1.775   1.572 -1.5096 -0.9109  0.9446
  505SOL    HW2 1515   2.712   1.744   1.726  2.6444  2.4428  0.2167
  506SOL     OW 1516   0.070   1.330   2.266 -0.1842  0.6707  0.3557
  506SOL    HW1 1517   0.065   1.291   2.357 -0.2521  2.4889 -2.4537
  506SOL    HW2 1518   0.028   1.268   2.196 -0.7009 -0.9200  0.3607
  507SOL     OW 1519   0.229   2.764   1.206  0.0306 -0.2331  0.4647
  507SOL    HW1 1520   0.221   2.821   1.121  0.6653 -0.8297 -2.2435
  507SOL    HW2 1521   0.140   2.754   1.249  1.5290  0.1279 -1.2032
  508SOL     OW 1522   1.388   0.669   1.317  0.0005  0.2032 -0.3270
  508SOL    HW1 1523   1.413   0.593   1.254  1.5037  0.1524 -0.9226
  508SOL    HW2 1524   1.396   0.634   1.415 -0.9863  0.7890 -0.8538
  509SOL     OW 1525   1.634   2.285   1.828 -0.7250  0.1501 -0.2475
  509SOL    HW1 1526   1.650   2.378   1.800 -1.0355 -0.4473  0.9251
  509SOL    HW2 1527   1.634   2.282   1.929 -1.2966 -2.8860 -0.6237
  510SOL     OW 1528   2.377   1.494   3.051 -0.0159 -0.4393  0.8433
  510SOL    HW1 1529   2.400   1.452   0.026  2.6293 -0.7330 -1.9187
  510SOL    HW2 1530   2.315   1.571   3.068 -2.4205 -1.3854  1.5384
  511SOL     OW 1531   0.362   1.451   1.527 -0.0604 -0.3266 -0.6483
  511SOL    HW1 1532   0.336   1.354   1.517  2.2967 -0.2207 -2.3503
  511SOL    HW2 1533   0.444   1.483   1.476 -0.7142 -0.0872  1.6418
  512SOL     OW 1534   2.405   2.283   0.372 -0.5989  0.0276  0.8875
  512SOL    HW1 1535   2.500   2.328   0.372 -0.9377  3.2264 -1.9012
  512SOL    HW2 1536   2.407   2.179   0.359  0.6089 -2.6937 -0.3621
  513SOL     OW 1537   0.877   1.682   2.466  0.3477 -0.0364 -0.3911
  513SOL    HW1 1538   0.964   1.651   2.510 -1.7605  0.4902  0.2005
  513SOL    HW2 1539   0.875   1.784   2.455  0.7414 -1.0067  1.3267
  514SOL     OW 1540   0.402   2.193   2.249  0.4167 -0.2719  0.2180
  514SOL    HW1 1541   0.371   2.106   2.213  0.5290 -1.8902 -0.1974
  514SOL    HW2 1542   0.324   2.263   2.263  0.4090  1.4867  0.3237
  515SOL     OW 1543   1.787   1.157   1.622 -0.4041  0.1008  0.0241
  515SOL    HW1 1544   1.846   1.166   1.709 -0.1236 -1.2047  1.2246
  515SOL    HW2 1545   1.830   1.206   1.543 -1.8589 -0.9103 -2.6958
  516SOL     OW 1546   1.912   2.456   0.021 -0.2038  0.4130  0.0549
  516SOL    HW1 1547   1.971   2.540   0.022 -0.0402  1.2064  0.5263
  516SOL    HW2 1548   1.962   2.371   0.043  1.9023 -0.3986  0.2075
  517SOL     OW 1549   0.648   1.610   0.356  0.1557 -0.4149 -0.1672
  517SOL    HW1 1550   0.728   1.653   0.315 -2.3538 -1.4151 -2.3058
  517SOL    HW2 1551   0.654   1.513   0.361 -1.1617  3.8666 -1.5192
  518SOL     OW 1552   2.000   2.571   1.572 -0.4218 -0.2094  0.4481
  518SOL    HW1 1553   2.029   2.672   1.564 -1.0007  0.3431 -0.5372
  518SOL    HW2 1554   2.051   2.528   1.492 -0.5312  1.9582  0.7959
  519SOL     OW 1555   2.260   2.465   1.152  0.4379 -0.2776  0.4636
  519SOL    HW1 1556   2.302   2.556   1.138 -0.5871 -1.2896  0.2149
  519SOL    HW2 1557   2.207   2.436   1.071  1.5038  0.9971  0.6051
  520SOL     OW 1558   3.092   2.237   2.651  0.6217  0.1129 -0.0181
  520SOL    HW1 1559   2.987   2.233   2.662 -1.1509 -0.9414 -1.3823
  520SOL    HW2 1560   3.108   2.242   2.548 -1.8530 -0.6550 -2.0315
  521SOL     OW 1561   2.550   1.179   2.471 -0.0357 -0.6697  0.5099
  521SOL    HW1 1562   2.480   1.179   2.547 -1.7351 -0.4528 -1.2530
  521SOL    HW2 1563   2.533   1.248   2.397  1.2395 -0.3682 -3.0756
  522SOL     OW 1564   0.935   0.638   2.305  0.1664  0.1194 -0.3216
  522SOL    HW1 1565   1.019   0.595   2.346 -0.5286  0.8386 -2.0791
  522SOL    HW2 1566   0.868   0.570   2.276 -0.0620  0.6097 -0.3418
  523SOL     OW 1567   0.175   2.178   1.075  0.2823 -0.2824  0.2588
  523SOL    HW1 1568   0.277   2.210   1.077  0.5039  1.5703  0.7445
  523SOL    HW2 1569   0.127   2.198   1.160  2.2590 -0.3932  0.1948
  524SOL     OW 1570   2.066   2.727   0.079 -0.1801  0.0798  0.4230
  524SOL    HW1 1571   2.107   2.752   0.168  1.4952 -1.3267  1.8120
  524SOL    HW2 1572   2.084   2.788   0.000  0.1006 -1.2563 -1.3024
  525SOL     OW 1573   2.515   0.485   1.470  0.0736 -0.3561 -0.0300
  525SOL    HW1 1574   2.541   0.562   1.409 -1.3198  1.4132  0.0789
  525SOL    HW2 1575   2.421   0.453   1.451  0.8478 -0.5906  0.7420
  526SOL     OW 1576   1.015   2.698   0.618 -0.2215  0.1773  0.0059
  526SOL    HW1 1577   1.081   2.758   0.575 -1.2792 -1.4856  1.2468
  526SOL    HW2 1578   0.922   2.704   0.576 -1.4698 -0.2130  2.3015
  527SOL     OW 1579   2.321   2.974   0.579  0.1718  0.1267  0.5948
  527SOL    HW1 1580   2.368   2.995   0.664  2.0560 -2.0662 -3.5992
  527SOL    HW2 1581   2.350   2.878   0.559  1.8530  1.2251 -1.9419
  528SOL     OW 1582   1.556   0.832   0.471  0.4741 -0.1332  0.2292
  528SOL    HW1 1583   1.530   0.884   0.556 -0.3682  0.2934 -0.6033
  528SOL    HW2 1584   1.550   0.732   0.487 -3.1665 -0.0350  0.7296
  529SOL     OW 1585   1.501   1.493   2.485  0.0067  0.0409  0.4034
  529SOL    HW1 1586   1.425   1.538   2.539 -0.6043  2.0254  2.4426
  529SOL    HW2 1587   1.469   1.449   2.395 -6.0473 -3.1864 -0.2004
  530SOL     OW 1588   2.470   0.329   0.133 -0.4637  0.1100 -0.8995
  530SOL    HW1 1589   2.383   0.378   0.165 -1.5241  0.4572 -2.2289
  530SOL    HW2 1590   2.451   0.246   0.070 -0.4896 -1.5882 -2.6823
  531SOL     OW 1591   1.610   0.918   2.806  0.0750  0.6935  0.2913
  531SOL    HW1 1592   1.637   0.884   2.718  0.2369  0.2305  0.4358
  531SOL    HW2 1593   1.535   0.860   2.845  0.2536  1.3513  1.2622
  532SOL     OW 1594   1.455   0.409   0.775 -0.1163  0.5846 -0.0191
  532SOL    HW1 1595   1.358   0.434   0.784 -0.4529  2.4931  0.0629
  532SOL    HW2 1596   1.519   0.488   0.783 -0.1640  0.8169 -0.3295
  533SOL     OW 1597   0.408   0.804   2.626  0.1544  0.4107 -0.3249
  533SOL    HW1 1598   0.378   0.870   2.557  0.3723 -0.0752  0.0242
  533SOL    HW2 1599   0.455   0.730   2.574  0.3839  0.6147  0.4837
  534SOL     OW 1600   1.629   0.119   2.732  0.7387 -0.4115  0.1451
  534SOL    HW1 1601   1.635   0.066   2.819  0.0886  2.1781 -0.6179
  534SOL    HW2 1602   1.553   0.186   2.735 -0.7953 -0.2469 -0.9398
  535SOL     OW 1603   0.395   2.912   2.856  0.3516  0.2845  0.0965
  535SOL    HW1 1604   0.331   2.829   2.864 -2.5591  1.9547 -0.4494
  535SOL    HW2 1605   0.370   2.987   2.916  2.0129 -0.4898  1.2916
  536SOL     OW 1606   0.778   0.061   0.249 -0.5149 -0.2577 -0.0564
  536SOL    HW1 1607   0.794   0.153   0.298 -0.7556  1.7492  0.7535
  536SOL    HW2 1608   0.777   3.098   0.318  0.6170 -3.7256  1.8606
  537SOL     OW 1609   1.627   0.226   0.191  0.2602  0.3975  0.1043
  537SOL    HW1 1610   1.606   0.239   0.089 -0.7268  0.3038 -1.6075
  537SOL    HW2 1611   1.550   0.259   0.247  1.8768 -1.3210  0.1622
  538SOL     OW 1612   2.777   2.077   2.938 -0.3915  0.2332 -0.0042
  538SOL    HW1 1613   2.863   2.033   2.971 -0.9860 -0.9681 -1.2398
  538SOL    HW2 1614   2.742   2.139   3.012  1.5237  2.3056  0.3535
  539SOL     OW 1615   2.225   2.022   3.073 -0.0018  0.3854 -0.8284
  539SOL    HW1 1616   2.173   1.979   2.998 -0.4559  1.5028  2.0920
  539SOL    HW2 1617   2.318   1.977   3.069 -1.4163  1.8062  2.3183
  540SOL     OW 1618   0.917   2.837   1.883 -0.1222 -0.2762  0.0641
  540SOL    HW1 1619   0.911   2.766   1.955  0.0062 -0.4534  0.3058
  540SOL    HW2 1620   0.999   2.826   1.826 -2.8996 -0.9753  1.6230
  541SOL     OW 1621   2.598   0.088   2.308  0.2849  0.1068  0.7644
  541SOL    HW1 1622   2.610   0.132   2.218  1.5726  1.6053 -0.1761
  541SOL    HW2 1623   2.527   0.137   2.359 -1.4044 -2.4508  0.7338
  542SOL     OW 1624   0.199   0.590   2.815 -0.1708 -0.0984 -0.3767
  542SOL    HW1 1625   0.225   0.552   2.726 -0.5264 -2.2263  0.3421
  542SOL    HW2 1626   0.096   0.589   2.820 -0.0443 -0.2494  0.1450
  543SOL     OW 1627   0.271   0.765   1.073  0.2438 -0.4639 -0.2318
  543SOL    HW1 1628   0.298   0.737   0.981  2.0375  1.5630 -0.8810
  543SOL    HW2 1629   0.197   0.709   1.117  1.1191 -0.6273 -2.5502
  544SOL     OW 1630   2.608   0.669   1.276  0.2869 -0.2029  0.1586
  544SOL    HW1 1631   2.687   0.600   1.275  2.8425 -1.0980  1.9199
  544SOL    HW2 1632   2.648   0.763   1.268  1.7612  2.9068 -0.7179
  545SOL     OW 1633   1.398   2.184   0.563 -0.2874 -0.1638  0.9398
  545SOL    HW1 1634   1.297   2.155   0.570 -2.3957  0.8758 -0.3513
  545SOL    HW2 1635   1.441   2.192   0.653 -1.1866 -0.2389  0.1732
  546SOL     OW 1636   2.291   2.832   1.328 -0.0925 -0.1238  0.7501
  546SOL    HW1 1637   2.366   2.905   1.342  1.6372 -0.5060  0.5411
  546SOL    HW2 1638   2.315   2.775   1.247  0.1644  0.8907  2.0527
  547SOL     OW 1639   0.554   2.571   2.509 -0.3483 -0.3811  0.1489
  547SOL    HW1 1640   0.614   2.499   2.472  1.4812  1.2825  0.6577
  547SOL    HW2 1641   0.610   2.645   2.553  1.1132  1.8446 -2.1532
  548SOL     OW 1642   1.417   0.710   2.849 -0.1076  0.2331  0.2462
  548SOL    HW1 1643   1.341   0.653   2.871  0.1545  0.9468 -2.5954
  548SOL    HW2 1644   1.501   0.656   2.856 -3.8313 -2.3511  0.4557
  549SOL     OW 1645   2.613   1.224   0.306 -0.0556  0.5652  1.2720
  549SOL    HW1 1646   2.709   1.257   0.317 -0.4061 -0.0986  0.3254
  549SOL    HW2 1647   2.579   1.203   0.397  0.7921 -2.0985 -0.6190
  550SOL     OW 1648   2.023   1.839   0.627  0.5546 -0.1320  0.2077
  550SOL    HW1 1649   2.046   1.895   0.715  0.1418  5.7897  3.2109
  550SOL    HW2 1650   2.099   1.773   0.600 -0.6860  1.3341  1.1386
  551SOL     OW 1651   1.385   0.005   1.027  0.1078  0.0733  0.0566
  551SOL    HW1 1652   1.468   3.078   1.075 -0.3741 -1.7353 -1.6839
  551SOL    HW2 1653   1.307   3.057   1.043  1.9927 -0.8493 -0.8482
  552SOL     OW 1654   2.613   2.706   2.251 -0.2580  0.2849 -0.7843
  552SOL    HW1 1655   2.539   2.726   2.180 -0.7215  2.3148  1.8990
  552SOL    HW2 1656   2.603   2.618   2.305 -0.1080  0.5623 -0.3627
  553SOL     OW 1657   0.372   3.074   2.071  0.4449 -0.2950  0.2379
  553SOL    HW1 1658   0.397   2.989   2.025 -0.0342  0.3555  2.1010
  553SOL    HW2 1659   0.404   3.072   2.168 -1.1209  1.0561 -0.8906
  554SOL     OW 1660   0.489   2.997   0.970 -0.0079  0.6006 -0.1846
  554SOL    HW1 1661   0.449   3.084   0.997  0.4081  1.4370  2.2669
  554SOL    HW2 1662   0.583   3.006   0.926  2.2059  1.7648 -0.9760
  555SOL     OW 1663   2.634   1.972   2.173  0.3966  0.0035 -0.1448
  555SOL    HW1 1664   2.586   1.886   2.153 -0.4716  1.4616 -0.2712
  555SOL    HW2 1665   2.561   2.040   2.194 -2.0678 -0.3306 -2.7882
  556SOL     OW 1666   1.176   0.188   2.739 -0.0838 -0.5061  0.5918
  556SOL    HW1 1667   1.115   0.236   2.799 -2.0050  1.2145 -4.3341
  556SOL    HW2 1668   1.152   0.193   2.641  2.6011  0.5198  0.6374
  557SOL     OW 1669   0.417   1.587   2.260 -0.3121 -0.0358  0.0937
  557SOL    HW1 1670   0.361   1.608   2.340  0.0128 -1.4155  0.3279
  557SOL    HW2 1671   0.513   1.607   2.291 -0.4762  0.9058  0.8951
  558SOL     OW 1672   2.339   0.976   3.071 -0.1923 -0.8871  0.1454
  558SOL    HW1 1673   2.352   0.947   2.973  0.8490  2.6977 -1.1517
  558SOL    HW2 1674   2.349   0.894   0.017  0.4950  2.4423  0.5082
  559SOL     OW 1675   2.373   1.811   1.850 -0.4288  1.2134 -0.0138
  559SOL    HW1 1676   2.385   1.902   1.804  0.7927  2.3051  3.6009
  559SOL    HW2 1677   2.273   1.783   1.864  1.7384 -0.7420 -1.6160
  560SOL     OW 1678   2.343   0.982   1.976  0.1076  0.1705  0.1152
  560SOL    HW1 1679   2.325   0.894   1.938  0.7382  0.5962 -2.5576
  560SOL    HW2 1680   2.441   1.001   1.980  0.1116 -1.1416  0.3381
  561SOL     OW 1681   0.037   2.993   2.876 -0.0312  0.0281  0.5939
  561SOL    HW1 1682   3.093   3.047   2.810  0.2637 -0.1739 -1.5766
  561SOL    HW2 1683   0.029   2.892   2.849  0.2236  0.0462 -0.3245
  562SOL     OW 1684   1.116   1.315   1.416 -0.0700  0.2875 -0.7007
  562SOL    HW1 1685   1.168   1.392   1.450  0.0673  0.1420 -1.2448
  562SOL    HW2 1686   1.016   1.333   1.425  2.8727 -0.7714 -1.7235
  563SOL     OW 1687   1.187   3.055   2.874  0.2789 -0.5905 -0.3177
  563SOL    HW1 1688   1.281   3.020   2.894 -0.0148 -0.4369 -0.1251
  563SOL    HW2 1689   1.193   0.034   2.837 -1.9936 -0.2561  2.4017
  564SOL     OW 1690   0.025   2.204   0.847  0.0461 -0.5427  0.4199
  564SOL    HW1 1691   0.075   2.186   0.934 -1.7308  0.8259  1.8919
  564SOL    HW2 1692   3.046   2.243   0.871 -0.0124  1.4822  1.0100
  565SOL     OW 1693   0.632   2.126   1.501  0.4431  0.5878  0.0107
  565SOL    HW1 1694   0.540   2.107   1.456 -0.6603 -1.9222  3.9011
  565SOL    HW2 1695   0.710   2.112   1.433  0.7178 -1.9034 -2.0727
  566SOL     OW 1696   1.516   2.711   2.210  0.0101 -0.3624  0.0015
  566SOL    HW1 1697   1.450   2.659   2.159  2.7238  2.0206  0.3036
  566SOL    HW2 1698   1.512   2.682   2.308 -0.4704  2.8678 -1.8605
  567SOL     OW 1699   2.378   2.878   0.845 -0.1528  0.1889  0.4026
  567SOL    HW1 1700   2.462   2.909   0.895  2.0762  0.1767 -2.3219
  567SOL    HW2 1701   2.400   2.805   0.777 -0.5849 -1.0646  2.7222
  568SOL     OW 1702   1.585   1.328   0.581 -0.0757 -0.2217  0.2447
  568SOL    HW1 1703   1.498   1.284   0.601  1.7639 -1.7184 -0.1609
  568SOL    HW2 1704   1.662   1.265   0.594 -2.5583  2.7522  0.3857
  569SOL     OW 1705   0.047   1.795   2.668 -0.0547  0.4632 -0.0174
  569SOL    HW1 1706   0.058   1.763   2.761 -2.4986 -0.5743 -2.7875
  569SOL    HW2 1707   3.069   1.820   2.647 -0.4218 -2.0678  0.1245
  570SOL     OW 1708   3.103   0.158   1.493  0.6380  0.3037 -0.2139
  570SOL    HW1 1709   0.017   0.192   1.405 -0.5553  0.2129 -1.1856
  570SOL    HW2 1710   0.002   0.058   1.501  0.4917  0.8676 -0.8627
  571SOL     OW 1711   0.395   0.353   1.702  0.0840 -0.0048 -0.0519
  571SOL    HW1 1712   0.467   0.338   1.775  0.4831  0.6491 -0.6948
  571SOL    HW2 1713   0.358   0.447   1.703 -1.8690 -0.9005 -0.3879
  572SOL     OW 1714   0.111   2.458   1.270  0.3660  0.2934 -0.0509
  572SOL    HW1 1715   0.037   2.389   1.266  1.1240  1.5383 -0.7026
  572SOL    HW2 1716   0.102   2.519   1.347  0.2496  1.7645 -0.3915
  573SOL     OW 1717   1.004   0.428   3.112  0.6143  0.4267  0.0396
  573SOL    HW1 1718   0.931   0.483   0.040  0.1754 -2.1769  2.0633
  573SOL    HW2 1719   0.998   0.332   0.044  1.3638 -0.7440 -0.4110
  574SOL     OW 1720   2.603   2.975   0.025 -0.3120  0.2726 -0.1878
  574SOL    HW1 1721   2.669   2.920   0.074  2.5799  0.9068 -1.2112
  574SOL    HW2 1722   2.624   3.071   0.051  0.2772 -1.6376 -2.2049
  575SOL     OW 1723   1.650   2.440   1.240  0.2105 -0.5224 -0.1427
  575SOL    HW1 1724   1.600   2.352   1.214 -1.6727 -3.1482  1.2884
  575SOL    HW2 1725   1.614   2.523   1.190 -0.8300 -0.4291 -1.0399
  576SOL     OW 1726   1.210   2.937   1.126 -0.0776  0.7789  0.1578
  576SOL    HW1 1727   1.194   2.869   1.055 -0.3824  0.3464  1.1368
  576SOL    HW2 1728   1.133   3.002   1.127  1.2046 -0.6825 -1.2066
  577SOL     OW 1729   2.549   1.300   0.930 -0.6496  0.4838 -0.0501
  577SOL    HW1 1730   2.571   1.346   0.842 -1.9214  2.7824 -2.6311
  577SOL    HW2 1731   2.481   1.227   0.925  1.7340  0.5096 -0.7078
  578SOL     OW 1732   1.533   0.236   0.570  0.0846 -0.0404 -0.3242
  578SOL    HW1 1733   1.488   0.303   0.633  0.1705  0.8149 -0.2566
  578SOL    HW2 1734   1.626   0.256   0.551 -1.8572 -0.7580 -0.5517
  579SOL     OW 1735   2.170   0.479   3.048 -0.1449  0.4914 -0.1683
  579SOL    HW1 1736   2.259   0.474   3.005 -1.2492  1.3072 -0.6571
  579SOL    HW2 1737   2.098   0.461   2.978  0.1323  1.4048 -0.1506
  580SOL     OW 1738   1.610   0.616   2.390  0.1423 -0.4159  0.1038
  580SOL    HW1 1739   1.690   0.583   2.442 -0.6600  0.0477  2.2312
  580SOL    HW2 1740   1.568   0.695   2.432  0.5408 -1.0625 -0.9854
  581SOL     OW 1741   0.348   0.655   0.822 -0.0105 -0.1945  0.1338
  581SOL    HW1 1742   0.440   0.614   0.842  0.2120 -0.1949  3.3762
  581SOL    HW2 1743   0.355   0.726   0.750 -3.8301  0.7125  0.7194
  582SOL     OW 1744   2.874   0.177   1.866  0.5042  0.2571  0.7359
  582SOL    HW1 1745   2.843   0.269   1.836 -0.0278  0.3317  0.0449
  582SOL    HW2 1746   2.969   0.174   1.900 -2.5921 -0.6929  0.0232
  583SOL     OW 1747   0.338   0.606   2.293 -0.6193  0.7760  0.0403
  583SOL    HW1 1748   0.417   0.634   2.351 -1.7003 -1.5784  0.7479
  583SOL    HW2 1749   0.362   0.544   2.218  0.3012  1.1417 -1.1872
  584SOL     OW 1750   1.461   2.142   2.872  0.4382 -0.5046 -0.7109
  584SOL    HW1 1751   1.562   2.123   2.848  1.4455  1.8218  0.9282
  584SOL    HW2 1752   1.460   2.211   2.948  0.0947  2.2726 -3.3060
  585SOL     OW 1753   0.233   2.657   2.856 -0.3216 -0.6619 -0.3712
  585SOL    HW1 1754   0.156   2.641   2.916 -1.0067 -1.2571  1.3889
  585SOL    HW2 1755   0.309   2.594   2.884 -1.4322  0.4400  2.6678
  586SOL     OW 1756   1.806   1.805   2.668 -0.6093  0.3497  0.3715
  586SOL    HW1 1757   1.835   1.888   2.623 -0.0237  2.9947 -0.6001
  586SOL    HW2 1758   1.834   1.714   2.621  0.8855 -4.4261 -1.1442
  587SOL     OW 1759   2.306   2.261   2.960  0.2029  0.2869  0.3434
  587SOL    HW1 1760   2.343   2.313   3.043  0.0577  0.7362  0.5654
  587SOL    HW2 1761   2.297   2.161   2.983  1.9170 -1.0080  0.0283
  588SOL     OW 1762   2.870   0.362   0.949 -0.1437 -0.4141  0.1210
  588SOL    HW1 1763   2.824   0.405   0.867 -0.0142  1.8679  0.5984
  588SOL    HW2 1764   2.964   0.329   0.934  3.0545 -0.5200  2.3080
  589SOL     OW 1765   0.860   0.564   0.329 -0.3341 -0.0077  0.2636
  589SOL    HW1 1766   0.924   0.640   0.362  0.0673 -0.1182  0.5805
  589SOL    HW2 1767   0.822   0.579   0.235  0.8210  1.3105  1.9658
  590SOL     OW 1768   2.000   2.210   0.345  0.1642  0.1598 -0.1235
  590SOL    HW1 1769   2.040   2.115   0.361 -1.2994 -1.5233  1.2805
  590SOL    HW2 1770   1.919   2.195   0.284  2.1481  0.0828 -0.0037
  591SOL     OW 1771   0.368   2.312   1.305 -0.5821  0.3021  0.1380
  591SOL    HW1 1772   0.275   2.358   1.319 -1.9009  1.3623  0.5677
  591SOL    HW2 1773   0.426   2.366   1.243  0.5614  2.0010 -0.0843
  592SOL     OW 1774   1.427   0.472   1.132 -0.4278 -0.4104 -0.1393
  592SOL    HW1 1775   1.361   0.400   1.133  1.2099  1.3584  1.9664
  592SOL    HW2 1776   1.514   0.425   1.120 -1.2775  1.2383  3.2398
  593SOL     OW 1777   0.951   1.638   1.341 -0.2634 -0.1155 -0.1033
  593SOL    HW1 1778   0.913   1.544   1.356 -0.4293  1.9483  1.1499
  593SOL    HW2 1779   1.021   1.666   1.409 -1.0666 -1.2296  0.9770
  594SOL     OW 1780   0.939   2.218   0.467  0.0015 -0.2642 -0.2363
  594SOL    HW1 1781   0.924   2.173   0.376  0.7936 -0.1173  0.0059
  594SOL    HW2 1782   0.852   2.232   0.513  2.6054 -0.4969  0.6992
  595SOL     OW 1783   1.622   0.835   1.395 -0.5090 -0.1914  0.4137
  595SOL    HW1 1784   1.652   0.832   1.491 -0.3332 -0.9551 -2.7305
  595SOL    HW2 1785   1.544   0.782   1.378 -0.0556  2.5119  1.2197
  596SOL     OW 1786   2.915   0.830   1.589 -0.1490 -0.0726  0.0345
  596SOL    HW1 1787   2.952   0.866   1.678 -1.8071  2.0812 -0.3228
  596SOL    HW2 1788   2.952   0.888   1.512 -1.8820  2.5544 -1.7467
  597SOL     OW 1789   0.809   2.378   2.436 -0.1730  0.1239 -0.0829
  597SOL    HW1 1790   0.789   2.337   2.524  1.4293 -1.2526 -3.1742
  597SOL    HW2 1791   0.889   2.327   2.399 -2.5304  0.1155 -0.0851
  598SOL     OW 1792   2.571   1.642   1.793  0.3460 -0.1665 -0.4454
  598SOL    HW1 1793   2.500   1.712   1.817  0.4496 -1.9781  1.2049
  598SOL    HW2 1794   2.526   1.563   1.753 -0.1806 -0.2493  1.9875
  599SOL     OW 1795   0.878   2.824   3.083  0.0183 -0.3976  0.0367
  599SOL    HW1 1796   0.778   2.838   3.110  0.3194  0.1633  1.8172
  599SOL    HW2 1797   0.915   2.919   3.107 -0.3368 -0.3285  0.6807
  600SOL     OW 1798   3.101   2.186   0.003 -0.1430  0.2191 -0.2253
  600SOL    HW1 1799   3.064   2.099   3.080  0.3219  1.4860 -0.3933
  600SOL    HW2 1800   3.081   2.257   3.051  0.7147 -0.0198 -1.7620
  601SOL     OW 1801   0.485   0.707   1.266  0.0054 -0.8432  0.4573
  601SOL    HW1 1802   0.403   0.711   1.204 -0.0510 -0.8895  0.8831
  601SOL    HW2 1803   0.471   0.765   1.350  1.6917  1.4312  2.2051
  602SOL     OW 1804   0.625   0.245   0.590  0.5459  0.1873  0.4734
  602SOL    HW1 1805   0.664   0.260   0.685 -0.1680 -0.0081 -0.0682
  602SOL    HW2 1806   0.584   0.328   0.545  1.9840  0.5277 -2.5995
  603SOL     OW 1807   0.294   0.186   2.549  0.1820  0.0860  0.5746
  603SOL    HW1 1808   0.202   0.210   2.587 -0.5347  1.2921  0.9421
  603SOL    HW2 1809   0.360   0.259   2.563  0.9021 -0.3883 -1.1378
  604SOL     OW 1810   0.834   2.819   1.476 -0.5244 -0.0499 -0.1483
  604SOL    HW1 1811   0.745   2.804   1.521  0.8138 -0.0807 -1.2404
  604SOL    HW2 1812   0.855   2.740   1.418  0.1377  1.5467  1.0146
  605SOL     OW 1813   1.480   1.123   2.262  0.1163 -0.3172  0.0465
  605SOL    HW1 1814   1.427   1.211   2.270 -2.5319 -1.8426 -0.6216
  605SOL    HW2 1815   1.484   1.100   2.164  0.4772 -0.7253 -0.1046
  606SOL     OW 1816   2.150   2.897   2.991  0.0894 -0.1289 -0.3867
  606SOL    HW1 1817   2.108   2.980   2.947  0.4512  1.1684 -0.1770
  606SOL    HW2 1818   2.202   2.843   2.923 -1.2246  1.1090 -3.6312
  607SOL     OW 1819   1.018   0.235   1.190  0.3931 -0.0671 -0.8305
  607SOL    HW1 1820   1.040   0.209   1.283  0.7312 -1.0215 -2.8324
  607SOL    HW2 1821   0.969   0.154   1.142 -0.3946  0.1824  0.3592
  608SOL     OW 1822   0.251   1.669   2.504 -0.1341 -0.8922  0.3086
  608SOL    HW1 1823   0.245   1.589   2.572 -2.6779 -2.4671  0.7006
  608SOL    HW2 1824   0.195   1.745   2.539  1.7899 -1.7853 -2.0076
  609SOL     OW 1825   1.144   1.267   0.415  0.6642 -0.3070 -0.2936
  609SOL    HW1 1826   1.239   1.309   0.417  1.5154  0.4554  3.7230
  609SOL    HW2 1827   1.121   1.212   0.331  2.7121 -2.0545  0.6927
  610SOL     OW 1828   0.013   0.236   0.972 -0.0171  0.5525  0.6712
  610SOL    HW1 1829   0.079   0.184   0.909  1.7657 -1.9119 -0.4057
  610SOL    HW2 1830   0.058   0.275   1.057  1.5945  2.4905  4.3451
  611SOL     OW 1831   1.139   1.070   0.622  0.7304 -0.3822 -0.1701
  611SOL    HW1 1832   1.163   1.139   0.549 -1.4178  2.1029 -1.1866
  611SOL    HW2 1833   1.158   0.976   0.600  2.4418  2.2277 -1.8822
  612SOL     OW 1834   2.033   1.584   0.109 -0.1539  0.0773 -0.0327
  612SOL    HW1 1835   1.950   1.618   0.158  1.5844 -0.5706  1.7552
  612SOL    HW2 1836   2.059   1.490   0.136 -1.8974 -0.4832 -0.9167
  613SOL     OW 1837   1.601   1.093   0.135  0.1257  0.2524  0.2385
  613SOL    HW1 1838   1.698   1.112   0.159 -0.2384  0.9042  0.2993
  613SOL    HW2 1839   1.539   1.165   0.168 -1.6624 -2.4808 -0.2339
  614SOL     OW 1840   2.818   0.209   2.372  0.2337  0.1665 -0.4021
  614SOL    HW1 1841   2.910   0.195   2.322  0.3589 -1.9957 -0.1181
  614SOL    HW2 1842   2.750   0.140   2.349 -0.7218  0.0607 -0.6587
  615SOL     OW 1843   0.658   2.012   0.715  0.4054 -0.2926  0.2954
  615SOL    HW1 1844   0.590   1.957   0.662  0.1383 -1.2612 -0.2983
  615SOL    HW2 1845   0.646   1.996   0.815  0.7334 -1.1871  0.0030
  616SOL     OW 1846   1.706   0.841   2.565  0.6246  0.1004  0.0272
  616SOL    HW1 1847   1.684   0.931   2.520  1.7927 -1.4289  1.4524
  616SOL    HW2 1848   1.796   0.806   2.544 -1.6741  0.3942  2.0360
  617SOL     OW 1849   1.262   0.070   0.218 -0.3101  0.6260 -0.2593
  617SOL    HW1 1850   1.332   0.136   0.250  4.3891 -0.0249 -3.4688
  617SOL    HW2 1851   1.307   3.102   0.179 -0.2778 -2.0138 -2.4773
  618SOL     OW 1852   2.617   1.790   2.553  0.5293 -0.1555 -0.5574
  618SOL    HW1 1853   2.524   1.802   2.512  1.9964 -2.0043  0.0062
  618SOL    HW2 1854   2.624   1.853   2.634 -1.3649 -1.1028  0.1714
  619SOL     OW 1855   2.341   1.995   0.930 -0.0950 -0.4917 -0.2924
  619SOL    HW1 1856   2.365   2.036   1.022 -2.9645  1.6488  0.4615
  619SOL    HW2 1857   2.399   2.043   0.857 -2.2368  0.0757 -2.3640
  620SOL     OW 1858   2.284   2.812   1.766 -0.0636  0.3962 -0.9644
  620SOL    HW1 1859   2.369   2.763   1.758  2.3024  1.2139 -0.8306
  620SOL    HW2 1860   2.228   2.779   1.847 -3.1181  2.6582 -0.5830
  621SOL     OW 1861   3.096   1.965   1.043  0.1926  0.4787 -0.1884
  621SOL    HW1 1862   0.034   1.891   0.997 -0.8505 -0.0273  0.8407
  621SOL    HW2 1863   0.039   2.047   1.065  0.2283 -0.5320 -1.7459
  622SOL     OW 1864   1.186   1.713   2.804 -0.4501 -0.0418 -0.2078
  622SOL    HW1 1865   1.107   1.726   2.864  4.9211 -1.1349 -2.6258
  622SOL    HW2 1866   1.271   1.761   2.837  0.7673  0.6706  1.5079
  623SOL     OW 1867   2.734   2.435   2.474  0.2639 -0.4086 -0.2689
  623SOL    HW1 1868   2.796   2.361   2.446  2.8074  0.3862 -1.1669
  623SOL    HW2 1869   2.779   2.521   2.518  1.6563 -1.4503  0.1969
  624SOL     OW 1870   0.650   2.223   0.544 -0.0835  0.0901 -0.8512
  624SOL    HW1 1871   0.630   2.153   0.614 -2.3753  1.2015  1.9073
  624SOL    HW2 1872   0.613   2.193   0.453 -1.9071 -0.7605  0.9693
  625SOL     OW 1873   0.527   1.852   2.034 -0.0314  0.1095 -0.5940
  625SOL    HW1 1874   0.505   1.808   2.126 -0.8353  2.9053  1.6139
  625SOL    HW2 1875   0.591   1.926   2.054  1.5164  0.2489  0.6308
  626SOL     OW 1876   0.528   2.578   0.086  0.0994  0.2933  0.7604
  626SOL    HW1 1877   0.552   2.483   0.114 -2.2470  2.8461  0.8862
  626SOL    HW2 1878   0.506   2.638   0.167  2.4486  3.3642  2.8839
  627SOL     OW 1879   1.277   1.664   0.082  0.4833 -0.3831 -0.4174
  627SOL    HW1 1880   1.289   1.718   0.170  2.2068 -3.1184  0.4268
  627SOL    HW2 1881   1.364   1.653   0.026  1.4866  1.6671  1.0188
  628SOL     OW 1882   1.562   2.200   0.806 -0.5072 -0.2789  1.0161
  628SOL    HW1 1883   1.511   2.149   0.882 -0.7198  0.8644  3.0772
  628SOL    HW2 1884   1.664   2.218   0.824  2.8559  1.6369 -1.9815
  629SOL     OW 1885   0.559   0.261   1.480  0.4482  0.1481  0.3038
  629SOL    HW1 1886   0.493   0.271   1.555  0.7724 -0.7844 -0.5338
  629SOL    HW2 1887   0.616   0.183   1.514 -1.3514  1.2109 -1.4504
  630SOL     OW 1888   2.557   0.280   1.646 -0.1075  0.0480  0.4694
  630SOL    HW1 1889   2.560   0.179   1.631  0.5141 -0.0944  0.3339
  630SOL    HW2 1890   2.555   0.335   1.559  1.3227 -0.5917 -2.5520
  631SOL     OW 1891   1.559   0.191   0.933  0.3452  0.3035 -0.1010
  631SOL    HW1 1892   1.520   0.261   0.867 -0.5141  0.9609 -0.8066
  631SOL    HW2 1893   1.487   0.130   0.958 -0.7494  0.5952  1.9086
  632SOL     OW 1894   2.746   0.784   1.898 -0.0939  0.0856  0.5110
  632SOL    HW1 1895   2.830   0.835   1.866 -0.2425  0.6596 -0.4094
  632SOL    HW2 1896   2.777   0.716   1.964  0.1042  0.0301 -1.4570
  633SOL     OW 1897   1.312   0.804   0.065 -0.0741  0.2425 -0.4077
  633SOL    HW1 1898   1.295   0.869   0.139  0.6651 -1.4397 -0.8257
  633SOL    HW2 1899   1.405   0.766   0.069 -0.8924 -0.7567 -0.9478
  634SOL     OW 1900   0.624   2.302   0.105 -0.5625  0.2221  0.2127
  634SOL    HW1 1901   0.727   2.318   0.091  1.5468  1.9547 -0.9569
  634SOL    HW2 1902   0.582   2.256   0.029 -1.4821  1.9683  0.9364
  635SOL     OW 1903   3.100   1.607   2.069 -0.0880 -0.2044 -0.0452
  635SOL    HW1 1904   3.028   1.674   2.041 -0.2473 -4.0417  1.1562
  635SOL    HW2 1905   3.108   1.600   2.173 -1.9746 -1.4291  1.6459
  636SOL     OW 1906   2.993   1.726   0.150  0.5519  0.2279 -0.0110
  636SOL    HW1 1907   3.037   1.658   0.090 -0.4877 -0.3504  0.8652
  636SOL    HW2 1908   3.069   1.783   0.200  3.1477  1.5093  2.3819
  637SOL     OW 1909   2.855   2.359   0.613  0.4252  0.1315  0.1433
  637SOL    HW1 1910   2.921   2.408   0.551  1.7542 -1.7163  1.7795
  637SOL    HW2 1911   2.864   2.373   0.713 -0.9421 -0.8671 -0.3220
  638SOL     OW 1912   2.810   2.833   0.110 -0.5705 -0.0456 -0.6192
  638SOL    HW1 1913   2.884   2.895   0.074 -0.2109  2.7390 -0.6902
  638SOL    HW2 1914   2.797   2.750   0.061 -1.1473  1.0186  2.0232
  639SOL     OW 1915   1.399   0.318   3.021 -0.3883 -0.1324  0.1423
  639SOL    HW1 1916   1.351   0.402   3.049 -0.3925 -2.3444 -3.9500
  639SOL    HW2 1917   1.365   0.245   3.087 -1.1897 -1.3503  1.9131
  640SOL     OW 1918   2.397   2.036   1.669  0.1897 -1.0490  0.0841
  640SOL    HW1 1919   2.491   2.054   1.627  2.1237  0.3023 -0.0219
  640SOL    HW2 1920   2.354   2.124   1.691  0.8887 -2.3503  1.8740
  641SOL     OW 1921   3.055   2.850   1.300 -0.1285 -0.2706  0.0182
  641SOL    HW1 1922   2.958   2.858   1.308  0.9721 -1.9009  0.6367
  641SOL    HW2 1923   3.100   2.939   1.264  2.2812  2.4259 -1.5655
  642SOL     OW 1924   1.582   1.115   1.347  0.2178  0.1999 -0.2061
  642SOL    HW1 1925   1.612   1.021   1.341 -0.3431  1.3482 -1.9375
  642SOL    HW2 1926   1.554   1.137   1.442 -0.0883  0.4587 -2.4077
  643SOL     OW 1927   1.189   1.661   2.326  0.5090  0.2689 -0.2112
  643SOL    HW1 1928   1.221   1.706   2.410 -2.1984 -2.1523 -2.0737
  643SOL    HW2 1929   1.189   1.730   2.250  0.5109 -1.8597 -0.4442
  644SOL     OW 1930   1.866   0.172   2.049 -0.7687 -0.0338  0.0743
  644SOL    HW1 1931   1.798   0.106   2.079  0.0446  1.9972 -0.2839
  644SOL    HW2 1932   1.827   0.261   2.029  1.3570 -1.7281  0.2348
  645SOL     OW 1933   1.514   1.174   1.623  0.1738  0.0852 -0.3006
  645SOL    HW1 1934   1.451   1.098   1.643 -0.9341  2.3552 -0.9384
  645SOL    HW2 1935   1.613   1.158   1.646  1.3357  0.7397 -3.1064
  646SOL     OW 1936   1.317   2.518   0.010 -0.1441  0.4270 -0.6622
  646SOL    HW1 1937   1.282   2.473   3.039  0.6036 -3.5972 -2.3812
  646SOL    HW2 1938   1.319   2.452   0.091 -2.5341  0.6115  2.3237
  647SOL     OW 1939   1.318   2.431   1.217  0.1309  0.0713 -0.7239
  647SOL    HW1 1940   1.310   2.478   1.131 -2.5540  0.2389  2.6082
  647SOL    HW2 1941   1.253   2.351   1.218 -1.8039  1.0078  0.9645
  648SOL     OW 1942   2.992   2.635   1.521  0.4614 -0.1359  0.0017
  648SOL    HW1 1943   3.026   2.558   1.574 -1.9201  2.0173  0.6959
  648SOL    HW2 1944   3.065   2.684   1.474 -0.8266 -1.6924  0.4710
  649SOL     OW 1945   0.992   2.382   2.723  0.0222 -0.0482  0.3241
  649SOL    HW1 1946   1.073   2.317   2.729  1.1544  0.6050 -0.5063
  649SOL    HW2 1947   0.916   2.324   2.704  2.9104 -1.1205  0.2765
  650SOL     OW 1948   3.027   1.951   3.045  0.0133  0.0738 -0.2174
  650SOL    HW1 1949   2.981   1.910   0.011  0.2793 -0.0775 -3.6231
  650SOL    HW2 1950   3.103   1.888   3.012  1.8293 -0.8074 -0.6859
  651SOL     OW 1951   2.411   2.130   2.167 -0.1098 -0.4412  0.0306
  651SOL    HW1 1952   2.349   2.055   2.143  1.2529 -0.2371  0.7760
  651SOL    HW2 1953   2.433   2.194   2.085 -1.8749  3.7956 -1.0184
  652SOL     OW 1954   2.115   2.872   0.883 -0.1289 -0.8862 -0.1426
  652SOL    HW1 1955   2.217   2.867   0.878  1.0839  2.7246  0.6227
  652SOL    HW2 1956   2.066   2.870   0.794 -1.5209 -3.5363  0.6004
  653SOL     OW 1957   2.994   1.290   1.432  0.3635  0.3206 -0.6035
  653SOL    HW1 1958   2.937   1.368   1.465  0.4789  0.7983  0.4478
  653SOL    HW2 1959   3.005   1.298   1.329 -0.0332  0.1374 -1.8943
  654SOL     OW 1960   0.918   0.294   2.871 -0.3450  0.1414  0.2095
  654SOL    HW1 1961   0.943   0.353   2.953  0.9372  2.9990  2.7114
  654SOL    HW2 1962   0.860   0.217   2.906  0.1262  0.9796  0.3637
  655SOL     OW 1963   1.073   0.853   0.976  0.1424  0.3447 -0.2883
  655SOL    HW1 1964   1.018   0.774   1.014 -1.9359 -0.1322 -0.7434
  655SOL    HW2 1965   1.146   0.891   1.037  0.7978  0.9387  0.0279
  656SOL     OW 1966   0.912   2.581   2.064  0.0578 -0.0773  0.0284
  656SOL    HW1 1967   0.816   2.552   2.089 -0.9220 -2.0011 -2.9288
  656SOL    HW2 1968   0.977   2.559   2.142 -0.6487 -1.6477  1.1803
  657SOL     OW 1969   2.122   1.341   0.182  0.4658  0.5736 -0.4673
  657SOL    HW1 1970   2.112   1.271   0.109 -0.9150 -0.6843  1.4895
  657SOL    HW2 1971   2.218   1.369   0.191 -1.1801 -0.1184  0.9411
  658SOL     OW 1972   1.542   2.277   1.581  0.5423 -0.3729 -0.0007
  658SOL    HW1 1973   1.572   2.371   1.557  0.6646  0.0573  0.4319
  658SOL    HW2 1974   1.586   2.243   1.665  0.1075 -0.2278 -1.3447
  659SOL     OW 1975   2.825   1.958   0.124  0.2891 -0.4857 -0.2363
  659SOL    HW1 1976   2.755   1.921   0.063  0.1580  1.4174 -0.3673
  659SOL    HW2 1977   2.874   1.880   0.163  0.5368 -1.2386 -3.6335
  660SOL     OW 1978   1.023   0.262   0.676 -0.3165  0.0746  0.4090
  660SOL    HW1 1979   1.065   0.170   0.661  1.9541 -0.2783  1.5639
  660SOL    HW2 1980   1.039   0.322   0.597 -0.6828 -2.4986  2.8662
  661SOL     OW 1981   1.824   0.291   0.381  0.0645 -0.6006 -0.5512
  661SOL    HW1 1982   1.745   0.270   0.321 -1.4531 -0.5289  1.3695
  661SOL    HW2 1983   1.841   0.392   0.382  0.2403  0.8437  0.6839
  662SOL     OW 1984   0.487   0.450   0.452 -0.1914 -0.0191  0.3358
  662SOL    HW1 1985   0.390   0.421   0.464  2.9953  1.5618 -1.8122
  662SOL    HW2 1986   0.504   0.538   0.493 -1.0466  0.5703 -0.2743
  663SOL     OW 1987   1.433   2.971   2.140  0.1879  0.9614 -0.0705
  663SOL    HW1 1988   1.357   3.006   2.203 -1.5980  0.9182 -0.2935
  663SOL    HW2 1989   1.454   2.876   2.169 -0.3691  0.8348  0.2929
  664SOL     OW 1990   0.873   2.405   1.451  0.1470 -0.4032  0.8999
  664SOL    HW1 1991   0.805   2.429   1.531 -4.8630  1.7699  0.8651
  664SOL    HW2 1992   0.901   2.488   1.400  0.4901  2.0278 -0.7678
  665SOL     OW 1993   1.276   2.293   1.676 -0.1385 -0.0830 -0.0953
  665SOL    HW1 1994   1.278   2.322   1.776 -1.6536  0.3526  2.0475
  665SOL    HW2 1995   1.363   2.300   1.631 -2.2104  0.6230  4.8277
  666SOL     OW 1996   0.783   3.097   2.478 -0.0120 -0.0426 -0.1506
  666SOL    HW1 1997   0.748   3.082   2.576  2.2138 -1.3702  3.6287
  666SOL    HW2 1998   0.831   0.072   2.467  2.3997  0.4907 -1.5476
  667SOL     OW 1999   2.672   0.975   1.545 -0.1052  0.4800  0.4480
  667SOL    HW1 2000   2.665   1.059   1.600 -0.2554 -0.4906  0.1044
  667SOL    HW2 2001   2.756   0.919   1.564 -0.9853  0.8599 -0.8743
  668SOL     OW 2002   1.874   0.111   1.560  0.4072  0.0431  0.1464
  668SOL    HW1 2003   1.835   0.019   1.538 -0.9488 -0.1771  0.7722
  668SOL    HW2 2004   1.813   0.161   1.621 -0.0213 -1.5015 -1.5627
  669SOL     OW 2005   2.683   2.623   1.230 -0.0349  0.5872  0.1081
  669SOL    HW1 2006   2.711   2.544   1.290  3.3878  0.0780  0.6646
  669SOL    HW2 2007   2.648   2.584   1.142 -0.3862 -2.5201 -0.7570
  670SOL     OW 2008   1.313   2.434   2.663  0.6891 -0.2566  0.1057
  670SOL    HW1 2009   1.289   2.518   2.614 -0.9928 -2.7930 -1.2936
  670SOL    HW2 2010   1.335   2.365   2.594  0.5106 -0.5407 -1.6173
  671SOL     OW 2011   0.432   1.199   0.481 -0.6176  0.0927  0.2715
  671SOL    HW1 2012   0.454   1.100   0.464  0.8441  3.2070  0.0730
  671SOL    HW2 2013   0.425   1.220   0.585  0.3982  2.6385  0.7811
  672SOL     OW 2014   2.525   1.179   0.047  0.0939  0.0237  0.1635
  672SOL    HW1 2015   2.560   1.176   0.143  2.1026  0.1895 -2.0878
  672SOL    HW2 2016   2.468   1.100   0.024  1.0130  0.2364  1.0633
  673SOL     OW 2017   0.278   1.896   1.625  0.4295 -0.1108  0.0752
  673SOL    HW1 2018   0.227   1.971   1.678 -0.9177  0.1258  0.3550
  673SOL    HW2 2019   0.256   1.805   1.666 -1.0238 -1.7476  1.0402
  674SOL     OW 2020   1.250   2.080   2.100  0.0618 -0.2130  0.6077
  674SOL    HW1 2021   1.302   2.165   2.114 -0.3896 -1.1752  0.4660
  674SOL    HW2 2022   1.161   2.109   2.056 -3.6457  1.2243  0.9036
  675SOL     OW 2023   1.190   0.998   1.169  0.0787 -0.0127 -0.0489
  675SOL    HW1 2024   1.160   0.960   1.258  1.5700 -1.0450 -2.2035
  675SOL    HW2 2025   1.187   1.096   1.163  1.4646  0.0660  1.8174
  676SOL     OW 2026   2.050   0.449   1.177  0.0883  0.6859 -0.1320
  676SOL    HW1 2027   2.038   0.538   1.137 -0.8385 -1.2548  2.5001
  676SOL    HW2 2028   1.993   0.442   1.264  1.2118  1.7202  1.4906
  677SOL     OW 2029   2.556   0.724   0.301  0.0275 -0.0526 -0.7594
  677SOL    HW1 2030   2.635   0.764   0.352 -2.6922 -0.4962  2.1138
  677SOL    HW2 2031   2.597   0.647   0.246  2.5414  0.8526  2.4562
  678SOL     OW 2032   2.456   1.536   1.118  0.4753 -0.6526 -0.1273
  678SOL    HW1 2033   2.471   1.450   1.064  0.8984 -1.5894 -0.6679
  678SOL    HW2 2034   2.376   1.576   1.065 -1.9029 -4.0076 -1.7864
  679SOL     OW 2035   2.595   0.711   2.998 -0.0023 -0.0294  0.5600
  679SOL    HW1 2036   2.611   0.736   2.900  0.2407 -1.1625 -1.4469
  679SOL    HW2 2037   2.645   0.766   3.070 -2.6650  0.4757  0.3944
  680SOL     OW 2038   0.501   1.232   2.048  0.1908 -0.8360 -0.5592
  680SOL    HW1 2039   0.477   1.141   2.069 -1.2337  1.0735 -0.2967
  680SOL    HW2 2040   0.419   1.285   2.057  0.8095 -0.7431 -2.3348
  681SOL     OW 2041   2.654   2.060   1.578 -0.1647 -0.1095  0.1522
  681SOL    HW1 2042   2.694   1.978   1.620 -1.4200 -0.4304 -1.7976
  681SOL    HW2 2043   2.654   2.053   1.479 -1.7662 -0.5246  0.3601
  682SOL     OW 2044   0.254   1.877   3.043  0.1477  0.0611  0.1793
  682SOL    HW1 2045   0.288   1.956   2.989  0.0747  0.9252 -0.3336
  682SOL    HW2 2046   0.326   1.803   3.032 -0.9163 -0.4920 -0.5120
  683SOL     OW 2047   2.682   2.202   0.943 -0.0925 -0.0045 -0.8610
  683SOL    HW1 2048   2.723   2.108   0.962  0.5004 -2.0371 -2.0139
  683SOL    HW2 2049   2.663   2.235   1.040  0.9992 -2.6204  0.8099
  684SOL     OW 2050   2.625   1.037   1.969 -0.0288  0.3584 -0.3998
  684SOL    HW1 2051   2.679   0.969   1.910  1.2691 -2.7635  0.4302
  684SOL    HW2 2052   2.653   1.029   2.067  1.4551  0.2047  1.8886
  685SOL     OW 2053   1.253   0.708   0.851 -0.0921 -0.5602 -0.4177
  685SOL    HW1 2054   1.231   0.609   0.867 -1.0120 -0.5952 -1.1566
  685SOL    HW2 2055   1.192   0.762   0.910  1.8076 -0.8375  2.4737
  686SOL     OW 2056   0.617   0.222   3.113  0.3591  0.6851 -0.0459
  686SOL    HW1 2057   0.561   0.138   0.026  0.0731 -2.1364  1.4485
  686SOL    HW2 2058   0.602   0.298   0.061  2.1264 -0.6843 -1.1915
  687SOL     OW 2059   0.392   2.093   2.520 -0.4109 -0.1581 -0.6332
  687SOL    HW1 2060   0.393   2.163   2.445  0.9559  1.5307 -2.6165
  687SOL    HW2 2061   0.298   2.090   2.560 -0.8885  1.8549 -0.8380
  688SOL     OW 2062   2.186   0.541   1.584 -0.1120  0.3488  0.0291
  688SOL    HW1 2063   2.105   0.590   1.539 -3.1882  0.4668  0.1608
  688SOL    HW2 2064   2.224   0.468   1.525  2.1176 -0.3043  0.5905
  689SOL     OW 2065   1.798   0.949   0.912  0.0105 -0.0807 -0.2246
  689SOL    HW1 2066   1.787   0.915   1.005  0.2104 -0.7531  0.1719
  689SOL    HW2 2067   1.709   0.989   0.888  1.8442  0.6553  1.7467
  690SOL     OW 2068   2.992   0.990   1.387 -0.5321  0.4182  0.0152
  690SOL    HW1 2069   2.967   1.088   1.385 -0.8872  0.4795  1.8363
  690SOL    HW2 2070   2.943   0.946   1.305 -2.4992  0.9031 -0.1394
  691SOL     OW 2071   2.996   1.200   1.779  0.2986 -0.0759 -0.2378
  691SOL    HW1 2072   3.084   1.204   1.731 -0.5284  0.2211  1.9679
  691SOL    HW2 2073   2.942   1.290   1.763  2.0371  0.5665 -0.2919
  692SOL     OW 2074   1.286   0.625   1.739  0.2341  0.3484 -0.5789
  692SOL    HW1 2075   1.242   0.572   1.811  0.9055 -0.4398 -0.7452
  692SOL    HW2 2076   1.320   0.714   1.778 -1.5230  0.2019 -0.5549
  693SOL     OW 2077   0.673   1.340   2.458  0.0761  0.1369 -0.1269
  693SOL    HW1 2078   0.655   1.427   2.414  1.4016 -2.2648  0.9565
  693SOL    HW2 2079   0.622   1.346   2.543 -3.1679  1.5373 -2.4103
  694SOL     OW 2080   1.298   1.657   0.552  0.2796 -0.1136 -0.0397
  694SOL    HW1 2081   1.396   1.669   0.569 -1.9804  1.8640  0.2178
  694SOL    HW2 2082   1.252   1.654   0.638 -1.4871 -1.7000  0.5326
  695SOL     OW 2083   0.672   1.177   1.439  0.0981  0.1936  0.4879
  695SOL    HW1 2084   0.572   1.175   1.422  1.5647  1.5848 -0.1730
  695SOL    HW2 2085   0.698   1.181   1.538  0.8194 -0.0888  0.1382
  696SOL     OW 2086   0.207   2.745   0.400 -0.0945 -0.1094  0.6380
  696SOL    HW1 2087   0.165   2.826   0.354  2.0954  1.5836  0.0875
  696SOL    HW2 2088   0.301   2.726   0.374 -2.3191 -0.3400 -1.6540
  697SOL     OW 2089   1.771   0.598   1.137 -0.1026 -0.1757  0.4619
  697SOL    HW1 2090   1.699   0.650   1.081 -2.2650  1.5164 -1.3940
  697SOL    HW2 2091   1.748   0.497   1.121 -2.9431  0.8259  1.2214
  698SOL     OW 2092   1.553   1.473   1.585  0.2228  0.1503 -0.0823
  698SOL    HW1 2093   1.581   1.535   1.664 -0.4472 -0.1898  0.3679
  698SOL    HW2 2094   1.562   1.376   1.615 -3.1702  0.3184 -1.9183
  699SOL     OW 2095   3.109   0.411   2.404 -0.6320 -0.4275 -0.4144
  699SOL    HW1 2096   3.034   0.477   2.397  0.2125 -0.0580  0.2341
  699SOL    HW2 2097   3.097   0.332   2.343 -1.7334 -0.1990 -1.7528
  700SOL     OW 2098   1.514   2.712   0.897 -0.2164  0.4873  0.9605
  700SOL    HW1 2099   1.525   2.648   0.818  1.4373  1.0136  0.0466
  700SOL    HW2 2100   1.558   2.805   0.881 -1.0244  2.6097  3.2195
  701SOL     OW 2101   0.192   1.490   2.687 -0.1903  0.0964  0.8467
  701SOL    HW1 2102   0.266   1.444   2.744 -0.4367  1.4064 -0.7785
  701SOL    HW2 2103   0.136   1.558   2.732  0.3171 -1.8119  0.8593
  702SOL     OW 2104   0.521   0.419   2.965 -0.5356 -0.0382  0.0531
  702SOL    HW1 2105   0.420   0.421   2.978 -0.0339 -1.9722 -1.2044
  702SOL    HW2 2106   0.565   0.333   2.995  1.0042  0.7916 -2.2288
  703SOL     OW 2107   2.013   3.077   2.556 -0.4170  0.2794 -0.2002
  703SOL    HW1 2108   2.079   0.039   2.549  1.4470  0.8030  0.8455
  703SOL    HW2 2109   1.915   3.114   2.565 -2.4022  3.1132  0.8233
  704SOL     OW 2110   2.610   1.825   0.585 -0.7039 -0.9239 -0.0081
  704SOL    HW1 2111   2.605   1.931   0.581  1.1021  2.7168  0.3306
  704SOL    HW2 2112   2.679   1.787   0.520 -0.9008 -0.2625 -0.3755
  705SOL     OW 2113   2.935   1.920   2.038 -0.0276  0.2982  0.0728
  705SOL    HW1 2114   2.854   1.859   2.038  0.2646 -0.0597  1.7526
  705SOL    HW2 2115   2.910   2.013   2.067  0.0143 -0.8143  0.5261
  706SOL     OW 2116   2.833   2.640   0.850  0.0748  0.1705 -0.0189
  706SOL    HW1 2117   2.901   2.696   0.908  1.2489 -0.2122 -0.1961
  706SOL    HW2 2118   2.843   2.656   0.747  2.1703  2.2921 -1.9862
  707SOL     OW 2119   1.023   2.959   0.273  0.4975  0.2539  0.1194
  707SOL    HW1 2120   1.116   2.916   0.294 -0.9817  0.4304 -0.8292
  707SOL    HW2 2121   1.016   2.974   0.174  0.6530 -0.0883  0.7526
  708SOL     OW 2122   0.539   1.936   1.672 -0.0563 -0.1324  0.1117
  708SOL    HW1 2123   0.441   1.921   1.655 -1.0539  1.8692 -0.6797
  708SOL    HW2 2124   0.580   1.995   1.603 -1.1586  0.4924  0.7530
  709SOL     OW 2125   1.659   0.017   2.119 -0.0867 -0.1816 -0.2578
  709SOL    HW1 2126   1.633   0.090   2.183 -0.3740  0.2006 -0.4089
  709SOL    HW2 2127   1.578   3.070   2.104  1.3283  0.5160  1.3705
  710SOL     OW 2128   1.641   2.860   2.561 -0.2210  0.1961  0.1076
  710SOL    HW1 2129   1.713   2.907   2.509 -2.4031 -1.8207  1.3332
  710SOL    HW2 2130   1.579   2.933   2.588  2.1270  0.1316  0.1637
  711SOL     OW 2131   1.192   2.423   2.918  0.0169  0.1350 -0.2282
  711SOL    HW1 2132   1.091   2.448   2.914  0.2813 -0.8124  0.3966
  711SOL    HW2 2133   1.235   2.428   2.828  1.1455  0.7653 -0.0845
  712SOL     OW 2134   1.173   2.145   2.739  0.5960 -0.1799 -0.6146
  712SOL    HW1 2135   1.271   2.150   2.767 -0.5965 -0.3729  0.7942
  712SOL    HW2 2136   1.151   2.090   2.654  0.7471  2.4951  1.7782
  713SOL     OW 2137   1.237   1.080   1.550  0.0154  0.3341 -0.0185
  713SOL    HW1 2138   1.191   1.161   1.508  0.3314 -1.0347  0.3259
  713SOL    HW2 2139   1.227   0.998   1.493  0.4401  0.7765 -0.0795
  714SOL     OW 2140   1.501   1.544   0.996 -0.1473  0.1764 -0.6916
  714SOL    HW1 2141   1.488   1.575   1.093 -3.7539  1.3954 -0.7129
  714SOL    HW2 2142   1.504   1.624   0.931  3.4835 -1.3018 -1.2988
  715SOL     OW 2143   2.623   3.033   0.636 -0.3452 -0.0839 -0.1528
  715SOL    HW1 2144   2.676   2.947   0.639 -2.9977  1.1693  1.9016
  715SOL    HW2 2145   2.601   3.059   0.733 -0.6256  0.5924 -0.4407
  716SOL     OW 2146   0.570   2.959   0.585  0.4484 -0.2017  0.0078
  716SOL    HW1 2147   0.618   2.965   0.495  0.5725 -0.2813  1.5392
  716SOL    HW2 2148   0.626   2.959   0.665 -2.2215 -0.7063 -2.4832
  717SOL     OW 2149   0.028   0.271   0.004 -0.5275  0.0094 -0.1887
  717SOL    HW1 2150   3.055   0.226   3.095 -4.0865  0.4451  0.3198
  717SOL    HW2 2151   0.067   0.225   0.089 -0.1733  0.1174  2.4297
  718SOL     OW 2152   1.731   1.701   1.304 -0.1356  0.4279  0.2179
  718SOL    HW1 2153   1.755   1.733   1.394 -0.4717  0.0847 -1.0444
  718SOL    HW2 2154   1.639   1.660   1.309  1.9765 -0.8352 -0.8483
  719SOL     OW 2155   2.664   2.436   0.383 -0.1749 -0.4275 -0.1925
  719SOL    HW1 2156   2.732   2.456   0.309 -3.1723 -0.4109 -1.3318
  719SOL    HW2 2157   2.709   2.425   0.470  1.3820  0.8186 -2.1173
  720SOL     OW 2158   0.962   1.068   0.828  0.1138  0.2146 -0.2511
  720SOL    HW1 2159   0.997   0.988   0.886 -1.4035 -1.8974 -0.4579
  720SOL    HW2 2160   1.010   1.073   0.736 -2.2836 -2.2088 -2.8045
  721SOL     OW 2161   1.675   0.352   1.127 -0.0788 -0.0244 -0.1720
  721SOL    HW1 2162   1.647   0.298   1.046  2.0971 -1.8706 -2.1372
  721SOL    HW2 2163   1.696   0.287   1.201  0.0062 -0.3589 -1.8812
  722SOL     OW 2164   1.094   1.426   2.194  0.4803  0.4298 -0.1029
  722SOL    HW1 2165   1.124   1.510   2.240 -1.3463  2.2743  2.2122
  722SOL    HW2 2166   1.038   1.369   2.257 -1.5473 -0.8334 -2.3883
  723SOL     OW 2167   1.100   0.085   1.631  0.1240 -0.0430 -0.0756
  723SOL    HW1 2168   1.082   0.163   1.569  0.7561 -2.0503  1.5617
  723SOL    HW2 2169   1.096   3.111   1.582  1.9673  2.0296 -1.0312
  724SOL     OW 2170   1.995   1.995   1.969  0.2847  0.3983 -0.1457
  724SOL    HW1 2171   1.937   2.043   1.904 -0.5868 -0.6142  0.4594
  724SOL    HW2 2172   2.017   1.897   1.947 -0.5688 -2.0657 -0.7621
  725SOL     OW 2173   1.447   2.712   1.373  0.3090 -0.0874 -0.5583
  725SOL    HW1 2174   1.500   2.693   1.289 -0.8399  0.4587 -1.8472
  725SOL    HW2 2175   1.397   2.804   1.367 -0.1984  3.7894 -1.0224
  726SOL     OW 2176   1.819   2.798   3.105  0.0886  0.1384  0.0319
  726SOL    HW1 2177   1.818   2.849   3.016 -0.1498 -1.3538 -0.1626
  726SOL    HW2 2178   1.909   2.784   0.038  0.3764  1.9695 -1.4925
  727SOL     OW 2179   1.256   1.860   0.955 -0.0092  0.3984 -0.1752
  727SOL    HW1 2180   1.313   1.941   0.967  1.0139  1.0096 -0.9739
  727SOL    HW2 2181   1.297   1.800   0.884 -0.4703  1.7602 -1.4824
  728SOL     OW 2182   1.967   2.873   2.377 -0.0831 -0.2343  0.0039
  728SOL    HW1 2183   1.959   2.959   2.431 -1.3244  0.6479  0.3836
  728SOL    HW2 2184   2.047   2.819   2.408  1.2761  1.0397  2.9949
  729SOL     OW 2185   2.436   1.777   1.475 -0.4685  0.5115  0.1062
  729SOL    HW1 2186   2.440   1.859   1.537 -0.0101 -0.3155  0.0729
  729SOL    HW2 2187   2.345   1.761   1.438 -0.2551 -1.6653 -0.2316
  730SOL     OW 2188   1.850   0.535   2.513  0.0173 -0.2388  0.3211
  730SOL    HW1 2189   1.865   0.434   2.508  0.7334  1.8708 -0.0947
  730SOL    HW2 2190   1.866   0.568   2.607  0.8242 -2.1012 -1.1482
  731SOL     OW 2191   0.400   0.124   1.039 -0.0781 -0.2057  0.0061
  731SOL    HW1 2192   0.394   0.131   1.145  2.2365 -1.9762  1.6583
  731SOL    HW2 2193   0.492   0.171   1.026  0.3928  0.0489 -0.3132
  732SOL     OW 2194   1.792   3.046   0.959 -0.0213 -0.6071 -0.3144
  732SOL    HW1 2195   1.787   0.027   0.936  0.9616 -1.1155 -1.0373
  732SOL    HW2 2196   1.883   3.030   0.999 -2.3942 -0.1901 -0.8664
  733SOL     OW 2197   0.813   1.050   1.204 -0.0671  0.0266 -0.2853
  733SOL    HW1 2198   0.753   1.088   1.277  0.9967 -0.9940  0.7696
  733SOL    HW2 2199   0.832   1.115   1.130  0.2618  1.8543  2.0376
  734SOL     OW 2200   2.442   2.036   0.265 -0.4558 -0.8183  0.2426
  734SOL    HW1 2201   2.442   1.937   0.267  0.6181 -0.6406 -0.9800
  734SOL    HW2 2202   2.428   2.068   0.166 -1.8865  2.8433 -1.3385
  735SOL     OW 2203   0.378   0.626   0.137 -0.6392  0.1176  0.1334
  735SOL    HW1 2204   0.376   0.655   0.041 -0.6641  0.2949  2.1416
  735SOL    HW2 2205   0.297   0.567   0.163  2.0032  0.5679  1.8508
  736SOL     OW 2206   1.702   2.493   2.439  0.3218  0.1559  0.3062
  736SOL    HW1 2207   1.750   2.514   2.347 -0.1641  2.2816 -2.8950
  736SOL    HW2 2208   1.753   2.534   2.514 -2.4910 -1.6632  0.5317
  737SOL     OW 2209   1.180   2.170   1.256 -0.3451 -0.4285  0.5650
  737SOL    HW1 2210   1.168   2.077   1.220  0.3328  1.7553 -0.0692
  737SOL    HW2 2211   1.161   2.175   1.353  0.3681  2.1867  0.3432
  738SOL     OW 2212   1.779   2.829   2.170  0.4322 -0.1724  0.3186
  738SOL    HW1 2213   1.679   2.816   2.181  0.0278 -0.9247 -1.0760
  738SOL    HW2 2214   1.827   2.860   2.253 -0.5889  1.6594 -1.0983
  739SOL     OW 2215   1.523   2.042   1.979 -0.2249  0.1530  0.5840
  739SOL    HW1 2216   1.438   2.036   2.030  0.3270  0.0696 -1.0441
  739SOL    HW2 2217   1.602   2.057   2.038  0.5610 -2.3526  1.6498
  740SOL     OW 2218   2.090   2.424   1.780  0.1943  0.4688 -0.2864
  740SOL    HW1 2219   2.037   2.373   1.854 -0.9360  1.3677  1.2404
  740SOL    HW2 2220   2.032   2.479   1.718  1.1654  1.7804 -0.5402
  741SOL     OW 2221   2.049   1.938   2.878 -0.0181  0.1452  0.2755
  741SOL    HW1 2222   1.988   1.862   2.910  0.7407 -0.4577  0.3809
  741SOL    HW2 2223   2.089   1.930   2.786 -0.4698 -0.9348 -0.1995
  742SOL     OW 2224   0.571   1.104   2.929  0.2658  0.3699 -0.2059
  742SOL    HW1 2225   0.501   1.170   2.959 -1.3843 -0.1675 -0.8121
  742SOL    HW2 2226   0.659   1.144   2.893  0.3862  1.1383 -0.0249
  743SOL     OW 2227   2.098   0.773   2.801 -0.1216 -0.0090  0.3378
  743SOL    HW1 2228   2.196   0.782   2.768  0.8009  0.8427  0.6735
  743SOL    HW2 2229   2.072   0.847   2.860  0.7584 -3.4779 -3.3753
  744SOL     OW 2230   2.133   2.833   1.540 -0.0148  0.0575 -0.5901
  744SOL    HW1 2231   2.190   2.813   1.460 -0.8112  0.4974 -0.3766
  744SOL    HW2 2232   2.183   2.830   1.629  1.3154  0.2290 -0.7897
  745SOL     OW 2233   2.637   1.741   1.158  0.0935 -0.2001  0.3294
  745SOL    HW1 2234   2.718   1.709   1.098 -0.4231  2.9264 -1.5615
  745SOL    HW2 2235   2.556   1.678   1.152  1.6626  1.1904 -0.8746
  746SOL     OW 2236   2.818   1.987   1.022 -0.0018 -0.5134  0.0152
  746SOL    HW1 2237   2.793   1.933   0.942  1.5766  1.3058  1.0525
  746SOL    HW2 2238   2.923   1.982   1.033  0.5881  0.2588 -0.0790
  747SOL     OW 2239   2.143   2.934   0.286  0.6627 -0.3226 -0.0247
  747SOL    HW1 2240   2.182   2.839   0.292 -0.8766  1.8803 -1.3933
  747SOL    HW2 2241   2.127   2.986   0.371  1.5504  2.9561  0.4396
  748SOL     OW 2242   0.892   2.095   0.229  0.3802 -0.0760 -0.0447
  748SOL    HW1 2243   0.967   2.030   0.251 -1.0731  0.4709 -1.4270
  748SOL    HW2 2244   0.840   2.060   0.151  1.4397 -0.5519  0.8253
  749SOL     OW 2245   2.726   0.452   2.335  0.1291  0.0896 -0.7147
  749SOL    HW1 2246   2.756   0.356   2.365  1.7606 -0.1463  0.3734
  749SOL    HW2 2247   2.799   0.523   2.353 -1.6997 -1.0176 -0.6420
  750SOL     OW 2248   1.458   0.545   1.542 -0.3053 -0.3675 -0.1424
  750SOL    HW1 2249   1.399   0.589   1.612  0.3185  0.0147  0.6910
  750SOL    HW2 2250   1.462   0.446   1.558 -3.0009 -1.0464 -1.5368
  751SOL     OW 2251   2.425   2.308   1.953 -0.0828 -0.2606 -0.5679
  751SOL    HW1 2252   2.375   2.290   1.867  2.7952  1.5314  0.6610
  751SOL    HW2 2253   2.473   2.401   1.945  1.9947  2.7366  0.2160
  752SOL     OW 2254   1.857   1.621   1.035  0.2591 -0.2787 -0.1492
  752SOL    HW1 2255   1.816   1.636   1.126  0.8992  0.4246  0.1642
  752SOL    HW2 2256   1.821   1.536   0.991 -2.2713  1.1164  0.4527
  753SOL     OW 2257   1.436   0.897   2.398  0.0565  0.0035  0.4707
  753SOL    HW1 2258   1.448   0.984   2.345  0.7621  0.4007 -0.2786
  753SOL    HW2 2259   1.395   0.915   2.488 -0.6532  0.9831 -1.7271
  754SOL     OW 2260   0.094   2.564   1.003  0.1361 -0.6044  0.2488
  754SOL    HW1 2261   0.195   2.586   0.983  0.6392  0.8551 -3.8247
  754SOL    HW2 2262   0.081   2.512   1.088 -1.4725 -2.0892 -0.1978
  755SOL     OW 2263   2.479   3.035   1.319  0.0320  0.1688  0.4817
  755SOL    HW1 2264   2.444   3.065   1.410  0.6530 -1.8922  2.2045
  755SOL    HW2 2265   2.568   3.082   1.296 -0.5330 -0.7591 -2.2336
  756SOL     OW 2266   1.666   1.090   2.460 -0.1341 -0.4292 -0.5911
  756SOL    HW1 2267   1.652   1.157   2.537  2.1677  0.7011 -0.6858
  756SOL    HW2 2268   1.592   1.111   2.394 -0.5184  1.3115  1.7321
  757SOL     OW 2269   2.993   2.897   1.840 -0.5807 -0.0173  0.2236
  757SOL    HW1 2270   2.996   2.868   1.938  1.8016 -2.4231 -0.2447
  757SOL    HW2 2271   2.920   2.960   1.811 -0.3118 -1.2538  0.6205
  758SOL     OW 2272   0.539   2.743   1.504 -0.1462  0.4836 -0.4918
  758SOL    HW1 2273   0.510   2.778   1.418 -0.8327 -1.8065  4.2129
  758SOL    HW2 2274   0.529   2.641   1.507  1.0458 -2.4124 -1.5426
  759SOL     OW 2275   2.163   1.377   1.146 -0.8338  0.2289  0.6281
  759SOL    HW1 2276   2.250   1.368   1.212  2.1246  0.5722  1.3370
  759SOL    HW2 2277   2.119   1.470   1.151 -1.2437  0.8007 -0.0189
  760SOL     OW 2278   1.709   0.276   1.736  0.6730  0.6678 -0.3361
  760SOL    HW1 2279   1.704   0.189   1.789 -0.1665  2.3353 -0.3779
  760SOL    HW2 2280   1.685   0.354   1.796 -0.6728  0.1173  0.2325
  761SOL     OW 2281   2.077   0.439   0.603  0.6970 -0.6183 -0.5737
  761SOL    HW1 2282   2.040   0.343   0.585 -1.1214 -1.2550 -2.0661
  761SOL    HW2 2283   2.115   0.481   0.520  0.5432  0.1966  4.8009
  762SOL     OW 2284   2.267   2.674   0.320  0.5087  0.3753 -0.1353
  762SOL    HW1 2285   2.369   2.686   0.315  0.5904 -0.7152 -1.4721
  762SOL    HW2 2286   2.243   2.573   0.334 -1.4773 -0.3332 -2.6271
  763SOL     OW 2287   1.092   0.560   1.572 -0.0167 -0.1021 -0.2715
  763SOL    HW1 2288   1.164   0.575   1.638 -3.1827 -0.2716 -1.8756
  763SOL    HW2 2289   1.012   0.611   1.607 -1.1720 -2.3154  1.1260
  764SOL     OW 2290   2.273   2.577   2.635 -0.3188 -0.0396  0.2166
  764SOL    HW1 2291   2.343   2.509   2.662 -1.9550 -0.1176 -0.3122
  764SOL    HW2 2292   2.188   2.527   2.611  0.5861 -0.4610  0.7359
  765SOL     OW 2293   0.022   0.920   2.417  0.0520 -0.1369 -0.3118
  765SOL    HW1 2294   3.065   0.863   2.463 -1.9937  2.0447 -1.9924
  765SOL    HW2 2295   0.087   0.951   2.487  2.0084 -0.5385  0.4465
  766SOL     OW 2296   2.791   1.601   2.726  0.5191  0.0117 -0.0564
  766SOL    HW1 2297   2.688   1.600   2.736  2.6181 -1.2365 -1.0752
  766SOL    HW2 2298   2.815   1.576   2.628  0.3672  2.2516 -0.9659
  767SOL     OW 2299   0.401   2.139   1.840 -0.8884  0.2435  0.1687
  767SOL    HW1 2300   0.451   2.072   1.777 -0.7998  0.1332  1.1997
  767SOL    HW2 2301   0.300   2.124   1.838 -1.5100  1.1354 -0.7020
  768SOL     OW 2302   0.979   1.083   2.943 -0.1159 -0.0954 -0.2076
  768SOL    HW1 2303   1.017   1.041   3.023 -1.2440 -2.1949 -1.3034
  768SOL    HW2 2304   0.965   1.013   2.873 -0.2513 -0.1864 -0.9118
  769SOL     OW 2305   1.797   2.828   2.782  0.5929  0.0627  0.1857
  769SOL    HW1 2306   1.844   2.917   2.784  1.8990 -1.3190 -0.7781
  769SOL    HW2 2307   1.712   2.822   2.725  1.1504 -0.8652  1.5756
  770SOL     OW 2308   0.867   0.250   2.416  0.2339 -0.3364  0.7984
  770SOL    HW1 2309   0.784   0.263   2.355 -2.2312  0.3913 -0.7043
  770SOL    HW2 2310   0.848   0.293   2.507  2.4526 -0.6150  0.6197
  771SOL     OW 2311   0.593   2.459   0.905  0.1225 -0.3009  0.1604
  771SOL    HW1 2312   0.641   2.472   0.818 -0.7132 -1.2561 -1.8087
  771SOL    HW2 2313   0.550   2.369   0.911  0.0218 -0.8577 -0.5798
  772SOL     OW 2314   0.038   0.857   0.356 -0.2242  0.3801  0.0412
  772SOL    HW1 2315   0.128   0.840   0.319 -1.1981 -0.6619 -1.5659
  772SOL    HW2 2316   3.082   0.782   0.337 -2.5327 -1.3349  2.8296
  773SOL     OW 2317   1.605   0.904   1.876  0.6294  0.0331  0.5890
  773SOL    HW1 2318   1.666   0.843   1.929  0.8911 -2.8211  2.1176
  773SOL    HW2 2319   1.625   0.909   1.776 -4.2522 -1.0592  0.5385
  774SOL     OW 2320   0.527   0.929   0.471  0.1262 -0.0267 -0.1280
  774SOL    HW1 2321   0.610   0.965   0.519  2.6780 -0.9582  0.0133
  774SOL    HW2 2322   0.557   0.856   0.403 -0.1439  1.1665  3.9951
  775SOL     OW 2323   1.796   3.114   0.082  0.6669  0.1101 -0.5604
  775SOL    HW1 2324   1.766   3.031   0.135  1.5114  0.1357 -1.1410
  775SOL    HW2 2325   1.752   0.078   0.124 -1.4247 -1.6957 -1.0019
  776SOL     OW 2326   2.390   0.263   2.394 -0.0071 -0.3823 -0.3271
  776SOL    HW1 2327   2.355   0.337   2.454 -1.3791 -2.4226  0.4434
  776SOL    HW2 2328   2.364   0.284   2.296 -0.8204 -2.9072 -0.2400
  777SOL     OW 2329   0.854   1.528   3.115  0.1356  0.2799 -0.3467
  777SOL    HW1 2330   0.947   1.484   0.021 -0.9480 -1.7826  0.9099
  777SOL    HW2 2331   0.776   1.462   0.016 -0.1537 -0.7666 -1.5546
  778SOL     OW 2332   3.079   2.669   0.224  0.9640 -0.2156 -0.3716
  778SOL    HW1 2333   3.107   2.605   0.291 -0.4888  1.7547 -3.3924
  778SOL    HW2 2334   3.108   2.765   0.246  1.8181  0.0585  1.3812
  779SOL     OW 2335   0.255   1.230   0.056 -0.1095 -0.0032  0.3802
  779SOL    HW1 2336   0.204   1.292   0.120  1.0832  0.4467 -0.6658
  779SOL    HW2 2337   0.236   1.132   0.076 -1.0836  3.2864 -2.3665
  780SOL     OW 2338   2.039   0.196   2.260  0.8855  0.4565  0.2873
  780SOL    HW1 2339   2.130   0.241   2.247  2.2035  2.7144  1.1369
  780SOL    HW2 2340   1.980   0.189   2.178  2.7964  2.7567  1.8090
  781SOL     OW 2341   1.743   0.882   1.639  0.1392 -0.6297  0.1065
  781SOL    HW1 2342   1.752   0.984   1.623  0.5631 -0.3962  2.7191
  781SOL    HW2 2343   1.838   0.854   1.637 -1.0018  1.5829  0.2146
  782SOL     OW 2344   1.860   1.810   2.348  0.3916  0.2909 -0.4286
  782SOL    HW1 2345   1.863   1.885   2.419  0.8502  0.1452  1.8530
  782SOL    HW2 2346   1.952   1.784   2.313 -1.5326  0.1087  1.3095
  783SOL     OW 2347   1.361   0.060   1.694 -0.1145  0.3932  0.2796
  783SOL    HW1 2348   1.270   0.055   1.654  3.9442 -2.0836  2.5903
  783SOL    HW2 2349   1.358   0.032   1.792 -0.5909  0.9093 -0.2093
  784SOL     OW 2350   1.985   0.837   2.549 -0.7022  0.4884 -0.2340
  784SOL    HW1 2351   2.006   0.834   2.651 -0.1220 -1.1787  2.8473
  784SOL    HW2 2352   2.047   0.777   2.497 -2.0467  2.2862  0.7477
  785SOL     OW 2353   1.790   0.549   0.336 -0.2857  0.3584  0.2251
  785SOL    HW1 2354   1.753   0.562   0.238 -2.0352 -1.2648 -1.6558
  785SOL    HW2 2355   1.862   0.619   0.357  0.9139 -3.0830 -0.7666
  786SOL     OW 2356   3.025   1.898   0.708  0.4601  0.4150 -0.3538
  786SOL    HW1 2357   3.006   1.992   0.675  2.2014  0.5886  0.0110
  786SOL    HW2 2358   2.944   1.868   0.767  0.6792  0.9668  3.7416
  787SOL     OW 2359   1.614   2.290   0.430 -0.1347  0.4553  0.0869
  787SOL    HW1 2360   1.537   2.259   0.493  0.2351  0.8284  2.2317
  787SOL    HW2 2361   1.703   2.297   0.483 -0.6474  0.0536  0.5076
  788SOL     OW 2362   2.041   1.538   1.547 -0.1541  0.2538  0.9097
  788SOL    HW1 2363   2.076   1.601   1.472 -0.2884 -0.7253 -0.2771
  788SOL    HW2 2364   1.990   1.594   1.614  2.7820 -0.5257 -1.9303
  789SOL     OW 2365   2.897   1.281   2.395 -0.2385 -0.6512  0.3795
  789SOL    HW1 2366   2.989   1.272   2.438 -0.4753 -1.4831 -3.2217
  789SOL    HW2 2367   2.874   1.188   2.352 -0.3254 -0.5811 -1.2796
  790SOL     OW 2368   0.428   3.064   2.616  0.4320 -0.4560  0.1248
  790SOL    HW1 2369   0.371   0.032   2.598  2.6398 -0.9729  1.2463
  790SOL    HW2 2370   0.403   3.013   2.699  0.2348  1.2194 -0.1730
  791SOL     OW 2371   0.964   2.950   2.698 -0.8756  0.3025  0.1376
  791SOL    HW1 2372   0.867   2.980   2.705 -1.1728 -0.8346 -0.7383
  791SOL    HW2 2373   1.027   3.017   2.730 -2.4015  3.0367 -1.3911
  792SOL     OW 2374   1.704   0.395   2.004  0.4018  0.4986 -0.0779
  792SOL    HW1 2375   1.645   0.408   2.085 -1.2844 -0.3576  2.1674
  792SOL    HW2 2376   1.648   0.438   1.930 -2.2035 -0.3979 -1.3257
  793SOL     OW 2377   2.669   0.173   2.042 -0.2290 -0.1196  0.0141
  793SOL    HW1 2378   2.750   0.162   1.986 -1.2941  0.5744  2.1820
  793SOL    HW2 2379   2.660   0.278   2.055  1.8284  0.3118  1.0938
  794SOL     OW 2380   0.611   0.648   1.740 -0.1513  0.2279  0.0504
  794SOL    HW1 2381   0.660   0.589   1.808 -0.4378  1.8619 -1.2077
  794SOL    HW2 2382   0.518   0.612   1.706 -3.7920 -3.2460 -2.1344
  795SOL     OW 2383   2.918   1.449   0.555  0.4791 -0.0929  0.0323
  795SOL    HW1 2384   2.930   1.402   0.468 -3.8122 -1.8445  0.9957
  795SOL    HW2 2385   2.968   1.537   0.564 -0.7732  0.9101  2.6926
  796SOL     OW 2386   2.703   2.605   3.108  0.4744  0.2329  0.7202
  796SOL    HW1 2387   2.749   2.559   0.072 -1.2301 -0.1226  3.1396
  796SOL    HW2 2388   2.618   2.648   0.020  0.6673 -0.3043  0.7192
  797SOL     OW 2389   2.177   2.424   0.398 -0.2784  0.3269  0.5272
  797SOL    HW1 2390   2.256   2.360   0.398  0.3199 -0.9755  0.9600
  797SOL    HW2 2391   2.095   2.378   0.359 -0.0655 -0.8821 -0.6117
  798SOL     OW 2392   0.428   0.917   1.448 -0.0380 -0.1712  0.1068
  798SOL    HW1 2393   0.333   0.890   1.452  2.5144  0.4779 -0.5207
  798SOL    HW2 2394   0.435   1.009   1.406  1.9508  0.6892 -0.1831
  799SOL     OW 2395   2.943   0.629   2.368  0.2602  0.3870 -0.0552
  799SOL    HW1 2396   2.979   0.681   2.449 -0.0591 -0.1705  1.0557
  799SOL    HW2 2397   2.954   0.686   2.281 -0.4343  0.6951  0.2719
  800SOL     OW 2398   2.908   2.119   0.501  0.1955  0.2974 -0.2063
  800SOL    HW1 2399   2.974   2.135   0.426  1.1927  0.5017  3.1997
  800SOL    HW2 2400   2.886   2.208   0.549  2.0711  2.0876  0.2514
  801SOL     OW 2401   1.315   1.298   0.736 -0.2069  0.6399 -0.5204
  801SOL    HW1 2402   1.229   1.246   0.744 -0.5851  0.1858 -0.7216
  801SOL    HW2 2403   1.315   1.380   0.801 -1.4824  1.4409 -0.6058
  802SOL     OW 2404   1.287   1.740   1.380 -0.0247 -0.2958 -0.0631
  802SOL    HW1 2405   1.354   1.677   1.329  3.7760  0.8619  1.4273
  802SOL    HW2 2406   1.241   1.809   1.321 -0.0126  0.5099 -2.4297
  803SOL     OW 2407   2.811   1.733   0.402  0.5974 -0.2277  0.2029
  803SOL    HW1 2408   2.818   1.693   0.308 -0.3729  0.9227 -0.3812
  803SOL    HW2 2409   2.886   1.797   0.421  1.0257 -0.2549  0.6135
  804SOL     OW 2410   1.294   2.565   0.986 -0.0496  0.1457  0.1871
  804SOL    HW1 2411   1.262   2.534   0.898  1.8946  1.1325  3.0751
  804SOL    HW2 2412   1.361   2.638   0.976 -3.2559  0.6430 -0.0010
  805SOL     OW 2413   1.509   1.646   3.081  0.3976  0.4906 -0.3749
  805SOL    HW1 2414   1.602   1.661   0.005  0.0778  0.1653 -0.2708
  805SOL    HW2 2415   1.519   1.563   3.021 -1.7681  1.5916  0.9970
  806SOL     OW 2416   1.811   2.970   1.510 -0.2806 -0.2686 -0.4282
  806SOL    HW1 2417   1.713   2.956   1.496  0.6618 -2.7138  1.0591
  806SOL    HW2 2418   1.860   2.943   1.423 -1.3312 -0.6303  1.0665
  807SOL     OW 2419   1.969   3.069   2.829 -0.0108 -0.1274 -0.0958
  807SOL    HW1 2420   2.019   3.037   2.747  0.2554  2.2113  1.9375
  807SOL    HW2 2421   1.995   0.046   2.860  1.1034 -1.8287 -0.1751
  808SOL     OW 2422   0.089   1.390   0.208 -0.5273 -0.7555  0.0254
  808SOL    HW1 2423   3.105   1.378   0.225  0.5429  2.3722  1.1477
  808SOL    HW2 2424   0.130   1.460   0.271  2.0241 -2.0917 -1.2326
  809SOL     OW 2425   2.494   0.821   2.277  0.3872 -0.0179  0.2847
  809SOL    HW1 2426   2.396   0.849   2.298 -2.3110  1.3142 -1.7922
  809SOL    HW2 2427   2.553   0.899   2.251 -1.1603 -1.3613  0.0439
  810SOL     OW 2428   2.868   3.102   2.150 -0.4836 -0.0928  0.8080
  810SOL    HW1 2429   2.955   0.040   2.145 -1.2874  0.1079  0.7802
  810SOL    HW2 2430   2.787   0.044   2.126  2.0096 -0.6066 -0.5685
  811SOL     OW 2431   2.292   2.297   1.698  0.4636  0.0216  0.2643
  811SOL    HW1 2432   2.210   2.344   1.734  0.5530 -1.8157 -0.1338
  811SOL    HW2 2433   2.340   2.353   1.626 -2.2510  2.4295 -3.4755
  812SOL     OW 2434   1.647   0.335   2.949  0.2853  0.1608  1.0211
  812SOL    HW1 2435   1.554   0.330   2.994  1.2200  0.3425 -2.0088
  812SOL    HW2 2436   1.632   0.398   2.868  3.2347  2.8428 -0.5712
  813SOL     OW 2437   1.944   0.559   2.024  0.0902 -0.1380 -0.0145
  813SOL    HW1 2438   1.868   0.500   1.995 -2.0828 -0.7339  1.4505
  813SOL    HW2 2439   2.026   0.533   1.974 -0.9781  0.2605 -0.6280
  814SOL     OW 2440   1.893   1.319   1.439  0.4612 -0.2472 -0.0002
  814SOL    HW1 2441   1.956   1.394   1.461  0.4225 -1.7010  3.3530
  814SOL    HW2 2442   1.812   1.341   1.384  2.4436  0.1439  2.6733
  815SOL     OW 2443   0.422   0.983   0.199  0.7123  0.7171  0.4460
  815SOL    HW1 2444   0.437   0.888   0.235  0.9602 -0.1507  1.8448
  815SOL    HW2 2445   0.497   1.051   0.213  2.3717 -0.4746 -1.0675
  816SOL     OW 2446   1.549   1.846   2.675  1.2120 -0.2816 -0.1089
  816SOL    HW1 2447   1.648   1.860   2.689 -2.9190  0.3926  0.7763
  816SOL    HW2 2448   1.493   1.856   2.763  0.2758 -1.5963  2.0277
  817SOL     OW 2449   0.025   2.881   0.779 -0.0329 -0.7553  0.4135
  817SOL    HW1 2450   3.078   2.839   0.847  1.6250  3.7940  1.5968
  817SOL    HW2 2451   0.064   2.816   0.714  2.4261  1.8551  2.7240
  818SOL     OW 2452   1.418   0.313   2.759  0.0997 -0.1456 -0.2134
  818SOL    HW1 2453   1.410   0.349   2.855 -1.2247  0.0055 -0.5798
  818SOL    HW2 2454   1.335   0.258   2.740  1.4209 -0.8627  1.8755
  819SOL     OW 2455   0.701   1.030   0.688 -0.2597 -0.0740 -0.2250
  819SOL    HW1 2456   0.764   1.070   0.757 -0.8235 -2.2816 -3.1528
  819SOL    HW2 2457   0.646   0.951   0.735 -1.2808 -1.0661  2.5816
  820SOL     OW 2458   2.386   0.915   1.150 -0.0613  0.3214  1.6440
  820SOL    HW1 2459   2.341   0.835   1.102  1.9135 -0.0511 -1.8312
  820SOL    HW2 2460   2.375   0.907   1.251  0.4189  1.0301  0.9599
  821SOL     OW 2461   2.309   0.139   0.480 -0.6902  0.1927 -0.1939
  821SOL    HW1 2462   2.342   0.044   0.499 -0.4730  0.4477 -0.9753
  821SOL    HW2 2463   2.219   0.143   0.438 -1.0663  0.5342  3.3281
  822SOL     OW 2464   0.892   2.641   2.423 -0.2987 -0.3153 -0.4218
  822SOL    HW1 2465   0.838   2.552   2.431 -1.0770 -1.0621  1.6654
  822SOL    HW2 2466   0.951   2.647   2.506  0.3554 -0.5493 -0.0282
  823SOL     OW 2467   0.134   2.058   1.797 -0.2717  0.3105  0.0840
  823SOL    HW1 2468   0.116   2.150   1.836  1.1974  0.0270 -1.8103
  823SOL    HW2 2469   0.049   2.017   1.760 -0.0839  0.6814 -1.7938
  824SOL     OW 2470   0.737   2.873   2.354  0.2831  0.6917  0.3556
  824SOL    HW1 2471   0.754   2.949   2.416 -1.2606  2.1933 -0.2240
  824SOL    HW2 2472   0.791   2.787   2.366 -1.1277  1.2274  1.7007
  825SOL     OW 2473   1.037   1.844   0.269 -0.0302  0.1394 -0.1221
  825SOL    HW1 2474   1.064   1.872   0.175 -1.1333  3.3382 -3.1144
  825SOL    HW2 2475   1.120   1.809   0.319  0.4675 -1.8298 -1.7832
  826SOL     OW 2476   1.195   2.744   2.902 -0.0766  0.0496  0.4553
  826SOL    HW1 2477   1.164   2.841   2.908 -0.0454  0.3894 -1.1197
  826SOL    HW2 2478   1.139   2.679   2.961  0.0396 -0.9713 -2.7187
  827SOL     OW 2479   0.257   1.623   1.704  0.3171 -0.3306 -0.3783
  827SOL    HW1 2480   0.210   1.577   1.782 -1.4125  1.0051 -0.5218
  827SOL    HW2 2481   0.293   1.556   1.636 -1.9489 -0.0583  0.6952
  828SOL     OW 2482   2.767   1.727   1.409  0.4884  0.1772  0.3933
  828SOL    HW1 2483   2.746   1.640   1.367 -0.2544 -0.1177 -0.7304
  828SOL    HW2 2484   2.719   1.799   1.360  1.8095 -2.2514  2.8114
  829SOL     OW 2485   2.845   2.489   0.199 -0.0887  0.2833 -0.4796
  829SOL    HW1 2486   2.920   2.560   0.197 -0.1972  3.2569  1.3195
  829SOL    HW2 2487   2.872   2.391   0.210 -1.2180 -0.4555  0.0397
  830SOL     OW 2488   1.008   0.684   0.646 -0.1576  0.0843 -0.7128
  830SOL    HW1 2489   1.003   0.591   0.611  0.0361 -1.0593 -0.0923
  830SOL    HW2 2490   1.072   0.693   0.725  2.0355 -1.4506  0.7149
  831SOL     OW 2491   2.884   2.213   0.166  0.3296 -0.6119  0.1620
  831SOL    HW1 2492   2.853   2.115   0.174  2.0152 -0.4595 -0.2190
  831SOL    HW2 2493   2.976   2.206   0.125  1.0120 -1.1818 -1.1413
  832SOL     OW 2494   1.155   2.396   0.388  0.2479 -0.4668 -0.2440
  832SOL    HW1 2495   1.083   2.329   0.425  0.1470 -1.9416 -0.5142
  832SOL    HW2 2496   1.187   2.467   0.456 -0.4384 -0.1204 -0.5788
  833SOL     OW 2497   0.801   0.673   2.550  0.0383 -0.0722 -0.3864
  833SOL    HW1 2498   0.864   0.663   2.469 -1.1941 -1.6455 -0.6945
  833SOL    HW2 2499   0.832   0.740   2.618  1.3259 -0.0122  2.3649
  834SOL     OW 2500   2.658   0.781   0.688 -0.2239  0.1624 -0.5648
  834SOL    HW1 2501   2.575   0.720   0.702 -1.2062 -2.3408  2.7962
  834SOL    HW2 2502   2.680   0.843   0.769 -1.7220  1.3823 -0.7916
  835SOL     OW 2503   2.404   0.596   2.117  0.5946 -0.0032 -0.1901
  835SOL    HW1 2504   2.367   0.639   2.033 -2.7803  0.3206  1.3638
  835SOL    HW2 2505   2.447   0.674   2.175  1.5029  1.6806  0.3730
  836SOL     OW 2506   0.417   2.246   0.992  0.6480  0.2004 -0.2579
  836SOL    HW1 2507   0.364   2.254   0.904 -0.4286  0.3700 -1.8698
  836SOL    HW2 2508   0.497   2.182   0.990 -0.3375  2.5628  2.3059
  837SOL     OW 2509   2.469   1.762   2.106  0.5187  0.6506  0.4487
  837SOL    HW1 2510   2.392   1.788   2.166  0.8157  4.0693  2.5223
  837SOL    HW2 2511   2.442   1.767   2.008 -1.2117  0.7629 -2.8916
  838SOL     OW 2512   0.012   1.150   2.061 -0.1374  0.7533 -0.0212
  838SOL    HW1 2513   0.092   1.098   2.028  0.6003 -2.5414 -0.1225
  838SOL    HW2 2514   3.060   1.165   1.984 -1.5432  1.0429 -4.0121
  839SOL     OW 2515   0.273   3.106   0.138 -0.5072 -0.0910  0.0528
  839SOL    HW1 2516   0.269   3.107   0.036 -0.2022 -0.3249 -1.0208
  839SOL    HW2 2517   0.369   3.112   0.169  2.9497 -0.2437  0.6613
  840SOL     OW 2518   3.025   0.736   2.595  0.0002 -0.5256 -0.0989
  840SOL    HW1 2519   2.946   0.785   2.638  0.6198 -0.4496  0.7628
  840SOL    HW2 2520   3.054   0.660   2.662 -0.7223  1.3623  1.0189
  841SOL     OW 2521   0.646   2.022   2.589  0.0741  0.4989 -0.2806
  841SOL    HW1 2522   0.661   1.947   2.654  1.9175 -0.8534 -1.3137
  841SOL    HW2 2523   0.546   2.032   2.559 -2.5523 -1.1589  0.4178
  842SOL     OW 2524   0.967   3.093   1.075  0.3111  0.2575 -0.1758
  842SOL    HW1 2525   0.902   3.036   1.127  4.1753  1.3543 -2.1394
  842SOL    HW2 2526   0.936   3.111   0.983  3.4140 -1.2639  3.3074
  843SOL     OW 2527   0.662   1.629   2.645  0.0444 -0.1681  0.2197
  843SOL    HW1 2528   0.745   1.638   2.586  1.4614  0.3177 -1.8995
  843SOL    HW2 2529   0.654   1.539   2.690  0.2965  3.1621  0.7883
  844SOL     OW 2530   1.499   1.855   2.249 -0.0877  0.1099 -0.0577
  844SOL    HW1 2531   1.428   1.816   2.187  0.3234  1.1892 -0.8718
  844SOL    HW2 2532   1.566   1.773   2.267  2.4271 -2.4181 -0.2006
  845SOL     OW 2533   2.324   2.744   2.854  0.1330 -0.2160 -0.0460
  845SOL    HW1 2534   2.341   2.830   2.794  1.0852  1.9311 -3.1467
  845SOL    HW2 2535   2.310   2.663   2.795 -0.9576  1.1420 -1.1476
  846SOL     OW 2536   2.175   1.693   2.999  0.1859  0.4362 -0.0021
  846SOL    HW1 2537   2.099   1.683   2.932  2.2865 -1.9107  0.5277
  846SOL    HW2 2538   2.136   1.681   3.093 -1.9005 -0.1535  1.2447
  847SOL     OW 2539   2.434   0.366   2.744  0.3247  0.5675 -0.0497
  847SOL    HW1 2540   2.523   0.329   2.704 -0.8298 -1.9262 -5.6349
  847SOL    HW2 2541   2.445   0.419   2.828  3.1434  0.4555 -1.4577
  848SOL     OW 2542   3.061   0.574   0.075 -0.2121 -0.2331 -0.3119
  848SOL    HW1 2543   3.023   0.627   0.152  1.0521 -0.7782 -1.1054
  848SOL    HW2 2544   2.981   0.525   0.035  0.7953  2.7482  1.9621
  849SOL     OW 2545   1.415   0.118   2.466 -0.0760  0.2652  0.2868
  849SOL    HW1 2546   1.406   0.042   2.537 -0.7452 -3.8022  1.0933
  849SOL    HW2 2547   1.379   0.210   2.485  4.0719 -0.5044 -2.7650
  850SOL     OW 2548   2.758   0.830   0.452  0.3589  0.4344 -0.2086
  850SOL    HW1 2549   2.708   0.811   0.538 -0.3060 -0.7233 -0.3188
  850SOL    HW2 2550   2.810   0.915   0.467 -1.2562 -1.2174 -0.0845
  851SOL     OW 2551   0.322   1.048   0.920 -0.2243 -0.2797 -0.0191
  851SOL    HW1 2552   0.330   1.023   1.020 -1.9876  1.1963  2.9034
  851SOL    HW2 2553   0.227   1.026   0.888 -2.9534  1.1180 -1.0838
  852SOL     OW 2554   1.185   1.054   1.830  0.4982  0.3663  0.1898
  852SOL    HW1 2555   1.112   1.107   1.877 -0.7495 -0.5695 -0.3458
  852SOL    HW2 2556   1.201   1.076   1.733 -2.6740 -1.0863 -1.0984
  853SOL     OW 2557   1.845   1.207   0.029  0.8580 -0.1619  0.2086
  853SOL    HW1 2558   1.939   1.223   0.011 -2.2520  0.1000  0.0817
  853SOL    HW2 2559   1.808   1.126   3.090  0.5235 -2.6924 -2.8687
  854SOL     OW 2560   1.515   1.134   1.989 -0.4173  0.1042  0.3944
  854SOL    HW1 2561   1.577   1.064   1.945  0.5859  0.3015  1.1493
  854SOL    HW2 2562   1.460   1.190   1.921 -2.1896  0.5185 -1.4962
  855SOL     OW 2563   0.663   2.219   2.258 -0.0963  0.3274 -0.2542
  855SOL    HW1 2564   0.561   2.210   2.260 -1.6033 -0.8021 -1.5553
  855SOL    HW2 2565   0.693   2.265   2.346  0.4114  1.7911  2.0802
  856SOL     OW 2566   1.137   1.002   2.107  0.1667 -0.2060  0.3901
  856SOL    HW1 2567   1.034   0.990   2.083 -1.9023  0.8288 -0.4005
  856SOL    HW2 2568   1.178   1.059   2.035 -0.9885 -0.9059  1.3066
  857SOL     OW 2569   1.038   1.039   2.451 -0.1588 -0.1740  0.2373
  857SOL    HW1 2570   0.965   0.976   2.416  1.5130  2.0997 -0.6521
  857SOL    HW2 2571   1.127   0.995   2.474  2.1912 -3.0807 -0.1429
  858SOL     OW 2572   0.054   0.540   1.731 -0.1950  0.0411 -0.2004
  858SOL    HW1 2573   3.074   0.539   1.697 -1.1344  2.1588  0.1199
  858SOL    HW2 2574   0.054   0.502   1.823  1.2652  3.1359 -1.6402
  859SOL     OW 2575   2.613   2.942   0.964  0.1671 -0.4007 -0.2100
  859SOL    HW1 2576   2.635   3.043   0.955 -1.4536 -2.0556 -1.4211
  859SOL    HW2 2577   2.680   2.896   1.027  0.7270  0.5909  1.8162
  860SOL     OW 2578   1.714   0.564   1.411  0.0036  0.0945  0.0098
  860SOL    HW1 2579   1.618   0.570   1.442  1.5911  0.9150 -1.5583
  860SOL    HW2 2580   1.724   0.594   1.309 -0.1639  2.0665 -3.6274
  861SOL     OW 2581   1.833   0.849   1.190 -0.2082  0.3170 -0.1374
  861SOL    HW1 2582   1.761   0.892   1.242  1.3905 -0.4613 -1.2712
  861SOL    HW2 2583   1.819   0.749   1.189 -1.8492  0.4555  1.1472
  862SOL     OW 2584   1.138   2.955   2.484  0.5475 -0.3606  0.3395
  862SOL    HW1 2585   1.140   2.858   2.475 -2.0409  2.1869  0.3419
  862SOL    HW2 2586   1.067   2.982   2.552 -1.0497 -1.3366 -1.5501
  863SOL     OW 2587   2.702   3.025   1.533  0.2313 -0.2843 -0.3952
  863SOL    HW1 2588   2.608   3.044   1.563  2.3126  1.5693 -2.1135
  863SOL    HW2 2589   2.754   3.059   1.607 -1.6808  0.8246 -1.5221
  864SOL     OW 2590   2.866   2.828   2.138 -0.1544  0.3560  0.8869
  864SOL    HW1 2591   2.788   2.783   2.178  2.4229  1.9593 -0.7836
  864SOL    HW2 2592   2.869   2.929   2.158  3.4981  0.4005 -1.0157
  865SOL     OW 2593   1.203   1.352   2.921 -0.4844 -0.4696  0.0623
  865SOL    HW1 2594   1.216   1.259   2.878  1.1101  2.3334  1.3979
  865SOL    HW2 2595   1.123   1.395   2.879 -0.4831  0.4005 -1.0215
  866SOL     OW 2596   2.790   2.867   1.309 -0.4517  0.0208 -0.1517
  866SOL    HW1 2597   2.759   2.909   1.394 -1.7383 -0.2488 -0.1994
  866SOL    HW2 2598   2.749   2.775   1.296  0.3961 -0.9626  1.0240
  867SOL     OW 2599   3.022   2.761   1.014  0.5460  0.0106 -0.0953
  867SOL    HW1 2600   3.096   2.697   1.029  0.5707  2.0227  0.0114
  867SOL    HW2 2601   2.986   2.796   1.103 -0.9637 -1.2925  0.7306
  868SOL     OW 2602   3.023   1.571   1.600 -0.1987 -0.0317  0.0899
  868SOL    HW1 2603   3.021   1.665   1.636 -1.9063 -0.2962 -0.9556
  868SOL    HW2 2604   3.091   1.565   1.526 -2.4358 -0.4833 -1.1334
  869SOL     OW 2605   1.887   2.016   2.521 -0.4073 -0.5239  0.1775
  869SOL    HW1 2606   1.840   2.101   2.497  2.5065  0.7485 -0.7679
  869SOL    HW2 2607   1.982   2.039   2.528 -4.5621 -1.4671  0.5852
  870SOL     OW 2608   1.394   0.873   0.706 -0.3821 -0.2494 -0.2362
  870SOL    HW1 2609   1.434   0.943   0.772 -1.2588 -0.8346 -2.4696
  870SOL    HW2 2610   1.330   0.804   0.752 -2.9791  1.1789  0.1812
  871SOL     OW 2611   2.759   1.710   2.031 -0.5800  0.1695  0.1799
  871SOL    HW1 2612   2.688   1.692   1.961 -0.2941  0.0358  2.2068
  871SOL    HW2 2613   2.721   1.727   2.129 -0.1025 -0.4549 -0.7865
  872SOL     OW 2614   0.963   1.711   2.935 -0.0000 -0.7210 -0.4717
  872SOL    HW1 2615   0.911   1.796   2.934  2.1344 -3.2684  1.1903
  872SOL    HW2 2616   0.923   1.646   3.004  1.4600 -0.4811  2.5694
  873SOL     OW 2617   0.900   1.354   1.889 -0.7563 -0.2757 -0.2678
  873SOL    HW1 2618   0.889   1.338   1.789  0.1090  0.0887  1.3666
  873SOL    HW2 2619   0.997   1.341   1.921 -0.5794  0.5033  0.9613
  874SOL     OW 2620   1.457   1.010   1.116 -0.1713  0.2002  0.2797
  874SOL    HW1 2621   1.490   1.068   1.194 -0.1952  3.7146  2.2427
  874SOL    HW2 2622   1.353   1.008   1.119 -0.9483 -0.5068 -1.5561
  875SOL     OW 2623   2.655   2.933   2.684  0.4482 -0.3411  0.1642
  875SOL    HW1 2624   2.564   2.964   2.717 -0.9546  0.2998  0.3435
  875SOL    HW2 2625   2.654   2.937   2.582 -0.0773 -1.5293 -1.5516
  876SOL     OW 2626   0.906   1.383   0.484  0.2435  0.2580 -0.3171
  876SOL    HW1 2627   0.976   1.317   0.444 -0.5947 -0.5233  1.1561
  876SOL    HW2 2628   0.943   1.475   0.510  0.6192 -2.5888  0.7087
  877SOL     OW 2629   2.058   3.049   0.567  0.1193 -0.2768  0.0559
  877SOL    HW1 2630   2.026   0.032   0.567 -0.5932  1.6857 -0.6651
  877SOL    HW2 2631   2.156   3.038   0.588 -0.2123  2.0071 -0.9828
  878SOL     OW 2632   2.070   2.222   0.085  0.4035  0.2076 -0.3982
  878SOL    HW1 2633   2.133   2.159   0.042 -0.4954 -1.7752  3.6526
  878SOL    HW2 2634   2.071   2.200   0.186  0.5360 -3.0233  0.2815
  879SOL     OW 2635   0.688   2.362   1.662  0.0512 -0.4966  0.0470
  879SOL    HW1 2636   0.607   2.385   1.606 -2.4925  2.3096  0.1917
  879SOL    HW2 2637   0.717   2.270   1.628 -3.2946  1.7135 -2.2987
  880SOL     OW 2638   0.095   1.760   0.892  0.4090 -0.0428  0.0502
  880SOL    HW1 2639   0.186   1.713   0.882  1.1953 -1.0039  1.9899
  880SOL    HW2 2640   0.061   1.811   0.810  0.6579  0.7987  0.0457
  881SOL     OW 2641   1.248   3.088   2.305 -0.0624  0.2279 -0.6190
  881SOL    HW1 2642   1.205   3.024   2.376 -1.3597 -2.2172  0.7538
  881SOL    HW2 2643   1.328   0.018   2.347 -0.9297  0.3412 -0.4987
  882SOL     OW 2644   2.506   1.188   0.589 -0.5061 -0.0135 -0.5033
  882SOL    HW1 2645   2.440   1.118   0.562 -0.0198  0.6923  0.8153
  882SOL    HW2 2646   2.593   1.141   0.621  0.8553 -1.7409  0.2212
  883SOL     OW 2647   1.355   0.607   2.054 -0.3092  0.1086  0.3141
  883SOL    HW1 2648   1.312   0.631   2.143  0.2527 -0.4719  0.7538
  883SOL    HW2 2649   1.353   0.688   1.988 -1.0168 -0.6775 -1.6089
  884SOL     OW 2650   0.165   0.170   1.707  0.4151  0.1742 -0.6753
  884SOL    HW1 2651   0.098   0.184   1.633 -0.4070  1.8297 -1.5733
  884SOL    HW2 2652   0.248   0.224   1.684  2.6121 -2.1037  1.2795
  885SOL     OW 2653   2.173   1.341   2.604  0.1464 -0.0986 -0.5704
  885SOL    HW1 2654   2.228   1.426   2.585 -0.4189  2.4235  2.4089
  885SOL    HW2 2655   2.101   1.330   2.539  2.2119 -0.7172  1.6714
  886SOL     OW 2656   1.914   0.335   2.912 -0.2172  0.5415 -0.0350
  886SOL    HW1 2657   1.914   0.292   2.818 -1.0589 -4.1933 -0.4156
  886SOL    HW2 2658   1.816   0.324   2.939 -0.3052 -2.1512  2.3388
  887SOL     OW 2659   1.084   2.946   1.520 -0.4104 -0.0599  0.5506
  887SOL    HW1 2660   1.118   2.891   1.599  0.0281  0.5487  1.5491
  887SOL    HW2 2661   0.985   2.915   1.502 -2.9745  1.1254  1.1336
  888SOL     OW 2662   2.234   1.433   1.727 -0.4379 -0.0674 -0.0852
  888SOL    HW1 2663   2.162   1.454   1.658 -0.0891  0.0186 -0.9879
  888SOL    HW2 2664   2.328   1.457   1.690 -3.0911  0.5161  0.2608
  889SOL     OW 2665   2.098   2.450   1.372  0.1184 -0.1269  0.2582
  889SOL    HW1 2666   2.162   2.461   1.296 -1.5560  0.7020  3.8148
  889SOL    HW2 2667   2.104   2.354   1.408  1.1737 -3.4875 -0.0916
  890SOL     OW 2668   0.944   2.312   0.811  0.1135  0.0894  0.4237
  890SOL    HW1 2669   0.941   2.210   0.803 -0.7909 -1.2099 -1.3776
  890SOL    HW2 2670   0.961   2.342   0.906  0.9356  2.4953  1.2023
  891SOL     OW 2671   2.924   1.302   0.299  0.2473  0.6516 -0.0682
  891SOL    HW1 2672   2.872   1.299   0.210 -1.6318  3.8566  0.5501
  891SOL    HW2 2673   2.949   1.206   0.330  2.7567 -0.1914 -1.3276
  892SOL     OW 2674   2.390   1.779   2.852  0.1012 -0.1216 -0.6071
  892SOL    HW1 2675   2.450   1.700   2.847  1.5001 -0.2526  0.3672
  892SOL    HW2 2676   2.312   1.762   2.914  0.3459 -0.1171 -0.9152
  893SOL     OW 2677   2.380   2.715   1.088 -0.6729  0.0040 -0.9202
  893SOL    HW1 2678   2.358   2.788   1.022 -0.6921 -1.7120  0.9224
  893SOL    HW2 2679   2.453   2.654   1.054 -1.3688 -1.2033  1.0597
  894SOL     OW 2680   2.818   0.535   0.683  0.1267  0.2475  0.5661
  894SOL    HW1 2681   2.844   0.489   0.598  0.6088 -1.5884 -1.6635
  894SOL    HW2 2682   2.765   0.620   0.666  0.8624 -2.3132 -3.0058
  895SOL     OW 2683   2.487   2.398   2.600 -0.3701  0.4380 -0.3442
  895SOL    HW1 2684   2.568   2.423   2.547  0.1595 -1.3937 -0.8423
  895SOL    HW2 2685   2.511   2.351   2.687 -0.3014 -0.1273  0.7688
  896SOL     OW 2686   2.229   2.765   2.424 -0.0593 -0.1473 -0.1633
  896SOL    HW1 2687   2.240   2.704   2.504  0.4219  1.6872  1.3485
  896SOL    HW2 2688   2.289   2.849   2.431  1.8585 -1.7957 -0.4555
  897SOL     OW 2689   0.281   1.390   2.107  0.3687  0.2077 -0.2526
  897SOL    HW1 2690   0.206   1.362   2.167  2.7882 -2.1372  1.3313
  897SOL    HW2 2691   0.336   1.460   2.160 -0.7410 -1.3316  1.0665
  898SOL     OW 2692   0.293   1.956   2.141 -0.7096 -0.0854 -0.4535
  898SOL    HW1 2693   0.216   1.906   2.186  2.5797  0.0091  1.0026
  898SOL    HW2 2694   0.358   1.891   2.100 -0.6342  1.1017 -2.2142
  899SOL     OW 2695   2.107   3.100   1.492 -0.6712 -0.0340 -0.2555
  899SOL    HW1 2696   2.015   0.027   1.503 -2.9561 -0.0423 -0.3366
  899SOL    HW2 2697   2.116   3.003   1.497  0.7987  2.8727 -0.7012
  900SOL     OW 2698   1.271   0.825   0.457 -0.4726 -0.3998  0.4023
  900SOL    HW1 2699   1.309   0.832   0.554  1.1353 -0.2970  0.9399
  900SOL    HW2 2700   1.328   0.890   0.403 -1.2485  2.0708  1.1724
  901SOL     OW 2701   1.338   1.155   2.777  0.5398 -0.3003  0.2706
  901SOL    HW1 2702   1.395   1.110   2.851  0.7237 -0.1140 -1.5509
  901SOL    HW2 2703   1.394   1.217   2.715  1.5491  2.3739 -2.8471
  902SOL     OW 2704   2.909   2.345   0.896 -0.0524  0.0836  0.0036
  902SOL    HW1 2705   2.886   2.445   0.913 -1.9082  1.0531  1.1732
  902SOL    HW2 2706   2.826   2.290   0.907 -0.2422  2.6750 -1.3245
  903SOL     OW 2707   2.790   1.451   2.018 -0.4023 -0.0489 -0.1329
  903SOL    HW1 2708   2.787   1.552   2.019 -0.3173 -0.1903 -0.6733
  903SOL    HW2 2709   2.777   1.419   2.112 -2.0339  3.2741  0.6529
  904SOL     OW 2710   1.364   1.409   0.431  0.2199  0.2259 -0.4177
  904SOL    HW1 2711   1.331   1.490   0.479  1.8333  0.4188 -3.4977
  904SOL    HW2 2712   1.462   1.396   0.457 -1.6647 -1.9755  2.0477
  905SOL     OW 2713   2.440   2.443   1.558 -0.2762  0.2121 -0.5179
  905SOL    HW1 2714   2.452   2.545   1.572  0.0698  3.4449 -0.7196
  905SOL    HW2 2715   2.523   2.398   1.602 -0.4668  1.1942 -3.5287
  906SOL     OW 2716   1.653   2.492   3.041 -0.0804  0.3001 -0.0245
  906SOL    HW1 2717   1.747   2.487   3.075 -3.5089  2.3198  0.4929
  906SOL    HW2 2718   1.603   2.571   3.079  2.1331  1.1038 -2.0016
  907SOL     OW 2719   0.373   2.769   0.678  0.6952  0.3342  0.1915
  907SOL    HW1 2720   0.327   2.729   0.591  0.2287  0.0489 -1.5133
  907SOL    HW2 2721   0.432   2.852   0.663  1.4458  1.3920  0.7997
  908SOL     OW 2722   0.581   0.360   1.934  0.3306  0.0658  0.0268
  908SOL    HW1 2723   0.600   0.276   1.981 -2.8862 -0.1131 -0.5795
  908SOL    HW2 2724   0.669   0.395   1.895  0.3183  1.2810  1.3219
  909SOL     OW 2725   1.946   0.714   1.490 -0.1934  0.1469 -0.2781
  909SOL    HW1 2726   1.875   0.642   1.474  0.7539 -0.2524 -1.9747
  909SOL    HW2 2727   1.990   0.743   1.407 -0.2003  1.0435  3.1251
  910SOL     OW 2728   1.023   0.822   0.295 -0.2914 -0.3196 -0.2644
  910SOL    HW1 2729   0.978   0.869   0.375 -1.6689  0.9102  1.4745
  910SOL    HW2 2730   1.124   0.810   0.313  1.4586  1.5798  0.2703
  911SOL     OW 2731   0.243   0.390   2.992  0.6391 -0.5697 -0.5592
  911SOL    HW1 2732   0.163   0.347   3.034  1.4387  1.7252 -1.3003
  911SOL    HW2 2733   0.212   0.466   2.930 -2.1834 -0.6129 -2.3663
  912SOL     OW 2734   2.832   2.479   2.887  0.0060 -0.3104 -0.4148
  912SOL    HW1 2735   2.855   2.526   2.796  0.1191 -1.6986 -1.1149
  912SOL    HW2 2736   2.781   2.541   2.951  0.4289  2.1783  1.9183
  913SOL     OW 2737   2.413   2.401   0.052  0.1230  0.2588 -0.2026
  913SOL    HW1 2738   2.381   2.383   0.149 -0.8159  0.1975  1.0288
  913SOL    HW2 2739   2.407   2.501   0.040  0.7992 -2.6009  2.1850
  914SOL     OW 2740   1.628   1.619   1.797  0.1603 -0.3922 -0.6994
  914SOL    HW1 2741   1.639   1.589   1.896  2.3604 -0.6307 -0.0302
  914SOL    HW2 2742   1.645   1.719   1.780 -0.4355 -1.8960 -2.1577
  915SOL     OW 2743   0.247   2.415   2.345 -0.1653  0.6309  0.2023
  915SOL    HW1 2744   0.235   2.484   2.423  2.0065  0.2842  0.2555
  915SOL    HW2 2745   0.191   2.337   2.369  0.1028 -0.8795  1.5307
  916SOL     OW 2746   2.962   0.942   1.834 -0.2279  0.1927 -0.5166
  916SOL    HW1 2747   2.963   1.041   1.808 -1.1348  1.5682  0.8336
  916SOL    HW2 2748   3.046   0.919   1.890  1.1801  1.2209 -1.6137
  917SOL     OW 2749   2.143   0.152   2.993  0.0922  1.0274  0.3497
  917SOL    HW1 2750   2.129   0.098   3.079  0.0066  1.3336 -0.0895
  917SOL    HW2 2751   2.096   0.237   3.003 -0.9575 -2.7702 -0.5882
  918SOL     OW 2752   1.820   2.556   2.206 -0.2187  0.1927 -0.3092
  918SOL    HW1 2753   1.883   2.539   2.125  0.0275 -0.9246  0.9584
  918SOL    HW2 2754   1.790   2.655   2.213 -1.3820 -1.4490 -0.0427
  919SOL     OW 2755   2.040   2.297   2.018  0.4423  0.0582  0.2852
  919SOL    HW1 2756   2.076   2.327   2.108 -0.5705  1.8930  3.0174
  919SOL    HW2 2757   2.019   2.200   2.008  0.0289  0.3479  1.4734
  920SOL     OW 2758   0.170   0.965   0.100  0.3878  0.2140  0.0610
  920SOL    HW1 2759   0.247   0.967   0.170  1.4190  0.4575  1.6128
  920SOL    HW2 2760   0.159   0.881   0.041  0.2058 -2.1330 -0.7325
  921SOL     OW 2761   2.740   1.190   2.670  0.5080 -0.7287  0.3452
  921SOL    HW1 2762   2.723   1.275   2.730  0.2817 -0.1165  0.5895
  921SOL    HW2 2763   2.679   1.183   2.589  2.4127  0.9062 -2.4180
  922SOL     OW 2764   0.452   1.939   0.189  0.4702 -0.0958  0.1694
  922SOL    HW1 2765   0.370   1.986   0.146  0.3255  0.1964 -2.3527
  922SOL    HW2 2766   0.429   1.840   0.218  1.4808 -3.2508  0.8439
  923SOL     OW 2767   0.438   0.992   2.112 -0.3593  0.6287  0.3370
  923SOL    HW1 2768   0.355   0.943   2.142 -2.3199 -1.7753 -0.6725
  923SOL    HW2 2769   0.519   0.934   2.099  0.0635  1.3096 -1.1820
  924SOL     OW 2770   0.718   2.748   2.659 -0.7407  0.1697 -0.3790
  924SOL    HW1 2771   0.805   2.751   2.607  0.5690  0.8222  0.5774
  924SOL    HW2 2772   0.687   2.838   2.695 -1.8214  2.8115  1.5525
  925SOL     OW 2773   1.572   1.619   0.589  0.7521 -0.3785 -0.4615
  925SOL    HW1 2774   1.587   1.521   0.604  1.0809 -3.0784  1.5926
  925SOL    HW2 2775   1.658   1.662   0.566 -3.8480 -0.0142 -0.3254
  926SOL     OW 2776   1.514   0.457   2.193  0.0507  0.6788 -0.3382
  926SOL    HW1 2777   1.437   0.503   2.144  1.3581 -1.0185  3.0733
  926SOL    HW2 2778   1.551   0.525   2.259 -1.1888 -0.0372 -0.8800
  927SOL     OW 2779   2.906   2.376   1.849 -0.3202 -0.1394  0.2308
  927SOL    HW1 2780   2.874   2.312   1.919 -0.1863 -0.3157  1.5311
  927SOL    HW2 2781   2.889   2.469   1.883  1.1652 -0.7886  0.4450
  928SOL     OW 2782   0.150   1.046   2.637 -0.2922  0.0749 -0.0817
  928SOL    HW1 2783   0.173   1.095   2.723 -0.4036 -1.7469  0.3747
  928SOL    HW2 2784   0.232   1.033   2.577 -1.3406  0.4476 -0.1773
  929SOL     OW 2785   2.905   0.177   0.715  0.2678  0.1189  0.2512
  929SOL    HW1 2786   2.941   0.088   0.681 -0.9967  0.0675  0.8490
  929SOL    HW2 2787   2.831   0.157   0.781  1.8732  0.8670  0.0835
  930SOL     OW 2788   2.329   0.295   1.860  0.1972  0.0800  0.1206
  930SOL    HW1 2789   2.278   0.238   1.789 -1.5353  1.8780  0.6933
  930SOL    HW2 2790   2.419   0.302   1.817 -1.1923 -2.4829 -0.9400
  931SOL     OW 2791   2.140   1.181   3.081  0.3804 -0.2025  0.3445
  931SOL    HW1 2792   2.216   1.117   3.065  3.8390 -1.9186 -1.4198
  931SOL    HW2 2793   2.130   1.260   3.016  0.0114  1.6585 -2.1383
  932SOL     OW 2794   2.500   1.439   1.647 -0.0123 -0.5159  0.0068
  932SOL    HW1 2795   2.535   1.452   1.550 -0.1856  0.5724 -0.4777
  932SOL    HW2 2796   2.537   1.356   1.689  0.8639  3.2491 -1.6688
  933SOL     OW 2797   0.188   2.706   1.503 -0.4804  0.0911  0.4317
  933SOL    HW1 2798   0.240   2.625   1.533 -2.2482  0.6778  1.2645
  933SOL    HW2 2799   0.153   2.755   1.587 -0.5238 -0.2201  0.9027
  934SOL     OW 2800   0.793   2.668   0.925  0.1138  0.3425  0.2537
  934SOL    HW1 2801   0.867   2.632   0.982 -1.4930 -0.7853 -2.5456
  934SOL    HW2 2802   0.711   2.606   0.928 -0.2876 -0.0650 -1.1642
  935SOL     OW 2803   2.322   1.339   2.104  0.2686 -0.6059  0.2021
  935SOL    HW1 2804   2.411   1.336   2.059  0.6769 -0.9282  1.1938
  935SOL    HW2 2805   2.279   1.245   2.112  3.8013  0.2791  0.6263
  936SOL     OW 2806   2.160   1.160   1.812  0.1328  0.2754  1.0269
  936SOL    HW1 2807   2.182   1.257   1.797 -0.6999  1.7109 -0.0073
  936SOL    HW2 2808   2.231   1.111   1.865 -1.5370  0.9981  0.3846
  937SOL     OW 2809   1.917   0.993   2.096 -0.1703  0.4290 -0.1799
  937SOL    HW1 2810   1.923   1.024   2.191  0.1510 -1.4863  0.5706
  937SOL    HW2 2811   1.853   0.911   2.089  0.8713 -2.2693  2.3658
  938SOL     OW 2812   0.921   2.549   2.990  0.0873  0.2643 -0.3466
  938SOL    HW1 2813   0.894   2.490   3.066  2.6207 -0.4614  1.9282
  938SOL    HW2 2814   0.916   2.647   3.017 -0.8881 -0.9162 -1.0783
  939SOL     OW 2815   2.734   0.891   0.026 -0.3368 -0.2157  0.2773
  939SOL    HW1 2816   2.823   0.949   0.013  2.5645 -0.0391  0.3810
  939SOL    HW2 2817   2.737   0.843   0.120 -2.3670 -1.9977 -0.2233
  940SOL     OW 2818   1.146   1.896   1.211 -1.2388 -0.1759 -0.1603
  940SOL    HW1 2819   1.057   1.850   1.219  0.3658  0.2117 -1.0338
  940SOL    HW2 2820   1.200   1.871   1.126 -3.3736  3.1432  1.2893
  941SOL     OW 2821   1.023   2.143   1.914  0.0261  0.0554  0.4901
  941SOL    HW1 2822   1.028   2.237   1.881  1.2707 -1.9517  0.4496
  941SOL    HW2 2823   0.943   2.094   1.880  2.5279  1.8467  1.9246
  942SOL     OW 2824   0.391   2.016   2.840 -0.0846 -0.4130  0.0072
  942SOL    HW1 2825   0.327   1.994   2.761 -0.1271 -0.0759  0.2486
  942SOL    HW2 2826   0.480   1.967   2.828  1.7042 -1.8167 -2.6786
  943SOL     OW 2827   1.887   2.942   1.763  0.7872  0.1262 -0.1759
  943SOL    HW1 2828   1.872   2.847   1.794  1.3198  2.2995 -0.8568
  943SOL    HW2 2829   1.868   2.957   1.661  0.1014  2.5118 -1.4125
  944SOL     OW 2830   1.108   1.952   0.048  0.0425 -0.1573  0.1658
  944SOL    HW1 2831   1.159   1.874   0.011 -1.7300  1.4924  2.1840
  944SOL    HW2 2832   1.069   2.008   3.084  0.6746  0.0188  0.4171
  945SOL     OW 2833   2.602   2.583   0.957 -0.2369 -0.2615  0.1872
  945SOL    HW1 2834   2.689   2.617   0.915 -0.3392  3.0153  0.4704
  945SOL    HW2 2835   2.562   2.513   0.895 -0.5082 -0.3204 -3.4434
  946SOL     OW 2836   0.983   1.477   2.767 -0.5736  0.0010  0.2881
  946SOL    HW1 2837   1.033   1.489   2.676  0.7460 -0.4034  0.2066
  946SOL    HW2 2838   0.962   1.568   2.801  1.8462 -1.1285 -0.4349
  947SOL     OW 2839   3.039   0.676   2.061  0.4823 -0.2738 -0.1856
  947SOL    HW1 2840   3.100   0.753   2.026  1.8232 -0.3281  0.7237
  947SOL    HW2 2841   3.087   0.588   2.057 -2.5399 -1.7152  1.0083
  948SOL     OW 2842   0.124   1.249   0.767 -0.1720  0.7642  0.0700
  948SOL    HW1 2843   0.142   1.334   0.716  0.9419  3.2719 -1.5958
  948SOL    HW2 2844   0.179   1.249   0.853 -0.9718 -3.2148  0.9396
  949SOL     OW 2845   0.648   0.790   2.159  0.1517  0.7078 -0.8491
  949SOL    HW1 2846   0.640   0.697   2.196  0.6173  0.5846 -0.0797
  949SOL    HW2 2847   0.700   0.839   2.226 -2.5833 -1.1658  1.2791
  950SOL     OW 2848   0.020   0.600   1.438  0.1320 -0.4057  0.2145
  950SOL    HW1 2849   0.086   0.569   1.505 -0.8981  2.0470 -0.4359
  950SOL    HW2 2850   3.035   0.588   1.472 -4.3827  1.5472 -0.6722
  951SOL     OW 2851   0.807   1.292   2.889  0.3339 -0.0825 -0.0887
  951SOL    HW1 2852   0.866   1.360   2.852 -0.7382 -0.4938  2.3792
  951SOL    HW2 2853   0.857   1.216   2.938 -1.3821  0.7217  1.7535
  952SOL     OW 2854   1.836   2.142   0.790  0.0846 -0.0551 -0.1629
  952SOL    HW1 2855   1.843   2.192   0.706 -0.6909 -1.4227  2.4012
  952SOL    HW2 2856   1.917   2.092   0.815 -2.3337 -0.9146  0.9992
  953SOL     OW 2857   0.556   0.424   0.191  0.2091 -0.0671  0.4072
  953SOL    HW1 2858   0.538   0.424   0.287 -0.5800 -2.6927 -4.6892
  953SOL    HW2 2859   0.493   0.484   0.141  1.5592  1.4540  1.9497
  954SOL     OW 2860   2.484   0.579   1.054 -0.4182 -0.2483  0.2737
  954SOL    HW1 2861   2.382   0.595   1.061  0.0022  1.8721 -1.6677
  954SOL    HW2 2862   2.535   0.610   1.138  0.9156 -0.1408  1.2330
  955SOL     OW 2863   1.682   1.415   0.161  0.3473  0.3918  0.6758
  955SOL    HW1 2864   1.735   1.359   0.090  0.3743 -0.1140 -1.8733
  955SOL    HW2 2865   1.585   1.385   0.167  1.6461 -3.1019  1.0926
  956SOL     OW 2866   1.199   0.564   2.445 -0.4011 -0.3226  0.3512
  956SOL    HW1 2867   1.222   0.652   2.394  1.1889 -2.4329 -2.3436
  956SOL    HW2 2868   1.279   0.502   2.444 -1.1517  1.1943 -1.5261
  957SOL     OW 2869   1.483   0.289   1.595 -0.3914 -0.0669  0.0996
  957SOL    HW1 2870   1.437   0.209   1.645 -1.5042  1.4412  2.5907
  957SOL    HW2 2871   1.581   0.275   1.626 -1.9688  2.4934  0.8848
  958SOL     OW 2872   0.323   2.108   0.502  0.0818  0.1815  0.5642
  958SOL    HW1 2873   0.358   2.133   0.412 -0.7222 -1.9354 -0.9888
  958SOL    HW2 2874   0.350   2.017   0.536  0.3875 -0.2693  1.3026
  959SOL     OW 2875   2.157   0.968   1.625 -0.5073 -0.2302  0.1237
  959SOL    HW1 2876   2.176   1.030   1.703  2.0937  0.6465  1.9597
  959SOL    HW2 2877   2.100   0.888   1.658 -0.9760 -1.9355  0.5156
  960SOL     OW 2878   0.075   1.716   2.926 -0.2984  0.0381  0.5486
  960SOL    HW1 2879   0.149   1.765   2.975 -1.9530 -0.4203 -1.9159
  960SOL    HW2 2880   0.037   1.633   2.977 -0.9372 -1.9973  1.1374
  961SOL     OW 2881   0.662   2.079   0.982 -0.6232  0.5955  0.0512
  961SOL    HW1 2882   0.733   2.091   0.910 -1.0371  3.9071 -0.9727
  961SOL    HW2 2883   0.688   2.127   1.069 -0.6562  0.0341 -1.6751
  962SOL     OW 2884   0.353   1.384   1.153  0.3897  0.1311  0.5962
  962SOL    HW1 2885   0.269   1.329   1.128 -0.2625 -0.4571  1.8917
  962SOL    HW2 2886   0.337   1.479   1.190  4.2132  0.6680  0.8934
  963SOL     OW 2887   1.649   1.643   2.308 -0.2362 -0.5301 -0.3062
  963SOL    HW1 2888   1.605   1.601   2.392 -0.0822 -2.0927  1.4800
  963SOL    HW2 2889   1.733   1.702   2.332  3.3870  1.3902  3.1160
  964SOL     OW 2890   0.093   3.050   2.044 -0.1267  0.1520 -0.1140
  964SOL    HW1 2891   0.047   2.960   2.067  1.3084 -0.1445 -0.7023
  964SOL    HW2 2892   0.192   3.037   2.066  0.9695 -1.7772  0.5803
  965SOL     OW 2893   3.054   2.327   2.907  0.2821 -0.3157  0.1792
  965SOL    HW1 2894   2.967   2.386   2.893 -3.7309 -0.0842 -1.1186
  965SOL    HW2 2895   3.092   2.296   2.819  2.5381 -0.8106  1.0033
  966SOL     OW 2896   2.618   1.773   0.031  0.3225  0.5797  0.2069
  966SOL    HW1 2897   2.674   1.689   0.050  0.9447 -2.0827  0.7542
  966SOL    HW2 2898   2.537   1.772   0.095  0.3288  2.5416  2.0834
  967SOL     OW 2899   2.083   0.007   0.094 -0.4263 -0.5330 -0.2509
  967SOL    HW1 2900   2.122   3.040   0.140 -0.1380  2.4456  3.0690
  967SOL    HW2 2901   1.980   3.108   0.080 -2.4500  0.2649  0.1243
  968SOL     OW 2902   2.599   0.108   0.433  0.2116 -0.6241 -0.1075
  968SOL    HW1 2903   2.617   0.027   0.498 -0.6234  0.3025 -1.5116
  968SOL    HW2 2904   2.498   0.139   0.424 -2.7422 -1.8813  1.0196
  969SOL     OW 2905   0.213   0.924   1.718 -0.2306  0.2150  0.4983
  969SOL    HW1 2906   0.272   1.005   1.729 -2.5028 -4.8390 -2.4427
  969SOL    HW2 2907   0.180   0.913   1.621 -0.4874 -0.1881 -0.7347
  970SOL     OW 2908   1.725   1.752   0.038 -0.5726  0.2031  0.0338
  970SOL    HW1 2909   1.764   1.720   0.126 -0.1314 -0.9308  0.2952
  970SOL    HW2 2910   1.690   1.847   0.055 -1.4724  0.5716  0.5611
  971SOL     OW 2911   2.455   0.005   1.618  0.1614 -0.2087  0.5788
  971SOL    HW1 2912   2.362   0.042   1.598 -1.4445 -1.4231  1.9569
  971SOL    HW2 2913   2.453   3.099   1.719 -0.5804 -1.0502 -2.6229
  972SOL     OW 2914   2.910   0.050   1.068 -0.2408  0.4455 -0.4460
  972SOL    HW1 2915   2.960   0.122   1.015 -0.0099  1.1313 -0.0984
  972SOL    HW2 2916   2.985   0.001   1.115 -0.4897 -0.5909  0.6668
  973SOL     OW 2917   0.540   0.613   2.479  0.2112 -0.2524  0.0339
  973SOL    HW1 2918   0.638   0.643   2.503  3.3589  0.8450  1.0193
  973SOL    HW2 2919   0.516   0.522   2.527  1.4592  0.0034  2.4510
  974SOL     OW 2920   2.564   1.295   1.977 -0.4373 -0.1015 -0.5897
  974SOL    HW1 2921   2.643   1.359   1.952  2.2600 -1.0247 -0.9780
  974SOL    HW2 2922   2.591   1.202   1.946 -0.1205  0.1619 -0.0533
  975SOL     OW 2923   1.072   0.196   1.883 -0.5607  0.2816  0.1534
  975SOL    HW1 2924   1.090   0.141   1.794  1.6696 -0.2090 -1.2514
  975SOL    HW2 2925   1.093   0.147   1.970 -3.1816  0.5992  0.9926
  976SOL     OW 2926   1.507   1.539   1.311  0.0541 -0.1670 -0.2933
  976SOL    HW1 2927   1.480   1.512   1.404 -0.2369 -1.3549 -0.8622
  976SOL    HW2 2928   1.584   1.485   1.271  3.8951  2.9143  1.0066
  977SOL     OW 2929   0.552   3.088   0.141  0.4646 -0.0044  0.6364
  977SOL    HW1 2930   0.634   0.013   0.183  2.5560 -5.0925 -2.0455
  977SOL    HW2 2931   0.584   3.010   0.084  1.1026  1.1600 -0.4498
  978SOL     OW 2932   2.159   1.110   2.121 -0.0443 -0.1068 -0.0088
  978SOL    HW1 2933   2.229   1.064   2.064 -3.1768 -0.3097 -0.1613
  978SOL    HW2 2934   2.065   1.078   2.092  1.4476 -1.6440  0.5096
  979SOL     OW 2935   1.345   0.834   1.890  0.3241  0.2704 -0.0532
  979SOL    HW1 2936   1.276   0.909   1.879 -1.4585  2.5241 -1.8217
  979SOL    HW2 2937   1.441   0.867   1.879  0.2677  0.8168  0.2573
  980SOL     OW 2938   1.878   1.537   2.593  0.1740 -0.2569 -0.0226
  980SOL    HW1 2939   1.883   1.495   2.500  1.2125  0.6971  0.2762
  980SOL    HW2 2940   1.817   1.494   2.666 -1.3794 -0.5731  0.7969
  981SOL     OW 2941   1.582   0.535   1.818 -0.6133 -0.2524 -0.3589
  981SOL    HW1 2942   1.495   0.569   1.864 -1.3933  0.5369 -0.9043
  981SOL    HW2 2943   1.578   0.521   1.716 -0.2802  0.2394 -1.8393
  982SOL     OW 2944   0.763   0.574   0.066 -0.2552 -0.9118  0.4334
  982SOL    HW1 2945   0.683   0.530   0.113 -1.6671 -1.1691 -0.0402
  982SOL    HW2 2946   0.734   0.626   3.097 -2.0041  0.9013 -1.1642
  983SOL     OW 2947   2.327   0.808   0.174  0.0596  0.1240  0.5636
  983SOL    HW1 2948   2.262   0.877   0.220 -1.7818  0.4840  0.3467
  983SOL    HW2 2949   2.417   0.790   0.224  0.0438  1.5209  0.4509
  984SOL     OW 2950   0.789   0.401   2.647  0.7439 -0.4261 -0.1119
  984SOL    HW1 2951   0.842   0.375   2.729 -2.2624  0.2566 -0.6591
  984SOL    HW2 2952   0.776   0.502   2.647 -1.2252 -1.6311 -0.0350
  985SOL     OW 2953   1.696   1.881   1.819 -0.2968  0.3692  0.4408
  985SOL    HW1 2954   1.781   1.926   1.786  2.2694 -2.0362  2.1081
  985SOL    HW2 2955   1.628   1.946   1.859 -2.7567  0.4491 -0.8844
  986SOL     OW 2956   2.561   2.540   1.945  0.6537 -0.2588  0.4444
  986SOL    HW1 2957   2.654   2.580   1.940 -2.1589 -1.1238 -1.2575
  986SOL    HW2 2958   2.498   2.596   1.999 -0.4025  2.3216  1.6694
  987SOL     OW 2959   1.719   1.384   0.952  0.2632 -0.2521  0.3989
  987SOL    HW1 2960   1.783   1.380   0.873  1.8417 -1.5463 -1.0634
  987SOL    HW2 2961   1.633   1.432   0.917 -1.6632  0.4205 -1.1718
  988SOL     OW 2962   2.658   1.693   2.304 -0.2493 -0.3475 -0.4219
  988SOL    HW1 2963   2.658   1.734   2.400  1.6873  1.9059  0.4918
  988SOL    HW2 2964   2.563   1.682   2.270  0.2427  0.0931 -3.3653
  989SOL     OW 2965   1.378   2.353   0.238  0.0414  0.3112  0.2787
  989SOL    HW1 2966   1.301   2.362   0.302  1.5802 -1.3755 -1.2315
  989SOL    HW2 2967   1.468   2.348   0.287  0.2038  1.5655  0.3594
  990SOL     OW 2968   1.923   0.568   2.782 -0.1175  0.6036 -0.3729
  990SOL    HW1 2969   2.000   0.634   2.788  1.9502 -1.0020  1.7005
  990SOL    HW2 2970   1.936   0.482   2.840  0.4883 -2.6307  1.1799
  991SOL     OW 2971   1.198   0.436   0.823  0.1486  0.3875 -0.7420
  991SOL    HW1 2972   1.132   0.387   0.760 -0.5802 -1.1869 -1.6255
  991SOL    HW2 2973   1.201   0.384   0.916 -0.2326 -1.8490  0.3017
  992SOL     OW 2974   2.921   0.892   1.134  0.2727  0.1786 -0.1109
  992SOL    HW1 2975   2.822   0.924   1.162 -1.7684 -1.1678  0.4249
  992SOL    HW2 2976   2.923   0.802   1.089  1.8288  1.4757 -1.2657
  993SOL     OW 2977   2.302   0.709   1.872  0.1498  0.2286  0.2912
  993SOL    HW1 2978   2.257   0.617   1.875  3.3496 -2.5423  1.1619
  993SOL    HW2 2979   2.372   0.710   1.795 -1.8346 -2.9954  1.3240
  994SOL     OW 2980   1.115   1.500   2.510  0.1583 -0.1670  0.5570
  994SOL    HW1 2981   1.078   1.411   2.472  0.2062 -0.7433  0.0884
  994SOL    HW2 2982   1.166   1.550   2.436  0.4697  2.1008 -1.2851
  995SOL     OW 2983   2.090   1.385   2.893  0.2226  0.1169  0.3009
  995SOL    HW1 2984   2.103   1.371   2.791 -0.0646  0.7460 -3.2713
  995SOL    HW2 2985   2.155   1.449   2.930 -1.1936  1.5913  0.5084
  996SOL     OW 2986   2.090   1.966   0.381 -0.1227  0.0237  0.0132
  996SOL    HW1 2987   2.041   1.933   0.465 -1.3271  1.3988 -1.2519
  996SOL    HW2 2988   2.132   1.880   0.345 -1.8700 -0.5692  2.2817
  997SOL     OW 2989   2.148   0.491   1.853  0.1172  0.7434  0.3040
  997SOL    HW1 2990   2.195   0.402   1.882 -0.5301 -0.0882  0.8906
  997SOL    HW2 2991   2.171   0.521   1.757  2.7062 -1.4390 -0.9901
  998SOL     OW 2992   2.295   0.964   0.589 -0.1181  0.0340 -0.4817
  998SOL    HW1 2993   2.239   0.972   0.677 -0.5493 -1.2655  0.2697
  998SOL    HW2 2994   2.326   0.866   0.572  0.4879  1.8500  0.6607
  999SOL     OW 2995   2.598   1.547   0.297  0.2086 -0.0623  0.0413
  999SOL    HW1 2996   2.611   1.523   0.395  1.7123  1.9063  1.8001
  999SOL    HW2 2997   2.675   1.523   0.234 -1.0278  0.5261  1.1857
 1000SOL     OW 2998   0.819   0.920   1.807  0.4114 -0.0782 -0.0132
 1000SOL    HW1 2999   0.854   0.847   1.746 -0.3706  1.3466  0.1219
 1000SOL    HW2 3000   0.719   0.937   1.785 -0.4375  0.4721 -1.2957
   3.11534   3.11534   3.11534
