1000 SPC/Fw water molecules t= 429.00000 step= 429000
 3000
    1SOL     OW    1   0.071   0.063   1.133  0.7548 -0.0846 -0.1368
    1SOL    HW1    2   0.128   0.147   1.134  1.4954 -1.9603  0.0785
    1SOL    HW2    3   0.109   3.103   1.204  1.2392 -1.2714  1.7640
    2SOL     OW    4   2.637   3.073   0.165 -0.1632  0.3727 -0.3530
    2SOL    HW1    5   2.660   2.978   0.142 -0.0489 -1.3000 -0.0873
    2SOL    HW2    6   2.615   0.019   0.078 -0.5778  1.4766 -0.9518
    3SOL     OW    7   1.475   2.768   3.104  0.0394  0.0778  0.0686
    3SOL    HW1    8   1.391   2.725   3.070 -0.8652 -0.3248  0.6474
    3SOL    HW2    9   1.491   2.748   0.101 -2.2695  0.9648 -0.6630
    4SOL     OW   10   0.974   2.982   2.286 -0.1146  0.0157  0.3439
    4SOL    HW1   11   0.940   2.936   2.365 -0.8593  0.2507  1.8454
    4SOL    HW2   12   0.955   3.082   2.293  0.5894 -1.0996 -0.3938
    5SOL     OW   13   2.156   0.151   2.221 -0.0656 -0.2281 -0.5623
    5SOL    HW1   14   2.137   0.071   2.161  0.3906 -2.9202  0.6350
    5SOL    HW2   15   2.116   0.234   2.188  1.6064 -2.7962  1.4342
    6SOL     OW   16   2.693   2.162   1.003  0.3624 -0.6796 -0.1497
    6SOL    HW1   17   2.757   2.223   0.952 -0.9178  1.4029  2.3495
    6SOL    HW2   18   2.610   2.209   1.039 -1.7439  0.5901  1.1283
    7SOL     OW   19   1.437   1.582   0.770  0.1257  0.4678 -0.4108
    7SOL    HW1   20   1.451   1.550   0.866  2.2144  2.5496 -2.4477
    7SOL    HW2   21   1.418   1.502   0.711  0.2360  0.6179  0.2508
    8SOL     OW   22   0.490   1.488   1.034  0.0734  0.3117 -0.0226
    8SOL    HW1   23   0.429   1.503   1.113  0.2494  0.3884 -0.0334
    8SOL    HW2   24   0.545   1.572   1.015 -0.1034 -0.4959  0.2686
    9SOL     OW   25   0.011   2.817   1.415  0.0411 -0.2314  0.5262
    9SOL    HW1   26   3.039   2.832   1.345 -0.4201  0.7108 -1.4607
    9SOL    HW2   27   0.019   2.719   1.435  1.0133  0.7694  0.5553
   10SOL     OW   28   1.186   2.316   0.501  0.5527  0.5232 -0.1495
   10SOL    HW1   29   1.253   2.334   0.428 -0.0941 -1.7361 -2.2049
   10SOL    HW2   30   1.132   2.400   0.522  3.1660  0.1601 -0.1291
   11SOL     OW   31   1.603   1.760   1.224 -0.3307 -0.0595 -0.4442
   11SOL    HW1   32   1.561   1.752   1.129  0.9125  0.5971 -1.0500
   11SOL    HW2   33   1.646   1.678   1.269 -2.3474  2.3276 -0.3221
   12SOL     OW   34   0.142   0.864   2.055 -0.1686 -0.2468 -0.0730
   12SOL    HW1   35   0.093   0.815   1.977 -1.3484 -0.1439 -0.1663
   12SOL    HW2   36   0.181   0.793   2.122  1.2652 -2.5051  3.8952
   13SOL     OW   37   2.298   2.899   0.059  0.1068  0.4009 -0.4042
   13SOL    HW1   38   2.303   2.799   0.071 -0.8954  2.4641  1.3432
   13SOL    HW2   39   2.336   2.923   3.075  0.7877  0.9013  0.9765
   14SOL     OW   40   1.423   1.654   0.340  0.4157  0.2383  0.0121
   14SOL    HW1   41   1.390   1.689   0.253 -0.3318  0.4823  2.2706
   14SOL    HW2   42   1.464   1.728   0.392 -3.1488 -0.3970  0.7073
   15SOL     OW   43   3.020   2.641   1.927  0.4077  0.1980 -0.5766
   15SOL    HW1   44   3.061   2.582   1.862 -2.4494  2.5656  2.7953
   15SOL    HW2   45   2.928   2.666   1.893 -2.7743  2.4211 -1.7200
   16SOL     OW   46   2.805   0.484   0.956 -0.5092 -0.5448 -0.1347
   16SOL    HW1   47   2.898   0.490   0.916 -0.2407 -0.9540 -0.1788
   16SOL    HW2   48   2.742   0.478   0.879  1.2195  1.7048  1.0057
   17SOL     OW   49   0.820   0.483   0.561  0.0775  0.0322  0.4722
   17SOL    HW1   50   0.880   0.491   0.643  1.7856  1.2682  0.0370
   17SOL    HW2   51   0.876   0.468   0.479  0.3696 -2.0888  0.0846
   18SOL     OW   52   1.068   0.243   0.865  0.0945  0.4328 -0.1521
   18SOL    HW1   53   1.085   0.153   0.820 -0.0218 -1.6507 -0.0635
   18SOL    HW2   54   1.053   0.319   0.794  0.1096  2.0954 -3.9876
   19SOL     OW   55   2.011   1.257   0.740  0.4114  0.1249 -0.7307
   19SOL    HW1   56   2.110   1.262   0.710  0.0513  2.5896  0.8038
   19SOL    HW2   57   1.947   1.257   0.660  3.8559  1.6699  0.6573
   20SOL     OW   58   2.241   1.574   2.891 -0.3386 -0.2650  0.1570
   20SOL    HW1   59   2.165   1.506   2.886  1.5055  1.8578  1.5182
   20SOL    HW2   60   2.231   1.646   2.822  0.7642  0.9925  1.8336
   21SOL     OW   61   1.498   2.955   0.346 -0.5519 -0.1878  0.4466
   21SOL    HW1   62   1.402   2.978   0.339  3.7550  2.6359  0.7544
   21SOL    HW2   63   1.560   3.006   0.277 -0.0617 -0.3634  0.3691
   22SOL     OW   64   3.021   0.885   0.710 -0.0321 -0.0587 -0.3326
   22SOL    HW1   65   2.988   0.972   0.667  0.5957  1.6378  0.9697
   22SOL    HW2   66   2.938   0.822   0.708  1.2716  0.9848 -0.7484
   23SOL     OW   67   0.537   0.285   1.742 -0.1903 -0.1835 -0.6106
   23SOL    HW1   68   0.588   0.283   1.829 -0.8124  1.4332  2.3117
   23SOL    HW2   69   0.592   0.320   1.664  0.6643  1.5355  2.3794
   24SOL     OW   70   2.060   2.268   0.796 -0.1831  0.1919 -0.1563
   24SOL    HW1   71   2.051   2.166   0.779  0.4705  1.4272  0.0650
   24SOL    HW2   72   1.971   2.309   0.820 -1.7871  2.4871 -1.9561
   25SOL     OW   73   1.773   0.080   2.384  0.8044  0.1998  0.1966
   25SOL    HW1   74   1.868   0.088   2.423  1.5688  1.5277  0.4788
   25SOL    HW2   75   1.775   0.010   2.308 -0.9512 -2.4297 -0.3768
   26SOL     OW   76   1.489   2.435   3.042  0.4189  0.2829  0.8799
   26SOL    HW1   77   1.510   2.480   2.954  0.0480 -1.5715  0.7962
   26SOL    HW2   78   1.408   2.370   3.030  0.6025  0.9476 -1.6511
   27SOL     OW   79   1.325   0.348   1.301 -0.0688  0.2379 -0.4695
   27SOL    HW1   80   1.293   0.370   1.202 -0.9062  3.8675 -0.5865
   27SOL    HW2   81   1.387   0.266   1.301 -1.1975 -1.8282  1.2264
   28SOL     OW   82   0.709   1.676   0.737 -0.5612  0.7751 -0.1512
   28SOL    HW1   83   0.657   1.685   0.651  0.4383 -2.8541  0.6406
   28SOL    HW2   84   0.766   1.596   0.727 -1.5734 -0.0240  0.1165
   29SOL     OW   85   2.479   0.525   1.545  0.4462 -0.2362 -0.0196
   29SOL    HW1   86   2.455   0.539   1.446  0.4475 -3.0453 -0.3990
   29SOL    HW2   87   2.534   0.439   1.555 -0.7306  0.2624 -2.2174
   30SOL     OW   88   1.540   2.388   1.551  0.3342 -0.4755 -0.2860
   30SOL    HW1   89   1.636   2.377   1.558 -4.1999 -1.1186 -0.3474
   30SOL    HW2   90   1.513   2.378   1.456  0.0092 -1.8606  0.9827
   31SOL     OW   91   1.984   2.720   1.362 -0.4295  0.0800 -0.7794
   31SOL    HW1   92   2.023   2.799   1.417  2.5203 -1.6431 -2.1052
   31SOL    HW2   93   1.974   2.749   1.270 -2.0366 -1.6870  3.8109
   32SOL     OW   94   2.084   1.418   2.181  0.2490 -0.0532  0.7102
   32SOL    HW1   95   2.039   1.327   2.191  0.2591  1.8833 -1.3877
   32SOL    HW2   96   2.180   1.398   2.204  2.0040 -0.7413 -1.1250
   33SOL     OW   97   2.552   0.462   2.708 -0.3979  0.4397  0.2886
   33SOL    HW1   98   2.504   0.532   2.643  1.8345  3.4266 -1.1043
   33SOL    HW2   99   2.493   0.422   2.783 -0.6260  0.7849  2.7657
   34SOL     OW  100   1.681   0.410   0.599  0.9656 -0.3045  0.3419
   34SOL    HW1  101   1.624   0.359   0.527  1.3646 -2.9561 -3.0079
   34SOL    HW2  102   1.681   0.512   0.576  1.6853  2.4912  0.0713
   35SOL     OW  103   0.453   1.993   1.986  1.1324 -0.0252 -0.3000
   35SOL    HW1  104   0.437   2.081   2.032 -1.6306 -1.0065  0.6810
   35SOL    HW2  105   0.370   1.932   1.996 -0.5220  2.0737  0.6496
   36SOL     OW  106   2.270   1.765   2.730 -0.0006  0.2024  1.0844
   36SOL    HW1  107   2.294   1.821   2.809 -1.4752 -1.9289 -0.6980
   36SOL    HW2  108   2.346   1.765   2.660  0.6875 -1.1323 -4.0677
   37SOL     OW  109   1.279   2.910   1.674  0.0753  0.6675  0.1748
   37SOL    HW1  110   1.328   2.868   1.594 -0.8254  2.0524 -0.4779
   37SOL    HW2  111   1.324   2.892   1.763 -2.3097 -1.2031  2.3426
   38SOL     OW  112   0.639   0.784   2.661  0.3754 -0.3954 -0.6693
   38SOL    HW1  113   0.545   0.773   2.623  1.7028  0.0232  1.5016
   38SOL    HW2  114   0.679   0.875   2.632 -1.3247  1.2386 -1.6626
   39SOL     OW  115   1.871   0.785   1.360  0.3032  0.1956 -0.1357
   39SOL    HW1  116   1.871   0.800   1.261  0.1024 -1.1462 -1.9431
   39SOL    HW2  117   1.889   0.870   1.410  0.2458 -1.9979  0.0316
   40SOL     OW  118   1.200   2.408   0.815 -0.1133 -0.3782  0.8549
   40SOL    HW1  119   1.207   2.318   0.855  0.1505  5.4135 -1.2788
   40SOL    HW2  120   1.291   2.430   0.774 -1.4355 -2.0763 -0.9859
   41SOL     OW  121   2.174   2.156   1.368  0.4123  0.3631  0.4845
   41SOL    HW1  122   2.191   2.237   1.307 -1.6193  1.5470 -1.0267
   41SOL    HW2  123   2.262   2.101   1.377  1.8795 -1.2463  0.7872
   42SOL     OW  124   2.272   0.591   0.640 -0.0604 -0.5023  0.2206
   42SOL    HW1  125   2.230   0.672   0.678  1.5150 -2.8728 -1.1307
   42SOL    HW2  126   2.265   0.595   0.537  0.3858 -0.9593  0.0517
   43SOL     OW  127   1.019   1.348   2.701  0.0717 -0.4367  0.0112
   43SOL    HW1  128   1.036   1.367   2.804  1.9306  0.9278  2.5263
   43SOL    HW2  129   0.919   1.321   2.695 -0.9970  1.1722 -1.5640
   44SOL     OW  130   1.700   2.602   1.232 -0.0034  0.1948  0.6554
   44SOL    HW1  131   1.630   2.603   1.158 -0.1811  1.3304  1.5960
   44SOL    HW2  132   1.767   2.529   1.211  0.6281 -0.1212  3.4631
   45SOL     OW  133   1.094   3.071   2.576  0.7981  0.3969  0.5011
   45SOL    HW1  134   1.121   0.016   2.491 -1.4778  0.3142  2.5222
   45SOL    HW2  135   1.050   2.980   2.557 -2.3673 -0.4366 -0.6113
   46SOL     OW  136   0.741   2.557   1.848 -0.0931 -0.2226  0.2150
   46SOL    HW1  137   0.732   2.625   1.770  2.4031 -1.6044  2.0516
   46SOL    HW2  138   0.840   2.557   1.882  0.1503 -0.2622 -0.0223
   47SOL     OW  139   0.740   1.930   0.814 -0.1991 -0.3172  0.5256
   47SOL    HW1  140   0.744   1.829   0.801 -1.7826 -0.3682 -1.7076
   47SOL    HW2  141   0.675   1.953   0.889  0.9041  0.8064 -1.6176
   48SOL     OW  142   0.821   2.839   1.096  0.3978  0.0232 -0.0339
   48SOL    HW1  143   0.878   2.869   1.178  1.0383  2.4716 -1.9570
   48SOL    HW2  144   0.781   2.918   1.051 -0.0216 -2.4546  0.7939
   49SOL     OW  145   2.898   3.017   2.852 -0.6469  0.5846 -0.1631
   49SOL    HW1  146   2.873   0.012   2.836  0.0287  0.6468  0.1487
   49SOL    HW2  147   2.923   3.000   2.949  0.7088 -0.7686 -2.7698
   50SOL     OW  148   1.553   0.973   0.566  0.2784  0.5798 -0.1756
   50SOL    HW1  149   1.488   0.891   0.576 -0.8158  1.6213 -3.2342
   50SOL    HW2  150   1.609   0.962   0.481 -1.0939 -1.5188 -0.9681
   51SOL     OW  151   1.995   0.119   0.550  0.0183  0.1326 -0.4312
   51SOL    HW1  152   1.958   0.181   0.474 -0.7063  1.3760 -2.4148
   51SOL    HW2  153   1.971   0.157   0.642  0.7569 -0.0185 -1.0489
   52SOL     OW  154   0.988   1.589   0.506  0.7363 -0.5807 -0.4243
   52SOL    HW1  155   1.056   1.513   0.487  3.2296 -1.1147  2.5849
   52SOL    HW2  156   1.006   1.676   0.453  0.7227 -0.6594  3.5529
   53SOL     OW  157   0.312   1.050   2.693 -0.1116  0.9286 -0.7263
   53SOL    HW1  158   0.311   1.001   2.784  0.7823  1.9484  0.1832
   53SOL    HW2  159   0.303   1.152   2.707 -3.7667 -1.5763 -0.3612
   54SOL     OW  160   2.338   1.927   2.955 -0.2685  0.2735  0.5251
   54SOL    HW1  161   2.439   1.923   2.955 -0.7966  0.9997  1.6183
   54SOL    HW2  162   2.299   1.876   3.035 -0.2339 -0.7028  0.2428
   55SOL     OW  163   2.456   2.346   1.393 -0.0239  0.1382  0.4939
   55SOL    HW1  164   2.430   2.430   1.444  0.4298  0.1643 -0.2387
   55SOL    HW2  165   2.402   2.263   1.428  0.2219 -2.1396  1.3921
   56SOL     OW  166   1.590   2.994   1.311  0.0720  0.1483 -0.1711
   56SOL    HW1  167   1.605   2.913   1.369 -2.1503 -0.0765  0.2136
   56SOL    HW2  168   1.502   2.983   1.258 -2.1844 -1.4790  1.0109
   57SOL     OW  169   1.508   1.753   0.969 -0.3848 -0.0643  0.3800
   57SOL    HW1  170   1.519   1.731   0.867  0.0590 -1.6098 -1.1008
   57SOL    HW2  171   1.423   1.721   1.009  5.4033 -0.8553  1.8628
   58SOL     OW  172   2.412   0.119   1.860 -0.4221 -0.2051 -0.4568
   58SOL    HW1  173   2.386   0.215   1.873  0.3788  0.0554  0.7478
   58SOL    HW2  174   2.338   0.061   1.811  0.4672 -2.9108 -0.7672
   59SOL     OW  175   1.036   2.753   2.188  0.9777 -0.3492 -0.6981
   59SOL    HW1  176   1.021   2.847   2.230  1.5358  0.4573  1.4413
   59SOL    HW2  177   0.970   2.685   2.236  1.8902 -3.7105  1.0134
   60SOL     OW  178   0.687   0.170   2.458 -0.1005 -0.3337  0.1678
   60SOL    HW1  179   0.613   0.233   2.429  2.5165  0.1607 -0.4664
   60SOL    HW2  180   0.746   0.203   2.536 -1.2966  1.4401 -1.2762
   61SOL     OW  181   0.725   2.099   0.602  0.1254  0.4221  0.9019
   61SOL    HW1  182   0.826   2.108   0.574 -1.5101 -0.4594 -3.6286
   61SOL    HW2  183   0.723   2.025   0.673  0.3374  1.9711 -2.2220
   62SOL     OW  184   1.214   1.885   2.187 -0.2133 -0.7166 -0.1623
   62SOL    HW1  185   1.195   1.963   2.121  0.1263 -0.4119 -1.4939
   62SOL    HW2  186   1.149   1.883   2.262  1.2540  1.0075 -0.4071
   63SOL     OW  187   1.006   1.612   0.872 -0.4219  0.0259  0.5414
   63SOL    HW1  188   1.037   1.662   0.955  0.4537  1.3857 -1.3046
   63SOL    HW2  189   1.058   1.647   0.795 -2.2678 -3.3314  2.0052
   64SOL     OW  190   1.425   1.525   0.045  0.2146 -0.1552  0.0317
   64SOL    HW1  191   1.432   1.512   3.048  2.2357 -0.1651  2.0398
   64SOL    HW2  192   1.513   1.509   0.093 -0.9885  0.2226  1.9060
   65SOL     OW  193   1.655   2.199   2.185 -0.1594 -0.1087  0.3705
   65SOL    HW1  194   1.686   2.110   2.142  1.7109 -0.9949 -4.1254
   65SOL    HW2  195   1.676   2.198   2.285 -2.0044 -1.6124  0.5035
   66SOL     OW  196   0.298   1.042   1.056  0.1281  0.4625 -0.1106
   66SOL    HW1  197   0.346   0.960   1.100  1.0530 -0.9661 -1.0464
   66SOL    HW2  198   0.237   1.006   0.984  5.0394 -1.5734 -0.0547
   67SOL     OW  199   2.192   2.629   0.403 -0.2392  0.4482  0.5680
   67SOL    HW1  200   2.184   2.582   0.493 -1.0481 -0.0497 -0.9808
   67SOL    HW2  201   2.217   2.565   0.327 -1.8854  1.3059 -1.1876
   68SOL     OW  202   2.372   2.520   1.571 -0.2937  0.6547  0.5376
   68SOL    HW1  203   2.326   2.611   1.554 -1.4896 -1.9164  2.0924
   68SOL    HW2  204   2.460   2.537   1.622  0.1451  0.9348  3.5325
   69SOL     OW  205   2.461   2.454   2.612  0.9849 -0.2542  0.6172
   69SOL    HW1  206   2.405   2.536   2.584 -2.2994 -0.9754 -0.9159
   69SOL    HW2  207   2.403   2.370   2.604 -0.5600 -1.0521  1.4089
   70SOL     OW  208   0.299   1.316   2.744 -0.1339 -0.0436 -0.4989
   70SOL    HW1  209   0.265   1.371   2.826 -0.4366  0.0730 -1.2124
   70SOL    HW2  210   0.239   1.338   2.663 -1.8762 -2.1578 -3.3353
   71SOL     OW  211   1.004   1.253   2.191  0.6146  0.0029 -0.2739
   71SOL    HW1  212   0.932   1.299   2.245  0.6308  1.4820  1.0258
   71SOL    HW2  213   0.987   1.281   2.095 -0.5203 -0.3073 -0.2239
   72SOL     OW  214   2.560   1.485   1.790  0.4096  0.2167  0.0053
   72SOL    HW1  215   2.485   1.421   1.771 -0.0637  0.0641  1.1007
   72SOL    HW2  216   2.645   1.436   1.803 -1.0180  1.2268 -1.3540
   73SOL     OW  217   0.725   1.704   2.944  0.7664  0.6193 -0.4295
   73SOL    HW1  218   0.674   1.774   2.891 -1.7918 -3.4802 -0.6503
   73SOL    HW2  219   0.657   1.645   2.998  0.2954 -1.9827  1.9769
   74SOL     OW  220   1.650   2.811   1.803 -0.0746 -0.6120  0.1476
   74SOL    HW1  221   1.723   2.744   1.831 -0.6626  5.5377  0.5402
   74SOL    HW2  222   1.551   2.793   1.836 -3.7325  1.2205 -0.8160
   75SOL     OW  223   1.192   2.741   0.505 -0.4314  0.1523  0.4225
   75SOL    HW1  224   1.243   2.752   0.592  0.3851 -0.9334 -0.7039
   75SOL    HW2  225   1.213   2.820   0.447 -2.0698 -2.5116  1.1330
   76SOL     OW  226   0.041   1.808   2.710 -0.1497 -0.6127 -0.5095
   76SOL    HW1  227   0.036   1.886   2.775 -2.8400 -2.1215  0.1729
   76SOL    HW2  228   0.056   1.714   2.757  1.4905  0.8376 -1.1857
   77SOL     OW  229   0.077   2.721   1.108 -0.3539 -0.1560  0.1789
   77SOL    HW1  230   0.001   2.766   1.152  2.5477 -0.8759  0.6252
   77SOL    HW2  231   0.151   2.694   1.172  2.6687  2.4565  0.3736
   78SOL     OW  232   2.495   1.109   0.314  0.8031  0.0569  0.5108
   78SOL    HW1  233   2.557   1.130   0.239  2.3442  0.1716 -2.6194
   78SOL    HW2  234   2.516   1.172   0.391 -2.2065  2.3402 -0.5422
   79SOL     OW  235   0.517   1.565   3.097 -0.2056  0.1881 -0.3182
   79SOL    HW1  236   0.433   1.553   0.048 -0.0424  0.3008 -2.1070
   79SOL    HW2  237   0.557   1.480   3.060 -0.8790  1.7327  3.8063
   80SOL     OW  238   1.673   1.532   1.390 -0.3802 -0.0271 -0.2797
   80SOL    HW1  239   1.707   1.592   1.468  0.9383 -1.0742  3.6883
   80SOL    HW2  240   1.580   1.489   1.400 -2.1190  1.5758 -1.3062
   81SOL     OW  241   2.094   0.860   2.357  0.0824  0.2763  0.1202
   81SOL    HW1  242   2.138   0.837   2.266  0.9509 -3.3712 -3.5413
   81SOL    HW2  243   1.998   0.840   2.352  1.7874  0.1314 -0.4969
   82SOL     OW  244   1.574   1.295   1.597 -0.4810  0.1788 -0.2549
   82SOL    HW1  245   1.517   1.342   1.524  0.2105  2.7599  3.7340
   82SOL    HW2  246   1.601   1.355   1.676 -0.2401  3.1877 -0.4202
   83SOL     OW  247   0.049   0.217   3.090 -0.0893 -0.2391  0.2910
   83SOL    HW1  248   3.068   0.269   0.012  2.5168  1.3500  2.0653
   83SOL    HW2  249   0.053   0.203   2.990 -0.8278  1.5737 -3.3950
   84SOL     OW  250   0.420   1.288   0.094  0.4190  0.1601 -0.4232
   84SOL    HW1  251   0.496   1.309   0.026 -0.6360 -1.0114 -1.8903
   84SOL    HW2  252   0.338   1.246   0.049  0.1326 -1.7100  0.8517
   85SOL     OW  253   2.199   1.651   1.917 -0.2234  0.7888  0.3140
   85SOL    HW1  254   2.293   1.673   1.957  1.6340 -2.4035  0.0035
   85SOL    HW2  255   2.125   1.660   1.988  1.8393  0.8918 -0.0715
   86SOL     OW  256   0.853   0.940   1.224 -0.3478  0.5380  0.0488
   86SOL    HW1  257   0.951   0.953   1.199  1.9286  0.3765  0.3284
   86SOL    HW2  258   0.812   0.870   1.162 -0.9941 -0.2441 -1.1903
   87SOL     OW  259   2.582   2.104   2.469  0.0939 -0.3960 -0.2186
   87SOL    HW1  260   2.665   2.159   2.441 -2.0539  0.7962  3.4088
   87SOL    HW2  261   2.497   2.164   2.473  2.6312 -0.7968 -0.6560
   88SOL     OW  262   0.414   2.947   0.219 -0.0799 -0.3430  0.2658
   88SOL    HW1  263   0.382   2.908   0.309 -2.0848 -1.2900 -0.3693
   88SOL    HW2  264   0.357   3.030   0.206 -0.0999 -0.2603  2.3251
   89SOL     OW  265   1.570   0.526   0.178  0.1651 -0.4371  0.6471
   89SOL    HW1  266   1.515   0.479   0.099 -0.6789 -0.2092 -0.9698
   89SOL    HW2  267   1.666   0.553   0.148  0.1010  1.4912 -1.5381
   90SOL     OW  268   2.964   1.476   2.355 -0.5211  0.5222  0.6064
   90SOL    HW1  269   2.868   1.462   2.394 -0.4365  0.0911  0.4670
   90SOL    HW2  270   3.039   1.436   2.405  0.0131  0.5248 -2.6703
   91SOL     OW  271   2.119   3.061   1.221 -0.5036 -0.6006  0.3175
   91SOL    HW1  272   2.168   0.046   1.199 -2.8471  1.9292 -1.8060
   91SOL    HW2  273   2.024   3.081   1.251  0.6254  3.6199 -1.2081
   92SOL     OW  274   2.258   1.398   1.226 -0.2551 -0.1682  0.1410
   92SOL    HW1  275   2.204   1.417   1.139  1.5573 -2.8463 -3.6251
   92SOL    HW2  276   2.324   1.474   1.241 -3.4833  2.2731  0.0523
   93SOL     OW  277   0.347   1.286   0.380 -0.5841 -0.3664 -0.4870
   93SOL    HW1  278   0.346   1.327   0.287 -0.2599 -0.0063 -1.0479
   93SOL    HW2  279   0.327   1.186   0.383 -1.4020  0.4295 -0.7364
   94SOL     OW  280   1.077   2.595   1.650 -0.3772 -0.3854 -0.3918
   94SOL    HW1  281   1.037   2.596   1.740  2.4580 -0.1026 -5.2808
   94SOL    HW2  282   1.173   2.569   1.661 -0.9474  1.4266  0.5856
   95SOL     OW  283   0.267   0.611   0.550 -0.2068 -0.1785 -0.1121
   95SOL    HW1  284   0.342   0.659   0.497 -0.6951 -3.0062 -1.3372
   95SOL    HW2  285   0.263   0.630   0.653 -0.2106  1.3041  1.9786
   96SOL     OW  286   3.067   2.898   1.670  0.0234  0.4369 -0.2629
   96SOL    HW1  287   2.978   2.878   1.723 -0.8419 -0.1087  3.6014
   96SOL    HW2  288   3.058   2.866   1.574 -0.2274  1.8953  0.5324
   97SOL     OW  289   2.430   0.508   1.281  0.2688 -0.5793  0.7261
   97SOL    HW1  290   2.350   0.572   1.256 -2.0052  1.5044 -2.9250
   97SOL    HW2  291   2.432   0.429   1.215  3.0704 -0.3020 -2.0483
   98SOL     OW  292   3.018   2.375   1.537 -0.1649  0.5201 -0.5619
   98SOL    HW1  293   2.929   2.330   1.512  1.2471  1.6949 -3.8254
   98SOL    HW2  294   3.097   2.312   1.520  1.2563 -1.9613 -2.3398
   99SOL     OW  295   0.071   0.444   1.164  0.3783  0.3077  0.1452
   99SOL    HW1  296   0.143   0.375   1.136  3.5126  0.4153  1.8796
   99SOL    HW2  297   0.043   0.423   1.259 -1.4771 -0.0310  0.2946
  100SOL     OW  298   2.245   0.330   2.554 -0.1981 -0.4241 -0.3407
  100SOL    HW1  299   2.285   0.241   2.588  0.0909  1.1068  1.9433
  100SOL    HW2  300   2.228   0.388   2.636 -1.4654  0.8520  0.8082
  101SOL     OW  301   0.535   3.054   2.118  0.0552  0.1216  0.3995
  101SOL    HW1  302   0.573   0.033   2.070  2.2704  2.2131 -2.2060
  101SOL    HW2  303   0.589   3.046   2.204  0.9181 -1.3404 -0.9401
  102SOL     OW  304   0.701   0.346   1.531  0.4351  0.3137 -0.1937
  102SOL    HW1  305   0.701   0.425   1.471  1.0636 -4.7501  5.0929
  102SOL    HW2  306   0.780   0.351   1.592 -0.7217  0.8710 -1.6832
  103SOL     OW  307   0.989   0.951   2.545 -0.0499 -0.3267  0.1498
  103SOL    HW1  308   1.030   0.859   2.554 -1.5910  0.2791 -1.6010
  103SOL    HW2  309   0.923   0.958   2.466 -0.3087  0.7029  0.4631
  104SOL     OW  310   0.079   0.406   1.860 -0.2677  0.1475 -0.4985
  104SOL    HW1  311   3.084   0.373   1.879  0.9284 -1.3688 -1.0921
  104SOL    HW2  312   0.146   0.332   1.832  0.9479 -4.0813 -0.0749
  105SOL     OW  313   2.366   2.166   1.796  0.8694  0.0959 -0.0476
  105SOL    HW1  314   2.450   2.216   1.772 -1.3031  0.9921 -0.6215
  105SOL    HW2  315   2.365   2.142   1.895  0.4738 -2.3198 -1.5752
  106SOL     OW  316   1.249   3.010   0.289 -0.0092 -0.4767 -0.3672
  106SOL    HW1  317   1.194   2.957   0.220 -0.5855  0.6518 -1.3652
  106SOL    HW2  318   1.181   3.071   0.336 -0.0755  0.2424 -1.7038
  107SOL     OW  319   2.413   2.044   1.372 -0.0628 -0.5952  0.3599
  107SOL    HW1  320   2.510   2.075   1.360 -1.7589  0.1966 -0.2690
  107SOL    HW2  321   2.384   1.967   1.305  0.6894  1.6328 -2.2693
  108SOL     OW  322   3.096   2.068   0.610  0.2828 -0.0302  0.1662
  108SOL    HW1  323   0.055   2.102   0.535  0.0969 -1.8299 -1.7702
  108SOL    HW2  324   0.047   2.041   0.692 -2.2780 -1.0347  2.4870
  109SOL     OW  325   1.556   3.099   0.584  0.0669  0.7106  0.7731
  109SOL    HW1  326   1.527   3.036   0.504  2.0279  1.0119  2.0880
  109SOL    HW2  327   1.655   3.085   0.602 -2.5271 -0.8677  1.3444
  110SOL     OW  328   2.137   1.478   0.992  0.2114 -0.2047  0.0486
  110SOL    HW1  329   2.225   1.467   0.943  2.4254  0.2623  2.2490
  110SOL    HW2  330   2.057   1.502   0.926 -1.8676  0.7253 -1.2230
  111SOL     OW  331   1.497   2.393   1.913  0.2374 -0.0174  0.1181
  111SOL    HW1  332   1.592   2.395   1.890  1.1376  2.5245 -0.9202
  111SOL    HW2  333   1.483   2.390   2.012  1.1096  0.8102  1.2067
  112SOL     OW  334   1.992   2.178   2.920 -0.5496 -0.4284  0.5240
  112SOL    HW1  335   2.071   2.211   2.979  0.4956  0.8975  2.2297
  112SOL    HW2  336   1.967   2.079   2.931  0.2623 -1.7171 -2.6640
  113SOL     OW  337   2.092   1.920   1.874 -0.1012  0.1974  0.0708
  113SOL    HW1  338   2.134   1.824   1.875  0.4140  0.0510  1.8446
  113SOL    HW2  339   2.123   1.967   1.793 -2.4109 -4.3486  1.2429
  114SOL     OW  340   3.024   1.317   1.700 -0.1146 -0.3172 -0.1412
  114SOL    HW1  341   3.065   1.390   1.762 -1.9331 -1.2382  0.9111
  114SOL    HW2  342   3.077   1.235   1.704  2.4730  0.9975  0.7681
  115SOL     OW  343   2.724   0.760   3.098 -0.4113  0.0888  0.4842
  115SOL    HW1  344   2.739   0.808   3.009  3.3608 -3.3104  1.0736
  115SOL    HW2  345   2.740   0.819   0.071 -0.5422 -1.9816 -2.4457
  116SOL     OW  346   2.705   0.483   3.071  0.0509  0.0975  0.2806
  116SOL    HW1  347   2.705   0.585   3.085  0.0945 -0.1736  0.5222
  116SOL    HW2  348   2.714   0.467   2.969  0.5911  0.3059 -0.1794
  117SOL     OW  349   2.644   2.188   2.998  0.5741  0.2092  0.0690
  117SOL    HW1  350   2.663   2.293   2.992  2.6268  0.9526  0.0872
  117SOL    HW2  351   2.565   2.165   2.942 -1.5312 -0.0821 -0.1660
  118SOL     OW  352   0.635   2.060   2.469 -0.0477 -0.2378  0.3403
  118SOL    HW1  353   0.684   2.119   2.536  1.3255  0.5323 -1.2794
  118SOL    HW2  354   0.564   2.117   2.418 -1.8510 -1.4770 -0.7562
  119SOL     OW  355   0.838   2.779   0.300  0.5303 -0.2073 -0.1229
  119SOL    HW1  356   0.806   2.684   0.285  1.4070  1.8746  1.2664
  119SOL    HW2  357   0.843   2.806   0.401  1.1435 -0.0304 -0.9947
  120SOL     OW  358   1.398   0.926   0.262  0.1260  0.0346  0.1097
  120SOL    HW1  359   1.348   0.926   0.351  0.2749 -1.9963 -1.3719
  120SOL    HW2  360   1.355   0.868   0.189  0.6555 -1.9496 -1.3746
  121SOL     OW  361   1.424   0.141   0.778 -0.1690 -0.4707  0.4338
  121SOL    HW1  362   1.460   0.102   0.689 -0.7527 -3.1583 -1.9975
  121SOL    HW2  363   1.431   0.246   0.791  0.7854  2.3144  1.4740
  122SOL     OW  364   2.355   1.452   2.258  0.3340  0.0678 -0.2362
  122SOL    HW1  365   2.437   1.427   2.206  0.5223  0.0229  0.4531
  122SOL    HW2  366   2.348   1.558   2.252 -0.1964 -0.5187 -1.3233
  123SOL     OW  367   1.452   0.960   1.286 -0.3656 -0.5970  0.4848
  123SOL    HW1  368   1.471   0.935   1.190 -0.3891 -0.9855  3.3825
  123SOL    HW2  369   1.477   0.882   1.342 -3.5333  4.6900 -1.7938
  124SOL     OW  370   0.598   0.541   2.968  0.8958 -0.3181  0.1110
  124SOL    HW1  371   0.505   0.559   2.929  0.1835 -3.7101  1.4360
  124SOL    HW2  372   0.641   0.625   3.003 -0.1234 -0.9272  1.6034
  125SOL     OW  373   0.774   0.373   0.247 -0.1002 -0.5686 -0.4437
  125SOL    HW1  374   0.866   0.383   0.289 -1.2731 -1.7160  3.5454
  125SOL    HW2  375   0.751   0.273   0.227  1.0011 -3.8555 -0.4371
  126SOL     OW  376   0.345   1.697   0.457  0.1559  0.6588 -0.4611
  126SOL    HW1  377   0.315   1.769   0.522  0.3715  1.5896 -0.9190
  126SOL    HW2  378   0.443   1.680   0.469 -0.7889  0.5524  0.8334
  127SOL     OW  379   0.763   2.730   1.647 -0.3789  0.4060 -0.7654
  127SOL    HW1  380   0.696   2.785   1.592 -0.0132 -2.5105  1.7140
  127SOL    HW2  381   0.845   2.788   1.668  0.2713 -1.8772 -1.1258
  128SOL     OW  382   1.027   1.896   0.387  0.6489  0.0876  0.9059
  128SOL    HW1  383   0.962   1.841   0.327 -1.7142 -0.3594 -1.0768
  128SOL    HW2  384   1.096   1.837   0.435  1.1549 -1.0619  1.9940
  129SOL     OW  385   1.844   1.658   1.838  0.3156  0.4335  0.5269
  129SOL    HW1  386   1.800   1.668   1.748 -0.3915  3.4840 -2.1551
  129SOL    HW2  387   1.924   1.595   1.842 -0.4348  0.9397  3.1060
  130SOL     OW  388   1.889   2.158   1.410  0.1624 -0.3649  0.5027
  130SOL    HW1  389   1.985   2.183   1.397 -0.5623  1.4128  0.3016
  130SOL    HW2  390   1.832   2.158   1.324  1.1768 -0.5887  0.2285
  131SOL     OW  391   0.353   2.272   2.052  0.0198  0.4611  0.3298
  131SOL    HW1  392   0.264   2.293   2.010 -0.9788 -0.6023  2.5384
  131SOL    HW2  393   0.429   2.306   1.993 -0.9131 -0.2535  0.9634
  132SOL     OW  394   2.691   1.915   0.916  1.3834 -0.4079  0.1192
  132SOL    HW1  395   2.764   1.915   0.847 -1.4276  1.4818  0.0748
  132SOL    HW2  396   2.687   2.006   0.959 -0.2645  0.6431 -0.6665
  133SOL     OW  397   0.537   0.890   1.618  0.1040 -0.2543 -0.0642
  133SOL    HW1  398   0.581   0.867   1.528 -0.7072 -0.7859  1.3100
  133SOL    HW2  399   0.546   0.819   1.689  2.6366  2.3610  1.8958
  134SOL     OW  400   2.348   1.713   0.227 -0.2638 -0.2127 -0.2073
  134SOL    HW1  401   2.448   1.693   0.206 -1.3883 -2.9601 -0.7535
  134SOL    HW2  402   2.300   1.754   0.150  2.0268  0.9877  1.2309
  135SOL     OW  403   1.790   1.030   2.485  0.5077 -0.4352 -0.3291
  135SOL    HW1  404   1.718   1.059   2.414  1.3013 -1.5214 -1.9370
  135SOL    HW2  405   1.813   0.936   2.460 -0.3345  2.6699  1.9484
  136SOL     OW  406   2.810   1.824   1.346  0.0355 -0.7203 -0.0718
  136SOL    HW1  407   2.907   1.823   1.376 -1.2310  1.3898 -0.7883
  136SOL    HW2  408   2.746   1.860   1.419  1.6325 -0.4301 -0.1460
  137SOL     OW  409   2.511   1.864   0.492 -0.2920 -0.0630  0.0128
  137SOL    HW1  410   2.527   1.776   0.545  3.6391  0.3115  0.1592
  137SOL    HW2  411   2.522   1.950   0.551 -1.5773  1.1352  3.0990
  138SOL     OW  412   2.815   0.735   0.664 -0.1098  0.1054  0.3240
  138SOL    HW1  413   2.756   0.748   0.578 -2.4048  3.1228  0.2440
  138SOL    HW2  414   2.872   0.654   0.651 -1.4279  1.4345 -1.4540
  139SOL     OW  415   2.970   3.040   0.011  0.1195  1.2106 -0.6074
  139SOL    HW1  416   2.929   0.017   0.057  1.3478  1.5146 -2.3405
  139SOL    HW2  417   3.067   3.041   0.008 -2.7646 -1.7593  0.5181
  140SOL     OW  418   0.852   1.035   1.528 -0.4423  0.9018 -0.2106
  140SOL    HW1  419   0.821   1.106   1.601  1.3302 -0.2804  2.4189
  140SOL    HW2  420   0.838   1.069   1.435  0.1628  1.8844  2.3413
  141SOL     OW  421   1.412   1.406   1.043 -0.3452 -0.9429  0.1517
  141SOL    HW1  422   1.411   1.333   1.108  1.5595  2.9266 -3.4134
  141SOL    HW2  423   1.365   1.488   1.079  0.4778 -1.4851 -2.1598
  142SOL     OW  424   1.552   0.518   1.153 -0.2679  0.1688 -0.4163
  142SOL    HW1  425   1.571   0.416   1.139  3.0977 -1.8717  1.9650
  142SOL    HW2  426   1.571   0.552   1.247  0.2150  3.4348 -0.5673
  143SOL     OW  427   0.622   1.060   2.618 -0.3264 -0.5573  0.1888
  143SOL    HW1  428   0.593   1.156   2.634  0.8740  3.1087  1.8313
  143SOL    HW2  429   0.538   1.010   2.608 -0.0488  2.5856  1.0497
  144SOL     OW  430   2.357   3.049   0.287  0.0942  0.3305 -0.0684
  144SOL    HW1  431   2.443   3.079   0.253 -3.7393 -0.6277  1.2482
  144SOL    HW2  432   2.310   2.996   0.214 -0.2798  1.4467 -0.2211
  145SOL     OW  433   2.388   0.370   2.927  0.6428 -0.4926 -0.7146
  145SOL    HW1  434   2.304   0.418   2.893 -2.1664 -1.1494  0.7920
  145SOL    HW2  435   2.408   0.400   3.024  0.4682  2.0043  2.5313
  146SOL     OW  436   2.932   2.712   0.396  0.3785 -0.0361 -0.1944
  146SOL    HW1  437   2.955   2.747   0.301  1.3186 -1.5159  0.2789
  146SOL    HW2  438   2.833   2.716   0.410  0.7549 -3.5021 -0.2032
  147SOL     OW  439   1.412   1.173   2.971  0.4106  0.4784  0.4018
  147SOL    HW1  440   1.399   1.263   2.925  0.2816 -0.3199 -0.1292
  147SOL    HW2  441   1.400   1.102   2.901 -1.6853 -0.5251  1.9841
  148SOL     OW  442   1.292   0.133   0.079 -0.6468  0.6207 -0.1564
  148SOL    HW1  443   1.352   0.050   0.061  1.4602 -1.4341 -0.2162
  148SOL    HW2  444   1.231   0.150   3.104  1.7010 -3.6136  0.0897
  149SOL     OW  445   1.635   0.115   1.958  0.0777 -0.1345  0.1167
  149SOL    HW1  446   1.612   0.178   2.036  1.9439  1.8216  0.7780
  149SOL    HW2  447   1.642   0.015   1.978  0.6090 -2.2933  1.1118
  150SOL     OW  448   2.014   0.015   2.922  0.7515 -0.1822  0.1859
  150SOL    HW1  449   2.022   0.028   3.022 -1.2650 -0.2909 -0.8731
  150SOL    HW2  450   2.103   0.010   2.871 -0.0840  0.3127 -0.9872
  151SOL     OW  451   0.597   1.455   0.260  0.0220  0.1803 -0.5593
  151SOL    HW1  452   0.544   1.377   0.229 -1.1429 -1.5026 -0.2679
  151SOL    HW2  453   0.631   1.507   0.181 -0.6969  0.9403  0.5664
  152SOL     OW  454   0.271   0.264   1.152  0.2962  0.6608  0.4584
  152SOL    HW1  455   0.320   0.229   1.067  1.4933  4.1330 -2.1787
  152SOL    HW2  456   0.324   0.261   1.234  1.0451  2.0732 -0.6739
  153SOL     OW  457   2.640   2.896   2.197 -0.5155 -0.7336 -0.3951
  153SOL    HW1  458   2.595   2.886   2.108 -1.1331 -2.2593  2.9163
  153SOL    HW2  459   2.589   2.950   2.261  0.5933 -1.7619  0.4921
  154SOL     OW  460   2.157   3.008   2.519 -0.0364 -0.0527 -0.2785
  154SOL    HW1  461   2.119   2.925   2.476  0.7368  0.8664 -0.5143
  154SOL    HW2  462   2.104   3.094   2.493 -3.2635  5.8611 -0.7098
  155SOL     OW  463   0.680   1.150   0.634  0.6319 -0.1640 -0.2265
  155SOL    HW1  464   0.618   1.231   0.628 -3.2247  0.8502  1.5732
  155SOL    HW2  465   0.704   1.128   0.730  0.7264  0.1379  0.1773
  156SOL     OW  466   2.484   1.733   0.851 -0.0811 -0.0177 -0.4205
  156SOL    HW1  467   2.547   1.800   0.895  0.3495  1.3416 -0.0180
  156SOL    HW2  468   2.528   1.695   0.763  1.9822 -1.0733 -4.8304
  157SOL     OW  469   0.836   0.446   3.063 -0.3490  0.1100  0.3642
  157SOL    HW1  470   0.753   0.467   3.002  0.6199 -0.5652 -1.4550
  157SOL    HW2  471   0.805   0.421   0.052 -1.1870  0.0884  1.1623
  158SOL     OW  472   1.821   0.932   1.105 -0.7875  0.8098 -0.2232
  158SOL    HW1  473   1.832   0.996   1.029 -1.6330  2.6828  4.0662
  158SOL    HW2  474   1.802   0.837   1.074  1.6450 -0.3485 -2.1215
  159SOL     OW  475   3.082   0.470   0.283  0.0435  0.0155  0.5349
  159SOL    HW1  476   0.008   0.534   0.364 -1.1394  2.5004  3.0434
  159SOL    HW2  477   0.065   0.455   0.225  1.5774 -0.8737 -0.5940
  160SOL     OW  478   2.310   2.124   2.069 -0.1423 -0.3195  0.3558
  160SOL    HW1  479   2.221   2.099   2.117 -2.3587 -0.9893  1.6064
  160SOL    HW2  480   2.322   2.224   2.061 -0.5123 -0.4515 -0.8573
  161SOL     OW  481   0.254   0.921   2.923  0.0591  0.3212  0.2420
  161SOL    HW1  482   0.317   0.921   3.002  0.5707 -0.5428 -1.2520
  161SOL    HW2  483   0.166   0.878   2.957  0.3786 -1.9800  0.6346
  162SOL     OW  484   0.356   0.568   1.919  0.1380 -0.0501  0.1097
  162SOL    HW1  485   0.430   0.602   1.861  0.4770  0.0342  1.6876
  162SOL    HW2  486   0.280   0.542   1.858  1.4016  1.3636  0.9676
  163SOL     OW  487   2.661   0.044   2.600 -0.1807 -1.0386  0.3472
  163SOL    HW1  488   2.683   3.075   2.669  3.1583  3.2903 -2.8566
  163SOL    HW2  489   2.739   0.062   2.542 -2.6069 -0.6618 -2.3008
  164SOL     OW  490   2.287   2.069   0.143 -0.2062 -0.5074 -0.6432
  164SOL    HW1  491   2.293   2.107   0.045  1.0851 -0.6514 -1.4607
  164SOL    HW2  492   2.382   2.027   0.162  1.0072  1.1304 -0.8497
  165SOL     OW  493   0.393   0.063   0.993 -0.1325  0.0585 -0.4970
  165SOL    HW1  494   0.460   0.110   0.933  1.4040  0.4579 -1.4267
  165SOL    HW2  495   0.443   3.098   1.056 -0.6366 -3.3745  0.4488
  166SOL     OW  496   2.535   0.432   0.329  0.6674 -0.2749  0.5391
  166SOL    HW1  497   2.598   0.354   0.329 -0.7822  1.6134 -0.3042
  166SOL    HW2  498   2.537   0.484   0.419  0.9933  0.3916 -0.0597
  167SOL     OW  499   2.397   0.720   3.103 -0.0131  0.2364 -0.4332
  167SOL    HW1  500   2.428   0.623   0.022 -1.5690 -3.5682 -1.1016
  167SOL    HW2  501   2.295   0.716   3.088  1.8101 -0.0251 -1.0604
  168SOL     OW  502   1.249   3.015   2.151 -0.1236 -0.2310 -0.1091
  168SOL    HW1  503   1.148   3.006   2.140 -2.0945  0.5621 -2.5100
  168SOL    HW2  504   1.263   0.006   2.188 -1.0418  2.1591  0.1832
  169SOL     OW  505   0.404   2.076   0.530  0.1736 -0.2193  0.2370
  169SOL    HW1  506   0.347   2.007   0.581  1.5993 -1.9781  0.8680
  169SOL    HW2  507   0.423   2.154   0.589 -1.4188  0.0809  0.9803
  170SOL     OW  508   0.018   0.698   1.228 -0.2894 -0.6186  0.5671
  170SOL    HW1  509   0.046   0.607   1.190 -1.4374 -2.5887  2.2102
  170SOL    HW2  510   3.035   0.696   1.280  0.0581 -1.3648 -0.3385
  171SOL     OW  511   2.695   1.407   2.423  0.4336  0.0531  0.5063
  171SOL    HW1  512   2.677   1.323   2.483 -0.3707  1.4362  1.3030
  171SOL    HW2  513   2.644   1.397   2.334 -1.1388  0.4064  1.8799
  172SOL     OW  514   0.794   1.779   1.378 -0.2431  0.1071  0.6632
  172SOL    HW1  515   0.790   1.717   1.299  1.3210  0.1383  1.6996
  172SOL    HW2  516   0.885   1.758   1.424  0.7311  0.7473  0.9201
  173SOL     OW  517   1.927   1.925   3.000  0.1235 -0.1564  0.4739
  173SOL    HW1  518   1.995   1.879   3.060 -1.7061  1.1443 -2.0910
  173SOL    HW2  519   1.834   1.901   3.027  3.0605  1.5986 -0.8176
  174SOL     OW  520   1.671   0.621   2.888  0.1054 -0.2454 -0.2330
  174SOL    HW1  521   1.659   0.707   2.831  0.1153 -2.1660 -1.1449
  174SOL    HW2  522   1.727   0.633   2.973  0.2738  3.2002  1.0740
  175SOL     OW  523   0.537   1.893   1.705 -0.5655 -0.3826  0.4450
  175SOL    HW1  524   0.626   1.943   1.698  0.6297 -1.3205 -0.0062
  175SOL    HW2  525   0.484   1.919   1.788 -0.3572 -1.8398  0.0217
  176SOL     OW  526   0.744   0.071   0.268 -0.0275 -0.1229 -0.1920
  176SOL    HW1  527   0.789   0.053   0.361  2.4810 -1.2235  0.4306
  176SOL    HW2  528   0.677   3.099   0.251  1.1962 -1.0556 -2.4557
  177SOL     OW  529   0.170   1.474   0.443 -0.2651  0.1924 -0.0986
  177SOL    HW1  530   0.217   1.562   0.451 -0.3216 -0.5004  1.5324
  177SOL    HW2  531   0.231   1.393   0.441  0.0460  1.8543 -1.2201
  178SOL     OW  532   3.012   2.127   2.630 -0.3220 -0.1459 -0.8233
  178SOL    HW1  533   3.074   2.199   2.669  1.0198 -2.6679 -0.6331
  178SOL    HW2  534   3.051   2.088   2.540  1.7559 -1.8559 -2.4637
  179SOL     OW  535   2.765   2.837   2.691  0.0858  0.1391 -0.2119
  179SOL    HW1  536   2.786   2.855   2.592 -0.8573  0.0677  1.0913
  179SOL    HW2  537   2.826   2.893   2.749  1.4772  0.3271 -3.1092
  180SOL     OW  538   2.231   0.491   0.944 -0.5149  0.1888 -0.0780
  180SOL    HW1  539   2.136   0.524   0.967 -0.2744  0.8134 -0.2028
  180SOL    HW2  540   2.250   0.511   0.846 -1.6419  0.3170  1.6150
  181SOL     OW  541   2.995   0.362   2.594  0.4612  0.7256  0.1492
  181SOL    HW1  542   3.073   0.394   2.537 -0.4619  2.3075 -0.4353
  181SOL    HW2  543   2.931   0.300   2.539  1.7448 -3.4070  0.2168
  182SOL     OW  544   2.331   2.235   2.477 -0.3428 -0.3071 -0.4718
  182SOL    HW1  545   2.299   2.138   2.496 -0.9593 -0.4262  0.4431
  182SOL    HW2  546   2.257   2.288   2.428 -1.1086  0.5120 -2.0859
  183SOL     OW  547   2.525   0.785   1.940  0.1158 -0.3072 -0.1697
  183SOL    HW1  548   2.425   0.756   1.922  0.7366  3.5009  0.7927
  183SOL    HW2  549   2.550   0.856   1.872 -0.6663  0.3549  2.4304
  184SOL     OW  550   2.797   1.356   0.522 -0.2280 -0.2452  0.1768
  184SOL    HW1  551   2.812   1.340   0.621 -0.2434  2.4891  0.3382
  184SOL    HW2  552   2.802   1.459   0.501  0.3379  1.2759 -0.8496
  185SOL     OW  553   2.673   0.386   0.726  0.5226 -0.0287 -0.3880
  185SOL    HW1  554   2.760   0.416   0.685  1.9570  1.1150  1.7394
  185SOL    HW2  555   2.637   0.296   0.690 -0.5261  2.4773 -1.7853
  186SOL     OW  556   2.009   2.600   2.814  0.2885  0.1237 -0.2704
  186SOL    HW1  557   2.045   2.693   2.814  0.5307 -0.9495  1.6501
  186SOL    HW2  558   1.909   2.600   2.791 -2.7456 -0.1658 -2.4302
  187SOL     OW  559   0.325   1.346   0.829 -0.1009  0.3236 -0.0160
  187SOL    HW1  560   0.375   1.357   0.742 -1.1138  1.1910  2.0450
  187SOL    HW2  561   0.378   1.363   0.912  2.3936  0.3398 -0.1899
  188SOL     OW  562   1.890   1.694   0.658  0.8804 -0.4423  0.6687
  188SOL    HW1  563   1.885   1.615   0.723 -1.4132  0.5292  2.2386
  188SOL    HW2  564   1.842   1.778   0.697 -0.8388  0.8309 -1.1958
  189SOL     OW  565   2.871   1.458   2.933  0.0043 -0.2534 -0.2710
  189SOL    HW1  566   2.807   1.402   2.872 -0.4931  0.4831  0.6838
  189SOL    HW2  567   2.847   1.456   3.035  1.1366  2.2374  0.6350
  190SOL     OW  568   2.576   0.281   2.493 -0.3861 -0.6027 -0.0907
  190SOL    HW1  569   2.631   0.197   2.517 -1.8322 -0.9550  0.7686
  190SOL    HW2  570   2.561   0.340   2.580 -1.4575  0.7021  0.7372
  191SOL     OW  571   0.975   0.616   2.322  0.6024  0.6660 -0.2568
  191SOL    HW1  572   1.011   0.665   2.403 -0.7503  0.0278 -0.0226
  191SOL    HW2  573   0.999   0.660   2.234 -0.2367 -0.5369 -1.8656
  192SOL     OW  574   1.408   1.746   2.053 -0.0857  0.1030  0.3242
  192SOL    HW1  575   1.365   1.701   1.969 -0.5876  0.7162 -2.6675
  192SOL    HW2  576   1.336   1.796   2.104 -2.2678  0.3753 -1.4655
  193SOL     OW  577   1.279   2.633   1.083  0.0505 -0.0632  0.4501
  193SOL    HW1  578   1.284   2.655   1.179 -1.0261  0.7453  1.7224
  193SOL    HW2  579   1.256   2.710   1.023  1.9701 -1.4875  1.8612
  194SOL     OW  580   1.285   1.750   1.785  0.4478 -0.2161  0.5015
  194SOL    HW1  581   1.276   1.647   1.771 -0.2410  0.2785  0.5025
  194SOL    HW2  582   1.220   1.799   1.725  1.2748  0.1883 -0.9877
  195SOL     OW  583   1.887   0.288   0.766  0.3392 -0.6499  0.5300
  195SOL    HW1  584   1.890   0.265   0.865  0.2334  0.8638  0.2716
  195SOL    HW2  585   1.800   0.340   0.749  1.6839 -1.7288  2.5480
  196SOL     OW  586   1.473   1.576   2.508 -0.3059 -0.1716  0.3330
  196SOL    HW1  587   1.398   1.519   2.553 -1.8665  0.9380  0.3528
  196SOL    HW2  588   1.551   1.591   2.576  1.3806 -0.4321 -0.6684
  197SOL     OW  589   0.263   0.151   1.813  0.2997 -0.9126 -0.7007
  197SOL    HW1  590   0.264   0.085   1.888 -0.6352 -0.4255 -2.2219
  197SOL    HW2  591   0.356   0.185   1.781 -1.7443 -1.1048  1.1054
  198SOL     OW  592   0.154   1.266   1.150 -0.3545 -0.7046  0.1018
  198SOL    HW1  593   0.230   1.199   1.128  1.0298  1.4739  0.1730
  198SOL    HW2  594   0.094   1.291   1.072 -0.4543 -1.2708  1.1342
  199SOL     OW  595   0.405   2.209   0.899  0.2404 -0.2456  0.2620
  199SOL    HW1  596   0.443   2.231   0.806  0.1300 -2.0410  3.6215
  199SOL    HW2  597   0.443   2.271   0.967 -0.1366  0.4796  1.4187
  200SOL     OW  598   1.878   1.485   3.034 -0.0190  0.7422  0.1876
  200SOL    HW1  599   1.905   1.544   0.008  1.4473 -1.8129 -0.7856
  200SOL    HW2  600   1.856   1.393   3.071  0.5108  0.9473 -0.0570
  201SOL     OW  601   0.537   2.193   1.640  0.2339 -0.1614  0.1664
  201SOL    HW1  602   0.619   2.132   1.650 -1.5649 -0.6967  1.0840
  201SOL    HW2  603   0.454   2.130   1.651  0.1775 -1.9765 -0.7146
  202SOL     OW  604   1.191   2.610   2.730  0.1281  0.0215  0.3258
  202SOL    HW1  605   1.199   2.696   2.788 -0.8612  0.7039  1.4695
  202SOL    HW2  606   1.096   2.573   2.718 -2.2396 -0.1803  0.5095
  203SOL     OW  607   1.509   0.331   2.122 -0.2026 -0.5886  0.7137
  203SOL    HW1  608   1.444   0.278   2.176 -1.5493  0.7898  0.5722
  203SOL    HW2  609   1.481   0.425   2.090  2.1576 -1.8197 -2.9243
  204SOL     OW  610   0.485   1.317   1.434  0.1639  0.0277 -0.0716
  204SOL    HW1  611   0.569   1.303   1.381  0.2898 -2.3100  0.4501
  204SOL    HW2  612   0.515   1.371   1.514 -0.4429 -1.6135 -1.0694
  205SOL     OW  613   2.422   1.166   2.420  0.2363  0.2220  0.0630
  205SOL    HW1  614   2.378   1.236   2.482 -0.2945 -0.1634  1.7932
  205SOL    HW2  615   2.365   1.146   2.338  0.0643  1.1819 -1.2983
  206SOL     OW  616   0.254   2.157   2.474  0.0832 -0.0792 -0.4066
  206SOL    HW1  617   0.243   2.164   2.577 -0.2640  2.2301  0.3826
  206SOL    HW2  618   0.173   2.106   2.437 -0.7746  2.8544  0.8124
  207SOL     OW  619   0.474   0.041   1.610  0.3117  0.4373  0.2479
  207SOL    HW1  620   0.512   3.051   1.619 -0.8578  0.7897  0.0587
  207SOL    HW2  621   0.534   0.113   1.650  1.6683 -1.9096 -1.2606
  208SOL     OW  622   0.563   2.393   1.445 -0.1872 -0.5084 -0.7438
  208SOL    HW1  623   0.462   2.408   1.420 -0.9482  0.3985 -0.3047
  208SOL    HW2  624   0.572   2.312   1.506 -0.4489 -0.0639 -1.1290
  209SOL     OW  625   1.442   2.478   2.769  0.3998 -0.3788  0.2382
  209SOL    HW1  626   1.343   2.504   2.753  0.2014 -2.2789  0.4592
  209SOL    HW2  627   1.455   2.388   2.728  0.7998 -0.2162 -0.6609
  210SOL     OW  628   2.932   1.739   1.913 -0.0773 -0.4010  0.1638
  210SOL    HW1  629   2.986   1.662   1.868  3.3240 -1.7245  0.6576
  210SOL    HW2  630   2.925   1.721   2.014 -0.9540 -1.8957  0.2967
  211SOL     OW  631   1.052   0.167   1.743  0.6272  0.0031  0.5562
  211SOL    HW1  632   1.104   0.153   1.827  0.7383 -3.4996 -2.2981
  211SOL    HW2  633   1.123   0.179   1.668 -1.7420  0.3993 -1.8277
  212SOL     OW  634   1.185   2.304   1.622 -0.5866  0.1700  0.2129
  212SOL    HW1  635   1.239   2.394   1.622  1.0173 -1.4475 -0.3405
  212SOL    HW2  636   1.219   2.237   1.690 -2.0015 -0.9628 -1.7280
  213SOL     OW  637   2.524   0.526   2.050  0.2653 -0.7899 -0.4050
  213SOL    HW1  638   2.525   0.527   2.150  0.8636  0.2112 -4.1229
  213SOL    HW2  639   2.535   0.623   2.017  0.3236 -2.2956  0.1183
  214SOL     OW  640   1.114   1.891   1.653  0.3884  0.0373  0.3294
  214SOL    HW1  641   1.155   1.959   1.586 -0.7163  0.4366 -0.6787
  214SOL    HW2  642   1.057   1.940   1.721 -1.6578  2.3464  0.2703
  215SOL     OW  643   2.484   2.278   1.125  0.0610  0.1608 -0.2893
  215SOL    HW1  644   2.386   2.286   1.094  2.0269 -1.8370  0.7094
  215SOL    HW2  645   2.490   2.320   1.220 -0.5816 -0.5212 -1.6020
  216SOL     OW  646   3.021   0.847   1.016  0.1252  0.3045 -0.0533
  216SOL    HW1  647   3.081   0.793   1.073 -1.6466 -1.6903 -0.3037
  216SOL    HW2  648   3.056   0.861   0.923  0.1869  0.9215 -2.0530
  217SOL     OW  649   2.292   0.252   1.568 -0.0058  0.6348 -0.3900
  217SOL    HW1  650   2.340   0.338   1.603  1.8300  0.5506  0.6858
  217SOL    HW2  651   2.298   0.242   1.466 -0.3259  0.1242 -2.3857
  218SOL     OW  652   1.496   2.493   1.045  0.5202 -0.3976 -0.4285
  218SOL    HW1  653   1.503   2.461   0.952  0.7503  3.1174  3.5058
  218SOL    HW2  654   1.414   2.546   1.060  2.2614 -1.5729  0.1274
  219SOL     OW  655   1.710   2.156   0.232 -0.3007  0.2802  0.2619
  219SOL    HW1  656   1.787   2.217   0.208 -1.0196 -1.4836  2.2649
  219SOL    HW2  657   1.622   2.198   0.207 -1.4695 -0.8304  0.9958
  220SOL     OW  658   1.730   2.224   2.970 -0.6358 -0.2582 -0.3273
  220SOL    HW1  659   1.707   2.310   3.022 -1.4703 -1.5539  0.4974
  220SOL    HW2  660   1.828   2.217   2.942  1.1000 -2.2883  1.4196
  221SOL     OW  661   3.067   2.515   0.985  0.1902  0.4178  0.2502
  221SOL    HW1  662   0.009   2.443   1.038 -1.2004  0.9569 -1.9538
  221SOL    HW2  663   3.099   2.604   1.017 -0.7692 -0.7140 -0.0744
  222SOL     OW  664   2.067   2.679   0.846  0.8544 -0.1665 -0.4030
  222SOL    HW1  665   1.983   2.728   0.809 -1.7941  1.1880 -0.5916
  222SOL    HW2  666   2.108   2.737   0.920 -0.8345  2.2999  1.2506
  223SOL     OW  667   0.528   2.606   2.155 -0.1698  0.2323 -0.1234
  223SOL    HW1  668   0.556   2.682   2.094  1.5468 -0.8242  2.5475
  223SOL    HW2  669   0.570   2.513   2.135  0.9983 -2.2552 -2.1527
  224SOL     OW  670   2.880   2.351   0.882 -0.0901 -0.5102  0.0084
  224SOL    HW1  671   2.958   2.413   0.910 -0.5934 -1.5108 -0.0844
  224SOL    HW2  672   2.897   2.311   0.791  1.2578  1.9802 -0.8397
  225SOL     OW  673   2.087   1.984   0.758  0.3774 -0.1244 -0.1924
  225SOL    HW1  674   2.136   1.950   0.840  0.7353  1.5964 -1.7299
  225SOL    HW2  675   2.125   1.942   0.672 -0.5179  1.5715 -2.3435
  226SOL     OW  676   1.373   2.436   0.302 -0.6005  0.1141  0.5770
  226SOL    HW1  677   1.397   2.535   0.283 -1.2549  0.4801 -1.1228
  226SOL    HW2  678   1.427   2.371   0.241  0.7402  0.2551  1.3112
  227SOL     OW  679   1.955   0.557   0.875 -0.1834 -0.2341 -0.3060
  227SOL    HW1  680   1.961   0.476   0.816 -1.2610 -0.2725  1.1497
  227SOL    HW2  681   2.009   0.638   0.838  0.8337 -0.6851 -1.4609
  228SOL     OW  682   1.053   0.757   2.073  0.9089  0.4780  0.1997
  228SOL    HW1  683   1.151   0.740   2.086 -1.3827 -0.7950  2.6190
  228SOL    HW2  684   1.031   0.856   2.061  2.2133  0.1239 -2.7276
  229SOL     OW  685   2.985   1.140   2.837 -0.3299 -0.3755  0.0805
  229SOL    HW1  686   3.040   1.157   2.755 -2.2860 -1.0345 -0.6330
  229SOL    HW2  687   3.039   1.142   2.921 -0.1015 -2.5383  2.1305
  230SOL     OW  688   0.992   1.154   1.044  0.4794  0.0653 -0.0042
  230SOL    HW1  689   1.072   1.109   0.990 -1.6173  1.5157 -1.1454
  230SOL    HW2  690   1.014   1.156   1.150  2.5519  0.3921  3.6341
  231SOL     OW  691   2.503   3.039   2.403 -0.1811 -0.2192 -0.8361
  231SOL    HW1  692   2.440   0.008   2.373 -2.0401 -1.1848  1.6201
  231SOL    HW2  693   2.544   3.070   2.496  1.3015  1.8532 -0.1080
  232SOL     OW  694   0.617   2.148   0.050 -0.3677  0.0464 -0.1877
  232SOL    HW1  695   0.597   2.149   0.148 -2.4693  0.0253 -0.2273
  232SOL    HW2  696   0.567   2.222   0.005 -1.1555  0.1219  4.1725
  233SOL     OW  697   1.270   2.391   2.373  0.4776 -0.6822 -0.2758
  233SOL    HW1  698   1.228   2.480   2.402 -1.6336  0.9532 -0.4115
  233SOL    HW2  699   1.340   2.408   2.298  2.7948 -0.3858 -2.1749
  234SOL     OW  700   1.003   1.580   1.826  0.2922 -0.1941 -0.4805
  234SOL    HW1  701   1.095   1.541   1.795  0.6338 -0.2081  0.9739
  234SOL    HW2  702   0.939   1.577   1.746 -1.8772  1.2751 -0.3287
  235SOL     OW  703   0.752   2.045   1.660  0.8262 -0.0814  0.6091
  235SOL    HW1  704   0.803   2.121   1.617 -2.3559 -0.9896  2.7008
  235SOL    HW2  705   0.807   2.017   1.741 -3.8142 -0.1679  1.7387
  236SOL     OW  706   1.602   2.667   2.528  0.0441 -0.0596 -0.1514
  236SOL    HW1  707   1.532   2.593   2.537  0.1266 -0.1865 -0.1210
  236SOL    HW2  708   1.559   2.758   2.508 -2.9969 -0.8436 -0.2317
  237SOL     OW  709   1.182   0.076   0.679  0.0400  0.4011 -0.4865
  237SOL    HW1  710   1.162   0.075   0.580  1.4476  0.6419 -1.4007
  237SOL    HW2  711   1.276   0.102   0.702 -1.0582  0.5939  0.1340
  238SOL     OW  712   1.329   0.709   2.685  0.3169  0.1682 -0.1711
  238SOL    HW1  713   1.333   0.647   2.765  0.6525  1.3548 -0.1762
  238SOL    HW2  714   1.331   0.804   2.717  2.2589  1.1312  0.9101
  239SOL     OW  715   3.057   0.488   2.192 -0.0560 -0.3278  0.2908
  239SOL    HW1  716   0.028   0.557   2.172  0.1131  0.2209 -0.2345
  239SOL    HW2  717   2.967   0.521   2.162 -2.6433 -0.4842 -0.2815
  240SOL     OW  718   2.556   2.778   0.680 -0.1575 -0.2966 -0.1422
  240SOL    HW1  719   2.588   2.685   0.685  1.6741  1.1965  0.6315
  240SOL    HW2  720   2.482   2.792   0.609 -0.8774 -0.5210 -1.3833
  241SOL     OW  721   1.689   1.068   1.319  0.6020 -0.3112 -0.4199
  241SOL    HW1  722   1.595   1.077   1.289  1.5352  0.3459 -1.8648
  241SOL    HW2  723   1.744   0.994   1.268  1.6181 -3.2089 -1.0871
  242SOL     OW  724   0.827   0.853   0.738 -0.3378  0.4963 -0.0240
  242SOL    HW1  725   0.781   0.934   0.775  0.7403 -2.3492 -0.9538
  242SOL    HW2  726   0.759   0.782   0.701 -0.1929 -2.7198 -2.2012
  243SOL     OW  727   0.409   0.847   1.201 -0.0358  0.1939  0.2348
  243SOL    HW1  728   0.343   0.842   1.276  0.3876 -0.9888  2.1131
  243SOL    HW2  729   0.503   0.837   1.236  0.7547  0.6123 -0.2899
  244SOL     OW  730   1.102   0.426   3.017 -0.4099 -0.2362  0.0156
  244SOL    HW1  731   1.004   0.436   3.049 -0.7264  0.2695  1.5398
  244SOL    HW2  732   1.126   0.328   2.990  1.2346  0.2950 -2.8601
  245SOL     OW  733   2.047   1.076   0.090 -0.4253 -0.0026 -0.0221
  245SOL    HW1  734   2.089   1.105   0.000 -1.2452 -2.2251  1.5170
  245SOL    HW2  735   2.104   1.096   0.175  1.5296 -1.3379  3.9842
  246SOL     OW  736   2.990   0.942   1.815 -0.5904 -0.2421 -0.3866
  246SOL    HW1  737   3.025   1.006   1.744  0.4989  0.5497  2.7296
  246SOL    HW2  738   3.052   0.866   1.832  0.9913  3.0358 -0.2823
  247SOL     OW  739   0.415   2.749   1.766  0.8093  0.3864 -0.0848
  247SOL    HW1  740   0.325   2.780   1.802 -1.4568 -0.6082 -0.2018
  247SOL    HW2  741   0.485   2.756   1.845  3.1495 -4.1567  0.5491
  248SOL     OW  742   0.623   1.347   2.104  0.4837  0.2452 -0.0697
  248SOL    HW1  743   0.687   1.405   2.159 -0.1063 -0.3832  0.0874
  248SOL    HW2  744   0.651   1.247   2.108  0.3870 -0.5221  0.8350
  249SOL     OW  745   0.459   0.124   2.702 -0.1716  0.1153  0.0469
  249SOL    HW1  746   0.454   0.025   2.715 -1.2751  1.9926 -2.6706
  249SOL    HW2  747   0.374   0.153   2.653 -0.4702 -0.6246  1.6180
  250SOL     OW  748   0.223   0.190   2.578 -0.0938 -0.1037 -0.3554
  250SOL    HW1  749   0.180   0.099   2.547  2.5613  0.4062  0.1817
  250SOL    HW2  750   0.188   0.263   2.520  2.3215 -1.8993  2.0382
  251SOL     OW  751   3.074   1.528   1.055  0.0366  0.4953 -0.1076
  251SOL    HW1  752   3.011   1.595   1.012  0.5816  0.4794 -0.5530
  251SOL    HW2  753   3.029   1.477   1.131  0.9694  0.4535 -1.5550
  252SOL     OW  754   1.782   2.723   2.161  0.7406  0.7956  0.1598
  252SOL    HW1  755   1.812   2.677   2.075  1.1217  0.1110 -0.7039
  252SOL    HW2  756   1.820   2.817   2.176  0.6510  0.1347 -0.7868
  253SOL     OW  757   1.640   1.626   2.932 -0.4043 -0.3775  0.9014
  253SOL    HW1  758   1.619   1.727   2.957 -0.6969  2.5535 -0.9603
  253SOL    HW2  759   1.717   1.587   2.985  2.0964  0.0340 -0.0596
  254SOL     OW  760   0.586   1.476   1.674 -0.3143 -0.1508 -0.1953
  254SOL    HW1  761   0.589   1.563   1.623 -2.8264  0.3846  4.1684
  254SOL    HW2  762   0.558   1.505   1.769  0.1207 -0.8628 -1.6304
  255SOL     OW  763   0.958   2.882   1.312  0.3077 -0.2054 -0.1738
  255SOL    HW1  764   1.022   2.954   1.341  0.1882 -0.1591  0.3780
  255SOL    HW2  765   0.976   2.788   1.348  1.0662 -1.1909  0.4014
  256SOL     OW  766   0.167   2.046   0.845  0.3475 -0.1123 -0.0945
  256SOL    HW1  767   0.250   2.092   0.872  0.4837 -1.1861  1.0048
  256SOL    HW2  768   0.092   2.086   0.907 -0.3078 -0.4962  2.7965
  257SOL     OW  769   0.194   2.680   2.784 -0.6466 -0.0408 -0.1928
  257SOL    HW1  770   0.288   2.702   2.822  0.3528  1.4507  1.8366
  257SOL    HW2  771   0.136   2.763   2.773 -1.6194  3.4553  0.3966
  258SOL     OW  772   1.320   2.207   1.836  0.7120  0.2637 -0.2055
  258SOL    HW1  773   1.368   2.116   1.850  1.1937  0.8903  0.2451
  258SOL    HW2  774   1.371   2.286   1.871  0.9725  0.2560 -0.0581
  259SOL     OW  775   1.137   1.634   2.416  0.5295 -0.1539 -0.6509
  259SOL    HW1  776   1.163   1.563   2.486 -1.2505  0.1067  1.5971
  259SOL    HW2  777   1.164   1.605   2.324  0.0969  1.2077  4.6431
  260SOL     OW  778   2.467   0.939   2.207 -0.5272  0.7206 -0.7549
  260SOL    HW1  779   2.452   0.839   2.193  1.5626 -1.3375  2.6114
  260SOL    HW2  780   2.377   0.981   2.201  1.6458 -1.5297 -0.4089
  261SOL     OW  781   1.431   0.899   1.000 -0.2533  0.3450 -0.6153
  261SOL    HW1  782   1.435   0.798   0.999  1.3849  0.4036 -3.9812
  261SOL    HW2  783   1.509   0.941   0.948 -3.6281  1.7393  2.4577
  262SOL     OW  784   2.192   2.023   2.557  0.2620 -0.1970 -0.5902
  262SOL    HW1  785   2.191   1.936   2.603 -2.2142  1.4526  2.1214
  262SOL    HW2  786   2.116   2.081   2.600 -1.3164  0.0325  2.9452
  263SOL     OW  787   0.755   2.364   0.873 -0.0923 -0.5798 -0.1378
  263SOL    HW1  788   0.832   2.416   0.828  2.7487 -0.9134  0.5250
  263SOL    HW2  789   0.682   2.344   0.805 -1.2480 -0.3405  0.4390
  264SOL     OW  790   0.184   2.475   0.402  0.2663 -0.5677 -0.5651
  264SOL    HW1  791   0.105   2.524   0.446 -1.5643  2.5630  3.5855
  264SOL    HW2  792   0.178   2.380   0.432  0.4962  0.7965  0.1159
  265SOL     OW  793   0.897   1.469   0.201  0.0065  0.2452 -0.1778
  265SOL    HW1  794   0.991   1.433   0.221  0.6723 -0.8743 -0.7646
  265SOL    HW2  795   0.823   1.399   0.194  0.0370  1.8677  0.7988
  266SOL     OW  796   0.843   1.902   2.381 -0.1161  0.1077  0.0048
  266SOL    HW1  797   0.933   1.921   2.423 -0.9536  2.3447 -0.7074
  266SOL    HW2  798   0.775   1.964   2.424 -2.5051  1.5400 -1.1461
  267SOL     OW  799   1.802   0.795   2.346 -0.0510  0.2580  0.1085
  267SOL    HW1  800   1.775   0.718   2.409 -0.4325  0.8157  0.5554
  267SOL    HW2  801   1.744   0.805   2.265 -1.6525 -1.0388 -1.4860
  268SOL     OW  802   0.596   1.097   0.183 -0.1883  0.0244 -0.8010
  268SOL    HW1  803   0.523   1.165   0.181 -0.9492 -1.7063  0.8889
  268SOL    HW2  804   0.681   1.141   0.202  0.0624 -1.1483 -1.2123
  269SOL     OW  805   2.350   1.748   2.306 -0.9782 -0.4620 -0.1503
  269SOL    HW1  806   2.378   1.773   2.397 -1.6297  0.7871 -3.3721
  269SOL    HW2  807   2.432   1.747   2.249 -3.6873  1.1832  2.9169
  270SOL     OW  808   1.030   2.037   0.061 -0.3205  0.7825 -0.1152
  270SOL    HW1  809   0.968   1.968   0.103 -2.7087 -1.1917 -0.2776
  270SOL    HW2  810   1.085   1.989   3.082  2.3056 -4.4255 -4.6548
  271SOL     OW  811   0.199   0.478   0.159 -0.1089 -0.0477  0.3715
  271SOL    HW1  812   0.211   0.523   0.067 -0.9466  0.6405 -0.1444
  271SOL    HW2  813   0.222   0.379   0.150  1.4463 -1.8592  2.0245
  272SOL     OW  814   2.920   0.275   0.334  0.1652  0.3608 -0.1594
  272SOL    HW1  815   2.957   0.188   0.374  0.6341 -3.5450 -1.1893
  272SOL    HW2  816   2.991   0.348   0.340  1.0393  0.8046  1.1004
  273SOL     OW  817   0.088   0.056   1.617  0.0926  0.4164 -0.2259
  273SOL    HW1  818   0.165   0.077   1.680 -2.4772  1.1960  2.7637
  273SOL    HW2  819   0.053   3.062   1.626 -0.2146 -2.8688 -1.8733
  274SOL     OW  820   2.881   0.626   1.389  0.1966  0.3994 -0.0740
  274SOL    HW1  821   2.971   0.586   1.412 -2.1639  1.7208  0.0593
  274SOL    HW2  822   2.833   0.571   1.317 -1.3625  0.7186 -0.3561
  275SOL     OW  823   0.832   1.627   1.135  0.0023  0.2381 -0.0130
  275SOL    HW1  824   0.747   1.662   1.096  0.6758  0.9416  1.0907
  275SOL    HW2  825   0.861   1.539   1.091 -1.2671  1.9111 -3.0611
  276SOL     OW  826   0.746   1.214   1.747  0.2823  0.0881 -0.3405
  276SOL    HW1  827   0.704   1.295   1.702 -0.5870 -1.0972  1.1557
  276SOL    HW2  828   0.687   1.141   1.789  1.2265 -0.0980 -0.7394
  277SOL     OW  829   1.014   2.505   1.936  0.7356 -0.2381 -0.4722
  277SOL    HW1  830   1.105   2.545   1.959 -0.5794 -2.2789 -0.0266
  277SOL    HW2  831   0.990   2.435   2.004  1.0021  2.7556 -0.8856
  278SOL     OW  832   2.211   2.712   2.133 -0.2663  0.3884 -0.0697
  278SOL    HW1  833   2.265   2.725   2.218  1.0212  2.1992  0.4895
  278SOL    HW2  834   2.151   2.628   2.140 -1.1013  1.3225  1.7814
  279SOL     OW  835   1.309   1.827   0.142  0.6195  0.0826  0.1794
  279SOL    HW1  836   1.328   1.857   0.049  0.7049  0.9566  3.0390
  279SOL    HW2  837   1.302   1.898   0.215 -0.5890 -1.4252 -1.2900
  280SOL     OW  838   1.344   0.760   0.039  0.2698  0.0282  0.0909
  280SOL    HW1  839   1.430   0.713   0.067  1.8901 -0.4812 -0.2354
  280SOL    HW2  840   1.317   0.729   3.050  0.0365 -0.2668  2.3150
  281SOL     OW  841   0.437   0.409   1.369 -0.1553 -0.0111  0.1133
  281SOL    HW1  842   0.354   0.459   1.401  1.0155 -1.0221  1.0209
  281SOL    HW2  843   0.417   0.313   1.385  1.9460  4.3686 -1.8803
  282SOL     OW  844   0.159   2.725   0.628 -0.3643 -0.6269  0.3396
  282SOL    HW1  845   0.177   2.730   0.732 -1.9674  3.6824  3.7146
  282SOL    HW2  846   0.090   2.651   0.605 -0.9650  0.5654 -0.1551
  283SOL     OW  847   1.451   1.956   1.830  0.6807 -0.1327 -0.3299
  283SOL    HW1  848   1.399   1.870   1.812 -1.1519  0.5314 -0.1331
  283SOL    HW2  849   1.514   1.929   1.904 -1.0283 -1.7937 -1.2799
  284SOL     OW  850   2.790   2.840   1.435 -0.6139 -0.7050 -0.2357
  284SOL    HW1  851   2.815   2.920   1.374  0.9745  2.5353  4.0640
  284SOL    HW2  852   2.760   2.759   1.385  1.1755  0.7404  1.4219
  285SOL     OW  853   0.209   2.445   0.110 -0.2045 -0.2858 -0.2986
  285SOL    HW1  854   0.218   2.342   0.104  2.5049 -1.4687  0.2652
  285SOL    HW2  855   0.201   2.475   0.204 -0.2269  1.2420  0.5514
  286SOL     OW  856   0.508   2.795   0.883 -1.1205 -0.4666  0.5203
  286SOL    HW1  857   0.563   2.865   0.931  5.4178 -2.5170  2.1762
  286SOL    HW2  858   0.409   2.796   0.891  0.5485  0.2114 -1.6328
  287SOL     OW  859   0.793   1.436   0.607 -0.1705  0.1042 -0.0654
  287SOL    HW1  860   0.804   1.335   0.593 -1.5509 -1.0996 -0.6197
  287SOL    HW2  861   0.855   1.489   0.548 -2.1720  0.1051  1.4417
  288SOL     OW  862   1.878   1.874   2.721  0.2964 -0.6287  0.2723
  288SOL    HW1  863   1.916   1.817   2.642 -2.7349 -1.4797 -1.2976
  288SOL    HW2  864   1.937   1.876   2.797 -2.3415  3.7423 -1.6036
  289SOL     OW  865   2.846   1.697   0.246  0.1179 -0.1549 -0.5811
  289SOL    HW1  866   2.768   1.699   0.178  0.2095  0.8341  0.8487
  289SOL    HW2  867   2.910   1.776   0.234  1.2408 -0.3131 -1.7751
  290SOL     OW  868   1.412   1.441   1.417  0.0423 -0.1577 -0.3899
  290SOL    HW1  869   1.351   1.519   1.431  0.1479  1.3084 -1.0136
  290SOL    HW2  870   1.371   1.363   1.371 -0.1399  0.4385  1.6546
  291SOL     OW  871   1.205   1.390   0.166 -0.3704  0.3373 -0.5349
  291SOL    HW1  872   1.232   1.292   0.154  1.4428 -0.3652 -2.0905
  291SOL    HW2  873   1.280   1.442   0.123  0.3102 -1.5932  1.0152
  292SOL     OW  874   1.157   1.404   0.446  0.0341 -0.4648  0.6320
  292SOL    HW1  875   1.094   1.332   0.486 -4.2346  0.0062  2.3938
  292SOL    HW2  876   1.162   1.401   0.343 -1.0425  2.7059 -0.8796
  293SOL     OW  877   1.051   3.021   0.851  0.1757 -0.7801  0.2936
  293SOL    HW1  878   0.999   2.945   0.803 -3.1904 -2.4983  2.5385
  293SOL    HW2  879   1.094   3.090   0.783  1.0834  2.6700 -0.6866
  294SOL     OW  880   1.934   1.189   2.250  0.2165 -0.5793  0.4340
  294SOL    HW1  881   1.932   1.102   2.202  0.3802  1.5580  0.1495
  294SOL    HW2  882   1.878   1.183   2.334 -0.9529  0.2762  0.3228
  295SOL     OW  883   1.684   1.834   3.094  0.6677 -0.3244 -0.2335
  295SOL    HW1  884   1.683   1.797   0.085  0.8774  1.1363  1.0162
  295SOL    HW2  885   1.623   1.918   3.089 -1.5692  0.8837 -1.1599
  296SOL     OW  886   1.293   0.821   1.802  0.0003 -0.5403  0.0632
  296SOL    HW1  887   1.212   0.764   1.775 -0.5682 -0.9175  0.4098
  296SOL    HW2  888   1.275   0.875   1.886  0.2150 -0.3773 -0.3542
  297SOL     OW  889   0.022   0.710   1.853 -0.6028  0.5549 -0.3874
  297SOL    HW1  890   3.029   0.678   1.848  1.3893 -0.5960  1.8074
  297SOL    HW2  891   0.075   0.644   1.802 -0.2696 -1.1632  1.0663
  298SOL     OW  892   1.439   1.933   1.353  0.6030  0.4096  0.5608
  298SOL    HW1  893   1.498   1.857   1.311  0.2363  0.4858  0.5564
  298SOL    HW2  894   1.491   1.981   1.427 -2.9613  0.3797 -0.8521
  299SOL     OW  895   1.259   3.077   2.796  0.0424 -0.1340 -0.1234
  299SOL    HW1  896   1.255   2.986   2.843 -1.7723 -0.3345  0.5267
  299SOL    HW2  897   1.195   3.063   2.712 -2.2132 -0.7197 -1.4459
  300SOL     OW  898   2.811   2.114   0.137  0.5678  0.4928  0.0123
  300SOL    HW1  899   2.750   2.130   0.052 -0.0443 -0.1900 -3.1076
  300SOL    HW2  900   2.895   2.166   0.130 -3.1396 -0.7249  1.0648
  301SOL     OW  901   2.027   0.627   2.523 -0.3062 -0.2540 -0.3105
  301SOL    HW1  902   2.072   0.677   2.446  1.1753 -0.3256 -3.0873
  301SOL    HW2  903   2.019   0.685   2.605 -0.3388 -0.0920 -1.8257
  302SOL     OW  904   2.407   2.160   2.801 -0.0095  0.1565  0.1993
  302SOL    HW1  905   2.393   2.069   2.842 -0.8030  1.7443 -0.3258
  302SOL    HW2  906   2.323   2.221   2.805 -2.1461  1.2650  0.6057
  303SOL     OW  907   3.021   2.271   3.091  0.0130 -0.0470  0.2310
  303SOL    HW1  908   3.002   2.372   3.082  1.3786  2.3679  1.3892
  303SOL    HW2  909   2.968   2.216   3.024 -0.1959 -0.4481  2.3980
  304SOL     OW  910   0.231   1.676   1.040 -0.0160 -0.5045  0.1861
  304SOL    HW1  911   0.134   1.652   1.020 -0.2181 -1.0156 -0.7138
  304SOL    HW2  912   0.247   1.770   1.083 -0.8227  0.0791  2.4015
  305SOL     OW  913   2.840   0.628   1.836 -0.3838  0.4018  0.2705
  305SOL    HW1  914   2.799   0.533   1.845 -1.1525 -0.3665 -0.0102
  305SOL    HW2  915   2.791   0.675   1.761 -0.9682  0.9486  0.6039
  306SOL     OW  916   1.698   1.379   0.994  0.0156 -0.6262  0.2065
  306SOL    HW1  917   1.594   1.390   0.999 -2.9507 -1.7856 -1.5996
  306SOL    HW2  918   1.729   1.341   1.085 -0.8798 -0.0372 -0.9497
  307SOL     OW  919   3.031   0.251   0.754  0.2765 -0.0835  0.5831
  307SOL    HW1  920   0.028   0.229   0.749 -0.8281  0.5621 -1.9909
  307SOL    HW2  921   2.985   0.167   0.790 -1.1134  0.3121  0.1627
  308SOL     OW  922   0.200   1.240   1.849 -0.4435  0.8228 -0.6009
  308SOL    HW1  923   0.171   1.146   1.848 -0.6910  2.0909  1.6170
  308SOL    HW2  924   0.228   1.267   1.756  0.0030 -1.6228 -1.0660
  309SOL     OW  925   2.851   1.904   2.296  0.4384 -0.5782 -0.4351
  309SOL    HW1  926   2.776   1.971   2.310 -0.2963  0.1769  0.2705
  309SOL    HW2  927   2.905   1.891   2.378  0.8556 -3.5676 -1.2415
  310SOL     OW  928   2.528   1.208   2.991 -0.4238  0.4476  0.1732
  310SOL    HW1  929   2.599   1.197   2.918 -0.1544 -0.1787 -1.4660
  310SOL    HW2  930   2.476   1.122   2.986  2.4551 -1.6283 -0.2213
  311SOL     OW  931   1.827   0.936   2.849  0.7032  0.4773 -0.2022
  311SOL    HW1  932   1.796   1.028   2.873  0.5223 -0.5308  0.0883
  311SOL    HW2  933   1.772   0.899   2.769 -0.6364 -0.8430  0.7226
  312SOL     OW  934   1.333   2.245   2.636 -0.0190 -0.1300  0.0875
  312SOL    HW1  935   1.433   2.238   2.651 -0.3395  0.0450 -0.0061
  312SOL    HW2  936   1.308   2.291   2.548 -2.2093  3.0186 -2.8257
  313SOL     OW  937   0.402   0.373   0.562  0.4187  0.0173  0.4136
  313SOL    HW1  938   0.388   0.317   0.478  1.8625  2.2406 -0.0487
  313SOL    HW2  939   0.363   0.462   0.536  1.1138 -0.9471  1.0014
  314SOL     OW  940   0.598   1.968   1.269  0.4724 -0.1891 -0.1831
  314SOL    HW1  941   0.657   2.051   1.294  1.2372 -0.1422 -0.9613
  314SOL    HW2  942   0.655   1.888   1.271  1.4101  0.3114 -0.3208
  315SOL     OW  943   0.816   1.901   2.113 -0.9271 -0.0517  0.0349
  315SOL    HW1  944   0.738   1.837   2.097 -0.0708 -0.1558 -0.1730
  315SOL    HW2  945   0.833   1.915   2.219  1.1622  1.9113  2.8525
  316SOL     OW  946   0.458   2.465   0.468  0.1886  0.5831  0.4477
  316SOL    HW1  947   0.369   2.474   0.422 -2.6007  0.4523  1.5937
  316SOL    HW2  948   0.483   2.543   0.526  1.8247 -3.7953 -2.9894
  317SOL     OW  949   2.524   0.070   1.174  0.3585  0.5200  0.0556
  317SOL    HW1  950   2.518   0.058   1.072  0.2748  1.1773  0.3278
  317SOL    HW2  951   2.557   3.085   1.217  1.0727 -1.2824  0.7795
  318SOL     OW  952   1.966   2.758   0.329 -0.2615 -0.0145  0.3163
  318SOL    HW1  953   1.927   2.822   0.393  0.2817 -1.7862 -0.9209
  318SOL    HW2  954   2.060   2.725   0.361  1.5094  1.2394  0.8621
  319SOL     OW  955   1.702   0.408   2.720  0.0157 -0.1277  0.4924
  319SOL    HW1  956   1.685   0.478   2.794 -1.7115 -0.2454 -1.6271
  319SOL    HW2  957   1.642   0.324   2.732 -1.2022 -0.2965 -2.5350
  320SOL     OW  958   2.972   2.194   2.043 -0.3226  0.4871 -0.4336
  320SOL    HW1  959   2.887   2.208   1.987  3.5645  2.1488  0.3736
  320SOL    HW2  960   2.978   2.265   2.110  2.7983 -0.9613 -0.1155
  321SOL     OW  961   0.458   2.612   2.941  0.5084 -0.2723 -0.3131
  321SOL    HW1  962   0.555   2.626   2.944 -0.6619  0.4979  0.2187
  321SOL    HW2  963   0.421   2.686   2.998 -0.4130  1.5505 -0.5544
  322SOL     OW  964   2.553   0.508   2.327 -0.6493 -0.1440  0.6636
  322SOL    HW1  965   2.571   0.422   2.376  0.6575 -0.7979 -0.4129
  322SOL    HW2  966   2.493   0.569   2.381 -0.1964 -1.3436 -2.7786
  323SOL     OW  967   2.552   1.293   0.883 -0.5121  0.4876  0.5491
  323SOL    HW1  968   2.498   1.208   0.886  0.9476  0.4135  1.0776
  323SOL    HW2  969   2.643   1.280   0.925 -3.1620 -0.7931 -0.6172
  324SOL     OW  970   2.727   0.475   1.201  0.3799 -0.3354 -0.0323
  324SOL    HW1  971   2.752   0.490   1.100 -2.0215  0.2582 -1.6649
  324SOL    HW2  972   2.626   0.471   1.208 -3.1346 -0.3752 -0.1504
  325SOL     OW  973   2.699   3.061   1.699 -0.1102 -0.5018 -0.3508
  325SOL    HW1  974   2.738   0.001   1.782 -1.9361 -0.9263  1.4381
  325SOL    HW2  975   2.733   0.004   1.616 -1.3975 -1.3355 -1.0731
  326SOL     OW  976   1.867   2.851   0.096 -0.4188 -0.0711  0.7192
  326SOL    HW1  977   1.814   2.780   0.044  0.5082 -1.7759  0.1437
  326SOL    HW2  978   1.912   2.813   0.181 -0.6883  1.6923  2.7160
  327SOL     OW  979   1.796   1.696   0.395  0.3102 -0.2216 -0.0144
  327SOL    HW1  980   1.838   1.784   0.366  1.1462  0.5965  0.7783
  327SOL    HW2  981   1.797   1.689   0.499 -0.7328 -0.6432 -2.8349
  328SOL     OW  982   0.009   2.066   2.394 -0.4746  0.8262 -0.3355
  328SOL    HW1  983   0.012   2.137   2.322  0.6325 -0.2967 -0.4427
  328SOL    HW2  984   0.039   1.972   2.357  0.0359 -2.3799  1.8666
  329SOL     OW  985   0.126   2.200   1.474  0.5546  0.2721  0.4151
  329SOL    HW1  986   0.144   2.158   1.384  0.9072  0.9842 -2.4899
  329SOL    HW2  987   0.162   2.144   1.554  1.5218 -1.6678  3.9353
  330SOL     OW  988   2.732   0.938   2.854 -0.5191 -0.2643  0.0422
  330SOL    HW1  989   2.736   1.036   2.831  0.3681  2.8256 -0.0532
  330SOL    HW2  990   2.819   0.889   2.828  3.2497  0.8714 -1.3049
  331SOL     OW  991   2.203   2.357   1.141  0.2989 -0.0006  0.2764
  331SOL    HW1  992   2.154   2.334   1.058  0.5572  0.1584 -0.2039
  331SOL    HW2  993   2.235   2.456   1.138 -1.9487 -1.0519 -0.9493
  332SOL     OW  994   0.545   2.696   0.609  0.1841 -0.3786 -0.8768
  332SOL    HW1  995   0.629   2.735   0.563  0.5850  2.5510  2.2667
  332SOL    HW2  996   0.545   2.719   0.709  0.1228 -0.3229  1.3265
  333SOL     OW  997   2.099   1.808   2.332  0.1029 -0.0661  0.0602
  333SOL    HW1  998   2.091   1.910   2.342  0.0619 -0.3103  2.0732
  333SOL    HW2  999   2.195   1.783   2.311 -1.9926 -2.3744 -0.8655
  334SOL     OW 1000   0.758   1.100   0.904  0.2006 -0.2613  0.4224
  334SOL    HW1 1001   0.854   1.102   0.942  1.3658 -1.8035  1.2897
  334SOL    HW2 1002   0.695   1.141   0.972 -3.7593  0.1311 -0.9824
  335SOL     OW 1003   0.055   1.842   2.248 -0.4674  0.0525  0.1168
  335SOL    HW1 1004   3.090   1.778   2.217  0.2352 -0.4582 -1.0968
  335SOL    HW2 1005   0.111   1.881   2.166 -0.6278  2.9960  0.3605
  336SOL     OW 1006   2.391   2.758   2.373  0.0475 -0.0606 -0.2153
  336SOL    HW1 1007   2.472   2.698   2.354  0.8730 -2.4795 -1.0752
  336SOL    HW2 1008   2.413   2.859   2.373  0.7466  2.8061  0.9427
  337SOL     OW 1009   1.045   0.999   0.692 -0.0606 -0.4487 -0.2708
  337SOL    HW1 1010   0.957   0.954   0.704 -0.5230  4.1604  1.6310
  337SOL    HW2 1011   1.095   1.002   0.779  0.8169  0.1543  0.0737
  338SOL     OW 1012   1.343   2.110   1.153 -0.2902  0.3823 -0.0856
  338SOL    HW1 1013   1.373   2.040   1.220  0.1626  1.0110  0.6764
  338SOL    HW2 1014   1.382   2.201   1.169 -2.3266 -0.1365 -0.8131
  339SOL     OW 1015   0.317   1.896   1.277 -0.1396 -0.1915  0.0385
  339SOL    HW1 1016   0.410   1.930   1.268 -3.8669 -1.1519  0.9511
  339SOL    HW2 1017   0.307   1.820   1.348 -1.8247 -0.0143  2.7577
  340SOL     OW 1018   0.826   0.018   1.667 -0.2758 -0.0407 -0.8030
  340SOL    HW1 1019   0.891   0.096   1.653  0.6654 -1.7810  1.1242
  340SOL    HW2 1020   0.789   3.083   1.579  1.0089  0.0701  1.7105
  341SOL     OW 1021   2.044   1.662   1.195 -0.4910  0.6429  0.1337
  341SOL    HW1 1022   2.128   1.715   1.189 -1.2256 -1.3038 -1.9348
  341SOL    HW2 1023   2.035   1.600   1.113  2.0517  1.0460 -0.8672
  342SOL     OW 1024   2.376   1.483   0.877 -0.2051 -0.4294  0.2983
  342SOL    HW1 1025   2.442   1.409   0.892 -0.8349  2.5777 -0.5876
  342SOL    HW2 1026   2.419   1.563   0.841 -1.9274  0.4683  1.4567
  343SOL     OW 1027   2.176   0.190   0.989  0.0878  0.2180 -0.0180
  343SOL    HW1 1028   2.209   0.280   0.953 -0.0453  0.4105  1.1166
  343SOL    HW2 1029   2.208   0.116   0.925  0.4518  2.8649 -0.1526
  344SOL     OW 1030   2.293   0.294   0.395 -0.9323  0.5648  0.7185
  344SOL    HW1 1031   2.368   0.359   0.408 -0.9044 -2.1193 -0.3387
  344SOL    HW2 1032   2.282   0.236   0.479  1.5044 -0.1701  3.0087
  345SOL     OW 1033   0.881   2.814   1.922  0.3352  0.1606  0.0348
  345SOL    HW1 1034   0.933   2.810   1.837  0.0701 -1.1809  1.6686
  345SOL    HW2 1035   0.934   2.778   2.002  0.6085  2.0845 -0.1250
  346SOL     OW 1036   2.452   2.270   0.764 -0.1511  0.1910 -0.1400
  346SOL    HW1 1037   2.378   2.201   0.769  0.1102  1.6868 -2.5042
  346SOL    HW2 1038   2.422   2.346   0.704 -0.8235  0.3515  1.7447
  347SOL     OW 1039   2.300   0.170   1.259  0.0472 -0.4653 -0.0315
  347SOL    HW1 1040   2.375   0.114   1.229 -0.8660  2.0280  2.9882
  347SOL    HW2 1041   2.275   0.244   1.190 -1.7731  2.0527  0.6472
  348SOL     OW 1042   0.878   0.778   1.633 -0.6684 -0.3158  0.0897
  348SOL    HW1 1043   0.846   0.869   1.604 -1.3282 -0.5014 -2.4636
  348SOL    HW2 1044   0.830   0.703   1.583 -1.1060  0.8981 -0.8740
  349SOL     OW 1045   2.415   0.616   2.546  0.4857 -0.1255 -0.2990
  349SOL    HW1 1046   2.330   0.556   2.548 -1.4213  2.7856 -3.6732
  349SOL    HW2 1047   2.394   0.715   2.557  0.9133  0.5071 -2.0486
  350SOL     OW 1048   2.278   2.404   0.230  0.0301 -0.3272 -0.3525
  350SOL    HW1 1049   2.279   2.474   0.158  3.2677  0.1833  1.3764
  350SOL    HW2 1050   2.231   2.320   0.201 -2.9682  2.8225  2.4278
  351SOL     OW 1051   1.128   0.589   0.145  0.0624 -0.8023 -0.5965
  351SOL    HW1 1052   1.125   0.514   0.077 -0.9593 -0.2781  0.2318
  351SOL    HW2 1053   1.189   0.663   0.122 -1.4661 -0.6412 -2.3770
  352SOL     OW 1054   1.657   1.956   2.606 -0.6549  0.6731 -0.1335
  352SOL    HW1 1055   1.644   1.868   2.552  0.9044 -3.0255  0.7754
  352SOL    HW2 1056   1.730   1.932   2.675 -1.2593  0.9252  1.0558
  353SOL     OW 1057   0.569   1.308   2.749  0.6625  0.1887 -0.1588
  353SOL    HW1 1058   0.469   1.306   2.736 -0.4550 -0.6141 -0.0389
  353SOL    HW2 1059   0.606   1.402   2.729  0.7263 -1.8392  0.0456
  354SOL     OW 1060   0.813   2.713   2.732  0.4214 -0.1181 -0.7601
  354SOL    HW1 1061   0.791   2.702   2.832 -1.1565 -1.5823  0.7777
  354SOL    HW2 1062   0.836   2.624   2.690  1.0395  0.7081 -0.0329
  355SOL     OW 1063   2.324   2.789   1.652  0.0982 -0.5498 -0.1653
  355SOL    HW1 1064   2.371   2.839   1.577 -2.0447 -0.4766  0.4141
  355SOL    HW2 1065   2.301   2.850   1.728  0.2383 -1.6355 -4.6983
  356SOL     OW 1066   2.789   0.964   1.076 -0.2149 -0.1101 -0.5125
  356SOL    HW1 1067   2.879   0.915   1.056  0.9004 -0.5411 -1.8048
  356SOL    HW2 1068   2.728   0.906   1.127 -0.0114  2.6716 -0.3449
  357SOL     OW 1069   2.813   0.145   1.493  0.5144 -0.1266 -0.3638
  357SOL    HW1 1070   2.902   0.166   1.544  0.6452 -1.0228  0.1339
  357SOL    HW2 1071   2.817   0.175   1.398 -1.1033  2.1458  3.9974
  358SOL     OW 1072   3.098   1.555   1.811  0.6994  0.5186 -0.4238
  358SOL    HW1 1073   0.090   1.545   1.851  2.4372  0.7827  1.6365
  358SOL    HW2 1074   0.002   1.571   1.707  2.0519 -0.5357 -1.7511
  359SOL     OW 1075   2.848   2.879   2.431 -0.0515 -0.3261 -0.4420
  359SOL    HW1 1076   2.781   2.869   2.352 -0.9262  1.8874  1.0424
  359SOL    HW2 1077   2.916   2.801   2.431 -0.2998  0.6998  0.8303
  360SOL     OW 1078   1.044   0.352   1.372  0.0199 -0.2903  0.4876
  360SOL    HW1 1079   1.003   0.282   1.305 -4.5690 -1.4406  0.5768
  360SOL    HW2 1080   1.142   0.367   1.362 -4.2506 -1.2897 -0.0408
  361SOL     OW 1081   2.286   2.601   1.123  0.7097  0.1595 -0.2299
  361SOL    HW1 1082   2.377   2.620   1.089 -0.7703  0.4745  1.9590
  361SOL    HW2 1083   2.238   2.683   1.159 -0.4898 -0.3931 -0.2774
  362SOL     OW 1084   1.081   0.090   0.430  0.1438 -0.0495  0.2042
  362SOL    HW1 1085   0.999   0.096   0.485  0.6376  0.7382 -2.2258
  362SOL    HW2 1086   1.091   0.174   0.371  0.9853  1.7005 -5.0397
  363SOL     OW 1087   1.293   1.291   0.818 -0.0294  0.9684 -0.2096
  363SOL    HW1 1088   1.378   1.269   0.765 -0.4123  0.4576 -0.0731
  363SOL    HW2 1089   1.325   1.337   0.907  0.3322 -0.3699 -2.0027
  364SOL     OW 1090   0.366   0.663   1.513 -0.1362  0.2265  0.0685
  364SOL    HW1 1091   0.458   0.708   1.524 -0.0032 -0.5441  0.3617
  364SOL    HW2 1092   0.296   0.712   1.458  0.4166 -1.0229 -0.5682
  365SOL     OW 1093   2.606   0.806   0.853  0.2918  0.1115  0.2103
  365SOL    HW1 1094   2.696   0.779   0.812 -0.0570 -1.7701 -0.4322
  365SOL    HW2 1095   2.609   0.816   0.953  1.3822 -0.0823 -1.8913
  366SOL     OW 1096   2.819   1.640   0.963 -0.2340  0.0132 -0.5909
  366SOL    HW1 1097   2.798   1.731   0.921  0.3972  3.0173  0.5771
  366SOL    HW2 1098   2.804   1.559   0.899  0.3278 -2.3987 -1.2612
  367SOL     OW 1099   1.857   2.008   2.324  0.0469 -0.5195 -0.3222
  367SOL    HW1 1100   1.826   1.914   2.345 -2.3559  0.3779  0.7412
  367SOL    HW2 1101   1.811   2.070   2.390  2.3864 -1.8792 -1.9812
  368SOL     OW 1102   2.666   2.064   1.263 -0.5654 -0.2139 -0.1142
  368SOL    HW1 1103   2.722   1.980   1.288 -1.5764 -0.2232  0.9735
  368SOL    HW2 1104   2.675   2.098   1.176 -0.2377 -0.0023  3.5619
  369SOL     OW 1105   2.134   2.862   2.743 -0.3099  0.4143  0.1197
  369SOL    HW1 1106   2.110   2.934   2.672  0.0371 -2.5624 -0.6276
  369SOL    HW2 1107   2.196   2.896   2.820  0.6650  0.1935 -0.5145
  370SOL     OW 1108   0.647   0.519   1.007 -0.2186  0.1803 -0.3439
  370SOL    HW1 1109   0.561   0.505   0.950 -0.2568  3.9912  0.2510
  370SOL    HW2 1110   0.719   0.445   0.994 -0.8508  0.3801 -0.8031
  371SOL     OW 1111   0.614   1.677   0.472 -0.0547 -0.0631  0.2395
  371SOL    HW1 1112   0.596   1.607   0.403  1.2153  1.2351  0.1489
  371SOL    HW2 1113   0.707   1.711   0.454 -3.5874  0.0626 -0.4882
  372SOL     OW 1114   0.881   1.187   2.996  0.4751  0.1059  0.1531
  372SOL    HW1 1115   0.919   1.126   3.067  0.2167  1.0985 -1.1235
  372SOL    HW2 1116   0.860   1.138   2.905  1.9371 -1.2604 -1.2327
  373SOL     OW 1117   1.157   2.636   2.453 -0.1241 -0.4273  0.3132
  373SOL    HW1 1118   1.088   2.707   2.437  2.8911 -2.0186  2.0671
  373SOL    HW2 1119   1.178   2.626   2.550 -2.1217  0.1785 -1.3051
  374SOL     OW 1120   0.601   2.135   0.325  0.5339  0.0874 -0.2379
  374SOL    HW1 1121   0.689   2.132   0.371 -0.9918 -3.0944  1.4752
  374SOL    HW2 1122   0.539   2.070   0.377  1.2551  1.0038 -1.8280
  375SOL     OW 1123   0.587   0.713   1.811  0.0967 -0.1065 -0.1896
  375SOL    HW1 1124   0.641   0.630   1.800 -0.3676  0.2359  3.1492
  375SOL    HW2 1125   0.626   0.761   1.890 -0.7403 -2.0574  0.4279
  376SOL     OW 1126   0.300   2.429   1.455 -0.2019 -0.5395 -0.0862
  376SOL    HW1 1127   0.221   2.360   1.451 -1.0911 -0.8314  1.8976
  376SOL    HW2 1128   0.324   2.447   1.551  1.7962  1.5190 -0.4994
  377SOL     OW 1129   2.738   1.662   2.832  0.1779  0.5247 -0.1039
  377SOL    HW1 1130   2.772   1.577   2.874  2.4732  0.5320  0.4767
  377SOL    HW2 1131   2.697   1.651   2.738  0.7098  0.9409 -1.9392
  378SOL     OW 1132   1.460   3.029   3.099 -0.3023  0.5920 -0.9378
  378SOL    HW1 1133   1.459   2.927   0.005  0.7647 -1.5245 -2.6249
  378SOL    HW2 1134   1.551   3.065   0.013 -0.8064 -1.9679 -0.5762
  379SOL     OW 1135   1.563   0.683   0.784  0.1430  0.5381 -0.2672
  379SOL    HW1 1136   1.614   0.666   0.702 -1.6872  0.4035  3.8259
  379SOL    HW2 1137   1.600   0.760   0.834  0.5315 -0.3405  1.1559
  380SOL     OW 1138   0.170   1.844   1.723  0.0449 -0.0722 -0.5082
  380SOL    HW1 1139   0.263   1.809   1.706 -1.6142 -1.0718 -0.7069
  380SOL    HW2 1140   0.113   1.768   1.757 -0.8164 -1.0685  2.8099
  381SOL     OW 1141   2.339   1.386   2.530  0.3690  0.7302 -0.4300
  381SOL    HW1 1142   2.347   1.415   2.433  0.9648  1.1140 -0.9680
  381SOL    HW2 1143   2.241   1.364   2.550  1.5462 -0.6386 -2.8530
  382SOL     OW 1144   0.047   2.911   2.750 -0.7501 -0.6307 -0.4469
  382SOL    HW1 1145   3.051   2.923   2.743  2.1717 -0.8307  1.5320
  382SOL    HW2 1146   0.100   2.936   2.670  1.0427  0.6325 -0.9845
  383SOL     OW 1147   1.663   1.157   2.909  0.3981 -0.5646  0.0575
  383SOL    HW1 1148   1.661   1.242   2.854 -0.0678  0.4100  0.6454
  383SOL    HW2 1149   1.575   1.144   2.953  0.7346 -1.5079 -2.7471
  384SOL     OW 1150   1.033   2.032   1.108 -0.9160  0.0261  0.1125
  384SOL    HW1 1151   0.975   2.048   1.192 -1.7504  0.9070  0.0225
  384SOL    HW2 1152   1.014   2.104   1.037  2.6190  0.4911 -2.0427
  385SOL     OW 1153   1.833   2.814   0.746  0.4352 -0.3569 -0.0481
  385SOL    HW1 1154   1.818   2.882   0.817 -0.3262  1.1379 -1.4963
  385SOL    HW2 1155   1.743   2.787   0.701  0.6560  1.4314 -0.3879
  386SOL     OW 1156   1.561   2.026   0.989 -0.1518  0.0438 -0.1155
  386SOL    HW1 1157   1.501   2.067   1.058 -0.0487  1.6143  1.7224
  386SOL    HW2 1158   1.542   1.931   0.979  0.9422 -0.6368 -0.6163
  387SOL     OW 1159   2.740   2.310   1.470  0.1777 -0.4159  1.0852
  387SOL    HW1 1160   2.652   2.352   1.438 -1.1569  1.4549  0.6628
  387SOL    HW2 1161   2.771   2.241   1.399  2.9278  2.1762 -0.9886
  388SOL     OW 1162   2.598   0.921   1.661 -0.4733 -0.1551  0.5052
  388SOL    HW1 1163   2.652   0.846   1.620 -0.9428  3.1215  1.7386
  388SOL    HW2 1164   2.649   0.986   1.720  0.1106  0.4643 -0.9115
  389SOL     OW 1165   1.960   0.820   0.111  0.4875 -0.0580  0.2250
  389SOL    HW1 1166   1.978   0.922   0.101 -0.4296 -0.6339  0.6863
  389SOL    HW2 1167   2.038   0.772   0.063 -2.0381 -0.8193 -0.4816
  390SOL     OW 1168   1.382   1.867   2.509  0.3139 -0.1353 -0.3407
  390SOL    HW1 1169   1.425   1.884   2.418  1.3006  0.5645 -0.1228
  390SOL    HW2 1170   1.385   1.764   2.527 -0.1789  0.2028 -0.8736
  391SOL     OW 1171   1.241   2.073   0.268  0.0965 -0.1485  0.0672
  391SOL    HW1 1172   1.235   2.012   0.352 -0.8381  0.8862  3.2442
  391SOL    HW2 1173   1.155   2.067   0.211 -0.8575  0.9628 -1.5076
  392SOL     OW 1174   0.321   2.490   1.729  0.1699  0.0308  0.1675
  392SOL    HW1 1175   0.350   2.585   1.751 -1.5615 -0.5139 -0.5464
  392SOL    HW2 1176   0.375   2.419   1.782 -0.9175 -0.9876  1.0533
  393SOL     OW 1177   1.434   2.220   0.162 -0.0003  0.0315 -0.0107
  393SOL    HW1 1178   1.358   2.161   0.204  0.4216  2.5246 -1.5295
  393SOL    HW2 1179   1.402   2.254   0.072 -0.8921 -1.9207 -1.7439
  394SOL     OW 1180   0.316   0.597   2.457 -0.9614  0.1076  0.8512
  394SOL    HW1 1181   0.316   0.694   2.491 -1.5572 -1.4407  0.7655
  394SOL    HW2 1182   0.391   0.543   2.497 -2.2211  1.9950 -2.1687
  395SOL     OW 1183   0.559   1.204   1.104  0.4431  0.2338 -0.3203
  395SOL    HW1 1184   0.568   1.293   1.053  0.4732 -1.5756 -2.5662
  395SOL    HW2 1185   0.471   1.156   1.081  1.1237  0.7937  2.5534
  396SOL     OW 1186   1.682   0.892   2.132 -0.1121  0.3707 -0.4846
  396SOL    HW1 1187   1.734   0.929   2.050 -0.6316  1.0292 -3.8680
  396SOL    HW2 1188   1.600   0.948   2.155  0.9681 -2.1846  2.1650
  397SOL     OW 1189   0.919   0.005   0.074  0.1455 -0.3136  0.3015
  397SOL    HW1 1190   0.858   0.020   3.097 -0.8889  0.1177  0.2759
  397SOL    HW2 1191   0.871   0.036   0.156  1.0790  3.5317 -2.4202
  398SOL     OW 1192   0.716   2.216   2.664  0.2347 -0.7678  0.0274
  398SOL    HW1 1193   0.802   2.246   2.716  1.7229  2.9709  3.7766
  398SOL    HW2 1194   0.654   2.173   2.732 -1.0935  0.1618 -0.7867
  399SOL     OW 1195   2.078   1.385   2.484 -0.0715 -0.4997 -0.1778
  399SOL    HW1 1196   2.017   1.330   2.546 -1.3601  1.5622 -0.0516
  399SOL    HW2 1197   2.042   1.387   2.392 -2.0428  0.8120  1.7098
  400SOL     OW 1198   2.128   1.383   1.571  0.1357  0.4583  0.1620
  400SOL    HW1 1199   2.072   1.322   1.510  0.2353 -1.7147 -2.6416
  400SOL    HW2 1200   2.111   1.482   1.541 -4.4695 -1.2064  0.4211
  401SOL     OW 1201   1.354   1.218   1.218 -0.5321  0.2594 -0.4331
  401SOL    HW1 1202   1.376   1.130   1.260 -0.7705  2.1160 -0.6084
  401SOL    HW2 1203   1.256   1.229   1.204 -1.8116  1.7919  0.3740
  402SOL     OW 1204   0.039   2.512   1.730 -0.0944  0.4110 -0.0617
  402SOL    HW1 1205   3.086   2.469   1.654 -1.3612 -2.4934 -1.6981
  402SOL    HW2 1206   0.140   2.509   1.699  3.8856 -0.0983  0.4474
  403SOL     OW 1207   0.229   1.268   2.112  0.1628  0.1582  0.3527
  403SOL    HW1 1208   0.146   1.214   2.142 -1.6267 -0.0038 -1.1001
  403SOL    HW2 1209   0.234   1.275   2.010  0.5323  2.7423  0.5104
  404SOL     OW 1210   2.235   1.841   1.499  0.1999 -0.1277 -0.3064
  404SOL    HW1 1211   2.227   1.930   1.545  2.7407 -2.0713  0.8899
  404SOL    HW2 1212   2.282   1.839   1.405 -0.6291 -0.6013 -1.6599
  405SOL     OW 1213   2.807   0.427   2.768  0.3132  0.3464  0.5838
  405SOL    HW1 1214   2.720   0.438   2.719  3.2148 -0.1640  0.1049
  405SOL    HW2 1215   2.882   0.400   2.701  2.5215  0.0082 -0.0555
  406SOL     OW 1216   1.070   1.391   2.957 -0.0814 -0.9502 -0.2974
  406SOL    HW1 1217   1.008   1.318   2.989  1.0375  0.1081 -1.7393
  406SOL    HW2 1218   1.104   1.442   3.033  0.6823 -0.8522 -1.4572
  407SOL     OW 1219   1.718   2.433   0.067  0.5426  0.0978  0.2640
  407SOL    HW1 1220   1.714   2.475   0.162 -0.4668  3.0765 -2.3239
  407SOL    HW2 1221   1.633   2.464   0.014 -0.7580  3.1735  0.5681
  408SOL     OW 1222   0.397   0.228   0.343 -0.8743 -0.5338 -0.5489
  408SOL    HW1 1223   0.351   0.161   0.283  0.4171 -0.0431  0.0217
  408SOL    HW2 1224   0.439   0.308   0.296  0.8452  0.5565 -0.4984
  409SOL     OW 1225   2.316   1.838   1.216  0.6054  0.0243  0.9861
  409SOL    HW1 1226   2.313   1.840   1.114 -0.7869  2.0080 -2.3753
  409SOL    HW2 1227   2.348   1.745   1.245 -0.1348  0.1198  0.9419
  410SOL     OW 1228   2.207   2.321   3.065  0.3683  0.3707 -0.4515
  410SOL    HW1 1229   2.252   2.330   2.977  0.8311  1.1977 -0.7245
  410SOL    HW2 1230   2.137   2.396   3.078  0.8636 -3.8103  0.5284
  411SOL     OW 1231   0.174   1.099   0.603 -0.2274  0.1125  0.3688
  411SOL    HW1 1232   0.185   1.051   0.691  0.4545 -0.2251  2.5430
  411SOL    HW2 1233   0.115   1.178   0.609  1.7578 -1.8677 -0.3005
  412SOL     OW 1234   1.498   2.696   0.259 -0.1812  0.0166  0.3283
  412SOL    HW1 1235   1.584   2.656   0.296  0.8377 -0.2735  0.2240
  412SOL    HW2 1236   1.482   2.777   0.316  0.7857 -2.9442 -1.2953
  413SOL     OW 1237   1.698   0.351   2.299  0.0858 -0.5550  0.0615
  413SOL    HW1 1238   1.621   0.333   2.231 -1.4574  0.4455 -0.9185
  413SOL    HW2 1239   1.736   0.263   2.334  0.2695 -0.9270  4.1770
  414SOL     OW 1240   2.917   0.481   0.581  0.2425  0.0986 -0.3353
  414SOL    HW1 1241   2.975   0.540   0.525  1.8562 -1.5629  1.2478
  414SOL    HW2 1242   2.965   0.396   0.597 -1.5391  1.2781 -1.5654
  415SOL     OW 1243   1.039   1.675   1.491  0.2916 -0.1002  0.2766
  415SOL    HW1 1244   1.063   1.752   1.555  1.0420 -0.7464 -0.8253
  415SOL    HW2 1245   0.988   1.602   1.545 -0.3383  0.7745  1.8373
  416SOL     OW 1246   0.299   0.105   2.948  0.1213 -0.0759  0.8620
  416SOL    HW1 1247   0.218   0.143   2.895  2.5279  2.0412 -0.5594
  416SOL    HW2 1248   0.385   0.128   2.897  1.0328  0.5391  0.5099
  417SOL     OW 1249   2.525   2.885   1.275  0.3881  0.2764  0.8270
  417SOL    HW1 1250   2.424   2.884   1.277  0.7680  0.3652 -0.1404
  417SOL    HW2 1251   2.559   2.791   1.258 -0.4246  3.3781  2.5903
  418SOL     OW 1252   0.766   0.544   2.514 -0.1051 -0.1252 -0.0216
  418SOL    HW1 1253   0.824   0.555   2.433 -1.4915  0.8841 -1.1331
  418SOL    HW2 1254   0.732   0.638   2.543 -0.7644 -0.9105  0.0003
  419SOL     OW 1255   0.276   1.489   1.225  0.2317  0.0986  0.7533
  419SOL    HW1 1256   0.240   1.399   1.192  1.1222  0.4469 -1.4675
  419SOL    HW2 1257   0.248   1.557   1.153  0.7461 -0.3220  1.0087
  420SOL     OW 1258   0.928   2.125   0.849  0.1289  0.7186 -0.1859
  420SOL    HW1 1259   0.861   2.202   0.842 -1.1628 -1.7547 -0.2780
  420SOL    HW2 1260   0.877   2.033   0.842  1.1820 -0.3063  1.0411
  421SOL     OW 1261   2.059   2.058   2.147 -0.4393 -0.4010  0.7881
  421SOL    HW1 1262   2.072   1.993   2.066 -1.5794 -0.9996  2.2994
  421SOL    HW2 1263   1.993   2.023   2.216  1.9399 -0.5910 -0.3829
  422SOL     OW 1264   3.002   0.581   2.877  0.0254 -0.4398  0.2862
  422SOL    HW1 1265   2.937   0.509   2.839 -1.2666  0.9739  0.7692
  422SOL    HW2 1266   2.995   0.589   2.978 -0.2661  0.5232  0.8496
  423SOL     OW 1267   1.216   2.155   0.912  0.0872  0.2703  0.1538
  423SOL    HW1 1268   1.118   2.120   0.888 -0.9779 -0.8493 -1.3932
  423SOL    HW2 1269   1.253   2.112   0.998  0.0221 -0.8321 -0.7127
  424SOL     OW 1270   0.846   1.528   1.611 -0.0002  0.0950  0.1444
  424SOL    HW1 1271   0.861   1.465   1.531  0.3098  0.7359  0.4880
  424SOL    HW2 1272   0.757   1.520   1.654 -0.0070 -1.4678 -1.3060
  425SOL     OW 1273   3.100   2.611   2.184 -0.3563  0.2224 -0.3273
  425SOL    HW1 1274   0.090   2.579   2.154  0.1053 -0.4388  0.6887
  425SOL    HW2 1275   3.054   2.640   2.096  1.4163  0.3914 -0.9644
  426SOL     OW 1276   1.916   2.960   0.511 -0.5013  0.1790  0.1013
  426SOL    HW1 1277   1.917   2.929   0.607 -0.1753 -2.6390  0.0564
  426SOL    HW2 1278   1.951   3.056   0.507 -2.3602  0.9073  1.3468
  427SOL     OW 1279   0.710   0.827   2.919  0.1047 -0.3108  0.2203
  427SOL    HW1 1280   0.803   0.794   2.937 -3.5983  2.2018  0.0386
  427SOL    HW2 1281   0.673   0.804   2.823  0.9277 -1.2058 -1.1787
  428SOL     OW 1282   2.012   1.449   0.342 -0.1948 -0.3135  0.3029
  428SOL    HW1 1283   1.964   1.363   0.358  0.0398  4.1409 -0.6023
  428SOL    HW2 1284   2.086   1.444   0.269  0.4318  0.5795 -1.5934
  429SOL     OW 1285   0.020   0.053   0.370  0.1197 -0.0222  0.4645
  429SOL    HW1 1286   0.076   0.037   0.450  2.6567 -0.8473 -0.4389
  429SOL    HW2 1287   3.037   3.104   0.373  0.0973 -2.9336  2.2889
  430SOL     OW 1288   0.597   2.801   1.969 -0.1379  0.6083  0.5300
  430SOL    HW1 1289   0.600   2.882   2.029  1.2716 -1.6910  0.4223
  430SOL    HW2 1290   0.690   2.773   1.937  0.7444  1.3137 -2.3462
  431SOL     OW 1291   2.521   0.994   1.398  0.3223 -0.1366  0.8339
  431SOL    HW1 1292   2.549   1.092   1.390  0.1293  0.3464 -0.9603
  431SOL    HW2 1293   2.519   0.955   1.490  0.1799 -2.6314 -0.1608
  432SOL     OW 1294   1.926   2.283   2.060  0.5832  0.1279  0.3342
  432SOL    HW1 1295   1.835   2.256   2.083  1.3810 -0.3546 -0.9725
  432SOL    HW2 1296   1.994   2.219   2.100  0.4541  2.8570 -2.9529
  433SOL     OW 1297   0.974   2.150   0.486 -0.6274 -0.1267 -0.9869
  433SOL    HW1 1298   0.997   2.057   0.445  1.1675 -1.6341  0.1056
  433SOL    HW2 1299   1.058   2.203   0.502  0.7127 -0.5528 -2.1886
  434SOL     OW 1300   0.456   2.204   2.300  0.2832  0.1293 -0.1590
  434SOL    HW1 1301   0.394   2.203   2.384 -1.2619 -0.5178  1.2955
  434SOL    HW2 1302   0.403   2.231   2.216  0.3560  0.9752  0.3531
  435SOL     OW 1303   0.451   0.697   0.183 -0.0172 -0.2545 -0.4457
  435SOL    HW1 1304   0.392   0.618   0.164 -0.1218 -1.7751 -2.6276
  435SOL    HW2 1305   0.427   0.763   0.115  0.1325 -1.2646  0.4524
  436SOL     OW 1306   0.372   2.890   1.377  0.5128  0.1237 -0.2719
  436SOL    HW1 1307   0.361   2.796   1.344 -0.9390  1.9963 -1.2553
  436SOL    HW2 1308   0.280   2.935   1.375  0.5389  0.1297  0.2176
  437SOL     OW 1309   1.747   1.975   1.571  0.2283  0.0854 -0.3355
  437SOL    HW1 1310   1.651   2.012   1.583  0.5621  0.1979  1.2144
  437SOL    HW2 1311   1.802   2.039   1.518  0.4767 -3.4514 -2.2829
  438SOL     OW 1312   0.001   1.675   0.597 -0.3761  0.7966  0.0215
  438SOL    HW1 1313   0.097   1.681   0.632 -0.2213 -0.0553  1.0310
  438SOL    HW2 1314   3.088   1.747   0.527  0.5200 -1.8676 -3.1091
  439SOL     OW 1315   0.205   0.655   0.811  0.2132 -0.5188  0.3128
  439SOL    HW1 1316   0.284   0.622   0.867  0.7161  1.7414 -1.0414
  439SOL    HW2 1317   0.125   0.598   0.819 -0.3905  1.0051  0.3013
  440SOL     OW 1318   0.342   2.949   2.312  0.6118  0.7853 -0.3218
  440SOL    HW1 1319   0.352   2.859   2.358 -0.0389  1.1218 -0.7748
  440SOL    HW2 1320   0.397   2.951   2.227 -1.4711 -3.6603 -1.3513
  441SOL     OW 1321   3.078   0.490   0.896 -0.3812  0.7342  0.5125
  441SOL    HW1 1322   3.101   0.446   0.987  0.1953 -1.7873 -1.3045
  441SOL    HW2 1323   3.053   0.416   0.827 -1.7707 -0.0320  0.6099
  442SOL     OW 1324   1.602   2.228   2.725  0.1843  0.2341 -0.0535
  442SOL    HW1 1325   1.624   2.238   2.822  0.8120 -0.6399 -2.1077
  442SOL    HW2 1326   1.679   2.166   2.690  1.9914 -0.6013 -0.5725
  443SOL     OW 1327   0.646   1.319   3.024 -0.5454 -0.3453  0.2629
  443SOL    HW1 1328   0.630   1.300   2.926  1.1505 -1.4051  0.4030
  443SOL    HW2 1329   0.744   1.290   3.043  1.3680 -0.2460 -1.8862
  444SOL     OW 1330   1.519   1.539   2.200 -0.3151 -0.0708  0.1343
  444SOL    HW1 1331   1.488   1.626   2.149  1.4401  3.3817 -0.7742
  444SOL    HW2 1332   1.507   1.559   2.301 -1.3066  2.2689 -0.0842
  445SOL     OW 1333   0.168   3.028   0.837 -0.3609 -0.1767  0.4570
  445SOL    HW1 1334   0.224   3.077   0.907 -2.8843  0.6049 -0.2145
  445SOL    HW2 1335   0.068   3.050   0.844 -0.5553 -0.0244 -2.5060
  446SOL     OW 1336   2.191   0.628   1.277  0.2468 -0.3236  0.6035
  446SOL    HW1 1337   2.155   0.719   1.269 -2.2042 -1.7314 -0.3789
  446SOL    HW2 1338   2.118   0.576   1.221 -2.0116  3.5674 -2.0143
  447SOL     OW 1339   0.080   0.812   0.034  0.2628 -0.3311 -0.4113
  447SOL    HW1 1340   0.104   0.817   0.134  0.2665  3.4023  0.5637
  447SOL    HW2 1341   3.103   0.750   0.028  0.4673 -1.2395 -0.1236
  448SOL     OW 1342   1.508   2.099   1.554  0.3105  0.0602 -0.1868
  448SOL    HW1 1343   1.526   2.195   1.526 -1.7490  0.2542  1.2887
  448SOL    HW2 1344   1.446   2.094   1.634  1.0558 -1.8164  1.1026
  449SOL     OW 1345   1.026   1.327   0.778  0.4988 -0.0462 -0.2814
  449SOL    HW1 1346   1.122   1.313   0.747 -2.8767 -2.1720  1.4039
  449SOL    HW2 1347   1.007   1.423   0.798  0.3107 -1.2438 -1.7476
  450SOL     OW 1348   3.091   1.962   1.939  0.1697  0.0145 -0.0998
  450SOL    HW1 1349   3.051   2.024   2.011  0.1972  0.5527  0.2019
  450SOL    HW2 1350   3.033   1.881   1.923  1.0259  0.6778  2.0469
  451SOL     OW 1351   2.461   1.528   2.708 -0.3850 -0.4962  0.1358
  451SOL    HW1 1352   2.421   1.468   2.634 -3.2940  0.8597  0.5313
  451SOL    HW2 1353   2.387   1.546   2.775  0.9137 -0.1267 -1.3953
  452SOL     OW 1354   1.599   0.651   1.373 -0.1876  0.4196 -0.1079
  452SOL    HW1 1355   1.515   0.691   1.404  3.3552 -0.3015 -1.6662
  452SOL    HW2 1356   1.682   0.701   1.403  0.2502 -0.1558  0.8363
  453SOL     OW 1357   1.966   1.012   1.450  0.0398 -0.2272 -0.5502
  453SOL    HW1 1358   1.892   1.045   1.510  0.7546 -1.8588  0.8466
  453SOL    HW2 1359   2.022   1.085   1.406  0.8670 -1.2050 -1.5480
  454SOL     OW 1360   2.794   0.912   0.235  0.3540  0.0801 -0.4720
  454SOL    HW1 1361   2.898   0.922   0.252  4.0534 -0.7636  0.0432
  454SOL    HW2 1362   2.748   0.872   0.317  2.6213 -0.0669 -0.2855
  455SOL     OW 1363   2.683   1.629   1.212 -0.3244 -0.0738 -0.4049
  455SOL    HW1 1364   2.722   1.632   1.117  0.9020 -2.1033  0.6559
  455SOL    HW2 1365   2.735   1.704   1.264  1.5798 -2.0643 -2.8307
  456SOL     OW 1366   0.682   0.146   1.302 -0.1441 -0.5298  0.1901
  456SOL    HW1 1367   0.686   0.238   1.347 -0.9167  1.7569  0.5415
  456SOL    HW2 1368   0.682   0.074   1.373 -1.5971  0.3325 -1.7817
  457SOL     OW 1369   1.798   3.018   0.944  0.0047 -0.1271 -0.2540
  457SOL    HW1 1370   1.701   3.010   0.974 -0.1275  2.9714 -0.6754
  457SOL    HW2 1371   1.838   0.002   0.980  0.3004  0.6324  2.5752
  458SOL     OW 1372   2.528   0.532   0.581  0.2009 -0.0111  0.2183
  458SOL    HW1 1373   2.591   0.484   0.645 -2.2702  1.5261 -2.5216
  458SOL    HW2 1374   2.446   0.570   0.625 -0.3925 -0.8309 -1.4915
  459SOL     OW 1375   1.797   0.607   0.054 -0.1093  0.3645 -0.1762
  459SOL    HW1 1376   1.832   0.699   0.082  2.5816  0.0942  0.7375
  459SOL    HW2 1377   1.866   0.544   0.016  0.0104  1.7787  0.1680
  460SOL     OW 1378   2.961   2.494   2.580  0.0203 -0.3458  0.2372
  460SOL    HW1 1379   2.861   2.483   2.565 -0.3872  3.6682  1.6423
  460SOL    HW2 1380   2.994   2.578   2.534 -0.7262 -1.0955 -0.7407
  461SOL     OW 1381   0.770   1.916   0.064 -0.7128 -0.0765 -0.2127
  461SOL    HW1 1382   0.717   2.002   0.064 -1.7163  1.2524  2.2239
  461SOL    HW2 1383   0.736   1.855   3.094  3.7747  1.7811 -0.9320
  462SOL     OW 1384   2.168   2.497   0.677  0.0570 -0.1698  0.6398
  462SOL    HW1 1385   2.136   2.408   0.713  1.6871 -0.9005 -0.4924
  462SOL    HW2 1386   2.128   2.573   0.732  1.8298  0.3222 -0.1187
  463SOL     OW 1387   0.012   0.653   0.488 -0.8630 -0.7354 -0.0494
  463SOL    HW1 1388   0.114   0.630   0.496  0.2565 -0.3124  0.0498
  463SOL    HW2 1389   3.082   0.734   0.537 -1.0045  0.0387 -0.4386
  464SOL     OW 1390   0.758   2.516   0.322  0.2297  0.4620  0.1806
  464SOL    HW1 1391   0.660   2.494   0.342  1.2711  0.1638 -0.8566
  464SOL    HW2 1392   0.815   2.430   0.313 -0.0826 -1.0812  0.2380
  465SOL     OW 1393   2.218   0.691   0.398 -0.6018 -0.2624  0.0840
  465SOL    HW1 1394   2.176   0.758   0.463 -1.0471  0.4054 -0.2280
  465SOL    HW2 1395   2.286   0.732   0.335 -0.4406 -0.0137 -0.5597
  466SOL     OW 1396   2.198   0.167   0.143 -0.1654  0.0544  0.4033
  466SOL    HW1 1397   2.235   0.165   0.235 -1.1490  0.9838 -0.6787
  466SOL    HW2 1398   2.150   0.082   0.120  1.8966 -0.4763 -2.4717
  467SOL     OW 1399   1.159   0.478   1.997 -0.0886 -0.1651 -0.0165
  467SOL    HW1 1400   1.142   0.525   1.908 -0.1704 -0.9831 -1.2802
  467SOL    HW2 1401   1.161   0.541   2.078  0.1731  0.3472  2.3515
  468SOL     OW 1402   2.793   0.554   2.182 -0.3383  0.2997  0.4005
  468SOL    HW1 1403   2.812   0.649   2.148  1.3714 -3.0673  0.5412
  468SOL    HW2 1404   2.723   0.558   2.254  3.8841  0.2334 -0.3270
  469SOL     OW 1405   0.809   2.672   2.396  0.7907 -0.0808 -0.4506
  469SOL    HW1 1406   0.798   2.584   2.447 -0.6619 -3.0315  2.0515
  469SOL    HW2 1407   0.727   2.678   2.335 -1.5123  0.1782  0.7558
  470SOL     OW 1408   1.858   1.269   1.878  0.4181  0.3047  0.0948
  470SOL    HW1 1409   1.953   1.309   1.882  0.6444 -1.4516  0.3702
  470SOL    HW2 1410   1.797   1.329   1.938 -1.6611  1.3674  2.3984
  471SOL     OW 1411   2.663   1.168   0.119  0.1379 -0.3795 -0.0142
  471SOL    HW1 1412   2.589   1.176   0.049 -1.3277 -2.2978 -0.1486
  471SOL    HW2 1413   2.688   1.071   0.137  0.3967 -0.7998 -0.8124
  472SOL     OW 1414   0.336   2.832   0.465 -0.2387  0.9168 -0.1445
  472SOL    HW1 1415   0.249   2.787   0.498  0.8346  0.6522  0.7208
  472SOL    HW2 1416   0.407   2.798   0.527 -1.9652  0.1738 -0.3303
  473SOL     OW 1417   0.958   2.842   2.528  0.4376 -0.5084 -0.4412
  473SOL    HW1 1418   0.901   2.778   2.474  2.1653  0.3616  0.9131
  473SOL    HW2 1419   0.930   2.821   2.627  1.3492  0.9489 -0.0187
  474SOL     OW 1420   1.665   2.972   2.014  0.8772  0.0716 -0.0051
  474SOL    HW1 1421   1.661   2.894   1.945 -0.8015 -0.9645 -0.2910
  474SOL    HW2 1422   1.737   2.964   2.081 -0.7182 -2.0588 -0.5735
  475SOL     OW 1423   0.893   2.517   3.101 -0.4767 -0.3119 -0.0777
  475SOL    HW1 1424   0.975   2.503   0.058 -3.1145  0.3741 -0.5579
  475SOL    HW2 1425   0.842   2.431   3.079  0.0508  0.1104  3.4342
  476SOL     OW 1426   0.752   0.758   1.043 -0.5714 -0.1617 -0.1126
  476SOL    HW1 1427   0.777   0.784   0.949  0.5399 -3.1766  1.6319
  476SOL    HW2 1428   0.705   0.670   1.038  0.5221  2.2623 -0.0097
  477SOL     OW 1429   1.697   2.196   1.223  0.0110  0.0165 -0.2314
  477SOL    HW1 1430   1.642   2.281   1.205 -0.2364 -0.3501  1.4439
  477SOL    HW2 1431   1.658   2.114   1.179 -1.5653  1.2926 -1.2889
  478SOL     OW 1432   0.455   0.930   2.263 -0.0493  0.1674 -0.0899
  478SOL    HW1 1433   0.387   0.948   2.189  1.7590  0.2393  0.4000
  478SOL    HW2 1434   0.528   0.871   2.222  2.5690  2.3193 -0.4116
  479SOL     OW 1435   0.644   3.007   0.684 -0.2054  0.2809  0.1809
  479SOL    HW1 1436   0.619   2.982   0.774  1.5476  1.9391 -4.7738
  479SOL    HW2 1437   0.564   3.060   0.650 -0.7369 -2.5904  1.5756
  480SOL     OW 1438   2.419   2.503   2.877  0.2005  0.3985  0.2459
  480SOL    HW1 1439   2.442   2.466   2.785 -1.9131 -0.9387  0.1951
  480SOL    HW2 1440   2.483   2.474   2.947 -0.8148 -1.8823 -0.2210
  481SOL     OW 1441   2.573   0.757   1.149 -0.7221 -0.4815 -0.1505
  481SOL    HW1 1442   2.491   0.818   1.154 -0.1405 -1.2561  2.8538
  481SOL    HW2 1443   2.572   0.696   1.229  0.6810 -0.2183 -1.6044
  482SOL     OW 1444   1.349   2.505   1.691  0.2082 -0.1462 -0.1931
  482SOL    HW1 1445   1.430   2.481   1.633 -0.7727 -2.9971  2.6409
  482SOL    HW2 1446   1.369   2.483   1.785  0.9626  0.9935 -1.1447
  483SOL     OW 1447   0.184   1.443   2.985  0.2388 -0.3317 -0.0254
  483SOL    HW1 1448   0.255   1.496   3.034  1.9254  0.5054 -0.7848
  483SOL    HW2 1449   0.182   1.347   3.024  1.1730 -0.6388 -0.0041
  484SOL     OW 1450   1.476   1.957   2.264  0.0026  0.5308 -0.6200
  484SOL    HW1 1451   1.381   1.930   2.235 -1.9710 -2.7953 -0.6116
  484SOL    HW2 1452   1.521   2.022   2.197  0.6644  4.3318  1.8420
  485SOL     OW 1453   0.284   0.166   2.208  0.4107  0.1894  0.0968
  485SOL    HW1 1454   0.189   0.191   2.186  0.1709 -1.5613  0.5197
  485SOL    HW2 1455   0.298   0.070   2.228 -1.3494  2.4063 -1.8855
  486SOL     OW 1456   1.247   0.285   0.345  0.1177  0.3249 -0.5508
  486SOL    HW1 1457   1.253   0.228   0.260  0.2334  0.6896 -1.6280
  486SOL    HW2 1458   1.337   0.308   0.377  0.0597  2.0410 -2.4187
  487SOL     OW 1459   1.279   2.902   0.950  0.0147 -0.5556  0.4092
  487SOL    HW1 1460   1.337   2.882   0.873 -1.2389 -0.9345  3.4467
  487SOL    HW2 1461   1.193   2.946   0.915  1.8365  1.6797  0.2519
  488SOL     OW 1462   2.107   0.762   0.774  0.3939 -0.6952 -0.0236
  488SOL    HW1 1463   2.113   0.837   0.838 -0.8168 -1.9625 -4.5272
  488SOL    HW2 1464   2.080   0.802   0.679  0.0148  1.4406 -1.7646
  489SOL     OW 1465   1.276   2.743   1.335 -0.8201 -0.4245 -0.5730
  489SOL    HW1 1466   1.354   2.733   1.407  1.8117  1.1646  3.7777
  489SOL    HW2 1467   1.188   2.708   1.357  0.4458  1.0001 -0.1945
  490SOL     OW 1468   0.881   0.791   0.430 -0.2046 -0.2741  0.0507
  490SOL    HW1 1469   0.782   0.817   0.423 -2.7490  0.7796 -0.7010
  490SOL    HW2 1470   0.903   0.765   0.526 -0.6086  0.4121  0.5422
  491SOL     OW 1471   1.163   2.828   2.896 -0.1529  0.0896 -0.1515
  491SOL    HW1 1472   1.177   2.767   2.980  2.2031 -1.3554  0.6999
  491SOL    HW2 1473   1.077   2.881   2.895  0.8220 -0.0122  1.3114
  492SOL     OW 1474   1.290   1.306   2.220  0.4774  0.4430 -0.0804
  492SOL    HW1 1475   1.344   1.393   2.224 -0.1956 -0.8905  1.7523
  492SOL    HW2 1476   1.196   1.329   2.245  0.4579  0.0264  0.3008
  493SOL     OW 1477   3.056   1.847   0.091 -0.0293  0.2115 -0.4038
  493SOL    HW1 1478   2.991   1.851   0.014 -1.0073 -0.8795 -3.1520
  493SOL    HW2 1479   3.099   1.756   0.108 -1.1222 -0.2555  2.6520
  494SOL     OW 1480   2.134   1.608   0.510 -0.0736 -0.9511 -0.0895
  494SOL    HW1 1481   2.070   1.624   0.586  0.0117 -0.5702  0.6123
  494SOL    HW2 1482   2.103   1.530   0.454  0.6777  1.9336  1.6363
  495SOL     OW 1483   0.091   0.878   2.617  0.3559  0.8506 -0.5320
  495SOL    HW1 1484   0.047   0.915   2.531 -2.0228  2.3993 -0.8384
  495SOL    HW2 1485   0.132   0.955   2.669  1.2357  1.9958 -0.4004
  496SOL     OW 1486   3.020   3.073   2.336  0.5301  0.3794  0.0373
  496SOL    HW1 1487   3.050   3.064   2.239 -2.0711  1.0404 -2.4312
  496SOL    HW2 1488   2.955   3.003   2.369  1.3802  2.1057 -1.9916
  497SOL     OW 1489   2.482   0.990   0.711  0.4505  0.3329 -0.0252
  497SOL    HW1 1490   2.533   1.010   0.622  1.4683  3.2189 -2.9688
  497SOL    HW2 1491   2.520   0.909   0.769 -0.5470 -1.5042  0.5088
  498SOL     OW 1492   2.967   2.538   3.086 -0.3296 -0.0830  0.0628
  498SOL    HW1 1493   2.945   2.621   0.042 -0.7501 -0.4030 -0.8550
  498SOL    HW2 1494   3.068   2.547   3.052 -0.6196  0.1377 -1.2552
  499SOL     OW 1495   1.625   2.699   0.633  0.0008 -0.0377 -0.0737
  499SOL    HW1 1496   1.700   2.634   0.637 -2.8321 -0.5992 -2.5562
  499SOL    HW2 1497   1.544   2.645   0.616  1.3563 -2.8459  2.0717
  500SOL     OW 1498   1.077   0.702   2.569 -0.3607  0.0425 -0.4429
  500SOL    HW1 1499   1.022   0.628   2.613 -1.9173 -1.1914  0.7450
  500SOL    HW2 1500   1.176   0.699   2.586  1.1641  0.0710  0.3237
  501SOL     OW 1501   0.954   0.122   1.209  0.1094  0.5791  0.2843
  501SOL    HW1 1502   1.037   0.064   1.229  1.4610 -1.2238 -1.5157
  501SOL    HW2 1503   0.873   0.077   1.256 -2.6313 -0.3909  1.1327
  502SOL     OW 1504   3.090   3.061   2.068  0.4079 -0.0286 -0.6616
  502SOL    HW1 1505   0.082   3.040   2.043 -0.4272 -0.7656 -0.1888
  502SOL    HW2 1506   3.083   0.052   2.109  0.7181  3.6752  1.5335
  503SOL     OW 1507   1.454   2.412   2.175 -0.1725 -0.0960 -0.1101
  503SOL    HW1 1508   1.502   2.507   2.172  0.9714  4.7654 -0.2902
  503SOL    HW2 1509   1.523   2.339   2.183 -1.3396  2.2400  0.8155
  504SOL     OW 1510   2.039   2.928   1.511  0.3480  0.2578  0.1554
  504SOL    HW1 1511   2.111   2.992   1.539 -0.5905  2.9777  0.5067
  504SOL    HW2 1512   1.961   2.943   1.571 -0.0570  0.1423  0.2541
  505SOL     OW 1513   2.350   1.021   1.678 -0.2609  0.3836 -0.9106
  505SOL    HW1 1514   2.436   0.972   1.652 -0.8377  0.6674  0.6154
  505SOL    HW2 1515   2.278   0.958   1.651  0.2932  0.9914  0.9918
  506SOL     OW 1516   0.395   1.427   2.248 -0.3256  0.8251 -0.0159
  506SOL    HW1 1517   0.331   1.358   2.280 -1.6780  0.7562 -2.1510
  506SOL    HW2 1518   0.460   1.391   2.179 -2.3953  4.1305  2.2789
  507SOL     OW 1519   0.139   3.040   1.370  0.2081  0.3910  0.5069
  507SOL    HW1 1520   0.109   3.103   1.445 -0.8634 -1.0824  1.5094
  507SOL    HW2 1521   0.088   2.953   1.391  0.3727 -1.9620  0.6731
  508SOL     OW 1522   1.269   0.473   1.541 -0.6787 -0.1243 -0.1032
  508SOL    HW1 1523   1.273   0.574   1.522  0.7442 -0.1043  1.9964
  508SOL    HW2 1524   1.307   0.414   1.466  0.9303 -0.7139  0.3206
  509SOL     OW 1525   1.225   2.326   1.357 -0.3039  0.3080 -0.7704
  509SOL    HW1 1526   1.156   2.376   1.300 -0.6902  0.2265  0.8920
  509SOL    HW2 1527   1.181   2.288   1.446 -0.5888 -1.8457  4.7374
  510SOL     OW 1528   2.586   1.580   0.138  0.1465 -0.3168  0.4132
  510SOL    HW1 1529   2.514   1.535   0.083 -0.0899 -0.6875 -1.1017
  510SOL    HW2 1530   2.658   1.516   0.173 -0.1087 -3.0090 -0.6263
  511SOL     OW 1531   0.871   1.416   1.357  0.0979 -0.4625  0.1701
  511SOL    HW1 1532   0.823   1.331   1.322  0.9313 -0.1300  1.0100
  511SOL    HW2 1533   0.881   1.491   1.289  1.1923 -0.3246 -1.2674
  512SOL     OW 1534   2.940   2.306   0.603 -0.2685 -0.5333  0.6051
  512SOL    HW1 1535   3.009   2.228   0.612  0.6416  1.0301 -1.9587
  512SOL    HW2 1536   2.851   2.276   0.555 -1.2520  0.0939  1.9530
  513SOL     OW 1537   0.704   1.528   2.722 -0.3685  0.0229 -0.2920
  513SOL    HW1 1538   0.700   1.561   2.625  1.5267 -0.4558 -0.6632
  513SOL    HW2 1539   0.778   1.569   2.776 -0.4266  0.8072  1.0384
  514SOL     OW 1540   0.022   2.358   2.776 -0.4759 -0.0680 -0.2653
  514SOL    HW1 1541   0.056   2.417   2.851 -1.7677  0.8822  1.2261
  514SOL    HW2 1542   3.070   2.421   2.716  0.5533 -1.1383 -2.3293
  515SOL     OW 1543   1.468   1.114   1.878  0.0910  0.4481 -0.3274
  515SOL    HW1 1544   1.488   1.093   1.786 -0.1405  3.2647  4.5532
  515SOL    HW2 1545   1.374   1.158   1.898 -0.1905  3.3127  0.9946
  516SOL     OW 1546   1.986   2.269   0.494  0.4706 -0.1347 -0.1363
  516SOL    HW1 1547   2.016   2.187   0.445 -1.7017 -2.6989  2.6477
  516SOL    HW2 1548   2.059   2.336   0.525  3.2769  0.5456  0.8360
  517SOL     OW 1549   1.225   1.724   0.684  0.2378 -0.3871 -0.7376
  517SOL    HW1 1550   1.292   1.664   0.727  0.6756  0.5377 -1.1104
  517SOL    HW2 1551   1.261   1.773   0.599 -1.8405  0.7000 -0.6648
  518SOL     OW 1552   2.074   2.484   2.189  0.1256 -0.1163 -0.2355
  518SOL    HW1 1553   2.064   2.451   2.287 -0.9651  0.9496  1.9190
  518SOL    HW2 1554   2.015   2.433   2.129  2.4329  1.5983 -0.9595
  519SOL     OW 1555   1.641   2.431   0.811 -0.5397 -0.2214 -0.3934
  519SOL    HW1 1556   1.730   2.449   0.855 -0.6052  1.9677 -0.1546
  519SOL    HW2 1557   1.656   2.337   0.773  1.4883  0.4177  0.2041
  520SOL     OW 1558   2.697   2.492   2.511 -0.5478  0.5983 -0.0978
  520SOL    HW1 1559   2.674   2.573   2.458  1.3838  0.6549  0.2036
  520SOL    HW2 1560   2.609   2.454   2.553 -1.2683  0.6383 -2.8549
  521SOL     OW 1561   0.017   1.122   2.161  0.3497  0.2485  0.9348
  521SOL    HW1 1562   3.034   1.172   2.155  0.9900  2.9872 -1.5981
  521SOL    HW2 1563   0.017   1.029   2.115  1.7426  1.3775  1.6247
  522SOL     OW 1564   0.530   0.472   2.104 -0.2116 -0.2160  0.1295
  522SOL    HW1 1565   0.458   0.506   2.040 -1.9111  0.4998 -1.0117
  522SOL    HW2 1566   0.593   0.538   2.143  0.6995 -1.4509 -0.4479
  523SOL     OW 1567   0.519   1.974   0.990 -0.8421  0.3652 -0.0466
  523SOL    HW1 1568   0.549   1.997   1.086  0.9954  2.4920 -0.6095
  523SOL    HW2 1569   0.462   2.047   0.951  1.2186 -2.7975  1.1473
  524SOL     OW 1570   1.730   2.566   0.315 -0.5801 -0.1962 -0.3090
  524SOL    HW1 1571   1.812   2.626   0.302 -2.0883 -2.2974 -0.3893
  524SOL    HW2 1572   1.739   2.509   0.403  1.7198 -1.4638 -0.0514
  525SOL     OW 1573   2.131   0.870   1.606 -0.3608  0.1945 -0.0357
  525SOL    HW1 1574   2.077   0.940   1.553 -0.9536 -0.4049 -0.6611
  525SOL    HW2 1575   2.096   0.775   1.583 -0.4608  0.3261 -0.8049
  526SOL     OW 1576   0.992   2.562   0.518 -0.3336 -0.5107  0.3149
  526SOL    HW1 1577   1.070   2.630   0.519  1.0074  0.7231  1.6800
  526SOL    HW2 1578   0.935   2.564   0.435 -1.9099 -1.4129  1.2024
  527SOL     OW 1579   2.732   2.524   0.618  0.0303 -0.2979 -0.5426
  527SOL    HW1 1580   2.694   2.541   0.525 -0.5265  2.0217  0.7740
  527SOL    HW2 1581   2.800   2.452   0.603  0.1436  1.5108 -0.6976
  528SOL     OW 1582   2.035   0.457   3.088 -0.1507  0.1059 -0.1383
  528SOL    HW1 1583   2.074   0.418   0.069 -0.2751  0.5561  0.2860
  528SOL    HW2 1584   2.018   0.394   3.013 -1.4972  2.5135 -3.8553
  529SOL     OW 1585   1.715   1.597   2.628  0.4737 -0.5004 -0.0145
  529SOL    HW1 1586   1.721   1.620   2.728  1.5682  2.2498  0.7496
  529SOL    HW2 1587   1.800   1.618   2.577 -0.1332 -1.4813  0.8006
  530SOL     OW 1588   2.119   0.459   0.251  0.3076 -0.0183  0.0318
  530SOL    HW1 1589   2.138   0.545   0.302  1.7951  1.0083  1.4901
  530SOL    HW2 1590   2.187   0.384   0.266  0.4951 -1.9214  0.2928
  531SOL     OW 1591   1.619   0.864   2.695 -1.0804  0.2741 -0.1589
  531SOL    HW1 1592   1.625   0.915   2.607  0.3560  1.0549 -1.0873
  531SOL    HW2 1593   1.537   0.896   2.746  2.1443  0.1617  1.0036
  532SOL     OW 1594   1.663   0.670   0.535 -0.0576 -0.2923  0.1821
  532SOL    HW1 1595   1.741   0.717   0.483  2.4601 -1.6294 -3.1206
  532SOL    HW2 1596   1.576   0.678   0.481 -2.4872  0.5271 -0.3275
  533SOL     OW 1597   0.716   1.043   2.133 -0.3536  0.1369  0.6913
  533SOL    HW1 1598   0.633   1.027   2.071 -0.9162 -0.0085 -0.3551
  533SOL    HW2 1599   0.802   1.022   2.079 -2.9062  0.6517  0.4130
  534SOL     OW 1600   1.527   0.106   2.430 -0.0392  0.0491  0.7910
  534SOL    HW1 1601   1.499   0.177   2.491 -1.0778 -0.7991 -2.3846
  534SOL    HW2 1602   1.628   0.090   2.440 -0.5607  0.0710  1.0597
  535SOL     OW 1603   0.214   0.062   0.175  0.2103  0.1245  0.1210
  535SOL    HW1 1604   0.142   0.054   0.252 -0.0093  1.1543  2.3150
  535SOL    HW2 1605   0.172   0.122   0.103 -1.1086  1.4323 -0.2164
  536SOL     OW 1606   0.636   0.196   0.889 -0.1462 -0.0199  0.4463
  536SOL    HW1 1607   0.653   0.198   0.787  1.1249  0.6004 -1.7175
  536SOL    HW2 1608   0.721   0.229   0.941 -1.6490 -0.3294 -0.5072
  537SOL     OW 1609   1.372   0.780   0.628  0.0590  0.0693 -0.0936
  537SOL    HW1 1610   1.437   0.742   0.700  3.1306 -0.6585 -0.8759
  537SOL    HW2 1611   1.364   0.725   0.543 -2.3020 -1.3752 -2.1317
  538SOL     OW 1612   2.892   2.125   2.879 -0.2180 -0.5107  0.0863
  538SOL    HW1 1613   2.923   2.140   2.785  0.2935 -0.8526  2.6304
  538SOL    HW2 1614   2.796   2.155   2.882  3.3804  0.0009  0.4270
  539SOL     OW 1615   1.968   1.647   0.133 -0.0077  0.1498 -0.1151
  539SOL    HW1 1616   1.900   1.713   0.164 -1.7421 -2.1692  0.0239
  539SOL    HW2 1617   1.963   1.580   0.205 -0.4931  0.4039 -0.8637
  540SOL     OW 1618   0.314   2.631   1.255 -1.1881  0.2001  0.2313
  540SOL    HW1 1619   0.308   2.556   1.327  1.9126 -2.2079  1.8955
  540SOL    HW2 1620   0.393   2.616   1.196 -2.0264  2.1371  2.9315
  541SOL     OW 1621   1.903   2.959   2.200  0.8453 -0.4346 -0.7282
  541SOL    HW1 1622   1.935   2.910   2.283  0.0176  2.0600  1.1322
  541SOL    HW2 1623   1.985   2.989   2.146  0.0779  1.6446  1.8153
  542SOL     OW 1624   0.132   0.604   2.742  0.2446  0.6917 -0.0109
  542SOL    HW1 1625   0.063   0.610   2.820 -0.4243  0.8692 -0.3357
  542SOL    HW2 1626   0.111   0.679   2.676  3.5030 -0.5784 -2.1997
  543SOL     OW 1627   0.064   1.098   1.354  0.0319  0.1391 -0.5216
  543SOL    HW1 1628   3.073   1.091   1.308 -0.1038 -0.2085  1.0893
  543SOL    HW2 1629   0.112   1.164   1.297  0.0043 -3.5044  0.6140
  544SOL     OW 1630   2.449   0.340   1.042 -0.1967  0.2788 -0.6228
  544SOL    HW1 1631   2.415   0.416   0.986 -0.5053 -1.6923  3.1050
  544SOL    HW2 1632   2.518   0.279   1.003  0.1424 -1.0111 -0.6080
  545SOL     OW 1633   1.548   2.129   0.556 -0.1675  0.0952 -0.3396
  545SOL    HW1 1634   1.452   2.155   0.575 -0.5465 -1.1545 -1.8028
  545SOL    HW2 1635   1.604   2.117   0.641  4.8916  0.0866  0.5814
  546SOL     OW 1636   2.067   2.713   1.779  0.3387  0.2569  0.1018
  546SOL    HW1 1637   2.110   2.622   1.763 -0.3926 -1.6713 -1.1437
  546SOL    HW2 1638   2.077   2.773   1.700 -0.7651 -1.3505 -0.8334
  547SOL     OW 1639   0.265   3.058   2.004  0.3667 -0.4721  0.4320
  547SOL    HW1 1640   0.355   3.064   2.048 -1.6628  0.5863  0.4452
  547SOL    HW2 1641   0.259   2.969   1.956 -0.2215 -0.9131  2.4542
  548SOL     OW 1642   1.824   1.218   0.023  0.2207 -0.6169  0.3202
  548SOL    HW1 1643   1.795   1.216   3.027 -4.0997  1.1541 -1.2094
  548SOL    HW2 1644   1.912   1.168   0.041  1.9716 -0.0951  0.7935
  549SOL     OW 1645   2.966   1.109   0.546  0.0576  0.8871  0.4698
  549SOL    HW1 1646   2.873   1.154   0.545 -1.5283  2.2705  0.7434
  549SOL    HW2 1647   3.037   1.179   0.559 -1.6232  0.7237  0.0371
  550SOL     OW 1648   1.836   1.918   0.838 -0.1373  0.4070  0.2117
  550SOL    HW1 1649   1.928   1.938   0.809 -4.2942 -0.6099 -1.7118
  550SOL    HW2 1650   1.828   1.910   0.936 -1.1783  0.5031 -0.9548
  551SOL     OW 1651   1.352   0.434   0.598 -0.1303  0.2510 -0.1473
  551SOL    HW1 1652   1.378   0.457   0.692  1.1350  1.6375 -0.1376
  551SOL    HW2 1653   1.254   0.452   0.580  2.6318  1.7536 -0.8282
  552SOL     OW 1654   3.076   2.707   2.433 -0.4308 -0.3247 -0.3220
  552SOL    HW1 1655   0.066   2.742   2.445 -1.0179  0.5429 -1.2736
  552SOL    HW2 1656   3.068   2.663   2.342 -2.2406 -0.3027 -0.6374
  553SOL     OW 1657   0.155   3.059   2.474  0.3217 -0.6987  0.3532
  553SOL    HW1 1658   0.063   3.084   2.431 -0.5557  0.9141  1.4710
  553SOL    HW2 1659   0.221   3.017   2.406 -0.8487  1.9818 -0.2702
  554SOL     OW 1660   0.730   3.014   1.452  0.2136 -0.5728  0.0879
  554SOL    HW1 1661   0.654   2.959   1.493 -1.2129 -1.8850  0.2463
  554SOL    HW2 1662   0.789   2.946   1.402 -0.7851 -0.4954  0.3636
  555SOL     OW 1663   2.621   2.651   2.305 -0.2056 -0.4355  0.5599
  555SOL    HW1 1664   2.629   2.734   2.242 -0.2666  2.4947 -2.3704
  555SOL    HW2 1665   2.616   2.563   2.249 -1.1550 -0.8990  1.6685
  556SOL     OW 1666   1.294   0.251   2.742 -0.5817 -0.0412  0.2341
  556SOL    HW1 1667   1.211   0.311   2.738 -1.7684 -4.3989 -0.2148
  556SOL    HW2 1668   1.267   0.153   2.742  3.6800  0.3220 -0.8343
  557SOL     OW 1669   0.406   1.699   2.337 -0.2421 -0.1217 -1.0851
  557SOL    HW1 1670   0.310   1.711   2.372 -1.5657  1.3231 -1.2491
  557SOL    HW2 1671   0.431   1.606   2.316 -0.9874 -1.4019  1.5030
  558SOL     OW 1672   2.313   0.880   2.527 -0.2295  0.1526 -0.0623
  558SOL    HW1 1673   2.377   0.946   2.485  0.4361  0.3066  0.0405
  558SOL    HW2 1674   2.226   0.882   2.478 -0.8946  0.0659 -2.2598
  559SOL     OW 1675   2.557   2.042   2.186 -0.7059  0.1525 -0.1073
  559SOL    HW1 1676   2.465   2.048   2.153  0.4075 -0.4716 -0.7143
  559SOL    HW2 1677   2.562   2.093   2.273 -2.2551  0.4315 -3.6112
  560SOL     OW 1678   2.697   0.820   2.290 -0.2018 -0.4413  0.1868
  560SOL    HW1 1679   2.609   0.836   2.238 -1.3085  0.3597 -2.7432
  560SOL    HW2 1680   2.773   0.824   2.224 -1.7143  1.8279  1.1830
  561SOL     OW 1681   0.095   0.274   2.822  0.2253 -0.3546 -0.3589
  561SOL    HW1 1682   0.142   0.245   2.734  3.1492 -0.2271  3.2803
  561SOL    HW2 1683   0.043   0.359   2.809 -0.6313 -0.9772  2.0112
  562SOL     OW 1684   1.102   0.953   1.564 -0.1574 -0.0663 -0.1832
  562SOL    HW1 1685   1.114   0.866   1.510 -3.0236  0.0442  1.2251
  562SOL    HW2 1686   1.002   0.967   1.564 -0.5847 -1.4578 -0.0722
  563SOL     OW 1687   1.564   2.989   2.799 -0.5265 -0.1270 -0.0226
  563SOL    HW1 1688   1.507   2.979   2.717  2.1565  2.0065  1.8171
  563SOL    HW2 1689   1.503   2.965   2.878 -0.0703  0.8129 -0.0786
  564SOL     OW 1690   0.017   2.309   1.156 -0.5249  0.4083  0.2865
  564SOL    HW1 1691   0.113   2.272   1.168  0.1331 -0.4709 -0.4952
  564SOL    HW2 1692   3.056   2.251   1.204 -0.0797  2.6885  1.2589
  565SOL     OW 1693   0.748   2.213   2.017 -0.3373 -0.1718 -0.5016
  565SOL    HW1 1694   0.707   2.200   1.923  1.5101 -0.3424  0.5998
  565SOL    HW2 1695   0.792   2.129   2.047  1.5968 -0.0055  1.1085
  566SOL     OW 1696   1.239   2.639   2.045  0.2552  0.2820 -0.6219
  566SOL    HW1 1697   1.167   2.693   2.090  3.4190  1.6392 -1.2881
  566SOL    HW2 1698   1.294   2.583   2.109  2.5725  0.0107  0.7629
  567SOL     OW 1699   1.883   2.483   0.939  0.7171  0.0836 -0.7965
  567SOL    HW1 1700   1.872   2.455   1.041 -0.3440 -0.9962  4.0472
  567SOL    HW2 1701   1.959   2.554   0.932  1.0046 -0.4267 -0.3134
  568SOL     OW 1702   2.052   0.857   0.533 -0.2753 -0.8719  0.0599
  568SOL    HW1 1703   2.072   0.958   0.525  1.8610  1.4472 -0.3049
  568SOL    HW2 1704   1.977   0.832   0.476  2.0850  1.0083  3.6422
  569SOL     OW 1705   2.935   1.770   2.526  0.3061 -0.7737 -0.2938
  569SOL    HW1 1706   3.004   1.798   2.597 -1.7057  2.0842  2.0495
  569SOL    HW2 1707   2.861   1.727   2.581  1.8539  0.3987  3.2696
  570SOL     OW 1708   2.920   0.036   1.092  0.2410 -0.0467 -0.4272
  570SOL    HW1 1709   3.021   0.042   1.106 -2.0874 -2.4122 -0.0270
  570SOL    HW2 1710   2.872   0.118   1.132  0.5015  0.6214  0.4994
  571SOL     OW 1711   0.009   0.452   1.421  0.2810  0.2697  0.2118
  571SOL    HW1 1712   0.047   0.506   1.502 -0.5066  2.1952 -1.1144
  571SOL    HW2 1713   3.068   0.367   1.459 -2.4126  0.1467  0.8612
  572SOL     OW 1714   2.858   2.646   0.826  0.0075  0.9888  0.1581
  572SOL    HW1 1715   2.821   2.590   0.746  0.0837 -3.3301  1.5353
  572SOL    HW2 1716   2.933   2.595   0.867 -2.4228  0.5299 -1.5290
  573SOL     OW 1717   0.950   0.737   3.032  0.2079  0.2166  0.7207
  573SOL    HW1 1718   0.974   0.768   0.020 -1.2053 -1.3155  0.3340
  573SOL    HW2 1719   0.895   0.648   3.030 -2.1821 -0.7027 -1.7697
  574SOL     OW 1720   2.913   2.778   0.106  0.6446  0.0658 -0.9272
  574SOL    HW1 1721   2.812   2.788   0.096  0.6779  2.3349  0.8688
  574SOL    HW2 1722   2.949   2.868   0.073  0.4586  1.0974 -0.1789
  575SOL     OW 1723   1.472   2.359   1.287  0.0824 -0.5168  0.2200
  575SOL    HW1 1724   1.372   2.353   1.312  0.9376 -0.8602 -2.5321
  575SOL    HW2 1725   1.476   2.417   1.201  2.1152  2.1728  1.0327
  576SOL     OW 1726   0.752   2.582   1.238  0.1554  0.3932  0.1306
  576SOL    HW1 1727   0.783   2.554   1.331  1.9943 -1.7331 -1.6834
  576SOL    HW2 1728   0.806   2.660   1.198  0.3565 -1.4292  1.9245
  577SOL     OW 1729   2.417   1.601   1.308 -0.1014 -0.0927 -0.0547
  577SOL    HW1 1730   2.506   1.577   1.259 -0.1187 -3.2333 -3.4482
  577SOL    HW2 1731   2.424   1.590   1.408  2.9909 -0.8387 -1.1644
  578SOL     OW 1732   1.549   0.308   0.344 -0.0263  0.1779  0.1738
  578SOL    HW1 1733   1.564   0.392   0.293  0.2014 -1.0891 -0.3387
  578SOL    HW2 1734   1.614   0.234   0.315 -1.5805 -0.0183  0.9361
  579SOL     OW 1735   2.273   0.959   2.783 -0.3425  0.4668  0.2331
  579SOL    HW1 1736   2.338   0.967   2.858 -0.3378 -3.4260 -1.1688
  579SOL    HW2 1737   2.321   0.945   2.693  1.4376  1.1297 -0.9741
  580SOL     OW 1738   1.847   0.556   2.033 -0.0507  0.3976  0.2916
  580SOL    HW1 1739   1.749   0.578   2.051 -0.5817 -0.5910  2.3448
  580SOL    HW2 1740   1.893   0.525   2.119  1.3249 -3.1384  0.7777
  581SOL     OW 1741   0.744   1.184   1.292  0.5686 -0.1294  0.3938
  581SOL    HW1 1742   0.663   1.205   1.236 -0.8915  0.8704  4.7619
  581SOL    HW2 1743   0.791   1.104   1.252  0.7088 -1.4262 -0.2477
  582SOL     OW 1744   2.611   0.099   2.068 -0.1096  0.3777 -0.5266
  582SOL    HW1 1745   2.545   0.115   2.149  1.8973 -0.9372  0.4154
  582SOL    HW2 1746   2.551   0.060   1.996  0.0017 -0.6184  0.2951
  583SOL     OW 1747   2.938   0.283   1.879 -0.4428  0.3357  0.4566
  583SOL    HW1 1748   2.964   0.192   1.916  1.7681 -1.5922 -0.4635
  583SOL    HW2 1749   2.856   0.322   1.919 -1.3216 -2.4387  0.1729
  584SOL     OW 1750   1.393   1.897   2.810  0.3992  0.4449 -0.1787
  584SOL    HW1 1751   1.462   1.951   2.860  0.3437  1.1962 -2.6249
  584SOL    HW2 1752   1.407   1.906   2.708 -1.8998  1.3926  0.6222
  585SOL     OW 1753   0.139   2.992   2.999  0.3096  0.7003  0.5376
  585SOL    HW1 1754   0.202   3.069   2.996  0.2858 -1.4286 -3.4076
  585SOL    HW2 1755   0.113   2.962   2.903 -1.1871 -1.4890  0.8518
  586SOL     OW 1756   1.983   1.688   2.545 -0.3593  0.6005 -0.0975
  586SOL    HW1 1757   2.007   1.587   2.542 -0.7578 -0.5824 -1.1688
  586SOL    HW2 1758   2.042   1.735   2.476 -2.4387 -0.5064  1.4206
  587SOL     OW 1759   2.496   2.269   0.314 -0.2609 -0.1463  0.3195
  587SOL    HW1 1760   2.425   2.335   0.300  0.3190 -1.2503 -0.0411
  587SOL    HW2 1761   2.484   2.190   0.249  2.9946  0.2070 -0.4275
  588SOL     OW 1762   2.524   0.080   0.882 -0.5186 -0.2164 -0.1328
  588SOL    HW1 1763   2.432   0.035   0.873 -1.2219 -2.4130  4.2805
  588SOL    HW2 1764   2.560   0.104   0.791 -1.0666 -0.6439  2.6593
  589SOL     OW 1765   0.649   0.679   0.647 -0.2825  0.2813  0.1519
  589SOL    HW1 1766   0.690   0.594   0.613  0.8448  0.6138  0.3640
  589SOL    HW2 1767   0.567   0.714   0.594 -2.8328 -2.0962 -1.6171
  590SOL     OW 1768   2.115   2.073   0.364  0.5498  0.0008 -0.4617
  590SOL    HW1 1769   2.135   1.989   0.424 -0.2566 -1.8268 -0.1678
  590SOL    HW2 1770   2.176   2.072   0.283  0.2418 -0.1340 -1.3093
  591SOL     OW 1771   0.441   2.307   1.185 -0.3662 -0.8498 -0.3637
  591SOL    HW1 1772   0.513   2.288   1.259  0.3460 -0.0389  3.5016
  591SOL    HW2 1773   0.462   2.393   1.136 -1.3164  0.7418  1.4359
  592SOL     OW 1774   0.903   0.582   1.362  0.6374 -0.7951  0.0048
  592SOL    HW1 1775   0.964   0.500   1.379  0.6226 -2.0929 -2.4438
  592SOL    HW2 1776   0.819   0.552   1.314  2.6356 -1.1683 -2.3327
  593SOL     OW 1777   1.070   1.221   1.309  0.2834  0.3836 -0.1903
  593SOL    HW1 1778   1.126   1.185   1.391 -2.2291 -0.9785 -0.4410
  593SOL    HW2 1779   0.998   1.289   1.343 -2.4210  1.3590  1.1962
  594SOL     OW 1780   0.916   2.300   0.255 -0.2043  0.0728 -0.4299
  594SOL    HW1 1781   0.856   2.246   0.189 -1.1118 -1.2730 -2.2045
  594SOL    HW2 1782   0.953   2.236   0.328  0.1312  0.8428  0.8441
  595SOL     OW 1783   1.594   0.362   1.456 -0.6097  0.3325 -0.2345
  595SOL    HW1 1784   1.578   0.464   1.452  0.6815  1.0109 -0.6151
  595SOL    HW2 1785   1.598   0.340   1.557 -2.8078 -1.9388  0.3169
  596SOL     OW 1786   2.921   1.155   1.283  0.6983  0.0496 -0.4714
  596SOL    HW1 1787   2.878   1.072   1.235  1.1485  1.2931  0.9968
  596SOL    HW2 1788   2.850   1.223   1.304  0.0358  2.2631  0.8625
  597SOL     OW 1789   0.363   2.684   2.367  0.1692  0.3466 -0.0595
  597SOL    HW1 1790   0.390   2.639   2.455  0.4390 -0.0175 -0.8350
  597SOL    HW2 1791   0.429   2.667   2.291  1.3925 -0.5798 -0.4393
  598SOL     OW 1792   2.689   2.205   1.962 -0.3177 -0.0432  0.4304
  598SOL    HW1 1793   2.657   2.187   1.867 -2.6014 -0.8901  1.1745
  598SOL    HW2 1794   2.662   2.121   2.014 -0.2606 -0.4241 -2.6204
  599SOL     OW 1795   0.753   0.062   2.978  0.0327 -0.0931  0.4291
  599SOL    HW1 1796   0.728   0.152   2.941  1.5928  0.6732 -0.4101
  599SOL    HW2 1797   0.668   0.010   2.995  0.0104 -0.4945 -1.8794
  600SOL     OW 1798   0.205   2.153   2.759  0.0501  0.6378  0.7291
  600SOL    HW1 1799   0.162   2.245   2.774 -0.2524  3.3165 -2.2350
  600SOL    HW2 1800   0.143   2.078   2.793 -2.6456 -1.8453  0.0019
  601SOL     OW 1801   0.640   0.825   1.355 -0.6294  0.2441  0.0116
  601SOL    HW1 1802   0.650   0.728   1.325 -1.7150 -0.2281  0.4148
  601SOL    HW2 1803   0.727   0.874   1.325  0.3144 -0.6643 -1.5936
  602SOL     OW 1804   0.891   2.771   0.815 -0.0559  0.5473 -0.2430
  602SOL    HW1 1805   0.918   2.670   0.826  1.2443 -1.6253 -1.0830
  602SOL    HW2 1806   0.870   2.808   0.906 -2.1344 -0.4594  0.4193
  603SOL     OW 1807   0.529   0.444   2.557  0.0457 -0.1395  0.1487
  603SOL    HW1 1808   0.626   0.477   2.541 -1.3693  0.4947  0.4140
  603SOL    HW2 1809   0.493   0.381   2.480 -1.3895 -1.9791 -0.5315
  604SOL     OW 1810   0.535   2.866   1.554  0.3360  0.1114  0.1436
  604SOL    HW1 1811   0.491   2.837   1.642  0.6729 -0.8052  3.0607
  604SOL    HW2 1812   0.463   2.874   1.476 -1.0654 -1.2494 -2.6810
  605SOL     OW 1813   1.590   0.652   2.063 -0.2284 -0.2838 -0.0189
  605SOL    HW1 1814   1.573   0.654   1.960 -0.7804  0.2326  0.2947
  605SOL    HW2 1815   1.624   0.744   2.099 -1.0691  1.1233  0.8118
  606SOL     OW 1816   2.585   2.779   2.879 -0.4934 -0.5062  0.0788
  606SOL    HW1 1817   2.534   2.690   2.873  1.7326 -0.4558  1.0500
  606SOL    HW2 1818   2.651   2.791   2.803  1.7466 -0.7063  1.7000
  607SOL     OW 1819   0.645   0.558   1.267 -0.0060 -0.7911  0.8526
  607SOL    HW1 1820   0.658   0.534   1.164 -0.1843 -0.1800 -1.3604
  607SOL    HW2 1821   0.562   0.510   1.305 -2.4679 -0.2336  2.2463
  608SOL     OW 1822   0.165   1.720   2.479  0.2891  0.2693 -0.0258
  608SOL    HW1 1823   0.120   1.771   2.552  0.8605  0.0452 -0.6052
  608SOL    HW2 1824   0.125   1.726   2.387 -0.8003 -0.3788  2.1146
  609SOL     OW 1825   1.524   1.222   0.654  0.5368 -0.3400  0.2168
  609SOL    HW1 1826   1.542   1.127   0.617  1.1300  1.6502  2.9423
  609SOL    HW2 1827   1.499   1.289   0.582  2.8813 -1.6391 -0.9637
  610SOL     OW 1828   0.346   0.543   1.040  0.0328 -0.0778  0.1120
  610SOL    HW1 1829   0.269   0.523   1.101  1.5980 -0.1889 -0.4888
  610SOL    HW2 1830   0.409   0.613   1.079 -2.3640 -1.8076 -0.2084
  611SOL     OW 1831   1.607   0.989   0.842 -0.3771 -0.1604  0.8685
  611SOL    HW1 1832   1.686   1.048   0.872 -0.2393 -2.7841 -0.8929
  611SOL    HW2 1833   1.594   0.993   0.739  1.8346  0.6924 -3.1518
  612SOL     OW 1834   1.803   1.240   0.574  0.0078  0.2751 -0.5117
  612SOL    HW1 1835   1.710   1.252   0.612 -0.6574  1.3687 -0.5511
  612SOL    HW2 1836   1.803   1.234   0.475 -1.8626  0.9818  2.8294
  613SOL     OW 1837   1.839   0.804   0.351  0.1545  0.2903 -0.0535
  613SOL    HW1 1838   1.892   0.813   0.265 -0.6483 -0.4651  0.8489
  613SOL    HW2 1839   1.760   0.862   0.339  2.2191  1.2887 -0.7050
  614SOL     OW 1840   2.869   0.184   2.440  0.0049 -0.4538  1.1956
  614SOL    HW1 1841   2.946   0.121   2.426 -0.2128  2.2818  1.7043
  614SOL    HW2 1842   2.836   0.219   2.349 -1.0132  0.2099  2.9938
  615SOL     OW 1843   0.632   1.727   0.986 -0.0444 -0.2526  0.5497
  615SOL    HW1 1844   0.662   1.703   0.887  1.1934  0.4249 -2.8412
  615SOL    HW2 1845   0.569   1.811   0.987 -0.3119 -1.9967 -1.3728
  616SOL     OW 1846   1.464   1.203   2.560  0.1509  0.0160 -0.4307
  616SOL    HW1 1847   1.498   1.122   2.507 -0.8354 -0.3218 -0.0730
  616SOL    HW2 1848   1.359   1.206   2.565  0.1906  4.0406 -0.7153
  617SOL     OW 1849   1.323   0.575   2.913 -0.5002 -0.0198 -0.6591
  617SOL    HW1 1850   1.241   0.537   2.963 -2.4546 -0.3868  1.6710
  617SOL    HW2 1851   1.404   0.515   2.939 -1.4117 -0.6240 -0.1544
  618SOL     OW 1852   1.874   2.409   2.584 -0.2748 -0.4019 -0.4266
  618SOL    HW1 1853   1.838   2.452   2.499 -0.5776 -2.6304  0.2149
  618SOL    HW2 1854   1.845   2.469   2.662 -0.5817 -1.5886  0.3032
  619SOL     OW 1855   2.234   1.776   0.934 -0.0390 -0.5409  0.8243
  619SOL    HW1 1856   2.323   1.738   0.897 -0.3947  0.6261  0.6679
  619SOL    HW2 1857   2.149   1.720   0.911 -2.3482 -2.6838 -1.6241
  620SOL     OW 1858   2.032   2.804   2.389  0.7153  0.3739 -0.1676
  620SOL    HW1 1859   2.066   2.711   2.360  0.5611 -0.1721 -0.5506
  620SOL    HW2 1860   1.966   2.793   2.465  2.2379 -1.4842 -2.5207
  621SOL     OW 1861   0.025   1.315   0.614 -0.2311 -0.0576 -0.0038
  621SOL    HW1 1862   0.063   1.389   0.554  2.2523  1.0999  0.6147
  621SOL    HW2 1863   0.045   1.323   0.712  0.5797 -0.3510  0.4302
  622SOL     OW 1864   1.395   1.460   2.884 -0.5184 -0.4286 -0.1043
  622SOL    HW1 1865   1.333   1.469   2.807 -1.6378  3.1809  3.0669
  622SOL    HW2 1866   1.483   1.498   2.853  0.7732  0.7172 -2.2098
  623SOL     OW 1867   3.004   2.378   2.323  0.2090  0.2816 -0.2651
  623SOL    HW1 1868   3.016   2.398   2.422 -1.1079  0.6835 -1.0737
  623SOL    HW2 1869   3.008   2.464   2.272 -0.6017  0.4504  1.0736
  624SOL     OW 1870   0.720   2.699   3.002  0.0113 -0.4882  0.4322
  624SOL    HW1 1871   0.785   2.629   3.038  0.1174  1.3810  1.3620
  624SOL    HW2 1872   0.735   2.784   3.060  3.2367  2.1100 -0.2551
  625SOL     OW 1873   0.573   1.769   2.085 -0.0446  0.6011  0.1973
  625SOL    HW1 1874   0.529   1.745   2.172  1.4834  3.1682  0.3972
  625SOL    HW2 1875   0.526   1.848   2.042  2.0840  0.8722  1.1750
  626SOL     OW 1876   0.460   2.965   2.757 -0.3948  0.0984  0.2613
  626SOL    HW1 1877   0.520   2.909   2.694 -0.9548 -0.9239  1.7007
  626SOL    HW2 1878   0.508   2.972   2.849  3.0101 -2.1323  0.8480
  627SOL     OW 1879   1.759   1.276   0.298  0.3546  0.0371 -0.1564
  627SOL    HW1 1880   1.801   1.252   0.206  0.5334 -0.7660 -4.7051
  627SOL    HW2 1881   1.706   1.366   0.287 -2.0786  1.8080  0.1352
  628SOL     OW 1882   1.267   2.112   0.647  0.5040  0.1804 -0.0882
  628SOL    HW1 1883   1.258   2.101   0.746 -0.9518  2.2589  0.8066
  628SOL    HW2 1884   1.221   2.194   0.607  0.3982  0.6989  1.1575
  629SOL     OW 1885   3.017   0.269   1.609 -0.1013  0.1952  0.2225
  629SOL    HW1 1886   3.091   0.194   1.608  0.5343  1.2573  0.8055
  629SOL    HW2 1887   3.001   0.291   1.704  4.0514 -1.6514 -1.2989
  630SOL     OW 1888   2.273   0.558   1.711 -0.3262  0.1956  0.4959
  630SOL    HW1 1889   2.352   0.546   1.648 -1.3880  0.0943  1.9863
  630SOL    HW2 1890   2.267   0.481   1.776 -0.3655 -0.9712 -2.1037
  631SOL     OW 1891   1.192   0.392   1.059  0.2328 -0.0256 -0.1697
  631SOL    HW1 1892   1.259   0.430   0.993 -0.4153 -1.7015  1.8957
  631SOL    HW2 1893   1.150   0.312   1.013  0.8569  0.5089 -1.0961
  632SOL     OW 1894   2.881   0.794   2.042 -0.7153 -0.4534  0.7398
  632SOL    HW1 1895   2.845   0.734   1.969  2.3639 -0.2531  0.5296
  632SOL    HW2 1896   2.927   0.868   1.992 -4.2142 -1.1746  0.1911
  633SOL     OW 1897   1.351   0.966   2.778  0.1504 -0.2363  0.0685
  633SOL    HW1 1898   1.343   1.050   2.728  0.9167 -1.2923  0.3020
  633SOL    HW2 1899   1.262   0.937   2.818 -1.1620  0.9677 -0.8493
  634SOL     OW 1900   0.560   2.970   3.023  0.7319  0.0255  0.7318
  634SOL    HW1 1901   0.466   2.943   3.039  1.6102  0.5571  0.6223
  634SOL    HW2 1902   0.616   2.949   0.000 -2.3553  0.9205 -3.8198
  635SOL     OW 1903   0.043   1.624   1.552 -0.0246 -0.2994  0.4169
  635SOL    HW1 1904   0.008   1.569   1.474 -0.0093 -0.9953  0.2779
  635SOL    HW2 1905   0.135   1.663   1.528 -0.2123  4.2581  0.0980
  636SOL     OW 1906   0.284   1.552   0.133 -0.3675 -0.3145  0.6176
  636SOL    HW1 1907   0.323   1.593   0.219  0.8383  0.2510  0.4865
  636SOL    HW2 1908   0.181   1.565   0.135  1.1012  1.2396 -3.2610
  637SOL     OW 1909   3.071   2.534   0.569 -0.9188  0.8552  0.6838
  637SOL    HW1 1910   3.022   2.585   0.500  0.5162 -1.0564  0.8265
  637SOL    HW2 1911   3.021   2.448   0.585 -0.1542  1.3043  2.6137
  638SOL     OW 1912   2.583   2.521   0.137 -0.2001  0.2348 -0.8584
  638SOL    HW1 1913   2.655   2.504   0.069 -0.7119  0.7898  1.8836
  638SOL    HW2 1914   2.560   2.436   0.188  2.5857  3.4073  1.6598
  639SOL     OW 1915   1.549   0.168   2.800  0.2548 -0.3449  0.2500
  639SOL    HW1 1916   1.456   0.211   2.784 -1.5213  2.6806 -1.0471
  639SOL    HW2 1917   1.546   0.066   2.795  1.0840  0.3113 -0.0517
  640SOL     OW 1918   2.139   2.107   1.663  0.0382 -0.3111  0.4371
  640SOL    HW1 1919   2.124   2.105   1.563 -2.0202 -1.7521 -2.1634
  640SOL    HW2 1920   2.235   2.137   1.689  0.8974  0.1359  1.3343
  641SOL     OW 1921   2.982   3.094   0.829 -0.3407 -0.2101 -0.2131
  641SOL    HW1 1922   2.933   3.086   0.913  1.3668  1.7378  2.3979
  641SOL    HW2 1923   2.986   3.006   0.781  0.1902 -0.4847  0.9940
  642SOL     OW 1924   1.202   1.195   1.946  0.2977 -0.1341 -0.0916
  642SOL    HW1 1925   1.258   1.225   2.026  2.7197  1.7795  0.8184
  642SOL    HW2 1926   1.125   1.264   1.938 -0.2824  1.0675  0.6175
  643SOL     OW 1927   0.523   1.820   2.551  0.1117 -0.5153 -0.3907
  643SOL    HW1 1928   0.454   1.769   2.497  0.9851 -0.2528 -0.1011
  643SOL    HW2 1929   0.551   1.902   2.506 -2.4567 -0.2030  1.6691
  644SOL     OW 1930   1.327   2.813   2.303 -0.1811  0.1958 -0.5021
  644SOL    HW1 1931   1.297   2.895   2.247 -0.0610  0.6234  0.1572
  644SOL    HW2 1932   1.255   2.746   2.321 -1.8532 -0.7609  0.4096
  645SOL     OW 1933   1.543   0.715   1.795  0.4197 -0.0892 -0.5183
  645SOL    HW1 1934   1.604   0.754   1.723 -1.0385 -1.3692  1.0387
  645SOL    HW2 1935   1.463   0.774   1.813 -1.0009  1.6583  0.8924
  646SOL     OW 1936   1.156   2.142   2.841 -0.0900  0.1711  0.0314
  646SOL    HW1 1937   1.230   2.150   2.767  2.1016 -3.4299 -1.7666
  646SOL    HW2 1938   1.156   2.050   2.882 -0.8879  1.2102 -0.1847
  647SOL     OW 1939   1.411   2.880   0.709 -0.3249  0.1674  0.2203
  647SOL    HW1 1940   1.486   2.811   0.691  0.2365 -0.2690 -0.6845
  647SOL    HW2 1941   1.444   2.978   0.696 -1.3760  2.5297  2.4607
  648SOL     OW 1942   2.690   2.637   1.267 -0.0603 -0.7463 -0.1278
  648SOL    HW1 1943   2.703   2.667   1.171  0.0566 -1.2749  2.1445
  648SOL    HW2 1944   2.745   2.552   1.284  1.6871  0.7782  2.1819
  649SOL     OW 1945   0.739   2.436   2.483 -0.1415 -0.5863 -0.4878
  649SOL    HW1 1946   0.714   2.426   2.386  0.3826  1.0426 -2.3035
  649SOL    HW2 1947   0.709   2.354   2.535  1.7515 -1.5905  0.9765
  650SOL     OW 1948   2.475   1.847   2.542 -0.3569  0.8588  0.3214
  650SOL    HW1 1949   2.543   1.782   2.585 -1.4763  0.2212  1.3157
  650SOL    HW2 1950   2.508   1.942   2.528 -1.1090  1.1586 -2.7897
  651SOL     OW 1951   2.639   2.416   2.137 -0.0103 -0.1015  0.0985
  651SOL    HW1 1952   2.583   2.476   2.076 -1.9139  1.1186 -0.3516
  651SOL    HW2 1953   2.673   2.332   2.087  1.5641  1.1361  2.8206
  652SOL     OW 1954   2.588   2.497   0.918  0.4259  0.3976  0.0593
  652SOL    HW1 1955   2.680   2.485   0.881 -0.1930  0.5112  0.7871
  652SOL    HW2 1956   2.536   2.414   0.893 -0.7668  1.9877 -0.0402
  653SOL     OW 1957   2.775   1.250   1.040 -0.0239 -0.2823  0.1295
  653SOL    HW1 1958   2.785   1.291   1.132  0.5229 -0.9652 -0.9213
  653SOL    HW2 1959   2.765   1.146   1.045 -1.0612  0.4144 -0.4991
  654SOL     OW 1960   1.081   0.449   2.729 -0.6727 -0.3629 -0.5453
  654SOL    HW1 1961   0.998   0.393   2.709  0.5397  1.3943 -0.2390
  654SOL    HW2 1962   1.106   0.447   2.828  0.8403 -0.7135  1.9141
  655SOL     OW 1963   0.855   0.295   1.014 -0.4322 -0.8934  0.3235
  655SOL    HW1 1964   0.928   0.282   0.945  2.2436 -3.5522  0.6108
  655SOL    HW2 1965   0.877   0.240   1.098  1.4470 -0.6238 -0.3671
  656SOL     OW 1966   0.536   2.370   1.862 -0.2738 -0.2514 -0.2642
  656SOL    HW1 1967   0.538   2.330   1.771  2.3534  2.4073  1.6590
  656SOL    HW2 1968   0.613   2.443   1.872  0.0988  0.6862  0.3342
  657SOL     OW 1969   2.490   0.837   0.253 -0.1054 -0.2148 -0.3043
  657SOL    HW1 1970   2.467   0.805   0.158  0.3196 -0.0134 -1.5511
  657SOL    HW2 1971   2.472   0.935   0.262 -2.5618 -0.3726  1.1550
  658SOL     OW 1972   2.074   2.058   1.124 -0.3912  0.1987  0.3988
  658SOL    HW1 1973   2.106   2.079   1.218  3.4843  1.6383 -1.2120
  658SOL    HW2 1974   1.980   2.018   1.130 -1.5558 -1.2354 -0.2129
  659SOL     OW 1975   2.597   1.887   2.907 -0.4525 -0.5046  0.7633
  659SOL    HW1 1976   2.633   1.799   2.936 -1.5736  1.0502  1.2596
  659SOL    HW2 1977   2.631   1.917   2.815  0.4397 -1.2881  0.2869
  660SOL     OW 1978   1.013   0.433   0.340  0.1064 -0.2671  0.0192
  660SOL    HW1 1979   1.098   0.380   0.355  0.9821  0.0134 -0.0571
  660SOL    HW2 1980   1.030   0.511   0.275 -1.3456  0.9461  2.0460
  661SOL     OW 1981   1.688   3.054   0.183  0.0195  0.5812  0.0500
  661SOL    HW1 1982   1.746   2.970   0.190 -0.2184 -0.3514  0.0056
  661SOL    HW2 1983   1.740   0.035   0.190  0.1584  1.9508 -1.5154
  662SOL     OW 1984   0.799   2.826   0.558 -0.2216  0.1443  0.8367
  662SOL    HW1 1985   0.725   2.888   0.591  3.7271  0.9724  0.0653
  662SOL    HW2 1986   0.855   2.793   0.632 -0.6760  2.6815 -1.5666
  663SOL     OW 1987   1.318   0.154   2.280 -0.3299 -0.3664  0.1672
  663SOL    HW1 1988   1.412   0.150   2.323  1.9917 -1.5931 -0.0696
  663SOL    HW2 1989   1.260   0.231   2.312  1.0136 -0.5008 -2.8115
  664SOL     OW 1990   0.790   2.497   1.519  0.3297  0.5213 -0.5789
  664SOL    HW1 1991   0.700   2.447   1.510  0.8229  0.7459  1.5860
  664SOL    HW2 1992   0.775   2.582   1.571  0.7090 -0.8447 -0.1854
  665SOL     OW 1993   0.908   2.271   1.595  0.5365  0.3553 -0.4183
  665SOL    HW1 1994   0.995   2.288   1.645  0.2778 -1.5787  0.4459
  665SOL    HW2 1995   0.862   2.357   1.573  1.6427 -3.7633  1.1782
  666SOL     OW 1996   0.644   3.021   2.358  0.0930 -0.3190 -0.1514
  666SOL    HW1 1997   0.666   0.005   2.405  2.1844 -0.9645 -1.4651
  666SOL    HW2 1998   0.610   2.952   2.428  2.1673 -2.7516 -0.2780
  667SOL     OW 1999   2.088   1.403   1.840 -0.5150 -0.0812 -0.5081
  667SOL    HW1 2000   2.116   1.392   1.740  2.7799  1.1109 -3.0344
  667SOL    HW2 2001   2.142   1.484   1.876  2.0903  0.8620  1.9356
  668SOL     OW 2002   1.820   2.972   1.646  0.2485  0.2148  0.2744
  668SOL    HW1 2003   1.754   2.933   1.711 -1.6466  1.2388  0.8484
  668SOL    HW2 2004   1.792   3.055   1.597  0.4147  0.1784  2.1085
  669SOL     OW 2005   2.476   2.723   0.961  0.6030 -0.0831  0.4863
  669SOL    HW1 2006   2.525   2.634   0.954  1.1338  0.7663 -1.5871
  669SOL    HW2 2007   2.482   2.769   0.870  1.1561 -0.8863 -1.9735
  670SOL     OW 2008   1.247   2.294   3.053 -0.0208  0.0026  0.5231
  670SOL    HW1 2009   1.184   2.353   0.000 -2.6084 -1.8326 -0.2857
  670SOL    HW2 2010   1.204   2.259   2.968 -2.8742  1.3656  0.3533
  671SOL     OW 2011   0.619   0.971   0.432  0.0312 -0.1002  0.1063
  671SOL    HW1 2012   0.596   1.010   0.337 -4.9737  0.5082 -2.7426
  671SOL    HW2 2013   0.636   1.046   0.500  0.2933 -0.8775  0.1758
  672SOL     OW 2014   2.742   1.213   2.813 -0.5032  0.2871  0.4331
  672SOL    HW1 2015   2.846   1.197   2.815  2.5625 -2.6546  0.8063
  672SOL    HW2 2016   2.716   1.222   2.716  0.5400  2.0218 -1.4576
  673SOL     OW 2017   2.989   2.039   1.690 -0.7075 -0.0675 -0.1202
  673SOL    HW1 2018   3.058   2.048   1.765 -1.0110 -1.2368 -0.5941
  673SOL    HW2 2019   2.899   2.003   1.711 -1.2437  2.2747  0.8534
  674SOL     OW 2020   0.659   2.376   2.211 -0.3346 -0.1313  0.2361
  674SOL    HW1 2021   0.585   2.330   2.261 -1.0784  1.7143  0.3823
  674SOL    HW2 2022   0.689   2.323   2.133  1.4898 -1.0163  2.7140
  675SOL     OW 2023   1.089   0.628   1.751  0.1484  0.6236 -0.9825
  675SOL    HW1 2024   1.002   0.679   1.734 -0.5724  2.2602 -3.2303
  675SOL    HW2 2025   1.091   0.553   1.685  0.6906  1.4471  1.7074
  676SOL     OW 2026   1.834   0.005   1.261  0.5290 -0.0561 -0.1481
  676SOL    HW1 2027   1.756   3.044   1.259  0.0356  0.1503 -0.9395
  676SOL    HW2 2028   1.832   0.055   1.350 -0.5069 -1.4585  1.2804
  677SOL     OW 2029   2.402   1.425   3.081 -0.3085 -0.4897  0.1793
  677SOL    HW1 2030   2.357   1.476   3.007  1.9861 -0.0089  1.6361
  677SOL    HW2 2031   2.463   1.352   3.045  0.3346 -0.3797  0.2823
  678SOL     OW 2032   2.737   1.358   1.309  0.1566 -0.0422  0.0914
  678SOL    HW1 2033   2.720   1.454   1.280 -1.0352  1.0389 -1.1990
  678SOL    HW2 2034   2.663   1.321   1.370 -2.5352 -0.1943 -2.3205
  679SOL     OW 2035   2.457   0.449   0.075  0.2923  0.0303 -0.0661
  679SOL    HW1 2036   2.462   0.436   0.176  0.2458 -0.1516  2.1779
  679SOL    HW2 2037   2.553   0.459   0.044 -0.9775  1.4386 -1.0776
  680SOL     OW 2038   0.504   1.529   1.926  0.0315  0.5294 -0.2781
  680SOL    HW1 2039   0.520   1.622   1.964  0.3460 -0.7715 -0.6397
  680SOL    HW2 2040   0.540   1.453   1.986  3.3128  1.1850 -0.1847
  681SOL     OW 2041   2.649   2.137   1.707  0.4496  0.6826 -0.4451
  681SOL    HW1 2042   2.711   2.179   1.643 -0.7021 -1.6854 -0.7333
  681SOL    HW2 2043   2.690   2.047   1.736 -1.1151 -0.5979  0.4513
  682SOL     OW 2044   0.191   2.220   3.062 -0.2501 -0.1596 -0.3443
  682SOL    HW1 2045   0.174   2.122   3.040 -1.2950 -0.6882 -0.9188
  682SOL    HW2 2046   0.103   2.270   3.058 -0.2007  0.1539 -0.3880
  683SOL     OW 2047   2.958   2.148   1.352 -0.1643  0.6416 -0.2130
  683SOL    HW1 2048   2.913   2.056   1.334  0.5182  1.2918  2.3495
  683SOL    HW2 2049   3.028   2.135   1.428  0.4296 -0.3559  2.6404
  684SOL     OW 2050   2.885   1.275   2.165 -0.1061 -0.5686  0.1453
  684SOL    HW1 2051   2.913   1.339   2.237 -0.0941 -0.9865 -2.9421
  684SOL    HW2 2052   2.801   1.226   2.184  3.3147  2.1894  0.5986
  685SOL     OW 2053   1.427   0.612   0.401  0.1303 -0.1501 -0.4757
  685SOL    HW1 2054   1.474   0.595   0.314 -3.4113  2.5806  0.3450
  685SOL    HW2 2055   1.408   0.527   0.453  2.4691 -0.5711  0.7187
  686SOL     OW 2056   0.656   0.274   0.613 -0.4257 -0.3270  0.7283
  686SOL    HW1 2057   0.711   0.365   0.613  2.4858  3.2019  0.8476
  686SOL    HW2 2058   0.560   0.301   0.599  1.3925 -0.6297  0.9024
  687SOL     OW 2059   0.568   1.889   2.813  0.1405  0.4277 -0.1520
  687SOL    HW1 2060   0.552   1.866   2.714 -2.3788  1.9105 -2.5491
  687SOL    HW2 2061   0.541   1.986   2.828  1.2724 -0.6469  0.3783
  688SOL     OW 2062   2.017   0.339   1.571  0.2611  0.3940 -0.4863
  688SOL    HW1 2063   2.105   0.296   1.601  1.1828 -1.8630  1.1375
  688SOL    HW2 2064   2.014   0.439   1.580 -1.0634  1.3461 -2.6829
  689SOL     OW 2065   1.450   0.407   0.876 -0.1026 -0.1351 -0.1108
  689SOL    HW1 2066   1.481   0.379   0.969 -2.7059 -1.6129 -0.4911
  689SOL    HW2 2067   1.491   0.498   0.846  1.4933  1.2687 -0.4570
  690SOL     OW 2068   3.050   1.450   1.350  0.1139 -0.0181 -0.2439
  690SOL    HW1 2069   2.967   1.440   1.410  0.6748 -0.1354  0.1697
  690SOL    HW2 2070   0.007   1.371   1.357  0.9915  0.5885 -0.2813
  691SOL     OW 2071   0.234   2.147   1.203 -0.4298 -0.2489  0.0699
  691SOL    HW1 2072   0.323   2.197   1.182  2.0318 -0.1521 -0.2937
  691SOL    HW2 2073   0.251   2.052   1.237 -1.8325  1.4319  0.7862
  692SOL     OW 2074   1.258   0.076   1.562 -0.3717  0.6595 -0.1477
  692SOL    HW1 2075   1.283   0.005   1.633 -1.5476 -0.3656  3.4152
  692SOL    HW2 2076   1.334   0.105   1.504 -3.8257  0.6597  0.5867
  693SOL     OW 2077   0.978   1.671   2.074  0.1213  0.1676  0.6274
  693SOL    HW1 2078   0.924   1.754   2.091 -0.6798 -3.3133  1.1329
  693SOL    HW2 2079   0.992   1.652   1.972 -1.1418  1.3688  1.5090
  694SOL     OW 2080   1.902   1.480   0.841 -0.3338 -0.6251 -0.0623
  694SOL    HW1 2081   1.817   1.451   0.889 -0.3196  1.2702 -1.0128
  694SOL    HW2 2082   1.945   1.399   0.790  1.1181  0.1566 -2.7277
  695SOL     OW 2083   1.124   0.755   1.379  0.0950  0.0529  0.0568
  695SOL    HW1 2084   1.119   0.785   1.283  1.6933  1.4685  1.0658
  695SOL    HW2 2085   1.039   0.696   1.397 -1.7639 -1.9076 -0.1098
  696SOL     OW 2086   0.463   0.056   0.583  0.6881 -0.5764  0.2094
  696SOL    HW1 2087   0.460   0.110   0.495 -0.3565  0.8638 -1.7908
  696SOL    HW2 2088   0.372   0.009   0.586 -1.3181  0.8736 -1.2302
  697SOL     OW 2089   2.018   0.473   1.150  0.2066 -0.0620 -0.4307
  697SOL    HW1 2090   1.997   0.453   1.051  0.0793  0.3737  0.5778
  697SOL    HW2 2091   1.940   0.445   1.209  2.7700 -0.2783 -0.8380
  698SOL     OW 2092   1.472   1.420   1.880 -0.6971  0.1909 -0.5666
  698SOL    HW1 2093   1.538   1.491   1.915 -0.5697  1.3780 -0.4978
  698SOL    HW2 2094   1.514   1.326   1.887  1.4200 -0.8881 -0.2028
  699SOL     OW 2095   3.100   0.223   2.156  0.2449 -0.5679  0.0948
  699SOL    HW1 2096   3.006   0.188   2.184 -3.5073 -1.2446  1.9670
  699SOL    HW2 2097   0.008   0.321   2.168  2.0073 -0.7185 -0.3150
  700SOL     OW 2098   1.417   2.475   0.622  0.4058  0.1898 -0.0708
  700SOL    HW1 2099   1.436   2.468   0.522 -1.6678  0.1021  3.7355
  700SOL    HW2 2100   1.505   2.454   0.672  1.4679 -1.1669  0.3984
  701SOL     OW 2101   0.089   1.460   2.545  0.4385  0.0114  0.4552
  701SOL    HW1 2102   0.121   1.540   2.497 -1.2511 -3.6554  1.2504
  701SOL    HW2 2103   0.063   1.489   2.638  0.9071  0.8782 -0.1480
  702SOL     OW 2104   0.816   0.072   0.545 -0.0594 -0.6583  0.4031
  702SOL    HW1 2105   0.755   0.151   0.558  2.1538 -0.0284 -3.0770
  702SOL    HW2 2106   0.788   3.101   0.606  0.0956  1.9212  2.6888
  703SOL     OW 2107   1.831   2.901   2.826  0.1895  0.2104 -0.0978
  703SOL    HW1 2108   1.896   2.971   2.863  2.6707  1.7353 -0.1271
  703SOL    HW2 2109   1.746   2.942   2.788 -0.7654 -0.5845  3.0812
  704SOL     OW 2110   2.561   1.996   0.218  1.0089 -0.2145 -0.2269
  704SOL    HW1 2111   2.655   2.028   0.203  0.8892  1.0094 -1.6037
  704SOL    HW2 2112   2.563   1.929   0.294  2.7812  0.1873 -0.1510
  705SOL     OW 2113   2.762   2.244   2.317  0.0500 -0.2252  0.0499
  705SOL    HW1 2114   2.689   2.310   2.300  2.1242 -1.1906  1.0560
  705SOL    HW2 2115   2.856   2.289   2.318  0.6380 -0.6988  0.9989
  706SOL     OW 2116   2.888   3.057   0.415 -0.3048 -0.2115 -0.0240
  706SOL    HW1 2117   2.819   3.088   0.350 -0.0858 -0.8015  1.1783
  706SOL    HW2 2118   2.844   3.000   0.486 -2.8934 -0.4572  0.5583
  707SOL     OW 2119   1.094   0.168   2.969  0.1001 -0.5088  0.6995
  707SOL    HW1 2120   1.154   0.107   2.911 -2.2006 -1.3102  1.1120
  707SOL    HW2 2121   1.018   0.113   3.009  1.6818  1.6737  1.2226
  708SOL     OW 2122   0.235   2.106   1.701 -0.4264 -0.3041  0.7013
  708SOL    HW1 2123   0.203   2.157   1.783 -2.2070 -0.9784 -1.1561
  708SOL    HW2 2124   0.204   2.006   1.693 -2.7525 -0.1024 -3.2146
  709SOL     OW 2125   1.401   2.825   1.938  0.3953 -0.2131  0.4364
  709SOL    HW1 2126   1.354   2.749   1.985 -0.9945  0.7644  4.2468
  709SOL    HW2 2127   1.383   2.908   1.997  1.0585  0.1259  0.1461
  710SOL     OW 2128   1.702   2.566   2.792  0.3282 -0.0024 -0.5735
  710SOL    HW1 2129   1.712   2.637   2.864  0.1228  2.1156 -0.0675
  710SOL    HW2 2130   1.600   2.561   2.776 -1.5324  0.8274  3.0659
  711SOL     OW 2131   0.958   2.487   2.664 -0.0094 -0.0944  0.4801
  711SOL    HW1 2132   0.946   2.415   2.737 -0.3779  0.9716  0.3092
  711SOL    HW2 2133   0.915   2.462   2.573 -1.7314 -1.1813 -0.0351
  712SOL     OW 2134   1.190   1.899   2.976 -0.1740 -0.1941  0.0383
  712SOL    HW1 2135   1.268   1.887   2.909  0.0953  5.0286 -2.4998
  712SOL    HW2 2136   1.138   1.814   2.990  0.2701  1.7334  0.8750
  713SOL     OW 2137   1.724   0.873   1.648  0.0964 -0.3703  0.0425
  713SOL    HW1 2138   1.781   0.807   1.697  0.8358  1.3552 -1.5159
  713SOL    HW2 2139   1.763   0.967   1.639 -0.5281  2.3425  0.7511
  714SOL     OW 2140   1.222   1.459   1.721 -0.5892  0.3377 -0.0672
  714SOL    HW1 2141   1.314   1.452   1.775  4.4696  1.4324 -2.4816
  714SOL    HW2 2142   1.228   1.399   1.637 -2.1017  0.2385 -1.9762
  715SOL     OW 2143   2.666   0.186   0.343 -0.0567 -0.0904  0.6300
  715SOL    HW1 2144   2.770   0.210   0.341  2.9045 -0.0185  0.7702
  715SOL    HW2 2145   2.646   0.113   0.274 -0.5787 -1.3057 -2.1196
  716SOL     OW 2146   0.531   2.584   1.093 -0.2323 -0.0408 -0.1661
  716SOL    HW1 2147   0.611   2.592   1.160  2.1426 -0.4296 -1.4855
  716SOL    HW2 2148   0.537   2.649   1.011  0.7485  1.0046 -3.4767
  717SOL     OW 2149   2.645   0.769   0.464  0.1716  0.1148  0.1096
  717SOL    HW1 2150   2.596   0.688   0.511  1.1690 -0.5333 -0.2696
  717SOL    HW2 2151   2.576   0.812   0.406  1.5284  0.3214  1.9985
  718SOL     OW 2152   1.767   1.310   1.245 -0.5746  0.7440 -0.0088
  718SOL    HW1 2153   1.748   1.395   1.300  1.1669  0.6679  2.7588
  718SOL    HW2 2154   1.724   1.225   1.280  0.1890 -0.9611 -0.2299
  719SOL     OW 2155   2.634   2.792   0.060  0.0109 -0.1644  0.3181
  719SOL    HW1 2156   2.598   2.824   3.072 -2.8605 -0.1136 -0.2001
  719SOL    HW2 2157   2.596   2.700   0.081 -1.5041 -2.0766  0.8696
  720SOL     OW 2158   1.010   0.608   1.019  0.2708  0.3221  0.8352
  720SOL    HW1 2159   1.090   0.547   1.040  1.0751 -0.8344  1.3325
  720SOL    HW2 2160   0.933   0.600   1.082  0.5727 -5.0374 -0.1163
  721SOL     OW 2161   1.890   0.176   1.049 -0.3917  0.1479 -0.4532
  721SOL    HW1 2162   1.986   0.173   1.019 -2.4481 -0.5575 -0.2055
  721SOL    HW2 2163   1.890   0.118   1.132 -3.0834  0.4497  0.9755
  722SOL     OW 2164   0.921   1.990   1.869  0.3295 -0.1058  0.0678
  722SOL    HW1 2165   0.871   1.954   1.950 -1.5094  0.5595  0.6973
  722SOL    HW2 2166   1.008   2.033   1.899 -3.7009  1.3105  0.9883
  723SOL     OW 2167   1.135   3.083   1.352 -0.2715  0.1704 -0.0939
  723SOL    HW1 2168   1.202   3.042   1.289  0.1777  2.4486  0.5822
  723SOL    HW2 2169   1.182   0.020   1.435  0.0094  0.5869  0.3742
  724SOL     OW 2170   1.841   2.071   1.841 -0.2334 -0.2406  0.3526
  724SOL    HW1 2171   1.825   2.027   1.750  1.0796  0.5619 -0.3263
  724SOL    HW2 2172   1.937   2.047   1.867  1.1246  1.2008  1.1818
  725SOL     OW 2173   1.449   2.740   1.546 -0.2906  0.1830  0.1536
  725SOL    HW1 2174   1.543   2.756   1.513  0.1019 -0.0443 -2.2001
  725SOL    HW2 2175   1.452   2.682   1.629  1.8094 -2.0733 -3.9148
  726SOL     OW 2176   1.869   0.174   0.194 -0.2773  0.2082 -0.3558
  726SOL    HW1 2177   1.955   0.123   0.154  2.8543  0.1323 -2.2422
  726SOL    HW2 2178   1.902   0.250   0.249 -4.2975 -2.0081 -1.5304
  727SOL     OW 2179   1.293   1.905   0.489 -0.8525  0.4663 -0.1205
  727SOL    HW1 2180   1.270   1.974   0.560  0.4069 -1.3175 -1.1307
  727SOL    HW2 2181   1.392   1.911   0.471 -0.7970 -1.6571  1.1827
  728SOL     OW 2182   1.862   2.773   2.597  0.7450  0.4750 -0.3312
  728SOL    HW1 2183   1.771   2.737   2.571 -0.6653  0.6945  1.3576
  728SOL    HW2 2184   1.859   2.826   2.688  0.3759  1.6888  1.1626
  729SOL     OW 2185   2.234   2.476   1.799  0.2192  0.1088  0.0032
  729SOL    HW1 2186   2.294   2.460   1.722  2.8747 -1.0272  1.0312
  729SOL    HW2 2187   2.240   2.400   1.861 -2.2797 -0.5984  1.1961
  730SOL     OW 2188   1.649   0.579   2.463 -0.4816 -0.2731  0.4571
  730SOL    HW1 2189   1.668   0.534   2.554  0.9916  0.2861 -0.0722
  730SOL    HW2 2190   1.644   0.508   2.389 -0.7976 -2.8077  0.1734
  731SOL     OW 2191   0.527   3.060   1.203  0.1272 -0.1170 -0.1156
  731SOL    HW1 2192   0.479   3.004   1.270  2.2660  1.4524 -1.3301
  731SOL    HW2 2193   0.589   0.026   1.243  3.6740  0.2556 -0.3253
  732SOL     OW 2194   1.918   2.815   1.102 -0.8409  0.0658 -0.1714
  732SOL    HW1 2195   1.895   2.900   1.049  2.1906 -0.8179 -0.4159
  732SOL    HW2 2196   1.909   2.740   1.037 -2.5874 -1.3152  0.3693
  733SOL     OW 2197   1.362   0.738   1.493 -0.1309  0.3411  0.1072
  733SOL    HW1 2198   1.291   0.772   1.427 -0.7194 -1.9394  0.7635
  733SOL    HW2 2199   1.357   0.796   1.575  0.4345  0.2922 -1.5082
  734SOL     OW 2200   2.713   2.251   0.501 -0.6032 -0.1364 -0.2105
  734SOL    HW1 2201   2.643   2.268   0.427 -0.5008 -0.4654 -1.7811
  734SOL    HW2 2202   2.692   2.174   0.559  0.8989  1.9395 -1.1124
  735SOL     OW 2203   0.524   0.420   0.162 -0.5082  0.2603 -0.6146
  735SOL    HW1 2204   0.535   0.504   0.106  1.9496 -0.1637 -1.1353
  735SOL    HW2 2205   0.611   0.402   0.216  4.3611 -1.3193  2.8623
  736SOL     OW 2206   1.994   2.167   2.658 -0.3524  0.4593 -0.3082
  736SOL    HW1 2207   1.996   2.188   2.761 -0.2341  0.3581  3.6069
  736SOL    HW2 2208   1.959   2.247   2.609 -1.4147 -0.8121 -1.6978
  737SOL     OW 2209   1.087   2.471   1.180 -0.2979  0.2602 -0.3586
  737SOL    HW1 2210   1.167   2.481   1.118 -1.6969  1.4461  0.5241
  737SOL    HW2 2211   1.020   2.419   1.124 -0.5166 -1.4699 -2.1981
  738SOL     OW 2212   1.530   2.655   2.186  0.4063 -0.4364 -0.1343
  738SOL    HW1 2213   1.472   2.727   2.226  2.6159 -1.3860  1.0921
  738SOL    HW2 2214   1.622   2.690   2.160 -0.0102  1.1220 -0.3950
  739SOL     OW 2215   1.138   2.102   2.031 -0.8598 -0.0159  0.0304
  739SOL    HW1 2216   1.208   2.157   1.984 -1.4287  1.8215  0.2826
  739SOL    HW2 2217   1.114   2.131   2.124  0.4172 -1.3631 -1.1331
  740SOL     OW 2218   1.805   2.368   1.567  0.1128  0.0334 -0.3556
  740SOL    HW1 2219   1.837   2.277   1.527 -0.2997 -2.0774  0.1276
  740SOL    HW2 2220   1.856   2.439   1.519 -0.0748  2.7827  1.8085
  741SOL     OW 2221   2.172   1.745   3.104  0.2751  0.3830  0.0132
  741SOL    HW1 2222   2.093   1.693   0.042  1.8891 -1.1912  0.3237
  741SOL    HW2 2223   2.211   1.686   3.028 -2.2259 -2.8444 -2.0039
  742SOL     OW 2224   0.869   1.053   2.765  0.1011  0.1760 -0.3570
  742SOL    HW1 2225   0.772   1.046   2.736 -0.6042 -1.6035 -1.9836
  742SOL    HW2 2226   0.932   1.019   2.693  1.1572 -0.8945  2.0638
  743SOL     OW 2227   2.647   1.170   2.549  0.2295  0.1110 -0.1484
  743SOL    HW1 2228   2.713   1.094   2.532 -2.9519  1.0702 -0.6410
  743SOL    HW2 2229   2.559   1.165   2.497  0.3176 -0.5023  0.9951
  744SOL     OW 2230   2.327   2.390   2.051 -0.2751  0.2312 -0.2159
  744SOL    HW1 2231   2.255   2.422   2.114  2.4451 -0.0646 -0.9041
  744SOL    HW2 2232   2.368   2.466   1.999 -2.4333  2.3517  1.4496
  745SOL     OW 2233   2.612   1.853   1.541  0.1090  0.5425 -0.4440
  745SOL    HW1 2234   2.577   1.943   1.507  1.7206 -0.9195  0.4160
  745SOL    HW2 2235   2.539   1.788   1.560 -1.9534  0.7613 -0.5768
  746SOL     OW 2236   2.864   1.286   0.778 -1.1297 -0.0326  0.0695
  746SOL    HW1 2237   2.964   1.278   0.800 -2.2552  0.0701  0.5385
  746SOL    HW2 2238   2.818   1.284   0.868  2.8583  1.9942 -1.7296
  747SOL     OW 2239   1.741   2.370   0.522  0.0185  0.6652  0.1864
  747SOL    HW1 2240   1.832   2.333   0.509 -2.8341  0.8044 -1.1807
  747SOL    HW2 2241   1.677   2.289   0.539 -0.1895 -2.6272  1.7224
  748SOL     OW 2242   0.865   2.230   3.075  0.0621 -0.1100  0.2195
  748SOL    HW1 2243   0.932   2.165   0.012  0.8429 -0.9367  0.1606
  748SOL    HW2 2244   0.770   2.201   3.097 -1.0482  1.5111 -1.1790
  749SOL     OW 2245   2.812   0.263   2.187 -0.0475  0.5400 -0.5351
  749SOL    HW1 2246   2.790   0.365   2.180  1.9567  0.4533 -1.8029
  749SOL    HW2 2247   2.734   0.208   2.157  2.4537  1.8492  0.3324
  750SOL     OW 2248   1.466   0.122   1.379 -0.0510 -0.6661  0.1737
  750SOL    HW1 2249   1.525   0.200   1.392 -1.2335 -1.3090  0.5614
  750SOL    HW2 2250   1.526   0.040   1.363  0.1508  2.7199  0.5246
  751SOL     OW 2251   2.115   2.467   2.480  0.4246  0.7948 -0.1379
  751SOL    HW1 2252   2.035   2.437   2.538 -2.3476  0.5595  2.2910
  751SOL    HW2 2253   2.172   2.528   2.538 -0.3623 -0.2973 -0.0228
  752SOL     OW 2254   1.841   1.891   1.133 -0.2046  0.2021  0.2095
  752SOL    HW1 2255   1.758   1.835   1.163  1.3640 -2.2363 -0.7956
  752SOL    HW2 2256   1.922   1.832   1.129 -2.0608  1.8684  1.4978
  753SOL     OW 2257   1.335   0.717   2.159 -0.4305  0.5200  0.2617
  753SOL    HW1 2258   1.362   0.718   2.255  0.5236  1.8832 -2.1081
  753SOL    HW2 2259   1.416   0.680   2.105  2.1200  0.3440 -3.5695
  754SOL     OW 2260   0.243   2.772   0.895  0.0499 -0.5650 -0.5661
  754SOL    HW1 2261   0.225   2.869   0.867  3.8547 -2.1341 -0.4678
  754SOL    HW2 2262   0.181   2.754   0.974 -0.7822  1.5239  2.6265
  755SOL     OW 2263   2.234   3.098   1.618  0.1358 -0.2708  0.7293
  755SOL    HW1 2264   2.329   3.061   1.629  0.1131 -0.1505 -1.1690
  755SOL    HW2 2265   2.235   0.091   1.584 -1.6069 -0.3995 -0.4814
  756SOL     OW 2266   1.521   0.980   2.425 -0.0531  0.4582  0.2812
  756SOL    HW1 2267   1.478   0.889   2.426  0.8549  1.7458 -0.8064
  756SOL    HW2 2268   1.504   1.024   2.338 -3.5166 -0.5989  0.2413
  757SOL     OW 2269   2.806   2.796   1.705 -0.2360 -0.3150 -0.1840
  757SOL    HW1 2270   2.735   2.860   1.740 -1.3888 -0.4342  2.4416
  757SOL    HW2 2271   2.814   2.809   1.604  0.7531 -1.6426  2.5256
  758SOL     OW 2272   0.368   0.136   1.399  1.0133 -0.4437 -0.0189
  758SOL    HW1 2273   0.306   0.062   1.365 -0.0664 -1.7576 -0.4524
  758SOL    HW2 2274   0.425   0.101   1.479 -0.5837 -1.5727  0.7673
  759SOL     OW 2275   2.312   1.225   0.700  0.2560  0.0837 -0.2006
  759SOL    HW1 2276   2.378   1.159   0.678 -0.9039  1.7569  3.0588
  759SOL    HW2 2277   2.329   1.257   0.799  0.4053 -0.1156  2.4505
  760SOL     OW 2278   1.788   0.119   1.533 -0.5988  0.7146  0.5068
  760SOL    HW1 2279   1.708   0.159   1.584  1.4868 -0.4056 -0.8435
  760SOL    HW2 2280   1.875   0.173   1.542 -2.5496  1.6350 -0.8349
  761SOL     OW 2281   1.898   0.358   0.400  0.1725  0.4210 -0.2064
  761SOL    HW1 2282   1.982   0.420   0.396  0.6919  2.3785 -1.6493
  761SOL    HW2 2283   1.840   0.384   0.477 -1.0063  1.9818 -1.4945
  762SOL     OW 2284   2.288   2.624   0.030 -0.2077  0.0843 -0.8782
  762SOL    HW1 2285   2.348   2.600   3.054  0.8905 -2.3416 -0.5987
  762SOL    HW2 2286   2.192   2.607   0.008  3.6114 -0.7100  0.8080
  763SOL     OW 2287   1.101   0.858   1.105 -0.6393 -0.3793 -0.7189
  763SOL    HW1 2288   1.052   0.789   1.046 -0.4555 -0.5741 -1.2780
  763SOL    HW2 2289   1.142   0.928   1.044 -0.9436  0.0415 -0.8637
  764SOL     OW 2290   2.218   2.353   2.776  0.2641  0.2909  0.5416
  764SOL    HW1 2291   2.239   2.453   2.771  0.2904 -2.2714 -2.0901
  764SOL    HW2 2292   2.125   2.327   2.735  0.7366 -1.9607  1.9079
  765SOL     OW 2293   0.229   0.644   2.175 -0.8710 -0.1020  0.2716
  765SOL    HW1 2294   0.270   0.658   2.266 -1.0310 -0.1566 -0.0383
  765SOL    HW2 2295   0.294   0.609   2.107 -2.0744 -1.6393 -0.9057
  766SOL     OW 2296   2.657   1.649   2.565 -0.0328 -0.5075  0.2470
  766SOL    HW1 2297   2.602   1.590   2.624  3.8668  0.0276 -2.4413
  766SOL    HW2 2298   2.668   1.598   2.482 -1.9459  1.5117  0.7153
  767SOL     OW 2299   0.235   1.575   2.059  0.0608  0.1834  0.5270
  767SOL    HW1 2300   0.331   1.578   2.097  0.6666 -1.6116 -0.5440
  767SOL    HW2 2301   0.188   1.489   2.094 -2.4425 -1.0549  0.2081
  768SOL     OW 2302   1.016   1.062   0.115  0.1034 -1.0790  0.2139
  768SOL    HW1 2303   1.008   0.965   0.144  0.3030  0.8709 -0.6360
  768SOL    HW2 2304   1.112   1.093   0.111  0.1632 -1.0749 -1.2355
  769SOL     OW 2305   1.731   2.729   2.997  0.0633  0.3253  0.0095
  769SOL    HW1 2306   1.644   2.765   3.040  0.5578  2.1436  1.3524
  769SOL    HW2 2307   1.759   2.801   2.931  0.7050 -0.3909  2.2059
  770SOL     OW 2308   0.467   0.317   2.319 -0.3702 -0.1334 -0.1580
  770SOL    HW1 2309   0.391   0.249   2.312  0.0272 -1.5162  2.1566
  770SOL    HW2 2310   0.489   0.369   2.234  0.2121  1.0604 -3.6533
  771SOL     OW 2311   0.839   2.347   1.141  0.3450 -0.3336 -0.2491
  771SOL    HW1 2312   0.802   2.430   1.191 -0.8640  1.8051 -0.0229
  771SOL    HW2 2313   0.800   2.352   1.049  1.0454 -0.3570  4.0717
  772SOL     OW 2314   0.294   0.635   3.040 -0.6275 -0.6845  0.0042
  772SOL    HW1 2315   0.317   0.585   2.955  0.5515  0.3915  2.9506
  772SOL    HW2 2316   0.232   0.711   3.015  1.0203 -0.3991 -3.7043
  773SOL     OW 2317   2.029   0.835   1.859  0.3603  0.2810 -0.6709
  773SOL    HW1 2318   2.075   0.850   1.768 -0.1426  1.2423 -2.9955
  773SOL    HW2 2319   1.951   0.770   1.850  1.3452  1.1564  1.5362
  774SOL     OW 2320   0.971   1.205   0.546 -0.3204  0.6857 -0.6402
  774SOL    HW1 2321   0.985   1.103   0.575  0.4145 -4.7077  2.0508
  774SOL    HW2 2322   0.978   1.263   0.632  0.9022 -1.5779  0.7492
  775SOL     OW 2323   1.961   0.276   2.837  0.6951  0.7850 -0.3005
  775SOL    HW1 2324   1.953   0.173   2.863  0.9296 -1.8103  1.1512
  775SOL    HW2 2325   1.900   0.304   2.760 -0.3913 -1.8721  2.7477
  776SOL     OW 2326   2.390   0.084   2.653 -0.0095 -0.1863 -0.4974
  776SOL    HW1 2327   2.489   0.084   2.632 -4.2603 -0.3733 -1.7277
  776SOL    HW2 2328   2.346   0.016   2.595  1.7231  2.6102  1.3015
  777SOL     OW 2329   0.843   1.731   0.268  0.4645  0.2547  0.4896
  777SOL    HW1 2330   0.856   1.631   0.252  2.1731 -0.5249 -2.2558
  777SOL    HW2 2331   0.809   1.771   0.176 -0.0042 -0.1908  0.5453
  778SOL     OW 2332   0.680   2.909   0.134  0.2235  0.5019  0.0308
  778SOL    HW1 2333   0.584   2.898   0.178 -2.9688 -0.8761  2.7095
  778SOL    HW2 2334   0.749   2.855   0.188 -0.4704 -1.0181  2.6914
  779SOL     OW 2335   0.200   1.166   3.093  0.0629  0.2857  0.0332
  779SOL    HW1 2336   0.128   1.159   0.060  1.0007 -1.0880 -1.0981
  779SOL    HW2 2337   0.195   1.095   3.018 -0.7636 -0.1288 -0.7076
  780SOL     OW 2338   2.220   0.489   2.325 -0.0570 -0.1768  0.5541
  780SOL    HW1 2339   2.134   0.479   2.275  4.9346  3.9663  0.8538
  780SOL    HW2 2340   2.227   0.429   2.409 -0.3454 -1.0622 -0.1774
  781SOL     OW 2341   1.850   0.627   1.762 -0.6807 -0.0124 -0.2738
  781SOL    HW1 2342   1.865   0.574   1.851  0.1172 -2.2207  4.1924
  781SOL    HW2 2343   1.911   0.596   1.684  0.0050  1.0521 -0.5096
  782SOL     OW 2344   1.650   1.783   2.336 -0.1448 -0.9931  0.0006
  782SOL    HW1 2345   1.584   1.855   2.300  2.5099  0.6130 -2.1884
  782SOL    HW2 2346   1.698   1.745   2.253  1.0648  1.6428 -0.2215
  783SOL     OW 2347   1.334   2.969   1.200 -0.0945 -0.2311 -0.7807
  783SOL    HW1 2348   1.314   2.890   1.262  0.3495 -0.5065 -1.0338
  783SOL    HW2 2349   1.309   2.951   1.101 -0.5029  1.1951 -1.2996
  784SOL     OW 2350   1.427   0.694   2.408  0.0910  0.1778  0.1118
  784SOL    HW1 2351   1.518   0.653   2.414 -1.4742  2.1157 -1.5616
  784SOL    HW2 2352   1.393   0.709   2.499  0.7987  0.1666 -1.0775
  785SOL     OW 2353   1.916   0.378   2.567 -0.2476  0.1781  0.2217
  785SOL    HW1 2354   1.984   0.454   2.571 -0.0293 -1.8271 -0.0508
  785SOL    HW2 2355   1.837   0.401   2.630  0.3530  1.2262  0.5014
  786SOL     OW 2356   0.058   1.340   0.880 -0.0816 -0.3000 -0.0649
  786SOL    HW1 2357   0.154   1.335   0.841  0.1272 -0.1185  1.2870
  786SOL    HW2 2358   0.035   1.429   0.924 -0.8787 -2.2710  1.7647
  787SOL     OW 2359   1.544   1.914   0.398 -0.1820 -0.7684  0.2447
  787SOL    HW1 2360   1.550   2.005   0.454 -0.0418  2.4369  4.0091
  787SOL    HW2 2361   1.630   1.902   0.341  2.4769  1.9168 -2.5066
  788SOL     OW 2362   2.045   1.636   1.456 -0.7424 -0.5012 -0.1794
  788SOL    HW1 2363   2.032   1.638   1.353  2.0712  0.1099 -1.4368
  788SOL    HW2 2364   2.111   1.711   1.488  2.9295  1.2615  1.9680
  789SOL     OW 2365   0.026   1.221   2.612 -0.0207 -0.5020  0.1490
  789SOL    HW1 2366   3.100   1.147   2.547  0.5873 -0.6141 -2.3968
  789SOL    HW2 2367   0.052   1.316   2.573  1.7179  2.8664 -2.0538
  790SOL     OW 2368   0.642   0.291   2.838  0.4097  0.3641 -0.7812
  790SOL    HW1 2369   0.590   0.347   2.909  1.3203 -2.2068  1.0515
  790SOL    HW2 2370   0.587   0.235   2.774  1.2871  2.4980 -2.3668
  791SOL     OW 2371   0.936   0.157   2.329  0.0613 -0.2905 -0.4708
  791SOL    HW1 2372   0.840   0.155   2.363  0.2884 -1.1518  0.7349
  791SOL    HW2 2373   0.932   0.154   2.232 -2.7030  1.4688  4.4760
  792SOL     OW 2374   1.946   0.478   2.278  0.4312  0.4051  0.1896
  792SOL    HW1 2375   1.965   0.508   2.375 -1.3785 -1.9919  0.4670
  792SOL    HW2 2376   1.863   0.420   2.279 -1.7014 -1.7590 -1.3032
  793SOL     OW 2377   2.699   0.702   1.572  0.4733 -0.0599  0.1510
  793SOL    HW1 2378   2.783   0.666   1.523  1.4200  2.1308 -0.1048
  793SOL    HW2 2379   2.627   0.636   1.566  3.3923  2.6609  0.9013
  794SOL     OW 2380   0.122   0.557   1.627  0.6157  0.5070 -0.2405
  794SOL    HW1 2381   0.213   0.601   1.630  2.6805  0.6975 -0.5965
  794SOL    HW2 2382   0.112   0.481   1.694 -1.0157 -0.8859  0.6274
  795SOL     OW 2383   3.030   1.374   0.312 -0.0643  0.0591  0.7610
  795SOL    HW1 2384   2.981   1.359   0.397  1.6205  0.8222  0.8960
  795SOL    HW2 2385   3.081   1.459   0.306 -1.2302 -1.6550 -1.5297
  796SOL     OW 2386   0.313   2.815   3.092 -0.1973  0.8240  0.6988
  796SOL    HW1 2387   0.346   2.828   0.086 -1.0454  1.9869  1.0479
  796SOL    HW2 2388   0.231   2.872   3.063  1.5566 -0.8865  0.5107
  797SOL     OW 2389   1.992   2.526   3.088  0.5054 -0.4793  0.1094
  797SOL    HW1 2390   1.899   2.508   0.030 -4.3798  1.1131 -0.7338
  797SOL    HW2 2391   1.979   2.558   2.991 -1.3302 -0.6704  1.7910
  798SOL     OW 2392   0.045   1.073   1.623  0.0572  0.5351 -0.6634
  798SOL    HW1 2393   0.147   1.045   1.628  2.3159 -1.3244  2.1798
  798SOL    HW2 2394   0.029   1.090   1.526  0.2647  0.5168 -1.1236
  799SOL     OW 2395   2.953   0.807   2.730  0.1974 -0.1676 -0.0305
  799SOL    HW1 2396   3.049   0.833   2.711  1.2392  1.2656 -0.7716
  799SOL    HW2 2397   2.940   0.708   2.756  1.5460 -1.5017  0.8551
  800SOL     OW 2398   2.858   1.969   0.696  0.2192 -0.4382  0.0065
  800SOL    HW1 2399   2.804   1.955   0.610 -2.8327 -1.2112 -1.2331
  800SOL    HW2 2400   2.953   1.998   0.674  0.4272  1.8134  0.4905
  801SOL     OW 2401   1.812   1.146   0.915  0.6787  0.1904  0.0246
  801SOL    HW1 2402   1.874   1.186   0.844 -0.7921  1.0298 -2.3616
  801SOL    HW2 2403   1.774   1.229   0.960  0.5596  0.5178 -0.7826
  802SOL     OW 2404   1.205   2.033   1.438  0.1278  0.3307  0.8563
  802SOL    HW1 2405   1.294   1.999   1.401  0.0687  0.6991  1.3871
  802SOL    HW2 2406   1.178   2.124   1.403 -0.2635 -0.2676  1.6429
  803SOL     OW 2407   0.080   1.838   0.364 -0.1338 -0.3666  0.8520
  803SOL    HW1 2408   0.176   1.801   0.363 -0.4475  2.0882  0.3448
  803SOL    HW2 2409   0.059   1.854   0.267 -1.3495  1.3225 -1.6492
  804SOL     OW 2410   1.024   2.645   1.391 -0.6203  0.2575 -0.1199
  804SOL    HW1 2411   1.002   2.619   1.487 -1.5564 -0.3942  3.6660
  804SOL    HW2 2412   1.037   2.565   1.330 -1.0827 -1.3262 -0.9937
  805SOL     OW 2413   1.670   1.014   0.335 -0.4201  0.0285 -0.0031
  805SOL    HW1 2414   1.593   1.005   0.263 -2.3649 -0.4297  0.0500
  805SOL    HW2 2415   1.714   1.105   0.331  2.0380 -3.4958 -2.6884
  806SOL     OW 2416   1.525   3.097   1.002 -0.8144 -0.4202  0.0816
  806SOL    HW1 2417   1.504   0.048   0.915 -0.8912 -1.0762  1.3970
  806SOL    HW2 2418   1.437   3.077   1.045  0.3228  1.2887 -0.7186
  807SOL     OW 2419   2.341   2.948   2.888 -0.0007  0.3132  0.1376
  807SOL    HW1 2420   2.333   3.048   2.896 -0.3119  3.4525 -0.4874
  807SOL    HW2 2421   2.441   2.920   2.884  2.7293 -0.8234 -0.4131
  808SOL     OW 2422   0.011   1.161   0.174  0.4835 -0.4288 -0.6319
  808SOL    HW1 2423   3.077   1.244   0.223  0.4281  0.8017  2.8428
  808SOL    HW2 2424   3.068   1.074   0.211  0.0133  0.3215  0.2827
  809SOL     OW 2425   2.800   0.944   2.499  0.1881  0.9117 -0.1203
  809SOL    HW1 2426   2.830   0.889   2.581  0.0163 -0.7658  1.8961
  809SOL    HW2 2427   2.740   0.881   2.438  0.3832  0.6949 -1.7589
  810SOL     OW 2428   2.249   2.847   1.919 -0.5351  0.2859 -0.3663
  810SOL    HW1 2429   2.173   2.800   1.864 -1.1826  1.3728 -1.6318
  810SOL    HW2 2430   2.239   2.803   2.009 -1.5578  1.0854 -1.0628
  811SOL     OW 2431   2.528   2.596   1.982 -0.0930 -0.0310 -0.2658
  811SOL    HW1 2432   2.546   2.693   1.993  0.7797 -2.4096 -1.0240
  811SOL    HW2 2433   2.545   2.560   1.891 -2.1031 -2.6154 -0.1455
  812SOL     OW 2434   1.734   0.285   3.098 -0.6267 -0.3116  0.2141
  812SOL    HW1 2435   1.732   0.231   3.013  0.6948  0.1099  1.7247
  812SOL    HW2 2436   1.791   0.251   0.070  3.2219  0.9510  0.0097
  813SOL     OW 2437   2.078   3.084   2.020 -0.0650 -0.2681  0.0357
  813SOL    HW1 2438   2.128   2.999   1.989  0.4999 -0.6200 -0.3704
  813SOL    HW2 2439   2.012   0.012   1.949 -1.1060 -1.7245 -1.2247
  814SOL     OW 2440   1.785   1.134   1.646  0.0749 -0.1965  0.4212
  814SOL    HW1 2441   1.818   1.148   1.741  2.9768  1.5679 -0.5953
  814SOL    HW2 2442   1.728   1.219   1.624 -2.9745  1.5548 -0.0179
  815SOL     OW 2443   0.475   0.750   0.441 -0.0350 -0.3328  0.3583
  815SOL    HW1 2444   0.497   0.709   0.351  3.3423 -0.6756  3.6275
  815SOL    HW2 2445   0.525   0.837   0.442  0.0612 -4.2854 -2.3148
  816SOL     OW 2446   2.028   1.400   2.832 -0.3254  0.3482 -0.3577
  816SOL    HW1 2447   1.980   1.352   2.759  0.6252  1.4058  3.9756
  816SOL    HW2 2448   1.972   1.432   2.911  1.0654  1.3923  1.8704
  817SOL     OW 2449   0.194   3.047   0.555 -0.2032 -0.4988 -0.4469
  817SOL    HW1 2450   0.234   2.976   0.493 -0.9208 -4.5225  0.7873
  817SOL    HW2 2451   0.176   3.016   0.650 -2.0256 -0.0299 -2.1451
  818SOL     OW 2452   2.023   0.141   2.459 -0.6627  0.0833  0.8891
  818SOL    HW1 2453   2.096   0.157   2.382  1.2017  0.7142 -2.0196
  818SOL    HW2 2454   2.009   0.224   2.521  0.2108  0.8369  2.4791
  819SOL     OW 2455   1.178   0.910   0.470 -0.0516  0.4823  0.6505
  819SOL    HW1 2456   1.173   0.941   0.564  3.1615 -1.9288 -1.2657
  819SOL    HW2 2457   1.092   0.923   0.418 -1.7528 -1.2393  0.1196
  820SOL     OW 2458   2.112   0.996   0.906  0.3290  0.6981  0.1411
  820SOL    HW1 2459   2.209   1.031   0.910 -1.6948 -0.7496 -1.6669
  820SOL    HW2 2460   2.048   1.064   0.868  1.1804 -0.2744 -0.9720
  821SOL     OW 2461   2.248   3.095   0.553 -0.0109  0.2009  0.0989
  821SOL    HW1 2462   2.288   3.093   0.457 -2.2354 -3.5000 -0.9304
  821SOL    HW2 2463   2.153   0.032   0.556 -2.1083 -0.3776  0.5738
  822SOL     OW 2464   0.598   2.801   2.576  0.0080 -0.3715  0.1776
  822SOL    HW1 2465   0.687   2.808   2.624  0.9865  1.3295 -1.4283
  822SOL    HW2 2466   0.555   2.708   2.591 -2.1813 -2.7085  0.1273
  823SOL     OW 2467   0.138   2.284   1.880 -0.5137 -0.0654 -0.3754
  823SOL    HW1 2468   0.064   2.237   1.934  1.2838  2.1023  0.6722
  823SOL    HW2 2469   0.100   2.372   1.833 -2.6722  1.7646 -1.2549
  824SOL     OW 2470   0.803   3.081   1.928  0.4655  0.1014 -0.4213
  824SOL    HW1 2471   0.823   2.981   1.940 -0.2365 -1.0008 -1.8422
  824SOL    HW2 2472   0.796   3.103   1.825 -0.1613 -0.8283 -1.6137
  825SOL     OW 2473   1.414   1.442   0.507  0.5125  0.0960  0.3446
  825SOL    HW1 2474   1.314   1.418   0.500  0.9584 -2.0275 -0.1116
  825SOL    HW2 2475   1.445   1.522   0.453 -1.8174  2.4934  0.4260
  826SOL     OW 2476   1.452   0.360   3.101 -0.2171 -0.3354  0.3935
  826SOL    HW1 2477   1.547   0.322   3.082  0.0073  1.5523 -1.5258
  826SOL    HW2 2478   1.390   0.290   0.032 -2.7863 -0.4166 -1.3940
  827SOL     OW 2479   0.297   1.660   1.436  0.5856  0.5958 -0.4455
  827SOL    HW1 2480   0.394   1.668   1.464 -0.5796  0.2804 -0.2936
  827SOL    HW2 2481   0.281   1.585   1.366  0.9482  0.5859 -0.1955
  828SOL     OW 2482   2.367   1.306   1.638  0.5249 -0.2496  0.1393
  828SOL    HW1 2483   2.270   1.328   1.635  0.7758 -3.3428  5.6404
  828SOL    HW2 2484   2.375   1.207   1.647 -1.3287  1.3586  0.6058
  829SOL     OW 2485   0.022   2.085   0.204  0.6196 -0.1437  0.7879
  829SOL    HW1 2486   3.099   1.989   0.200 -1.9167  0.6283 -1.9727
  829SOL    HW2 2487   0.010   2.127   0.112 -0.1777  2.3852  0.4879
  830SOL     OW 2488   1.128   0.636   0.565  0.2550 -0.6787 -0.7317
  830SOL    HW1 2489   1.180   0.727   0.559 -0.2760  1.3136  3.5281
  830SOL    HW2 2490   1.105   0.614   0.471 -2.6817 -0.1982  2.9952
  831SOL     OW 2491   2.930   1.873   2.948  0.0068 -0.1799 -0.6730
  831SOL    HW1 2492   2.864   1.802   2.921 -0.8697  1.7595  0.3656
  831SOL    HW2 2493   2.890   1.961   2.924  1.1220 -0.9566  0.8028
  832SOL     OW 2494   1.217   2.700   0.021  0.2633  0.8708  0.3895
  832SOL    HW1 2495   1.192   2.783   0.074 -0.4024 -1.0313 -1.4527
  832SOL    HW2 2496   1.170   2.617   0.055  2.7145  1.1933 -0.1599
  833SOL     OW 2497   1.118   0.354   2.360  0.0982 -0.1164 -0.2356
  833SOL    HW1 2498   1.046   0.281   2.352 -0.7809 -1.1628 -0.6812
  833SOL    HW2 2499   1.072   0.444   2.367 -0.7553 -1.7618  0.3421
  834SOL     OW 2500   0.165   0.926   0.825  0.2158  0.9422  0.0384
  834SOL    HW1 2501   0.079   0.931   0.776  2.2728  1.3609  2.4759
  834SOL    HW2 2502   0.190   0.830   0.809 -2.1692  2.5452 -0.7956
  835SOL     OW 2503   2.286   0.361   1.906  0.4929  0.0215  0.3464
  835SOL    HW1 2504   2.344   0.402   1.978 -2.6957  0.2348 -0.5640
  835SOL    HW2 2505   2.190   0.378   1.936 -3.4844 -4.6833  2.8950
  836SOL     OW 2506   0.543   2.282   0.677  0.1124  0.2443  0.4056
  836SOL    HW1 2507   0.522   2.354   0.603 -1.0803  1.1904 -3.8456
  836SOL    HW2 2508   0.611   2.210   0.641  2.3080  0.9685 -0.0003
  837SOL     OW 2509   2.018   1.666   2.128 -0.1747 -0.2159 -0.7753
  837SOL    HW1 2510   2.046   1.568   2.149 -0.3961  0.8358  1.3940
  837SOL    HW2 2511   2.037   1.722   2.214  0.7779 -0.9251 -0.3642
  838SOL     OW 2512   0.313   1.071   1.593  0.4464 -0.7456 -0.1107
  838SOL    HW1 2513   0.340   1.100   1.497 -0.5797  0.5043 -1.0796
  838SOL    HW2 2514   0.387   1.016   1.633  3.4206 -0.9694  2.4914
  839SOL     OW 2515   0.203   0.261   0.722  0.3825 -0.4762 -0.2701
  839SOL    HW1 2516   0.270   0.322   0.677 -0.7459  0.0278  0.8539
  839SOL    HW2 2517   0.231   0.164   0.721 -1.0720 -0.4652 -0.8393
  840SOL     OW 2518   0.080   0.422   2.428 -0.3309 -0.5739  0.0368
  840SOL    HW1 2519   0.032   0.446   2.343  1.6386  0.6235  1.5598
  840SOL    HW2 2520   0.135   0.502   2.463  0.2505 -1.3667  0.6787
  841SOL     OW 2521   0.116   2.517   2.989 -0.0197 -0.1373 -0.7561
  841SOL    HW1 2522   0.177   2.575   2.932  0.7297 -2.2637 -0.0007
  841SOL    HW2 2523   0.160   2.487   3.076 -0.0899  1.3829 -1.3438
  842SOL     OW 2524   0.656   3.025   0.988  0.1281  0.0775 -0.2746
  842SOL    HW1 2525   0.663   0.014   0.949  1.2757 -1.1859 -1.1060
  842SOL    HW2 2526   0.629   3.039   1.087  2.6200 -0.6687  2.0883
  843SOL     OW 2527   0.036   1.544   2.801 -0.4278  0.2831  0.1842
  843SOL    HW1 2528   0.105   1.528   2.878  1.9238  0.6268  3.6045
  843SOL    HW2 2529   3.058   1.486   2.815  1.9836 -0.9974  0.4588
  844SOL     OW 2530   1.103   2.166   2.296 -0.3976 -0.1173  0.0561
  844SOL    HW1 2531   1.169   2.236   2.329 -0.0377 -1.9228 -1.0040
  844SOL    HW2 2532   1.112   2.081   2.356  2.0232 -2.4407 -1.4588
  845SOL     OW 2533   2.261   2.657   2.584  0.1006  0.0507 -0.6510
  845SOL    HW1 2534   2.287   2.705   2.501  0.6836 -2.0248  2.9221
  845SOL    HW2 2535   2.209   2.727   2.641 -2.8575  0.5140  1.4528
  846SOL     OW 2536   1.908   1.242   2.647 -0.1204  0.0245  0.8724
  846SOL    HW1 2537   1.816   1.283   2.664 -0.5451  0.2554  1.0181
  846SOL    HW2 2538   1.898   1.149   2.606  0.6936 -1.5640 -0.7759
  847SOL     OW 2539   2.818   0.181   2.898  0.0392 -0.1632  0.4570
  847SOL    HW1 2540   2.803   0.265   2.843  0.4785 -0.7688  1.2812
  847SOL    HW2 2541   2.844   0.197   2.995 -0.1305 -2.0175 -2.0164
  848SOL     OW 2542   3.067   0.951   0.337  0.1731 -0.4859 -0.2844
  848SOL    HW1 2543   3.028   1.009   0.411 -1.6564 -0.5178 -1.9806
  848SOL    HW2 2544   0.065   0.946   0.344 -0.0729 -0.8745 -0.0104
  849SOL     OW 2545   1.419   0.378   2.512  0.2375 -0.0535  0.9454
  849SOL    HW1 2546   1.359   0.447   2.470  0.3255 -1.3022 -2.4177
  849SOL    HW2 2547   1.380   0.335   2.596 -1.3890 -0.8439  0.3386
  850SOL     OW 2548   0.251   0.958   0.375 -0.3979  0.6006 -0.5194
  850SOL    HW1 2549   0.301   0.871   0.380  3.8985 -0.5500  1.8394
  850SOL    HW2 2550   0.237   1.003   0.463 -0.5535 -0.5267 -2.2493
  851SOL     OW 2551   0.492   1.411   0.604 -0.4304  0.2068  0.1914
  851SOL    HW1 2552   0.583   1.458   0.610  0.5719  1.8949 -0.0331
  851SOL    HW2 2553   0.465   1.382   0.508  0.5471  1.0840  0.2069
  852SOL     OW 2554   1.232   1.187   1.541 -0.0155  0.1131 -0.0918
  852SOL    HW1 2555   1.161   1.111   1.557 -0.8124 -3.0506  0.4306
  852SOL    HW2 2556   1.319   1.148   1.563 -0.8602  2.4623  0.2155
  853SOL     OW 2557   2.605   1.650   0.629  0.4580  0.1146 -0.1635
  853SOL    HW1 2558   2.532   1.602   0.573 -0.2665  0.4270 -0.4402
  853SOL    HW2 2559   2.701   1.636   0.595  0.3430 -0.9626  2.3442
  854SOL     OW 2560   1.464   1.089   2.179 -0.6905 -0.3221  0.3699
  854SOL    HW1 2561   1.449   1.087   2.077  0.5467 -2.1728 -0.8179
  854SOL    HW2 2562   1.402   1.161   2.214 -0.6152  0.8938 -1.4472
  855SOL     OW 2563   0.416   2.578   2.613  0.6469  0.1870  0.4916
  855SOL    HW1 2564   0.458   2.514   2.678  0.1907  1.5088 -3.2016
  855SOL    HW2 2565   0.328   2.612   2.657 -0.0176 -0.2787 -1.1623
  856SOL     OW 2566   0.991   1.014   2.033 -0.3088 -0.2383 -0.0219
  856SOL    HW1 2567   1.026   1.060   1.944 -0.0675  1.9199  0.3329
  856SOL    HW2 2568   1.017   1.061   2.115 -2.5156 -1.4055 -0.1115
  857SOL     OW 2569   0.774   0.951   2.376 -0.1617 -0.1304  0.4594
  857SOL    HW1 2570   0.756   0.997   2.287  0.5538  0.2378  0.2525
  857SOL    HW2 2571   0.718   0.992   2.452  0.2431 -2.3651  0.4709
  858SOL     OW 2572   2.770   1.099   1.851 -0.2064 -0.8751 -0.0798
  858SOL    HW1 2573   2.789   1.196   1.880 -0.2087 -0.2076  0.7806
  858SOL    HW2 2574   2.861   1.048   1.845  1.4362 -0.1808  0.6353
  859SOL     OW 2575   2.707   3.005   0.657 -0.3562 -0.2930 -0.4417
  859SOL    HW1 2576   2.801   2.983   0.685 -0.9300  0.3232 -2.2061
  859SOL    HW2 2577   2.642   2.931   0.673 -0.6402  1.1478 -2.9262
  860SOL     OW 2578   1.621   0.249   1.083 -0.0791 -0.0684  0.1993
  860SOL    HW1 2579   1.568   0.160   1.091  0.8741  0.0879 -0.9381
  860SOL    HW2 2580   1.722   0.234   1.079 -0.0154  0.7997 -2.4598
  861SOL     OW 2581   1.759   0.660   1.048  0.2634  0.6781  0.4246
  861SOL    HW1 2582   1.685   0.605   1.093  1.1621 -1.4456  0.7664
  861SOL    HW2 2583   1.831   0.606   1.010 -1.9069  1.4410  0.3386
  862SOL     OW 2584   1.461   2.973   2.547 -0.1555 -0.4636 -0.1217
  862SOL    HW1 2585   1.423   2.902   2.485  1.4120 -2.6266  1.4393
  862SOL    HW2 2586   1.486   3.061   2.499 -1.7010 -2.0979 -0.9295
  863SOL     OW 2587   2.957   2.882   1.204  1.0412 -0.4262 -0.2992
  863SOL    HW1 2588   2.972   2.979   1.169  2.2189  0.9893 -3.9526
  863SOL    HW2 2589   2.865   2.844   1.167 -2.5312 -0.2304 -2.0361
  864SOL     OW 2590   2.442   0.170   2.265  0.5010  0.6926 -0.7609
  864SOL    HW1 2591   2.473   0.233   2.337 -1.5822 -1.2159 -3.8511
  864SOL    HW2 2592   2.343   0.186   2.232 -4.0380  1.9797 -1.9827
  865SOL     OW 2593   1.243   1.490   2.664  0.2453  0.1622 -0.7261
  865SOL    HW1 2594   1.153   1.432   2.662 -2.9097  0.3246 -2.0471
  865SOL    HW2 2595   1.227   1.588   2.692 -2.9202  0.7354  0.0013
  866SOL     OW 2596   2.183   2.893   0.993 -0.0942  0.3995 -0.0507
  866SOL    HW1 2597   2.267   2.839   1.003  1.7179 -2.1711  0.9838
  866SOL    HW2 2598   2.155   2.939   1.079 -0.0267 -0.2845 -2.2965
  867SOL     OW 2599   2.758   2.781   1.047  0.1340 -0.2351 -0.3071
  867SOL    HW1 2600   2.688   2.847   1.018  2.5688 -1.2161  0.7148
  867SOL    HW2 2601   2.781   2.711   0.976 -0.0544  0.7430  2.1830
  868SOL     OW 2602   3.040   1.865   1.465  0.7116 -0.0283 -0.1329
  868SOL    HW1 2603   3.074   1.789   1.523 -0.1240  0.4416  1.1982
  868SOL    HW2 2604   3.042   1.952   1.515 -1.1732 -0.0809 -1.1309
  869SOL     OW 2605   1.724   2.204   2.466 -0.5020 -0.0701 -0.0239
  869SOL    HW1 2606   1.714   2.289   2.518  0.9994 -0.9951  0.2266
  869SOL    HW2 2607   1.693   2.123   2.522  1.3427 -1.7180 -2.2178
  870SOL     OW 2608   1.229   1.037   0.909  0.1278  0.0633 -0.3486
  870SOL    HW1 2609   1.313   0.980   0.932  0.3305  0.1720  0.6426
  870SOL    HW2 2610   1.257   1.128   0.869 -0.6213  1.4554 -0.8597
  871SOL     OW 2611   2.938   1.691   2.177 -0.2181 -0.2129 -0.0814
  871SOL    HW1 2612   2.904   1.759   2.247 -1.6615  0.8453  1.5016
  871SOL    HW2 2613   2.958   1.601   2.227  2.9768 -0.8195 -0.8710
  872SOL     OW 2614   0.985   1.709   2.900 -0.1633  0.1284 -0.0438
  872SOL    HW1 2615   1.029   1.679   2.986 -0.3688  0.7391 -1.7719
  872SOL    HW2 2616   0.885   1.713   2.908 -0.8935  1.1739 -1.9445
  873SOL     OW 2617   0.959   1.322   1.940  0.0141 -0.0702  0.4783
  873SOL    HW1 2618   0.902   1.258   1.882  1.6991 -0.6358  0.7320
  873SOL    HW2 2619   0.966   1.417   1.902  1.5237  2.5597  0.7254
  874SOL     OW 2620   1.464   1.054   1.612 -0.4330  0.4712 -0.0672
  874SOL    HW1 2621   1.536   0.985   1.587  0.3052 -0.4209 -0.0571
  874SOL    HW2 2622   1.505   1.148   1.593  1.3686  0.8898 -0.7503
  875SOL     OW 2623   2.887   0.300   0.060 -0.2456 -0.3855 -0.0367
  875SOL    HW1 2624   2.898   0.300   0.160  1.1444  4.2015  1.0472
  875SOL    HW2 2625   2.799   0.351   0.037 -1.3490  4.2246 -0.7796
  876SOL     OW 2626   0.821   1.201   0.266  0.0707 -0.1549 -0.1750
  876SOL    HW1 2627   0.874   1.197   0.352  0.7685 -3.7046 -1.0959
  876SOL    HW2 2628   0.881   1.160   0.193 -0.5873 -0.9016 -0.8930
  877SOL     OW 2629   2.419   2.810   0.449  0.2755  0.3524 -0.2403
  877SOL    HW1 2630   2.340   2.743   0.454  2.6974 -1.8394  0.7168
  877SOL    HW2 2631   2.392   2.889   0.394  3.0503 -1.7802 -2.2546
  878SOL     OW 2632   1.856   1.950   0.256 -0.5145  0.0041  0.0398
  878SOL    HW1 2633   1.929   1.998   0.303  2.4539 -0.7308 -0.5697
  878SOL    HW2 2634   1.793   2.016   0.213  0.6635 -1.4965  0.2378
  879SOL     OW 2635   0.217   1.861   2.023 -0.2946  0.0567  0.0171
  879SOL    HW1 2636   0.219   1.758   2.041  0.0187 -2.8372  1.2305
  879SOL    HW2 2637   0.133   1.896   1.972 -1.1938  0.9660  0.0001
  880SOL     OW 2638   0.264   1.876   0.666  0.4228  0.6730  0.5361
  880SOL    HW1 2639   0.230   1.942   0.733  0.3804 -1.4872 -2.9159
  880SOL    HW2 2640   0.257   1.780   0.705  0.2470 -0.4931  0.5155
  881SOL     OW 2641   1.187   0.192   1.981 -0.3194  0.2596 -0.3027
  881SOL    HW1 2642   1.287   0.171   1.984  1.1919 -1.6423  0.1314
  881SOL    HW2 2643   1.173   0.289   2.004 -2.8208 -0.2534 -1.5664
  882SOL     OW 2644   2.378   1.085   0.934  0.1074  0.5699  0.5071
  882SOL    HW1 2645   2.405   1.025   0.851 -0.4048 -0.4790 -1.7372
  882SOL    HW2 2646   2.392   1.036   1.021 -1.2238 -1.1288 -1.6972
  883SOL     OW 2647   1.592   0.208   1.692 -0.0831  0.2295 -0.0551
  883SOL    HW1 2648   1.554   0.298   1.725 -1.0279 -2.1168 -0.3378
  883SOL    HW2 2649   1.567   0.133   1.757  0.5017 -2.3953  3.4586
  884SOL     OW 2650   2.842   0.015   1.919  0.0003  0.0880  0.1048
  884SOL    HW1 2651   2.787   0.060   1.989  1.1325 -0.1101 -1.5314
  884SOL    HW2 2652   2.912   3.057   1.956  0.6606  1.3689  2.4476
  885SOL     OW 2653   1.644   1.326   2.694  0.1531  0.5807  0.3108
  885SOL    HW1 2654   1.641   1.423   2.667  0.5017  0.6046 -0.8581
  885SOL    HW2 2655   1.579   1.276   2.638 -0.2600  2.7747  2.8963
  886SOL     OW 2656   2.174   0.474   2.794  0.2497  0.0692  0.1574
  886SOL    HW1 2657   2.110   0.401   2.814  1.3729  1.3061  2.9303
  886SOL    HW2 2658   2.130   0.564   2.780 -1.1131  2.8159  1.0008
  887SOL     OW 2659   1.005   2.884   1.699  0.2405  0.2713 -0.2749
  887SOL    HW1 2660   0.992   2.985   1.709 -0.0199  4.2524  3.7331
  887SOL    HW2 2661   1.104   2.861   1.672  2.8898  0.5027 -1.0787
  888SOL     OW 2662   1.763   1.729   2.089 -0.1720  0.0125 -1.0755
  888SOL    HW1 2663   1.753   1.702   1.988 -0.6194 -1.9250 -1.6120
  888SOL    HW2 2664   1.860   1.702   2.108 -1.3249 -1.2113 -0.4001
  889SOL     OW 2665   1.902   2.401   1.201 -0.2396 -0.1058 -0.0834
  889SOL    HW1 2666   1.975   2.419   1.268 -0.7468 -0.3148  1.0429
  889SOL    HW2 2667   1.859   2.309   1.217  2.2755 -1.5160 -0.4808
  890SOL     OW 2668   1.296   1.649   1.113  0.0112 -0.1206 -0.0377
  890SOL    HW1 2669   1.319   1.651   1.212  3.6906  0.4974  0.5059
  890SOL    HW2 2670   1.214   1.703   1.091  1.1816 -0.9768  2.0696
  891SOL     OW 2671   2.821   1.397   0.102 -0.5161 -0.4517  0.0760
  891SOL    HW1 2672   2.757   1.317   0.096  2.1904 -0.2991 -0.8331
  891SOL    HW2 2673   2.891   1.379   0.171 -1.7002 -1.0186 -0.3876
  892SOL     OW 2674   2.269   1.455   0.213 -0.4691  0.9111 -0.6873
  892SOL    HW1 2675   2.337   1.422   0.140  0.4503 -0.5522  0.0894
  892SOL    HW2 2676   2.273   1.556   0.226  0.4095  2.3787 -1.7237
  893SOL     OW 2677   2.042   2.474   1.432  0.0164  0.7449  0.0008
  893SOL    HW1 2678   2.012   2.570   1.415 -0.4668 -3.0189  0.7048
  893SOL    HW2 2679   2.114   2.466   1.508  2.0108 -0.1129 -0.6388
  894SOL     OW 2680   2.622   2.651   0.399  0.5475  0.1321 -0.0135
  894SOL    HW1 2681   2.637   2.635   0.300 -1.1144  0.5608 -0.4608
  894SOL    HW2 2682   2.534   2.702   0.421 -1.6145 -0.6102 -0.7434
  895SOL     OW 2683   2.730   2.564   2.759 -0.2944 -0.4025 -0.3853
  895SOL    HW1 2684   2.779   2.654   2.741 -2.2531 -1.1130 -0.9607
  895SOL    HW2 2685   2.734   2.511   2.674  0.0931  1.8833 -0.5853
  896SOL     OW 2686   2.322   0.121   2.988  0.1784 -0.2370 -0.6111
  896SOL    HW1 2687   2.350   0.191   2.924  3.3146 -3.1135 -1.3173
  896SOL    HW2 2688   2.269   0.158   3.069  1.3814  0.0027  2.4473
  897SOL     OW 2689   0.282   1.569   1.757 -0.1592 -0.6544 -0.8048
  897SOL    HW1 2690   0.256   1.494   1.693  0.4259  1.8823  1.5866
  897SOL    HW2 2691   0.349   1.548   1.829  2.3622 -1.3749  0.5247
  898SOL     OW 2692   2.766   1.912   1.764 -0.8829  0.0785  0.1039
  898SOL    HW1 2693   2.821   1.845   1.818  0.5834  1.2695 -0.5965
  898SOL    HW2 2694   2.707   1.868   1.693  2.1084  0.8051  3.1553
  899SOL     OW 2695   1.709   2.779   1.436 -0.1274 -0.4273  0.0784
  899SOL    HW1 2696   1.705   2.713   1.356  0.9363 -1.8850 -2.7289
  899SOL    HW2 2697   1.808   2.773   1.465  2.3234  0.3743 -2.0537
  900SOL     OW 2698   1.287   1.126   0.100  0.1721 -0.0412  0.7709
  900SOL    HW1 2699   1.322   1.152   0.007  1.8041 -2.1190  0.0752
  900SOL    HW2 2700   1.353   1.070   0.147 -0.9074  1.2539 -1.3359
  901SOL     OW 2701   1.185   1.151   2.618 -0.0322 -0.2589 -0.5253
  901SOL    HW1 2702   1.129   1.236   2.637  3.7378  1.2046 -0.4530
  901SOL    HW2 2703   1.129   1.069   2.594  0.1177  0.1926  0.0505
  902SOL     OW 2704   2.576   2.052   0.684  0.0382  0.0075 -0.0462
  902SOL    HW1 2705   2.537   2.149   0.700 -0.5290 -0.3509 -0.0120
  902SOL    HW2 2706   2.622   2.023   0.769 -0.8834 -2.0829  1.8474
  903SOL     OW 2707   2.846   1.344   1.919 -0.1146  0.2724  0.2176
  903SOL    HW1 2708   2.878   1.336   2.014  0.4193  0.9151  0.3344
  903SOL    HW2 2709   2.914   1.385   1.851  2.0531  0.7218 -0.7925
  904SOL     OW 2710   2.132   1.118   0.512  0.9966 -0.1621 -0.1881
  904SOL    HW1 2711   2.168   1.144   0.419  1.5745 -1.1450  0.2267
  904SOL    HW2 2712   2.197   1.141   0.587  1.1381 -0.2188  0.7549
  905SOL     OW 2713   2.245   2.851   1.306  0.5624 -0.2011  0.1321
  905SOL    HW1 2714   2.180   2.926   1.270 -0.6167  2.8097 -2.4648
  905SOL    HW2 2715   2.216   2.827   1.399  1.0656 -0.0123 -3.7220
  906SOL     OW 2716   1.523   2.055   3.028  0.1151 -0.1222  0.4756
  906SOL    HW1 2717   1.457   2.091   3.102  1.9742  1.9537  0.7396
  906SOL    HW2 2718   1.588   2.136   3.007  1.4395 -1.6415 -2.8952
  907SOL     OW 2719   0.964   2.515   0.786 -0.3876 -0.0747  0.0435
  907SOL    HW1 2720   1.056   2.470   0.800 -1.0850  0.4819  0.1270
  907SOL    HW2 2721   0.957   2.511   0.683  1.7625  1.4689  0.1119
  908SOL     OW 2722   0.898   0.184   2.062  0.2196  0.2810  0.5081
  908SOL    HW1 2723   0.851   0.099   2.021 -1.6031 -0.7111  0.2599
  908SOL    HW2 2724   0.988   0.199   2.014  1.4119  1.5605 -3.2237
  909SOL     OW 2725   1.899   0.087   1.845 -0.0120  0.4424 -0.0390
  909SOL    HW1 2726   1.884   0.005   1.783 -0.0271  2.3309 -1.4798
  909SOL    HW2 2727   1.812   0.131   1.872 -1.8314  1.6018  1.6677
  910SOL     OW 2728   1.110   0.894   2.870  0.3468 -0.6533 -0.2518
  910SOL    HW1 2729   1.079   0.818   2.931 -1.0174  0.8999 -1.4074
  910SOL    HW2 2730   1.032   0.958   2.848 -3.2439  0.8674  1.4198
  911SOL     OW 2731   2.979   0.637   0.064  0.0129 -0.1030  0.6536
  911SOL    HW1 2732   2.883   0.667   0.075  0.5416  1.6542 -0.9139
  911SOL    HW2 2733   3.010   0.574   0.140 -0.4097  0.2294  2.2069
  912SOL     OW 2734   2.729   2.456   3.006  0.0501 -0.1082  0.0607
  912SOL    HW1 2735   2.720   2.496   2.913  1.6738  0.3569  1.1591
  912SOL    HW2 2736   2.815   2.485   3.049 -3.6344 -0.7210  1.9293
  913SOL     OW 2737   2.726   1.967   2.676 -0.4169  0.0101  0.1024
  913SOL    HW1 2738   2.684   2.025   2.605 -2.6368 -2.1253  4.0474
  913SOL    HW2 2739   2.825   1.978   2.670  0.6585 -3.5840 -0.1946
  914SOL     OW 2740   1.797   1.693   1.578 -0.1478 -0.5732  0.0730
  914SOL    HW1 2741   1.780   1.792   1.585 -1.4135 -1.6676  0.8879
  914SOL    HW2 2742   1.896   1.672   1.554  1.3707  0.5320  0.1419
  915SOL     OW 2743   0.256   2.560   2.155  0.0596  0.0979  0.6390
  915SOL    HW1 2744   0.357   2.560   2.139  0.7611  0.6381 -1.3185
  915SOL    HW2 2745   0.245   2.586   2.251  0.2399  2.9575 -1.5200
  916SOL     OW 2746   0.264   1.334   1.589 -0.2558 -0.1839 -0.3710
  916SOL    HW1 2747   0.334   1.365   1.523 -1.5014  1.1635  2.7351
  916SOL    HW2 2748   0.250   1.230   1.581  0.1026 -0.9629 -2.0884
  917SOL     OW 2749   2.592   0.095   3.034 -0.1831 -0.6602 -0.1864
  917SOL    HW1 2750   2.490   0.095   3.016 -0.4939  0.6285 -0.3016
  917SOL    HW2 2751   2.648   0.136   2.958  1.0664  0.2512 -0.9588
  918SOL     OW 2752   1.756   2.527   2.358  0.1470  0.1402 -0.1639
  918SOL    HW1 2753   1.664   2.553   2.405 -0.9454  1.1941 -1.4085
  918SOL    HW2 2754   1.768   2.593   2.280 -0.7179  0.1104 -1.7281
  919SOL     OW 2755   1.763   2.374   1.863  0.6644  0.1110  0.5792
  919SOL    HW1 2756   1.777   2.376   1.760  1.3547  0.5745 -3.3997
  919SOL    HW2 2757   1.823   2.313   1.911 -0.3667  2.6259 -1.8615
  920SOL     OW 2758   0.467   0.930   0.014  0.2076  0.2146  0.6506
  920SOL    HW1 2759   0.535   0.892   3.057  0.1052 -0.6121  4.4887
  920SOL    HW2 2760   0.509   0.986   0.084 -2.0934 -1.0937  0.6820
  921SOL     OW 2761   3.066   1.023   2.442 -0.0222 -0.4420 -0.1199
  921SOL    HW1 2762   2.970   1.003   2.454 -0.0933 -1.4242 -0.8400
  921SOL    HW2 2763   3.078   1.059   2.347 -1.5279 -1.3979  1.2281
  922SOL     OW 2764   0.284   1.924   0.067  0.2132 -0.4167 -0.3182
  922SOL    HW1 2765   0.371   1.889   0.033 -2.8131  0.1511  0.6498
  922SOL    HW2 2766   0.286   2.026   0.087  0.8748  1.4228  0.9037
  923SOL     OW 2767   0.561   1.034   1.853  0.0713 -0.1664  0.0459
  923SOL    HW1 2768   0.469   1.027   1.903 -1.5332  0.0932 -0.0616
  923SOL    HW2 2769   0.566   0.973   1.776 -2.2249 -1.0322  2.9255
  924SOL     OW 2770   0.924   3.015   2.803 -0.4620 -0.4034  0.1026
  924SOL    HW1 2771   0.966   3.086   2.750  0.1882 -4.8664  0.9403
  924SOL    HW2 2772   0.850   3.045   2.866  0.8006 -0.6081  1.4573
  925SOL     OW 2773   2.482   1.286   1.395  0.5087  0.2214 -0.2847
  925SOL    HW1 2774   2.410   1.294   1.324 -1.4113  0.6155  0.2333
  925SOL    HW2 2775   2.434   1.290   1.486 -1.3799 -0.2028  1.8572
  926SOL     OW 2776   2.036   0.328   1.997 -0.3574 -0.6826 -1.0301
  926SOL    HW1 2777   2.009   0.246   1.945  0.1443  2.8688 -1.9909
  926SOL    HW2 2778   1.957   0.392   2.000  1.0310 -1.3887 -0.6982
  927SOL     OW 2779   2.641   2.527   1.713 -0.3049  0.2428 -0.1895
  927SOL    HW1 2780   2.687   2.611   1.679 -1.5756  0.5326 -1.5812
  927SOL    HW2 2781   2.707   2.453   1.696  3.9435  0.1627 -1.6717
  928SOL     OW 2782   0.407   0.850   2.511 -0.2573 -0.0987 -0.3292
  928SOL    HW1 2783   0.338   0.913   2.557 -0.9984 -0.0235  0.0933
  928SOL    HW2 2784   0.429   0.892   2.421 -0.5446 -0.5891  0.3918
  929SOL     OW 2785   2.604   0.153   0.607  0.4414  0.3440  0.0836
  929SOL    HW1 2786   2.628   0.053   0.617  1.1646 -0.0889  0.2160
  929SOL    HW2 2787   2.634   0.187   0.517 -0.7628 -1.2873  0.7707
  930SOL     OW 2788   2.618   0.274   1.640  0.1926 -0.3168 -0.1650
  930SOL    HW1 2789   2.567   0.198   1.684 -0.5084  0.6563 -2.0781
  930SOL    HW2 2790   2.692   0.236   1.585  0.8244  1.0417 -0.7280
  931SOL     OW 2791   2.236   1.175   0.271 -0.0169 -0.4687 -0.3434
  931SOL    HW1 2792   2.260   1.258   0.218 -1.0546 -2.4882  2.4158
  931SOL    HW2 2793   2.319   1.118   0.283 -1.8865  0.2909 -0.7044
  932SOL     OW 2794   2.445   1.627   1.580  0.3979 -0.0899  0.1329
  932SOL    HW1 2795   2.477   1.563   1.646 -1.7413  5.0541 -3.6412
  932SOL    HW2 2796   2.354   1.669   1.596 -0.9297  2.6976  1.2649
  933SOL     OW 2797   3.009   2.563   1.338 -0.0377 -0.0643  0.1164
  933SOL    HW1 2798   2.985   2.489   1.405 -2.5604  0.5811 -1.0470
  933SOL    HW2 2799   3.054   2.528   1.254 -2.8866 -0.2805  1.7100
  934SOL     OW 2800   0.842   2.072   1.335  0.0004  0.0908  0.0459
  934SOL    HW1 2801   0.884   2.146   1.383 -0.7455 -1.2939 -3.3421
  934SOL    HW2 2802   0.839   1.979   1.384  1.1318 -0.4043  2.4012
  935SOL     OW 2803   2.583   1.368   2.171 -0.1298  0.5110  0.5385
  935SOL    HW1 2804   2.575   1.264   2.163  0.7262  0.7142 -1.1400
  935SOL    HW2 2805   2.617   1.409   2.080  1.5284 -1.0078 -0.8409
  936SOL     OW 2806   2.445   1.671   2.004 -0.4801  0.5218 -0.4799
  936SOL    HW1 2807   2.513   1.701   2.076  0.3545 -0.8355  2.8563
  936SOL    HW2 2808   2.496   1.617   1.933 -1.4748  0.5663  0.5884
  937SOL     OW 2809   1.889   1.026   1.994 -0.3944 -0.3563  0.1176
  937SOL    HW1 2810   1.879   1.118   1.948 -0.2860 -1.1467 -3.9029
  937SOL    HW2 2811   1.955   0.963   1.950  1.8040  0.3545 -0.3191
  938SOL     OW 2812   0.924   2.262   2.821 -0.5620  0.2689 -0.4910
  938SOL    HW1 2813   0.895   2.256   2.918  0.6790 -1.6132 -0.2499
  938SOL    HW2 2814   1.011   2.207   2.822  0.4433 -2.3880  1.6485
  939SOL     OW 2815   2.475   0.938   2.957 -0.2320  0.5351  0.1445
  939SOL    HW1 2816   2.569   0.941   2.917  1.0185  1.9243  1.6629
  939SOL    HW2 2817   2.447   0.852   3.011 -1.5875 -0.8894 -0.0025
  940SOL     OW 2818   1.053   1.761   1.102  0.7397 -0.1388 -0.1530
  940SOL    HW1 2819   0.958   1.716   1.113 -0.8543 -0.4670 -3.0248
  940SOL    HW2 2820   1.047   1.865   1.110  0.2683  0.1452 -0.4581
  941SOL     OW 2821   0.981   2.363   2.148 -0.3941 -0.5467  0.0327
  941SOL    HW1 2822   0.885   2.382   2.175  0.0784  0.8554  0.4964
  941SOL    HW2 2823   1.024   2.287   2.196 -3.6078  0.2182  0.9582
  942SOL     OW 2824   0.445   2.325   3.037 -0.1678  0.2964 -0.3829
  942SOL    HW1 2825   0.353   2.283   3.047 -0.7634  1.3705 -2.2334
  942SOL    HW2 2826   0.437   2.426   3.058  1.4825  0.5632  0.5575
  943SOL     OW 2827   1.848   2.639   1.931 -0.6245 -0.5750 -0.0022
  943SOL    HW1 2828   1.821   2.546   1.913 -0.9816  1.9873  0.2013
  943SOL    HW2 2829   1.926   2.664   1.870 -1.0049 -0.7155 -2.2157
  944SOL     OW 2830   1.089   1.677   0.048 -0.0027 -0.3566  0.4296
  944SOL    HW1 2831   1.175   1.713   0.084 -1.6969 -0.9185 -1.3668
  944SOL    HW2 2832   1.021   1.651   0.118 -1.0002  0.3207  0.5243
  945SOL     OW 2833   2.953   2.863   0.701 -0.6955 -0.4720  0.5998
  945SOL    HW1 2834   2.912   2.791   0.757 -1.5565 -0.9222 -1.8829
  945SOL    HW2 2835   2.988   2.823   0.612  0.1045  1.0156  0.7635
  946SOL     OW 2836   1.185   1.737   2.701 -0.1872  0.0077  0.0068
  946SOL    HW1 2837   1.252   1.808   2.729  1.7348 -0.0812  0.9806
  946SOL    HW2 2838   1.102   1.736   2.765  1.0111  0.1801  2.6783
  947SOL     OW 2839   2.712   0.413   1.882  0.2350  0.1518 -0.2823
  947SOL    HW1 2840   2.668   0.377   1.797  1.2589 -2.0746  0.7882
  947SOL    HW2 2841   2.638   0.450   1.945 -0.8252  1.0654  2.3850
  948SOL     OW 2842   0.245   1.642   0.746  0.2879  0.3396  0.0288
  948SOL    HW1 2843   0.289   1.553   0.715  1.3615 -0.6295  0.1243
  948SOL    HW2 2844   0.239   1.648   0.846 -1.6809 -0.4185  3.7763
  949SOL     OW 2845   0.801   0.683   2.014  0.4316  0.1881  0.1286
  949SOL    HW1 2846   0.895   0.709   2.047 -0.4656  0.5135  3.7643
  949SOL    HW2 2847   0.795   0.618   1.938 -0.7771  0.5657 -0.2130
  950SOL     OW 2848   0.185   0.826   1.387 -0.0401 -0.2519  0.6510
  950SOL    HW1 2849   0.162   0.922   1.396  1.9130 -0.9638 -0.1553
  950SOL    HW2 2850   0.121   0.775   1.328  0.5699  2.7050  1.3978
  951SOL     OW 2851   0.806   1.467   2.235  0.4376  0.1762 -0.3480
  951SOL    HW1 2852   0.766   1.502   2.322 -0.8477  0.7814  0.5740
  951SOL    HW2 2853   0.882   1.530   2.205  0.0344 -1.2050  3.2124
  952SOL     OW 2854   1.674   2.130   0.794  0.1204  0.3250  0.1557
  952SOL    HW1 2855   1.720   2.039   0.787 -1.1561  1.1941  0.5035
  952SOL    HW2 2856   1.612   2.121   0.877 -1.9418 -1.2149  0.5865
  953SOL     OW 2857   0.976   0.807   0.198  0.3433 -0.2349 -0.2244
  953SOL    HW1 2858   0.936   0.811   0.292 -0.0602  1.2941  0.6777
  953SOL    HW2 2859   1.008   0.710   0.190  0.1465 -1.2302  3.2036
  954SOL     OW 2860   2.107   0.914   1.162 -0.1452 -0.2362 -0.3452
  954SOL    HW1 2861   2.112   0.936   1.062  0.8805  0.0574  2.1796
  954SOL    HW2 2862   2.020   0.958   1.194 -6.2837  4.4165  0.8955
  955SOL     OW 2863   2.395   1.541   0.483 -0.2852 -0.2639  0.2406
  955SOL    HW1 2864   2.299   1.575   0.493  0.9780 -0.2574  1.6726
  955SOL    HW2 2865   2.399   1.484   0.401  0.2020  1.2059  1.3330
  956SOL     OW 2866   0.758   0.508   1.798 -0.2583  0.3446 -0.0094
  956SOL    HW1 2867   0.732   0.434   1.865 -1.5027  0.6629  1.4041
  956SOL    HW2 2868   0.832   0.476   1.733  1.1294 -1.9656  2.3595
  957SOL     OW 2869   1.829   0.371   1.312  0.8070  0.0642 -0.6274
  957SOL    HW1 2870   1.742   0.340   1.354  1.0253  2.5758  1.9298
  957SOL    HW2 2871   1.905   0.324   1.364 -0.6856 -1.0330  1.0895
  958SOL     OW 2872   0.156   2.192   0.425 -0.4525  0.1901  0.3531
  958SOL    HW1 2873   0.111   2.171   0.333 -1.7427 -0.0663 -3.6089
  958SOL    HW2 2874   0.241   2.143   0.435 -2.0849  1.2622 -3.0369
  959SOL     OW 2875   2.203   1.127   1.913  0.2340  0.2712 -0.5137
  959SOL    HW1 2876   2.127   1.177   1.871 -0.2840 -0.4935 -1.4747
  959SOL    HW2 2877   2.269   1.089   1.844  1.7355  1.7254 -1.4975
  960SOL     OW 2878   0.083   1.984   2.931 -0.2459  0.3327 -0.2740
  960SOL    HW1 2879   0.140   1.940   3.004 -0.0021  1.4050  0.0124
  960SOL    HW2 2880   3.083   1.957   2.926 -2.3835  0.3251  0.0172
  961SOL     OW 2881   0.583   1.687   1.521  0.1730  0.1943  1.3669
  961SOL    HW1 2882   0.665   1.723   1.468 -0.4950  1.7582  0.3623
  961SOL    HW2 2883   0.549   1.753   1.589 -2.0652 -2.1667  1.8435
  962SOL     OW 2884   0.851   1.382   1.017  0.5033 -0.0015 -0.0793
  962SOL    HW1 2885   0.906   1.296   1.011  0.4928 -2.5784 -0.5972
  962SOL    HW2 2886   0.860   1.426   0.928 -1.1373  1.7671  1.3713
  963SOL     OW 2887   1.103   1.919   2.455 -0.4544  0.2117 -0.4851
  963SOL    HW1 2888   1.098   1.816   2.466  0.3070 -1.6408  0.7571
  963SOL    HW2 2889   1.194   1.945   2.499  0.4773  1.2814 -0.3182
  964SOL     OW 2890   0.180   2.801   1.871 -0.4507  0.4702  0.2569
  964SOL    HW1 2891   0.100   2.809   1.811  2.2486  0.5603  0.6086
  964SOL    HW2 2892   0.171   2.726   1.940  0.1098  1.8212 -0.5197
  965SOL     OW 2893   0.490   2.143   2.830  0.2383  0.0808  0.3305
  965SOL    HW1 2894   0.409   2.136   2.764 -1.1593 -1.2840 -5.1263
  965SOL    HW2 2895   0.479   2.221   2.892 -0.4410 -2.0295 -1.7493
  966SOL     OW 2896   3.100   1.586   0.091  0.1808  0.8057  0.1226
  966SOL    HW1 2897   3.006   1.585   0.134 -0.7044  0.5811  2.0847
  966SOL    HW2 2898   0.006   1.523   0.009  2.9325 -0.8275 -0.1425
  967SOL     OW 2899   2.048   3.062   0.089  0.5735  0.2658  0.4319
  967SOL    HW1 2900   2.131   3.006   0.072 -1.2340 -1.5706 -1.4105
  967SOL    HW2 2901   1.964   2.998   0.096 -3.2621 -0.9291 -1.0690
  968SOL     OW 2902   2.262   0.001   0.836  0.1133  0.6747  0.3421
  968SOL    HW1 2903   2.210   3.030   0.881 -2.0535  1.9292 -0.5481
  968SOL    HW2 2904   2.273   3.095   0.736  0.6081 -0.2966 -2.0975
  969SOL     OW 2905   0.350   1.023   2.038 -0.0768  0.3504  0.0070
  969SOL    HW1 2906   0.319   1.114   2.065 -0.3846 -0.2690  1.0230
  969SOL    HW2 2907   0.266   0.966   2.017 -0.9797 -1.4021  0.2323
  970SOL     OW 2908   1.653   1.524   0.261  0.0467  0.0980 -0.1399
  970SOL    HW1 2909   1.711   1.588   0.321  0.1249  0.2434  4.7864
  970SOL    HW2 2910   1.555   1.555   0.265  0.7857  0.6927  1.0760
  971SOL     OW 2911   2.487   2.970   1.540  0.1134  0.1060 -0.4292
  971SOL    HW1 2912   2.562   3.010   1.591  0.5334  0.2122  0.7446
  971SOL    HW2 2913   2.517   2.945   1.441  2.2690 -0.3548 -1.1141
  972SOL     OW 2914   2.771   0.216   1.240  0.2175 -0.1858  0.1582
  972SOL    HW1 2915   2.683   0.191   1.205  2.0815  2.9317  0.8644
  972SOL    HW2 2916   2.784   0.313   1.223  1.1408 -0.1530  1.6505
  973SOL     OW 2917   0.391   0.520   2.798  0.0003  0.6877  0.5831
  973SOL    HW1 2918   0.437   0.474   2.720  0.8944  1.1361 -2.5217
  973SOL    HW2 2919   0.289   0.538   2.772 -1.8843  3.3784 -1.1294
  974SOL     OW 2920   2.664   1.102   2.138  0.2130 -0.1783  0.3820
  974SOL    HW1 2921   2.661   1.095   2.033  0.2870 -0.0791  1.2191
  974SOL    HW2 2922   2.591   1.039   2.177 -1.0576 -1.9661 -0.4575
  975SOL     OW 2923   0.941   0.390   1.655  0.1589 -0.0578 -0.3671
  975SOL    HW1 2924   0.970   0.372   1.562 -1.7922 -2.1459  1.4144
  975SOL    HW2 2925   0.981   0.315   1.715  0.7336 -1.5792  1.6056
  976SOL     OW 2926   1.280   1.690   1.379 -0.0447  0.0427 -0.5607
  976SOL    HW1 2927   1.319   1.785   1.380  0.9919 -2.0870 -0.8180
  976SOL    HW2 2928   1.182   1.693   1.404  1.0120 -1.0051 -3.8613
  977SOL     OW 2929   1.052   2.886   0.142  0.1812  0.2771 -0.4450
  977SOL    HW1 2930   0.987   2.851   0.213 -3.4552 -0.8412 -1.0362
  977SOL    HW2 2931   1.007   2.971   0.109 -0.0328 -0.2507 -0.1474
  978SOL     OW 2932   2.250   1.092   2.196 -0.3016 -0.0400  0.4908
  978SOL    HW1 2933   2.162   1.081   2.250  0.6051 -1.1066 -1.8703
  978SOL    HW2 2934   2.226   1.103   2.095 -1.3197  2.0736 -1.8504
  979SOL     OW 2935   1.453   0.448   1.742  0.1547  0.4614 -0.2122
  979SOL    HW1 2936   1.493   0.537   1.758  0.9001 -0.9782  0.2346
  979SOL    HW2 2937   1.383   0.458   1.666 -4.0270  1.3363 -0.0431
  980SOL     OW 2938   1.728   1.461   2.029  0.1183 -0.6179  0.8296
  980SOL    HW1 2939   1.792   1.538   2.044 -0.5934 -0.1245 -1.3504
  980SOL    HW2 2940   1.663   1.460   2.107  1.1697 -0.5227  2.7170
  981SOL     OW 2941   1.995   0.608   1.502  0.2303  0.7045 -0.0291
  981SOL    HW1 2942   1.933   0.662   1.441  1.1926 -0.2136  1.8955
  981SOL    HW2 2943   2.078   0.591   1.448  0.3946 -1.1208  2.0913
  982SOL     OW 2944   0.835   0.347   2.671 -0.1545 -0.1349 -0.6087
  982SOL    HW1 2945   0.814   0.418   2.603  1.2542 -1.3555  1.9224
  982SOL    HW2 2946   0.770   0.340   2.749  0.4394  1.1482  0.1350
  983SOL     OW 2947   2.141   0.692   3.048  0.5533 -0.2880  0.1274
  983SOL    HW1 2948   2.107   0.597   3.062 -1.2448 -0.6028  1.7134
  983SOL    HW2 2949   2.120   0.723   2.956  0.1373 -0.5541  2.1040
  984SOL     OW 2950   0.685   0.301   1.961  0.3855  0.0547  0.2624
  984SOL    HW1 2951   0.770   0.275   2.014  0.9637 -2.5540 -0.7677
  984SOL    HW2 2952   0.620   0.352   2.025 -0.3622 -1.0815  1.0117
  985SOL     OW 2953   1.671   1.972   2.022 -0.3830 -0.6420 -0.3157
  985SOL    HW1 2954   1.720   2.001   1.937  1.9858  0.1031 -3.0782
  985SOL    HW2 2955   1.697   1.878   2.054  0.6522 -3.1875  2.7032
  986SOL     OW 2956   2.525   2.892   1.952  0.4875  0.6550  0.2674
  986SOL    HW1 2957   2.425   2.881   1.954  1.8741  2.7961  2.2644
  986SOL    HW2 2958   2.548   2.968   1.889 -0.1023  0.1229  2.1244
  987SOL     OW 2959   2.027   1.268   1.314  1.2016  0.3658 -0.3367
  987SOL    HW1 2960   2.108   1.293   1.260 -2.0794 -2.1336  0.0227
  987SOL    HW2 2961   1.943   1.267   1.260  1.0938 -1.7457 -1.7635
  988SOL     OW 2962   2.599   1.787   2.194 -0.3223  0.3226  0.2765
  988SOL    HW1 2963   2.569   1.884   2.185  1.7112  0.8422 -0.0241
  988SOL    HW2 2964   2.698   1.792   2.224  1.4617  2.2251  0.5517
  989SOL     OW 2965   1.114   2.461   0.163 -0.1093  0.3603  0.6689
  989SOL    HW1 2966   1.213   2.452   0.191  3.1572 -1.1414  0.8769
  989SOL    HW2 2967   1.052   2.395   0.209  1.3121 -0.4269  0.6528
  990SOL     OW 2968   2.031   0.763   2.788 -0.1586 -0.0001  0.0029
  990SOL    HW1 2969   1.948   0.819   2.813 -0.4924  1.3757  2.7233
  990SOL    HW2 2970   2.111   0.825   2.789  0.9142 -2.4471 -0.0053
  991SOL     OW 2971   0.971   0.509   0.777 -0.9901 -0.3136 -0.0234
  991SOL    HW1 2972   1.024   0.552   0.698 -2.8710  1.1786 -0.9088
  991SOL    HW2 2973   0.971   0.568   0.862 -1.2121  2.0349 -0.2559
  992SOL     OW 2974   2.385   0.956   1.172 -0.0974 -0.3286  0.2434
  992SOL    HW1 2975   2.443   0.988   1.250  1.6629  1.4401 -2.7193
  992SOL    HW2 2976   2.286   0.959   1.200  0.6183  1.8929 -2.3250
  993SOL     OW 2977   2.258   0.701   1.945  0.0630 -0.2448 -0.6343
  993SOL    HW1 2978   2.186   0.773   1.961  0.5845  3.4924  0.4994
  993SOL    HW2 2979   2.253   0.663   1.853  0.3333 -1.9233  0.9671
  994SOL     OW 2980   0.702   1.641   2.478  0.1585 -0.0211  0.5079
  994SOL    HW1 2981   0.788   1.684   2.440  1.4823  0.0584 -2.3869
  994SOL    HW2 2982   0.636   1.710   2.516  0.0249  0.6955  2.9659
  995SOL     OW 2983   2.147   1.166   2.952 -0.9823 -0.6549 -0.6944
  995SOL    HW1 2984   2.148   1.249   2.889  1.9326  3.8542 -1.1476
  995SOL    HW2 2985   2.177   1.085   2.898 -1.0595 -1.9262 -0.2533
  996SOL     OW 2986   2.228   1.866   0.541 -0.6118  0.3235  0.1965
  996SOL    HW1 2987   2.192   1.773   0.546  1.9340 -1.3856 -1.7462
  996SOL    HW2 2988   2.322   1.867   0.512 -1.4403  0.7575 -0.2363
  997SOL     OW 2989   2.303   0.718   2.212  0.1511  0.1623 -0.0499
  997SOL    HW1 2990   2.295   0.637   2.272 -0.1795 -1.0729 -0.1450
  997SOL    HW2 2991   2.278   0.691   2.121  2.3508  2.2094 -0.4228
  998SOL     OW 2992   2.557   1.244   0.537  0.1286  0.6057 -0.2143
  998SOL    HW1 2993   2.511   1.317   0.589 -0.2347 -1.5394 -0.0458
  998SOL    HW2 2994   2.650   1.281   0.512 -2.4016  0.5002 -2.8528
  999SOL     OW 2995   2.860   1.619   0.497 -0.2760 -0.3584  0.2573
  999SOL    HW1 2996   2.858   1.643   0.398 -1.3249  0.5621  1.7109
  999SOL    HW2 2997   2.950   1.640   0.542  1.7574  0.1693 -3.2999
 1000SOL     OW 2998   0.667   0.745   2.248 -0.7527  0.5665  0.0836
 1000SOL    HW1 2999   0.721   0.726   2.161 -0.9623  1.3884  1.0995
 1000SOL    HW2 3000   0.715   0.814   2.307  0.1290 -0.3108  3.3951
   3.10399   3.10399   3.10399
