1000 SPC/Fw water molecules t=  39.00000 step= 39000
 3000
    1SOL     OW    1   2.035   2.650   0.564 -0.3538 -0.6065 -0.0878
    1SOL    HW1    2   2.073   2.601   0.480  1.0491 -0.0722 -0.3293
    1SOL    HW2    3   1.950   2.602   0.592 -0.0463 -0.0011 -2.0582
    2SOL     OW    4   1.271   0.666   2.049 -0.2753 -0.2912 -0.7220
    2SOL    HW1    5   1.354   0.641   2.105 -2.0460  0.7903 -0.0024
    2SOL    HW2    6   1.200   0.714   2.103  0.3115 -1.6938 -2.5126
    3SOL     OW    7   1.042   2.836   2.637 -0.8699  0.1516 -0.0735
    3SOL    HW1    8   1.032   2.867   2.732  0.7305 -0.3741 -2.2005
    3SOL    HW2    9   1.012   2.740   2.624 -1.9163  0.3689 -0.0992
    4SOL     OW   10   1.171   1.476   2.988  0.1576  0.3562 -0.2072
    4SOL    HW1   11   1.209   1.480   2.891 -1.7386 -0.8713  0.6879
    4SOL    HW2   12   1.198   1.564   3.037  2.0344 -0.1481  2.5789
    5SOL     OW   13   0.743   1.158   2.150  0.3457  0.1525 -0.2509
    5SOL    HW1   14   0.791   1.095   2.081  1.2088  0.5533  0.0414
    5SOL    HW2   15   0.697   1.232   2.105 -1.3603 -2.4898  1.0418
    6SOL     OW   16   2.053   0.771   2.494 -0.2565  0.1369  0.1251
    6SOL    HW1   17   1.996   0.686   2.505 -0.5019 -0.0667 -3.1341
    6SOL    HW2   18   2.150   0.748   2.523  1.9186  0.4752 -1.3521
    7SOL     OW   19   0.514   0.663   1.499  0.0242 -0.2495  0.0968
    7SOL    HW1   20   0.544   0.698   1.408  0.4537 -0.9768  0.2124
    7SOL    HW2   21   0.535   0.568   1.506 -2.1162 -1.5492  2.5699
    8SOL     OW   22   1.996   2.753   1.760  0.1130  0.0147 -0.3222
    8SOL    HW1   23   1.911   2.804   1.792 -1.4029 -0.3859 -2.1191
    8SOL    HW2   24   2.060   2.816   1.710  0.6333 -0.5067 -1.0082
    9SOL     OW   25   0.209   3.006   0.848  0.5301 -0.5193 -0.2904
    9SOL    HW1   26   0.248   0.011   0.818 -1.1139 -0.2262 -0.9595
    9SOL    HW2   27   0.107   3.012   0.852 -1.4910 -0.4130 -2.9212
   10SOL     OW   28   0.020   2.282   2.431  0.0221  0.3025  0.6451
   10SOL    HW1   29   0.112   2.240   2.448  0.2986 -1.5706 -1.1024
   10SOL    HW2   30   3.031   2.239   2.485  0.7227 -2.2425 -3.1650
   11SOL     OW   31   0.820   1.642   3.019  0.0865 -0.1458  0.2610
   11SOL    HW1   32   0.849   1.546   3.032 -0.1765  1.7566  2.1534
   11SOL    HW2   33   0.893   1.706   3.057  0.0065  2.5584  0.7133
   12SOL     OW   34   2.227   2.716   1.122  0.0543 -0.5183 -0.4272
   12SOL    HW1   35   2.294   2.648   1.108 -4.4406  1.5280 -1.9749
   12SOL    HW2   36   2.143   2.694   1.070 -0.3188 -2.6791  2.8067
   13SOL     OW   37   0.319   2.725   3.027 -0.1484  0.8006  0.2877
   13SOL    HW1   38   0.321   2.654   0.014 -1.1629  2.1373 -0.4134
   13SOL    HW2   39   0.401   2.782   3.038 -2.5627 -1.8405  1.1134
   14SOL     OW   40   1.366   1.377   1.483  0.4045  0.5740 -0.5339
   14SOL    HW1   41   1.368   1.277   1.513 -0.2767 -1.9230 -0.0288
   14SOL    HW2   42   1.303   1.429   1.541  0.7942  1.4316  2.0743
   15SOL     OW   43   0.381   1.495   2.343 -0.1223 -0.5033 -0.0951
   15SOL    HW1   44   0.398   1.556   2.261  2.7071 -2.4169 -1.2578
   15SOL    HW2   45   0.306   1.423   2.323 -2.2273  1.6668 -0.6817
   16SOL     OW   46   1.708   0.645   2.525  0.1395  0.1613 -0.1445
   16SOL    HW1   47   1.618   0.628   2.480 -1.5779 -1.4314 -0.4870
   16SOL    HW2   48   1.726   0.739   2.565 -0.8681 -1.6660  1.3595
   17SOL     OW   49   2.876   2.763   2.321 -0.4315  0.0896  0.2637
   17SOL    HW1   50   2.778   2.774   2.284 -1.0269  0.8794 -1.7339
   17SOL    HW2   51   2.889   2.677   2.375  1.5537 -2.2013 -0.2068
   18SOL     OW   52   1.352   1.261   0.379 -0.4566 -0.2468 -0.7683
   18SOL    HW1   53   1.443   1.206   0.378  2.8234  1.3543  2.4147
   18SOL    HW2   54   1.305   1.225   0.465 -1.0790 -2.0767  0.6018
   19SOL     OW   55   0.000   1.528   2.325 -0.4957  0.3692  0.1599
   19SOL    HW1   56   0.077   1.466   2.293 -0.2228 -2.2799 -0.2193
   19SOL    HW2   57   3.061   1.609   2.266 -0.1847  1.6387  1.9967
   20SOL     OW   58   2.185   2.405   2.520 -0.6174 -0.0065  0.2802
   20SOL    HW1   59   2.263   2.386   2.583 -2.4131 -2.8537  0.6655
   20SOL    HW2   60   2.157   2.316   2.470  0.1276 -0.0558 -0.8897
   21SOL     OW   61   1.742   1.952   0.893 -0.3675  0.1838  0.0239
   21SOL    HW1   62   1.770   2.026   0.835  0.3732 -1.4856  1.0694
   21SOL    HW2   63   1.693   1.976   0.980 -1.2967  0.6392 -0.0330
   22SOL     OW   64   2.234   2.117   1.350 -0.3035  0.1214 -0.0532
   22SOL    HW1   65   2.187   2.093   1.264 -0.3275  2.5978  0.7929
   22SOL    HW2   66   2.172   2.169   1.411  0.7164  2.0604 -0.4767
   23SOL     OW   67   3.046   1.412   1.487  0.2045 -0.1418 -0.1683
   23SOL    HW1   68   3.036   1.514   1.492  2.4447 -1.8624 -3.0692
   23SOL    HW2   69   2.958   1.372   1.450 -0.2775  0.3552  0.1418
   24SOL     OW   70   1.810   1.187   2.021  0.0324  0.0219 -0.4715
   24SOL    HW1   71   1.801   1.100   1.980 -0.5266  1.9413 -1.2790
   24SOL    HW2   72   1.794   1.258   1.946  0.8252 -1.8720 -4.2886
   25SOL     OW   73   1.975   0.031   2.172 -0.3457  0.1646 -0.0536
   25SOL    HW1   74   1.941   0.105   2.233  0.9917 -0.9077  0.1829
   25SOL    HW2   75   2.052   0.065   2.114  1.2551  0.6580 -0.3528
   26SOL     OW   76   1.013   0.338   0.499  0.3096 -0.1356 -0.6786
   26SOL    HW1   77   0.932   0.328   0.441  0.7476 -2.8017  1.8999
   26SOL    HW2   78   1.063   0.421   0.477 -0.9393 -3.4112 -2.9996
   27SOL     OW   79   1.034   1.386   0.671 -0.2899  0.6031  0.6033
   27SOL    HW1   80   1.061   1.404   0.572  1.9814 -1.2206  0.6907
   27SOL    HW2   81   1.020   1.469   0.722  3.0353 -1.2742  0.0438
   28SOL     OW   82   2.501   2.287   1.041  0.1505  0.0981 -0.2530
   28SOL    HW1   83   2.467   2.385   1.035  0.4375  2.5249 -1.5212
   28SOL    HW2   84   2.547   2.258   0.953  1.3713 -0.3416 -1.8768
   29SOL     OW   85   2.250   2.939   2.019  0.0421 -0.0585 -0.2796
   29SOL    HW1   86   2.181   2.860   2.022 -2.3729 -2.0684  0.2921
   29SOL    HW2   87   2.289   2.954   1.926 -1.4226 -1.5728  2.4199
   30SOL     OW   88   0.036   2.806   1.846 -0.0879 -0.4451 -0.3768
   30SOL    HW1   89   3.050   2.801   1.772 -2.5623 -0.0979 -2.8217
   30SOL    HW2   90   0.132   2.814   1.813 -0.3250 -1.2744  0.3528
   31SOL     OW   91   3.071   1.734   2.174 -0.2937  0.0790 -0.1269
   31SOL    HW1   92   3.041   1.825   2.201  1.6002 -2.1479 -1.8243
   31SOL    HW2   93   3.041   1.718   2.078 -0.0155 -2.1716  1.9353
   32SOL     OW   94   1.547   2.368   2.172  0.1392 -0.2133  0.1748
   32SOL    HW1   95   1.508   2.418   2.092 -2.0060 -0.3374  0.0625
   32SOL    HW2   96   1.557   2.429   2.254  0.3293  0.5545 -0.5368
   33SOL     OW   97   0.265   0.184   2.977 -0.1840  0.8628 -0.1758
   33SOL    HW1   98   0.318   0.125   2.912  0.4982  2.5700 -1.2521
   33SOL    HW2   99   0.179   0.142   3.012 -1.6022 -0.8267 -3.6895
   34SOL     OW  100   2.533   0.148   0.377 -0.6561 -0.0961 -0.3279
   34SOL    HW1  101   2.584   0.135   0.465 -2.2115 -0.9644 -0.3992
   34SOL    HW2  102   2.443   0.194   0.398  0.6843 -0.6711 -1.0391
   35SOL     OW  103   2.760   2.726   1.748  0.4355 -0.3917  0.2221
   35SOL    HW1  104   2.692   2.751   1.671 -2.2804  1.5732 -0.7211
   35SOL    HW2  105   2.740   2.635   1.780  0.6224  2.8487 -1.9126
   36SOL     OW  106   2.626   3.064   2.300  0.2171 -0.1758  0.5977
   36SOL    HW1  107   2.653   3.057   2.399 -0.4114 -0.7405  2.1551
   36SOL    HW2  108   2.625   0.078   2.271 -1.3576  1.9692 -1.9579
   37SOL     OW  109   1.505   0.037   0.107 -0.3164  0.2370 -0.0509
   37SOL    HW1  110   1.596   0.057   0.148 -0.4089 -0.5084 -0.4258
   37SOL    HW2  111   1.488   3.022   0.086 -0.0507  3.2224  1.2603
   38SOL     OW  112   0.252   0.452   0.024 -0.0213 -0.7521 -0.0429
   38SOL    HW1  113   0.333   0.474   0.076  0.1518 -2.1457 -3.7056
   38SOL    HW2  114   0.275   0.373   3.053  1.1934  0.0525  1.4145
   39SOL     OW  115   1.330   1.712   2.183 -0.1514 -0.3064  0.1558
   39SOL    HW1  116   1.396   1.644   2.224 -0.2426  2.9112  2.6760
   39SOL    HW2  117   1.277   1.755   2.260 -0.4632  0.1373  0.0437
   40SOL     OW  118   0.201   0.552   2.499  0.2968 -0.3450 -0.6164
   40SOL    HW1  119   0.246   0.644   2.492  0.6034  2.0544  0.4019
   40SOL    HW2  120   0.245   0.500   2.576 -0.8087  1.4802  2.0115
   41SOL     OW  121   1.469   1.013   2.031 -0.0975 -0.5763  0.3069
   41SOL    HW1  122   1.466   0.943   1.957  0.3519 -0.8530  0.5376
   41SOL    HW2  123   1.517   0.974   2.113  4.5149 -0.8821 -1.4179
   42SOL     OW  124   2.673   2.991   1.466 -0.2901 -0.0826  0.4258
   42SOL    HW1  125   2.633   3.064   1.520  2.1404 -2.3788  1.7615
   42SOL    HW2  126   2.649   2.902   1.509  2.7342 -1.7751  0.5866
   43SOL     OW  127   1.359   1.087   1.671 -0.2173 -0.0583 -0.5728
   43SOL    HW1  128   1.359   1.171   1.728 -0.5003  0.7442  1.2766
   43SOL    HW2  129   1.411   1.014   1.721  0.5396  1.4639  0.2145
   44SOL     OW  130   0.022   0.050   3.049 -0.3682  0.1912  0.2622
   44SOL    HW1  131   0.035   0.142   0.011 -2.3938  1.9100  1.6094
   44SOL    HW2  132   3.045   3.073   0.025  0.6703 -0.7527 -0.0601
   45SOL     OW  133   0.317   1.907   1.500  0.3041  0.2515 -0.4770
   45SOL    HW1  134   0.393   1.875   1.557 -0.1318  2.3801  0.7150
   45SOL    HW2  135   0.296   1.837   1.428  1.7268  0.0759 -2.0988
   46SOL     OW  136   2.362   2.923   1.772 -0.0193 -0.1011  0.0398
   46SOL    HW1  137   2.454   2.955   1.796 -1.3047  1.4120 -0.0047
   46SOL    HW2  138   2.362   2.823   1.755  0.0313 -4.5206  0.0347
   47SOL     OW  139   0.552   1.834   1.240  0.0320  0.1399  0.3186
   47SOL    HW1  140   0.532   1.757   1.303  0.0661 -2.5966  0.4889
   47SOL    HW2  141   0.488   1.848   1.161  1.7664  1.0096  1.1182
   48SOL     OW  142   0.590   2.802   2.791  0.6479  0.2965  0.0642
   48SOL    HW1  143   0.559   2.745   2.714 -0.7177 -1.6400 -1.1562
   48SOL    HW2  144   0.652   2.741   2.845  1.0162  0.1930 -2.6723
   49SOL     OW  145   2.927   1.491   1.810 -0.1956  0.0427  0.4185
   49SOL    HW1  146   3.012   1.452   1.768 -2.1538  0.2284 -1.3275
   49SOL    HW2  147   2.859   1.507   1.736  2.4150  0.3990 -2.5309
   50SOL     OW  148   1.408   2.758   0.602 -0.0194  0.6884 -0.1318
   50SOL    HW1  149   1.418   2.706   0.689  0.4519  0.9939 -1.7145
   50SOL    HW2  150   1.354   2.839   0.629  1.2802  0.5562  3.8509
   51SOL     OW  151   0.969   0.148   1.099 -0.3333  0.1691 -0.1234
   51SOL    HW1  152   0.988   0.187   1.192  1.4935 -1.3062 -0.7994
   51SOL    HW2  153   0.908   0.212   1.048  1.7819 -0.7789  4.6121
   52SOL     OW  154   0.723   1.214   0.280  0.3834 -0.4068  0.0152
   52SOL    HW1  155   0.638   1.168   0.268  2.7588  4.2940 -2.5347
   52SOL    HW2  156   0.719   1.272   0.366  0.5898  1.9926 -0.5401
   53SOL     OW  157   1.299   2.762   2.624  0.5741  0.2963 -0.3462
   53SOL    HW1  158   1.348   2.808   2.702  1.6575 -0.2409  0.3339
   53SOL    HW2  159   1.201   2.799   2.619  0.2750 -0.5710 -0.5603
   54SOL     OW  160   2.095   0.536   1.768  0.1865  0.2050  0.0812
   54SOL    HW1  161   2.078   0.477   1.681  0.6435 -2.7890 -2.6008
   54SOL    HW2  162   2.194   0.551   1.779  0.2019 -1.6399 -1.6949
   55SOL     OW  163   2.818   2.458   0.582  0.1422 -0.0709 -0.4751
   55SOL    HW1  164   2.734   2.502   0.560  3.6308 -0.2899  2.1189
   55SOL    HW2  165   2.888   2.526   0.614 -2.0304 -0.0293 -1.6017
   56SOL     OW  166   0.985   2.769   1.617 -0.0647  0.2466  0.4800
   56SOL    HW1  167   0.979   2.858   1.671 -0.8267  1.7201 -0.3333
   56SOL    HW2  168   0.891   2.752   1.576  0.6209  0.6870 -2.1225
   57SOL     OW  169   1.974   1.010   2.513 -0.4751 -0.0545 -0.4772
   57SOL    HW1  170   2.020   0.917   2.503  1.8965 -2.1346 -1.1879
   57SOL    HW2  171   1.936   1.052   2.428 -0.8781  1.0234 -1.1521
   58SOL     OW  172   0.129   0.863   2.152 -0.1655  0.1029 -0.6836
   58SOL    HW1  173   0.091   0.769   2.161 -0.2679 -1.0299 -2.5422
   58SOL    HW2  174   0.144   0.888   2.056 -1.7505  1.5333  1.9760
   59SOL     OW  175   0.869   2.367   1.835  0.1368  0.2155 -0.0958
   59SOL    HW1  176   0.789   2.400   1.787  1.2735  2.0567 -1.7392
   59SOL    HW2  177   0.961   2.393   1.790  2.6518  1.2861 -0.3303
   60SOL     OW  178   2.142   2.530   0.330  0.7468  0.1101 -0.1577
   60SOL    HW1  179   2.237   2.522   0.291  0.0648  2.2522 -0.9106
   60SOL    HW2  180   2.093   2.598   0.278  2.0290 -0.9955 -0.0141
   61SOL     OW  181   1.645   2.535   0.779 -0.1479 -0.2289  0.0191
   61SOL    HW1  182   1.643   2.457   0.845  1.9082  1.1143  0.0495
   61SOL    HW2  183   1.557   2.579   0.794 -0.6914 -1.0713  0.8867
   62SOL     OW  184   1.875   0.070   3.029 -0.0242 -0.3737  0.2115
   62SOL    HW1  185   1.849   0.060   0.043  1.4430  2.9036 -2.5108
   62SOL    HW2  186   1.844   0.162   2.997 -0.5878  0.7345  1.5672
   63SOL     OW  187   2.440   0.456   2.956  0.1716 -0.1612  0.0888
   63SOL    HW1  188   2.462   0.553   2.967  1.4038 -2.7276  0.4351
   63SOL    HW2  189   2.506   0.407   2.899 -1.2454  0.4892  1.7202
   64SOL     OW  190   1.514   0.931   2.900 -0.5140  0.2461 -0.0473
   64SOL    HW1  191   1.449   0.857   2.921  1.5735 -0.6153  1.1923
   64SOL    HW2  192   1.605   0.891   2.883 -0.9441 -1.3350 -0.3765
   65SOL     OW  193   0.561   2.749   1.356  0.3242  0.7542 -0.5026
   65SOL    HW1  194   0.616   2.671   1.317  0.5406  1.1144 -0.0616
   65SOL    HW2  195   0.543   2.820   1.288  0.5550 -1.5258 -1.2829
   66SOL     OW  196   0.924   1.324   1.522 -0.2655 -0.4698  0.7741
   66SOL    HW1  197   0.915   1.226   1.537 -1.2971 -0.2319  0.2062
   66SOL    HW2  198   1.012   1.364   1.559  0.8477  2.0166 -1.6514
   67SOL     OW  199   2.196   1.993   1.983 -0.0068 -0.1783 -0.5480
   67SOL    HW1  200   2.211   2.097   2.008  0.1045  6.3627  2.7868
   67SOL    HW2  201   2.181   1.973   1.887 -0.7106  0.1714 -0.0295
   68SOL     OW  202   0.619   1.384   2.035 -0.0265  0.1698 -0.1194
   68SOL    HW1  203   0.659   1.475   2.061  1.2965  2.3280  0.1503
   68SOL    HW2  204   0.666   1.349   1.952 -1.8828  0.7329  1.1670
   69SOL     OW  205   2.939   2.645   0.274  0.2584  0.0743  0.9048
   69SOL    HW1  206   3.022   2.689   0.231  0.1333  1.5932  0.4440
   69SOL    HW2  207   2.923   2.689   0.367  1.0904  1.3965  1.4774
   70SOL     OW  208   2.333   0.860   2.382  0.0793 -0.1045 -0.0224
   70SOL    HW1  209   2.406   0.814   2.328  2.2904 -1.4682 -0.3433
   70SOL    HW2  210   2.357   0.947   2.426  0.1950 -0.6234  2.5730
   71SOL     OW  211   0.455   2.047   0.848 -0.0200  0.2766 -0.6938
   71SOL    HW1  212   0.395   1.978   0.895 -0.9859  4.4609 -1.4341
   71SOL    HW2  213   0.426   2.139   0.877  0.2936 -0.2003  2.2910
   72SOL     OW  214   2.462   2.033   0.784 -0.0934  0.4978 -0.2611
   72SOL    HW1  215   2.438   2.035   0.684  1.8613  1.1043 -0.4976
   72SOL    HW2  216   2.516   2.119   0.799 -1.4529 -0.3384 -0.2206
   73SOL     OW  217   1.158   0.595   0.683  0.0850  0.2542 -0.0891
   73SOL    HW1  218   1.161   0.585   0.581 -2.1635  2.6514 -0.2195
   73SOL    HW2  219   1.253   0.582   0.716 -2.7333  0.0588 -2.4339
   74SOL     OW  220   2.471   2.100   1.950 -0.3336  0.3880  0.0273
   74SOL    HW1  221   2.464   2.006   1.903  1.1081 -1.4927 -1.3514
   74SOL    HW2  222   2.388   2.156   1.951 -1.5274 -3.1794 -2.5207
   75SOL     OW  223   1.661   1.638   1.732 -0.4900 -0.3566 -0.2954
   75SOL    HW1  224   1.560   1.625   1.715  0.3818 -0.6631  2.5312
   75SOL    HW2  225   1.681   1.717   1.791 -1.3897 -4.7311 -1.4497
   76SOL     OW  226   1.141   1.796   1.065  0.0509  0.0221 -0.0858
   76SOL    HW1  227   1.244   1.802   1.086  0.2303  0.8286 -2.1078
   76SOL    HW2  228   1.106   1.700   1.088  1.4098 -0.0272  1.1409
   77SOL     OW  229   2.774   1.324   1.950 -0.0911 -0.3083 -0.2665
   77SOL    HW1  230   2.720   1.362   2.024  2.3206  0.4568  1.1676
   77SOL    HW2  231   2.819   1.397   1.896 -2.1297 -0.2796  1.7548
   78SOL     OW  232   1.817   0.724   0.184 -0.1950  0.0753  0.1593
   78SOL    HW1  233   1.830   0.622   0.171 -2.9419  0.1541  2.0388
   78SOL    HW2  234   1.838   0.748   0.279  2.0934 -0.7131 -3.0556
   79SOL     OW  235   1.515   1.510   2.183 -0.4308  0.1435 -0.0647
   79SOL    HW1  236   1.604   1.548   2.218  1.1668  2.0000 -0.0468
   79SOL    HW2  237   1.534   1.428   2.123  1.5836 -0.6219  0.7893
   80SOL     OW  238   0.969   0.317   1.747 -0.4180 -0.1290 -0.4130
   80SOL    HW1  239   0.945   0.243   1.682 -0.7870  1.2103  0.5686
   80SOL    HW2  240   1.069   0.340   1.742 -0.5555  2.4728 -1.1658
   81SOL     OW  241   0.668   2.417   0.298  0.2469  0.1741  0.1863
   81SOL    HW1  242   0.627   2.437   0.207  0.0771  0.4134  1.2186
   81SOL    HW2  243   0.752   2.367   0.283 -3.4157  2.0590  1.4245
   82SOL     OW  244   1.249   0.405   1.771 -0.1736 -0.0960 -0.1108
   82SOL    HW1  245   1.332   0.432   1.716 -0.4913  2.9342  0.8948
   82SOL    HW2  246   1.274   0.359   1.856 -1.1776  0.9322 -0.8259
   83SOL     OW  247   0.301   2.277   0.866  0.1625 -0.5779 -1.2775
   83SOL    HW1  248   0.363   2.359   0.850  1.2479 -1.3751 -1.2485
   83SOL    HW2  249   0.223   2.304   0.928 -0.7108  1.6158  2.4178
   84SOL     OW  250   2.849   1.546   0.699  0.1515 -0.0982  0.6399
   84SOL    HW1  251   2.923   1.497   0.646 -1.1124  0.2063 -0.4901
   84SOL    HW2  252   2.779   1.579   0.632  2.8274  1.1870  0.7131
   85SOL     OW  253   2.399   1.907   1.373 -0.2511  0.2103  0.0253
   85SOL    HW1  254   2.317   1.968   1.374 -2.6119  1.1629 -0.8746
   85SOL    HW2  255   2.483   1.967   1.390  2.0437  0.2523  0.0113
   86SOL     OW  256   1.532   2.354   1.293  0.0794 -0.0796 -0.6000
   86SOL    HW1  257   1.594   2.408   1.234  0.7444 -1.9442  1.2965
   86SOL    HW2  258   1.583   2.291   1.351 -3.3166  0.5250  2.8465
   87SOL     OW  259   2.216   1.475   0.404 -0.2063  0.3887  0.5127
   87SOL    HW1  260   2.138   1.536   0.381  0.0140 -2.9636  1.9004
   87SOL    HW2  261   2.306   1.500   0.362 -3.3331 -2.0255 -1.8452
   88SOL     OW  262   0.637   0.144   0.894 -0.3006  0.5263 -0.1574
   88SOL    HW1  263   0.625   0.090   0.811  0.0897  1.9759  1.5767
   88SOL    HW2  264   0.724   0.193   0.897 -4.7164 -0.2416 -0.1864
   89SOL     OW  265   0.745   0.009   1.821 -0.4216  0.5461 -0.1132
   89SOL    HW1  266   0.764   0.099   1.864  2.1786  1.7649 -0.3668
   89SOL    HW2  267   0.675   0.016   1.752 -1.5254  3.5093  1.1079
   90SOL     OW  268   2.895   2.067   0.383  0.3040  0.0623  0.3942
   90SOL    HW1  269   2.921   2.158   0.418 -1.2365  0.4483 -1.1458
   90SOL    HW2  270   2.885   1.999   0.459 -0.6990 -0.0385  1.0660
   91SOL     OW  271   1.001   1.652   0.776 -1.0214 -0.5883 -0.5606
   91SOL    HW1  272   0.910   1.684   0.747  2.2184 -0.1553  1.7451
   91SOL    HW2  273   1.046   1.708   0.847 -1.1513 -1.1335  0.5840
   92SOL     OW  274   2.366   0.035   1.382  0.7028 -0.3976  0.1345
   92SOL    HW1  275   2.423   0.074   1.457  1.9798 -0.9246 -0.9025
   92SOL    HW2  276   2.360   3.021   1.388 -0.2043  1.5392 -1.9033
   93SOL     OW  277   0.427   1.103   2.787 -0.0649  0.3867 -0.1729
   93SOL    HW1  278   0.456   1.188   2.835  0.4871  2.1062 -1.1055
   93SOL    HW2  279   0.433   1.114   2.687  1.2581 -0.3315  2.5444
   94SOL     OW  280   2.580   3.077   1.816  0.0163 -0.3053  0.1988
   94SOL    HW1  281   2.543   0.053   1.893 -0.2752  1.1447 -1.2970
   94SOL    HW2  282   2.669   3.032   1.847 -3.8439  0.5594 -0.9989
   95SOL     OW  283   1.953   0.810   1.688  0.4243  0.3461  0.2600
   95SOL    HW1  284   1.927   0.847   1.596 -1.8966 -1.8505  0.5047
   95SOL    HW2  285   1.966   0.714   1.684 -1.4097  1.4272  1.8844
   96SOL     OW  286   2.871   0.292   1.734 -0.2674 -0.6757 -0.5957
   96SOL    HW1  287   2.772   0.286   1.763  0.0838  3.0510 -1.2700
   96SOL    HW2  288   2.892   0.388   1.705  0.1304 -0.8273  0.6738
   97SOL     OW  289   2.210   0.273   1.300  0.0181 -0.4747  0.0596
   97SOL    HW1  290   2.117   0.259   1.257 -0.3178  0.1936  0.6449
   97SOL    HW2  291   2.259   0.180   1.322  1.4935 -1.3033 -2.0322
   98SOL     OW  292   2.090   2.500   1.793 -0.8168  0.0144 -0.0069
   98SOL    HW1  293   2.125   2.504   1.889 -1.3457  0.7671  1.4147
   98SOL    HW2  294   2.040   2.589   1.771  0.5043  2.0367 -0.7960
   99SOL     OW  295   0.405   0.749   1.104 -0.5104 -0.3162 -0.4105
   99SOL    HW1  296   0.364   0.671   1.155  2.1708  0.1391  0.5331
   99SOL    HW2  297   0.343   0.830   1.106  0.0133 -0.0994  1.1053
  100SOL     OW  298   2.436   1.759   1.881  0.3712  0.9067  0.4109
  100SOL    HW1  299   2.376   1.717   1.810  1.8887 -1.0521 -1.2952
  100SOL    HW2  300   2.520   1.802   1.845 -1.9409 -1.4143  3.3235
  101SOL     OW  301   2.217   0.125   0.056 -0.1122  0.0878 -0.1797
  101SOL    HW1  302   2.306   0.169   0.086 -4.1018  0.1244 -1.3775
  101SOL    HW2  303   2.221   0.070   3.055 -0.9418 -4.0716  0.4838
  102SOL     OW  304   0.547   0.370   1.262 -0.1879 -0.2185 -0.1069
  102SOL    HW1  305   0.574   0.368   1.358 -0.7971  1.2385 -2.0578
  102SOL    HW2  306   0.460   0.421   1.247  0.7971  0.7823  0.2792
  103SOL     OW  307   3.045   0.116   2.628  0.0492  0.5808 -0.1084
  103SOL    HW1  308   3.048   0.038   2.566  0.4679 -1.6762  1.7780
  103SOL    HW2  309   0.044   0.169   2.611 -2.5242  1.5259 -0.4578
  104SOL     OW  310   0.465   2.138   1.302 -0.4768  0.5318  0.8400
  104SOL    HW1  311   0.479   2.036   1.290  0.0344 -2.3181  0.9492
  104SOL    HW2  312   0.366   2.162   1.312  1.4788 -0.7532 -0.1774
  105SOL     OW  313   0.703   1.641   2.118 -0.1509 -0.5311 -0.4954
  105SOL    HW1  314   0.748   1.691   2.198  1.1037  2.3031  0.8909
  105SOL    HW2  315   0.718   1.686   2.027 -2.1956  2.4786  0.2968
  106SOL     OW  316   2.126   0.371   0.705  0.0483 -0.3986  0.3486
  106SOL    HW1  317   2.093   0.376   0.798  1.3427  0.7691 -1.1125
  106SOL    HW2  318   2.089   0.288   0.655 -1.2558  0.2770 -1.2744
  107SOL     OW  319   0.594   1.053   1.334 -0.1162 -0.3173 -0.5547
  107SOL    HW1  320   0.543   1.003   1.259 -2.0644 -1.2396  0.4511
  107SOL    HW2  321   0.695   1.064   1.317  1.8677 -0.0648  1.4840
  108SOL     OW  322   2.686   0.912   2.138 -0.3251 -0.0630 -0.2692
  108SOL    HW1  323   2.782   0.923   2.165 -0.9065 -1.0705 -0.9955
  108SOL    HW2  324   2.637   0.845   2.207 -2.7433 -4.1704  3.5826
  109SOL     OW  325   1.717   3.083   2.755  0.4611 -0.1135 -0.6054
  109SOL    HW1  326   1.786   0.027   2.687  0.3464 -0.1942  1.2936
  109SOL    HW2  327   1.763   3.077   2.847  0.5065 -0.7113  0.0120
  110SOL     OW  328   0.145   1.976   3.039 -0.3817 -0.4425  0.2228
  110SOL    HW1  329   0.066   1.962   0.017  0.4031  3.7254 -0.2718
  110SOL    HW2  330   0.222   1.922   3.070 -1.2872  0.4172  1.2101
  111SOL     OW  331   2.550   0.732   2.302  0.1414 -0.0770 -0.3947
  111SOL    HW1  332   2.583   0.641   2.266  0.8487  0.4696  0.7715
  111SOL    HW2  333   2.560   0.728   2.405  0.8176 -2.5103  1.2306
  112SOL     OW  334   2.139   2.725   1.408 -0.0156 -0.1828  0.5608
  112SOL    HW1  335   2.046   2.766   1.429 -1.8195 -1.6516 -0.7810
  112SOL    HW2  336   2.163   2.717   1.307 -0.5868  0.5888 -1.8653
  113SOL     OW  337   1.919   2.050   2.126  0.0946 -0.6039  0.3779
  113SOL    HW1  338   1.963   1.987   2.190 -0.1936 -0.6153 -0.0969
  113SOL    HW2  339   1.980   2.075   2.048  2.1127 -0.1006 -0.9444
  114SOL     OW  340   0.433   0.295   0.414 -0.0237  0.1078 -0.5815
  114SOL    HW1  341   0.379   0.217   0.370 -0.7354 -1.1556 -1.6914
  114SOL    HW2  342   0.530   0.261   0.430  0.5065 -1.7795 -0.3079
  115SOL     OW  343   2.802   1.498   0.047 -0.0516 -0.5829  0.0767
  115SOL    HW1  344   2.883   1.555   0.037  0.2105 -3.0207  0.8816
  115SOL    HW2  345   2.834   1.404   0.019  0.1541  1.6025 -1.8855
  116SOL     OW  346   0.027   0.682   1.505 -0.0249 -0.1921  0.1470
  116SOL    HW1  347   3.057   0.615   1.562  2.2172  0.2033 -1.3984
  116SOL    HW2  348   0.004   0.777   1.521 -2.3898 -4.5262 -1.0455
  117SOL     OW  349   2.447   0.358   1.160 -0.0208 -0.5731 -0.1507
  117SOL    HW1  350   2.529   0.387   1.218 -1.8223 -0.0335 -0.3901
  117SOL    HW2  351   2.366   0.342   1.222 -2.4834 -2.2550  1.8406
  118SOL     OW  352   2.718   2.151   2.169  0.3160  0.1204 -0.3216
  118SOL    HW1  353   2.771   2.241   2.167 -0.1535  0.6293  0.7106
  118SOL    HW2  354   2.635   2.151   2.104 -4.0709 -0.2215  1.4964
  119SOL     OW  355   0.677   1.752   0.917 -0.1006 -0.5976  0.5075
  119SOL    HW1  356   0.712   1.834   0.972  1.9921 -0.2576 -1.9969
  119SOL    HW2  357   0.694   1.668   0.969  1.6470 -1.8005  1.3269
  120SOL     OW  358   0.417   1.423   1.294  0.2900  0.0239  0.6608
  120SOL    HW1  359   0.323   1.417   1.249 -3.0358 -0.3015  1.6403
  120SOL    HW2  360   0.437   1.332   1.335 -0.1298  2.2187  0.9490
  121SOL     OW  361   1.632   1.210   0.855  0.7001 -0.1854  0.2212
  121SOL    HW1  362   1.692   1.180   0.776  0.2728 -0.4550 -0.1391
  121SOL    HW2  363   1.696   1.203   0.937  3.0860  0.5055  0.6859
  122SOL     OW  364   1.940   2.452   2.718  0.6766 -0.2388 -0.3423
  122SOL    HW1  365   1.862   2.514   2.697 -3.5821 -0.8134 -0.6197
  122SOL    HW2  366   1.991   2.426   2.635  0.4286  0.7615  1.4777
  123SOL     OW  367   3.065   0.030   0.509 -0.5728 -0.0264 -0.0240
  123SOL    HW1  368   2.993   0.077   0.564  0.8807  0.3431 -0.6485
  123SOL    HW2  369   3.054   0.062   0.412 -0.4446  0.9477  0.1193
  124SOL     OW  370   1.336   1.438   0.167  0.3072  0.0058 -0.4753
  124SOL    HW1  371   1.342   1.385   0.079 -1.3899 -1.0706  0.0165
  124SOL    HW2  372   1.356   1.376   0.244  0.6639 -2.5276  2.3060
  125SOL     OW  373   0.283   1.000   2.301 -0.1984  0.2394 -0.0363
  125SOL    HW1  374   0.319   1.081   2.250  1.5864 -0.0366  0.9446
  125SOL    HW2  375   0.230   0.941   2.238 -2.0542 -1.1905 -0.9116
  126SOL     OW  376   3.051   2.488   3.027  0.5289 -0.0756 -0.2697
  126SOL    HW1  377   0.026   2.406   3.059  2.3088 -2.2408  2.6774
  126SOL    HW2  378   3.033   2.554   0.024 -1.4127  0.9248 -0.3264
  127SOL     OW  379   2.707   1.670   0.463 -0.7617 -0.2668 -0.1715
  127SOL    HW1  380   2.751   1.599   0.412 -0.6769 -0.9035  0.2124
  127SOL    HW2  381   2.658   1.732   0.397 -2.9228 -1.0846  0.3765
  128SOL     OW  382   1.468   0.809   0.893 -0.5998  0.2044  0.1807
  128SOL    HW1  383   1.440   0.883   0.956 -0.3140  0.2429 -0.1267
  128SOL    HW2  384   1.428   0.834   0.803  2.2033  1.4523  3.4751
  129SOL     OW  385   2.741   1.939   1.185  0.4136  0.2728  0.9313
  129SOL    HW1  386   2.838   1.947   1.148  2.7600  2.1068  0.9919
  129SOL    HW2  387   2.716   2.030   1.223  1.6810  0.5034 -1.5765
  130SOL     OW  388   2.084   1.062   0.605  0.0782 -0.0865  0.3302
  130SOL    HW1  389   2.162   1.111   0.565 -2.2071  1.7720  0.3565
  130SOL    HW2  390   2.007   1.124   0.618  0.5814 -2.0345  2.7447
  131SOL     OW  391   3.035   1.214   2.462  0.2220 -0.5204 -0.5543
  131SOL    HW1  392   2.959   1.260   2.516 -1.9504 -0.8107  1.0565
  131SOL    HW2  393   3.005   1.179   2.372  2.0985  0.9133  4.6761
  132SOL     OW  394   1.176   1.263   2.026  0.4369  0.6386 -0.4413
  132SOL    HW1  395   1.102   1.302   2.080 -0.5243 -2.4062  0.4680
  132SOL    HW2  396   1.173   1.161   2.028 -0.8747  2.0983  0.7967
  133SOL     OW  397   0.297   1.183   0.367 -0.2888 -0.3635  0.5476
  133SOL    HW1  398   0.287   1.279   0.331 -0.9616 -0.1929  2.0074
  133SOL    HW2  399   0.377   1.133   0.328  0.6462  0.7042  0.0355
  134SOL     OW  400   2.850   0.944   0.193  0.0771 -0.0688 -0.3477
  134SOL    HW1  401   2.886   0.889   0.116  2.1327 -0.9568  3.3773
  134SOL    HW2  402   2.836   1.042   0.172  0.3430 -1.0337  0.3750
  135SOL     OW  403   1.613   0.582   2.984 -0.0777 -0.2360  0.2960
  135SOL    HW1  404   1.562   0.543   2.901 -1.1464 -0.6466  0.5387
  135SOL    HW2  405   1.683   0.648   2.956  2.6029 -0.3318 -0.0579
  136SOL     OW  406   2.034   1.674   1.761 -0.6880  0.2960  0.0545
  136SOL    HW1  407   1.991   1.650   1.667  0.3253 -0.8237  0.3786
  136SOL    HW2  408   2.044   1.585   1.811  4.7590  0.3824 -1.8249
  137SOL     OW  409   2.204   2.508   0.884 -0.1759 -0.4583 -0.1878
  137SOL    HW1  410   2.150   2.593   0.868  0.5106 -0.8816 -0.2007
  137SOL    HW2  411   2.148   2.433   0.926 -0.5036  1.3352 -1.3582
  138SOL     OW  412   2.341   0.637   1.553  0.0046 -0.0636  0.0537
  138SOL    HW1  413   2.382   0.725   1.536  1.6387 -1.7890 -1.4058
  138SOL    HW2  414   2.286   0.609   1.476 -3.7185  0.5080  2.4894
  139SOL     OW  415   2.322   2.761   2.805 -0.5392  0.6065  0.2725
  139SOL    HW1  416   2.371   2.670   2.793 -1.3797  1.7997  0.1996
  139SOL    HW2  417   2.224   2.761   2.781 -3.0619  0.8566 -0.2542
  140SOL     OW  418   1.440   1.918   2.463 -0.8497 -0.0927  0.0775
  140SOL    HW1  419   1.539   1.891   2.457  1.1363  1.1792  1.4644
  140SOL    HW2  420   1.376   1.849   2.429  2.8063  3.4112  0.4134
  141SOL     OW  421   0.942   1.122   2.454  0.2766  0.5410 -0.3950
  141SOL    HW1  422   0.881   1.049   2.491 -1.8363  0.2577  1.3341
  141SOL    HW2  423   0.911   1.214   2.477  4.3588 -1.3287 -0.5464
  142SOL     OW  424   2.568   2.616   2.097  0.2923 -0.2117  0.0230
  142SOL    HW1  425   2.606   2.693   2.148  0.8030 -3.3959  0.5749
  142SOL    HW2  426   2.485   2.640   2.041 -0.3028  0.8771 -0.0270
  143SOL     OW  427   1.120   2.462   0.276  0.0068  0.2178 -0.0861
  143SOL    HW1  428   1.191   2.530   0.316  1.1947  0.3014 -2.0120
  143SOL    HW2  429   1.041   2.459   0.341  1.0361 -1.5290 -0.8006
  144SOL     OW  430   1.082   2.582   0.615  0.0797  0.7018  0.4364
  144SOL    HW1  431   1.117   2.533   0.699 -0.4065 -2.9863  1.1326
  144SOL    HW2  432   1.107   2.678   0.621  0.3046 -1.7189  2.6590
  145SOL     OW  433   1.369   2.608   2.414 -0.5363  0.0787  0.1677
  145SOL    HW1  434   1.472   2.590   2.398  0.3695  0.0012 -0.6843
  145SOL    HW2  435   1.347   2.679   2.485 -0.1481 -1.6688  0.2779
  146SOL     OW  436   2.026   3.033   2.848 -0.0898  0.1047 -0.2874
  146SOL    HW1  437   2.048   0.039   2.806 -0.3033 -1.6038  0.5772
  146SOL    HW2  438   1.966   3.057   2.928 -1.9264  1.3200  2.2587
  147SOL     OW  439   2.822   1.667   1.408  0.3348  0.4591  0.3008
  147SOL    HW1  440   2.844   1.612   1.321 -0.2255 -0.9587 -1.4523
  147SOL    HW2  441   2.893   1.737   1.419 -1.3418 -2.5525 -0.4379
  148SOL     OW  442   2.081   3.012   0.209 -0.0406 -0.5340 -0.2940
  148SOL    HW1  443   2.143   2.984   0.280 -1.5475  1.3256 -1.4087
  148SOL    HW2  444   2.126   3.075   0.144 -1.1749 -0.5320  0.0704
  149SOL     OW  445   0.543   1.775   3.010  0.1561 -0.3504  0.2821
  149SOL    HW1  446   0.648   1.758   3.013  0.9490  1.4658  0.5206
  149SOL    HW2  447   0.512   1.788   2.914  0.4625 -2.1081 -0.9990
  150SOL     OW  448   0.526   2.688   0.939  0.4522  0.2300 -0.0616
  150SOL    HW1  449   0.606   2.730   0.984 -3.3149 -0.8233 -0.2555
  150SOL    HW2  450   0.453   2.756   0.914 -1.6585 -0.7892  2.1047
  151SOL     OW  451   0.176   0.933   0.008  0.9221 -0.6135  0.2724
  151SOL    HW1  452   0.270   0.961   3.064  0.4324 -0.2712  0.5911
  151SOL    HW2  453   0.145   0.859   3.030  0.3165  0.3046  2.7897
  152SOL     OW  454   2.952   1.922   1.002 -0.1571  0.3007 -0.2046
  152SOL    HW1  455   2.921   1.989   0.933  1.8558 -0.6067  1.8026
  152SOL    HW2  456   2.957   1.825   0.961 -1.9005 -0.7581  0.4140
  153SOL     OW  457   1.678   2.281   0.927 -0.1350 -0.9436  0.4044
  153SOL    HW1  458   1.701   2.224   0.848 -0.8688  0.4234  3.8314
  153SOL    HW2  459   1.615   2.236   0.990 -0.1269 -0.5984 -1.0181
  154SOL     OW  460   0.521   2.920   1.147 -0.0236 -0.3614  0.0357
  154SOL    HW1  461   0.532   3.019   1.174 -3.3704  1.2168 -0.1974
  154SOL    HW2  462   0.607   2.904   1.098 -2.1775  0.6218 -1.6372
  155SOL     OW  463   2.846   2.078   0.816 -0.2278 -0.7598 -0.3650
  155SOL    HW1  464   2.919   2.140   0.787  0.6131 -0.6005  0.1065
  155SOL    HW2  465   2.751   2.123   0.814  0.5952 -1.9856 -0.9775
  156SOL     OW  466   2.608   2.111   0.365  0.1031  0.2668  0.3516
  156SOL    HW1  467   2.709   2.123   0.384  0.9397 -0.4164  0.4629
  156SOL    HW2  468   2.609   2.016   0.334  4.3691 -1.9208 -0.9480
  157SOL     OW  469   0.396   2.273   1.744  0.1691  0.1554 -0.5378
  157SOL    HW1  470   0.325   2.201   1.752  1.3530 -2.7053  1.4858
  157SOL    HW2  471   0.411   2.310   1.843 -0.3863 -0.1048  1.8466
  158SOL     OW  472   1.387   0.395   0.990 -0.0376 -0.3014 -0.5489
  158SOL    HW1  473   1.302   0.344   0.965 -0.4101  0.6829 -0.6095
  158SOL    HW2  474   1.382   0.424   1.089 -0.4207  2.6690 -0.7678
  159SOL     OW  475   1.822   1.029   0.124  0.2106  0.2901 -0.0025
  159SOL    HW1  476   1.803   0.929   0.126 -2.0588  0.3839 -0.2079
  159SOL    HW2  477   1.740   1.081   0.095 -1.1760 -0.6933  0.2110
  160SOL     OW  478   1.245   1.981   0.440 -0.3784 -0.3706 -0.2499
  160SOL    HW1  479   1.216   2.055   0.374  1.6861  1.9218 -1.9441
  160SOL    HW2  480   1.230   1.893   0.399 -1.4956  2.1788  0.8139
  161SOL     OW  481   2.590   2.302   2.509 -0.5911 -0.3409  0.2018
  161SOL    HW1  482   2.668   2.292   2.574 -3.1710  1.4646 -0.0726
  161SOL    HW2  483   2.604   2.373   2.434  2.3391  1.3480 -3.0873
  162SOL     OW  484   0.202   2.215   1.280 -0.2960 -0.5052  0.0599
  162SOL    HW1  485   0.142   2.228   1.363 -1.6855 -1.6441  0.5113
  162SOL    HW2  486   0.236   2.305   1.245  0.3324 -0.6901  2.3120
  163SOL     OW  487   0.286   0.429   2.717 -0.3469 -1.0152  0.4258
  163SOL    HW1  488   0.259   0.342   2.677 -0.7415  0.2615 -2.0927
  163SOL    HW2  489   0.210   0.492   2.744 -0.3213 -0.9555 -0.3717
  164SOL     OW  490   0.204   2.547   2.605  0.2736 -0.5929 -0.2780
  164SOL    HW1  491   0.136   2.591   2.541 -0.8989 -0.2554 -0.5095
  164SOL    HW2  492   0.198   2.585   2.701 -0.1356  0.3526 -0.1278
  165SOL     OW  493   2.778   1.029   1.530  0.3463 -0.3327 -0.2655
  165SOL    HW1  494   2.740   1.059   1.618 -0.5405 -2.0143  0.8559
  165SOL    HW2  495   2.750   0.934   1.502  0.0007  0.4820  0.2505
  166SOL     OW  496   1.941   1.889   1.594  0.1592 -0.0828  0.5507
  166SOL    HW1  497   2.042   1.897   1.593 -1.8440  0.7130 -2.0545
  166SOL    HW2  498   1.912   1.799   1.553  0.7500  0.2020 -0.7600
  167SOL     OW  499   0.534   0.589   2.376 -0.0908 -0.2131 -0.0878
  167SOL    HW1  500   0.511   0.594   2.282  0.1364  1.3634 -0.8494
  167SOL    HW2  501   0.470   0.653   2.428 -2.8513  1.1862 -0.0517
  168SOL     OW  502   2.145   0.109   1.984  0.2732  0.1869  0.6414
  168SOL    HW1  503   2.224   0.148   1.934 -0.6133 -1.9015  0.2520
  168SOL    HW2  504   2.163   0.014   2.016 -0.6618  1.8927 -1.4977
  169SOL     OW  505   0.471   0.989   3.033  0.4047  0.0072 -0.0820
  169SOL    HW1  506   0.471   1.037   2.940  0.1228  2.8639  1.6590
  169SOL    HW2  507   0.555   0.935   3.047 -0.5469 -0.7043 -1.3217
  170SOL     OW  508   0.897   1.332   1.229  0.3621  0.0382 -0.1273
  170SOL    HW1  509   0.933   1.334   1.322  1.1744  0.9470 -2.5739
  170SOL    HW2  510   0.875   1.239   1.194 -1.4389 -0.5234  2.2133
  171SOL     OW  511   1.036   2.513   1.658  0.2849 -0.2586  0.0908
  171SOL    HW1  512   1.009   2.615   1.672 -0.2144  0.6300  1.0118
  171SOL    HW2  513   1.009   2.485   1.563  2.6341  2.0899 -0.8722
  172SOL     OW  514   1.147   0.042   1.901  0.1818 -0.1099  0.0642
  172SOL    HW1  515   1.121   3.061   1.968  2.9613  0.4796 -3.0113
  172SOL    HW2  516   1.192   0.128   1.938  1.0440  0.5864 -0.5655
  173SOL     OW  517   1.224   2.485   0.827  0.3520  0.3421 -0.3822
  173SOL    HW1  518   1.208   2.487   0.927 -3.7008  0.3945  2.4273
  173SOL    HW2  519   1.284   2.410   0.798  0.4230  2.4411  2.1958
  174SOL     OW  520   2.223   0.060   0.513 -0.7123  0.6006  0.7844
  174SOL    HW1  521   2.127   0.086   0.525 -2.2214 -0.9124  1.1598
  174SOL    HW2  522   2.261   0.094   0.424 -0.2554  0.2426 -0.1413
  175SOL     OW  523   1.247   1.190   0.605 -0.0887 -0.3662 -0.2709
  175SOL    HW1  524   1.239   1.260   0.682  0.6068 -0.1456  2.3410
  175SOL    HW2  525   1.159   1.146   0.591  2.8740 -1.0594  1.0373
  176SOL     OW  526   0.904   1.686   0.433 -0.6058 -0.0680 -0.0289
  176SOL    HW1  527   0.862   1.706   0.520 -0.9283 -1.5698 -1.6890
  176SOL    HW2  528   0.964   1.606   0.434 -0.8899  0.6760  2.5964
  177SOL     OW  529   1.369   1.404   0.790 -0.5904 -0.6412  0.6530
  177SOL    HW1  530   1.395   1.480   0.731 -0.9169  1.1179 -2.5284
  177SOL    HW2  531   1.440   1.335   0.792 -1.5766 -1.6098  3.1358
  178SOL     OW  532   2.232   1.739   0.208  0.2032 -0.1950  0.1805
  178SOL    HW1  533   2.263   1.783   0.294 -1.6102  2.5649 -0.9831
  178SOL    HW2  534   2.283   1.656   0.185  1.9388 -0.3241  0.5086
  179SOL     OW  535   1.491   2.851   0.014 -0.3267  0.3162 -0.4155
  179SOL    HW1  536   1.410   2.793   0.007 -0.9708 -0.4718  1.8680
  179SOL    HW2  537   1.556   2.811   0.082  0.4363 -0.5177  1.9921
  180SOL     OW  538   1.967   1.330   1.490 -0.0069  0.3734  0.0932
  180SOL    HW1  539   2.043   1.331   1.557  2.2278  2.5102 -0.3518
  180SOL    HW2  540   1.971   1.408   1.431 -1.9203 -4.2524  1.2736
  181SOL     OW  541   1.204   0.692   1.788  0.1370  0.2446  0.3335
  181SOL    HW1  542   1.206   0.703   1.886 -0.6739  0.4126 -1.3409
  181SOL    HW2  543   1.204   0.591   1.760 -0.8104 -0.0982 -2.2762
  182SOL     OW  544   0.181   1.310   2.295  0.1892  0.0885 -0.3739
  182SOL    HW1  545   0.126   1.244   2.351 -0.1004 -0.7189  0.3878
  182SOL    HW2  546   0.231   1.268   2.219  1.4440 -2.4690 -0.1766
  183SOL     OW  547   1.495   0.614   2.221  0.2681  0.0744 -0.3792
  183SOL    HW1  548   1.554   0.544   2.184 -1.4087  0.5677  0.3754
  183SOL    HW2  549   1.486   0.604   2.324  0.8526  1.4629 -0.3226
  184SOL     OW  550   0.744   0.501   1.097 -0.0322 -0.4228 -0.1939
  184SOL    HW1  551   0.807   0.564   1.136 -1.2100 -0.8894 -0.3685
  184SOL    HW2  552   0.678   0.467   1.170 -0.0134 -0.5893  1.7883
  185SOL     OW  553   2.208   1.467   0.692 -0.2776  0.7455 -0.9138
  185SOL    HW1  554   2.212   1.474   0.595 -3.2036  2.8957  1.6070
  185SOL    HW2  555   2.108   1.480   0.722 -4.0668 -1.7512  1.5443
  186SOL     OW  556   0.188   2.056   0.328  0.0939  0.1774  0.1463
  186SOL    HW1  557   0.168   1.964   0.366  0.2506  1.4324 -1.8629
  186SOL    HW2  558   0.137   2.076   0.245  1.3486 -1.8282  2.1213
  187SOL     OW  559   2.038   2.213   3.064  0.2031  0.2768 -0.1286
  187SOL    HW1  560   2.032   2.127   3.008 -0.8695 -1.6304 -3.7840
  187SOL    HW2  561   2.087   2.291   3.026 -1.2572  0.2106 -1.1100
  188SOL     OW  562   1.227   2.033   1.239 -0.3380  0.7377 -0.0279
  188SOL    HW1  563   1.274   1.942   1.228 -0.7815 -1.6309  1.4023
  188SOL    HW2  564   1.135   2.023   1.195  2.5614 -0.2933 -0.4759
  189SOL     OW  565   2.168   1.549   2.551 -0.1333  0.4549  0.0491
  189SOL    HW1  566   2.101   1.475   2.534 -1.3208 -1.9610  0.3364
  189SOL    HW2  567   2.127   1.642   2.571  0.6116 -1.2729  0.6101
  190SOL     OW  568   0.725   2.464   2.245  0.0074 -0.0075 -0.5404
  190SOL    HW1  569   0.818   2.483   2.212 -1.8898 -0.9846  0.6801
  190SOL    HW2  570   0.663   2.543   2.235  0.6573  1.5332 -3.1362
  191SOL     OW  571   2.482   0.919   1.214 -0.0337 -0.3880 -0.2839
  191SOL    HW1  572   2.535   0.930   1.303 -1.3721  0.4821  2.5134
  191SOL    HW2  573   2.543   0.914   1.132 -0.0437 -1.6185  0.9609
  192SOL     OW  574   2.597   0.631   1.718 -0.1470  0.3716 -0.1021
  192SOL    HW1  575   2.542   0.712   1.729  0.3006  0.4871 -0.8677
  192SOL    HW2  576   2.661   0.612   1.796 -3.4093 -0.8852  0.6124
  193SOL     OW  577   0.944   0.376   0.158 -0.4724 -0.1075 -0.2005
  193SOL    HW1  578   1.030   0.329   0.125 -0.5901 -1.1562 -1.9370
  193SOL    HW2  579   0.899   0.430   0.086 -0.7179  0.4997  1.5044
  194SOL     OW  580   0.986   2.458   1.387 -0.2671 -0.0541  0.5237
  194SOL    HW1  581   0.965   2.363   1.413  0.7696 -1.5804 -0.0220
  194SOL    HW2  582   1.039   2.460   1.300  1.7533  1.5874 -0.9666
  195SOL     OW  583   2.562   1.177   0.281 -0.2284  0.0101  0.1422
  195SOL    HW1  584   2.573   1.125   0.369 -0.1001 -3.0393  0.4061
  195SOL    HW2  585   2.467   1.184   0.245  2.5243  1.0146  0.3580
  196SOL     OW  586   0.554   2.133   1.556  0.1607  0.0058 -0.3024
  196SOL    HW1  587   0.547   2.129   1.455 -0.1925 -0.2022  0.9155
  196SOL    HW2  588   0.467   2.172   1.598 -3.7362 -0.6129 -1.3069
  197SOL     OW  589   0.051   0.599   2.139  0.3097  0.0241  0.3610
  197SOL    HW1  590   0.101   0.512   2.143  0.1370  2.4457  0.3618
  197SOL    HW2  591   3.041   0.581   2.180  0.0214 -0.9061 -0.7599
  198SOL     OW  592   1.873   1.162   0.400  0.1476 -0.2519  0.2669
  198SOL    HW1  593   1.935   1.128   0.327  0.6119 -0.7555 -0.1881
  198SOL    HW2  594   1.855   1.259   0.384  1.3262 -1.9203 -1.0037
  199SOL     OW  595   2.442   0.368   1.558  0.6012  0.0840  0.7904
  199SOL    HW1  596   2.348   0.410   1.559 -0.2011 -0.8248  1.5951
  199SOL    HW2  597   2.500   0.421   1.621  0.1582  0.0597  0.8344
  200SOL     OW  598   2.094   0.214   2.738 -0.1378 -0.4083  0.7602
  200SOL    HW1  599   2.176   0.175   2.693 -0.9865  0.9611 -0.2559
  200SOL    HW2  600   2.116   0.306   2.775  0.3301 -1.4381 -1.7857
  201SOL     OW  601   2.615   0.131   0.986 -0.2112 -0.0510  0.8577
  201SOL    HW1  602   2.638   0.120   1.087 -0.4662  1.2498  2.0846
  201SOL    HW2  603   2.582   0.223   0.970 -0.4467 -1.6196 -0.2041
  202SOL     OW  604   3.067   2.587   0.560 -0.2418  0.5547 -0.2328
  202SOL    HW1  605   3.076   2.679   0.512  1.6647  1.3406  0.5835
  202SOL    HW2  606   0.073   2.574   0.605  1.2147  0.4442 -0.2683
  203SOL     OW  607   1.453   1.789   0.189 -0.5762 -0.2420 -0.2319
  203SOL    HW1  608   1.413   1.824   0.276  0.7422 -2.6574 -0.5791
  203SOL    HW2  609   1.494   1.702   0.211  2.9649  0.0913 -0.3333
  204SOL     OW  610   0.455   1.969   2.342 -0.4026  0.0166 -0.1219
  204SOL    HW1  611   0.530   1.962   2.272  1.9545 -1.9716 -0.9198
  204SOL    HW2  612   0.373   1.913   2.322  1.6126 -2.2090  1.6925
  205SOL     OW  613   0.975   0.632   0.870  0.2999 -0.3694  0.2984
  205SOL    HW1  614   0.998   0.577   0.954  0.6156 -1.1966 -0.9535
  205SOL    HW2  615   1.048   0.622   0.802 -0.3989 -2.4885  2.0487
  206SOL     OW  616   0.454   0.644   2.754  0.2885 -0.2966  0.2254
  206SOL    HW1  617   0.403   0.731   2.746  1.5085  0.0721 -2.4871
  206SOL    HW2  618   0.390   0.565   2.735 -0.4803  0.2558 -1.6832
  207SOL     OW  619   1.272   2.341   1.615 -0.1560  0.1386 -0.0823
  207SOL    HW1  620   1.353   2.347   1.670  0.4302 -1.4025  1.8650
  207SOL    HW2  621   1.195   2.392   1.648 -0.5130 -3.2078 -1.3984
  208SOL     OW  622   2.948   2.978   1.394  0.0439 -0.3712  0.6434
  208SOL    HW1  623   2.982   2.960   1.299  0.9465  0.3618  1.2264
  208SOL    HW2  624   2.852   3.018   1.393 -2.2920 -1.1548  0.7587
  209SOL     OW  625   1.786   1.112   0.644 -0.3588 -0.1725  0.1373
  209SOL    HW1  626   1.756   1.018   0.670  0.3296  2.4277 -1.5486
  209SOL    HW2  627   1.808   1.119   0.540  0.8842  5.4528 -4.4430
  210SOL     OW  628   2.633   0.861   0.348 -0.1836  0.2448 -0.1772
  210SOL    HW1  629   2.611   0.932   0.419 -1.2658  0.9161  1.4412
  210SOL    HW2  630   2.711   0.889   0.289  0.8739 -0.6635  1.6070
  211SOL     OW  631   1.297   0.150   0.241  0.2267 -0.1100 -0.8523
  211SOL    HW1  632   1.234   0.190   0.174 -1.0579  2.0950 -0.7836
  211SOL    HW2  633   1.374   0.107   0.189 -0.3788  0.9747  1.4493
  212SOL     OW  634   1.801   2.158   0.716 -0.3739 -0.2322  0.1075
  212SOL    HW1  635   1.901   2.172   0.702 -3.0179 -0.6193  1.0224
  212SOL    HW2  636   1.755   2.168   0.624  1.4856  0.2016  3.5955
  213SOL     OW  637   2.318   0.100   2.631 -0.3755  0.4326  0.0652
  213SOL    HW1  638   2.381   0.026   2.657  1.0446  3.0340  0.0573
  213SOL    HW2  639   2.369   0.188   2.615 -1.0995 -0.9194  0.7776
  214SOL     OW  640   0.948   2.035   2.271 -0.6894  0.2108  0.5098
  214SOL    HW1  641   1.009   2.061   2.195 -0.4250  1.2255  2.3630
  214SOL    HW2  642   0.887   2.112   2.297 -2.2735 -0.9567  0.1751
  215SOL     OW  643   0.258   1.353   0.940 -0.3431  0.2905 -0.3805
  215SOL    HW1  644   0.235   1.427   1.005 -0.3095  0.4356  0.1181
  215SOL    HW2  645   0.349   1.313   0.965  0.7815 -1.0173  1.2873
  216SOL     OW  646   0.138   2.268   2.750  0.3311 -0.3329 -0.2294
  216SOL    HW1  647   0.166   2.342   2.686 -0.3396  0.3102  0.3040
  216SOL    HW2  648   0.184   2.283   2.840 -0.7965 -0.3775 -0.0114
  217SOL     OW  649   2.839   1.253   1.373 -0.2093 -0.5417  0.1087
  217SOL    HW1  650   2.831   1.203   1.290  1.4538 -1.2677  0.4551
  217SOL    HW2  651   2.812   1.194   1.453 -0.0238  0.1392 -1.3627
  218SOL     OW  652   0.736   2.224   2.052  0.2274  0.3284 -0.5997
  218SOL    HW1  653   0.781   2.266   1.973  0.5471  0.7471 -0.7114
  218SOL    HW2  654   0.783   2.254   2.137 -0.9675  0.1184 -0.3772
  219SOL     OW  655   1.997   1.628   0.328 -0.0843  0.1366 -0.1658
  219SOL    HW1  656   2.063   1.668   0.258  1.7570  0.5155 -2.6225
  219SOL    HW2  657   1.969   1.704   0.386  1.1626 -0.5563  0.0963
  220SOL     OW  658   2.047   0.927   0.361  0.4592  0.3977  0.7107
  220SOL    HW1  659   2.045   0.991   0.443 -1.4053  3.0006  0.4296
  220SOL    HW2  660   1.966   0.865   0.374 -2.3384 -0.0176  1.5620
  221SOL     OW  661   2.800   0.483   0.076  0.9100 -0.3726  0.4213
  221SOL    HW1  662   2.747   0.517   0.157 -0.4584 -1.0638 -0.8553
  221SOL    HW2  663   2.796   0.380   0.065 -0.3504 -1.3279 -0.6768
  222SOL     OW  664   1.501   1.654   0.457 -0.3010 -0.4542  0.2559
  222SOL    HW1  665   1.403   1.646   0.480 -1.0552  3.1927  1.2772
  222SOL    HW2  666   1.556   1.673   0.539 -1.1000 -1.1388  0.1895
  223SOL     OW  667   1.065   0.085   2.933 -0.0889  0.7836 -0.3441
  223SOL    HW1  668   1.109   0.142   2.856  0.2641 -1.5329 -0.2102
  223SOL    HW2  669   1.062   3.071   2.911 -1.3583  1.4653  0.3686
  224SOL     OW  670   0.970   2.960   1.152 -0.1906  0.1034 -0.3999
  224SOL    HW1  671   0.984   3.045   1.100 -1.7576 -2.3793  4.0727
  224SOL    HW2  672   0.986   2.975   1.250  1.9459 -1.0336 -0.4632
  225SOL     OW  673   0.457   2.591   1.896  0.3546 -0.1793 -0.3316
  225SOL    HW1  674   0.425   2.556   1.805  1.7356  1.2103 -0.1699
  225SOL    HW2  675   0.479   2.517   1.959  0.3453 -0.5374 -1.1951
  226SOL     OW  676   1.584   1.537   0.227  0.6301 -0.0816  0.2852
  226SOL    HW1  677   1.581   1.574   0.320 -0.0427 -3.0460 -0.8406
  226SOL    HW2  678   1.483   1.514   0.200 -0.1946 -1.3860 -0.7598
  227SOL     OW  679   0.412   1.701   0.822  0.7396  0.4203  0.2383
  227SOL    HW1  680   0.500   1.739   0.853  0.4928 -1.7035 -0.6535
  227SOL    HW2  681   0.417   1.612   0.773 -2.1823 -1.0211  0.5493
  228SOL     OW  682   0.025   1.850   0.675 -0.3057  0.6665  0.8821
  228SOL    HW1  683   3.012   1.865   0.638 -2.8419  0.5402  0.7975
  228SOL    HW2  684   0.075   1.937   0.697  1.6382 -1.5146 -0.2731
  229SOL     OW  685   2.656   0.044   2.957  0.5262 -0.4927 -0.4592
  229SOL    HW1  686   2.656   3.035   2.994 -1.2663 -0.2905 -0.6757
  229SOL    HW2  687   2.745   0.067   2.917  1.1102 -0.5116 -0.6800
  230SOL     OW  688   2.351   0.959   0.769 -0.0467  0.1438 -0.4094
  230SOL    HW1  689   2.427   1.025   0.786 -2.0625 -2.6677 -0.8901
  230SOL    HW2  690   2.279   0.968   0.837  1.6287  0.4770  1.5755
  231SOL     OW  691   1.607   1.272   2.978  0.2212 -0.1808 -0.8538
  231SOL    HW1  692   1.544   1.246   2.899 -0.8412  0.7147 -0.3629
  231SOL    HW2  693   1.628   1.371   2.982 -1.1094 -2.0787 -1.0489
  232SOL     OW  694   2.325   1.996   1.046  0.4650 -0.4700  0.0242
  232SOL    HW1  695   2.359   2.027   0.953 -0.0939  1.3590 -0.7036
  232SOL    HW2  696   2.401   2.003   1.113  0.3592  1.5209 -0.7515
  233SOL     OW  697   0.256   2.895   1.133  1.1196 -0.4700 -0.0218
  233SOL    HW1  698   0.357   2.902   1.127 -1.4601  2.0175 -0.9922
  233SOL    HW2  699   0.215   2.991   1.128 -1.6996  1.9067  3.6075
  234SOL     OW  700   0.904   0.102   2.554 -0.2048 -0.5306 -0.6438
  234SOL    HW1  701   0.958   0.058   2.482 -0.4200  0.0192 -1.6233
  234SOL    HW2  702   0.852   0.031   2.605  1.4860 -0.8544 -0.8936
  235SOL     OW  703   2.958   0.986   2.209 -0.7058 -0.0448 -0.0556
  235SOL    HW1  704   2.952   1.032   2.116 -1.0738 -0.5373 -2.5823
  235SOL    HW2  705   3.058   0.958   2.229  2.2018  2.9566 -1.1693
  236SOL     OW  706   1.458   2.823   1.724 -0.5200 -0.2001 -0.2133
  236SOL    HW1  707   1.452   2.925   1.743 -2.2231  1.5844 -0.5328
  236SOL    HW2  708   1.398   2.799   1.643 -3.3767 -0.1196 -2.0561
  237SOL     OW  709   0.790   1.354   2.527  0.0281  0.9567 -0.0590
  237SOL    HW1  710   0.712   1.352   2.457  0.0204  1.5431  0.3933
  237SOL    HW2  711   0.780   1.446   2.570 -1.0675 -3.3501 -2.0623
  238SOL     OW  712   1.193   0.509   2.384 -0.1176  0.2908 -0.2079
  238SOL    HW1  713   1.167   0.601   2.345  0.7599 -2.2434  5.8088
  238SOL    HW2  714   1.142   0.492   2.466  0.7650 -1.4680 -1.0778
  239SOL     OW  715   0.141   2.106   2.067  0.6323 -0.7073  0.4853
  239SOL    HW1  716   0.177   2.048   1.990  1.6803 -2.7291 -0.8259
  239SOL    HW2  717   0.215   2.120   2.131 -0.2965  1.3131 -0.9369
  240SOL     OW  718   2.342   0.068   0.754  0.1945  0.2606 -0.0950
  240SOL    HW1  719   2.314   0.118   0.839  1.6440  1.9875  0.8724
  240SOL    HW2  720   2.279   0.087   0.675  1.8300 -0.3398  0.5992
  241SOL     OW  721   0.082   0.720   0.173 -0.4624 -0.2226 -0.0553
  241SOL    HW1  722   0.009   0.662   0.126 -0.6907  1.1726  0.1614
  241SOL    HW2  723   0.092   0.810   0.123  1.2353  1.6307  1.8663
  242SOL     OW  724   1.534   2.407   1.693 -0.0309  0.3053 -0.0999
  242SOL    HW1  725   1.599   2.324   1.685  0.3520  0.2600 -1.7807
  242SOL    HW2  726   1.572   2.491   1.649  0.3998 -2.6222  1.9192
  243SOL     OW  727   0.475   2.325   1.996 -0.1898 -0.0650  0.5490
  243SOL    HW1  728   0.575   2.310   2.011 -0.3548 -0.9865 -1.9576
  243SOL    HW2  729   0.422   2.289   2.071  1.3069 -0.6289 -0.5997
  244SOL     OW  730   2.381   0.332   2.110 -0.1205  0.1997 -0.5827
  244SOL    HW1  731   2.279   0.340   2.098  1.1928 -0.5682 -1.9608
  244SOL    HW2  732   2.419   0.425   2.116 -1.8049  2.5612  1.7812
  245SOL     OW  733   1.317   3.068   1.133  0.6947 -0.0572  0.0066
  245SOL    HW1  734   1.288   0.074   1.171  0.0550 -0.2603  0.2833
  245SOL    HW2  735   1.384   3.074   1.059 -0.3881 -1.3328 -0.6144
  246SOL     OW  736   1.668   2.823   0.532 -0.1289  0.1875  0.1198
  246SOL    HW1  737   1.725   2.769   0.468  1.6047  0.6143  0.0553
  246SOL    HW2  738   1.571   2.791   0.527 -2.8391 -0.7911 -1.3973
  247SOL     OW  739   1.639   0.616   1.791  0.0718  0.2481 -0.5030
  247SOL    HW1  740   1.596   0.524   1.781  0.9279 -0.7616  1.2858
  247SOL    HW2  741   1.721   0.613   1.854  1.4728 -0.8503  1.4669
  248SOL     OW  742   2.866   2.007   1.881 -0.6908  0.0483 -0.0491
  248SOL    HW1  743   2.904   1.932   1.932  1.4604  1.7649  1.2988
  248SOL    HW2  744   2.944   2.055   1.835  2.9082  0.0923 -4.0586
  249SOL     OW  745   2.986   0.205   0.316 -0.0132  0.3359 -0.5730
  249SOL    HW1  746   2.998   0.285   0.383  0.7031  0.1719 -0.0828
  249SOL    HW2  747   3.045   0.215   0.240 -0.5281  1.2461  2.6673
  250SOL     OW  748   2.709   3.040   2.565 -0.4038  0.1835 -0.4618
  250SOL    HW1  749   2.776   2.976   2.610  2.2576 -1.7288 -0.2293
  250SOL    HW2  750   2.623   3.046   2.615  2.1279 -1.5849 -3.2457
  251SOL     OW  751   1.522   0.726   0.140  0.3591  0.0851  0.0105
  251SOL    HW1  752   1.497   0.663   0.064 -1.2312 -3.0201 -3.7472
  251SOL    HW2  753   1.622   0.718   0.162 -0.0378  1.3585  0.9207
  252SOL     OW  754   1.231   2.398   2.057 -0.1606 -0.5030 -0.2540
  252SOL    HW1  755   1.250   2.402   2.158 -0.4385  1.1352 -1.2764
  252SOL    HW2  756   1.319   2.428   2.007  4.0590  3.0435  1.2205
  253SOL     OW  757   2.001   2.685   0.970  0.3022 -0.1380 -0.6049
  253SOL    HW1  758   2.027   2.779   0.938  1.3890  0.8356 -1.3162
  253SOL    HW2  759   1.895   2.678   0.983 -1.9583 -4.4722  1.1455
  254SOL     OW  760   2.367   1.362   0.903 -0.0225 -0.1590 -0.0069
  254SOL    HW1  761   2.293   1.396   0.837 -0.1291  2.8636 -0.4186
  254SOL    HW2  762   2.327   1.365   0.996 -0.3565  1.8491 -3.0574
  255SOL     OW  763   0.758   2.832   1.018 -0.0524  0.1512  0.1563
  255SOL    HW1  764   0.809   2.884   1.085  0.4501  0.4994 -0.8801
  255SOL    HW2  765   0.799   2.739   1.013 -0.1603 -1.5689  1.1167
  256SOL     OW  766   1.698   1.951   1.694  0.1040 -0.2373  0.0369
  256SOL    HW1  767   1.792   1.939   1.656  2.7713 -1.1558  2.0687
  256SOL    HW2  768   1.620   1.952   1.626 -1.9641  0.4792 -0.0455
  257SOL     OW  769   0.289   2.320   2.481 -0.2932  0.1356 -0.1714
  257SOL    HW1  770   0.384   2.293   2.516  2.0662  2.0647 -0.0987
  257SOL    HW2  771   0.268   2.421   2.508  0.7319  4.0886 -0.3731
  258SOL     OW  772   0.680   2.891   0.761  0.2101  0.0661  0.1390
  258SOL    HW1  773   0.714   2.917   0.853  0.0322  2.4553  1.0479
  258SOL    HW2  774   0.616   2.965   0.728 -2.5201  2.0883 -1.7494
  259SOL     OW  775   1.442   0.545   2.760  0.2334 -0.2026  0.0269
  259SOL    HW1  776   1.388   0.463   2.793  0.5186 -1.9700  0.0241
  259SOL    HW2  777   1.402   0.631   2.799 -0.7536 -1.8167  0.6613
  260SOL     OW  778   0.071   1.059   1.171  0.0946  0.0132  0.1524
  260SOL    HW1  779   0.110   1.107   1.252 -2.4584  0.0621  2.9344
  260SOL    HW2  780   0.139   1.033   1.100  0.1687  1.0301  1.4478
  261SOL     OW  781   0.833   0.311   2.402 -0.0577 -0.2491 -0.0967
  261SOL    HW1  782   0.856   0.227   2.457 -1.5856  0.5726 -2.0599
  261SOL    HW2  783   0.870   0.295   2.308  2.1280  0.4312  2.5166
  262SOL     OW  784   0.952   2.476   2.081 -0.1282 -0.3382  0.0771
  262SOL    HW1  785   0.923   2.448   1.984 -3.3061 -1.4885 -0.6537
  262SOL    HW2  786   1.053   2.462   2.095 -1.2292  1.1194  0.9404
  263SOL     OW  787   0.653   2.225   3.076  0.5854 -0.0436  0.2033
  263SOL    HW1  788   0.751   2.209   0.015 -1.0625  1.2581  2.8628
  263SOL    HW2  789   0.593   2.191   0.067  0.7391 -0.7923 -1.5189
  264SOL     OW  790   1.050   1.537   1.102 -0.2434 -0.2766  0.6455
  264SOL    HW1  791   1.125   1.478   1.060  0.4734 -1.1114 -1.7662
  264SOL    HW2  792   0.978   1.474   1.142 -0.8765 -0.1818 -1.9869
  265SOL     OW  793   0.919   2.422   0.470 -0.3218  0.1594 -0.7217
  265SOL    HW1  794   0.898   2.344   0.533  1.9590 -1.2113  3.4630
  265SOL    HW2  795   0.951   2.505   0.516 -0.7314 -0.0197 -0.0408
  266SOL     OW  796   2.658   0.899   1.012  0.3056 -0.3713  0.3563
  266SOL    HW1  797   2.600   0.859   0.944  0.8505  2.5060  0.0272
  266SOL    HW2  798   2.752   0.858   1.007  0.1817  1.0760  2.7622
  267SOL     OW  799   2.961   1.207   2.902  0.2263 -0.3968  0.3007
  267SOL    HW1  800   2.978   1.246   2.991 -1.4626  0.4448 -0.0051
  267SOL    HW2  801   3.047   1.203   2.843  0.3139 -2.3890 -1.7327
  268SOL     OW  802   1.719   0.160   0.231  0.6748  0.1984 -0.4078
  268SOL    HW1  803   1.772   0.086   0.281  2.3044 -0.6323 -0.4492
  268SOL    HW2  804   1.710   0.242   0.294 -0.9186  0.2678 -1.5010
  269SOL     OW  805   2.878   0.823   2.442 -0.4304  0.1085  0.3438
  269SOL    HW1  806   2.847   0.887   2.515 -1.3191 -1.1724  0.9796
  269SOL    HW2  807   2.924   0.870   2.361 -0.7959  0.0185 -1.1288
  270SOL     OW  808   0.068   1.200   0.022  0.0086  0.4061  0.3916
  270SOL    HW1  809   0.057   1.213   0.122  0.5659  2.8282 -2.2751
  270SOL    HW2  810   0.099   1.104   3.082  0.7807 -1.8923 -3.5570
  271SOL     OW  811   2.826   1.616   2.642 -0.0517 -0.2793  0.0917
  271SOL    HW1  812   2.771   1.644   2.725  2.4072  0.4539 -0.2251
  271SOL    HW2  813   2.827   1.703   2.584  0.0106  0.3713 -0.8251
  272SOL     OW  814   2.373   2.647   1.821 -0.4794  0.3110  0.0411
  272SOL    HW1  815   2.446   2.577   1.794  0.3889 -2.2968 -1.2153
  272SOL    HW2  816   2.311   2.603   1.890 -0.6926 -0.2117 -0.3042
  273SOL     OW  817   0.316   2.417   0.108 -0.1621  0.1683 -0.1968
  273SOL    HW1  818   0.276   2.455   0.194 -0.5831 -0.8512 -0.2748
  273SOL    HW2  819   0.416   2.443   0.108  1.1426 -0.2164  1.6148
  274SOL     OW  820   0.856   2.350   0.864 -0.1013 -0.3481  0.7274
  274SOL    HW1  821   0.795   2.375   0.787  0.8805  0.0727  2.5706
  274SOL    HW2  822   0.883   2.254   0.860  0.8718 -2.0207 -0.1489
  275SOL     OW  823   2.074   1.775   3.032  0.6857  0.2649 -0.3768
  275SOL    HW1  824   2.151   1.788   0.010 -0.3526  2.8014  0.7056
  275SOL    HW2  825   2.081   1.845   2.953  0.0748  1.5939 -1.8336
  276SOL     OW  826   2.444   1.274   1.714 -0.6137 -0.2287  0.4013
  276SOL    HW1  827   2.439   1.311   1.812  0.2305  1.7184  3.6210
  276SOL    HW2  828   2.539   1.232   1.708 -0.1149  0.3056 -1.0658
  277SOL     OW  829   2.539   0.406   0.913 -0.4468  0.3444  0.2150
  277SOL    HW1  830   2.475   0.425   0.837 -1.0070  1.4253 -0.3992
  277SOL    HW2  831   2.495   0.413   1.006 -1.6233 -0.3643  2.0406
  278SOL     OW  832   1.800   0.538   2.295  0.3037 -0.4844 -0.1957
  278SOL    HW1  833   1.776   0.577   2.385 -1.0159  1.2504 -0.7984
  278SOL    HW2  834   1.825   0.440   2.295 -0.6081 -0.1224  0.1838
  279SOL     OW  835   1.110   2.707   1.012  0.1205  0.6947 -0.5307
  279SOL    HW1  836   1.166   2.652   1.078  0.4826  0.0164 -1.6965
  279SOL    HW2  837   1.110   2.809   1.033 -0.0890 -0.3763  1.6189
  280SOL     OW  838   1.197   0.876   0.334 -0.2880  0.6137 -0.2098
  280SOL    HW1  839   1.163   0.808   0.265  0.8719 -0.2606 -2.6759
  280SOL    HW2  840   1.296   0.854   0.360 -2.2201  2.2689 -2.4309
  281SOL     OW  841   2.381   1.508   0.132 -0.2641  0.2926 -0.6367
  281SOL    HW1  842   2.436   1.475   0.211 -1.8022 -4.4068 -1.1721
  281SOL    HW2  843   2.379   1.432   0.063 -0.4996 -0.8379  0.1283
  282SOL     OW  844   2.817   1.210   0.153 -0.1573 -0.2028 -0.0091
  282SOL    HW1  845   2.725   1.198   0.196  0.5495 -0.3516 -0.8747
  282SOL    HW2  846   2.881   1.271   0.203  1.3182 -0.1054 -0.3892
  283SOL     OW  847   1.611   2.874   2.638  0.2650  0.1384 -0.3179
  283SOL    HW1  848   1.563   2.883   2.549  1.7981 -1.7059  2.6953
  283SOL    HW2  849   1.642   2.960   2.671  1.8297 -1.1302 -1.7140
  284SOL     OW  850   0.804   0.139   3.007 -0.7750 -0.7552 -0.1150
  284SOL    HW1  851   0.801   0.170   2.910  1.0962  0.4527 -0.9438
  284SOL    HW2  852   0.896   0.093   3.027  2.5926 -1.1896  1.2987
  285SOL     OW  853   1.934   2.139   2.693 -0.1969  0.4420  0.0414
  285SOL    HW1  854   1.959   2.219   2.634 -2.7954  1.6968  0.7179
  285SOL    HW2  855   1.852   2.089   2.654  1.5958 -1.9235 -0.1265
  286SOL     OW  856   1.300   1.849   0.788 -0.0830 -0.0337  0.1186
  286SOL    HW1  857   1.373   1.808   0.847 -1.1440  1.0008  2.0584
  286SOL    HW2  858   1.284   1.942   0.824 -0.9451  0.2455  3.4571
  287SOL     OW  859   1.611   0.065   1.432  0.0883 -0.4453  0.4400
  287SOL    HW1  860   1.649   0.054   1.530  2.8452 -1.0880  1.9074
  287SOL    HW2  861   1.514   0.044   1.427  0.3665  0.4938  0.0632
  288SOL     OW  862   0.539   2.661   2.304 -0.4238  0.1389  0.4647
  288SOL    HW1  863   0.595   2.726   2.364  0.5405 -1.0441  0.5919
  288SOL    HW2  864   0.439   2.680   2.307  0.3518 -0.7478 -0.7201
  289SOL     OW  865   0.167   1.404   0.673  0.3938 -0.6631  0.2097
  289SOL    HW1  866   0.144   1.319   0.621  0.2137  2.1861 -0.7942
  289SOL    HW2  867   0.162   1.385   0.772  1.9088  2.4844 -1.9781
  290SOL     OW  868   1.058   1.896   1.529  0.0492 -0.3753  0.5035
  290SOL    HW1  869   1.058   1.885   1.628 -0.1525  0.0320 -3.9278
  290SOL    HW2  870   1.111   1.985   1.514  0.4741  1.9387  0.4120
  291SOL     OW  871   1.994   0.164   0.576  0.0453  0.3348  0.4486
  291SOL    HW1  872   1.950   0.164   0.666  2.8079  0.6321  1.7881
  291SOL    HW2  873   1.923   0.164   0.500 -2.3797 -0.9206  0.7519
  292SOL     OW  874   0.290   0.401   1.499 -0.3401 -0.5018  0.4859
  292SOL    HW1  875   0.276   0.450   1.410  0.5204  0.7893 -0.1622
  292SOL    HW2  876   0.233   0.431   1.578  1.5667  1.5175 -1.8495
  293SOL     OW  877   2.315   1.721   0.705 -0.2802  0.2642  0.1069
  293SOL    HW1  878   2.395   1.740   0.764  0.3977 -1.0196  0.5989
  293SOL    HW2  879   2.262   1.640   0.727  2.2589  2.7630  1.1199
  294SOL     OW  880   0.313   0.188   2.317  0.1298  0.2463 -0.1617
  294SOL    HW1  881   0.325   0.096   2.274 -2.0505 -2.2719  0.3601
  294SOL    HW2  882   0.400   0.240   2.319  0.2418 -0.5579  0.8099
  295SOL     OW  883   0.995   1.197   0.342  0.6493  0.0314 -0.6815
  295SOL    HW1  884   1.018   1.109   0.394  0.3389  3.3188  0.6168
  295SOL    HW2  885   0.897   1.203   0.327  1.9231 -0.9614  0.5714
  296SOL     OW  886   2.069   2.038   1.111 -0.5277  0.1631 -0.3098
  296SOL    HW1  887   2.049   1.939   1.133 -0.5252  1.2339  0.5362
  296SOL    HW2  888   2.167   2.037   1.077  2.4596 -1.7323 -2.5757
  297SOL     OW  889   1.804   0.463   2.696 -0.1698  0.1538 -0.4945
  297SOL    HW1  890   1.903   0.466   2.663  1.9000  0.1291 -0.0287
  297SOL    HW2  891   1.748   0.528   2.645 -0.1080 -1.8113  0.1660
  298SOL     OW  892   1.380   0.045   2.734  0.1689  0.7644 -0.0184
  298SOL    HW1  893   1.364   3.027   2.752 -1.2360 -2.4792  1.5645
  298SOL    HW2  894   1.443   0.083   2.803 -0.4927  2.3718  0.5039
  299SOL     OW  895   0.946   0.205   2.199 -0.1988  0.1994  0.2688
  299SOL    HW1  896   1.048   0.217   2.207  2.4255  0.9465  1.9152
  299SOL    HW2  897   0.925   0.109   2.218 -0.6964  0.6156 -0.1756
  300SOL     OW  898   2.527   0.107   1.577 -0.0134  0.0070  0.1206
  300SOL    HW1  899   2.550   0.077   1.673  1.2189  0.8291  1.2835
  300SOL    HW2  900   2.502   0.206   1.574  0.6492 -1.3903  1.1194
  301SOL     OW  901   2.208   0.807   1.816  0.2489 -0.0873  0.1372
  301SOL    HW1  902   2.289   0.850   1.767  2.4206  4.8335 -3.3184
  301SOL    HW2  903   2.137   0.767   1.759 -0.6885  0.7920  0.1568
  302SOL     OW  904   0.683   2.823   0.123  0.1901  0.5263  0.0954
  302SOL    HW1  905   0.613   2.899   0.151 -4.5101  5.4650 -3.0198
  302SOL    HW2  906   0.710   2.767   0.205 -0.4339  0.1345  1.1718
  303SOL     OW  907   1.796   1.804   1.934  0.2579 -0.1246  0.2718
  303SOL    HW1  908   1.877   1.769   1.885 -0.4712  0.5870  0.8606
  303SOL    HW2  909   1.777   1.902   1.914 -2.1366 -0.3893  1.4608
  304SOL     OW  910   0.446   0.342   0.856  0.1612  0.0070 -0.7523
  304SOL    HW1  911   0.517   0.272   0.880  1.6269 -0.9198  1.4766
  304SOL    HW2  912   0.485   0.434   0.840 -1.0486 -1.5626  0.7638
  305SOL     OW  913   0.791   0.874   0.546  0.2978  0.2251  0.3242
  305SOL    HW1  914   0.757   0.885   0.447 -0.6848 -0.5247 -1.0694
  305SOL    HW2  915   0.773   0.780   0.580 -1.9054  1.4809 -2.3918
  306SOL     OW  916   0.552   1.332   2.926  0.4376 -0.1416  0.2568
  306SOL    HW1  917   0.622   1.307   2.857 -1.1645 -2.1893  0.8236
  306SOL    HW2  918   0.587   1.361   3.021  0.8887  0.6257 -0.5920
  307SOL     OW  919   0.806   0.232   1.961 -0.4589 -0.2126  0.1047
  307SOL    HW1  920   0.866   0.279   1.896 -1.4617  1.1220  0.0447
  307SOL    HW2  921   0.837   0.237   2.056 -0.6650  1.6570  1.0719
  308SOL     OW  922   0.829   0.329   0.909  0.5311  0.7069 -0.2993
  308SOL    HW1  923   0.783   0.393   0.975 -0.5824 -0.2890 -0.8103
  308SOL    HW2  924   0.883   0.382   0.847 -0.4259 -1.1425 -0.3335
  309SOL     OW  925   2.307   1.212   0.528 -0.5373  0.0964  0.1485
  309SOL    HW1  926   2.362   1.250   0.611 -0.9191  1.2963  3.1160
  309SOL    HW2  927   2.296   1.289   0.464 -0.0807  0.3732 -0.6830
  310SOL     OW  928   0.924   1.380   2.984 -0.2047 -0.2902  0.4174
  310SOL    HW1  929   1.022   1.406   2.978  2.2734  1.0212 -1.1086
  310SOL    HW2  930   0.898   1.336   3.070  3.8604  0.6775 -0.0507
  311SOL     OW  931   1.957   2.411   2.142  0.2181  0.0859  0.0786
  311SOL    HW1  932   1.896   2.350   2.203 -1.3564 -3.2183  0.1587
  311SOL    HW2  933   1.928   2.505   2.136 -1.7727 -0.2545 -1.8627
  312SOL     OW  934   2.241   2.969   2.971  0.2192 -0.4169  0.4872
  312SOL    HW1  935   2.150   2.996   2.937 -0.9934  0.4128 -1.5396
  312SOL    HW2  936   2.279   2.895   2.915 -1.8674  1.4501 -1.0676
  313SOL     OW  937   0.503   0.407   2.940  0.0153 -0.1366 -0.3977
  313SOL    HW1  938   0.561   0.486   2.974 -1.4904 -2.1109  0.4366
  313SOL    HW2  939   0.428   0.440   2.883  0.0184 -2.9340  1.4450
  314SOL     OW  940   2.606   1.410   2.820 -0.0346 -0.4898  0.0124
  314SOL    HW1  941   2.607   1.325   2.876  1.2728  2.6163 -1.2474
  314SOL    HW2  942   2.648   1.487   2.868 -0.6687  0.6434 -0.0835
  315SOL     OW  943   1.884   0.738   2.142  0.2763  0.0546  0.5026
  315SOL    HW1  944   1.869   0.659   2.212 -1.4964 -2.3328  4.5986
  315SOL    HW2  945   1.975   0.786   2.155  2.0442  1.0851 -1.2184
  316SOL     OW  946   3.031   0.933   0.586  0.0142  0.2834 -0.1206
  316SOL    HW1  947   3.019   0.874   0.505 -1.0011 -0.2294 -2.3616
  316SOL    HW2  948   2.949   0.945   0.649 -1.2407  0.3401  3.3978
  317SOL     OW  949   0.519   3.033   0.177  0.6120  0.2537 -0.3454
  317SOL    HW1  950   0.501   0.023   0.109  0.6365 -2.9954  0.4117
  317SOL    HW2  951   0.555   3.076   0.259  2.4626  0.4311 -1.7771
  318SOL     OW  952   1.811   2.769   1.418 -0.0912  0.0463 -0.0169
  318SOL    HW1  953   1.774   2.760   1.512  2.5668  2.2569 -0.7322
  318SOL    HW2  954   1.817   2.679   1.375 -0.7521  1.9103  2.2557
  319SOL     OW  955   1.091   1.442   0.398 -0.7932 -0.2751  0.4961
  319SOL    HW1  956   1.053   1.353   0.367  0.2391 -0.4370  1.2810
  319SOL    HW2  957   1.182   1.456   0.371 -4.9217 -2.0215  0.5891
  320SOL     OW  958   0.708   2.002   1.025 -0.4110  0.1631  0.1869
  320SOL    HW1  959   0.701   1.995   1.127  0.2600 -0.2874  2.5685
  320SOL    HW2  960   0.628   2.017   0.963 -1.9682 -2.6737 -0.0564
  321SOL     OW  961   2.226   2.533   2.022 -0.3100 -0.6612 -0.6410
  321SOL    HW1  962   2.264   2.513   2.114 -2.0330  0.5228 -0.3541
  321SOL    HW2  963   2.162   2.613   2.036 -0.4424  0.7960  1.4426
  322SOL     OW  964   2.352   2.230   2.269 -0.8411 -0.4381  0.1777
  322SOL    HW1  965   2.417   2.172   2.223 -1.8477  2.3983  2.5175
  322SOL    HW2  966   2.351   2.322   2.233  0.4381  1.2581 -0.1074
  323SOL     OW  967   2.529   0.753   0.835 -0.4279 -0.1688 -0.2798
  323SOL    HW1  968   2.442   0.796   0.805 -0.5741 -0.7464 -0.6677
  323SOL    HW2  969   2.580   0.722   0.750  0.5595  0.2844 -0.2183
  324SOL     OW  970   2.114   2.156   2.395 -0.5385 -0.3056 -0.2216
  324SOL    HW1  971   2.202   2.169   2.344 -1.3131  1.0508 -1.2186
  324SOL    HW2  972   2.048   2.101   2.331  0.4662  0.0234 -1.4568
  325SOL     OW  973   1.440   0.549   2.473 -0.0202 -0.5336  0.1362
  325SOL    HW1  974   1.354   0.533   2.423  0.8324 -1.2389  0.7798
  325SOL    HW2  975   1.423   0.529   2.575 -1.2702  1.1404  2.7677
  326SOL     OW  976   2.448   2.585   1.024 -0.1274 -0.1465  0.0055
  326SOL    HW1  977   2.523   2.622   0.970  1.6004 -2.4246  1.8134
  326SOL    HW2  978   2.361   2.576   0.968 -3.8577 -2.1303 -1.9218
  327SOL     OW  979   2.613   2.974   0.322  0.0350  0.2860 -0.3106
  327SOL    HW1  980   2.626   2.935   0.228  1.8645 -0.0940 -0.6171
  327SOL    HW2  981   2.594   3.073   0.317  0.0573  0.2797 -2.1134
  328SOL     OW  982   0.765   0.631   0.678  0.4150 -0.5912 -0.2252
  328SOL    HW1  983   0.855   0.636   0.727  3.3706 -0.4632  1.5304
  328SOL    HW2  984   0.694   0.604   0.747  2.1605  0.7658  0.1892
  329SOL     OW  985   1.956   0.657   1.347  0.1172 -0.6398  0.0609
  329SOL    HW1  986   1.933   0.752   1.362  0.2249  0.0466 -0.7304
  329SOL    HW2  987   2.051   0.641   1.321 -0.6781  1.6732  1.1562
  330SOL     OW  988   0.677   0.547   0.411 -0.2852  0.3815 -0.5021
  330SOL    HW1  989   0.712   0.629   0.357 -0.3716  0.9790  0.0724
  330SOL    HW2  990   0.717   0.551   0.504 -0.6756 -2.3264  0.8852
  331SOL     OW  991   0.808   1.805   1.912  0.7799 -0.3206 -0.0933
  331SOL    HW1  992   0.899   1.767   1.888 -0.9673 -1.1030 -2.7047
  331SOL    HW2  993   0.782   1.885   1.851 -1.3954  2.0334 -2.1133
  332SOL     OW  994   1.940   2.288   1.888  0.2640 -0.2382 -0.2271
  332SOL    HW1  995   1.936   2.317   1.987 -0.0522  0.7841  0.8924
  332SOL    HW2  996   2.002   2.350   1.840 -1.4708 -1.4062 -0.0587
  333SOL     OW  997   2.930   0.097   1.140 -0.3408  0.3776 -0.0543
  333SOL    HW1  998   2.837   0.113   1.180 -3.6092  1.6752 -0.5690
  333SOL    HW2  999   2.927   0.002   1.104  2.3704 -0.1277 -1.6630
  334SOL     OW 1000   2.933   1.642   0.941  0.3778 -0.3867 -0.4795
  334SOL    HW1 1001   2.886   1.600   0.856  1.0207 -1.8845 -0.6684
  334SOL    HW2 1002   3.031   1.618   0.940 -1.1410  0.5185  1.7923
  335SOL     OW 1003   0.501   2.531   2.674  0.8447  0.6348  0.1533
  335SOL    HW1 1004   0.479   2.463   2.748  1.8215  0.2746 -2.5758
  335SOL    HW2 1005   0.414   2.567   2.642 -1.6119  0.2547 -2.1341
  336SOL     OW 1006   2.876   2.647   2.053 -0.7239 -0.3806  0.2522
  336SOL    HW1 1007   2.905   2.675   2.146 -0.7192 -1.4923  1.6390
  336SOL    HW2 1008   2.843   2.726   2.000 -0.8124 -1.3121 -0.3389
  337SOL     OW 1009   1.130   1.914   1.790  0.2346  0.4331 -1.1173
  337SOL    HW1 1010   1.086   1.820   1.777 -4.3728 -2.1800 -0.8773
  337SOL    HW2 1011   1.212   1.903   1.848  2.5212 -0.6853  0.0546
  338SOL     OW 1012   1.258   0.114   2.493 -0.6447  0.8721 -0.5972
  338SOL    HW1 1013   1.192   0.041   2.468  1.1360 -1.3033 -3.5839
  338SOL    HW2 1014   1.317   0.074   2.566  1.7778 -2.6902  2.7403
  339SOL     OW 1015   0.354   0.800   2.491  0.3017 -0.4626  0.3130
  339SOL    HW1 1016   0.361   0.872   2.416 -0.6025  1.1395 -1.6269
  339SOL    HW2 1017   0.319   0.845   2.577  0.4928 -0.0918 -1.6121
  340SOL     OW 1018   2.235   0.560   1.306 -0.3043 -0.4378 -0.1465
  340SOL    HW1 1019   2.301   0.611   1.248 -0.7210  1.1457 -1.5623
  340SOL    HW2 1020   2.252   0.457   1.310  2.1337 -0.8636 -1.6043
  341SOL     OW 1021   2.238   1.314   1.140  0.5923  0.4562  0.2131
  341SOL    HW1 1022   2.205   1.377   1.203  0.0166 -1.9776 -4.8870
  341SOL    HW2 1023   2.256   1.221   1.179  1.2873 -2.1662  0.7284
  342SOL     OW 1024   2.033   2.758   2.790 -0.1683 -0.2355 -0.1668
  342SOL    HW1 1025   2.012   2.856   2.789 -0.2207 -4.4014  0.0267
  342SOL    HW2 1026   2.002   2.718   2.877  1.4161  1.2249  3.1050
  343SOL     OW 1027   2.953   2.329   1.126  1.0260 -0.1021 -0.0168
  343SOL    HW1 1028   2.926   2.244   1.176 -2.7235 -2.1913  1.5627
  343SOL    HW2 1029   2.982   2.405   1.188 -0.0193  1.2904  2.2729
  344SOL     OW 1030   2.342   2.950   1.051  0.4270 -0.0749 -0.3673
  344SOL    HW1 1031   2.364   2.924   0.953 -0.5855  0.3140 -1.9105
  344SOL    HW2 1032   2.299   2.869   1.097 -1.9806  0.8777  2.0567
  345SOL     OW 1033   2.396   2.083   0.534  0.3766  0.0802  0.4382
  345SOL    HW1 1034   2.478   2.083   0.470  2.1628  0.0626  0.5524
  345SOL    HW2 1035   2.341   2.168   0.525  0.5007  1.8616  0.1114
  346SOL     OW 1036   1.464   1.894   1.554 -0.0913  0.5151  0.0668
  346SOL    HW1 1037   1.431   1.833   1.627  0.0544  0.2462 -2.0404
  346SOL    HW2 1038   1.382   1.953   1.538 -0.5083  1.0546  0.4063
  347SOL     OW 1039   1.027   1.661   1.391 -0.2994  0.1910  0.4088
  347SOL    HW1 1040   1.025   1.668   1.291 -1.1320  2.1504 -0.9230
  347SOL    HW2 1041   1.025   1.755   1.433 -0.3891 -0.9982 -0.5852
  348SOL     OW 1042   0.525   1.917   1.930 -0.3090  0.4263 -0.1083
  348SOL    HW1 1043   0.559   1.952   2.017 -0.8218  0.6625 -3.0715
  348SOL    HW2 1044   0.582   1.965   1.861  0.4950 -2.6466 -0.0177
  349SOL     OW 1045   1.637   1.432   1.446  0.1952 -0.5558 -0.3316
  349SOL    HW1 1046   1.706   1.411   1.521  1.8479 -0.4678  0.7506
  349SOL    HW2 1047   1.545   1.391   1.466  1.3261  2.1719  0.9639
  350SOL     OW 1048   2.255   2.311   0.534 -0.0091 -0.2957  0.6429
  350SOL    HW1 1049   2.317   2.370   0.590  3.2348 -0.2888  1.2368
  350SOL    HW2 1050   2.207   2.359   0.460 -0.2672 -1.9386 -1.6623
  351SOL     OW 1051   0.270   2.900   1.701  0.2270 -0.2457 -0.6241
  351SOL    HW1 1052   0.300   2.829   1.638 -1.6697 -2.4663  4.4579
  351SOL    HW2 1053   0.191   2.959   1.667 -1.8383  1.1738 -2.0814
  352SOL     OW 1054   0.704   1.032   0.751  0.2184  0.5547  0.1261
  352SOL    HW1 1055   0.773   1.078   0.816 -1.7546  0.9595  1.9298
  352SOL    HW2 1056   0.749   0.980   0.675  1.1362  0.3091 -1.0780
  353SOL     OW 1057   1.149   1.852   2.673  0.4341  0.0731  0.3897
  353SOL    HW1 1058   1.117   1.936   2.629 -0.0947 -0.4580 -2.7008
  353SOL    HW2 1059   1.070   1.789   2.698  0.2635  0.3797  0.3256
  354SOL     OW 1060   1.710   2.603   1.897  0.4339 -0.1851 -0.7918
  354SOL    HW1 1061   1.657   2.514   1.886 -1.4427 -1.6707  1.6817
  354SOL    HW2 1062   1.779   2.600   1.969 -2.7672 -0.2735  2.0400
  355SOL     OW 1063   2.312   1.132   0.163 -0.6627  0.4629 -0.9077
  355SOL    HW1 1064   2.341   1.204   0.099  0.3383 -0.9861 -1.1594
  355SOL    HW2 1065   2.209   1.119   0.170 -1.9227  2.5450 -0.8357
  356SOL     OW 1066   0.365   1.869   1.044  0.0945 -0.4979 -0.0780
  356SOL    HW1 1067   0.352   1.783   0.985  1.3932 -0.0896  1.3490
  356SOL    HW2 1068   0.276   1.915   1.059  0.8140  0.2996 -1.2168
  357SOL     OW 1069   2.981   2.777   1.602  0.5155  0.0304  0.0464
  357SOL    HW1 1070   2.885   2.778   1.637 -0.3594 -1.4887  1.8816
  357SOL    HW2 1071   2.993   2.849   1.527  1.2106  2.0066 -3.4195
  358SOL     OW 1072   2.379   1.730   1.569 -0.1458 -0.0623  0.1759
  358SOL    HW1 1073   2.407   1.796   1.498 -3.6025 -2.2292  1.1702
  358SOL    HW2 1074   2.403   1.633   1.553  0.9742 -0.0893  2.1031
  359SOL     OW 1075   2.143   2.678   2.545  0.6275  0.0507  0.0825
  359SOL    HW1 1076   2.098   2.712   2.633 -3.9908  2.5464  4.4866
  359SOL    HW2 1077   2.155   2.577   2.548  1.3557 -2.8317  1.2523
  360SOL     OW 1078   0.952   2.842   0.743  0.4862  0.5807 -0.1933
  360SOL    HW1 1079   0.851   2.855   0.744  0.7236  0.7269  0.7117
  360SOL    HW2 1080   0.977   2.788   0.818 -0.0558  1.0768 -2.6769
  361SOL     OW 1081   1.904   0.497   0.508 -0.1753 -0.1962 -0.5333
  361SOL    HW1 1082   2.003   0.493   0.505  0.2865 -0.8838  1.1799
  361SOL    HW2 1083   1.870   0.501   0.602 -0.7656  1.5021 -1.3863
  362SOL     OW 1084   1.450   0.769   1.269  0.8042 -0.5018 -0.3361
  362SOL    HW1 1085   1.391   0.731   1.196 -0.7732  2.8597 -0.4949
  362SOL    HW2 1086   1.382   0.799   1.336 -0.9074 -1.7578 -0.0356
  363SOL     OW 1087   1.988   1.563   2.268 -0.3172  0.0897  0.1597
  363SOL    HW1 1088   1.994   1.477   2.326  0.6044  0.7313 -0.1846
  363SOL    HW2 1089   2.046   1.548   2.186  0.5035  0.7754  1.5334
  364SOL     OW 1090   0.656   0.754   1.291 -0.5621 -0.4710 -0.4018
  364SOL    HW1 1091   0.599   0.776   1.208 -2.0327  0.9849  0.4736
  364SOL    HW2 1092   0.754   0.745   1.256  1.3081  0.0328 -0.5270
  365SOL     OW 1093   0.563   0.334   2.446  0.2082  0.1325 -0.5976
  365SOL    HW1 1094   0.533   0.429   2.430  0.2058 -0.6099 -0.2491
  365SOL    HW2 1095   0.667   0.332   2.426  2.8817  3.5536  2.8122
  366SOL     OW 1096   2.240   2.037   2.671  1.3354  0.5752 -0.7202
  366SOL    HW1 1097   2.331   1.999   2.659 -1.0423  0.6404 -0.6514
  366SOL    HW2 1098   2.212   2.058   2.573  1.4288 -0.2207  0.5590
  367SOL     OW 1099   2.656   2.609   0.147  0.3650  0.8307 -0.2884
  367SOL    HW1 1100   2.750   2.601   0.187 -0.0897  3.6000 -1.7184
  367SOL    HW2 1101   2.639   2.545   0.070  0.2308 -2.2600  0.8837
  368SOL     OW 1102   2.870   1.538   1.195 -0.0176 -0.1385  0.5914
  368SOL    HW1 1103   2.876   1.440   1.176  3.4829  1.4586 -1.0673
  368SOL    HW2 1104   2.889   1.594   1.110  0.0736  4.6646 -1.6986
  369SOL     OW 1105   0.679   2.891   2.445  0.2283  0.4099  0.0502
  369SOL    HW1 1106   0.684   2.960   2.519  0.0747 -3.2394 -2.6465
  369SOL    HW2 1107   0.745   2.916   2.368  2.4698 -1.0775  1.6939
  370SOL     OW 1108   2.867   0.150   0.656  0.2140 -0.0448 -0.3148
  370SOL    HW1 1109   2.905   0.227   0.596 -1.4058 -1.7850  1.2734
  370SOL    HW2 1110   2.765   0.161   0.657 -0.1406 -0.6691  1.7284
  371SOL     OW 1111   1.255   2.085   1.507  0.3111  0.6003 -0.2140
  371SOL    HW1 1112   1.259   2.082   1.405 -0.7881 -1.0820 -0.2520
  371SOL    HW2 1113   1.255   2.174   1.554  1.7399 -2.2820 -0.0917
  372SOL     OW 1114   2.889   0.583   2.305  0.0150 -0.0501 -0.0032
  372SOL    HW1 1115   2.954   0.525   2.349  0.4162 -0.0947 -0.4837
  372SOL    HW2 1116   2.884   0.673   2.353 -1.0980  0.1458 -0.9100
  373SOL     OW 1117   0.140   2.096   0.731  0.0822  0.4907  0.3272
  373SOL    HW1 1118   0.209   2.159   0.771  1.3194  1.4292  0.9014
  373SOL    HW2 1119   0.055   2.143   0.707  1.4801  0.7415 -0.9557
  374SOL     OW 1120   0.330   3.076   2.705  0.6555 -0.1825  0.0982
  374SOL    HW1 1121   0.374   3.073   2.796  0.3662  2.3870 -4.0363
  374SOL    HW2 1122   0.387   3.027   2.637 -1.6365 -1.5784  0.5779
  375SOL     OW 1123   0.553   0.240   2.727 -0.4935  0.0492  0.5644
  375SOL    HW1 1124   0.535   0.303   2.806 -3.8503  0.7939 -0.2928
  375SOL    HW2 1125   0.513   0.281   2.642  0.1189  1.7276 -0.2181
  376SOL     OW 1126   2.695   2.227   1.860  0.6271 -0.0013 -0.3417
  376SOL    HW1 1127   2.760   2.150   1.874 -0.3937 -0.5234 -1.9146
  376SOL    HW2 1128   2.601   2.200   1.887  2.0613 -0.9186  0.1115
  377SOL     OW 1129   1.437   2.847   2.831  0.0166 -0.3965  0.5676
  377SOL    HW1 1130   1.463   2.841   2.929 -3.5923 -1.7947 -1.2890
  377SOL    HW2 1131   1.511   2.834   2.764 -1.6225 -0.2331  1.8944
  378SOL     OW 1132   3.047   0.435   2.461 -0.0386 -0.0043 -0.3052
  378SOL    HW1 1133   0.056   0.482   2.469  0.8105  2.1831  1.6874
  378SOL    HW2 1134   3.035   0.376   2.542  0.7426  1.0432 -0.2768
  379SOL     OW 1135   0.449   1.010   0.218 -0.8038 -0.3985 -0.6711
  379SOL    HW1 1136   0.483   1.003   0.120 -0.7604  1.0963 -0.7913
  379SOL    HW2 1137   0.385   0.934   0.239  1.2924 -1.4193 -0.8133
  380SOL     OW 1138   0.403   1.662   1.856 -0.0715  0.1966  0.4231
  380SOL    HW1 1139   0.464   1.742   1.849  4.4767 -2.7500 -0.0442
  380SOL    HW2 1140   0.402   1.626   1.952 -2.4839 -0.0626  1.1278
  381SOL     OW 1141   0.323   1.210   2.100 -0.0354  0.0320  0.5594
  381SOL    HW1 1142   0.371   1.131   2.056  0.7579 -0.4713  0.2851
  381SOL    HW2 1143   0.233   1.229   2.055  0.0912  0.1883  1.0518
  382SOL     OW 1144   2.322   1.821   0.452  0.4221 -0.4867 -0.0144
  382SOL    HW1 1145   2.356   1.916   0.473  0.3542 -0.8930 -1.3877
  382SOL    HW2 1146   2.329   1.764   0.536 -1.4760 -3.2986  2.1466
  383SOL     OW 1147   0.344   1.842   0.090  0.1366 -0.6791 -0.3592
  383SOL    HW1 1148   0.337   1.790   0.178 -1.5044 -1.9210 -1.0157
  383SOL    HW2 1149   0.427   1.818   0.041 -1.8068  2.0137 -1.2030
  384SOL     OW 1150   0.868   2.209   2.631  0.5763  0.6083 -0.1847
  384SOL    HW1 1151   0.815   2.157   2.699  2.6317  2.0328 -0.7531
  384SOL    HW2 1152   0.817   2.293   2.602 -0.7155 -3.6606  2.0244
  385SOL     OW 1153   2.091   1.901   0.706 -0.0786  0.2308  0.2929
  385SOL    HW1 1154   2.184   1.860   0.684  0.6172  1.0090  1.8562
  385SOL    HW2 1155   2.099   2.004   0.703 -1.4603 -0.2713 -0.0602
  386SOL     OW 1156   2.430   1.120   1.461  0.2227 -0.7322 -0.6629
  386SOL    HW1 1157   2.376   1.076   1.388  0.7417  1.6441  0.4324
  386SOL    HW2 1158   2.388   1.207   1.495  1.2567  1.8219 -2.8186
  387SOL     OW 1159   2.652   1.409   2.191 -0.2020 -0.1935  0.5254
  387SOL    HW1 1160   2.632   1.497   2.146  1.1295 -0.5673  1.2727
  387SOL    HW2 1161   2.709   1.432   2.269 -0.3272  0.7124 -2.6533
  388SOL     OW 1162   0.441   1.651   2.123  0.1917 -0.0373 -0.2309
  388SOL    HW1 1163   0.538   1.685   2.117  0.7168 -0.6956  0.0319
  388SOL    HW2 1164   0.370   1.719   2.151  0.0292 -0.1681 -0.6651
  389SOL     OW 1165   0.868   0.973   2.004 -0.1779  0.1815 -0.1026
  389SOL    HW1 1166   0.862   0.920   1.919 -1.7208 -2.9660  0.8713
  389SOL    HW2 1167   0.960   0.957   2.038  1.0757  1.0061  0.1045
  390SOL     OW 1168   2.313   0.168   1.004 -0.0630  0.5528  0.7502
  390SOL    HW1 1169   2.365   0.231   1.068  0.2015  0.2291  0.4073
  390SOL    HW2 1170   2.321   0.069   1.029 -0.5059 -2.1352 -0.9622
  391SOL     OW 1171   1.927   1.557   1.280 -0.2983 -0.4684 -0.5482
  391SOL    HW1 1172   2.028   1.545   1.266  0.3738 -0.3331 -1.1565
  391SOL    HW2 1173   1.876   1.495   1.219 -0.0007  0.4190  3.4516
  392SOL     OW 1174   2.831   2.864   0.448  0.0568 -0.1532  0.0141
  392SOL    HW1 1175   2.752   2.907   0.395 -1.4985  1.5212 -3.2942
  392SOL    HW2 1176   2.827   2.885   0.548  1.1686  1.2070  0.7713
  393SOL     OW 1177   1.788   2.373   2.963  0.3626  0.1562  0.4168
  393SOL    HW1 1178   1.819   2.414   2.873 -0.0756 -1.2799 -4.1141
  393SOL    HW2 1179   1.866   2.338   3.011 -1.2045 -0.5023 -2.2005
  394SOL     OW 1180   2.994   2.539   2.471  0.2237  0.2110  0.2054
  394SOL    HW1 1181   2.984   2.555   2.573 -0.8055 -0.0108  1.1677
  394SOL    HW2 1182   3.025   2.445   2.449 -1.3810 -0.7349 -1.6199
  395SOL     OW 1183   0.308   0.149   0.724  0.6676  0.1427 -0.3278
  395SOL    HW1 1184   0.223   0.199   0.693  2.3371 -1.0120  0.5120
  395SOL    HW2 1185   0.361   0.215   0.776 -1.6356  0.9228 -0.5887
  396SOL     OW 1186   1.845   0.759   0.440  0.2548  0.1457  0.4579
  396SOL    HW1 1187   1.791   0.778   0.524  0.0705 -3.8244  1.0318
  396SOL    HW2 1188   1.894   0.669   0.444 -1.0147  1.2600  2.1472
  397SOL     OW 1189   0.448   0.516   2.113  0.1086  0.2773  0.3114
  397SOL    HW1 1190   0.508   0.434   2.096  0.3113  0.5682 -1.3028
  397SOL    HW2 1191   0.352   0.483   2.127  1.0146  0.6031 -1.3332
  398SOL     OW 1192   1.020   0.017   0.294 -0.2016 -0.2533 -0.0090
  398SOL    HW1 1193   1.031   0.113   0.317  1.3684 -2.5753  1.9232
  398SOL    HW2 1194   0.977   3.060   0.371  0.8685  0.5953 -1.7670
  399SOL     OW 1195   2.384   0.497   1.808  0.1461 -0.6340  0.4140
  399SOL    HW1 1196   2.427   0.563   1.740 -0.3403  0.3052 -1.1511
  399SOL    HW2 1197   2.374   0.547   1.892 -1.0364 -0.4563  1.1095
  400SOL     OW 1198   1.063   2.065   2.527 -0.5161 -0.3875  0.2513
  400SOL    HW1 1199   0.985   2.112   2.575 -3.6709 -1.0998  0.8586
  400SOL    HW2 1200   1.034   2.044   2.429 -0.4670 -0.4425 -1.2397
  401SOL     OW 1201   0.753   0.927   2.560 -0.1785 -0.1451  0.0522
  401SOL    HW1 1202   0.747   0.839   2.607  0.2875 -0.2085  1.1630
  401SOL    HW2 1203   0.730   0.917   2.460 -0.7493  0.8105 -0.3019
  402SOL     OW 1204   0.197   2.491   0.343  0.1071 -0.1407  0.0549
  402SOL    HW1 1205   0.211   2.404   0.399  0.4901  0.5740  0.1478
  402SOL    HW2 1206   0.106   2.526   0.359  5.5333 -2.4345 -0.1391
  403SOL     OW 1207   0.086   1.245   1.981 -0.2073 -0.4575  0.1310
  403SOL    HW1 1208   0.050   1.302   1.907 -0.9642  0.9515 -1.9123
  403SOL    HW2 1209   0.016   1.181   2.013  0.7133  0.6051 -0.8615
  404SOL     OW 1210   2.644   2.470   2.312  0.4489  0.3224 -0.0662
  404SOL    HW1 1211   2.577   2.491   2.239  0.9205 -1.6284 -0.1756
  404SOL    HW2 1212   2.738   2.459   2.277 -2.9423  2.2962 -2.3484
  405SOL     OW 1213   0.182   0.237   1.891 -0.2358 -0.4204 -0.4170
  405SOL    HW1 1214   0.273   0.192   1.907 -0.6992 -0.2736  2.9032
  405SOL    HW2 1215   0.106   0.170   1.874 -3.4873 -0.4695  0.1256
  406SOL     OW 1216   1.298   1.437   2.764 -0.8983 -0.2495 -0.4102
  406SOL    HW1 1217   1.371   1.506   2.785  3.6140  1.3238 -1.6517
  406SOL    HW2 1218   1.337   1.346   2.739  0.4314  0.2249 -0.3097
  407SOL     OW 1219   1.747   0.891   2.624  0.4030 -0.4904 -0.2177
  407SOL    HW1 1220   1.768   0.890   2.720  0.6668 -3.2100 -0.7257
  407SOL    HW2 1221   1.826   0.935   2.575  2.1479  0.9373 -1.7332
  408SOL     OW 1222   0.381   2.904   2.469  0.6505 -0.0133  0.1100
  408SOL    HW1 1223   0.480   2.898   2.468 -2.1350  2.7232  1.4395
  408SOL    HW2 1224   0.358   2.957   2.386 -0.4491  1.0949  0.2898
  409SOL     OW 1225   0.137   1.999   1.103  0.5874  0.1804  0.2337
  409SOL    HW1 1226   0.046   1.969   1.077  0.3860  0.1250  0.9396
  409SOL    HW2 1227   0.137   2.076   1.168  2.0988 -0.4029 -0.8459
  410SOL     OW 1228   2.505   1.437   0.375  0.2985  0.1388  0.5701
  410SOL    HW1 1229   2.531   1.446   0.475 -0.2849 -0.4744  0.7396
  410SOL    HW2 1230   2.551   1.357   0.338 -1.4091  3.1208  2.9436
  411SOL     OW 1231   2.719   0.147   1.263  0.0916 -0.3788  0.2027
  411SOL    HW1 1232   2.678   0.108   1.346  1.7486  2.5050 -0.5591
  411SOL    HW2 1233   2.711   0.250   1.262 -0.1746  3.1272  0.6038
  412SOL     OW 1234   2.050   0.378   1.526 -0.7382 -0.3043  0.6534
  412SOL    HW1 1235   1.951   0.407   1.541 -0.7558 -0.1604  0.2817
  412SOL    HW2 1236   2.072   0.343   1.432  0.6410 -0.5637 -0.8843
  413SOL     OW 1237   0.532   0.265   2.027  0.3422 -0.0738 -0.5800
  413SOL    HW1 1238   0.474   0.193   1.992  1.1323  3.7832  0.2285
  413SOL    HW2 1239   0.625   0.254   1.992 -0.2083  0.3050  1.7707
  414SOL     OW 1240   2.809   1.221   2.680 -0.2912  0.0132 -0.0357
  414SOL    HW1 1241   2.859   1.213   2.765 -0.1250  1.9109 -2.3958
  414SOL    HW2 1242   2.738   1.296   2.685 -1.5395  1.2236  0.0947
  415SOL     OW 1243   0.723   2.662   2.970  0.1544 -0.0324  0.5573
  415SOL    HW1 1244   0.817   2.645   2.934 -1.2156 -3.4316 -1.1582
  415SOL    HW2 1245   0.726   2.711   3.060 -1.4407  0.3534 -0.9787
  416SOL     OW 1246   1.606   0.283   2.623 -0.1902  0.4926  0.3652
  416SOL    HW1 1247   1.623   0.213   2.692 -0.6296 -0.7460 -1.3959
  416SOL    HW2 1248   1.667   0.359   2.629 -0.3490 -2.9199  0.4920
  417SOL     OW 1249   0.132   0.369   0.667 -0.5874 -0.2729 -0.4157
  417SOL    HW1 1250   0.216   0.422   0.635  3.3932  2.6002  0.1228
  417SOL    HW2 1251   0.110   0.400   0.761 -0.6956 -2.3081  0.4920
  418SOL     OW 1252   2.585   0.206   0.644  0.9093  0.2093 -0.0648
  418SOL    HW1 1253   2.539   0.132   0.698  1.8583 -3.6501 -0.4693
  418SOL    HW2 1254   2.556   0.305   0.671 -1.1547  0.6594  1.0777
  419SOL     OW 1255   0.047   2.860   0.555  0.9097  0.3497  0.1124
  419SOL    HW1 1256   0.101   2.852   0.640 -0.4248 -0.9927 -0.3491
  419SOL    HW2 1257   0.008   2.953   0.540 -0.8204 -1.7098  0.9990
  420SOL     OW 1258   0.359   1.365   1.823  0.5614  0.5521  0.1037
  420SOL    HW1 1259   0.421   1.437   1.784  0.2921  0.0132  0.3787
  420SOL    HW2 1260   0.385   1.339   1.915  0.1068  1.6843 -4.5137
  421SOL     OW 1261   1.699   2.472   1.119 -0.2909  0.0120  0.0500
  421SOL    HW1 1262   1.692   2.568   1.085  1.6159  0.6811  0.3100
  421SOL    HW2 1263   1.729   2.412   1.040 -0.6721 -0.1320  0.1850
  422SOL     OW 1264   0.593   0.346   1.528 -0.1218  0.3572  0.2006
  422SOL    HW1 1265   0.639   0.410   1.581 -1.8315 -1.2730 -4.1842
  422SOL    HW2 1266   0.492   0.346   1.543 -1.8168 -0.5575 -2.2486
  423SOL     OW 1267   0.807   1.340   1.825  0.4138 -0.1348  0.5465
  423SOL    HW1 1268   0.780   1.412   1.755  0.2318 -0.3854  0.4304
  423SOL    HW2 1269   0.893   1.292   1.804 -1.5947 -2.4052  0.1350
  424SOL     OW 1270   1.729   2.225   0.470  0.2420 -0.3909 -0.3119
  424SOL    HW1 1271   1.799   2.199   0.401  2.6997  0.9052 -3.4784
  424SOL    HW2 1272   1.634   2.238   0.436 -2.1238  1.2530  2.5961
  425SOL     OW 1273   2.773   2.937   1.922 -0.2351  0.1384  0.3454
  425SOL    HW1 1274   2.864   2.972   1.951  0.9818 -1.5516  1.4148
  425SOL    HW2 1275   2.774   2.874   1.845  0.3668 -0.6973 -1.0985
  426SOL     OW 1276   2.981   2.605   2.737 -0.1551  0.2563  0.4044
  426SOL    HW1 1277   3.075   2.614   2.769 -0.5341  0.6193 -1.5837
  426SOL    HW2 1278   2.916   2.559   2.802 -0.2880  0.0220  1.3272
  427SOL     OW 1279   1.287   0.566   0.005  0.0637 -0.5845  0.7004
  427SOL    HW1 1280   1.324   0.534   0.093  1.7001 -0.1913 -0.6401
  427SOL    HW2 1281   1.285   0.494   3.015  1.1182  0.8732 -2.1855
  428SOL     OW 1282   2.763   0.812   1.335 -0.1045 -0.1740  0.2959
  428SOL    HW1 1283   2.839   0.857   1.281  0.4995  1.0604 -1.9462
  428SOL    HW2 1284   2.775   0.713   1.338  0.6743  1.1193 -0.6582
  429SOL     OW 1285   1.885   3.053   1.039  0.4093  0.1226  0.2653
  429SOL    HW1 1286   1.858   3.008   1.128 -1.0121  2.3512 -0.2145
  429SOL    HW2 1287   1.943   2.989   0.983  3.8728  1.0981 -2.5352
  430SOL     OW 1288   1.049   1.542   2.349 -0.0204 -0.2500  0.3787
  430SOL    HW1 1289   1.049   1.522   2.449  0.1776 -1.4297 -2.6082
  430SOL    HW2 1290   1.003   1.473   2.288 -1.1618  1.4011 -2.2210
  431SOL     OW 1291   2.541   1.721   1.189  0.1190 -0.5136  0.3413
  431SOL    HW1 1292   2.475   1.772   1.244 -0.2728 -1.3567  0.4150
  431SOL    HW2 1293   2.621   1.782   1.170 -0.8517  0.0312 -3.6477
  432SOL     OW 1294   1.282   2.872   2.317  0.6951  0.3055  0.8943
  432SOL    HW1 1295   1.281   2.770   2.336  0.8357 -0.1370  0.1663
  432SOL    HW2 1296   1.376   2.914   2.322 -1.9212  0.1726 -1.3596
  433SOL     OW 1297   1.683   0.414   2.068 -0.3544 -0.3399  0.0343
  433SOL    HW1 1298   1.716   0.390   2.159  1.5843  3.2669  1.0120
  433SOL    HW2 1299   1.749   0.477   2.019  0.0933  3.0342 -0.6550
  434SOL     OW 1300   0.348   2.213   2.228  0.0494 -0.2750  0.0913
  434SOL    HW1 1301   0.305   2.274   2.294 -2.0966  1.0108  0.9239
  434SOL    HW2 1302   0.397   2.138   2.272 -1.2130  1.6572  0.2174
  435SOL     OW 1303   0.281   0.077   0.387  0.3877 -0.1701 -0.8855
  435SOL    HW1 1304   0.286   0.002   0.319  2.3919  0.2241 -1.1068
  435SOL    HW2 1305   0.223   0.053   0.469  1.2090 -0.4817  0.8681
  436SOL     OW 1306   0.564   0.779   2.116  0.3452  0.4344 -0.2948
  436SOL    HW1 1307   0.626   0.749   2.041  2.2107 -1.0502  0.3203
  436SOL    HW2 1308   0.475   0.722   2.109 -3.4263  0.0737 -1.7068
  437SOL     OW 1309   0.700   2.443   2.519 -0.0424 -0.3707 -0.4244
  437SOL    HW1 1310   0.674   2.439   2.423 -0.6725  3.1293  2.2988
  437SOL    HW2 1311   0.614   2.465   2.581 -3.7169 -0.6943  1.2599
  438SOL     OW 1312   1.041   1.093   1.014 -0.2482  0.5466  0.1371
  438SOL    HW1 1313   1.120   1.139   1.047 -4.0282  0.7516 -0.6716
  438SOL    HW2 1314   0.976   1.157   0.965 -1.3336  2.1326  0.7236
  439SOL     OW 1315   2.553   1.608   2.467 -0.0354 -0.3468  0.0272
  439SOL    HW1 1316   2.644   1.566   2.497  0.5904 -0.1454  0.6757
  439SOL    HW2 1317   2.491   1.621   2.549 -1.0980  0.0421  4.3208
  440SOL     OW 1318   0.059   0.580   2.782 -0.2665 -0.2341  0.2147
  440SOL    HW1 1319   0.009   0.653   2.737  3.4830 -0.1606 -0.9274
  440SOL    HW2 1320   0.002   0.513   2.834 -0.0161  2.3755  0.7861
  441SOL     OW 1321   0.880   2.223   1.494  0.1792 -0.1855  0.0000
  441SOL    HW1 1322   0.832   2.155   1.436 -0.4138  0.7274  1.1008
  441SOL    HW2 1323   0.916   2.170   1.572 -0.0673  1.6188  0.8686
  442SOL     OW 1324   1.672   1.552   0.865  0.6958  0.5847  0.1071
  442SOL    HW1 1325   1.682   1.510   0.959  0.9844  0.2568 -0.8106
  442SOL    HW2 1326   1.688   1.479   0.793 -2.0445 -1.0908 -1.1038
  443SOL     OW 1327   2.405   2.244   2.935 -0.0142 -0.4676  0.0523
  443SOL    HW1 1328   2.388   2.146   2.938  0.1226  2.3275 -1.0397
  443SOL    HW2 1329   2.312   2.291   2.940 -0.0577  2.1032  3.2679
  444SOL     OW 1330   1.955   1.558   2.927 -0.6541 -0.0738  0.5761
  444SOL    HW1 1331   1.946   1.599   2.834  1.4409 -2.2539 -1.4526
  444SOL    HW2 1332   2.002   1.621   2.993 -0.0885 -0.0653  0.5661
  445SOL     OW 1333   3.060   2.484   1.924 -0.1248  0.0534 -0.1609
  445SOL    HW1 1334   0.017   2.423   1.997 -4.3460  0.8807 -0.9416
  445SOL    HW2 1335   2.997   2.555   1.961  0.0777  0.7183 -1.6447
  446SOL     OW 1336   1.142   0.943   1.687  0.2542 -0.2003 -0.4016
  446SOL    HW1 1337   1.224   1.000   1.668  1.2096 -0.5514  1.3266
  446SOL    HW2 1338   1.174   0.851   1.715 -0.1264  1.7474 -1.9605
  447SOL     OW 1339   0.881   0.871   0.956  0.6499 -0.4039  0.3524
  447SOL    HW1 1340   0.932   0.792   0.920  2.4866 -0.0770 -0.9791
  447SOL    HW2 1341   0.939   0.952   0.950 -0.8575  1.2616 -0.1484
  448SOL     OW 1342   1.152   1.125   2.296  0.3785 -0.3171  0.2665
  448SOL    HW1 1343   1.081   1.128   2.363  0.1540 -1.6080 -0.8213
  448SOL    HW2 1344   1.206   1.211   2.303 -1.1533  1.3583 -0.3465
  449SOL     OW 1345   3.050   1.954   2.471  0.3842  0.4527  0.0121
  449SOL    HW1 1346   0.053   1.895   2.480 -0.4362 -1.2114  0.8690
  449SOL    HW2 1347   3.041   1.977   2.371  1.0842 -1.8367  2.2015
  450SOL     OW 1348   2.190   1.595   2.093 -0.3350  0.1711 -0.3879
  450SOL    HW1 1349   2.258   1.586   2.168  1.5967 -1.5957  0.0371
  450SOL    HW2 1350   2.209   1.680   2.041  1.6065 -1.0704 -3.3413
  451SOL     OW 1351   2.728   1.581   1.644 -0.2462  0.4579  0.1108
  451SOL    HW1 1352   2.716   1.670   1.684  0.3422 -1.8984 -1.1389
  451SOL    HW2 1353   2.753   1.596   1.543 -0.0404  0.4968 -3.4117
  452SOL     OW 1354   0.484   0.995   1.564 -0.3466 -0.2984  0.1963
  452SOL    HW1 1355   0.462   0.896   1.560  1.3073  3.6901  1.6937
  452SOL    HW2 1356   0.532   1.022   1.474  1.6152  0.2287 -1.8989
  453SOL     OW 1357   0.430   1.495   0.646  0.5281 -0.0271 -0.1747
  453SOL    HW1 1358   0.447   1.582   0.597  0.2128  0.8645 -0.5410
  453SOL    HW2 1359   0.335   1.464   0.630 -0.9734 -0.4313 -2.0525
  454SOL     OW 1360   1.022   1.867   0.265  0.3116  0.0731 -0.1445
  454SOL    HW1 1361   1.023   1.826   0.171  0.5487 -4.5588 -1.3968
  454SOL    HW2 1362   0.965   1.809   0.322  0.3817 -0.5268 -1.8650
  455SOL     OW 1363   1.643   0.481   1.183  0.7153 -0.4813  0.1458
  455SOL    HW1 1364   1.721   0.420   1.199  1.7393 -1.0261 -3.3404
  455SOL    HW2 1365   1.616   0.481   1.085 -2.7274  1.0753 -2.2724
  456SOL     OW 1366   1.739   2.701   0.971  0.1755 -0.2347  0.2783
  456SOL    HW1 1367   1.714   2.644   0.890  0.4558 -0.3892 -1.7568
  456SOL    HW2 1368   1.694   2.798   0.972 -2.6785  0.7195 -0.1537
  457SOL     OW 1369   2.061   0.493   2.588  0.1119 -0.2838 -0.0218
  457SOL    HW1 1370   2.130   0.554   2.632 -0.1160 -0.1729  2.1825
  457SOL    HW2 1371   2.094   0.446   2.502  1.7344 -0.7461 -1.0397
  458SOL     OW 1372   2.573   0.718   2.566 -0.4497  0.6896  0.1844
  458SOL    HW1 1373   2.617   0.805   2.593  2.2225  0.1798 -1.2673
  458SOL    HW2 1374   2.623   0.638   2.611 -1.0492  0.5873  1.7479
  459SOL     OW 1375   2.589   1.648   2.075  0.3439 -0.4732 -0.0684
  459SOL    HW1 1376   2.550   1.697   1.990  1.2555  2.9202 -1.2010
  459SOL    HW2 1377   2.577   1.708   2.156 -0.9102 -0.3809 -0.3931
  460SOL     OW 1378   0.652   0.595   3.055  0.2073  0.1538 -0.4014
  460SOL    HW1 1379   0.661   0.691   3.033 -3.4039 -2.2836 -0.0001
  460SOL    HW2 1380   0.741   0.549   3.030 -3.9851  2.8220  0.3171
  461SOL     OW 1381   0.152   2.285   3.020 -0.2392  0.1572 -0.0953
  461SOL    HW1 1382   0.221   2.326   0.005  1.7241 -1.5552  3.6849
  461SOL    HW2 1383   0.145   2.183   3.026 -0.0683 -0.9544 -0.1299
  462SOL     OW 1384   0.306   2.510   1.678 -1.0000 -0.2681 -0.0608
  462SOL    HW1 1385   0.208   2.528   1.699 -0.7532  1.8071  0.8044
  462SOL    HW2 1386   0.329   2.412   1.687 -1.5069 -0.6448 -0.7755
  463SOL     OW 1387   1.542   1.979   1.911 -0.2466  0.0365 -0.3970
  463SOL    HW1 1388   1.601   1.959   1.830 -2.4738  1.2267 -1.1891
  463SOL    HW2 1389   1.584   2.049   1.968 -1.4073  1.2298 -1.7958
  464SOL     OW 1390   2.616   2.732   0.896  0.2091 -0.2519  0.3068
  464SOL    HW1 1391   2.603   2.835   0.887  1.4817  1.2088 -0.5472
  464SOL    HW2 1392   2.713   2.705   0.906 -1.8137 -0.9000  1.3644
  465SOL     OW 1393   0.197   0.157   1.442 -0.4660  0.1442 -0.2267
  465SOL    HW1 1394   0.154   0.096   1.507 -1.4604 -0.2543 -1.2923
  465SOL    HW2 1395   0.236   0.238   1.487 -0.1997 -0.6665 -3.0301
  466SOL     OW 1396   1.279   2.378   2.325  0.1640 -0.4035 -0.2408
  466SOL    HW1 1397   1.325   2.458   2.363 -2.5187 -0.6756 -1.6954
  466SOL    HW2 1398   1.266   2.304   2.393 -0.9189  0.5301 -0.3023
  467SOL     OW 1399   2.868   1.901   0.592 -0.8330  0.2233  0.2021
  467SOL    HW1 1400   2.831   1.941   0.677 -0.6952  0.7163 -0.4298
  467SOL    HW2 1401   2.809   1.828   0.554 -1.2764  1.2963  0.1482
  468SOL     OW 1402   2.068   1.988   2.871 -0.4625 -0.2889 -0.0985
  468SOL    HW1 1403   1.991   2.024   2.814 -0.6493  1.2683  0.9532
  468SOL    HW2 1404   2.145   2.003   2.810 -1.1181  0.8905  1.2061
  469SOL     OW 1405   1.380   2.292   0.752  0.1769  0.3698 -0.3853
  469SOL    HW1 1406   1.400   2.334   0.662 -1.6503  1.3227  1.4283
  469SOL    HW2 1407   1.437   2.207   0.767  1.9165 -4.9023  0.1063
  470SOL     OW 1408   1.729   1.141   1.170  0.0403 -0.7542 -0.4467
  470SOL    HW1 1409   1.683   1.051   1.167 -0.7207  1.9085 -0.4500
  470SOL    HW2 1410   1.830   1.139   1.187  2.2133 -2.3742 -1.8558
  471SOL     OW 1411   0.446   2.101   0.144  0.2895  0.0060 -0.2780
  471SOL    HW1 1412   0.423   2.008   0.107  0.3921  0.3342 -0.8924
  471SOL    HW2 1413   0.377   2.138   0.209 -1.1381  1.2529  0.8921
  472SOL     OW 1414   2.450   1.896   2.664  0.5596  0.2360  0.2457
  472SOL    HW1 1415   2.540   1.937   2.695  0.6674  1.0038 -1.1341
  472SOL    HW2 1416   2.432   1.801   2.701 -1.7226 -1.1034  0.1480
  473SOL     OW 1417   1.261   2.089   0.886  0.1879 -0.1399 -0.0124
  473SOL    HW1 1418   1.233   2.158   0.816 -1.1760 -2.7410 -1.1197
  473SOL    HW2 1419   1.283   2.132   0.974 -2.7054  1.5347  2.9518
  474SOL     OW 1420   2.983   0.379   1.108  1.3197 -0.2511 -0.3582
  474SOL    HW1 1421   2.985   0.292   1.158  3.1754  0.9027 -1.7359
  474SOL    HW2 1422   2.912   0.379   1.042  0.4725 -2.2977  1.7853
  475SOL     OW 1423   2.350   2.859   1.508  0.0488  0.8822  0.1914
  475SOL    HW1 1424   2.345   2.897   1.601 -1.7515 -1.1288 -1.6841
  475SOL    HW2 1425   2.258   2.823   1.469 -1.1518  0.4234 -0.5883
  476SOL     OW 1426   0.361   0.488   0.599  0.4071 -0.5270 -0.3259
  476SOL    HW1 1427   0.358   0.415   0.526 -4.4461  2.6187  0.6228
  476SOL    HW2 1428   0.452   0.503   0.638 -0.3553  1.6618  2.6043
  477SOL     OW 1429   0.986   2.032   1.099  0.6314  0.5673  0.5371
  477SOL    HW1 1430   1.025   1.946   1.067 -1.8454  2.9965 -2.3928
  477SOL    HW2 1431   0.899   2.061   1.056  4.0386  0.4620  0.6490
  478SOL     OW 1432   1.251   2.243   2.800 -0.3932  0.1621  0.0745
  478SOL    HW1 1433   1.171   2.218   2.738 -1.1543 -0.6991 -0.5038
  478SOL    HW2 1434   1.302   2.327   2.763  0.9207 -0.9493 -2.6009
  479SOL     OW 1435   2.937   1.083   1.960  0.1209 -0.1408  1.1028
  479SOL    HW1 1436   2.897   1.175   1.949  0.8135 -2.3781  0.5176
  479SOL    HW2 1437   2.973   1.046   1.867 -0.3598 -1.0309 -1.6055
  480SOL     OW 1438   2.825   2.451   2.892 -0.1721 -0.3008 -0.2445
  480SOL    HW1 1439   2.745   2.434   2.949 -0.2510 -1.0802 -2.9906
  480SOL    HW2 1440   2.911   2.444   2.948  1.8028 -0.5515  0.7724
  481SOL     OW 1441   1.720   3.046   2.084  0.1045 -0.1277 -0.8391
  481SOL    HW1 1442   1.819   3.061   2.104 -2.4418 -1.1959 -1.2064
  481SOL    HW2 1443   1.673   0.047   2.065  0.3488  0.1373  2.6375
  482SOL     OW 1444   1.656   2.258   2.769  0.1275  0.4479 -0.2747
  482SOL    HW1 1445   1.689   2.295   2.861  2.2235  0.3846  3.6178
  482SOL    HW2 1446   1.722   2.211   2.711 -1.4523 -1.1847  0.1568
  483SOL     OW 1447   0.958   2.582   2.631  0.2099 -0.0219 -0.0456
  483SOL    HW1 1448   0.859   2.581   2.619  1.0078  0.1678 -0.6404
  483SOL    HW2 1449   1.003   2.513   2.572  3.0972 -1.5600 -0.8901
  484SOL     OW 1450   0.178   2.685   1.291 -0.5616  0.7813  0.0720
  484SOL    HW1 1451   0.231   2.720   1.373  0.2975  0.1201 -1.1185
  484SOL    HW2 1452   0.193   2.757   1.219  2.5955  0.5295 -1.2808
  485SOL     OW 1453   2.271   0.815   0.528  0.1023 -0.3467 -0.4118
  485SOL    HW1 1454   2.223   0.866   0.453  0.7585  0.3180 -0.8098
  485SOL    HW2 1455   2.296   0.883   0.603  1.2435  0.0570  0.8609
  486SOL     OW 1456   2.350   2.753   2.361 -0.2761 -0.1317 -0.1199
  486SOL    HW1 1457   2.351   2.854   2.331  2.5112  1.0441 -1.1824
  486SOL    HW2 1458   2.286   2.734   2.436  0.6309  1.2616 -0.0685
  487SOL     OW 1459   1.345   0.839   0.657  0.5076 -0.3026 -0.0764
  487SOL    HW1 1460   1.379   0.846   0.560  0.4950  3.0115 -2.1655
  487SOL    HW2 1461   1.259   0.897   0.670 -0.8308  0.7160 -0.6624
  488SOL     OW 1462   2.505   3.006   2.751  0.0433  0.5126  0.1779
  488SOL    HW1 1463   2.469   2.912   2.775  0.7503  1.4281 -0.1586
  488SOL    HW2 1464   2.523   3.051   2.839  0.6692 -0.5961  2.0696
  489SOL     OW 1465   1.847   3.083   0.405 -0.1697 -0.2262 -0.7322
  489SOL    HW1 1466   1.850   3.033   0.493  0.6140 -0.5219  1.3587
  489SOL    HW2 1467   1.920   3.051   0.345  1.2193  0.2729  3.0536
  490SOL     OW 1468   1.758   0.323   2.941 -0.8249  0.5811  0.2460
  490SOL    HW1 1469   1.744   0.385   3.014 -1.1755  0.8428 -0.5052
  490SOL    HW2 1470   1.782   0.369   2.856  0.7561 -2.4949  1.1530
  491SOL     OW 1471   0.569   0.138   1.155  0.1643  0.3673 -0.1980
  491SOL    HW1 1472   0.552   0.235   1.190 -1.8802 -0.2013 -0.1975
  491SOL    HW2 1473   0.593   0.134   1.053 -0.8767  0.5443  1.0953
  492SOL     OW 1474   1.643   3.060   0.648  0.3973  0.0689  0.0993
  492SOL    HW1 1475   1.738   3.069   0.684 -0.1010  0.5683 -4.8886
  492SOL    HW2 1476   1.633   2.969   0.599  1.8175  2.5693  0.6824
  493SOL     OW 1477   1.150   2.196   3.061  0.2230 -0.1139 -0.0820
  493SOL    HW1 1478   1.195   2.158   0.062  3.0315  1.5396  0.2609
  493SOL    HW2 1479   1.210   2.195   2.981  0.5457  0.1774  0.6129
  494SOL     OW 1480   0.622   0.954   1.016 -0.2329 -0.1246  0.1160
  494SOL    HW1 1481   0.564   0.875   0.985  3.4692  1.8422 -0.0283
  494SOL    HW2 1482   0.720   0.935   0.989  0.4490 -1.2433 -0.3605
  495SOL     OW 1483   2.790   0.611   1.518  0.0161 -0.3192  0.4234
  495SOL    HW1 1484   2.866   0.580   1.580 -2.3452  0.3942 -2.5607
  495SOL    HW2 1485   2.704   0.616   1.571 -0.1333 -1.1067  1.9858
  496SOL     OW 1486   2.333   2.503   2.270 -0.1752 -0.2156  0.3141
  496SOL    HW1 1487   2.344   2.605   2.288 -0.0202  0.4200  3.5702
  496SOL    HW2 1488   2.295   2.456   2.353  0.0144 -1.2225  0.7727
  497SOL     OW 1489   1.781   1.039   2.874  0.1625  0.3328 -0.0641
  497SOL    HW1 1490   1.846   1.088   2.811  2.2735  2.2642 -0.4523
  497SOL    HW2 1491   1.723   1.101   2.925  2.7745 -0.5296 -2.1428
  498SOL     OW 1492   0.838   2.149   0.652  0.5486 -0.0211 -0.3563
  498SOL    HW1 1493   0.925   2.102   0.651  1.2587 -0.3466 -4.2296
  498SOL    HW2 1494   0.762   2.083   0.634 -0.5194 -1.1461  2.4697
  499SOL     OW 1495   0.147   1.723   0.886  0.3597 -0.2403  0.6510
  499SOL    HW1 1496   0.104   1.777   0.808 -0.4629  1.8395  0.4222
  499SOL    HW2 1497   0.240   1.703   0.854  1.2144 -0.3343  2.6506
  500SOL     OW 1498   1.309   2.667   0.345  0.0856  0.6336 -0.5611
  500SOL    HW1 1499   1.258   2.735   0.288  0.1266 -2.9941 -0.9149
  500SOL    HW2 1500   1.353   2.717   0.422  1.0739  1.7090 -1.8327
  501SOL     OW 1501   1.936   2.896   0.598 -0.6620  0.0627 -0.0900
  501SOL    HW1 1502   1.995   2.811   0.584  2.1125 -1.6347 -0.6156
  501SOL    HW2 1503   1.837   2.869   0.614 -3.6383 -1.3370 -1.9770
  502SOL     OW 1504   0.304   0.545   1.254  0.2161 -0.5125  0.3150
  502SOL    HW1 1505   0.300   0.469   1.188 -0.5182 -1.0971  0.6997
  502SOL    HW2 1506   0.215   0.588   1.257  0.9339  0.7523 -2.0750
  503SOL     OW 1507   2.086   2.968   1.610 -0.6244 -0.2238 -0.3432
  503SOL    HW1 1508   2.059   3.042   1.676  0.2840  0.0391 -1.5455
  503SOL    HW2 1509   2.108   3.006   1.518 -1.1920 -2.0267  2.2422
  504SOL     OW 1510   2.014   1.073   1.800 -0.0186  0.1310 -0.3005
  504SOL    HW1 1511   2.068   0.985   1.807 -4.5287 -0.1156  1.2323
  504SOL    HW2 1512   1.914   1.048   1.814 -1.1821 -0.9205 -1.4596
  505SOL     OW 1513   1.558   2.944   2.366  0.2554  0.6463  0.2575
  505SOL    HW1 1514   1.574   3.042   2.351  1.1757 -0.9891 -2.5901
  505SOL    HW2 1515   1.601   2.889   2.291  1.7532  1.5140  0.1339
  506SOL     OW 1516   0.496   0.495   1.808 -0.0800 -0.3022  0.6929
  506SOL    HW1 1517   0.489   0.404   1.852  0.4084  1.2022  0.7007
  506SOL    HW2 1518   0.557   0.563   1.857  0.3418  2.9040 -1.2629
  507SOL     OW 1519   1.823   0.455   0.143  0.2641  0.4460  0.5657
  507SOL    HW1 1520   1.770   0.412   0.223 -0.4498 -1.4466  0.0498
  507SOL    HW2 1521   1.900   0.395   0.110  3.8051 -2.4687  1.5830
  508SOL     OW 1522   2.154   0.703   2.049  0.2795  0.0777 -0.2039
  508SOL    HW1 1523   2.119   0.791   2.092 -0.3185  1.6006  2.4219
  508SOL    HW2 1524   2.177   0.726   1.951  1.8358 -0.4966 -1.8507
  509SOL     OW 1525   0.750   1.628   2.573 -0.0741 -0.1008 -0.7682
  509SOL    HW1 1526   0.650   1.622   2.577  1.0108 -3.0377 -1.3198
  509SOL    HW2 1527   0.787   1.677   2.493 -2.6750 -0.3050 -0.5138
  510SOL     OW 1528   2.904   0.630   0.596 -0.4544 -0.2575  0.2664
  510SOL    HW1 1529   2.917   0.674   0.504 -0.3510  1.5475  0.2748
  510SOL    HW2 1530   2.979   0.648   0.670  1.3252  1.1642  1.4031
  511SOL     OW 1531   1.778   1.254   1.667  0.3245  0.2231  0.1985
  511SOL    HW1 1532   1.780   1.315   1.748 -1.4146 -0.8628  1.1809
  511SOL    HW2 1533   1.858   1.265   1.607 -1.9034 -0.4170  3.2197
  512SOL     OW 1534   0.502   1.699   0.480 -0.5835  0.5819  0.6710
  512SOL    HW1 1535   0.587   1.685   0.424  3.2867  0.5105 -1.8899
  512SOL    HW2 1536   0.491   1.797   0.512 -0.7071  2.6028  1.2189
  513SOL     OW 1537   0.522   2.415   0.923  0.1700 -0.5746 -0.0122
  513SOL    HW1 1538   0.540   2.513   0.920  0.0579 -1.1693  1.3178
  513SOL    HW2 1539   0.537   2.388   1.018  0.1638  0.8629 -1.6426
  514SOL     OW 1540   0.518   2.249   0.492 -0.2458 -0.0765  0.2651
  514SOL    HW1 1541   0.423   2.257   0.453  2.0667 -1.2512 -0.0724
  514SOL    HW2 1542   0.583   2.305   0.434 -2.0324 -1.7466 -0.8485
  515SOL     OW 1543   0.080   2.742   0.145 -0.1684  0.3187 -0.4526
  515SOL    HW1 1544   0.174   2.761   0.179 -0.6511 -0.8554 -0.9073
  515SOL    HW2 1545   0.039   2.810   0.082  2.1687 -3.4648  2.6751
  516SOL     OW 1546   1.970   0.226   1.154 -0.1708  0.3906  0.3874
  516SOL    HW1 1547   1.908   0.226   1.233  1.8796 -1.4157 -1.8277
  516SOL    HW2 1548   1.954   0.138   1.100 -0.5652 -0.0907 -0.3462
  517SOL     OW 1549   1.681   1.787   0.646 -0.4065 -0.3015  0.5577
  517SOL    HW1 1550   1.630   1.876   0.654  1.5650  2.3835  1.2583
  517SOL    HW2 1551   1.680   1.737   0.731 -3.2229  1.2018 -1.3716
  518SOL     OW 1552   1.434   3.066   0.866 -0.1123 -0.4700  0.1724
  518SOL    HW1 1553   1.345   3.022   0.840  0.4788  1.6335  1.0030
  518SOL    HW2 1554   1.494   3.084   0.785  0.7499  1.6466  2.4808
  519SOL     OW 1555   2.946   2.349   0.372 -0.6743  0.2417 -0.0731
  519SOL    HW1 1556   2.883   2.385   0.446  0.1727 -0.6475 -2.0011
  519SOL    HW2 1557   2.969   2.423   0.300  0.5938  1.0887 -1.6695
  520SOL     OW 1558   1.662   2.132   2.097  0.5837 -0.2644 -0.6965
  520SOL    HW1 1559   1.760   2.121   2.127  1.3116 -0.5340 -1.0087
  520SOL    HW2 1560   1.622   2.219   2.142 -0.2367  2.1650  0.6787
  521SOL     OW 1561   1.159   2.886   2.066 -0.6596  0.0463 -0.0388
  521SOL    HW1 1562   1.081   2.825   2.044 -0.9483  0.6925 -0.9727
  521SOL    HW2 1563   1.192   2.883   2.166 -1.9523 -0.3782 -0.1795
  522SOL     OW 1564   0.096   2.795   2.102 -0.3637 -0.9701  0.1623
  522SOL    HW1 1565   0.054   2.798   2.008  0.0139  1.2046 -0.4682
  522SOL    HW2 1566   0.117   2.702   2.137 -3.1670 -1.5418  1.1970
  523SOL     OW 1567   0.969   2.122   1.744 -0.6495  0.0766 -0.2603
  523SOL    HW1 1568   0.975   2.194   1.816  1.5681 -1.0481  0.8823
  523SOL    HW2 1569   1.031   2.043   1.763 -0.9686  0.0148 -0.3969
  524SOL     OW 1570   2.418   2.219   0.221  0.0640 -0.3514 -0.1332
  524SOL    HW1 1571   2.508   2.196   0.259 -2.7427  0.8783 -0.3312
  524SOL    HW2 1572   2.386   2.144   0.156  3.4708 -0.8051 -0.2317
  525SOL     OW 1573   2.918   0.425   2.908  0.3545  0.5201  0.3635
  525SOL    HW1 1574   2.871   0.434   3.000 -1.7548  1.3387  0.4113
  525SOL    HW2 1575   2.955   0.330   2.894  0.6806 -0.2711  2.0183
  526SOL     OW 1576   0.286   2.774   0.745  0.3749  0.1726  0.2500
  526SOL    HW1 1577   0.280   2.872   0.775  1.1298  1.4294 -1.4777
  526SOL    HW2 1578   0.286   2.761   0.648 -1.5055  0.6348  1.9766
  527SOL     OW 1579   2.972   1.312   0.616 -0.1037  0.2112 -0.1888
  527SOL    HW1 1580   3.053   1.262   0.591 -1.2534  4.2568  0.5899
  527SOL    HW2 1581   2.902   1.265   0.669 -1.1976  2.4692  0.3007
  528SOL     OW 1582   0.869   0.761   2.268 -0.0921  0.3441 -0.3423
  528SOL    HW1 1583   0.845   0.697   2.344 -0.7483  1.0719 -1.6956
  528SOL    HW2 1584   0.804   0.842   2.272 -0.5738  1.9208  0.0035
  529SOL     OW 1585   0.676   1.407   0.082  0.3650  0.1918 -0.6092
  529SOL    HW1 1586   0.672   1.502   0.123 -1.7711 -3.2143 -0.6362
  529SOL    HW2 1587   0.672   1.335   0.153  3.4634 -1.4490 -0.6932
  530SOL     OW 1588   1.175   0.994   2.059 -0.3961 -0.0511  0.1349
  530SOL    HW1 1589   1.273   0.995   2.036  0.0701  2.5925 -1.4803
  530SOL    HW2 1590   1.160   1.033   2.156  1.1566  0.9005  2.0370
  531SOL     OW 1591   1.106   2.465   0.003 -0.3501  0.0794  0.1547
  531SOL    HW1 1592   1.102   2.374   3.045  1.1822  4.6884 -0.2995
  531SOL    HW2 1593   1.106   2.459   0.104  1.8157 -2.4524  0.4720
  532SOL     OW 1594   2.380   1.328   2.639 -0.1649  0.2736 -1.4035
  532SOL    HW1 1595   2.482   1.335   2.650  0.3301 -0.6646 -2.0255
  532SOL    HW2 1596   2.332   1.288   2.722 -3.2858  0.5609  0.5485
  533SOL     OW 1597   3.042   0.083   1.827  0.2373  0.3982  0.4930
  533SOL    HW1 1598   3.017   0.016   1.901 -2.1847  3.6213 -1.7443
  533SOL    HW2 1599   2.970   0.145   1.802  1.3987 -0.8019 -1.5213
  534SOL     OW 1600   2.292   0.259   0.328  0.0328  0.0482 -0.2064
  534SOL    HW1 1601   2.333   0.274   0.236 -2.3075  1.4755 -2.3919
  534SOL    HW2 1602   2.304   0.345   0.389  0.0213  2.9739  0.6604
  535SOL     OW 1603   0.542   0.160   3.053 -0.2233 -0.3337  0.3415
  535SOL    HW1 1604   0.647   0.168   3.048  0.6031 -1.4181 -1.2834
  535SOL    HW2 1605   0.491   0.247   3.031 -0.7619 -0.5320 -0.4920
  536SOL     OW 1606   0.782   1.784   1.563 -0.9848  0.0707  0.5130
  536SOL    HW1 1607   0.755   1.866   1.617  3.0957  0.7836 -0.7264
  536SOL    HW2 1608   0.872   1.796   1.515 -1.0048  0.9601 -2.3586
  537SOL     OW 1609   3.082   2.508   1.641  0.5146 -0.2722 -0.3009
  537SOL    HW1 1610   3.056   2.601   1.611 -1.2184 -1.6874  1.5308
  537SOL    HW2 1611   0.002   2.508   1.744 -1.3802  0.4927 -0.0525
  538SOL     OW 1612   0.234   2.269   0.482  0.6753 -0.0315  0.0365
  538SOL    HW1 1613   0.248   2.257   0.582 -4.7105 -0.2717  0.0171
  538SOL    HW2 1614   0.194   2.186   0.433 -0.7589 -1.5490 -0.8641
  539SOL     OW 1615   2.372   1.135   2.432  0.3625  0.2473  0.4383
  539SOL    HW1 1616   2.358   1.217   2.489 -1.4979 -2.7197 -2.3302
  539SOL    HW2 1617   2.441   1.138   2.355  0.5132 -1.2716  0.1259
  540SOL     OW 1618   1.809   0.796   2.994 -0.0210  0.2224 -0.3246
  540SOL    HW1 1619   1.803   0.899   2.974 -0.6991  3.2622  1.0815
  540SOL    HW2 1620   1.819   0.787   0.009  0.5788  1.3455 -0.7049
  541SOL     OW 1621   0.792   0.565   2.438 -0.1015 -0.7085  0.1697
  541SOL    HW1 1622   0.817   0.467   2.414  0.5242  3.6148  1.0010
  541SOL    HW2 1623   0.699   0.582   2.415  1.0995 -0.0551 -3.3270
  542SOL     OW 1624   1.451   2.487   1.940 -0.0362 -0.5247  0.0588
  542SOL    HW1 1625   1.473   2.590   1.942  2.6018  4.0416  0.5769
  542SOL    HW2 1626   1.460   2.445   1.847 -0.3240 -5.1650 -1.8565
  543SOL     OW 1627   0.680   2.702   0.388 -0.1180 -0.6057  0.0059
  543SOL    HW1 1628   0.705   2.604   0.376  0.0318 -1.9199  0.3743
  543SOL    HW2 1629   0.632   2.706   0.478  0.7414  0.2699  1.4027
  544SOL     OW 1630   2.800   1.822   2.485  0.2154 -0.0481  0.0033
  544SOL    HW1 1631   2.729   1.893   2.484 -0.7069  0.6695  2.1989
  544SOL    HW2 1632   2.898   1.853   2.489  0.4262  0.0990 -1.5609
  545SOL     OW 1633   1.388   1.625   1.720  0.7023 -0.2988 -0.2504
  545SOL    HW1 1634   1.364   1.677   1.808 -0.2765 -1.9012  0.1532
  545SOL    HW2 1635   1.298   1.606   1.668 -0.1316  0.5375 -2.4931
  546SOL     OW 1636   0.208   0.203   2.579  0.3146  0.2324  0.0798
  546SOL    HW1 1637   0.253   0.211   2.489  0.2985  2.0210 -0.9795
  546SOL    HW2 1638   0.257   0.129   2.633  0.0306 -1.2027 -0.9067
  547SOL     OW 1639   1.121   0.166   0.675  0.2749  0.3103 -0.0977
  547SOL    HW1 1640   1.090   0.245   0.616  2.0766 -1.0336 -0.4101
  547SOL    HW2 1641   1.182   0.106   0.617 -1.9419  1.0637 -1.0874
  548SOL     OW 1642   1.480   2.095   2.948  0.3348  0.2275  0.1280
  548SOL    HW1 1643   1.532   2.103   3.037 -1.3714 -1.5410  1.4331
  548SOL    HW2 1644   1.508   2.166   2.882 -0.2762  0.2785 -0.0481
  549SOL     OW 1645   2.418   0.884   0.176 -0.5352 -0.6986 -0.6354
  549SOL    HW1 1646   2.393   0.985   0.159  0.6219 -0.0702 -2.4788
  549SOL    HW2 1647   2.476   0.876   0.259  1.9430  0.4271  2.6672
  550SOL     OW 1648   2.624   2.246   0.791  0.1235 -0.1134  0.3562
  550SOL    HW1 1649   2.550   2.297   0.738  1.6202 -1.0157 -2.0437
  550SOL    HW2 1650   2.708   2.309   0.800 -0.7849  1.7578 -1.6880
  551SOL     OW 1651   0.960   0.552   1.456  0.6947 -0.1303 -1.2669
  551SOL    HW1 1652   0.970   0.456   1.424  1.3626 -1.4179  1.0347
  551SOL    HW2 1653   0.904   0.554   1.541  1.9027  0.0562  1.0027
  552SOL     OW 1654   0.004   1.716   2.832 -0.3994  0.3087  0.0945
  552SOL    HW1 1655   0.002   1.655   2.752  0.1608  0.7463 -1.1740
  552SOL    HW2 1656   0.072   1.684   2.899  0.6468 -2.3354 -0.9433
  553SOL     OW 1657   2.560   2.631   0.623 -0.5414 -0.2030  0.0656
  553SOL    HW1 1658   2.509   2.673   0.547 -0.4023  0.6275  2.8476
  553SOL    HW2 1659   2.612   2.699   0.676 -5.1026 -0.4453  1.3854
  554SOL     OW 1660   1.998   1.154   1.282 -0.2550  0.1073 -0.1213
  554SOL    HW1 1661   2.099   1.126   1.280  0.5653  1.4397  1.4140
  554SOL    HW2 1662   1.982   1.217   1.363  1.8034 -0.6304 -0.8141
  555SOL     OW 1663   1.127   2.151   2.104 -0.3609 -0.3468  0.0728
  555SOL    HW1 1664   1.226   2.123   2.118 -1.0919  2.7178 -0.6161
  555SOL    HW2 1665   1.131   2.229   2.039 -1.0444  0.5024  0.5238
  556SOL     OW 1666   1.055   1.216   1.768  0.2477 -0.2834  0.0628
  556SOL    HW1 1667   1.126   1.241   1.836 -0.1446  0.8818 -2.0843
  556SOL    HW2 1668   1.051   1.119   1.755  0.8012  3.4377 -0.8290
  557SOL     OW 1669   1.330   0.001   1.480 -0.4408  0.0705  0.5465
  557SOL    HW1 1670   1.314   3.002   1.425 -0.3934 -0.1903  0.5752
  557SOL    HW2 1671   1.307   3.076   1.580  0.0904 -1.6628 -2.3970
  558SOL     OW 1672   0.826   2.952   2.223 -0.1629  0.7363 -0.2932
  558SOL    HW1 1673   0.748   2.948   2.161 -2.5532  2.2756  0.0528
  558SOL    HW2 1674   0.895   2.877   2.214 -0.9761  0.0182 -1.9161
  559SOL     OW 1675   1.779   2.667   0.336 -0.1057 -0.2781 -0.3111
  559SOL    HW1 1676   1.684   2.657   0.298  2.9168  2.5347  0.3348
  559SOL    HW2 1677   1.797   2.593   0.404 -1.7203 -1.4895  2.6388
  560SOL     OW 1678   1.509   2.263   0.236  0.3689  0.0586 -0.0159
  560SOL    HW1 1679   1.539   2.163   0.206  1.6074 -2.2191 -1.8490
  560SOL    HW2 1680   1.531   2.322   0.156  0.9201  0.6777 -0.3706
  561SOL     OW 1681   1.508   0.189   0.563  0.4167  0.0646 -0.1627
  561SOL    HW1 1682   1.561   0.101   0.574 -1.5122  0.1203  0.2942
  561SOL    HW2 1683   1.493   0.221   0.466  1.0228  3.0860 -0.4454
  562SOL     OW 1684   0.498   1.018   2.006 -0.3318  0.4449 -0.1977
  562SOL    HW1 1685   0.565   1.025   1.926  1.9763 -0.3333 -0.2056
  562SOL    HW2 1686   0.507   0.925   2.060  1.9915 -4.4554  0.9416
  563SOL     OW 1687   1.484   2.339   2.598 -0.3951 -0.3806 -0.8245
  563SOL    HW1 1688   1.428   2.269   2.554 -0.1698  0.4984  0.6816
  563SOL    HW2 1689   1.549   2.298   2.669 -0.3013  0.8020 -1.0309
  564SOL     OW 1690   2.917   0.834   0.961 -0.2910  0.3709  0.2962
  564SOL    HW1 1691   2.940   0.826   1.061  1.1718 -0.6076 -0.5373
  564SOL    HW2 1692   2.980   0.771   0.907  2.4435 -1.4648 -1.6691
  565SOL     OW 1693   0.859   1.011   0.105  0.0198  0.5719  0.6605
  565SOL    HW1 1694   0.839   1.107   0.135 -1.3282 -0.7269  0.4782
  565SOL    HW2 1695   0.959   1.002   0.093 -0.1127 -0.8407  2.0621
  566SOL     OW 1696   2.293   2.630   3.062  0.1964 -0.0664  0.0526
  566SOL    HW1 1697   2.334   2.607   0.067 -1.3080 -0.4092 -1.9763
  566SOL    HW2 1698   2.338   2.706   3.018 -0.8267 -3.0398 -0.0561
  567SOL     OW 1699   1.481   1.142   1.385 -0.4867  0.0014  0.0462
  567SOL    HW1 1700   1.568   1.187   1.360  1.9947 -0.3894  1.1856
  567SOL    HW2 1701   1.504   1.074   1.457 -0.6106  0.0776  0.1246
  568SOL     OW 1702   1.440   1.164   2.790 -0.5100 -0.1921  0.5097
  568SOL    HW1 1703   1.482   1.080   2.830  1.5303 -0.6243  0.5288
  568SOL    HW2 1704   1.439   1.158   2.687 -1.5203  0.4980 -2.7739
  569SOL     OW 1705   1.908   1.869   0.501 -0.0999 -0.5278  0.1703
  569SOL    HW1 1706   1.971   1.890   0.573 -2.3874 -0.0919 -1.7255
  569SOL    HW2 1707   1.826   1.824   0.544 -1.3793 -0.7532  0.9547
  570SOL     OW 1708   2.636   2.035   2.413 -0.7045 -0.1513  0.1284
  570SOL    HW1 1709   2.688   2.070   2.332  0.6468  1.5772  0.9530
  570SOL    HW2 1710   2.577   2.110   2.442 -1.0190 -1.2906 -1.9779
  571SOL     OW 1711   2.667   1.866   1.753  0.0117 -0.0809  0.2793
  571SOL    HW1 1712   2.645   1.908   1.661  1.6279 -1.9049  0.1015
  571SOL    HW2 1713   2.751   1.906   1.798  2.4171  2.0815  1.0495
  572SOL     OW 1714   1.542   2.657   0.197 -0.0595 -0.3448 -0.0337
  572SOL    HW1 1715   1.452   2.644   0.239  1.0495 -1.0058 -0.1986
  572SOL    HW2 1716   1.559   2.573   0.144  0.2238  2.8505  1.2374
  573SOL     OW 1717   1.513   1.770   0.925 -0.4549  0.2504 -0.7613
  573SOL    HW1 1718   1.581   1.844   0.920  1.7141 -1.4062  0.4585
  573SOL    HW2 1719   1.560   1.680   0.913  0.0244 -2.2415  0.1201
  574SOL     OW 1720   1.007   3.014   1.425  0.3290 -0.3431  0.1705
  574SOL    HW1 1721   1.047   3.082   1.489 -0.8443  1.8972 -0.5607
  574SOL    HW2 1722   0.918   2.988   1.454  3.1258  1.1084 -3.1645
  575SOL     OW 1723   0.895   0.727   1.235  0.4920  0.3622  0.1258
  575SOL    HW1 1724   0.973   0.787   1.206  2.3992  0.6075 -1.2143
  575SOL    HW2 1725   0.921   0.678   1.320  0.1196  1.2619 -1.8424
  576SOL     OW 1726   2.690   0.426   1.300  0.1257  0.3464  0.2743
  576SOL    HW1 1727   2.703   0.491   1.221 -3.1014  1.1565 -0.0608
  576SOL    HW2 1728   2.715   0.473   1.382 -3.6029  1.4982 -1.2291
  577SOL     OW 1729   2.288   0.660   2.624 -0.6454  0.3316 -0.1978
  577SOL    HW1 1730   2.284   0.715   2.713 -0.2106 -0.7841  1.3532
  577SOL    HW2 1731   2.370   0.687   2.570 -0.8120 -1.0165  2.1427
  578SOL     OW 1732   1.756   1.682   2.183  0.2838 -0.2071 -0.1348
  578SOL    HW1 1733   1.836   1.637   2.222 -2.4065 -1.9388 -2.0340
  578SOL    HW2 1734   1.774   1.742   2.103 -1.3874 -1.0430  0.6651
  579SOL     OW 1735   0.644   1.395   0.836 -0.2497  0.1191  0.3120
  579SOL    HW1 1736   0.604   1.442   0.756  1.9160 -0.9045  0.7317
  579SOL    HW2 1737   0.639   1.450   0.919 -2.6603 -0.3052 -2.6059
  580SOL     OW 1738   1.327   2.580   2.990 -0.2741  0.1173 -0.0947
  580SOL    HW1 1739   1.243   2.555   3.039  1.4435  0.3234  1.3693
  580SOL    HW2 1740   1.314   2.571   2.890  2.4266 -1.0685 -0.9831
  581SOL     OW 1741   0.907   0.551   2.101  0.5679  0.0354 -0.2448
  581SOL    HW1 1742   0.906   0.631   2.162 -1.6259 -0.2815  0.8579
  581SOL    HW2 1743   0.981   0.487   2.129 -0.4497 -0.0593 -1.8631
  582SOL     OW 1744   0.509   0.833   0.773  0.0015  0.0209  0.4106
  582SOL    HW1 1745   0.465   0.826   0.681 -0.7912 -2.2592 -1.6989
  582SOL    HW2 1746   0.568   0.914   0.781 -0.3231  0.2363 -0.4956
  583SOL     OW 1747   1.181   1.530   1.960  0.4235 -0.1286 -0.3000
  583SOL    HW1 1748   1.239   1.540   2.042  0.1673 -0.3808 -0.0950
  583SOL    HW2 1749   1.175   1.432   1.933 -0.3263  0.8374 -1.1272
  584SOL     OW 1750   2.274   2.923   0.353  0.5224  0.2771  0.0837
  584SOL    HW1 1751   2.347   2.900   0.291 -1.8097  2.0883  1.8490
  584SOL    HW2 1752   2.300   2.996   0.419 -0.0345 -1.0970  3.9435
  585SOL     OW 1753   2.061   0.691   3.007 -0.6814  0.3010 -0.3189
  585SOL    HW1 1754   1.961   0.705   2.984 -1.1902  0.8793  2.0905
  585SOL    HW2 1755   2.085   0.754   3.080 -0.6319  1.8680  0.2210
  586SOL     OW 1756   0.284   1.691   0.325 -0.1602  0.1904  0.0601
  586SOL    HW1 1757   0.229   1.683   0.409  1.4453 -0.1376  0.3661
  586SOL    HW2 1758   0.379   1.713   0.357  1.5556  1.0991 -0.4250
  587SOL     OW 1759   1.604   2.058   1.091  0.1333 -0.1595 -0.4257
  587SOL    HW1 1760   1.674   2.075   1.164 -1.6027  1.1335 -2.9386
  587SOL    HW2 1761   1.517   2.025   1.130  0.5876 -0.0229 -0.1857
  588SOL     OW 1762   0.580   0.585   0.862  0.4103 -0.2712  0.7538
  588SOL    HW1 1763   0.622   0.579   0.956 -0.7485 -0.1537  1.5213
  588SOL    HW2 1764   0.550   0.678   0.836  1.0123 -1.3994 -0.4923
  589SOL     OW 1765   1.167   0.259   0.926 -0.4645 -0.2603 -0.3013
  589SOL    HW1 1766   1.167   0.241   0.829  1.0402  3.9738  1.3427
  589SOL    HW2 1767   1.082   0.219   0.961 -2.4178  1.3399 -3.2160
  590SOL     OW 1768   1.455   0.816   0.380 -0.3256 -0.2481 -0.1189
  590SOL    HW1 1769   1.506   0.904   0.378 -1.7962 -0.9279  0.1431
  590SOL    HW2 1770   1.474   0.769   0.293  0.4433  0.9114  0.0337
  591SOL     OW 1771   2.250   2.263   1.974 -0.1371 -0.3948 -0.3227
  591SOL    HW1 1772   2.233   2.358   2.014  0.5364  0.1917  3.1931
  591SOL    HW2 1773   2.215   2.245   1.880 -2.1209  0.2626 -1.3555
  592SOL     OW 1774   1.407   1.832   1.164  1.0248  0.1033  0.0617
  592SOL    HW1 1775   1.454   1.803   1.250 -3.2884  3.2254 -1.0028
  592SOL    HW2 1776   1.454   1.797   1.082 -1.9603 -0.2531  1.2432
  593SOL     OW 1777   0.865   2.913   0.460  0.2322 -0.1638 -0.5722
  593SOL    HW1 1778   0.913   2.882   0.543  0.8039 -0.0871 -1.5187
  593SOL    HW2 1779   0.809   2.835   0.427  0.7391  2.4542 -0.5807
  594SOL     OW 1780   0.221   0.910   1.863  0.0465  0.2152  0.2062
  594SOL    HW1 1781   0.245   0.845   1.788 -1.9369 -2.1883  0.0912
  594SOL    HW2 1782   0.303   0.929   1.917 -1.7248 -2.2030  0.1228
  595SOL     OW 1783   2.889   2.678   0.833  0.0944  0.4940  0.0950
  595SOL    HW1 1784   2.879   2.756   0.767  0.4036 -1.7572 -0.1073
  595SOL    HW2 1785   2.969   2.685   0.891  0.0510  1.0451 -0.2431
  596SOL     OW 1786   2.987   0.542   1.703  0.0046 -0.4822  0.5238
  596SOL    HW1 1787   3.076   0.501   1.721 -4.4863  3.3779 -0.6307
  596SOL    HW2 1788   2.980   0.617   1.771  1.7244  0.5020 -1.7519
  597SOL     OW 1789   1.967   1.514   0.786 -0.2476  0.0018  0.3900
  597SOL    HW1 1790   1.973   1.611   0.824 -2.9605  0.3823 -2.4049
  597SOL    HW2 1791   1.886   1.501   0.728  0.4883  0.6602 -1.0933
  598SOL     OW 1792   0.658   2.914   2.037 -0.7164  0.1036  0.0169
  598SOL    HW1 1793   0.700   2.970   1.966  1.7108 -1.5617  0.3442
  598SOL    HW2 1794   0.559   2.889   2.014  1.3102  1.4148 -0.2883
  599SOL     OW 1795   2.625   1.709   0.028  0.2130  0.0659 -0.1789
  599SOL    HW1 1796   2.683   1.626   0.036 -0.9403  3.2688  1.0479
  599SOL    HW2 1797   2.537   1.693   3.061 -0.6676  2.0445 -2.7631
  600SOL     OW 1798   0.726   0.868   3.026  0.0529 -0.0213 -0.0611
  600SOL    HW1 1799   0.782   0.883   2.945 -2.9153  2.0769  0.7307
  600SOL    HW2 1800   0.775   0.906   0.024  0.0658 -1.1890  0.6088
  601SOL     OW 1801   1.312   1.229   3.054  0.2119 -0.0956  0.5188
  601SOL    HW1 1802   1.367   1.182   2.984  2.7892  0.0709  2.3883
  601SOL    HW2 1803   1.247   1.302   3.013 -2.9803  1.1811 -1.4711
  602SOL     OW 1804   1.380   2.784   1.114  0.6505  0.0496  0.4059
  602SOL    HW1 1805   1.472   2.814   1.121 -1.7481 -0.3478 -5.2055
  602SOL    HW2 1806   1.313   2.855   1.130 -1.3360  1.1305 -1.9593
  603SOL     OW 1807   1.086   3.008   2.440 -0.5759 -0.1917  0.4232
  603SOL    HW1 1808   1.046   2.947   2.510  1.6567 -0.9134  0.1789
  603SOL    HW2 1809   1.158   2.953   2.386 -1.5870  1.7479 -2.3895
  604SOL     OW 1810   2.944   0.100   2.318  0.3414  0.1483 -0.2756
  604SOL    HW1 1811   2.962   0.014   2.372  1.2669  0.2581 -0.6896
  604SOL    HW2 1812   3.000   0.178   2.338 -2.6083 -1.9526  0.1905
  605SOL     OW 1813   2.332   2.381   1.384  0.5964 -0.1562  0.2275
  605SOL    HW1 1814   2.330   2.277   1.391 -0.0334  0.0907 -2.7517
  605SOL    HW2 1815   2.295   2.428   1.469  1.4809  0.3676  0.4025
  606SOL     OW 1816   0.200   1.619   2.988 -0.1143  0.4165  0.0609
  606SOL    HW1 1817   0.150   1.562   3.057 -2.4103 -0.9266  0.1442
  606SOL    HW2 1818   0.257   1.691   3.036 -1.7884 -0.3034  2.1348
  607SOL     OW 1819   1.126   0.560   0.411  0.0777 -0.1871  0.1358
  607SOL    HW1 1820   1.192   0.544   0.334  0.6100 -0.2727 -1.5720
  607SOL    HW2 1821   1.044   0.612   0.381 -1.9300  0.7202  0.2560
  608SOL     OW 1822   1.712   1.361   2.544 -0.1458 -0.0381  0.1371
  608SOL    HW1 1823   1.620   1.319   2.543  0.6773 -1.3144  1.3283
  608SOL    HW2 1824   1.696   1.457   2.571 -0.7345  0.2164 -0.2055
  609SOL     OW 1825   2.806   0.495   0.861  0.1519  0.8013  0.1034
  609SOL    HW1 1826   2.864   0.501   0.777  0.3118  0.2500  0.1419
  609SOL    HW2 1827   2.723   0.441   0.847 -0.1383  5.3946  0.0959
  610SOL     OW 1828   0.438   2.375   2.889 -0.6214 -0.1970  0.7791
  610SOL    HW1 1829   0.518   2.313   2.911  3.1377  0.0323  0.5560
  610SOL    HW2 1830   0.392   2.410   2.971  0.9507 -0.1235  1.5253
  611SOL     OW 1831   1.803   1.421   0.333  0.2563 -0.5769 -0.0415
  611SOL    HW1 1832   1.872   1.498   0.324 -1.3479  2.4929  1.0852
  611SOL    HW2 1833   1.718   1.440   0.281  0.1813  1.5883  0.4516
  612SOL     OW 1834   1.019   2.434   2.395 -0.1084 -0.2273 -0.1329
  612SOL    HW1 1835   1.113   2.426   2.366 -3.3945  0.4062  0.9513
  612SOL    HW2 1836   0.955   2.380   2.339  0.9008  3.1037  0.3226
  613SOL     OW 1837   1.287   1.706   3.058 -0.6394  0.1699 -0.4371
  613SOL    HW1 1838   1.350   1.719   0.053  3.2967 -1.4229  2.5858
  613SOL    HW2 1839   1.300   1.770   2.981  0.2135 -1.6300  2.0046
  614SOL     OW 1840   2.666   2.500   1.873  0.9318  0.1361 -0.4069
  614SOL    HW1 1841   2.661   2.536   1.967 -0.1026 -0.9735 -2.8974
  614SOL    HW2 1842   2.681   2.399   1.868  0.5028 -1.4358 -0.0190
  615SOL     OW 1843   2.404   1.289   3.065 -0.0350 -0.5147  0.3256
  615SOL    HW1 1844   2.355   1.269   2.976 -1.9553 -0.2235 -2.0142
  615SOL    HW2 1845   2.500   1.261   3.056 -0.2274 -1.1061 -0.4412
  616SOL     OW 1846   1.590   0.290   0.814  0.3610  0.0234  0.1076
  616SOL    HW1 1847   1.509   0.314   0.870 -4.5217  1.5689 -0.1365
  616SOL    HW2 1848   1.570   0.265   0.718 -1.3445  0.7673 -0.6467
  617SOL     OW 1849   0.859   1.003   2.788 -0.5084 -0.0903 -0.4732
  617SOL    HW1 1850   0.818   0.981   2.695 -0.1112  0.0352  1.1840
  617SOL    HW2 1851   0.855   1.105   2.804 -0.0116  0.3865 -2.0546
  618SOL     OW 1852   0.711   0.648   1.924  0.1972  0.1387  0.1862
  618SOL    HW1 1853   0.760   0.729   1.890  0.8184  0.0733 -0.2641
  618SOL    HW2 1854   0.767   0.576   1.979 -1.2153 -1.0113 -1.5931
  619SOL     OW 1855   0.276   0.728   1.631  0.0524 -0.3410 -0.5335
  619SOL    HW1 1856   0.201   0.730   1.566  0.1935  0.0631  1.4022
  619SOL    HW2 1857   0.364   0.694   1.590  2.3929  0.6436 -2.4491
  620SOL     OW 1858   2.046   1.162   0.103  0.2458  0.7315 -0.2850
  620SOL    HW1 1859   1.957   1.124   0.124  2.2810  0.6871  2.6348
  620SOL    HW2 1860   2.046   1.209   0.014 -4.2266  1.2518  1.8417
  621SOL     OW 1861   2.577   2.911   1.218  0.1869  0.6277  0.4665
  621SOL    HW1 1862   2.598   2.946   1.312  0.7228  2.3201  1.1265
  621SOL    HW2 1863   2.487   2.950   1.189 -1.6456  0.3920 -1.1755
  622SOL     OW 1864   1.621   0.876   2.225 -0.5251  0.4635  0.0183
  622SOL    HW1 1865   1.720   0.871   2.204 -0.1811  2.1813  2.9772
  622SOL    HW2 1866   1.578   0.783   2.235  4.2287  0.2841  1.0472
  623SOL     OW 1867   1.022   0.483   2.595 -0.4415  0.1837 -0.2449
  623SOL    HW1 1868   0.934   0.458   2.546 -0.0378 -3.7376  0.8362
  623SOL    HW2 1869   1.001   0.535   2.678 -2.6423  0.5354 -0.8884
  624SOL     OW 1870   1.697   0.389   0.375  0.6027 -0.0202 -0.0415
  624SOL    HW1 1871   1.620   0.450   0.398 -0.2137  0.8095  0.4387
  624SOL    HW2 1872   1.771   0.416   0.442  0.0558 -1.6838  2.7017
  625SOL     OW 1873   0.869   1.229   0.862  0.0714  0.0972 -0.1451
  625SOL    HW1 1874   0.948   1.257   0.803  2.8585 -2.4317 -0.3991
  625SOL    HW2 1875   0.785   1.286   0.838 -1.9869 -1.0275 -1.2157
  626SOL     OW 1876   1.550   1.112   0.111  0.2728  0.7764  0.0923
  626SOL    HW1 1877   1.532   1.195   0.049  1.2478 -0.8030 -1.4978
  626SOL    HW2 1878   1.490   1.038   0.077  0.8889 -0.0419 -0.9756
  627SOL     OW 1879   0.992   3.007   1.717  0.0709 -0.0296  0.1880
  627SOL    HW1 1880   1.069   3.037   1.776  1.8175 -1.9837  0.9863
  627SOL    HW2 1881   0.900   3.028   1.760 -1.5254 -0.2166  0.2432
  628SOL     OW 1882   2.574   0.159   2.039 -0.0327 -0.0319  0.4086
  628SOL    HW1 1883   2.669   0.186   2.061  1.3567 -0.6538 -2.2605
  628SOL    HW2 1884   2.502   0.225   2.071  3.2105 -1.9138 -2.4423
  629SOL     OW 1885   0.779   1.269   2.781  0.3808  0.3975  0.0365
  629SOL    HW1 1886   0.832   1.338   2.839 -2.2877  1.5693  1.9603
  629SOL    HW2 1887   0.795   1.291   2.682  0.6131  2.4880  1.2974
  630SOL     OW 1888   1.235   0.264   2.237 -0.0675 -0.5435 -0.1156
  630SOL    HW1 1889   1.201   0.354   2.267 -2.3588  0.0722  2.3340
  630SOL    HW2 1890   1.239   0.201   2.319 -0.9461 -0.5994  0.8590
  631SOL     OW 1891   2.833   0.997   0.760 -0.2978  0.0128  0.1449
  631SOL    HW1 1892   2.814   1.091   0.802 -1.2473  2.0331 -1.6486
  631SOL    HW2 1893   2.849   0.928   0.834 -1.5679 -2.2900 -0.9870
  632SOL     OW 1894   2.530   1.149   0.804 -0.0401  0.5565  0.3593
  632SOL    HW1 1895   2.627   1.159   0.780 -1.2840 -2.0887 -0.8989
  632SOL    HW2 1896   2.487   1.223   0.856  1.0392  0.6925  1.4821
  633SOL     OW 1897   1.430   1.056   1.020  0.1819 -0.0326  0.0595
  633SOL    HW1 1898   1.487   1.132   0.980  2.0679 -0.6947  0.3391
  633SOL    HW2 1899   1.358   1.085   1.088 -1.9642 -0.4505  2.1740
  634SOL     OW 1900   1.843   0.137   0.799  0.5032  0.1877  0.3997
  634SOL    HW1 1901   1.791   0.217   0.830  0.8766  1.1778  0.5884
  634SOL    HW2 1902   1.844   0.068   0.869 -1.7712  2.5123 -0.9360
  635SOL     OW 1903   1.814   0.506   1.495 -0.0497 -0.3450  0.2374
  635SOL    HW1 1904   1.867   0.545   1.415 -0.1428 -0.0488  0.0090
  635SOL    HW2 1905   1.742   0.577   1.514  2.0189  3.5730 -1.0264
  636SOL     OW 1906   1.027   0.978   0.508  0.0664  0.4421  0.2447
  636SOL    HW1 1907   1.093   0.922   0.446  0.2495 -1.6305 -1.9728
  636SOL    HW2 1908   0.940   0.928   0.537 -1.6679 -1.6430 -2.0235
  637SOL     OW 1909   1.568   2.448   0.032 -0.3095  0.0858 -0.4304
  637SOL    HW1 1910   1.483   2.476   3.060 -0.6216 -1.2486 -0.0679
  637SOL    HW2 1911   1.654   2.431   3.059  2.9057 -1.7588 -1.1255
  638SOL     OW 1912   1.053   2.875   2.928 -0.0173 -0.0466  0.0405
  638SOL    HW1 1913   1.006   2.927   3.003  3.8346  2.2537 -2.7830
  638SOL    HW2 1914   1.052   2.775   2.953 -0.2766  1.1395  0.1036
  639SOL     OW 1915   0.775   2.029   1.322  0.0759 -0.1002 -0.1425
  639SOL    HW1 1916   0.855   2.019   1.261 -1.9508 -1.5966 -0.5415
  639SOL    HW2 1917   0.713   1.949   1.329 -0.9117 -1.5712  0.8047
  640SOL     OW 1918   0.310   2.825   0.258  0.0705 -0.0878 -0.2978
  640SOL    HW1 1919   0.303   2.798   0.359 -0.5048 -1.3020  1.1171
  640SOL    HW2 1920   0.380   2.895   0.244  2.2199 -0.4005  0.9914
  641SOL     OW 1921   0.111   0.238   0.150  0.2333  0.1974 -0.0109
  641SOL    HW1 1922   0.188   0.217   0.216 -1.7844 -1.1484 -2.1408
  641SOL    HW2 1923   0.140   0.314   0.084 -1.0504 -1.3358 -0.6164
  642SOL     OW 1924   0.198   1.569   1.088  0.0478  0.2588  0.0291
  642SOL    HW1 1925   0.191   1.638   1.008  0.6202  2.3156 -0.4716
  642SOL    HW2 1926   0.160   1.619   1.171  0.1933  2.3712 -1.4090
  643SOL     OW 1927   0.852   1.763   2.312 -1.2010  0.0871 -0.2038
  643SOL    HW1 1928   0.925   1.689   2.321  1.4637  1.1319 -0.9899
  643SOL    HW2 1929   0.892   1.858   2.310  0.2616  0.4602  1.1544
  644SOL     OW 1930   1.814   2.484   0.565  0.1898 -0.0944 -0.1773
  644SOL    HW1 1931   1.807   2.384   0.558 -1.9912  0.7723  0.3972
  644SOL    HW2 1932   1.747   2.506   0.639 -4.6258  0.9286  1.3019
  645SOL     OW 1933   1.778   2.240   1.455  0.2740 -0.4933  0.8130
  645SOL    HW1 1934   1.765   2.210   1.551 -0.6443  2.9185 -0.5056
  645SOL    HW2 1935   1.797   2.174   1.386  1.5702  3.3300  1.8819
  646SOL     OW 1936   1.193   2.886   0.230  0.2132  0.5291 -0.1267
  646SOL    HW1 1937   1.162   2.978   0.258 -0.0219  0.8456 -0.0380
  646SOL    HW2 1938   1.165   2.869   0.130  2.8613  2.4096 -0.9549
  647SOL     OW 1939   0.409   2.858   1.944 -0.0501  0.2083  0.1132
  647SOL    HW1 1940   0.427   2.757   1.939  0.6058 -3.7355 -1.4586
  647SOL    HW2 1941   0.345   2.873   1.869  3.5328 -1.0456  0.3142
  648SOL     OW 1942   2.563   1.065   0.509  0.4094 -0.2158  0.0088
  648SOL    HW1 1943   2.463   1.090   0.498 -2.7880  1.7713 -0.4574
  648SOL    HW2 1944   2.586   1.039   0.606 -0.3477  1.1017  1.6223
  649SOL     OW 1945   1.758   2.642   2.685  0.1535 -0.6456 -0.2894
  649SOL    HW1 1946   1.707   2.623   2.769 -2.0876  0.2701  2.9842
  649SOL    HW2 1947   1.735   2.739   2.656 -0.1017  1.5520  2.6655
  650SOL     OW 1948   2.444   1.435   1.979  0.2659  0.2403 -0.5827
  650SOL    HW1 1949   2.494   1.520   2.014  0.8639  1.2858 -2.1293
  650SOL    HW2 1950   2.429   1.368   2.057 -0.0342 -2.9316  2.5163
  651SOL     OW 1951   1.494   1.631   2.828 -0.0832  0.2802  0.0401
  651SOL    HW1 1952   1.549   1.632   2.912  3.0216 -0.5494 -0.9866
  651SOL    HW2 1953   1.443   1.714   2.815  1.4982 -1.6470 -2.3758
  652SOL     OW 1954   0.674   3.053   2.654 -0.5529 -0.6189 -0.1416
  652SOL    HW1 1955   0.650   2.970   2.709  0.4354  2.4291 -2.3241
  652SOL    HW2 1956   0.621   0.053   2.671  2.5342 -1.1690 -3.4400
  653SOL     OW 1957   2.096   2.288   0.973 -0.4299  0.0476  0.2779
  653SOL    HW1 1958   2.068   2.193   0.995 -1.0570 -1.0476  0.0077
  653SOL    HW2 1959   2.115   2.345   1.059  1.4383 -1.2077 -1.8224
  654SOL     OW 1960   2.670   2.844   2.159 -0.1916  0.0687 -0.1150
  654SOL    HW1 1961   2.648   2.930   2.208 -1.9209  0.5232  1.2977
  654SOL    HW2 1962   2.714   2.876   2.073  0.4163 -0.1664  1.8358
  655SOL     OW 1963   2.647   2.179   1.279  0.2423 -0.0396 -0.1231
  655SOL    HW1 1964   2.593   2.232   1.210  1.4338 -2.0880 -0.6099
  655SOL    HW2 1965   2.615   2.209   1.372 -2.1872  1.5752  1.0791
  656SOL     OW 1966   2.971   1.936   2.751  0.7730  0.2574 -0.0592
  656SOL    HW1 1967   3.012   1.967   2.661  0.6439 -1.4313 -0.1366
  656SOL    HW2 1968   3.014   1.847   2.775  0.2978  1.8201 -1.0692
  657SOL     OW 1969   2.961   0.752   0.373  0.5405  0.2734  0.1357
  657SOL    HW1 1970   2.919   0.828   0.324  0.8750 -0.1252  1.7223
  657SOL    HW2 1971   3.052   0.727   0.338  0.3186  0.7511  1.6164
  658SOL     OW 1972   1.457   1.475   1.214  0.2398 -0.3115  0.2043
  658SOL    HW1 1973   1.439   1.408   1.290  0.4120 -1.4236  0.0552
  658SOL    HW2 1974   1.474   1.567   1.254  0.4134  0.2588  1.5243
  659SOL     OW 1975   0.960   0.304   1.317 -0.0786  0.4854 -0.1664
  659SOL    HW1 1976   1.060   0.289   1.327 -1.9709  0.2687  2.6574
  659SOL    HW2 1977   0.914   0.244   1.383  0.8194  0.7013  0.2700
  660SOL     OW 1978   2.004   1.281   0.986 -0.3811  0.2295  0.0324
  660SOL    HW1 1979   1.983   1.360   0.923  0.7515 -2.1098 -2.5077
  660SOL    HW2 1980   2.074   1.310   1.053 -0.3957  0.2298  0.2848
  661SOL     OW 1981   0.292   1.434   0.248  0.7650  0.5339  0.1652
  661SOL    HW1 1982   0.295   1.528   0.285  1.0589 -1.4787 -0.0461
  661SOL    HW2 1983   0.253   1.432   0.154 -1.1775 -0.8575 -0.2469
  662SOL     OW 1984   2.734   0.586   1.972  0.3755  0.1639 -0.4988
  662SOL    HW1 1985   2.718   0.550   2.065 -1.6645 -0.9055  3.0494
  662SOL    HW2 1986   2.828   0.622   1.957 -2.2504 -1.3394 -3.1161
  663SOL     OW 1987   2.182   1.525   1.323 -0.2011  0.0646 -0.3713
  663SOL    HW1 1988   2.217   1.605   1.274  0.1153  2.7187  1.4032
  663SOL    HW2 1989   2.251   1.494   1.391 -1.1941  0.5431  0.9187
  664SOL     OW 1990   0.461   0.052   1.414  0.0261 -0.3066 -0.2175
  664SOL    HW1 1991   0.365   0.074   1.438  1.6490  0.1178 -0.5908
  664SOL    HW2 1992   0.484   0.084   1.318  0.0371  1.8453  2.6545
  665SOL     OW 1993   1.525   0.176   2.962  0.3057  0.8362 -0.2534
  665SOL    HW1 1994   1.604   0.238   2.959 -3.9961  1.2499  1.9217
  665SOL    HW2 1995   1.525   0.127   3.048  0.2745  3.0586 -1.9854
  666SOL     OW 1996   0.381   0.068   1.930 -0.6268 -0.8198  0.7159
  666SOL    HW1 1997   0.443   0.075   1.852  3.3886 -0.0292  2.5286
  666SOL    HW2 1998   0.378   3.061   1.968  1.3154  1.7945  1.6438
  667SOL     OW 1999   1.795   1.420   1.866  0.1073 -0.0441 -0.4617
  667SOL    HW1 2000   1.891   1.438   1.903  2.9138 -1.2917  0.6865
  667SOL    HW2 2001   1.742   1.508   1.853 -0.6160  1.0339  0.8950
  668SOL     OW 2002   0.060   1.562   2.605  0.4371  0.1685  0.2749
  668SOL    HW1 2003   0.119   1.480   2.593 -0.5407 -1.5184 -0.2083
  668SOL    HW2 2004   3.074   1.561   2.530 -0.7598 -0.4095  1.1188
  669SOL     OW 2005   2.165   0.070   2.413 -0.3739 -0.0778  0.0379
  669SOL    HW1 2006   2.223   0.013   2.354 -0.3142 -0.7941  1.9774
  669SOL    HW2 2007   2.214   0.094   2.500  1.3337 -0.2938 -1.1396
  670SOL     OW 2008   2.586   1.147   2.253 -0.3564 -0.3692 -0.0099
  670SOL    HW1 2009   2.642   1.089   2.191 -0.2898  0.6655 -0.5363
  670SOL    HW2 2010   2.599   1.247   2.243  1.2988  2.0560  2.9947
  671SOL     OW 2011   2.561   1.837   0.284 -0.0278 -0.2581 -0.5326
  671SOL    HW1 2012   2.564   1.808   0.185  1.6383 -0.2187  0.9343
  671SOL    HW2 2013   2.469   1.834   0.333  1.4945 -1.5034  0.5326
  672SOL     OW 2014   1.539   1.275   2.024  0.0787 -0.2984 -0.2598
  672SOL    HW1 2015   1.629   1.258   2.062 -4.6715 -0.0211 -0.2214
  672SOL    HW2 2016   1.490   1.189   2.020  0.3220  0.5091  1.9064
  673SOL     OW 2017   3.006   1.866   1.447 -0.2052  0.2928  0.1790
  673SOL    HW1 2018   2.988   1.958   1.399 -0.4407  0.6477 -0.1215
  673SOL    HW2 2019   3.050   1.881   1.538  0.6463  0.8634  0.2557
  674SOL     OW 2020   1.016   1.658   1.785  0.6884 -0.3354 -0.1345
  674SOL    HW1 2021   1.073   1.604   1.856  0.4064 -2.1721  0.1785
  674SOL    HW2 2022   0.924   1.609   1.773 -2.5509  1.2442 -0.3501
  675SOL     OW 2023   3.083   0.659   0.800 -0.5805 -0.2341  0.3252
  675SOL    HW1 2024   0.062   0.742   0.795 -0.1205  0.9860 -1.0786
  675SOL    HW2 2025   0.040   0.590   0.862  1.9848 -0.0330  0.4284
  676SOL     OW 2026   3.054   1.265   0.980 -0.1612 -0.8939 -0.0946
  676SOL    HW1 2027   0.051   1.326   0.990  1.1008  0.4746 -1.6229
  676SOL    HW2 2028   3.050   1.196   1.062  0.4084 -0.7402 -0.0980
  677SOL     OW 2029   1.688   1.791   2.425 -0.6596 -0.6676 -0.0745
  677SOL    HW1 2030   1.703   1.769   2.329  0.0146  0.6866  0.5616
  677SOL    HW2 2031   1.716   1.716   2.485  1.2101  2.9036 -3.2443
  678SOL     OW 2032   2.633   1.470   0.882  0.1259  0.1581  0.3192
  678SOL    HW1 2033   2.660   1.563   0.859 -0.1044  1.3689  0.5263
  678SOL    HW2 2034   2.543   1.464   0.926  3.3171 -0.6413 -0.0912
  679SOL     OW 2035   0.582   2.657   0.631 -0.1610  0.4614  0.1538
  679SOL    HW1 2036   0.624   2.563   0.654  0.7663  0.5090 -0.3063
  679SOL    HW2 2037   0.610   2.736   0.688  1.2008  0.9852 -0.3284
  680SOL     OW 2038   0.149   1.758   1.269 -0.1711  0.0751  0.1021
  680SOL    HW1 2039   0.159   1.836   1.204  0.4071  2.3981 -1.2133
  680SOL    HW2 2040   0.075   1.765   1.339 -0.9750 -0.6208  1.4283
  681SOL     OW 2041   1.060   0.469   1.094 -0.5616 -0.1481  0.0359
  681SOL    HW1 2042   1.031   0.433   1.179  2.1900  0.4547 -1.4169
  681SOL    HW2 2043   1.104   0.405   1.030 -0.2119 -3.6168 -3.9228
  682SOL     OW 2044   1.642   2.649   1.637  0.2015 -0.1269  1.0091
  682SOL    HW1 2045   1.572   2.723   1.643  1.6481 -1.8214  2.7303
  682SOL    HW2 2046   1.683   2.622   1.727  2.8328  0.8813 -0.6558
  683SOL     OW 2047   2.396   1.446   1.488  0.0080  0.6828 -0.0850
  683SOL    HW1 2048   2.420   1.399   1.576 -1.5486  1.1701  0.6559
  683SOL    HW2 2049   2.473   1.444   1.422 -0.3868  1.7573 -0.7667
  684SOL     OW 2050   0.172   1.675   1.722 -0.3940 -0.1652 -0.1782
  684SOL    HW1 2051   0.154   1.575   1.716 -1.1135 -0.9240 -1.6557
  684SOL    HW2 2052   0.253   1.693   1.783  0.8001  0.9193  1.5518
  685SOL     OW 2053   1.996   1.990   0.256 -0.0989 -0.1926  0.3090
  685SOL    HW1 2054   2.015   2.088   0.281 -0.0329  1.1312 -1.5891
  685SOL    HW2 2055   1.942   1.946   0.329 -1.6660  0.4272 -0.9514
  686SOL     OW 2056   3.002   0.829   1.212 -0.5862 -0.1365 -0.1383
  686SOL    HW1 2057   3.067   0.912   1.199  1.3227  0.1050 -3.2885
  686SOL    HW2 2058   3.049   0.752   1.263  3.2423  2.8455  1.0245
  687SOL     OW 2059   1.828   0.239   2.310 -0.3519  0.2170  0.4492
  687SOL    HW1 2060   1.885   0.237   2.391 -1.5495 -0.2821 -2.6000
  687SOL    HW2 2061   1.734   0.209   2.334 -2.2220 -1.4918 -0.8974
  688SOL     OW 2062   1.311   2.145   2.470 -0.5629 -0.6978  0.3593
  688SOL    HW1 2063   1.375   2.066   2.461  1.3730 -0.2020  1.0447
  688SOL    HW2 2064   1.219   2.121   2.512 -1.0644  0.0965 -0.1058
  689SOL     OW 2065   2.136   1.293   1.715 -0.0071  0.6480  0.5756
  689SOL    HW1 2066   2.237   1.264   1.727 -2.8184 -1.2861 -1.2616
  689SOL    HW2 2067   2.073   1.215   1.740  1.9316  0.0676 -0.7108
  690SOL     OW 2068   1.866   1.638   1.540 -0.3716  0.7182  0.6235
  690SOL    HW1 2069   1.782   1.610   1.587 -0.1660 -1.5093  1.3043
  690SOL    HW2 2070   1.866   1.611   1.442  1.0252  0.0658  0.0260
  691SOL     OW 2071   0.100   1.639   0.534 -0.3405  0.0229 -0.5896
  691SOL    HW1 2072   0.080   1.721   0.588 -2.8370 -0.8023 -0.0416
  691SOL    HW2 2073   0.106   1.557   0.597 -1.7723  1.4528 -0.6413
  692SOL     OW 2074   2.592   2.667   2.542 -0.0081 -0.3347 -0.1177
  692SOL    HW1 2075   2.514   2.702   2.491  0.5786 -2.1523  0.1538
  692SOL    HW2 2076   2.640   2.606   2.477 -1.4867  1.2772  2.0408
  693SOL     OW 2077   2.839   1.422   2.410 -0.0535  0.2537 -0.5441
  693SOL    HW1 2078   2.807   1.471   2.493 -2.9579 -0.4265  1.5526
  693SOL    HW2 2079   2.936   1.444   2.393 -6.7914  0.6044  1.2347
  694SOL     OW 2080   2.327   0.209   1.786  0.1689 -0.3887  0.0862
  694SOL    HW1 2081   2.372   0.298   1.791  2.5766  0.4259 -1.4188
  694SOL    HW2 2082   2.352   0.158   1.705 -0.0396 -1.6564 -0.9144
  695SOL     OW 2083   1.158   0.748   2.282  0.4391 -0.6058  0.2452
  695SOL    HW1 2084   1.064   0.767   2.247  0.4741 -0.2522  0.4130
  695SOL    HW2 2085   1.183   0.823   2.349  0.1161 -0.2117  1.0366
  696SOL     OW 2086   1.748   0.049   1.675  0.4461  0.2744 -0.2312
  696SOL    HW1 2087   1.846   0.086   1.667  2.8464  0.9854 -1.3072
  696SOL    HW2 2088   1.737   3.042   1.723  0.9000 -1.7467 -0.9021
  697SOL     OW 2089   1.602   0.166   1.995  0.5536  0.3957  0.0412
  697SOL    HW1 2090   1.651   0.252   2.027 -0.8275 -0.7014 -1.6057
  697SOL    HW2 2091   1.612   0.169   1.893  1.1767  3.6130 -2.0871
  698SOL     OW 2092   2.072   1.807   2.558 -0.1666  0.6134 -0.6465
  698SOL    HW1 2093   2.101   1.889   2.613 -0.9195 -4.1304  0.3636
  698SOL    HW2 2094   2.058   1.823   2.461  1.2532 -0.3000  4.5092
  699SOL     OW 2095   2.147   0.826   0.145  0.3496  0.6174 -0.1111
  699SOL    HW1 2096   2.089   0.885   0.210  2.5511  1.1545 -1.0560
  699SOL    HW2 2097   2.250   0.850   0.154 -0.5669  1.1358 -0.9001
  700SOL     OW 2098   1.279   0.039   0.502 -0.0503  0.3246 -0.4932
  700SOL    HW1 2099   1.357   0.103   0.517  0.0094  1.9918 -0.3290
  700SOL    HW2 2100   1.269   0.036   0.403  1.9952  1.6566  0.1315
  701SOL     OW 2101   0.166   0.873   0.740 -0.1647 -0.7622 -0.0177
  701SOL    HW1 2102   0.246   0.852   0.674  3.2816  3.2894 -1.6500
  701SOL    HW2 2103   0.083   0.903   0.685 -1.7900 -0.8945 -0.2881
  702SOL     OW 2104   2.034   0.127   1.714 -0.5246  0.4121 -0.4872
  702SOL    HW1 2105   2.081   0.106   1.805 -2.0775 -0.0342 -1.7523
  702SOL    HW2 2106   2.069   0.214   1.673  0.0353 -0.5656  1.2311
  703SOL     OW 2107   2.801   1.124   1.135 -0.3639 -0.1506 -0.8166
  703SOL    HW1 2108   2.832   1.124   1.037  1.9215 -1.3863  1.1331
  703SOL    HW2 2109   2.707   1.089   1.141 -0.5082  0.8397 -0.5176
  704SOL     OW 2110   0.740   2.551   1.283 -0.0987  0.3735  0.1336
  704SOL    HW1 2111   0.787   2.554   1.192 -1.7729  1.0580  1.1268
  704SOL    HW2 2112   0.799   2.544   1.367 -1.7684  0.9619  1.1064
  705SOL     OW 2113   0.254   1.361   2.640  0.0060  0.7798 -0.0745
  705SOL    HW1 2114   0.326   1.362   2.570 -0.5603  2.5722  0.5198
  705SOL    HW2 2115   0.283   1.410   2.723  0.8507 -0.2926 -2.8125
  706SOL     OW 2116   2.963   2.977   0.118 -0.1507  0.1772 -0.1757
  706SOL    HW1 2117   2.863   2.970   0.114  2.0771  0.7360  3.7865
  706SOL    HW2 2118   2.997   2.930   0.200 -1.7630  2.4826  1.0542
  707SOL     OW 2119   1.600   2.809   2.146 -0.0804 -0.1732  0.2522
  707SOL    HW1 2120   1.628   2.896   2.098 -1.9763 -0.9493  0.3408
  707SOL    HW2 2121   1.524   2.768   2.096  0.8857  0.7128 -0.8084
  708SOL     OW 2122   0.346   2.719   1.516  0.3719  0.2668  0.3112
  708SOL    HW1 2123   0.432   2.718   1.459  1.9899 -1.0434 -0.8559
  708SOL    HW2 2124   0.348   2.639   1.576  0.7905  0.0444 -1.3185
  709SOL     OW 2125   2.988   0.702   1.925 -0.3652 -0.0035  0.0900
  709SOL    HW1 2126   2.991   0.802   1.912  0.2495 -0.2325  2.1485
  709SOL    HW2 2127   3.052   0.668   1.997 -0.8309  4.8500 -1.7405
  710SOL     OW 2128   0.258   0.993   1.007  0.6715  0.8256 -0.2695
  710SOL    HW1 2129   0.318   1.072   0.991 -1.6446 -0.0364  1.0990
  710SOL    HW2 2130   0.244   0.951   0.919  2.2559 -1.0647  1.6329
  711SOL     OW 2131   2.759   2.679   1.197 -0.1858 -0.3215  0.1768
  711SOL    HW1 2132   2.710   2.590   1.189 -0.9574  3.1127 -2.7470
  711SOL    HW2 2133   2.691   2.755   1.214 -3.5657  0.7101  2.2330
  712SOL     OW 2134   0.102   2.924   2.651 -0.0327 -0.0852  0.1779
  712SOL    HW1 2135   0.084   2.908   2.748  4.2877  1.2629  0.8036
  712SOL    HW2 2136   0.185   2.984   2.644 -1.1216 -0.6379 -1.5834
  713SOL     OW 2137   2.414   0.462   0.671  0.5912 -0.2359 -0.3967
  713SOL    HW1 2138   2.329   0.420   0.712 -2.2140  0.4904  1.2119
  713SOL    HW2 2139   2.392   0.499   0.581 -0.6467 -2.2627  0.9892
  714SOL     OW 2140   1.684   1.880   2.889 -0.2803  0.0493  0.1294
  714SOL    HW1 2141   1.588   1.915   2.889 -2.3697 -3.0994 -0.1117
  714SOL    HW2 2142   1.722   1.873   2.981 -0.0276  0.2777 -0.2593
  715SOL     OW 2143   0.085   0.432   0.930  0.1661 -0.0267  0.1072
  715SOL    HW1 2144   0.175   0.435   0.973  1.7401 -1.1591 -0.9756
  715SOL    HW2 2145   0.019   0.400   1.006  0.5400  0.7355 -0.1373
  716SOL     OW 2146   0.800   0.514   1.665 -0.1184  0.7366 -0.2345
  716SOL    HW1 2147   0.850   0.437   1.709  2.0229 -2.1361 -0.7531
  716SOL    HW2 2148   0.740   0.569   1.725  0.4623  2.7253  0.2070
  717SOL     OW 2149   0.818   0.278   2.758  0.2566 -0.1097 -0.2474
  717SOL    HW1 2150   0.859   0.231   2.679  2.1308 -1.6336  1.1237
  717SOL    HW2 2151   0.712   0.274   2.756 -1.6137  1.1256 -2.6257
  718SOL     OW 2152   1.356   0.428   0.242 -0.2986  0.1641  0.1455
  718SOL    HW1 2153   1.404   0.463   0.327 -0.0978 -0.1249  0.5857
  718SOL    HW2 2154   1.341   0.328   0.245 -1.7509  1.7287 -1.1362
  719SOL     OW 2155   2.809   2.270   2.673 -0.0403 -0.2260 -0.4473
  719SOL    HW1 2156   2.805   2.322   2.768  0.5868 -2.3441  0.8377
  719SOL    HW2 2157   2.830   2.174   2.687  0.8966  1.7738 -1.3321
  720SOL     OW 2158   1.227   0.606   1.465 -0.6564  0.0061 -0.0106
  720SOL    HW1 2159   1.250   0.705   1.454 -0.9561 -0.4162 -2.3809
  720SOL    HW2 2160   1.134   0.587   1.438  1.3510  1.0290 -0.5947
  721SOL     OW 2161   2.950   2.897   1.118 -0.5360  0.3488  0.4992
  721SOL    HW1 2162   3.012   2.836   1.074 -2.5662  0.4598  1.5437
  721SOL    HW2 2163   2.861   2.852   1.107 -0.3988 -2.1699  1.8637
  722SOL     OW 2164   1.068   1.480   2.607  0.4368  0.0596  0.0384
  722SOL    HW1 2165   1.019   1.552   2.659  1.5964  1.2926  0.3863
  722SOL    HW2 2166   1.151   1.458   2.653 -2.2917  0.1104  1.0342
  723SOL     OW 2167   2.383   0.682   1.089  0.7305  0.6470 -0.2697
  723SOL    HW1 2168   2.440   0.672   1.010 -1.8036  2.5088  2.8041
  723SOL    HW2 2169   2.420   0.750   1.153 -2.1749 -3.9898  0.0489
  724SOL     OW 2170   0.906   2.191   0.123 -0.4287  0.1982  0.0472
  724SOL    HW1 2171   0.917   2.146   0.215 -0.2167 -0.8289  1.0128
  724SOL    HW2 2172   0.993   2.208   0.075 -0.9368 -1.0124 -0.0651
  725SOL     OW 2173   0.306   1.182   1.592 -0.1831  0.5368  0.1498
  725SOL    HW1 2174   0.315   1.234   1.675 -0.6953 -1.6103 -1.1465
  725SOL    HW2 2175   0.380   1.113   1.580 -1.3535 -0.6421 -0.2174
  726SOL     OW 2176   2.481   0.711   3.068 -0.5521 -0.7362 -0.5648
  726SOL    HW1 2177   2.443   0.788   0.036  1.9362 -3.3015 -0.8934
  726SOL    HW2 2178   2.532   0.655   0.046 -1.7113  0.2918 -1.0889
  727SOL     OW 2179   1.902   1.199   2.705 -0.0998 -0.3566  0.4706
  727SOL    HW1 2180   1.859   1.281   2.659  0.3335  0.3326 -0.9570
  727SOL    HW2 2181   1.956   1.139   2.640 -1.1668 -0.1395 -0.4359
  728SOL     OW 2182   1.324   2.519   1.414  0.0018 -0.2088  0.1172
  728SOL    HW1 2183   1.294   2.455   1.488  0.6348 -0.9389  0.4099
  728SOL    HW2 2184   1.402   2.474   1.365  0.8028 -1.8543  0.1780
  729SOL     OW 2185   2.085   0.910   2.204 -0.1747 -0.2852 -0.2370
  729SOL    HW1 2186   2.153   0.900   2.277  0.5124  2.2937 -2.7275
  729SOL    HW2 2187   2.038   0.997   2.222  1.4265 -0.7232  2.7026
  730SOL     OW 2188   1.273   0.681   1.074  0.2954  0.2146 -0.1919
  730SOL    HW1 2189   1.202   0.611   1.086  2.7884 -0.6474 -1.3849
  730SOL    HW2 2190   1.329   0.684   0.988  0.3875  1.1062 -0.4209
  731SOL     OW 2191   0.872   0.474   2.977 -0.5036 -0.2052  0.5321
  731SOL    HW1 2192   0.932   0.543   2.926  0.6980  2.2998 -0.2979
  731SOL    HW2 2193   0.860   0.383   2.932 -0.4299 -0.0516  2.5946
  732SOL     OW 2194   0.485   0.510   0.172  0.0064 -0.1138  0.1736
  732SOL    HW1 2195   0.517   0.477   0.263 -0.5423  0.4043  2.2876
  732SOL    HW2 2196   0.560   0.529   0.105 -1.4296 -0.7137  1.1088
  733SOL     OW 2197   1.687   1.607   2.634  0.2596 -0.5151  0.3913
  733SOL    HW1 2198   1.624   1.610   2.714 -0.0915  1.3841  0.8639
  733SOL    HW2 2199   1.776   1.654   2.661  1.7257  2.8729  0.5456
  734SOL     OW 2200   0.218   1.968   2.755  0.2278 -0.0990  0.1809
  734SOL    HW1 2201   0.176   1.974   2.845  0.7065 -3.0104 -1.5891
  734SOL    HW2 2202   0.223   2.064   2.719  0.5877  0.7471  1.9341
  735SOL     OW 2203   2.124   0.642   0.998  0.0637  0.1806  0.4540
  735SOL    HW1 2204   2.139   0.641   0.898  0.7186  2.0094 -3.2520
  735SOL    HW2 2205   2.209   0.668   1.042 -1.8945 -1.3474 -0.6026
  736SOL     OW 2206   1.875   1.743   2.735  0.4645 -0.0360 -0.0294
  736SOL    HW1 2207   1.810   1.789   2.800 -0.3725  2.9297 -0.4114
  736SOL    HW2 2208   1.935   1.820   2.696  0.6274  0.6956 -0.0354
  737SOL     OW 2209   2.986   0.363   0.534 -0.1988  0.1513  0.5786
  737SOL    HW1 2210   2.944   0.457   0.540  1.1239 -4.0198  0.8791
  737SOL    HW2 2211   3.078   0.351   0.580  3.0095 -4.1723 -0.6513
  738SOL     OW 2212   0.732   2.001   1.713  0.0354  0.1041 -0.5621
  738SOL    HW1 2213   0.815   2.060   1.720  0.2434  2.9039  1.4895
  738SOL    HW2 2214   0.660   2.058   1.671  1.1907 -1.1605 -0.6166
  739SOL     OW 2215   1.379   2.783   1.980 -0.5949  0.3674 -0.8195
  739SOL    HW1 2216   1.398   2.791   1.880  0.7326 -1.6193  0.1191
  739SOL    HW2 2217   1.282   2.818   2.000 -1.1937 -0.4623  1.2385
  740SOL     OW 2218   2.078   2.289   1.520  0.4425  0.1860 -0.2820
  740SOL    HW1 2219   1.989   2.284   1.468  1.8914 -1.4003  1.8000
  740SOL    HW2 2220   2.107   2.382   1.544 -0.7570 -2.1370 -2.2649
  741SOL     OW 2221   2.090   0.571   0.227 -0.2266  0.5461 -0.1140
  741SOL    HW1 2222   2.037   0.525   0.156  2.2225 -1.8417 -4.0807
  741SOL    HW2 2223   2.105   0.670   0.200 -0.6983  3.0808  1.2762
  742SOL     OW 2224   0.989   2.608   2.905 -0.0352  0.2203  0.9707
  742SOL    HW1 2225   1.018   2.599   2.803 -1.4538  0.5778 -3.1245
  742SOL    HW2 2226   1.031   2.545   2.971  0.6330 -0.5158  0.8189
  743SOL     OW 2227   2.284   1.097   2.010  0.2815  0.1701 -0.0474
  743SOL    HW1 2228   2.265   1.180   2.063  1.0820 -0.3401 -0.5689
  743SOL    HW2 2229   2.207   1.073   1.953  2.6097 -2.8499 -1.2994
  744SOL     OW 2230   2.648   0.707   0.590 -0.2796  0.1267 -0.9933
  744SOL    HW1 2231   2.661   0.759   0.506  0.5804  1.1704 -0.1437
  744SOL    HW2 2232   2.740   0.665   0.612  4.5687 -0.5912  0.5495
  745SOL     OW 2233   2.663   1.143   1.756 -0.2115  0.3192  0.3469
  745SOL    HW1 2234   2.630   1.086   1.834  1.5796  0.3958 -0.8498
  745SOL    HW2 2235   2.723   1.215   1.798  2.4738  0.0413 -0.5089
  746SOL     OW 2236   1.237   1.704   0.561  0.2447  0.3111  0.4442
  746SOL    HW1 2237   1.267   1.752   0.643 -0.0334 -0.9828 -2.7866
  746SOL    HW2 2238   1.143   1.671   0.567 -0.1772 -0.6694 -0.1876
  747SOL     OW 2239   1.157   1.530   1.598 -0.0660  0.6933  0.6588
  747SOL    HW1 2240   1.091   1.569   1.663 -0.3017 -2.0508  1.5197
  747SOL    HW2 2241   1.137   1.558   1.501  1.1575  1.5890  0.3930
  748SOL     OW 2242   0.143   2.599   2.866  0.3528 -0.3260  0.2328
  748SOL    HW1 2243   0.207   2.655   2.920  3.4446 -0.7610 -0.8036
  748SOL    HW2 2244   0.073   2.560   2.925 -2.5509 -0.6243 -0.6903
  749SOL     OW 2245   0.441   1.157   2.518 -0.1044 -0.2430 -0.2066
  749SOL    HW1 2246   0.414   1.081   2.455 -0.8026 -2.5683 -3.0671
  749SOL    HW2 2247   0.503   1.221   2.473  0.4737  0.7219  0.5148
  750SOL     OW 2248   1.764   0.947   1.859  0.3534 -0.2427  0.1875
  750SOL    HW1 2249   1.684   0.948   1.787 -3.3092  0.4791  0.0857
  750SOL    HW2 2250   1.844   0.892   1.831  1.1369 -0.4246 -0.8046
  751SOL     OW 2251   2.593   0.610   0.226  0.5026  0.4918 -0.2930
  751SOL    HW1 2252   2.541   0.536   0.272  0.6495  1.0074 -0.8424
  751SOL    HW2 2253   2.623   0.680   0.288 -0.1190  0.0419  0.2995
  752SOL     OW 2254   2.979   2.538   1.283 -0.1561  0.2572 -0.0969
  752SOL    HW1 2255   3.068   2.595   1.285  0.2805 -0.8620 -2.4193
  752SOL    HW2 2256   2.906   2.594   1.237 -0.7493 -1.3204  0.0579
  753SOL     OW 2257   0.549   2.355   1.180  0.2468 -0.3026  0.0238
  753SOL    HW1 2258   0.614   2.406   1.241  1.5746  0.3921  1.9637
  753SOL    HW2 2259   0.526   2.263   1.225 -0.3682  0.0326  0.0609
  754SOL     OW 2260   0.297   2.986   2.227  0.0100  0.0786 -0.2201
  754SOL    HW1 2261   0.217   2.930   2.254 -0.2408  1.1482 -0.7214
  754SOL    HW2 2262   0.350   2.943   2.150  1.9936 -0.4731 -2.2683
  755SOL     OW 2263   2.342   0.561   0.422  0.4495  0.0557 -0.3010
  755SOL    HW1 2264   2.275   0.567   0.345 -1.0296  0.0022  0.1552
  755SOL    HW2 2265   2.346   0.649   0.470  1.6270 -2.7736  1.4667
  756SOL     OW 2266   2.170   2.395   2.926  0.1108  0.0628  0.0880
  756SOL    HW1 2267   2.257   2.455   2.949 -0.1022 -0.5523  0.4159
  756SOL    HW2 2268   2.114   2.433   2.851  0.0131  0.6376 -1.1433
  757SOL     OW 2269   2.172   0.643   0.715  0.3488  0.4280  0.3012
  757SOL    HW1 2270   2.242   0.689   0.662 -1.4651 -0.1909 -0.9728
  757SOL    HW2 2271   2.161   0.548   0.679 -1.7662  0.9029  1.4672
  758SOL     OW 2272   2.442   0.897   1.707  0.4439 -0.0528 -0.3957
  758SOL    HW1 2273   2.457   0.973   1.636  1.4336 -0.1771  1.4660
  758SOL    HW2 2274   2.488   0.913   1.794  0.3453  1.3262 -0.9632
  759SOL     OW 2275   2.764   0.601   1.101  0.1281  0.0095 -0.1978
  759SOL    HW1 2276   2.696   0.680   1.102 -1.2381  1.2327  1.6513
  759SOL    HW2 2277   2.799   0.576   1.012 -0.9292  2.0668  2.3033
  760SOL     OW 2278   2.604   1.482   1.337 -0.2386 -0.1159  0.5408
  760SOL    HW1 2279   2.686   1.417   1.342  3.9927 -3.2292  0.3433
  760SOL    HW2 2280   2.614   1.560   1.271 -1.1554  1.9933  0.1126
  761SOL     OW 2281   0.897   0.693   0.283 -0.0565 -0.0334 -0.1774
  761SOL    HW1 2282   0.870   0.786   0.301  1.6162 -2.9387  0.2901
  761SOL    HW2 2283   0.956   0.682   0.198  1.3860 -0.2560 -2.7328
  762SOL     OW 2284   0.774   1.793   0.669 -0.0818 -0.1711  0.0816
  762SOL    HW1 2285   0.719   1.869   0.633  0.3564 -2.8350 -0.5957
  762SOL    HW2 2286   0.746   1.779   0.769  1.1719  0.5505 -1.2567
  763SOL     OW 2287   1.253   0.887   1.420  0.3187  0.4288  0.7269
  763SOL    HW1 2288   1.263   0.971   1.477 -1.7711  0.7704 -0.0560
  763SOL    HW2 2289   1.192   0.903   1.339  1.1306 -1.8228  1.5335
  764SOL     OW 2290   0.482   1.871   2.750 -0.1549 -0.7360 -0.5242
  764SOL    HW1 2291   0.486   1.798   2.680 -2.2829  1.6930  1.1360
  764SOL    HW2 2292   0.386   1.898   2.760  0.1566 -2.5617  0.4876
  765SOL     OW 2293   0.744   2.687   1.568 -0.0108 -0.3174  0.1358
  765SOL    HW1 2294   0.716   2.602   1.611 -2.2705  0.2363  0.2237
  765SOL    HW2 2295   0.670   2.729   1.518  0.1717 -0.3798  1.1768
  766SOL     OW 2296   2.545   1.794   2.298  0.3467 -0.0533 -0.4465
  766SOL    HW1 2297   2.589   1.870   2.335  1.4206 -2.5004 -1.7748
  766SOL    HW2 2298   2.539   1.716   2.366 -2.0357 -0.8415 -0.6216
  767SOL     OW 2299   1.474   1.227   2.523  0.3447 -0.4477 -0.2589
  767SOL    HW1 2300   1.521   1.141   2.488  0.9961 -0.7810  0.0403
  767SOL    HW2 2301   1.414   1.271   2.449 -1.0778  0.8544 -2.5157
  768SOL     OW 2302   1.579   2.029   0.128  1.3057 -0.5404  0.1945
  768SOL    HW1 2303   1.502   1.962   0.138 -0.3300 -0.3204 -0.5885
  768SOL    HW2 2304   1.665   1.987   0.097 -1.0520  1.1543  2.5962
  769SOL     OW 2305   0.501   1.187   0.957  0.4790 -0.0677  0.4074
  769SOL    HW1 2306   0.540   1.237   0.881 -1.3286  0.2501 -0.1020
  769SOL    HW2 2307   0.557   1.107   0.976 -0.9442 -0.0508 -0.1078
  770SOL     OW 2308   1.518   0.944   2.475  0.3168 -0.2111 -0.1344
  770SOL    HW1 2309   1.590   0.939   2.551 -0.2946 -0.5607  0.5889
  770SOL    HW2 2310   1.557   0.936   2.381 -2.0061 -1.4165  1.5477
  771SOL     OW 2311   3.010   2.962   2.461  0.2428  0.6273  0.7212
  771SOL    HW1 2312   2.980   2.883   2.401 -0.0694 -0.7797 -0.9354
  771SOL    HW2 2313   0.003   2.926   2.522 -0.3726 -3.2552 -0.5393
  772SOL     OW 2314   2.060   1.827   2.292 -0.2418  0.2823 -0.1991
  772SOL    HW1 2315   2.030   1.731   2.285 -1.6528 -2.2225  1.7793
  772SOL    HW2 2316   2.154   1.839   2.264 -3.3547  0.3197  0.2864
  773SOL     OW 2317   0.456   1.648   1.451  0.1038 -0.1920  0.6250
  773SOL    HW1 2318   0.518   1.618   1.524 -2.1097  0.9929 -0.6704
  773SOL    HW2 2319   0.425   1.569   1.395 -1.7418  1.9584 -2.6494
  774SOL     OW 2320   1.292   0.744   2.895 -0.1448  0.0243  0.2328
  774SOL    HW1 2321   1.209   0.777   2.842  2.5176  1.3723 -2.4815
  774SOL    HW2 2322   1.273   0.667   2.956 -0.9095  0.5070 -0.7354
  775SOL     OW 2323   2.009   2.727   0.199 -0.3561  0.0247 -0.2110
  775SOL    HW1 2324   1.920   2.707   0.251 -1.8384 -1.4518  0.0660
  775SOL    HW2 2325   2.038   2.823   0.215  0.6950 -0.7328  0.7697
  776SOL     OW 2326   0.164   0.475   1.732  0.1696  0.3091 -0.3757
  776SOL    HW1 2327   0.179   0.387   1.786  0.7089 -1.4524  0.8188
  776SOL    HW2 2328   0.231   0.543   1.770  0.8314 -0.0219  1.8526
  777SOL     OW 2329   2.303   1.885   2.210 -0.2001 -0.2248  0.4151
  777SOL    HW1 2330   2.391   1.860   2.258 -0.3635  0.8724  2.5936
  777SOL    HW2 2331   2.307   1.909   2.111  1.5278 -3.0990  0.5785
  778SOL     OW 2332   1.956   1.164   2.250 -0.2064  0.1553 -0.0869
  778SOL    HW1 2333   1.898   1.168   2.165 -1.2095  0.9360  0.7240
  778SOL    HW2 2334   2.042   1.217   2.244 -0.6050  1.3119  0.7305
  779SOL     OW 2335   2.910   0.814   3.046 -0.0297  0.4699 -0.2632
  779SOL    HW1 2336   2.891   0.717   3.030 -0.3842 -0.5231  0.3416
  779SOL    HW2 2337   2.990   0.844   2.993  1.4437  2.7015  1.6619
  780SOL     OW 2338   2.504   0.275   2.360 -0.2038  0.3148  0.0534
  780SOL    HW1 2339   2.462   0.322   2.438 -0.7573 -1.9863  0.7640
  780SOL    HW2 2340   2.434   0.279   2.283 -2.1583  0.6370 -1.7660
  781SOL     OW 2341   0.086   1.917   1.640  0.8361 -0.3433  0.0860
  781SOL    HW1 2342   0.164   1.929   1.579 -1.5723 -1.7454 -0.6013
  781SOL    HW2 2343   0.089   1.821   1.677  0.0359  3.5837 -0.1763
  782SOL     OW 2344   2.642   2.143   2.996  0.4454  0.1063  0.0730
  782SOL    HW1 2345   2.700   2.196   3.055  0.0779  1.4719 -1.4211
  782SOL    HW2 2346   2.556   2.202   2.977 -0.3464  2.7839  0.7326
  783SOL     OW 2347   0.858   1.065   1.251 -0.5882  0.2364 -0.1763
  783SOL    HW1 2348   0.906   1.048   1.339 -1.1838  0.6454  0.8719
  783SOL    HW2 2349   0.886   1.008   1.176  0.3149  0.6803  3.2896
  784SOL     OW 2350   2.268   0.800   2.856  0.2258 -0.2460  0.0532
  784SOL    HW1 2351   2.361   0.779   2.888 -1.0092 -0.9830 -0.5621
  784SOL    HW2 2352   2.190   0.764   2.914 -1.1532  1.6685  0.0624
  785SOL     OW 2353   2.313   2.723   0.522 -0.0005 -0.0409  0.0376
  785SOL    HW1 2354   2.233   2.658   0.546 -1.3400 -0.5278 -0.1441
  785SOL    HW2 2355   2.289   2.794   0.452  0.0268  1.1514 -1.3722
  786SOL     OW 2356   0.570   2.139   2.522 -0.2384  0.3200 -0.3884
  786SOL    HW1 2357   0.524   2.059   2.480 -0.3923 -1.9943  1.7904
  786SOL    HW2 2358   0.597   2.124   2.618 -0.2144  0.0177 -1.3263
  787SOL     OW 2359   1.378   0.434   1.268  0.5585  0.3207 -0.4864
  787SOL    HW1 2360   1.342   0.513   1.321  1.7132 -3.0278 -1.0718
  787SOL    HW2 2361   1.475   0.446   1.244 -0.1470  0.6593  0.8936
  788SOL     OW 2362   0.325   0.730   0.280  0.5562 -0.2702  0.0081
  788SOL    HW1 2363   0.406   0.681   0.237  0.2307 -1.7582  0.5844
  788SOL    HW2 2364   0.239   0.717   0.225  2.8092  1.1940  1.0356
  789SOL     OW 2365   2.909   2.137   1.339 -0.0376  0.1093 -0.5516
  789SOL    HW1 2366   2.968   2.193   1.398 -1.0461 -1.0599 -0.9511
  789SOL    HW2 2367   2.811   2.176   1.338 -1.9817  1.4577  0.5736
  790SOL     OW 2368   1.459   0.813   1.830  0.2245  0.0403  0.6556
  790SOL    HW1 2369   1.542   0.756   1.812  1.4009  2.7842  1.0166
  790SOL    HW2 2370   1.366   0.765   1.814 -3.3974  0.0886  1.0970
  791SOL     OW 2371   1.451   0.530   0.486 -0.3146 -0.1979  0.5905
  791SOL    HW1 2372   1.456   0.474   0.571  0.4659 -2.0744 -0.2628
  791SOL    HW2 2373   1.471   0.631   0.496  0.6432  0.5035  0.0379
  792SOL     OW 2374   1.759   2.877   1.830  0.0615  0.1011 -0.2402
  792SOL    HW1 2375   1.741   2.940   1.912 -0.0371  0.8022  4.1602
  792SOL    HW2 2376   1.686   2.808   1.818 -0.3013 -2.1503 -1.2205
  793SOL     OW 2377   0.532   0.010   0.670  0.3010  0.2441  0.3209
  793SOL    HW1 2378   0.546   3.080   0.568  1.9386  0.7994 -0.7083
  793SOL    HW2 2379   0.439   0.052   0.684  1.2163 -2.8701  1.5036
  794SOL     OW 2380   0.676   0.927   2.315  0.3026 -0.4091  0.6726
  794SOL    HW1 2381   0.695   1.022   2.282 -0.7605 -0.6706  3.2492
  794SOL    HW2 2382   0.636   0.865   2.241 -1.8631 -1.0668  0.1390
  795SOL     OW 2383   0.245   1.795   2.251  0.5158 -0.8676 -0.2360
  795SOL    HW1 2384   0.157   1.767   2.210 -0.9175 -1.1199  1.7375
  795SOL    HW2 2385   0.248   1.781   2.354  0.7979  0.5247  0.9457
  796SOL     OW 2386   2.229   1.266   2.222  0.0953  0.3111  0.0910
  796SOL    HW1 2387   2.248   1.360   2.259  0.0251  1.9194  0.6419
  796SOL    HW2 2388   2.242   1.192   2.288 -2.6927  1.3674  0.9184
  797SOL     OW 2389   2.824   2.794   2.683 -0.1582  0.0747  0.3175
  797SOL    HW1 2390   2.902   2.725   2.675  0.5332 -0.8717 -1.0281
  797SOL    HW2 2391   2.751   2.763   2.623 -1.4944 -2.4956 -0.3078
  798SOL     OW 2392   2.971   1.984   2.188  0.1747 -0.1481  0.3327
  798SOL    HW1 2393   2.878   2.015   2.171  0.6872  1.7996 -0.7879
  798SOL    HW2 2394   3.028   2.057   2.145 -0.4723  0.6030 -1.2724
  799SOL     OW 2395   2.974   2.151   2.927 -0.3887 -0.4171 -0.2341
  799SOL    HW1 2396   3.039   2.224   2.895  0.7051  2.3951  1.4228
  799SOL    HW2 2397   2.989   2.065   2.870 -4.0424  0.5035 -2.4673
  800SOL     OW 2398   1.472   2.016   0.643 -0.4717 -0.3500  0.3282
  800SOL    HW1 2399   1.421   2.040   0.556 -2.1977  0.1468 -0.8719
  800SOL    HW2 2400   1.421   1.948   0.696  1.8082  0.8885  0.9217
  801SOL     OW 2401   1.991   0.842   0.748 -0.0190 -0.0491 -0.1298
  801SOL    HW1 2402   2.032   0.922   0.695 -1.2673 -0.1119 -2.1530
  801SOL    HW2 2403   2.044   0.756   0.735 -2.5097  0.4696  1.0163
  802SOL     OW 2404   3.023   1.349   0.295 -0.0273 -0.3151  0.2809
  802SOL    HW1 2405   3.075   1.288   0.358  3.0898 -1.9304  1.1546
  802SOL    HW2 2406   2.993   1.435   0.346  0.7967  0.5833 -0.6905
  803SOL     OW 2407   1.334   1.864   2.855 -0.0742 -0.0310  0.0875
  803SOL    HW1 2408   1.377   1.953   2.867 -1.9984  2.1713 -2.3704
  803SOL    HW2 2409   1.265   1.875   2.782  3.1589 -2.3218  2.1354
  804SOL     OW 2410   1.832   1.896   0.050 -0.2147 -0.4506 -0.0309
  804SOL    HW1 2411   1.849   1.932   0.146  2.4735 -1.8651 -0.1105
  804SOL    HW2 2412   1.916   1.848   0.017 -1.7103  0.6812  3.0732
  805SOL     OW 2413   2.396   1.688   2.979  0.2945  0.6563  0.4124
  805SOL    HW1 2414   2.388   1.655   2.883  0.4290 -0.4906  1.3948
  805SOL    HW2 2415   2.337   1.632   3.042  0.6048 -0.7023 -0.5157
  806SOL     OW 2416   0.653   0.043   0.400  0.1190 -0.3604  0.1174
  806SOL    HW1 2417   0.684   0.138   0.384  0.5123  2.5697  0.7137
  806SOL    HW2 2418   0.727   3.067   0.427 -0.5300 -1.3570 -2.6062
  807SOL     OW 2419   2.014   1.297   2.942 -0.1294  0.1001  0.2177
  807SOL    HW1 2420   1.982   1.398   2.954 -3.0327  0.3091 -1.8331
  807SOL    HW2 2421   1.951   1.249   2.881  3.1032  2.0169 -0.3261
  808SOL     OW 2422   2.944   1.584   0.398  0.4459  0.5803 -0.1579
  808SOL    HW1 2423   3.011   1.601   0.475 -1.7886  1.9601  1.2594
  808SOL    HW2 2424   2.963   1.655   0.330 -2.4082  1.3055  2.1025
  809SOL     OW 2425   2.738   0.988   2.905 -0.1260 -0.4043  0.5135
  809SOL    HW1 2426   2.770   0.898   2.936  1.7746 -0.9215  2.6757
  809SOL    HW2 2427   2.819   1.049   2.888  1.8201  0.7750 -2.7174
  810SOL     OW 2428   0.688   0.895   0.293 -0.2292 -0.2001  0.0530
  810SOL    HW1 2429   0.749   0.936   0.222 -1.8578 -0.0780  0.2345
  810SOL    HW2 2430   0.593   0.921   0.276  1.2762 -3.8023  1.0866
  811SOL     OW 2431   1.187   2.505   1.186  0.0011  0.2707  0.1609
  811SOL    HW1 2432   1.233   2.431   1.139 -0.1319  1.0048  1.0418
  811SOL    HW2 2433   1.228   2.515   1.278  0.5157 -0.3978  2.0765
  812SOL     OW 2434   0.661   2.402   1.622  0.5252 -0.4710 -0.3082
  812SOL    HW1 2435   0.734   2.346   1.578  1.3084 -1.6712 -0.9057
  812SOL    HW2 2436   0.588   2.335   1.638 -1.0919 -1.5566  1.3297
  813SOL     OW 2437   1.326   0.251   1.985 -0.7010  0.2092 -0.1134
  813SOL    HW1 2438   1.428   0.233   1.980 -2.3673 -2.7288 -0.2507
  813SOL    HW2 2439   1.306   0.263   2.083  0.1854 -0.6529  2.2851
  814SOL     OW 2440   1.314   2.508   2.706 -0.1569 -0.3006 -0.1575
  814SOL    HW1 2441   1.309   2.604   2.663  2.4420  2.7821  0.3355
  814SOL    HW2 2442   1.387   2.449   2.663  0.7172 -3.7611  0.0668
  815SOL     OW 2443   0.488   0.002   1.693  0.5635 -0.1277  0.0889
  815SOL    HW1 2444   0.405   3.027   1.708  0.2566  2.7112  0.7667
  815SOL    HW2 2445   0.495   0.025   1.596 -2.9702 -3.1861  0.3855
  816SOL     OW 2446   2.176   0.438   2.887  0.2620 -0.3004  0.1389
  816SOL    HW1 2447   2.258   0.448   2.949  1.0662  2.0250  1.0803
  816SOL    HW2 2448   2.108   0.512   2.920 -2.5962  0.9522  2.5482
  817SOL     OW 2449   2.138   0.342   2.359 -0.0767 -0.3326  0.2931
  817SOL    HW1 2450   2.126   0.372   2.261 -1.4863 -1.1613  0.6606
  817SOL    HW2 2451   2.150   0.243   2.373 -0.3990 -0.9740  0.3541
  818SOL     OW 2452   2.057   0.362   0.044 -0.3442 -0.6019  0.2625
  818SOL    HW1 2453   2.132   0.305   0.090  5.2184 -2.1916  1.7521
  818SOL    HW2 2454   2.052   0.333   3.031  0.2094 -1.7035  2.0998
  819SOL     OW 2455   2.386   1.968   2.966 -0.0216  0.1629  0.0645
  819SOL    HW1 2456   2.384   1.861   2.963 -1.5600 -1.9329  3.6212
  819SOL    HW2 2457   2.329   1.993   3.048 -1.7069  0.9115  1.3000
  820SOL     OW 2458   3.034   1.973   0.160  0.1016  0.8148 -0.2524
  820SOL    HW1 2459   2.959   1.946   0.093  1.0604 -0.4571 -1.9903
  820SOL    HW2 2460   2.988   2.009   0.244 -1.3705 -1.7283  3.2881
  821SOL     OW 2461   0.104   2.445   0.976 -0.5304  0.1392  0.5072
  821SOL    HW1 2462   0.023   2.398   1.009  2.9865  4.1513  0.6661
  821SOL    HW2 2463   0.181   2.444   1.045 -0.1330 -0.5503  2.5916
  822SOL     OW 2464   2.566   2.447   3.032  0.5306  0.0110  0.0377
  822SOL    HW1 2465   2.544   2.500   2.948 -0.1246  0.0995  1.8322
  822SOL    HW2 2466   2.492   2.379   3.046 -1.3643  1.0656 -0.0884
  823SOL     OW 2467   1.568   0.170   2.383 -0.4376 -0.2076  0.7520
  823SOL    HW1 2468   1.593   0.211   2.473  1.8284  1.0141 -0.2910
  823SOL    HW2 2469   1.468   0.177   2.357  0.0658 -0.6740 -1.5602
  824SOL     OW 2470   2.664   1.964   1.505 -0.0959  0.0671 -0.0365
  824SOL    HW1 2471   2.671   2.063   1.526 -1.2775 -1.0075  0.4001
  824SOL    HW2 2472   2.728   1.942   1.432  0.0810  0.5535 -0.2565
  825SOL     OW 2473   2.691   1.954   2.793  0.0172 -0.6481  0.0119
  825SOL    HW1 2474   2.673   2.022   2.869 -2.8048  0.8334 -1.2760
  825SOL    HW2 2475   2.789   1.960   2.767  1.8533 -0.6920 -0.9813
  826SOL     OW 2476   2.315   1.536   2.319 -0.0879  0.8206  0.3836
  826SOL    HW1 2477   2.265   1.533   2.413  0.0582  0.7656  0.5968
  826SOL    HW2 2478   2.408   1.563   2.328 -3.1194  0.6437 -1.2430
  827SOL     OW 2479   2.126   2.432   1.209 -0.0602 -0.2845  0.6358
  827SOL    HW1 2480   2.033   2.463   1.233 -0.1992  1.4655 -1.5888
  827SOL    HW2 2481   2.183   2.403   1.291 -0.7074 -0.4223  0.7636
  828SOL     OW 2482   2.604   2.739   1.527  0.4262  0.1182 -0.2283
  828SOL    HW1 2483   2.621   2.637   1.512 -2.3092 -1.0546 -2.1281
  828SOL    HW2 2484   2.506   2.752   1.540  0.6408 -0.2234 -2.4493
  829SOL     OW 2485   1.613   2.505   2.410  0.3691 -0.0303  0.1381
  829SOL    HW1 2486   1.580   2.456   2.495 -1.0219  0.5798  2.4236
  829SOL    HW2 2487   1.713   2.501   2.404  1.0737  1.7569  0.6122
  830SOL     OW 2488   1.441   0.546   0.769 -0.5396  0.1708  0.1349
  830SOL    HW1 2489   1.469   0.637   0.806 -1.5104  1.9228 -0.0464
  830SOL    HW2 2490   1.422   0.480   0.847  0.9057  1.3923 -0.2491
  831SOL     OW 2491   2.659   1.226   3.002  0.8833  0.0098 -0.0814
  831SOL    HW1 2492   2.728   1.237   3.074  2.3393 -2.1388  4.2001
  831SOL    HW2 2493   2.674   1.132   2.958 -0.4098 -1.0692 -0.6790
  832SOL     OW 2494   1.364   1.792   1.908  0.0120 -0.1550 -0.2457
  832SOL    HW1 2495   1.347   1.739   1.997 -2.3613 -0.9979  3.1401
  832SOL    HW2 2496   1.442   1.853   1.914 -0.6474  0.2799  2.1087
  833SOL     OW 2497   3.013   3.025   2.060 -0.6652  0.6863  0.1687
  833SOL    HW1 2498   0.007   2.966   2.074  0.1775 -0.1773  1.4141
  833SOL    HW2 2499   2.973   3.051   2.149 -2.5124 -3.2701  0.0736
  834SOL     OW 2500   0.897   0.809   1.788  0.4292  0.0926  0.2798
  834SOL    HW1 2501   0.993   0.784   1.775 -4.3509  0.6828  1.1928
  834SOL    HW2 2502   0.844   0.809   1.702  1.2804  0.4263  0.7677
  835SOL     OW 2503   2.941   0.697   2.654 -0.0126 -0.2585  0.7456
  835SOL    HW1 2504   2.932   0.733   2.560  1.0714  1.1054 -0.6151
  835SOL    HW2 2505   2.865   0.635   2.677  3.2849  2.8054 -3.0399
  836SOL     OW 2506   1.073   2.021   0.645 -0.7797 -0.5913  0.2997
  836SOL    HW1 2507   1.063   1.939   0.703 -0.9162 -0.1103 -0.6918
  836SOL    HW2 2508   1.147   2.010   0.569 -2.3864 -2.8875 -1.4015
  837SOL     OW 2509   1.691   1.417   1.103 -0.0085  0.0861  0.2404
  837SOL    HW1 2510   1.590   1.434   1.115 -2.2236  0.6573 -0.5079
  837SOL    HW2 2511   1.714   1.329   1.144 -2.1816  1.2526 -1.3086
  838SOL     OW 2512   1.200   1.775   2.420 -0.8464  0.3022 -0.3725
  838SOL    HW1 2513   1.155   1.695   2.377  1.4476 -3.6999  1.0792
  838SOL    HW2 2514   1.183   1.787   2.523  0.8058  0.0216  3.3126
  839SOL     OW 2515   0.678   2.078   2.816 -0.7333  0.1010 -0.7033
  839SOL    HW1 2516   0.615   2.008   2.794 -0.6303  2.9034  0.2758
  839SOL    HW2 2517   0.656   2.120   2.907 -0.1646  1.4373  0.9663
  840SOL     OW 2518   0.596   2.479   0.049  0.1291  0.0146  0.0936
  840SOL    HW1 2519   0.633   2.394   0.013 -1.3764  0.9240 -1.2208
  840SOL    HW2 2520   0.631   2.551   3.074  1.5364 -1.3643  0.2725
  841SOL     OW 2521   1.966   2.278   0.234 -0.4657 -0.5534  0.1524
  841SOL    HW1 2522   1.976   2.236   0.142  2.5118  1.6673  2.1797
  841SOL    HW2 2523   2.037   2.348   0.244  1.8420 -0.1527  0.3792
  842SOL     OW 2524   0.959   0.642   2.791 -0.3754 -0.1097 -0.6001
  842SOL    HW1 2525   0.863   0.659   2.763 -0.5776  1.9084  2.1196
  842SOL    HW2 2526   1.021   0.722   2.773 -0.8170  3.3425 -2.8594
  843SOL     OW 2527   1.241   2.934   0.689  0.3523 -0.0024 -0.3800
  843SOL    HW1 2528   1.252   3.008   0.620  1.7473 -0.4067  0.1400
  843SOL    HW2 2529   1.142   2.917   0.720 -0.4446  1.6825 -0.9667
  844SOL     OW 2530   2.345   3.013   2.257  0.2108  0.8015  0.1268
  844SOL    HW1 2531   2.443   3.044   2.253  1.2602 -0.4616 -1.7963
  844SOL    HW2 2532   2.319   2.989   2.161  0.3055  0.8369  0.5350
  845SOL     OW 2533   2.550   2.502   1.272 -0.8636 -0.7593  0.5626
  845SOL    HW1 2534   2.470   2.452   1.309  1.4702  0.5602  0.2210
  845SOL    HW2 2535   2.521   2.548   1.183  0.1752 -0.2312  1.5318
  846SOL     OW 2536   0.179   1.804   2.560 -0.4621 -0.8194 -0.1417
  846SOL    HW1 2537   0.139   1.711   2.582  0.8032  1.7180 -0.2115
  846SOL    HW2 2538   0.185   1.862   2.643 -0.2414 -1.0721  0.1217
  847SOL     OW 2539   1.628   0.715   1.496 -0.1129  0.1743 -0.0990
  847SOL    HW1 2540   1.581   0.735   1.408 -0.7039 -0.1339 -3.0991
  847SOL    HW2 2541   1.640   0.798   1.550  1.0192 -3.0865 -0.2799
  848SOL     OW 2542   2.774   0.217   0.077 -0.2227 -0.3786 -0.1913
  848SOL    HW1 2543   2.694   0.161   0.058  1.0170  0.8567 -0.2338
  848SOL    HW2 2544   2.825   0.179   0.160 -1.2513 -1.1795  1.2237
  849SOL     OW 2545   0.447   2.995   2.919 -0.1747  0.1933 -0.4363
  849SOL    HW1 2546   0.498   2.925   2.865  0.4892 -2.2479 -1.0308
  849SOL    HW2 2547   0.498   3.038   2.997  1.5072  0.8620 -0.6873
  850SOL     OW 2548   0.858   2.577   1.036  0.0897  0.4604  0.0213
  850SOL    HW1 2549   0.847   2.493   0.973  0.1415  0.5750 -0.4278
  850SOL    HW2 2550   0.955   2.612   1.023  0.0310 -2.3624 -0.0454
  851SOL     OW 2551   2.792   0.242   2.150  0.2229  0.2305  0.8951
  851SOL    HW1 2552   2.843   0.182   2.207 -3.1506  1.3139 -0.9963
  851SOL    HW2 2553   2.834   0.335   2.126 -1.2852 -0.9847  1.6311
  852SOL     OW 2554   1.973   1.362   2.440  0.3672  0.3746 -0.0012
  852SOL    HW1 2555   1.877   1.377   2.479 -0.9914 -2.3967  1.1391
  852SOL    HW2 2556   1.964   1.291   2.369  2.1364  2.1257 -3.3808
  853SOL     OW 2557   2.813   2.915   0.708  0.4771 -0.0276 -0.4051
  853SOL    HW1 2558   2.885   2.984   0.730  3.4249 -0.2756 -2.0047
  853SOL    HW2 2559   2.719   2.948   0.737  0.6145 -0.2285  2.0564
  854SOL     OW 2560   2.251   1.044   1.218  0.0738  0.0221  0.2994
  854SOL    HW1 2561   2.333   0.984   1.201  1.9105 -0.5017 -2.7607
  854SOL    HW2 2562   2.186   1.022   1.140  1.2624  1.7294  1.4671
  855SOL     OW 2563   1.410   2.393   0.480 -0.6261  0.8031 -0.2549
  855SOL    HW1 2564   1.366   2.485   0.464  0.0872  4.2465  2.4419
  855SOL    HW2 2565   1.444   2.349   0.393  0.4572 -1.8805  1.1135
  856SOL     OW 2566   2.894   0.117   2.866 -0.3584 -0.6584 -0.0253
  856SOL    HW1 2567   2.948   0.132   2.777  1.5021  3.2177 -3.5301
  856SOL    HW2 2568   2.955   0.102   2.945  2.2027  0.7259 -1.1153
  857SOL     OW 2569   1.417   0.018   1.771  0.1768 -0.2911 -0.0491
  857SOL    HW1 2570   1.452   0.113   1.764  0.0182 -3.8149 -0.0578
  857SOL    HW2 2571   1.344   0.018   1.839  0.1619  2.2356 -1.8337
  858SOL     OW 2572   2.196   2.182   1.734  0.2323  0.5026  0.0363
  858SOL    HW1 2573   2.197   2.078   1.729 -3.3960 -1.1423 -2.4685
  858SOL    HW2 2574   2.140   2.222   1.658 -0.1570 -2.1261 -1.1921
  859SOL     OW 2575   1.326   2.259   1.122  0.4558  0.0710 -0.4077
  859SOL    HW1 2576   1.398   2.287   1.186  0.0983  1.7986 -2.6056
  859SOL    HW2 2577   1.294   2.166   1.158  1.0178  0.1707  0.8544
  860SOL     OW 2578   2.386   2.493   0.217  0.2664 -0.1907  0.1660
  860SOL    HW1 2579   2.484   2.523   0.215  3.9237  0.4230 -1.1730
  860SOL    HW2 2580   2.377   2.390   0.212  0.9270  1.3707 -1.4703
  861SOL     OW 2581   1.616   2.924   1.026  0.1312 -0.0679  0.1484
  861SOL    HW1 2582   1.560   2.992   0.976  1.4371  0.2125 -2.7266
  861SOL    HW2 2583   1.679   2.966   1.094  1.0180  0.8390 -2.4413
  862SOL     OW 2584   2.008   2.837   2.284  0.0547  0.1542  0.8076
  862SOL    HW1 2585   2.103   2.826   2.316  0.3828 -2.0109  1.4415
  862SOL    HW2 2586   1.975   2.935   2.277  0.9264 -0.8412  2.3444
  863SOL     OW 2587   0.344   0.759   0.548 -0.4161  0.5664 -0.0005
  863SOL    HW1 2588   0.340   0.655   0.574  0.1587 -2.4075 -2.8697
  863SOL    HW2 2589   0.347   0.758   0.446 -0.0157  0.9039  0.8066
  864SOL     OW 2590   2.860   2.393   2.159  0.1117 -0.0204  0.1989
  864SOL    HW1 2591   2.959   2.368   2.157 -1.1140 -0.7613  1.7544
  864SOL    HW2 2592   2.845   2.477   2.104 -2.3539 -0.4174  0.9234
  865SOL     OW 2593   0.382   1.522   2.822  0.1484 -0.1211 -0.0085
  865SOL    HW1 2594   0.316   1.571   2.886 -1.1963 -1.0245  2.4101
  865SOL    HW2 2595   0.456   1.473   2.870  0.0775 -0.0257 -0.8438
  866SOL     OW 2596   2.741   0.515   2.695  0.0080  0.4689  0.1788
  866SOL    HW1 2597   2.767   0.503   2.792  0.9888  0.1055 -1.4768
  866SOL    HW2 2598   2.753   0.427   2.644  0.6396 -1.6132  0.3801
  867SOL     OW 2599   0.091   2.901   2.946 -0.1696 -0.0261  0.1950
  867SOL    HW1 2600   0.191   2.880   2.962  1.3559  3.2982  0.3787
  867SOL    HW2 2601   0.058   2.988   2.984  0.4493 -0.4740  0.8948
  868SOL     OW 2602   1.419   2.654   0.865  0.4084  0.3615 -0.0178
  868SOL    HW1 2603   1.405   2.706   0.950 -1.8995 -0.8245  0.5197
  868SOL    HW2 2604   1.340   2.588   0.856 -1.0220 -1.2602 -0.2861
  869SOL     OW 2605   1.277   1.361   1.041 -0.0999 -0.3904  0.0549
  869SOL    HW1 2606   1.309   1.365   0.943 -0.0659 -0.4498  1.1970
  869SOL    HW2 2607   1.324   1.426   1.096 -0.2124 -1.4515 -0.1364
  870SOL     OW 2608   1.798   2.048   1.265 -0.1204 -0.2249 -0.6902
  870SOL    HW1 2609   1.861   2.048   1.186 -0.1442 -2.8718 -3.1710
  870SOL    HW2 2610   1.800   1.951   1.303  1.2681 -1.6658 -0.4852
  871SOL     OW 2611   0.735   1.525   1.625  0.9258  0.1639  0.2484
  871SOL    HW1 2612   0.752   1.624   1.600  1.8180  0.4582 -2.6419
  871SOL    HW2 2613   0.786   1.460   1.567 -0.9248  3.5128  0.4620
  872SOL     OW 2614   1.276   1.156   1.216  0.6670 -0.2032  0.1078
  872SOL    HW1 2615   1.345   1.161   1.295 -0.0545  0.7497 -2.7023
  872SOL    HW2 2616   1.267   1.251   1.176  0.4270 -0.3803  2.4454
  873SOL     OW 2617   1.241   0.912   2.493 -0.0579 -0.1690 -0.1119
  873SOL    HW1 2618   1.205   0.994   2.443 -2.4057  3.1101 -0.7181
  873SOL    HW2 2619   1.346   0.922   2.491  2.3121 -1.0479 -0.1553
  874SOL     OW 2620   0.120   1.192   1.406 -0.3795  0.5104  0.3615
  874SOL    HW1 2621   0.068   1.270   1.410  2.5280 -3.7651  1.9469
  874SOL    HW2 2622   0.195   1.179   1.475  0.6815  1.7593 -0.2071
  875SOL     OW 2623   2.584   2.992   0.813 -0.3017 -0.0087 -0.3471
  875SOL    HW1 2624   2.608   3.072   0.871  0.5755  0.8934 -0.5531
  875SOL    HW2 2625   2.505   3.014   0.752  0.5306 -0.2208 -0.6290
  876SOL     OW 2626   1.155   0.270   2.703  0.3023  0.3512  0.0910
  876SOL    HW1 2627   1.211   0.227   2.631  0.8689  0.2086 -1.5278
  876SOL    HW2 2628   1.097   0.338   2.655 -0.8123  0.3153 -1.1707
  877SOL     OW 2629   0.149   0.103   1.172 -0.2399  0.0580  0.8013
  877SOL    HW1 2630   0.166   0.126   1.268  1.4097  2.3569 -0.4375
  877SOL    HW2 2631   0.052   0.094   1.160  2.9109 -1.1229 -3.6597
  878SOL     OW 2632   2.018   2.637   3.029  0.4634 -0.0079  0.2538
  878SOL    HW1 2633   1.998   2.657   0.042 -0.0638  1.2218 -0.2477
  878SOL    HW2 2634   2.106   2.586   3.020 -1.4701  1.2150  0.4215
  879SOL     OW 2635   2.198   1.892   1.694 -0.3980 -0.1829 -0.3735
  879SOL    HW1 2636   2.287   1.860   1.652  0.3797 -0.6468 -0.6415
  879SOL    HW2 2637   2.148   1.808   1.723  0.9866  0.6644  1.5250
  880SOL     OW 2638   0.743   0.848   1.546  0.6249 -0.2853 -0.3045
  880SOL    HW1 2639   0.740   0.777   1.471  1.2332  1.0976  1.1099
  880SOL    HW2 2640   0.650   0.894   1.551 -1.8983  2.8594  1.0898
  881SOL     OW 2641   1.028   1.811   3.082  0.5227 -0.3841 -0.5982
  881SOL    HW1 2642   0.991   1.890   3.032 -1.3203 -1.0857  3.3796
  881SOL    HW2 2643   1.130   1.800   3.066 -0.9958 -1.3429 -2.1368
  882SOL     OW 2644   1.791   0.481   0.768 -0.2988  0.1644 -0.4578
  882SOL    HW1 2645   1.707   0.424   0.754  2.2840 -1.5646 -0.4674
  882SOL    HW2 2646   1.858   0.451   0.840  0.2427 -0.2447  1.3061
  883SOL     OW 2647   1.867   0.598   1.920 -0.1223  0.8702  0.3593
  883SOL    HW1 2648   1.880   0.661   1.996 -0.3145 -3.1389  0.2313
  883SOL    HW2 2649   1.959   0.590   1.872  1.7855 -1.0690 -1.6917
  884SOL     OW 2650   2.455   0.279   0.078 -0.1465 -0.4218 -0.3282
  884SOL    HW1 2651   2.550   0.277   0.105  0.3240 -1.8831 -1.9783
  884SOL    HW2 2652   2.435   0.335   3.080  0.1105  1.5119  2.0111
  885SOL     OW 2653   0.588   2.011   0.584 -0.5207  0.5092  0.0766
  885SOL    HW1 2654   0.566   2.092   0.528  1.1230  0.3143 -1.1797
  885SOL    HW2 2655   0.524   2.005   0.667 -2.2797  2.8334  0.5465
  886SOL     OW 2656   1.664   1.547   3.058 -0.7288  0.4784 -0.3073
  886SOL    HW1 2657   1.633   1.533   0.073 -4.1691 -0.0055  2.1096
  886SOL    HW2 2658   1.767   1.550   3.052  0.6807 -0.7323 -0.9397
  887SOL     OW 2659   1.439   0.489   1.602  0.0932 -0.3204  0.5406
  887SOL    HW1 2660   1.359   0.541   1.558  0.3284 -0.6685 -0.3866
  887SOL    HW2 2661   1.523   0.537   1.584 -2.0566 -1.7565  0.8352
  888SOL     OW 2662   3.039   0.967   1.494  0.5301 -0.3042  0.3015
  888SOL    HW1 2663   0.005   1.035   1.441  1.5671 -1.5977 -0.2946
  888SOL    HW2 2664   2.937   0.978   1.484 -1.2492 -0.4140  0.4886
  889SOL     OW 2665   2.818   2.433   0.904  0.2832 -0.2472 -0.4605
  889SOL    HW1 2666   2.835   2.527   0.867 -0.4438  0.4420  1.1573
  889SOL    HW2 2667   2.849   2.423   0.999 -1.1242  0.8990 -0.4081
  890SOL     OW 2668   0.055   2.352   2.151  0.2453  0.4906 -0.1152
  890SOL    HW1 2669   0.042   2.349   2.255 -1.6674  0.8451 -0.0219
  890SOL    HW2 2670   0.105   2.271   2.123 -1.6038  0.0641 -1.7553
  891SOL     OW 2671   0.700   1.638   0.252  0.0375 -0.4540 -0.0123
  891SOL    HW1 2672   0.674   1.736   0.245 -0.6863 -1.0820  2.0402
  891SOL    HW2 2673   0.786   1.634   0.308 -1.5866 -0.1208  0.4851
  892SOL     OW 2674   0.054   2.258   1.512 -0.1091 -0.7361  0.3820
  892SOL    HW1 2675   0.031   2.184   1.581  0.4199 -1.0806 -0.2709
  892SOL    HW2 2676   0.039   2.349   1.546 -3.1232 -0.4630  1.3143
  893SOL     OW 2677   0.055   3.064   1.586  0.3336 -0.1295 -0.0559
  893SOL    HW1 2678   3.084   0.012   1.666  0.1316  0.5235 -3.2661
  893SOL    HW2 2679   3.075   3.053   1.508  1.9343 -4.0404 -1.8141
  894SOL     OW 2680   2.552   1.766   0.880 -0.0665 -0.3931  0.3846
  894SOL    HW1 2681   2.572   1.751   0.978 -0.0548  0.7287  2.6663
  894SOL    HW2 2682   2.536   1.862   0.869  2.7330 -3.4144  0.4419
  895SOL     OW 2683   2.239   2.526   1.571 -0.2849  0.4372 -0.6312
  895SOL    HW1 2684   2.188   2.516   1.659  1.5608 -0.9720 -1.6474
  895SOL    HW2 2685   2.208   2.607   1.515  0.1057 -1.1319 -3.1646
  896SOL     OW 2686   0.724   2.994   1.467  0.4562  0.5834 -0.1616
  896SOL    HW1 2687   0.674   3.053   1.403 -3.3421 -0.2109 -0.6215
  896SOL    HW2 2688   0.665   2.929   1.515 -1.3119  0.8391 -1.8676
  897SOL     OW 2689   0.941   1.029   1.549 -0.0893  0.1936 -0.1499
  897SOL    HW1 2690   0.864   0.963   1.573  0.7564  0.4731  3.0285
  897SOL    HW2 2691   1.023   1.000   1.605 -3.4133 -0.5577 -2.5137
  898SOL     OW 2692   1.264   2.752   1.537  0.1082  0.8153  0.6294
  898SOL    HW1 2693   1.167   2.768   1.551 -0.7437 -0.1615 -0.7394
  898SOL    HW2 2694   1.273   2.660   1.488  0.1687 -1.1600  0.3674
  899SOL     OW 2695   1.311   0.375   2.900  0.2131  0.5075 -0.2001
  899SOL    HW1 2696   1.385   0.306   2.927  1.5636 -3.0649  1.0016
  899SOL    HW2 2697   1.245   0.346   2.828 -0.8649 -1.3888 -0.4811
  900SOL     OW 2698   0.923   2.738   2.032  0.3911 -0.2682 -0.4258
  900SOL    HW1 2699   0.941   2.638   2.056  1.4011  0.9766 -2.7319
  900SOL    HW2 2700   0.822   2.755   2.038 -2.6335 -0.5327 -3.1933
  901SOL     OW 2701   0.899   2.102   0.367 -0.1835  0.1291  0.7107
  901SOL    HW1 2702   0.888   2.129   0.460  0.3477 -2.2806 -2.1187
  901SOL    HW2 2703   0.969   2.026   0.353  0.2186  0.7227 -2.0547
  902SOL     OW 2704   1.720   0.860   1.214  0.2865 -0.5464 -0.1479
  902SOL    HW1 2705   1.630   0.813   1.215  0.1143  1.2051 -0.7804
  902SOL    HW2 2706   1.769   0.824   1.134  0.1876 -0.0829  1.6967
  903SOL     OW 2707   2.710   0.966   2.642 -0.8802 -0.1279 -0.8494
  903SOL    HW1 2708   2.676   0.951   2.740 -2.3630  0.6650  3.9534
  903SOL    HW2 2709   2.746   1.064   2.641  2.3218  1.1386  1.3842
  904SOL     OW 2710   1.130   1.036   0.088 -0.4423 -0.0953  0.0899
  904SOL    HW1 2711   1.168   1.011   0.181 -0.7152 -1.3926 -3.4428
  904SOL    HW2 2712   1.183   1.117   0.053 -0.1651  1.0883  1.9304
  905SOL     OW 2713   1.762   2.989   1.263 -0.3951  0.1241  0.3802
  905SOL    HW1 2714   1.712   3.056   1.317 -1.8044  0.7103  0.6563
  905SOL    HW2 2715   1.774   2.910   1.327 -1.2632  0.4741  1.0697
  906SOL     OW 2716   2.352   2.806   0.820 -0.4599 -0.1838  0.4025
  906SOL    HW1 2717   2.434   2.755   0.846  1.5317 -1.1358 -1.0657
  906SOL    HW2 2718   2.313   2.778   0.732  0.2335 -1.6650 -2.1556
  907SOL     OW 2719   1.591   1.065   0.358 -0.8045 -0.2809  0.3338
  907SOL    HW1 2720   1.584   1.063   0.254  0.4126 -2.3949  0.5579
  907SOL    HW2 2721   1.677   1.112   0.388  2.4844 -1.0886 -0.1282
  908SOL     OW 2722   1.768   0.275   1.319  0.2846  0.0463  0.3911
  908SOL    HW1 2723   1.705   0.205   1.358  1.4634  2.3787 -3.3152
  908SOL    HW2 2724   1.773   0.357   1.381  0.6319  0.9856  1.2023
  909SOL     OW 2725   1.996   0.401   0.953  0.0265  0.2839 -0.2344
  909SOL    HW1 2726   2.004   0.332   1.025  1.2248  3.9757 -0.8426
  909SOL    HW2 2727   2.029   0.494   0.985  1.6494  2.1943  1.5649
  910SOL     OW 2728   2.412   0.634   2.042  0.5061 -0.1423 -0.5869
  910SOL    HW1 2729   2.488   0.694   2.069  0.9154  1.2494  0.5739
  910SOL    HW2 2730   2.318   0.675   2.059 -0.7954  1.8785 -0.0473
  911SOL     OW 2731   2.390   0.382   2.581 -0.0254 -0.2907  0.7624
  911SOL    HW1 2732   2.337   0.470   2.586  0.0352 -1.4869  0.0542
  911SOL    HW2 2733   2.412   0.344   2.671 -0.6421 -1.6888  0.5168
  912SOL     OW 2734   0.645   1.062   1.777 -0.0435 -0.4059  0.4427
  912SOL    HW1 2735   0.686   1.152   1.787 -0.0204 -1.0675  2.9667
  912SOL    HW2 2736   0.574   1.061   1.704 -2.3457 -1.9138 -1.5162
  913SOL     OW 2737   2.650   2.235   1.582  0.0618  0.2828  0.2018
  913SOL    HW1 2738   2.654   2.217   1.683  1.3754 -0.1302  4.1260
  913SOL    HW2 2739   2.683   2.327   1.563  1.3807 -1.5246 -0.7747
  914SOL     OW 2740   1.908   0.930   1.405 -0.3697  0.3828  0.2108
  914SOL    HW1 2741   1.967   1.003   1.363  1.0885 -0.2610  0.3161
  914SOL    HW2 2742   1.834   0.899   1.343 -0.6624  1.0721 -2.0480
  915SOL     OW 2743   2.801   1.242   0.847 -0.0009  0.2343  0.1456
  915SOL    HW1 2744   2.755   1.335   0.843  2.1558  1.9364  0.0000
  915SOL    HW2 2745   2.892   1.253   0.891 -1.1859 -0.8640 -1.8994
  916SOL     OW 2746   1.871   2.499   1.321  0.5872  0.1775  0.0462
  916SOL    HW1 2747   1.812   2.510   1.239  0.0772 -1.1494  0.9995
  916SOL    HW2 2748   1.823   2.440   1.393 -0.5618  0.8016 -0.2600
  917SOL     OW 2749   1.835   2.693   2.135  0.0851  0.2235 -0.0620
  917SOL    HW1 2750   1.745   2.736   2.127  0.5816 -4.2643  0.1219
  917SOL    HW2 2751   1.890   2.728   2.217  2.5250  1.8068 -2.9106
  918SOL     OW 2752   1.898   2.486   2.452  0.2269  0.3650  0.1887
  918SOL    HW1 2753   1.879   2.559   2.517 -0.3537  2.5745  0.5002
  918SOL    HW2 2754   1.994   2.490   2.422 -0.3915 -0.0957  0.1611
  919SOL     OW 2755   0.808   0.185   1.546  0.1029 -0.1873 -0.2883
  919SOL    HW1 2756   0.720   0.244   1.526 -3.7341 -2.3863  1.4538
  919SOL    HW2 2757   0.787   0.086   1.528  0.6466  1.3016  0.3262
  920SOL     OW 2758   2.651   0.473   2.246  0.2948 -0.0468 -0.1288
  920SOL    HW1 2759   2.608   0.391   2.285  0.2698 -0.2723  2.0060
  920SOL    HW2 2760   2.745   0.483   2.289 -0.5560 -0.3167  1.2746
  921SOL     OW 2761   3.048   0.956   1.765 -0.2619 -0.0615 -0.1266
  921SOL    HW1 2762   0.068   0.960   1.776  0.6870  0.1867 -1.0720
  921SOL    HW2 2763   3.022   0.970   1.667 -0.7906  0.9217 -1.5031
  922SOL     OW 2764   2.435   2.408   0.709 -0.3036  0.9758  0.0231
  922SOL    HW1 2765   2.492   2.488   0.685  1.9115 -2.2673 -0.6231
  922SOL    HW2 2766   2.359   2.430   0.776 -0.1915 -1.3241  1.1792
  923SOL     OW 2767   0.655   2.399   0.689 -0.4596 -0.2604 -0.2375
  923SOL    HW1 2768   0.630   2.328   0.623 -1.4234 -0.5825  0.3161
  923SOL    HW2 2769   0.595   2.397   0.773  0.5220 -0.9744 -0.8860
  924SOL     OW 2770   1.081   0.851   2.717 -0.0481 -0.0157 -0.2559
  924SOL    HW1 2771   1.000   0.916   2.731 -1.1608 -1.0632  2.2949
  924SOL    HW2 2772   1.140   0.883   2.637  0.6430 -0.0964 -1.0174
  925SOL     OW 2773   2.586   1.391   0.620 -0.4571  0.0612  0.4397
  925SOL    HW1 2774   2.584   1.429   0.711 -1.6732 -1.2470  0.5182
  925SOL    HW2 2775   2.611   1.293   0.632  0.8292 -4.2086  1.7008
  926SOL     OW 2776   0.308   0.339   1.087  0.0579 -0.1870  0.0394
  926SOL    HW1 2777   0.368   0.338   1.002  1.1320  0.1994  2.3503
  926SOL    HW2 2778   0.240   0.263   1.087  1.4427 -1.4740 -0.3653
  927SOL     OW 2779   0.465   1.630   2.572 -0.1450  0.6955 -0.1761
  927SOL    HW1 2780   0.440   1.579   2.655  1.7108 -0.5189  2.6892
  927SOL    HW2 2781   0.441   1.573   2.492 -1.9097 -1.1407  0.3521
  928SOL     OW 2782   0.201   0.378   2.120  0.2550 -0.1424  0.0009
  928SOL    HW1 2783   0.225   0.292   2.171  1.2956  0.1480  0.9778
  928SOL    HW2 2784   0.165   0.355   2.028 -0.4474  0.5624  2.0979
  929SOL     OW 2785   2.753   2.481   1.465 -0.7790 -0.5383 -0.1048
  929SOL    HW1 2786   2.851   2.490   1.433 -0.9555 -1.5268  0.8570
  929SOL    HW2 2787   2.682   2.475   1.389  0.2160  0.0392  1.9782
  930SOL     OW 2788   2.123   0.428   2.087  0.2220  0.0232  0.0365
  930SOL    HW1 2789   2.147   0.529   2.074 -0.2225 -3.6343 -1.7569
  930SOL    HW2 2790   2.042   0.407   2.030 -1.6398 -1.1782 -0.1746
  931SOL     OW 2791   2.254   1.238   2.854  0.4989  0.1485  0.6138
  931SOL    HW1 2792   2.168   1.282   2.893 -0.6410  0.8324  1.6714
  931SOL    HW2 2793   2.232   1.147   2.803  0.1271 -1.5149 -0.0832
  932SOL     OW 2794   1.753   1.419   0.625 -0.1333 -0.1449 -0.1918
  932SOL    HW1 2795   1.766   1.325   0.659 -0.2981  1.4008  1.2335
  932SOL    HW2 2796   1.757   1.413   0.526  1.1161  0.3764  5.2048
  933SOL     OW 2797   1.954   1.808   1.178 -0.5260  0.3088  0.0566
  933SOL    HW1 2798   1.938   1.779   1.080 -0.8662 -1.8488  3.3333
  933SOL    HW2 2799   1.979   1.724   1.231  0.4724 -1.1282 -0.8314
  934SOL     OW 2800   2.216   1.022   2.721  0.0185  0.4481 -0.3900
  934SOL    HW1 2801   2.231   0.936   2.767 -1.4890  4.6343 -1.2601
  934SOL    HW2 2802   2.220   1.010   2.622  1.2794 -1.3258  0.0959
  935SOL     OW 2803   0.094   1.162   0.539  0.2228 -0.7754 -0.1600
  935SOL    HW1 2804   0.169   1.148   0.471  0.0524  0.9279  0.3504
  935SOL    HW2 2805   0.052   1.072   0.555 -1.0059  2.6610 -1.5967
  936SOL     OW 2806   0.037   2.716   1.001  0.3220 -0.9062  1.1026
  936SOL    HW1 2807   0.122   2.770   1.016 -0.3537  0.3241 -0.2165
  936SOL    HW2 2808   0.065   2.617   0.992 -1.8078 -0.8143 -1.5882
  937SOL     OW 2809   0.005   2.169   1.822 -0.6991  0.6539 -0.0270
  937SOL    HW1 2810   0.013   2.261   1.783  1.5174 -2.0981  0.4590
  937SOL    HW2 2811   0.061   2.159   1.903 -1.3118 -1.2683 -0.2764
  938SOL     OW 2812   2.847   2.257   0.069  0.1980  0.4880 -0.2794
  938SOL    HW1 2813   2.901   2.231   3.068  2.5649  0.4851 -1.6643
  938SOL    HW2 2814   2.873   2.190   0.145  0.7302 -2.7694  1.6095
  939SOL     OW 2815   1.116   0.868   1.172 -0.0652 -0.0339  0.7276
  939SOL    HW1 2816   1.100   0.943   1.105 -1.1371 -0.4840  2.8407
  939SOL    HW2 2817   1.186   0.802   1.142 -2.2581 -0.1240  1.2089
  940SOL     OW 2818   2.765   0.269   2.541  0.4831  0.5054  0.0464
  940SOL    HW1 2819   2.687   0.254   2.473 -1.0800 -1.3172 -0.3373
  940SOL    HW2 2820   2.829   0.189   2.552 -0.3895  0.6613 -0.9508
  941SOL     OW 2821   2.493   2.556   2.785 -0.0427 -0.1247 -0.7486
  941SOL    HW1 2822   2.560   2.602   2.717 -0.0758  0.2746 -1.6076
  941SOL    HW2 2823   2.455   2.472   2.744  0.4799 -1.7111  0.3148
  942SOL     OW 2824   1.217   0.210   1.341 -0.3663  0.3703 -0.1001
  942SOL    HW1 2825   1.265   0.137   1.396 -1.8869 -1.6490  2.3171
  942SOL    HW2 2826   1.282   0.283   1.313 -1.0454 -2.1528 -1.3306
  943SOL     OW 2827   0.926   1.384   2.186  0.4613 -0.0941 -0.4937
  943SOL    HW1 2828   0.887   1.290   2.206  0.4822 -2.0690 -0.2192
  943SOL    HW2 2829   0.851   1.445   2.172 -1.4712 -0.6814  0.7197
  944SOL     OW 2830   2.082   1.024   1.013  0.1155  0.8041  0.4722
  944SOL    HW1 2831   2.031   0.945   0.971  0.1994 -2.3813  0.4746
  944SOL    HW2 2832   2.044   1.118   0.991 -0.9014  0.9860 -2.3247
  945SOL     OW 2833   2.887   2.854   2.941 -0.1310  0.5913 -0.2724
  945SOL    HW1 2834   2.842   2.836   2.849 -0.2941 -0.7097  3.7455
  945SOL    HW2 2835   2.986   2.863   2.928  0.3562  0.0932  0.5147
  946SOL     OW 2836   0.103   1.410   1.745 -0.2570  0.0917 -0.4645
  946SOL    HW1 2837   0.079   1.382   1.649  2.0247  1.3419 -0.6771
  946SOL    HW2 2838   0.193   1.375   1.773  1.7545 -3.2763  3.4637
  947SOL     OW 2839   0.930   2.967   0.062  0.3769 -0.5916 -0.2794
  947SOL    HW1 2840   0.969   3.006   0.144 -0.7335  0.0997  1.4776
  947SOL    HW2 2841   0.836   2.930   0.077  0.6525  0.1246  0.3378
  948SOL     OW 2842   2.267   1.703   1.134  0.2327  0.5891  0.2869
  948SOL    HW1 2843   2.360   1.665   1.133  0.7431  1.5586  0.3904
  948SOL    HW2 2844   2.262   1.798   1.096  0.9511  3.2637  0.2237
  949SOL     OW 2845   0.298   0.868   2.766  0.0289  0.4901 -0.2692
  949SOL    HW1 2846   0.259   0.825   2.847  0.5671 -0.5555 -2.8333
  949SOL    HW2 2847   0.346   0.953   2.790  1.1813 -0.2849 -1.1482
  950SOL     OW 2848   0.290   2.441   1.159  0.2569  0.1133  0.1535
  950SOL    HW1 2849   0.301   2.541   1.193 -0.2966  1.8853  4.4572
  950SOL    HW2 2850   0.379   2.388   1.143  4.2734 -1.4346 -0.2297
  951SOL     OW 2851   0.940   1.675   2.733  0.4478 -0.0812 -0.3252
  951SOL    HW1 2852   0.907   1.652   2.826 -1.0072 -0.1517 -2.1401
  951SOL    HW2 2853   0.860   1.684   2.675  2.8345 -0.1440  0.6034
  952SOL     OW 2854   0.636   1.284   0.523  0.6243  0.0276  0.0872
  952SOL    HW1 2855   0.672   1.253   0.611 -2.8084 -0.3654 -2.3124
  952SOL    HW2 2856   0.546   1.327   0.530 -1.1459  2.1138 -1.8807
  953SOL     OW 2857   2.388   2.335   2.668 -0.1718 -0.3474  0.0458
  953SOL    HW1 2858   2.455   2.317   2.589 -0.3575 -1.5607 -0.2936
  953SOL    HW2 2859   2.397   2.258   2.738 -1.0513 -1.3575  3.1829
  954SOL     OW 2860   1.728   0.824   0.692 -0.0290 -0.2134  0.2035
  954SOL    HW1 2861   1.655   0.787   0.754 -1.7454  1.4173 -1.0294
  954SOL    HW2 2862   1.825   0.806   0.728  1.3092  0.5229 -0.7333
  955SOL     OW 2863   0.669   1.937   0.264 -0.2183  0.5303  0.2161
  955SOL    HW1 2864   0.748   1.990   0.299 -0.0118 -0.1135 -0.1633
  955SOL    HW2 2865   0.591   1.998   0.237  2.5457 -0.1174  2.0966
  956SOL     OW 2866   2.613   0.316   1.828  0.3500 -0.0676 -0.1346
  956SOL    HW1 2867   2.561   0.402   1.841 -1.3699  2.4285 -0.6715
  956SOL    HW2 2868   2.581   0.257   1.903 -0.4763  0.2101 -0.3795
  957SOL     OW 2869   1.720   2.227   1.738  0.3763 -0.0956 -0.4121
  957SOL    HW1 2870   1.807   2.253   1.789  2.3390 -0.9364  0.6973
  957SOL    HW2 2871   1.696   2.130   1.747 -2.0027 -1.0778  0.6468
  958SOL     OW 2872   1.672   1.019   1.569  0.6168 -0.0979 -0.3726
  958SOL    HW1 2873   1.698   1.107   1.621 -2.0616  0.7439  0.9681
  958SOL    HW2 2874   1.742   1.002   1.500  0.9277  2.9525 -0.2611
  959SOL     OW 2875   1.378   2.085   2.158  0.1055  0.3059  0.5543
  959SOL    HW1 2876   1.385   2.099   2.256  1.5922  1.0986  1.3774
  959SOL    HW2 2877   1.472   2.056   2.123  2.4892 -2.3415 -3.1091
  960SOL     OW 2878   0.716   0.698   2.665 -0.1650 -0.0581  0.2790
  960SOL    HW1 2879   0.626   0.680   2.702  0.2679 -0.2631  1.9344
  960SOL    HW2 2880   0.734   0.633   2.590 -0.7354 -2.6472 -1.7607
  961SOL     OW 2881   3.064   0.888   2.830 -0.8710 -0.0232  0.0269
  961SOL    HW1 2882   2.994   0.849   2.770 -1.7192  1.4953 -1.5256
  961SOL    HW2 2883   0.018   0.976   2.789  1.8422  0.9989 -3.0663
  962SOL     OW 2884   0.966   2.008   2.919 -0.2181 -0.0205 -0.1348
  962SOL    HW1 2885   0.879   2.036   2.876 -2.2471 -0.4796 -0.1751
  962SOL    HW2 2886   1.033   2.078   2.952 -1.8892 -1.0686  1.6087
  963SOL     OW 2887   2.791   1.932   0.041  0.7916  0.2887 -0.2961
  963SOL    HW1 2888   2.714   1.866   0.033 -4.7301 -2.9370  0.9704
  963SOL    HW2 2889   2.759   2.021   3.080 -2.1053  3.3145  0.2367
  964SOL     OW 2890   0.757   2.209   2.332  0.2647 -0.6736  1.2286
  964SOL    HW1 2891   0.706   2.171   2.407 -0.0315 -0.8818 -0.9815
  964SOL    HW2 2892   0.734   2.307   2.310  1.5201 -1.7863 -2.5928
  965SOL     OW 2893   1.533   1.706   1.357  0.0478  0.4548 -0.2397
  965SOL    HW1 2894   1.519   1.756   1.444 -1.3545  0.2913  2.0279
  965SOL    HW2 2895   1.603   1.629   1.369  3.5129  0.6445 -1.0872
  966SOL     OW 2896   2.954   1.719   3.066 -0.4382 -0.1194  0.2737
  966SOL    HW1 2897   2.903   1.804   0.004  1.7294 -1.7583 -1.2889
  966SOL    HW2 2898   2.985   1.715   2.970 -0.4186 -0.1138  1.4912
  967SOL     OW 2899   2.073   2.735   2.024  0.2879 -0.9777  0.3601
  967SOL    HW1 2900   2.006   2.770   2.095 -1.2454  1.6142  3.4461
  967SOL    HW2 2901   2.031   2.733   1.932  1.6360 -0.4873 -0.2221
  968SOL     OW 2902   1.109   0.772   0.067 -0.0808  0.6958  0.1134
  968SOL    HW1 2903   1.112   0.864   0.030  2.0475  0.2926 -1.6502
  968SOL    HW2 2904   1.186   0.713   0.030  0.1429 -0.2675  0.1934
  969SOL     OW 2905   0.609   1.311   2.333 -0.3530 -0.3194  0.4371
  969SOL    HW1 2906   0.539   1.380   2.304  0.1469 -1.7491 -1.8970
  969SOL    HW2 2907   0.623   1.241   2.255  1.6208 -2.2494 -2.6663
  970SOL     OW 2908   2.037   2.937   0.851 -0.1437  0.3450 -0.3566
  970SOL    HW1 2909   1.993   2.922   0.760  0.3516 -1.5816  0.5378
  970SOL    HW2 2910   2.129   2.980   0.849 -4.1730  3.2312  0.5700
  971SOL     OW 2911   2.081   2.188   0.727 -0.2004  0.1267  0.7931
  971SOL    HW1 2912   2.104   2.227   0.816 -1.7192 -0.9735 -1.5860
  971SOL    HW2 2913   2.141   2.222   0.653  0.1544 -0.4818 -1.7171
  972SOL     OW 2914   0.076   1.178   2.716  0.1866  0.4611 -0.3372
  972SOL    HW1 2915   0.038   1.170   2.622  1.8670  0.5477  2.4799
  972SOL    HW2 2916   0.149   1.247   2.713 -1.5560  0.7975 -0.4712
  973SOL     OW 2917   0.763   0.293   0.365 -0.2588  0.4108  0.2646
  973SOL    HW1 2918   0.813   0.323   0.284  1.1859 -1.5225  2.9810
  973SOL    HW2 2919   0.722   0.371   0.410  1.1515 -3.1600 -0.7272
  974SOL     OW 2920   2.526   0.991   1.937 -0.6404  0.2257 -0.4442
  974SOL    HW1 2921   2.588   0.953   2.012 -0.2424  0.9730  0.7115
  974SOL    HW2 2922   2.442   1.026   1.978 -0.9650 -1.9159  2.2982
  975SOL     OW 2923   2.985   0.000   0.848  0.6681  0.1106 -0.1046
  975SOL    HW1 2924   2.965   0.039   0.938 -1.3342  1.3752  1.0029
  975SOL    HW2 2925   2.964   0.070   0.776  1.5896  2.7815  0.1092
  976SOL     OW 2926   0.625   1.492   1.086 -0.3905 -0.3840 -0.0386
  976SOL    HW1 2927   0.543   1.482   1.143  1.0928 -0.7621  1.0535
  976SOL    HW2 2928   0.697   1.426   1.112 -1.4302 -0.8603 -0.9258
  977SOL     OW 2929   1.238   2.204   0.250  0.2219 -0.1206  0.1521
  977SOL    HW1 2930   1.338   2.202   0.238 -3.0980  0.1868  1.4510
  977SOL    HW2 2931   1.198   2.298   0.268  0.6702 -0.9214  0.5726
  978SOL     OW 2932   0.186   0.695   2.961  0.1852 -0.0615  0.3502
  978SOL    HW1 2933   0.116   0.676   2.886  0.4286  2.5255 -2.1157
  978SOL    HW2 2934   0.214   0.605   3.005  0.5466 -0.9388 -0.3424
  979SOL     OW 2935   1.957   1.766   0.904 -0.2952 -0.6270  0.9749
  979SOL    HW1 2936   1.870   1.823   0.910 -3.6589  2.2437  0.6634
  979SOL    HW2 2937   2.019   1.811   0.830  1.6027  1.7143 -2.2087
  980SOL     OW 2938   0.657   1.978   2.163 -0.3614  0.2594 -0.8788
  980SOL    HW1 2939   0.731   1.922   2.202  0.2106 -0.4544  1.8833
  980SOL    HW2 2940   0.682   2.069   2.127 -2.9372 -0.3655 -0.4131
  981SOL     OW 2941   2.400   1.612   2.708  0.1646 -0.3577  0.0228
  981SOL    HW1 2942   2.429   1.527   2.752 -0.8959  1.3735  0.3519
  981SOL    HW2 2943   2.309   1.596   2.666  3.5125 -1.2453 -0.2144
  982SOL     OW 2944   0.246   2.001   1.855 -0.5013  0.1147 -0.0142
  982SOL    HW1 2945   0.191   1.959   1.782  2.0029  0.4755  3.0850
  982SOL    HW2 2946   0.341   1.964   1.871 -2.1322 -0.0230  1.0944
  983SOL     OW 2947   1.548   0.257   1.702  0.3228 -0.8420 -0.3312
  983SOL    HW1 2948   1.512   0.335   1.644 -1.4343 -0.6640 -1.5838
  983SOL    HW2 2949   1.633   0.214   1.671  0.5192 -0.5584  2.6626
  984SOL     OW 2950   2.707   2.876   0.056 -0.1020 -0.0052 -0.0877
  984SOL    HW1 2951   2.776   2.874   3.066 -2.1308  1.1309  0.5532
  984SOL    HW2 2952   2.675   2.786   0.086  2.4021  0.8399 -2.9731
  985SOL     OW 2953   1.390   1.354   1.797  0.0877 -0.7854  0.0825
  985SOL    HW1 2954   1.405   1.448   1.776  0.1812 -2.5762 -0.5058
  985SOL    HW2 2955   1.452   1.336   1.877  1.9394  4.3508  0.5032
  986SOL     OW 2956   1.905   0.080   2.577  0.4312  0.5196  0.3962
  986SOL    HW1 2957   1.967   0.052   2.506  1.0311  3.3979  3.0061
  986SOL    HW2 2958   1.962   0.141   2.634  1.3753 -0.9635 -2.0588
  987SOL     OW 2959   2.702   1.701   2.871 -0.0891  0.3525  0.0883
  987SOL    HW1 2960   2.704   1.706   2.975  1.3265 -0.9798  2.7449
  987SOL    HW2 2961   2.680   1.794   2.840 -0.4030 -1.6542  3.3266
  988SOL     OW 2962   0.021   0.576   1.234  0.2311 -0.4520 -0.7248
  988SOL    HW1 2963   3.040   0.514   1.191  1.5315  4.0878  2.1321
  988SOL    HW2 2964   0.019   0.564   1.339 -0.8703 -1.5199  1.9756
  989SOL     OW 2965   1.901   0.778   0.995 -0.0349 -0.3239  0.3873
  989SOL    HW1 2966   1.975   0.712   1.008  1.0799  1.1098  1.3542
  989SOL    HW2 2967   1.897   0.797   0.896  0.1986  0.6704 -0.6033
  990SOL     OW 2968   2.578   0.257   2.810 -0.6511 -0.0275  0.1047
  990SOL    HW1 2969   2.645   0.249   2.734 -2.0553  0.2870 -0.5104
  990SOL    HW2 2970   2.607   0.187   2.878 -1.0933 -2.0638 -1.9165
  991SOL     OW 2971   0.062   1.463   0.074  0.0093  0.2561  0.0707
  991SOL    HW1 2972   0.072   1.390   0.005 -0.7378  0.2477  1.2570
  991SOL    HW2 2973   0.018   1.428   0.160  0.9626  0.3028 -0.1950
  992SOL     OW 2974   2.050   1.459   1.919  0.2771  0.2936  0.1893
  992SOL    HW1 2975   2.118   1.492   1.985 -0.1442  3.0692 -1.7635
  992SOL    HW2 2976   2.087   1.391   1.853 -1.6996 -0.8877  2.5417
  993SOL     OW 2977   0.188   2.509   0.734 -0.0975 -0.1069 -0.2561
  993SOL    HW1 2978   0.138   2.466   0.813  1.0481  0.5770  2.8811
  993SOL    HW2 2979   0.245   2.587   0.758  0.8259  0.3391 -0.1916
  994SOL     OW 2980   3.036   1.742   1.892  0.3538 -0.4151  0.1668
  994SOL    HW1 2981   2.958   1.681   1.863  0.2731  2.3038  0.2620
  994SOL    HW2 2982   0.033   1.727   1.840 -2.6160  1.7492  3.9794
  995SOL     OW 2983   1.702   2.033   2.581 -0.1999  0.1582  0.6500
  995SOL    HW1 2984   1.602   2.022   2.593 -0.0561 -0.6816  0.9796
  995SOL    HW2 2985   1.732   1.965   2.508  1.8757 -1.0847 -2.3426
  996SOL     OW 2986   2.254   2.007   0.103 -0.4439  0.2739  0.1626
  996SOL    HW1 2987   2.197   2.085   0.140  0.4633  0.3631  0.2704
  996SOL    HW2 2988   2.229   1.915   0.142  0.2810  1.9637  1.4295
  997SOL     OW 2989   1.304   1.359   2.370  0.0672 -0.2163  0.2451
  997SOL    HW1 2990   1.228   1.417   2.401 -1.8634 -0.8164  0.1424
  997SOL    HW2 2991   1.349   1.398   2.292 -0.4683 -1.8135  1.5779
  998SOL     OW 2992   3.007   2.281   0.735  0.1969 -0.5835  0.1349
  998SOL    HW1 2993   3.016   2.342   0.652  0.5968  1.9331 -1.5563
  998SOL    HW2 2994   2.944   2.325   0.801  2.7135 -1.1520 -1.9161
  999SOL     OW 2995   0.351   2.682   0.488  0.1586  0.3245 -0.6538
  999SOL    HW1 2996   0.434   2.638   0.531 -0.4872 -1.5760  0.4502
  999SOL    HW2 2997   0.296   2.619   0.423 -1.1448 -0.7350  1.7156
 1000SOL     OW 2998   1.158   0.248   0.039  0.0251  0.1328 -0.2489
 1000SOL    HW1 2999   1.141   0.170   3.057  0.4567 -2.6598 -0.9139
 1000SOL    HW2 3000   1.205   0.321   3.068  2.7539  1.3657  0.6014
   3.08376   3.08376   3.08376
