1000 SPC/Fw water molecules t= 227.00000 step= 227000
 3000
    1SOL     OW    1   3.044   2.791   0.818  0.3448 -0.4078  0.0627
    1SOL    HW1    2   0.039   2.763   0.820 -0.3987 -0.9469 -1.5783
    1SOL    HW2    3   3.039   2.889   0.844 -0.1477  0.1395 -0.5742
    2SOL     OW    4   1.911   1.786   1.682 -0.3488  0.3024 -0.6706
    2SOL    HW1    5   1.950   1.688   1.682 -0.7910 -0.5552  1.8982
    2SOL    HW2    6   1.807   1.774   1.677 -0.0516 -3.3664  1.2069
    3SOL     OW    7   1.568   2.195   2.470  0.3914  0.8130 -0.0377
    3SOL    HW1    8   1.491   2.217   2.532 -0.0910  0.2317 -0.0723
    3SOL    HW2    9   1.658   2.227   2.508 -0.0861 -2.5517  1.0423
    4SOL     OW   10   2.237   2.019   2.295  0.4695  0.1674  0.0770
    4SOL    HW1   11   2.163   2.071   2.349 -2.3629 -0.0639  3.7739
    4SOL    HW2   12   2.272   1.948   2.360  0.2518  2.0764 -1.0328
    5SOL     OW   13   1.284   1.067   1.497 -0.2492  0.2916 -0.4768
    5SOL    HW1   14   1.314   1.052   1.404 -2.6440  0.9804 -0.3036
    5SOL    HW2   15   1.224   0.999   1.537 -0.1947  0.7964 -0.3247
    6SOL     OW   16   2.843   0.161   3.033  0.0990  0.4430 -0.1436
    6SOL    HW1   17   2.947   0.149   3.027  0.4339 -0.2979 -0.0059
    6SOL    HW2   18   2.797   0.074   3.053 -0.3491  2.5746  0.3704
    7SOL     OW   19   0.091   1.604   1.352  0.0720  0.0664  0.4214
    7SOL    HW1   20   0.143   1.521   1.389 -0.8071  0.1873  1.1172
    7SOL    HW2   21   0.154   1.672   1.313 -0.9073  1.4981  3.1773
    8SOL     OW   22   1.065   0.448   0.823 -0.2566 -0.8422  1.0911
    8SOL    HW1   23   1.139   0.468   0.889  0.5852  1.0269  0.7763
    8SOL    HW2   24   1.057   0.350   0.790 -3.9993 -2.1129 -2.4445
    9SOL     OW   25   1.283   0.508   2.481 -0.4013 -0.1008 -0.3690
    9SOL    HW1   26   1.345   0.587   2.492 -0.0431 -1.8289 -1.1531
    9SOL    HW2   27   1.273   0.494   2.382  1.7653 -3.3738  0.2781
   10SOL     OW   28   0.830   2.373   0.020 -0.2238 -0.7605  0.3980
   10SOL    HW1   29   0.899   2.393   3.045  2.9008  0.3163  0.0049
   10SOL    HW2   30   0.742   2.382   3.072  1.3042  0.1000  1.6280
   11SOL     OW   31   0.881   0.946   0.122 -0.2240  0.2352 -0.0538
   11SOL    HW1   32   0.866   1.009   0.043 -1.0790  1.2644  0.1434
   11SOL    HW2   33   0.803   0.880   0.145 -0.3711 -1.8955 -0.4421
   12SOL     OW   34   0.007   0.355   1.830 -0.0873  0.3990  0.7661
   12SOL    HW1   35   3.032   0.403   1.786  2.6426 -0.6032  1.1545
   12SOL    HW2   36   0.095   0.367   1.781  2.5179  1.6722 -2.1745
   13SOL     OW   37   1.365   0.106   0.144  0.5890 -0.1230  0.4104
   13SOL    HW1   38   1.275   0.103   0.097  0.6244  1.1955  0.2736
   13SOL    HW2   39   1.364   0.136   0.241 -0.6204 -2.3036  0.7500
   14SOL     OW   40   1.198   2.517   1.169 -0.5338  0.1066 -0.3129
   14SOL    HW1   41   1.178   2.503   1.268  0.8541 -1.7618  0.7922
   14SOL    HW2   42   1.240   2.432   1.126 -1.2679  0.7075  0.6252
   15SOL     OW   43   2.582   1.068   1.621  0.3822  0.1109 -0.1698
   15SOL    HW1   44   2.635   1.025   1.696 -0.2827 -2.2704  0.2799
   15SOL    HW2   45   2.548   0.995   1.552 -1.5800 -0.7761 -2.4407
   16SOL     OW   46   1.853   2.975   2.961  0.4538 -0.0437  0.3568
   16SOL    HW1   47   1.792   2.895   2.936 -2.4435 -2.0766 -0.6869
   16SOL    HW2   48   1.850   3.045   2.887 -0.0642 -1.2829 -1.6945
   17SOL     OW   49   0.849   0.007   1.288  0.0975 -0.4044 -0.1172
   17SOL    HW1   50   0.893   3.048   1.220  2.3264 -2.5610  0.7768
   17SOL    HW2   51   0.884   3.082   1.380  0.8846 -0.5257 -0.7151
   18SOL     OW   52   1.497   0.608   3.006 -0.0697 -0.4432  0.0093
   18SOL    HW1   53   1.503   0.536   3.078  0.8886 -0.7737 -1.6156
   18SOL    HW2   54   1.519   0.700   3.051 -1.6436  1.6931  0.8771
   19SOL     OW   55   2.142   1.829   0.189  0.0139  0.7276 -0.3265
   19SOL    HW1   56   2.136   1.743   0.249  1.5499 -1.5572  0.9499
   19SOL    HW2   57   2.132   1.916   0.239  2.0951 -2.1624 -1.6724
   20SOL     OW   58   2.025   1.519   1.632 -0.0109 -0.2066 -0.5708
   20SOL    HW1   59   2.126   1.501   1.647  0.8457  2.0970 -2.4195
   20SOL    HW2   60   1.965   1.449   1.684  0.5426 -0.9470  2.1039
   21SOL     OW   61   0.869   1.042   2.845  0.3183  0.4157 -0.6853
   21SOL    HW1   62   0.896   1.078   2.754 -0.4361 -0.3967  1.7575
   21SOL    HW2   63   0.893   1.114   2.916  1.9678 -1.6613  1.0955
   22SOL     OW   64   2.079   3.064   1.379 -0.5691  0.2475  0.3417
   22SOL    HW1   65   1.999   3.006   1.374  0.5707 -1.7667 -0.8775
   22SOL    HW2   66   2.063   0.042   1.318 -0.9487 -1.0024  0.3175
   23SOL     OW   67   2.898   0.491   1.732 -0.5680  0.4343 -0.2756
   23SOL    HW1   68   2.962   0.561   1.697  0.1328  2.0802  3.6391
   23SOL    HW2   69   2.856   0.528   1.821 -2.0586  0.3847  0.8000
   24SOL     OW   70   2.255   2.531   1.079  0.4493 -0.3052 -0.5636
   24SOL    HW1   71   2.300   2.541   1.168  0.0717 -1.6397  2.2325
   24SOL    HW2   72   2.159   2.549   1.089  2.4441 -1.6564  3.5414
   25SOL     OW   73   1.664   2.660   2.550 -0.0271  0.1011 -0.0037
   25SOL    HW1   74   1.749   2.612   2.529 -4.2244 -0.6529  0.6135
   25SOL    HW2   75   1.591   2.592   2.522  0.0640  0.7925 -2.2876
   26SOL     OW   76   1.703   2.747   2.991 -0.0841  0.0847  0.1283
   26SOL    HW1   77   1.615   2.720   2.952  1.9991  0.7768 -0.9380
   26SOL    HW2   78   1.775   2.679   2.970  0.3476  0.4047  3.6802
   27SOL     OW   79   0.304   1.608   2.740 -0.4073 -0.0117  0.1637
   27SOL    HW1   80   0.234   1.675   2.776 -0.2074  1.0851  0.4871
   27SOL    HW2   81   0.397   1.651   2.742 -1.5466 -0.4234 -1.2379
   28SOL     OW   82   2.812   1.112   1.398 -0.4608 -0.2931 -0.6203
   28SOL    HW1   83   2.904   1.135   1.354  2.5706  0.5055 -0.8941
   28SOL    HW2   84   2.802   1.168   1.488 -1.8281  1.8067  2.2452
   29SOL     OW   85   2.718   2.454   2.060 -0.0587 -0.4944 -0.3836
   29SOL    HW1   86   2.804   2.403   2.089  0.1049 -0.2933 -0.3255
   29SOL    HW2   87   2.731   2.510   1.974  1.1899 -1.2874 -2.9359
   30SOL     OW   88   1.649   0.127   2.988  0.2064 -0.3682  0.2608
   30SOL    HW1   89   1.564   0.155   2.943  0.5206 -1.9004 -0.3170
   30SOL    HW2   90   1.699   0.206   3.027 -0.0237 -2.2267 -1.5535
   31SOL     OW   91   2.755   2.619   1.841  0.2349  0.1694  0.0796
   31SOL    HW1   92   2.777   2.696   1.907  2.1604  2.6884  3.2842
   31SOL    HW2   93   2.734   2.654   1.743 -0.4892 -3.1727 -1.6088
   32SOL     OW   94   1.136   1.483   1.462  0.1609  0.0077 -0.1657
   32SOL    HW1   95   1.148   1.583   1.434  1.7695  1.8524 -1.0866
   32SOL    HW2   96   1.098   1.422   1.392  0.9804 -0.1289  0.8802
   33SOL     OW   97   0.415   2.779   2.390 -0.0971  0.0269  0.0272
   33SOL    HW1   98   0.401   2.751   2.293  0.4839 -0.7784  3.5145
   33SOL    HW2   99   0.403   2.700   2.453 -1.0321 -1.1852 -1.2160
   34SOL     OW  100   1.775   0.001   0.744 -0.6090 -0.4262 -0.3850
   34SOL    HW1  101   1.732   3.098   0.654  0.5606 -1.5340  1.0182
   34SOL    HW2  102   1.876   0.010   0.729 -0.7172 -1.4526 -0.3165
   35SOL     OW  103   2.063   0.029   0.733 -0.8200  0.1482  0.2579
   35SOL    HW1  104   2.124   0.040   0.652 -1.0974 -0.5396 -0.6651
   35SOL    HW2  105   2.096   0.086   0.810 -0.4224 -2.0747 -1.3492
   36SOL     OW  106   1.847   2.699   2.242 -0.1955  0.4653  0.2550
   36SOL    HW1  107   1.914   2.643   2.191 -0.2884  1.0181  1.8034
   36SOL    HW2  108   1.749   2.671   2.217 -2.7745 -2.3686 -0.4059
   37SOL     OW  109   0.881   2.834   2.282  0.3661  0.2681  0.4947
   37SOL    HW1  110   0.836   2.821   2.190 -2.1432  1.9389  0.8775
   37SOL    HW2  111   0.931   2.746   2.313  0.4253  0.4834  0.8817
   38SOL     OW  112   0.181   2.781   2.663  0.8327  0.6065 -0.0698
   38SOL    HW1  113   0.169   2.716   2.739 -0.3627 -1.3422 -0.5969
   38SOL    HW2  114   0.224   2.869   2.693  1.0555 -1.9730 -1.2063
   39SOL     OW  115   2.242   1.340   2.049 -0.5375  0.4126  0.5198
   39SOL    HW1  116   2.241   1.386   2.142 -2.4638  0.3601  0.9566
   39SOL    HW2  117   2.320   1.364   1.987 -1.2180 -2.9016  1.1777
   40SOL     OW  118   0.284   2.991   2.782  0.4812  0.1326  0.3310
   40SOL    HW1  119   0.268   3.094   2.758  0.6052  2.2281 -3.0535
   40SOL    HW2  120   0.388   2.975   2.767  0.5665  0.9783  1.3417
   41SOL     OW  121   1.682   0.619   0.898  0.1000 -0.2592  0.2769
   41SOL    HW1  122   1.741   0.704   0.901  0.4624 -0.9429 -0.7731
   41SOL    HW2  123   1.584   0.632   0.910  0.2323 -0.1137  1.0623
   42SOL     OW  124   0.559   0.603   1.378  0.6121 -0.9029 -0.2882
   42SOL    HW1  125   0.651   0.583   1.341  0.0226  0.5475 -0.6446
   42SOL    HW2  126   0.485   0.604   1.306 -1.6700  0.6850  0.4026
   43SOL     OW  127   2.605   1.636   2.800  0.0281  0.0926  0.4946
   43SOL    HW1  128   2.648   1.548   2.789 -1.2352  1.4780  1.1739
   43SOL    HW2  129   2.652   1.709   2.747 -1.5792  0.6416  3.7254
   44SOL     OW  130   0.088   2.433   0.603  0.2558  0.1693  0.3208
   44SOL    HW1  131   0.048   2.528   0.607  3.7415 -1.4442  0.6258
   44SOL    HW2  132   0.012   2.369   0.620 -0.3084 -0.5399 -0.3371
   45SOL     OW  133   0.311   2.579   1.530 -0.7413 -0.6582 -0.7010
   45SOL    HW1  134   0.271   2.488   1.506  0.0020  0.9574 -0.7135
   45SOL    HW2  135   0.240   2.653   1.511 -1.9115 -1.1872 -2.8181
   46SOL     OW  136   2.420   2.354   2.238 -0.1447 -0.6795 -0.0911
   46SOL    HW1  137   2.499   2.345   2.297  0.1165  2.1547 -5.4503
   46SOL    HW2  138   2.436   2.418   2.164  0.9265 -3.8028  1.9130
   47SOL     OW  139   2.254   2.054   1.415 -0.0923 -0.4653 -1.3566
   47SOL    HW1  140   2.253   2.149   1.378 -1.0786 -0.1061  0.5296
   47SOL    HW2  141   2.162   2.033   1.454  1.5663 -0.1812  1.8989
   48SOL     OW  142   0.617   1.776   3.088 -0.5329 -0.5805 -0.1695
   48SOL    HW1  143   0.678   1.706   0.013  1.8249  1.5267 -2.5502
   48SOL    HW2  144   0.520   1.745   3.097 -0.9448 -0.3738 -0.1125
   49SOL     OW  145   2.840   0.283   2.605 -0.2750  0.1305 -0.7426
   49SOL    HW1  146   2.792   0.210   2.556  1.8021  0.8599  2.8777
   49SOL    HW2  147   2.863   0.362   2.542  1.0633 -0.7807  0.2591
   50SOL     OW  148   2.336   0.852   0.148  0.6590 -0.2224 -0.2099
   50SOL    HW1  149   2.282   0.930   0.196 -0.2867  0.6702  0.2980
   50SOL    HW2  150   2.278   0.787   0.095 -1.4798 -0.6176  0.6805
   51SOL     OW  151   2.062   0.680   1.146  0.0629 -0.1296  0.9159
   51SOL    HW1  152   2.111   0.703   1.059  0.0636  0.8043 -0.0125
   51SOL    HW2  153   1.986   0.609   1.125 -1.8547  1.5378 -0.9257
   52SOL     OW  154   1.149   1.230   2.824 -0.1715 -0.0558 -0.3574
   52SOL    HW1  155   1.192   1.319   2.823 -0.6549 -3.1975  1.9898
   52SOL    HW2  156   1.224   1.160   2.824 -2.2601 -0.4594  1.7533
   53SOL     OW  157   0.849   1.650   1.768  0.4955  0.1831  0.2286
   53SOL    HW1  158   0.768   1.641   1.832 -0.2142 -0.2213  0.2929
   53SOL    HW2  159   0.827   1.613   1.674  0.0152  2.5425  1.1596
   54SOL     OW  160   1.946   0.285   0.928  0.3044  0.0445 -0.0062
   54SOL    HW1  161   2.037   0.242   0.930  2.7903 -0.4897 -0.9037
   54SOL    HW2  162   1.940   0.347   0.852 -0.1614 -3.0670  2.4065
   55SOL     OW  163   2.603   2.271   1.318  0.0633 -0.9989  0.1082
   55SOL    HW1  164   2.657   2.288   1.236 -2.3524 -0.9517  0.6535
   55SOL    HW2  165   2.591   2.173   1.327  1.9675  0.6982 -1.1622
   56SOL     OW  166   0.960   3.031   1.510 -0.6713 -0.0213  0.2780
   56SOL    HW1  167   0.982   2.938   1.536 -0.5121  1.4519 -0.3369
   56SOL    HW2  168   0.987   0.000   1.578 -0.8282 -0.0423 -0.5550
   57SOL     OW  169   1.770   1.457   0.267 -0.1370  0.2026 -0.5890
   57SOL    HW1  170   1.821   1.440   0.358 -2.2868 -1.2747  0.9087
   57SOL    HW2  171   1.705   1.534   0.263  1.1053 -0.9929  0.6369
   58SOL     OW  172   2.868   0.462   2.409 -0.4992 -0.0330 -0.3774
   58SOL    HW1  173   2.884   0.455   2.308  0.7967 -1.2013  3.0997
   58SOL    HW2  174   2.859   0.556   2.438  0.8670  0.2020  1.3977
   59SOL     OW  175   1.047   2.628   2.355  0.4623 -0.2531  0.1355
   59SOL    HW1  176   1.120   2.624   2.428  0.6687 -1.8819 -0.4988
   59SOL    HW2  177   0.993   2.540   2.348 -0.8901  5.1054  1.9549
   60SOL     OW  178   2.567   2.560   0.744 -0.0869  0.0327  0.1124
   60SOL    HW1  179   2.527   2.523   0.827  1.0185 -0.5653 -2.4404
   60SOL    HW2  180   2.494   2.593   0.683 -0.5605  1.3552  2.0979
   61SOL     OW  181   1.382   2.154   0.673  0.0665  0.1665 -0.4396
   61SOL    HW1  182   1.332   2.221   0.617  0.3587 -0.4468  2.9250
   61SOL    HW2  183   1.376   2.057   0.638  2.2319 -1.2306  0.8435
   62SOL     OW  184   2.502   2.066   2.554 -0.0486  0.0269  0.0269
   62SOL    HW1  185   2.551   2.020   2.627  1.8071  0.9549 -1.1131
   62SOL    HW2  186   2.443   1.999   2.503  0.1764 -0.9008 -0.1388
   63SOL     OW  187   2.204   0.059   2.980  0.1019  0.1102 -0.2693
   63SOL    HW1  188   2.225   0.158   2.959  0.2244 -0.4759  0.4152
   63SOL    HW2  189   2.243   0.029   3.072  0.8347 -0.6743  1.6155
   64SOL     OW  190   1.209   0.837   2.672 -0.2899  0.4459  0.0726
   64SOL    HW1  191   1.235   0.804   2.765 -0.4178  2.3309 -1.6880
   64SOL    HW2  192   1.257   0.787   2.598 -0.5748  3.4865  1.4527
   65SOL     OW  193   1.507   2.340   0.179  0.4287  1.0536 -0.0867
   65SOL    HW1  194   1.469   2.405   0.245  0.2992  1.8270  2.1210
   65SOL    HW2  195   1.593   2.299   0.218  1.7152 -1.9335  0.2138
   66SOL     OW  196   0.021   1.359   1.675  0.6465  0.5472  0.0290
   66SOL    HW1  197   0.008   1.451   1.718  3.2703 -1.8818  1.2675
   66SOL    HW2  198   0.098   1.365   1.612 -1.0877 -2.5294  0.0450
   67SOL     OW  199   2.612   0.133   2.765  0.0063  0.0525 -0.5705
   67SOL    HW1  200   2.545   0.209   2.752  0.3170  1.9742 -1.2676
   67SOL    HW2  201   2.680   0.127   2.690 -0.3974 -2.4251  3.9157
   68SOL     OW  202   0.707   2.291   1.315 -0.2685  0.6497 -0.0420
   68SOL    HW1  203   0.750   2.209   1.360 -1.7631  0.8394  0.9973
   68SOL    HW2  204   0.707   2.376   1.372 -0.4239  1.7491 -2.4898
   69SOL     OW  205   0.616   2.504   0.331 -0.2727  0.1957  0.2095
   69SOL    HW1  206   0.705   2.528   0.288  0.6488 -0.2161 -0.0443
   69SOL    HW2  207   0.590   2.569   0.407  0.3524  0.7922 -1.2015
   70SOL     OW  208   2.965   1.144   2.866  0.1972 -0.0380 -0.0019
   70SOL    HW1  209   2.883   1.103   2.909  0.5235  0.0424 -0.4191
   70SOL    HW2  210   2.975   1.092   2.774  2.4850  0.4601  0.2821
   71SOL     OW  211   0.459   1.255   2.591 -0.1083  0.8307  0.2964
   71SOL    HW1  212   0.463   1.284   2.492  1.1493  0.1310 -1.6305
   71SOL    HW2  213   0.474   1.332   2.658  2.5566  0.3707 -1.8207
   72SOL     OW  214   0.271   2.219   0.312 -0.1850  1.2586  0.3109
   72SOL    HW1  215   0.347   2.157   0.277  4.0402  0.6131  0.0848
   72SOL    HW2  216   0.303   2.311   0.343 -2.5401 -1.9587 -0.5553
   73SOL     OW  217   0.671   1.282   0.267  1.3217  0.2336  0.3335
   73SOL    HW1  218   0.645   1.352   0.196 -0.4384 -0.4409 -1.6330
   73SOL    HW2  219   0.772   1.256   0.258  3.2245  0.8703 -1.4245
   74SOL     OW  220   3.041   0.014   0.217  0.1603 -0.1015 -0.0720
   74SOL    HW1  221   2.989   0.045   0.132 -1.6299  0.3740 -0.4782
   74SOL    HW2  222   3.101   0.090   0.250 -2.0981  0.3601 -0.2770
   75SOL     OW  223   2.247   1.642   2.228 -0.0958 -0.2724 -0.7509
   75SOL    HW1  224   2.317   1.631   2.161 -1.7824  0.7636  1.6483
   75SOL    HW2  225   2.173   1.705   2.194 -1.6865 -2.0486 -1.8034
   76SOL     OW  226   2.112   2.641   1.461  1.0273  0.1267 -0.2892
   76SOL    HW1  227   2.196   2.692   1.430  2.4268 -0.2541 -0.3427
   76SOL    HW2  228   2.051   2.615   1.384  0.1536  3.1042  3.6443
   77SOL     OW  229   2.518   0.419   1.481 -0.2642 -0.2880  0.2694
   77SOL    HW1  230   2.547   0.510   1.515  0.8106 -1.7869 -0.4829
   77SOL    HW2  231   2.596   0.362   1.450 -0.9139 -0.0326 -1.4469
   78SOL     OW  232   2.028   1.255   0.109 -0.1079 -0.1813 -0.1533
   78SOL    HW1  233   1.975   1.254   0.022 -1.3319  1.3555 -0.3812
   78SOL    HW2  234   2.083   1.340   0.130 -0.2619 -0.2287  1.7348
   79SOL     OW  235   0.740   1.754   2.185 -0.2467 -0.0632  0.1387
   79SOL    HW1  236   0.690   1.728   2.097  0.9436  1.2285 -1.0514
   79SOL    HW2  237   0.742   1.683   2.260  0.6794  0.3549  0.0029
   80SOL     OW  238   1.547   0.946   1.023  0.6323 -0.3990  0.0580
   80SOL    HW1  239   1.504   1.016   0.963 -1.3363 -2.5132 -1.2632
   80SOL    HW2  240   1.645   0.974   1.040 -1.6100 -2.4507 -0.9178
   81SOL     OW  241   0.837   0.496   1.520  0.6245 -0.6829  0.3091
   81SOL    HW1  242   0.764   0.449   1.577 -3.6169  2.5409  1.7641
   81SOL    HW2  243   0.816   0.487   1.420 -0.7892 -1.7394  0.8928
   82SOL     OW  244   1.494   2.407   1.720  0.1960 -0.4280  0.5091
   82SOL    HW1  245   1.427   2.346   1.763  1.7867  2.8200  1.1905
   82SOL    HW2  246   1.479   2.403   1.620 -0.0322  1.6192 -0.1231
   83SOL     OW  247   0.543   3.053   1.037 -0.0462  0.8127  0.2433
   83SOL    HW1  248   0.551   0.021   1.108  1.2741 -1.8586 -1.9431
   83SOL    HW2  249   0.501   3.100   0.955  1.7448  1.5779 -0.2084
   84SOL     OW  250   0.016   0.829   3.044 -0.1341  0.1366 -0.4493
   84SOL    HW1  251   0.093   0.856   2.981  4.5160 -1.0867 -0.3447
   84SOL    HW2  252   3.028   0.832   2.992 -4.0387  2.7421 -1.5022
   85SOL     OW  253   3.091   2.622   1.660 -0.6235 -0.5266 -0.6957
   85SOL    HW1  254   3.088   2.613   1.558 -0.4208 -1.2043  1.0950
   85SOL    HW2  255   3.035   2.542   1.696 -0.6611 -0.1273 -2.1555
   86SOL     OW  256   0.097   2.764   1.844  0.6856 -0.0462 -0.0490
   86SOL    HW1  257   0.046   2.713   1.769 -0.5288 -2.4467 -2.0616
   86SOL    HW2  258   0.117   2.855   1.819  0.2294 -1.9545  1.0815
   87SOL     OW  259   3.023   2.716   2.934  0.6182  0.0355  0.1070
   87SOL    HW1  260   2.996   2.717   2.837  1.2937  1.7503  1.0542
   87SOL    HW2  261   2.966   2.663   2.998 -1.7823 -0.4186 -3.4501
   88SOL     OW  262   0.155   1.929   1.424  0.6022  0.3410  0.0122
   88SOL    HW1  263   0.240   1.949   1.371  1.1044 -1.5122  0.2097
   88SOL    HW2  264   0.180   1.883   1.512 -0.7442 -1.8628 -1.2189
   89SOL     OW  265   1.157   0.712   1.871 -0.4464  0.2752 -0.1020
   89SOL    HW1  266   1.059   0.693   1.865 -0.9515 -2.7495  1.0988
   89SOL    HW2  267   1.205   0.630   1.836 -1.0847  1.2879  3.1865
   90SOL     OW  268   2.764   1.481   1.819  0.1001 -0.3596  0.3417
   90SOL    HW1  269   2.848   1.459   1.880  1.5216 -0.3802  0.6963
   90SOL    HW2  270   2.747   1.584   1.823 -1.1939  2.1412  0.3805
   91SOL     OW  271   1.106   2.073   0.572  0.0971 -0.2160 -0.0022
   91SOL    HW1  272   1.094   2.103   0.478 -1.0369 -0.7737 -0.0517
   91SOL    HW2  273   1.067   1.981   0.593 -2.7406 -2.7148  0.6824
   92SOL     OW  274   2.355   0.412   1.005 -0.0833  0.3120  0.0265
   92SOL    HW1  275   2.452   0.442   0.985  1.0088  0.9449  0.1632
   92SOL    HW2  276   2.338   0.418   1.104 -0.9135 -0.1664 -1.2086
   93SOL     OW  277   2.556   1.512   0.082  0.0141 -0.3747 -0.6055
   93SOL    HW1  278   2.534   1.427   0.025  0.7920  1.5945  0.7412
   93SOL    HW2  279   2.482   1.580   0.060  1.6996 -0.9018 -1.7475
   94SOL     OW  280   2.651   2.188   2.361  1.1644 -0.3721 -0.1530
   94SOL    HW1  281   2.583   2.144   2.426  0.2813 -1.3005  0.0806
   94SOL    HW2  282   2.730   2.235   2.409  1.7157 -1.1181  2.5915
   95SOL     OW  283   1.841   0.500   1.110 -0.1641  0.4170  0.7341
   95SOL    HW1  284   1.781   0.533   1.035 -0.2074 -0.1092  1.4750
   95SOL    HW2  285   1.877   0.407   1.078 -0.5238  2.3313  2.4150
   96SOL     OW  286   2.801   0.034   1.694  0.2551 -0.3138 -0.3721
   96SOL    HW1  287   2.760   3.077   1.770 -2.1867  0.5525  0.7984
   96SOL    HW2  288   2.812   3.077   1.615  1.3811 -1.2885  1.3592
   97SOL     OW  289   2.115   0.223   1.225 -0.2090  0.0689  0.4265
   97SOL    HW1  290   2.139   0.197   1.128 -0.3255 -0.9391  0.3279
   97SOL    HW2  291   2.179   0.295   1.256 -0.5900  0.3644 -1.5122
   98SOL     OW  292   1.459   2.376   1.433 -0.1827 -0.5372 -0.4678
   98SOL    HW1  293   1.511   2.456   1.389 -2.2851  0.2835  0.5835
   98SOL    HW2  294   1.508   2.286   1.421 -2.3147 -1.4997 -0.9650
   99SOL     OW  295   2.947   2.779   2.001  0.2374  0.2767 -0.5193
   99SOL    HW1  296   3.044   2.767   1.968  2.0477 -0.9382  0.2783
   99SOL    HW2  297   2.935   2.736   2.094  0.0899  3.5477 -1.2801
  100SOL     OW  298   0.150   0.758   2.695 -0.1747 -0.0444 -0.0382
  100SOL    HW1  299   0.180   0.824   2.770 -0.7037  0.4294  0.0185
  100SOL    HW2  300   0.221   0.694   2.664 -0.5745  0.4434  0.7897
  101SOL     OW  301   1.721   1.047   0.098  0.0904 -0.1313  0.1927
  101SOL    HW1  302   1.796   1.047   0.168 -0.7040 -0.0404  0.9521
  101SOL    HW2  303   1.691   1.142   0.078  0.8703 -2.0380  0.3929
  102SOL     OW  304   0.223   0.488   1.451  0.1849 -0.0136 -0.0622
  102SOL    HW1  305   0.144   0.530   1.503  0.0292  1.0892 -1.2722
  102SOL    HW2  306   0.310   0.492   1.512  1.9898  0.3916  2.2679
  103SOL     OW  307   2.969   0.946   2.114 -0.3494 -0.0627  0.1547
  103SOL    HW1  308   2.968   0.843   2.100 -2.1342 -2.9631  1.1979
  103SOL    HW2  309   2.901   0.966   2.192 -1.1278 -1.4405  4.3284
  104SOL     OW  310   0.349   0.190   2.779  0.4925 -0.6398 -0.1878
  104SOL    HW1  311   0.342   0.226   2.681  1.9090 -2.5716  0.6901
  104SOL    HW2  312   0.441   0.196   2.818 -0.1797 -1.8288  3.2418
  105SOL     OW  313   2.277   1.548   1.825  0.2042  0.2830  0.7296
  105SOL    HW1  314   2.186   1.585   1.856 -0.3117 -0.5516  1.1351
  105SOL    HW2  315   2.358   1.605   1.856 -0.2266  2.3399 -0.3685
  106SOL     OW  316   1.619   0.368   0.354  1.1228 -0.2967  0.0805
  106SOL    HW1  317   1.676   0.290   0.332 -0.2365  1.3408 -1.6007
  106SOL    HW2  318   1.584   0.372   0.448 -0.3278 -2.5059  1.0450
  107SOL     OW  319   3.065   1.725   1.565 -0.0434  0.2480 -0.6929
  107SOL    HW1  320   3.014   1.803   1.530  0.9864  1.4473  0.6658
  107SOL    HW2  321   0.019   1.675   1.492 -2.3626  2.2655  0.6640
  108SOL     OW  322   2.971   2.678   2.266  0.1474 -0.1909 -0.2321
  108SOL    HW1  323   3.073   2.672   2.278 -0.0872 -2.0267  1.2263
  108SOL    HW2  324   2.931   2.771   2.275 -2.3513  2.8880 -0.5316
  109SOL     OW  325   1.775   0.349   3.070  0.7384 -0.0698  0.1670
  109SOL    HW1  326   1.753   0.438   3.100 -1.4803 -4.8826 -0.9748
  109SOL    HW2  327   1.871   0.331   3.092  0.2945  0.3928 -0.2483
  110SOL     OW  328   0.546   2.162   2.544 -0.3100  0.2225 -0.1934
  110SOL    HW1  329   0.564   2.148   2.441 -0.3362  1.2486 -0.0934
  110SOL    HW2  330   0.606   2.235   2.581  0.1479  0.7752  1.7799
  111SOL     OW  331   1.608   2.607   2.151  0.0950  0.1286  0.0882
  111SOL    HW1  332   1.645   2.521   2.105 -0.4157 -0.2659 -1.5752
  111SOL    HW2  333   1.558   2.669   2.086  0.0528 -0.3230  0.4699
  112SOL     OW  334   1.882   2.542   2.464  0.1121  0.2823 -0.1999
  112SOL    HW1  335   1.980   2.564   2.493  0.5228  0.8367 -2.1762
  112SOL    HW2  336   1.862   2.602   2.379 -0.7179  1.9505  0.4398
  113SOL     OW  337   1.925   2.621   1.659  0.4620 -0.0759 -0.2649
  113SOL    HW1  338   1.938   2.678   1.740 -1.4351  1.8363 -0.6985
  113SOL    HW2  339   2.009   2.637   1.601  2.2176 -0.8337  0.1139
  114SOL     OW  340   2.857   0.776   0.388 -0.3875  0.5097 -0.4941
  114SOL    HW1  341   2.811   0.732   0.309  0.2455  0.4827  1.0737
  114SOL    HW2  342   2.796   0.770   0.476 -0.4026 -0.0769 -1.6880
  115SOL     OW  343   0.213   0.932   2.885 -0.0076  0.2769  0.1683
  115SOL    HW1  344   0.216   1.011   2.821 -0.3979 -2.2421 -0.1104
  115SOL    HW2  345   0.303   0.928   2.937  1.1064 -3.5827 -1.6392
  116SOL     OW  346   0.273   1.223   2.091  0.4922 -0.5007  0.3091
  116SOL    HW1  347   0.253   1.128   2.127 -1.0224 -0.0137 -0.7915
  116SOL    HW2  348   0.337   1.216   2.014 -0.1863  0.0628 -0.6699
  117SOL     OW  349   2.741   0.089   0.391 -0.3485  0.0718 -0.3342
  117SOL    HW1  350   2.789   0.037   0.318 -0.7097 -0.9090 -1.6938
  117SOL    HW2  351   2.650   0.117   0.351 -0.7713 -1.5430 -0.5347
  118SOL     OW  352   1.133   1.855   1.621 -0.6947 -0.3160  0.1989
  118SOL    HW1  353   1.224   1.817   1.595  0.3774  0.8929  0.3366
  118SOL    HW2  354   1.113   1.842   1.721 -0.2052 -2.0472 -2.4000
  119SOL     OW  355   1.201   2.430   3.078  0.2255 -0.6065 -0.2977
  119SOL    HW1  356   1.201   2.494   0.059  0.7357  3.5884  2.6165
  119SOL    HW2  357   1.286   2.377   3.079  1.2421 -3.1104 -0.0294
  120SOL     OW  358   0.443   0.910   3.055 -0.8529  0.0656  0.0543
  120SOL    HW1  359   0.485   0.891   0.041  0.0837  2.0050 -0.7480
  120SOL    HW2  360   0.508   0.890   2.977 -0.9221 -1.8064  0.8093
  121SOL     OW  361   2.013   2.714   1.216 -0.3534  0.3887  0.1510
  121SOL    HW1  362   1.987   2.706   1.114 -0.2686  0.3714 -3.0075
  121SOL    HW2  363   1.955   2.781   1.264  0.9460  1.6690  0.2919
  122SOL     OW  364   2.468   1.986   1.874 -0.3637 -0.3598  0.3502
  122SOL    HW1  365   2.497   2.043   1.957  3.1666  2.5718  2.2901
  122SOL    HW2  366   2.467   2.032   1.776 -1.1754 -0.4168 -2.3844
  123SOL     OW  367   0.187   2.916   0.494 -0.2736 -0.4479  0.2780
  123SOL    HW1  368   0.211   3.005   0.533  2.7859  0.2338 -0.8626
  123SOL    HW2  369   0.085   2.908   0.474 -2.5670  1.5573 -0.0923
  124SOL     OW  370   2.094   0.964   2.367  0.3841 -0.3081  0.2980
  124SOL    HW1  371   2.043   1.048   2.362 -1.4336 -1.3905 -0.6477
  124SOL    HW2  372   2.127   0.933   2.278 -1.3040 -2.0965  2.7481
  125SOL     OW  373   0.451   1.254   0.703 -0.1065  0.0576  0.7387
  125SOL    HW1  374   0.475   1.205   0.616  1.1830 -1.6368 -1.4386
  125SOL    HW2  375   0.462   1.357   0.685  0.7335 -0.5712  0.8151
  126SOL     OW  376   2.398   1.753   1.102  0.2333 -0.0249  0.8836
  126SOL    HW1  377   2.424   1.732   1.200  1.6348 -0.9430  2.1564
  126SOL    HW2  378   2.450   1.837   1.068 -1.4589  0.2361  0.8456
  127SOL     OW  379   0.194   2.267   1.828 -0.1669 -0.5700  0.6120
  127SOL    HW1  380   0.152   2.284   1.738 -0.2891 -0.1408  1.4378
  127SOL    HW2  381   0.202   2.357   1.884  0.1353  2.2922  1.2801
  128SOL     OW  382   0.728   0.589   2.672 -0.2423 -0.5175 -0.1203
  128SOL    HW1  383   0.646   0.584   2.730  0.6996 -0.5563  0.3513
  128SOL    HW2  384   0.797   0.659   2.701  2.3795 -1.5253 -2.0578
  129SOL     OW  385   2.566   1.077   1.007  0.4118 -0.7704 -0.1263
  129SOL    HW1  386   2.663   1.064   0.979 -0.8160 -1.3946  0.0309
  129SOL    HW2  387   2.560   1.086   1.107 -2.5075 -1.7259  1.8603
  130SOL     OW  388   2.423   1.305   1.597  0.1620  0.2329 -0.1577
  130SOL    HW1  389   2.479   1.226   1.625  2.2645 -3.0764 -2.8949
  130SOL    HW2  390   2.471   1.354   1.523  2.1038  0.5046 -1.5425
  131SOL     OW  391   2.617   0.342   0.002  0.0161 -0.2329 -0.6904
  131SOL    HW1  392   2.612   0.439   0.036  0.1011 -1.7132  2.5686
  131SOL    HW2  393   2.709   0.312   3.088 -2.5228  0.0537  0.0663
  132SOL     OW  394   2.749   2.182   1.845 -0.0111  0.3828 -0.1844
  132SOL    HW1  395   2.708   2.183   1.941  2.1482  1.0808 -1.6482
  132SOL    HW2  396   2.734   2.092   1.801  3.2915  0.7048 -1.0442
  133SOL     OW  397   0.746   0.936   1.169  0.1005  0.1419 -0.0336
  133SOL    HW1  398   0.687   0.905   1.094  0.2788 -1.3230 -1.0079
  133SOL    HW2  399   0.775   1.029   1.149  0.4807 -2.8552  0.7297
  134SOL     OW  400   0.096   1.259   0.201 -0.4310  0.4044 -0.0146
  134SOL    HW1  401   0.008   1.313   0.210  2.6336 -1.6055  0.0677
  134SOL    HW2  402   0.104   1.233   0.104 -0.0532  0.3274  2.3141
  135SOL     OW  403   2.241   1.193   1.431 -0.3491  0.2288  0.3899
  135SOL    HW1  404   2.316   1.261   1.452  3.4169  1.2390  1.5604
  135SOL    HW2  405   2.149   1.219   1.452  0.9765 -2.5859 -1.1281
  136SOL     OW  406   2.683   0.772   0.600  0.0904  0.6806 -0.1908
  136SOL    HW1  407   2.598   0.710   0.577 -3.0099 -0.1988 -0.1609
  136SOL    HW2  408   2.743   0.726   0.672  1.6311 -0.8536  4.0723
  137SOL     OW  409   2.543   1.420   1.331  0.1083  0.5824  0.3222
  137SOL    HW1  410   2.628   1.454   1.382  3.2781 -0.4561 -0.4080
  137SOL    HW2  411   2.564   1.366   1.247 -3.8184 -0.1395 -1.3226
  138SOL     OW  412   1.602   0.700   1.455  0.6341 -0.3115 -0.0249
  138SOL    HW1  413   1.578   0.727   1.553  1.5114  0.4092 -0.5606
  138SOL    HW2  414   1.675   0.631   1.455 -1.7208 -1.4746 -1.9213
  139SOL     OW  415   1.970   0.028   0.099  0.3476  0.0680 -0.0664
  139SOL    HW1  416   1.933   0.020   0.003 -0.5734  0.1225 -3.4565
  139SOL    HW2  417   2.071   0.007   0.111  0.2754 -0.4779  0.1917
  140SOL     OW  418   1.467   1.834   1.850 -0.8150  0.4137  0.9701
  140SOL    HW1  419   1.498   1.835   1.947  1.7727  0.7698 -3.9988
  140SOL    HW2  420   1.420   1.747   1.827  0.3570  1.6270  0.3318
  141SOL     OW  421   1.922   1.859   1.060  0.3224 -0.0094  0.1911
  141SOL    HW1  422   2.024   1.880   1.069 -0.2402  0.4704  0.9777
  141SOL    HW2  423   1.901   1.769   1.107 -0.8174  1.2842  2.5088
  142SOL     OW  424   3.073   0.991   0.151 -0.2425 -0.2204  0.2549
  142SOL    HW1  425   3.097   0.956   0.061 -0.4403  0.9241  0.1261
  142SOL    HW2  426   0.005   0.929   0.224 -0.3009  0.8768 -1.2884
  143SOL     OW  427   0.461   2.007   2.762 -0.2028  0.0688 -0.2434
  143SOL    HW1  428   0.392   1.947   2.715  0.0053 -0.9262 -0.9864
  143SOL    HW2  429   0.508   2.066   2.698 -1.1830  0.3204 -0.6361
  144SOL     OW  430   0.946   0.055   1.794  1.0224 -0.2216  0.3931
  144SOL    HW1  431   0.943   0.150   1.763 -0.7474 -1.9031  0.3720
  144SOL    HW2  432   1.035   0.011   1.765  0.4100 -0.6984 -3.0583
  145SOL     OW  433   2.572   1.110   0.489 -0.1123 -0.4464 -0.1155
  145SOL    HW1  434   2.641   1.078   0.560  1.7732 -0.1974 -1.4319
  145SOL    HW2  435   2.473   1.087   0.511 -1.7616 -1.6463 -3.2391
  146SOL     OW  436   2.564   2.405   0.029  0.4555  0.8246  0.7352
  146SOL    HW1  437   2.555   2.306   0.025  0.3808  5.4624 -0.6926
  146SOL    HW2  438   2.492   2.454   3.075  1.8894  0.2644  1.7482
  147SOL     OW  439   2.529   2.735   1.282  0.0430 -0.1404  0.8233
  147SOL    HW1  440   2.543   2.805   1.355  1.2028 -0.6444 -1.5057
  147SOL    HW2  441   2.565   2.772   1.192 -0.0939  0.4779  0.8018
  148SOL     OW  442   1.454   2.907   2.428  0.0282  0.1790  0.0886
  148SOL    HW1  443   1.408   2.871   2.342  0.6433 -0.5721 -1.4490
  148SOL    HW2  444   1.545   2.861   2.458 -0.0615 -0.5452  2.9072
  149SOL     OW  445   1.113   0.486   2.695 -0.3370  0.2050 -0.0161
  149SOL    HW1  446   1.173   0.504   2.616 -1.8634  1.9199 -0.7106
  149SOL    HW2  447   1.035   0.554   2.701 -3.2720  0.8145 -0.4135
  150SOL     OW  448   0.818   2.863   0.244 -0.1705  0.4350 -1.4476
  150SOL    HW1  449   0.857   2.769   0.263 -0.2672  0.8952  0.1593
  150SOL    HW2  450   0.740   2.886   0.308 -1.0021 -1.3472  1.2267
  151SOL     OW  451   0.102   1.658   0.240 -0.2008  0.4326  0.8914
  151SOL    HW1  452   0.117   1.588   0.170 -0.9142 -0.6816  0.1379
  151SOL    HW2  453   0.134   1.632   0.326 -3.1690 -1.0326 -1.8899
  152SOL     OW  454   0.038   0.781   0.669 -0.2120 -0.4368 -0.0640
  152SOL    HW1  455   0.132   0.747   0.672 -0.3449  0.8254 -2.1317
  152SOL    HW2  456   0.033   0.838   0.582  0.6291  1.0149 -0.5001
  153SOL     OW  457   2.443   3.092   0.913  0.0357  0.0777 -0.2356
  153SOL    HW1  458   2.522   3.092   0.853  1.5793 -0.5729  2.1948
  153SOL    HW2  459   2.413   2.997   0.952 -3.0201 -3.6616  0.6131
  154SOL     OW  460   0.894   0.695   1.875  0.2359 -0.0872  0.4606
  154SOL    HW1  461   0.866   0.755   1.952 -1.1581 -1.5354  2.0810
  154SOL    HW2  462   0.837   0.716   1.793  1.0327  0.3767  0.2246
  155SOL     OW  463   2.855   1.666   1.008 -0.5446  0.4954  0.2599
  155SOL    HW1  464   2.753   1.648   1.009 -2.1346 -1.4788  0.2402
  155SOL    HW2  465   2.869   1.722   0.922  1.0421  0.3044 -3.1302
  156SOL     OW  466   2.419   1.991   0.342  0.3382  0.2060  0.1007
  156SOL    HW1  467   2.465   1.908   0.378 -0.5948  0.0178 -2.0956
  156SOL    HW2  468   2.459   2.001   0.247 -2.6418  0.6628 -0.1794
  157SOL     OW  469   0.945   2.940   0.823 -0.2304  0.3128 -0.0375
  157SOL    HW1  470   0.898   2.851   0.830  1.9497  4.4137 -1.1702
  157SOL    HW2  471   0.955   2.953   0.723 -2.4009  0.8469  1.3855
  158SOL     OW  472   2.239   0.337   2.673 -0.3472  0.0071 -0.2291
  158SOL    HW1  473   2.266   0.433   2.690  1.0496 -3.1316 -0.7771
  158SOL    HW2  474   2.238   0.320   2.574  0.2011  0.1873 -0.1055
  159SOL     OW  475   0.484   0.058   0.303 -0.0288  0.2645 -0.1413
  159SOL    HW1  476   0.413   0.127   0.279  0.4358 -0.5388  0.9875
  159SOL    HW2  477   0.448   3.068   0.302  0.3977 -1.9350  0.0953
  160SOL     OW  478   1.370   2.211   0.003  0.5906  0.0815 -0.0405
  160SOL    HW1  479   1.420   2.139   3.053 -2.1171  1.0421 -0.4775
  160SOL    HW2  480   1.421   2.239   0.086 -0.0134 -1.5450  1.4166
  161SOL     OW  481   2.618   1.781   2.452 -0.2519 -0.2185 -0.1348
  161SOL    HW1  482   2.682   1.855   2.468  0.2434 -2.2262 -0.1133
  161SOL    HW2  483   2.530   1.810   2.418  0.8759 -1.0591  0.0693
  162SOL     OW  484   0.025   2.653   1.140 -0.0891 -0.0481  0.5775
  162SOL    HW1  485   0.116   2.608   1.133  0.2775  1.9122 -0.3824
  162SOL    HW2  486   0.033   2.757   1.126  1.8651  0.9827  3.0459
  163SOL     OW  487   1.985   0.358   2.776 -0.2308 -0.9923  0.0729
  163SOL    HW1  488   1.938   0.274   2.799 -2.9096  1.8697 -1.5589
  163SOL    HW2  489   2.071   0.339   2.728  1.4614  0.0795  1.4287
  164SOL     OW  490   2.842   1.851   0.791 -0.4751 -0.2648  0.1257
  164SOL    HW1  491   2.840   1.805   0.700 -1.4529  0.9353 -3.2758
  164SOL    HW2  492   2.750   1.902   0.805  1.1502  1.4051 -0.1171
  165SOL     OW  493   2.568   0.180   1.812 -0.3443  0.2153  0.2752
  165SOL    HW1  494   2.661   0.161   1.769  1.0434 -1.1921  0.3956
  165SOL    HW2  495   2.497   0.209   1.745 -2.0674 -0.9712 -1.8996
  166SOL     OW  496   2.234   0.521   0.785  0.2028  0.0037  0.1738
  166SOL    HW1  497   2.145   0.503   0.734 -0.2823  1.8329  0.8278
  166SOL    HW2  498   2.261   0.446   0.856  2.4652  0.7624 -1.1908
  167SOL     OW  499   0.510   0.253   0.888  0.5501  0.0341 -0.1617
  167SOL    HW1  500   0.483   0.264   0.987  2.1872  1.5563  0.6493
  167SOL    HW2  501   0.605   0.291   0.875  2.7464 -0.5032  0.0241
  168SOL     OW  502   1.826   2.961   2.221  0.2044 -0.0579 -0.2225
  168SOL    HW1  503   1.836   2.860   2.216 -2.6263  1.0318  2.4960
  168SOL    HW2  504   1.865   3.005   2.305  2.4904  0.2691  0.9559
  169SOL     OW  505   0.213   1.131   0.707 -0.2167 -0.3915 -0.0595
  169SOL    HW1  506   0.286   1.205   0.720  1.5460  4.4776 -1.1688
  169SOL    HW2  507   0.159   1.143   0.620  0.2220  1.0999  1.7350
  170SOL     OW  508   2.668   0.671   1.316 -0.4992  0.5701 -0.1234
  170SOL    HW1  509   2.572   0.701   1.297 -1.3188 -2.9536 -2.2287
  170SOL    HW2  510   2.692   0.583   1.266  0.8527 -0.6685 -0.3854
  171SOL     OW  511   0.875   2.437   1.669 -0.6801 -0.6938 -0.5734
  171SOL    HW1  512   0.950   2.392   1.621 -2.6025 -1.4302  0.8241
  171SOL    HW2  513   0.904   2.485   1.757 -2.0941 -0.3547  1.5496
  172SOL     OW  514   0.259   2.492   1.224  0.0935  0.1234 -0.0041
  172SOL    HW1  515   0.272   2.432   1.307  1.0744 -0.4778  1.2253
  172SOL    HW2  516   0.314   2.581   1.238  3.2190  1.0282  2.4679
  173SOL     OW  517   1.402   0.201   2.899  0.6892  0.0243 -0.0516
  173SOL    HW1  518   1.330   0.130   2.919  0.4863 -0.9834  0.3355
  173SOL    HW2  519   1.370   0.295   2.916 -1.3267 -0.6330  1.5888
  174SOL     OW  520   1.468   0.100   2.386  0.1868  0.7079  0.2202
  174SOL    HW1  521   1.445   0.157   2.470 -1.2843  4.1804  2.4483
  174SOL    HW2  522   1.514   0.009   2.410  3.8884 -1.1573 -0.3677
  175SOL     OW  523   1.912   2.565   2.979 -0.0403 -0.0218  0.1054
  175SOL    HW1  524   1.897   2.480   2.921 -0.6969 -0.0441 -0.7174
  175SOL    HW2  525   1.998   2.606   2.944 -0.3216  1.0674 -1.6173
  176SOL     OW  526   1.828   0.132   2.784  0.4507  1.2290  0.6501
  176SOL    HW1  527   1.764   0.135   2.864  1.5929  2.0297  0.5945
  176SOL    HW2  528   1.789   0.177   2.703  1.0071  2.3712  1.2307
  177SOL     OW  529   0.952   1.619   0.291  0.4080  0.6978  0.3851
  177SOL    HW1  530   0.953   1.718   0.316 -2.4971 -0.0698  0.4631
  177SOL    HW2  531   0.889   1.567   0.350  0.7505 -1.5501 -0.8008
  178SOL     OW  532   0.026   2.005   2.564 -0.2070  0.4425  0.1811
  178SOL    HW1  533   3.093   2.021   2.660  1.4285 -0.3007 -0.5745
  178SOL    HW2  534   0.009   1.903   2.540 -1.1805 -2.7489 -3.4210
  179SOL     OW  535   0.765   2.569   2.577 -0.5785  0.3457  0.4067
  179SOL    HW1  536   0.866   2.570   2.601 -0.1468  1.7021  0.0152
  179SOL    HW2  537   0.734   2.665   2.558 -1.6073 -2.2128 -0.1045
  180SOL     OW  538   2.004   1.937   1.446 -0.0355  0.0004 -0.4515
  180SOL    HW1  539   1.956   1.892   1.522 -0.1551  0.7659 -1.9700
  180SOL    HW2  540   2.020   1.877   1.368 -0.8663  1.8195  0.1468
  181SOL     OW  541   1.692   1.254   2.308  0.3770  0.1098  0.0374
  181SOL    HW1  542   1.678   1.186   2.234  3.3293  0.3568  1.3111
  181SOL    HW2  543   1.769   1.229   2.366 -0.7763  0.8465 -0.1988
  182SOL     OW  544   2.519   2.889   2.381  0.9635 -0.2392  0.4347
  182SOL    HW1  545   2.604   2.840   2.407 -3.0114  1.7510 -0.8885
  182SOL    HW2  546   2.489   2.867   2.288  0.2083  0.9275  0.0971
  183SOL     OW  547   1.450   0.702   2.549 -0.2046  0.4941  0.2132
  183SOL    HW1  548   1.511   0.766   2.503 -0.0434  2.0978  1.1543
  183SOL    HW2  549   1.500   0.661   2.630 -1.3529  3.4551 -0.9974
  184SOL     OW  550   0.710   0.961   1.457  0.7694  0.1519  0.0199
  184SOL    HW1  551   0.728   1.061   1.459  2.4407 -0.2049 -1.4484
  184SOL    HW2  552   0.728   0.930   1.360  2.6137  0.1276 -0.3267
  185SOL     OW  553   2.334   0.906   1.057 -0.1619 -0.6863 -0.2024
  185SOL    HW1  554   2.283   0.977   1.111  1.8695 -1.8472 -0.8019
  185SOL    HW2  555   2.409   0.945   1.004  1.0470 -2.6560  0.2689
  186SOL     OW  556   0.571   1.684   2.692  0.8665  0.2666 -0.1276
  186SOL    HW1  557   0.614   1.767   2.738  2.0296  1.6732  0.7775
  186SOL    HW2  558   0.574   1.696   2.591 -2.6342 -2.4785 -2.0968
  187SOL     OW  559   2.551   1.497   0.373  0.1921 -0.6328 -0.3789
  187SOL    HW1  560   2.596   1.405   0.390 -0.2188 -2.4392 -1.4668
  187SOL    HW2  561   2.561   1.517   0.273  0.0019 -2.9046 -1.3354
  188SOL     OW  562   0.191   1.684   0.523  0.0338  0.0295 -0.9723
  188SOL    HW1  563   0.132   1.737   0.582  1.1136 -3.2955 -1.0204
  188SOL    HW2  564   0.280   1.730   0.499  1.1427  1.3733 -0.0346
  189SOL     OW  565   2.522   0.501   0.377 -0.5394 -0.3157 -0.1941
  189SOL    HW1  566   2.438   0.497   0.322  0.1208  0.4871  1.2668
  189SOL    HW2  567   2.587   0.577   0.357  4.8739 -1.9008  0.4077
  190SOL     OW  568   1.090   1.417   2.467  0.1852 -0.0001  0.1880
  190SOL    HW1  569   1.088   1.492   2.402 -1.3423  0.6236 -1.2857
  190SOL    HW2  570   1.180   1.374   2.469 -1.1697  1.1917 -0.0947
  191SOL     OW  571   2.269   0.262   1.959  0.0427 -0.4029 -0.4191
  191SOL    HW1  572   2.275   0.356   2.007  1.6874  2.0379  1.8605
  191SOL    HW2  573   2.224   0.275   1.864  0.6923  0.8302 -0.7711
  192SOL     OW  574   1.887   0.990   1.524  0.0862 -0.1344 -0.5358
  192SOL    HW1  575   1.806   1.054   1.520  0.6708 -0.2224 -0.6776
  192SOL    HW2  576   1.925   0.957   1.433  1.7846 -0.5267 -0.0031
  193SOL     OW  577   0.735   0.439   0.807  0.9293 -0.4047 -0.2267
  193SOL    HW1  578   0.746   0.533   0.762  0.4417  2.3340  0.1254
  193SOL    HW2  579   0.829   0.405   0.832 -0.2740  1.8571  1.0162
  194SOL     OW  580   1.272   2.825   0.701 -0.1349  0.1643 -0.1538
  194SOL    HW1  581   1.364   2.818   0.654  2.3494 -3.0081 -0.3590
  194SOL    HW2  582   1.281   2.858   0.798 -0.3410  1.4027  1.6944
  195SOL     OW  583   2.437   0.621   0.608 -0.4300 -0.1189 -0.4578
  195SOL    HW1  584   2.439   0.565   0.519  1.3090 -2.5939 -0.2394
  195SOL    HW2  585   2.363   0.589   0.670  1.2806  1.5751 -0.1929
  196SOL     OW  586   1.001   1.837   1.358  0.2240  0.5097  0.1805
  196SOL    HW1  587   1.052   1.905   1.300 -1.7470  0.6742 -1.3247
  196SOL    HW2  588   1.055   1.834   1.447  0.8159  2.7181 -0.2609
  197SOL     OW  589   0.368   2.886   0.284  0.2381 -0.1412  0.2878
  197SOL    HW1  590   0.291   2.904   0.354  1.4213  1.5514  3.5062
  197SOL    HW2  591   0.333   2.838   0.199 -1.6286  1.5979 -1.6060
  198SOL     OW  592   0.860   0.963   0.778 -0.1977 -0.1347 -0.2183
  198SOL    HW1  593   0.864   1.041   0.847  1.4814 -1.1610 -1.2227
  198SOL    HW2  594   0.857   0.997   0.682 -3.2174  0.3315  1.7131
  199SOL     OW  595   3.064   0.114   1.698  0.1992  0.1356 -0.0859
  199SOL    HW1  596   3.080   0.199   1.756 -0.8479 -0.1821  1.8472
  199SOL    HW2  597   2.965   0.089   1.707 -0.1232  1.4974  0.5258
  200SOL     OW  598   2.247   1.868   2.931 -0.3460 -0.5174 -0.8158
  200SOL    HW1  599   2.150   1.834   2.956 -4.4408  0.8985 -0.0491
  200SOL    HW2  600   2.270   1.839   2.836 -1.6104 -0.7701  0.4340
  201SOL     OW  601   2.605   2.788   1.021  0.7930 -0.5091 -0.1093
  201SOL    HW1  602   2.500   2.800   1.015 -4.6497  2.3709 -2.7406
  201SOL    HW2  603   2.638   2.788   0.926 -1.4805  2.6053 -0.4764
  202SOL     OW  604   2.841   0.502   0.211  0.2405 -0.2075 -0.4637
  202SOL    HW1  605   2.780   0.504   0.131  1.1386 -0.3944  0.8736
  202SOL    HW2  606   2.819   0.422   0.268 -1.1947 -0.9605 -0.0320
  203SOL     OW  607   1.346   1.531   2.098  0.4247  0.4170 -0.3383
  203SOL    HW1  608   1.322   1.551   2.000 -0.6639 -1.6739 -1.6208
  203SOL    HW2  609   1.279   1.569   2.163  0.7938  0.9391  2.7209
  204SOL     OW  610   0.930   1.454   2.155 -0.4024  0.0488  0.0972
  204SOL    HW1  611   0.998   1.510   2.103  0.4793  2.1367 -0.2044
  204SOL    HW2  612   0.954   1.348   2.165  1.7546 -2.0556 -0.1481
  205SOL     OW  613   1.279   2.099   1.628  0.2832 -0.4344 -0.0961
  205SOL    HW1  614   1.232   2.006   1.614 -1.8050 -1.4995  0.1222
  205SOL    HW2  615   1.361   2.102   1.568 -0.8823 -0.2714 -2.7864
  206SOL     OW  616   0.074   0.319   2.798  0.0824 -0.0035 -0.6784
  206SOL    HW1  617   0.172   0.298   2.790 -0.6630 -0.5652  0.1117
  206SOL    HW2  618   0.024   0.237   2.761  0.3972  1.1809  0.5629
  207SOL     OW  619   1.576   2.987   2.127  0.3201 -0.5429 -0.0047
  207SOL    HW1  620   1.527   3.077   2.140  0.9367 -0.9563  3.2753
  207SOL    HW2  621   1.674   2.998   2.167  3.2769  0.2782  1.8663
  208SOL     OW  622   0.715   2.115   1.913  0.3837 -0.1184 -0.1746
  208SOL    HW1  623   0.796   2.072   1.869  1.9135  1.0394 -0.6326
  208SOL    HW2  624   0.681   2.186   1.844  1.0086  1.4532 -0.4076
  209SOL     OW  625   1.906   1.256   2.949 -0.4506 -0.0001  0.4025
  209SOL    HW1  626   1.865   1.317   2.879 -0.2404  1.9211 -3.5822
  209SOL    HW2  627   1.864   1.162   2.952 -1.8769 -0.6959  3.5721
  210SOL     OW  628   2.895   0.411   0.912 -0.1244 -0.0554 -0.1488
  210SOL    HW1  629   2.935   0.433   0.825  0.9337  1.3500  4.8383
  210SOL    HW2  630   2.814   0.474   0.936 -1.6644  2.3130 -0.3774
  211SOL     OW  631   0.794   1.207   1.051 -0.1819  0.2203 -0.0057
  211SOL    HW1  632   0.774   1.245   0.959  1.1301  2.1705  1.3904
  211SOL    HW2  633   0.865   1.266   1.097  2.6050 -3.4255  2.0486
  212SOL     OW  634   1.008   1.834   0.671 -0.6182 -0.0178 -0.3121
  212SOL    HW1  635   1.028   1.813   0.769 -1.5080 -0.6592 -1.2048
  212SOL    HW2  636   1.078   1.786   0.609 -0.1286  2.1734  0.4785
  213SOL     OW  637   1.548   0.164   1.678  0.7906  0.2604 -0.1569
  213SOL    HW1  638   1.597   0.095   1.614  0.8848 -1.8199 -0.4981
  213SOL    HW2  639   1.614   0.218   1.732 -0.1432 -1.3302  0.1864
  214SOL     OW  640   1.492   1.631   2.530 -0.0385  0.1266 -0.6654
  214SOL    HW1  641   1.415   1.596   2.476 -1.5651  1.3814 -0.0941
  214SOL    HW2  642   1.469   1.678   2.618  1.7860  0.5268  1.6766
  215SOL     OW  643   0.231   1.756   1.186 -0.2740 -0.0959 -0.1647
  215SOL    HW1  644   0.169   1.764   1.110  3.2638 -1.2290  1.8761
  215SOL    HW2  645   0.319   1.804   1.171 -1.9649 -1.5191 -0.3435
  216SOL     OW  646   0.592   2.994   2.187  0.5049  0.2074  0.2990
  216SOL    HW1  647   0.651   3.060   2.133  0.0536 -1.1996  2.7871
  216SOL    HW2  648   0.572   3.032   2.279  0.2177  3.0714 -0.7488
  217SOL     OW  649   2.234   0.314   2.939 -0.0876 -0.6118 -0.1680
  217SOL    HW1  650   2.252   0.318   2.838  1.4782  3.7674  0.8440
  217SOL    HW2  651   2.242   0.404   2.989 -1.9375 -2.0356  2.4921
  218SOL     OW  652   2.027   1.808   2.123 -0.1295 -0.1705  1.0193
  218SOL    HW1  653   1.951   1.877   2.132 -2.1937  0.6741 -1.5273
  218SOL    HW2  654   2.109   1.850   2.083 -3.2254  0.1531 -0.8910
  219SOL     OW  655   1.638   1.225   0.370  0.7555  0.4920 -0.5361
  219SOL    HW1  656   1.691   1.312   0.384 -3.4088  0.6733 -1.0798
  219SOL    HW2  657   1.702   1.146   0.360  0.8494  0.9012 -2.6286
  220SOL     OW  658   1.372   1.997   1.108  0.2486  0.2634 -0.1215
  220SOL    HW1  659   1.384   2.014   1.210 -0.6667  2.5362  0.5166
  220SOL    HW2  660   1.382   2.087   1.060 -3.3025  1.3690  2.3800
  221SOL     OW  661   0.042   0.479   3.024  0.0329  0.4927  0.1745
  221SOL    HW1  662   3.087   0.563   3.015  2.3138 -0.2393  0.7568
  221SOL    HW2  663   0.041   0.422   2.941 -0.1543  1.2454  0.5876
  222SOL     OW  664   1.029   2.720   1.476  0.0921 -0.6880 -0.4068
  222SOL    HW1  665   1.085   2.641   1.506 -1.7520  2.2089  2.0818
  222SOL    HW2  666   0.988   2.710   1.385  0.6335 -2.2242  0.9952
  223SOL     OW  667   1.354   2.867   2.684 -0.2911  0.2387  0.1107
  223SOL    HW1  668   1.389   2.939   2.746  0.2005  0.5605  2.0148
  223SOL    HW2  669   1.367   2.906   2.594  1.8133 -1.3735  1.7425
  224SOL     OW  670   2.560   1.107   1.272 -0.5020 -0.1126 -0.0077
  224SOL    HW1  671   2.504   1.039   1.322  1.0545  0.8356 -0.5316
  224SOL    HW2  672   2.655   1.114   1.317  1.7313 -0.5864  1.1983
  225SOL     OW  673   0.853   1.213   1.458 -0.2232  0.2199 -0.3754
  225SOL    HW1  674   0.889   1.182   1.550  3.0318 -1.3981 -0.0015
  225SOL    HW2  675   0.925   1.216   1.382 -0.1283  0.6582 -1.0923
  226SOL     OW  676   1.454   2.671   2.883  0.2530 -0.3892 -0.6799
  226SOL    HW1  677   1.424   2.747   2.823 -1.2051 -0.3363  2.4782
  226SOL    HW2  678   1.462   2.591   2.824  1.9345  0.4217  0.6805
  227SOL     OW  679   0.712   2.154   1.059  0.5868 -0.2654 -0.9266
  227SOL    HW1  680   0.712   2.203   0.973 -2.2910 -1.0815  0.8123
  227SOL    HW2  681   0.715   2.215   1.145  1.1413  0.7358  2.1763
  228SOL     OW  682   0.440   2.239   1.252 -0.0724  0.3578  0.3777
  228SOL    HW1  683   0.419   2.323   1.205  2.4218 -2.6435 -0.1789
  228SOL    HW2  684   0.541   2.244   1.284  1.0243  0.2654  1.6598
  229SOL     OW  685   2.392   1.294   0.188  0.5162  0.3518  0.3007
  229SOL    HW1  686   2.360   1.238   0.270 -3.2757 -0.6000  1.3457
  229SOL    HW2  687   2.332   1.379   0.170  0.6451 -0.6390  0.6636
  230SOL     OW  688   1.012   1.203   2.208 -0.2356 -0.0887 -0.4840
  230SOL    HW1  689   0.928   1.149   2.237  0.9640 -1.7731  0.5501
  230SOL    HW2  690   1.091   1.184   2.280 -0.6012  0.3676  1.8140
  231SOL     OW  691   1.584   2.019   1.674  0.2764  0.3596 -0.2856
  231SOL    HW1  692   1.667   2.040   1.724  0.1011 -2.1660 -0.8535
  231SOL    HW2  693   1.536   1.946   1.728  1.0815  0.7240 -0.4964
  232SOL     OW  694   2.034   2.355   1.105 -0.2362  0.0918 -0.5316
  232SOL    HW1  695   1.937   2.374   1.140 -2.6639 -0.5536  1.0543
  232SOL    HW2  696   2.044   2.293   1.025  0.1452  0.5777  0.6364
  233SOL     OW  697   1.515   2.456   2.715  0.0109  0.5845 -0.4131
  233SOL    HW1  698   1.603   2.420   2.674 -1.1209 -1.1788 -1.1224
  233SOL    HW2  699   1.434   2.432   2.655  0.2446 -1.0573  0.3214
  234SOL     OW  700   0.984   0.005   2.836 -0.1195 -0.0120 -0.4442
  234SOL    HW1  701   0.987   0.094   2.792 -2.3966  1.4030 -1.6556
  234SOL    HW2  702   0.947   3.032   2.775 -0.9482  3.4951  1.6093
  235SOL     OW  703   2.768   2.598   3.082  0.0968 -0.2546 -0.3945
  235SOL    HW1  704   2.800   2.647   0.061 -0.5016  1.2941 -2.2243
  235SOL    HW2  705   2.684   2.548   3.098 -1.3050  0.8652  0.4144
  236SOL     OW  706   2.140   2.324   2.232  0.3890 -0.3947 -0.5199
  236SOL    HW1  707   2.240   2.332   2.213 -0.5570 -1.1760  0.1431
  236SOL    HW2  708   2.126   2.309   2.334  2.8361  0.7915  0.6507
  237SOL     OW  709   1.580   1.224   1.298 -0.1962 -0.5642 -0.4081
  237SOL    HW1  710   1.563   1.128   1.280  0.6201  2.8778  4.4649
  237SOL    HW2  711   1.505   1.260   1.354  2.8501 -5.0520  1.0333
  238SOL     OW  712   1.986   0.176   2.344 -0.0546 -0.2486 -0.5354
  238SOL    HW1  713   1.993   0.159   2.243  0.6458  0.2202 -0.2878
  238SOL    HW2  714   1.938   0.103   2.394 -0.9134 -5.4493  1.6944
  239SOL     OW  715   0.628   1.647   1.938  0.5186  0.0633  0.0232
  239SOL    HW1  716   0.569   1.663   1.857  2.7388  3.2911  3.8589
  239SOL    HW2  717   0.626   1.549   1.984 -3.3590  0.7621 -0.2140
  240SOL     OW  718   0.064   2.119   0.463 -0.3915  0.5741  0.0426
  240SOL    HW1  719   0.033   2.152   0.553  0.1126 -0.9017  0.8631
  240SOL    HW2  720   0.148   2.163   0.428  1.9093 -1.8950 -1.1943
  241SOL     OW  721   1.812   2.046   0.874  0.1131 -0.2653 -0.0259
  241SOL    HW1  722   1.822   1.963   0.936 -3.0998 -1.2555 -0.0309
  241SOL    HW2  723   1.790   2.013   0.779  0.3708 -1.0905 -0.8798
  242SOL     OW  724   1.441   1.451   0.175 -0.2308 -0.1709  0.2466
  242SOL    HW1  725   1.527   1.396   0.166  0.3410  2.3337  1.5962
  242SOL    HW2  726   1.429   1.507   0.089  2.9644  1.8079 -0.7965
  243SOL     OW  727   0.752   2.802   2.058  0.1543 -0.0442  0.3487
  243SOL    HW1  728   0.680   2.862   2.104 -1.0515  0.4924 -0.0189
  243SOL    HW2  729   0.711   2.796   1.965 -2.0591  1.7622  0.2486
  244SOL     OW  730   1.732   2.878   2.701  0.0532  0.7069 -0.5282
  244SOL    HW1  731   1.639   2.894   2.738  1.4146  2.5193  1.3221
  244SOL    HW2  732   1.725   2.806   2.629 -0.2983 -0.1068 -1.3925
  245SOL     OW  733   1.431   2.953   0.107  0.1974  0.2287 -0.2822
  245SOL    HW1  734   1.529   2.932   0.096 -0.6790  1.9819 -2.1595
  245SOL    HW2  735   1.415   3.057   0.119 -0.5173  2.2068  3.0606
  246SOL     OW  736   1.227   3.078   2.953  0.3617  0.2918  0.0001
  246SOL    HW1  737   1.157   3.096   2.880 -1.2263  1.5414  0.1267
  246SOL    HW2  738   1.185   3.005   3.009 -2.2170  0.1367 -1.1818
  247SOL     OW  739   3.037   0.671   2.091 -0.1030  0.4781 -0.7768
  247SOL    HW1  740   3.084   0.717   2.166 -3.4806 -2.4097  0.2932
  247SOL    HW2  741   2.977   0.589   2.119 -0.5993  2.5766  0.9469
  248SOL     OW  742   0.786   1.010   2.253 -0.3346 -0.0579  0.8105
  248SOL    HW1  743   0.779   0.991   2.352 -0.0855 -1.0561 -0.2252
  248SOL    HW2  744   0.849   0.939   2.217  0.1022 -1.7239  0.4304
  249SOL     OW  745   2.288   0.451   0.234 -0.1615 -0.6792 -0.3038
  249SOL    HW1  746   2.234   0.515   0.167 -5.0001  0.4947  0.2153
  249SOL    HW2  747   2.303   0.362   0.189 -0.5312  1.1543  0.7084
  250SOL     OW  748   0.601   0.379   0.576  0.0807  0.2956  0.0200
  250SOL    HW1  749   0.658   0.352   0.495 -0.2331  2.4662 -1.5324
  250SOL    HW2  750   0.652   0.382   0.667  2.6582 -0.2653  0.6174
  251SOL     OW  751   1.039   0.215   2.660 -0.2696  0.0428  0.4583
  251SOL    HW1  752   1.066   0.304   2.690 -0.7482 -0.9215 -1.7901
  251SOL    HW2  753   1.110   0.178   2.601 -4.0781  0.1726  0.6934
  252SOL     OW  754   1.610   1.789   2.087  0.2947  0.2623  0.2344
  252SOL    HW1  755   1.670   1.867   2.061  0.0615  3.4212 -0.1531
  252SOL    HW2  756   1.652   1.710   2.138  0.2861  0.8113 -1.9000
  253SOL     OW  757   2.231   2.657   1.963  0.0673  0.0750  0.0391
  253SOL    HW1  758   2.246   2.707   1.873  1.8876  1.0397 -1.3226
  253SOL    HW2  759   2.306   2.588   1.972 -0.7695  1.4905  1.7165
  254SOL     OW  760   1.062   2.192   1.904  0.3758 -0.2454 -0.4323
  254SOL    HW1  761   1.160   2.220   1.907 -0.4103  0.3614 -0.6526
  254SOL    HW2  762   1.003   2.271   1.870 -0.2243 -3.1021  0.5662
  255SOL     OW  763   1.097   0.852   0.773 -0.6789  0.2052  0.1365
  255SOL    HW1  764   1.010   0.891   0.809  0.6534 -0.5362  2.4739
  255SOL    HW2  765   1.086   0.781   0.699  2.3465 -5.0394 -1.7282
  256SOL     OW  766   1.806   1.999   2.115  0.0081  0.4349  0.3010
  256SOL    HW1  767   1.884   2.061   2.086  0.8484  1.1475  3.3611
  256SOL    HW2  768   1.767   2.038   2.197 -0.1134 -0.4931  0.1486
  257SOL     OW  769   0.650   2.361   2.692 -0.0963  0.6954  0.3945
  257SOL    HW1  770   0.693   2.442   2.649 -1.0043 -1.0913  0.6154
  257SOL    HW2  771   0.554   2.386   2.717 -0.0530 -0.3864  2.6234
  258SOL     OW  772   0.687   0.358   2.287 -0.1250  0.5596 -0.1198
  258SOL    HW1  773   0.704   0.452   2.313  2.3027 -0.7606 -0.1830
  258SOL    HW2  774   0.769   0.320   2.239  4.5606 -0.5584  0.4598
  259SOL     OW  775   0.773   0.599   2.389  0.0368  0.2100  0.1149
  259SOL    HW1  776   0.765   0.602   2.490 -3.1154  2.0987  0.0224
  259SOL    HW2  777   0.863   0.617   2.351 -3.7756 -3.2122  0.0334
  260SOL     OW  778   1.345   0.662   0.564 -0.0129 -0.1705 -0.5789
  260SOL    HW1  779   1.244   0.638   0.552 -4.2251 -2.0350 -1.4720
  260SOL    HW2  780   1.371   0.762   0.579  1.5624  1.7504  0.0043
  261SOL     OW  781   0.538   2.920   2.722 -0.1077 -0.2615 -0.6778
  261SOL    HW1  782   0.564   2.830   2.760  1.9136 -1.1066 -0.2217
  261SOL    HW2  783   0.570   2.927   2.626  0.3554  0.3791 -3.3360
  262SOL     OW  784   2.325   2.927   2.766 -0.7579  0.0517  0.7061
  262SOL    HW1  785   2.390   2.958   2.837 -3.5865 -1.7365 -1.8438
  262SOL    HW2  786   2.230   2.964   2.779  0.2520  0.5630  0.6017
  263SOL     OW  787   0.275   1.881   2.599 -0.9065  0.0677  0.5202
  263SOL    HW1  788   0.194   1.941   2.602  2.3767  2.1732  0.1917
  263SOL    HW2  789   0.260   1.783   2.604 -0.4654  1.1093  1.3540
  264SOL     OW  790   0.558   1.338   1.208 -0.0255  0.0562 -0.2647
  264SOL    HW1  791   0.541   1.417   1.147  0.2773 -1.5421  0.7662
  264SOL    HW2  792   0.626   1.277   1.166 -0.1257  1.4583  0.6500
  265SOL     OW  793   0.355   1.648   0.028 -0.0039 -0.3393 -0.5163
  265SOL    HW1  794   0.255   1.637   0.020 -0.6571  0.0855  3.1545
  265SOL    HW2  795   0.407   1.572   3.087  0.7945  0.6817  2.7362
  266SOL     OW  796   1.310   1.311   0.552  0.3448  0.0327  0.1925
  266SOL    HW1  797   1.243   1.324   0.631  1.0931  0.8644 -0.5652
  266SOL    HW2  798   1.390   1.265   0.586 -2.3686  2.1026 -1.0463
  267SOL     OW  799   2.520   0.928   3.056  0.1410  0.1028 -0.4912
  267SOL    HW1  800   2.518   0.870   2.972  1.8293  0.8041  0.9754
  267SOL    HW2  801   2.460   0.889   0.032 -0.5147  0.5995  1.4982
  268SOL     OW  802   2.906   2.996   2.852  0.6645  0.1243  0.0887
  268SOL    HW1  803   2.947   3.081   2.813  0.2936 -0.3614 -3.6481
  268SOL    HW2  804   2.897   2.930   2.775  2.6598  1.1631  0.1905
  269SOL     OW  805   1.713   0.223   2.567 -0.3737 -0.0836  0.1204
  269SOL    HW1  806   1.725   0.326   2.563 -1.2847  1.4098  1.1687
  269SOL    HW2  807   1.622   0.195   2.527  1.1503 -3.4587 -0.0933
  270SOL     OW  808   0.824   0.977   2.524  0.2222 -0.0806 -0.2276
  270SOL    HW1  809   0.727   0.988   2.561 -1.4686 -0.0330  1.3174
  270SOL    HW2  810   0.892   1.048   2.546  0.5456 -1.0684 -2.0974
  271SOL     OW  811   2.633   1.053   0.222  0.0989  0.0137  0.2191
  271SOL    HW1  812   2.566   1.070   0.142 -1.2632 -0.2747  1.0999
  271SOL    HW2  813   2.592   1.084   0.312 -2.3693 -0.4290 -0.9461
  272SOL     OW  814   2.775   1.852   2.737  0.0404  0.0973  0.2305
  272SOL    HW1  815   2.718   1.921   2.783 -0.1592 -1.2907  0.6754
  272SOL    HW2  816   2.809   1.889   2.648  0.0607 -1.8749 -0.8802
  273SOL     OW  817   2.148   0.640   0.115  0.5728 -0.4931  0.3403
  273SOL    HW1  818   2.068   0.634   0.176 -0.0402 -0.2120 -0.4696
  273SOL    HW2  819   2.115   0.673   0.022  0.0631  0.3147  2.2479
  274SOL     OW  820   0.229   2.370   0.986 -0.3304  0.3190 -0.0740
  274SOL    HW1  821   0.299   2.418   0.929  0.8099  2.2487 -2.1835
  274SOL    HW2  822   0.234   2.392   1.084  2.1181 -2.8348 -1.4695
  275SOL     OW  823   2.484   1.404   0.851 -0.1542  0.0372  0.0049
  275SOL    HW1  824   2.578   1.385   0.812  0.2595 -2.7341 -0.7538
  275SOL    HW2  825   2.429   1.314   0.861  0.1406 -2.8907  0.8665
  276SOL     OW  826   0.218   1.175   2.688 -0.6670  0.5624 -0.5431
  276SOL    HW1  827   0.312   1.177   2.643  1.7783 -0.1705 -3.6558
  276SOL    HW2  828   0.140   1.176   2.619 -1.8260  0.0180  0.4603
  277SOL     OW  829   1.609   2.603   1.327  0.1510  0.1102 -0.0594
  277SOL    HW1  830   1.639   2.659   1.406  2.9252  0.4522 -0.9264
  277SOL    HW2  831   1.688   2.545   1.290  2.1129  1.3337 -0.0937
  278SOL     OW  832   1.288   0.482   1.806  0.5351 -0.4190 -0.3131
  278SOL    HW1  833   1.214   0.422   1.840  0.4162  0.5660  2.7744
  278SOL    HW2  834   1.332   0.449   1.720 -1.6577 -0.3413  1.1632
  279SOL     OW  835   1.579   1.737   0.689  0.4666  0.2288  0.6852
  279SOL    HW1  836   1.580   1.772   0.785  0.2324 -2.7718  0.3745
  279SOL    HW2  837   1.615   1.645   0.686 -2.5787 -1.0917  1.1280
  280SOL     OW  838   0.649   1.755   0.739 -0.7522 -0.0162 -0.1733
  280SOL    HW1  839   0.700   1.830   0.692  1.0634 -0.7934 -0.9136
  280SOL    HW2  840   0.614   1.791   0.827 -1.6841 -0.4294 -0.3235
  281SOL     OW  841   3.024   0.112   2.701 -0.4787  0.5079 -0.1571
  281SOL    HW1  842   2.955   0.178   2.686  0.6543 -3.1644  2.0909
  281SOL    HW2  843   3.054   0.067   2.616  0.0847  3.0580  1.7881
  282SOL     OW  844   0.418   0.951   0.776 -0.0964  0.3943 -0.3406
  282SOL    HW1  845   0.501   1.012   0.781  1.1091  0.7171 -1.0589
  282SOL    HW2  846   0.338   1.009   0.754 -1.3697 -0.0871  1.6288
  283SOL     OW  847   1.904   1.984   0.350 -0.1280  0.6196 -0.0386
  283SOL    HW1  848   2.004   2.011   0.364  1.5473  0.2541 -1.2523
  283SOL    HW2  849   1.867   2.009   0.261  2.2463  1.2520  1.4853
  284SOL     OW  850   1.213   1.222   0.319  0.3392 -0.0565  0.7183
  284SOL    HW1  851   1.235   1.266   0.403  0.4144  1.0510 -4.9656
  284SOL    HW2  852   1.302   1.196   0.275 -0.1025 -2.0584  0.5016
  285SOL     OW  853   2.329   0.603   2.669  0.0340 -0.0525  0.3421
  285SOL    HW1  854   2.396   0.654   2.729  2.5682 -2.0445 -1.2671
  285SOL    HW2  855   2.300   0.662   2.592  0.1029 -1.0008 -1.4354
  286SOL     OW  856   1.242   3.076   1.115 -0.0414  0.3429  0.9377
  286SOL    HW1  857   1.149   3.052   1.138 -1.1058 -0.7835  0.4375
  286SOL    HW2  858   1.288   0.024   1.193  1.4831 -0.3261  0.1726
  287SOL     OW  859   1.028   1.416   1.061  0.0736 -0.7363 -0.1067
  287SOL    HW1  860   1.110   1.461   1.016  3.3442  3.0564  0.0388
  287SOL    HW2  861   0.947   1.482   1.061  0.2767  1.1193 -0.7938
  288SOL     OW  862   1.480   2.995   2.902  0.5960 -0.1252 -0.6054
  288SOL    HW1  863   1.546   3.055   2.947 -0.8423  0.3456  1.0846
  288SOL    HW2  864   1.391   3.009   2.948  0.3966 -0.1198 -0.9940
  289SOL     OW  865   0.197   1.684   2.334 -0.5283 -0.3415  0.8141
  289SOL    HW1  866   0.164   1.699   2.240 -0.7385  0.5531 -1.2003
  289SOL    HW2  867   0.127   1.722   2.394 -1.7685  0.7181 -2.0398
  290SOL     OW  868   1.719   2.305   0.963  0.0809  0.0423  0.2626
  290SOL    HW1  869   1.749   2.392   0.914  2.3516  0.3500 -0.3206
  290SOL    HW2  870   1.755   2.221   0.916 -0.5504  2.6155  1.0352
  291SOL     OW  871   2.381   2.082   3.031  0.2746  0.5402  0.0759
  291SOL    HW1  872   2.325   2.157   3.074  3.3105 -1.4249  1.6868
  291SOL    HW2  873   2.325   2.017   2.977 -2.8436  1.9456  3.8116
  292SOL     OW  874   0.933   0.828   2.128  0.2102  0.1295  0.3987
  292SOL    HW1  875   0.973   0.747   2.171  2.4355  1.0771 -0.3364
  292SOL    HW2  876   0.982   0.859   2.045 -1.5117  0.7500  0.5994
  293SOL     OW  877   2.113   2.870   0.854  0.3098 -0.2820  0.0869
  293SOL    HW1  878   2.095   2.971   0.825  0.5447  1.3517  1.7291
  293SOL    HW2  879   2.126   2.820   0.767  0.9847  1.4370  3.7147
  294SOL     OW  880   0.279   0.334   2.531 -0.5727 -0.0060 -0.4442
  294SOL    HW1  881   0.307   0.421   2.571  2.7943  2.1098  0.3776
  294SOL    HW2  882   0.352   0.313   2.466 -2.7012 -0.7962  1.9820
  295SOL     OW  883   1.398   1.900   0.580  0.0562  0.3348 -0.0590
  295SOL    HW1  884   1.472   1.842   0.622 -0.5416  2.0033  1.5812
  295SOL    HW2  885   1.316   1.843   0.551 -1.2840 -1.5051 -1.0227
  296SOL     OW  886   2.597   1.774   0.418  0.1788 -0.2023 -0.2293
  296SOL    HW1  887   2.633   1.756   0.327  0.2791  0.0573  0.6337
  296SOL    HW2  888   2.579   1.682   0.457  1.0011  1.2250  1.2411
  297SOL     OW  889   2.031   0.307   0.062 -0.2268  0.5568 -0.4328
  297SOL    HW1  890   2.001   0.237   0.128  0.0791 -3.9729  2.8918
  297SOL    HW2  891   2.109   0.273   0.009 -2.1734  1.4840 -0.4608
  298SOL     OW  892   1.306   2.351   2.221 -0.1753 -0.1415 -0.0838
  298SOL    HW1  893   1.235   2.291   2.266  0.9552 -0.2284 -1.4443
  298SOL    HW2  894   1.379   2.289   2.188 -1.6192 -1.0039  0.6162
  299SOL     OW  895   1.267   2.633   2.552 -0.3706 -0.1464 -0.0002
  299SOL    HW1  896   1.293   2.720   2.601 -1.6157 -1.9954 -0.4429
  299SOL    HW2  897   1.349   2.590   2.513 -1.0334 -0.9077 -0.8225
  300SOL     OW  898   2.079   3.059   2.776  0.0432  0.2003 -0.1473
  300SOL    HW1  899   2.030   0.036   2.739  2.9624  0.7686 -0.2127
  300SOL    HW2  900   2.132   3.087   2.857  1.6549 -1.2861  0.1875
  301SOL     OW  901   1.365   1.320   1.420 -0.4899  0.4182 -0.6242
  301SOL    HW1  902   1.322   1.233   1.455 -1.5438  0.6483  0.7404
  301SOL    HW2  903   1.302   1.396   1.451  0.8219  3.7060  1.9200
  302SOL     OW  904   2.560   2.523   0.283  0.6200 -0.0951  0.1340
  302SOL    HW1  905   2.663   2.511   0.298 -0.9674 -0.8448  1.2298
  302SOL    HW2  906   2.530   2.475   0.198  0.3503 -2.0387 -0.3462
  303SOL     OW  907   2.874   2.328   2.465  0.6080  0.1949  0.3541
  303SOL    HW1  908   2.842   2.418   2.433 -1.3217  0.7042 -0.3960
  303SOL    HW2  909   2.966   2.302   2.421 -0.1813 -0.3501 -0.3584
  304SOL     OW  910   2.779   0.599   1.946  0.0605  0.3204 -0.1714
  304SOL    HW1  911   2.783   0.670   1.874 -1.2253 -0.7662  1.4076
  304SOL    HW2  912   2.779   0.636   2.040 -0.6322 -2.3232 -4.4921
  305SOL     OW  913   0.898   1.966   1.818 -0.2121 -0.1520  0.5033
  305SOL    HW1  914   0.928   1.871   1.839  0.9882  2.3909 -2.7925
  305SOL    HW2  915   0.984   2.023   1.827  1.8903  0.7051 -0.0582
  306SOL     OW  916   2.761   0.797   1.755  0.0072 -0.2749 -0.3186
  306SOL    HW1  917   2.785   0.816   1.656  0.3544  0.8098  0.5776
  306SOL    HW2  918   2.792   0.874   1.811  1.5802 -1.6349  0.0684
  307SOL     OW  919   1.437   1.150   1.944  0.4740 -0.5556  0.2365
  307SOL    HW1  920   1.341   1.156   1.980 -1.3111 -1.3697 -0.7815
  307SOL    HW2  921   1.437   1.087   1.860 -0.7031  2.8605 -0.6581
  308SOL     OW  922   2.594   1.610   0.999 -0.7020 -0.1500  0.1975
  308SOL    HW1  923   2.518   1.657   1.044 -0.8256 -1.0014 -0.2755
  308SOL    HW2  924   2.560   1.525   0.952 -1.0198 -0.3615 -0.7873
  309SOL     OW  925   2.309   1.524   1.353  0.2939 -0.3064  0.0334
  309SOL    HW1  926   2.313   1.585   1.434  1.5841  0.4591  0.1298
  309SOL    HW2  927   2.399   1.484   1.329 -0.0667  1.0160  3.1859
  310SOL     OW  928   2.748   1.551   2.386 -0.0139  1.3023 -0.2441
  310SOL    HW1  929   2.676   1.621   2.413 -0.5085 -0.1950 -0.6390
  310SOL    HW2  930   2.829   1.557   2.440 -1.2847  0.9173  0.9892
  311SOL     OW  931   0.121   2.250   2.988  0.5639  0.4094  0.1578
  311SOL    HW1  932   0.093   2.279   3.085  1.5406  0.7075 -0.9482
  311SOL    HW2  933   0.093   2.156   2.973  1.5695  4.5769  2.5274
  312SOL     OW  934   2.274   1.568   0.948 -0.5066  0.0946 -0.1676
  312SOL    HW1  935   2.335   1.490   0.923 -2.3526  2.4406  2.9601
  312SOL    HW2  936   2.319   1.636   1.010 -0.0950  0.5561  0.4724
  313SOL     OW  937   2.476   0.143   1.175  0.3294 -0.7070  0.3497
  313SOL    HW1  938   2.459   0.088   1.092  1.3457  0.5200  3.0178
  313SOL    HW2  939   2.401   0.212   1.189 -0.4133 -0.2226 -0.3378
  314SOL     OW  940   1.184   1.765   0.459  0.4946  0.3925 -0.2500
  314SOL    HW1  941   1.163   1.799   0.364 -0.6891  1.2525  2.0413
  314SOL    HW2  942   1.254   1.688   0.453  0.5427 -0.4842  2.1511
  315SOL     OW  943   1.131   2.540   2.108 -0.3003  0.0610  0.1216
  315SOL    HW1  944   1.086   2.591   2.186  1.3809 -2.3742  0.5350
  315SOL    HW2  945   1.216   2.490   2.146  1.0822  0.7371  0.3998
  316SOL     OW  946   2.874   1.177   0.234 -0.5521  0.1564 -0.1028
  316SOL    HW1  947   2.959   1.122   0.217  3.3761  0.0603 -0.0645
  316SOL    HW2  948   2.790   1.119   0.221  1.0701 -3.0117  1.3429
  317SOL     OW  949   0.799   0.323   0.393 -0.0686 -0.3587  0.3129
  317SOL    HW1  950   0.752   0.288   0.308 -1.8143  0.0226 -1.3081
  317SOL    HW2  951   0.875   0.263   0.414 -2.0760 -0.0415  0.7389
  318SOL     OW  952   2.802   2.504   0.473 -0.0913  0.3428  0.9304
  318SOL    HW1  953   2.864   2.584   0.496 -0.1825  0.5165  0.2939
  318SOL    HW2  954   2.790   2.444   0.554  3.4419 -2.1105  1.0154
  319SOL     OW  955   0.737   1.328   2.505  0.2984  0.0870 -1.0960
  319SOL    HW1  956   0.692   1.356   2.593  0.0926  0.2948 -2.8798
  319SOL    HW2  957   0.812   1.261   2.534  0.7155 -3.8163  2.1297
  320SOL     OW  958   0.651   2.331   1.761 -0.0344 -0.5315  0.1985
  320SOL    HW1  959   0.731   2.393   1.737 -2.6421 -1.0919  0.6361
  320SOL    HW2  960   0.573   2.389   1.797  0.1701 -1.9813 -0.1865
  321SOL     OW  961   1.611   2.347   2.993 -0.1206  0.0296  1.0185
  321SOL    HW1  962   1.549   2.344   2.913  0.4500  0.4402  0.8803
  321SOL    HW2  963   1.560   2.391   3.070  0.1032 -1.0092 -2.8001
  322SOL     OW  964   2.810   1.029   1.903  0.4832 -0.0869 -0.0958
  322SOL    HW1  965   2.782   1.117   1.933  1.8035 -1.0415  0.3721
  322SOL    HW2  966   2.871   0.984   1.968 -0.5892  0.4601 -0.1448
  323SOL     OW  967   2.425   0.901   0.766  0.4484  0.0091  0.4612
  323SOL    HW1  968   2.453   0.811   0.724  2.5447 -2.6694 -0.7956
  323SOL    HW2  969   2.367   0.961   0.702 -3.0155  1.4307 -1.7459
  324SOL     OW  970   0.351   2.805   3.029 -0.3617 -0.4691  0.7912
  324SOL    HW1  971   0.433   2.823   2.970  0.7712  0.8249 -0.6332
  324SOL    HW2  972   0.291   2.738   2.979  0.6583  0.3828 -2.6711
  325SOL     OW  973   1.306   0.456   2.207  0.4887  0.1108  0.0642
  325SOL    HW1  974   1.405   0.432   2.184 -0.2800  3.2679 -0.9550
  325SOL    HW2  975   1.249   0.371   2.208  0.5749  1.2381  3.5148
  326SOL     OW  976   2.410   2.645   1.664 -0.2420  0.1359  0.2729
  326SOL    HW1  977   2.514   2.642   1.657 -0.4911 -0.4305  0.9895
  326SOL    HW2  978   2.378   2.554   1.690 -0.2499 -1.2327 -0.9318
  327SOL     OW  979   1.987   0.586   2.923 -0.1277  0.3688  0.3064
  327SOL    HW1  980   1.908   0.581   2.983  2.9241  0.0767 -3.0452
  327SOL    HW2  981   1.991   0.504   2.860  1.9039 -0.6057 -1.1017
  328SOL     OW  982   2.739   1.046   2.270  0.0901  0.0366  0.1528
  328SOL    HW1  983   2.659   1.100   2.236 -3.6537 -0.8783 -1.1954
  328SOL    HW2  984   2.696   0.980   2.336  1.1674  1.3122 -2.0656
  329SOL     OW  985   1.214   0.091   1.980 -0.0207 -0.6717  0.0147
  329SOL    HW1  986   1.201   0.034   1.902 -1.9028  2.0258  3.0984
  329SOL    HW2  987   1.308   0.083   2.018 -1.5412  0.7056 -0.3491
  330SOL     OW  988   2.832   1.865   1.416 -0.6806 -0.0104 -0.3977
  330SOL    HW1  989   2.909   1.936   1.404  1.4315  0.8649  1.8510
  330SOL    HW2  990   2.850   1.789   1.350  0.1314 -2.1744  1.5611
  331SOL     OW  991   0.632   1.387   2.050  0.1776  0.4904 -0.4916
  331SOL    HW1  992   0.588   1.338   2.129  0.8494  2.2499  0.9556
  331SOL    HW2  993   0.725   1.412   2.070 -1.9821 -1.9182 -3.6778
  332SOL     OW  994   0.163   2.817   1.477 -0.5573  0.3369  0.2042
  332SOL    HW1  995   0.176   2.858   1.567 -2.0155 -1.0650 -1.2224
  332SOL    HW2  996   0.080   2.851   1.429  0.9082 -0.4510  0.0317
  333SOL     OW  997   2.315   2.879   1.778 -0.0501  0.1000  0.1464
  333SOL    HW1  998   2.391   2.919   1.828  0.8716 -0.8634 -0.5099
  333SOL    HW2  999   2.356   2.812   1.720  1.1893  1.9596  0.6172
  334SOL     OW 1000   0.936   2.024   0.961  0.4634 -0.2232  0.6978
  334SOL    HW1 1001   0.853   2.065   1.008 -1.1449  0.8644  1.7222
  334SOL    HW2 1002   0.994   2.094   0.910  4.8061 -0.0832  3.7544
  335SOL     OW 1003   0.880   2.267   2.810  0.6085 -0.4247  0.3431
  335SOL    HW1 1004   0.790   2.273   2.764  0.1211  2.3701  0.6692
  335SOL    HW2 1005   0.915   2.357   2.850  0.6769  2.9702  0.6355
  336SOL     OW 1006   3.041   0.198   2.020 -0.2519  0.1894 -0.5366
  336SOL    HW1 1007   3.072   0.277   1.957 -0.5670  1.3950 -0.2959
  336SOL    HW2 1008   0.015   0.130   2.035 -0.0437 -1.6664  0.4692
  337SOL     OW 1009   2.789   2.146   0.052 -0.4426 -0.5889 -0.3797
  337SOL    HW1 1010   2.826   2.200   0.126  1.4841  1.1467  0.2100
  337SOL    HW2 1011   2.865   2.095   0.008  0.8753  1.4793 -1.8730
  338SOL     OW 1012   1.072   2.077   1.209  0.4208  0.1590  0.8385
  338SOL    HW1 1013   1.145   2.141   1.192 -2.6994  0.9175  2.6888
  338SOL    HW2 1014   1.028   2.052   1.118  0.8146  0.0218 -0.4600
  339SOL     OW 1015   2.883   0.425   2.130  0.0063 -0.1695  0.6860
  339SOL    HW1 1016   2.806   0.386   2.080  2.7478 -0.9695 -0.4833
  339SOL    HW2 1017   2.961   0.368   2.095  0.8490  1.3894  0.4299
  340SOL     OW 1018   1.819   2.630   0.381 -0.1515  0.2198  0.2076
  340SOL    HW1 1019   1.859   2.596   0.295 -1.6398 -0.4212  1.0967
  340SOL    HW2 1020   1.789   2.557   0.448 -2.6374 -3.7742  0.5744
  341SOL     OW 1021   1.625   1.470   1.105 -0.2249 -0.6221  0.1648
  341SOL    HW1 1022   1.695   1.431   1.165  0.0921  1.7471 -2.7263
  341SOL    HW2 1023   1.665   1.542   1.042  1.2467  0.9127 -0.6868
  342SOL     OW 1024   0.500   1.543   0.695 -0.2540  0.1565  0.4109
  342SOL    HW1 1025   0.475   1.556   0.599  0.5140 -2.8456  0.3762
  342SOL    HW2 1026   0.574   1.614   0.715  0.5464 -0.1832  0.5301
  343SOL     OW 1027   1.449   2.939   1.433  0.0960 -0.1845  0.3972
  343SOL    HW1 1028   1.434   2.853   1.388  1.5285  0.9091 -1.0071
  343SOL    HW2 1029   1.367   2.990   1.467 -0.4229  2.4338 -1.4374
  344SOL     OW 1030   2.347   2.870   1.055  0.3515 -0.1931 -0.2964
  344SOL    HW1 1031   2.253   2.835   1.047 -0.3710  1.4406  1.2067
  344SOL    HW2 1032   2.361   2.897   1.155  0.3675  0.9597  2.3558
  345SOL     OW 1033   2.967   2.343   2.732 -0.0461  0.0035  0.4855
  345SOL    HW1 1034   2.917   2.333   2.644  1.3501  2.0551 -0.7847
  345SOL    HW2 1035   3.068   2.352   2.717 -3.4574  1.8919  0.1531
  346SOL     OW 1036   0.327   1.986   0.686 -0.2813  0.3501  0.0962
  346SOL    HW1 1037   0.238   1.933   0.700  1.1431  1.0265  0.3403
  346SOL    HW2 1038   0.307   2.086   0.685 -0.9162  0.8833  1.0135
  347SOL     OW 1039   1.844   2.521   0.846 -0.2815 -0.1654  0.0410
  347SOL    HW1 1040   1.936   2.491   0.822 -0.1641  0.8594 -0.9850
  347SOL    HW2 1041   1.862   2.601   0.905  0.0786 -0.2535 -1.7470
  348SOL     OW 1042   1.278   1.503   2.772 -0.3519  0.5422 -0.1667
  348SOL    HW1 1043   1.300   1.445   2.692  0.0415  0.0567  2.2529
  348SOL    HW2 1044   1.279   1.599   2.739  1.2736 -0.2859  1.1171
  349SOL     OW 1045   2.144   0.879   2.122  1.0497  0.0850  0.7649
  349SOL    HW1 1046   2.077   0.934   2.070 -1.4943 -1.8491 -2.0674
  349SOL    HW2 1047   2.241   0.871   2.085 -2.0201  2.2914 -0.3739
  350SOL     OW 1048   3.085   2.543   1.388 -0.1940  0.3369  0.0075
  350SOL    HW1 1049   0.037   2.457   1.388 -0.7610 -2.0004 -1.3401
  350SOL    HW2 1050   3.100   2.586   1.295 -0.1798  0.0536 -0.6986
  351SOL     OW 1051   0.607   0.212   2.864  0.3533  0.3774 -0.0332
  351SOL    HW1 1052   0.606   0.129   2.923  1.8943  1.5153 -2.9863
  351SOL    HW2 1053   0.705   0.229   2.837 -0.1847  0.8353 -2.6920
  352SOL     OW 1054   0.741   2.526   1.449 -0.2546 -0.4828 -0.1824
  352SOL    HW1 1055   0.794   2.494   1.531  1.6726  0.8383 -0.0672
  352SOL    HW2 1056   0.674   2.602   1.475  3.2952  2.5497 -1.8934
  353SOL     OW 1057   0.941   0.759   2.684  0.3265  0.2655 -0.1718
  353SOL    HW1 1058   0.883   0.823   2.630 -0.0062  0.2120 -2.4305
  353SOL    HW2 1059   1.024   0.807   2.722  1.1015 -0.7709 -2.0437
  354SOL     OW 1060   1.523   1.060   0.574 -0.1808  0.5580  0.2926
  354SOL    HW1 1061   1.442   0.996   0.575  2.1075  0.2076  0.1455
  354SOL    HW2 1062   1.551   1.099   0.483  0.3002  1.4018  0.0272
  355SOL     OW 1063   2.917   0.304   0.414 -0.2618 -0.2011  0.0305
  355SOL    HW1 1064   3.002   0.264   0.381 -0.4984  0.0668  0.6736
  355SOL    HW2 1065   2.843   0.236   0.425 -0.9425  0.8689  1.3923
  356SOL     OW 1066   2.949   1.004   2.633 -0.4044  0.2876 -0.0822
  356SOL    HW1 1067   3.007   0.940   2.578 -1.3211 -0.5816  1.8007
  356SOL    HW2 1068   2.907   1.073   2.570 -0.7004 -1.1189 -0.7333
  357SOL     OW 1069   0.639   2.760   1.811  0.0034  0.3595  0.5232
  357SOL    HW1 1070   0.649   2.854   1.773 -2.0847  1.9687  1.7371
  357SOL    HW2 1071   0.591   2.701   1.747  1.2385  1.5379 -0.7292
  358SOL     OW 1072   2.575   1.352   2.500 -0.0615 -0.3057  0.3722
  358SOL    HW1 1073   2.654   1.403   2.452  3.5646 -1.1678 -0.2919
  358SOL    HW2 1074   2.516   1.308   2.432 -1.1330  0.0826  3.1281
  359SOL     OW 1075   2.571   2.584   2.661  0.1670  0.2065  0.1217
  359SOL    HW1 1076   2.487   2.619   2.624  1.4794  0.9276  0.6375
  359SOL    HW2 1077   2.570   2.485   2.654  0.2518 -0.6993 -1.0271
  360SOL     OW 1078   2.164   0.759   0.906 -0.0508  0.5165  0.3424
  360SOL    HW1 1079   2.216   0.699   0.849 -0.5169  3.9712  1.3824
  360SOL    HW2 1080   2.228   0.829   0.946  0.9339 -0.7770  1.4112
  361SOL     OW 1081   1.900   2.752   0.971  0.2204 -0.4385 -0.1014
  361SOL    HW1 1082   1.821   2.819   0.976 -0.1883  0.9861 -0.6552
  361SOL    HW2 1083   1.977   2.794   0.919  0.7484  1.5708 -1.5208
  362SOL     OW 1084   1.493   1.200   0.812 -0.0809  0.0060  0.0990
  362SOL    HW1 1085   1.499   1.139   0.730 -1.2026  0.6591 -1.0332
  362SOL    HW2 1086   1.588   1.225   0.835 -0.3893 -2.8377 -1.9402
  363SOL     OW 1087   3.049   1.754   2.481 -0.0221 -0.5284 -0.0829
  363SOL    HW1 1088   3.006   1.769   2.387  1.5005  1.0920  0.3450
  363SOL    HW2 1089   3.029   1.668   2.524  0.7919  2.3059  1.5290
  364SOL     OW 1090   1.246   0.503   1.424  0.2058 -0.1118 -0.5656
  364SOL    HW1 1091   1.286   0.460   1.505 -2.8572 -0.5117 -0.5985
  364SOL    HW2 1092   1.323   0.512   1.360 -0.4022  1.2872  1.1174
  365SOL     OW 1093   3.055   2.953   1.299 -0.2905 -0.4424  0.3034
  365SOL    HW1 1094   0.025   3.012   1.259 -2.2781  0.5654 -0.5281
  365SOL    HW2 1095   2.986   2.926   1.229  0.4987 -0.1766  0.4277
  366SOL     OW 1096   2.970   1.418   0.206  0.1029 -0.2633  0.0650
  366SOL    HW1 1097   2.955   1.477   0.289  3.0511  1.1657 -0.7930
  366SOL    HW2 1098   2.921   1.328   0.220  0.0036  1.8417 -0.0006
  367SOL     OW 1099   3.031   2.078   2.809  0.4163  0.3010 -0.5825
  367SOL    HW1 1100   3.009   2.174   2.784  0.0598  1.9130 -1.6497
  367SOL    HW2 1101   3.022   2.064   2.911 -2.7866  2.0259 -0.0317
  368SOL     OW 1102   2.924   2.169   1.157 -0.4498 -0.2937 -0.1282
  368SOL    HW1 1103   2.840   2.220   1.139 -1.5603 -1.5247 -1.9086
  368SOL    HW2 1104   2.952   2.110   1.080  0.7032  0.6323  2.2744
  369SOL     OW 1105   0.362   0.428   0.454  0.4723 -0.2402  0.1203
  369SOL    HW1 1106   0.394   0.441   0.355  1.1568  0.0448 -0.2105
  369SOL    HW2 1107   0.441   0.415   0.513  1.4750  1.8293 -2.0731
  370SOL     OW 1108   0.439   0.941   1.519 -0.0232  0.3179 -0.4572
  370SOL    HW1 1109   0.404   0.905   1.430  0.1709 -0.7153 -0.2409
  370SOL    HW2 1110   0.537   0.956   1.516 -1.3683  0.7884  3.1295
  371SOL     OW 1111   2.187   2.049   0.673 -0.2390 -0.0967  0.1149
  371SOL    HW1 1112   2.202   1.954   0.684  0.6069  1.1823  0.6142
  371SOL    HW2 1113   2.184   2.074   0.575  1.1960  3.1146 -0.5902
  372SOL     OW 1114   3.092   0.831   2.495  1.1557 -0.1126 -0.3592
  372SOL    HW1 1115   0.038   0.802   2.581 -2.4355  1.9933  0.2537
  372SOL    HW2 1116   0.056   0.821   2.418 -1.2609  2.0503 -0.3062
  373SOL     OW 1117   2.903   1.537   0.427 -0.3477 -0.0130 -0.2742
  373SOL    HW1 1118   2.879   1.628   0.460  0.1812 -0.6752 -1.0344
  373SOL    HW2 1119   2.843   1.460   0.463  0.3895 -1.7098  2.1154
  374SOL     OW 1120   0.466   2.631   0.075  0.3544  0.2930 -0.7249
  374SOL    HW1 1121   0.434   2.618   0.173 -0.3612  0.2210  1.0482
  374SOL    HW2 1122   0.410   2.701   0.021 -2.8413  3.7997 -0.6497
  375SOL     OW 1123   0.630   0.413   0.025  0.2046  0.2031  0.5213
  375SOL    HW1 1124   0.724   0.456   0.008  0.3514 -0.2986 -2.6198
  375SOL    HW2 1125   0.634   0.319   0.058  2.6157 -1.6165  1.7765
  376SOL     OW 1126   0.179   3.054   2.130  0.2092 -0.0335 -0.5552
  376SOL    HW1 1127   0.099   2.995   2.150 -0.4639  0.2918 -0.3538
  376SOL    HW2 1128   0.259   2.994   2.103  2.4423  1.3083  1.3482
  377SOL     OW 1129   0.812   2.023   2.273  0.2614 -0.1401 -0.1013
  377SOL    HW1 1130   0.817   2.015   2.374  2.5581 -0.2224 -2.5976
  377SOL    HW2 1131   0.816   1.932   2.231 -1.0542  3.1069  1.6025
  378SOL     OW 1132   1.278   0.950   0.585 -0.5877  0.3741 -0.5659
  378SOL    HW1 1133   1.245   0.936   0.488 -2.5631 -1.0320 -3.6847
  378SOL    HW2 1134   1.217   0.908   0.657 -3.0070  0.8209  3.5898
  379SOL     OW 1135   1.090   1.422   0.138  0.0901  0.3165  0.1647
  379SOL    HW1 1136   1.055   1.499   0.197 -1.8158  2.4941  0.2714
  379SOL    HW2 1137   1.158   1.360   0.183 -0.7277  0.8068 -0.2059
  380SOL     OW 1138   0.034   2.060   1.965  0.0080  0.4741 -0.2390
  380SOL    HW1 1139   0.065   2.152   1.931  1.1456  0.9377 -1.4760
  380SOL    HW2 1140   0.061   1.990   1.894  2.0078 -1.5218 -0.3322
  381SOL     OW 1141   0.226   0.976   1.928 -0.4981  0.2611 -0.1294
  381SOL    HW1 1142   0.293   0.958   1.854 -0.6673  0.3227 -2.7182
  381SOL    HW2 1143   0.146   1.010   1.881  2.4856 -0.5981  0.2843
  382SOL     OW 1144   2.735   2.309   2.861  0.3962 -0.3772 -0.1566
  382SOL    HW1 1145   2.823   2.334   2.822 -1.6705  1.8601  0.7291
  382SOL    HW2 1146   2.750   2.288   2.957  0.7832  1.8124 -1.8731
  383SOL     OW 1147   2.358   1.827   2.439  0.3611 -0.6171 -0.0462
  383SOL    HW1 1148   2.320   1.774   2.364  0.3476  0.7252 -0.3260
  383SOL    HW2 1149   2.325   1.805   2.530  1.0318  0.0788 -3.8720
  384SOL     OW 1150   0.770   2.323   2.109 -0.9926  0.3006  0.2706
  384SOL    HW1 1151   0.699   2.394   2.094  1.1149  0.7904 -0.4334
  384SOL    HW2 1152   0.754   2.234   2.056  0.2233  0.1918 -0.8943
  385SOL     OW 1153   2.514   1.982   1.031 -0.7218  0.0101  0.4093
  385SOL    HW1 1154   2.569   2.030   0.956  0.9676 -2.0499 -2.4404
  385SOL    HW2 1155   2.543   2.019   1.126  1.0436  0.0626  1.6560
  386SOL     OW 1156   1.818   0.986   2.958  0.4090  0.2423 -0.1694
  386SOL    HW1 1157   1.762   0.925   2.901  0.4406 -1.9086 -0.1097
  386SOL    HW2 1158   1.781   1.013   3.050  1.6682 -0.7916  0.5342
  387SOL     OW 1159   0.414   0.841   1.753 -0.5174 -0.3303 -0.3873
  387SOL    HW1 1160   0.426   0.867   1.656  0.5237 -1.5427 -0.3412
  387SOL    HW2 1161   0.464   0.908   1.813 -0.0111  1.2713 -0.1117
  388SOL     OW 1162   2.806   0.869   1.492 -0.1525 -0.1935 -0.1969
  388SOL    HW1 1163   2.773   0.801   1.421 -2.7278  1.7052 -0.5360
  388SOL    HW2 1164   2.799   0.962   1.458 -0.8933 -0.4015  1.9386
  389SOL     OW 1165   1.794   1.017   2.545 -0.2502 -0.3269  0.3300
  389SOL    HW1 1166   1.879   1.050   2.508  0.1920  0.1193 -0.3784
  389SOL    HW2 1167   1.723   1.088   2.572 -2.3355  0.6478 -1.5515
  390SOL     OW 1168   2.228   2.340   0.533  0.3631  0.2810  0.2193
  390SOL    HW1 1169   2.207   2.287   0.618  1.2342  1.7041  1.0513
  390SOL    HW2 1170   2.320   2.387   0.530  1.4255  1.4615  0.1186
  391SOL     OW 1171   1.509   2.812   0.603  0.4197  0.0114 -0.0567
  391SOL    HW1 1172   1.567   2.833   0.520 -1.0105 -1.6696  0.4003
  391SOL    HW2 1173   1.565   2.761   0.671  2.7595  3.4112  0.5502
  392SOL     OW 1174   2.660   2.675   1.589  0.2593  0.1801  0.9996
  392SOL    HW1 1175   2.720   2.628   1.521 -1.8419 -1.1393  1.4932
  392SOL    HW2 1176   2.623   2.767   1.549 -2.6117  0.9190  1.9006
  393SOL     OW 1177   1.935   1.934   2.836  0.3084 -0.1796 -0.0120
  393SOL    HW1 1178   1.916   2.035   2.868 -1.0189  2.9666  0.5767
  393SOL    HW2 1179   1.942   1.875   2.924  0.8884 -1.9701  0.8725
  394SOL     OW 1180   0.557   2.671   2.842  0.0135 -0.0357 -0.2176
  394SOL    HW1 1181   0.550   2.629   2.936  0.9505  1.0234  2.0114
  394SOL    HW2 1182   0.593   2.602   2.770  4.0836 -1.4130 -0.3849
  395SOL     OW 1183   0.803   1.620   1.076  0.0863 -0.0666 -0.5443
  395SOL    HW1 1184   0.713   1.588   1.042 -0.4477 -0.0230  1.2262
  395SOL    HW2 1185   0.785   1.662   1.168 -0.5092 -2.0277  0.7676
  396SOL     OW 1186   1.947   0.747   2.696 -0.5032  0.7577 -0.0004
  396SOL    HW1 1187   1.883   0.827   2.695 -2.6592 -0.6327 -0.5082
  396SOL    HW2 1188   1.944   0.701   2.785  0.2146 -1.1990 -0.8579
  397SOL     OW 1189   2.929   0.828   2.829 -0.2619  0.2107  0.0753
  397SOL    HW1 1190   2.925   0.911   2.761 -0.4842  1.7267 -2.0693
  397SOL    HW2 1191   2.982   0.754   2.788 -1.2831  1.8158  0.8179
  398SOL     OW 1192   1.258   0.403   0.233  0.1902 -0.7850  0.1688
  398SOL    HW1 1193   1.335   0.408   0.166 -0.3871  1.9936  1.1887
  398SOL    HW2 1194   1.246   0.313   0.275  0.7715 -0.7090 -2.1770
  399SOL     OW 1195   1.865   3.038   1.752 -0.1167 -0.0744  0.3604
  399SOL    HW1 1196   1.813   3.058   1.661 -1.4656  1.3506 -0.9359
  399SOL    HW2 1197   1.887   2.939   1.766 -2.1773 -0.0058 -1.8491
  400SOL     OW 1198   0.069   2.221   2.432  0.0462  0.8265  0.5064
  400SOL    HW1 1199   0.044   2.139   2.484  1.4854  1.7582 -2.8434
  400SOL    HW2 1200   0.095   2.199   2.334  0.3882  1.1829  1.5917
  401SOL     OW 1201   0.684   0.202   0.165 -0.4312  0.4910 -0.9036
  401SOL    HW1 1202   0.613   0.141   0.209 -0.7395 -0.2997 -4.0802
  401SOL    HW2 1203   0.733   0.148   0.094 -3.2789  0.9757 -2.2160
  402SOL     OW 1204   0.225   2.325   1.476  0.0052  0.3361  0.0638
  402SOL    HW1 1205   0.306   2.297   1.536 -0.4788  0.3292  3.8156
  402SOL    HW2 1206   0.135   2.319   1.522  0.9462  3.0507 -1.0591
  403SOL     OW 1207   0.112   0.996   1.264 -0.1965 -0.0172  0.0428
  403SOL    HW1 1208   0.055   1.081   1.252 -1.0116  1.8860 -1.5205
  403SOL    HW2 1209   0.094   0.949   1.355  3.3670 -2.8176 -3.1019
  404SOL     OW 1210   0.165   2.421   2.191  0.3967 -0.3204  0.2185
  404SOL    HW1 1211   0.215   2.332   2.210  0.0025 -0.2534  0.8319
  404SOL    HW2 1212   0.156   2.485   2.267  1.1017 -0.0570 -1.7936
  405SOL     OW 1213   2.629   0.168   2.257 -0.5110 -0.5116 -0.2388
  405SOL    HW1 1214   2.535   0.131   2.231 -1.2061 -0.9562 -2.6258
  405SOL    HW2 1215   2.616   0.266   2.288  0.6843  1.7783 -1.8786
  406SOL     OW 1216   2.119   2.338   0.260  0.1507  0.0690 -0.3147
  406SOL    HW1 1217   2.148   2.345   0.357 -2.9494 -0.4621 -0.6006
  406SOL    HW2 1218   2.031   2.386   0.247 -2.7828  1.1265  0.4153
  407SOL     OW 1219   1.852   1.593   0.699  0.1225 -0.3019 -0.3013
  407SOL    HW1 1220   1.793   1.655   0.761 -0.3777  2.4283  0.7400
  407SOL    HW2 1221   1.885   1.641   0.620  0.0331 -3.6650  2.2564
  408SOL     OW 1222   0.440   0.253   2.345  0.4797 -0.2222  0.1782
  408SOL    HW1 1223   0.388   0.214   2.260 -2.0049 -1.0752 -3.5453
  408SOL    HW2 1224   0.530   0.301   2.322 -0.0152  0.7978 -1.6573
  409SOL     OW 1225   2.833   1.807   0.539 -0.3024 -0.8545 -0.3760
  409SOL    HW1 1226   2.739   1.781   0.502 -4.0081  0.5321 -2.0483
  409SOL    HW2 1227   2.874   1.886   0.488 -0.7979 -1.1239  2.1466
  410SOL     OW 1228   2.020   1.546   1.382 -0.1201  0.0797 -0.1428
  410SOL    HW1 1229   2.115   1.547   1.353 -3.8310  1.2461  0.0147
  410SOL    HW2 1230   2.012   1.558   1.485 -1.3532 -2.0477 -0.1802
  411SOL     OW 1231   0.012   0.867   0.404  0.0586 -0.4105 -0.0404
  411SOL    HW1 1232   0.080   0.789   0.393 -0.7385 -1.5784 -0.2615
  411SOL    HW2 1233   3.017   0.827   0.396 -1.0944  0.7239  0.2885
  412SOL     OW 1234   1.804   0.638   0.027 -0.2292 -0.2690 -0.1748
  412SOL    HW1 1235   1.720   0.698   0.026  0.6550  0.2828 -0.5378
  412SOL    HW2 1236   1.861   0.660   0.111 -0.7288  0.3884 -0.9437
  413SOL     OW 1237   0.762   0.771   1.644 -0.1985  0.0302  0.1108
  413SOL    HW1 1238   0.756   0.690   1.584  2.5657  2.6901 -2.9424
  413SOL    HW2 1239   0.734   0.848   1.578 -3.8542  0.0097 -2.8478
  414SOL     OW 1240   0.089   1.213   3.037 -0.2296  0.1831  0.2814
  414SOL    HW1 1241   0.107   1.291   2.976  0.4059 -2.7927  0.7538
  414SOL    HW2 1242   0.003   1.170   3.010  0.0903 -0.4091  0.1384
  415SOL     OW 1243   0.277   1.430   0.289 -0.3705 -0.8435  0.3412
  415SOL    HW1 1244   0.360   1.417   0.229  0.1806  1.0557  1.7306
  415SOL    HW2 1245   0.211   1.353   0.266  1.6728  3.1499 -0.5179
  416SOL     OW 1246   1.769   0.838   0.419 -0.5262  0.4951  0.2421
  416SOL    HW1 1247   1.706   0.759   0.413  2.0007  2.8200  0.3233
  416SOL    HW2 1248   1.762   0.905   0.344  2.7651 -3.0179  0.6661
  417SOL     OW 1249   0.130   0.042   0.948 -0.6852  0.3620 -0.5481
  417SOL    HW1 1250   0.085   0.132   0.976  1.1707  2.5065  1.3089
  417SOL    HW2 1251   0.218   0.052   0.896  2.1202 -0.0314 -0.5116
  418SOL     OW 1252   2.082   0.955   3.070  0.0751 -0.8496  0.7996
  418SOL    HW1 1253   2.149   0.898   3.018 -0.9872 -0.3481  0.0627
  418SOL    HW2 1254   1.991   0.947   3.027 -0.4205  1.7853  0.1986
  419SOL     OW 1255   0.424   0.467   0.187 -0.1245 -0.0780  0.0759
  419SOL    HW1 1256   0.356   0.530   0.144  0.3623  0.8714  0.3035
  419SOL    HW2 1257   0.509   0.464   0.125  2.4127  0.2582  2.4421
  420SOL     OW 1258   0.570   1.542   0.993 -0.3759  0.0352 -0.1609
  420SOL    HW1 1259   0.610   1.463   0.942  1.8358  0.1199  1.1914
  420SOL    HW2 1260   0.489   1.583   0.943  0.2530  1.3216  1.0405
  421SOL     OW 1261   0.433   2.012   0.203  0.2734 -0.2326  0.0166
  421SOL    HW1 1262   0.515   1.949   0.228  1.6363 -1.1369 -0.3163
  421SOL    HW2 1263   0.397   2.014   0.105 -0.8019  2.8296 -1.5222
  422SOL     OW 1264   2.374   0.248   1.631 -0.0707 -0.6643 -0.2210
  422SOL    HW1 1265   2.432   0.309   1.576  1.8786 -3.0690 -0.7496
  422SOL    HW2 1266   2.295   0.298   1.682 -2.5436  0.3540  0.3716
  423SOL     OW 1267   2.049   1.437   0.887 -0.0008  0.1513 -0.6886
  423SOL    HW1 1268   1.986   1.507   0.843 -0.2837  1.4116 -2.6604
  423SOL    HW2 1269   2.141   1.481   0.910  1.2756 -1.3269 -2.0667
  424SOL     OW 1270   2.212   1.484   0.143 -0.3510  0.4590  0.0215
  424SOL    HW1 1271   2.271   1.550   0.084  1.2826  0.6464 -1.1498
  424SOL    HW2 1272   2.173   1.532   0.219  3.4780 -1.5889 -1.6274
  425SOL     OW 1273   0.308   3.050   2.492 -0.0145  0.1496  0.1439
  425SOL    HW1 1274   0.397   3.097   2.485  0.1641 -2.2979 -0.8634
  425SOL    HW2 1275   0.319   2.960   2.448 -0.3104 -2.1703 -0.3305
  426SOL     OW 1276   2.374   2.749   2.560  0.0131  0.4335 -0.0035
  426SOL    HW1 1277   2.366   2.819   2.636 -0.0437 -0.5171  3.7385
  426SOL    HW2 1278   2.412   2.791   2.475  1.7610  0.3845 -2.7480
  427SOL     OW 1279   0.537   1.063   2.168  0.2927 -0.0096 -0.1824
  427SOL    HW1 1280   0.636   1.036   2.183 -0.5554  0.6090  2.5310
  427SOL    HW2 1281   0.533   1.154   2.200  0.2563 -0.8030  0.5702
  428SOL     OW 1282   2.012   1.249   2.153 -0.8876 -0.2905  0.2571
  428SOL    HW1 1283   1.980   1.156   2.126 -0.3877  2.6101  0.1635
  428SOL    HW2 1284   2.108   1.269   2.116 -1.0312  1.1858 -1.2413
  429SOL     OW 1285   2.468   0.220   0.369  0.0131  0.1661 -0.0455
  429SOL    HW1 1286   2.449   0.232   0.274  2.2759 -1.1924 -1.2199
  429SOL    HW2 1287   2.491   0.309   0.404  0.3029 -3.1088  1.9131
  430SOL     OW 1288   1.564   1.383   2.005  0.8231  0.6127  0.2331
  430SOL    HW1 1289   1.540   1.295   1.960  0.8656 -0.5268  0.2143
  430SOL    HW2 1290   1.479   1.437   2.023 -0.8502  1.2778 -1.7955
  431SOL     OW 1291   2.716   1.934   1.666  0.2318 -0.3919 -0.0901
  431SOL    HW1 1292   2.788   1.919   1.597  3.6009 -1.8682  2.1974
  431SOL    HW2 1293   2.646   2.007   1.639 -2.3801  0.2032 -0.0317
  432SOL     OW 1294   0.997   2.753   1.797  0.1229  0.7020  0.6383
  432SOL    HW1 1295   0.938   2.763   1.710 -1.2169  1.2489 -0.5294
  432SOL    HW2 1296   0.958   2.679   1.859  0.3273  0.3510  0.3917
  433SOL     OW 1297   1.671   2.915   0.911 -0.8197  0.0200  0.3881
  433SOL    HW1 1298   1.710   2.985   0.849 -0.2984 -0.8801  2.7018
  433SOL    HW2 1299   1.573   2.893   0.892  2.7486 -0.4140  0.4426
  434SOL     OW 1300   0.463   1.991   2.005 -0.0706  0.2520  0.2564
  434SOL    HW1 1301   0.556   2.011   1.964 -1.6372 -0.5986  1.8051
  434SOL    HW2 1302   0.390   2.006   1.933 -1.5538 -0.0410 -1.1200
  435SOL     OW 1303   0.479   1.576   0.436 -0.2535  0.0207  0.3607
  435SOL    HW1 1304   0.415   1.521   0.377 -0.5123 -1.7310 -0.7793
  435SOL    HW2 1305   0.448   1.673   0.451 -2.4332  0.0404  1.9459
  436SOL     OW 1306   0.440   1.283   1.889 -0.2175 -0.9135 -0.1262
  436SOL    HW1 1307   0.429   1.315   1.793 -0.5326  3.0819  0.1471
  436SOL    HW2 1308   0.499   1.347   1.944 -0.7179  1.2921  2.4874
  437SOL     OW 1309   1.235   0.465   2.922 -0.3591  0.1615  0.1458
  437SOL    HW1 1310   1.285   0.555   2.921  5.0252 -0.3377  0.0021
  437SOL    HW2 1311   1.178   0.460   2.836  0.2444  0.6471  2.0487
  438SOL     OW 1312   0.465   1.967   1.567  0.1849  0.0281 -0.0795
  438SOL    HW1 1313   0.447   1.981   1.465 -2.1077  0.7002 -2.5697
  438SOL    HW2 1314   0.566   1.951   1.577 -0.4620 -1.4526 -0.9371
  439SOL     OW 1315   1.976   1.767   3.028 -0.5226  0.2842  0.2566
  439SOL    HW1 1316   1.999   1.788   0.022 -0.9835  0.4369 -2.0863
  439SOL    HW2 1317   1.999   1.669   3.010 -0.2580 -2.8790 -2.6806
  440SOL     OW 1318   1.489   0.422   0.610  0.2451  0.1922 -0.6959
  440SOL    HW1 1319   1.439   0.345   0.647 -1.9243 -0.7508 -0.4790
  440SOL    HW2 1320   1.429   0.504   0.599 -2.2957  0.8072 -1.5733
  441SOL     OW 1321   0.553   2.725   1.515 -0.7241  0.1851  0.1341
  441SOL    HW1 1322   0.457   2.696   1.508  0.4306  1.6229  0.7127
  441SOL    HW2 1323   0.574   2.825   1.498  1.3253  0.5369 -0.1454
  442SOL     OW 1324   2.443   2.415   0.933 -0.0936 -0.8698 -0.1755
  442SOL    HW1 1325   2.374   2.466   0.985  3.0380  0.4286  0.7191
  442SOL    HW2 1326   2.405   2.318   0.922 -2.8038 -0.6472  2.6617
  443SOL     OW 1327   2.603   0.874   2.433 -0.0780  0.1576 -0.1819
  443SOL    HW1 1328   2.536   0.836   2.366 -1.4091  3.0237 -2.3754
  443SOL    HW2 1329   2.552   0.905   2.513  1.0794  0.6397 -1.7263
  444SOL     OW 1330   1.562   0.922   2.442  0.4941  0.2306  0.2794
  444SOL    HW1 1331   1.656   0.951   2.471  0.2807  2.5498 -0.5303
  444SOL    HW2 1332   1.558   0.919   2.340  0.6250 -2.5535  1.4150
  445SOL     OW 1333   2.910   2.391   1.762  0.4139  0.7400  0.2637
  445SOL    HW1 1334   2.857   2.308   1.790  0.8002 -3.0600  1.4999
  445SOL    HW2 1335   2.847   2.472   1.756 -0.6638  0.1704 -0.6595
  446SOL     OW 1336   0.056   1.450   0.559  0.1629  0.1298  0.3943
  446SOL    HW1 1337   0.122   1.531   0.549  2.6253  2.0162 -0.0436
  446SOL    HW2 1338   3.074   1.472   0.508  0.5046 -2.0871 -2.5088
  447SOL     OW 1339   0.933   2.481   0.704 -0.1786 -0.0121 -0.0886
  447SOL    HW1 1340   0.978   2.529   0.782  1.3779 -1.6862  0.4896
  447SOL    HW2 1341   0.843   2.434   0.731 -1.1219 -0.7334  0.2124
  448SOL     OW 1342   1.568   1.448   1.615  0.5162  0.4290  0.5762
  448SOL    HW1 1343   1.659   1.414   1.643 -0.9119 -0.4305 -3.0005
  448SOL    HW2 1344   1.524   1.382   1.548 -4.1080 -0.2272  1.0078
  449SOL     OW 1345   0.932   1.747   2.929 -0.6741  0.4388  0.2217
  449SOL    HW1 1346   0.907   1.838   2.887  0.9343 -1.2976 -1.0582
  449SOL    HW2 1347   0.927   1.666   2.862 -0.6955  0.4453  0.7862
  450SOL     OW 1348   2.927   2.057   2.183 -0.6473 -0.2476  0.7652
  450SOL    HW1 1349   2.831   2.088   2.151 -2.9564 -1.1114  0.9385
  450SOL    HW2 1350   2.991   2.047   2.099  2.2472 -2.4359 -1.5601
  451SOL     OW 1351   1.931   0.507   1.645  0.0099  0.0470  0.2492
  451SOL    HW1 1352   1.969   0.525   1.549 -0.3693 -0.0864  2.1912
  451SOL    HW2 1353   1.891   0.595   1.678 -4.5198  1.0841  0.1150
  452SOL     OW 1354   0.853   2.721   1.248  0.3888  0.3327  0.0612
  452SOL    HW1 1355   0.844   2.646   1.315  1.7631 -0.2823 -1.4406
  452SOL    HW2 1356   0.762   2.754   1.220 -0.6571 -0.1301  0.9705
  453SOL     OW 1357   0.999   1.757   0.946 -0.0297  0.2788 -0.6140
  453SOL    HW1 1358   0.930   1.687   0.979 -0.5447 -0.1598  1.6374
  453SOL    HW2 1359   0.949   1.845   0.935 -0.5365 -0.9338 -1.1322
  454SOL     OW 1360   3.055   0.982   0.829  0.1113 -0.5436  0.5667
  454SOL    HW1 1361   3.082   0.903   0.770  1.1298  2.6143  1.7513
  454SOL    HW2 1362   0.011   1.063   0.806 -0.1379 -1.5875 -1.1340
  455SOL     OW 1363   0.516   0.800   0.519 -0.1098  0.1825 -0.1543
  455SOL    HW1 1364   0.437   0.759   0.567  2.0814  2.5003 -2.4192
  455SOL    HW2 1365   0.495   0.813   0.420 -0.2615 -1.1124  1.4188
  456SOL     OW 1366   2.127   2.469   0.833 -0.0077 -0.1872  0.0866
  456SOL    HW1 1367   2.209   2.477   0.893 -0.1889 -2.6256 -1.0685
  456SOL    HW2 1368   2.096   2.370   0.819  1.2368 -0.1472 -3.1706
  457SOL     OW 1369   1.298   2.731   0.039  0.3441  1.1149  0.1494
  457SOL    HW1 1370   1.336   2.820   0.074  0.1353 -3.1953 -0.0571
  457SOL    HW2 1371   1.356   2.689   3.070 -0.1709  0.7946 -1.5816
  458SOL     OW 1372   2.821   2.989   0.020 -0.0806 -0.1500 -0.2028
  458SOL    HW1 1373   2.853   2.903   0.071 -0.7510 -0.9509  1.1729
  458SOL    HW2 1374   2.860   2.989   3.027 -1.7742  0.4465 -1.1727
  459SOL     OW 1375   2.140   0.321   1.739 -0.3412  0.1699 -0.1432
  459SOL    HW1 1376   2.096   0.230   1.715 -0.4938  0.1694  1.2013
  459SOL    HW2 1377   2.068   0.394   1.726  0.0860  0.2506 -2.7782
  460SOL     OW 1378   3.101   0.506   0.188 -0.3940 -0.0701 -0.1550
  460SOL    HW1 1379   0.045   0.495   0.100  1.4321 -0.2160 -0.8896
  460SOL    HW2 1380   3.002   0.508   0.174  0.2373 -0.0661 -2.1461
  461SOL     OW 1381   3.020   2.048   1.393  1.1722 -0.2733  0.0516
  461SOL    HW1 1382   2.982   2.102   1.312  0.6739 -0.4525  2.2337
  461SOL    HW2 1383   0.013   2.026   1.394 -0.6592  0.6741  0.5164
  462SOL     OW 1384   2.963   3.054   0.886  0.3054 -0.1035 -0.1764
  462SOL    HW1 1385   3.062   3.065   0.913  1.7399 -1.5589  0.4985
  462SOL    HW2 1386   2.904   0.020   0.936 -0.0475 -2.1077 -0.6151
  463SOL     OW 1387   2.512   1.316   3.019 -0.0019  0.4713 -0.1978
  463SOL    HW1 1388   2.437   1.249   3.039  0.8344  0.5985  1.5665
  463SOL    HW2 1389   2.548   1.308   2.925  0.5853 -0.8197  2.9000
  464SOL     OW 1390   0.593   2.792   1.142  0.0725  0.2096  0.2350
  464SOL    HW1 1391   0.603   2.885   1.119 -1.2486 -1.5530 -0.5762
  464SOL    HW2 1392   0.500   2.766   1.179  0.8009 -1.1394  0.2061
  465SOL     OW 1393   0.797   0.549   1.243 -0.0737 -0.2670  0.3576
  465SOL    HW1 1394   0.892   0.569   1.222  1.9659  0.3910 -2.0305
  465SOL    HW2 1395   0.744   0.551   1.158  0.5531 -1.8721  2.8783
  466SOL     OW 1396   1.574   2.247   2.205 -0.2139 -0.1088  0.1618
  466SOL    HW1 1397   1.636   2.306   2.145  0.7721 -1.6701 -1.2251
  466SOL    HW2 1398   1.610   2.241   2.300  2.0164  1.9658 -1.4804
  467SOL     OW 1399   0.807   0.034   2.059 -0.3788 -0.7045 -0.2139
  467SOL    HW1 1400   0.863   0.061   2.143  1.7932 -0.4102  2.4152
  467SOL    HW2 1401   0.866   3.100   1.983  0.0230  0.5966 -0.7687
  468SOL     OW 1402   0.095   1.265   2.432 -0.3127 -0.0432  0.1249
  468SOL    HW1 1403   0.113   1.253   2.332  0.7146 -0.0377  0.3029
  468SOL    HW2 1404   0.155   1.339   2.473  1.6291  0.1363  0.5719
  469SOL     OW 1405   0.860   2.693   0.509 -0.8265 -0.1650  0.4994
  469SOL    HW1 1406   0.919   2.783   0.517  1.0644  1.9628  1.5138
  469SOL    HW2 1407   0.906   2.620   0.559 -0.9166  2.3227 -0.0621
  470SOL     OW 1408   2.185   1.407   2.359 -0.5951 -0.3723  0.3701
  470SOL    HW1 1409   2.210   1.501   2.334 -1.3284  1.5477  0.9087
  470SOL    HW2 1410   2.132   1.401   2.451 -0.4807 -0.5671  0.5904
  471SOL     OW 1411   0.989   2.481   2.925 -0.7324  0.2847  0.4078
  471SOL    HW1 1412   1.072   2.473   2.982  0.8722 -1.1055 -2.2648
  471SOL    HW2 1413   0.966   2.579   2.921  0.1697 -0.0868 -1.2749
  472SOL     OW 1414   0.465   2.535   1.779 -0.3777 -0.6245  0.4323
  472SOL    HW1 1415   0.396   2.524   1.854 -2.1516 -0.5386 -0.2166
  472SOL    HW2 1416   0.416   2.572   1.694 -1.1157  1.5242 -0.3199
  473SOL     OW 1417   0.855   0.002   3.055 -0.0749  0.3036 -0.1838
  473SOL    HW1 1418   0.916   3.091   2.974 -0.9546 -0.0940  0.9690
  473SOL    HW2 1419   0.760   3.068   3.033  0.6545  0.0142  2.8637
  474SOL     OW 1420   1.707   0.174   0.950 -0.0529 -0.1930 -0.0442
  474SOL    HW1 1421   1.705   0.105   0.877  2.8125  2.4948  2.4016
  474SOL    HW2 1422   1.800   0.216   0.949  1.5709 -1.0383 -0.7153
  475SOL     OW 1423   1.533   0.301   1.295 -0.0121  0.2813  0.0334
  475SOL    HW1 1424   1.532   0.402   1.275 -2.5095 -1.6635  0.6785
  475SOL    HW2 1425   1.630   0.272   1.285 -0.9855 -0.9125  1.0892
  476SOL     OW 1426   0.161   0.816   0.998 -0.0918  0.4053  0.5646
  476SOL    HW1 1427   0.097   0.856   1.068  1.6769  3.3193 -0.1290
  476SOL    HW2 1428   0.218   0.887   0.951 -0.9974 -0.6110 -1.7487
  477SOL     OW 1429   1.283   2.375   0.537 -0.1381  0.1247  0.4875
  477SOL    HW1 1430   1.314   2.446   0.472 -0.4143  0.0574 -0.3666
  477SOL    HW2 1431   1.320   2.404   0.625 -0.6605  1.5381 -1.2295
  478SOL     OW 1432   0.128   2.662   2.329  0.0672  0.0943  0.2622
  478SOL    HW1 1433   0.155   2.708   2.416 -4.0653 -0.2659 -0.6506
  478SOL    HW2 1434   0.207   2.671   2.267 -3.2878 -0.7497 -0.0653
  479SOL     OW 1435   2.778   0.443   1.213  0.4743  0.4636 -0.2935
  479SOL    HW1 1436   2.794   0.344   1.192  2.0473  0.1537 -1.5671
  479SOL    HW2 1437   2.855   0.472   1.275 -0.8988 -0.4440  0.1389
  480SOL     OW 1438   0.050   2.346   0.146 -0.3828  0.2916  0.1706
  480SOL    HW1 1439   0.109   2.296   0.213  3.8103 -0.7794  0.3378
  480SOL    HW2 1440   3.053   2.343   0.180  2.9440 -2.0079  1.0559
  481SOL     OW 1441   2.484   1.710   1.862 -0.3941  0.7244  0.5610
  481SOL    HW1 1442   2.545   1.695   1.783 -2.0932 -0.6973  2.0267
  481SOL    HW2 1443   2.466   1.811   1.864  0.3548 -6.4941  0.2839
  482SOL     OW 1444   1.583   1.922   2.546 -0.4223 -0.0912 -0.0781
  482SOL    HW1 1445   1.568   2.018   2.508  0.5629  0.2818  0.0568
  482SOL    HW2 1446   1.503   1.866   2.517 -0.7669  1.4264 -0.7466
  483SOL     OW 1447   0.736   1.597   1.523 -0.6225 -0.1851  0.5501
  483SOL    HW1 1448   0.743   1.659   1.439 -1.3575  2.7479 -1.5510
  483SOL    HW2 1449   0.697   1.502   1.496 -0.3629 -0.9615  0.0219
  484SOL     OW 1450   0.434   0.482   1.603 -0.1456 -0.2185  0.3602
  484SOL    HW1 1451   0.428   0.539   1.686 -0.0827 -0.4606 -1.5041
  484SOL    HW2 1452   0.477   0.531   1.524  1.5017  0.8648  2.4201
  485SOL     OW 1453   2.322   1.129   3.039 -0.2917  0.5210 -0.0321
  485SOL    HW1 1454   2.232   1.085   3.053  0.3046 -2.5082 -0.8364
  485SOL    HW2 1455   2.391   1.057   3.026  0.4630 -0.4883  2.9689
  486SOL     OW 1456   1.317   0.060   1.562 -0.2487  0.2788 -0.5252
  486SOL    HW1 1457   1.398   0.092   1.609 -1.3730 -0.1080  0.8217
  486SOL    HW2 1458   1.308   0.100   1.470  1.4282  0.0916 -1.9684
  487SOL     OW 1459   0.461   2.249   1.573  0.4976 -0.0026  0.3479
  487SOL    HW1 1460   0.537   2.289   1.628 -0.8032  0.9105 -0.7034
  487SOL    HW2 1461   0.482   2.157   1.546  0.2466  2.2863 -0.6278
  488SOL     OW 1462   2.623   2.047   2.845 -0.4705 -0.3427 -0.0182
  488SOL    HW1 1463   2.541   2.054   2.905  0.2180 -1.3055 -0.2924
  488SOL    HW2 1464   2.670   2.139   2.840  0.2200 -1.6827 -2.3805
  489SOL     OW 1465   2.234   0.150   0.529 -0.4238  0.3297  0.3285
  489SOL    HW1 1466   2.224   0.057   0.483  0.0993  1.3340 -0.3825
  489SOL    HW2 1467   2.329   0.189   0.523  2.9862 -1.0272 -1.4988
  490SOL     OW 1468   1.170   2.271   2.791 -0.1941 -0.2400  0.2414
  490SOL    HW1 1469   1.174   2.173   2.808  0.2396  0.2715  0.7353
  490SOL    HW2 1470   1.170   2.319   2.876  0.4246 -1.6860 -4.3752
  491SOL     OW 1471   0.425   1.405   1.651 -0.7635  0.3658  0.1105
  491SOL    HW1 1472   0.422   1.504   1.670 -2.5423  0.8481 -0.2398
  491SOL    HW2 1473   0.497   1.381   1.579  2.4694 -0.9791 -2.4403
  492SOL     OW 1474   1.187   1.106   2.014  0.5295 -0.0138 -0.4785
  492SOL    HW1 1475   1.132   1.108   1.930  0.1315  1.7139 -0.5060
  492SOL    HW2 1476   1.127   1.131   2.095  0.6733  0.1752  3.5888
  493SOL     OW 1477   2.262   1.769   0.684  0.1352 -1.2707 -0.2723
  493SOL    HW1 1478   2.335   1.710   0.641  2.4300  0.8697  1.8369
  493SOL    HW2 1479   2.227   1.727   0.771 -2.4350 -0.9984 -1.4025
  494SOL     OW 1480   0.444   1.853   0.917  0.1768  0.2448 -0.0408
  494SOL    HW1 1481   0.401   1.761   0.884  0.2691 -2.3010 -1.6050
  494SOL    HW2 1482   0.429   1.914   0.834  0.6876 -0.5215 -2.3312
  495SOL     OW 1483   2.170   2.675   0.660  0.0764  0.4447 -0.4763
  495SOL    HW1 1484   2.258   2.669   0.612 -0.5388  3.6007 -1.1857
  495SOL    HW2 1485   2.147   2.589   0.716 -1.6508  0.2243  2.7866
  496SOL     OW 1486   2.594   2.905   1.481 -0.1828  0.3712 -0.1787
  496SOL    HW1 1487   2.674   2.959   1.458 -0.8732 -0.1822 -0.8126
  496SOL    HW2 1488   2.526   2.959   1.526  4.2748 -2.2057 -2.2094
  497SOL     OW 1489   2.241   1.081   2.601  0.1753  0.4182  0.3098
  497SOL    HW1 1490   2.268   1.121   2.508  1.1189  1.9083 -1.1249
  497SOL    HW2 1491   2.182   0.998   2.588 -2.8895 -0.0904 -1.3232
  498SOL     OW 1492   3.097   2.280   1.600  0.2686  0.2579 -0.0739
  498SOL    HW1 1493   3.062   2.210   1.534  2.9742  1.8955 -1.4036
  498SOL    HW2 1494   3.028   2.311   1.669  0.8673 -0.4596 -1.2577
  499SOL     OW 1495   0.916   2.473   1.934  0.2951  0.2121 -0.1278
  499SOL    HW1 1496   0.840   2.439   1.995 -1.7813 -0.4709  3.8650
  499SOL    HW2 1497   1.004   2.487   1.988 -0.8670  0.9203 -2.1393
  500SOL     OW 1498   1.129   2.257   0.353 -0.9147 -0.2461  0.4699
  500SOL    HW1 1499   1.040   2.293   0.369  2.9812 -0.3513 -0.0051
  500SOL    HW2 1500   1.191   2.310   0.413 -2.2162 -2.3960 -2.2529
  501SOL     OW 1501   1.851   2.900   1.374  0.7542  0.0253 -0.2954
  501SOL    HW1 1502   1.774   2.928   1.311 -0.1189  1.8420 -0.4026
  501SOL    HW2 1503   1.808   2.866   1.460 -3.7659  1.6084 -0.3927
  502SOL     OW 1504   2.360   0.613   1.813  0.3074  0.1832 -0.0715
  502SOL    HW1 1505   2.264   0.577   1.830  1.8906  0.3359 -0.0639
  502SOL    HW2 1506   2.423   0.563   1.875 -0.3590  1.9651 -0.5397
  503SOL     OW 1507   2.541   1.197   2.180 -0.1928 -0.0037  0.4992
  503SOL    HW1 1508   2.590   1.281   2.159 -0.8906 -0.7130  0.6346
  503SOL    HW2 1509   2.512   1.141   2.098 -3.2731 -2.1915 -1.5278
  504SOL     OW 1510   1.496   0.946   1.315 -0.5098  0.6095 -0.6371
  504SOL    HW1 1511   1.542   0.877   1.374  0.3163 -1.1419  1.6405
  504SOL    HW2 1512   1.505   0.917   1.219  1.5472  0.7901  2.1306
  505SOL     OW 1513   0.633   2.966   1.446 -0.7885 -0.3832  0.1249
  505SOL    HW1 1514   0.706   3.002   1.383  1.7705 -1.0233  0.1244
  505SOL    HW2 1515   0.543   3.004   1.424 -1.2414  2.2911 -2.0692
  506SOL     OW 1516   0.058   0.256   0.294  0.6097 -0.4563 -0.2550
  506SOL    HW1 1517   0.024   0.346   0.262 -0.7275 -2.0187  0.3740
  506SOL    HW2 1518   0.147   0.240   0.255 -5.8298  0.1713  1.6601
  507SOL     OW 1519   2.604   2.697   2.905 -0.9376  0.0965 -0.6218
  507SOL    HW1 1520   2.594   2.662   2.812  1.5142  2.5207  0.0076
  507SOL    HW2 1521   2.698   2.666   2.938  1.3389 -3.7913  1.3347
  508SOL     OW 1522   1.065   0.311   1.885  0.2374  0.0631 -0.1476
  508SOL    HW1 1523   1.039   0.304   1.784 -2.5635  0.9780 -0.5866
  508SOL    HW2 1524   1.108   0.228   1.921 -0.3309  4.5490  1.8489
  509SOL     OW 1525   1.662   1.702   1.374  0.0687 -0.2212 -0.4076
  509SOL    HW1 1526   1.673   1.752   1.467 -0.0288  2.0384  2.6918
  509SOL    HW2 1527   1.572   1.713   1.332  2.9002  1.8073 -0.5936
  510SOL     OW 1528   2.466   0.901   1.436  0.3849  0.5118 -0.2295
  510SOL    HW1 1529   2.496   0.806   1.462 -0.0206  1.8017 -1.2508
  510SOL    HW2 1530   2.364   0.906   1.416 -0.9983  1.0546  1.2029
  511SOL     OW 1531   1.409   2.003   1.374 -0.1734 -0.2323  0.0009
  511SOL    HW1 1532   1.490   2.062   1.398  2.3990 -2.2435 -2.1773
  511SOL    HW2 1533   1.413   1.916   1.421 -0.9318  1.4133  1.7568
  512SOL     OW 1534   3.030   1.369   0.779 -0.5828  0.0683 -0.8181
  512SOL    HW1 1535   3.072   1.376   0.686  0.1294  0.3213 -2.2782
  512SOL    HW2 1536   3.089   1.415   0.847  0.7693 -1.2880 -1.6312
  513SOL     OW 1537   0.103   1.551   3.079 -0.3521 -0.3774  0.5748
  513SOL    HW1 1538   0.149   1.501   3.003  2.4635  2.4893 -1.3342
  513SOL    HW2 1539   0.013   1.506   3.091 -0.6349  0.3287 -0.3352
  514SOL     OW 1540   2.650   2.092   2.100  0.1662 -0.0827  0.4020
  514SOL    HW1 1541   2.651   2.136   2.193  0.2523  0.7723 -0.3594
  514SOL    HW2 1542   2.662   1.990   2.108 -1.4477  2.3774 -0.3341
  515SOL     OW 1543   2.140   1.211   0.754 -0.0017  0.0077  0.1695
  515SOL    HW1 1544   2.095   1.296   0.794 -0.8255  0.5495  0.6175
  515SOL    HW2 1545   2.215   1.185   0.817 -0.7393 -0.4247  0.2177
  516SOL     OW 1546   2.430   2.852   0.037 -0.2476  0.2219 -0.1698
  516SOL    HW1 1547   2.457   2.885   3.044  0.9371 -1.2655  0.1051
  516SOL    HW2 1548   2.433   2.748   0.044  2.3394 -0.6722  1.1328
  517SOL     OW 1549   1.009   1.533   2.756 -0.4627 -0.2840 -0.3011
  517SOL    HW1 1550   1.100   1.494   2.781 -0.5625 -0.1766 -0.8967
  517SOL    HW2 1551   0.985   1.505   2.665 -1.4569  1.1285  4.7949
  518SOL     OW 1552   0.232   0.218   2.157  0.6852 -0.5669 -0.2342
  518SOL    HW1 1553   0.204   0.124   2.135  1.0368  0.2348  0.7159
  518SOL    HW2 1554   0.176   0.256   2.233 -0.1916 -0.5763  0.3471
  519SOL     OW 1555   0.761   1.385   3.048  0.0630  0.1264 -0.4370
  519SOL    HW1 1556   0.838   1.331   3.025 -2.5129  2.2868  1.7979
  519SOL    HW2 1557   0.793   1.470   3.100  2.2082 -0.0961 -0.2034
  520SOL     OW 1558   2.969   2.335   2.144 -0.1651  0.2673  0.6657
  520SOL    HW1 1559   2.993   2.267   2.215 -1.2406  0.4193  1.7880
  520SOL    HW2 1560   3.037   2.408   2.135  1.2792  0.8181 -1.1712
  521SOL     OW 1561   0.556   2.087   2.241  0.2226  0.3851 -0.1741
  521SOL    HW1 1562   0.660   2.078   2.247 -2.2728 -0.1568 -1.0285
  521SOL    HW2 1563   0.522   2.069   2.149 -1.0017 -0.3051  1.9522
  522SOL     OW 1564   1.894   2.796   1.920 -0.0022  0.2142  0.6395
  522SOL    HW1 1565   1.974   2.840   1.961 -1.5429 -1.3776  0.9731
  522SOL    HW2 1566   1.800   2.823   1.963  0.6816 -0.2102  3.0463
  523SOL     OW 1567   2.062   1.991   1.816  0.1533 -0.6778  0.1427
  523SOL    HW1 1568   2.135   1.945   1.871  2.8145  1.8113  1.7542
  523SOL    HW2 1569   1.993   1.922   1.781  1.1982 -3.3546  0.1427
  524SOL     OW 1570   0.622   2.902   0.409  0.2265  0.0097  0.1940
  524SOL    HW1 1571   0.542   2.904   0.349 -1.2133 -1.2474 -1.7651
  524SOL    HW2 1572   0.619   2.816   0.465 -2.3553  0.5885  0.2740
  525SOL     OW 1573   0.150   0.643   0.377  0.4475 -0.4660 -0.3955
  525SOL    HW1 1574   0.084   0.588   0.316 -2.6223  2.3640  0.1290
  525SOL    HW2 1575   0.223   0.586   0.405 -5.9095  3.0695  2.6698
  526SOL     OW 1576   0.967   0.150   0.514  0.5019 -0.3213 -0.4556
  526SOL    HW1 1577   0.882   0.096   0.495 -0.1861  0.6913  1.6475
  526SOL    HW2 1578   0.992   0.146   0.619  1.7341  0.4380  3.7182
  527SOL     OW 1579   1.875   1.624   1.172  0.5432 -0.5610  0.4061
  527SOL    HW1 1580   1.957   1.579   1.215  2.8887 -2.4138 -0.1507
  527SOL    HW2 1581   1.798   1.636   1.239  0.5376 -1.2840 -2.7775
  528SOL     OW 1582   2.756   2.521   2.319  0.0025 -0.3958 -0.2890
  528SOL    HW1 1583   2.719   2.500   2.222 -1.2545 -2.8086  0.2187
  528SOL    HW2 1584   2.846   2.567   2.312  0.5549  0.6077  0.4938
  529SOL     OW 1585   1.207   1.664   2.301 -0.1541 -0.4387 -0.2881
  529SOL    HW1 1586   1.202   1.742   2.234 -1.2090  2.2191 -3.3273
  529SOL    HW2 1587   1.139   1.682   2.379 -0.8243 -0.8922  4.2640
  530SOL     OW 1588   1.449   1.085   0.183  0.1455  0.1411  0.5129
  530SOL    HW1 1589   1.510   1.153   0.232 -2.1271  1.7359 -0.5889
  530SOL    HW2 1590   1.487   1.053   0.091 -0.6885 -1.0599 -0.5399
  531SOL     OW 1591   0.314   1.149   0.046 -0.3238 -0.5915  0.8411
  531SOL    HW1 1592   0.363   1.069   0.002  0.8300 -2.0301  1.9893
  531SOL    HW2 1593   0.222   1.160   0.004  3.0227  1.2639  0.4083
  532SOL     OW 1594   1.749   1.295   0.853  0.3036 -0.3008 -0.0577
  532SOL    HW1 1595   1.815   1.267   0.921  0.9177 -0.9813 -2.0817
  532SOL    HW2 1596   1.741   1.399   0.848  1.2193  2.6875  0.0516
  533SOL     OW 1597   0.561   0.036   2.428  0.0925  0.4138  0.1509
  533SOL    HW1 1598   0.521   0.119   2.383 -0.2762  1.0962 -1.4323
  533SOL    HW2 1599   0.633   0.060   2.494 -0.4163  0.8211 -3.2441
  534SOL     OW 1600   0.864   2.742   2.920  0.1133 -0.2296 -0.4360
  534SOL    HW1 1601   0.780   2.747   2.974  2.9225 -2.7901 -0.9207
  534SOL    HW2 1602   0.931   2.792   2.974 -1.0131 -1.6167  1.2978
  535SOL     OW 1603   0.291   0.209   0.172  0.5948  0.2578 -0.5429
  535SOL    HW1 1604   0.360   0.290   0.166 -0.5711  2.9400  0.0872
  535SOL    HW2 1605   0.271   0.166   0.082  0.7553 -1.5047  1.6055
  536SOL     OW 1606   0.144   0.746   2.283 -0.0344  0.3556  0.1277
  536SOL    HW1 1607   0.186   0.827   2.235 -0.4420  1.7128 -0.6982
  536SOL    HW2 1608   0.201   0.662   2.269  3.3299  1.8633  0.1572
  537SOL     OW 1609   1.033   0.220   1.316 -0.1633 -0.0523  0.2173
  537SOL    HW1 1610   0.977   0.141   1.291 -0.9008  3.3278  3.4990
  537SOL    HW2 1611   1.015   0.304   1.257 -0.6363  2.1456  2.2807
  538SOL     OW 1612   0.898   1.945   0.300  0.3593 -0.3240  0.2295
  538SOL    HW1 1613   0.876   2.038   0.256  0.8205  0.0750  1.0543
  538SOL    HW2 1614   0.981   1.905   0.258 -0.7003  0.6738 -1.2553
  539SOL     OW 1615   2.434   1.103   1.945 -0.2180 -0.4899 -0.6215
  539SOL    HW1 1616   2.395   1.051   1.863  0.1482  2.6598 -0.1683
  539SOL    HW2 1617   2.468   1.194   1.911 -1.8564 -2.3866 -1.0772
  540SOL     OW 1618   2.032   1.601   1.944  0.2722 -0.7744  0.0353
  540SOL    HW1 1619   1.977   1.524   1.967  2.0477 -1.1141 -0.8954
  540SOL    HW2 1620   2.021   1.676   2.012  3.3148 -1.4658  2.9794
  541SOL     OW 1621   0.631   1.356   1.455 -0.2785  0.6575 -0.1460
  541SOL    HW1 1622   0.713   1.296   1.462  1.6948 -0.7384  2.9453
  541SOL    HW2 1623   0.606   1.370   1.359  1.2772  0.6612  1.1441
  542SOL     OW 1624   1.570   0.403   2.168  0.3057 -0.0968 -0.0601
  542SOL    HW1 1625   1.655   0.386   2.228 -2.0577 -3.9357 -1.4995
  542SOL    HW2 1626   1.592   0.447   2.079  0.8335 -1.3110  0.7854
  543SOL     OW 1627   1.087   0.649   0.270  0.3669 -0.4776  0.2528
  543SOL    HW1 1628   1.146   0.564   0.289  0.8820  1.0838  2.1854
  543SOL    HW2 1629   1.006   0.645   0.335  0.1485  1.8605  0.7752
  544SOL     OW 1630   2.713   1.824   2.139  0.5540 -0.5457 -0.3006
  544SOL    HW1 1631   2.632   1.769   2.173 -1.2605 -0.2027 -0.3636
  544SOL    HW2 1632   2.792   1.801   2.197  0.7225 -1.1981  1.2969
  545SOL     OW 1633   1.787   2.115   1.787 -0.0107 -0.1175 -0.5470
  545SOL    HW1 1634   1.877   2.098   1.837  2.4885  0.1556 -2.1935
  545SOL    HW2 1635   1.755   2.211   1.799  0.7658 -2.0272  1.1065
  546SOL     OW 1636   0.294   0.073   3.031 -0.2830 -0.3907 -0.0713
  546SOL    HW1 1637   0.317   0.122   2.946 -0.4174  1.5689 -0.6264
  546SOL    HW2 1638   0.248   3.086   3.012  2.4512  0.9643 -2.3174
  547SOL     OW 1639   2.206   1.072   0.251 -0.0747 -0.0355 -0.1453
  547SOL    HW1 1640   2.107   1.051   0.262  0.3741 -1.1295 -1.8360
  547SOL    HW2 1641   2.217   1.118   0.159  2.6034 -0.5591 -1.7343
  548SOL     OW 1642   2.248   1.745   2.662  0.8456  0.0821  0.0781
  548SOL    HW1 1643   2.149   1.720   2.675  0.6326 -0.7159  0.3047
  548SOL    HW2 1644   2.307   1.671   2.697 -2.6335  2.7139  0.6650
  549SOL     OW 1645   1.985   0.403   0.684  0.6047  0.2725  0.6256
  549SOL    HW1 1646   2.006   0.353   0.597  0.6539 -0.3877  1.4546
  549SOL    HW2 1647   1.892   0.442   0.672 -0.1633 -2.6079  2.8191
  550SOL     OW 1648   2.332   2.170   0.908 -0.1115  0.1557  0.8636
  550SOL    HW1 1649   2.381   2.095   0.956 -0.2434 -0.1296 -0.8034
  550SOL    HW2 1650   2.254   2.132   0.854  0.0313  0.8086  0.1276
  551SOL     OW 1651   0.992   0.261   1.622 -0.0325  0.0254  0.1625
  551SOL    HW1 1652   1.044   0.241   1.537 -1.2626 -1.0188 -0.3709
  551SOL    HW2 1653   0.937   0.343   1.602  1.3991 -0.2475 -1.1902
  552SOL     OW 1654   0.412   2.548   2.558  0.0860 -0.1867 -0.3474
  552SOL    HW1 1655   0.346   2.604   2.608  0.5667  0.5225 -0.3098
  552SOL    HW2 1656   0.375   2.450   2.548 -0.6380 -2.3934 -1.4035
  553SOL     OW 1657   0.689   0.056   0.492  0.2414  0.2019 -0.1436
  553SOL    HW1 1658   0.605   0.081   0.434 -2.9397 -0.4967 -2.5924
  553SOL    HW2 1659   0.681   3.055   0.516 -0.5543 -3.1486 -0.4475
  554SOL     OW 1660   2.188   2.203   1.702  0.1601  0.4532  0.0186
  554SOL    HW1 1661   2.151   2.128   1.757  1.3085 -0.0416  2.4962
  554SOL    HW2 1662   2.111   2.246   1.651  0.5235  1.6410  0.7591
  555SOL     OW 1663   1.349   2.221   1.858  0.0138  0.4757  0.5600
  555SOL    HW1 1664   1.333   2.170   1.771  0.9484  0.5578  2.7758
  555SOL    HW2 1665   1.422   2.172   1.906 -1.0279  3.9794  0.7716
  556SOL     OW 1666   1.418   1.679   1.262 -0.0792 -0.6428  0.2863
  556SOL    HW1 1667   1.344   1.689   1.196  2.2944 -0.6153  2.8834
  556SOL    HW2 1668   1.483   1.610   1.229 -0.0144  0.3343  0.4552
  557SOL     OW 1669   2.005   2.174   2.051  0.1007  0.4179 -0.2698
  557SOL    HW1 1670   2.072   2.150   1.975 -0.0760 -0.3590 -1.8982
  557SOL    HW2 1671   2.054   2.216   2.131  2.6180  2.4048 -0.2541
  558SOL     OW 1672   0.417   0.356   1.974  0.6255 -0.3786 -0.2021
  558SOL    HW1 1673   0.356   0.313   2.042  1.5545 -1.9651  1.3807
  558SOL    HW2 1674   0.402   0.452   1.951 -1.5988 -1.6469 -2.4230
  559SOL     OW 1675   2.324   2.982   1.305  0.2086 -0.2746 -0.1960
  559SOL    HW1 1676   2.414   3.016   1.347  0.4528  1.1046  0.1794
  559SOL    HW2 1677   2.245   3.027   1.341 -0.4355 -2.6469  0.6149
  560SOL     OW 1678   0.903   2.367   0.418 -0.2337 -0.2175 -0.0012
  560SOL    HW1 1679   0.902   2.451   0.364  1.7377 -4.6271  0.8695
  560SOL    HW2 1680   0.929   2.378   0.517 -1.4964 -1.6537  0.1768
  561SOL     OW 1681   1.094   0.369   0.028 -0.0278 -0.0846 -0.3454
  561SOL    HW1 1682   1.147   0.379   3.043 -1.5181 -3.6575  1.7487
  561SOL    HW2 1683   1.154   0.406   0.104 -1.2102 -1.0148  0.2760
  562SOL     OW 1684   0.827   0.351   2.782 -0.3430 -0.1438  0.4369
  562SOL    HW1 1685   0.888   0.300   2.718 -0.1098 -1.3186 -0.6189
  562SOL    HW2 1686   0.777   0.423   2.731 -1.4284 -0.1606  0.3226
  563SOL     OW 1687   1.674   1.903   2.818 -0.1762 -0.3440 -0.0850
  563SOL    HW1 1688   1.776   1.923   2.829  2.5916  0.9284  0.2237
  563SOL    HW2 1689   1.643   1.951   2.733 -1.5661 -1.2073 -1.8737
  564SOL     OW 1690   2.768   1.043   0.683  0.1057 -0.7331  0.1286
  564SOL    HW1 1691   2.750   0.950   0.643  0.3564  0.1569  0.3407
  564SOL    HW2 1692   2.859   1.045   0.723 -1.0675  0.5402 -1.7020
  565SOL     OW 1693   1.421   0.248   2.603  0.3258 -0.5546  0.4894
  565SOL    HW1 1694   1.411   0.221   2.698 -0.2753  0.0631 -2.6286
  565SOL    HW2 1695   1.379   0.335   2.588  1.3058  1.3566  0.2479
  566SOL     OW 1696   1.150   0.225   2.196  0.5805  0.3839 -0.5762
  566SOL    HW1 1697   1.072   0.185   2.251  0.1885  1.0524  2.8408
  566SOL    HW2 1698   1.173   0.169   2.119  0.1732  2.1722  0.4924
  567SOL     OW 1699   2.756   1.338   0.766  0.6151 -0.2676  0.4915
  567SOL    HW1 1700   2.746   1.236   0.755  0.0217  1.5828 -1.0797
  567SOL    HW2 1701   2.856   1.361   0.756  1.2434 -1.2999  1.8205
  568SOL     OW 1702   1.766   1.963   0.617 -0.4518  0.6201  0.3264
  568SOL    HW1 1703   1.832   1.966   0.538  0.3175 -0.6618 -0.2969
  568SOL    HW2 1704   1.692   1.890   0.611 -0.2122  0.7691 -0.7041
  569SOL     OW 1705   2.082   1.528   2.953 -0.5637 -0.5007  0.1240
  569SOL    HW1 1706   2.049   1.433   2.975 -0.6510 -3.5185 -0.6741
  569SOL    HW2 1707   2.185   1.535   2.934  0.2190  0.2514  2.8932
  570SOL     OW 1708   0.171   2.994   1.697 -0.1322  0.2239 -0.4741
  570SOL    HW1 1709   0.269   3.007   1.730  3.6718 -1.8222  0.8048
  570SOL    HW2 1710   0.117   3.079   1.707 -0.1644  0.0028  0.8874
  571SOL     OW 1711   0.044   0.329   2.397  0.1230 -0.3253  0.0989
  571SOL    HW1 1712   3.058   0.383   2.391  1.0187  0.5280 -1.5314
  571SOL    HW2 1713   0.106   0.341   2.474  0.0758  1.3988 -4.4312
  572SOL     OW 1714   0.746   1.609   0.506 -0.4366  0.1836 -0.0802
  572SOL    HW1 1715   0.651   1.578   0.506  0.7397 -0.7176 -1.4241
  572SOL    HW2 1716   0.773   1.652   0.597  2.1750  1.5675  0.5472
  573SOL     OW 1717   1.157   2.561   0.194  0.1125 -0.1893 -0.1799
  573SOL    HW1 1718   1.216   2.643   0.170 -0.6061 -3.8786 -1.0907
  573SOL    HW2 1719   1.194   2.517   0.275 -0.6033  1.2888 -0.1243
  574SOL     OW 1720   1.031   0.159   0.782 -0.0529  0.6640 -0.1640
  574SOL    HW1 1721   0.982   0.163   0.873 -0.7611 -0.8149  1.1471
  574SOL    HW2 1722   1.058   0.061   0.769  1.3735 -1.9990  0.5453
  575SOL     OW 1723   3.073   0.905   1.551  0.0291  0.2903 -0.5394
  575SOL    HW1 1724   2.977   0.911   1.518 -1.3699  1.9779 -0.0004
  575SOL    HW2 1725   3.084   0.973   1.629 -2.9266  1.5288  1.8614
  576SOL     OW 1726   1.713   0.004   1.513 -0.4172 -0.6366 -0.4809
  576SOL    HW1 1727   1.766   0.067   1.456  1.3687  0.1548 -0.1710
  576SOL    HW2 1728   1.661   3.043   1.452  0.5150  0.8721  1.4652
  577SOL     OW 1729   3.053   1.195   2.031  0.1513  0.7176  0.0102
  577SOL    HW1 1730   3.018   1.100   2.056 -0.3585 -0.1829  1.1675
  577SOL    HW2 1731   0.050   1.200   2.060  1.2082 -3.6837 -0.8180
  578SOL     OW 1732   1.840   3.079   2.514 -0.5325 -0.0956 -0.1890
  578SOL    HW1 1733   1.783   0.062   2.534  0.4682 -0.7114 -1.3959
  578SOL    HW2 1734   1.806   2.996   2.563  1.0395  0.5418 -3.5184
  579SOL     OW 1735   2.248   1.932   2.029 -0.0444 -0.7498 -0.4607
  579SOL    HW1 1736   2.328   1.943   1.968 -1.6151  2.9331  0.9206
  579SOL    HW2 1737   2.261   1.962   2.125 -0.0077 -1.5977  1.1429
  580SOL     OW 1738   1.982   1.724   2.672 -0.1410 -0.5628 -0.2550
  580SOL    HW1 1739   1.959   1.795   2.743 -1.9751 -1.9316 -2.2210
  580SOL    HW2 1740   1.931   1.743   2.584 -1.5746  1.0053 -1.8563
  581SOL     OW 1741   1.368   1.061   2.864 -0.3182  0.1634  0.3112
  581SOL    HW1 1742   1.325   0.975   2.889  3.9953  0.8124  0.3319
  581SOL    HW2 1743   1.459   1.040   2.824  0.9533  1.8758  0.1037
  582SOL     OW 1744   0.871   2.118   1.418 -0.2624  0.3760 -0.1337
  582SOL    HW1 1745   0.826   2.050   1.473 -0.1883 -0.1645  1.4677
  582SOL    HW2 1746   0.936   2.082   1.344 -0.7534 -1.2800 -0.5864
  583SOL     OW 1747   1.263   1.078   1.169 -0.2812  0.3355  0.1798
  583SOL    HW1 1748   1.235   0.987   1.120 -0.4189 -0.1705 -3.0861
  583SOL    HW2 1749   1.318   1.136   1.105 -0.7976 -4.0791 -1.5758
  584SOL     OW 1750   1.593   2.478   0.544 -0.2535 -0.5962 -0.0314
  584SOL    HW1 1751   1.612   2.379   0.553  0.6787  0.1844 -1.0787
  584SOL    HW2 1752   1.584   2.519   0.639 -1.3742 -1.8382 -2.4213
  585SOL     OW 1753   2.396   2.569   3.015 -0.4398 -0.9216 -0.0901
  585SOL    HW1 1754   2.467   2.612   2.958 -3.0785  0.4225  0.8262
  585SOL    HW2 1755   2.306   2.603   2.987  1.2120  3.3622 -3.5965
  586SOL     OW 1756   2.653   2.080   0.814  0.3382  0.1972  0.3015
  586SOL    HW1 1757   2.591   2.038   0.744 -3.9525 -1.7117 -1.3862
  586SOL    HW2 1758   2.697   2.167   0.786 -1.1832  3.7005 -0.8554
  587SOL     OW 1759   1.200   1.679   0.004  0.5395 -0.9575 -0.1399
  587SOL    HW1 1760   1.247   1.593   0.018 -0.1836  1.3101  0.7457
  587SOL    HW2 1761   1.122   1.658   3.047  1.0903  0.7869  1.3101
  588SOL     OW 1762   0.484   0.245   1.160 -0.5394 -0.3593  0.0745
  588SOL    HW1 1763   0.546   0.240   1.239 -2.6159 -0.6914 -1.6120
  588SOL    HW2 1764   0.393   0.271   1.201 -0.9670 -0.5885 -0.0743
  589SOL     OW 1765   1.034   0.642   0.608 -0.1967 -0.2294  0.2546
  589SOL    HW1 1766   0.970   0.617   0.534  1.5538  1.9130  3.5770
  589SOL    HW2 1767   1.026   0.578   0.688  1.2784  0.4030  2.3902
  590SOL     OW 1768   2.248   2.338   0.025 -0.2132  0.5271  0.0452
  590SOL    HW1 1769   2.193   2.340   0.113 -2.7078  2.0734  4.2377
  590SOL    HW2 1770   2.290   2.426   0.005 -1.0463 -0.0097  1.4926
  591SOL     OW 1771   0.365   2.689   2.138  0.1649  0.3469 -0.4609
  591SOL    HW1 1772   0.336   2.771   2.088  0.0709  1.4728 -0.3528
  591SOL    HW2 1773   0.397   2.611   2.080  1.8821  0.4338  2.3563
  592SOL     OW 1774   2.967   1.449   1.996 -0.1597  0.0862 -0.1086
  592SOL    HW1 1775   3.010   1.356   2.008 -0.6409 -3.4263  1.5842
  592SOL    HW2 1776   3.031   1.520   2.034  0.8114 -1.5007  0.1620
  593SOL     OW 1777   1.848   1.347   1.263 -0.2740  0.0425  0.2875
  593SOL    HW1 1778   1.893   1.414   1.324  1.8802 -1.8398 -1.4680
  593SOL    HW2 1779   1.767   1.314   1.318  0.4673  1.9229 -1.9814
  594SOL     OW 1780   2.888   1.395   2.830  0.5463  0.0249 -0.1433
  594SOL    HW1 1781   2.867   1.450   2.914  0.3672 -0.8524  1.1773
  594SOL    HW2 1782   2.924   1.304   2.856  1.2792  2.9991  0.9048
  595SOL     OW 1783   0.831   1.097   0.532 -0.2406  0.3844 -0.5934
  595SOL    HW1 1784   0.731   1.115   0.521 -2.3214  0.4224 -0.2956
  595SOL    HW2 1785   0.870   1.089   0.441  1.4326  1.5078  0.1792
  596SOL     OW 1786   3.033   1.203   1.255 -0.0565  0.0728 -0.8456
  596SOL    HW1 1787   2.961   1.191   1.183 -2.7555  0.3051  0.2598
  596SOL    HW2 1788   0.000   1.277   1.233  0.6039  1.4781 -0.2071
  597SOL     OW 1789   1.046   2.230   1.592  0.5685  0.4459 -0.1015
  597SOL    HW1 1790   0.984   2.172   1.539  0.8323 -2.8271  3.1288
  597SOL    HW2 1791   1.131   2.176   1.607  2.7461 -1.0672 -1.3691
  598SOL     OW 1792   2.399   2.369   1.757 -0.5340  0.4736  0.0519
  598SOL    HW1 1793   2.321   2.312   1.742 -0.2910  2.4287  2.0559
  598SOL    HW2 1794   2.469   2.350   1.689  0.0223 -3.0909 -0.0830
  599SOL     OW 1795   0.460   1.390   0.027  0.0846  0.2468 -0.0832
  599SOL    HW1 1796   0.548   1.368   3.083 -1.9371 -2.1897  1.6288
  599SOL    HW2 1797   0.391   1.313   0.000 -1.7084  0.0125 -1.5125
  600SOL     OW 1798   0.702   0.690   2.999  0.5934  0.0968  0.2438
  600SOL    HW1 1799   0.772   0.617   2.980 -2.0389  1.2471  0.0109
  600SOL    HW2 1800   0.709   0.720   3.093 -0.2131 -1.7091 -2.2743
  601SOL     OW 1801   0.391   0.623   1.897 -0.7623 -0.4325 -0.1709
  601SOL    HW1 1802   0.386   0.707   1.837  1.8257  2.2379 -1.5493
  601SOL    HW2 1803   0.450   0.644   1.978 -0.8401  0.7121  0.1561
  602SOL     OW 1804   0.491   2.589   0.556 -0.7028  0.3671 -1.0689
  602SOL    HW1 1805   0.507   2.491   0.578  0.9855 -1.5706  1.1831
  602SOL    HW2 1806   0.402   2.588   0.503 -1.3479  1.5075 -0.0992
  603SOL     OW 1807   1.234   2.732   1.935 -0.2364 -0.3040 -0.2414
  603SOL    HW1 1808   1.154   2.752   1.871 -2.8888  2.1845 -2.1428
  603SOL    HW2 1809   1.204   2.664   2.002 -0.8467  3.1857  2.0964
  604SOL     OW 1810   0.413   2.222   2.934  0.3033 -0.5958  1.0659
  604SOL    HW1 1811   0.420   2.131   2.891  0.6556 -3.7970 -0.3379
  604SOL    HW2 1812   0.322   2.246   2.963 -0.7721  0.2940  0.1825
  605SOL     OW 1813   1.995   1.114   1.758 -0.3877  0.6039  0.1638
  605SOL    HW1 1814   1.977   1.070   1.666 -0.2610 -0.7639 -2.7387
  605SOL    HW2 1815   2.058   1.192   1.743 -3.5244  0.6342 -2.0379
  606SOL     OW 1816   0.639   0.896   2.837 -0.0599 -0.4359  0.3716
  606SOL    HW1 1817   0.728   0.947   2.843  1.6697 -1.4702 -0.1255
  606SOL    HW2 1818   0.648   0.799   2.879 -2.6076 -0.6898  0.5688
  607SOL     OW 1819   0.974   0.806   1.226  0.6304 -0.4008  0.2519
  607SOL    HW1 1820   0.982   0.777   1.321  0.4246 -0.7729 -2.7698
  607SOL    HW2 1821   0.882   0.850   1.212  0.0349  0.5119  0.6392
  608SOL     OW 1822   2.790   1.738   1.884  0.1753  0.1787 -0.3714
  608SOL    HW1 1823   2.770   1.778   1.977  0.0230 -0.3806  1.8094
  608SOL    HW2 1824   2.762   1.802   1.806  3.6662  0.2583  0.7942
  609SOL     OW 1825   2.386   0.233   0.109 -0.4880 -0.4820  0.4497
  609SOL    HW1 1826   2.469   0.279   0.066  2.1757 -1.2439  3.3143
  609SOL    HW2 1827   2.398   0.132   0.106  3.0476 -0.3222  0.2955
  610SOL     OW 1828   2.813   2.520   1.409 -0.1623 -0.3472 -0.4112
  610SOL    HW1 1829   2.760   2.530   1.328  0.4720 -0.1486  2.8565
  610SOL    HW2 1830   2.910   2.543   1.394 -1.6263 -0.2252 -1.2942
  611SOL     OW 1831   1.720   2.210   0.273 -0.0836  0.2650 -0.5210
  611SOL    HW1 1832   1.746   2.133   0.202  1.9462 -3.5320 -1.3733
  611SOL    HW2 1833   1.689   2.174   0.366 -2.0365 -1.5729  0.1708
  612SOL     OW 1834   0.694   3.039   1.729  0.1910  0.2212 -0.4655
  612SOL    HW1 1835   0.672   3.024   1.633 -0.9921  3.5409  0.6894
  612SOL    HW2 1836   0.781   3.095   1.740 -0.7828  1.3081 -3.0199
  613SOL     OW 1837   0.053   1.888   0.630  0.0876 -0.5077 -0.2170
  613SOL    HW1 1838   0.054   1.967   0.568  0.0081 -2.0956 -0.3217
  613SOL    HW2 1839   3.080   1.890   0.700 -1.0222  0.3051 -0.5652
  614SOL     OW 1840   1.754   0.322   1.755  0.0639 -0.0283  0.1551
  614SOL    HW1 1841   1.827   0.378   1.702 -0.8708 -0.3804  0.3907
  614SOL    HW2 1842   1.785   0.254   1.827  1.8576  1.0842  5.7802
  615SOL     OW 1843   1.318   1.512   0.939 -0.7529  0.1132 -0.0856
  615SOL    HW1 1844   1.316   1.607   0.982  0.7211  0.5348 -1.0280
  615SOL    HW2 1845   1.367   1.443   1.002 -0.5696 -2.4591  1.5279
  616SOL     OW 1846   1.854   1.710   0.421 -0.1821 -0.3353  0.4029
  616SOL    HW1 1847   1.892   1.801   0.393  2.2016 -1.9070  5.0224
  616SOL    HW2 1848   1.761   1.685   0.384 -0.4585 -0.6484  0.0985
  617SOL     OW 1849   1.588   0.787   0.092 -0.3148 -0.4355  0.1697
  617SOL    HW1 1850   1.569   0.745   0.186 -2.0707  1.4608 -0.2266
  617SOL    HW2 1851   1.620   0.881   0.098 -4.0810 -0.0780  0.0049
  618SOL     OW 1852   0.492   0.783   2.478  0.1165 -0.2110 -0.2570
  618SOL    HW1 1853   0.484   0.770   2.380  1.3113  1.5189  0.0440
  618SOL    HW2 1854   0.525   0.873   2.512 -1.1222  0.0788  0.4992
  619SOL     OW 1855   2.925   1.657   1.274 -0.4662 -0.0461  0.4594
  619SOL    HW1 1856   3.026   1.661   1.276 -2.8935  0.5755  1.3303
  619SOL    HW2 1857   2.896   1.641   1.177  1.6429 -1.5196 -1.1017
  620SOL     OW 1858   2.137   2.618   2.582 -0.0813  0.0507 -0.0756
  620SOL    HW1 1859   2.224   2.667   2.561 -0.7006  0.6100 -1.8182
  620SOL    HW2 1860   2.077   2.687   2.623  1.6604 -1.5449 -2.3826
  621SOL     OW 1861   3.023   2.005   3.076 -0.3933  0.2250 -0.5394
  621SOL    HW1 1862   2.976   1.916   3.037  1.0464 -0.0196  2.0352
  621SOL    HW2 1863   3.058   1.979   0.065 -1.4715  1.0213  1.3964
  622SOL     OW 1864   1.467   0.147   2.116 -0.5741 -0.0613 -0.0669
  622SOL    HW1 1865   1.437   0.149   2.212  0.0536 -1.1172  0.0967
  622SOL    HW2 1866   1.520   0.232   2.092  0.3726  1.8567 -0.9542
  623SOL     OW 1867   0.622   2.496   1.103  0.0780 -0.2512 -0.4247
  623SOL    HW1 1868   0.679   2.453   1.180  0.4498 -0.7706  1.4222
  623SOL    HW2 1869   0.583   2.582   1.134  1.0229 -0.9969 -0.9817
  624SOL     OW 1870   0.076   2.955   2.953  0.4664 -0.4765  0.2057
  624SOL    HW1 1871   3.098   2.897   2.926  1.2998 -1.1303  2.4239
  624SOL    HW2 1872   0.165   2.924   2.903  1.5432 -1.2858 -2.8424
  625SOL     OW 1873   0.789   1.969   0.631  0.0114 -0.2441 -0.1083
  625SOL    HW1 1874   0.883   1.935   0.658 -0.0374  2.6540  1.6217
  625SOL    HW2 1875   0.767   1.964   0.531  0.9940  2.5325 -2.7110
  626SOL     OW 1876   2.802   0.380   2.861 -0.1834 -0.0858  0.1935
  626SOL    HW1 1877   2.834   0.305   2.916 -0.9800  0.0670  0.6161
  626SOL    HW2 1878   2.822   0.361   2.766 -2.1344  0.5726  1.6563
  627SOL     OW 1879   1.485   1.997   3.000  0.1754 -0.4755  0.3644
  627SOL    HW1 1880   1.549   1.949   2.939 -0.9047 -1.5064  0.6318
  627SOL    HW2 1881   1.386   1.970   2.978  0.8376 -4.7365  3.2392
  628SOL     OW 1882   0.175   2.631   2.941 -0.0146  0.7602  0.1379
  628SOL    HW1 1883   0.190   2.554   2.874 -0.4479 -1.0137  0.5346
  628SOL    HW2 1884   0.074   2.650   2.955 -1.6101  0.5780 -1.5625
  629SOL     OW 1885   0.857   2.926   2.699 -0.0077  0.0940  0.3250
  629SOL    HW1 1886   0.861   2.856   2.775  0.1375  0.2962  0.1486
  629SOL    HW2 1887   0.794   2.889   2.636  3.5680  1.2482  1.3571
  630SOL     OW 1888   1.342   0.846   2.034  1.0508  0.4712 -0.0691
  630SOL    HW1 1889   1.289   0.782   1.972 -0.0293  0.2541 -2.0037
  630SOL    HW2 1890   1.315   0.944   2.022 -0.5473  2.1737  0.3320
  631SOL     OW 1891   1.898   1.088   0.297  0.3966 -0.0047  0.9199
  631SOL    HW1 1892   1.943   1.086   0.387 -3.0038 -0.1095  0.7263
  631SOL    HW2 1893   1.936   1.160   0.232 -0.5208 -0.1529  2.1382
  632SOL     OW 1894   2.539   0.470   1.986 -0.0298 -0.5585 -0.2274
  632SOL    HW1 1895   2.630   0.518   1.985  3.5205  0.0190  2.3816
  632SOL    HW2 1896   2.549   0.379   1.932  1.8267 -0.7958 -2.2398
  633SOL     OW 1897   0.835   1.622   0.049  0.1623 -0.0609 -0.8920
  633SOL    HW1 1898   0.890   1.681   3.083  2.7899  1.2486 -0.2963
  633SOL    HW2 1899   0.877   1.627   0.147  0.3790  1.0353  2.4197
  634SOL     OW 1900   2.443   2.666   2.208 -0.1521 -0.3498  0.1408
  634SOL    HW1 1901   2.355   2.692   2.243 -0.7951  1.6741 -3.2131
  634SOL    HW2 1902   2.434   2.621   2.115  1.9959  1.9106  0.6829
  635SOL     OW 1903   1.945   0.645   0.279 -0.1024 -0.6183 -0.0951
  635SOL    HW1 1904   1.962   0.580   0.352  1.4202 -1.6321 -3.2324
  635SOL    HW2 1905   1.932   0.737   0.317 -0.3248 -0.8825  0.1301
  636SOL     OW 1906   0.674   1.345   0.840 -0.5432  0.0693 -0.5631
  636SOL    HW1 1907   0.585   1.328   0.792 -0.7600 -0.8062 -3.7197
  636SOL    HW2 1908   0.750   1.353   0.773 -2.2649 -1.2549 -0.4872
  637SOL     OW 1909   2.905   2.304   0.276  0.5628 -0.3212 -0.1878
  637SOL    HW1 1910   2.885   2.212   0.318 -0.0493 -1.7882  0.0204
  637SOL    HW2 1911   2.857   2.376   0.328  0.7479 -1.1761 -1.3121
  638SOL     OW 1912   1.498   2.520   2.391 -0.2264 -0.1272  0.0511
  638SOL    HW1 1913   1.537   2.572   2.311 -2.3127  0.9621  0.1312
  638SOL    HW2 1914   1.434   2.452   2.356  0.3981  1.4671 -1.8560
  639SOL     OW 1915   1.503   2.009   0.349 -0.1619  0.6302 -1.1543
  639SOL    HW1 1916   1.494   2.109   0.355  0.9635 -0.7752 -1.1180
  639SOL    HW2 1917   1.456   1.965   0.430 -1.4180 -0.5906 -2.1470
  640SOL     OW 1918   2.068   0.311   0.397  0.4188 -0.2714  0.0006
  640SOL    HW1 1919   2.131   0.244   0.434 -1.7968  3.1033 -3.3440
  640SOL    HW2 1920   2.118   0.371   0.331  0.7785  0.7197  1.9656
  641SOL     OW 1921   3.030   2.918   0.432  0.6644 -0.5014  0.2842
  641SOL    HW1 1922   3.010   2.984   0.506  1.4430  0.9847 -1.8731
  641SOL    HW2 1923   3.035   2.977   0.349 -2.2902 -1.4438  0.6747
  642SOL     OW 1924   0.643   0.289   1.600 -0.5111  0.1355 -0.1259
  642SOL    HW1 1925   0.553   0.332   1.578 -4.3601 -0.4141 -2.4164
  642SOL    HW2 1926   0.650   0.258   1.698 -1.2466  0.3270 -1.0733
  643SOL     OW 1927   0.559   1.318   2.294 -0.4010  0.0554  0.0938
  643SOL    HW1 1928   0.631   1.317   2.364 -1.5897  0.2295 -2.9090
  643SOL    HW2 1929   0.502   1.402   2.308  0.4217  2.2603 -2.6973
  644SOL     OW 1930   1.391   2.536   0.368 -0.0819 -0.2897 -0.6052
  644SOL    HW1 1931   1.379   2.638   0.381 -1.2109  0.3872  0.9356
  644SOL    HW2 1932   1.465   2.507   0.439  0.2971 -2.6483  0.4053
  645SOL     OW 1933   1.798   2.025   0.095  0.3338  0.1785  0.1652
  645SOL    HW1 1934   1.812   2.074   0.010  0.3625  0.8813  2.0119
  645SOL    HW2 1935   1.717   1.964   0.100  0.8807  1.1209  1.6398
  646SOL     OW 1936   0.189   1.394   2.857  0.5210  0.3726 -0.7223
  646SOL    HW1 1937   0.219   1.475   2.798  1.0233 -0.8750  0.4206
  646SOL    HW2 1938   0.201   1.312   2.798  0.7829  0.4527 -1.1662
  647SOL     OW 1939   0.863   0.218   1.013 -0.0482 -0.1075 -0.7915
  647SOL    HW1 1940   0.803   0.151   1.064 -1.9084 -4.8745  3.5151
  647SOL    HW2 1941   0.873   0.309   1.052 -1.0727 -0.7080 -0.6365
  648SOL     OW 1942   1.471   0.563   1.264 -1.0335 -0.3490 -0.1470
  648SOL    HW1 1943   1.445   0.618   1.180  0.7622  0.2526  2.7567
  648SOL    HW2 1944   1.518   0.618   1.337  0.8761  0.0991  3.0414
  649SOL     OW 1945   1.160   1.840   0.215  0.1020  0.1095  0.3823
  649SOL    HW1 1946   1.171   1.938   0.188  0.5712  1.8925 -1.5874
  649SOL    HW2 1947   1.169   1.782   0.129  0.8096  1.0937 -3.5616
  650SOL     OW 1948   2.707   1.428   2.136 -0.3638  0.0980  0.4226
  650SOL    HW1 1949   2.732   1.465   2.228 -1.8451 -0.0735  0.2096
  650SOL    HW2 1950   2.786   1.424   2.068  3.2770  0.3539 -1.2379
  651SOL     OW 1951   1.330   2.278   2.582  0.1744  0.2083  0.2624
  651SOL    HW1 1952   1.266   2.272   2.658  3.2671 -1.2077 -4.2997
  651SOL    HW2 1953   1.286   2.244   2.496  1.6729  1.4172  1.6598
  652SOL     OW 1954   2.679   1.741   0.159  0.0637  0.2281  0.2294
  652SOL    HW1 1955   2.646   1.659   0.109  1.6542  1.7310 -0.5556
  652SOL    HW2 1956   2.639   1.825   0.112 -1.2857  2.4238  1.8340
  653SOL     OW 1957   0.230   0.028   1.224  0.3365 -0.2178  0.6826
  653SOL    HW1 1958   0.189   0.020   1.130 -0.4174  1.2551 -2.9403
  653SOL    HW2 1959   0.218   0.126   1.246  1.9716 -0.7163 -0.3098
  654SOL     OW 1960   2.246   0.288   2.402 -0.4744  0.6593  0.3051
  654SOL    HW1 1961   2.310   0.219   2.367 -2.9014  1.8254 -0.5571
  654SOL    HW2 1962   2.149   0.259   2.391  2.1237  2.4010 -3.0705
  655SOL     OW 1963   0.166   2.885   1.013  0.1071 -0.0475 -0.0844
  655SOL    HW1 1964   0.208   2.810   0.957 -1.4273 -2.0831  0.5340
  655SOL    HW2 1965   0.178   2.975   0.971  0.9312  0.0937  2.2275
  656SOL     OW 1966   3.028   2.961   2.275 -0.4325 -0.7971 -0.6898
  656SOL    HW1 1967   2.953   3.011   2.230 -0.8371 -1.3586 -2.6135
  656SOL    HW2 1968   3.074   3.019   2.345 -2.3049 -1.5201  1.6349
  657SOL     OW 1969   2.478   0.771   2.835 -0.0748  0.0954 -0.3613
  657SOL    HW1 1970   2.496   0.862   2.787 -1.9874 -0.5773  0.5555
  657SOL    HW2 1971   2.568   0.715   2.846  0.7047 -1.6598 -0.5237
  658SOL     OW 1972   2.180   1.915   1.112 -0.1893 -0.3475 -0.7508
  658SOL    HW1 1973   2.186   1.971   1.199 -0.9145 -0.0528 -0.5633
  658SOL    HW2 1974   2.240   1.835   1.117 -0.2033  0.6502 -0.2021
  659SOL     OW 1975   2.189   3.002   0.419 -0.4949 -0.3583 -0.2175
  659SOL    HW1 1976   2.105   2.941   0.422 -1.3611  0.4810  1.2168
  659SOL    HW2 1977   2.269   2.954   0.456 -0.4453 -1.2441 -0.3032
  660SOL     OW 1978   1.635   1.209   2.660 -0.5297 -0.5131  0.0797
  660SOL    HW1 1979   1.659   1.304   2.684  1.1282  2.4056 -1.8460
  660SOL    HW2 1980   1.536   1.210   2.647  3.1225  1.0299  3.4197
  661SOL     OW 1981   2.576   2.376   1.556 -0.1612  0.0112 -0.3374
  661SOL    HW1 1982   2.576   2.342   1.459  0.6371 -0.9981  0.2335
  661SOL    HW2 1983   2.622   2.466   1.563  0.9144 -1.5433  1.2155
  662SOL     OW 1984   0.693   0.759   0.171  0.1500  0.0111  0.6062
  662SOL    HW1 1985   0.594   0.761   0.199 -0.2919 -0.4426 -0.2204
  662SOL    HW2 1986   0.735   0.677   0.216 -2.1835 -2.1156 -2.7112
  663SOL     OW 1987   2.018   2.218   0.821 -0.8319 -0.3009  0.6940
  663SOL    HW1 1988   1.940   2.171   0.864  0.3549  2.3646 -2.8084
  663SOL    HW2 1989   2.086   2.150   0.774  3.2040 -1.4586 -0.6262
  664SOL     OW 1990   0.745   1.758   1.311  0.1674  0.3553 -0.1014
  664SOL    HW1 1991   0.695   1.815   1.244  1.1434 -1.6804  0.4523
  664SOL    HW2 1992   0.834   1.804   1.336 -0.7235  1.0659  1.2010
  665SOL     OW 1993   1.747   2.374   2.042  0.2915  0.5673 -0.5077
  665SOL    HW1 1994   1.753   2.376   1.938  0.8937 -3.7128 -3.7604
  665SOL    HW2 1995   1.841   2.357   2.080  1.4608  0.5246  1.6272
  666SOL     OW 1996   0.183   2.618   0.181  0.8439  0.6404  0.3890
  666SOL    HW1 1997   0.140   2.702   0.145  1.3667 -1.3311  1.8895
  666SOL    HW2 1998   0.142   2.531   0.138 -1.8891 -2.4914 -0.1315
  667SOL     OW 1999   2.512   1.368   1.856 -0.6925 -0.2478  1.0335
  667SOL    HW1 2000   2.471   1.377   1.762  0.5225 -2.4599 -2.2988
  667SOL    HW2 2001   2.614   1.394   1.856  1.7817 -0.3697  0.9824
  668SOL     OW 2002   0.349   0.574   2.628 -0.2556 -0.0511 -0.0913
  668SOL    HW1 2003   0.397   0.645   2.568 -0.7792  1.9232 -2.1266
  668SOL    HW2 2004   0.408   0.544   2.707  2.2798 -0.2438 -1.7918
  669SOL     OW 2005   2.058   2.328   2.917  0.2974  0.9388  0.1632
  669SOL    HW1 2006   2.110   2.341   2.829 -1.2524  0.4051  1.4015
  669SOL    HW2 2007   2.114   2.342   2.998 -2.2170  0.0577 -1.9212
  670SOL     OW 2008   2.347   1.573   2.875  0.7625 -0.6301 -0.1780
  670SOL    HW1 2009   2.376   1.477   2.867  0.2599 -2.6205  0.6265
  670SOL    HW2 2010   2.433   1.632   2.867  0.9606 -0.7300  1.1594
  671SOL     OW 2011   0.303   1.631   0.880 -0.0926 -0.7929 -0.9798
  671SOL    HW1 2012   0.325   1.577   0.799  1.7962 -0.6308 -1.0744
  671SOL    HW2 2013   0.216   1.597   0.922  0.8419 -1.3390 -2.0524
  672SOL     OW 2014   2.398   0.813   2.007 -0.1511 -0.4383 -0.0208
  672SOL    HW1 2015   2.466   0.880   1.969  0.0693 -0.5156 -2.7653
  672SOL    HW2 2016   2.390   0.739   1.936  0.0005  1.5419 -1.5535
  673SOL     OW 2017   2.463   2.496   1.983 -0.3895 -0.0244  0.2473
  673SOL    HW1 2018   2.567   2.479   1.994 -0.0308  1.1429 -0.2099
  673SOL    HW2 2019   2.441   2.462   1.887  0.7979  1.7260  0.5743
  674SOL     OW 2020   1.479   2.672   1.874  0.6819 -0.1022  0.0089
  674SOL    HW1 2021   1.477   2.582   1.825 -2.0353 -3.1604 -2.9497
  674SOL    HW2 2022   1.380   2.697   1.895  0.3846  1.0272  0.3745
  675SOL     OW 2023   0.624   0.860   0.936 -0.2778 -0.1617  0.6089
  675SOL    HW1 2024   0.698   0.854   0.865  1.4389 -0.1863 -0.4400
  675SOL    HW2 2025   0.532   0.880   0.893 -2.2383  2.4331 -1.2455
  676SOL     OW 2026   1.985   1.128   0.558 -0.0509 -0.2973 -0.4750
  676SOL    HW1 2027   1.900   1.074   0.571  0.9723 -3.7482 -1.1744
  676SOL    HW2 2028   2.028   1.149   0.650  0.3798  0.9207  2.0529
  677SOL     OW 2029   2.947   1.491   2.570 -0.0262  0.3279  0.3020
  677SOL    HW1 2030   2.902   1.466   2.658 -1.6595 -1.8561 -0.7577
  677SOL    HW2 2031   3.028   1.430   2.563  1.0231 -0.1435  0.4331
  678SOL     OW 2032   2.609   2.014   1.316  0.1907 -0.6826  0.2971
  678SOL    HW1 2033   2.699   1.968   1.336  0.3016  2.2380  1.9208
  678SOL    HW2 2034   2.535   1.946   1.319  0.0781 -1.5086  0.7071
  679SOL     OW 2035   2.026   2.775   0.458 -0.6132  0.4287 -0.2286
  679SOL    HW1 2036   2.072   2.720   0.532 -0.5338  0.2793 -0.4674
  679SOL    HW2 2037   1.939   2.723   0.430 -1.2491 -3.5787 -1.5615
  680SOL     OW 2038   0.180   2.153   2.203  0.2269 -0.3936  0.3347
  680SOL    HW1 2039   0.126   2.105   2.132 -0.5281 -2.6994 -2.2449
  680SOL    HW2 2040   0.251   2.088   2.247  0.1981  0.2389 -1.1412
  681SOL     OW 2041   2.867   1.291   1.606  0.5478  0.2913 -0.0128
  681SOL    HW1 2042   2.962   1.287   1.640 -2.1643 -0.1698 -0.7496
  681SOL    HW2 2043   2.813   1.347   1.674 -2.5420 -0.1641  1.5939
  682SOL     OW 2044   1.076   2.198   0.802  0.1392 -0.3407  0.2170
  682SOL    HW1 2045   1.018   2.278   0.784  1.6174 -1.2292 -0.6882
  682SOL    HW2 2046   1.112   2.146   0.722 -1.4981 -0.8762  0.8957
  683SOL     OW 2047   2.197   1.110   1.143  0.5325 -0.7466  0.9159
  683SOL    HW1 2048   2.096   1.099   1.127 -4.0569  2.1630  1.6471
  683SOL    HW2 2049   2.227   1.161   1.224 -0.4419 -0.5025 -3.2116
  684SOL     OW 2050   0.124   1.776   2.837  0.1287 -0.2679 -0.2060
  684SOL    HW1 2051   0.021   1.780   2.825 -1.3339  1.1671 -0.8262
  684SOL    HW2 2052   0.153   1.847   2.904  0.7177 -0.3381  0.2649
  685SOL     OW 2053   1.657   1.312   0.061  0.6625  0.0017  0.6709
  685SOL    HW1 2054   1.659   1.352   3.070 -0.7308 -0.9890 -0.0670
  685SOL    HW2 2055   1.705   1.370   0.129 -2.8550 -1.2710  0.9918
  686SOL     OW 2056   3.070   0.633   1.206  0.1060  0.1047  0.0438
  686SOL    HW1 2057   3.037   0.565   1.276 -1.6983 -2.0245  1.2248
  686SOL    HW2 2058   0.023   0.591   1.131  0.3795 -3.4839 -1.2205
  687SOL     OW 2059   0.966   2.215   2.529  0.1032 -0.6280 -0.1093
  687SOL    HW1 2060   0.954   2.238   2.628 -1.0045 -1.3441 -1.6043
  687SOL    HW2 2061   0.930   2.297   2.478 -2.1145  2.7588  1.8706
  688SOL     OW 2062   0.503   1.688   1.647  0.2407 -0.7621  0.5047
  688SOL    HW1 2063   0.460   1.777   1.609 -0.8140 -1.0968 -0.1159
  688SOL    HW2 2064   0.584   1.653   1.591  2.1369  0.9895 -0.7011
  689SOL     OW 2065   1.476   0.999   1.716 -0.2097 -0.2354  0.2363
  689SOL    HW1 2066   1.415   1.029   1.641 -0.4731 -0.4010 -4.0097
  689SOL    HW2 2067   1.483   0.899   1.724 -0.2285  2.3915  1.8249
  690SOL     OW 2068   2.424   0.686   1.225 -0.2748 -0.3488 -0.3310
  690SOL    HW1 2069   2.386   0.591   1.228  3.5521 -0.3020  0.9513
  690SOL    HW2 2070   2.362   0.750   1.179  0.0350  0.3788  2.2977
  691SOL     OW 2071   0.738   1.931   1.585 -0.4469 -0.2758  0.1061
  691SOL    HW1 2072   0.750   1.828   1.576  1.5026 -2.8730 -0.2585
  691SOL    HW2 2073   0.775   1.959   1.674  0.0698 -0.6479 -2.5242
  692SOL     OW 2074   1.886   0.233   1.386  0.0883  0.6538 -0.1746
  692SOL    HW1 2075   1.816   0.187   1.321 -1.9247 -0.9472 -0.5614
  692SOL    HW2 2076   1.978   0.240   1.341  3.1872  1.2148 -0.4165
  693SOL     OW 2077   0.298   0.946   2.186  0.5668 -0.0690  0.5138
  693SOL    HW1 2078   0.384   0.994   2.206 -0.2144  0.0419  2.3040
  693SOL    HW2 2079   0.283   0.940   2.085  0.5879  0.1636 -0.5896
  694SOL     OW 2080   1.733   0.107   1.203  0.0491  0.3731  0.0900
  694SOL    HW1 2081   1.713   0.139   1.106 -3.0617  0.2782  0.9409
  694SOL    HW2 2082   1.722   0.007   1.216  3.5063  0.9867 -2.2967
  695SOL     OW 2083   1.155   1.358   1.720  0.1076 -0.1738  0.2949
  695SOL    HW1 2084   1.164   1.396   1.627  0.6436  1.5419  3.4218
  695SOL    HW2 2085   1.105   1.268   1.717 -1.6668 -0.5345 -0.9155
  696SOL     OW 2086   1.730   2.892   0.121 -0.2051  0.2580 -0.1011
  696SOL    HW1 2087   1.717   2.833   0.038  1.9963  1.0851  2.0178
  696SOL    HW2 2088   1.805   2.952   0.099 -0.7220 -3.0318  0.7291
  697SOL     OW 2089   0.850   0.582   0.438  0.0355  0.5164 -1.0406
  697SOL    HW1 2090   0.839   0.482   0.435 -2.3873  0.5430  2.5369
  697SOL    HW2 2091   0.782   0.618   0.502  2.0743  2.1019  0.9079
  698SOL     OW 2092   1.355   1.335   2.552 -0.2927  0.2856 -0.3169
  698SOL    HW1 2093   1.381   1.354   2.457 -0.8583 -0.9840 -2.5069
  698SOL    HW2 2094   1.354   1.235   2.572  0.8570  1.7558 -1.4354
  699SOL     OW 2095   1.409   1.269   1.052 -0.3396  0.0991 -0.1333
  699SOL    HW1 2096   1.479   1.298   1.122  0.5810 -1.2661 -1.6489
  699SOL    HW2 2097   1.447   1.238   0.964 -2.0899 -1.0433  0.9439
  700SOL     OW 2098   1.690   3.081   0.491  0.2377  0.3113  0.4189
  700SOL    HW1 2099   1.691   2.989   0.449 -0.0656  2.5348 -1.4654
  700SOL    HW2 2100   1.783   0.018   0.475 -2.0467 -2.5185  1.4197
  701SOL     OW 2101   2.328   3.064   2.473 -0.4014  0.3195  0.3076
  701SOL    HW1 2102   2.377   3.009   2.402  2.1444 -1.4350  0.5206
  701SOL    HW2 2103   2.389   3.079   2.553  0.6433 -0.1089 -0.5935
  702SOL     OW 2104   1.085   0.089   0.093 -0.0177  0.0012  0.0802
  702SOL    HW1 2105   1.063   0.187   0.081 -2.6413 -3.0967  1.6173
  702SOL    HW2 2106   1.021   0.039   0.031  0.6165 -1.4854 -2.3110
  703SOL     OW 2107   2.155   2.803   2.245 -0.4313 -0.2368 -0.4397
  703SOL    HW1 2108   2.098   2.720   2.238  2.0755 -0.4157 -1.4696
  703SOL    HW2 2109   2.121   2.864   2.317 -0.0314 -2.8661 -1.7708
  704SOL     OW 2110   0.452   2.504   0.872 -0.2902  0.2469 -0.8335
  704SOL    HW1 2111   0.476   2.454   0.786 -2.2923  0.6620 -1.6207
  704SOL    HW2 2112   0.520   2.485   0.950  0.9791 -0.3930  0.2031
  705SOL     OW 2113   2.391   0.130   2.189  0.1719  0.1245  0.0370
  705SOL    HW1 2114   2.359   0.177   2.103 -4.9278 -2.4271  0.5015
  705SOL    HW2 2115   2.383   0.025   2.185 -1.5235 -1.5648  3.0288
  706SOL     OW 2116   1.912   0.085   0.415  0.1014 -0.4672 -0.0034
  706SOL    HW1 2117   1.974   0.173   0.415  1.5845  5.3709  0.2432
  706SOL    HW2 2118   1.917   0.048   0.320 -0.3998  1.1536  0.5101
  707SOL     OW 2119   1.219   1.864   2.129 -0.7475 -0.5746  0.6622
  707SOL    HW1 2120   1.305   1.915   2.155  0.1181 -0.3308  0.4398
  707SOL    HW2 2121   1.142   1.933   2.132 -3.4562  3.6715 -2.8858
  708SOL     OW 2122   0.225   2.523   1.946 -0.1060  0.0486  0.3212
  708SOL    HW1 2123   0.166   2.495   2.024 -1.5136  1.0526 -2.2907
  708SOL    HW2 2124   0.175   2.598   1.899 -0.6852 -0.6075  3.0022
  709SOL     OW 2125   1.888   0.151   1.916 -0.1996 -0.3574 -0.2366
  709SOL    HW1 2126   1.966   0.151   1.982 -0.9518  1.3164 -0.5525
  709SOL    HW2 2127   1.873   0.061   1.874  0.8557  2.0671  2.9655
  710SOL     OW 2128   1.877   0.535   2.060 -0.0273  0.1031  0.5112
  710SOL    HW1 2129   1.841   0.486   1.981  0.8885  1.1803  0.4907
  710SOL    HW2 2130   1.865   0.485   2.153 -1.7049 -1.2145  1.3011
  711SOL     OW 2131   0.822   2.176   0.195  0.8722 -0.3774  0.4512
  711SOL    HW1 2132   0.817   2.224   0.281  0.2887  0.3843 -0.4487
  711SOL    HW2 2133   0.850   2.240   0.122  1.7794  2.1264 -0.3806
  712SOL     OW 2134   0.622   2.535   2.015  0.1583 -0.8252  0.0419
  712SOL    HW1 2135   0.580   2.567   1.927  1.4781 -1.9268 -0.9132
  712SOL    HW2 2136   0.664   2.619   2.056  1.4396  2.8421 -0.0692
  713SOL     OW 2137   1.868   1.392   0.518  0.8200 -0.6333 -1.0157
  713SOL    HW1 2138   1.873   1.456   0.594  0.4561 -0.1252 -1.4106
  713SOL    HW2 2139   1.926   1.315   0.534 -0.4293 -0.1476 -0.1232
  714SOL     OW 2140   0.611   1.910   1.135 -0.0939  0.0368 -0.5133
  714SOL    HW1 2141   0.537   1.883   1.071 -1.1553  0.5069 -1.2545
  714SOL    HW2 2142   0.649   2.000   1.111  0.9870  0.1196 -0.6440
  715SOL     OW 2143   2.005   2.800   2.723 -0.0363  0.4391 -0.1943
  715SOL    HW1 2144   2.054   2.888   2.724  0.1921 -0.5185  1.9274
  715SOL    HW2 2145   1.907   2.812   2.752  0.7552  0.6010  0.2355
  716SOL     OW 2146   2.777   2.972   1.940  0.0638  0.4990  0.1861
  716SOL    HW1 2147   2.848   2.898   1.936 -0.2310  0.9564 -1.0181
  716SOL    HW2 2148   2.798   3.038   2.017 -0.8991  2.4990  2.2015
  717SOL     OW 2149   0.365   1.075   0.298  0.2357  0.3400 -0.2652
  717SOL    HW1 2150   0.358   1.124   0.208 -0.7683  2.1263 -2.5647
  717SOL    HW2 2151   0.293   1.101   0.367  1.1077  1.6997 -2.4445
  718SOL     OW 2152   1.358   1.057   2.532 -0.2623 -0.2232 -0.5768
  718SOL    HW1 2153   1.290   1.007   2.591 -0.6118  4.6552  1.4296
  718SOL    HW2 2154   1.436   0.997   2.507 -0.8906 -3.3192  1.5216
  719SOL     OW 2155   2.843   1.513   3.100  0.0102  0.5707 -0.4347
  719SOL    HW1 2156   2.893   1.485   0.082  1.8368  0.8712 -3.1560
  719SOL    HW2 2157   2.743   1.501   0.023 -1.5407  0.0868  0.4048
  720SOL     OW 2158   1.170   0.868   1.065  0.0602 -0.1626 -0.5935
  720SOL    HW1 2159   1.089   0.829   1.111  1.6270  2.7692 -3.1977
  720SOL    HW2 2160   1.164   0.856   0.967 -0.4052 -1.7267  1.0633
  721SOL     OW 2161   2.632   0.593   0.050 -0.0271  0.0438 -0.0251
  721SOL    HW1 2162   2.617   0.648   3.062 -1.2246  2.7017  2.0603
  721SOL    HW2 2163   2.643   0.665   0.123 -0.0099  0.8389  2.4466
  722SOL     OW 2164   1.610   0.893   2.781 -0.5704 -0.4080 -0.1864
  722SOL    HW1 2165   1.580   0.796   2.775 -0.1153  5.2687  0.7618
  722SOL    HW2 2166   1.636   0.926   2.690  2.0803 -0.6001  0.5702
  723SOL     OW 2167   0.123   1.135   0.454 -0.2164 -0.5224 -0.5568
  723SOL    HW1 2168   0.129   1.204   0.380  2.4996 -1.2346 -0.4998
  723SOL    HW2 2169   0.062   1.056   0.433  0.5636  2.6577  1.6803
  724SOL     OW 2170   0.427   1.572   2.229  0.0772 -0.2236  0.0260
  724SOL    HW1 2171   0.419   1.589   2.128 -0.9251 -2.0288  0.7886
  724SOL    HW2 2172   0.339   1.608   2.273  0.0141  1.6501 -1.5691
  725SOL     OW 2173   1.854   0.781   1.715 -0.2290  0.1431  0.1604
  725SOL    HW1 2174   1.884   0.844   1.643 -0.4659  0.5097  3.5376
  725SOL    HW2 2175   1.928   0.778   1.788  2.8689  0.3047 -0.6446
  726SOL     OW 2176   1.666   2.849   0.355  0.6436  0.5373 -0.0856
  726SOL    HW1 2177   1.688   2.869   0.259  1.3801 -0.1569  0.0370
  726SOL    HW2 2178   1.699   2.751   0.370  1.3667  0.2254 -1.7022
  727SOL     OW 2179   1.431   1.364   2.298 -0.2696  0.4866  0.1274
  727SOL    HW1 2180   1.527   1.335   2.273 -0.3574 -0.0939 -0.5837
  727SOL    HW2 2181   1.401   1.431   2.230  0.9362 -0.4127  0.3111
  728SOL     OW 2182   1.419   2.720   1.112 -0.3939  0.0939  0.0808
  728SOL    HW1 2183   1.337   2.664   1.134  1.1825  2.1192 -1.0695
  728SOL    HW2 2184   1.501   2.692   1.164  1.1353  0.7928  0.2750
  729SOL     OW 2185   1.949   0.877   1.281  0.4969 -0.2418 -0.1809
  729SOL    HW1 2186   1.876   0.916   1.220 -0.5342  0.9400  0.1174
  729SOL    HW2 2187   1.998   0.808   1.226 -0.3997  0.2116  0.0405
  730SOL     OW 2188   0.542   1.706   2.426  0.3221 -1.1072  0.0077
  730SOL    HW1 2189   0.489   1.662   2.353  2.3625  1.3440  0.9006
  730SOL    HW2 2190   0.610   1.768   2.387 -1.3915 -0.6022  1.8848
  731SOL     OW 2191   0.355   0.455   0.784 -0.1077  0.2835 -0.7243
  731SOL    HW1 2192   0.420   0.386   0.819 -3.1145 -0.9428  3.6600
  731SOL    HW2 2193   0.342   0.445   0.686  0.9666  0.7231  3.8332
  732SOL     OW 2194   1.142   0.812   0.056 -0.0476 -0.7730 -0.3231
  732SOL    HW1 2195   1.118   0.737   0.117 -1.3412  0.4096  0.0174
  732SOL    HW2 2196   1.100   0.899   0.084 -0.0427  0.9709 -0.3501
  733SOL     OW 2197   0.772   2.230   0.770  0.6187 -0.1266  0.0613
  733SOL    HW1 2198   0.789   2.131   0.741  0.5105 -3.8150 -2.7743
  733SOL    HW2 2199   0.686   2.264   0.732  0.3841 -1.2414  0.3433
  734SOL     OW 2200   0.158   2.424   2.775  0.7966 -0.1473  0.0311
  734SOL    HW1 2201   0.208   2.376   2.697  0.1430  1.2560 -3.0596
  734SOL    HW2 2202   0.157   2.371   2.863  1.2829 -1.3630  2.0220
  735SOL     OW 2203   1.046   0.677   1.481  0.4882 -0.3581  0.0535
  735SOL    HW1 2204   0.970   0.612   1.487  1.4541  0.3364 -1.4551
  735SOL    HW2 2205   1.130   0.628   1.444  2.4622 -0.6376 -0.5820
  736SOL     OW 2206   2.156   2.685   2.957 -0.3243  0.7046 -0.5773
  736SOL    HW1 2207   2.159   2.758   3.031 -4.2009  3.1932  1.8757
  736SOL    HW2 2208   2.134   2.734   2.871  0.8320 -2.9618  1.1735
  737SOL     OW 2209   0.068   0.249   0.738 -0.0006  1.0446  1.0315
  737SOL    HW1 2210   0.019   0.321   0.683  0.4926  1.8446 -1.4922
  737SOL    HW2 2211   0.084   0.291   0.829  0.5597  0.8577  2.4366
  738SOL     OW 2212   2.215   0.161   0.975 -0.2154  0.6355  0.2738
  738SOL    HW1 2213   2.262   0.250   0.957  0.9400  0.0473  0.0400
  738SOL    HW2 2214   2.283   0.082   0.971  0.9007 -1.2042 -1.5265
  739SOL     OW 2215   1.890   2.503   0.144  0.1827  0.1574  0.1890
  739SOL    HW1 2216   1.822   2.429   0.158  1.0821  1.4189  1.7997
  739SOL    HW2 2217   1.883   2.534   0.044  2.9117 -1.1205 -0.2908
  740SOL     OW 2218   1.480   0.307   0.957 -0.0807 -0.0252  0.1220
  740SOL    HW1 2219   1.492   0.296   0.855 -0.4651 -0.8104  1.0996
  740SOL    HW2 2220   1.559   0.262   1.002 -1.7138  0.4548  3.1845
  741SOL     OW 2221   2.605   0.770   0.947  0.8765  0.0487 -0.3706
  741SOL    HW1 2222   2.639   0.845   1.007  3.1886  2.5032 -2.3738
  741SOL    HW2 2223   2.549   0.815   0.877 -0.3152  2.0168  1.0693
  742SOL     OW 2224   1.047   2.068   2.143 -0.0242  0.3830 -0.3887
  742SOL    HW1 2225   0.946   2.068   2.173 -0.3591  1.4561 -0.8004
  742SOL    HW2 2226   1.062   2.122   2.056 -2.3078 -0.4870  1.3636
  743SOL     OW 2227   1.566   0.729   1.746  0.2083  0.2678  0.3307
  743SOL    HW1 2228   1.660   0.755   1.747 -3.6222 -1.2685  0.1569
  743SOL    HW2 2229   1.552   0.682   1.832 -1.4286  0.8961 -0.8737
  744SOL     OW 2230   2.125   0.594   1.427 -0.3265  0.1193  0.3780
  744SOL    HW1 2231   2.103   0.646   1.342  2.5202 -0.6573 -0.0882
  744SOL    HW2 2232   2.130   0.648   1.510 -2.9528 -1.4138 -0.9423
  745SOL     OW 2233   1.663   1.146   1.588 -0.6862  0.6749 -0.1515
  745SOL    HW1 2234   1.608   1.102   1.664 -2.2809 -1.9298  0.9356
  745SOL    HW2 2235   1.609   1.141   1.498 -3.5137  0.1189 -0.1581
  746SOL     OW 2236   1.708   1.662   0.932  0.1620 -0.0200 -0.0063
  746SOL    HW1 2237   1.796   1.656   0.986  1.4396  1.1322  2.1726
  746SOL    HW2 2238   1.661   1.751   0.951  1.7593 -3.1494 -3.2137
  747SOL     OW 2239   1.959   1.245   1.043  0.4242  0.3197 -0.0847
  747SOL    HW1 2240   2.003   1.322   0.990  2.1810  0.5345  1.3920
  747SOL    HW2 2241   1.916   1.275   1.130 -0.1495  0.6851  1.9724
  748SOL     OW 2242   0.525   2.314   0.668 -0.5437 -0.3801 -0.2864
  748SOL    HW1 2243   0.428   2.275   0.682 -0.7613 -0.9478  1.2680
  748SOL    HW2 2244   0.557   2.273   0.576  1.2425  0.7146 -2.6008
  749SOL     OW 2245   2.390   2.963   2.141 -0.0103  0.4883 -0.9260
  749SOL    HW1 2246   2.338   2.869   2.148 -0.6417 -2.4160 -0.9361
  749SOL    HW2 2247   2.439   2.965   2.051 -1.8293 -2.4293  0.8369
  750SOL     OW 2248   2.611   0.501   1.000  0.3118 -0.8217  0.5637
  750SOL    HW1 2249   2.654   0.496   1.094 -1.4276  0.4282  3.6592
  750SOL    HW2 2250   2.592   0.594   0.972 -1.8821 -4.1230 -0.1896
  751SOL     OW 2251   2.626   2.983   0.224  0.5552 -0.3273 -0.1643
  751SOL    HW1 2252   2.700   2.984   0.161 -4.5189 -0.4444  2.3223
  751SOL    HW2 2253   2.548   2.943   0.171 -0.5682  0.3787 -1.8710
  752SOL     OW 2254   0.195   2.751   0.723 -0.0196  0.1152 -0.1568
  752SOL    HW1 2255   0.283   2.751   0.771 -0.9214  1.8852  1.5748
  752SOL    HW2 2256   0.205   2.815   0.645 -1.5275 -1.6625 -1.2494
  753SOL     OW 2257   1.576   0.484   1.905  0.0798 -0.5370 -0.5047
  753SOL    HW1 2258   1.501   0.427   1.944  0.4216 -0.2362 -0.1022
  753SOL    HW2 2259   1.637   0.431   1.837  0.9632  0.9771 -3.4725
  754SOL     OW 2260   1.747   2.408   1.766  0.0303 -0.0023 -0.4944
  754SOL    HW1 2261   1.826   2.441   1.708 -1.5867 -1.7032 -1.4528
  754SOL    HW2 2262   1.655   2.429   1.732 -0.4431 -1.4916  1.6581
  755SOL     OW 2263   2.987   0.484   0.673  0.2128 -0.2114  0.2761
  755SOL    HW1 2264   2.975   0.583   0.698 -1.0453  0.2710 -0.4537
  755SOL    HW2 2265   2.954   0.459   0.582  1.0863  1.7139  1.3609
  756SOL     OW 2266   1.451   1.562   3.017 -0.4528 -0.1713 -0.1787
  756SOL    HW1 2267   1.404   1.553   2.926 -1.5324  2.0718 -0.4097
  756SOL    HW2 2268   1.547   1.602   3.004  3.7857  0.0112  0.2858
  757SOL     OW 2269   1.308   0.175   1.309  0.6055 -0.0482  0.0873
  757SOL    HW1 2270   1.385   0.242   1.301 -0.9096  0.9462  0.8084
  757SOL    HW2 2271   1.219   0.213   1.281  0.3070 -4.1363  2.0132
  758SOL     OW 2272   0.661   0.218   1.345 -0.4569  0.0629 -0.1959
  758SOL    HW1 2273   0.652   0.241   1.447 -0.4459  2.1134  1.6410
  758SOL    HW2 2274   0.742   0.163   1.315 -2.4860  0.0841  1.6073
  759SOL     OW 2275   0.406   0.621   1.158  0.6682  0.3797 -0.0812
  759SOL    HW1 2276   0.496   0.615   1.105  0.2584 -1.7312 -1.7508
  759SOL    HW2 2277   0.330   0.570   1.104 -1.8817 -3.3900 -1.8350
  760SOL     OW 2278   2.347   1.187   0.922 -0.2231  0.4396  0.0786
  760SOL    HW1 2279   2.437   1.138   0.933  1.1116 -0.7715  0.4132
  760SOL    HW2 2280   2.287   1.178   1.003 -2.3234  0.4554 -1.6356
  761SOL     OW 2281   1.576   0.662   0.340 -0.2908 -0.1961 -0.0993
  761SOL    HW1 2282   1.606   0.565   0.332 -0.9501  1.6984 -2.1150
  761SOL    HW2 2283   1.493   0.668   0.396 -0.6044 -1.6972  3.4800
  762SOL     OW 2284   2.221   2.309   1.297  0.4564  0.4089  0.1954
  762SOL    HW1 2285   2.172   2.320   1.206  0.3317 -0.5399 -2.8795
  762SOL    HW2 2286   2.308   2.364   1.296  0.5368 -1.4004  1.5412
  763SOL     OW 2287   1.343   1.546   1.756  0.3989  0.4184  0.3442
  763SOL    HW1 2288   1.424   1.499   1.713  0.5719  0.2957  2.8645
  763SOL    HW2 2289   1.264   1.487   1.753  2.4877 -0.1883  0.1212
  764SOL     OW 2290   2.831   1.963   2.474  0.5853 -0.6724 -0.8180
  764SOL    HW1 2291   2.929   1.949   2.480  1.4721 -0.5049 -1.8800
  764SOL    HW2 2292   2.808   2.029   2.403  1.0581 -0.8527  3.2612
  765SOL     OW 2293   1.042   2.590   0.928  0.3913 -0.1517  0.1298
  765SOL    HW1 2294   1.082   2.553   1.015 -0.3124 -0.3839  0.3332
  765SOL    HW2 2295   0.953   2.634   0.944  0.3135 -0.3223  0.3358
  766SOL     OW 2296   0.851   1.975   2.544 -0.1457 -0.0911 -0.0016
  766SOL    HW1 2297   0.806   1.958   2.633  3.3680 -0.8050 -0.7212
  766SOL    HW2 2298   0.889   2.069   2.545 -0.9465 -2.7977 -2.6584
  767SOL     OW 2299   1.891   0.647   2.431 -0.3340  0.3056 -0.0548
  767SOL    HW1 2300   1.896   0.704   2.348 -0.3156 -0.5461  0.1793
  767SOL    HW2 2301   1.929   0.696   2.510  0.5256  0.2347 -0.2450
  768SOL     OW 2302   1.027   2.587   2.652 -0.1467 -0.3748  0.1600
  768SOL    HW1 2303   1.119   2.603   2.609 -1.9086  0.6705 -0.0646
  768SOL    HW2 2304   1.044   2.528   2.730  0.7594  0.9501 -1.6321
  769SOL     OW 2305   3.055   2.357   0.915  0.1937  0.1671  0.0601
  769SOL    HW1 2306   2.986   2.424   0.948  2.7953  1.9633 -1.0073
  769SOL    HW2 2307   0.046   2.367   0.953 -2.5329  0.0789  0.7805
  770SOL     OW 2308   0.670   2.808   0.017 -0.0354 -0.0544  0.2785
  770SOL    HW1 2309   0.624   2.724   0.049  2.2622  0.8356  0.0034
  770SOL    HW2 2310   0.726   2.843   0.098  1.4802  1.5880  1.9342
  771SOL     OW 2311   1.172   2.144   2.372 -0.7245  0.5038 -0.0918
  771SOL    HW1 2312   1.142   2.095   2.288 -0.4757 -1.0638 -0.9066
  771SOL    HW2 2313   1.093   2.162   2.431  1.3327  1.0148 -2.6728
  772SOL     OW 2314   2.078   0.108   2.083 -0.2007  0.2934 -0.1319
  772SOL    HW1 2315   2.160   0.161   2.057  1.3373 -1.1808 -1.2197
  772SOL    HW2 2316   2.100   0.012   2.065  1.0519 -1.3224  0.3991
  773SOL     OW 2317   1.173   3.031   1.751  0.1266 -0.0905  0.0551
  773SOL    HW1 2318   1.237   3.051   1.674  1.1854 -0.2773 -2.7047
  773SOL    HW2 2319   1.147   2.932   1.747  0.1844  2.0376 -0.2737
  774SOL     OW 2320   1.560   0.809   2.185  0.9163 -0.1780 -1.0957
  774SOL    HW1 2321   1.479   0.835   2.125  0.6238 -1.9021 -2.4657
  774SOL    HW2 2322   1.578   0.712   2.172 -0.9825  2.0381 -0.3712
  775SOL     OW 2323   2.268   3.069   0.168  0.3388  0.2454  0.1399
  775SOL    HW1 2324   2.314   2.990   0.120  1.6294 -2.2119  1.4654
  775SOL    HW2 2325   2.250   3.050   0.267  2.8564 -1.5115  0.9246
  776SOL     OW 2326   2.308   1.017   1.707 -0.0105  0.1094 -0.2352
  776SOL    HW1 2327   2.308   1.041   1.610  1.3873 -2.1822  0.7629
  776SOL    HW2 2328   2.215   1.033   1.747  2.7733 -1.9402  0.3156
  777SOL     OW 2329   2.913   1.190   2.438 -0.1167  0.1429 -0.0214
  777SOL    HW1 2330   3.006   1.226   2.422 -0.3149  0.2316 -1.4814
  777SOL    HW2 2331   2.868   1.142   2.360  2.3769 -0.5599 -0.2564
  778SOL     OW 2332   2.298   0.511   2.060  0.2092 -0.2065  0.6769
  778SOL    HW1 2333   2.284   0.545   2.159 -1.0739  3.3938  1.9397
  778SOL    HW2 2334   2.398   0.499   2.045 -1.8896 -1.5640  0.3615
  779SOL     OW 2335   0.001   0.108   3.048  0.0484 -0.0966  0.0830
  779SOL    HW1 2336   0.073   0.181   3.056 -1.3785  2.1975  1.2100
  779SOL    HW2 2337   0.037   0.021   3.012 -0.7707  3.0462 -1.3783
  780SOL     OW 2338   2.074   2.978   2.437 -0.3254 -0.1652  0.1979
  780SOL    HW1 2339   2.165   3.013   2.474  4.0822 -2.0322  0.2367
  780SOL    HW2 2340   1.991   3.001   2.490 -1.1983  0.3439  1.9578
  781SOL     OW 2341   0.014   0.621   1.591 -0.1620  0.2480 -0.6738
  781SOL    HW1 2342   0.018   0.719   1.555  0.8194 -0.0466  0.9691
  781SOL    HW2 2343   0.053   0.625   1.685  1.1350 -0.1354 -2.8334
  782SOL     OW 2344   2.165   2.071   0.364 -0.0695 -0.1306 -0.0294
  782SOL    HW1 2345   2.263   2.035   0.365  1.7344  1.5937  1.6200
  782SOL    HW2 2346   2.162   2.164   0.324  1.5558  3.0763  0.9355
  783SOL     OW 2347   0.404   1.985   1.314 -0.1879  0.2093  0.0663
  783SOL    HW1 2348   0.399   2.087   1.287 -1.6168  2.3845 -1.1500
  783SOL    HW2 2349   0.476   1.944   1.250  2.7018 -0.5787 -1.2222
  784SOL     OW 2350   2.432   0.774   2.276 -0.8638 -0.2671  0.5475
  784SOL    HW1 2351   2.361   0.712   2.313 -0.3635  1.8599  2.2826
  784SOL    HW2 2352   2.406   0.789   2.174 -0.9876  0.5742 -2.9363
  785SOL     OW 2353   0.223   0.309   1.254  0.1294  0.0541  0.3917
  785SOL    HW1 2354   0.136   0.321   1.203  0.4030 -2.5578 -0.3205
  785SOL    HW2 2355   0.230   0.378   1.331  1.1668  1.9809  3.0196
  786SOL     OW 2356   2.154   2.740   0.139  0.0523  0.0462  0.1782
  786SOL    HW1 2357   2.069   2.694   0.130  0.8925  0.5104 -0.9777
  786SOL    HW2 2358   2.167   2.762   0.232  0.9575 -3.9602 -3.8988
  787SOL     OW 2359   1.342   0.198   0.703  0.3181  0.1543  0.1933
  787SOL    HW1 2360   1.276   0.188   0.779  0.3153 -0.9372  0.7876
  787SOL    HW2 2361   1.365   0.106   0.663 -0.7822  0.1177 -0.2733
  788SOL     OW 2362   0.049   1.586   0.985  0.2876 -0.2944  0.0378
  788SOL    HW1 2363   3.054   1.606   1.008  0.2454 -1.1910 -0.3260
  788SOL    HW2 2364   0.087   1.515   1.045 -2.3008  3.4891 -0.1031
  789SOL     OW 2365   2.711   0.683   2.190  0.3609  0.6894 -0.3195
  789SOL    HW1 2366   2.615   0.712   2.220 -0.4098 -0.4449  1.4570
  789SOL    HW2 2367   2.774   0.702   2.264 -2.1794  1.2434 -2.0469
  790SOL     OW 2368   0.864   0.478   3.025 -0.2397  0.3134  0.1467
  790SOL    HW1 2369   0.856   0.434   2.929 -0.5278 -0.7411 -1.8736
  790SOL    HW2 2370   0.942   0.440   3.080 -0.0531  0.7372  1.2809
  791SOL     OW 2371   2.533   2.987   2.933  0.2596 -0.6274 -0.7034
  791SOL    HW1 2372   2.567   3.072   2.888  0.6461 -1.0551 -0.8067
  791SOL    HW2 2373   2.592   2.909   2.928 -0.0859 -0.4143  3.0380
  792SOL     OW 2374   1.121   0.864   1.647 -0.2359 -0.3203 -0.0179
  792SOL    HW1 2375   1.088   0.798   1.571 -1.2795 -0.5507  2.0065
  792SOL    HW2 2376   1.127   0.818   1.739 -0.5107 -0.8662  0.1075
  793SOL     OW 2377   2.727   0.140   1.288 -0.0283 -0.3974 -0.0176
  793SOL    HW1 2378   2.752   0.205   1.362  0.2283 -1.5840 -0.4114
  793SOL    HW2 2379   2.626   0.142   1.261 -0.8715 -0.1607  1.5636
  794SOL     OW 2380   2.843   0.056   2.123  0.3597  0.0993  0.1009
  794SOL    HW1 2381   2.773   0.112   2.172  1.6522 -1.8483  0.9643
  794SOL    HW2 2382   2.917   0.116   2.080  3.5012  2.2857 -0.0669
  795SOL     OW 2383   0.721   1.923   2.785 -0.0155 -0.7799  0.5131
  795SOL    HW1 2384   0.766   1.985   2.850 -1.2038 -0.3561 -0.1428
  795SOL    HW2 2385   0.621   1.924   2.793 -2.5313  1.4176 -0.7486
  796SOL     OW 2386   2.174   0.754   2.523 -0.1107  0.0582  0.5265
  796SOL    HW1 2387   2.138   0.832   2.463 -0.9761  0.6733  0.9170
  796SOL    HW2 2388   2.115   0.740   2.604  0.0359  0.8161  1.3584
  797SOL     OW 2389   2.553   2.001   0.108 -0.1849 -0.1404  0.2454
  797SOL    HW1 2390   2.645   2.043   0.090 -1.8123 -0.5330 -0.6246
  797SOL    HW2 2391   2.484   2.033   0.036 -0.4486 -0.7890 -0.3543
  798SOL     OW 2392   2.966   0.488   1.414  0.8022 -0.0708 -0.0274
  798SOL    HW1 2393   3.010   0.533   1.491 -1.0383  0.2250 -2.5871
  798SOL    HW2 2394   2.930   0.394   1.433  2.6648  1.4920  0.1427
  799SOL     OW 2395   0.284   0.240   1.751 -0.2827  0.1615 -0.2871
  799SOL    HW1 2396   0.301   0.294   1.666  1.5715 -1.7707  2.6810
  799SOL    HW2 2397   0.337   0.283   1.832  4.7613  1.4073  2.5320
  800SOL     OW 2398   0.279   1.908   3.040 -0.2593 -0.0603  0.4394
  800SOL    HW1 2399   0.220   1.937   0.015  2.0800  0.7567 -1.4079
  800SOL    HW2 2400   0.318   1.817   3.058 -1.2084  0.5494  1.1432
  801SOL     OW 2401   1.581   1.899   0.948 -0.5886 -0.3723 -0.4638
  801SOL    HW1 2402   1.506   1.923   1.014 -0.5164 -2.7363  0.8301
  801SOL    HW2 2403   1.626   1.989   0.915  1.0506  0.6623  1.0572
  802SOL     OW 2404   1.352   0.860   0.300  0.4600  0.8766 -0.3479
  802SOL    HW1 2405   1.377   0.952   0.259 -1.4363  0.9292  0.9779
  802SOL    HW2 2406   1.284   0.817   0.243  0.5354 -0.0841 -1.8513
  803SOL     OW 2407   1.052   1.545   1.888  0.3678 -0.0180 -0.1185
  803SOL    HW1 2408   0.964   1.587   1.848 -0.6524 -2.3538 -0.4379
  803SOL    HW2 2409   1.071   1.460   1.836  1.4710 -2.2887 -0.5691
  804SOL     OW 2410   1.771   2.389   1.235 -0.0968  0.1606 -0.2583
  804SOL    HW1 2411   1.803   2.315   1.301 -2.6262 -4.5027 -0.1441
  804SOL    HW2 2412   1.719   2.346   1.162 -2.7518  0.8912  0.9909
  805SOL     OW 2413   0.306   2.298   2.565  0.5352  0.2627 -0.8560
  805SOL    HW1 2414   0.219   2.284   2.515  2.6083  0.1891  0.8915
  805SOL    HW2 2415   0.375   2.231   2.538  1.4978  2.8308 -2.6790
  806SOL     OW 2416   1.058   2.982   0.280 -0.0023  0.1386  0.1350
  806SOL    HW1 2417   1.078   3.077   0.238  0.7428  0.0768 -0.1473
  806SOL    HW2 2418   0.956   2.957   0.259 -4.0893  1.4471 -5.0627
  807SOL     OW 2419   2.502   1.015   2.712  0.2920 -0.7201 -0.0308
  807SOL    HW1 2420   2.562   1.096   2.726 -0.5532 -1.0846 -1.7892
  807SOL    HW2 2421   2.425   1.039   2.655  3.2177 -1.7324  0.5837
  808SOL     OW 2422   1.488   2.176   0.926 -0.3897 -0.1045  0.6525
  808SOL    HW1 2423   1.442   2.191   0.836 -0.2829 -0.4958 -0.9018
  808SOL    HW2 2424   1.573   2.230   0.934  0.2421  3.1593 -1.7954
  809SOL     OW 2425   0.228   0.090   0.558  0.0164  0.6219 -0.6862
  809SOL    HW1 2426   0.244   0.159   0.486 -0.8530  1.1350  2.9179
  809SOL    HW2 2427   0.147   0.111   0.613 -0.8432  0.2086 -1.3530
  810SOL     OW 2428   1.157   1.354   0.766  0.2814 -0.5888 -0.2340
  810SOL    HW1 2429   1.225   1.398   0.831  0.9551 -1.5959  1.5851
  810SOL    HW2 2430   1.068   1.395   0.755  1.3728 -1.5332 -1.4323
  811SOL     OW 2431   1.366   2.918   0.936  0.2793  0.0741 -0.1183
  811SOL    HW1 2432   1.374   2.836   0.997  1.0242 -2.2098 -1.7004
  811SOL    HW2 2433   1.315   2.994   0.988 -2.9040 -0.4298  1.0300
  812SOL     OW 2434   1.234   0.173   0.393 -0.4271 -0.0813  0.1410
  812SOL    HW1 2435   1.301   0.143   0.466  1.9286 -0.2477  1.3237
  812SOL    HW2 2436   1.138   0.165   0.417  0.9055  0.2720  2.0850
  813SOL     OW 2437   1.166   2.960   2.315 -0.3546 -0.1457 -0.0469
  813SOL    HW1 2438   1.092   2.894   2.292  0.2287 -2.6083 -1.5101
  813SOL    HW2 2439   1.251   2.936   2.272  0.3183  2.2428 -0.6181
  814SOL     OW 2440   0.964   2.942   1.102 -0.7029  0.2404  0.4360
  814SOL    HW1 2441   0.926   2.860   1.160  1.3653 -1.2166  1.8188
  814SOL    HW2 2442   0.957   2.928   1.001 -0.4116 -1.4957 -2.6899
  815SOL     OW 2443   0.271   2.528   0.415 -0.1678  0.0615  0.4374
  815SOL    HW1 2444   0.248   2.564   0.324  2.0729  0.7120  3.3206
  815SOL    HW2 2445   0.191   2.508   0.470  2.1783  1.8862 -0.4454
  816SOL     OW 2446   2.271   1.258   2.791  0.2737  0.3321  0.6137
  816SOL    HW1 2447   2.273   1.211   2.885 -0.3811 -1.8871  0.9604
  816SOL    HW2 2448   2.262   1.187   2.716  1.2519  1.9364 -0.4227
  817SOL     OW 2449   1.766   2.336   2.612  0.1284 -0.5938 -0.0720
  817SOL    HW1 2450   1.829   2.296   2.681  3.5488 -1.1533  2.8952
  817SOL    HW2 2451   1.816   2.398   2.544 -0.2024 -1.5729 -1.3238
  818SOL     OW 2452   0.918   1.168   0.277  0.2237 -0.2790  0.8709
  818SOL    HW1 2453   0.909   1.076   0.234 -1.7919  2.2387  3.1520
  818SOL    HW2 2454   1.015   1.197   0.285 -0.6104  0.0880 -0.4742
  819SOL     OW 2455   1.592   1.884   0.127 -0.4525  0.3062 -0.4868
  819SOL    HW1 2456   1.554   1.922   0.217 -0.1807 -0.6008  1.4650
  819SOL    HW2 2457   1.543   1.929   0.049 -0.5184  0.1367  0.6165
  820SOL     OW 2458   0.440   0.808   0.266  0.5280 -0.3656  0.7583
  820SOL    HW1 2459   0.365   0.742   0.265  3.2370  0.9406 -2.9370
  820SOL    HW2 2460   0.404   0.906   0.268  2.2751  2.6670  0.1422
  821SOL     OW 2461   0.368   3.022   1.453  0.1015  0.1951 -0.1205
  821SOL    HW1 2462   0.293   3.018   1.524  0.3747 -0.0414  0.8447
  821SOL    HW2 2463   0.331   3.053   1.362 -0.1012  1.3120  0.2460
  822SOL     OW 2464   2.104   2.232   2.470 -0.1455  0.1197 -0.0380
  822SOL    HW1 2465   2.154   2.289   2.536  0.3632  2.1447  1.8669
  822SOL    HW2 2466   2.062   2.150   2.515  0.2831 -2.7591  0.9638
  823SOL     OW 2467   0.578   0.646   2.117  0.2719 -0.0356  0.0884
  823SOL    HW1 2468   0.624   0.726   2.162  0.9134  1.6250 -2.0819
  823SOL    HW2 2469   0.637   0.569   2.117  2.1745  2.0876 -0.0606
  824SOL     OW 2470   2.402   3.083   1.546 -0.0816  0.2220  0.2974
  824SOL    HW1 2471   2.370   0.079   1.560 -0.3203  0.2373  2.3058
  824SOL    HW2 2472   2.331   3.018   1.566  2.0397  3.6340  0.7141
  825SOL     OW 2473   0.601   1.419   2.745  0.3554  0.5116  1.0198
  825SOL    HW1 2474   0.573   1.518   2.730 -2.2793  0.3211  5.0738
  825SOL    HW2 2475   0.648   1.394   2.833 -2.8481 -2.2201  0.8347
  826SOL     OW 2476   1.795   0.479   2.614 -0.1325  0.6599 -0.0419
  826SOL    HW1 2477   1.839   0.527   2.536  1.2236 -2.0202  0.0334
  826SOL    HW2 2478   1.863   0.431   2.671 -2.8756  1.2656 -1.7811
  827SOL     OW 2479   0.855   2.401   2.350 -0.2416 -0.1437 -0.4336
  827SOL    HW1 2480   0.779   2.443   2.399  0.1874 -0.8505 -0.7847
  827SOL    HW2 2481   0.825   2.363   2.260  1.4195 -0.5643 -0.5834
  828SOL     OW 2482   2.853   3.064   1.440  0.3124 -0.4430  0.2029
  828SOL    HW1 2483   2.930   3.003   1.403  3.1548 -1.3570 -0.6612
  828SOL    HW2 2484   2.826   0.030   1.370  2.6892  0.6907  3.0122
  829SOL     OW 2485   1.372   1.767   1.500 -0.7651 -0.1176  0.3272
  829SOL    HW1 2486   1.443   1.726   1.558 -1.5574  0.0052 -0.8992
  829SOL    HW2 2487   1.367   1.723   1.411  2.9052  0.2007 -1.0308
  830SOL     OW 2488   0.820   0.980   1.809 -0.4961  0.1191 -0.2503
  830SOL    HW1 2489   0.797   0.928   1.726 -0.1628  0.8096 -0.3713
  830SOL    HW2 2490   0.734   1.005   1.863 -2.9237  1.8027  1.9242
  831SOL     OW 2491   2.956   1.784   0.231  0.3262 -0.3832 -0.2353
  831SOL    HW1 2492   2.874   1.748   0.182 -1.7803  1.0683  2.9153
  831SOL    HW2 2493   3.026   1.716   0.239 -0.9766  0.5966 -0.6413
  832SOL     OW 2494   1.354   2.802   0.358  0.3453  0.6193  0.1161
  832SOL    HW1 2495   1.270   2.847   0.323  1.1098  0.4259  1.4762
  832SOL    HW2 2496   1.437   2.845   0.320 -1.0676 -1.1748  0.3202
  833SOL     OW 2497   2.801   0.286   1.511 -0.0259 -0.5481  0.3413
  833SOL    HW1 2498   2.827   0.199   1.561  3.1918  2.9026  3.5491
  833SOL    HW2 2499   2.802   0.368   1.570  0.3137 -0.9145 -0.4113
  834SOL     OW 2500   0.198   0.531   1.003  0.3359  0.0256 -0.2458
  834SOL    HW1 2501   0.178   0.630   1.005  1.0781 -1.8142  2.9868
  834SOL    HW2 2502   0.251   0.498   0.920 -0.8143 -0.9779  3.0731
  835SOL     OW 2503   2.615   2.990   0.688  0.2643  0.0438 -0.5211
  835SOL    HW1 2504   2.684   3.057   0.663  0.4899  0.6281 -1.6221
  835SOL    HW2 2505   2.657   2.907   0.728  1.1319  2.9609  0.2416
  836SOL     OW 2506   1.238   1.894   2.920  0.2253 -0.3368 -0.2585
  836SOL    HW1 2507   1.156   1.953   2.915 -1.3330  0.2788 -0.4524
  836SOL    HW2 2508   1.222   1.815   2.984 -1.5406 -0.3036  0.7868
  837SOL     OW 2509   1.600   1.685   0.319 -0.1294 -0.1370  0.1727
  837SOL    HW1 2510   1.583   1.750   0.241 -0.6902  1.0552 -1.7492
  837SOL    HW2 2511   1.518   1.679   0.381  1.2606  2.6162 -0.4021
  838SOL     OW 2512   2.848   0.729   2.410 -0.7282 -0.0030  0.0229
  838SOL    HW1 2513   2.938   0.778   2.443  0.4824  0.2108  2.8909
  838SOL    HW2 2514   2.772   0.784   2.443  2.6567  0.2833  0.3148
  839SOL     OW 2515   0.594   1.012   2.609 -0.9792 -0.3516  0.2251
  839SOL    HW1 2516   0.535   1.096   2.610 -1.3525  2.8333 -0.6011
  839SOL    HW2 2517   0.597   0.965   2.703 -0.8697  0.3387  1.3570
  840SOL     OW 2518   1.305   0.776   2.932  0.1615 -0.3999  0.4760
  840SOL    HW1 2519   1.392   0.739   2.972  0.4820 -0.5205  3.2650
  840SOL    HW2 2520   1.232   0.795   3.005  0.1847  1.5109  1.4276
  841SOL     OW 2521   0.671   2.747   0.679  0.0180 -0.3541 -0.2595
  841SOL    HW1 2522   0.584   2.702   0.656 -2.8159  2.8420  0.5413
  841SOL    HW2 2523   0.746   2.714   0.621 -1.6116 -3.1186  0.4481
  842SOL     OW 2524   0.737   0.700   0.696  0.0035 -0.0364 -0.0410
  842SOL    HW1 2525   0.808   0.771   0.674 -0.6735  1.3641  0.8945
  842SOL    HW2 2526   0.652   0.721   0.641  1.2430 -2.1390 -2.3319
  843SOL     OW 2527   0.371   0.875   1.265  0.1455 -0.2155  0.3315
  843SOL    HW1 2528   0.387   0.778   1.229 -2.6456 -2.0839  0.9862
  843SOL    HW2 2529   0.278   0.903   1.237  0.9549 -0.2442  1.8861
  844SOL     OW 2530   2.222   2.372   2.691  0.2621 -0.5805 -0.2259
  844SOL    HW1 2531   2.196   2.466   2.665  0.8647 -0.7716 -0.4400
  844SOL    HW2 2532   2.325   2.365   2.689  2.9197  0.4959 -1.4015
  845SOL     OW 2533   2.084   0.074   1.629 -0.1219 -0.8324  0.3109
  845SOL    HW1 2534   2.061   0.036   1.533  2.7849 -0.3096 -0.5232
  845SOL    HW2 2535   2.027   0.026   1.697  0.9325 -0.0001 -1.4111
  846SOL     OW 2536   1.939   1.224   2.423  0.2791  0.3563 -0.4249
  846SOL    HW1 2537   1.978   1.272   2.341 -3.6190 -0.3901 -1.3852
  846SOL    HW2 2538   1.954   1.287   2.504  0.6461 -0.0458 -1.0887
  847SOL     OW 2539   2.126   2.950   2.009 -0.0531 -0.7315 -0.1229
  847SOL    HW1 2540   2.146   2.904   2.099 -0.3884 -0.9339 -1.1966
  847SOL    HW2 2541   2.196   2.935   1.935 -1.3401  0.5803 -0.5305
  848SOL     OW 2542   0.077   2.887   0.134 -0.5646  1.0716  0.7403
  848SOL    HW1 2543   0.096   2.904   0.035 -1.1394  3.0201 -0.0873
  848SOL    HW2 2544   0.042   2.970   0.182 -0.9323  1.4606 -1.2745
  849SOL     OW 2545   0.342   2.744   1.217 -0.1180  0.4009 -0.1717
  849SOL    HW1 2546   0.293   2.761   1.303 -1.3055  1.4796 -1.6805
  849SOL    HW2 2547   0.295   2.796   1.143 -0.0724  2.1609  3.1180
  850SOL     OW 2548   0.430   1.838   0.478 -0.3482 -0.0972 -0.3221
  850SOL    HW1 2549   0.388   1.900   0.547 -1.0978 -1.6010  1.4649
  850SOL    HW2 2550   0.504   1.889   0.425  1.6083  2.1209 -0.9562
  851SOL     OW 2551   2.214   0.754   2.940 -0.5379 -0.0051 -0.5264
  851SOL    HW1 2552   2.133   0.701   2.901  1.4370 -0.7109 -0.1634
  851SOL    HW2 2553   2.294   0.767   2.880 -1.2781  0.0026  0.7299
  852SOL     OW 2554   1.970   2.050   2.599  0.8083 -0.6715 -0.3331
  852SOL    HW1 2555   1.925   1.985   2.537  2.3861 -0.0162  0.4614
  852SOL    HW2 2556   1.985   2.018   2.700  1.8797 -1.6494  0.0709
  853SOL     OW 2557   0.638   1.876   0.305  0.0559 -0.5049 -0.1351
  853SOL    HW1 2558   0.649   1.775   0.316 -0.6190 -2.1323 -0.8201
  853SOL    HW2 2559   0.725   1.922   0.323 -2.0465  0.6205  0.2565
  854SOL     OW 2560   1.675   1.076   2.102 -0.0000 -0.2687  0.2223
  854SOL    HW1 2561   1.649   0.988   2.141 -0.3761  0.6018  3.3532
  854SOL    HW2 2562   1.601   1.105   2.037 -1.2707  2.0899  1.2646
  855SOL     OW 2563   0.571   2.415   3.028 -0.0884  0.4897  0.1806
  855SOL    HW1 2564   0.537   2.484   3.091  2.4338 -0.6501 -1.8051
  855SOL    HW2 2565   0.512   2.336   3.014  4.1473 -0.4630  1.3593
  856SOL     OW 2566   0.391   2.921   2.011  0.1597 -0.2966  0.0241
  856SOL    HW1 2567   0.396   2.968   1.921  1.1982 -2.0427  0.1855
  856SOL    HW2 2568   0.468   2.933   2.075 -0.2535 -0.9152 -0.5421
  857SOL     OW 2569   0.666   0.196   1.870 -0.4325 -0.0822  0.5838
  857SOL    HW1 2570   0.714   0.124   1.927  2.1514  0.1423 -1.6926
  857SOL    HW2 2571   0.618   0.258   1.934  1.3973 -0.8596 -2.2308
  858SOL     OW 2572   0.288   1.793   2.065 -0.9657  0.4154  0.3053
  858SOL    HW1 2573   0.296   1.853   2.150 -0.0473 -0.5510  0.4210
  858SOL    HW2 2574   0.354   1.836   2.002 -1.8934 -0.2871  0.3009
  859SOL     OW 2575   2.046   2.330   1.507 -0.0841  0.6267 -0.1558
  859SOL    HW1 2576   2.123   2.311   1.443 -0.3722 -1.3303 -0.3556
  859SOL    HW2 2577   2.018   2.430   1.510 -1.3411  1.2472  0.3784
  860SOL     OW 2578   1.736   0.479   0.670 -0.1230 -0.1127  0.2434
  860SOL    HW1 2579   1.724   0.511   0.766  1.6023 -0.2943  0.0896
  860SOL    HW2 2580   1.647   0.453   0.634  1.0854  1.1317 -1.5748
  861SOL     OW 2581   0.033   0.303   1.018  0.0300  0.2038 -0.3426
  861SOL    HW1 2582   0.096   0.382   1.018 -0.6544 -0.6569 -0.2047
  861SOL    HW2 2583   3.042   0.332   0.986  1.8619  2.1827  1.9573
  862SOL     OW 2584   2.194   0.937   1.378 -0.2784 -0.0693  0.3386
  862SOL    HW1 2585   2.094   0.927   1.363 -1.2644  2.8127  0.5581
  862SOL    HW2 2586   2.220   1.036   1.386  0.8860 -2.0020 -0.0245
  863SOL     OW 2587   0.294   1.231   1.264 -0.5859  0.0939  0.1077
  863SOL    HW1 2588   0.296   1.130   1.287  1.0069 -1.7913  2.0169
  863SOL    HW2 2589   0.393   1.257   1.243 -2.2746 -1.4315  1.8054
  864SOL     OW 2590   2.519   3.017   1.894 -0.3476  0.0520  0.0144
  864SOL    HW1 2591   2.612   2.992   1.914 -2.2266  4.4149  2.4078
  864SOL    HW2 2592   2.508   0.017   1.871  0.5896  1.0021  0.3167
  865SOL     OW 2593   1.026   0.590   2.235 -0.5717 -0.7396  0.5236
  865SOL    HW1 2594   0.970   0.522   2.188 -1.1555  0.3791  2.7215
  865SOL    HW2 2595   1.125   0.573   2.231  0.6772  0.6698  1.3981
  866SOL     OW 2596   2.461   2.914   0.489 -0.1871  0.3359 -0.3354
  866SOL    HW1 2597   2.506   2.953   0.575  1.9307 -0.5729  0.0947
  866SOL    HW2 2598   2.505   2.964   0.412 -1.5730  3.0232 -0.6211
  867SOL     OW 2599   2.750   2.767   0.785  0.2909 -0.5065  0.2943
  867SOL    HW1 2600   2.695   2.705   0.726 -0.2030  0.2312  0.5555
  867SOL    HW2 2601   2.853   2.752   0.781  1.0978  0.2274  1.0217
  868SOL     OW 2602   1.708   1.668   2.941  0.2355 -0.1716  0.1139
  868SOL    HW1 2603   1.794   1.698   2.990  0.2536 -0.3339 -1.4222
  868SOL    HW2 2604   1.675   1.744   2.876 -1.3205  0.5997 -0.1946
  869SOL     OW 2605   2.737   2.337   0.686 -0.3235 -0.3363  0.2048
  869SOL    HW1 2606   2.696   2.321   0.594  0.4319  1.6672 -0.3254
  869SOL    HW2 2607   2.693   2.415   0.733 -0.1934  1.6773  0.6468
  870SOL     OW 2608   2.935   2.028   0.359  0.4527  0.1521 -0.2139
  870SOL    HW1 2609   3.027   2.064   0.386 -3.1564  2.5998 -0.3637
  870SOL    HW2 2610   2.933   1.947   0.298 -0.8337  0.0922 -0.5546
  871SOL     OW 2611   0.125   1.326   1.089 -0.4281 -0.0952  0.0851
  871SOL    HW1 2612   0.191   1.287   1.159 -0.4312 -1.8343 -2.6562
  871SOL    HW2 2613   0.105   1.259   1.013 -0.8622  0.7594  1.8442
  872SOL     OW 2614   1.027   1.710   2.499 -0.3223 -1.1297  0.0071
  872SOL    HW1 2615   0.945   1.662   2.472  0.5361  1.5369  3.2353
  872SOL    HW2 2616   1.008   1.792   2.557 -2.5517  0.1166 -0.8019
  873SOL     OW 2617   0.412   3.083   1.793 -0.1624 -0.4102 -0.1675
  873SOL    HW1 2618   0.361   0.071   1.785 -1.4033 -0.2326 -1.5513
  873SOL    HW2 2619   0.510   3.091   1.769 -1.3644  0.8970  3.5129
  874SOL     OW 2620   0.870   0.457   2.031  0.2412  0.8029  0.3765
  874SOL    HW1 2621   0.883   0.541   1.972  2.3971 -0.6772  0.0544
  874SOL    HW2 2622   0.934   0.380   2.004 -1.2200 -2.5886  2.3990
  875SOL     OW 2623   2.760   0.092   1.017 -0.4814  0.1516  0.3443
  875SOL    HW1 2624   2.722   0.172   0.972  1.1791 -2.4699  0.0724
  875SOL    HW2 2625   2.743   0.107   1.113  0.1457  0.8544 -1.3960
  876SOL     OW 2626   0.575   1.167   0.473  0.8874 -0.3573 -0.5899
  876SOL    HW1 2627   0.527   1.085   0.434  0.2175 -1.1884 -0.8330
  876SOL    HW2 2628   0.614   1.218   0.392 -0.1959  0.9050 -0.9024
  877SOL     OW 2629   1.052   1.102   1.741 -0.0768  0.4452 -0.1913
  877SOL    HW1 2630   1.098   1.024   1.692  0.7821 -2.0662  1.2583
  877SOL    HW2 2631   0.968   1.060   1.787  1.8016 -1.0919  3.0551
  878SOL     OW 2632   2.604   2.285   0.470 -0.4639 -0.1800  0.1867
  878SOL    HW1 2633   2.536   2.216   0.494  0.6006  0.9182 -0.1879
  878SOL    HW2 2634   2.568   2.354   0.404 -1.0346  0.7923 -0.6284
  879SOL     OW 2635   2.620   1.676   1.620 -0.5420 -0.5935 -0.3737
  879SOL    HW1 2636   2.671   1.610   1.560 -0.1357 -2.0650 -2.8412
  879SOL    HW2 2637   2.645   1.775   1.608  0.0460 -0.2556 -2.6415
  880SOL     OW 2638   1.285   2.555   0.762  0.5666  0.1139  0.8203
  880SOL    HW1 2639   1.199   2.562   0.819  3.5171 -0.0043  0.2831
  880SOL    HW2 2640   1.301   2.641   0.713 -3.0354  2.3047 -0.0603
  881SOL     OW 2641   0.599   2.235   0.423  0.8632  0.6881  0.2648
  881SOL    HW1 2642   0.595   2.163   0.348  0.1828  0.1078 -0.0506
  881SOL    HW2 2643   0.623   2.328   0.382 -1.3952  0.6096 -1.4600
  882SOL     OW 2644   1.867   0.811   0.885  0.2098  0.1953 -0.7732
  882SOL    HW1 2645   1.823   0.868   0.809 -0.9344 -0.2047  2.6936
  882SOL    HW2 2646   1.957   0.761   0.866  2.9447 -1.3419 -3.0011
  883SOL     OW 2647   1.398   0.725   1.063 -0.2495  0.1217  0.1079
  883SOL    HW1 2648   1.305   0.763   1.074  0.8406  0.5445  0.6552
  883SOL    HW2 2649   1.460   0.802   1.047 -1.2616 -4.1003 -2.9166
  884SOL     OW 2650   2.913   2.766   0.169  0.1547  0.1469  0.1029
  884SOL    HW1 2651   3.006   2.798   0.140  2.5028 -2.9788  3.6539
  884SOL    HW2 2652   2.924   2.742   0.267 -0.8764 -1.3136 -0.8545
  885SOL     OW 2653   0.980   1.209   2.617  0.2347 -0.3111  0.8182
  885SOL    HW1 2654   1.047   1.208   2.695  0.6970 -2.2945  0.8640
  885SOL    HW2 2655   1.014   1.277   2.547 -2.0511 -0.5998 -1.1941
  886SOL     OW 2656   1.323   1.769   2.699  0.1209  0.4561 -0.5991
  886SOL    HW1 2657   1.300   1.842   2.766  0.3675  0.1347  1.2176
  886SOL    HW2 2658   1.297   1.795   2.601 -1.7875 -0.8887 -1.1241
  887SOL     OW 2659   1.061   0.458   1.189 -0.1429  0.7312  0.1033
  887SOL    HW1 2660   1.126   0.463   1.109 -1.8783  3.1333  0.7764
  887SOL    HW2 2661   1.103   0.491   1.277 -1.2430 -4.4093 -1.2579
  888SOL     OW 2662   2.061   0.698   1.914  0.1233  0.0212  0.4712
  888SOL    HW1 2663   2.093   0.756   1.994  2.5040  2.2827  1.4781
  888SOL    HW2 2664   1.998   0.625   1.949  0.9186  1.6176  1.3017
  889SOL     OW 2665   0.257   2.255   0.711 -0.1037 -0.4584  0.0495
  889SOL    HW1 2666   0.246   2.338   0.649  1.2096  2.6776 -1.0485
  889SOL    HW2 2667   0.192   2.254   0.789  0.5197  1.0875 -0.5909
  890SOL     OW 2668   1.665   2.216   0.586 -0.2530  0.5838 -0.2274
  890SOL    HW1 2669   1.727   2.133   0.604  1.7669  0.5508 -0.8560
  890SOL    HW2 2670   1.567   2.199   0.606 -0.9142 -0.9088  2.1720
  891SOL     OW 2671   2.731   1.101   2.999 -0.3615 -0.0007  0.3840
  891SOL    HW1 2672   2.708   1.193   3.037  1.3773  0.4143 -0.8784
  891SOL    HW2 2673   2.665   1.034   3.034  2.7061  4.0193 -0.4754
  892SOL     OW 2674   2.710   2.354   1.086 -0.7475 -0.7166  0.0005
  892SOL    HW1 2675   2.632   2.390   1.037 -1.5317 -1.9462  2.1893
  892SOL    HW2 2676   2.796   2.413   1.067  2.4060  0.5777  0.0834
  893SOL     OW 2677   1.268   0.499   0.964 -0.2426 -0.9612 -0.6692
  893SOL    HW1 2678   1.344   0.432   0.967  0.8548 -2.8242  1.0233
  893SOL    HW2 2679   1.301   0.590   0.997 -0.4328  0.3648 -0.6202
  894SOL     OW 2680   2.864   0.705   0.806 -1.1750  0.3428 -0.1909
  894SOL    HW1 2681   2.796   0.715   0.877  1.7427 -2.4656 -2.1734
  894SOL    HW2 2682   2.950   0.760   0.819  1.4986 -2.8523 -0.1323
  895SOL     OW 2683   1.727   1.516   2.481  0.3944 -0.1004 -0.4340
  895SOL    HW1 2684   1.635   1.559   2.496  1.3792 -2.6668  2.8691
  895SOL    HW2 2685   1.701   1.428   2.435  0.1616  0.9050  1.2512
  896SOL     OW 2686   1.801   0.490   1.388 -0.6847 -0.0277 -0.6187
  896SOL    HW1 2687   1.830   0.391   1.403 -1.6210 -1.3929 -1.2691
  896SOL    HW2 2688   1.814   0.513   1.286 -0.7029  0.1966 -1.6449
  897SOL     OW 2689   0.211   1.373   1.468 -0.5926  0.4084 -0.3039
  897SOL    HW1 2690   0.297   1.391   1.523  1.2603  0.7840  1.0189
  897SOL    HW2 2691   0.238   1.323   1.384 -4.2605  0.6719  0.4385
  898SOL     OW 2692   2.023   2.546   2.132 -0.2647  0.3333  0.4155
  898SOL    HW1 2693   2.067   2.579   2.048 -1.3485 -0.7599  2.5646
  898SOL    HW2 2694   2.049   2.455   2.150 -0.3585  5.2309 -1.9305
  899SOL     OW 2695   1.263   1.771   1.040  0.5609 -0.2182  0.5075
  899SOL    HW1 2696   1.303   1.862   1.049  2.7728 -3.0541  0.0302
  899SOL    HW2 2697   1.163   1.780   1.017  0.3165  2.7247  0.6876
  900SOL     OW 2698   1.298   1.887   2.441  0.2330  0.0724  0.0374
  900SOL    HW1 2699   1.319   1.815   2.376  0.7624  2.9026  0.7381
  900SOL    HW2 2700   1.278   1.976   2.400 -0.8877 -1.4119  0.2998
  901SOL     OW 2701   0.821   1.565   2.370 -0.0106 -0.7978 -0.4156
  901SOL    HW1 2702   0.856   1.527   2.277  0.3304  1.0281 -1.6664
  901SOL    HW2 2703   0.777   1.485   2.420 -0.9395 -2.3589  0.7166
  902SOL     OW 2704   2.429   1.581   0.611 -0.4553 -0.0080 -0.0889
  902SOL    HW1 2705   2.456   1.540   0.522 -1.3384 -0.7169  2.1847
  902SOL    HW2 2706   2.428   1.512   0.685 -3.0206  0.9696 -3.2807
  903SOL     OW 2707   2.118   1.626   0.353  0.4833  0.2078 -0.0126
  903SOL    HW1 2708   2.162   1.641   0.447  1.5427 -0.1479 -0.5128
  903SOL    HW2 2709   2.019   1.642   0.358  0.8598  1.9769  1.4784
  904SOL     OW 2710   1.244   1.173   2.325  0.0933 -0.5123 -0.2830
  904SOL    HW1 2711   1.306   1.241   2.290 -1.3672 -2.4102  1.8542
  904SOL    HW2 2712   1.281   1.129   2.407  0.3516 -2.0904  0.8780
  905SOL     OW 2713   2.926   3.070   0.619  0.4908  0.1912 -0.0421
  905SOL    HW1 2714   2.854   0.035   0.579 -2.2561  1.2232 -0.9619
  905SOL    HW2 2715   2.936   3.078   0.722  3.4795 -2.0598  0.9848
  906SOL     OW 2716   0.128   1.944   0.146 -0.7909  0.4748 -0.7061
  906SOL    HW1 2717   0.152   1.849   0.175  0.4425  1.5445  1.5799
  906SOL    HW2 2718   0.163   2.015   0.213 -0.2852  0.0312 -0.8249
  907SOL     OW 2719   1.493   0.394   0.074 -0.2504  0.2055 -0.5950
  907SOL    HW1 2720   1.430   0.322   0.037  1.7694 -1.6936  0.7454
  907SOL    HW2 2721   1.557   0.362   0.147  1.7794  0.2145 -0.1232
  908SOL     OW 2722   1.684   2.749   1.574  0.0958  0.0819 -0.4331
  908SOL    HW1 2723   1.755   2.687   1.622 -1.5440 -0.7519 -0.0738
  908SOL    HW2 2724   1.631   2.814   1.635 -0.9583  3.7886 -0.1295
  909SOL     OW 2725   2.543   0.686   1.630  0.6808  0.0394  0.3240
  909SOL    HW1 2726   2.466   0.663   1.691  1.9863  0.9364 -1.2776
  909SOL    HW2 2727   2.628   0.717   1.679  0.2632 -0.0275 -0.1518
  910SOL     OW 2728   1.194   0.113   2.460 -0.4022 -0.2470 -0.7206
  910SOL    HW1 2729   1.243   0.150   2.378  0.8167 -0.1010 -2.1030
  910SOL    HW2 2730   1.178   0.013   2.439 -2.0156 -0.8834 -2.9293
  911SOL     OW 2731   2.322   1.169   2.335 -0.2399 -0.0443 -0.3981
  911SOL    HW1 2732   2.407   1.157   2.281  2.0781 -0.4720 -2.4656
  911SOL    HW2 2733   2.281   1.261   2.320  2.6968 -0.7067  0.4845
  912SOL     OW 2734   2.477   2.080   1.612 -0.2787 -0.0404  1.0737
  912SOL    HW1 2735   2.481   2.181   1.605 -3.8041  0.7590 -0.0090
  912SOL    HW2 2736   2.396   2.048   1.561  1.0517 -0.1004  1.9904
  913SOL     OW 2737   2.413   2.492   1.286  0.2201 -0.8521  0.2800
  913SOL    HW1 2738   2.501   2.438   1.279 -0.8058  1.4121  1.3673
  913SOL    HW2 2739   2.434   2.594   1.298  1.6111  1.4500 -3.0974
  914SOL     OW 2740   2.403   1.846   1.384 -0.0511  0.3391 -0.5400
  914SOL    HW1 2741   2.372   1.774   1.449 -0.8987  1.5328 -0.4643
  914SOL    HW2 2742   2.346   1.928   1.388  2.4158 -2.6367 -0.4782
  915SOL     OW 2743   1.186   2.435   1.441  0.0228  0.1777 -0.2619
  915SOL    HW1 2744   1.140   2.365   1.498  0.9623  1.3848 -0.1555
  915SOL    HW2 2745   1.282   2.408   1.425 -1.1575  1.1887 -1.3772
  916SOL     OW 2746   2.899   2.550   1.066 -0.1619 -0.9592  0.0835
  916SOL    HW1 2747   2.985   2.596   1.099  2.2088 -0.8711 -1.4743
  916SOL    HW2 2748   2.847   2.621   1.012 -1.8980  1.4367  1.2098
  917SOL     OW 2749   2.639   1.356   2.774 -0.3860  0.7657  0.0287
  917SOL    HW1 2750   2.739   1.368   2.786  1.9213 -0.4159  2.6266
  917SOL    HW2 2751   2.602   1.346   2.680 -0.9893 -0.3946 -2.2583
  918SOL     OW 2752   1.825   1.842   2.457 -0.1359  0.8028 -0.3101
  918SOL    HW1 2753   1.738   1.874   2.501  3.5304  2.0999 -0.8398
  918SOL    HW2 2754   1.808   1.792   2.369 -1.4894  1.2208 -1.5008
  919SOL     OW 2755   1.613   2.148   1.453  0.0999 -0.2631  0.4792
  919SOL    HW1 2756   1.598   2.107   1.546 -0.1907  0.9197  0.4279
  919SOL    HW2 2757   1.711   2.149   1.428  0.9928  1.2440  0.5150
  920SOL     OW 2758   0.576   3.078   3.040 -0.1286  0.6769 -0.1182
  920SOL    HW1 2759   0.583   2.981   3.013  1.7574  0.2738  1.3464
  920SOL    HW2 2760   0.481   3.094   3.066  0.9063  0.9898 -0.1883
  921SOL     OW 2761   2.721   0.043   2.486  0.4341 -0.3473  0.7688
  921SOL    HW1 2762   2.729   3.042   2.471  1.2004 -0.6142 -0.0360
  921SOL    HW2 2763   2.660   0.082   2.412 -0.5731  0.4969 -1.8695
  922SOL     OW 2764   2.362   1.667   1.591 -0.9537 -0.0501 -0.0829
  922SOL    HW1 2765   2.464   1.671   1.594  0.1223 -0.4979  2.5929
  922SOL    HW2 2766   2.329   1.623   1.680  0.6217  0.5774  1.7481
  923SOL     OW 2767   1.163   2.099   0.146  0.0961  0.0938  0.0388
  923SOL    HW1 2768   1.146   2.153   0.234  0.8155 -0.8174  1.9590
  923SOL    HW2 2769   1.237   2.140   0.085  1.6599  0.4347 -2.2891
  924SOL     OW 2770   1.572   0.571   2.754 -0.0952  0.7645 -0.2168
  924SOL    HW1 2771   1.555   0.562   2.852  2.1161 -2.4781  1.5108
  924SOL    HW2 2772   1.660   0.536   2.717 -1.5116 -0.5889 -1.6308
  925SOL     OW 2773   2.594   0.779   0.257  0.5147 -0.2057 -0.1983
  925SOL    HW1 2774   2.627   0.874   0.259 -0.2668 -1.4170  0.7098
  925SOL    HW2 2775   2.493   0.777   0.239  0.8742 -0.3035 -0.5948
  926SOL     OW 2776   0.305   0.715   0.695  0.0646  0.1447  0.4151
  926SOL    HW1 2777   0.343   0.627   0.722 -0.8596  2.7609 -0.9395
  926SOL    HW2 2778   0.330   0.787   0.763  0.8943  0.8073  0.5485
  927SOL     OW 2779   0.895   1.384   0.663 -0.2589 -0.2203 -0.4755
  927SOL    HW1 2780   0.904   1.284   0.640  0.3181  0.1774  0.6154
  927SOL    HW2 2781   0.877   1.433   0.577 -1.2082 -0.7299 -0.8647
  928SOL     OW 2782   0.053   0.027   2.460  0.0508  0.4676  0.2760
  928SOL    HW1 2783   0.135   3.067   2.469  2.3839 -1.7093 -0.6215
  928SOL    HW2 2784   0.078   0.129   2.457  0.8534  1.2171  1.0828
  929SOL     OW 2785   2.302   0.430   1.300 -0.0718  0.4447  0.2465
  929SOL    HW1 2786   2.244   0.486   1.360  0.3947  1.7530 -1.3040
  929SOL    HW2 2787   2.373   0.385   1.355  2.3170 -0.5481  0.1497
  930SOL     OW 2788   1.870   2.189   1.370 -0.0495  0.1456 -0.0360
  930SOL    HW1 2789   1.944   2.238   1.427 -1.0168  1.1657 -1.8459
  930SOL    HW2 2790   1.909   2.098   1.350 -0.2091  1.3271  1.2157
  931SOL     OW 2791   1.815   1.022   1.063  0.4488 -0.5114  0.5274
  931SOL    HW1 2792   1.840   0.959   0.990 -1.3560 -0.3645  1.0963
  931SOL    HW2 2793   1.874   1.107   1.069  0.0034 -1.1324  1.1724
  932SOL     OW 2794   2.867   0.801   1.173 -0.4425  0.1673  0.1171
  932SOL    HW1 2795   2.783   0.756   1.207 -0.6711 -1.1779 -3.4443
  932SOL    HW2 2796   2.947   0.742   1.195 -0.1875  1.0379  0.8857
  933SOL     OW 2797   2.498   1.605   2.106  0.2551 -0.4619  0.4358
  933SOL    HW1 2798   2.575   1.536   2.115 -0.4628  1.1280  0.9398
  933SOL    HW2 2799   2.500   1.651   2.011 -5.3789  0.5358 -1.7800
  934SOL     OW 2800   1.638   2.958   1.209  0.1594  0.1140 -0.4604
  934SOL    HW1 2801   1.548   2.951   1.260 -3.2891 -1.4643  0.5228
  934SOL    HW2 2802   1.618   2.966   1.108 -2.1529 -1.7008 -1.0812
  935SOL     OW 2803   2.836   0.983   0.988  0.4489  0.3705 -0.2252
  935SOL    HW1 2804   2.838   0.920   1.071  0.9685  1.7525  1.6512
  935SOL    HW2 2805   2.931   0.966   0.945 -0.1830  1.2931 -1.5290
  936SOL     OW 2806   2.913   1.256   1.039  0.1669  0.0736  0.1607
  936SOL    HW1 2807   2.887   1.161   1.010  0.5602 -0.2691 -1.2920
  936SOL    HW2 2808   2.920   1.320   0.959 -1.2038 -1.1495  0.8973
  937SOL     OW 2809   1.430   3.086   0.559  0.0658 -0.0691 -0.3008
  937SOL    HW1 2810   1.526   3.078   0.526 -1.8028 -0.6615  3.8921
  937SOL    HW2 2811   1.382   2.998   0.565 -1.7096 -0.6593  0.1368
  938SOL     OW 2812   3.006   2.221   0.682  0.2577 -0.3575 -0.6700
  938SOL    HW1 2813   2.908   2.207   0.664  0.9921 -4.0670 -0.6100
  938SOL    HW2 2814   3.021   2.265   0.775  0.6031 -0.1191  0.9427
  939SOL     OW 2815   0.996   2.039   2.904  0.3722 -0.3922 -0.7006
  939SOL    HW1 2816   0.947   2.007   2.989 -2.2709  0.0872  0.1753
  939SOL    HW2 2817   0.959   2.125   2.868  1.5772 -0.7799 -1.7308
  940SOL     OW 2818   2.722   2.732   2.483 -0.5464 -0.2032 -0.3306
  940SOL    HW1 2819   2.723   2.662   2.409  1.3533  1.3315  0.8920
  940SOL    HW2 2820   2.665   2.699   2.562  3.4471  0.8741 -0.6467
  941SOL     OW 2821   1.072   2.866   3.069  0.0421  0.0580  0.2146
  941SOL    HW1 2822   1.043   2.923   0.043 -0.1412 -0.9154 -0.4893
  941SOL    HW2 2823   1.150   2.803   3.092 -0.3168  2.1035  0.5536
  942SOL     OW 2824   1.645   1.703   1.660 -0.0162  0.7141  0.2626
  942SOL    HW1 2825   1.623   1.608   1.629  0.1745 -0.5644 -1.7683
  942SOL    HW2 2826   1.596   1.731   1.745 -0.7289  0.2355  0.8798
  943SOL     OW 2827   2.188   1.302   1.730  0.0782 -0.0177 -0.1424
  943SOL    HW1 2828   2.273   1.294   1.674  3.5666  1.4633 -0.2825
  943SOL    HW2 2829   2.218   1.363   1.808  0.4318  2.0102 -3.7173
  944SOL     OW 2830   1.928   1.019   2.006  0.1374 -0.2137  0.0931
  944SOL    HW1 2831   1.938   1.046   1.907  0.3041  0.0246 -2.2549
  944SOL    HW2 2832   1.828   1.020   2.030 -0.5951 -1.2995 -0.8905
  945SOL     OW 2833   2.856   2.931   1.132  0.5561  0.1530  0.6882
  945SOL    HW1 2834   2.758   2.902   1.121  1.5709  1.3970  0.5387
  945SOL    HW2 2835   2.892   2.969   1.048 -1.1360 -0.6549  0.0201
  946SOL     OW 2836   0.559   1.046   1.889  0.0116  0.4499  0.5699
  946SOL    HW1 2837   0.519   1.139   1.869 -1.9437  0.1626 -0.2809
  946SOL    HW2 2838   0.562   1.035   1.993  0.8765 -0.3439  1.4636
  947SOL     OW 2839   0.390   2.760   0.921 -0.0158 -0.2920  0.3354
  947SOL    HW1 2840   0.457   2.796   0.991 -0.4407 -2.2751  0.5102
  947SOL    HW2 2841   0.438   2.678   0.881  0.5510 -0.6072 -2.4405
  948SOL     OW 2842   0.032   1.097   1.760  0.3998 -0.0581 -0.2659
  948SOL    HW1 2843   3.068   1.092   1.841 -0.9080  1.3625 -0.4973
  948SOL    HW2 2844   0.033   1.191   1.722 -1.0320  1.7279 -1.2197
  949SOL     OW 2845   0.346   0.543   2.217 -0.2757  0.0533  0.5598
  949SOL    HW1 2846   0.421   0.601   2.183  0.5715 -1.7259 -3.0684
  949SOL    HW2 2847   0.362   0.440   2.202 -2.3955  0.8030 -0.6458
  950SOL     OW 2848   0.645   0.589   1.016  0.7529  0.0067 -0.1805
  950SOL    HW1 2849   0.632   0.683   0.980 -0.3267  0.9476  2.2379
  950SOL    HW2 2850   0.663   0.525   0.939  0.4908  2.8013 -1.1348
  951SOL     OW 2851   1.122   1.790   1.873 -0.0256  0.2692  0.1050
  951SOL    HW1 2852   1.158   1.826   1.959 -0.1775  0.4022 -2.6802
  951SOL    HW2 2853   1.106   1.688   1.886  0.3313 -1.7795  0.4489
  952SOL     OW 2854   0.993   1.219   3.046  0.8276 -0.0861  0.2968
  952SOL    HW1 2855   1.021   1.272   0.026 -0.9820 -1.5350 -2.5196
  952SOL    HW2 2856   1.063   1.208   2.975 -1.8476  1.8654 -0.2799
  953SOL     OW 2857   1.368   2.838   2.167  0.1515  0.1982 -0.1125
  953SOL    HW1 2858   1.317   2.805   2.083 -1.5477 -0.5503 -1.0912
  953SOL    HW2 2859   1.464   2.873   2.156 -2.7900  2.6417  1.8230
  954SOL     OW 2860   2.307   1.082   0.551  0.5816  0.2055  0.4660
  954SOL    HW1 2861   2.267   1.078   0.457 -0.5229  1.9873 -1.9818
  954SOL    HW2 2862   2.243   1.120   0.624 -1.0827 -0.5222  0.1927
  955SOL     OW 2863   0.332   1.977   2.325  0.0822 -0.0542 -0.2683
  955SOL    HW1 2864   0.423   2.010   2.290 -0.1265  0.4605  1.0517
  955SOL    HW2 2865   0.339   1.920   2.409 -3.1075  0.8666  0.1836
  956SOL     OW 2866   1.073   1.248   1.275 -0.2172 -0.2250  0.3326
  956SOL    HW1 2867   1.156   1.187   1.268  0.7035 -0.3226  1.7257
  956SOL    HW2 2868   1.069   1.321   1.201  1.0451 -1.4139  1.9188
  957SOL     OW 2869   2.069   1.414   2.614  0.2357  0.5153  0.3438
  957SOL    HW1 2870   2.027   1.498   2.646  1.3438 -1.3704 -1.1781
  957SOL    HW2 2871   2.128   1.364   2.686 -1.4371 -0.0049  2.4558
  958SOL     OW 2872   1.573   2.587   0.789 -0.4069 -0.1915  0.1016
  958SOL    HW1 2873   1.487   2.576   0.842  0.5201 -1.4194 -0.8359
  958SOL    HW2 2874   1.655   2.552   0.842 -4.7773  0.1458 -0.8424
  959SOL     OW 2875   1.788   1.626   2.236 -0.5433 -0.4895  0.3100
  959SOL    HW1 2876   1.861   1.599   2.169 -1.7952 -0.0709 -2.1895
  959SOL    HW2 2877   1.802   1.572   2.320  2.2709 -0.8840  1.2098
  960SOL     OW 2878   3.045   0.585   2.765 -0.5475 -0.1761 -0.8234
  960SOL    HW1 2879   0.024   0.629   2.717 -2.2041  1.9201 -0.0757
  960SOL    HW2 2880   3.044   0.482   2.766  0.7623 -2.7875 -0.2918
  961SOL     OW 2881   0.088   0.637   1.858 -0.4270 -0.0555 -0.1554
  961SOL    HW1 2882   0.035   0.670   1.940 -2.3885  1.1400  1.5135
  961SOL    HW2 2883   0.190   0.632   1.883  6.3683 -0.4928 -0.3845
  962SOL     OW 2884   1.351   1.570   0.437 -0.4373 -0.6742 -0.1673
  962SOL    HW1 2885   1.356   1.532   0.341 -0.8389  0.8391 -0.9823
  962SOL    HW2 2886   1.340   1.492   0.505  0.5591  1.1933  2.4196
  963SOL     OW 2887   1.821   2.184   2.972  0.8599  0.5387  0.5362
  963SOL    HW1 2888   1.907   2.237   2.961 -0.8229 -0.5940 -2.4214
  963SOL    HW2 2889   1.743   2.250   2.984 -0.2305 -2.2232 -2.6854
  964SOL     OW 2890   1.022   2.925   0.566 -0.3387  0.0070 -0.4447
  964SOL    HW1 2891   1.046   2.938   0.469 -2.4622 -0.0109  0.0080
  964SOL    HW2 2892   1.106   2.898   0.620  0.0601 -2.8339 -2.3767
  965SOL     OW 2893   0.794   2.726   0.917 -0.0954  0.2787  0.1411
  965SOL    HW1 2894   0.746   2.723   0.831  3.6348 -1.2300  0.9938
  965SOL    HW2 2895   0.741   2.735   1.003 -1.6129 -0.0236 -1.5323
  966SOL     OW 2896   2.888   1.788   2.992  0.0413  0.4127  0.2584
  966SOL    HW1 2897   2.824   1.791   2.917 -0.7123  0.1905  2.2659
  966SOL    HW2 2898   2.885   1.698   3.038  1.2805  0.2299 -2.1392
  967SOL     OW 2899   1.600   2.899   1.782  0.1354  0.0898 -0.0756
  967SOL    HW1 2900   1.561   2.810   1.815 -2.2281  1.7823  1.5725
  967SOL    HW2 2901   1.598   2.968   1.855 -1.9154  0.4654 -0.1933
  968SOL     OW 2902   1.784   0.964   0.649  0.0842 -0.0320 -0.5960
  968SOL    HW1 2903   1.780   0.900   0.568 -0.5220  0.9158  0.4167
  968SOL    HW2 2904   1.693   1.011   0.659 -0.9667  0.5127 -1.7016
  969SOL     OW 2905   0.063   1.669   2.058  0.0967  0.6879  0.5666
  969SOL    HW1 2906   0.031   1.664   1.958  1.8259  0.7611 -2.4945
  969SOL    HW2 2907   0.158   1.712   2.061  1.1318 -0.3151  1.4727
  970SOL     OW 2908   2.780   1.494   1.466  0.4985 -0.2379 -0.5897
  970SOL    HW1 2909   2.846   1.545   1.407 -0.7481  0.4656  0.2365
  970SOL    HW2 2910   2.830   1.432   1.524 -1.9862  2.0580 -0.6927
  971SOL     OW 2911   1.432   0.402   1.585 -0.2244 -0.3515 -0.0064
  971SOL    HW1 2912   1.510   0.436   1.527 -0.2191 -0.8023 -0.2781
  971SOL    HW2 2913   1.459   0.318   1.630 -1.3336  1.5242  0.4678
  972SOL     OW 2914   0.801   0.071   2.569  0.1383 -0.0331 -0.0077
  972SOL    HW1 2915   0.796   3.080   2.612  0.6521  2.3219  0.6228
  972SOL    HW2 2916   0.878   0.128   2.608  0.5768 -1.0283  2.7561
  973SOL     OW 2917   2.766   1.286   0.446  0.5397  0.6084  0.2154
  973SOL    HW1 2918   2.696   1.226   0.490 -2.3296 -1.9410 -0.3744
  973SOL    HW2 2919   2.817   1.232   0.375 -1.1443 -2.2791  1.5984
  974SOL     OW 2920   1.846   1.421   1.999  0.5442 -0.3262  0.1465
  974SOL    HW1 2921   1.745   1.428   2.011 -0.8020 -2.5288 -0.2040
  974SOL    HW2 2922   1.883   1.355   2.067  1.0096 -0.3472  0.4458
  975SOL     OW 2923   2.996   2.682   0.555 -0.3422  0.6815  0.2406
  975SOL    HW1 2924   3.024   2.696   0.655 -1.6627 -1.7991 -0.5890
  975SOL    HW2 2925   2.997   2.775   0.512 -0.4283  1.4833 -1.5325
  976SOL     OW 2926   3.060   1.652   1.814  0.1756  0.1907 -0.5956
  976SOL    HW1 2927   3.061   1.681   1.715  2.5716  0.0341  1.2099
  976SOL    HW2 2928   2.969   1.682   1.848  4.4116 -1.6156 -1.3404
  977SOL     OW 2929   0.887   2.554   0.212 -0.4536  0.2706 -0.2005
  977SOL    HW1 2930   0.874   2.473   0.153  0.0967 -0.2223  2.1532
  977SOL    HW2 2931   0.987   2.571   0.224 -0.6805  0.6183  2.7166
  978SOL     OW 2932   0.791   2.004   3.073  0.0671 -0.2960  0.4629
  978SOL    HW1 2933   0.727   1.931   3.082  2.7529  2.8867  0.7119
  978SOL    HW2 2934   0.789   2.068   0.050  1.7016 -0.3006  2.8962
  979SOL     OW 2935   1.233   2.291   1.015 -0.1214  0.2914  0.2133
  979SOL    HW1 2936   1.328   2.310   0.984 -0.2384  0.9137 -1.3574
  979SOL    HW2 2937   1.177   2.260   0.937 -0.6018 -2.8161  1.5966
  980SOL     OW 2938   0.237   1.471   2.506  0.1368  0.1675 -0.5319
  980SOL    HW1 2939   0.290   1.527   2.576  3.2329 -2.6691  2.7809
  980SOL    HW2 2940   0.228   1.512   2.415 -0.2225 -4.0810 -1.9923
  981SOL     OW 2941   2.714   0.651   2.898 -0.3075 -0.0819  0.0446
  981SOL    HW1 2942   2.798   0.713   2.895  0.5432 -0.0958 -2.1114
  981SOL    HW2 2943   2.739   0.550   2.888 -0.0302  0.6373 -0.3964
  982SOL     OW 2944   2.958   2.745   2.684 -0.1327  0.2802  0.4663
  982SOL    HW1 2945   3.050   2.768   2.656 -0.5179 -0.5757 -0.0012
  982SOL    HW2 2946   2.902   2.711   2.613  0.7965  1.4830  1.3391
  983SOL     OW 2947   2.150   0.751   1.651 -0.6483  0.6320  0.2851
  983SOL    HW1 2948   2.246   0.773   1.666 -1.0895  2.1160  0.5231
  983SOL    HW2 2949   2.108   0.720   1.739  1.5086 -2.2307 -1.6198
  984SOL     OW 2950   0.923   0.017   2.311  0.0777  0.0936 -0.3498
  984SOL    HW1 2951   0.882   0.030   2.402 -1.7427 -0.1091  1.7809
  984SOL    HW2 2952   0.928   3.021   2.289  0.9520  2.3497 -1.4767
  985SOL     OW 2953   1.438   1.974   2.203 -0.0658  0.7162  0.5275
  985SOL    HW1 2954   1.510   1.912   2.170 -1.7119 -2.4925 -0.3586
  985SOL    HW2 2955   1.469   2.070   2.197  0.3264  0.1426  0.6089
  986SOL     OW 2956   1.844   0.411   2.284 -0.4286  0.3997 -0.0829
  986SOL    HW1 2957   1.840   0.488   2.346 -0.1110 -3.1243 -0.4740
  986SOL    HW2 2958   1.906   0.335   2.316 -2.9237 -1.9902 -0.1453
  987SOL     OW 2959   2.249   0.569   2.320 -0.2688  0.3660  0.0790
  987SOL    HW1 2960   2.163   0.621   2.339 -0.4874  0.9470 -2.6783
  987SOL    HW2 2961   2.235   0.468   2.336  2.9270 -0.8162  0.3717
  988SOL     OW 2962   2.587   0.418   2.329 -0.1471 -0.1217 -0.3175
  988SOL    HW1 2963   2.672   0.471   2.354  0.1890  1.7999 -2.5952
  988SOL    HW2 2964   2.503   0.446   2.375  0.0875 -0.1923  0.8762
  989SOL     OW 2965   2.520   2.317   2.698 -0.4479  0.1663 -0.3167
  989SOL    HW1 2966   2.609   2.317   2.753 -0.1399  0.9389  0.0312
  989SOL    HW2 2967   2.502   2.232   2.649  0.2067 -2.2746 -1.5650
  990SOL     OW 2968   0.240   0.625   0.066 -0.0008  0.3517  0.1448
  990SOL    HW1 2969   0.186   0.708   0.091 -0.0789 -0.7866  0.7368
  990SOL    HW2 2970   0.191   0.570   3.097  4.1301  1.3895  1.8768
  991SOL     OW 2971   0.523   0.485   2.829 -0.9459 -0.4514  0.3718
  991SOL    HW1 2972   0.542   0.382   2.837  0.0800 -0.6493  0.9267
  991SOL    HW2 2973   0.563   0.528   2.913 -1.8675  0.1656  0.2457
  992SOL     OW 2974   2.963   1.790   2.229  0.1100 -0.4609  0.3451
  992SOL    HW1 2975   2.951   1.891   2.244  1.9212 -1.3563 -1.8338
  992SOL    HW2 2976   3.029   1.763   2.150  0.1427 -1.3521 -3.0107
  993SOL     OW 2977   0.357   0.039   0.810 -0.2719 -0.4926 -0.3947
  993SOL    HW1 2978   0.311   0.047   0.724  1.1499  0.3733 -0.7591
  993SOL    HW2 2979   0.422   0.121   0.825 -2.2784  0.2210 -1.3545
  994SOL     OW 2980   0.300   2.021   1.781 -0.0441 -0.2250 -0.3772
  994SOL    HW1 2981   0.307   2.122   1.773  0.4007  2.5435 -1.2659
  994SOL    HW2 2982   0.332   1.972   1.698  0.0487  0.9943 -0.7383
  995SOL     OW 2983   2.347   1.711   0.061  0.0695  1.0064 -0.0116
  995SOL    HW1 2984   2.348   1.753   3.068  0.2747  2.6613  0.1921
  995SOL    HW2 2985   2.287   1.763   0.120 -1.1397 -1.8383 -1.2743
  996SOL     OW 2986   1.722   1.464   2.758  0.1484  0.0448  0.4695
  996SOL    HW1 2987   1.711   1.540   2.829 -0.9690  0.7616  0.2046
  996SOL    HW2 2988   1.731   1.497   2.660  0.3169  1.7517 -0.3559
  997SOL     OW 2989   1.801   1.380   1.729 -0.1663  0.0490 -0.4455
  997SOL    HW1 2990   1.830   1.410   1.822  2.5789  2.4110 -2.4000
  997SOL    HW2 2991   1.801   1.273   1.718  0.0430 -3.9772 -0.3048
  998SOL     OW 2992   2.495   1.916   0.665 -0.4408 -0.1528  0.2591
  998SOL    HW1 2993   2.404   1.881   0.687  0.5346 -1.4348  0.6356
  998SOL    HW2 2994   2.549   1.856   0.598  0.7729 -1.8337 -1.7481
  999SOL     OW 2995   2.420   2.645   0.513  0.7535  0.3350  0.0832
  999SOL    HW1 2996   2.425   2.747   0.519  0.3938  0.8748  0.2322
  999SOL    HW2 2997   2.475   2.610   0.437  0.6225  0.2755  1.5128
 1000SOL     OW 2998   0.678   2.830   2.489  0.3944  0.3111 -0.0110
 1000SOL    HW1 2999   0.581   2.818   2.450  0.7825 -0.2462 -2.0080
 1000SOL    HW2 3000   0.744   2.867   2.421 -1.7304 -0.5630  3.3222
   3.10086   3.10086   3.10086
