1000 SPC/Fw water molecules t= 457.00000 step= 457000
 3000
    1SOL     OW    1   2.866   2.955   1.427 -0.5683  0.2872 -1.1199
    1SOL    HW1    2   2.863   2.927   1.331 -0.1220 -2.8588  0.5993
    1SOL    HW2    3   2.771   2.958   1.465  0.9918  0.2736  2.0423
    2SOL     OW    4   2.724   0.201   0.112  0.4137  0.5697 -0.0909
    2SOL    HW1    5   2.765   0.117   0.074 -0.8514 -0.5251 -1.0755
    2SOL    HW2    6   2.633   0.183   0.159  1.7382  0.3648  0.5208
    3SOL     OW    7   1.290   2.698   0.222 -0.1473  0.1707 -0.2555
    3SOL    HW1    8   1.252   2.603   0.235  2.1681  0.8622 -1.4410
    3SOL    HW2    9   1.391   2.697   0.226  0.5466 -0.2290  0.2990
    4SOL     OW   10   1.482   2.495   2.512  0.1576  0.5435  0.1509
    4SOL    HW1   11   1.553   2.440   2.553 -2.8054 -0.0879 -0.8274
    4SOL    HW2   12   1.389   2.458   2.510  0.0834  1.8516  2.0409
    5SOL     OW   13   2.228   0.235   2.043  0.2313 -0.2496  0.1186
    5SOL    HW1   14   2.268   0.184   1.965  2.3424  1.7382  0.6929
    5SOL    HW2   15   2.272   0.324   2.043  0.3172 -0.9163  0.7012
    6SOL     OW   16   2.706   1.912   1.175  0.4459 -0.3211 -0.2488
    6SOL    HW1   17   2.704   1.812   1.162 -1.0962  0.4386  0.3905
    6SOL    HW2   18   2.618   1.959   1.166 -0.2165 -1.2969 -0.4619
    7SOL     OW   19   1.149   2.117   0.566  0.1518  0.5345  0.0291
    7SOL    HW1   20   1.114   2.052   0.636  0.4794  4.2135 -0.6232
    7SOL    HW2   21   1.091   2.108   0.478 -0.4024  0.8870 -4.0544
    8SOL     OW   22   0.125   0.682   0.544  0.2069  0.0665  0.0857
    8SOL    HW1   23   0.212   0.689   0.489  0.1928  1.7316  1.3350
    8SOL    HW2   24   0.045   0.683   0.481  1.5793 -0.9046 -2.1093
    9SOL     OW   25   0.209   2.884   1.514  0.3195 -0.0609 -0.5958
    9SOL    HW1   26   0.273   2.807   1.487  2.0792  0.2038  1.8083
    9SOL    HW2   27   0.111   2.854   1.515 -0.3324 -0.5960  0.4865
   10SOL     OW   28   1.182   2.375   0.715  0.2405 -0.4194  0.6154
   10SOL    HW1   29   1.171   2.282   0.668 -1.5848 -6.6908 -1.0639
   10SOL    HW2   30   1.137   2.449   0.670 -0.4879 -3.2797  1.2322
   11SOL     OW   31   2.239   0.977   1.277  0.2791 -0.1605 -0.2458
   11SOL    HW1   32   2.246   0.876   1.257 -2.1408 -1.6955  0.3759
   11SOL    HW2   33   2.152   0.998   1.330 -0.4676 -1.4893  3.0348
   12SOL     OW   34   0.206   0.807   2.110 -0.2537  0.6211 -0.0799
   12SOL    HW1   35   0.267   0.803   2.029 -1.7776  0.5592  2.1615
   12SOL    HW2   36   0.215   0.730   2.177 -0.6401  2.6375  1.5515
   13SOL     OW   37   2.136   0.130   0.100 -0.2768  0.4893  0.3681
   13SOL    HW1   38   2.212   0.062   0.095 -0.0965  1.3691 -0.9924
   13SOL    HW2   39   2.045   0.084   0.082 -0.5018 -3.5825 -0.0882
   14SOL     OW   40   1.771   2.009   3.034 -0.2517 -0.1016  0.3141
   14SOL    HW1   41   1.793   1.979   2.939  0.2083 -0.6158  1.6779
   14SOL    HW2   42   1.673   1.990   3.051 -0.2414 -0.4688  0.7928
   15SOL     OW   43   0.058   2.947   2.387  0.1587  0.2436 -0.4050
   15SOL    HW1   44   0.007   2.926   2.301  1.2985  0.6605  0.1363
   15SOL    HW2   45   3.070   3.004   2.448 -0.0091  1.2917  0.7104
   16SOL     OW   46   2.911   0.630   1.104 -0.2249 -0.4648 -0.3697
   16SOL    HW1   47   2.933   0.614   1.012 -0.4658  0.2246  3.4875
   16SOL    HW2   48   2.885   0.548   1.149  1.8781  1.7507 -2.4018
   17SOL     OW   49   0.697   0.235   0.863  0.6286 -0.3672  0.1289
   17SOL    HW1   50   0.722   0.177   0.944  0.7456 -0.9785  0.7801
   17SOL    HW2   51   0.768   0.225   0.789 -0.6763  3.5766 -2.5368
   18SOL     OW   52   0.167   0.143   0.391  0.1648  0.1238 -0.1952
   18SOL    HW1   53   0.076   0.141   0.442 -5.7895  0.4917 -0.0997
   18SOL    HW2   54   0.243   0.102   0.449  0.6730 -1.1846 -0.8412
   19SOL     OW   55   1.482   1.109   1.156  0.0698  0.0098  0.1973
   19SOL    HW1   56   1.486   1.189   1.091 -0.1171 -0.6075 -0.3523
   19SOL    HW2   57   1.388   1.094   1.188  2.1319  1.0354 -1.6308
   20SOL     OW   58   2.384   1.847   2.546 -0.4902  0.3753 -0.1425
   20SOL    HW1   59   2.458   1.915   2.529  1.1163  1.2065  1.7150
   20SOL    HW2   60   2.420   1.753   2.554  2.7664  1.8596 -0.5124
   21SOL     OW   61   1.373   2.896   0.676  0.2747 -0.0012 -0.4352
   21SOL    HW1   62   1.416   2.822   0.732 -1.6078 -1.8006  0.1680
   21SOL    HW2   63   1.445   2.931   0.615 -1.4708 -3.2280  0.0472
   22SOL     OW   64   2.415   0.962   0.138 -0.0552 -0.3137  0.4650
   22SOL    HW1   65   2.480   1.007   0.200  0.5494 -2.3123 -1.4305
   22SOL    HW2   66   2.442   0.865   0.117  0.5294 -2.1065 -2.0381
   23SOL     OW   67   0.970   0.394   2.055 -0.2440 -0.4400 -0.1072
   23SOL    HW1   68   0.927   0.308   2.022  0.8362 -1.4774 -1.2335
   23SOL    HW2   69   1.071   0.397   2.053 -0.7409 -1.8877 -0.6353
   24SOL     OW   70   1.956   2.300   0.926 -0.4750 -0.6447 -0.0531
   24SOL    HW1   71   2.061   2.312   0.914  0.4841  1.0747  0.1932
   24SOL    HW2   72   1.910   2.380   0.875  1.6067  3.3580 -0.4641
   25SOL     OW   73   1.594   3.067   2.614  0.5064 -0.2492 -0.2726
   25SOL    HW1   74   1.547   0.090   2.612 -2.3860  1.2180  2.2678
   25SOL    HW2   75   1.591   3.032   2.709  0.8837 -0.2463 -2.4953
   26SOL     OW   76   1.341   2.894   2.706 -0.1168  0.6384  0.2830
   26SOL    HW1   77   1.427   2.861   2.667  0.3809  0.5404 -0.5164
   26SOL    HW2   78   1.272   2.819   2.700 -1.4347  2.2247  0.2464
   27SOL     OW   79   1.095   0.377   1.164 -0.2552 -0.7908 -0.0293
   27SOL    HW1   80   1.081   0.369   1.064 -2.2838 -1.1318  0.6226
   27SOL    HW2   81   1.152   0.307   1.206 -1.1045  1.9041  0.6735
   28SOL     OW   82   0.251   1.976   0.996 -0.8021 -0.0377 -0.4556
   28SOL    HW1   83   0.352   1.961   0.978  0.0402  1.5425 -1.9144
   28SOL    HW2   84   0.224   1.927   1.082 -2.0864  0.1867 -0.9995
   29SOL     OW   85   2.571   1.134   1.205 -0.3081 -0.7296  0.3836
   29SOL    HW1   86   2.561   1.068   1.130  0.2619  3.2266  0.4203
   29SOL    HW2   87   2.569   1.089   1.295 -0.0810 -0.9662  0.0277
   30SOL     OW   88   1.744   2.714   1.469  0.1173  0.1356  0.2849
   30SOL    HW1   89   1.727   2.643   1.399 -1.2412  0.6221 -1.9327
   30SOL    HW2   90   1.683   2.792   1.453 -0.8591  0.7978  1.0310
   31SOL     OW   91   1.478   2.620   1.361 -0.0733  0.6179  0.0924
   31SOL    HW1   92   1.407   2.637   1.289 -3.3873  0.4126  0.4354
   31SOL    HW2   93   1.507   2.523   1.345 -0.1486 -1.7211 -0.4222
   32SOL     OW   94   2.234   1.289   1.988  0.1900 -0.5625 -0.2361
   32SOL    HW1   95   2.289   1.349   1.931 -2.1682 -1.0121 -1.9007
   32SOL    HW2   96   2.140   1.273   1.948 -1.8111 -0.1054 -0.0246
   33SOL     OW   97   2.253   2.979   2.353 -0.1293  0.0999  0.0115
   33SOL    HW1   98   2.230   2.973   2.457 -3.6298 -1.1309 -1.4269
   33SOL    HW2   99   2.315   3.054   2.327  1.9737  1.4267 -0.3154
   34SOL     OW  100   2.041   0.751   0.813  0.3570 -0.2995  0.2459
   34SOL    HW1  101   2.077   0.727   0.718  0.1122  0.9559 -0.9443
   34SOL    HW2  102   1.941   0.749   0.820  1.1730  0.9375 -1.4604
   35SOL     OW  103   0.111   1.526   1.837  0.4016  0.4348 -0.0448
   35SOL    HW1  104   0.120   1.545   1.941  2.0013  3.0476  3.4979
   35SOL    HW2  105   0.016   1.549   1.802 -4.4258 -1.2687 -1.0967
   36SOL     OW  106   2.574   2.411   2.761  0.5209 -0.0590 -0.1394
   36SOL    HW1  107   2.479   2.438   2.728 -2.7381 -0.0391  1.9446
   36SOL    HW2  108   2.575   2.313   2.772  1.6996  1.2904 -2.4758
   37SOL     OW  109   1.257   2.589   1.869  0.0548 -0.2669  0.3911
   37SOL    HW1  110   1.280   2.663   1.934 -0.5432 -1.9457  2.3462
   37SOL    HW2  111   1.160   2.556   1.872 -1.9069 -2.9678 -1.4428
   38SOL     OW  112   0.802   0.909   2.295  0.0326  0.1406  0.2988
   38SOL    HW1  113   0.847   0.818   2.305  1.3479  0.9173 -0.0912
   38SOL    HW2  114   0.772   0.917   2.199 -0.2657 -1.3274 -0.2934
   39SOL     OW  115   1.810   0.701   1.727 -0.2806  0.0945 -0.3871
   39SOL    HW1  116   1.717   0.692   1.770 -0.7822  2.9258  1.3860
   39SOL    HW2  117   1.882   0.659   1.786  1.9025 -1.9627  0.9363
   40SOL     OW  118   0.786   2.307   0.659 -0.1910  0.1364  0.4957
   40SOL    HW1  119   0.843   2.336   0.740 -1.3137  0.2002  1.5892
   40SOL    HW2  120   0.793   2.209   0.646  1.0002  1.4160 -0.6882
   41SOL     OW  121   2.442   2.003   1.180  0.0787 -0.0231 -0.5659
   41SOL    HW1  122   2.402   1.941   1.251 -1.2247 -0.3555  3.6417
   41SOL    HW2  123   2.423   2.102   1.203  0.7894 -0.7363 -0.4438
   42SOL     OW  124   2.587   0.655   0.403 -0.0363 -0.7599 -0.0798
   42SOL    HW1  125   2.588   0.571   0.349 -0.2160 -0.8206  1.0839
   42SOL    HW2  126   2.636   0.635   0.486  1.1727 -0.7112  2.2880
   43SOL     OW  127   0.704   1.094   2.480 -0.0439  0.1922 -0.0554
   43SOL    HW1  128   0.617   1.134   2.451  1.3539  0.5422  0.0603
   43SOL    HW2  129   0.731   1.025   2.412 -2.5024 -1.5193 -0.2885
   44SOL     OW  130   1.805   2.491   1.226 -0.0597 -0.2571  0.2009
   44SOL    HW1  131   1.729   2.420   1.240  0.3523 -1.7369 -3.1767
   44SOL    HW2  132   1.891   2.447   1.259  0.0731 -0.1939 -0.9365
   45SOL     OW  133   0.540   2.418   2.730  0.0651 -0.3296  0.1763
   45SOL    HW1  134   0.498   2.453   2.812  2.4859  0.9221  0.0288
   45SOL    HW2  135   0.604   2.487   2.689  2.0673 -2.2702  1.9055
   46SOL     OW  136   0.525   2.700   2.015 -0.4514 -0.3536  0.2954
   46SOL    HW1  137   0.619   2.737   1.999 -1.6077 -1.9621 -1.0438
   46SOL    HW2  138   0.523   2.629   2.086 -1.6470  1.0120 -0.3060
   47SOL     OW  139   0.478   1.684   0.803  0.4643  0.0417 -0.2650
   47SOL    HW1  140   0.568   1.657   0.766  3.7153 -0.9254 -0.6021
   47SOL    HW2  141   0.490   1.767   0.863  1.1416  0.2877  1.6194
   48SOL     OW  142   0.778   0.050   1.357 -0.1493 -0.5944 -0.1197
   48SOL    HW1  143   0.786   0.023   1.453  1.8257 -3.7919  1.0604
   48SOL    HW2  144   0.680   0.073   1.339 -0.1720  3.5595 -2.7411
   49SOL     OW  145   3.068   2.829   3.008 -0.4054  0.3179  0.4516
   49SOL    HW1  146   0.067   2.812   0.004  2.5125  1.7484 -3.0674
   49SOL    HW2  147   2.986   2.775   3.019 -0.0363  1.3565 -0.4645
   50SOL     OW  148   1.290   0.945   0.213 -0.0742  0.0143 -0.5721
   50SOL    HW1  149   1.194   0.918   0.248 -2.1714  3.0799  1.3646
   50SOL    HW2  150   1.291   0.975   0.118  1.0178  0.2063  0.9831
   51SOL     OW  151   1.897   0.107   0.387  0.3167 -0.2084 -0.2831
   51SOL    HW1  152   1.852   0.099   0.297 -2.0787 -0.2526  2.6374
   51SOL    HW2  153   1.846   0.165   0.454 -1.4189 -2.0224  0.1130
   52SOL     OW  154   0.248   1.564   0.902 -0.3161  0.1169 -0.6050
   52SOL    HW1  155   0.324   1.612   0.847  0.7548 -0.1057 -3.2626
   52SOL    HW2  156   0.272   1.466   0.926  0.6062 -2.5454  0.5314
   53SOL     OW  157   0.223   0.925   0.000  0.1917 -0.6686  0.6186
   53SOL    HW1  158   0.149   0.982   3.037 -0.9913 -1.1430 -0.3558
   53SOL    HW2  159   0.234   0.930   0.101  0.5539  1.6934  1.3383
   54SOL     OW  160   2.822   2.313   2.892 -0.2754  0.4484  0.2232
   54SOL    HW1  161   2.845   2.351   2.985 -2.9839 -0.9336  2.5323
   54SOL    HW2  162   2.756   2.373   2.842  0.2417  2.0041  0.6011
   55SOL     OW  163   2.671   2.218   1.154 -0.2050  0.5214 -0.3028
   55SOL    HW1  164   2.746   2.233   1.222 -0.5340 -0.1959 -0.2437
   55SOL    HW2  165   2.581   2.245   1.192  2.8970  1.1624 -0.8883
   56SOL     OW  166   1.728   0.341   1.062  0.2345  0.2212  0.5569
   56SOL    HW1  167   1.742   0.244   1.036  0.8288  0.4569 -3.4171
   56SOL    HW2  168   1.744   0.392   0.972 -2.0616 -0.7179 -1.6029
   57SOL     OW  169   1.909   1.870   1.167  0.2003 -0.6070 -0.4663
   57SOL    HW1  170   1.854   1.829   1.087 -1.0188  0.3217 -2.5109
   57SOL    HW2  171   1.910   1.969   1.147 -1.2676  1.6055 -1.3371
   58SOL     OW  172   2.620   0.384   2.031 -0.3008 -0.1991  0.2700
   58SOL    HW1  173   2.671   0.381   2.122 -1.0894 -0.0104  0.4000
   58SOL    HW2  174   2.523   0.426   2.046 -4.9731  1.2216 -0.0082
   59SOL     OW  175   1.387   2.331   2.043  0.3112  0.0762  0.0349
   59SOL    HW1  176   1.310   2.370   2.104 -0.2989  1.5929  0.4029
   59SOL    HW2  177   1.429   2.404   1.990  0.0920  2.8808  0.6440
   60SOL     OW  178   0.907   2.454   2.867  0.1349 -0.0247  0.1703
   60SOL    HW1  179   0.853   2.518   2.926  0.7345  0.9225  1.2187
   60SOL    HW2  180   0.882   2.358   2.893 -0.9767  1.3965  3.6100
   61SOL     OW  181   0.559   2.009   0.198 -0.2347  0.4004 -0.5189
   61SOL    HW1  182   0.636   2.064   0.155 -1.0151  2.0210  1.0590
   61SOL    HW2  183   0.521   1.933   0.147  0.2248 -1.1365  1.1225
   62SOL     OW  184   1.117   1.656   1.829 -0.2893 -0.1878  0.3192
   62SOL    HW1  185   1.026   1.616   1.799 -2.6345 -0.1701 -0.0138
   62SOL    HW2  186   1.156   1.721   1.758 -1.5914  1.0156  0.1767
   63SOL     OW  187   1.053   1.938   0.733 -0.0878 -0.2522 -0.0109
   63SOL    HW1  188   0.959   1.969   0.732  1.7361 -1.6813  1.1102
   63SOL    HW2  189   1.065   1.841   0.760 -3.1533  0.1456  0.3039
   64SOL     OW  190   1.258   1.381   2.707  0.3084  0.2912 -0.0421
   64SOL    HW1  191   1.340   1.332   2.680  0.7759 -1.0698 -1.2411
   64SOL    HW2  192   1.246   1.473   2.665  1.0439 -1.6008 -1.2842
   65SOL     OW  193   1.688   1.851   1.954 -0.0303 -0.3523 -0.6324
   65SOL    HW1  194   1.709   1.911   1.879 -1.3998 -1.0849  1.1313
   65SOL    HW2  195   1.735   1.876   2.045 -2.1451  0.0643  0.2964
   66SOL     OW  196   0.056   0.998   0.966 -0.3181  0.3931  0.2565
   66SOL    HW1  197   3.047   0.955   1.009 -0.4121  2.3074 -0.3546
   66SOL    HW2  198   0.073   0.964   0.868  2.1960 -0.3774 -0.3637
   67SOL     OW  199   2.244   2.360   0.899 -0.2727  0.0924  0.0337
   67SOL    HW1  200   2.336   2.329   0.866 -0.1827  1.6973 -0.8925
   67SOL    HW2  201   2.226   2.457   0.865  0.3782  0.7149 -1.3295
   68SOL     OW  202   2.332   2.500   1.511 -0.4137 -0.0670  0.3064
   68SOL    HW1  203   2.276   2.568   1.456 -2.1213  1.1742 -1.1604
   68SOL    HW2  204   2.361   2.540   1.598  1.9078 -2.3812 -1.0667
   69SOL     OW  205   2.410   2.703   2.990 -0.4006  0.1339  0.0809
   69SOL    HW1  206   2.384   2.714   2.892  0.1242  1.6367 -1.5706
   69SOL    HW2  207   2.326   2.709   3.047 -0.8452  0.5061 -0.9193
   70SOL     OW  208   0.712   1.490   2.738 -0.4045  0.7763 -0.3282
   70SOL    HW1  209   0.802   1.534   2.715 -0.8953  1.5324 -0.3824
   70SOL    HW2  210   0.729   1.391   2.759 -0.6086 -2.1895 -1.2032
   71SOL     OW  211   0.564   1.443   1.987 -0.2254  0.6570 -0.1951
   71SOL    HW1  212   0.546   1.395   1.896 -1.0121 -1.3331 -0.7135
   71SOL    HW2  213   0.546   1.544   1.990 -1.4587 -0.8089 -1.5597
   72SOL     OW  214   2.812   1.217   1.555 -0.2059  0.1598 -0.1646
   72SOL    HW1  215   2.820   1.320   1.543  3.1473  2.0659 -0.1809
   72SOL    HW2  216   2.806   1.189   1.652  1.4950 -0.8365 -0.4931
   73SOL     OW  217   0.802   2.273   2.451  0.1277 -1.0431  0.0408
   73SOL    HW1  218   0.699   2.286   2.445 -1.0946 -2.4548 -1.8339
   73SOL    HW2  219   0.831   2.188   2.400 -3.1027 -0.3518 -1.8997
   74SOL     OW  220   1.450   0.046   1.830  0.1673  0.3686  0.4977
   74SOL    HW1  221   1.436   3.042   1.761  0.3960 -2.4141 -1.5352
   74SOL    HW2  222   1.533   0.027   1.887 -0.9007 -1.7326  1.5346
   75SOL     OW  223   1.166   3.063   0.776 -0.6157 -0.0349  0.1020
   75SOL    HW1  224   1.179   0.072   0.839 -0.2187  0.9714  1.5109
   75SOL    HW2  225   1.254   3.019   0.751  1.7129 -2.9983  3.5471
   76SOL     OW  226   0.535   1.933   2.570 -0.1930  0.3678 -0.0294
   76SOL    HW1  227   0.622   1.900   2.611  0.5581  2.1552 -0.4728
   76SOL    HW2  228   0.474   1.854   2.550  1.1009 -0.4394  0.9936
   77SOL     OW  229   0.554   2.576   1.204 -0.1024 -0.6376 -0.7867
   77SOL    HW1  230   0.485   2.512   1.238  0.7760 -1.1230 -2.2201
   77SOL    HW2  231   0.513   2.670   1.182 -0.7115  0.7694 -0.5695
   78SOL     OW  232   2.520   1.248   0.212  0.2748 -0.0656  0.1795
   78SOL    HW1  233   2.440   1.304   0.178 -0.8630  2.0582 -0.6031
   78SOL    HW2  234   2.502   1.216   0.309 -1.4587  3.5779 -0.4301
   79SOL     OW  235   0.536   1.623   2.884  0.0524 -0.0722  0.1826
   79SOL    HW1  236   0.568   1.604   2.980  1.5562 -1.1889  0.0520
   79SOL    HW2  237   0.598   1.570   2.823  0.0837 -0.0259  1.1878
   80SOL     OW  238   1.842   1.535   1.606  0.3626  0.5402  0.2003
   80SOL    HW1  239   1.844   1.497   1.702  1.9887 -0.7997  2.4384
   80SOL    HW2  240   1.872   1.462   1.541  0.4808  1.0572  0.0234
   81SOL     OW  241   2.020   0.877   2.387 -0.3794 -0.5021 -0.7539
   81SOL    HW1  242   1.951   0.828   2.330  1.7217  1.7013  2.3538
   81SOL    HW2  243   2.107   0.889   2.330 -1.4453 -2.5422  0.2432
   82SOL     OW  244   1.633   1.805   1.572 -0.3522  0.2157 -0.5905
   82SOL    HW1  245   1.562   1.845   1.508 -2.7617 -3.9570 -1.4772
   82SOL    HW2  246   1.603   1.715   1.607 -0.8116 -0.2098  1.7621
   83SOL     OW  247   2.959   3.045   2.572  0.3142  0.4199 -0.6462
   83SOL    HW1  248   2.892   3.064   2.503  0.5457  0.1710 -2.1877
   83SOL    HW2  249   2.938   2.958   2.623 -2.0458  2.6780 -1.5806
   84SOL     OW  250   0.909   0.852   0.477  0.1752 -0.7350  0.7621
   84SOL    HW1  251   0.818   0.899   0.459 -0.4786 -1.3513  0.1561
   84SOL    HW2  252   0.946   0.870   0.572 -0.4360  0.3406 -1.4419
   85SOL     OW  253   2.130   1.759   1.296  0.3038 -0.1292 -0.3563
   85SOL    HW1  254   2.045   1.787   1.243 -2.0446  0.5462 -0.8823
   85SOL    HW2  255   2.123   1.660   1.306 -0.6477 -0.9470 -0.8027
   86SOL     OW  256   0.829   0.985   1.364  0.0641  0.4606  0.1277
   86SOL    HW1  257   0.777   1.067   1.334  0.2372  0.0085  2.9240
   86SOL    HW2  258   0.775   0.938   1.431  3.7538 -0.0149 -0.4560
   87SOL     OW  259   2.925   2.255   2.438 -0.2149  0.5412 -0.1435
   87SOL    HW1  260   2.863   2.221   2.365  2.9900  1.5953  0.7083
   87SOL    HW2  261   2.892   2.336   2.490  1.6654 -0.9560  0.9182
   88SOL     OW  262   0.185   2.863   0.246 -0.1043 -0.4429 -0.3337
   88SOL    HW1  263   0.235   2.914   0.179 -0.1714  1.1051  0.6076
   88SOL    HW2  264   0.249   2.811   0.305 -0.3956 -0.6513 -0.0203
   89SOL     OW  265   1.318   0.189   0.464  0.7129  0.3118 -0.1120
   89SOL    HW1  266   1.389   0.135   0.507  0.8134 -1.4399 -0.8525
   89SOL    HW2  267   1.359   0.279   0.434  1.5542  2.0470 -0.8943
   90SOL     OW  268   2.657   0.867   2.226  0.5145  0.5419  0.2515
   90SOL    HW1  269   2.610   0.925   2.298  1.2350  1.3200 -2.2770
   90SOL    HW2  270   2.659   0.770   2.256  1.4277  0.6482  0.5910
   91SOL     OW  271   2.006   2.816   0.883  0.1020 -0.4872 -0.1417
   91SOL    HW1  272   1.922   2.782   0.929  0.5188  1.4760  2.3054
   91SOL    HW2  273   2.080   2.745   0.876 -0.5266  0.8081  0.6172
   92SOL     OW  274   1.599   1.729   0.613 -0.3430  0.1356 -0.2562
   92SOL    HW1  275   1.640   1.661   0.675  0.0625  0.5036  1.0280
   92SOL    HW2  276   1.661   1.810   0.603 -1.2790  0.0886  2.6276
   93SOL     OW  277   0.374   1.552   0.460 -0.5021  0.2220 -0.3141
   93SOL    HW1  278   0.322   1.609   0.521  0.1899 -0.1789  0.0454
   93SOL    HW2  279   0.434   1.609   0.401 -1.0425  0.5849  1.6987
   94SOL     OW  280   0.757   2.550   1.423  0.1291 -0.0216  0.5527
   94SOL    HW1  281   0.785   2.454   1.398  2.9707 -2.0743 -2.5739
   94SOL    HW2  282   0.684   2.580   1.362  2.8778  0.0342  3.6455
   95SOL     OW  283   0.102   0.890   0.718  0.4249 -0.4984  0.6541
   95SOL    HW1  284   0.143   0.798   0.718 -2.2435 -0.3469  1.2249
   95SOL    HW2  285   0.009   0.888   0.677 -2.5306  1.9097 -0.7435
   96SOL     OW  286   0.717   2.795   1.821 -0.0089  0.7901  0.1687
   96SOL    HW1  287   0.635   2.849   1.788 -0.5589  1.5470  1.9445
   96SOL    HW2  288   0.710   2.704   1.777 -1.9485  1.6192 -0.3212
   97SOL     OW  289   2.393   0.892   0.898  0.1740  0.3242  0.3281
   97SOL    HW1  290   2.391   0.813   0.955 -0.9490  0.2539  1.9799
   97SOL    HW2  291   2.306   0.907   0.844 -1.3967 -0.6562 -1.4699
   98SOL     OW  292   0.207   2.245   1.917 -0.5752 -0.5560  0.4833
   98SOL    HW1  293   0.219   2.299   2.004  2.8084  1.6245  2.5863
   98SOL    HW2  294   0.115   2.195   1.917 -0.0816  0.4134  2.7549
   99SOL     OW  295   3.011   0.359   1.476  0.2826 -0.5855 -0.1230
   99SOL    HW1  296   3.014   0.254   1.471  0.0436  0.2949 -0.4866
   99SOL    HW2  297   2.987   0.401   1.563 -2.0579 -1.4367 -1.1198
  100SOL     OW  298   1.985   0.365   2.528  0.5846  0.6876  0.2502
  100SOL    HW1  299   2.073   0.391   2.574 -2.0386 -1.4354 -1.3474
  100SOL    HW2  300   2.002   0.281   2.473  3.8367  0.6041  1.1461
  101SOL     OW  301   1.053   3.034   2.108 -0.2068  0.1630  0.1658
  101SOL    HW1  302   1.075   2.947   2.158  0.5301 -1.8255  0.4619
  101SOL    HW2  303   1.044   0.048   2.161  1.2021 -1.7804  1.0467
  102SOL     OW  304   0.928   0.655   1.696 -0.7698  0.0803 -0.2945
  102SOL    HW1  305   0.844   0.631   1.640 -0.9658 -0.1698  0.1832
  102SOL    HW2  306   1.013   0.644   1.638 -1.3577  1.2970  1.1628
  103SOL     OW  307   0.624   0.900   2.954 -0.2546 -0.5611 -0.3072
  103SOL    HW1  308   0.670   0.945   2.878 -0.9788 -0.3063  1.3133
  103SOL    HW2  309   0.577   0.810   2.935  0.1001  2.1013 -1.7080
  104SOL     OW  310   0.425   0.492   2.118  0.6019 -0.1855  0.0937
  104SOL    HW1  311   0.474   0.460   2.031  0.0413 -2.2565 -0.8814
  104SOL    HW2  312   0.421   0.413   2.183 -1.4819 -0.5254 -0.9964
  105SOL     OW  313   2.605   2.224   1.719  0.5077  0.1836 -0.4658
  105SOL    HW1  314   2.663   2.139   1.736  0.4829 -0.4728 -0.9722
  105SOL    HW2  315   2.660   2.309   1.727 -0.2195 -0.0620  0.0190
  106SOL     OW  316   0.922   2.992   0.678 -0.5610  0.1672  0.0843
  106SOL    HW1  317   0.927   2.955   0.583 -1.2677 -0.6114  0.5181
  106SOL    HW2  318   1.016   2.983   0.723  1.9137  0.5592  2.1233
  107SOL     OW  319   2.936   2.012   1.059  0.4923  0.1381 -0.1423
  107SOL    HW1  320   2.948   1.961   0.974 -0.4026  0.3707  1.8711
  107SOL    HW2  321   2.853   1.979   1.110  2.0734  0.8016 -1.5298
  108SOL     OW  322   0.143   2.234   0.525 -0.1031 -0.2153  0.5788
  108SOL    HW1  323   0.072   2.307   0.511 -2.1837 -1.0068  0.4020
  108SOL    HW2  324   0.125   2.183   0.613 -1.1197  0.5266  0.2610
  109SOL     OW  325   1.769   2.959   0.679 -0.2715 -0.4806 -0.1300
  109SOL    HW1  326   1.832   2.886   0.710 -0.8438  1.5076  1.6745
  109SOL    HW2  327   1.759   3.028   0.759 -1.1808  1.0842  1.3171
  110SOL     OW  328   1.764   1.944   0.535 -0.3140 -0.4748 -0.3372
  110SOL    HW1  329   1.755   2.004   0.457  1.0850  0.9986  0.0562
  110SOL    HW2  330   1.808   1.995   0.611 -0.2622 -0.8288 -1.9181
  111SOL     OW  331   1.875   2.771   1.929  0.0947 -0.0150 -0.2226
  111SOL    HW1  332   1.950   2.698   1.923  1.5503 -2.5257  2.3755
  111SOL    HW2  333   1.842   2.789   2.026  0.4939  1.4532  3.5086
  112SOL     OW  334   1.600   2.123   2.464  0.1301 -0.1183  0.0349
  112SOL    HW1  335   1.582   2.155   2.369 -2.3806  0.7355  2.1661
  112SOL    HW2  336   1.655   2.191   2.514 -2.1815 -1.4411 -2.7019
  113SOL     OW  337   2.399   2.006   2.134 -0.1209  0.0207  0.3282
  113SOL    HW1  338   2.348   1.938   2.185  0.2219  1.3315 -1.4244
  113SOL    HW2  339   2.336   2.077   2.095  2.1186 -1.1261 -1.4232
  114SOL     OW  340   0.181   1.211   1.085  0.2097 -0.2682 -0.2575
  114SOL    HW1  341   0.113   1.143   1.045 -1.0020 -0.5123 -0.4957
  114SOL    HW2  342   0.137   1.304   1.103 -0.4646  0.9259 -1.6675
  115SOL     OW  343   2.505   0.746   2.545  0.6994  1.0268  0.0469
  115SOL    HW1  344   2.567   0.821   2.580  1.6433  3.8064  0.0287
  115SOL    HW2  345   2.521   0.721   2.444  1.5814  0.0909 -2.5127
  116SOL     OW  346   2.718   0.564   2.821  0.2837 -0.3268 -0.1045
  116SOL    HW1  347   2.631   0.612   2.799 -1.8142  1.6059 -2.1094
  116SOL    HW2  348   2.710   0.465   2.803  3.4428  0.7385 -1.2137
  117SOL     OW  349   2.620   2.550   0.573 -0.2097 -0.2716 -0.0598
  117SOL    HW1  350   2.588   2.476   0.634  1.8653 -1.5004 -1.8123
  117SOL    HW2  351   2.686   2.605   0.629 -2.4404  0.8127  1.5172
  118SOL     OW  352   0.898   2.057   2.312 -0.0958 -0.2919  0.3269
  118SOL    HW1  353   0.963   2.039   2.231  0.0315 -0.1430 -3.2333
  118SOL    HW2  354   0.814   1.997   2.298 -1.2734  0.9472 -0.4845
  119SOL     OW  355   0.761   2.670   0.531  0.1500  0.4095  0.0970
  119SOL    HW1  356   0.806   2.754   0.493 -2.8217 -0.1580 -0.2399
  119SOL    HW2  357   0.778   2.584   0.478 -1.8749 -0.2472  1.2816
  120SOL     OW  358   1.292   0.582   0.761 -0.1926  0.0394 -0.0316
  120SOL    HW1  359   1.375   0.527   0.743 -0.0690  0.9835  0.7305
  120SOL    HW2  360   1.327   0.676   0.780  0.1201 -3.8979 -0.5047
  121SOL     OW  361   1.769   0.533   0.859 -0.0917  0.7031  0.4438
  121SOL    HW1  362   1.757   0.636   0.860  1.0152 -0.2916 -1.4840
  121SOL    HW2  363   1.847   0.511   0.795  2.0375 -3.5329 -1.6340
  122SOL     OW  364   1.970   1.458   2.382  0.5218  0.4372 -0.8833
  122SOL    HW1  365   1.879   1.428   2.413 -1.1949 -3.1244 -2.1611
  122SOL    HW2  366   2.003   1.388   2.317 -0.7007 -0.6697  1.5138
  123SOL     OW  367   0.737   1.157   1.037 -0.0922 -0.3017 -0.1878
  123SOL    HW1  368   0.678   1.073   1.016 -0.2934 -0.3053 -0.5605
  123SOL    HW2  369   0.733   1.228   0.964  0.9714 -0.2970  0.3942
  124SOL     OW  370   0.651   0.215   2.701  0.1945  0.2512  0.5141
  124SOL    HW1  371   0.620   0.297   2.753  0.4331 -1.3335  0.8488
  124SOL    HW2  372   0.733   0.237   2.645  0.5313  1.2491  2.3261
  125SOL     OW  373   0.793   0.037   3.005 -0.0985 -0.3605 -0.1080
  125SOL    HW1  374   0.884   0.059   2.966 -0.8616 -0.3844  2.3764
  125SOL    HW2  375   0.725   0.009   2.936  2.4625 -0.6366  4.5279
  126SOL     OW  376   0.837   1.371   0.143  0.0702  0.2787  0.3678
  126SOL    HW1  377   0.842   1.271   0.128 -0.6024 -0.9441 -1.0466
  126SOL    HW2  378   0.856   1.397   0.240 -0.5236 -0.3930 -1.4150
  127SOL     OW  379   1.153   2.367   1.126 -0.0052 -0.4321  0.2857
  127SOL    HW1  380   1.122   2.456   1.089  0.5460  0.0051 -1.5504
  127SOL    HW2  381   1.233   2.331   1.079  3.8285 -1.8067  0.8236
  128SOL     OW  382   0.912   1.765   0.109  0.0138 -0.4617  0.3542
  128SOL    HW1  383   0.962   1.680   0.079 -0.8292  0.8249  0.6487
  128SOL    HW2  384   0.990   1.831   0.119  2.7490  1.3937  1.5702
  129SOL     OW  385   1.872   1.633   2.014  0.3576 -0.2904 -0.0293
  129SOL    HW1  386   1.860   1.542   1.966 -0.7922 -0.2634  0.7157
  129SOL    HW2  387   1.787   1.683   1.989  0.1479  0.6571 -0.2402
  130SOL     OW  388   2.042   1.791   1.895 -0.2598  0.1398 -0.5167
  130SOL    HW1  389   1.980   1.725   1.951  0.6923 -1.1641  3.4146
  130SOL    HW2  390   2.017   1.789   1.794 -2.1994 -1.7882 -1.1787
  131SOL     OW  391   0.791   2.430   2.102  1.0981 -0.4234  0.4163
  131SOL    HW1  392   0.845   2.345   2.100 -0.7551  0.1833 -1.1234
  131SOL    HW2  393   0.729   2.426   2.019  0.2049  3.3986 -2.4390
  132SOL     OW  394   2.518   1.605   0.726  0.2929 -0.0791 -0.4520
  132SOL    HW1  395   2.611   1.590   0.686  1.1342 -0.1208  1.1826
  132SOL    HW2  396   2.494   1.701   0.735  0.2556 -0.2622 -1.6759
  133SOL     OW  397   0.501   1.718   1.992 -1.0119 -0.2674 -0.5695
  133SOL    HW1  398   0.542   1.767   1.915  0.2417 -2.1929  1.5020
  133SOL    HW2  399   0.415   1.759   2.015  4.8210 -2.2740 -1.8500
  134SOL     OW  400   3.018   1.500   0.674 -0.5780  0.1969 -0.1354
  134SOL    HW1  401   3.047   1.407   0.706  0.7805 -0.1408  1.2144
  134SOL    HW2  402   0.012   1.544   0.609 -0.4456 -0.9115  1.9722
  135SOL     OW  403   1.857   0.962   3.034 -0.0166  0.8116  0.3738
  135SOL    HW1  404   1.910   1.050   3.024 -1.4503  0.3477  1.5062
  135SOL    HW2  405   1.827   0.925   2.942 -1.8356 -1.3643 -2.3993
  136SOL     OW  406   3.007   1.356   1.058 -0.4565  0.6762 -0.3153
  136SOL    HW1  407   2.940   1.281   1.074  0.6114 -1.6266  1.1112
  136SOL    HW2  408   2.957   1.443   1.036  0.7289 -2.6216 -2.1802
  137SOL     OW  409   2.297   1.597   0.553  0.2365 -0.6306  0.2645
  137SOL    HW1  410   2.279   1.498   0.515  0.2051 -1.9106  1.8871
  137SOL    HW2  411   2.388   1.608   0.595 -0.3851  1.1789 -0.7040
  138SOL     OW  412   2.553   0.523   0.672  0.0187 -0.0428  0.2124
  138SOL    HW1  413   2.493   0.499   0.757  0.5740 -0.5049  2.3259
  138SOL    HW2  414   2.583   0.434   0.629 -0.5343 -1.1231  2.1173
  139SOL     OW  415   2.665   0.023   2.895  0.4240  0.5497  0.5021
  139SOL    HW1  416   2.701   3.040   2.980  3.3031  0.2873 -0.9598
  139SOL    HW2  417   2.647   3.035   2.814 -3.2405  0.2384 -3.6540
  140SOL     OW  418   0.613   1.578   1.307  0.2108  0.0170  0.3525
  140SOL    HW1  419   0.567   1.534   1.227  1.2673  1.6823 -1.1534
  140SOL    HW2  420   0.694   1.643   1.289  1.4917  2.2822  0.8170
  141SOL     OW  421   1.402   1.480   0.812 -0.2642  0.3300  0.1604
  141SOL    HW1  422   1.384   1.417   0.892  0.7677 -1.4594  0.5830
  141SOL    HW2  423   1.487   1.446   0.770  1.9243 -2.2462  0.5983
  142SOL     OW  424   1.532   0.847   1.048  0.3785 -0.8850 -0.2916
  142SOL    HW1  425   1.500   0.777   1.116  0.1852 -0.7783  2.6046
  142SOL    HW2  426   1.497   0.934   1.080  0.4480 -2.7282  0.8574
  143SOL     OW  427   0.525   0.658   2.879  0.2346 -0.0434  0.0525
  143SOL    HW1  428   0.500   0.715   2.795 -0.8475 -0.7194  0.7268
  143SOL    HW2  429   0.505   0.556   2.866 -0.3100 -0.7493  1.2030
  144SOL     OW  430   2.474   0.181   0.199 -0.0172 -0.0666  0.3946
  144SOL    HW1  431   2.417   0.262   0.165 -2.2231 -1.1660  0.8854
  144SOL    HW2  432   2.477   0.176   0.305 -0.7174 -2.6033  0.2848
  145SOL     OW  433   2.184   2.977   2.603 -0.2612  0.3689  0.2121
  145SOL    HW1  434   2.245   3.019   2.673  1.8895  1.0157 -1.6504
  145SOL    HW2  435   2.099   2.958   2.653  1.3289  2.2470  1.4705
  146SOL     OW  436   2.743   2.770   0.340 -0.5696 -0.8721 -0.1280
  146SOL    HW1  437   2.666   2.748   0.273  1.1216 -1.1208  0.4430
  146SOL    HW2  438   2.798   2.850   0.305 -2.0722 -0.7597 -3.3620
  147SOL     OW  439   1.314   0.768   2.654 -0.3404  0.3223  0.5012
  147SOL    HW1  440   1.327   0.695   2.722 -0.4830 -1.1254  0.4525
  147SOL    HW2  441   1.233   0.827   2.676 -2.5325  0.9913 -0.8511
  148SOL     OW  442   1.137   0.122   0.243 -0.3910 -0.2383 -0.3907
  148SOL    HW1  443   1.191   0.112   0.326  0.5205  1.0361  1.1457
  148SOL    HW2  444   1.158   0.041   0.183 -0.1577  0.6115 -3.3958
  149SOL     OW  445   1.331   0.773   2.386  0.1655  0.2746  0.2463
  149SOL    HW1  446   1.341   0.791   2.489 -1.7178  0.8715  0.8543
  149SOL    HW2  447   1.277   0.846   2.333 -1.7256 -0.1768 -1.8971
  150SOL     OW  448   1.636   2.986   2.885 -0.4087  0.3822  0.3925
  150SOL    HW1  449   1.632   3.032   2.977 -1.0087 -1.7000 -0.2360
  150SOL    HW2  450   1.733   2.955   2.872  2.3968 -0.8832  1.1727
  151SOL     OW  451   0.585   1.510   0.072 -0.1287 -0.4479 -0.0686
  151SOL    HW1  452   0.678   1.489   0.107  0.8072 -0.7273 -0.5453
  151SOL    HW2  453   0.526   1.545   0.146  0.4680  3.2291 -1.3445
  152SOL     OW  454   0.782   0.461   1.262  0.0884  0.5526  0.5386
  152SOL    HW1  455   0.731   0.549   1.251  0.5460  0.3558 -0.0265
  152SOL    HW2  456   0.858   0.463   1.328 -1.2865 -0.5031 -1.3513
  153SOL     OW  457   2.568   2.944   1.810 -0.3706 -0.0762 -0.1309
  153SOL    HW1  458   2.546   3.037   1.836  1.8230 -2.0123  1.0563
  153SOL    HW2  459   2.563   2.890   1.897  0.6820 -2.6660  0.0356
  154SOL     OW  460   2.201   2.996   1.881  0.1213  0.2207  0.6902
  154SOL    HW1  461   2.142   3.006   1.964  0.5538 -2.2674  1.8146
  154SOL    HW2  462   2.140   2.994   1.796 -0.5177 -0.4448  0.2458
  155SOL     OW  463   0.069   1.226   0.464  0.2955  0.4536 -0.1236
  155SOL    HW1  464   3.054   1.174   0.439 -0.1790 -0.9213  2.5336
  155SOL    HW2  465   0.124   1.174   0.529  1.9367 -0.0850 -1.9876
  156SOL     OW  466   2.266   1.348   0.454 -0.1084  0.4432  0.0094
  156SOL    HW1  467   2.191   1.311   0.512  2.5790  1.5689  0.2864
  156SOL    HW2  468   2.270   1.305   0.367  3.8023  1.2634  2.4785
  157SOL     OW  469   0.773   2.797   2.847 -0.2773  0.2530 -0.1731
  157SOL    HW1  470   0.742   2.717   2.905 -2.8583 -0.4133  1.2561
  157SOL    HW2  471   0.701   2.867   2.852  0.8818  1.5508  0.2885
  158SOL     OW  472   1.991   1.065   1.373  0.4078 -0.1486 -0.2406
  158SOL    HW1  473   1.954   0.987   1.429 -1.6032 -0.0134  2.5308
  158SOL    HW2  474   1.965   1.157   1.407 -0.0327 -0.4174  1.9228
  159SOL     OW  475   0.088   0.059   0.150 -0.4231 -0.2369  0.2678
  159SOL    HW1  476   0.145   3.066   0.095  0.2468  0.5812 -1.2448
  159SOL    HW2  477   0.145   0.101   0.225 -0.4037  1.4400  1.1570
  160SOL     OW  478   2.460   1.977   1.857  0.2538 -0.0839 -0.3291
  160SOL    HW1  479   2.518   1.900   1.818  1.6129 -2.4017 -1.3494
  160SOL    HW2  480   2.473   1.998   1.955 -0.2044 -0.6501 -2.6808
  161SOL     OW  481   0.158   0.545   0.208  0.1786  0.6952  0.5378
  161SOL    HW1  482   0.212   0.605   0.144 -3.5522  0.6454 -1.1372
  161SOL    HW2  483   0.124   0.457   0.159  0.1755 -2.4852 -1.0852
  162SOL     OW  484   0.669   0.621   1.601  0.2167  0.2646  0.1437
  162SOL    HW1  485   0.654   0.632   1.701 -0.4988  2.5706 -2.5760
  162SOL    HW2  486   0.696   0.529   1.568 -1.4489 -1.9123 -0.8761
  163SOL     OW  487   2.559   2.926   2.359 -0.0143 -0.3188  0.2394
  163SOL    HW1  488   2.552   2.832   2.395 -1.0920  0.6032 -0.8604
  163SOL    HW2  489   2.524   2.992   2.430 -2.8320 -0.1458  0.5689
  164SOL     OW  490   2.313   1.633   0.243 -0.5735 -0.4785  0.2205
  164SOL    HW1  491   2.231   1.580   0.216 -3.3538 -0.7782 -1.7820
  164SOL    HW2  492   2.312   1.640   0.341 -3.8746  1.8839 -3.0525
  165SOL     OW  493   0.334   2.918   0.658 -0.3506  0.4002 -0.4353
  165SOL    HW1  494   0.348   3.001   0.596  0.4686  1.4946  1.5223
  165SOL    HW2  495   0.426   2.877   0.678  1.2617  0.4033  1.6824
  166SOL     OW  496   2.901   0.411   2.982 -0.1555  0.0615  0.3834
  166SOL    HW1  497   2.863   0.489   2.928  0.9738  0.1451  0.0578
  166SOL    HW2  498   2.852   0.325   2.962  0.2228 -0.3904 -0.6692
  167SOL     OW  499   2.300   0.593   0.423 -0.4723  0.6418  0.4388
  167SOL    HW1  500   2.394   0.631   0.443  0.3648 -0.5915  2.7866
  167SOL    HW2  501   2.286   0.586   0.322  0.3606  0.5050  1.4708
  168SOL     OW  502   1.627   0.196   2.165  0.4593 -0.2359 -0.0862
  168SOL    HW1  503   1.557   0.214   2.236 -0.3250  1.9305  2.8939
  168SOL    HW2  504   1.693   0.274   2.157  0.0462  0.4312 -2.4809
  169SOL     OW  505   0.493   1.900   0.957  0.2585  0.4568  0.6710
  169SOL    HW1  506   0.538   1.907   1.052  3.1285 -1.1645 -0.0904
  169SOL    HW2  507   0.540   1.960   0.891  0.1308  1.0131 -2.1379
  170SOL     OW  508   0.300   0.042   1.426  0.2866 -0.5398  0.6441
  170SOL    HW1  509   0.317   0.105   1.506 -1.6257  0.0869  0.5256
  170SOL    HW2  510   0.282   3.017   1.462 -0.7467 -0.2750 -1.1316
  171SOL     OW  511   2.289   1.303   2.440 -0.5797  0.1539 -0.5997
  171SOL    HW1  512   2.218   1.304   2.366 -0.4942 -0.1378  1.4917
  171SOL    HW2  513   2.380   1.339   2.400  2.9499  4.2940  0.2976
  172SOL     OW  514   1.053   1.606   1.042  0.2881 -0.2510 -0.0636
  172SOL    HW1  515   0.960   1.568   1.045  4.7993 -2.7596 -0.0552
  172SOL    HW2  516   1.091   1.630   1.134  0.1294  4.9388  2.1612
  173SOL     OW  517   1.939   2.231   0.006  0.2820 -0.1914  0.3370
  173SOL    HW1  518   2.003   2.210   0.088  1.8904 -2.6980  2.9815
  173SOL    HW2  519   1.859   2.165   0.014  0.6181  2.6050  0.1192
  174SOL     OW  520   1.748   0.680   0.267 -0.3621 -0.1047 -0.4305
  174SOL    HW1  521   1.815   0.677   0.191 -0.1781 -1.3531  0.7639
  174SOL    HW2  522   1.663   0.730   0.239  0.1411 -0.2156  0.6102
  175SOL     OW  523   0.577   1.763   1.686  0.2090  0.1933  0.2782
  175SOL    HW1  524   0.520   1.683   1.655 -0.5478 -2.2579  0.7906
  175SOL    HW2  525   0.539   1.853   1.670  0.1150  1.2185  0.7831
  176SOL     OW  526   0.764   0.233   0.441 -0.1313 -0.7566  0.5748
  176SOL    HW1  527   0.843   0.253   0.380 -1.9978  1.7380  0.7096
  176SOL    HW2  528   0.803   0.235   0.538  2.5044  2.7469  0.7054
  177SOL     OW  529   0.179   1.415   0.025  0.1816 -0.3636 -0.0573
  177SOL    HW1  530   0.131   1.344   3.040  0.8443 -1.6983  0.0587
  177SOL    HW2  531   0.207   1.373   0.112  1.2302 -0.5568 -1.5866
  178SOL     OW  532   2.893   2.318   1.946 -0.3555  0.1459  0.3616
  178SOL    HW1  533   2.834   2.363   1.878 -0.3826  0.1300 -1.6420
  178SOL    HW2  534   2.934   2.393   2.000 -2.4259  2.5357  1.7667
  179SOL     OW  535   2.207   0.030   2.893 -0.8216  0.2876 -0.0274
  179SOL    HW1  536   2.288   0.092   2.879  0.8713 -0.0460  2.3838
  179SOL    HW2  537   2.117   0.077   2.890  0.0465 -0.1345 -0.2597
  180SOL     OW  538   2.403   0.457   0.877 -0.1790  0.1066 -0.3435
  180SOL    HW1  539   2.315   0.406   0.882  0.2349  1.2775 -0.5228
  180SOL    HW2  540   2.407   0.532   0.942  0.9228  1.4904 -1.5335
  181SOL     OW  541   2.787   0.038   2.371  0.0397  0.3537 -0.4408
  181SOL    HW1  542   2.844   0.101   2.309  0.0101  2.5273  1.4353
  181SOL    HW2  543   2.700   3.062   2.328 -1.6274 -1.7027 -0.4729
  182SOL     OW  544   2.467   2.341   2.343 -0.5463 -0.1330 -0.3216
  182SOL    HW1  545   2.550   2.402   2.325 -0.0726  4.1269 -1.7449
  182SOL    HW2  546   2.411   2.347   2.256  0.5063  2.8082 -3.5732
  183SOL     OW  547   2.611   1.057   1.447 -0.1281 -0.1045  0.5318
  183SOL    HW1  548   2.683   1.116   1.490 -0.2019  1.6864  2.0547
  183SOL    HW2  549   2.514   1.070   1.471 -1.2405 -2.0630  0.0923
  184SOL     OW  550   2.917   1.578   0.944  1.3045  0.3483 -0.0186
  184SOL    HW1  551   2.997   1.634   0.972  2.2338  2.0500 -0.1913
  184SOL    HW2  552   2.904   1.588   0.845 -1.3618  0.8943 -0.4241
  185SOL     OW  553   0.300   3.030   0.926 -0.3388 -0.0913 -0.2055
  185SOL    HW1  554   0.313   2.970   0.849  1.1097 -0.1387 -0.1304
  185SOL    HW2  555   0.386   3.027   0.983 -2.0040  0.2246 -0.5448
  186SOL     OW  556   2.197   2.602   2.120 -0.5618 -0.3030  0.1221
  186SOL    HW1  557   2.171   2.644   2.210 -2.1588 -1.1332 -1.0513
  186SOL    HW2  558   2.231   2.505   2.136 -0.8205 -2.3155  1.7568
  187SOL     OW  559   0.415   1.300   0.592 -0.5569 -0.1367  0.0489
  187SOL    HW1  560   0.389   1.382   0.541 -1.5635 -0.1759 -0.0582
  187SOL    HW2  561   0.330   1.243   0.608 -1.3468  1.2011  1.9203
  188SOL     OW  562   1.503   1.778   0.047  0.4303 -0.9108 -1.1272
  188SOL    HW1  563   1.501   1.874   0.007 -0.9578  0.1379  2.7178
  188SOL    HW2  564   1.443   1.774   0.134 -0.8308  2.0820  3.4416
  189SOL     OW  565   0.089   1.539   2.860  0.4980  0.5981 -0.4362
  189SOL    HW1  566   0.059   1.454   2.903  1.1800  3.2419 -0.6016
  189SOL    HW2  567   0.010   1.595   2.826 -2.0514  1.7554 -2.5838
  190SOL     OW  568   2.236   0.646   2.518  0.3303 -0.0271 -0.0214
  190SOL    HW1  569   2.144   0.694   2.527  1.6933 -0.6959  0.4855
  190SOL    HW2  570   2.310   0.718   2.537  1.7482  1.0466  1.0728
  191SOL     OW  571   0.729   0.985   2.050  0.0965  0.2773 -0.5176
  191SOL    HW1  572   0.730   0.960   1.951 -1.5886 -0.0879  0.3608
  191SOL    HW2  573   0.631   1.000   2.081 -0.6781 -1.9609  2.9433
  192SOL     OW  574   1.616   1.195   2.017 -0.1230  0.4691  0.0976
  192SOL    HW1  575   1.516   1.199   2.028  1.7765 -3.4904  1.5592
  192SOL    HW2  576   1.644   1.106   1.977  0.3792 -0.6593 -1.5767
  193SOL     OW  577   1.326   2.678   1.132 -0.0110  0.2114  0.0971
  193SOL    HW1  578   1.340   2.610   1.054  0.1065 -1.4206 -1.3467
  193SOL    HW2  579   1.240   2.725   1.122 -0.3574 -0.5951 -1.5571
  194SOL     OW  580   1.279   1.443   1.906 -0.0229  0.4336  0.3920
  194SOL    HW1  581   1.356   1.484   1.954  2.0533  3.3160 -2.1018
  194SOL    HW2  582   1.205   1.515   1.894 -4.5181  2.8016 -1.6168
  195SOL     OW  583   1.877   0.209   0.709  0.4831  0.5446  0.1389
  195SOL    HW1  584   1.929   0.296   0.698 -0.8705 -0.3684  0.5947
  195SOL    HW2  585   1.942   0.139   0.739 -0.9062  0.8684  3.4670
  196SOL     OW  586   0.738   1.281   2.117  0.1348  0.2687 -0.6520
  196SOL    HW1  587   0.669   1.343   2.075 -0.3593  1.7923 -2.3078
  196SOL    HW2  588   0.692   1.204   2.164 -0.6286 -3.3806  0.1998
  197SOL     OW  589   0.388   0.285   2.264 -0.2240  0.4885  0.4096
  197SOL    HW1  590   0.419   0.304   2.359  2.1158  1.1091  1.5079
  197SOL    HW2  591   0.300   0.229   2.263 -0.8213 -4.4169  2.7955
  198SOL     OW  592   2.851   1.160   1.124 -0.4380  0.0084  0.2958
  198SOL    HW1  593   2.761   1.173   1.154  5.8572  0.9572 -1.1736
  198SOL    HW2  594   2.867   1.066   1.083  3.3096  1.8060  1.2453
  199SOL     OW  595   0.354   2.081   1.296 -0.2710  0.4922  0.1824
  199SOL    HW1  596   0.295   2.011   1.253  0.1806 -0.1073 -0.9231
  199SOL    HW2  597   0.364   2.168   1.240  0.6523  0.2350 -3.2495
  200SOL     OW  598   2.565   2.112   2.785  0.1735 -0.0638 -0.2029
  200SOL    HW1  599   2.657   2.108   2.828 -1.3232  0.2798 -0.4708
  200SOL    HW2  600   2.498   2.111   2.864 -0.8979  0.7698  0.1349
  201SOL     OW  601   0.767   2.272   1.322  0.2340  0.1707 -0.0430
  201SOL    HW1  602   0.863   2.242   1.338 -2.9380  2.8431  0.9826
  201SOL    HW2  603   0.769   2.329   1.236  0.0596 -1.1259 -1.8805
  202SOL     OW  604   0.762   2.141   0.087  0.1257  0.6892 -0.5278
  202SOL    HW1  605   0.827   2.191   0.144 -2.6293 -0.7191 -0.5245
  202SOL    HW2  606   0.812   2.121   3.071  0.2918  0.4439  0.5467
  203SOL     OW  607   2.016   0.122   2.380  0.7614  0.1495  0.3716
  203SOL    HW1  608   2.000   0.145   2.283  0.6731 -1.0832  0.1383
  203SOL    HW2  609   1.960   0.042   2.405  1.8880  0.4799 -1.1505
  204SOL     OW  610   0.246   1.345   1.699  0.3448  0.0571 -0.1767
  204SOL    HW1  611   0.183   1.412   1.747 -1.6163 -0.4486 -1.5843
  204SOL    HW2  612   0.235   1.253   1.748 -2.3384 -1.9024  0.5863
  205SOL     OW  613   2.102   1.406   2.625  0.5013  0.6150 -0.2739
  205SOL    HW1  614   2.187   1.367   2.580  3.1820  0.2125 -1.2624
  205SOL    HW2  615   2.053   1.462   2.557 -1.9132 -1.8319  2.7171
  206SOL     OW  616   0.127   2.096   2.614  0.4874  0.5415  0.2954
  206SOL    HW1  617   0.059   2.127   2.548 -1.4062 -0.1420  2.6682
  206SOL    HW2  618   0.149   1.997   2.600 -1.9339  3.5144 -1.3195
  207SOL     OW  619   0.494   2.882   1.681 -0.3294 -0.2639 -0.5823
  207SOL    HW1  620   0.416   2.929   1.725  0.4909 -1.0450 -3.5142
  207SOL    HW2  621   0.461   2.818   1.607 -1.5815 -0.6563  2.7311
  208SOL     OW  622   0.327   2.455   1.378  0.1068 -0.5868 -0.1113
  208SOL    HW1  623   0.326   2.407   1.287  0.9210  2.1567  0.0439
  208SOL    HW2  624   0.273   2.416   1.454 -1.4673 -1.1848 -1.1762
  209SOL     OW  625   1.127   2.611   2.429 -0.3076  0.2363 -0.5983
  209SOL    HW1  626   1.164   2.523   2.386  2.5012 -4.0953  0.6980
  209SOL    HW2  627   1.157   2.626   2.528  0.8044 -0.5088  2.2756
  210SOL     OW  628   2.722   1.103   2.074 -0.0370 -0.1358  0.1234
  210SOL    HW1  629   2.730   1.154   2.163 -2.1477 -0.1256  0.8205
  210SOL    HW2  630   2.712   1.004   2.099 -0.1548 -4.8324  0.9129
  211SOL     OW  631   1.321   2.788   2.015  0.0579 -0.3688 -0.0238
  211SOL    HW1  632   1.406   2.808   1.961  0.8987  0.4432 -0.3123
  211SOL    HW2  633   1.310   2.872   2.070  1.5960 -0.3699 -0.3767
  212SOL     OW  634   1.505   2.490   1.812  0.4462 -0.1013 -0.9000
  212SOL    HW1  635   1.411   2.531   1.824 -0.5397  0.1285 -1.2850
  212SOL    HW2  636   1.574   2.559   1.783  1.4096  0.5175 -0.4365
  213SOL     OW  637   2.520   0.634   1.590  0.2455  0.0719 -0.2108
  213SOL    HW1  638   2.503   0.573   1.505 -1.4456 -0.5955  0.5087
  213SOL    HW2  639   2.569   0.720   1.560  1.7162  0.0051  0.3671
  214SOL     OW  640   0.713   2.390   1.094  0.1037 -0.2855 -0.4726
  214SOL    HW1  641   0.787   2.387   1.028 -1.6586 -0.1546 -0.5886
  214SOL    HW2  642   0.673   2.484   1.095 -0.2924 -1.0247 -2.1162
  215SOL     OW  643   2.436   1.885   0.696  0.3784  0.3252  0.0373
  215SOL    HW1  644   2.528   1.889   0.744 -0.0307 -0.6096  2.7747
  215SOL    HW2  645   2.435   1.955   0.620  0.0879  2.3263  0.4409
  216SOL     OW  646   0.230   0.754   1.638 -0.2525  0.2461 -0.6881
  216SOL    HW1  647   0.173   0.789   1.564 -0.8195 -1.1067 -1.1268
  216SOL    HW2  648   0.190   0.667   1.676  2.6621 -1.0949  1.2122
  217SOL     OW  649   2.285   0.348   1.176  0.2916 -0.0554  0.0930
  217SOL    HW1  650   2.292   0.247   1.172 -0.5280 -1.2603 -0.0941
  217SOL    HW2  651   2.233   0.386   1.097  0.1099  0.3139  1.8215
  218SOL     OW  652   1.678   2.061   1.241 -0.1984  0.1558  0.5700
  218SOL    HW1  653   1.771   2.097   1.215  0.0748  1.0427  0.3234
  218SOL    HW2  654   1.616   2.144   1.257  0.8819  1.3430 -1.0834
  219SOL     OW  655   1.459   2.284   3.027 -0.0834 -0.0087 -0.5737
  219SOL    HW1  656   1.532   2.325   2.968  1.5773 -1.9718 -1.1932
  219SOL    HW2  657   1.457   2.329   0.049  1.3016  0.7445  2.3536
  220SOL     OW  658   1.621   2.402   2.851  0.1745 -0.2201 -0.0428
  220SOL    HW1  659   1.583   2.500   2.853  0.3908 -0.9946  2.0463
  220SOL    HW2  660   1.723   2.401   2.879  0.9369 -2.1861  1.0762
  221SOL     OW  661   0.266   2.446   1.730  0.0879 -0.4569  0.0680
  221SOL    HW1  662   0.251   2.523   1.791 -1.2092 -2.4930 -2.0561
  221SOL    HW2  663   0.215   2.362   1.758 -1.0114  1.2985  0.5895
  222SOL     OW  664   1.905   2.167   1.164  0.0409 -0.0438  0.5856
  222SOL    HW1  665   1.982   2.197   1.225 -1.4309  1.3932 -0.2776
  222SOL    HW2  666   1.903   2.226   1.082 -0.5329  0.0825  2.0347
  223SOL     OW  667   0.936   2.589   1.826  0.3714 -0.2277 -0.2524
  223SOL    HW1  668   0.841   2.575   1.796  0.7035 -0.9879  0.0716
  223SOL    HW2  669   0.948   2.612   1.922 -0.1833  1.7540 -0.8390
  224SOL     OW  670   2.796   2.249   1.393  0.4221 -0.0659 -0.8010
  224SOL    HW1  671   2.857   2.301   1.455 -0.3193  0.7512  2.0247
  224SOL    HW2  672   2.704   2.276   1.418 -0.3651 -1.5471  0.5004
  225SOL     OW  673   2.316   2.323   0.513  0.1469 -0.1663 -0.5199
  225SOL    HW1  674   2.240   2.262   0.547 -0.2296 -0.6702 -0.2629
  225SOL    HW2  675   2.365   2.280   0.434  1.3497 -0.6950  2.9053
  226SOL     OW  676   1.510   2.546   0.546  0.2263  0.0454 -0.1483
  226SOL    HW1  677   1.437   2.483   0.512  0.4918 -1.8061 -1.0930
  226SOL    HW2  678   1.565   2.500   0.623  2.2631 -1.2188  1.3448
  227SOL     OW  679   1.992   1.426   0.884 -0.1995  0.5591 -0.6962
  227SOL    HW1  680   1.925   1.385   0.947  1.5685  0.3904 -2.4180
  227SOL    HW2  681   2.068   1.475   0.934  0.1660  2.3567 -0.8546
  228SOL     OW  682   1.529   0.283   2.650 -0.0964 -0.4235 -0.3046
  228SOL    HW1  683   1.544   0.265   2.750  0.1300  0.1960  2.7186
  228SOL    HW2  684   1.534   0.385   2.631  0.3377 -0.2640  0.2155
  229SOL     OW  685   0.015   1.265   2.896 -0.3161 -0.4348  0.4560
  229SOL    HW1  686   3.071   1.168   2.934 -0.5391 -1.1818 -0.2640
  229SOL    HW2  687   0.060   1.256   2.805  1.2144 -0.2496 -0.1545
  230SOL     OW  688   0.550   1.442   1.072 -0.0557  0.2033 -1.0083
  230SOL    HW1  689   0.465   1.486   1.108 -1.2478 -0.3625  1.5275
  230SOL    HW2  690   0.529   1.382   0.994 -1.2702  0.4902  1.2052
  231SOL     OW  691   2.518   0.037   2.558  0.7335  0.1723  0.6670
  231SOL    HW1  692   2.430   0.092   2.566 -2.4053 -0.6752 -1.3942
  231SOL    HW2  693   2.593   0.096   2.527 -0.9796 -0.5138 -0.9899
  232SOL     OW  694   0.287   2.273   0.078  0.0233 -0.8241 -0.1267
  232SOL    HW1  695   0.361   2.210   0.031  1.5530  0.9359  1.9661
  232SOL    HW2  696   0.194   2.231   0.054 -0.6010 -1.7870 -2.3407
  233SOL     OW  697   1.531   2.204   2.220  1.0147  0.1128 -0.0730
  233SOL    HW1  698   1.478   2.260   2.153 -0.5215 -2.2193  3.1056
  233SOL    HW2  699   1.632   2.205   2.199 -0.3830  1.1260  0.2320
  234SOL     OW  700   1.195   1.551   1.476 -0.2374 -0.2830  0.0702
  234SOL    HW1  701   1.275   1.562   1.540 -1.0437 -1.6455 -0.2607
  234SOL    HW2  702   1.194   1.615   1.394 -1.8125  0.4701 -3.0183
  235SOL     OW  703   0.944   1.881   1.872  0.1759  0.0148 -0.4466
  235SOL    HW1  704   0.929   1.971   1.833 -0.8440 -3.5756  0.7613
  235SOL    HW2  705   0.904   1.803   1.819  1.4673  0.5907 -0.4351
  236SOL     OW  706   1.265   3.005   2.939 -0.0623 -0.6235  0.6183
  236SOL    HW1  707   1.309   0.025   2.920  2.5706 -1.1826  2.1878
  236SOL    HW2  708   1.287   2.941   2.863 -1.9145 -0.8142 -0.8496
  237SOL     OW  709   1.262   0.197   1.300 -0.3680 -0.2428  0.2166
  237SOL    HW1  710   1.220   0.104   1.290  0.4238  0.7052  2.1080
  237SOL    HW2  711   1.364   0.191   1.302 -0.9585  2.2950 -0.8165
  238SOL     OW  712   0.938   0.819   0.019  0.2428 -0.0315  0.1448
  238SOL    HW1  713   1.008   0.850   3.027 -1.0567 -1.3697 -0.0035
  238SOL    HW2  714   0.888   0.737   3.059 -0.7473  2.3993 -0.6168
  239SOL     OW  715   2.701   0.915   2.681 -0.1420  0.6116 -0.4993
  239SOL    HW1  716   2.693   1.015   2.659 -0.4947 -0.0648 -0.9262
  239SOL    HW2  717   2.759   0.894   2.764 -0.8117 -0.3135  0.6360
  240SOL     OW  718   2.477   2.340   0.754 -0.5560  0.2167  0.4431
  240SOL    HW1  719   2.528   2.249   0.761 -1.5379  0.0182 -0.9838
  240SOL    HW2  720   2.414   2.330   0.676  0.8517 -0.4861 -0.6652
  241SOL     OW  721   0.991   1.163   1.127 -0.1809  0.4135  0.3567
  241SOL    HW1  722   0.992   1.252   1.175 -1.7197 -0.4517  0.2863
  241SOL    HW2  723   0.899   1.146   1.083 -0.4512 -0.1108 -1.6034
  242SOL     OW  724   0.621   0.495   0.933 -0.3321  0.0100  0.2932
  242SOL    HW1  725   0.694   0.557   0.907 -1.5124 -0.2483  1.8963
  242SOL    HW2  726   0.650   0.400   0.923  3.3409 -0.7313  0.6555
  243SOL     OW  727   0.285   0.302   1.140  0.8020 -0.0950 -0.2103
  243SOL    HW1  728   0.266   0.342   1.050  4.5540  2.7756 -0.7715
  243SOL    HW2  729   0.379   0.324   1.170 -1.3805 -1.7127  0.6847
  244SOL     OW  730   0.960   0.332   0.272 -0.5967  0.4694 -0.5553
  244SOL    HW1  731   1.032   0.261   0.264 -0.1120 -2.5381  0.1743
  244SOL    HW2  732   0.998   0.426   0.280  2.2298 -0.3142 -0.2471
  245SOL     OW  733   2.111   0.739   0.558  0.3576 -0.0907 -0.2909
  245SOL    HW1  734   2.073   0.803   0.488 -0.2163  1.2637 -0.7268
  245SOL    HW2  735   2.174   0.672   0.521 -0.8575 -0.1439  2.4964
  246SOL     OW  736   0.384   0.461   1.714  0.0065  0.3687 -0.3311
  246SOL    HW1  737   0.284   0.475   1.731 -1.1667  0.0737  0.6768
  246SOL    HW2  738   0.438   0.542   1.685  1.6731 -1.0042  0.4242
  247SOL     OW  739   0.781   0.272   1.872  0.1389  0.4064  0.3437
  247SOL    HW1  740   0.723   0.191   1.903 -2.2700 -1.3300  0.2374
  247SOL    HW2  741   0.844   0.242   1.792  1.9387  0.5894 -1.7793
  248SOL     OW  742   0.527   1.522   2.317  0.3526  0.2180 -0.7699
  248SOL    HW1  743   0.626   1.538   2.345  3.2680  0.1767 -1.3909
  248SOL    HW2  744   0.501   1.544   2.220  1.9021  0.1724  1.3319
  249SOL     OW  745   0.621   2.851   0.058  0.0458 -0.2243  0.0338
  249SOL    HW1  746   0.553   2.858   3.052 -1.3389  2.2310 -1.0955
  249SOL    HW2  747   0.593   2.775   0.124 -0.2815  0.8796  3.0023
  250SOL     OW  748   0.729   0.137   2.255  0.0363 -0.1097  0.0069
  250SOL    HW1  749   0.690   0.104   2.345 -2.7276 -1.1126  2.3861
  250SOL    HW2  750   0.677   0.102   2.172 -0.7444 -0.0188 -2.0424
  251SOL     OW  751   2.766   1.965   1.443  0.1660  0.6320  0.2812
  251SOL    HW1  752   2.723   1.911   1.370  4.2692 -0.3225 -2.3832
  251SOL    HW2  753   2.774   2.062   1.411  1.7031  0.1583 -3.3708
  252SOL     OW  754   1.960   0.154   1.690 -0.2179  0.2806 -0.5598
  252SOL    HW1  755   1.910   0.206   1.767  0.6681 -2.5805  0.7436
  252SOL    HW2  756   1.930   0.057   1.700 -0.5249 -0.4876 -0.8328
  253SOL     OW  757   2.110   1.806   2.554 -0.1083  0.2205  0.1549
  253SOL    HW1  758   2.068   1.717   2.572  0.9190 -1.0597 -0.0309
  253SOL    HW2  759   2.208   1.814   2.575 -1.4351 -0.9458 -0.6434
  254SOL     OW  760   0.631   1.371   1.509  0.0717  0.7283  0.2253
  254SOL    HW1  761   0.655   1.295   1.445  0.7386  2.2507 -2.9686
  254SOL    HW2  762   0.623   1.453   1.453  0.8506 -0.6922  1.6045
  255SOL     OW  763   0.631   0.074   1.667 -0.3338  0.1824  0.0507
  255SOL    HW1  764   0.733   0.080   1.666  2.9461  3.3618  1.8518
  255SOL    HW2  765   0.601   3.053   1.677 -0.4019  1.0067 -2.3089
  256SOL     OW  766   0.143   2.624   0.585 -0.0350  0.4881  0.1494
  256SOL    HW1  767   0.095   2.535   0.595 -0.7819 -0.8423  0.1427
  256SOL    HW2  768   0.199   2.639   0.665 -1.6516  0.7699 -1.7678
  257SOL     OW  769   0.551   2.532   2.210  0.7211 -0.3064 -0.0640
  257SOL    HW1  770   0.645   2.495   2.192  0.9161  1.3050 -1.8504
  257SOL    HW2  771   0.541   2.561   2.305 -0.4816  1.4796  0.0934
  258SOL     OW  772   1.265   1.777   2.027 -0.1486  0.0210 -0.4052
  258SOL    HW1  773   1.339   1.793   1.961 -3.2874  0.3693  0.8154
  258SOL    HW2  774   1.191   1.719   1.984  0.5257  2.4342  0.7553
  259SOL     OW  775   1.027   1.080   2.063  0.4427  0.2013  0.0034
  259SOL    HW1  776   0.926   1.066   2.058  0.0122 -0.1106 -0.0639
  259SOL    HW2  777   1.047   1.181   2.062  0.4006  1.3313 -0.4596
  260SOL     OW  778   2.290   0.665   2.242 -0.0852  0.1564  0.1091
  260SOL    HW1  779   2.261   0.632   2.334  0.5044  0.8167 -1.5303
  260SOL    HW2  780   2.260   0.760   2.217  1.8119 -0.9686  0.4287
  261SOL     OW  781   0.725   1.310   0.797  0.5273  0.1563 -0.5320
  261SOL    HW1  782   0.622   1.324   0.800 -0.3999  0.0342 -3.9138
  261SOL    HW2  783   0.758   1.257   0.713 -1.1514 -1.3467 -2.1839
  262SOL     OW  784   2.114   2.073   2.597  0.5433  0.5654 -0.4794
  262SOL    HW1  785   2.112   1.974   2.575  0.8071  0.4432 -0.6927
  262SOL    HW2  786   2.126   2.082   2.700  1.1860 -1.9539  2.6429
  263SOL     OW  787   1.054   2.592   1.022  0.3994 -0.2186  0.1378
  263SOL    HW1  788   1.097   2.674   0.977  1.8656 -1.2220 -1.8307
  263SOL    HW2  789   0.989   2.625   1.095 -2.4000 -1.5343 -0.7944
  264SOL     OW  790   0.220   2.112   0.299 -0.0211  0.4360  0.3806
  264SOL    HW1  791   0.184   2.178   0.367  2.4838  1.3592 -1.0377
  264SOL    HW2  792   0.245   2.160   0.213  1.1914  1.7242  0.0073
  265SOL     OW  793   1.438   1.108   2.452  0.0108  0.7359  0.3081
  265SOL    HW1  794   1.427   1.116   2.352  0.3046 -0.3167 -0.4957
  265SOL    HW2  795   1.346   1.109   2.494 -2.3062  1.8581 -0.7812
  266SOL     OW  796   1.099   2.045   2.086 -0.2549  0.8804  0.2654
  266SOL    HW1  797   1.175   2.040   2.158  3.0193  0.9949  2.1524
  266SOL    HW2  798   1.096   1.962   2.029  1.2831  0.5272 -1.8973
  267SOL     OW  799   2.270   1.046   2.480  0.4210  0.3668 -0.3406
  267SOL    HW1  800   2.350   0.999   2.441  0.1250 -2.6106 -0.1934
  267SOL    HW2  801   2.273   1.150   2.479 -1.4342  1.8728 -2.3414
  268SOL     OW  802   1.005   1.202   2.893 -0.4101 -0.5198  0.1535
  268SOL    HW1  803   0.933   1.188   2.965 -1.2130  0.7646 -2.4090
  268SOL    HW2  804   0.965   1.237   2.807 -1.7917  1.6128  0.4611
  269SOL     OW  805   2.889   1.541   2.284  0.0396 -0.1678 -0.2630
  269SOL    HW1  806   2.854   1.636   2.254 -2.3695  1.3676  0.0302
  269SOL    HW2  807   2.939   1.546   2.371  0.4690  2.0794  0.1573
  270SOL     OW  808   0.472   2.150   3.019 -0.7606 -0.1242  0.5811
  270SOL    HW1  809   0.435   2.158   2.922 -0.0614  0.0073 -1.2014
  270SOL    HW2  810   0.563   2.113   3.027 -1.5374  2.7588  1.1176
  271SOL     OW  811   0.318   0.385   0.360 -0.4132 -0.3942 -0.4963
  271SOL    HW1  812   0.250   0.312   0.380 -0.7628  0.2552  0.0163
  271SOL    HW2  813   0.285   0.461   0.302  0.7041  1.4518 -0.9293
  272SOL     OW  814   2.935   3.021   0.274 -0.3212  0.6417  0.5324
  272SOL    HW1  815   3.012   3.071   0.226  0.6219  1.3200  0.0013
  272SOL    HW2  816   2.931   3.038   0.376 -0.9205 -0.9593  1.8308
  273SOL     OW  817   0.254   2.956   1.804 -0.3027  0.1213  0.3180
  273SOL    HW1  818   0.235   2.972   1.902 -0.2360 -1.1696 -1.2391
  273SOL    HW2  819   0.188   3.004   1.745 -1.5324  0.6300  0.9598
  274SOL     OW  820   0.102   0.698   1.199 -0.1500  0.0284 -0.4351
  274SOL    HW1  821   0.027   0.699   1.132  0.8062 -0.1566  0.6507
  274SOL    HW2  822   0.118   0.600   1.236  1.4739 -1.2845  1.9301
  275SOL     OW  823   0.793   1.492   0.995  0.2917 -0.2728 -0.6876
  275SOL    HW1  824   0.801   1.444   0.903 -1.2863 -1.5195 -1.6616
  275SOL    HW2  825   0.693   1.496   1.019 -1.7167  0.8120 -2.5238
  276SOL     OW  826   0.408   1.105   1.891  0.0427  0.1010 -0.4158
  276SOL    HW1  827   0.429   1.091   1.992  1.1917 -0.1957 -0.5481
  276SOL    HW2  828   0.470   1.177   1.846  0.6600 -0.4699  0.3961
  277SOL     OW  829   1.206   1.864   1.678 -0.4072  0.3641 -0.9400
  277SOL    HW1  830   1.250   1.913   1.756  1.6886 -0.6437  0.9493
  277SOL    HW2  831   1.107   1.890   1.683 -1.0985  0.9646  0.5136
  278SOL     OW  832   2.338   2.753   1.955 -0.0871  0.3064  0.3638
  278SOL    HW1  833   2.284   2.838   1.951 -0.0556  0.1315 -0.1453
  278SOL    HW2  834   2.284   2.687   2.012  1.6850  1.9829  0.0996
  279SOL     OW  835   1.269   1.677   2.813 -0.6596 -0.5261  0.1456
  279SOL    HW1  836   1.310   1.593   2.844 -1.7682  1.1684 -1.0282
  279SOL    HW2  837   1.238   1.728   2.897 -1.8854  0.3514  0.9507
  280SOL     OW  838   1.429   0.392   0.342 -0.5471  0.6173 -0.0803
  280SOL    HW1  839   1.526   0.408   0.356  2.0698  0.5337  1.0838
  280SOL    HW2  840   1.375   0.478   0.329  0.1501  1.5333  1.8195
  281SOL     OW  841   0.662   0.681   1.324 -0.2302 -0.1725 -0.5641
  281SOL    HW1  842   0.603   0.754   1.290 -1.1555 -1.5070 -1.3921
  281SOL    HW2  843   0.653   0.670   1.427 -1.8327  1.2989  2.8796
  282SOL     OW  844   3.053   2.832   0.507 -0.1989 -0.0122 -0.0256
  282SOL    HW1  845   0.052   2.759   0.522  1.9526 -0.7576 -0.0983
  282SOL    HW2  846   3.067   2.870   0.411  0.6398  0.8595 -2.7572
  283SOL     OW  847   1.381   1.871   1.463  0.2427 -0.3044 -0.1508
  283SOL    HW1  848   1.343   1.805   1.398 -1.1328  0.8631  1.3891
  283SOL    HW2  849   1.303   1.890   1.532 -2.8545  2.0871  1.1286
  284SOL     OW  850   2.723   2.632   1.340 -0.3168  0.0135 -0.7897
  284SOL    HW1  851   2.823   2.648   1.340  2.4766 -0.1761  2.7218
  284SOL    HW2  852   2.691   2.563   1.269 -1.5695 -1.3629 -0.2068
  285SOL     OW  853   0.506   2.374   0.807  0.4697 -0.0340  0.2546
  285SOL    HW1  854   0.608   2.380   0.799  0.4100  1.2871  1.6322
  285SOL    HW2  855   0.464   2.315   0.737 -0.8334  1.0893 -0.9385
  286SOL     OW  856   0.436   2.809   1.194  0.1625  0.0013  0.6154
  286SOL    HW1  857   0.481   2.868   1.125  2.5329 -1.9161  2.2567
  286SOL    HW2  858   0.337   2.799   1.178  0.9060  1.2075  1.1415
  287SOL     OW  859   0.461   1.296   0.862  0.6302 -0.0668 -0.1237
  287SOL    HW1  860   0.439   1.292   0.762  1.8941  1.0430  0.2850
  287SOL    HW2  861   0.419   1.217   0.911  2.0193 -1.4175  0.0400
  288SOL     OW  862   1.237   1.843   2.589 -0.5646 -0.4268  0.4438
  288SOL    HW1  863   1.255   1.793   2.673  0.5849  1.8779  0.1357
  288SOL    HW2  864   1.291   1.807   2.510  0.6907 -0.0722  0.3726
  289SOL     OW  865   2.438   1.484   0.064 -0.0631 -0.8558  0.3500
  289SOL    HW1  866   2.384   1.539   0.126  1.1966  0.8044 -0.2124
  289SOL    HW2  867   2.532   1.471   0.110  0.3186 -0.2689 -0.2043
  290SOL     OW  868   1.202   1.290   0.985  0.2232  0.1079  0.5839
  290SOL    HW1  869   1.237   1.341   1.067 -1.7993  2.1780 -0.5407
  290SOL    HW2  870   1.104   1.256   1.000 -0.2673 -0.7726 -1.6067
  291SOL     OW  871   1.122   0.953   2.932  0.0631  1.3249  0.0400
  291SOL    HW1  872   1.220   0.982   2.956  1.7896 -1.4684  0.3577
  291SOL    HW2  873   1.065   1.037   2.916  1.3664  0.9498  1.1069
  292SOL     OW  874   1.350   1.773   0.300  0.1664 -0.3450 -0.1115
  292SOL    HW1  875   1.399   1.838   0.356 -2.9616 -0.9957  3.3953
  292SOL    HW2  876   1.370   1.679   0.334  0.2676  0.1742 -2.1945
  293SOL     OW  877   1.524   2.861   1.059  0.5967 -0.4521  0.4595
  293SOL    HW1  878   1.483   2.953   1.048 -0.5052 -0.6528 -2.0552
  293SOL    HW2  879   1.457   2.795   1.102 -1.0638  0.9333  0.2801
  294SOL     OW  880   1.999   0.899   0.348  0.0039  0.5130 -0.3084
  294SOL    HW1  881   1.906   0.925   0.313  0.8904 -0.4626 -1.1235
  294SOL    HW2  882   2.063   0.881   0.270  0.6580  1.0572  2.3080
  295SOL     OW  883   1.777   1.705   0.020  0.0886 -0.3018 -0.0955
  295SOL    HW1  884   1.677   1.692   0.046 -3.8575 -1.1725 -2.4244
  295SOL    HW2  885   1.798   1.761   3.007  1.3593  0.5153  1.1507
  296SOL     OW  886   1.583   1.137   1.425  0.3008 -0.1571 -0.5002
  296SOL    HW1  887   1.608   1.102   1.331 -0.7831 -0.5455  2.2038
  296SOL    HW2  888   1.492   1.096   1.452  0.8314 -2.6195 -1.1901
  297SOL     OW  889   0.145   1.004   2.283 -0.7861 -0.3257 -0.5376
  297SOL    HW1  890   0.156   0.926   2.213 -0.5352 -0.5387 -3.4891
  297SOL    HW2  891   0.053   1.002   2.323  0.1458  1.3661  2.7451
  298SOL     OW  892   1.453   2.179   1.445  0.3543 -0.2647  0.1690
  298SOL    HW1  893   1.432   2.078   1.422  2.0778 -0.8836  2.3278
  298SOL    HW2  894   1.448   2.196   1.545 -1.1351 -1.3182  1.3156
  299SOL     OW  895   1.183   0.338   2.392 -0.4944 -0.0406 -0.0836
  299SOL    HW1  896   1.273   0.290   2.378  0.1326 -3.6268 -0.6362
  299SOL    HW2  897   1.105   0.278   2.369 -2.0339  1.9677  2.1762
  300SOL     OW  898   2.267   1.908   0.443 -0.0531 -0.2110 -0.5026
  300SOL    HW1  899   2.332   1.902   0.370  1.3901  1.8499 -1.1874
  300SOL    HW2  900   2.238   1.816   0.481  1.2320 -4.7770 -0.3776
  301SOL     OW  901   2.227   0.412   2.648 -0.7327 -0.1369 -0.7682
  301SOL    HW1  902   2.240   0.491   2.586  1.5436 -1.8658 -0.7679
  301SOL    HW2  903   2.244   0.442   2.746  0.6032  1.3794  1.5719
  302SOL     OW  904   2.557   2.109   2.514  0.4129  0.4804  0.4205
  302SOL    HW1  905   2.560   2.087   2.613  1.2229 -2.2022 -0.6324
  302SOL    HW2  906   2.521   2.202   2.502  3.0477 -2.1212  0.0373
  303SOL     OW  907   0.275   2.748   2.335 -0.7982  0.1779  0.3678
  303SOL    HW1  908   0.352   2.729   2.405  1.2891 -3.6134  1.0834
  303SOL    HW2  909   0.210   2.815   2.374 -0.7104 -1.5585 -0.2713
  304SOL     OW  910   2.960   1.526   1.296 -0.3070 -0.1360 -0.1516
  304SOL    HW1  911   2.991   1.436   1.257 -0.3281 -0.5429 -0.0612
  304SOL    HW2  912   3.007   1.606   1.250  1.0781 -0.2560 -1.1965
  305SOL     OW  913   0.153   0.441   2.005  0.0612  0.4358 -0.7726
  305SOL    HW1  914   0.242   0.439   2.057 -0.8213 -0.9941  2.5678
  305SOL    HW2  915   0.117   0.346   1.997  0.4964  0.7897  1.0224
  306SOL     OW  916   1.213   1.353   0.640  0.1671 -0.2916  0.0500
  306SOL    HW1  917   1.284   1.394   0.701  1.2931  0.2020 -3.8343
  306SOL    HW2  918   1.254   1.320   0.557 -0.2519 -2.0370 -0.3349
  307SOL     OW  919   0.086   2.878   0.741 -0.4162 -0.4982 -0.3881
  307SOL    HW1  920   0.188   2.864   0.712  3.3945  3.5167 -0.2833
  307SOL    HW2  921   0.020   2.862   0.665  0.5868 -1.0834 -0.2985
  308SOL     OW  922   2.962   1.143   2.417  0.4741 -0.1463 -0.1850
  308SOL    HW1  923   3.007   1.156   2.502 -0.7027  0.4917 -3.9462
  308SOL    HW2  924   2.998   1.204   2.341  1.4242  1.6520 -3.0022
  309SOL     OW  925   2.760   1.821   2.759 -0.1543 -0.2987 -0.0335
  309SOL    HW1  926   2.742   1.741   2.817  0.6209  1.9637  0.5362
  309SOL    HW2  927   2.715   1.900   2.807 -1.9129  1.3803  2.3230
  310SOL     OW  928   2.212   0.592   0.145  0.3431 -0.2766 -0.1175
  310SOL    HW1  929   2.189   0.691   0.156  0.4805  1.1844 -0.8525
  310SOL    HW2  930   2.136   0.530   0.180 -1.0693 -0.2451 -0.6818
  311SOL     OW  931   1.910   0.698   0.059  0.0440 -0.6153  0.2016
  311SOL    HW1  932   1.903   0.800   0.058 -1.2332  1.0159 -1.3283
  311SOL    HW2  933   1.963   0.669   3.046  1.1744 -0.5882 -2.4644
  312SOL     OW  934   1.102   1.613   2.298  0.5581  0.1642 -0.1540
  312SOL    HW1  935   1.177   1.674   2.280 -0.0236 -0.9089 -0.5108
  312SOL    HW2  936   1.143   1.525   2.327  0.5416 -0.5408 -1.5234
  313SOL     OW  937   3.026   0.654   0.323  0.2220 -0.4759 -0.1548
  313SOL    HW1  938   0.037   0.606   0.276  0.2515 -1.6041  0.8513
  313SOL    HW2  939   2.940   0.648   0.269 -1.2891 -0.0534  1.2933
  314SOL     OW  940   0.378   1.796   1.435  0.1326 -0.1596 -0.5024
  314SOL    HW1  941   0.365   1.842   1.525  1.3634  1.3432  4.3478
  314SOL    HW2  942   0.399   1.695   1.448  0.9082 -1.0565  3.0914
  315SOL     OW  943   0.824   1.668   1.710 -0.2463  0.1985 -0.3367
  315SOL    HW1  944   0.814   1.577   1.753 -0.9524  0.4572  0.3449
  315SOL    HW2  945   0.732   1.710   1.697  0.1370  1.2227  1.9906
  316SOL     OW  946   0.405   2.228   0.577  0.6771 -0.0781 -0.3084
  316SOL    HW1  947   0.303   2.241   0.559 -0.8697  1.2385  1.0899
  316SOL    HW2  948   0.437   2.152   0.522 -0.1312  2.3719 -0.1810
  317SOL     OW  949   2.397   0.088   1.206  0.3124  1.0063 -0.1935
  317SOL    HW1  950   2.414   0.096   1.306  0.0880  1.1523 -1.7099
  317SOL    HW2  951   2.480   0.111   1.152 -1.1215  0.9394 -2.1581
  318SOL     OW  952   1.448   2.980   0.267 -0.8360  0.3608  0.3213
  318SOL    HW1  953   1.353   2.976   0.234  0.2647 -0.9097  1.1330
  318SOL    HW2  954   1.500   2.899   0.228  3.0416 -3.4973 -0.8863
  319SOL     OW  955   1.604   0.553   2.654  0.1949  0.0804  1.0346
  319SOL    HW1  956   1.691   0.572   2.700 -0.8385 -3.9708 -3.7231
  319SOL    HW2  957   1.611   0.590   2.562  2.4236 -1.9285  1.1062
  320SOL     OW  958   3.018   1.884   2.035  0.2818 -0.1398  0.1556
  320SOL    HW1  959   2.931   1.862   2.091  1.0805  1.2671  0.6265
  320SOL    HW2  960   0.035   1.841   2.065  0.7711  1.3755 -0.3861
  321SOL     OW  961   0.135   2.507   2.913  0.3602  0.1092  0.3340
  321SOL    HW1  962   0.173   2.519   3.009  0.6044  0.4674  1.1992
  321SOL    HW2  963   0.109   2.412   2.883  1.0962 -2.3136 -1.1877
  322SOL     OW  964   2.572   0.626   2.298 -0.1874  0.1962  0.4993
  322SOL    HW1  965   2.482   0.625   2.248 -3.9965 -0.1172  1.3603
  322SOL    HW2  966   2.613   0.536   2.287 -1.7437  1.4959 -0.7837
  323SOL     OW  967   2.078   1.314   0.642  0.0511 -0.5399 -0.0241
  323SOL    HW1  968   2.053   1.348   0.736  0.8998  0.6886  0.7338
  323SOL    HW2  969   2.045   1.218   0.625  0.5660 -0.7601 -1.2342
  324SOL     OW  970   0.152   0.053   1.210 -0.1654 -0.2325  0.7906
  324SOL    HW1  971   0.196   0.044   1.307  0.5180 -0.4791 -0.9834
  324SOL    HW2  972   0.194   0.137   1.161  2.7257  3.6317  0.2625
  325SOL     OW  973   2.615   2.952   1.522  0.4505 -0.3132  0.7600
  325SOL    HW1  974   2.640   3.048   1.495  0.0875 -0.9615 -1.5288
  325SOL    HW2  975   2.565   2.953   1.611  2.1245  0.3432  0.1387
  326SOL     OW  976   1.580   2.753   0.229  0.4439  0.3089 -0.4145
  326SOL    HW1  977   1.614   2.681   0.295 -1.5064 -1.9080  1.2657
  326SOL    HW2  978   1.623   2.740   0.138 -0.3321  0.4026  1.8800
  327SOL     OW  979   1.786   2.042   0.270 -0.1915  0.0587 -0.1873
  327SOL    HW1  980   1.715   2.115   0.303 -1.7086 -1.4265  3.6537
  327SOL    HW2  981   1.770   2.012   0.175  2.2823 -0.7109  2.6983
  328SOL     OW  982   3.014   2.097   1.877 -0.5799  0.2091 -0.2222
  328SOL    HW1  983   3.005   2.009   1.933  2.5385 -0.9138 -0.0440
  328SOL    HW2  984   2.971   2.176   1.930 -1.8150  2.5617  1.9804
  329SOL     OW  985   2.984   2.281   1.057 -0.4362 -0.6751  0.1816
  329SOL    HW1  986   2.997   2.324   1.149 -0.1394  0.8933  0.9535
  329SOL    HW2  987   2.963   2.182   1.061  3.0573  0.1369  1.5656
  330SOL     OW  988   2.103   0.928   2.686  0.0870  0.1922  0.2562
  330SOL    HW1  989   2.008   0.938   2.648 -1.0391 -1.2196 -0.6114
  330SOL    HW2  990   2.173   0.964   2.619  2.2341 -2.1032  0.1874
  331SOL     OW  991   2.185   1.605   0.957 -0.1011  0.1758 -0.6568
  331SOL    HW1  992   2.166   1.636   0.863 -1.2545  0.7421  0.2689
  331SOL    HW2  993   2.196   1.689   1.017  2.1310 -1.2376 -2.5409
  332SOL     OW  994   0.274   2.562   1.043 -0.0377 -0.5359 -0.4442
  332SOL    HW1  995   0.328   2.602   0.967 -0.5372  1.5193  2.5665
  332SOL    HW2  996   0.242   2.631   1.113  0.7419  0.2196  0.5324
  333SOL     OW  997   3.017   1.888   2.397  0.4579 -0.1550 -0.0727
  333SOL    HW1  998   0.023   1.829   2.432  0.4280 -1.0888 -0.5886
  333SOL    HW2  999   2.924   1.849   2.412 -1.0777  2.4034 -0.2213
  334SOL     OW 1000   0.568   0.925   1.039 -0.1468 -0.4877  0.1620
  334SOL    HW1 1001   0.482   0.969   1.003  0.0489  0.1938  1.3139
  334SOL    HW2 1002   0.550   0.896   1.136 -0.6283 -0.1947  0.1479
  335SOL     OW 1003   0.111   1.554   2.140  0.1748  0.1121  0.2405
  335SOL    HW1 1004   0.019   1.549   2.185 -1.7960  2.3194 -1.5708
  335SOL    HW2 1005   0.183   1.501   2.193  1.0704 -0.9096 -3.8572
  336SOL     OW 1006   2.056   2.945   2.126 -0.3618  0.1244  0.1617
  336SOL    HW1 1007   2.119   2.943   2.207  0.0710  1.6926 -1.0285
  336SOL    HW2 1008   2.019   3.040   2.118 -1.5497  0.8049 -0.0196
  337SOL     OW 1009   0.982   0.817   1.169 -0.4793 -0.4561  0.4487
  337SOL    HW1 1010   0.937   0.872   1.243 -4.2964  2.8192 -0.6608
  337SOL    HW2 1011   1.031   0.873   1.099  0.3029  0.4024 -0.5284
  338SOL     OW 1012   1.617   1.824   1.123 -0.2155 -0.4585 -0.2256
  338SOL    HW1 1013   1.649   1.914   1.162 -0.9389  0.0487 -0.6227
  338SOL    HW2 1014   1.638   1.749   1.188  2.3486  2.9784 -3.0230
  339SOL     OW 1015   0.203   1.871   1.254 -0.2067  0.5889 -0.3635
  339SOL    HW1 1016   0.262   1.836   1.331 -1.7315  1.1609 -0.1096
  339SOL    HW2 1017   0.109   1.859   1.285  1.8237 -2.0647 -0.9035
  340SOL     OW 1018   0.620   3.069   2.041  0.1055  0.2797 -0.0612
  340SOL    HW1 1019   0.678   2.987   2.073  1.5978 -0.8822 -0.3777
  340SOL    HW2 1020   0.521   3.046   2.051  0.1878  0.8436 -0.9127
  341SOL     OW 1021   1.899   1.518   0.598  0.6632 -0.1589  0.1690
  341SOL    HW1 1022   1.951   1.597   0.643 -0.2033 -0.8363 -0.8591
  341SOL    HW2 1023   1.962   1.435   0.606 -1.6209  1.3049 -1.9238
  342SOL     OW 1024   1.665   1.321   0.389 -0.1444 -0.1337 -0.0802
  342SOL    HW1 1025   1.634   1.264   0.311  0.0726 -1.1139  2.0408
  342SOL    HW2 1026   1.746   1.381   0.361 -0.5667  1.0884 -0.2844
  343SOL     OW 1027   1.994   0.021   0.847 -0.1361 -0.2733 -0.3030
  343SOL    HW1 1028   1.911   0.038   0.903  1.5630 -0.1250  1.6961
  343SOL    HW2 1029   2.002   2.990   0.826 -0.9497 -2.1832 -0.8896
  344SOL     OW 1030   2.564   0.464   0.038  0.0079 -0.1146  0.2106
  344SOL    HW1 1031   2.483   0.411   0.030  2.4725  3.4195  1.2003
  344SOL    HW2 1032   2.637   0.405   0.077 -2.7578  0.3294 -1.8058
  345SOL     OW 1033   1.047   2.486   1.599 -0.1453 -0.4459 -0.5910
  345SOL    HW1 1034   1.112   2.555   1.560 -0.5765  1.2273  1.5300
  345SOL    HW2 1035   1.009   2.517   1.693 -2.0850  1.0411  4.0414
  346SOL     OW 1036   2.408   2.265   1.237  0.6149 -0.2158  0.4501
  346SOL    HW1 1037   2.326   2.324   1.217 -0.9226 -0.7020  0.7949
  346SOL    HW2 1038   2.434   2.275   1.336  0.3780  0.2719 -0.9488
  347SOL     OW 1039   2.231   2.969   1.040 -0.2818 -0.6021  0.4081
  347SOL    HW1 1040   2.266   3.041   1.106  2.8466  1.0343  2.1298
  347SOL    HW2 1041   2.130   2.986   1.026 -0.8301 -2.3248  0.0263
  348SOL     OW 1042   0.916   1.206   1.515 -0.4044  0.0538  0.0513
  348SOL    HW1 1043   0.903   1.125   1.457 -1.0541 -1.2567  1.7571
  348SOL    HW2 1044   0.846   1.275   1.488 -3.6689  1.4998 -0.3368
  349SOL     OW 1045   2.311   0.472   2.890 -0.0985  0.5291 -0.4547
  349SOL    HW1 1046   2.385   0.533   2.856  0.7390 -2.0677  2.3449
  349SOL    HW2 1047   2.352   0.388   2.924  0.7042  0.3709 -3.3238
  350SOL     OW 1048   2.094   2.066   2.876 -0.6190  0.5297  0.3075
  350SOL    HW1 1049   2.037   2.133   2.932 -1.9002  0.7116  0.7061
  350SOL    HW2 1050   2.132   1.992   2.934 -2.0773 -1.4419  0.0406
  351SOL     OW 1051   1.135   0.318   0.636  0.5318  0.6146 -0.0541
  351SOL    HW1 1052   1.193   0.262   0.575 -3.4325  0.4411  1.9490
  351SOL    HW2 1053   1.118   0.413   0.602 -1.0829 -2.2469 -1.4701
  352SOL     OW 1054   1.666   1.862   2.465 -0.6340  0.0309  0.6493
  352SOL    HW1 1055   1.651   1.962   2.460  0.9797  1.9576  2.2525
  352SOL    HW2 1056   1.743   1.847   2.399  0.6201 -0.6395  0.1939
  353SOL     OW 1057   0.324   0.662   0.006  0.4271  0.5547 -0.6326
  353SOL    HW1 1058   0.404   0.652   3.015 -0.2939  0.6887 -0.7801
  353SOL    HW2 1059   0.278   0.755   0.001  0.3339  0.8800  2.5369
  354SOL     OW 1060   1.013   2.331   2.634 -0.1669  0.1471 -0.0159
  354SOL    HW1 1061   0.935   2.299   2.573 -2.3563  0.1601 -2.5016
  354SOL    HW2 1062   0.975   2.359   2.726  1.1119  0.5426  2.9689
  355SOL     OW 1063   2.637   2.676   1.608  0.1877 -0.6907  0.2475
  355SOL    HW1 1064   2.663   2.772   1.602 -1.0528  0.3192  0.8628
  355SOL    HW2 1065   2.654   2.629   1.516 -1.2046 -3.4340  0.1510
  356SOL     OW 1066   2.589   1.096   0.914  0.1188  0.4393  0.0981
  356SOL    HW1 1067   2.539   1.012   0.889  1.6141 -0.3129  1.1292
  356SOL    HW2 1068   2.546   1.184   0.888 -0.2181  1.3004 -0.9956
  357SOL     OW 1069   2.821   0.139   1.180 -0.0181  0.4529  0.4683
  357SOL    HW1 1070   2.846   0.038   1.183  2.6935 -3.1372  1.4788
  357SOL    HW2 1071   2.824   0.170   1.081  1.5362  0.9552  0.8646
  358SOL     OW 1072   1.028   2.207   1.349 -0.5680 -0.4257  0.0717
  358SOL    HW1 1073   1.083   2.256   1.275  2.5431 -0.7931 -2.7292
  358SOL    HW2 1074   1.075   2.205   1.440 -0.8850 -1.5035 -0.0664
  359SOL     OW 1075   3.063   2.645   2.492  0.3309 -0.9919  0.3349
  359SOL    HW1 1076   0.057   2.608   2.563  0.7517  1.0661  0.9470
  359SOL    HW2 1077   0.026   2.731   2.453  1.1721 -2.5192 -2.3723
  360SOL     OW 1078   1.213   0.877   1.665  0.2224  0.4640  0.0580
  360SOL    HW1 1079   1.208   0.881   1.766  0.8901  0.6119  1.4723
  360SOL    HW2 1080   1.201   0.784   1.625 -1.3330 -1.2126 -1.8675
  361SOL     OW 1081   2.654   0.316   0.528  0.4433 -0.3205  0.4670
  361SOL    HW1 1082   2.732   0.274   0.478  2.3224  0.3363 -0.1192
  361SOL    HW2 1083   2.569   0.263   0.508 -1.4416 -2.5303 -1.0269
  362SOL     OW 1084   0.388   0.062   0.501  0.2292  0.4088  0.0009
  362SOL    HW1 1085   0.441   0.027   0.421 -2.8325  0.8256 -3.3172
  362SOL    HW2 1086   0.440   0.126   0.564  1.0277 -0.4290  0.1527
  363SOL     OW 1087   0.872   1.446   0.424  0.6357 -0.1901 -0.2380
  363SOL    HW1 1088   0.811   1.361   0.423  1.4809  0.1032  0.2722
  363SOL    HW2 1089   0.914   1.446   0.517  0.1867  0.2711  0.3744
  364SOL     OW 1090   0.578   0.896   1.599  0.3200 -0.0579  0.0179
  364SOL    HW1 1091   0.590   0.799   1.581  2.5544  1.9137 -0.0201
  364SOL    HW2 1092   0.495   0.938   1.557 -1.4950  1.9555  1.1452
  365SOL     OW 1093   2.731   1.306   0.585  0.3851 -0.1213 -0.2259
  365SOL    HW1 1094   2.758   1.267   0.675  1.3627 -1.2575 -0.2409
  365SOL    HW2 1095   2.742   1.406   0.590 -1.3881  1.6801 -0.6888
  366SOL     OW 1096   2.750   1.592   0.568  0.3987  0.2735  0.6697
  366SOL    HW1 1097   2.851   1.596   0.562  1.4158 -2.5543 -1.5938
  366SOL    HW2 1098   2.712   1.648   0.492 -0.4618 -1.2022  0.8047
  367SOL     OW 1099   2.284   1.811   2.281 -0.4111 -0.0212 -0.0953
  367SOL    HW1 1100   2.316   1.844   2.373  1.2233 -0.6240 -0.0271
  367SOL    HW2 1101   2.183   1.790   2.270 -0.2326 -0.3449 -1.4465
  368SOL     OW 1102   2.708   1.639   1.101  0.3890 -0.1454 -0.0699
  368SOL    HW1 1103   2.782   1.609   1.037 -0.6324  1.3061  0.0109
  368SOL    HW2 1104   2.656   1.561   1.135  0.3865 -1.7691  2.1118
  369SOL     OW 1105   2.340   2.483   2.655 -0.0596  0.3695 -0.1545
  369SOL    HW1 1106   2.281   2.429   2.589 -0.5317  0.9108  1.2860
  369SOL    HW2 1107   2.281   2.526   2.726  0.2523  1.5050  1.8576
  370SOL     OW 1108   0.030   2.941   1.060  0.1052 -0.3179 -0.0978
  370SOL    HW1 1109   0.070   3.009   1.127 -1.3153  0.4267 -1.1834
  370SOL    HW2 1110   0.090   2.935   0.982  1.0161 -0.8626  2.0368
  371SOL     OW 1111   0.772   1.814   2.953 -0.4636  0.4070 -0.1709
  371SOL    HW1 1112   0.805   1.802   3.048  1.0488  0.5279  0.0264
  371SOL    HW2 1113   0.685   1.762   2.952  3.9660  1.6759 -0.1042
  372SOL     OW 1114   1.014   0.980   0.267 -0.0261  0.2108  0.7809
  372SOL    HW1 1115   0.979   0.943   0.351  1.1176 -0.2108 -4.1580
  372SOL    HW2 1116   0.977   0.929   0.188  0.2436 -2.5231  1.7033
  373SOL     OW 1117   1.727   2.334   2.580 -0.1586 -0.1721 -0.5188
  373SOL    HW1 1118   1.792   2.409   2.555  0.5589  0.2120  1.7788
  373SOL    HW2 1119   1.671   2.352   2.666  0.1411 -0.5963  1.4422
  374SOL     OW 1120   0.240   2.440   0.284 -0.0608 -0.0159  0.0629
  374SOL    HW1 1121   0.248   2.404   0.186 -1.9534  1.1789  1.0545
  374SOL    HW2 1122   0.326   2.432   0.342  0.8994 -3.6999  2.6560
  375SOL     OW 1123   0.602   1.289   1.776 -0.4759  0.1971  0.4345
  375SOL    HW1 1124   0.606   1.310   1.678  0.2584  2.5706 -0.9320
  375SOL    HW2 1125   0.678   1.231   1.805 -1.1274  2.3429 -2.1571
  376SOL     OW 1126   0.519   2.376   1.924 -0.0970 -0.4297 -0.6856
  376SOL    HW1 1127   0.514   2.367   1.822  2.0678  1.9668 -1.8357
  376SOL    HW2 1128   0.427   2.381   1.969 -0.4482 -1.8835  0.8871
  377SOL     OW 1129   2.734   1.262   2.302 -0.1945  0.5413 -0.1960
  377SOL    HW1 1130   2.764   1.361   2.315  0.1338  2.0761  3.1521
  377SOL    HW2 1131   2.759   1.207   2.385 -0.3438 -0.1755  0.4875
  378SOL     OW 1132   1.225   2.959   0.131  0.1848  0.1199 -0.2561
  378SOL    HW1 1133   1.218   2.968   0.029  2.2139 -1.3380 -1.2020
  378SOL    HW2 1134   1.211   2.863   0.159  1.9843 -0.2631 -0.6302
  379SOL     OW 1135   1.964   0.470   0.681  0.6453  0.2331 -0.0386
  379SOL    HW1 1136   1.895   0.520   0.617 -1.8093 -1.8436 -2.3288
  379SOL    HW2 1137   2.044   0.429   0.630 -0.4694  2.2103  0.9144
  380SOL     OW 1138   3.022   1.823   1.345 -0.1118  0.0141  0.0022
  380SOL    HW1 1139   3.016   1.791   1.441 -0.0467  2.2086  1.1295
  380SOL    HW2 1140   2.934   1.872   1.326 -0.2372  0.3966 -1.6846
  381SOL     OW 1141   2.025   1.695   2.242  0.2107 -0.3792 -0.6639
  381SOL    HW1 1142   2.014   1.606   2.293  0.7617 -0.3301 -1.1869
  381SOL    HW2 1143   1.987   1.678   2.150 -1.6479  0.6319 -1.0013
  382SOL     OW 1144   0.059   0.322   2.621 -0.1879  0.7287 -0.3715
  382SOL    HW1 1145   3.045   0.270   2.624  1.5098  0.3938  2.6935
  382SOL    HW2 1146   0.065   0.384   2.540 -1.2918  0.5683 -1.7088
  383SOL     OW 1147   1.502   1.266   2.672  0.3882  0.0917  0.1036
  383SOL    HW1 1148   1.520   1.210   2.757  3.2382 -0.4260 -0.6476
  383SOL    HW2 1149   1.487   1.209   2.586 -1.2193 -0.1932  0.7782
  384SOL     OW 1150   1.203   1.736   1.262 -0.7495 -0.2685 -0.5201
  384SOL    HW1 1151   1.266   1.723   1.181  0.8575  0.4803 -0.3715
  384SOL    HW2 1152   1.146   1.817   1.246  0.9944 -0.1911  2.8736
  385SOL     OW 1153   1.852   2.534   0.795  0.3072 -0.3435 -0.1938
  385SOL    HW1 1154   1.849   2.602   0.874  1.1360  0.4881  0.1400
  385SOL    HW2 1155   1.906   2.569   0.716 -1.8605  0.6654  1.2044
  386SOL     OW 1156   1.822   1.798   0.933  0.3349  0.2783 -0.1091
  386SOL    HW1 1157   1.848   1.730   0.863  3.0512  1.0117  2.1183
  386SOL    HW2 1158   1.726   1.779   0.971 -1.1425 -1.0945 -0.7795
  387SOL     OW 1159   0.193   2.235   1.493 -0.4383 -0.4187 -0.6501
  387SOL    HW1 1160   0.251   2.166   1.445  0.8809 -1.7486  0.4552
  387SOL    HW2 1161   0.111   2.198   1.537 -0.6541  2.2408 -0.6861
  388SOL     OW 1162   2.936   0.533   1.693  0.3929 -0.0812  0.4394
  388SOL    HW1 1163   2.904   0.614   1.635 -2.2681 -0.2607 -0.5226
  388SOL    HW2 1164   2.859   0.486   1.743  0.8426 -0.8685 -2.1117
  389SOL     OW 1165   1.996   1.065   0.596  0.1518  0.9858 -0.0922
  389SOL    HW1 1166   2.054   1.011   0.660  1.2723 -1.8198 -0.9898
  389SOL    HW2 1167   2.015   1.036   0.503 -0.7654  0.3383  0.4606
  390SOL     OW 1168   1.006   2.015   2.567  0.0833 -0.1454  0.1711
  390SOL    HW1 1169   0.989   2.055   2.472  0.3565  2.5381 -1.5556
  390SOL    HW2 1170   1.067   1.937   2.562 -0.1024 -1.1562 -0.8440
  391SOL     OW 1171   0.707   2.203   2.736 -0.3825 -0.3867  0.2725
  391SOL    HW1 1172   0.615   2.256   2.733 -0.9919  1.0322 -0.1836
  391SOL    HW2 1173   0.712   2.157   2.647 -2.3380  1.6086  0.8005
  392SOL     OW 1174   3.024   2.795   1.607  0.2335 -0.1645 -0.1905
  392SOL    HW1 1175   2.966   2.842   1.541  0.0941  0.1272 -0.3294
  392SOL    HW2 1176   3.034   2.848   1.699  0.0468  1.4104  0.4070
  393SOL     OW 1177   1.669   2.521   0.342 -0.0182 -0.0121  0.0793
  393SOL    HW1 1178   1.771   2.513   0.343  0.6809  0.9396 -1.2430
  393SOL    HW2 1179   1.637   2.550   0.435  1.2360  0.6837  0.4635
  394SOL     OW 1180   0.811   0.389   2.275 -0.2978 -0.3200  0.5446
  394SOL    HW1 1181   0.866   0.409   2.193 -3.8684  0.4023 -0.4220
  394SOL    HW2 1182   0.767   0.299   2.270  0.0727  1.1673 -0.3879
  395SOL     OW 1183   0.359   1.229   1.287  0.2812  0.5496 -0.3849
  395SOL    HW1 1184   0.304   1.192   1.209 -0.7447  1.4764 -1.7926
  395SOL    HW2 1185   0.303   1.257   1.365 -0.5420 -0.6253 -0.7758
  396SOL     OW 1186   1.664   1.156   2.280 -0.5735 -0.4886  0.1112
  396SOL    HW1 1187   1.643   1.189   2.186  1.3156  0.5365  1.1546
  396SOL    HW2 1188   1.586   1.112   2.320  0.5700 -0.0381 -1.7093
  397SOL     OW 1189   0.880   0.364   3.071  0.4207  0.0865 -0.2357
  397SOL    HW1 1190   0.913   0.349   0.090  0.3838 -2.2986 -0.3306
  397SOL    HW2 1191   0.802   0.305   3.054 -1.0755  1.9352 -2.7620
  398SOL     OW 1192   0.779   1.882   2.693  0.1684 -0.6777  0.2555
  398SOL    HW1 1193   0.805   1.877   2.790  0.4369  2.7133  0.7308
  398SOL    HW2 1194   0.846   1.942   2.647 -0.0287 -0.7103  1.7081
  399SOL     OW 1195   2.624   1.568   2.480  0.0627 -0.1697 -0.3854
  399SOL    HW1 1196   2.558   1.532   2.415  1.7218 -1.4143  0.2495
  399SOL    HW2 1197   2.688   1.635   2.439  1.2568 -0.7846 -2.3663
  400SOL     OW 1198   2.351   1.129   1.477  0.3052  0.5799  0.5856
  400SOL    HW1 1199   2.317   1.227   1.466  1.7941 -1.6030 -1.6419
  400SOL    HW2 1200   2.325   1.066   1.401 -0.0722 -0.4788 -1.7882
  401SOL     OW 1201   1.113   1.691   0.801  0.1364  0.4023  0.2600
  401SOL    HW1 1202   1.098   1.672   0.899 -0.3141 -1.6526 -2.8494
  401SOL    HW2 1203   1.121   1.600   0.758  2.0314 -0.1430  1.3958
  402SOL     OW 1204   0.109   2.646   2.128 -0.0251  0.2716  0.6455
  402SOL    HW1 1205   0.186   2.673   2.193  1.4300 -0.5865 -1.1204
  402SOL    HW2 1206   0.144   2.653   2.029 -1.0116 -0.9596 -2.1671
  403SOL     OW 1207   0.385   1.275   2.604  0.2967 -0.4786  0.7639
  403SOL    HW1 1208   0.393   1.371   2.632  0.3102  1.4448  1.5790
  403SOL    HW2 1209   0.421   1.211   2.674 -0.5416  3.3706 -1.1393
  404SOL     OW 1210   2.045   2.169   1.384  0.0350 -0.1194  0.1149
  404SOL    HW1 1211   2.134   2.191   1.426  0.1702 -0.8597 -0.6337
  404SOL    HW2 1212   1.997   2.104   1.445  0.0548 -0.9158  1.7994
  405SOL     OW 1213   2.738   0.273   2.809 -0.2410  0.2231 -0.1571
  405SOL    HW1 1214   2.736   0.263   2.705  2.8228 -2.0599 -3.8623
  405SOL    HW2 1215   2.723   0.188   2.863  2.3544 -0.5243  1.8978
  406SOL     OW 1216   0.820   1.114   0.016  0.0296 -0.3157  0.8085
  406SOL    HW1 1217   0.829   1.016   0.032  0.9173  0.0291 -2.4709
  406SOL    HW2 1218   0.731   1.132   3.044  1.3631 -0.1706  0.6693
  407SOL     OW 1219   2.110   2.493   2.816 -0.3150 -0.2171  0.5009
  407SOL    HW1 1220   2.031   2.444   2.854  0.1774  0.0993 -0.3300
  407SOL    HW2 1221   2.085   2.591   2.794 -2.5669  1.2818 -0.7503
  408SOL     OW 1222   2.788   3.003   0.057 -0.1290 -0.0140  0.4158
  408SOL    HW1 1223   2.832   2.930   3.068  0.2975 -1.8950 -0.2735
  408SOL    HW2 1224   2.829   3.005   0.152  1.1510  2.3115  1.8482
  409SOL     OW 1225   2.184   1.416   1.205  0.4547  0.0843  0.3811
  409SOL    HW1 1226   2.099   1.406   1.151  0.6706  1.9161 -2.0370
  409SOL    HW2 1227   2.261   1.414   1.135  0.2734  0.4786 -2.4337
  410SOL     OW 1228   2.590   1.923   0.022 -0.2706  0.3233 -0.2666
  410SOL    HW1 1229   2.530   1.875   3.026  0.2422 -1.5580  0.8425
  410SOL    HW2 1230   2.665   1.980   3.052  0.9288  1.0128  0.0639
  411SOL     OW 1231   0.203   1.168   0.689 -0.1232 -0.1194 -0.3331
  411SOL    HW1 1232   0.120   1.202   0.739 -1.9770 -2.2006  0.0858
  411SOL    HW2 1233   0.231   1.079   0.730 -2.9526  2.1848  1.6957
  412SOL     OW 1234   1.927   2.471   0.347  0.8913 -0.5705 -0.5614
  412SOL    HW1 1235   1.996   2.489   0.275 -0.2783  2.2416  0.9087
  412SOL    HW2 1236   1.935   2.371   0.368 -1.8152  1.5090 -1.3731
  413SOL     OW 1237   1.873   0.814   2.031  0.4450  0.0181  0.5065
  413SOL    HW1 1238   1.855   0.776   2.123  1.5732  0.1857 -1.3843
  413SOL    HW2 1239   1.936   0.758   1.976 -1.1503  0.7591  0.7840
  414SOL     OW 1240   2.845   0.272   0.348 -0.7459 -0.0887  0.1543
  414SOL    HW1 1241   2.899   0.215   0.415  4.1101 -0.9056  0.7959
  414SOL    HW2 1242   2.818   0.225   0.261  1.3393  1.1551 -2.4398
  415SOL     OW 1243   0.919   1.553   1.470 -0.4339  0.5148 -0.8350
  415SOL    HW1 1244   1.023   1.562   1.482 -1.0651  0.3933  0.0312
  415SOL    HW2 1245   0.858   1.588   1.546  1.4312 -0.6436 -0.3395
  416SOL     OW 1246   0.312   0.037   2.865  0.2116  0.1124  0.2243
  416SOL    HW1 1247   0.315   0.140   2.868 -0.3756  0.0618 -1.3360
  416SOL    HW2 1248   0.248   3.071   2.799  1.0205  0.3821  3.6131
  417SOL     OW 1249   2.537   0.194   0.947 -0.2490 -0.0858 -0.0399
  417SOL    HW1 1250   2.507   0.287   0.922 -0.7619 -1.1966 -0.6134
  417SOL    HW2 1251   2.638   0.181   0.946 -0.6089 -3.3109 -1.0862
  418SOL     OW 1252   0.170   0.676   2.734 -0.3195  0.5464 -0.6035
  418SOL    HW1 1253   0.072   0.644   2.732 -2.7712 -0.8798  1.3958
  418SOL    HW2 1254   0.232   0.612   2.687 -3.6652  2.5454 -2.7660
  419SOL     OW 1255   0.155   1.274   1.451  0.1555 -0.6323  0.2516
  419SOL    HW1 1256   0.181   1.312   1.546 -0.4270  2.9802  0.6362
  419SOL    HW2 1257   0.058   1.244   1.436  1.7020  2.2082 -1.0166
  420SOL     OW 1258   0.751   1.637   0.650 -0.3404  0.0701  0.5608
  420SOL    HW1 1259   0.747   1.634   0.544  0.4718  2.6400 -0.5940
  420SOL    HW2 1260   0.833   1.584   0.681  1.0480  1.1142 -0.1155
  421SOL     OW 1261   2.187   2.324   2.479 -0.9777  0.1832  0.2904
  421SOL    HW1 1262   2.175   2.233   2.526  0.2545 -1.5963 -2.5017
  421SOL    HW2 1263   2.275   2.320   2.428 -1.5455  0.7188 -1.7771
  422SOL     OW 1264   2.972   0.612   2.715  0.0374  0.2249  0.1205
  422SOL    HW1 1265   2.886   0.594   2.771 -1.0376  0.0279 -0.2796
  422SOL    HW2 1266   2.956   0.586   2.617 -0.6381 -1.1517  1.5180
  423SOL     OW 1267   1.397   1.980   0.972 -0.3867 -0.0502 -0.1214
  423SOL    HW1 1268   1.465   1.940   1.039  1.4714 -0.4693 -0.8458
  423SOL    HW2 1269   1.381   1.912   0.893  0.8545  0.9759  1.0004
  424SOL     OW 1270   0.417   1.990   1.650  0.3225 -0.0333  0.4672
  424SOL    HW1 1271   0.463   2.053   1.584  0.5290 -1.9229 -0.0182
  424SOL    HW2 1272   0.415   2.029   1.746 -0.8397  0.0461 -1.1207
  425SOL     OW 1273   3.004   2.865   2.174  0.0555 -0.1777 -0.3752
  425SOL    HW1 1274   3.037   2.774   2.150  1.3053 -1.3408  0.0829
  425SOL    HW2 1275   2.915   2.894   2.126 -2.5837  2.3091  0.5387
  426SOL     OW 1276   1.527   0.726   0.606  0.0847 -0.2935 -0.4227
  426SOL    HW1 1277   1.448   0.708   0.543 -0.7823  1.2809 -0.3837
  426SOL    HW2 1278   1.491   0.776   0.690 -1.7570  1.7200  1.4248
  427SOL     OW 1279   0.570   0.948   0.168 -0.3997 -0.3428  0.4377
  427SOL    HW1 1280   0.476   0.960   0.202  2.7456 -0.5806  0.7527
  427SOL    HW2 1281   0.570   0.922   0.067 -0.2284  0.4804 -1.0744
  428SOL     OW 1282   1.398   1.358   0.097 -0.0029  0.4751 -0.3804
  428SOL    HW1 1283   1.359   1.340   0.193  0.2804 -2.1774  1.4556
  428SOL    HW2 1284   1.332   1.341   0.019  2.3131 -0.6052 -1.3154
  429SOL     OW 1285   2.916   2.548   0.354 -0.1780  0.1501 -0.8244
  429SOL    HW1 1286   2.990   2.586   0.300 -0.4093  0.1400 -1.7884
  429SOL    HW2 1287   2.850   2.615   0.391 -0.4628  1.7851 -0.7814
  430SOL     OW 1288   0.548   2.921   2.553  0.1758 -0.1116  0.5008
  430SOL    HW1 1289   0.591   2.958   2.639 -0.9781  1.5155  1.6563
  430SOL    HW2 1290   0.466   2.868   2.573  2.8945 -1.5051 -1.7457
  431SOL     OW 1291   2.828   1.100   0.755  0.4376  0.4261  0.3016
  431SOL    HW1 1292   2.746   1.114   0.811  3.2083 -1.0893 -1.6974
  431SOL    HW2 1293   2.847   1.001   0.749 -0.0841 -0.0371 -1.7350
  432SOL     OW 1294   2.074   2.571   1.891  0.0206  0.0336  0.4328
  432SOL    HW1 1295   2.099   2.571   1.990  0.2806 -2.6037 -2.4029
  432SOL    HW2 1296   2.133   2.501   1.840  1.3531 -2.0910 -0.2218
  433SOL     OW 1297   1.648   2.365   0.671  0.2017  0.4467  0.2592
  433SOL    HW1 1298   1.618   2.272   0.703 -0.1599 -0.6475  0.5777
  433SOL    HW2 1299   1.716   2.401   0.736 -1.6379  0.9733 -0.3320
  434SOL     OW 1300   0.427   2.097   1.914 -0.6689  0.4367 -0.1461
  434SOL    HW1 1301   0.503   2.164   1.917  0.1683 -2.0270 -1.1936
  434SOL    HW2 1302   0.333   2.138   1.912  1.8798  1.9325 -2.6162
  435SOL     OW 1303   3.024   1.029   3.018  0.0337  0.0718 -0.0438
  435SOL    HW1 1304   2.988   1.036   0.045 -0.3259 -1.4935  2.3429
  435SOL    HW2 1305   2.962   0.967   2.968  1.5279  1.0377  0.7832
  436SOL     OW 1306   0.280   2.688   1.858 -0.3181 -0.2865  0.6569
  436SOL    HW1 1307   0.250   2.778   1.826 -0.0893 -1.2321  0.2446
  436SOL    HW2 1308   0.382   2.689   1.877 -2.3689 -0.9912 -0.7888
  437SOL     OW 1309   1.682   2.706   1.756  0.3123  0.0175  0.4928
  437SOL    HW1 1310   1.706   2.696   1.653  0.1121  1.7321 -1.9988
  437SOL    HW2 1311   1.760   2.720   1.820  1.8503 -0.3214  1.8734
  438SOL     OW 1312   0.325   1.813   0.553 -0.2552  0.1449  0.2480
  438SOL    HW1 1313   0.319   1.793   0.654 -1.4461 -0.4031  0.1722
  438SOL    HW2 1314   0.236   1.824   0.507 -0.0552  1.1421  1.1951
  439SOL     OW 1315   0.164   0.520   0.829 -0.2800 -0.4322  0.1288
  439SOL    HW1 1316   0.253   0.568   0.821 -0.9860 -1.9802  1.0652
  439SOL    HW2 1317   0.180   0.418   0.827 -0.6595 -0.0328  0.5293
  440SOL     OW 1318   0.297   2.829   2.624  0.1602 -0.2791 -0.0729
  440SOL    HW1 1319   0.268   2.732   2.646 -2.2890 -0.9702 -0.0259
  440SOL    HW2 1320   0.222   2.888   2.663  2.1711 -3.1605  2.9575
  441SOL     OW 1321   2.849   0.840   0.744 -0.4022 -0.5405 -0.7097
  441SOL    HW1 1322   2.898   0.753   0.741 -1.0347 -1.7906 -0.8764
  441SOL    HW2 1323   2.746   0.824   0.743 -2.9950 -1.8752  1.3979
  442SOL     OW 1324   1.340   2.143   2.580 -0.7304  0.3334 -0.0353
  442SOL    HW1 1325   1.293   2.053   2.600  1.8591 -0.6612  0.5266
  442SOL    HW2 1326   1.440   2.128   2.546  1.6931 -2.1572 -2.6389
  443SOL     OW 1327   0.718   0.631   0.532 -0.4630  0.2638  0.3582
  443SOL    HW1 1328   0.786   0.671   0.599 -0.8532  0.5538  1.5727
  443SOL    HW2 1329   0.751   0.631   0.437  0.0068 -0.3265  0.0559
  444SOL     OW 1330   1.427   1.445   2.307 -0.7440  0.3873  0.0309
  444SOL    HW1 1331   1.338   1.395   2.321  0.2271 -1.4172 -1.7454
  444SOL    HW2 1332   1.440   1.521   2.376  1.5321 -3.3580  1.9532
  445SOL     OW 1333   0.042   0.372   0.590  0.4190  0.2879 -0.3777
  445SOL    HW1 1334   0.082   0.469   0.607  3.7753  1.7227 -0.7560
  445SOL    HW2 1335   0.078   0.336   0.502  1.3737  0.9741 -1.8701
  446SOL     OW 1336   1.960   0.626   1.156 -0.2867  0.0151  0.4521
  446SOL    HW1 1337   1.915   0.714   1.176  0.1655 -0.4759 -3.3796
  446SOL    HW2 1338   1.903   0.549   1.126 -0.3601  0.2500 -1.2246
  447SOL     OW 1339   0.010   0.933   0.307 -0.6491 -0.2843  0.3612
  447SOL    HW1 1340   3.061   0.834   0.323 -0.3789 -0.7344  0.3976
  447SOL    HW2 1341   3.004   0.993   0.341 -4.1403  1.2584  3.6313
  448SOL     OW 1342   1.774   2.052   1.785 -0.2635 -0.5301 -0.0643
  448SOL    HW1 1343   1.753   2.152   1.796  2.0056  1.2362 -1.4637
  448SOL    HW2 1344   1.807   2.043   1.689 -1.2330 -0.0874 -0.3840
  449SOL     OW 1345   0.957   1.423   0.680  0.0210 -0.1852  0.2092
  449SOL    HW1 1346   1.052   1.387   0.669 -0.4186  2.2538 -0.1700
  449SOL    HW2 1347   0.892   1.345   0.696  2.2453 -2.0409  2.0332
  450SOL     OW 1348   2.774   2.672   1.968  0.1945  0.1518 -0.0421
  450SOL    HW1 1349   2.690   2.730   1.979  1.4684 -1.1689  1.2094
  450SOL    HW2 1350   2.768   2.615   1.888  0.7089  1.7699  2.8300
  451SOL     OW 1351   2.563   1.236   2.855 -0.3649  0.3072 -0.2138
  451SOL    HW1 1352   2.596   1.232   2.949  2.2289 -1.7924 -1.6006
  451SOL    HW2 1353   2.479   1.293   2.848  1.8077 -0.2634  2.2059
  452SOL     OW 1354   1.925   1.146   1.102 -0.6451 -0.1992  0.1953
  452SOL    HW1 1355   1.970   1.118   1.194  0.7573 -1.1943  2.5197
  452SOL    HW2 1356   1.973   1.106   1.023  0.8382  2.1190  2.8382
  453SOL     OW 1357   2.115   0.632   1.491 -0.0636  0.0937 -0.5814
  453SOL    HW1 1358   2.085   0.727   1.513  0.6211  0.3242  0.3084
  453SOL    HW2 1359   2.109   0.566   1.567  2.3311 -0.7979  0.2531
  454SOL     OW 1360   2.911   1.339   0.045 -0.7264  0.3568  0.5844
  454SOL    HW1 1361   2.981   1.345   3.046  3.4953  0.0062 -2.1228
  454SOL    HW2 1362   2.833   1.285   0.015  1.3023  0.2755  1.5978
  455SOL     OW 1363   2.571   1.652   1.443  0.3968  0.0481  0.3219
  455SOL    HW1 1364   2.520   1.564   1.431 -1.2820 -0.4588 -0.0887
  455SOL    HW2 1365   2.514   1.733   1.426  1.0925 -3.6694  1.7455
  456SOL     OW 1366   1.183   0.126   1.628 -0.0643 -0.1888  0.0509
  456SOL    HW1 1367   1.201   0.219   1.673  0.8528  0.1178 -1.3199
  456SOL    HW2 1368   1.207   0.130   1.531 -0.6913 -3.3942  1.1370
  457SOL     OW 1369   1.816   2.693   1.022 -0.0134 -0.2024  0.4085
  457SOL    HW1 1370   1.821   2.620   1.090 -1.2496  1.4352 -2.1983
  457SOL    HW2 1371   1.735   2.749   1.051 -0.7577  1.5518  2.0275
  458SOL     OW 1372   2.920   0.086   0.525  0.3130  0.3241 -0.0268
  458SOL    HW1 1373   2.835   0.034   0.534 -0.7533  0.5701 -0.6531
  458SOL    HW2 1374   2.976   0.093   0.616  1.7572 -0.3699  2.3114
  459SOL     OW 1375   1.539   0.808   0.111 -0.1131  0.1377 -0.4236
  459SOL    HW1 1376   1.471   0.876   0.148 -2.0816 -2.0899 -1.3543
  459SOL    HW2 1377   1.536   0.811   0.010  1.8442  0.9665  2.5703
  460SOL     OW 1378   0.183   2.545   2.660  0.0296  0.7916 -0.2839
  460SOL    HW1 1379   0.165   2.515   2.757 -1.4908  2.5449  1.6400
  460SOL    HW2 1380   0.230   2.474   2.608 -1.4126  0.7108  1.0262
  461SOL     OW 1381   0.512   1.705   0.271 -0.5934  0.0922  0.0075
  461SOL    HW1 1382   0.610   1.693   0.292 -3.4378  1.0238 -0.4940
  461SOL    HW2 1383   0.491   1.766   0.191 -3.0884  0.9644 -2.6607
  462SOL     OW 1384   2.069   1.932   0.844  0.2519 -0.6671  0.8345
  462SOL    HW1 1385   2.161   1.940   0.888  0.1352  2.0052 -1.0747
  462SOL    HW2 1386   2.004   1.889   0.907  0.9199 -0.7605  0.6985
  463SOL     OW 1387   2.833   0.502   0.176 -0.0962  0.4237 -0.5379
  463SOL    HW1 1388   2.846   0.419   0.240  0.8212 -1.9496 -1.1141
  463SOL    HW2 1389   2.889   0.492   0.090 -1.0069  1.4947 -0.3372
  464SOL     OW 1390   0.821   2.440   0.436  0.1190  0.1916 -0.0625
  464SOL    HW1 1391   0.847   2.371   0.365  0.0728  2.0181  0.9834
  464SOL    HW2 1392   0.822   2.393   0.529  2.1693  1.3537 -0.3886
  465SOL     OW 1393   2.203   0.200   0.820  0.1756  0.2137  0.0866
  465SOL    HW1 1394   2.130   0.132   0.831  0.7115  0.1016  2.9240
  465SOL    HW2 1395   2.245   0.202   0.726  0.5005  0.9492 -2.3112
  466SOL     OW 1396   2.168   0.155   0.383 -0.3609 -0.5226  0.0929
  466SOL    HW1 1397   2.080   0.113   0.416  0.3476 -0.4656 -1.5920
  466SOL    HW2 1398   2.172   0.148   0.282 -2.0965  0.8140  5.0774
  467SOL     OW 1399   1.283   0.394   2.037  0.0403 -0.4424 -0.0199
  467SOL    HW1 1400   1.347   0.432   2.108  2.3520  1.5790  3.1941
  467SOL    HW2 1401   1.261   0.294   2.050 -1.3223  0.7764  1.9990
  468SOL     OW 1402   2.716   0.426   1.785 -0.3900  0.3722 -0.5103
  468SOL    HW1 1403   2.649   0.433   1.708 -1.5497 -0.8096 -2.9040
  468SOL    HW2 1404   2.673   0.382   1.867 -2.4471 -2.2112 -1.1101
  469SOL     OW 1405   0.931   2.227   2.000  0.0672 -0.3397 -0.0355
  469SOL    HW1 1406   1.004   2.164   2.028  0.2473  2.0312 -0.0913
  469SOL    HW2 1407   0.897   2.197   1.909 -0.2087 -0.5095  1.4342
  470SOL     OW 1408   1.972   1.202   1.911  0.0189  0.4039 -0.5805
  470SOL    HW1 1409   1.996   1.135   1.836  3.0021 -2.6945 -0.2140
  470SOL    HW2 1410   1.950   1.160   1.999  0.2892  2.6387 -0.4917
  471SOL     OW 1411   2.702   1.644   2.963 -0.6339 -0.3386  0.5952
  471SOL    HW1 1412   2.683   1.543   2.961 -0.8379  1.1184  1.4578
  471SOL    HW2 1413   2.784   1.655   3.018  0.9140 -3.0135 -1.5324
  472SOL     OW 1414   0.518   2.402   0.379 -0.5112  0.1941 -0.1617
  472SOL    HW1 1415   0.496   2.329   0.448 -0.1233  1.4114 -1.3930
  472SOL    HW2 1416   0.618   2.416   0.382  1.8650 -0.9727 -2.1277
  473SOL     OW 1417   1.155   2.387   2.165 -0.2292 -0.6006 -0.1177
  473SOL    HW1 1418   1.084   2.342   2.104 -0.0292 -1.4176 -0.2607
  473SOL    HW2 1419   1.149   2.350   2.255 -0.3235  0.0210 -0.2750
  474SOL     OW 1420   1.282   0.031   2.526 -0.7101  0.0914  0.4692
  474SOL    HW1 1421   1.208   0.091   2.567 -0.5628  0.2030  1.2159
  474SOL    HW2 1422   1.321   3.042   2.600  0.8572 -0.4798  1.5878
  475SOL     OW 1423   0.953   2.308   0.230 -0.5679 -0.0894 -0.5155
  475SOL    HW1 1424   1.033   2.364   0.191  1.2530 -1.1199 -2.3959
  475SOL    HW2 1425   0.989   2.221   0.267 -0.2497  5.4761 -0.7067
  476SOL     OW 1426   0.543   0.364   1.162  0.1810 -0.2439  0.7721
  476SOL    HW1 1427   0.608   0.390   1.237  2.5831  0.0006 -0.6725
  476SOL    HW2 1428   0.546   0.434   1.089 -3.9106 -0.4961  0.6415
  477SOL     OW 1429   1.842   1.963   1.507  0.7078 -0.3586 -0.1182
  477SOL    HW1 1430   1.825   1.996   1.416  0.9603 -1.1108  2.0117
  477SOL    HW2 1431   1.761   1.911   1.540  0.3679 -0.7103 -1.7456
  478SOL     OW 1432   2.875   0.811   2.880  0.3927  0.3976  0.1295
  478SOL    HW1 1433   2.834   0.745   2.946  1.3559 -0.8273 -1.8539
  478SOL    HW2 1434   2.947   0.762   2.821  2.5540 -1.5585 -2.0214
  479SOL     OW 1435   0.759   2.873   0.848  0.0402 -0.6986  0.2023
  479SOL    HW1 1436   0.797   2.874   0.939  0.3858 -0.4914 -3.3528
  479SOL    HW2 1437   0.819   2.917   0.775  1.1851 -0.1781 -0.0867
  480SOL     OW 1438   2.429   2.566   0.362 -0.4546 -0.7497 -0.1712
  480SOL    HW1 1439   2.514   2.564   0.420  0.4273 -2.1885  0.5298
  480SOL    HW2 1440   2.348   2.524   0.408 -0.8038  1.5991  0.5574
  481SOL     OW 1441   2.850   0.416   1.245 -0.3821  0.4180  0.0837
  481SOL    HW1 1442   2.848   0.321   1.201  3.6906 -2.2238 -1.8330
  481SOL    HW2 1443   2.867   0.423   1.349 -2.5507 -1.3317  2.8809
  482SOL     OW 1444   1.137   2.872   1.033 -0.2861 -0.2353  0.1137
  482SOL    HW1 1445   1.123   2.930   0.950 -1.4067 -2.4399  0.1311
  482SOL    HW2 1446   1.062   2.884   1.107 -0.6206 -1.0586  3.1341
  483SOL     OW 1447   0.487   1.266   3.047  0.3046  0.3748  0.1880
  483SOL    HW1 1448   0.449   1.222   0.059  0.3992  2.8616 -0.5616
  483SOL    HW2 1449   0.505   1.363   3.065  0.0851  0.1403 -1.1256
  484SOL     OW 1450   1.533   1.490   2.071  0.1764 -0.3897 -0.2562
  484SOL    HW1 1451   1.610   1.424   2.066 -1.6903 -1.6399 -1.3755
  484SOL    HW2 1452   1.491   1.483   2.164 -2.5677 -2.1946  0.4833
  485SOL     OW 1453   0.229   0.105   2.572 -0.5890  0.5626 -0.1525
  485SOL    HW1 1454   0.168   0.182   2.604 -1.2543  4.1276 -1.2222
  485SOL    HW2 1455   0.190   0.017   2.602  1.9324  1.4683  0.4674
  486SOL     OW 1456   1.548   3.041   0.504 -0.9029 -0.0158 -0.1852
  486SOL    HW1 1457   1.645   3.011   0.533  0.2848  2.6175  3.3078
  486SOL    HW2 1458   1.529   3.021   0.404 -4.2014 -0.2072  0.4910
  487SOL     OW 1459   1.608   0.209   0.640  0.3589 -0.5891 -0.7028
  487SOL    HW1 1460   1.697   0.193   0.685 -0.4084  2.0504  0.5396
  487SOL    HW2 1461   1.583   0.124   0.590 -0.9772  0.4343  1.6788
  488SOL     OW 1462   2.128   0.996   0.838 -0.3394 -0.6787  0.2587
  488SOL    HW1 1463   2.145   1.025   0.933 -1.0059 -0.1603 -1.5149
  488SOL    HW2 1464   2.081   0.907   0.836  1.6253  1.2702  1.3862
  489SOL     OW 1465   1.201   3.000   1.343  0.0689 -0.5261 -0.1736
  489SOL    HW1 1466   1.175   2.919   1.398 -0.9122 -0.3753  0.3254
  489SOL    HW2 1467   1.174   2.993   1.246 -1.0744  0.3888  0.6169
  490SOL     OW 1468   0.907   0.692   0.742  0.0096  1.0824  0.7821
  490SOL    HW1 1469   0.878   0.705   0.837 -0.7292 -0.6201 -0.8523
  490SOL    HW2 1470   1.000   0.736   0.734 -0.1889 -0.5756 -0.6385
  491SOL     OW 1471   1.194   2.838   0.456 -0.0936 -0.0634  0.0669
  491SOL    HW1 1472   1.243   2.873   0.539  1.7329  1.4889 -0.2117
  491SOL    HW2 1473   1.268   2.825   0.387  0.9633 -0.9788  2.1919
  492SOL     OW 1474   0.902   1.405   1.868  0.2466  0.5052 -0.0841
  492SOL    HW1 1475   0.812   1.419   1.909  2.4586  0.1239 -1.7915
  492SOL    HW2 1476   0.905   1.312   1.838 -1.5245  4.2527  3.1927
  493SOL     OW 1477   0.240   1.837   0.249 -0.0318 -0.0442 -0.4288
  493SOL    HW1 1478   0.237   1.938   0.279  0.3493  3.4739  0.4440
  493SOL    HW2 1479   0.314   1.794   0.305  1.3878 -0.8239 -0.2696
  494SOL     OW 1480   1.827   1.533   0.286  0.2899 -0.3890  0.1781
  494SOL    HW1 1481   1.843   1.575   0.379  1.1408 -1.4613  0.8361
  494SOL    HW2 1482   1.784   1.603   0.222 -1.1448  1.0696 -1.3956
  495SOL     OW 1483   0.383   0.919   2.465 -1.1894  0.2957  0.5840
  495SOL    HW1 1484   0.330   0.938   2.546  0.8978  2.6454 -2.2779
  495SOL    HW2 1485   0.325   0.922   2.380 -1.8462 -0.1148 -0.6360
  496SOL     OW 1486   0.147   0.142   2.281 -0.4177 -0.0193  0.2150
  496SOL    HW1 1487   0.156   0.125   2.380  0.5951 -0.6554  1.0125
  496SOL    HW2 1488   0.144   0.062   2.222  1.2405  2.4875  1.4854
  497SOL     OW 1489   1.728   1.119   0.595  0.4563 -0.3708  0.0401
  497SOL    HW1 1490   1.727   1.179   0.513 -1.2386 -0.9755 -3.4025
  497SOL    HW2 1491   1.820   1.082   0.612 -2.0902  1.0584  1.0966
  498SOL     OW 1492   2.789   2.719   3.010  0.1652  0.0441  0.4887
  498SOL    HW1 1493   2.837   2.640   3.041 -4.6521  0.7811 -0.9973
  498SOL    HW2 1494   2.714   2.735   0.000  3.7419 -0.5444 -0.8847
  499SOL     OW 1495   2.004   2.645   0.584 -0.1571  0.0243 -0.6734
  499SOL    HW1 1496   2.010   2.735   0.538 -4.0751  0.1264 -0.1135
  499SOL    HW2 1497   1.971   2.574   0.519 -1.1370  1.0451  1.7148
  500SOL     OW 1498   0.786   0.733   2.697 -0.2506  0.3849  0.0712
  500SOL    HW1 1499   0.750   0.681   2.614  2.4428 -2.9435 -1.0531
  500SOL    HW2 1500   0.760   0.833   2.706 -2.4980  2.3413 -0.2968
  501SOL     OW 1501   1.477   2.888   1.702 -0.1044  0.1296  0.2030
  501SOL    HW1 1502   1.547   2.815   1.709  0.2352  0.8379  2.0619
  501SOL    HW2 1503   1.387   2.854   1.717  4.0396  1.6344  5.0428
  502SOL     OW 1504   0.057   0.175   1.963  0.3146 -0.2815  0.0108
  502SOL    HW1 1505   0.058   0.097   2.030  0.1222  0.5949  1.9146
  502SOL    HW2 1506   0.082   0.156   1.868  2.5879  0.6039  0.5167
  503SOL     OW 1507   1.781   2.187   2.120 -0.5573 -0.0305  0.0085
  503SOL    HW1 1508   1.859   2.244   2.157  2.2239  1.6778  0.6059
  503SOL    HW2 1509   1.824   2.096   2.101  1.2737  0.6077 -0.3974
  504SOL     OW 1510   2.095   0.161   1.454  0.2978 -0.0604  0.4457
  504SOL    HW1 1511   2.077   0.253   1.413  1.1088  1.3918  3.3739
  504SOL    HW2 1512   2.052   0.156   1.548 -0.8295 -0.2376  0.4629
  505SOL     OW 1513   2.625   1.778   1.761  0.8581  0.1886 -0.4616
  505SOL    HW1 1514   2.691   1.858   1.764 -0.6199 -0.5896 -1.5904
  505SOL    HW2 1515   2.617   1.743   1.667  0.9422 -1.5361  1.3054
  506SOL     OW 1516   0.168   1.399   2.465 -0.3887  0.4181  0.0163
  506SOL    HW1 1517   0.262   1.381   2.500  2.0203 -0.4958 -0.1866
  506SOL    HW2 1518   0.133   1.338   2.394  0.9447  2.6239  1.2421
  507SOL     OW 1519   0.171   2.744   1.190 -0.4895 -0.0672  0.0159
  507SOL    HW1 1520   0.124   2.795   1.117 -0.0369 -1.2981  0.9564
  507SOL    HW2 1521   0.104   2.719   1.263 -1.3830 -0.1644  2.4541
  508SOL     OW 1522   1.166   0.610   1.563 -0.1262  0.1897  0.2278
  508SOL    HW1 1523   1.128   0.596   1.472 -2.2092  0.8605  1.2900
  508SOL    HW2 1524   1.261   0.572   1.575 -1.9296 -1.7735  0.8061
  509SOL     OW 1525   1.724   2.302   1.864 -0.2465 -0.4412 -0.0083
  509SOL    HW1 1526   1.646   2.368   1.869  0.2301  0.4210  0.4477
  509SOL    HW2 1527   1.739   2.261   1.958  1.8878  0.7379  2.3206
  510SOL     OW 1528   2.378   1.445   2.879  0.3939 -0.1853 -0.2942
  510SOL    HW1 1529   2.414   1.461   2.975  2.7143  0.5289  1.5635
  510SOL    HW2 1530   2.275   1.432   2.875 -1.0397 -0.4220 -0.8215
  511SOL     OW 1531   0.421   1.545   1.594  0.3654  0.0481  0.3710
  511SOL    HW1 1532   0.333   1.510   1.629  0.3374 -0.0469  0.4882
  511SOL    HW2 1533   0.476   1.467   1.561  1.7214 -0.7540 -2.0866
  512SOL     OW 1534   2.538   2.070   0.511  0.1317 -0.5449  0.5389
  512SOL    HW1 1535   2.637   2.068   0.495 -3.5251  3.0940 -1.1562
  512SOL    HW2 1536   2.489   2.126   0.444  0.4969  2.0929  0.1651
  513SOL     OW 1537   0.699   1.884   2.261  0.0967 -0.5595 -0.1946
  513SOL    HW1 1538   0.749   1.836   2.186 -0.0587 -2.4844 -1.0757
  513SOL    HW2 1539   0.717   1.830   2.343  0.9558  0.4219 -2.1380
  514SOL     OW 1540   0.111   2.355   2.325 -0.6589 -0.4422 -0.4758
  514SOL    HW1 1541   0.092   2.265   2.279  0.7166 -0.8457  0.1304
  514SOL    HW2 1542   0.028   2.395   2.363 -0.9910  1.4053 -1.5635
  515SOL     OW 1543   1.816   1.420   1.871 -0.2076  0.4777  0.6289
  515SOL    HW1 1544   1.874   1.339   1.903  0.0776  0.1621 -0.1206
  515SOL    HW2 1545   1.740   1.381   1.817  0.8528 -0.8883 -2.8232
  516SOL     OW 1546   2.109   2.452   0.135 -0.2302  0.0865 -0.2919
  516SOL    HW1 1547   2.039   2.413   0.071  2.3921 -0.7066  4.5557
  516SOL    HW2 1548   2.158   2.371   0.174 -0.3593  2.6305 -0.7307
  517SOL     OW 1549   0.780   1.679   0.323  0.7316 -0.1592  0.5522
  517SOL    HW1 1550   0.829   1.710   0.237 -2.5648  0.8657 -1.7314
  517SOL    HW2 1551   0.818   1.587   0.347 -0.0949  0.5968 -0.4876
  518SOL     OW 1552   2.005   2.636   1.558 -0.4178  0.3036  0.2195
  518SOL    HW1 1553   1.915   2.671   1.522 -1.7965 -0.6721  0.9579
  518SOL    HW2 1554   2.019   2.542   1.518  1.2873 -2.3609 -0.4280
  519SOL     OW 1555   2.249   2.468   1.158  0.3701  0.2198  0.6440
  519SOL    HW1 1556   2.300   2.557   1.155  1.0957  0.7210 -0.7431
  519SOL    HW2 1557   2.244   2.436   1.059 -1.1701 -0.2519  0.7732
  520SOL     OW 1558   2.855   2.187   2.168  0.1840 -0.4825  0.5520
  520SOL    HW1 1559   2.769   2.144   2.193 -0.1600 -1.0258 -2.4767
  520SOL    HW2 1560   2.841   2.243   2.080  2.4387 -0.1425  0.0236
  521SOL     OW 1561   2.536   1.056   2.383 -0.3381  0.1201 -0.6793
  521SOL    HW1 1562   2.580   1.102   2.465 -1.0174  2.7388  1.4289
  521SOL    HW2 1563   2.507   1.125   2.308 -0.5044  1.4809 -2.5844
  522SOL     OW 1564   0.845   0.645   2.388 -0.5425 -0.0467  0.5147
  522SOL    HW1 1565   0.945   0.661   2.375 -2.2694 -0.5840  0.3741
  522SOL    HW2 1566   0.809   0.552   2.380 -0.7004  2.3031  2.7083
  523SOL     OW 1567   0.122   2.141   0.829 -0.8718 -0.1609  0.1564
  523SOL    HW1 1568   0.173   2.094   0.906 -1.3971  0.6562  0.7376
  523SOL    HW2 1569   0.129   2.242   0.844 -0.3762  1.3471  1.8405
  524SOL     OW 1570   1.946   2.661   3.040 -0.1290  0.0869  0.5859
  524SOL    HW1 1571   1.968   2.712   0.054 -0.5508  0.2085 -0.8313
  524SOL    HW2 1572   1.984   2.704   2.954  0.5079 -0.0972 -0.7938
  525SOL     OW 1573   2.439   0.484   1.378  0.1573  0.1309  0.0972
  525SOL    HW1 1574   2.476   0.552   1.311 -3.0765 -1.0086  1.1707
  525SOL    HW2 1575   2.376   0.425   1.328 -0.4152 -2.4700 -2.0908
  526SOL     OW 1576   1.112   2.564   0.485  0.3839 -0.5279  0.1430
  526SOL    HW1 1577   1.026   2.530   0.443  1.3378 -0.3098 -1.2128
  526SOL    HW2 1578   1.121   2.663   0.463 -0.1842 -0.0680 -0.5287
  527SOL     OW 1579   2.278   2.877   0.413 -0.2833 -0.2743 -0.0220
  527SOL    HW1 1580   2.330   2.819   0.479 -0.5000 -1.1249 -0.0258
  527SOL    HW2 1581   2.347   2.910   0.350  0.2266 -2.6246  2.3964
  528SOL     OW 1582   1.363   0.676   0.320 -0.0631 -0.1325  0.3213
  528SOL    HW1 1583   1.271   0.669   0.279  1.0891  0.4434 -1.9269
  528SOL    HW2 1584   1.433   0.694   0.251  1.0991  1.5430 -1.7247
  529SOL     OW 1585   1.184   1.372   2.378 -0.7751 -0.3734  0.3080
  529SOL    HW1 1586   1.126   1.399   2.456 -0.7058 -1.4469 -2.7922
  529SOL    HW2 1587   1.128   1.327   2.309 -2.9101  0.2584  0.7911
  530SOL     OW 1588   2.310   0.351   0.088  0.1073  0.2899 -0.0211
  530SOL    HW1 1589   2.283   0.451   0.080  1.0960 -1.2305 -1.1658
  530SOL    HW2 1590   2.229   0.290   0.077  0.6179  0.5130  0.7192
  531SOL     OW 1591   1.520   0.736   2.927  0.4812 -0.1841  0.0270
  531SOL    HW1 1592   1.598   0.737   2.861 -1.2059 -1.8211 -0.6014
  531SOL    HW2 1593   1.445   0.671   2.897  1.0139 -0.0857  0.7409
  532SOL     OW 1594   1.518   0.450   0.764 -0.0400 -0.5617 -0.4316
  532SOL    HW1 1595   1.539   0.360   0.714  1.2713 -1.0327 -3.4708
  532SOL    HW2 1596   1.605   0.493   0.793  0.6343  1.3371 -2.2642
  533SOL     OW 1597   0.419   0.836   2.716 -0.0898 -0.4481  0.3135
  533SOL    HW1 1598   0.454   0.858   2.623 -0.2521  0.0384  2.9086
  533SOL    HW2 1599   0.334   0.777   2.714  2.0994  1.7696 -0.9879
  534SOL     OW 1600   1.618   0.259   2.928 -0.2055 -0.6733  0.1109
  534SOL    HW1 1601   1.534   0.203   2.939 -1.3804  0.2270 -1.6997
  534SOL    HW2 1602   1.621   0.332   2.998 -1.7266  1.6281  2.8648
  535SOL     OW 1603   0.498   2.774   2.906  0.1271  0.1428  0.2168
  535SOL    HW1 1604   0.491   2.677   2.928 -1.1933  0.8628  0.6558
  535SOL    HW2 1605   0.428   2.792   2.839 -0.0235 -0.7585 -0.8466
  536SOL     OW 1606   0.674   3.039   0.491  0.5650 -0.2581 -0.1178
  536SOL    HW1 1607   0.708   0.064   0.497 -1.3100 -2.2294 -1.4224
  536SOL    HW2 1608   0.694   2.991   0.577 -1.0836 -0.7473 -1.0866
  537SOL     OW 1609   1.693   0.319   0.155 -0.1703  0.1807 -0.0042
  537SOL    HW1 1610   1.642   0.394   0.111 -0.1649 -2.0462  0.9201
  537SOL    HW2 1611   1.708   0.341   0.253 -0.3261 -0.1587  0.8128
  538SOL     OW 1612   2.792   2.047   2.930  0.2794 -0.4103 -0.0616
  538SOL    HW1 1613   2.855   1.990   2.981 -2.6344  0.3756 -2.9417
  538SOL    HW2 1614   2.821   2.143   2.937 -0.9219  0.0723 -0.6299
  539SOL     OW 1615   2.241   1.986   0.113 -0.7449  0.4769  0.0590
  539SOL    HW1 1616   2.197   1.911   0.059 -0.5079 -0.0483 -0.3979
  539SOL    HW2 1617   2.334   1.957   0.144  0.3111 -1.5425 -0.8362
  540SOL     OW 1618   0.945   2.958   1.868  0.1489  0.2453  0.4376
  540SOL    HW1 1619   0.982   2.972   1.963  0.4188  0.2223  3.7309
  540SOL    HW2 1620   0.849   2.920   1.875 -1.9447 -0.4801  1.2402
  541SOL     OW 1621   2.400   0.184   2.272 -0.3085 -0.4891 -0.0606
  541SOL    HW1 1622   2.326   0.188   2.207 -0.5448 -1.8975  1.5629
  541SOL    HW2 1623   2.379   0.233   2.362 -0.7195  3.8842 -1.9143
  542SOL     OW 1624   0.071   0.897   2.605 -0.1356  0.3071 -0.0928
  542SOL    HW1 1625   0.113   0.810   2.643  0.7570  1.2686  0.8132
  542SOL    HW2 1626   3.061   0.884   2.550 -0.0414  1.9103  0.5659
  543SOL     OW 1627   0.297   0.808   1.044  0.7334  0.1303  0.3111
  543SOL    HW1 1628   0.344   0.750   0.977 -0.3508  0.6808 -0.3687
  543SOL    HW2 1629   0.205   0.775   1.079  1.1716  0.7351  0.2503
  544SOL     OW 1630   2.629   0.647   1.254 -0.0423 -0.7348  0.5763
  544SOL    HW1 1631   2.705   0.592   1.217  0.2554  0.8866  0.2187
  544SOL    HW2 1632   2.668   0.705   1.329 -0.6482  0.7291  1.5248
  545SOL     OW 1633   1.435   2.122   0.532 -0.2952  0.3014  0.7823
  545SOL    HW1 1634   1.334   2.113   0.529  0.7785 -0.1028 -2.4507
  545SOL    HW2 1635   1.482   2.097   0.619  2.9425 -0.7039 -1.7497
  546SOL     OW 1636   2.194   2.768   1.401  0.3426  0.2427 -0.6997
  546SOL    HW1 1637   2.137   2.699   1.449  1.8665 -0.0585 -0.0276
  546SOL    HW2 1638   2.208   2.741   1.304 -0.9337 -4.3698 -2.8546
  547SOL     OW 1639   0.495   2.607   2.461  1.1810  0.5322 -0.3823
  547SOL    HW1 1640   0.417   2.547   2.497 -0.3075  1.9009 -1.3770
  547SOL    HW2 1641   0.562   2.624   2.532  0.0459  0.8538 -2.2585
  548SOL     OW 1642   1.308   0.610   2.872  0.1873 -0.2346  0.3272
  548SOL    HW1 1643   1.289   0.673   2.951  0.2190 -0.2696  1.0483
  548SOL    HW2 1644   1.260   0.521   2.896  2.7515  1.3067  0.6460
  549SOL     OW 1645   2.756   0.964   0.123  0.1450 -0.1486  0.1902
  549SOL    HW1 1646   2.771   0.866   0.090  1.1509 -1.3403 -3.3709
  549SOL    HW2 1647   2.718   0.959   0.220 -0.8597  0.8368  1.9966
  550SOL     OW 1648   2.101   1.696   0.699  0.3017  0.0961 -0.3338
  550SOL    HW1 1649   2.096   1.796   0.724 -0.4251 -0.0143 -1.3109
  550SOL    HW2 1650   2.178   1.673   0.641 -2.0185 -0.2912 -0.2347
  551SOL     OW 1651   1.168   0.292   0.912  0.0150 -0.0632 -0.1799
  551SOL    HW1 1652   1.266   0.323   0.933  1.5252 -0.0128 -0.0673
  551SOL    HW2 1653   1.150   0.291   0.812 -0.8829  0.8592  0.2551
  552SOL     OW 1654   2.579   2.822   2.075 -0.5134 -0.1724  0.0076
  552SOL    HW1 1655   2.485   2.785   2.055  0.3461  1.8005  0.6330
  552SOL    HW2 1656   2.598   2.816   2.174 -0.4021 -3.5430 -0.4031
  553SOL     OW 1657   0.403   2.921   2.160  0.1200 -0.3606  0.3629
  553SOL    HW1 1658   0.436   2.848   2.096  0.1269  3.4600  0.0100
  553SOL    HW2 1659   0.392   2.883   2.252 -4.1386  0.7295  0.9987
  554SOL     OW 1660   0.540   2.997   1.046  0.1126 -0.0002 -0.1065
  554SOL    HW1 1661   0.529   3.070   1.115  0.8792  0.8158 -2.6448
  554SOL    HW2 1662   0.639   2.991   1.022 -1.9985  0.8568 -3.0178
  555SOL     OW 1663   2.626   2.057   2.263  0.4683 -0.2453 -0.2696
  555SOL    HW1 1664   2.542   2.032   2.215  0.9917  1.5617 -0.0372
  555SOL    HW2 1665   2.597   2.096   2.354  0.6847 -1.1763  2.2063
  556SOL     OW 1666   1.092   0.402   2.900 -0.4813  0.0588  0.4256
  556SOL    HW1 1667   1.013   0.406   2.968  1.3091  1.2679  2.7964
  556SOL    HW2 1668   1.058   0.439   2.806 -1.9544  1.4209 -0.3369
  557SOL     OW 1669   0.231   1.943   2.239 -0.2288 -0.1536 -0.3651
  557SOL    HW1 1670   0.163   2.020   2.225  0.2867 -1.6734  0.5347
  557SOL    HW2 1671   0.328   1.970   2.249 -1.8098 -0.5916 -1.5927
  558SOL     OW 1672   2.198   0.928   2.939  0.3034 -0.0258 -0.0197
  558SOL    HW1 1673   2.163   0.905   2.843  0.2546 -1.4777 -1.1675
  558SOL    HW2 1674   2.302   0.909   2.950  3.2092 -1.9342 -0.8156
  559SOL     OW 1675   2.311   1.725   1.861  0.0982  0.4264 -0.5032
  559SOL    HW1 1676   2.341   1.748   1.768  1.0828 -0.1657 -0.7327
  559SOL    HW2 1677   2.212   1.742   1.870 -1.0696 -1.1325 -0.9397
  560SOL     OW 1678   2.274   0.808   1.843 -0.6732  0.1172 -0.2104
  560SOL    HW1 1679   2.280   0.710   1.821  0.3778 -2.0502 -2.1168
  560SOL    HW2 1680   2.347   0.835   1.907  0.8100  0.0791 -1.4549
  561SOL     OW 1681   0.071   2.969   2.743 -0.0824  0.7030  0.2987
  561SOL    HW1 1682   3.067   3.012   2.699 -1.2587 -0.4917 -0.7333
  561SOL    HW2 1683   0.037   2.912   2.823 -1.1141  2.9811  1.4486
  562SOL     OW 1684   1.198   1.282   1.451 -0.6184 -0.1661 -0.0387
  562SOL    HW1 1685   1.211   1.382   1.459 -0.6930  0.2610 -1.9035
  562SOL    HW2 1686   1.105   1.256   1.477  2.4825  0.4054 -2.1016
  563SOL     OW 1687   1.036   0.089   2.909 -0.1693 -0.0582  0.2629
  563SOL    HW1 1688   1.125   0.033   2.924  0.6451 -1.8899  0.1760
  563SOL    HW2 1689   1.050   0.192   2.906 -0.1555  2.3503 -0.4821
  564SOL     OW 1690   2.973   2.127   0.697 -0.3801 -0.4298 -0.6072
  564SOL    HW1 1691   3.064   2.117   0.748 -0.6066 -0.4379 -0.4476
  564SOL    HW2 1692   2.927   2.205   0.744  0.0311 -0.2414  0.6598
  565SOL     OW 1693   0.596   1.909   1.241 -0.6701  0.8419 -0.1639
  565SOL    HW1 1694   0.524   1.876   1.306  0.1199 -0.9565  0.7946
  565SOL    HW2 1695   0.685   1.878   1.285 -0.5512  0.9818 -0.7133
  566SOL     OW 1696   1.519   2.608   2.248 -0.0967  0.0413 -0.2591
  566SOL    HW1 1697   1.437   2.603   2.190  2.8241 -2.2390 -0.6542
  566SOL    HW2 1698   1.496   2.571   2.339 -2.3760  1.6746 -0.1144
  567SOL     OW 1699   2.409   2.729   0.595  0.9354  0.8305  0.1563
  567SOL    HW1 1700   2.414   2.770   0.690  1.7661 -0.6869 -0.6560
  567SOL    HW2 1701   2.482   2.658   0.588  0.8219 -0.7076 -2.1809
  568SOL     OW 1702   1.586   1.204   0.793 -0.0873  0.0441 -0.1779
  568SOL    HW1 1703   1.491   1.165   0.801  0.7266 -2.3729 -0.6948
  568SOL    HW2 1704   1.629   1.165   0.708 -1.2032 -1.6213 -2.2434
  569SOL     OW 1705   3.016   1.740   2.734 -0.3522  0.2454  0.4207
  569SOL    HW1 1706   0.019   1.809   2.748  0.9011 -2.8641 -2.0079
  569SOL    HW2 1707   2.928   1.795   2.745 -1.5649 -0.2683  0.4118
  570SOL     OW 1708   3.055   0.078   1.431  0.1043  0.0390 -0.3736
  570SOL    HW1 1709   0.026   0.097   1.340  0.1590  0.0800 -1.9344
  570SOL    HW2 1710   2.977   0.014   1.422 -0.3686 -2.0940 -1.1086
  571SOL     OW 1711   0.379   0.202   1.621  0.4529 -0.6489 -0.2856
  571SOL    HW1 1712   0.465   0.154   1.642 -1.3957  1.1367 -0.3336
  571SOL    HW2 1713   0.395   0.305   1.637  0.5567  1.4392 -0.4610
  572SOL     OW 1714   0.042   2.409   1.306  0.1198 -0.1412  0.5901
  572SOL    HW1 1715   0.120   2.346   1.292  1.7005 -1.4591 -3.0403
  572SOL    HW2 1716   0.047   2.447   1.400  0.9236  0.6961  0.3588
  573SOL     OW 1717   0.767   0.619   3.038  0.4131 -0.0691  0.0439
  573SOL    HW1 1718   0.704   0.639   2.964  0.6382 -0.4686  2.2853
  573SOL    HW2 1719   0.788   0.522   3.050 -2.1017  2.4788  1.4927
  574SOL     OW 1720   2.357   3.017   0.135 -0.2602 -0.0579 -0.1980
  574SOL    HW1 1721   2.345   2.957   0.053  1.5659  1.3598 -0.5045
  574SOL    HW2 1722   2.433   0.011   0.129  0.9974  1.8839 -0.9763
  575SOL     OW 1723   1.586   2.339   1.262 -0.1893  0.0938  0.7658
  575SOL    HW1 1724   1.516   2.308   1.328  0.0294 -1.6568  0.7234
  575SOL    HW2 1725   1.542   2.341   1.173 -0.4012  1.7225 -0.1069
  576SOL     OW 1726   1.061   0.090   1.072 -0.2370  0.1556  0.1685
  576SOL    HW1 1727   1.114   0.170   1.038 -1.1688 -0.4865  0.7989
  576SOL    HW2 1728   0.965   0.124   1.090  0.6915  0.5907  0.3843
  577SOL     OW 1729   2.509   1.355   0.831  0.7689  0.0259 -0.1475
  577SOL    HW1 1730   2.500   1.452   0.797  0.8831 -0.7553 -1.5737
  577SOL    HW2 1731   2.455   1.296   0.770  1.4243  2.5466 -1.1612
  578SOL     OW 1732   1.685   0.380   0.435  0.7243 -0.4832 -0.1803
  578SOL    HW1 1733   1.639   0.335   0.511 -0.4899 -1.2254 -0.7587
  578SOL    HW2 1734   1.733   0.463   0.474  1.7012 -1.1543 -0.4804
  579SOL     OW 1735   2.043   0.572   2.879  0.2031 -0.2902  0.3044
  579SOL    HW1 1736   2.127   0.531   2.918 -3.7181 -0.9779 -0.5139
  579SOL    HW2 1737   1.974   0.498   2.859 -2.7936  0.7219 -1.0252
  580SOL     OW 1738   1.802   0.774   2.274 -0.0583 -0.4478  0.0197
  580SOL    HW1 1739   1.808   0.709   2.350  1.1674 -0.6960 -0.3456
  580SOL    HW2 1740   1.714   0.830   2.280 -0.2213 -1.0214 -1.1880
  581SOL     OW 1741   0.410   0.663   0.848 -0.1969 -0.2851  0.3105
  581SOL    HW1 1742   0.472   0.586   0.882  2.4922  0.8490  0.5919
  581SOL    HW2 1743   0.439   0.687   0.754  2.6496 -1.2570  0.1939
  582SOL     OW 1744   2.832   0.089   1.700 -0.4036 -0.0542 -0.1961
  582SOL    HW1 1745   2.801   0.103   1.602 -0.7306 -0.1466  1.5396
  582SOL    HW2 1746   2.882   0.172   1.734 -2.7297 -1.4132  0.8767
  583SOL     OW 1747   0.296   0.617   2.323  0.0559  0.2609 -0.0121
  583SOL    HW1 1748   0.345   0.603   2.410 -1.9203  0.2381  0.0784
  583SOL    HW2 1749   0.333   0.562   2.244  1.7670 -3.5845  0.3881
  584SOL     OW 1750   1.480   2.012   2.993  0.7218  0.3116 -0.0583
  584SOL    HW1 1751   1.533   2.017   2.908 -2.6660 -1.0977  1.9557
  584SOL    HW2 1752   1.460   2.107   3.023  0.9213 -0.0664  1.9423
  585SOL     OW 1753   0.455   2.472   2.961  0.2996 -0.2078  0.3084
  585SOL    HW1 1754   0.398   2.403   3.006 -0.9244  1.4571  1.2578
  585SOL    HW2 1755   0.546   2.476   3.007  3.4735 -1.6910  2.3542
  586SOL     OW 1756   1.852   1.830   2.840  0.3135  0.1730  0.3155
  586SOL    HW1 1757   1.944   1.877   2.834  0.0568 -2.2370 -2.3611
  586SOL    HW2 1758   1.846   1.761   2.768  0.8951 -0.4100 -0.7861
  587SOL     OW 1759   2.422   2.172   3.015 -0.0817  0.0500  0.4408
  587SOL    HW1 1760   2.411   2.271   3.028  2.7439  0.2158 -0.4791
  587SOL    HW2 1761   2.349   2.124   3.065  0.9538 -0.2268  1.7270
  588SOL     OW 1762   2.974   0.616   0.832 -0.5472 -0.1480  0.3477
  588SOL    HW1 1763   2.913   0.546   0.783 -3.9663 -1.3032 -0.4299
  588SOL    HW2 1764   3.069   0.588   0.834 -2.1809  0.3614  0.1717
  589SOL     OW 1765   1.081   0.598   0.282  0.2328 -0.5247  0.5992
  589SOL    HW1 1766   0.989   0.643   0.273  0.0464 -1.9825  0.3889
  589SOL    HW2 1767   1.103   0.582   0.378 -2.8771  0.4846 -0.9969
  590SOL     OW 1768   1.966   2.210   0.414  0.3648  0.0655 -0.3427
  590SOL    HW1 1769   1.890   2.152   0.378  1.3994 -2.2206  0.9698
  590SOL    HW2 1770   2.012   2.174   0.491 -1.9534 -0.2934 -3.6529
  591SOL     OW 1771   0.326   2.313   1.142 -0.0643 -0.1405  0.1980
  591SOL    HW1 1772   0.291   2.391   1.091  2.5935 -1.3039 -0.5663
  591SOL    HW2 1773   0.415   2.274   1.102  3.0365 -0.6792  0.9640
  592SOL     OW 1774   1.384   0.683   1.195  0.0305  0.1536  0.0152
  592SOL    HW1 1775   1.316   0.662   1.124  1.4927 -0.7868  1.1840
  592SOL    HW2 1776   1.351   0.749   1.268 -1.7166 -1.4414  2.1329
  593SOL     OW 1777   0.840   1.798   1.354  0.2157  0.5830 -0.1416
  593SOL    HW1 1778   0.880   1.704   1.384  0.4799 -3.9189  1.8664
  593SOL    HW2 1779   0.912   1.863   1.311  1.1568 -0.2972 -3.0510
  594SOL     OW 1780   0.992   2.070   0.319  0.9026  0.1442 -0.0404
  594SOL    HW1 1781   1.043   1.998   0.268  0.2322 -1.8731  3.6970
  594SOL    HW2 1782   0.913   2.024   0.367 -0.6761 -1.0289 -0.2090
  595SOL     OW 1783   1.683   0.776   1.499  0.0528  0.7106  0.3069
  595SOL    HW1 1784   1.736   0.743   1.581  0.7925 -1.5210 -1.9068
  595SOL    HW2 1785   1.654   0.695   1.443 -0.9829 -2.0488  0.2416
  596SOL     OW 1786   2.938   0.770   1.574  0.1019 -0.1273  0.0734
  596SOL    HW1 1787   2.952   0.805   1.668  2.0321  0.3913  0.3910
  596SOL    HW2 1788   3.011   0.816   1.516  0.4608 -0.8031  0.2474
  597SOL     OW 1789   0.844   2.558   2.437  0.7856 -0.1154 -0.1202
  597SOL    HW1 1790   0.829   2.459   2.445 -1.9861 -1.1098 -1.6445
  597SOL    HW2 1791   0.939   2.578   2.410 -2.4430  0.8724  0.9005
  598SOL     OW 1792   2.347   1.448   1.800  0.0821  0.2447 -0.1133
  598SOL    HW1 1793   2.386   1.539   1.809 -0.5829  0.3794 -0.1114
  598SOL    HW2 1794   2.413   1.382   1.756  0.3465  0.1378  1.9271
  599SOL     OW 1795   0.865   2.995   0.184  0.5842  0.3960 -0.1633
  599SOL    HW1 1796   0.775   2.977   0.134 -0.2059 -1.7261 -0.5740
  599SOL    HW2 1797   0.907   0.010   0.156 -2.3075 -0.2365  2.3709
  600SOL     OW 1798   0.052   2.159   0.028  0.2219  0.1089  0.2355
  600SOL    HW1 1799   0.019   2.062   0.021 -2.5512 -2.2594 -3.1322
  600SOL    HW2 1800   0.041   2.200   3.006  1.9449  0.0247 -1.3465
  601SOL     OW 1801   0.474   0.869   1.287  0.0982 -0.1928  0.6394
  601SOL    HW1 1802   0.392   0.856   1.221 -0.3152  2.8947  2.0070
  601SOL    HW2 1803   0.453   0.948   1.351 -1.7798  0.1314 -0.6962
  602SOL     OW 1804   0.483   0.240   0.707  0.1917 -0.2375 -0.6094
  602SOL    HW1 1805   0.556   0.236   0.781  1.6265  0.8914  2.3866
  602SOL    HW2 1806   0.489   0.333   0.666  0.7297 -0.3139  2.3709
  603SOL     OW 1807   0.439   0.266   2.540  0.6932 -0.1618 -0.3847
  603SOL    HW1 1808   0.348   0.216   2.546 -0.5034  0.5893  0.5210
  603SOL    HW2 1809   0.517   0.216   2.581 -1.5767  0.1996  2.3981
  604SOL     OW 1810   0.828   2.839   1.561  0.2936  0.9168  0.2362
  604SOL    HW1 1811   0.810   2.864   1.654  4.4292  1.0610 -2.8663
  604SOL    HW2 1812   0.796   2.741   1.544  0.0204 -2.2577 -1.8709
  605SOL     OW 1813   1.368   1.122   2.192  0.7905 -0.2604 -0.1489
  605SOL    HW1 1814   1.296   1.053   2.212  0.4253 -0.3291  0.1238
  605SOL    HW2 1815   1.366   1.142   2.092  0.1759 -2.5572  0.9078
  606SOL     OW 1816   2.065   2.769   2.823 -0.1374 -0.2645  0.4154
  606SOL    HW1 1817   2.000   2.844   2.787 -0.6748  1.5037 -3.4795
  606SOL    HW2 1818   2.158   2.812   2.835  2.4641  0.5402 -0.7138
  607SOL     OW 1819   1.028   0.352   1.494  0.3202  0.1102  0.5895
  607SOL    HW1 1820   1.099   0.397   1.547 -1.4555  1.1231 -1.9166
  607SOL    HW2 1821   1.058   0.315   1.405 -2.4600 -0.3223 -0.2649
  608SOL     OW 1822   0.216   1.857   2.500  0.0632  0.1551  0.0999
  608SOL    HW1 1823   0.210   1.907   2.415  1.2156  0.6348  2.3695
  608SOL    HW2 1824   0.290   1.794   2.505 -4.5747 -0.3410  1.3431
  609SOL     OW 1825   1.031   1.200   0.434 -0.0617 -0.2190  0.2871
  609SOL    HW1 1826   1.101   1.265   0.397 -1.3049  0.4694 -0.5147
  609SOL    HW2 1827   1.013   1.126   0.368  0.2597 -3.3047 -0.1571
  610SOL     OW 1828   0.259   0.226   0.842 -0.4017  0.1021 -0.2951
  610SOL    HW1 1829   0.339   0.234   0.779 -0.8167  3.6839  0.4510
  610SOL    HW2 1830   0.275   0.148   0.905  0.6117  3.8916 -1.1121
  611SOL     OW 1831   1.227   1.036   0.561 -0.0990  0.0786 -0.2352
  611SOL    HW1 1832   1.145   1.083   0.512 -3.5222 -0.7935 -0.6139
  611SOL    HW2 1833   1.315   1.034   0.512 -3.5718  1.9872  3.2805
  612SOL     OW 1834   2.108   1.469   0.225 -0.2623 -0.3513 -0.3898
  612SOL    HW1 1835   2.030   1.462   0.288 -1.3552 -0.3274  0.9752
  612SOL    HW2 1836   2.147   1.377   0.211  1.3171 -0.9442 -0.7997
  613SOL     OW 1837   1.783   0.971   0.212  0.4018 -0.1543 -0.7156
  613SOL    HW1 1838   1.695   1.024   0.215 -0.4397 -3.2685  1.6845
  613SOL    HW2 1839   1.808   0.952   0.117  0.2759 -3.1179  0.5930
  614SOL     OW 1840   2.717   0.245   2.523 -0.3633  0.1571  0.1105
  614SOL    HW1 1841   2.688   0.331   2.478 -1.7412  2.8138 -1.2711
  614SOL    HW2 1842   2.736   0.169   2.452 -1.3558  0.2990 -2.2528
  615SOL     OW 1843   0.795   2.047   0.671 -0.0810 -0.3351 -0.3270
  615SOL    HW1 1844   0.793   1.992   0.586 -0.8150  3.0609  0.0564
  615SOL    HW2 1845   0.701   2.046   0.714 -0.8492  0.6951  1.1169
  616SOL     OW 1846   1.535   0.915   2.609  0.1677 -0.0594 -0.1385
  616SOL    HW1 1847   1.518   0.986   2.535  0.0030  2.0961  3.5438
  616SOL    HW2 1848   1.457   0.850   2.615 -1.6564 -0.0112  0.7332
  617SOL     OW 1849   1.384   0.218   0.101  0.0939 -0.0486 -0.1222
  617SOL    HW1 1850   1.406   0.311   0.143 -0.7332 -0.1031 -2.2725
  617SOL    HW2 1851   1.330   0.156   0.158  1.8833 -0.4464  1.8802
  618SOL     OW 1852   2.738   1.845   2.464  0.3645  0.2949  0.0775
  618SOL    HW1 1853   2.702   1.933   2.424 -0.6414  2.7377  0.2140
  618SOL    HW2 1854   2.725   1.843   2.564  0.8515 -0.7706  0.0779
  619SOL     OW 1855   2.322   1.919   0.950 -0.4709  0.1155 -0.4911
  619SOL    HW1 1856   2.354   1.970   1.033  1.8588  0.8032  1.3362
  619SOL    HW2 1857   2.401   1.908   0.887 -2.2692 -0.3877 -0.6169
  620SOL     OW 1858   2.329   2.914   1.604  0.2961 -0.1418 -0.0496
  620SOL    HW1 1859   2.293   2.839   1.546 -0.1580 -0.7190 -2.4877
  620SOL    HW2 1860   2.351   2.874   1.697  1.9834 -0.3813  0.8599
  621SOL     OW 1861   2.914   1.865   0.787  0.3326  0.2252  0.1508
  621SOL    HW1 1862   3.008   1.835   0.779 -1.9723  1.4579  1.1904
  621SOL    HW2 1863   2.908   1.965   0.766  0.5195 -0.4818  1.6933
  622SOL     OW 1864   0.725   1.700   2.477  0.0750  0.1740  0.1989
  622SOL    HW1 1865   0.627   1.686   2.514 -0.5140  0.0299  0.9233
  622SOL    HW2 1866   0.785   1.751   2.544  0.4854  2.2726  0.2736
  623SOL     OW 1867   2.860   2.789   2.651  0.2685  0.4067 -0.6510
  623SOL    HW1 1868   2.910   2.747   2.572 -1.1736  0.4726 -0.0022
  623SOL    HW2 1869   2.827   2.714   2.719 -0.4680  1.4023  1.6776
  624SOL     OW 1870   0.771   1.940   0.412  0.5240  0.2065 -0.0792
  624SOL    HW1 1871   0.772   1.839   0.427  1.0847  3.4550  1.7757
  624SOL    HW2 1872   0.676   1.977   0.408 -0.1111  0.6937  0.2259
  625SOL     OW 1873   0.484   2.049   2.195  0.1130 -0.6681 -0.0463
  625SOL    HW1 1874   0.567   1.991   2.216  2.8257 -0.2952  2.1467
  625SOL    HW2 1875   0.459   2.050   2.097  0.7570  2.0533 -0.7041
  626SOL     OW 1876   0.557   2.636   0.208 -0.4091 -0.1011  0.1164
  626SOL    HW1 1877   0.596   2.550   0.179  2.2202 -0.4761 -1.4963
  626SOL    HW2 1878   0.497   2.632   0.287 -0.4676 -1.0342 -0.2991
  627SOL     OW 1879   1.232   1.312   2.976 -0.3976 -0.4938 -0.4183
  627SOL    HW1 1880   1.262   1.369   2.893 -0.3464  1.2399  0.8749
  627SOL    HW2 1881   1.149   1.258   2.951  1.0471  0.2175  3.9559
  628SOL     OW 1882   1.557   2.133   0.777  0.8537  0.2319  0.3755
  628SOL    HW1 1883   1.508   2.098   0.859  0.7135 -1.4106  0.8164
  628SOL    HW2 1884   1.659   2.126   0.793  3.1672  1.9213 -2.1770
  629SOL     OW 1885   0.721   0.346   1.569  1.1038 -0.3466 -0.0474
  629SOL    HW1 1886   0.695   0.265   1.622  1.0301  0.1187 -1.8157
  629SOL    HW2 1887   0.819   0.350   1.543  0.0098  1.7484  1.5793
  630SOL     OW 1888   2.474   0.294   1.578  0.1438  0.0117 -0.0470
  630SOL    HW1 1889   2.441   0.215   1.529  1.6649 -1.9400 -1.9135
  630SOL    HW2 1890   2.448   0.382   1.528 -0.1916  4.4261  0.6632
  631SOL     OW 1891   1.427   0.373   0.995  0.0226 -0.1149 -0.1169
  631SOL    HW1 1892   1.460   0.428   0.914  1.0237  2.0664 -0.3281
  631SOL    HW2 1893   1.465   0.418   1.076 -1.9874 -3.6778 -3.5260
  632SOL     OW 1894   2.679   0.798   1.829 -0.2749  0.0266 -0.2737
  632SOL    HW1 1895   2.779   0.788   1.845 -0.5593 -3.6379  1.9879
  632SOL    HW2 1896   2.651   0.718   1.776  0.1246  1.0292 -0.1392
  633SOL     OW 1897   1.350   1.066   2.993 -0.3412 -0.9843 -0.3323
  633SOL    HW1 1898   1.448   1.079   2.958  1.5539  1.9406 -0.8065
  633SOL    HW2 1899   1.309   1.164   2.999 -0.1055 -0.0863 -0.6662
  634SOL     OW 1900   0.591   2.375   0.100  0.1235  0.4878  1.1692
  634SOL    HW1 1901   0.537   2.356   0.179  1.7668 -2.0985 -2.4946
  634SOL    HW2 1902   0.630   2.288   0.062 -0.3676  1.0278 -2.5035
  635SOL     OW 1903   2.867   1.470   2.013  0.3837  0.1022  0.5733
  635SOL    HW1 1904   2.793   1.532   1.983  0.3446  1.8094  2.6363
  635SOL    HW2 1905   2.863   1.471   2.116  0.3531  2.8825  0.3780
  636SOL     OW 1906   0.074   1.633   0.152 -0.1841 -0.0500 -0.8752
  636SOL    HW1 1907   0.112   1.555   0.102  0.6694  0.4983  2.6846
  636SOL    HW2 1908   0.148   1.701   0.172  2.0592  1.0572  1.0383
  637SOL     OW 1909   3.008   2.458   0.611  0.1444 -0.3194  0.1851
  637SOL    HW1 1910   2.930   2.441   0.676 -2.9571 -1.3771  1.4344
  637SOL    HW2 1911   2.965   2.493   0.523  0.3385  4.4018 -2.0259
  638SOL     OW 1912   2.585   2.670   0.140  0.0698 -0.5518  0.1014
  638SOL    HW1 1913   2.554   2.601   0.203  0.2455  0.6214  2.4670
  638SOL    HW2 1914   2.532   2.661   0.054  1.1952 -1.0970  0.6810
  639SOL     OW 1915   1.253   0.504   0.101  0.2863  0.1112  0.3584
  639SOL    HW1 1916   1.180   0.539   0.164 -0.1269 -1.6666  1.3126
  639SOL    HW2 1917   1.214   0.430   0.047 -0.1223  1.4331  0.6726
  640SOL     OW 1918   2.308   2.031   1.644  0.3678 -0.6425 -0.0632
  640SOL    HW1 1919   2.362   2.031   1.730  0.3574 -0.3791  0.5379
  640SOL    HW2 1920   2.292   2.124   1.605  2.8854  1.3257 -1.7000
  641SOL     OW 1921   2.847   2.934   1.151 -0.1941 -0.1762 -0.2468
  641SOL    HW1 1922   2.778   2.899   1.087 -1.3829  3.0061  0.6067
  641SOL    HW2 1923   2.939   2.933   1.115 -0.9978  2.4083  1.0142
  642SOL     OW 1924   1.552   0.961   1.678 -0.5210  0.4926 -0.4597
  642SOL    HW1 1925   1.580   0.883   1.621 -1.2000  0.1903 -0.9135
  642SOL    HW2 1926   1.484   1.015   1.624  1.4006 -3.2548 -2.0332
  643SOL     OW 1927   0.914   1.710   2.102 -0.1735  0.1324  1.3503
  643SOL    HW1 1928   0.973   1.725   2.185 -0.9452  0.8603 -0.7124
  643SOL    HW2 1929   0.941   1.774   2.028 -1.3028  0.5366  1.0329
  644SOL     OW 1930   1.828   0.239   1.910  0.0808  0.0612  0.1454
  644SOL    HW1 1931   1.770   0.162   1.936  1.3423  4.2296 -0.5545
  644SOL    HW2 1932   1.773   0.322   1.919 -0.6005 -2.3234 -0.3541
  645SOL     OW 1933   1.562   1.342   1.706 -0.0225  0.1584  0.3665
  645SOL    HW1 1934   1.513   1.286   1.764  3.0949  2.0730 -2.0436
  645SOL    HW2 1935   1.632   1.277   1.666 -1.4839  2.6916  1.6918
  646SOL     OW 1936   1.179   2.457   0.166  0.0507 -0.0687 -0.0223
  646SOL    HW1 1937   1.170   2.475   0.064 -0.6664  1.0341  1.1406
  646SOL    HW2 1938   1.273   2.419   0.185  1.0808 -0.2847  0.5776
  647SOL     OW 1939   1.413   2.273   1.039  0.1037  0.3122  0.4163
  647SOL    HW1 1940   1.411   2.329   0.948 -0.4796 -0.6892  0.0881
  647SOL    HW2 1941   1.394   2.177   1.022 -0.1136  2.8358 -3.8044
  648SOL     OW 1942   2.950   2.353   1.613  0.4226  0.0379  0.0797
  648SOL    HW1 1943   2.999   2.267   1.629  1.5836 -2.3476 -1.1376
  648SOL    HW2 1944   3.019   2.421   1.588  2.9834 -2.2142 -1.5081
  649SOL     OW 1945   1.213   2.347   2.450 -0.1583  0.0177  0.1008
  649SOL    HW1 1946   1.276   2.268   2.477  3.0270 -1.1039 -1.1836
  649SOL    HW2 1947   1.139   2.358   2.523 -2.7057  0.6051  2.0878
  650SOL     OW 1948   2.990   1.922   3.069  0.8561 -0.3167 -0.1329
  650SOL    HW1 1949   2.931   1.848   0.036  0.5142 -1.1730 -0.4426
  650SOL    HW2 1950   3.058   1.884   3.006 -0.7184  0.9676  2.4453
  651SOL     OW 1951   2.279   2.356   2.136  0.5406 -0.0164 -0.4556
  651SOL    HW1 1952   2.225   2.269   2.154  0.9919  2.5772  0.5275
  651SOL    HW2 1953   2.328   2.348   2.047 -0.7020  0.4846  3.0930
  652SOL     OW 1954   2.211   2.612   0.763  0.6201 -0.0909  0.2279
  652SOL    HW1 1955   2.282   2.636   0.696 -1.1930 -1.1320 -1.5738
  652SOL    HW2 1956   2.123   2.614   0.713 -0.0478 -1.6447 -1.4410
  653SOL     OW 1957   2.982   1.131   1.372 -0.5087 -0.6796 -0.8602
  653SOL    HW1 1958   2.902   1.156   1.434 -2.7602 -0.7617  2.3063
  653SOL    HW2 1959   2.952   1.145   1.277  0.9555  1.6713  1.6966
  654SOL     OW 1960   1.076   0.448   2.634  0.0905  0.2507 -0.3258
  654SOL    HW1 1961   1.137   0.376   2.600  1.3082 -2.4901 -0.0108
  654SOL    HW2 1962   1.080   0.532   2.573  1.2775  2.0002 -0.7934
  655SOL     OW 1963   1.191   0.873   0.990 -0.1303  0.1613  0.1913
  655SOL    HW1 1964   1.255   0.911   1.061 -2.2539 -0.8875 -0.5118
  655SOL    HW2 1965   1.189   0.771   0.989  1.1700 -0.4294 -3.4139
  656SOL     OW 1966   0.951   2.646   2.100 -0.2809 -0.0761 -0.5614
  656SOL    HW1 1967   0.895   2.570   2.132  3.0302 -0.0848  0.0030
  656SOL    HW2 1968   1.046   2.632   2.133 -2.3144  0.0750 -1.4946
  657SOL     OW 1969   2.212   1.199   0.189  0.4177 -0.0658 -0.3018
  657SOL    HW1 1970   2.146   1.192   0.111  0.5845  1.4757 -0.0501
  657SOL    HW2 1971   2.283   1.126   0.173  0.4241 -3.1189  0.6645
  658SOL     OW 1972   1.388   2.230   1.720  0.1714  0.6084 -0.3696
  658SOL    HW1 1973   1.420   2.326   1.726 -0.0405  2.5933 -1.4695
  658SOL    HW2 1974   1.423   2.170   1.795  0.8692 -1.0224  1.0747
  659SOL     OW 1975   2.891   1.680   0.081  0.6007  0.6619 -0.3921
  659SOL    HW1 1976   2.824   1.624   0.130  1.3307  1.4727 -2.9406
  659SOL    HW2 1977   2.984   1.663   0.112  0.9283 -0.4196  0.2101
  660SOL     OW 1978   0.892   0.201   0.678  0.0703 -0.2665  0.3338
  660SOL    HW1 1979   0.909   0.099   0.678 -0.2642 -0.5488 -2.1396
  660SOL    HW2 1980   0.980   0.252   0.683  1.9648 -0.9022  0.5993
  661SOL     OW 1981   1.974   0.434   0.215 -0.6443  0.5457  0.1587
  661SOL    HW1 1982   1.893   0.492   0.210  2.4500  1.1167  0.2123
  661SOL    HW2 1983   1.945   0.337   0.198 -0.9655  2.0244 -0.5190
  662SOL     OW 1984   0.506   0.471   0.570 -0.3547  0.3003  0.3404
  662SOL    HW1 1985   0.440   0.470   0.489  0.0061 -0.2660  1.1481
  662SOL    HW2 1986   0.584   0.533   0.555 -3.2374 -0.6534  1.7378
  663SOL     OW 1987   1.583   2.884   2.324 -0.4061 -0.1987  0.2787
  663SOL    HW1 1988   1.496   2.924   2.295  2.1719 -0.0549  1.4291
  663SOL    HW2 1989   1.613   2.808   2.266  0.0731  0.7496  2.8756
  664SOL     OW 1990   0.703   2.524   1.699  0.0901 -0.0846  0.1010
  664SOL    HW1 1991   0.618   2.463   1.714 -2.0196 -2.9688 -0.6638
  664SOL    HW2 1992   0.735   2.524   1.603 -1.7089 -0.9842 -0.2120
  665SOL     OW 1993   1.149   2.250   1.589  0.0244  0.0105  0.2646
  665SOL    HW1 1994   1.114   2.344   1.590 -1.8095  2.4927 -2.3559
  665SOL    HW2 1995   1.245   2.239   1.630  0.8188 -0.8394  1.6552
  666SOL     OW 1996   0.930   2.990   2.474  0.4444 -0.6126 -0.2738
  666SOL    HW1 1997   0.950   2.978   2.572 -0.2027 -0.2049 -0.6207
  666SOL    HW2 1998   0.844   2.940   2.453  0.0642 -2.1978  1.4257
  667SOL     OW 1999   2.676   0.798   1.468 -0.2377  0.3594 -0.1813
  667SOL    HW1 2000   2.664   0.890   1.429  0.3523 -1.3929 -1.1942
  667SOL    HW2 2001   2.757   0.787   1.528  4.0539 -1.7095  1.2266
  668SOL     OW 2002   1.501   0.064   1.331  0.1866  0.2789 -0.0690
  668SOL    HW1 2003   1.498   3.032   1.332 -1.1091  0.5091 -1.2420
  668SOL    HW2 2004   1.547   0.094   1.414 -0.6889 -2.3855  1.6345
  669SOL     OW 2005   2.688   2.475   1.136  0.0878  0.1798 -0.7760
  669SOL    HW1 2006   2.668   2.371   1.127 -0.1004 -3.2441  0.8609
  669SOL    HW2 2007   2.678   2.525   1.044 -1.6952 -0.5049 -0.4062
  670SOL     OW 2008   1.274   2.303   2.834  0.2417  0.2639 -0.5052
  670SOL    HW1 2009   1.349   2.306   2.901 -4.7067 -0.9156  1.9924
  670SOL    HW2 2010   1.306   2.300   2.742  0.2867  1.1298  4.3831
  671SOL     OW 2011   0.633   1.299   0.411 -0.0418 -0.0991 -0.2007
  671SOL    HW1 2012   0.588   1.306   0.319 -1.5007 -0.0414 -1.9497
  671SOL    HW2 2013   0.565   1.291   0.488 -0.2192 -1.2781 -0.0213
  672SOL     OW 2014   2.671   1.193   0.009 -0.3074  0.4505 -0.7832
  672SOL    HW1 2015   2.717   1.099   0.027 -1.0622 -0.6391 -1.5807
  672SOL    HW2 2016   2.642   1.222   0.101 -1.6166 -3.7395 -0.9204
  673SOL     OW 2017   3.034   1.780   1.614 -0.7820 -0.2474  0.1930
  673SOL    HW1 2018   2.987   1.706   1.664 -3.2912 -2.7072  1.2559
  673SOL    HW2 2019   0.050   1.821   1.651 -1.4555  1.1689  1.3515
  674SOL     OW 2020   0.935   2.120   1.740  0.0815  0.4840  0.3988
  674SOL    HW1 2021   0.873   2.113   1.658  0.0642 -0.6148 -3.2866
  674SOL    HW2 2022   1.014   2.182   1.716  2.0417  0.7933 -1.3293
  675SOL     OW 2023   1.227   1.080   1.253 -0.2745 -0.6713 -0.3389
  675SOL    HW1 2024   1.242   1.159   1.319 -1.9602  2.4263 -3.1377
  675SOL    HW2 2025   1.149   1.100   1.191 -1.2006  0.1517  1.0677
  676SOL     OW 2026   2.126   0.412   0.972  0.4482  0.3169  0.3128
  676SOL    HW1 2027   2.110   0.489   0.911 -0.6999 -0.3777  2.3627
  676SOL    HW2 2028   2.139   0.323   0.914  0.2018 -1.6175 -1.4800
  677SOL     OW 2029   2.440   0.693   0.090  0.0233 -0.2486  0.1930
  677SOL    HW1 2030   2.346   0.657   0.100  0.5735 -0.1760 -2.2900
  677SOL    HW2 2031   2.511   0.619   0.087  0.7040 -0.3123 -4.6085
  678SOL     OW 2032   2.431   1.423   1.381  0.1207 -0.5383  0.0395
  678SOL    HW1 2033   2.427   1.379   1.292 -0.4565  0.1299  2.5353
  678SOL    HW2 2034   2.340   1.466   1.390  0.6660  1.3033 -1.4810
  679SOL     OW 2035   2.460   0.686   2.800 -0.5269  0.0050 -0.2820
  679SOL    HW1 2036   2.459   0.714   2.702 -0.1594 -1.2989  0.3554
  679SOL    HW2 2037   2.472   0.769   2.857  2.6649  1.9302  2.1338
  680SOL     OW 2038   0.470   1.040   2.153  0.6166  0.2977  0.1133
  680SOL    HW1 2039   0.480   0.940   2.164  0.4528 -0.6677 -1.3173
  680SOL    HW2 2040   0.471   1.084   2.242  1.1722 -2.8666 -2.9143
  681SOL     OW 2041   2.784   2.006   1.716 -0.1444 -0.3358 -0.1221
  681SOL    HW1 2042   2.871   2.035   1.762  4.3024  0.4114  2.1325
  681SOL    HW2 2043   2.796   1.987   1.616  1.4996 -0.8726  0.6853
  682SOL     OW 2044   0.401   1.851   2.837 -0.0013 -0.0060 -0.1675
  682SOL    HW1 2045   0.434   1.925   2.781 -0.7901 -0.9378 -0.1104
  682SOL    HW2 2046   0.457   1.768   2.820  0.9697  1.8144 -0.8425
  683SOL     OW 2047   2.681   2.147   0.869  0.0466 -0.6153  0.3360
  683SOL    HW1 2048   2.658   2.048   0.869  0.5267 -0.4834  0.8472
  683SOL    HW2 2049   2.689   2.169   0.968  0.2519 -0.0780 -1.2599
  684SOL     OW 2050   2.472   0.902   1.979 -0.0350  0.7784 -0.5680
  684SOL    HW1 2051   2.542   0.878   1.907  3.4280  0.7491  0.0672
  684SOL    HW2 2052   2.514   0.932   2.065 -1.6698 -1.6209  0.3948
  685SOL     OW 2053   1.179   0.611   1.006 -0.5631  0.0772 -0.0296
  685SOL    HW1 2054   1.151   0.596   0.907 -1.7475 -2.4368  0.4118
  685SOL    HW2 2055   1.153   0.538   1.072 -2.4478  0.6372 -0.8280
  686SOL     OW 2056   0.615   0.234   3.062 -0.3440  0.0384 -0.3936
  686SOL    HW1 2057   0.680   0.154   3.051  0.8196  0.4738  1.4136
  686SOL    HW2 2058   0.603   0.244   0.091  1.5397  0.7332 -0.8804
  687SOL     OW 2059   0.321   2.367   2.493 -0.3880 -0.0821 -0.6958
  687SOL    HW1 2060   0.228   2.352   2.459  1.0143 -2.9675  2.0339
  687SOL    HW2 2061   0.386   2.302   2.447 -0.7314 -3.1562  2.6168
  688SOL     OW 2062   2.069   0.414   1.347 -0.7144 -0.5736  0.2069
  688SOL    HW1 2063   2.081   0.500   1.403  1.8075 -1.9037 -1.2872
  688SOL    HW2 2064   2.155   0.384   1.294  0.1934 -1.2960  0.6437
  689SOL     OW 2065   1.743   0.805   0.827  0.2253 -0.0285  0.1957
  689SOL    HW1 2066   1.684   0.837   0.746  0.1181  2.6160 -0.5328
  689SOL    HW2 2067   1.689   0.833   0.911  2.1672  0.7805  0.0050
  690SOL     OW 2068   0.070   0.864   1.420 -0.2122  0.4953  0.3795
  690SOL    HW1 2069   0.010   0.942   1.392  1.3687  0.4268 -2.9303
  690SOL    HW2 2070   0.102   0.802   1.344  3.9939  0.0590 -0.8911
  691SOL     OW 2071   0.095   1.032   1.835  0.2478  0.0408 -0.8890
  691SOL    HW1 2072   0.185   1.003   1.866 -0.9650  0.2093 -1.5541
  691SOL    HW2 2073   0.039   1.074   1.911 -2.7057  0.5548  0.3426
  692SOL     OW 2074   0.994   0.652   1.965 -0.9430  0.4591 -0.0403
  692SOL    HW1 2075   1.017   0.564   2.004  1.2943 -0.0585  2.1176
  692SOL    HW2 2076   0.972   0.653   1.865  1.1621 -0.3517  2.2884
  693SOL     OW 2077   0.472   1.201   2.365  0.1422 -0.0833 -0.5196
  693SOL    HW1 2078   0.536   1.281   2.362 -0.0880  1.1836  1.5496
  693SOL    HW2 2079   0.399   1.223   2.434 -3.1293 -4.2775  2.1459
  694SOL     OW 2080   1.513   1.547   0.416  0.4365  0.1101 -0.1101
  694SOL    HW1 2081   1.573   1.465   0.437  0.9000  0.5626 -0.1510
  694SOL    HW2 2082   1.544   1.633   0.463  0.9635 -2.2354 -1.6174
  695SOL     OW 2083   0.622   1.185   1.316 -0.1732  0.0866 -0.7090
  695SOL    HW1 2084   0.662   1.206   1.223  0.1758  1.4691 -3.2432
  695SOL    HW2 2085   0.522   1.189   1.311  3.6483 -0.7703  1.5251
  696SOL     OW 2086   0.353   2.703   0.431 -0.3486 -0.1600  0.0049
  696SOL    HW1 2087   0.273   2.696   0.492  1.7683  0.5816 -0.3509
  696SOL    HW2 2088   0.422   2.748   0.485 -1.6433 -2.7848 -2.8027
  697SOL     OW 2089   1.581   0.576   1.368  0.7911 -0.0885  0.1087
  697SOL    HW1 2090   1.641   0.496   1.340  3.5375 -0.5358  0.5918
  697SOL    HW2 2091   1.514   0.602   1.297 -0.6279 -3.0058  0.5618
  698SOL     OW 2092   1.424   1.552   1.617  0.4296  0.2546  0.0715
  698SOL    HW1 2093   1.415   1.617   1.692  0.9790  0.7150 -0.1074
  698SOL    HW2 2094   1.462   1.464   1.656 -0.1956 -1.8798 -0.2491
  699SOL     OW 2095   0.043   0.496   2.402  0.1694 -0.4112  0.1522
  699SOL    HW1 2096   3.026   0.541   2.378 -2.6401  0.9783 -2.4399
  699SOL    HW2 2097   0.123   0.543   2.359  0.9338  0.6875 -0.3479
  700SOL     OW 2098   1.538   2.731   0.815 -0.3253 -0.1732 -0.6351
  700SOL    HW1 2099   1.555   2.773   0.912  0.3309  0.5480  2.4527
  700SOL    HW2 2100   1.616   2.712   0.755  0.4653 -0.7026 -0.0894
  701SOL     OW 2101   0.333   1.531   2.727 -0.5411  0.3514  0.4834
  701SOL    HW1 2102   0.238   1.528   2.756 -1.8976 -0.3489 -1.0400
  701SOL    HW2 2103   0.400   1.568   2.800  0.7273 -0.8858 -0.0627
  702SOL     OW 2104   0.504   0.382   2.865  0.1751  0.4293 -0.1607
  702SOL    HW1 2105   0.402   0.360   2.857 -1.4246  0.1357 -1.9663
  702SOL    HW2 2106   0.547   0.331   2.938 -0.5691 -1.3997 -2.8588
  703SOL     OW 2107   1.795   3.026   2.425 -0.4761  0.1890 -0.0666
  703SOL    HW1 2108   1.736   3.051   2.503  3.7393 -0.8530 -1.4364
  703SOL    HW2 2109   1.739   3.004   2.349  3.8601  2.3840  4.5127
  704SOL     OW 2110   2.670   1.765   0.367  0.0695  0.0746  0.1866
  704SOL    HW1 2111   2.581   1.801   0.331 -2.1630  0.6380  0.4915
  704SOL    HW2 2112   2.718   1.847   0.409  2.6769 -3.1750  1.0992
  705SOL     OW 2113   2.771   1.792   2.170  0.3193 -0.2660 -0.5247
  705SOL    HW1 2114   2.721   1.721   2.113  2.2729 -2.0169 -2.5120
  705SOL    HW2 2115   2.723   1.878   2.181  0.3935  0.8767 -1.3925
  706SOL     OW 2116   2.853   2.702   0.634  0.0420 -0.0963 -0.0727
  706SOL    HW1 2117   2.912   2.684   0.716 -0.0087  0.0683 -2.1276
  706SOL    HW2 2118   2.911   2.750   0.564  2.3538  1.2791  3.5829
  707SOL     OW 2119   0.931   2.840   0.408 -0.3050 -0.6425 -0.0090
  707SOL    HW1 2120   1.033   2.831   0.409  1.0144  2.2432  1.8770
  707SOL    HW2 2121   0.903   2.896   0.326 -3.1948 -0.1359 -2.3566
  708SOL     OW 2122   0.544   2.192   1.440 -0.4342 -0.4513 -0.1034
  708SOL    HW1 2123   0.482   2.138   1.374 -0.0216 -2.5759  0.1070
  708SOL    HW2 2124   0.618   2.238   1.387  0.7232 -2.2378 -1.7184
  709SOL     OW 2125   1.679   0.004   1.987 -0.5170  0.0839 -0.1155
  709SOL    HW1 2126   1.650   0.063   2.065 -0.7146 -1.4916 -0.4439
  709SOL    HW2 2127   1.725   2.991   2.018  0.7342 -0.6980  0.1463
  710SOL     OW 2128   1.535   2.768   2.558 -0.0936 -0.2326 -0.3669
  710SOL    HW1 2129   1.533   2.675   2.517 -1.3600  1.2122 -1.9968
  710SOL    HW2 2130   1.575   2.836   2.494 -2.4788 -0.0862 -0.8277
  711SOL     OW 2131   1.147   2.514   2.948 -0.6654  0.0547 -0.0761
  711SOL    HW1 2132   1.047   2.507   2.923 -2.6293  1.4181  0.0791
  711SOL    HW2 2133   1.206   2.444   2.901  0.4878  0.6842  2.6219
  712SOL     OW 2134   1.102   2.095   2.821  0.0413 -0.3041  0.3723
  712SOL    HW1 2135   1.152   2.187   2.830 -0.9406  3.3382  1.0121
  712SOL    HW2 2136   1.080   2.074   2.727  1.5355  2.7171  1.6333
  713SOL     OW 2137   1.350   1.076   1.572  0.4511  0.4793  0.1699
  713SOL    HW1 2138   1.306   1.162   1.539  0.7296 -1.5127 -0.7466
  713SOL    HW2 2139   1.280   1.014   1.608  2.4113 -0.2955 -0.0114
  714SOL     OW 2140   1.395   1.419   1.145 -0.1329  0.4000 -0.1532
  714SOL    HW1 2141   1.449   1.394   1.230 -2.3200  1.0575 -1.6790
  714SOL    HW2 2142   1.387   1.520   1.134  4.2669 -0.5378 -0.0609
  715SOL     OW 2143   2.494   0.022   0.701 -0.5438  0.0383 -0.5624
  715SOL    HW1 2144   2.448   3.009   0.732 -0.1704  1.4317 -1.4641
  715SOL    HW2 2145   2.516   0.086   0.779  1.3104  0.8065 -1.0043
  716SOL     OW 2146   0.561   2.778   0.690 -0.0861  0.3223 -0.0183
  716SOL    HW1 2147   0.612   2.720   0.622 -0.7130  0.8690  1.0726
  716SOL    HW2 2148   0.618   2.819   0.763  1.1265  0.8445  1.2841
  717SOL     OW 2149   0.058   0.314   0.066 -0.2929 -0.3268  0.0659
  717SOL    HW1 2150   3.042   0.329   0.016 -0.9368  0.2379  2.5905
  717SOL    HW2 2151   0.074   0.217   0.093 -0.8916  2.5493 -1.5910
  718SOL     OW 2152   1.706   1.659   1.325  0.4243  0.0257 -0.1180
  718SOL    HW1 2153   1.721   1.701   1.416 -1.1655 -2.4976 -0.1495
  718SOL    HW2 2154   1.632   1.583   1.338 -1.5133 -1.2937  1.9206
  719SOL     OW 2155   2.705   2.301   0.331 -0.3953 -0.0643 -0.6230
  719SOL    HW1 2156   2.745   2.234   0.395 -2.7541  3.4812 -0.4291
  719SOL    HW2 2157   2.723   2.392   0.371 -0.7713  0.1351  0.9499
  720SOL     OW 2158   1.115   0.858   0.740 -0.6212  0.6495  0.4000
  720SOL    HW1 2159   1.152   0.875   0.832 -1.2634  1.4894  0.2928
  720SOL    HW2 2160   1.164   0.919   0.674  4.2125 -1.2688  0.0770
  721SOL     OW 2161   1.487   0.080   1.064 -0.1873  0.3790 -0.0139
  721SOL    HW1 2162   1.464   0.167   1.028 -1.1019 -4.6409  2.0375
  721SOL    HW2 2163   1.486   0.079   1.162 -1.4799 -0.4141 -3.3874
  722SOL     OW 2164   1.083   1.361   2.098  0.1984 -0.4112  0.0763
  722SOL    HW1 2165   1.174   1.385   2.058  2.5436  1.5927 -4.5244
  722SOL    HW2 2166   1.010   1.396   2.034 -1.2749 -0.6227 -0.5796
  723SOL     OW 2167   0.903   0.096   1.696 -0.2101 -0.7272  0.2024
  723SOL    HW1 2168   0.996   0.124   1.662 -1.2257 -1.7738  2.6671
  723SOL    HW2 2169   0.914   0.021   1.764 -1.7087 -1.1763  1.7555
  724SOL     OW 2170   1.987   2.038   1.975 -0.0444 -0.1054  0.0215
  724SOL    HW1 2171   1.927   2.061   1.898  1.4370 -1.1924  1.6131
  724SOL    HW2 2172   2.030   1.955   1.953 -2.0550  2.3775 -0.8307
  725SOL     OW 2173   0.944   2.714   1.288 -0.3916  0.3006 -0.7931
  725SOL    HW1 2174   1.007   2.740   1.362 -0.2194  1.2593  1.8621
  725SOL    HW2 2175   0.878   2.655   1.333 -1.6710  0.9209 -2.4170
  726SOL     OW 2176   1.684   2.684   0.008  0.3622 -0.1861 -0.1060
  726SOL    HW1 2177   1.634   2.666   2.989 -0.4647 -1.6304 -1.3138
  726SOL    HW2 2178   1.786   2.692   3.071 -2.5201  0.5937 -1.6172
  727SOL     OW 2179   1.364   1.802   0.770 -0.2067 -0.5278  0.6026
  727SOL    HW1 2180   1.273   1.762   0.750 -0.4508  1.1377 -0.6397
  727SOL    HW2 2181   1.437   1.752   0.717 -1.2710  2.2140 -0.3358
  728SOL     OW 2182   1.963   2.740   2.426 -0.1391  0.4256  0.1758
  728SOL    HW1 2183   1.924   2.834   2.434 -0.5093  0.3449 -2.3245
  728SOL    HW2 2184   2.063   2.743   2.429 -1.4834 -1.4497  0.4409
  729SOL     OW 2185   2.352   1.826   1.450 -0.1032 -0.4493 -0.2436
  729SOL    HW1 2186   2.346   1.885   1.532  0.0767  2.2920  1.1468
  729SOL    HW2 2187   2.261   1.809   1.407 -0.5875  0.2824 -0.1565
  730SOL     OW 2188   1.814   0.580   2.458 -0.3858  0.3058 -0.7945
  730SOL    HW1 2189   1.871   0.496   2.462  0.5667 -0.9328  0.5705
  730SOL    HW2 2190   1.842   0.627   2.545  0.5186 -0.0645  2.1684
  731SOL     OW 2191   0.514   0.105   1.290  0.3613  0.1237  0.0653
  731SOL    HW1 2192   0.424   0.078   1.336 -1.7347 -2.7760 -0.3564
  731SOL    HW2 2193   0.507   0.200   1.263 -0.2654 -2.3599 -0.9041
  732SOL     OW 2194   1.759   0.012   0.976  1.4017 -0.0333  0.4278
  732SOL    HW1 2195   1.660   0.021   0.970 -0.6214  1.6031 -2.2941
  732SOL    HW2 2196   1.779   3.028   1.060 -2.7110 -0.9432  1.2743
  733SOL     OW 2197   0.930   1.422   1.224  0.1092  0.1370  0.0822
  733SOL    HW1 2198   0.847   1.446   1.169 -0.7008  1.2148  0.4722
  733SOL    HW2 2199   0.923   1.471   1.310  0.5768 -0.1099 -0.2346
  734SOL     OW 2200   2.456   1.868   0.238 -0.0908  0.3570  0.0969
  734SOL    HW1 2201   2.420   1.775   0.218 -0.7226  0.9443 -2.0070
  734SOL    HW2 2202   2.511   1.905   0.161 -0.4176  0.0222  0.9972
  735SOL     OW 2203   0.352   0.727   0.416  0.1808 -0.3196 -0.7755
  735SOL    HW1 2204   0.386   0.658   0.346 -1.5587 -2.5190 -0.4625
  735SOL    HW2 2205   0.405   0.726   0.502 -1.1108  1.0391  1.1097
  736SOL     OW 2206   1.933   2.473   2.513  0.0036 -0.8050  0.1194
  736SOL    HW1 2207   2.023   2.426   2.506 -1.0114  0.3041  0.5220
  736SOL    HW2 2208   1.938   2.574   2.501 -0.4522 -2.1081 -0.0899
  737SOL     OW 2209   1.032   1.948   1.236  0.6883 -0.3259  0.0204
  737SOL    HW1 2210   1.052   1.964   1.135 -0.0495  0.5653 -0.2093
  737SOL    HW2 2211   1.029   2.034   1.294 -0.4218 -0.6550 -0.3138
  738SOL     OW 2212   1.796   2.701   2.190  0.0834  0.4449  0.2108
  738SOL    HW1 2213   1.716   2.656   2.228  1.2654  2.9604 -1.9516
  738SOL    HW2 2214   1.866   2.710   2.266  0.4036 -0.9766  0.1222
  739SOL     OW 2215   1.311   2.071   2.279 -0.4704  0.1930  0.1321
  739SOL    HW1 2216   1.396   2.128   2.263 -0.6323 -0.1284  0.6626
  739SOL    HW2 2217   1.332   1.974   2.297 -0.2065  0.2843  0.4729
  740SOL     OW 2218   2.048   2.245   1.758 -0.1995  0.6091  0.0790
  740SOL    HW1 2219   2.103   2.192   1.824  2.7012  1.1553 -0.3268
  740SOL    HW2 2220   1.962   2.287   1.792  1.1423 -1.1796  0.4779
  741SOL     OW 2221   2.154   1.823   2.979  0.7316 -0.1701  0.1635
  741SOL    HW1 2222   2.103   1.738   3.003  2.9570  1.0376 -0.4329
  741SOL    HW2 2223   2.243   1.802   2.938  0.6617  2.1831 -0.0921
  742SOL     OW 2224   0.682   1.253   2.865  0.1275  0.1880 -0.4321
  742SOL    HW1 2225   0.597   1.274   2.922 -2.8589 -1.2489  0.9249
  742SOL    HW2 2226   0.667   1.164   2.820 -1.1316 -0.6494 -0.3898
  743SOL     OW 2227   1.766   0.918   2.743  0.4540  0.0975 -0.4708
  743SOL    HW1 2228   1.799   1.015   2.739 -1.1808  0.4717  0.0019
  743SOL    HW2 2229   1.689   0.907   2.678  1.0449  1.3263  1.1895
  744SOL     OW 2230   2.012   2.961   1.349  0.1984 -0.0590 -0.3592
  744SOL    HW1 2231   2.092   2.908   1.379 -1.5468  1.2559 -2.7121
  744SOL    HW2 2232   2.021   3.056   1.376  0.0234 -1.2973 -3.1082
  745SOL     OW 2233   2.425   1.323   1.088 -0.0882  0.5729 -0.4513
  745SOL    HW1 2234   2.479   1.254   1.137  1.3349 -2.0195  2.5700
  745SOL    HW2 2235   2.438   1.329   0.984 -0.3943  2.4059 -2.8925
  746SOL     OW 2236   2.643   1.869   0.876 -0.0727 -0.4151 -0.3181
  746SOL    HW1 2237   2.624   1.807   0.956 -1.6113  1.1852  2.3437
  746SOL    HW2 2238   2.731   1.848   0.839 -2.1458 -2.2595  0.2488
  747SOL     OW 2239   1.986   2.813   0.205 -0.4986  0.4234  0.4188
  747SOL    HW1 2240   2.085   2.805   0.205 -1.3772  0.0851  2.5390
  747SOL    HW2 2241   1.948   2.780   0.295 -0.0550  0.3065 -1.4787
  748SOL     OW 2242   0.884   2.194   2.912  0.0972 -0.9827 -0.0959
  748SOL    HW1 2243   0.967   2.140   2.878 -0.2728 -1.3037 -0.9289
  748SOL    HW2 2244   0.807   2.188   2.839 -1.2507  1.7244 -1.3201
  749SOL     OW 2245   2.762   0.418   2.278 -0.4770 -0.8895  0.0100
  749SOL    HW1 2246   2.825   0.345   2.251  1.1048  3.1083 -1.5481
  749SOL    HW2 2247   2.809   0.510   2.276  1.8868  1.7252 -0.9415
  750SOL     OW 2248   1.211   0.373   1.771  0.3902 -0.7733 -0.0208
  750SOL    HW1 2249   1.161   0.349   1.858 -0.4768 -0.3425  1.5867
  750SOL    HW2 2250   1.295   0.421   1.803 -0.4864 -0.9871  1.9988
  751SOL     OW 2251   2.376   2.365   1.880  0.0583  0.3179 -0.1775
  751SOL    HW1 2252   2.408   2.288   1.823 -1.8492  0.6332 -1.5519
  751SOL    HW2 2253   2.407   2.457   1.847  0.7310 -1.3831 -1.6612
  752SOL     OW 2254   1.861   1.468   1.219  0.1645 -0.3163  1.0894
  752SOL    HW1 2255   1.811   1.545   1.270 -1.1019 -0.0027  0.3053
  752SOL    HW2 2256   1.796   1.429   1.154  4.5605  2.8408  0.9288
  753SOL     OW 2257   1.548   0.867   2.268  0.2954 -0.5722 -0.3407
  753SOL    HW1 2258   1.535   0.810   2.181 -0.6468 -1.7542  4.6293
  753SOL    HW2 2259   1.471   0.844   2.329  1.1645  1.1220 -1.0345
  754SOL     OW 2260   0.092   2.420   0.897  0.1732 -0.3168  0.3285
  754SOL    HW1 2261   0.172   2.477   0.936  3.3751  3.2083  1.6475
  754SOL    HW2 2262   0.043   2.366   0.973  0.8361 -0.1755 -1.3246
  755SOL     OW 2263   2.558   2.824   1.270 -0.4721 -0.2280  0.1161
  755SOL    HW1 2264   2.567   2.888   1.349 -1.7075  0.2507  0.7161
  755SOL    HW2 2265   2.614   2.740   1.291  2.4173 -1.9315 -2.6352
  756SOL     OW 2266   1.717   1.407   2.438 -0.1820  0.6890 -0.3370
  756SOL    HW1 2267   1.686   1.321   2.394  0.7745 -0.4763  0.3513
  756SOL    HW2 2268   1.638   1.466   2.466 -1.6605  2.1921 -0.5967
  757SOL     OW 2269   2.985   2.953   1.834 -0.0335  0.0647 -0.1753
  757SOL    HW1 2270   2.934   2.935   1.920  3.3912  0.4935  0.0170
  757SOL    HW2 2271   2.933   3.025   1.786  2.1752 -0.6276 -2.2022
  758SOL     OW 2272   0.413   2.699   1.472  0.0725 -0.1475 -0.2353
  758SOL    HW1 2273   0.439   2.747   1.386  0.3356 -2.1822 -3.0892
  758SOL    HW2 2274   0.403   2.600   1.451 -1.1732 -1.8369 -0.4060
  759SOL     OW 2275   2.229   1.123   1.065 -0.8242 -0.0750  0.7286
  759SOL    HW1 2276   2.253   1.060   1.143  2.0420 -3.3036  1.5575
  759SOL    HW2 2277   2.239   1.220   1.081 -0.5564 -1.4626  1.6208
  760SOL     OW 2278   1.725   0.186   1.486 -0.5817  0.0920 -0.4837
  760SOL    HW1 2279   1.818   0.177   1.535  0.9245 -2.5233  4.7347
  760SOL    HW2 2280   1.735   0.261   1.415  1.8620  2.9747 -1.2666
  761SOL     OW 2281   2.174   0.343   0.575 -0.8931 -0.1403 -0.1537
  761SOL    HW1 2282   2.160   0.282   0.495 -1.2252  1.3621  1.7190
  761SOL    HW2 2283   2.226   0.428   0.550  2.0064 -0.2382  0.1248
  762SOL     OW 2284   2.225   2.690   0.136  0.5130  0.5308  0.2312
  762SOL    HW1 2285   2.300   2.686   0.204 -0.7335  0.9753  0.8260
  762SOL    HW2 2286   2.175   2.600   0.128  0.8252 -2.1719  0.4439
  763SOL     OW 2287   1.058   0.617   1.329  0.1158 -0.2166  0.3904
  763SOL    HW1 2288   1.077   0.529   1.280 -0.0148  1.8016 -0.9375
  763SOL    HW2 2289   1.029   0.688   1.263 -2.1892  0.8635 -0.3747
  764SOL     OW 2290   2.491   2.660   2.460  0.3948 -0.5072 -0.6173
  764SOL    HW1 2291   2.552   2.612   2.393  1.7448 -1.9892 -2.0526
  764SOL    HW2 2292   2.470   2.593   2.537 -2.6967 -0.3302  2.7812
  765SOL     OW 2293   0.106   1.148   2.642  0.2253  0.6686  0.1363
  765SOL    HW1 2294   0.100   1.045   2.632 -0.1466  0.2176  2.4164
  765SOL    HW2 2295   0.183   1.197   2.592  1.5323  2.1071  0.6778
  766SOL     OW 2296   2.812   1.399   2.554 -0.3395  0.3079  0.1696
  766SOL    HW1 2297   2.726   1.454   2.543 -0.7447 -1.6005 -0.0136
  766SOL    HW2 2298   2.890   1.461   2.538 -2.9282  0.0572 -0.1304
  767SOL     OW 2299   3.060   2.092   1.611  0.1787  0.8628  0.2294
  767SOL    HW1 2300   3.013   2.006   1.578  1.6922 -3.6506 -0.2935
  767SOL    HW2 2301   0.017   2.078   1.707  2.5860  2.1516 -3.1781
  768SOL     OW 2302   1.050   0.845   2.698  0.4971  0.5905  0.4903
  768SOL    HW1 2303   0.969   0.785   2.691 -0.4536  1.9972  0.4395
  768SOL    HW2 2304   1.068   0.889   2.790 -0.4699 -2.2699  0.5595
  769SOL     OW 2305   1.582   2.699   2.830  0.2017  0.4742 -0.5695
  769SOL    HW1 2306   1.593   2.711   2.729 -0.1636 -0.5363  0.4661
  769SOL    HW2 2307   1.563   2.786   2.880 -2.0465  0.7861  1.0966
  770SOL     OW 2308   0.986   0.147   2.330  0.5447  0.4389 -0.5095
  770SOL    HW1 2309   0.887   0.157   2.296 -3.2368  1.7542 -0.4931
  770SOL    HW2 2310   0.995   0.060   2.383 -1.1278 -0.2399 -0.3809
  771SOL     OW 2311   0.837   2.533   0.846  0.2656  0.2252 -0.0619
  771SOL    HW1 2312   0.790   2.590   0.774 -0.1181  2.5321  1.9793
  771SOL    HW2 2313   0.929   2.568   0.875  1.0000  0.7167 -1.0068
  772SOL     OW 2314   2.899   1.115   0.435  0.1074  0.1803 -0.2824
  772SOL    HW1 2315   2.853   1.160   0.514 -1.2163  0.7638  0.6424
  772SOL    HW2 2316   2.837   1.037   0.406  1.2195  1.4850 -2.2916
  773SOL     OW 2317   1.661   0.954   1.924 -0.5094 -0.0816  0.6951
  773SOL    HW1 2318   1.733   0.882   1.922  0.6545 -0.4620 -1.7795
  773SOL    HW2 2319   1.622   0.969   1.830  0.8821 -1.8637 -1.6694
  774SOL     OW 2320   0.528   0.793   0.625  0.2568 -0.0724 -0.7066
  774SOL    HW1 2321   0.548   0.846   0.717  1.7860 -0.7438  2.9370
  774SOL    HW2 2322   0.604   0.728   0.604 -0.3051  2.5484 -2.0619
  775SOL     OW 2323   1.611   0.034   0.075 -0.5965  0.1872 -0.1285
  775SOL    HW1 2324   1.535   3.068   0.133  1.1101 -1.2416 -3.0316
  775SOL    HW2 2325   1.619   0.135   0.093  1.5066 -1.9847  0.6082
  776SOL     OW 2326   2.279   0.180   2.543  0.7233 -0.2784 -0.4559
  776SOL    HW1 2327   2.244   0.270   2.592 -1.2592  3.9010  2.3722
  776SOL    HW2 2328   2.202   0.125   2.510 -0.7858  3.1751 -1.3679
  777SOL     OW 2329   1.016   1.527   3.070  0.3972  0.0110 -0.3777
  777SOL    HW1 2330   1.093   1.470   3.036 -1.9983  1.2249 -1.6538
  777SOL    HW2 2331   0.942   1.468   0.037  0.5938  0.3613  0.3781
  778SOL     OW 2332   0.084   2.637   0.191  0.5682 -0.2445  0.2609
  778SOL    HW1 2333   0.135   2.571   0.246 -0.7555  0.0183 -0.2908
  778SOL    HW2 2334   0.121   2.731   0.209 -0.2254 -3.5171  0.1723
  779SOL     OW 2335   0.395   1.183   0.234  0.2199 -0.9461  0.7408
  779SOL    HW1 2336   0.327   1.259   0.247 -0.6121  0.5709  1.5905
  779SOL    HW2 2337   0.343   1.102   0.266  2.4143  0.7774 -0.3266
  780SOL     OW 2338   1.997   0.139   2.113 -0.1660 -0.2024  0.0209
  780SOL    HW1 2339   2.088   0.184   2.108  0.6083  0.2769  2.2528
  780SOL    HW2 2340   1.937   0.191   2.051 -1.4110 -1.5808  1.2151
  781SOL     OW 2341   1.793   1.217   1.602 -0.4093 -0.1195 -0.2491
  781SOL    HW1 2342   1.742   1.137   1.563  1.4984 -1.5302 -0.2385
  781SOL    HW2 2343   1.854   1.262   1.532  4.1031  1.2050  0.1534
  782SOL     OW 2344   1.835   1.906   2.251 -0.1154  0.2010  0.3380
  782SOL    HW1 2345   1.878   1.993   2.289 -0.4678  3.0006 -1.2569
  782SOL    HW2 2346   1.905   1.835   2.236 -4.6793  1.6248  1.4129
  783SOL     OW 2347   1.247   0.125   2.021  0.0670  0.4517  0.2119
  783SOL    HW1 2348   1.190   0.045   2.057  0.2325 -0.8584  1.0690
  783SOL    HW2 2349   1.309   0.093   1.947 -0.2648  0.6796  3.0256
  784SOL     OW 2350   1.874   1.092   2.468  0.2148  0.1508  0.3267
  784SOL    HW1 2351   1.942   1.033   2.418  2.1961  1.4930  0.0563
  784SOL    HW2 2352   1.794   1.118   2.411 -2.0866  2.3348 -0.6186
  785SOL     OW 2353   1.767   0.630   0.527  0.1551 -0.2356 -0.1445
  785SOL    HW1 2354   1.788   0.653   0.427 -0.7527 -1.4217 -0.6129
  785SOL    HW2 2355   1.677   0.672   0.555  1.7573 -2.6667  0.6431
  786SOL     OW 2356   0.023   1.860   0.501  0.8478 -0.4273  0.2588
  786SOL    HW1 2357   0.039   1.856   0.604  0.9187 -0.9182 -0.1651
  786SOL    HW2 2358   0.013   1.767   0.461  0.2655  2.7054 -1.5250
  787SOL     OW 2359   1.638   2.217   0.383  0.4973  0.3442 -0.8502
  787SOL    HW1 2360   1.554   2.171   0.420 -0.5887 -1.0428 -0.5744
  787SOL    HW2 2361   1.668   2.302   0.431 -0.1710 -2.1948 -0.6893
  788SOL     OW 2362   1.978   1.760   1.636 -0.0358  0.1309 -0.0125
  788SOL    HW1 2363   1.941   1.840   1.581 -0.0337  3.3031  1.0725
  788SOL    HW2 2364   1.906   1.685   1.641 -1.3729  0.3178  1.1824
  789SOL     OW 2365   3.026   1.574   2.501 -0.4375  0.6614  0.3676
  789SOL    HW1 2366   3.005   1.642   2.574 -0.5578  0.9032  0.0751
  789SOL    HW2 2367   0.048   1.525   2.511  3.1367  0.0038 -1.3211
  790SOL     OW 2368   0.592   3.050   2.815  0.0257  0.1572 -0.1566
  790SOL    HW1 2369   0.625   0.060   2.760  1.7899  1.2226  0.4768
  790SOL    HW2 2370   0.494   3.049   2.844  0.7494 -0.5050  1.1083
  791SOL     OW 2371   0.963   2.956   2.743 -0.5760 -0.4229 -0.6071
  791SOL    HW1 2372   0.880   2.905   2.784 -2.8642  3.3555  2.2108
  791SOL    HW2 2373   0.991   3.036   2.804 -0.3767 -0.4133  1.4013
  792SOL     OW 2374   1.701   0.469   1.955  0.5630  0.1737  0.0297
  792SOL    HW1 2375   1.684   0.490   2.052  1.1069  1.2987 -0.9758
  792SOL    HW2 2376   1.634   0.523   1.895 -1.5746  1.4422  1.2906
  793SOL     OW 2377   2.699   0.139   1.954 -0.4716 -0.2435 -0.2910
  793SOL    HW1 2378   2.712   0.127   1.855  1.2674 -2.2368 -1.8858
  793SOL    HW2 2379   2.667   0.237   1.971  0.2626  1.9726 -2.8236
  794SOL     OW 2380   0.587   0.697   1.848 -0.1021  0.4405  0.2302
  794SOL    HW1 2381   0.624   0.649   1.930  1.3488  1.3045 -2.1784
  794SOL    HW2 2382   0.509   0.752   1.873  2.6649 -1.3869 -0.5941
  795SOL     OW 2383   3.047   1.592   0.401  0.6515 -0.8482  0.0696
  795SOL    HW1 2384   2.975   1.522   0.412  2.8229  0.1218 -1.5625
  795SOL    HW2 2385   0.020   1.585   0.309 -0.5900  0.2974 -0.7838
  796SOL     OW 2386   2.759   2.585   2.790  0.3175  0.8383 -0.0925
  796SOL    HW1 2387   2.746   2.635   2.877  0.1549  0.0274 -0.2021
  796SOL    HW2 2388   2.685   2.513   2.788  0.0054 -1.7217  1.7256
  797SOL     OW 2389   2.474   2.208   0.289  0.2831 -0.4644 -0.1969
  797SOL    HW1 2390   2.425   2.259   0.214 -1.0283 -0.2305 -1.1218
  797SOL    HW2 2391   2.571   2.241   0.292 -1.5361  2.8924  1.6476
  798SOL     OW 2392   0.326   0.995   1.481  0.2234  0.0474  0.7897
  798SOL    HW1 2393   0.262   0.920   1.513 -3.4102 -0.3228  1.1110
  798SOL    HW2 2394   0.285   1.088   1.486  1.3449 -2.1833  1.3917
  799SOL     OW 2395   2.906   0.672   2.275  0.0155 -0.4567 -0.2803
  799SOL    HW1 2396   2.890   0.762   2.321  0.1240  1.1917  1.6886
  799SOL    HW2 2397   2.921   0.687   2.175  0.0389  0.9969 -0.3687
  800SOL     OW 2398   2.802   2.050   0.456 -0.2499 -0.1032 -0.5618
  800SOL    HW1 2399   2.866   2.031   0.377 -1.9778 -0.4803 -1.2046
  800SOL    HW2 2400   2.861   2.064   0.539 -2.2399  1.0789  1.2693
  801SOL     OW 2401   1.316   1.129   0.801  0.8850 -0.2072  0.1441
  801SOL    HW1 2402   1.261   1.115   0.716  0.5209  0.9786 -0.1235
  801SOL    HW2 2403   1.249   1.172   0.862  0.6849  0.5303  2.2397
  802SOL     OW 2404   1.382   1.685   1.069 -0.2566 -0.1173 -0.9824
  802SOL    HW1 2405   1.468   1.739   1.074 -0.7099  1.9563 -1.9045
  802SOL    HW2 2406   1.362   1.668   0.974  2.1992  0.8310  1.6470
  803SOL     OW 2407   3.012   2.023   0.292  0.5096 -0.1084  0.3672
  803SOL    HW1 2408   3.043   1.947   0.350  0.6899  2.8953  1.2990
  803SOL    HW2 2409   0.024   2.072   0.259 -0.4207 -2.5409 -0.4703
  804SOL     OW 2410   1.377   2.511   0.898  0.2091  0.5840  0.2697
  804SOL    HW1 2411   1.299   2.477   0.843  1.0103 -0.3508  1.5903
  804SOL    HW2 2412   1.435   2.574   0.842  0.5534 -0.7465 -0.1834
  805SOL     OW 2413   1.567   1.533   2.762  0.7378 -0.0009 -0.1762
  805SOL    HW1 2414   1.544   1.532   2.861 -0.3588 -2.0028  1.2998
  805SOL    HW2 2415   1.564   1.441   2.720  1.2610 -2.3390 -1.5190
  806SOL     OW 2416   1.534   2.882   1.432  1.0583 -0.5395  0.0886
  806SOL    HW1 2417   1.504   2.909   1.527  0.4822  0.9202 -0.1640
  806SOL    HW2 2418   1.483   2.799   1.407 -0.1304 -0.0614 -1.3427
  807SOL     OW 2419   1.908   2.966   2.728 -0.1622  0.1840 -0.5235
  807SOL    HW1 2420   1.834   3.005   2.674  1.3391  1.8867 -0.8293
  807SOL    HW2 2421   1.951   3.031   2.795 -0.2645  2.4069 -0.5615
  808SOL     OW 2422   0.214   1.388   0.304  0.4322  0.1097  0.5451
  808SOL    HW1 2423   0.145   1.343   0.366 -0.1108 -2.0098  0.5784
  808SOL    HW2 2424   0.277   1.446   0.360 -1.5446 -0.6103 -0.3089
  809SOL     OW 2425   2.182   0.893   2.169  0.2246 -0.0484  0.7348
  809SOL    HW1 2426   2.241   0.892   2.088  1.4907 -1.6820 -0.5377
  809SOL    HW2 2427   2.148   0.993   2.187 -0.2723  0.7117  1.9475
  810SOL     OW 2428   2.950   0.218   2.217  0.4667  0.6481  0.0101
  810SOL    HW1 2429   3.043   0.234   2.253  0.6866 -2.2967  1.6740
  810SOL    HW2 2430   2.942   0.214   2.116  1.7855 -0.7218 -1.8882
  811SOL     OW 2431   2.216   2.270   1.565 -0.2188 -0.0170 -0.2418
  811SOL    HW1 2432   2.137   2.262   1.642 -0.0354 -0.7951  1.3461
  811SOL    HW2 2433   2.248   2.368   1.555  1.9835  3.4435  0.3651
  812SOL     OW 2434   1.521   0.503   0.031 -0.0957 -0.4334  0.1559
  812SOL    HW1 2435   1.418   0.506   0.048 -0.6569 -0.0172  0.7005
  812SOL    HW2 2436   1.563   0.600   0.023  3.2356  2.6940  1.4771
  813SOL     OW 2437   1.989   0.584   1.884  0.1421 -0.2980 -0.0725
  813SOL    HW1 2438   1.910   0.523   1.901 -0.7031 -1.5309 -0.5175
  813SOL    HW2 2439   2.058   0.542   1.829 -2.9880  3.2820  1.3260
  814SOL     OW 2440   1.986   1.333   1.414  0.6936  0.3729 -0.0188
  814SOL    HW1 2441   2.086   1.350   1.410 -1.0133 -0.6211 -1.6251
  814SOL    HW2 2442   1.939   1.375   1.329 -1.1847  1.3639 -3.3439
  815SOL     OW 2443   0.669   0.989   0.438  0.0157 -0.1613 -0.0164
  815SOL    HW1 2444   0.598   0.946   0.492 -1.1914 -1.0175 -2.8153
  815SOL    HW2 2445   0.644   0.987   0.340  1.9779 -4.2221  0.7028
  816SOL     OW 2446   1.642   2.045   2.766  0.6897  0.4479 -0.2309
  816SOL    HW1 2447   1.677   1.974   2.704 -0.9117  0.6253  1.5534
  816SOL    HW2 2448   1.630   2.138   2.725 -0.7186  3.4781  1.0753
  817SOL     OW 2449   2.988   2.648   0.860 -0.1151  0.2975 -0.0796
  817SOL    HW1 2450   3.057   2.722   0.857  0.5261  0.1870 -1.7509
  817SOL    HW2 2451   3.035   2.559   0.844 -1.6218  1.2887  0.2495
  818SOL     OW 2452   1.333   0.209   2.917 -0.1554  0.5820  0.0265
  818SOL    HW1 2453   1.264   0.275   2.896  1.2154 -0.0634  2.0849
  818SOL    HW2 2454   1.361   0.206   3.018 -1.8475  0.3457 -1.2884
  819SOL     OW 2455   0.652   0.973   0.786  0.0345 -0.3774  0.4370
  819SOL    HW1 2456   0.717   1.052   0.772  0.4510 -0.5714 -0.2503
  819SOL    HW2 2457   0.621   0.953   0.877 -1.8200 -1.1832 -4.0192
  820SOL     OW 2458   2.213   0.721   1.235  0.1026  0.3827 -0.6272
  820SOL    HW1 2459   2.128   0.691   1.184 -1.1272  1.5185 -1.4519
  820SOL    HW2 2460   2.198   0.691   1.327  1.2142 -0.6627  0.6664
  821SOL     OW 2461   2.436   0.133   0.465 -0.2576 -0.2396 -0.0681
  821SOL    HW1 2462   2.457   0.096   0.561 -1.3113 -0.2790  2.0843
  821SOL    HW2 2463   2.338   0.109   0.443 -0.2988 -2.2218  0.4865
  822SOL     OW 2464   0.732   2.815   2.393 -0.1516  0.0830 -0.2187
  822SOL    HW1 2465   0.647   2.846   2.452 -3.1485  1.9369 -0.0689
  822SOL    HW2 2466   0.748   2.715   2.406  0.7497 -2.7697 -1.9604
  823SOL     OW 2467   2.934   1.559   1.755 -0.3102  0.4585  0.3256
  823SOL    HW1 2468   2.926   1.525   1.848 -0.6438 -1.2560 -0.3689
  823SOL    HW2 2469   2.876   1.511   1.684  0.0152 -0.2419 -1.9129
  824SOL     OW 2470   0.774   2.866   2.143 -0.1514  0.1936  0.1191
  824SOL    HW1 2471   0.731   2.835   2.228  0.9402 -0.2284 -4.6988
  824SOL    HW2 2472   0.836   2.794   2.104  2.0835 -2.1906  0.2923
  825SOL     OW 2473   1.156   1.906   0.162 -0.0850  0.6738  0.3997
  825SOL    HW1 2474   1.172   1.914   0.064  2.5071  1.2881  0.3464
  825SOL    HW2 2475   1.223   1.837   0.202 -1.4697 -0.1196  3.9432
  826SOL     OW 2476   1.136   2.709   2.711 -0.1367  0.5547 -0.1038
  826SOL    HW1 2477   1.056   2.765   2.696  4.5963 -1.8517  0.4136
  826SOL    HW2 2478   1.120   2.649   2.792 -2.7188 -0.0193 -0.8137
  827SOL     OW 2479   0.192   1.863   1.766  0.0929  0.2390 -0.4385
  827SOL    HW1 2480   0.207   1.841   1.868 -0.0700  0.5075  0.6110
  827SOL    HW2 2481   0.278   1.894   1.728  0.8192  1.6517  2.7906
  828SOL     OW 2482   0.064   1.663   1.071 -0.0987 -0.0983 -0.4709
  828SOL    HW1 2483   0.144   1.606   1.040 -1.1050 -1.3040 -1.5092
  828SOL    HW2 2484   0.101   1.741   1.125 -1.0921  0.5298  0.3595
  829SOL     OW 2485   2.918   2.517   0.020 -0.1727 -0.0318  0.1595
  829SOL    HW1 2486   3.019   2.524   0.017  0.0164  2.1058 -1.8552
  829SOL    HW2 2487   2.893   2.450   0.091 -0.4349 -1.4714 -1.2348
  830SOL     OW 2488   1.100   0.580   0.532 -0.3131 -0.2278 -0.7719
  830SOL    HW1 2489   1.142   0.594   0.626 -1.2757  0.4222  0.0911
  830SOL    HW2 2490   1.020   0.634   0.523  3.6700 -2.6322  1.1266
  831SOL     OW 2491   2.862   2.260   0.104  0.0510 -0.2451 -0.2815
  831SOL    HW1 2492   2.796   2.278   0.181  1.0350  1.8555  0.4081
  831SOL    HW2 2493   2.942   2.198   0.134 -0.1774 -2.7327  1.0943
  832SOL     OW 2494   1.318   2.391   0.446  0.0352 -0.1787 -0.7036
  832SOL    HW1 2495   1.346   2.307   0.503  3.7678 -3.4599  2.4591
  832SOL    HW2 2496   1.244   2.448   0.492 -0.6805 -0.0061 -0.1383
  833SOL     OW 2497   0.602   0.729   2.455 -0.1937  0.4568 -0.5279
  833SOL    HW1 2498   0.693   0.716   2.410  0.6101 -2.5411 -0.9111
  833SOL    HW2 2499   0.545   0.795   2.410  2.3090 -1.3527  2.3890
  834SOL     OW 2500   2.583   0.785   0.703  0.0330  0.4033  0.0422
  834SOL    HW1 2501   2.562   0.692   0.678 -1.7175  1.6450  0.8403
  834SOL    HW2 2502   2.526   0.808   0.791 -2.7808  0.8553 -1.2896
  835SOL     OW 2503   2.364   0.474   2.050 -0.2712  0.5678 -0.0605
  835SOL    HW1 2504   2.358   0.504   1.950  1.4990 -2.2929 -3.4097
  835SOL    HW2 2505   2.319   0.542   2.109  1.1845 -3.4128  0.8195
  836SOL     OW 2506   0.535   2.078   0.771 -0.2923 -0.4241  0.0383
  836SOL    HW1 2507   0.496   2.113   0.681 -0.8301  1.0096 -0.5474
  836SOL    HW2 2508   0.500   2.128   0.852  1.0645 -3.3282  0.2839
  837SOL     OW 2509   2.385   1.644   2.112 -1.0850 -0.2086  0.8873
  837SOL    HW1 2510   2.337   1.711   2.166  1.5194 -0.5651 -1.1847
  837SOL    HW2 2511   2.372   1.663   2.010  1.1837  2.7467  0.3523
  838SOL     OW 2512   0.115   1.261   2.242 -0.0196 -0.0627  0.1930
  838SOL    HW1 2513   0.152   1.164   2.240 -0.3043 -1.2016  0.1344
  838SOL    HW2 2514   0.047   1.274   2.167 -1.2069  0.0499  0.5053
  839SOL     OW 2515   0.311   2.989   0.045 -0.5286  0.0990  0.2597
  839SOL    HW1 2516   0.314   3.036   3.025 -0.1606  0.4041 -1.2257
  839SOL    HW2 2517   0.390   3.011   0.101  0.1574 -0.7206  0.9864
  840SOL     OW 2518   2.887   0.882   2.489 -0.1613 -0.8836  0.1842
  840SOL    HW1 2519   2.819   0.890   2.564 -0.1640  0.3186 -3.6421
  840SOL    HW2 2520   2.881   0.970   2.440 -0.4629  0.5365  1.0958
  841SOL     OW 2521   0.515   2.179   2.437 -0.4502  0.3138  0.2231
  841SOL    HW1 2522   0.502   2.098   2.497 -1.6050  3.0974  0.3696
  841SOL    HW2 2523   0.498   2.155   2.340 -2.6771  4.0530  0.1309
  842SOL     OW 2524   0.815   0.191   1.109 -0.1313  0.3299 -0.3837
  842SOL    HW1 2525   0.810   0.122   1.187 -2.8467 -1.7389  1.6609
  842SOL    HW2 2526   0.796   0.287   1.142 -0.0412 -0.3871  0.2596
  843SOL     OW 2527   0.445   1.671   2.507 -0.3139  0.5928  0.0737
  843SOL    HW1 2528   0.463   1.609   2.430  2.0054 -1.3922  1.7460
  843SOL    HW2 2529   0.381   1.631   2.582 -0.4221  0.4765  3.1369
  844SOL     OW 2530   1.340   1.771   2.296  0.4671 -0.0801 -0.0146
  844SOL    HW1 2531   1.305   1.766   2.199 -1.3847  2.2028  0.5701
  844SOL    HW2 2532   1.429   1.731   2.321  0.1039  0.5727  0.1851
  845SOL     OW 2533   2.342   2.791   2.734  0.2694  0.0382 -0.0809
  845SOL    HW1 2534   2.431   2.842   2.725  0.1068 -1.2228 -1.6209
  845SOL    HW2 2535   2.286   2.810   2.653 -0.5881  2.2898  0.8143
  846SOL     OW 2536   2.034   1.594   3.068  0.2222 -0.4106 -0.8483
  846SOL    HW1 2537   1.939   1.625   0.005  0.2620 -0.5618  2.3309
  846SOL    HW2 2538   2.074   1.561   0.085  0.2058  0.6493  0.6605
  847SOL     OW 2539   2.445   0.162   2.857 -0.1643  0.1972 -0.2461
  847SOL    HW1 2540   2.524   0.107   2.886 -1.6977  1.5376  0.5979
  847SOL    HW2 2541   2.475   0.241   2.802  0.0376 -0.6365 -0.7237
  848SOL     OW 2542   2.735   0.702   0.012 -0.2862  0.3286 -0.8706
  848SOL    HW1 2543   2.634   0.710   0.003 -2.2023 -0.7050  1.2744
  848SOL    HW2 2544   2.759   0.635   0.085 -0.8333 -2.1418 -0.0647
  849SOL     OW 2545   1.427   0.219   2.367 -0.1204 -0.1018  0.3275
  849SOL    HW1 2546   1.366   0.138   2.383 -4.2300 -0.8752 -0.4754
  849SOL    HW2 2547   1.473   0.234   2.458 -0.2652  0.6395  3.1949
  850SOL     OW 2548   2.662   0.934   0.394  0.0865 -0.0692  0.5050
  850SOL    HW1 2549   2.632   0.841   0.401  2.8075  1.6224 -1.7547
  850SOL    HW2 2550   2.602   0.997   0.441 -0.3442 -1.3226 -1.6028
  851SOL     OW 2551   0.356   1.052   0.954  0.1225 -0.2341  0.0647
  851SOL    HW1 2552   0.317   0.961   0.950  1.0706  2.0527  0.0298
  851SOL    HW2 2553   0.293   1.109   1.012  1.0860  2.5349 -1.5793
  852SOL     OW 2554   1.170   0.874   1.966 -0.0335  0.3208 -0.1713
  852SOL    HW1 2555   1.123   0.948   2.009  0.6736 -0.0977 -1.1172
  852SOL    HW2 2556   1.113   0.794   1.970  0.2868 -2.9881  2.3846
  853SOL     OW 2557   1.587   1.094   2.875 -0.0154  0.6285  0.3751
  853SOL    HW1 2558   1.675   1.138   2.857 -0.2301  2.3662 -1.1913
  853SOL    HW2 2559   1.559   1.034   2.798 -0.0554 -0.4979  0.4607
  854SOL     OW 2560   1.355   1.177   1.922  0.3998  0.2984  0.3894
  854SOL    HW1 2561   1.298   1.107   1.870 -2.7595 -0.7505 -0.5515
  854SOL    HW2 2562   1.325   1.275   1.907  0.9862 -2.9046 -0.1796
  855SOL     OW 2563   0.314   2.368   2.160 -0.4216  0.1821 -0.6402
  855SOL    HW1 2564   0.242   2.374   2.231  1.3890  1.4197  1.5495
  855SOL    HW2 2565   0.386   2.441   2.179 -1.0460 -0.4180  0.0296
  856SOL     OW 2566   1.155   0.977   2.262  0.1851 -0.1418  0.0512
  856SOL    HW1 2567   1.116   0.988   2.359  0.2916 -1.7457  0.9826
  856SOL    HW2 2568   1.081   1.018   2.204 -0.8386  1.4897 -1.3811
  857SOL     OW 2569   0.999   0.996   2.469  0.4645 -0.7679 -0.0804
  857SOL    HW1 2570   0.916   0.974   2.420  4.2788  0.6692 -2.0933
  857SOL    HW2 2571   1.007   0.946   2.556 -0.1826  3.1101  2.2139
  858SOL     OW 2572   0.136   0.548   1.773  0.1368 -0.2001 -0.3608
  858SOL    HW1 2573   0.036   0.534   1.742 -3.4994 -1.4998  1.5913
  858SOL    HW2 2574   0.149   0.502   1.861 -0.4125 -1.2476 -1.3842
  859SOL     OW 2575   2.412   2.862   0.838  0.4900  0.0786  0.1668
  859SOL    HW1 2576   2.494   2.858   0.893 -2.9888 -0.5689 -1.1011
  859SOL    HW2 2577   2.331   2.884   0.896  4.6297 -4.2226 -1.6105
  860SOL     OW 2578   1.426   0.532   1.586 -0.2393 -0.1876 -0.0969
  860SOL    HW1 2579   1.487   0.456   1.627  0.0787  0.6042  1.3616
  860SOL    HW2 2580   1.475   0.571   1.506 -0.4895 -2.1123  1.0025
  861SOL     OW 2581   1.796   0.842   1.241  0.0862  0.0669 -0.0711
  861SOL    HW1 2582   1.729   0.816   1.318 -1.3959  0.1638  3.4691
  861SOL    HW2 2583   1.753   0.909   1.181  1.2907 -0.1633  3.2784
  862SOL     OW 2584   1.098   2.833   2.286  0.2396  0.3754 -0.6448
  862SOL    HW1 2585   1.107   2.744   2.339  1.0257 -1.7090  1.9546
  862SOL    HW2 2586   1.039   2.898   2.341 -1.6252 -0.1970  1.3044
  863SOL     OW 2587   2.707   0.123   1.449 -0.2753 -0.5554 -0.0339
  863SOL    HW1 2588   2.672   0.216   1.473 -0.3667 -0.4833 -0.3274
  863SOL    HW2 2589   2.761   0.119   1.364 -1.3554 -0.1588  3.0327
  864SOL     OW 2590   2.797   2.980   2.049  0.0749  0.1553  0.0059
  864SOL    HW1 2591   2.714   2.921   2.056  2.1355  0.6930 -0.4808
  864SOL    HW2 2592   2.769   3.070   2.012 -0.9174 -0.2982  0.0594
  865SOL     OW 2593   0.908   1.226   2.645 -0.3070 -0.3239 -0.9029
  865SOL    HW1 2594   0.846   1.181   2.576 -0.6936 -3.3984 -1.0906
  865SOL    HW2 2595   0.936   1.321   2.632  1.7055 -0.2407 -1.9640
  866SOL     OW 2596   2.642   2.823   1.006 -0.9882 -0.1744 -0.4228
  866SOL    HW1 2597   2.663   2.739   0.950 -0.5881  0.2538  1.1638
  866SOL    HW2 2598   2.608   2.804   1.098  0.1891  2.0531 -0.4663
  867SOL     OW 2599   2.971   2.619   1.225 -0.4844 -0.5541  0.5811
  867SOL    HW1 2600   2.927   2.580   1.142  1.9142  0.0956 -2.2651
  867SOL    HW2 2601   3.029   2.548   1.271  0.4889 -0.5369 -0.7347
  868SOL     OW 2602   2.785   1.485   1.519  0.1934  0.6593  0.3080
  868SOL    HW1 2603   2.857   1.509   1.450 -0.2818  2.0592 -1.9257
  868SOL    HW2 2604   2.703   1.538   1.505  1.6982 -3.0850  0.7475
  869SOL     OW 2605   1.962   2.112   2.372  0.6810  0.5851  0.3340
  869SOL    HW1 2606   1.953   2.213   2.355  0.1454  0.8981 -1.6674
  869SOL    HW2 2607   1.984   2.092   2.471 -1.0251  1.6845 -2.3286
  870SOL     OW 2608   1.417   0.868   0.791  0.0728 -0.2058 -0.1957
  870SOL    HW1 2609   1.460   0.868   0.880 -1.6429 -1.7242 -0.0629
  870SOL    HW2 2610   1.366   0.954   0.780  1.4067 -0.0689 -0.6691
  871SOL     OW 2611   2.637   1.627   2.005 -0.2438  0.4217  0.3275
  871SOL    HW1 2612   2.546   1.626   2.050  2.0787 -1.2065 -3.0478
  871SOL    HW2 2613   2.630   1.682   1.918  1.7693 -0.8118  0.2930
  872SOL     OW 2614   0.941   1.652   2.801 -0.3101 -0.3354 -0.7307
  872SOL    HW1 2615   0.866   1.705   2.844  1.0010  1.5418  0.5890
  872SOL    HW2 2616   1.020   1.643   2.866  0.7290 -1.1894 -0.8320
  873SOL     OW 2617   0.884   1.149   1.781 -0.6091 -0.1936 -0.6982
  873SOL    HW1 2618   0.855   1.053   1.799 -0.6838  1.2255  0.9348
  873SOL    HW2 2619   0.896   1.167   1.678  0.1494  0.8025 -2.8130
  874SOL     OW 2620   1.326   0.865   1.373 -0.4889 -0.1175  0.5509
  874SOL    HW1 2621   1.303   0.875   1.474  0.4488  0.6777 -0.1315
  874SOL    HW2 2622   1.278   0.938   1.315  1.9380  2.1640 -1.1120
  875SOL     OW 2623   2.600   2.899   2.705 -0.7270 -0.2569  0.1196
  875SOL    HW1 2624   2.574   2.970   2.634  0.2256  0.3976 -2.4059
  875SOL    HW2 2625   2.688   2.854   2.680 -0.3752 -0.2258 -1.0595
  876SOL     OW 2626   0.827   1.164   0.610 -0.5123 -0.6074  0.5332
  876SOL    HW1 2627   0.763   1.113   0.554  0.2108  1.5248  0.9575
  876SOL    HW2 2628   0.906   1.192   0.551  1.7462 -1.5193 -0.0949
  877SOL     OW 2629   2.000   2.883   0.476  0.1839  0.2503 -0.2904
  877SOL    HW1 2630   1.949   2.970   0.484  0.4069  0.7172  1.5535
  877SOL    HW2 2631   2.099   2.899   0.457  0.7732 -1.2183  1.2328
  878SOL     OW 2632   2.166   2.211   0.231  0.2366 -0.2465 -0.2407
  878SOL    HW1 2633   2.203   2.125   0.193  0.2741  1.4842 -0.8983
  878SOL    HW2 2634   2.103   2.202   0.311  2.3377 -1.1230 -1.0131
  879SOL     OW 2635   0.508   2.357   1.649 -0.2061 -0.5583  0.0457
  879SOL    HW1 2636   0.420   2.406   1.648 -0.7070  0.8479 -0.8437
  879SOL    HW2 2637   0.519   2.301   1.563  0.0410 -0.1433  1.2014
  880SOL     OW 2638   0.102   1.783   0.778  0.2979 -0.4675  0.0929
  880SOL    HW1 2639   0.114   1.841   0.862 -1.8154  2.6776  1.6425
  880SOL    HW2 2640   0.128   1.691   0.803  1.4021 -0.9976 -2.3872
  881SOL     OW 2641   1.324   2.960   2.218 -0.2788 -0.3484 -0.2083
  881SOL    HW1 2642   1.245   2.911   2.265  0.2017  1.0182 -0.4466
  881SOL    HW2 2643   1.302   3.059   2.201 -2.1457  0.1600 -1.9647
  882SOL     OW 2644   2.530   1.142   0.496 -0.2083  0.2067 -0.2223
  882SOL    HW1 2645   2.464   1.159   0.575 -0.1027  0.8849  1.0344
  882SOL    HW2 2646   2.616   1.195   0.515 -2.0229 -3.2361 -1.6995
  883SOL     OW 2647   1.447   0.593   2.183  0.1944 -0.6054 -0.0218
  883SOL    HW1 2648   1.382   0.634   2.247 -0.1700 -0.9275 -2.6265
  883SOL    HW2 2649   1.436   0.648   2.098  0.9309 -1.5903 -0.9139
  884SOL     OW 2650   0.108   0.148   1.687 -0.0490 -0.5495  0.4102
  884SOL    HW1 2651   0.077   0.136   1.591  0.1934 -0.3456 -0.5671
  884SOL    HW2 2652   0.205   0.192   1.678  1.8770  0.6126 -1.2338
  885SOL     OW 2653   1.806   1.180   2.768 -0.3041  0.5196  0.3517
  885SOL    HW1 2654   1.865   1.224   2.836  2.0309 -0.7016 -0.4217
  885SOL    HW2 2655   1.844   1.208   2.678 -1.3759  1.2807  0.5772
  886SOL     OW 2656   1.867   0.333   2.787  0.3681 -0.4290 -0.2297
  886SOL    HW1 2657   1.885   0.342   2.685  3.2343  0.7027 -2.4069
  886SOL    HW2 2658   1.773   0.299   2.811 -2.2263 -0.1090 -0.4223
  887SOL     OW 2659   1.091   2.780   1.497  0.1517  0.3657  0.5190
  887SOL    HW1 2660   1.155   2.812   1.572 -1.7076 -1.7362 -0.8669
  887SOL    HW2 2661   0.996   2.797   1.523  1.2294  2.4592 -1.2998
  888SOL     OW 2662   2.205   1.470   1.549  0.1361 -0.3024 -0.0019
  888SOL    HW1 2663   2.113   1.506   1.563  0.2340  1.9030  0.3601
  888SOL    HW2 2664   2.240   1.452   1.642 -2.0054  0.1131  1.8158
  889SOL     OW 2665   2.062   2.449   1.329  0.4178 -0.7306  0.2815
  889SOL    HW1 2666   2.133   2.464   1.256 -0.2742 -2.7827  0.7265
  889SOL    HW2 2667   2.065   2.353   1.362 -0.4878  1.6630  1.9477
  890SOL     OW 2668   0.935   2.237   0.988  0.0037 -0.3544 -0.2794
  890SOL    HW1 2669   0.961   2.136   0.987  0.1863 -1.5999 -1.5668
  890SOL    HW2 2670   1.006   2.302   1.026  0.1181  1.6393 -1.1635
  891SOL     OW 2671   2.871   1.377   0.314  0.0469 -0.4495  0.1154
  891SOL    HW1 2672   2.911   1.364   0.219  0.4911  0.3864 -0.1982
  891SOL    HW2 2673   2.877   1.289   0.367 -0.4486 -1.6662  3.1566
  892SOL     OW 2674   2.458   1.603   2.671  0.0995 -0.0516  0.1710
  892SOL    HW1 2675   2.535   1.576   2.609  1.7057 -0.1477 -3.3235
  892SOL    HW2 2676   2.428   1.533   2.740 -2.7372  0.6428  0.9463
  893SOL     OW 2677   2.327   2.738   1.169 -0.2988  0.2492 -0.5460
  893SOL    HW1 2678   2.297   2.818   1.117  0.9267  0.4548  0.5313
  893SOL    HW2 2679   2.416   2.757   1.216  1.1861  1.5356 -1.5022
  894SOL     OW 2680   2.858   0.398   0.711  0.4598 -0.2347 -0.2578
  894SOL    HW1 2681   2.762   0.388   0.683 -0.1294  0.3970 -1.6810
  894SOL    HW2 2682   2.937   0.376   0.652  0.0906  0.6857  0.5413
  895SOL     OW 2683   2.695   2.509   2.313 -0.1554  0.2057  0.5645
  895SOL    HW1 2684   2.758   2.526   2.236  0.1983  0.3281  0.4291
  895SOL    HW2 2685   2.749   2.492   2.402  0.1688  3.2281 -0.0222
  896SOL     OW 2686   2.230   2.716   2.373 -0.4814 -0.0267  0.6554
  896SOL    HW1 2687   2.315   2.675   2.408 -0.8012  1.3225 -0.2874
  896SOL    HW2 2688   2.246   2.816   2.356 -0.0583 -1.4689 -1.1789
  897SOL     OW 2689   0.247   1.789   2.024  0.2009  0.3953 -0.5026
  897SOL    HW1 2690   0.227   1.687   2.037  0.9624 -2.0529  1.6879
  897SOL    HW2 2691   0.226   1.843   2.110  3.2213 -3.0028  2.4322
  898SOL     OW 2692   0.031   2.114   2.246  0.2393  0.0640 -0.2079
  898SOL    HW1 2693   3.069   2.054   2.320 -1.7882  0.3196 -0.0538
  898SOL    HW2 2694   3.018   2.148   2.204 -0.8737 -0.4793 -2.2748
  899SOL     OW 2695   1.792   2.977   1.210  0.5982 -0.0301  0.1349
  899SOL    HW1 2696   1.705   2.998   1.262  0.1694  0.0049 -0.3310
  899SOL    HW2 2697   1.879   2.968   1.264  2.5669  3.4770 -0.0308
  900SOL     OW 2698   1.456   1.036   0.422  0.2327 -0.2939  0.5708
  900SOL    HW1 2699   1.558   1.024   0.438  0.5925 -1.1713 -0.1243
  900SOL    HW2 2700   1.427   0.972   0.349 -0.5334  1.0388  2.3378
  901SOL     OW 2701   1.200   1.130   2.589 -0.0296 -0.1824  0.5967
  901SOL    HW1 2702   1.113   1.098   2.544  0.4337 -2.1660  1.1856
  901SOL    HW2 2703   1.184   1.206   2.662  0.8050  3.9264  2.0984
  902SOL     OW 2704   2.831   2.357   0.840 -0.0891 -0.4679  0.2403
  902SOL    HW1 2705   2.890   2.353   0.924  0.0321 -0.3136 -0.8278
  902SOL    HW2 2706   2.767   2.281   0.836  0.5223  1.3489  4.8566
  903SOL     OW 2707   2.970   1.205   2.023  0.1836 -0.3913 -0.0222
  903SOL    HW1 2708   2.942   1.302   2.021 -1.7547  0.0261 -1.5704
  903SOL    HW2 2709   2.886   1.149   2.034 -0.7030  0.5743 -0.1031
  904SOL     OW 2710   1.340   1.312   0.394 -0.6659  0.4945  0.0422
  904SOL    HW1 2711   1.393   1.389   0.435  1.8677 -0.3698 -0.4801
  904SOL    HW2 2712   1.401   1.228   0.392 -1.4054 -0.6236  0.3583
  905SOL     OW 2713   2.549   2.311   1.478  0.0367  0.5841  0.4431
  905SOL    HW1 2714   2.471   2.371   1.488  2.7907 -1.2616  2.3032
  905SOL    HW2 2715   2.558   2.248   1.554 -0.1785  1.3173 -1.7246
  906SOL     OW 2716   1.866   2.435   2.925 -0.2284  0.3519 -0.1116
  906SOL    HW1 2717   1.881   2.348   2.979 -2.4920  0.5623 -1.1124
  906SOL    HW2 2718   1.883   2.513   2.988  0.2885  0.9951  1.3827
  907SOL     OW 2719   0.364   2.609   0.797 -0.0555 -0.0521 -0.5622
  907SOL    HW1 2720   0.416   2.523   0.797 -1.8602 -1.3245 -1.3246
  907SOL    HW2 2721   0.420   2.692   0.774  0.4473 -2.3139  0.9008
  908SOL     OW 2722   0.563   0.403   1.914  1.0484 -0.2788 -0.8933
  908SOL    HW1 2723   0.651   0.359   1.888 -0.7048 -0.4468  0.7172
  908SOL    HW2 2724   0.498   0.411   1.839 -0.7454  0.4629 -2.0280
  909SOL     OW 2725   1.808   0.402   1.313 -0.1325  0.2120  0.0381
  909SOL    HW1 2726   1.907   0.429   1.308 -0.0717  2.4468 -1.3171
  909SOL    HW2 2727   1.779   0.368   1.218 -1.1592 -3.7355 -3.0788
  910SOL     OW 2728   0.824   0.684   0.250  0.5972  0.1340  0.5145
  910SOL    HW1 2729   0.809   0.673   0.151  0.8670 -0.0094  0.5517
  910SOL    HW2 2730   0.798   0.774   0.287 -1.0778  0.5475  0.4118
  911SOL     OW 2731   0.240   0.306   2.862 -1.0169  0.0776  0.0778
  911SOL    HW1 2732   0.216   0.331   2.960 -0.8419 -2.0112  1.6804
  911SOL    HW2 2733   0.163   0.334   2.799 -2.9210  0.9920 -1.7731
  912SOL     OW 2734   2.837   2.493   2.551  0.1001  0.1407  0.2049
  912SOL    HW1 2735   2.932   2.536   2.539 -3.9214  3.0389  1.0050
  912SOL    HW2 2736   2.791   2.534   2.632 -1.5386  0.6920 -0.6363
  913SOL     OW 2737   2.398   2.432   0.020 -0.4815  0.1604  0.2055
  913SOL    HW1 2738   2.321   2.458   0.078  1.5993  0.4870  0.6689
  913SOL    HW2 2739   2.423   2.509   3.029 -0.0732  3.1799  0.7073
  914SOL     OW 2740   1.493   1.681   1.881  0.2041  0.5494 -0.0071
  914SOL    HW1 2741   1.514   1.608   1.953  1.2772 -2.5065  2.2122
  914SOL    HW2 2742   1.562   1.753   1.874  1.0827 -1.3578 -0.9358
  915SOL     OW 2743   2.916   2.565   2.170 -0.1704  0.5245  0.2668
  915SOL    HW1 2744   3.013   2.592   2.185 -3.5221 -1.9385 -0.4362
  915SOL    HW2 2745   2.890   2.595   2.076 -2.9470 -1.1425 -4.3480
  916SOL     OW 2746   2.961   0.837   1.839 -0.4688 -0.0977 -0.2208
  916SOL    HW1 2747   3.036   0.906   1.815  0.3008  0.9007 -1.5626
  916SOL    HW2 2748   3.004   0.760   1.898  3.0206 -4.5002  1.4362
  917SOL     OW 2749   1.953   0.092   2.897 -0.2514  0.2285  0.2032
  917SOL    HW1 2750   1.925   0.084   2.994  1.0986  1.5800  2.9793
  917SOL    HW2 2751   1.925   0.181   2.860  1.4713 -3.6289  1.4560
  918SOL     OW 2752   1.910   2.382   2.266  0.3115 -0.3631  0.6794
  918SOL    HW1 2753   1.904   2.423   2.361 -0.1645  1.0386 -1.1214
  918SOL    HW2 2754   1.901   2.460   2.201 -0.3969 -0.2171  1.7824
  919SOL     OW 2755   2.158   2.134   2.172 -0.1813  0.0249 -0.4122
  919SOL    HW1 2756   2.096   2.125   2.251 -0.5089  0.0726 -2.4430
  919SOL    HW2 2757   2.117   2.085   2.092 -2.0481 -1.8237 -0.8139
  920SOL     OW 2758   0.279   0.952   0.278  0.5384 -0.1556  0.5750
  920SOL    HW1 2759   0.311   0.876   0.341  3.4102  1.8492 -0.7933
  920SOL    HW2 2760   0.177   0.953   0.281  0.5290  1.4452  0.4516
  921SOL     OW 2761   2.659   1.184   2.606  1.0562 -0.2266  0.1548
  921SOL    HW1 2762   2.601   1.195   2.687 -1.5675 -2.0440  0.0314
  921SOL    HW2 2763   2.723   1.260   2.605 -2.5379  1.0953 -1.2290
  922SOL     OW 2764   0.443   1.826   0.036  0.0520 -0.2753  0.4228
  922SOL    HW1 2765   0.429   1.835   3.006 -0.3889 -2.0152 -0.6453
  922SOL    HW2 2766   0.351   1.817   0.081  0.6216 -0.8876  0.4230
  923SOL     OW 2767   0.523   0.770   2.177 -0.3925  0.0139  0.2138
  923SOL    HW1 2768   0.464   0.689   2.166 -1.9944  0.2010  1.0260
  923SOL    HW2 2769   0.616   0.730   2.155  0.4101  0.4785 -1.2355
  924SOL     OW 2770   0.672   2.625   2.663  0.2598 -0.3134  0.1127
  924SOL    HW1 2771   0.752   2.579   2.619 -0.5331 -0.6895  1.1784
  924SOL    HW2 2772   0.698   2.698   2.730 -0.6699 -0.9576  0.6161
  925SOL     OW 2773   1.718   1.530   0.793 -0.6190  0.0948  0.2887
  925SOL    HW1 2774   1.746   1.464   0.868 -3.0885  1.0425  0.7183
  925SOL    HW2 2775   1.765   1.514   0.707  0.5159 -0.0489  0.9708
  926SOL     OW 2776   1.682   0.466   2.253 -0.1012 -0.1803  0.0937
  926SOL    HW1 2777   1.582   0.492   2.253  0.0238 -1.0412  1.7017
  926SOL    HW2 2778   1.735   0.524   2.316 -1.1138  0.0449 -1.3372
  927SOL     OW 2779   2.753   2.468   1.748  0.7091 -0.3262  0.2360
  927SOL    HW1 2780   2.835   2.448   1.697 -1.7484 -0.2742  3.2678
  927SOL    HW2 2781   2.697   2.543   1.705 -2.7565  0.5359 -0.3975
  928SOL     OW 2782   0.465   1.101   2.781  0.2354  0.4650 -0.1273
  928SOL    HW1 2783   0.443   1.118   2.878 -2.7634  1.0458  1.0859
  928SOL    HW2 2784   0.450   1.006   2.753 -1.0422 -0.2088  0.5799
  929SOL     OW 2785   0.026   0.096   0.718 -0.1217  0.2417  0.2726
  929SOL    HW1 2786   0.064   0.004   0.726  1.2255  1.8882 -1.1856
  929SOL    HW2 2787   0.096   0.162   0.750 -2.9021 -1.0057 -3.3888
  930SOL     OW 2788   2.377   0.150   1.815 -0.2333 -0.3365 -0.9260
  930SOL    HW1 2789   2.340   0.053   1.824 -1.6402 -4.2629  2.6987
  930SOL    HW2 2790   2.421   0.167   1.723 -0.7175  0.0955  0.3133
  931SOL     OW 2791   2.039   1.148   3.010 -0.2251  0.7215 -0.0640
  931SOL    HW1 2792   2.107   1.078   2.974  1.7923 -2.0370 -0.9307
  931SOL    HW2 2793   2.062   1.239   2.970 -0.5602 -0.8138 -1.1393
  932SOL     OW 2794   2.531   1.268   1.720  0.2105 -0.1355  0.4838
  932SOL    HW1 2795   2.564   1.287   1.626  1.5204  0.1383  0.9118
  932SOL    HW2 2796   2.593   1.201   1.767 -0.1506  1.8970 -3.0320
  933SOL     OW 2797   0.051   2.536   1.546  0.0755 -0.1785  0.6304
  933SOL    HW1 2798   0.130   2.539   1.609 -0.0027 -0.4540 -1.0739
  933SOL    HW2 2799   3.067   2.618   1.573  2.6503 -0.3614  2.0894
  934SOL     OW 2800   0.852   2.896   1.121  0.0842 -0.0749 -0.1392
  934SOL    HW1 2801   0.879   2.822   1.184  0.4978  0.3384  0.7526
  934SOL    HW2 2802   0.840   2.984   1.177 -0.8419  1.7276  3.2894
  935SOL     OW 2803   2.458   1.202   2.134 -0.2321  0.1804 -0.1095
  935SOL    HW1 2804   2.541   1.186   2.074 -3.4716  1.0464  1.1103
  935SOL    HW2 2805   2.368   1.207   2.087  2.5851  1.5928  0.6405
  936SOL     OW 2806   2.180   1.025   1.717  0.2551 -0.0608 -0.3728
  936SOL    HW1 2807   2.262   1.067   1.671  1.0367 -3.0349  1.6922
  936SOL    HW2 2808   2.204   0.949   1.779 -1.9584  0.4405 -2.8682
  937SOL     OW 2809   1.953   1.060   2.130  0.2291 -0.1146 -0.0275
  937SOL    HW1 2810   1.862   1.085   2.169  0.9145 -0.2822  2.2001
  937SOL    HW2 2811   1.938   0.964   2.092 -0.4097  1.0377 -1.3859
  938SOL     OW 2812   0.759   2.581   3.049  0.3180  0.4103  0.0661
  938SOL    HW1 2813   0.736   2.504   0.039  2.4082 -0.1155 -2.9234
  938SOL    HW2 2814   0.784   2.656   0.037  2.0696 -0.3971 -0.4883
  939SOL     OW 2815   2.470   0.969   2.920  0.2840  0.5992  0.5396
  939SOL    HW1 2816   2.493   1.050   2.864  2.5556 -0.4533  3.2967
  939SOL    HW2 2817   2.491   0.984   3.019  1.0975 -1.5648  0.6311
  940SOL     OW 2818   1.107   1.995   0.996 -0.3140 -0.2447  1.0439
  940SOL    HW1 2819   1.064   1.957   0.912 -1.0481 -0.5217 -2.0133
  940SOL    HW2 2820   1.211   2.003   0.985  0.9255 -2.6409  0.1299
  941SOL     OW 2821   0.787   2.043   1.532 -0.8399 -0.3796 -0.3020
  941SOL    HW1 2822   0.813   1.971   1.461  0.6800 -1.5274 -5.5182
  941SOL    HW2 2823   0.735   2.116   1.487  1.3027  1.0181 -1.3835
  942SOL     OW 2824   0.365   2.200   2.766  0.8678  0.2888 -0.0398
  942SOL    HW1 2825   0.285   2.170   2.718  2.1922 -3.1845 -2.0727
  942SOL    HW2 2826   0.418   2.269   2.710 -2.9476  1.2417 -0.3435
  943SOL     OW 2827   1.992   2.955   1.723 -0.4902  0.0772  0.1551
  943SOL    HW1 2828   1.951   2.908   1.808 -0.5242 -1.2846 -1.4944
  943SOL    HW2 2829   1.993   2.894   1.642  0.9650 -1.9474  2.0517
  944SOL     OW 2830   1.207   1.899   2.964  0.2156 -0.4996  0.5704
  944SOL    HW1 2831   1.307   1.927   2.959  0.7742  2.2963 -1.8051
  944SOL    HW2 2832   1.154   1.974   2.913 -0.6722  2.9531 -0.3862
  945SOL     OW 2833   2.655   2.553   0.897  0.0293 -0.2743 -0.1420
  945SOL    HW1 2834   2.743   2.508   0.868  1.8577 -0.2924  3.5726
  945SOL    HW2 2835   2.584   2.483   0.869 -2.2596 -0.5654  1.7910
  946SOL     OW 2836   0.977   1.491   2.584  0.1237 -0.0328  0.1875
  946SOL    HW1 2837   0.931   1.498   2.497  0.4372  0.1000  0.5323
  946SOL    HW2 2838   0.963   1.570   2.648 -1.0235  1.7211 -1.7741
  947SOL     OW 2839   3.053   0.683   2.029  0.4451 -0.3721  0.3342
  947SOL    HW1 2840   0.062   0.728   2.070  0.3747 -3.5728  0.7341
  947SOL    HW2 2841   0.011   0.591   2.000 -2.2822 -0.5493  2.2314
  948SOL     OW 2842   3.042   1.269   0.818 -0.0609 -0.4254  0.3593
  948SOL    HW1 2843   3.029   1.328   0.903 -1.2064  0.0625 -0.0654
  948SOL    HW2 2844   2.974   1.194   0.814  0.5580  1.7537 -0.5718
  949SOL     OW 2845   0.728   0.624   2.073  0.4077 -0.2233  0.2080
  949SOL    HW1 2846   0.730   0.527   2.086  1.2441  0.0873  0.7762
  949SOL    HW2 2847   0.827   0.653   2.050  1.5301 -1.7935  1.4771
  950SOL     OW 2848   0.131   0.459   1.300  0.0595  0.0484 -0.2738
  950SOL    HW1 2849   0.185   0.378   1.269 -0.3549 -2.1716  0.4295
  950SOL    HW2 2850   0.067   0.427   1.376  0.8252 -0.6806  2.3714
  951SOL     OW 2851   0.767   0.998   2.737 -0.3047 -0.3065  0.4131
  951SOL    HW1 2852   0.853   1.054   2.752  1.2464 -0.9170  1.4445
  951SOL    HW2 2853   0.712   1.044   2.670  0.0096  1.7035 -2.0097
  952SOL     OW 2854   1.831   2.119   0.781  0.2983  0.0921  0.4879
  952SOL    HW1 2855   1.863   2.188   0.845 -3.5091 -0.8850 -0.3315
  952SOL    HW2 2856   1.884   2.031   0.793  0.4016 -0.8711 -0.8415
  953SOL     OW 2857   0.575   0.310   0.260  0.6736  0.1064  0.6081
  953SOL    HW1 2858   0.639   0.270   0.326 -1.7486  0.9612  0.9058
  953SOL    HW2 2859   0.486   0.343   0.302 -1.3445 -1.7400 -0.9391
  954SOL     OW 2860   2.407   0.652   1.061  0.2766  0.1650 -0.3834
  954SOL    HW1 2861   2.333   0.680   1.129  0.7147  0.8299  1.2604
  954SOL    HW2 2862   2.495   0.649   1.114  2.7424 -0.4198 -0.0834
  955SOL     OW 2863   1.592   1.170   0.126 -0.5536  0.1260  0.2783
  955SOL    HW1 2864   1.634   1.123   0.044  1.7123 -1.3845  0.8754
  955SOL    HW2 2865   1.512   1.231   0.097 -0.3679  2.0240 -0.1304
  956SOL     OW 2866   1.118   0.611   2.374 -0.7074  0.4814  0.3338
  956SOL    HW1 2867   1.190   0.685   2.379  0.3903  4.4926 -0.4365
  956SOL    HW2 2868   1.148   0.515   2.357  1.7676 -1.7037 -0.8040
  957SOL     OW 2869   1.541   0.282   1.672  0.2885  0.0901  0.4104
  957SOL    HW1 2870   1.509   0.199   1.726 -0.6034  1.0641  1.8048
  957SOL    HW2 2871   1.629   0.269   1.621  1.2202  0.7183  2.2774
  958SOL     OW 2872   0.493   2.018   0.452 -1.1019 -0.6829 -0.1121
  958SOL    HW1 2873   0.502   2.030   0.355  0.0864 -0.4054  2.0202
  958SOL    HW2 2874   0.427   1.941   0.474 -0.3927 -0.5212  2.7732
  959SOL     OW 2875   2.024   0.850   1.608 -0.2317 -0.9398 -0.2542
  959SOL    HW1 2876   2.071   0.935   1.638 -2.1517  1.2755 -0.4674
  959SOL    HW2 2877   1.949   0.824   1.673 -3.1569 -0.2736  1.3512
  960SOL     OW 2878   0.124   1.811   2.944  0.3988  0.1015 -0.1528
  960SOL    HW1 2879   0.215   1.848   2.915  1.4487  1.1845  1.4919
  960SOL    HW2 2880   0.126   1.711   2.944 -1.1162  2.9944  0.8661
  961SOL     OW 2881   0.558   2.173   1.098 -0.0695  0.0658 -0.2614
  961SOL    HW1 2882   0.594   2.094   1.144 -1.8967 -0.4297  0.2340
  961SOL    HW2 2883   0.626   2.249   1.091 -0.2791 -2.0967  0.7220
  962SOL     OW 2884   0.307   1.485   1.205 -0.2261 -0.0439  0.2905
  962SOL    HW1 2885   0.248   1.547   1.261 -2.0556  2.2343 -0.5069
  962SOL    HW2 2886   0.304   1.385   1.234 -0.2420 -0.2060 -1.8843
  963SOL     OW 2887   1.524   1.612   2.508 -0.0042  0.2919 -0.2531
  963SOL    HW1 2888   1.486   1.596   2.599  2.3749  0.8779 -1.2839
  963SOL    HW2 2889   1.564   1.703   2.498 -0.3331 -2.6014 -2.7947
  964SOL     OW 2890   0.158   3.022   2.076 -0.5980 -0.1679  0.3098
  964SOL    HW1 2891   0.083   2.955   2.066  1.2936 -0.0891  0.4980
  964SOL    HW2 2892   0.241   2.979   2.116  3.1884  0.2397  1.4230
  965SOL     OW 2893   0.017   2.257   2.853 -0.0949 -0.1825  0.4492
  965SOL    HW1 2894   2.987   2.280   2.860 -0.2485 -1.1428 -0.8906
  965SOL    HW2 2895   0.023   2.207   2.762 -1.6363  0.4821 -2.0995
  966SOL     OW 2896   2.470   1.749   2.910  0.3297 -0.3311 -0.6047
  966SOL    HW1 2897   2.456   1.718   2.816  0.2665  0.8219  0.1930
  966SOL    HW2 2898   2.554   1.702   2.943  0.5227  0.0359 -1.2702
  967SOL     OW 2899   1.896   0.004   0.114 -0.0735  0.6017  0.0642
  967SOL    HW1 2900   1.924   2.983   0.150  0.6152 -3.3423 -1.8600
  967SOL    HW2 2901   1.792   0.012   0.099 -0.9605 -1.3957 -2.3526
  968SOL     OW 2902   2.706   2.995   0.543 -0.1254  0.0998 -0.3509
  968SOL    HW1 2903   2.706   2.900   0.534 -1.2671  1.3282  1.8441
  968SOL    HW2 2904   2.612   3.027   0.567 -1.3714  0.4887 -0.3522
  969SOL     OW 2905   0.355   0.834   1.884  0.5480 -0.0466  0.2300
  969SOL    HW1 2906   0.380   0.929   1.880 -0.5073 -2.2603  2.7077
  969SOL    HW2 2907   0.317   0.803   1.795  1.4129  0.4197  1.0829
  970SOL     OW 2908   1.436   1.555   2.987 -0.0739 -0.3095 -0.7070
  970SOL    HW1 2909   1.426   1.487   3.063 -2.6271  1.9604 -1.0858
  970SOL    HW2 2910   1.460   1.649   3.025 -1.1751  4.1045 -0.0418
  971SOL     OW 2911   2.340   0.085   1.482  0.0931  0.0233  0.6350
  971SOL    HW1 2912   2.247   0.123   1.453 -2.8250  1.1773 -1.3063
  971SOL    HW2 2913   2.332   3.062   1.519  1.2337 -0.1486  0.3632
  972SOL     OW 2914   2.837   0.208   0.912 -0.6887 -0.7804 -0.2514
  972SOL    HW1 2915   2.840   0.299   0.863 -0.3743 -0.5763  0.7361
  972SOL    HW2 2916   2.902   0.146   0.864 -1.5424 -0.4778 -0.7019
  973SOL     OW 2917   0.369   0.533   2.594  0.1372  0.0122  0.2234
  973SOL    HW1 2918   0.449   0.586   2.569 -4.4224 -1.2586  1.4675
  973SOL    HW2 2919   0.385   0.435   2.597 -0.3956 -0.3265  1.0763
  974SOL     OW 2920   2.785   1.116   1.793  0.2095  0.2608 -0.3983
  974SOL    HW1 2921   2.817   1.021   1.775 -0.4301  0.6835 -0.3824
  974SOL    HW2 2922   2.810   1.142   1.888 -1.4195  0.9272 -1.0842
  975SOL     OW 2923   1.194   2.930   1.714  0.1498  0.5635  0.2352
  975SOL    HW1 2924   1.198   3.019   1.672 -0.4881 -1.7190  0.9302
  975SOL    HW2 2925   1.106   2.917   1.767 -1.8131  1.3128  2.1059
  976SOL     OW 2926   1.534   1.443   1.384  0.5955  0.1852 -0.3649
  976SOL    HW1 2927   1.502   1.495   1.463  2.9585  0.6879 -2.3072
  976SOL    HW2 2928   1.555   1.345   1.414  0.4940 -2.6533  1.4955
  977SOL     OW 2929   0.528   3.051   0.245 -0.0711 -0.4958  0.4844
  977SOL    HW1 2930   0.603   3.045   0.316 -1.1331 -1.4318  1.0392
  977SOL    HW2 2931   0.553   2.995   0.166 -0.7773  0.7774 -0.6376
  978SOL     OW 2932   2.096   1.267   2.219 -0.2390 -0.0360  0.3407
  978SOL    HW1 2933   2.151   1.283   2.135 -1.8947  0.3427  2.5578
  978SOL    HW2 2934   2.041   1.186   2.209  0.4164 -0.0949  4.1062
  979SOL     OW 2935   1.436   0.798   2.003 -0.4627  0.2499 -0.8480
  979SOL    HW1 2936   1.345   0.842   1.985  1.0657 -1.9278  1.5352
  979SOL    HW2 2937   1.513   0.853   1.963 -0.6293 -2.3475  2.6664
  980SOL     OW 2938   1.828   1.658   2.633 -0.1276  0.9095 -0.0561
  980SOL    HW1 2939   1.808   1.660   2.532 -0.9547 -0.6815 -1.2839
  980SOL    HW2 2940   1.760   1.599   2.681 -3.1857  3.6488  1.1852
  981SOL     OW 2941   1.547   0.640   1.812  0.2482  0.2774 -0.2914
  981SOL    HW1 2942   1.486   0.617   1.734  0.4297  0.8920  1.4472
  981SOL    HW2 2943   1.502   0.698   1.882  0.9410 -0.4154 -0.3654
  982SOL     OW 2944   0.480   0.572   0.213  0.3381  0.1106  0.0922
  982SOL    HW1 2945   0.519   0.482   0.193  1.8703  0.0237  0.6796
  982SOL    HW2 2946   0.442   0.618   0.131 -0.0550  0.5088 -2.5075
  983SOL     OW 2947   2.166   0.864   0.143 -0.4319 -0.2002 -0.1174
  983SOL    HW1 2948   2.251   0.917   0.155 -1.0863 -0.2500 -0.4936
  983SOL    HW2 2949   2.134   0.879   0.050 -2.5694 -0.8075 -0.7295
  984SOL     OW 2950   0.853   0.340   2.559 -0.2732 -0.4133  0.0784
  984SOL    HW1 2951   0.845   0.338   2.457  0.3829  1.1448 -0.6059
  984SOL    HW2 2952   0.947   0.380   2.587  1.9604  0.8697 -3.4307
  985SOL     OW 2953   1.446   2.038   1.924 -0.1120  0.0373  0.3233
  985SOL    HW1 2954   1.515   1.997   1.981 -1.4119  4.3254 -0.4391
  985SOL    HW2 2955   1.392   2.101   1.981  0.8311  1.0728  0.9547
  986SOL     OW 2956   2.424   2.618   1.750  0.0969  0.0195  0.2195
  986SOL    HW1 2957   2.509   2.643   1.698  1.2535  1.1807  0.5780
  986SOL    HW2 2958   2.397   2.679   1.828 -0.4522 -0.9629  0.6552
  987SOL     OW 2959   1.757   1.323   0.993  0.1338  0.3639  0.2427
  987SOL    HW1 2960   1.805   1.251   1.045  0.1353  2.8884  1.1994
  987SOL    HW2 2961   1.687   1.285   0.923  0.4052  1.6273 -1.1122
  988SOL     OW 2962   2.489   1.458   2.281  0.5133 -1.0831 -0.0727
  988SOL    HW1 2963   2.515   1.370   2.234  0.0084  0.7435  3.0513
  988SOL    HW2 2964   2.450   1.529   2.211 -1.9321  2.0495 -0.0046
  989SOL     OW 2965   1.456   2.393   0.213 -0.3103  0.0539 -0.2668
  989SOL    HW1 2966   1.402   2.385   0.299 -0.4806  1.5534  2.4524
  989SOL    HW2 2967   1.548   2.416   0.238  0.3360 -3.4135  1.0312
  990SOL     OW 2968   1.865   0.681   2.686 -0.1497  0.3698 -0.5879
  990SOL    HW1 2969   1.827   0.776   2.701 -0.6361 -0.2461  0.6890
  990SOL    HW2 2970   1.928   0.654   2.766  0.4041 -2.2105 -0.5189
  991SOL     OW 2971   0.813   0.713   0.994  0.1567  0.0660  0.4749
  991SOL    HW1 2972   0.721   0.751   1.024  1.4434  2.3568 -1.2661
  991SOL    HW2 2973   0.885   0.756   1.057  0.5577  2.3273  0.8571
  992SOL     OW 2974   2.898   0.888   1.023  0.0121 -0.3419  0.2110
  992SOL    HW1 2975   2.883   0.867   0.921 -0.8100 -2.1364 -1.3583
  992SOL    HW2 2976   2.888   0.801   1.078  2.0989 -0.1143 -0.1561
  993SOL     OW 2977   2.325   0.549   1.776  0.1231 -0.3391  0.3326
  993SOL    HW1 2978   2.266   0.491   1.718  1.4794 -1.3781 -0.7198
  993SOL    HW2 2979   2.400   0.597   1.725  2.1868  0.3787 -0.4302
  994SOL     OW 2980   0.881   1.462   2.312 -0.6444 -0.3271  0.4670
  994SOL    HW1 2981   0.842   1.393   2.250  2.3348  0.0182 -1.4961
  994SOL    HW2 2982   0.952   1.515   2.264 -3.4909 -0.2667  0.3621
  995SOL     OW 2983   2.067   1.401   2.885  0.1076 -0.2539 -0.1118
  995SOL    HW1 2984   2.060   1.435   2.787  0.1166  0.3993  1.1925
  995SOL    HW2 2985   2.054   1.476   2.950 -0.6339 -2.5864  0.7013
  996SOL     OW 2986   2.120   2.117   0.598 -0.2561  0.2992  0.4501
  996SOL    HW1 2987   2.081   2.086   0.690  1.4352  0.1081  1.2509
  996SOL    HW2 2988   2.172   2.045   0.554  0.3629  1.3893  0.9289
  997SOL     OW 2989   2.141   0.399   1.635 -0.2239  0.3153  0.3848
  997SOL    HW1 2990   2.058   0.349   1.665 -0.7973 -0.0859 -1.0139
  997SOL    HW2 2991   2.213   0.335   1.597  0.0990  0.2963  0.1829
  998SOL     OW 2992   2.361   1.167   0.700 -0.5967  0.1029  0.4087
  998SOL    HW1 2993   2.285   1.213   0.654 -1.4743  1.0414 -0.1091
  998SOL    HW2 2994   2.322   1.098   0.760  3.2380  2.6747  0.2496
  999SOL     OW 2995   2.673   1.524   0.210 -0.1153 -0.5196 -0.0871
  999SOL    HW1 2996   2.662   1.612   0.254  2.9285 -2.2596 -1.1217
  999SOL    HW2 2997   2.732   1.467   0.270  3.8470  0.6366  1.4414
 1000SOL     OW 2998   0.785   0.902   1.784 -0.4538  0.0383  0.3146
 1000SOL    HW1 2999   0.853   0.824   1.787 -1.5664  1.7132 -0.1980
 1000SOL    HW2 3000   0.701   0.882   1.726 -1.1741 -0.1451 -1.4661
   3.07171   3.07171   3.07171
