1000 SPC/Fw water molecules t= 262.00000 step= 262000
 3000
    1SOL     OW    1   2.720   2.532   1.084  0.3223 -0.1552  0.5783
    1SOL    HW1    2   2.763   2.598   1.148 -1.9030 -1.6480  0.2059
    1SOL    HW2    3   2.654   2.577   1.018 -2.9600 -0.2759  1.3464
    2SOL     OW    4   1.848   2.052   1.156 -0.3523 -0.2484 -0.3194
    2SOL    HW1    5   1.778   2.054   1.228  1.8640 -1.9098  0.7444
    2SOL    HW2    6   1.939   2.030   1.195 -0.2481  1.0915  1.0725
    3SOL     OW    7   0.973   2.713   2.825 -0.1541 -0.0512 -0.0841
    3SOL    HW1    8   0.916   2.675   2.750  0.1928 -1.5846 -2.3130
    3SOL    HW2    9   1.072   2.684   2.814  1.2866  2.2391 -0.1099
    4SOL     OW   10   2.035   2.102   1.727 -0.6195 -0.1055  0.2346
    4SOL    HW1   11   2.128   2.082   1.769  0.2610 -3.1837  0.1320
    4SOL    HW2   12   2.000   2.201   1.738 -1.5393  1.9826  0.6536
    5SOL     OW   13   1.328   0.963   1.477 -0.7105 -0.2218  0.1958
    5SOL    HW1   14   1.314   0.960   1.374  0.4117 -0.2509 -3.9906
    5SOL    HW2   15   1.397   0.898   1.500 -2.0871 -0.0673 -1.8529
    6SOL     OW   16   2.348   3.018   0.162 -0.2075 -0.1510 -0.4415
    6SOL    HW1   17   2.327   2.969   0.077 -3.7951  0.2056  1.7860
    6SOL    HW2   18   2.435   2.984   0.202 -0.6747  0.2132  0.5208
    7SOL     OW   19   2.973   1.191   1.226  0.1328 -0.1055  0.2681
    7SOL    HW1   20   3.058   1.241   1.246  0.2357 -0.6223 -3.5629
    7SOL    HW2   21   2.896   1.256   1.221  0.6919 -0.3793  1.3696
    8SOL     OW   22   1.288   3.020   0.973  0.8197 -0.2329 -0.4145
    8SOL    HW1   23   1.315   2.975   1.057 -2.1014  1.4609 -3.0543
    8SOL    HW2   24   1.363   3.006   0.906 -2.4365 -1.3784 -1.1327
    9SOL     OW   25   1.511   3.080   2.210 -0.2390 -0.1350 -0.1076
    9SOL    HW1   26   1.451   3.043   2.133 -3.9419  0.3477 -3.2397
    9SOL    HW2   27   1.587   0.022   2.171 -0.5784 -0.5357 -1.0281
   10SOL     OW   28   0.638   2.268   0.620  0.5999 -0.0066 -0.1453
   10SOL    HW1   29   0.594   2.291   0.532 -1.3421 -1.9129  2.1164
   10SOL    HW2   30   0.619   2.341   0.689  2.0745  0.2056  0.8792
   11SOL     OW   31   1.481   1.340   0.265  0.5959 -0.3322  0.1213
   11SOL    HW1   32   1.503   1.332   0.163  0.2239  0.7918 -2.7407
   11SOL    HW2   33   1.382   1.362   0.281  1.6811 -0.4133  1.3817
   12SOL     OW   34   2.772   3.010   1.839  0.3154 -0.1221 -0.0539
   12SOL    HW1   35   2.745   3.068   1.916 -2.3266 -0.2328 -1.1144
   12SOL    HW2   36   2.760   2.910   1.863  0.3910 -1.9468  1.9286
   13SOL     OW   37   1.919   0.195   0.598 -0.2425  0.1939 -0.1681
   13SOL    HW1   38   1.895   0.296   0.603  1.3929 -0.0732  3.1148
   13SOL    HW2   39   2.021   0.187   0.589  1.9444  2.4700  1.1198
   14SOL     OW   40   1.391   2.380   1.064  0.2890 -0.3976  0.1796
   14SOL    HW1   41   1.335   2.466   1.056  1.3010 -0.9506 -1.3435
   14SOL    HW2   42   1.482   2.400   1.025  0.9956  1.4329  2.0081
   15SOL     OW   43   2.972   1.414   1.455 -0.2719  0.3503 -0.4225
   15SOL    HW1   44   3.042   1.486   1.431  4.9397 -1.1496  1.9024
   15SOL    HW2   45   3.010   1.319   1.459  1.1592  0.8178 -1.1744
   16SOL     OW   46   2.191   2.397   0.236 -0.3320 -0.5267 -1.0750
   16SOL    HW1   47   2.118   2.340   0.273 -0.1234  1.3674 -0.8238
   16SOL    HW2   48   2.186   2.416   0.136 -0.9833  0.4779 -0.7406
   17SOL     OW   49   0.833   3.092   1.460 -0.6046 -0.4208 -0.6649
   17SOL    HW1   50   0.819   0.076   1.416 -0.2656 -0.6832 -0.1399
   17SOL    HW2   51   0.748   3.041   1.460 -0.7703  1.4404 -1.7155
   18SOL     OW   52   1.323   0.813   3.063  0.1361  0.5261  1.0310
   18SOL    HW1   53   1.324   0.906   3.096 -2.7258  0.5268  2.2984
   18SOL    HW2   54   1.423   0.783   3.049  1.8931 -0.1246  0.7066
   19SOL     OW   55   1.830   1.909   2.922  0.3520  0.8013 -0.3631
   19SOL    HW1   56   1.888   1.920   2.837 -0.1773  1.4681  0.7746
   19SOL    HW2   57   1.828   1.994   2.974  0.5774 -1.5526  0.4555
   20SOL     OW   58   2.071   1.804   1.862  0.6316 -0.6034  0.1423
   20SOL    HW1   59   2.146   1.855   1.817 -1.0227  1.0340  1.2097
   20SOL    HW2   60   2.110   1.717   1.902  1.2393 -0.3693  1.6647
   21SOL     OW   61   0.913   1.679   0.062 -0.3912 -0.4480  0.1724
   21SOL    HW1   62   0.910   1.587   0.020 -2.2067  0.4501 -1.6633
   21SOL    HW2   63   0.861   1.678   0.151  1.6884  0.2558 -3.6340
   22SOL     OW   64   1.965   0.093   1.557 -0.1707 -0.1011  0.4004
   22SOL    HW1   65   2.029   0.122   1.483 -2.6051  0.1688  0.5973
   22SOL    HW2   66   1.961   0.163   1.620 -1.7302 -4.8329 -1.2179
   23SOL     OW   67   2.849   0.754   1.976  0.1733 -0.3299  0.8235
   23SOL    HW1   68   2.813   0.818   1.906  0.5035  0.4191 -1.0050
   23SOL    HW2   69   2.781   0.734   2.052  0.2918  0.7707  2.9776
   24SOL     OW   70   2.246   2.634   0.352 -0.3839  0.2834 -0.0700
   24SOL    HW1   71   2.311   2.669   0.277  3.3338  0.5275  1.5309
   24SOL    HW2   72   2.205   2.549   0.317  2.3315  0.1856 -1.9622
   25SOL     OW   73   1.510   3.045   2.492 -0.5010  0.8868 -0.1331
   25SOL    HW1   74   1.499   3.079   2.397 -1.4441  3.2069 -0.4616
   25SOL    HW2   75   1.608   3.026   2.509 -0.9189 -0.0626 -0.9777
   26SOL     OW   76   1.834   2.699   0.027 -0.0616  0.0542  0.2560
   26SOL    HW1   77   1.738   2.688   3.104 -0.0304  1.5478 -0.3010
   26SOL    HW2   78   1.846   2.665   0.122 -1.7255 -0.2423  0.7381
   27SOL     OW   79   2.830   1.877   2.940  0.0701 -0.1093 -0.4732
   27SOL    HW1   80   2.799   1.941   3.016 -0.1137  1.5713 -0.5582
   27SOL    HW2   81   2.901   1.922   2.884  1.7665 -0.5750 -0.9106
   28SOL     OW   82   0.090   1.023   1.767  0.6518  0.0754  0.1207
   28SOL    HW1   83   0.099   0.942   1.702  1.8633  0.6393 -1.0062
   28SOL    HW2   84   0.037   1.098   1.725 -1.7666  2.9978 -0.8498
   29SOL     OW   85   2.437   2.353   1.253  0.2089  0.0506  0.3480
   29SOL    HW1   86   2.454   2.441   1.304  0.4253 -1.9700  0.3858
   29SOL    HW2   87   2.521   2.299   1.245 -3.0234  0.7976  1.5720
   30SOL     OW   88   1.552   0.257   0.355  0.1255  0.7335  0.5119
   30SOL    HW1   89   1.465   0.247   0.302 -0.2541 -2.6446  0.0005
   30SOL    HW2   90   1.563   0.348   0.400  1.3594  3.2437  0.2917
   31SOL     OW   91   2.661   2.719   1.792 -0.5282 -0.5606  0.0445
   31SOL    HW1   92   2.567   2.727   1.840 -0.2073  1.4441  0.3633
   31SOL    HW2   93   2.650   2.680   1.699  1.6186 -0.5601  0.1497
   32SOL     OW   94   0.895   1.870   0.985  0.4459 -0.0442  0.0171
   32SOL    HW1   95   0.928   1.863   0.890 -3.3900  0.4942  2.3580
   32SOL    HW2   96   0.822   1.939   0.995 -0.5415  1.7693 -3.4909
   33SOL     OW   97   0.627   2.992   2.776 -0.3467  0.6795 -0.6111
   33SOL    HW1   98   0.716   2.990   2.822 -0.8197  0.3627 -3.2372
   33SOL    HW2   99   0.568   2.910   2.787 -0.1197  1.1683  1.1492
   34SOL     OW  100   1.437   3.018   0.764 -0.2823 -0.0905 -0.0808
   34SOL    HW1  101   1.407   0.007   0.748  1.3243 -1.9016  2.4061
   34SOL    HW2  102   1.524   2.993   0.719 -0.6577 -0.9513  0.2110
   35SOL     OW  103   2.215   2.999   1.174  0.1156 -0.0192 -0.2735
   35SOL    HW1  104   2.124   2.963   1.141 -2.8974 -2.4584  2.5887
   35SOL    HW2  105   2.201   3.073   1.242  0.7093 -0.2786  0.0043
   36SOL     OW  106   1.738   2.712   2.202  0.1281 -0.4942  0.1945
   36SOL    HW1  107   1.735   2.787   2.130 -0.1395  2.3732 -3.0961
   36SOL    HW2  108   1.649   2.705   2.248 -0.4088 -1.8916 -1.0214
   37SOL     OW  109   0.781   0.124   2.396 -0.0130 -0.1041 -0.0678
   37SOL    HW1  110   0.848   0.126   2.318 -2.3019 -1.6042  2.5796
   37SOL    HW2  111   0.743   0.213   2.411 -0.0403 -0.7641 -1.0633
   38SOL     OW  112   0.307   2.479   2.641  0.0418 -0.1038 -0.4337
   38SOL    HW1  113   0.405   2.490   2.642 -0.1019 -2.0779 -0.1140
   38SOL    HW2  114   0.273   2.441   2.555 -1.6183  0.1827 -2.3284
   39SOL     OW  115   2.155   1.152   1.799 -0.5330 -0.3376  0.0679
   39SOL    HW1  116   2.219   1.196   1.732 -1.1877 -0.0947  1.5681
   39SOL    HW2  117   2.161   1.208   1.883  2.8878 -2.2722  0.9651
   40SOL     OW  118   0.700   2.967   0.168  0.4632 -0.5321 -0.1531
   40SOL    HW1  119   0.755   2.997   0.250 -0.9003 -3.1529  1.9310
   40SOL    HW2  120   0.670   3.039   0.105 -0.9574 -2.1475  0.2634
   41SOL     OW  121   2.226   1.062   1.156 -0.2355  0.0023  0.0460
   41SOL    HW1  122   2.320   1.065   1.198 -0.1936 -0.8805 -2.5199
   41SOL    HW2  123   2.223   1.124   1.075  0.2388 -1.6105  1.4524
   42SOL     OW  124   0.600   0.500   1.048 -0.2285 -0.5121 -0.2455
   42SOL    HW1  125   0.571   0.567   0.977 -1.8174  0.3023 -2.1736
   42SOL    HW2  126   0.655   0.550   1.122 -1.0623  0.6881 -1.7468
   43SOL     OW  127   2.171   1.561   2.740 -0.2410  0.3274  0.1049
   43SOL    HW1  128   2.203   1.513   2.823 -0.9730 -1.8839  0.3109
   43SOL    HW2  129   2.169   1.500   2.659 -0.9959 -0.0506 -2.3946
   44SOL     OW  130   3.017   3.009   1.558  0.1016 -0.1987  0.4751
   44SOL    HW1  131   0.005   3.009   1.517 -2.4902 -0.1194  4.2792
   44SOL    HW2  132   3.006   3.095   1.609  4.0955 -2.2096 -0.9531
   45SOL     OW  133   0.372   2.731   1.241 -0.3834 -0.0266  0.0462
   45SOL    HW1  134   0.340   2.829   1.225  1.6264 -0.3701 -0.9220
   45SOL    HW2  135   0.464   2.721   1.275 -1.6083  0.3843  0.7093
   46SOL     OW  136   2.160   2.997   2.675 -0.1302  0.2795 -0.3433
   46SOL    HW1  137   2.143   2.909   2.623  1.2297  0.9013 -1.5439
   46SOL    HW2  138   2.260   3.017   2.678  3.7538  0.7140  0.1728
   47SOL     OW  139   1.996   1.880   0.661  0.6300  0.7818  0.3119
   47SOL    HW1  140   1.969   1.784   0.691  0.2677 -1.7718 -2.4688
   47SOL    HW2  141   1.968   1.900   0.560 -1.3693 -0.9088 -0.0277
   48SOL     OW  142   0.488   1.991   0.354  0.0285 -0.0626 -0.4061
   48SOL    HW1  143   0.573   2.051   0.336  2.3911  2.9249 -0.9574
   48SOL    HW2  144   0.460   1.940   0.271 -0.3713  1.5364  2.5798
   49SOL     OW  145   2.729   0.484   2.655 -0.0742 -0.8603 -0.2391
   49SOL    HW1  146   2.675   0.559   2.612 -0.8588  1.1506  0.4493
   49SOL    HW2  147   2.779   0.424   2.588  0.8674  1.0469 -1.2474
   50SOL     OW  148   1.968   0.786   0.498 -0.5028  0.2039 -0.1819
   50SOL    HW1  149   2.052   0.818   0.447  2.4532  0.8869 -0.4023
   50SOL    HW2  150   1.897   0.744   0.437 -1.0612 -2.1292  0.1431
   51SOL     OW  151   2.189   0.826   0.811 -0.1069 -0.1907 -0.4561
   51SOL    HW1  152   2.207   0.816   0.914 -1.4328  1.2054  1.6069
   51SOL    HW2  153   2.104   0.773   0.783  1.2486 -0.2847 -0.0343
   52SOL     OW  154   1.400   1.581   2.042  0.5555  1.1713  0.2032
   52SOL    HW1  155   1.472   1.523   1.999  1.6396  1.8015  0.9483
   52SOL    HW2  156   1.311   1.539   2.032  0.0164  0.4368  0.4342
   53SOL     OW  157   0.599   1.794   1.973  0.1309 -0.2563 -0.4865
   53SOL    HW1  158   0.643   1.751   1.895 -2.5834  1.3736  0.8292
   53SOL    HW2  159   0.615   1.892   1.972 -2.0576  1.7304 -1.8645
   54SOL     OW  160   2.251   0.438   1.323  0.4620  0.3917  0.1596
   54SOL    HW1  161   2.300   0.384   1.246  1.2383  1.3073 -0.8390
   54SOL    HW2  162   2.285   0.535   1.329 -0.6514  2.7694 -1.3295
   55SOL     OW  163   2.410   2.113   0.814  0.8486  0.1754 -0.3270
   55SOL    HW1  164   2.492   2.064   0.844 -2.5223  1.2912 -0.6814
   55SOL    HW2  165   2.359   2.062   0.746  1.3726  1.9157  0.9804
   56SOL     OW  166   1.244   3.083   1.927  0.0404 -0.1808  0.6372
   56SOL    HW1  167   1.240   3.041   2.020  2.5747  0.4973  1.2371
   56SOL    HW2  168   1.280   0.071   1.931 -0.7297 -2.8522  2.5656
   57SOL     OW  169   1.397   1.750   0.155  0.3014  0.5418  0.3221
   57SOL    HW1  170   1.455   1.750   0.238 -3.2504  0.4360  0.2323
   57SOL    HW2  171   1.299   1.757   0.185  2.2179  0.3283 -1.6706
   58SOL     OW  172   0.080   1.068   2.464  0.7789 -0.3975 -0.3213
   58SOL    HW1  173   0.160   1.042   2.523 -1.4581 -0.2996 -0.7303
   58SOL    HW2  174   0.108   1.036   2.371  1.0687  0.8567  0.9497
   59SOL     OW  175   1.030   0.040   2.533  0.2457 -0.0202  0.2461
   59SOL    HW1  176   0.957   0.073   2.468 -0.2430  2.3211 -3.6197
   59SOL    HW2  177   0.992   0.009   2.625  1.6381 -0.6926  2.6472
   60SOL     OW  178   2.734   2.056   0.476 -0.2567 -0.9275  0.4168
   60SOL    HW1  179   2.792   2.006   0.407  1.0167  2.3203  0.4500
   60SOL    HW2  180   2.715   2.001   0.560 -0.0270 -0.7372 -0.0005
   61SOL     OW  181   1.113   2.087   0.160  0.4645  0.4284  0.9164
   61SOL    HW1  182   1.076   2.127   0.072  0.8081  0.3976 -0.1144
   61SOL    HW2  183   1.075   2.122   0.245  1.5999  1.8249 -2.4434
   62SOL     OW  184   2.019   2.238   2.316  0.4983 -0.2070 -0.2305
   62SOL    HW1  185   2.000   2.142   2.292 -2.1686  3.2305  0.5407
   62SOL    HW2  186   1.931   2.295   2.313 -2.2968  1.2420  0.4251
   63SOL     OW  187   2.166   2.177   2.976  0.5675 -0.0561  0.0322
   63SOL    HW1  188   2.212   2.089   3.000 -0.8421  0.7737 -0.1077
   63SOL    HW2  189   2.235   2.255   2.981  1.1363  0.1612 -2.8498
   64SOL     OW  190   1.635   0.919   2.598 -0.3843 -0.5740  0.2245
   64SOL    HW1  191   1.597   0.852   2.529  0.3772  1.2326 -2.1792
   64SOL    HW2  192   1.557   0.953   2.654 -3.8579 -1.6460 -1.4604
   65SOL     OW  193   1.190   2.278   2.801  0.8258  0.0539 -0.7528
   65SOL    HW1  194   1.137   2.202   2.839 -0.6053 -0.0978  0.7871
   65SOL    HW2  195   1.270   2.310   2.860  4.3216  0.3350 -0.9475
   66SOL     OW  196   0.260   1.570   1.920 -0.3706  0.3082 -0.1319
   66SOL    HW1  197   0.329   1.579   1.994  2.2413 -2.2269  2.2604
   66SOL    HW2  198   0.244   1.473   1.893  1.4303  1.1734  1.0878
   67SOL     OW  199   2.899   2.641   2.762  0.5884 -0.8264  0.1836
   67SOL    HW1  200   2.821   2.700   2.794  0.3492  0.3586  1.3041
   67SOL    HW2  201   2.955   2.684   2.691 -0.5201 -1.0625  1.2363
   68SOL     OW  202   0.834   2.512   1.315 -0.6275 -0.1268 -0.2410
   68SOL    HW1  203   0.798   2.488   1.227  0.8503 -0.7918  2.4131
   68SOL    HW2  204   0.923   2.472   1.336 -0.4485  1.6181 -0.4821
   69SOL     OW  205   0.614   2.671   0.561  0.3277 -0.2810 -0.3631
   69SOL    HW1  206   0.546   2.613   0.616 -1.1749  0.2108 -1.8079
   69SOL    HW2  207   0.703   2.647   0.588  0.2320  0.7128  0.3412
   70SOL     OW  208   2.572   0.888   3.072 -0.3796 -0.3579  0.3334
   70SOL    HW1  209   2.662   0.841   3.064 -3.9040  1.9927  1.1243
   70SOL    HW2  210   2.513   0.843   3.005 -0.5647  0.7264  1.4611
   71SOL     OW  211   0.669   1.102   2.235 -0.0663 -1.0152 -0.6247
   71SOL    HW1  212   0.748   1.037   2.223  0.0400  0.5905  2.9469
   71SOL    HW2  213   0.689   1.145   2.323  3.1955  1.8528 -0.5531
   72SOL     OW  214   0.052   1.999   0.471  0.8963 -0.1287  0.1648
   72SOL    HW1  215   0.018   1.910   0.434 -0.7126 -3.5057 -0.5961
   72SOL    HW2  216   3.100   2.023   0.550  0.6950 -0.2104  0.9523
   73SOL     OW  217   0.991   1.462   0.297 -0.5300 -0.0559 -0.3701
   73SOL    HW1  218   1.035   1.457   0.204 -0.3942  1.5360  0.6539
   73SOL    HW2  219   0.905   1.517   0.292  0.2745  0.9880 -1.9080
   74SOL     OW  220   2.431   2.727   0.157  0.2914 -0.3322 -0.1368
   74SOL    HW1  221   2.533   2.721   0.157  0.2015  1.3681  0.2795
   74SOL    HW2  222   2.389   2.723   0.067  0.7938  0.4139  1.6469
   75SOL     OW  223   2.186   1.525   1.917 -0.0385 -0.1570 -0.0003
   75SOL    HW1  224   2.157   1.443   1.972 -3.7711  2.5022 -1.2769
   75SOL    HW2  225   2.185   1.514   1.817  0.2903  0.6701  0.1299
   76SOL     OW  226   1.871   2.566   1.887 -0.2694  0.1880  0.0836
   76SOL    HW1  227   1.866   2.539   1.987 -0.9600 -1.4963 -0.7278
   76SOL    HW2  228   1.817   2.648   1.876  3.0224 -1.3033  0.7025
   77SOL     OW  229   2.478   0.250   1.746 -0.2009  0.2599 -0.0778
   77SOL    HW1  230   2.553   0.292   1.798 -1.8659  2.4624 -2.0429
   77SOL    HW2  231   2.439   0.323   1.684 -1.4547  1.3796  0.6525
   78SOL     OW  232   1.596   0.789   2.968 -0.1164  0.0445  0.3072
   78SOL    HW1  233   1.631   0.727   3.041 -0.8757 -1.8990 -1.3124
   78SOL    HW2  234   1.673   0.854   2.941  1.0000  1.1211  1.6355
   79SOL     OW  235   2.594   1.453   1.928 -0.2963  0.1467  0.1749
   79SOL    HW1  236   2.546   1.455   1.839  0.3652 -3.7856 -0.4161
   79SOL    HW2  237   2.688   1.425   1.929 -1.2101 -0.0629 -0.9755
   80SOL     OW  238   1.919   1.219   1.153  0.1786 -0.0917 -0.0677
   80SOL    HW1  239   1.955   1.236   1.059  3.2746  2.7890  0.4468
   80SOL    HW2  240   1.974   1.266   1.223  4.1886 -0.5483 -2.5358
   81SOL     OW  241   1.447   0.587   1.644 -0.3758  0.2911 -0.0422
   81SOL    HW1  242   1.490   0.678   1.614 -0.6170  1.0114 -0.5664
   81SOL    HW2  243   1.504   0.508   1.614 -0.6378 -0.6046 -2.7973
   82SOL     OW  244   1.423   2.459   1.472  0.6354 -0.0934 -0.7595
   82SOL    HW1  245   1.520   2.437   1.452 -0.5753 -1.0887 -1.0364
   82SOL    HW2  246   1.396   2.538   1.418  0.9190 -1.9637 -1.1181
   83SOL     OW  247   0.225   0.208   0.595 -0.0798  0.3601  0.7007
   83SOL    HW1  248   0.191   0.111   0.608  3.7614 -0.2906 -1.6309
   83SOL    HW2  249   0.247   0.220   0.496 -0.6248 -0.0746 -2.3940
   84SOL     OW  250   0.151   0.835   2.926 -0.1879 -0.0251  0.2132
   84SOL    HW1  251   0.170   0.736   2.891  1.1701 -5.6811  2.0926
   84SOL    HW2  252   0.197   0.850   3.018  1.4673  0.0610  1.5211
   85SOL     OW  253   2.719   1.853   1.840 -1.1308  0.2114  0.0715
   85SOL    HW1  254   2.749   1.783   1.771  1.2916 -0.7296  0.1798
   85SOL    HW2  255   2.763   1.943   1.836  1.9455  0.9079  0.3450
   86SOL     OW  256   2.839   2.092   1.826  0.3393 -0.1409 -0.2993
   86SOL    HW1  257   2.907   2.164   1.802 -3.0534  3.2932 -2.2222
   86SOL    HW2  258   2.789   2.121   1.910 -0.1329  2.4608 -2.6937
   87SOL     OW  259   0.568   0.143   2.793 -0.1392  0.5527 -0.1083
   87SOL    HW1  260   0.615   0.053   2.780  2.8510 -0.2525  1.7048
   87SOL    HW2  261   0.563   0.168   2.890 -1.6760  1.1463 -2.7459
   88SOL     OW  262   0.452   2.145   1.038  0.5664 -0.6226 -0.2839
   88SOL    HW1  263   0.411   2.147   0.945 -1.5904 -2.7399  1.0036
   88SOL    HW2  264   0.426   2.052   1.074  0.0891 -0.0590 -2.6955
   89SOL     OW  265   0.961   0.611   1.812 -0.1131 -0.0133  0.1072
   89SOL    HW1  266   0.965   0.646   1.715 -0.8521  1.1052  0.3762
   89SOL    HW2  267   1.053   0.593   1.855  1.4885  1.6655 -0.1975
   90SOL     OW  268   2.413   1.649   1.488  0.1568 -0.0841  0.0504
   90SOL    HW1  269   2.490   1.713   1.478  0.5597 -2.3207 -1.4116
   90SOL    HW2  270   2.318   1.689   1.466 -0.5444 -1.1464 -0.1764
   91SOL     OW  271   1.360   1.441   0.658 -0.1034  0.3521  0.1781
   91SOL    HW1  272   1.313   1.452   0.565  1.5314 -1.8476 -2.9486
   91SOL    HW2  273   1.334   1.356   0.705 -0.5683 -1.4137 -1.0184
   92SOL     OW  274   2.139   0.554   0.875  0.6254  0.2126 -0.0048
   92SOL    HW1  275   2.060   0.606   0.845  1.0091  1.7736  0.1058
   92SOL    HW2  276   2.190   0.613   0.946 -2.6015 -0.3180 -0.9310
   93SOL     OW  277   2.144   1.184   3.027  0.2981 -0.4202  0.2059
   93SOL    HW1  278   2.090   1.225   3.105  1.2195  2.7580 -1.7325
   93SOL    HW2  279   2.086   1.196   2.944 -0.2494  0.9736 -3.4842
   94SOL     OW  280   2.470   2.159   2.253  0.2377 -0.1555  0.0041
   94SOL    HW1  281   2.502   2.236   2.194 -0.0127  0.0911 -1.2792
   94SOL    HW2  282   2.418   2.093   2.199 -0.0974  1.3945  1.5818
   95SOL     OW  283   1.972   0.321   0.933 -0.3960 -0.2330 -0.3498
   95SOL    HW1  284   2.038   0.397   0.917  1.3744  1.5449 -0.4884
   95SOL    HW2  285   2.016   0.232   0.919  0.9491  0.8801 -1.1803
   96SOL     OW  286   2.906   0.135   1.677 -0.4581  0.0609  0.0035
   96SOL    HW1  287   2.849   0.058   1.714 -2.5023  0.0260  0.3798
   96SOL    HW2  288   2.867   0.156   1.586 -0.4101 -3.0433 -1.1248
   97SOL     OW  289   2.336   0.306   1.100 -0.3495  0.5406  0.1676
   97SOL    HW1  290   2.375   0.358   1.020  1.2410 -0.3581  0.4820
   97SOL    HW2  291   2.339   0.207   1.072  0.1701 -0.2582  1.2846
   98SOL     OW  292   1.588   2.169   1.605 -0.0768 -0.0311 -0.1731
   98SOL    HW1  293   1.654   2.245   1.592 -2.6451  0.2688 -0.4105
   98SOL    HW2  294   1.496   2.203   1.625  2.6320  2.8410 -0.3375
   99SOL     OW  295   2.546   2.355   1.629  0.3629 -0.1754 -0.0931
   99SOL    HW1  296   2.593   2.444   1.616  0.7535 -1.9744  0.4975
   99SOL    HW2  297   2.449   2.348   1.595 -1.8879 -1.6011  2.5091
  100SOL     OW  298   0.460   0.761   2.907 -0.0613  0.1438 -0.6004
  100SOL    HW1  299   0.499   0.836   2.852 -2.1908  1.8332  0.1852
  100SOL    HW2  300   0.380   0.726   2.858  0.4079  1.8463  3.9572
  101SOL     OW  301   1.867   0.405   3.104 -0.0413 -0.1237  0.0735
  101SOL    HW1  302   1.895   0.406   3.004  2.6032 -0.9560 -0.9973
  101SOL    HW2  303   1.945   0.373   0.055  1.2637  0.7070 -1.4562
  102SOL     OW  304   0.167   0.656   1.848 -0.0212 -0.3532  0.2860
  102SOL    HW1  305   0.130   0.698   1.760 -0.3235 -0.3122  0.0541
  102SOL    HW2  306   0.186   0.557   1.833  0.0344  4.5948  1.1176
  103SOL     OW  307   2.787   1.116   2.270  0.1125  0.0503 -0.0640
  103SOL    HW1  308   2.739   1.198   2.297  1.0179 -3.8606  0.9573
  103SOL    HW2  309   2.817   1.067   2.355 -1.2867  2.0088 -0.1838
  104SOL     OW  310   0.516   0.318   2.580 -0.0857  0.2350  1.0100
  104SOL    HW1  311   0.540   0.260   2.659 -1.4859 -0.9721 -1.6153
  104SOL    HW2  312   0.589   0.304   2.509 -0.0497 -0.9931  1.2925
  105SOL     OW  313   2.136   1.706   1.462  0.3056  0.0176 -0.0204
  105SOL    HW1  314   2.106   1.794   1.498  1.4824 -3.9485 -0.3270
  105SOL    HW2  315   2.080   1.679   1.385  1.3624 -2.4681 -0.0263
  106SOL     OW  316   2.199   0.202   0.573  0.2839  0.9429 -0.3784
  106SOL    HW1  317   2.204   0.106   0.535  1.6621 -2.5263  1.1617
  106SOL    HW2  318   2.193   0.200   0.677 -0.1022 -1.5110  0.3773
  107SOL     OW  319   3.087   1.483   1.096  0.1792  0.6460 -0.2211
  107SOL    HW1  320   0.006   1.490   1.189 -0.9846  0.8659 -4.4150
  107SOL    HW2  321   0.055   1.513   1.031 -2.1397  1.9849 -0.4310
  108SOL     OW  322   2.897   2.685   1.918  0.5168  0.3127 -0.6482
  108SOL    HW1  323   2.930   2.588   1.915  0.2295  0.9283 -1.8540
  108SOL    HW2  324   2.803   2.697   1.876 -4.1224  1.0250  2.4468
  109SOL     OW  325   2.146   0.120   0.834 -0.2985 -0.4362  0.8594
  109SOL    HW1  326   2.232   0.107   0.890  1.7221 -0.2797  0.4558
  109SOL    HW2  327   2.101   0.031   0.812  0.5611  0.6173 -1.2888
  110SOL     OW  328   0.450   2.181   2.490 -0.0508 -0.2895  0.8027
  110SOL    HW1  329   0.354   2.169   2.523 -0.0454 -0.3121 -0.5510
  110SOL    HW2  330   0.469   2.134   2.402  1.8204  1.6717  0.1481
  111SOL     OW  331   1.508   2.351   1.922  0.3770  1.0030 -0.4244
  111SOL    HW1  332   1.609   2.341   1.930  2.0546 -0.8890 -0.9790
  111SOL    HW2  333   1.467   2.298   1.844  1.3093  1.2136 -0.2097
  112SOL     OW  334   1.589   2.704   3.012  0.0089 -0.3051 -0.1160
  112SOL    HW1  335   1.521   2.632   3.006  0.6795 -0.8494 -0.0804
  112SOL    HW2  336   1.552   2.787   2.964  1.1778 -0.4386 -0.8635
  113SOL     OW  337   2.026   2.706   1.496  0.2891  0.0531  0.5420
  113SOL    HW1  338   1.931   2.690   1.530 -0.1296  3.1951 -1.5675
  113SOL    HW2  339   2.028   2.680   1.397  1.0866 -0.1670  1.4164
  114SOL     OW  340   3.062   1.136   0.571  0.3411  0.0724  0.3529
  114SOL    HW1  341   3.001   1.218   0.586 -3.5460  1.3175  0.7708
  114SOL    HW2  342   0.055   1.157   0.568  0.1930  0.9499 -0.0803
  115SOL     OW  343   0.738   1.028   3.000  0.1644  0.0926  0.3755
  115SOL    HW1  344   0.680   1.099   2.954 -2.4666 -2.0910 -1.7071
  115SOL    HW2  345   0.677   0.970   3.058 -0.2519  1.7052 -1.4638
  116SOL     OW  346   2.456   1.783   1.922  0.6341 -0.0995  0.4844
  116SOL    HW1  347   2.472   1.684   1.947  0.2731 -1.3252 -0.3432
  116SOL    HW2  348   2.542   1.818   1.884 -0.2632 -0.5776  0.2319
  117SOL     OW  349   2.551   2.645   0.887  0.0993 -0.5041  0.1350
  117SOL    HW1  350   2.595   2.612   0.802 -2.5378 -1.0510 -1.5844
  117SOL    HW2  351   2.566   2.738   0.907 -0.2636 -1.9899  0.6370
  118SOL     OW  352   1.037   2.326   1.540  0.0211  0.4075 -0.0166
  118SOL    HW1  353   1.010   2.406   1.598 -1.2476  1.9668  1.3752
  118SOL    HW2  354   1.071   2.354   1.451 -0.5397 -0.2898 -0.1574
  119SOL     OW  355   0.220   1.900   2.848  0.1035  0.1253 -0.3320
  119SOL    HW1  356   0.312   1.933   2.826  1.3466  1.2799  0.2111
  119SOL    HW2  357   0.230   1.800   2.870 -2.4638 -1.1255  0.0659
  120SOL     OW  358   0.881   0.774   2.925  0.1408  0.1935  0.2824
  120SOL    HW1  359   0.825   0.857   2.919  2.3897 -1.7926  0.0886
  120SOL    HW2  360   0.935   0.774   3.009  1.1146 -1.2110 -0.3372
  121SOL     OW  361   1.542   2.701   0.915 -0.1378  0.6260  0.2380
  121SOL    HW1  362   1.548   2.598   0.912 -2.3427  3.2389 -1.3914
  121SOL    HW2  363   1.577   2.734   0.825 -2.4525  1.2921  3.6950
  122SOL     OW  364   2.246   2.607   1.608 -0.0859 -0.0924  0.1703
  122SOL    HW1  365   2.231   2.602   1.708  0.3536 -2.0426  2.3476
  122SOL    HW2  366   2.164   2.656   1.570 -1.3508 -0.6683  2.2031
  123SOL     OW  367   0.174   3.003   0.988  0.2525 -0.3113 -0.3276
  123SOL    HW1  368   0.238   3.069   0.948 -4.1390 -2.3591 -2.2444
  123SOL    HW2  369   0.190   2.909   0.956 -0.5792 -1.1393  0.0804
  124SOL     OW  370   2.212   1.203   2.675 -0.6922 -0.7447 -0.2468
  124SOL    HW1  371   2.239   1.109   2.683 -1.4369  0.6108  1.3307
  124SOL    HW2  372   2.111   1.211   2.688 -1.1014  2.0241 -0.4726
  125SOL     OW  373   0.676   0.965   0.493  0.6421  0.1876  0.3410
  125SOL    HW1  374   0.626   1.023   0.560  0.0803 -0.8507  2.8543
  125SOL    HW2  375   0.702   1.021   0.410  0.6307  1.3765 -0.1667
  126SOL     OW  376   3.088   1.274   0.940  0.2228 -0.2831  0.7622
  126SOL    HW1  377   2.997   1.246   0.911  2.9753  0.0875  0.0688
  126SOL    HW2  378   3.088   1.354   1.003 -1.4430 -1.7867 -3.8780
  127SOL     OW  379   0.291   1.837   1.870  0.6577  0.7976 -0.3268
  127SOL    HW1  380   0.289   1.739   1.907 -1.0779 -1.8428 -0.8153
  127SOL    HW2  381   0.374   1.857   1.812  0.7248  0.5208 -2.6090
  128SOL     OW  382   1.150   1.159   3.068  0.1017  0.6745  0.3719
  128SOL    HW1  383   1.225   1.117   0.013 -1.1561 -1.3768 -0.8158
  128SOL    HW2  384   1.191   1.232   3.010 -1.0259 -0.1055 -0.9887
  129SOL     OW  385   2.841   1.202   0.865 -0.4615 -0.0444 -0.1024
  129SOL    HW1  386   2.758   1.241   0.903  3.5684  0.5411  0.7557
  129SOL    HW2  387   2.841   1.102   0.862  1.1494  4.0854 -0.1061
  130SOL     OW  388   2.427   1.004   1.514 -0.6651 -0.0889 -0.3824
  130SOL    HW1  389   2.481   0.919   1.513 -1.8993  1.1845 -0.6043
  130SOL    HW2  390   2.444   1.057   1.431  1.7348  1.4620  1.3136
  131SOL     OW  391   3.008   3.003   2.892 -0.2676 -0.3578  0.2224
  131SOL    HW1  392   3.004   3.004   2.788  1.1970 -0.3034 -0.1538
  131SOL    HW2  393   3.029   3.102   2.925  3.3944  0.0361 -0.8452
  132SOL     OW  394   0.039   1.642   1.380 -0.1366 -0.5181 -0.0161
  132SOL    HW1  395   0.069   1.691   1.296 -0.6050 -1.2179 -0.1245
  132SOL    HW2  396   0.074   1.684   1.465  1.8410  2.1740  1.0033
  133SOL     OW  397   1.272   0.113   1.352 -0.0767  0.0961  0.1395
  133SOL    HW1  398   1.239   0.110   1.447  0.2873 -0.2714 -1.0806
  133SOL    HW2  399   1.367   0.140   1.353  2.1188 -2.4708 -0.5991
  134SOL     OW  400   3.101   1.220   0.015  0.5625 -0.1068 -0.3227
  134SOL    HW1  401   3.011   1.167   0.012 -2.9845  0.4040 -0.1794
  134SOL    HW2  402   3.075   1.316   3.094 -0.2374 -0.8654 -2.5609
  135SOL     OW  403   2.345   1.252   1.659  0.0748 -0.3446  0.0278
  135SOL    HW1  404   2.382   1.180   1.598  1.1544 -1.7089 -0.0154
  135SOL    HW2  405   2.414   1.323   1.684 -0.2199 -1.2075 -0.4143
  136SOL     OW  406   0.134   0.912   0.331 -0.3036 -0.3494 -0.1472
  136SOL    HW1  407   0.088   0.829   0.363 -1.2406  1.2419 -1.1655
  136SOL    HW2  408   0.088   1.002   0.342 -2.2914 -1.5234 -0.6068
  137SOL     OW  409   2.798   0.976   1.158  0.1391  0.0921 -0.6265
  137SOL    HW1  410   2.839   0.949   1.070 -3.2487 -1.4539 -1.0899
  137SOL    HW2  411   2.836   1.067   1.190  0.1737 -1.1729  2.6607
  138SOL     OW  412   1.563   1.052   1.077 -0.7361  0.7945  0.0407
  138SOL    HW1  413   1.523   0.962   1.084  3.0678  0.3581  0.0403
  138SOL    HW2  414   1.633   1.058   1.144  0.4168 -0.4931 -3.6537
  139SOL     OW  415   1.812   3.081   0.123  0.1075  0.0505  0.3138
  139SOL    HW1  416   1.880   3.002   0.136 -1.1655 -0.4745  1.2278
  139SOL    HW2  417   1.820   0.039   0.198 -0.6979  0.3959 -2.6173
  140SOL     OW  418   1.699   1.810   1.455 -0.3207 -0.5982  0.3900
  140SOL    HW1  419   1.723   1.729   1.399  3.3602  3.0642 -0.7067
  140SOL    HW2  420   1.674   1.786   1.546 -1.0175  1.9471  0.0344
  141SOL     OW  421   1.992   2.262   0.362 -0.3594 -0.1560 -0.0747
  141SOL    HW1  422   2.045   2.274   0.450  0.5689  1.8113  0.0998
  141SOL    HW2  423   1.916   2.197   0.373 -0.2397 -0.8963  1.3913
  142SOL     OW  424   0.521   0.915   0.035  0.8934  0.1492 -0.0139
  142SOL    HW1  425   0.550   0.881   0.123 -0.1248 -0.7803 -2.4254
  142SOL    HW2  426   0.499   0.844   3.075 -1.5730 -2.9064  1.9392
  143SOL     OW  427   0.259   2.155   0.137 -0.3828 -0.8256  0.2495
  143SOL    HW1  428   0.180   2.195   0.193 -2.6011  0.7789  2.7488
  143SOL    HW2  429   0.236   2.173   0.038 -0.1532  1.2520  0.8302
  144SOL     OW  430   1.427   2.967   1.206 -0.3108 -0.2432  0.1521
  144SOL    HW1  431   1.443   3.060   1.232  1.6110 -1.1553 -0.3214
  144SOL    HW2  432   1.508   2.933   1.152  4.1144 -2.0739  0.4380
  145SOL     OW  433   2.370   1.286   0.524  0.0127  0.1547 -0.0433
  145SOL    HW1  434   2.462   1.325   0.498 -1.1218  1.6364  2.6889
  145SOL    HW2  435   2.325   1.232   0.449  0.3198 -2.1458 -0.1176
  146SOL     OW  436   2.830   1.891   0.274  0.5753 -0.6426  0.5724
  146SOL    HW1  437   2.798   1.965   0.210  0.0287  1.2492 -0.4401
  146SOL    HW2  438   2.915   1.841   0.235  1.5684 -0.3045  3.6252
  147SOL     OW  439   2.317   2.953   1.761  0.3345 -0.2214  0.5673
  147SOL    HW1  440   2.213   2.959   1.750 -0.4574  2.8763  0.2814
  147SOL    HW2  441   2.363   2.950   1.670  0.0165  0.5934  1.2105
  148SOL     OW  442   1.355   2.692   2.074  0.3290  0.4231  0.1414
  148SOL    HW1  443   1.384   2.644   1.985  0.7809 -0.7994 -0.2273
  148SOL    HW2  444   1.403   2.660   2.154 -1.1935  0.4125 -1.0588
  149SOL     OW  445   1.733   0.511   2.299 -0.5475 -0.4871 -0.0315
  149SOL    HW1  446   1.772   0.565   2.218  2.3835  1.6123 -2.1318
  149SOL    HW2  447   1.658   0.560   2.347 -0.3245  0.9712 -0.2569
  150SOL     OW  448   0.262   3.026   0.609 -0.1356  0.1544 -0.0494
  150SOL    HW1  449   0.357   3.004   0.629 -1.6386 -0.2923  0.7249
  150SOL    HW2  450   0.231   2.998   0.516  2.2079 -0.0814 -2.4751
  151SOL     OW  451   2.981   1.456   3.032 -0.1731 -0.2188  0.5144
  151SOL    HW1  452   2.915   1.528   3.064 -0.6781  0.8395  1.2068
  151SOL    HW2  453   2.979   1.440   2.928 -0.5990 -1.2979 -2.2978
  152SOL     OW  454   2.929   0.127   0.684 -0.3774 -0.0285 -0.2983
  152SOL    HW1  455   2.998   0.103   0.756 -1.6040 -4.6933 -0.3235
  152SOL    HW2  456   2.842   0.154   0.733  1.6030 -1.0178 -0.9041
  153SOL     OW  457   2.704   3.041   1.305 -0.0538  0.0096 -0.3610
  153SOL    HW1  458   2.707   2.996   1.394  1.2566  0.1512 -0.2796
  153SOL    HW2  459   2.689   2.972   1.235 -0.0695  3.7114  4.0147
  154SOL     OW  460   1.212   0.572   2.000  0.0118 -0.1280  0.0249
  154SOL    HW1  461   1.248   0.500   1.940 -2.0939  2.8544  0.0089
  154SOL    HW2  462   1.123   0.542   2.046  0.0785 -0.1529 -0.5639
  155SOL     OW  463   0.031   0.948   1.128  0.2548 -0.0023  0.2516
  155SOL    HW1  464   0.102   0.979   1.062  2.0754  1.5486  0.6150
  155SOL    HW2  465   3.078   1.030   1.149  2.8357  0.5657  0.7298
  156SOL     OW  466   3.088   1.864   3.103  0.4679  0.4251 -0.4056
  156SOL    HW1  467   3.075   1.964   0.012 -1.0317  1.7320 -1.6079
  156SOL    HW2  468   3.047   1.834   3.016  2.2774  0.6093  0.3531
  157SOL     OW  469   0.826   0.652   0.318  0.4415 -0.0118 -0.0073
  157SOL    HW1  470   0.811   0.666   0.415  2.9992  0.8181 -1.4970
  157SOL    HW2  471   0.777   0.568   0.286  0.2729 -1.1346 -2.1267
  158SOL     OW  472   2.708   0.152   2.861 -0.0311  0.2986 -0.5350
  158SOL    HW1  473   2.676   0.247   2.872  1.4766 -0.2419 -2.5487
  158SOL    HW2  474   2.742   0.137   2.766  0.8815 -2.1750 -0.1602
  159SOL     OW  475   0.727   0.212   0.139 -0.3788  0.5178 -0.3616
  159SOL    HW1  476   0.821   0.179   0.121  1.1820  0.8705 -1.2841
  159SOL    HW2  477   0.729   0.300   0.183 -0.8831 -4.2407 -0.1586
  160SOL     OW  478   1.186   2.004   2.926  0.1662 -0.2792 -0.3271
  160SOL    HW1  479   1.129   2.073   2.979  0.9372  1.0458  2.8251
  160SOL    HW2  480   1.276   1.986   2.974 -2.3114  1.5850  1.1540
  161SOL     OW  481   2.887   1.727   2.482 -0.1179  0.5161 -0.2546
  161SOL    HW1  482   2.834   1.725   2.573 -0.9838  0.2238  1.0737
  161SOL    HW2  483   2.893   1.819   2.443  0.1716 -0.5794  0.3819
  162SOL     OW  484   0.397   2.403   1.539 -0.2575  0.1607  0.0820
  162SOL    HW1  485   0.488   2.408   1.589 -0.4707 -1.1486 -1.9266
  162SOL    HW2  486   0.350   2.494   1.551 -1.6739  1.4517  3.0224
  163SOL     OW  487   1.983   0.290   2.841  0.3359  0.2047 -0.3692
  163SOL    HW1  488   1.933   0.374   2.805 -2.3464 -1.0858 -0.2487
  163SOL    HW2  489   1.999   0.221   2.765  1.8119  0.1319  0.3760
  164SOL     OW  490   2.823   1.355   0.648  0.3675 -0.5831 -0.2630
  164SOL    HW1  491   2.739   1.407   0.671 -0.3557 -0.6947  1.9589
  164SOL    HW2  492   2.850   1.296   0.726  1.9075 -2.2756  1.2112
  165SOL     OW  493   0.385   0.095   1.803  0.3749  0.1889  0.0714
  165SOL    HW1  494   0.324   0.086   1.884 -0.6724  0.8628  1.3442
  165SOL    HW2  495   0.411   0.190   1.773 -0.8040  0.6037 -2.6209
  166SOL     OW  496   1.956   0.715   0.763  0.5308  0.0164 -0.2256
  166SOL    HW1  497   1.964   0.710   0.658  1.6628 -0.5074 -1.4259
  166SOL    HW2  498   1.863   0.736   0.801 -0.1573 -0.9840  0.7910
  167SOL     OW  499   0.426   0.569   0.301  0.5087 -0.4249 -0.3121
  167SOL    HW1  500   0.461   0.660   0.267  2.6101 -1.2318 -0.4048
  167SOL    HW2  501   0.357   0.574   0.380 -1.0532  0.1897  2.4141
  168SOL     OW  502   2.002   2.948   1.958  0.0567  0.0291  0.4252
  168SOL    HW1  503   2.077   3.002   2.003 -1.5704 -0.6342  1.4191
  168SOL    HW2  504   2.013   2.944   1.855  0.1819 -2.2374 -3.2226
  169SOL     OW  505   0.992   1.206   0.804  0.3986  0.2342  0.3302
  169SOL    HW1  506   0.991   1.108   0.778 -0.4071 -0.0139  1.4598
  169SOL    HW2  507   1.034   1.223   0.895 -2.6608 -1.9010  0.8950
  170SOL     OW  508   3.079   0.434   1.421 -0.1962  0.6018 -0.0043
  170SOL    HW1  509   0.028   0.352   1.436 -1.5604 -0.3204  0.6810
  170SOL    HW2  510   3.030   0.449   1.505 -1.4500 -0.0777 -0.0790
  171SOL     OW  511   0.937   2.901   2.177 -0.6210  0.4926 -0.3364
  171SOL    HW1  512   0.860   2.847   2.210  0.1624 -1.5000 -0.9176
  171SOL    HW2  513   0.985   2.844   2.110  0.7106  2.8932 -1.3125
  172SOL     OW  514   0.639   2.349   1.412 -0.8994 -0.0322  0.4432
  172SOL    HW1  515   0.712   2.423   1.401  0.6142 -0.1704  1.7573
  172SOL    HW2  516   0.549   2.382   1.398  4.3441 -2.7715  1.9841
  173SOL     OW  517   1.413   0.996   2.754  0.3667 -0.6389  0.6127
  173SOL    HW1  518   1.347   0.919   2.746  2.5594 -2.1053 -1.1409
  173SOL    HW2  519   1.459   1.000   2.842 -0.9044  2.7520 -1.1638
  174SOL     OW  520   1.837   0.080   2.972 -0.2038 -0.1237  0.0401
  174SOL    HW1  521   1.840   0.068   3.077  0.7077 -0.9108  2.1334
  174SOL    HW2  522   1.901   0.157   2.938 -1.8028 -0.8103  1.6310
  175SOL     OW  523   1.795   2.479   0.324 -0.0391  0.2996 -0.0555
  175SOL    HW1  524   1.711   2.440   0.368  0.1108 -1.7546 -3.0837
  175SOL    HW2  525   1.873   2.413   0.330 -1.3451 -0.8420 -0.5386
  176SOL     OW  526   1.596   0.167   2.834 -0.0855  0.0798 -0.1982
  176SOL    HW1  527   1.559   0.222   2.910 -2.9179  0.4061  0.6919
  176SOL    HW2  528   1.673   0.105   2.868  1.6927 -0.3931  0.7834
  177SOL     OW  529   1.221   1.506   0.460  0.2563 -0.0455  0.0346
  177SOL    HW1  530   1.230   1.605   0.444  1.5565  0.0393  0.9237
  177SOL    HW2  531   1.134   1.472   0.419  0.8244  0.4136  0.4687
  178SOL     OW  532   3.006   2.121   2.822 -0.2566  0.3901 -0.6527
  178SOL    HW1  533   2.905   2.131   2.795 -3.3153  1.7322 -0.8654
  178SOL    HW2  534   3.035   2.220   2.830 -3.1836 -0.2389 -0.5419
  179SOL     OW  535   0.501   2.731   2.842 -0.3254  0.2503  0.1430
  179SOL    HW1  536   0.533   2.667   2.770 -0.7812 -0.3452  1.7160
  179SOL    HW2  537   0.562   2.720   2.923  1.0202  3.2325  1.3273
  180SOL     OW  538   1.490   1.660   0.746  0.2243 -0.2859  0.1561
  180SOL    HW1  539   1.459   1.747   0.699 -0.5379  0.0494 -3.5932
  180SOL    HW2  540   1.431   1.584   0.710 -1.2339 -0.2852 -0.9458
  181SOL     OW  541   2.195   0.866   2.162  0.0310  0.2435  0.2329
  181SOL    HW1  542   2.155   0.875   2.253  2.0099 -1.6806 -0.1099
  181SOL    HW2  543   2.235   0.948   2.127 -0.7694 -3.0386 -0.5009
  182SOL     OW  544   3.010   3.051   2.588 -0.2025 -0.0378 -0.7060
  182SOL    HW1  545   2.911   3.085   2.582 -1.7642  0.0246 -0.9927
  182SOL    HW2  546   3.081   0.014   2.613  1.5042 -0.7771 -0.8057
  183SOL     OW  547   1.554   0.733   2.391 -0.6796 -0.2238  0.4097
  183SOL    HW1  548   1.571   0.658   2.455 -0.4224 -0.1684 -1.6717
  183SOL    HW2  549   1.494   0.714   2.310 -0.1984 -0.3500  1.5272
  184SOL     OW  550   0.693   0.574   1.904  0.0775  0.2512  0.2561
  184SOL    HW1  551   0.646   0.666   1.902  2.0991 -0.3429 -1.4226
  184SOL    HW2  552   0.772   0.577   1.840  0.4549  2.0676 -0.8689
  185SOL     OW  553   1.906   1.039   0.605 -0.5447  0.5178  0.0292
  185SOL    HW1  554   1.953   1.115   0.560  1.1746 -0.7188  2.2165
  185SOL    HW2  555   1.953   0.954   0.583 -3.7075  0.4437 -1.1037
  186SOL     OW  556   0.191   2.140   2.981  0.3888 -0.0975 -0.0558
  186SOL    HW1  557   0.196   2.053   2.933 -0.5386  1.5967  2.0191
  186SOL    HW2  558   0.095   2.155   3.020  0.8866 -0.7950 -0.6789
  187SOL     OW  559   2.481   1.372   0.231  0.5029  0.6598  0.4522
  187SOL    HW1  560   2.550   1.333   0.292 -1.2295 -4.1200 -1.5130
  187SOL    HW2  561   2.451   1.306   0.157 -3.4567 -0.1405 -1.2748
  188SOL     OW  562   0.123   1.644   0.842  0.2436  0.0512 -0.1069
  188SOL    HW1  563   0.201   1.691   0.794 -1.2322  2.3514  0.0135
  188SOL    HW2  564   0.036   1.692   0.821 -0.8052  1.4476  2.7796
  189SOL     OW  565   2.370   0.234   0.319  0.7552 -0.1535  0.4714
  189SOL    HW1  566   2.323   0.160   0.377 -2.4298 -1.1406  0.4277
  189SOL    HW2  567   2.466   0.249   0.347 -0.3354 -0.6558 -2.6134
  190SOL     OW  568   0.952   1.709   1.889  0.7446 -0.0673  0.0627
  190SOL    HW1  569   0.861   1.665   1.861  0.6613 -2.6408 -1.9443
  190SOL    HW2  570   1.024   1.636   1.900  0.2743  0.4052 -1.4280
  191SOL     OW  571   2.692   0.391   1.830  0.2925  0.3228  0.2532
  191SOL    HW1  572   2.724   0.377   1.927  0.0450 -1.2197  0.6153
  191SOL    HW2  573   2.768   0.406   1.764 -2.1884  0.4553 -0.7961
  192SOL     OW  574   1.696   1.327   1.343 -0.0608  0.0404  0.3044
  192SOL    HW1  575   1.741   1.282   1.261 -2.1762 -0.7865 -2.2041
  192SOL    HW2  576   1.756   1.315   1.430 -1.5948 -0.2461  1.6075
  193SOL     OW  577   0.970   0.896   0.749 -0.2282  0.3150 -0.5294
  193SOL    HW1  578   0.927   0.836   0.680  0.2460  1.1263 -2.3691
  193SOL    HW2  579   0.950   0.865   0.849  0.9849 -0.5252  3.0080
  194SOL     OW  580   1.125   2.430   1.302 -0.4310 -0.4369  0.1112
  194SOL    HW1  581   1.180   2.512   1.275 -1.4227 -1.6418  0.0008
  194SOL    HW2  582   1.110   2.384   1.217  2.4848 -0.8539  3.4107
  195SOL     OW  583   2.230   0.316   2.928  0.3696  0.1883  0.6603
  195SOL    HW1  584   2.238   0.284   3.023 -1.7773  1.7507  0.0764
  195SOL    HW2  585   2.135   0.307   2.891 -1.1554 -3.1144 -1.1002
  196SOL     OW  586   0.977   2.508   1.742 -0.3259 -0.2049 -0.3772
  196SOL    HW1  587   0.970   2.494   1.841  4.2387  2.0882  0.2665
  196SOL    HW2  588   0.887   2.547   1.715 -1.1770 -0.4502  0.8788
  197SOL     OW  589   0.876   2.750   0.909  0.6607 -0.3582  0.3282
  197SOL    HW1  590   0.868   2.704   0.817 -2.1040 -1.9706 -0.0225
  197SOL    HW2  591   0.918   2.842   0.903 -1.0377  2.8638 -0.1696
  198SOL     OW  592   0.782   0.740   0.605  0.3614 -0.2832 -0.0205
  198SOL    HW1  593   0.700   0.687   0.629  2.0315 -3.5268 -1.3906
  198SOL    HW2  594   0.752   0.836   0.581  2.9478  0.4405  0.9220
  199SOL     OW  595   0.283   2.793   1.772  0.2454 -0.8056 -0.3970
  199SOL    HW1  596   0.215   2.747   1.708 -0.9003  0.5543 -2.0193
  199SOL    HW2  597   0.341   2.727   1.824  2.5967  1.5484 -1.7386
  200SOL     OW  598   2.296   1.904   2.471  0.2278 -0.2915 -0.5190
  200SOL    HW1  599   2.392   1.937   2.479  0.1703  0.0113  0.3718
  200SOL    HW2  600   2.275   1.856   2.562 -1.2475  0.2833  0.4175
  201SOL     OW  601   2.851   2.135   1.349  0.2589  0.1089 -0.2140
  201SOL    HW1  602   2.873   2.035   1.326  1.0976 -3.9361  1.3411
  201SOL    HW2  603   2.814   2.136   1.443  1.5871 -0.4965 -2.6298
  202SOL     OW  604   2.749   3.067   0.409 -0.3377  0.1221 -0.3959
  202SOL    HW1  605   2.845   0.005   0.397  3.8997  0.8800 -2.3298
  202SOL    HW2  606   2.699   3.053   0.323  3.2726  0.8941  0.6757
  203SOL     OW  607   1.121   2.062   1.904  0.1145 -0.0298 -0.2812
  203SOL    HW1  608   1.068   1.998   1.964 -0.8381 -2.9891  1.3052
  203SOL    HW2  609   1.222   2.066   1.933  0.2405  0.2517  1.0112
  204SOL     OW  610   1.364   1.882   1.640 -0.0282 -0.0440  0.0096
  204SOL    HW1  611   1.303   1.966   1.626  2.1717  2.5993  1.6015
  204SOL    HW2  612   1.310   1.796   1.639  0.9072  3.3845  0.0419
  205SOL     OW  613   1.135   2.033   1.643  0.5177 -0.4826  0.2303
  205SOL    HW1  614   1.084   2.106   1.591 -2.3841  0.9739 -1.6308
  205SOL    HW2  615   1.130   2.043   1.744  2.4147 -1.7610 -1.9676
  206SOL     OW  616   0.280   0.570   2.817 -0.5832 -0.2722 -0.1251
  206SOL    HW1  617   0.337   0.551   2.738 -0.1414  1.6126  2.7188
  206SOL    HW2  618   0.195   0.513   2.806 -1.5897 -1.4226 -1.5515
  207SOL     OW  619   1.207   0.102   1.662 -0.3040 -0.6172  0.2378
  207SOL    HW1  620   1.125   0.160   1.650  0.0219 -0.5812  1.9058
  207SOL    HW2  621   1.198   0.046   1.747  0.5757  0.0256 -2.3398
  208SOL     OW  622   0.776   2.615   2.007  0.0543 -0.4969 -0.0406
  208SOL    HW1  623   0.706   2.617   2.082 -3.2603  0.6571  1.1820
  208SOL    HW2  624   0.774   2.701   1.951  0.5633  1.0558 -0.3553
  209SOL     OW  625   1.672   0.586   0.034  0.2109 -0.5269  0.0190
  209SOL    HW1  626   1.742   0.512   0.030 -2.8140 -1.0226  0.7060
  209SOL    HW2  627   1.590   0.564   0.091  0.6936  0.9476  2.4507
  210SOL     OW  628   3.093   0.562   0.820  0.4033  0.4939 -0.1845
  210SOL    HW1  629   3.084   0.621   0.905  1.4809 -0.6616 -0.3715
  210SOL    HW2  630   0.083   0.543   0.795  1.1761 -0.7453  1.6642
  211SOL     OW  631   0.757   0.641   1.212 -0.0434  0.5031  0.3563
  211SOL    HW1  632   0.853   0.617   1.241  2.4697 -1.2972 -1.7597
  211SOL    HW2  633   0.695   0.672   1.287  1.5921  0.1008  1.2004
  212SOL     OW  634   1.492   1.988   0.652 -0.3532  0.1675  0.4944
  212SOL    HW1  635   1.398   2.031   0.660 -0.2176  0.7008  0.7514
  212SOL    HW2  636   1.534   1.980   0.742 -1.8191 -0.4575  0.2800
  213SOL     OW  637   1.922   0.170   1.940 -0.1726  0.2854  0.1372
  213SOL    HW1  638   1.894   0.221   1.854  1.0674 -0.3087  2.4428
  213SOL    HW2  639   2.003   0.113   1.916  2.7169  1.5721 -1.4487
  214SOL     OW  640   1.089   2.634   2.553  0.2724  0.2752 -0.4626
  214SOL    HW1  641   1.164   2.639   2.620 -0.6765  1.8919  1.5046
  214SOL    HW2  642   1.122   2.679   2.471  1.5926 -0.3084  0.9008
  215SOL     OW  643   2.661   1.613   1.241  0.3769  0.0617 -0.5219
  215SOL    HW1  644   2.618   1.696   1.203 -0.9205  1.1452 -2.4693
  215SOL    HW2  645   2.758   1.614   1.215  1.6169 -0.3562 -1.8036
  216SOL     OW  646   0.271   0.446   2.389  0.5583  0.6997  0.0432
  216SOL    HW1  647   0.328   0.487   2.464 -0.1054  0.3860 -2.4818
  216SOL    HW2  648   0.299   0.492   2.302 -1.0510  1.6421  0.2371
  217SOL     OW  649   2.937   0.357   0.333 -0.0245  0.5170 -0.1532
  217SOL    HW1  650   2.851   0.374   0.287  1.6510  0.8191 -3.3920
  217SOL    HW2  651   2.948   0.388   0.430  0.3215  4.6136 -1.4896
  218SOL     OW  652   1.807   1.816   1.923 -0.3788 -0.6209 -0.0447
  218SOL    HW1  653   1.902   1.792   1.892  0.4745  1.5699 -0.9757
  218SOL    HW2  654   1.800   1.796   2.023  0.1546 -2.8451  0.4316
  219SOL     OW  655   1.787   0.574   0.324 -0.3523 -1.2518  0.1577
  219SOL    HW1  656   1.790   0.570   0.224 -1.6570  0.2376  0.6297
  219SOL    HW2  657   1.695   0.592   0.361 -1.6306 -1.8232 -1.0333
  220SOL     OW  658   1.617   2.003   0.906  0.3748 -0.4496  0.1242
  220SOL    HW1  659   1.565   2.021   0.993  0.4872  0.7312 -0.3775
  220SOL    HW2  660   1.692   1.929   0.908  3.3868  1.6385  2.1059
  221SOL     OW  661   0.206   0.581   0.088 -0.0921 -0.3786  0.3356
  221SOL    HW1  662   0.290   0.567   0.143  2.0898  0.3255  2.1843
  221SOL    HW2  663   0.209   0.673   0.043 -1.6827 -0.4203 -0.6911
  222SOL     OW  664   1.011   2.895   1.585 -0.7036  0.5216  0.3996
  222SOL    HW1  665   1.029   2.933   1.678 -0.0301  2.0080 -2.7808
  222SOL    HW2  666   0.972   2.969   1.526  2.0372 -3.2251 -3.8865
  223SOL     OW  667   1.597   0.527   2.847  0.5216 -0.3000 -0.1150
  223SOL    HW1  668   1.554   0.470   2.925  1.4180  0.8404 -0.6327
  223SOL    HW2  669   1.580   0.628   2.862  0.5547  0.4675  2.0262
  224SOL     OW  670   2.952   0.546   1.218 -0.0562 -0.1527  0.4314
  224SOL    HW1  671   3.011   0.508   1.293 -0.6200 -0.4899  0.8633
  224SOL    HW2  672   2.888   0.471   1.180  0.5452  1.8531 -1.3659
  225SOL     OW  673   0.967   1.314   1.239 -0.5607  0.4044 -0.0971
  225SOL    HW1  674   0.897   1.387   1.258 -1.1311  2.3999  1.1029
  225SOL    HW2  675   1.051   1.351   1.270 -3.9741 -1.0708  0.5706
  226SOL     OW  676   1.023   0.049   0.542 -0.3661 -0.7519  0.1152
  226SOL    HW1  677   1.075   3.080   0.503 -0.3229  3.8498 -1.3456
  226SOL    HW2  678   1.007   0.028   0.639  2.4986 -1.1591 -1.6904
  227SOL     OW  679   0.932   1.737   1.233 -0.2979  0.2198 -0.2932
  227SOL    HW1  680   0.925   1.785   1.145  0.7550  1.8036  0.0215
  227SOL    HW2  681   1.030   1.728   1.266 -0.1290 -2.1101  1.5954
  228SOL     OW  682   0.582   2.998   1.425 -0.0106 -0.2084 -0.0090
  228SOL    HW1  683   0.606   2.901   1.402  0.4755 -1.2237  0.4974
  228SOL    HW2  684   0.529   3.006   1.514 -1.4785 -2.6528  3.1476
  229SOL     OW  685   2.524   0.877   0.558 -0.1170 -0.3068 -0.3705
  229SOL    HW1  686   2.521   0.780   0.520 -0.6104 -2.4138 -1.3247
  229SOL    HW2  687   2.572   0.942   0.498 -2.1734 -0.9346  1.1729
  230SOL     OW  688   0.424   1.116   1.764 -0.0275 -0.5081 -0.0197
  230SOL    HW1  689   0.386   1.026   1.734 -1.3546  1.7319 -0.4307
  230SOL    HW2  690   0.473   1.118   1.855 -0.0704 -1.0539  0.2203
  231SOL     OW  691   1.332   2.680   1.283  0.3942  0.2804 -0.2431
  231SOL    HW1  692   1.410   2.743   1.260  1.3783  3.3998  2.9812
  231SOL    HW2  693   1.267   2.738   1.331  2.0336 -2.2149 -2.3491
  232SOL     OW  694   2.456   2.316   0.205 -0.2193  0.7206 -0.3746
  232SOL    HW1  695   2.363   2.344   0.226  3.0503 -1.2224 -2.5662
  232SOL    HW2  696   2.440   2.229   0.142 -0.5279 -2.8920 -0.9792
  233SOL     OW  697   0.939   2.700   3.100  0.5613  0.5821 -0.0948
  233SOL    HW1  698   0.835   2.692   0.014 -3.2476  0.1174  1.3600
  233SOL    HW2  699   0.953   2.682   2.996 -0.1437 -0.6237 -0.4249
  234SOL     OW  700   1.232   0.627   2.358 -0.4373 -0.1319 -0.2579
  234SOL    HW1  701   1.305   0.602   2.288  0.1531 -0.0376  0.6412
  234SOL    HW2  702   1.144   0.652   2.320  2.4725  1.6005 -0.8237
  235SOL     OW  703   0.062   2.208   0.306 -0.1838 -0.6522  0.0460
  235SOL    HW1  704   0.086   2.300   0.346  1.5909 -0.3754  0.8701
  235SOL    HW2  705   0.049   2.136   0.380  0.1109 -0.3094  1.3941
  236SOL     OW  706   1.916   2.794   2.475  0.0108  0.4612  0.4123
  236SOL    HW1  707   1.916   2.765   2.375  0.8457  0.7522 -4.5675
  236SOL    HW2  708   1.998   2.751   2.519  0.5998 -2.0799  0.8795
  237SOL     OW  709   1.908   1.284   1.530 -0.3839  0.0263 -0.4165
  237SOL    HW1  710   1.982   1.319   1.476 -0.7520 -1.3838  0.6370
  237SOL    HW2  711   1.930   1.186   1.553 -0.1205 -2.3850  1.1943
  238SOL     OW  712   1.914   0.079   2.407  0.0099  0.2421  0.4529
  238SOL    HW1  713   1.837   0.129   2.355 -1.3539  1.2037  0.0389
  238SOL    HW2  714   1.879   0.005   2.465  1.3384  2.1942 -0.9385
  239SOL     OW  715   0.707   2.029   1.588 -0.0394  0.5786  0.4374
  239SOL    HW1  716   0.706   2.118   1.536  1.0214 -1.2239 -2.6948
  239SOL    HW2  717   0.738   1.954   1.526 -0.2396 -1.6439  1.0427
  240SOL     OW  718   0.081   2.505   0.818 -0.6486 -0.7546 -0.1209
  240SOL    HW1  719   0.140   2.591   0.803  1.3396  1.7161 -0.0374
  240SOL    HW2  720   0.019   2.498   0.738  1.7377  0.2734 -1.2689
  241SOL     OW  721   1.552   2.203   0.032  0.6040 -0.3415 -0.1150
  241SOL    HW1  722   1.585   2.189   0.124 -1.9040  1.2215 -1.1705
  241SOL    HW2  723   1.622   2.256   3.085  0.6080  1.8345 -1.1028
  242SOL     OW  724   2.215   1.113   0.375  0.0789 -0.1915 -0.2959
  242SOL    HW1  725   2.239   1.022   0.426  0.3741 -3.2616 -0.7093
  242SOL    HW2  726   2.160   1.103   0.290 -0.6882  1.3474 -1.8560
  243SOL     OW  727   0.943   0.177   1.840  0.4980 -0.0392 -0.0338
  243SOL    HW1  728   0.941   0.206   1.742  1.8586 -0.1450  0.3374
  243SOL    HW2  729   1.020   0.219   1.889  0.5473 -1.0330 -0.7059
  244SOL     OW  730   1.776   2.958   2.859 -0.9273  1.0775  0.1566
  244SOL    HW1  731   1.725   2.928   2.940  0.7836  1.1308 -0.0511
  244SOL    HW2  732   1.827   3.047   2.879  0.2991  0.0821 -1.6014
  245SOL     OW  733   1.540   2.967   0.102  0.4411  0.5501 -0.4248
  245SOL    HW1  734   1.630   3.010   0.091 -0.5226  1.7613 -1.6686
  245SOL    HW2  735   1.560   2.865   0.125  1.4132 -1.6095  0.2296
  246SOL     OW  736   1.181   1.190   2.207  0.7054  0.2835 -0.5036
  246SOL    HW1  737   1.276   1.210   2.240  2.7786 -1.4525  0.4759
  246SOL    HW2  738   1.116   1.228   2.273  2.3529  0.8432  0.2000
  247SOL     OW  739   3.003   0.801   2.237 -0.3444  0.6059  0.3039
  247SOL    HW1  740   3.092   0.749   2.232 -0.7399 -2.4209 -1.0130
  247SOL    HW2  741   2.928   0.741   2.206  1.6410 -1.5641  2.1238
  248SOL     OW  742   0.570   0.839   1.878 -0.0222  0.6190 -0.5924
  248SOL    HW1  743   0.620   0.917   1.916  0.2093  0.5319 -1.1185
  248SOL    HW2  744   0.525   0.861   1.791  1.9558 -1.7054  1.3457
  249SOL     OW  745   2.363   0.494   0.307 -0.1329  0.0929 -1.0492
  249SOL    HW1  746   2.278   0.530   0.355 -1.0866 -1.3692  0.8176
  249SOL    HW2  747   2.354   0.393   0.285  2.1877  1.7763 -0.2528
  250SOL     OW  748   2.943   0.407   0.609  0.0702 -0.9267  0.6344
  250SOL    HW1  749   2.995   0.467   0.678 -1.7270 -1.8338  2.6768
  250SOL    HW2  750   2.955   0.306   0.631 -1.9547  1.7166 -0.1868
  251SOL     OW  751   0.863   0.898   2.258 -0.1238 -0.4703 -0.0256
  251SOL    HW1  752   0.868   0.823   2.322 -0.2403  2.0574 -2.8035
  251SOL    HW2  753   0.960   0.916   2.236 -1.5820 -1.2041  2.7897
  252SOL     OW  754   1.585   1.727   1.685  0.1582 -0.2309 -0.0224
  252SOL    HW1  755   1.512   1.799   1.677  0.9138 -2.9280  0.2084
  252SOL    HW2  756   1.545   1.650   1.631 -0.9277 -2.3369 -0.7497
  253SOL     OW  757   1.429   2.600   1.846 -0.4376 -0.0624 -0.1021
  253SOL    HW1  758   1.366   2.593   1.770  2.5041  1.7875  1.1280
  253SOL    HW2  759   1.457   2.504   1.871  0.6463  0.3560 -0.4392
  254SOL     OW  760   0.845   2.295   2.305  0.3020  0.5718  0.0544
  254SOL    HW1  761   0.922   2.310   2.364 -3.6561 -1.2730 -1.7773
  254SOL    HW2  762   0.863   2.311   2.208  0.3244 -0.1968  0.5201
  255SOL     OW  763   1.348   0.431   0.622 -0.2574 -0.8374  0.2477
  255SOL    HW1  764   1.314   0.476   0.703 -1.3046  0.4080 -0.4038
  255SOL    HW2  765   1.294   0.459   0.537 -1.3915  3.0220 -0.4739
  256SOL     OW  766   1.813   2.358   1.199  0.0496 -0.2302 -0.3434
  256SOL    HW1  767   1.898   2.409   1.218 -0.9924  1.6039 -1.3540
  256SOL    HW2  768   1.829   2.264   1.171  0.6373  1.1665  2.7793
  257SOL     OW  769   0.189   2.134   2.610 -0.2881 -0.2289  0.0898
  257SOL    HW1  770   0.160   2.134   2.706  0.2517 -4.0089 -2.5566
  257SOL    HW2  771   0.186   2.039   2.575 -3.4428  0.5493 -0.9181
  258SOL     OW  772   0.495   0.852   2.317  0.0456 -0.7462  0.2668
  258SOL    HW1  773   0.537   0.922   2.254 -0.0010  0.4325  0.5518
  258SOL    HW2  774   0.463   0.895   2.404  0.2486  0.0517  0.3478
  259SOL     OW  775   1.366   0.942   2.385  0.3033 -0.7390  0.4527
  259SOL    HW1  776   1.277   0.926   2.339 -3.7943  2.9948 -0.2344
  259SOL    HW2  777   1.420   0.862   2.401 -0.5271  2.7595  1.5445
  260SOL     OW  778   1.670   0.721   0.829  1.1362 -0.3204 -0.2282
  260SOL    HW1  779   1.574   0.760   0.841  0.3885 -0.2443  0.9515
  260SOL    HW2  780   1.669   0.622   0.847 -1.1918 -1.2293 -0.9678
  261SOL     OW  781   1.030   0.442   3.060 -0.6446  0.2264 -0.2760
  261SOL    HW1  782   1.021   0.340   3.064 -0.6016 -1.8779  3.3877
  261SOL    HW2  783   0.940   0.482   3.043  1.9537 -1.0322 -1.2604
  262SOL     OW  784   2.534   2.971   2.900  0.1056 -0.5364  0.0768
  262SOL    HW1  785   2.612   3.032   2.941  2.2356  4.5483  1.0066
  262SOL    HW2  786   2.500   3.004   2.811  0.0389 -0.3544  2.9755
  263SOL     OW  787   0.555   1.996   3.030 -0.6524 -0.0290 -0.4048
  263SOL    HW1  788   0.647   1.958   3.061  0.0068  1.8005  1.9466
  263SOL    HW2  789   0.575   2.093   3.004  2.3542  2.4289  1.1361
  264SOL     OW  790   0.461   1.664   1.678  0.2369 -0.5189  0.0268
  264SOL    HW1  791   0.527   1.630   1.754  3.0495  0.9804  3.3728
  264SOL    HW2  792   0.488   1.756   1.643 -2.1267  0.6647  0.0390
  265SOL     OW  793   0.509   1.304   0.305  0.3112  0.5237  0.0279
  265SOL    HW1  794   0.451   1.270   0.224 -1.0440  1.5872  0.7783
  265SOL    HW2  795   0.605   1.273   0.299  1.1975  0.7262  3.0429
  266SOL     OW  796   2.026   1.650   0.241  0.1209  0.2686 -0.0305
  266SOL    HW1  797   2.014   1.746   0.218  0.9200 -1.1941 -0.3331
  266SOL    HW2  798   2.122   1.624   0.216  2.4268  0.5622 -1.1775
  267SOL     OW  799   2.783   0.070   0.019  0.7234  0.3644  0.4587
  267SOL    HW1  800   2.876   0.065   3.093 -1.3365  0.2091  1.2944
  267SOL    HW2  801   2.722   0.101   3.054 -0.1248  1.0158  2.7790
  268SOL     OW  802   0.557   0.250   3.041  0.5631  0.5956 -0.0855
  268SOL    HW1  803   0.624   0.236   0.008 -0.9028  0.9560 -0.0650
  268SOL    HW2  804   0.547   0.346   3.018  0.7579 -1.3618  0.2247
  269SOL     OW  805   1.855   0.494   2.737  0.7213 -0.1429  0.4341
  269SOL    HW1  806   1.906   0.575   2.702 -2.4828  2.1885  1.5092
  269SOL    HW2  807   1.767   0.526   2.760  2.1467  0.7825 -0.2162
  270SOL     OW  808   1.077   0.877   2.651 -0.0006 -0.7513  0.1695
  270SOL    HW1  809   1.107   0.945   2.582 -0.2801  1.1624  0.5927
  270SOL    HW2  810   1.026   0.924   2.728 -1.6230  2.0827  0.9662
  271SOL     OW  811   2.431   0.946   0.182  0.2612 -0.3259 -0.7890
  271SOL    HW1  812   2.410   1.046   0.173  0.7380  1.9764 -0.4108
  271SOL    HW2  813   2.474   0.914   0.098 -2.0046  2.2112  0.9131
  272SOL     OW  814   2.551   1.954   2.844  0.0391 -0.1988 -0.2317
  272SOL    HW1  815   2.628   2.023   2.852 -1.0917  1.8959 -0.1256
  272SOL    HW2  816   2.483   1.998   2.786  0.4373 -3.7519 -1.8761
  273SOL     OW  817   2.420   0.522   2.944  0.2978 -0.1749  0.0756
  273SOL    HW1  818   2.350   0.454   2.960  0.0902  0.7090  0.0102
  273SOL    HW2  819   2.509   0.478   2.929 -1.8393 -0.2678  2.4545
  274SOL     OW  820   0.156   3.030   1.467 -0.0130  0.2406 -0.2373
  274SOL    HW1  821   0.201   3.020   1.374  2.5639 -1.4856  0.5899
  274SOL    HW2  822   0.222   3.028   1.543  0.7535  1.9070 -3.4136
  275SOL     OW  823   2.088   1.597   0.727  0.1981 -0.4923  0.1435
  275SOL    HW1  824   2.032   1.510   0.733  0.6651 -0.7979  2.4780
  275SOL    HW2  825   2.163   1.589   0.658 -0.2817  1.6297  2.0094
  276SOL     OW  826   0.365   1.343   2.589 -0.3364 -0.7060 -0.6819
  276SOL    HW1  827   0.452   1.395   2.604 -0.2321  2.6529 -1.3532
  276SOL    HW2  828   0.307   1.389   2.518 -2.4461 -3.0940  0.6747
  277SOL     OW  829   1.654   2.723   1.782 -0.2488  0.3073  0.0461
  277SOL    HW1  830   1.677   2.797   1.850  1.8647 -0.3343  1.2979
  277SOL    HW2  831   1.559   2.684   1.803 -1.3210 -2.0495  2.7286
  278SOL     OW  832   1.589   0.374   1.571  0.4057 -0.3842 -0.3051
  278SOL    HW1  833   1.535   0.290   1.543  1.6265 -1.5290  0.3825
  278SOL    HW2  834   1.673   0.382   1.521 -1.2911  1.5413  1.6812
  279SOL     OW  835   1.997   1.286   0.145  0.3909  0.0924 -0.1543
  279SOL    HW1  836   1.983   1.188   0.164 -0.9537  0.5292 -2.1712
  279SOL    HW2  837   1.963   1.344   0.222 -1.0218  0.4038  1.7712
  280SOL     OW  838   0.750   1.495   0.938  0.2128  0.6914  0.1695
  280SOL    HW1  839   0.762   1.485   0.834  3.2702  0.8909 -0.2750
  280SOL    HW2  840   0.684   1.571   0.956 -0.1909  0.2729  1.7867
  281SOL     OW  841   0.094   0.129   2.642 -0.1802  0.0115 -0.6146
  281SOL    HW1  842   0.186   0.134   2.588  4.7418  0.2451 -0.1392
  281SOL    HW2  843   0.117   0.096   2.734  0.0213 -0.3008 -1.7077
  282SOL     OW  844   0.374   0.882   1.342 -0.3773  0.5634 -0.0169
  282SOL    HW1  845   0.368   0.988   1.342 -1.1655  2.0556  0.5841
  282SOL    HW2  846   0.276   0.847   1.327  0.1414 -1.5205 -1.1646
  283SOL     OW  847   1.830   2.296   2.713  0.0986  0.2310  0.4859
  283SOL    HW1  848   1.851   2.386   2.670 -0.4732 -0.3865  0.4865
  283SOL    HW2  849   1.751   2.241   2.678 -1.5658 -0.2019  0.9706
  284SOL     OW  850   2.049   1.260   0.519 -0.0013 -0.8688 -0.2065
  284SOL    HW1  851   2.015   1.332   0.452  0.1444  1.7354 -2.8482
  284SOL    HW2  852   2.136   1.218   0.481 -0.1170  0.5143  0.9130
  285SOL     OW  853   3.040   0.118   3.032 -0.0037  0.3626  0.1484
  285SOL    HW1  854   0.004   0.085   3.096  1.5585  1.9617  1.0700
  285SOL    HW2  855   3.027   0.219   3.037 -1.8228 -1.2299 -0.0615
  286SOL     OW  856   1.732   3.046   1.561 -0.4377 -0.3217 -0.2765
  286SOL    HW1  857   1.717   2.955   1.523  0.2072  3.8591  0.3536
  286SOL    HW2  858   1.826   3.082   1.541 -0.1865  1.5908  0.2342
  287SOL     OW  859   0.914   1.043   1.244 -0.1423 -0.5641 -0.1867
  287SOL    HW1  860   0.820   1.022   1.275  1.0120 -2.7594  0.8793
  287SOL    HW2  861   0.936   1.142   1.250 -0.7017 -1.7672  0.6473
  288SOL     OW  862   1.315   2.631   0.326  0.0928 -0.2202 -0.2803
  288SOL    HW1  863   1.412   2.671   0.313  0.9453  0.3283  4.4690
  288SOL    HW2  864   1.319   2.556   0.394  1.1740  0.1166  3.3030
  289SOL     OW  865   2.896   1.455   2.756 -0.5216 -0.3082  0.0213
  289SOL    HW1  866   2.850   1.544   2.724 -0.2386  0.6364  3.1439
  289SOL    HW2  867   2.944   1.410   2.677  0.8483 -3.0839 -2.6060
  290SOL     OW  868   0.876   2.628   0.656  0.6757  0.1707 -0.3233
  290SOL    HW1  869   0.929   2.686   0.591 -0.9266 -0.1855 -0.4583
  290SOL    HW2  870   0.936   2.550   0.689 -1.4664 -3.1572  0.7247
  291SOL     OW  871   2.189   2.633   2.866  0.0987 -0.0567 -0.2007
  291SOL    HW1  872   2.218   2.606   2.773  0.6887  0.7422  0.2486
  291SOL    HW2  873   2.112   2.695   2.852 -0.5437 -1.8199  0.4422
  292SOL     OW  874   0.845   1.275   1.857 -0.5986  0.3175  0.0248
  292SOL    HW1  875   0.938   1.258   1.896  0.7078  2.5055  0.2262
  292SOL    HW2  876   0.845   1.219   1.769  0.6034 -0.2522 -1.7618
  293SOL     OW  877   2.359   2.780   1.195 -0.5141  0.6348 -0.2820
  293SOL    HW1  878   2.306   2.867   1.201  2.4359  2.1534  1.4224
  293SOL    HW2  879   2.446   2.797   1.146 -1.4692 -0.4976  0.2581
  294SOL     OW  880   0.045   0.619   2.647 -0.3173  0.0739 -0.0359
  294SOL    HW1  881   3.059   0.653   2.624  2.8433 -1.9396 -0.5500
  294SOL    HW2  882   0.115   0.673   2.602 -1.9801 -3.3719  2.3139
  295SOL     OW  883   1.118   1.824   0.222  0.2967  0.4886 -0.3007
  295SOL    HW1  884   1.080   1.757   0.156 -3.2120  1.8961  2.3839
  295SOL    HW2  885   1.117   1.920   0.184 -0.5254  2.7487 -1.4447
  296SOL     OW  886   2.014   1.923   2.714  0.3876 -0.1960 -0.7044
  296SOL    HW1  887   2.029   2.008   2.653  1.2761  0.6598 -1.1943
  296SOL    HW2  888   2.097   1.876   2.738 -0.3072  2.0225 -1.2276
  297SOL     OW  889   2.549   0.548   0.077  0.3520  0.0543 -0.3891
  297SOL    HW1  890   2.502   0.558   3.098 -0.2166  0.0830  1.3594
  297SOL    HW2  891   2.482   0.550   0.152 -1.0100  0.9695 -1.2586
  298SOL     OW  892   0.899   2.184   2.803 -0.4598  0.4645  0.4210
  298SOL    HW1  893   0.955   2.248   2.745  0.1325 -1.9792  0.8695
  298SOL    HW2  894   0.817   2.154   2.753  1.2028  1.2160  2.6900
  299SOL     OW  895   1.335   2.814   2.524  0.5266 -0.5503  0.5873
  299SOL    HW1  896   1.410   2.881   2.517 -0.7224 -2.4459 -2.4730
  299SOL    HW2  897   1.248   2.851   2.493  1.4464  1.5298  0.0150
  300SOL     OW  898   2.710   0.305   0.166  0.8189 -0.5298 -0.0267
  300SOL    HW1  899   2.662   0.382   0.120  0.1215 -1.8337 -1.0187
  300SOL    HW2  900   2.740   0.237   0.095 -1.3817  4.2217  1.2352
  301SOL     OW  901   1.069   0.945   1.467  0.3443  0.3642  0.1247
  301SOL    HW1  902   1.169   0.942   1.458  0.0481 -0.1356 -2.6978
  301SOL    HW2  903   1.029   1.033   1.437  1.1172  0.6282  1.2044
  302SOL     OW  904   3.073   2.135   0.047 -0.6574  0.0094  0.0335
  302SOL    HW1  905   3.098   2.149   0.147  1.3657  0.2675  0.3505
  302SOL    HW2  906   2.980   2.172   0.030  0.6455  0.6223  0.1805
  303SOL     OW  907   3.017   2.785   2.491  0.3844  0.1590  0.1904
  303SOL    HW1  908   3.016   2.884   2.519 -0.0925  2.1947  2.1627
  303SOL    HW2  909   3.092   2.731   2.539  0.6339  0.7606 -1.0458
  304SOL     OW  910   2.733   0.699   2.208  0.4805  0.4728  0.2831
  304SOL    HW1  911   2.672   0.763   2.258 -0.3569 -1.1408  0.5601
  304SOL    HW2  912   2.703   0.601   2.224  0.4394  0.2906 -0.3936
  305SOL     OW  913   0.583   2.569   2.212  0.2225  0.3139 -0.2840
  305SOL    HW1  914   0.624   2.653   2.253 -0.1009 -2.9119  0.2409
  305SOL    HW2  915   0.589   2.490   2.278 -0.8661 -2.0355  0.6954
  306SOL     OW  916   2.715   0.936   1.807  0.2619 -0.6046 -0.0466
  306SOL    HW1  917   2.724   1.030   1.774 -0.2218  0.8994  0.3515
  306SOL    HW2  918   2.615   0.916   1.835 -3.9391 -3.4626  0.2294
  307SOL     OW  919   1.755   0.669   1.430 -0.1984 -0.0214  0.5684
  307SOL    HW1  920   1.822   0.729   1.380 -1.4474  2.5148 -2.1904
  307SOL    HW2  921   1.685   0.646   1.359  0.0449 -1.6451 -3.2720
  308SOL     OW  922   2.489   1.823   1.108 -0.3216 -0.3563 -0.0392
  308SOL    HW1  923   2.390   1.823   1.124  1.0207 -3.2061 -0.1261
  308SOL    HW2  924   2.512   1.748   1.042 -1.0166  0.8740  1.2347
  309SOL     OW  925   2.176   1.509   1.637 -0.2595  0.0328 -0.2125
  309SOL    HW1  926   2.162   1.577   1.566 -0.5275 -2.8008  2.3807
  309SOL    HW2  927   2.204   1.419   1.598  0.2765 -1.2209 -3.6837
  310SOL     OW  928   2.758   1.710   2.725  0.7079  0.3353 -0.3543
  310SOL    HW1  929   2.771   1.769   2.806  2.9857  1.1633 -0.3362
  310SOL    HW2  930   2.667   1.661   2.730  2.2028 -1.7150 -1.9569
  311SOL     OW  931   2.367   2.182   2.667 -0.6937  0.5083  0.1725
  311SOL    HW1  932   2.269   2.156   2.679  0.6970 -0.1363  0.2135
  311SOL    HW2  933   2.388   2.219   2.572  1.5265  1.8626  0.0605
  312SOL     OW  934   2.061   2.018   1.293 -0.5875  0.1723  0.6747
  312SOL    HW1  935   2.018   1.966   1.373 -1.9116 -1.2412  3.5133
  312SOL    HW2  936   2.139   2.074   1.328 -1.3103  1.6192 -2.1049
  313SOL     OW  937   2.228   2.409   1.108  0.0094  0.7509 -0.5334
  313SOL    HW1  938   2.275   2.439   1.024 -2.7487 -3.0191 -2.3765
  313SOL    HW2  939   2.298   2.390   1.181 -0.0746  2.3247  2.0958
  314SOL     OW  940   0.873   1.989   0.589  0.1186 -0.6441 -0.3062
  314SOL    HW1  941   0.773   1.961   0.586 -2.3717  1.4313  4.7171
  314SOL    HW2  942   0.933   1.922   0.640  2.4866 -1.2437  3.3390
  315SOL     OW  943   0.613   2.596   2.611 -0.2931 -0.0912  0.0319
  315SOL    HW1  944   0.614   2.522   2.539 -1.0891 -0.5923  0.5927
  315SOL    HW2  945   0.689   2.659   2.595 -3.0867 -2.1691 -0.4149
  316SOL     OW  946   3.069   0.656   0.421  0.5286  0.0514 -0.3264
  316SOL    HW1  947   2.983   0.709   0.411  0.2474  1.2902 -0.6757
  316SOL    HW2  948   3.070   0.577   0.359 -0.7225  1.9051 -0.6144
  317SOL     OW  949   1.202   0.535   0.819 -0.0232  0.2562 -0.8319
  317SOL    HW1  950   1.240   0.455   0.859 -2.0540 -2.3264 -1.6863
  317SOL    HW2  951   1.101   0.525   0.841  1.4102  0.1930  2.2412
  318SOL     OW  952   2.991   2.496   0.611 -0.0338  0.2128  0.1209
  318SOL    HW1  953   2.953   2.586   0.586 -1.6933 -1.6833  0.6642
  318SOL    HW2  954   2.935   2.459   0.686  0.3707 -0.8255 -0.2717
  319SOL     OW  955   0.384   1.712   2.346 -0.6294 -0.7504  0.2270
  319SOL    HW1  956   0.479   1.738   2.379  0.4192  3.8977 -0.5901
  319SOL    HW2  957   0.315   1.767   2.397 -2.7118  3.4062  2.3038
  320SOL     OW  958   0.703   2.846   2.278 -0.3122 -0.1145  0.1092
  320SOL    HW1  959   0.627   2.861   2.215  0.3942  0.7861 -0.2019
  320SOL    HW2  960   0.674   2.893   2.361 -1.3710  0.2271  1.6593
  321SOL     OW  961   1.174   2.810   0.146 -0.3952 -0.3079 -0.3007
  321SOL    HW1  962   1.235   2.738   0.186  2.3479  0.3129 -0.9852
  321SOL    HW2  963   1.102   2.772   0.089  0.0900 -2.0791 -0.4267
  322SOL     OW  964   2.459   1.226   2.100  1.2626 -0.1941  0.0446
  322SOL    HW1  965   2.512   1.313   2.087  0.0134  0.5885  3.2203
  322SOL    HW2  966   2.438   1.212   2.200 -0.1598  1.0289  1.0648
  323SOL     OW  967   2.510   0.610   0.509  0.0501 -0.3906 -0.1819
  323SOL    HW1  968   2.473   0.587   0.417 -1.7696  0.1044 -2.2100
  323SOL    HW2  969   2.501   0.529   0.566  1.7721  2.2014 -1.3652
  324SOL     OW  970   0.368   2.859   3.068 -0.1125  0.0317  0.3418
  324SOL    HW1  971   0.374   2.958   3.080 -0.2562  1.0763 -0.0915
  324SOL    HW2  972   0.384   2.840   2.969 -1.5946 -1.2465 -1.0194
  325SOL     OW  973   1.555   0.256   2.561  0.1049  0.2340  0.2768
  325SOL    HW1  974   1.578   0.234   2.657  1.0752  2.1888 -1.0199
  325SOL    HW2  975   1.455   0.255   2.542  1.9280 -0.0841  2.0414
  326SOL     OW  976   2.375   2.594   1.375 -0.2643  0.4311  0.1630
  326SOL    HW1  977   2.325   2.604   1.468 -0.4097 -2.1464  0.2092
  326SOL    HW2  978   2.340   2.666   1.314 -2.9600  1.2754 -1.2793
  327SOL     OW  979   1.474   0.348   3.031  0.0326  0.0738 -0.2579
  327SOL    HW1  980   1.391   0.379   3.084 -0.2885 -0.8297  1.0350
  327SOL    HW2  981   1.536   0.290   3.093 -0.4857 -2.5713  0.8483
  328SOL     OW  982   2.698   1.353   2.429 -0.7267 -0.3153  0.0713
  328SOL    HW1  983   2.628   1.423   2.457 -3.8325  1.8758 -0.7186
  328SOL    HW2  984   2.786   1.407   2.403  0.6447  1.0006  0.3894
  329SOL     OW  985   1.569   3.072   1.803 -0.0725  0.3840 -0.6950
  329SOL    HW1  986   1.633   3.050   1.732  0.2131  1.6503  0.3148
  329SOL    HW2  987   1.496   3.001   1.805  0.0863 -1.2463 -1.8366
  330SOL     OW  988   2.714   1.368   1.468 -0.1055  0.4197 -0.3295
  330SOL    HW1  989   2.674   1.364   1.375  1.8545  1.1450 -0.0416
  330SOL    HW2  990   2.813   1.384   1.461 -1.2056 -3.1352 -1.3157
  331SOL     OW  991   0.449   1.444   1.521 -0.1725 -0.5616  1.4168
  331SOL    HW1  992   0.430   1.479   1.426 -3.1542 -1.2282 -2.4450
  331SOL    HW2  993   0.457   1.519   1.585  2.6374 -2.1903 -0.5817
  332SOL     OW  994   0.815   0.210   1.329 -0.5500 -0.3066  0.0810
  332SOL    HW1  995   0.860   0.272   1.266 -0.7429 -0.2993  0.0128
  332SOL    HW2  996   0.715   0.236   1.342  0.4559 -0.3447  2.3583
  333SOL     OW  997   2.220   2.553   1.884 -0.4116  0.1515 -0.3898
  333SOL    HW1  998   2.212   2.449   1.883 -0.3312  1.9311 -0.3530
  333SOL    HW2  999   2.161   2.596   1.957  0.8396  1.9220  0.9163
  334SOL     OW 1000   1.170   1.411   1.395  0.2447  1.0346 -0.3283
  334SOL    HW1 1001   1.158   1.510   1.401 -1.1769 -2.7069  2.9426
  334SOL    HW2 1002   1.268   1.382   1.394 -1.0106  0.7281 -0.9260
  335SOL     OW 1003   0.839   2.929   2.940  0.6638 -0.6310  0.3358
  335SOL    HW1 1004   0.814   2.919   3.038 -0.7540  2.5614 -1.9638
  335SOL    HW2 1005   0.894   2.852   2.901 -0.3179 -1.6077  1.3709
  336SOL     OW 1006   3.063   2.855   2.066 -0.2588  0.5990  0.5794
  336SOL    HW1 1007   3.027   2.925   2.136 -0.9174  3.6049  3.9603
  336SOL    HW2 1008   2.988   2.800   2.022  1.9378 -0.0753  1.8654
  337SOL     OW 1009   2.631   1.558   0.596  0.1361  0.1791  0.0536
  337SOL    HW1 1010   2.541   1.601   0.605  2.5613 -2.6901  0.9967
  337SOL    HW2 1011   2.677   1.585   0.510 -2.9242 -0.1887  1.6519
  338SOL     OW 1012   1.097   1.982   1.138  0.7564  0.0439 -0.2544
  338SOL    HW1 1013   1.183   1.929   1.148  1.6704 -1.9840 -0.4701
  338SOL    HW2 1014   1.033   1.934   1.073 -1.4860 -2.4625 -0.0854
  339SOL     OW 1015   2.961   0.950   2.458 -0.5075 -0.0380 -0.1321
  339SOL    HW1 1016   2.950   0.903   2.368  0.9256 -0.1700 -1.2472
  339SOL    HW2 1017   3.048   1.009   2.473 -0.5130  1.5503  2.5379
  340SOL     OW 1018   1.656   2.735   1.162  0.1997 -0.3603 -0.2983
  340SOL    HW1 1019   1.751   2.700   1.154 -1.0138 -0.8791 -0.0826
  340SOL    HW2 1020   1.605   2.715   1.079  0.7902 -0.6897  0.8424
  341SOL     OW 1021   1.817   1.800   1.008  0.2656  0.7271 -0.0300
  341SOL    HW1 1022   1.903   1.753   0.988  2.3534  0.1366  0.6438
  341SOL    HW2 1023   1.837   1.887   1.046 -2.1519 -2.9982  0.8920
  342SOL     OW 1024   0.367   1.519   1.016  0.2851 -0.0753  0.0186
  342SOL    HW1 1025   0.337   1.433   0.968 -1.5660 -0.5781  1.6990
  342SOL    HW2 1026   0.384   1.594   0.952 -1.1503 -2.1665  4.0196
  343SOL     OW 1027   2.374   0.436   1.581  0.0680  0.0304 -0.1722
  343SOL    HW1 1028   2.427   0.523   1.594 -0.0265 -0.0123  1.3322
  343SOL    HW2 1029   2.334   0.425   1.488  1.0246 -0.1569  2.9534
  344SOL     OW 1030   2.114   2.278   0.595  0.1666 -0.8931  0.1361
  344SOL    HW1 1031   2.064   2.224   0.669 -0.2514  1.5662 -1.1877
  344SOL    HW2 1032   2.213   2.292   0.619  0.2439 -0.4334 -1.5971
  345SOL     OW 1033   0.073   2.609   2.652  0.1415 -0.2978 -0.4839
  345SOL    HW1 1034   0.016   2.545   2.706 -1.0670 -1.8084  0.8450
  345SOL    HW2 1035   0.159   2.561   2.633 -1.7046 -1.1411  2.1014
  346SOL     OW 1036   0.207   1.232   0.573 -0.5703 -0.0960  0.1446
  346SOL    HW1 1037   0.218   1.290   0.660 -0.2498 -0.2350 -1.5856
  346SOL    HW2 1038   0.194   1.293   0.491  2.7454 -0.1568 -0.6759
  347SOL     OW 1039   2.062   2.700   1.080 -0.3019 -0.5576 -0.2217
  347SOL    HW1 1040   2.160   2.715   1.051 -0.7395  1.0132  0.4321
  347SOL    HW2 1041   2.013   2.635   1.024 -0.0315  1.5455  1.8113
  348SOL     OW 1042   1.407   1.422   2.468  0.0519 -0.0443 -0.5534
  348SOL    HW1 1043   1.417   1.344   2.406 -0.8004  0.5739  2.6122
  348SOL    HW2 1044   1.445   1.504   2.416  0.1342 -1.1391  1.2054
  349SOL     OW 1045   2.319   1.213   2.338  0.1583 -0.3236  0.2336
  349SOL    HW1 1046   2.219   1.186   2.341 -0.9162  0.2729 -0.8679
  349SOL    HW2 1047   2.369   1.203   2.424 -1.7728  3.3619 -0.1631
  350SOL     OW 1048   3.082   2.035   1.125 -0.3276 -0.0652  0.0115
  350SOL    HW1 1049   0.020   1.948   1.145  0.0942 -1.5817 -2.2044
  350SOL    HW2 1050   0.034   2.100   1.070  0.2177  2.2147  0.2258
  351SOL     OW 1051   0.729   0.382   2.408 -1.0112  0.6238  0.2569
  351SOL    HW1 1052   0.818   0.412   2.447 -1.1355 -0.1740 -0.3023
  351SOL    HW2 1053   0.708   0.444   2.330 -0.2834  0.4979 -0.2768
  352SOL     OW 1054   0.775   2.668   1.654  0.2669  0.6401  0.2623
  352SOL    HW1 1055   0.721   2.738   1.699 -1.4977 -1.5201 -0.5341
  352SOL    HW2 1056   0.861   2.706   1.611 -1.1777  2.0898 -0.2548
  353SOL     OW 1057   0.548   1.403   2.181  0.3435 -0.3770 -0.5270
  353SOL    HW1 1058   0.469   1.338   2.166 -0.1697 -0.8281 -1.5924
  353SOL    HW2 1059   0.518   1.497   2.154  2.3637  0.1586 -0.2404
  354SOL     OW 1060   1.955   1.370   0.753  0.2260 -0.4157  0.4840
  354SOL    HW1 1061   1.855   1.374   0.754  0.0291  0.8934 -2.6494
  354SOL    HW2 1062   1.979   1.310   0.673 -1.3875 -0.3269  1.8321
  355SOL     OW 1063   2.497   3.105   0.792  0.2236  0.9710 -0.2254
  355SOL    HW1 1064   2.504   3.032   0.719 -1.8721 -3.0856  0.2416
  355SOL    HW2 1065   2.595   0.023   0.821  3.2525 -1.2742  0.7122
  356SOL     OW 1066   3.033   1.295   2.568 -0.2773  0.6381 -0.1050
  356SOL    HW1 1067   2.993   1.358   2.496  0.3679 -0.7150 -1.9559
  356SOL    HW2 1068   3.103   1.226   2.532  3.6575 -1.6835 -1.6081
  357SOL     OW 1069   0.368   3.002   1.621  0.2198 -0.2037 -0.6835
  357SOL    HW1 1070   0.359   2.926   1.686  0.0991  3.4022  0.2922
  357SOL    HW2 1071   0.376   3.096   1.660 -2.5437  2.6124 -0.0465
  358SOL     OW 1072   2.935   1.473   2.408 -0.0345 -0.1713  0.0936
  358SOL    HW1 1073   2.994   1.473   2.328 -0.0579  1.4478  0.0949
  358SOL    HW2 1074   2.911   1.573   2.424 -0.4586 -0.2604 -0.6497
  359SOL     OW 1075   2.761   2.409   2.844 -0.5336  0.2723  0.4810
  359SOL    HW1 1076   2.792   2.490   2.788 -1.1941 -1.5522 -0.0807
  359SOL    HW2 1077   2.680   2.424   2.900  2.7200 -3.6701  0.1825
  360SOL     OW 1078   1.410   1.427   1.064  0.5032 -0.4596  0.2781
  360SOL    HW1 1079   1.450   1.374   0.987  0.7736 -2.2105  0.4377
  360SOL    HW2 1080   1.441   1.527   1.061  0.1771  0.3687  0.6065
  361SOL     OW 1081   2.029   2.498   1.268  0.0685  0.1403 -0.4490
  361SOL    HW1 1082   2.102   2.464   1.204 -0.5560  1.0045 -1.0843
  361SOL    HW2 1083   1.990   2.581   1.227  0.9215  1.6371  1.8023
  362SOL     OW 1084   1.589   1.646   0.993 -0.0177  0.2153  0.3874
  362SOL    HW1 1085   1.646   1.726   1.017 -0.8124  0.3570 -1.2778
  362SOL    HW2 1086   1.545   1.656   0.900  1.0391 -0.1826  1.1850
  363SOL     OW 1087   2.755   2.061   0.044  0.7192  0.1779 -0.3668
  363SOL    HW1 1088   2.656   2.062   0.070 -2.2300  0.7249  1.0243
  363SOL    HW2 1089   2.796   2.157   0.021 -2.6389  1.4618  0.1843
  364SOL     OW 1090   2.189   0.443   1.793  0.6401  0.1683  0.1438
  364SOL    HW1 1091   2.256   0.438   1.719 -0.3458 -1.4033 -1.2341
  364SOL    HW2 1092   2.230   0.426   1.885 -1.0895 -0.1029 -0.5863
  365SOL     OW 1093   2.871   2.574   1.463 -0.7969 -0.1555  0.0245
  365SOL    HW1 1094   2.924   2.597   1.543 -2.1296 -1.0825 -0.8730
  365SOL    HW2 1095   2.893   2.486   1.416 -0.6526  1.8546 -0.6564
  366SOL     OW 1096   2.807   1.187   0.110  0.3015  0.3432 -0.1115
  366SOL    HW1 1097   2.746   1.182   0.026 -2.8460  2.8313 -2.0060
  366SOL    HW2 1098   2.815   1.096   0.154  0.3380  1.9487 -1.4400
  367SOL     OW 1099   2.554   2.512   2.983 -0.1103 -0.0817  0.4230
  367SOL    HW1 1100   2.551   2.583   2.909  0.6442 -1.3938  0.0149
  367SOL    HW2 1101   2.537   2.556   3.071  1.5324  1.8655 -0.9390
  368SOL     OW 1102   2.651   1.830   1.505 -0.0109 -0.3528  0.6923
  368SOL    HW1 1103   2.649   1.929   1.534  1.0283  3.4886  2.4990
  368SOL    HW2 1104   2.675   1.823   1.408  0.8243 -0.1856 -1.1145
  369SOL     OW 1105   0.337   0.102   0.866  0.2879  0.2646 -0.2243
  369SOL    HW1 1106   0.340   0.194   0.904  0.8127 -2.0030  0.9414
  369SOL    HW2 1107   0.339   0.107   0.767  0.6273  0.0082  0.1934
  370SOL     OW 1108   0.791   0.353   0.938 -0.0545 -0.0830 -0.4260
  370SOL    HW1 1109   0.702   0.400   0.954 -0.7257  0.5190  0.6895
  370SOL    HW2 1110   0.825   0.386   0.844 -2.0443 -0.1561 -0.0448
  371SOL     OW 1111   2.501   1.792   0.252  0.1349  0.1250 -0.3799
  371SOL    HW1 1112   2.559   1.713   0.288 -1.8297  2.0659 -0.0463
  371SOL    HW2 1113   2.501   1.788   0.149  0.6887  2.0181 -1.0627
  372SOL     OW 1114   0.252   1.000   2.689  0.1202 -0.2323 -0.0087
  372SOL    HW1 1115   0.203   1.066   2.746  0.5264  0.1993 -0.2045
  372SOL    HW2 1116   0.349   0.993   2.725 -1.4705  2.1649  4.0819
  373SOL     OW 1117   2.898   0.932   0.485  0.0895  0.0202  0.3878
  373SOL    HW1 1118   2.953   1.006   0.531 -0.0592  1.0138 -1.0727
  373SOL    HW2 1119   2.833   0.886   0.545  0.9015  0.1005 -0.5979
  374SOL     OW 1120   0.624   2.276   2.961  0.3154  0.6465  0.1265
  374SOL    HW1 1121   0.557   2.345   2.990  1.7426  0.3691 -0.6177
  374SOL    HW2 1122   0.716   2.314   2.946 -0.7452 -1.2115 -3.2598
  375SOL     OW 1123   1.257   0.402   0.095  0.2267 -0.5738 -0.0365
  375SOL    HW1 1124   1.179   0.429   0.033  1.2633 -1.6255  0.7050
  375SOL    HW2 1125   1.255   0.300   0.105 -1.1735  0.0862 -1.2469
  376SOL     OW 1126   0.079   2.982   1.863  0.5079 -0.1521  0.0221
  376SOL    HW1 1127   0.028   2.913   1.916 -0.3713  0.7093 -0.0323
  376SOL    HW2 1128   0.157   2.943   1.810  1.9949  0.8960  1.7959
  377SOL     OW 1129   3.095   2.249   2.466  0.5738 -0.0342 -0.0598
  377SOL    HW1 1130   0.039   2.339   2.452  1.4216  2.6325 -0.5803
  377SOL    HW2 1131   0.054   2.188   2.509 -0.0970  0.1052 -1.4212
  378SOL     OW 1132   1.650   0.817   0.568  0.0622 -0.3760  0.4075
  378SOL    HW1 1133   1.679   0.917   0.556 -1.6642  1.5388  0.3740
  378SOL    HW2 1134   1.679   0.785   0.659  1.7430 -0.3463 -2.5440
  379SOL     OW 1135   1.144   1.118   0.338  0.5187 -0.7092 -0.3979
  379SOL    HW1 1136   1.072   1.084   0.278  2.8237 -1.4686  1.6720
  379SOL    HW2 1137   1.097   1.158   0.421 -0.6300 -0.9564  1.9455
  380SOL     OW 1138   2.230   2.279   1.895 -0.2933 -0.9635 -0.9182
  380SOL    HW1 1139   2.318   2.246   1.855  0.8585  1.1317 -1.4676
  380SOL    HW2 1140   2.191   2.203   1.949  0.8186 -1.5539 -1.1184
  381SOL     OW 1141   0.186   1.020   2.222  0.4852 -0.7340  0.5628
  381SOL    HW1 1142   0.132   1.000   2.135  1.2377  1.4766 -2.0578
  381SOL    HW2 1143   0.205   0.935   2.271 -2.3399  1.2768  0.0069
  382SOL     OW 1144   2.853   2.293   0.004 -0.0137  0.2208  0.0029
  382SOL    HW1 1145   2.825   2.325   3.021  2.0892 -0.7668 -1.9752
  382SOL    HW2 1146   2.798   2.335   0.081 -1.9829  1.1341  2.3081
  383SOL     OW 1147   1.444   1.112   2.038 -0.2033  0.4333  0.3027
  383SOL    HW1 1148   1.403   1.028   1.999 -1.4252  1.1092  0.1886
  383SOL    HW2 1149   1.535   1.123   1.996  0.2394 -0.8613 -0.0813
  384SOL     OW 1150   0.750   1.965   2.420  0.3491 -0.6367  0.3830
  384SOL    HW1 1151   0.789   2.037   2.362 -2.1558  0.3441 -1.1989
  384SOL    HW2 1152   0.808   1.933   2.494 -0.8043  0.0706 -3.4994
  385SOL     OW 1153   2.659   1.902   0.719 -0.0776  0.1269 -0.7988
  385SOL    HW1 1154   2.597   1.834   0.683 -0.6578 -2.6339 -1.4583
  385SOL    HW2 1155   2.673   1.882   0.819  0.4588  1.4795  0.4206
  386SOL     OW 1156   1.388   1.051   0.086 -0.1826 -0.6961  0.2513
  386SOL    HW1 1157   1.449   1.122   0.050 -1.9167  2.6186 -2.3076
  386SOL    HW2 1158   1.425   1.019   0.176  1.9269  0.6966 -2.4939
  387SOL     OW 1159   0.162   0.414   1.770  0.0348 -0.2231  0.2222
  387SOL    HW1 1160   0.233   0.375   1.701 -0.2537 -1.0492 -3.4056
  387SOL    HW2 1161   0.110   0.335   1.820  0.5520 -1.3475  0.4518
  388SOL     OW 1162   2.806   0.762   1.359 -0.4407 -0.3129  0.7568
  388SOL    HW1 1163   2.810   0.843   1.295 -2.8774  1.1391 -3.8959
  388SOL    HW2 1164   2.853   0.688   1.319  0.1066  2.3094 -0.9996
  389SOL     OW 1165   1.811   1.165   2.548  0.3489 -0.8566 -0.0975
  389SOL    HW1 1166   1.741   1.089   2.551 -0.9028 -1.0723  0.7679
  389SOL    HW2 1167   1.777   1.244   2.490 -0.3513 -1.0978 -0.0423
  390SOL     OW 1168   1.878   2.104   0.133  0.3428  0.3291  0.2377
  390SOL    HW1 1169   1.883   2.130   0.031 -0.9497 -0.4749 -0.4012
  390SOL    HW2 1170   1.971   2.071   0.167  3.9385 -3.9522  2.6341
  391SOL     OW 1171   1.230   2.610   1.061  0.3364  0.6753  0.3239
  391SOL    HW1 1172   1.164   2.678   1.023 -1.1951 -1.0303 -0.3160
  391SOL    HW2 1173   1.274   2.641   1.147  1.8188 -0.0679 -1.1445
  392SOL     OW 1174   2.607   2.621   1.537 -0.6468 -0.4187  0.3847
  392SOL    HW1 1175   2.709   2.614   1.510 -0.4015 -1.2388 -1.9132
  392SOL    HW2 1176   2.555   2.608   1.453  0.7334 -1.9451 -0.3480
  393SOL     OW 1177   1.751   2.342   2.359 -0.4929  0.3177 -0.1726
  393SOL    HW1 1178   1.681   2.264   2.358  0.0960 -0.1208 -0.4880
  393SOL    HW2 1179   1.726   2.413   2.432  1.7721 -1.4492  1.0706
  394SOL     OW 1180   0.323   2.844   2.467 -1.2967 -0.3220 -0.2390
  394SOL    HW1 1181   0.328   2.834   2.567  0.4434 -2.3853  0.7963
  394SOL    HW2 1182   0.336   2.936   2.435  0.7595 -2.4938 -3.1167
  395SOL     OW 1183   0.649   1.049   1.352 -0.3630  0.2152 -0.1668
  395SOL    HW1 1184   0.641   1.135   1.412  3.1214  2.5245  0.4055
  395SOL    HW2 1185   0.573   0.984   1.364  3.0727  0.2565 -0.4790
  396SOL     OW 1186   2.067   1.129   2.403  0.0898  0.1651  0.2679
  396SOL    HW1 1187   2.043   1.033   2.383  2.8978  1.5381 -0.7723
  396SOL    HW2 1188   1.994   1.181   2.447 -0.5218  0.7869  0.3777
  397SOL     OW 1189   2.672   0.424   2.902 -0.4412  0.4046  0.1161
  397SOL    HW1 1190   2.749   0.446   2.963  2.0897  2.1210 -0.3955
  397SOL    HW2 1191   2.695   0.448   2.803  0.0421  1.2562  0.5010
  398SOL     OW 1192   1.749   0.056   0.746 -0.0738 -0.1321  0.1454
  398SOL    HW1 1193   1.789   3.087   0.800 -1.0300  2.7474 -0.2736
  398SOL    HW2 1194   1.822   0.120   0.712 -0.2045 -1.0072  3.9571
  399SOL     OW 1195   2.420   2.744   1.895  0.2054 -0.3793 -0.1342
  399SOL    HW1 1196   2.395   2.841   1.873  0.7909  0.2864  0.8469
  399SOL    HW2 1197   2.341   2.679   1.908  1.0736 -0.2979  0.4140
  400SOL     OW 1198   3.007   2.392   2.156  0.3165  0.0877 -0.2323
  400SOL    HW1 1199   2.948   2.363   2.236 -1.4826 -0.0996  1.8104
  400SOL    HW2 1200   3.089   2.332   2.148 -0.3919  1.9851  0.7379
  401SOL     OW 1201   0.725   0.402   0.507 -0.1843  0.0788 -0.6696
  401SOL    HW1 1202   0.653   0.339   0.474  2.7357 -0.2149  0.5034
  401SOL    HW2 1203   0.677   0.478   0.554  0.9693 -1.1461 -2.4206
  402SOL     OW 1204   0.755   2.848   1.866  0.1292  0.2678  0.4551
  402SOL    HW1 1205   0.857   2.869   1.861  1.7849  0.8885  1.0341
  402SOL    HW2 1206   0.702   2.933   1.884  1.6650 -2.6362 -0.7322
  403SOL     OW 1207   0.174   1.308   1.953  0.0900 -0.2365  0.1124
  403SOL    HW1 1208   0.102   1.235   1.927  1.0627  0.7310 -2.1040
  403SOL    HW2 1209   0.219   1.275   2.034 -3.3489  1.0836  0.9593
  404SOL     OW 1210   2.767   2.517   2.239  0.4280 -0.3265  0.3694
  404SOL    HW1 1211   2.837   2.524   2.164  3.2824  0.9748 -2.4039
  404SOL    HW2 1212   2.791   2.442   2.302 -1.6308 -0.7915 -1.6214
  405SOL     OW 1213   2.346   0.292   2.689 -0.2828  0.5732 -0.4244
  405SOL    HW1 1214   2.258   0.287   2.643  3.2403  0.0538  0.8275
  405SOL    HW2 1215   2.336   0.294   2.790  1.5787 -2.2522  2.3393
  406SOL     OW 1216   1.552   2.399   0.429 -0.2799  0.2172  0.3488
  406SOL    HW1 1217   1.463   2.393   0.478 -1.3420  1.2486  3.6613
  406SOL    HW2 1218   1.571   2.310   0.374  2.1998 -1.9174 -3.5986
  407SOL     OW 1219   1.911   1.452   0.359  0.1947  0.3452  0.1596
  407SOL    HW1 1220   1.939   1.533   0.300  3.3894 -1.2666  0.1106
  407SOL    HW2 1221   1.815   1.443   0.384 -2.4805 -0.5528 -2.1495
  408SOL     OW 1222   0.177   0.712   2.213 -0.6190  0.4727  0.5670
  408SOL    HW1 1223   0.210   0.715   2.307 -3.0208 -1.1337 -2.7259
  408SOL    HW2 1224   0.257   0.719   2.149 -1.3359 -0.8384  0.9349
  409SOL     OW 1225   2.672   1.380   2.930 -0.2096  0.0065  0.3405
  409SOL    HW1 1226   2.769   1.392   2.909 -1.6889  0.1030  1.6430
  409SOL    HW2 1227   2.645   1.283   2.938  1.3791 -0.0684  1.7716
  410SOL     OW 1228   2.719   1.366   1.171 -0.2622 -0.5899 -0.0494
  410SOL    HW1 1229   2.672   1.348   1.083  1.3413  0.1907  1.0943
  410SOL    HW2 1230   2.690   1.456   1.198  1.4359 -3.8186  1.8267
  411SOL     OW 1231   2.792   0.618   0.511 -0.2640  1.0810 -0.2312
  411SOL    HW1 1232   2.839   0.535   0.555  2.1750 -4.5732  0.6030
  411SOL    HW2 1233   2.698   0.627   0.553 -1.0566  3.0851  1.2640
  412SOL     OW 1234   1.886   0.155   0.304  0.2055  0.0323 -0.1015
  412SOL    HW1 1235   1.877   0.152   0.405 -1.0617 -2.3783  2.3544
  412SOL    HW2 1236   1.959   0.219   0.274 -3.0516 -3.5273 -2.5939
  413SOL     OW 1237   1.291   0.421   1.793 -0.0661  0.0976  0.1154
  413SOL    HW1 1238   1.326   0.329   1.822  0.0767 -0.7900  2.9159
  413SOL    HW2 1239   1.354   0.487   1.749  1.6005  1.8229  2.6602
  414SOL     OW 1240   0.388   1.201   0.095 -0.1833 -0.0363 -0.7898
  414SOL    HW1 1241   0.445   1.116   0.097 -0.0049 -3.3452 -2.2089
  414SOL    HW2 1242   0.398   1.245   0.008  0.6002  0.7189  2.1718
  415SOL     OW 1243   0.159   1.415   0.366  0.3315 -0.3329  0.1366
  415SOL    HW1 1244   0.067   1.447   0.373  1.4363  0.9448 -1.0377
  415SOL    HW2 1245   0.179   1.356   0.286  2.9582  1.2259 -1.2264
  416SOL     OW 1246   2.175   0.837   0.232 -0.3409  0.3624  0.2005
  416SOL    HW1 1247   2.151   0.749   0.185  1.0241  0.6278 -0.1984
  416SOL    HW2 1248   2.270   0.863   0.198 -0.5897  0.4128 -1.6654
  417SOL     OW 1249   2.731   2.711   0.140 -0.3125 -0.2904  0.4161
  417SOL    HW1 1250   2.822   2.751   0.104 -0.0560  1.9980  3.3333
  417SOL    HW2 1251   2.726   2.612   0.132 -0.0122  0.8257 -2.5228
  418SOL     OW 1252   2.779   0.604   0.221 -0.2295 -0.5926 -0.2260
  418SOL    HW1 1253   2.780   0.586   0.322  0.1777  1.1199  3.2394
  418SOL    HW2 1254   2.688   0.625   0.181 -0.4404  0.0013  0.0600
  419SOL     OW 1255   0.987   0.318   0.497 -0.0267 -0.2475 -0.5164
  419SOL    HW1 1256   0.889   0.354   0.495  2.3254  2.1118 -0.7821
  419SOL    HW2 1257   0.998   0.214   0.502 -2.3382 -1.1942 -1.0751
  420SOL     OW 1258   0.523   1.094   0.655 -0.2002 -0.0426 -0.2283
  420SOL    HW1 1259   0.449   1.032   0.624  2.4714 -2.0203  0.3211
  420SOL    HW2 1260   0.509   1.118   0.751 -2.8287  2.3929  1.4070
  421SOL     OW 1261   0.303   1.975   0.570 -0.1965  0.6738 -0.7599
  421SOL    HW1 1262   0.375   1.950   0.506  1.9126 -0.7479 -1.3878
  421SOL    HW2 1263   0.217   1.991   0.515  0.6712 -0.4190 -1.4441
  422SOL     OW 1264   2.934   0.432   1.691 -0.5936  0.8957  0.1166
  422SOL    HW1 1265   2.969   0.483   1.772 -1.6290  0.5800  1.6572
  422SOL    HW2 1266   2.959   0.331   1.694  0.1595  0.5547 -0.3611
  423SOL     OW 1267   2.131   1.928   0.202 -0.0201 -0.4717  0.4485
  423SOL    HW1 1268   2.191   1.965   0.278 -1.3841  0.6780 -1.7984
  423SOL    HW2 1269   2.182   1.926   0.114 -0.0509  0.8774  0.1685
  424SOL     OW 1270   1.767   1.552   2.960  0.3939 -0.3094  0.4704
  424SOL    HW1 1271   1.713   1.630   3.000 -0.1927 -0.1065 -0.1980
  424SOL    HW2 1272   1.835   1.584   2.896 -0.5834 -1.4691 -0.6672
  425SOL     OW 1273   0.501   2.925   2.131 -1.0605  0.2509  0.7542
  425SOL    HW1 1274   0.404   2.916   2.107  2.0036  1.9741 -0.2928
  425SOL    HW2 1275   0.551   2.978   2.056 -0.3226 -0.0117  0.0414
  426SOL     OW 1276   2.341   2.849   3.010  0.3190  0.7779 -0.0128
  426SOL    HW1 1277   2.414   2.898   2.960 -2.3056 -0.8027 -2.9153
  426SOL    HW2 1278   2.297   2.776   2.956  0.8415  2.8999  1.2521
  427SOL     OW 1279   0.450   1.627   2.097 -0.1883  0.1128  0.1695
  427SOL    HW1 1280   0.515   1.689   2.045  3.1885  2.4827  0.6174
  427SOL    HW2 1281   0.421   1.673   2.185 -0.1700 -3.1107 -1.4108
  428SOL     OW 1282   2.207   1.419   2.499 -0.3221 -0.2084 -0.0651
  428SOL    HW1 1283   2.126   1.402   2.443 -0.2412 -0.2262  3.3338
  428SOL    HW2 1284   2.221   1.343   2.567 -1.9104  0.8210  0.6372
  429SOL     OW 1285   2.607   2.960   0.601  0.0648  0.1884  0.2450
  429SOL    HW1 1286   2.666   2.998   0.529 -2.3502 -1.6227 -1.5664
  429SOL    HW2 1287   2.527   2.911   0.560  1.7513 -4.2888 -0.1215
  430SOL     OW 1288   1.850   2.049   2.181  0.0002  0.4714 -0.0251
  430SOL    HW1 1289   1.785   1.974   2.182  1.1500 -1.3812 -0.4557
  430SOL    HW2 1290   1.820   2.112   2.105  2.8379  0.0522 -0.8405
  431SOL     OW 1291   2.990   1.782   1.883 -0.9263  0.0531  0.0422
  431SOL    HW1 1292   2.912   1.827   1.933  2.6792 -0.8634  0.4911
  431SOL    HW2 1293   2.941   1.717   1.825  1.2353  2.6232  1.8159
  432SOL     OW 1294   1.074   2.336   1.981  0.0736 -0.2880 -0.9273
  432SOL    HW1 1295   1.156   2.275   1.966  3.1600  1.0837  3.0143
  432SOL    HW2 1296   0.983   2.293   1.958 -3.4575 -0.3451 -1.1433
  433SOL     OW 1297   1.026   2.981   0.888 -0.2553 -0.3606  0.1683
  433SOL    HW1 1298   1.105   2.986   0.947  3.1119  1.5928 -1.2491
  433SOL    HW2 1299   0.992   3.075   0.867  0.5492 -1.0034  3.7892
  434SOL     OW 1300   0.151   2.259   2.129 -0.9153 -0.0227 -0.0648
  434SOL    HW1 1301   0.185   2.317   2.057 -0.0064 -0.5188  2.6145
  434SOL    HW2 1302   0.187   2.169   2.113  0.3228 -0.3677 -1.1515
  435SOL     OW 1303   0.562   1.362   0.569  0.1562  0.6064 -0.5243
  435SOL    HW1 1304   0.554   1.283   0.631  2.8004  0.6461  0.1701
  435SOL    HW2 1305   0.530   1.325   0.478 -1.1013 -0.2566 -1.3804
  436SOL     OW 1306   0.496   1.921   1.680  0.6864 -0.2675 -0.3445
  436SOL    HW1 1307   0.585   1.946   1.639 -2.4105 -1.0412  0.1092
  436SOL    HW2 1308   0.437   2.002   1.673  1.7812 -3.3443 -0.3236
  437SOL     OW 1309   1.172   0.503   0.456 -0.1988  0.5745  0.3178
  437SOL    HW1 1310   1.084   0.447   0.464  0.1412  0.1929 -1.5943
  437SOL    HW2 1311   1.160   0.580   0.395 -0.6001 -2.1303  1.6658
  438SOL     OW 1312   0.967   1.786   0.742  0.1660 -0.3700 -0.0581
  438SOL    HW1 1313   0.920   1.736   0.663 -1.4106  1.9037 -1.2232
  438SOL    HW2 1314   1.045   1.729   0.781  4.3576 -1.8723  3.9501
  439SOL     OW 1315   1.281   1.816   2.139  0.2989  0.1221  0.5130
  439SOL    HW1 1316   1.363   1.866   2.176  0.7379  1.7598 -0.9990
  439SOL    HW2 1317   1.315   1.739   2.086  0.4690  0.6349  1.1908
  440SOL     OW 1318   1.542   0.147   1.283  0.2993 -0.6373 -0.3230
  440SOL    HW1 1319   1.548   0.144   1.384 -0.3769  0.1256 -2.2041
  440SOL    HW2 1320   1.632   0.124   1.240  0.7693 -1.9971 -2.2004
  441SOL     OW 1321   0.467   0.052   1.234  0.2096 -0.0427 -0.1572
  441SOL    HW1 1322   0.465   0.154   1.253 -1.1839  0.9963 -0.6530
  441SOL    HW2 1323   0.523   0.002   1.304  2.3951  1.0618  1.4074
  442SOL     OW 1324   2.269   1.934   0.648 -0.0158  0.1993  0.1113
  442SOL    HW1 1325   2.175   1.896   0.662  1.1698 -0.8210 -0.7156
  442SOL    HW2 1326   2.283   1.957   0.549  0.4423  0.7233 -3.8363
  443SOL     OW 1327   2.645   0.454   2.303 -0.4885 -0.0473  0.7428
  443SOL    HW1 1328   2.551   0.451   2.347 -0.8695  2.0632 -0.3774
  443SOL    HW2 1329   2.655   0.388   2.226  1.6679  1.2469  0.0670
  444SOL     OW 1330   1.825   1.213   2.162 -0.3666 -0.2213  0.5053
  444SOL    HW1 1331   1.817   1.198   2.063  0.4939  0.3192 -2.5374
  444SOL    HW2 1332   1.757   1.159   2.216  3.1937  0.7658  2.1351
  445SOL     OW 1333   2.689   2.133   1.563  0.1334  0.3645 -0.5415
  445SOL    HW1 1334   2.725   2.104   1.650 -2.4617  0.1074 -0.2702
  445SOL    HW2 1335   2.640   2.225   1.571 -0.1099  0.0856 -0.3365
  446SOL     OW 1336   0.291   0.972   0.555  0.4906 -0.4749  0.1697
  446SOL    HW1 1337   0.259   0.930   0.468 -0.2432 -1.7897  0.9744
  446SOL    HW2 1338   0.265   1.071   0.555  1.0084 -0.1350 -2.6580
  447SOL     OW 1339   0.816   1.644   0.557 -0.0252 -0.2706 -0.0125
  447SOL    HW1 1340   0.798   1.558   0.602  0.7135  1.7948 -1.7685
  447SOL    HW2 1341   0.752   1.719   0.580 -1.2993 -2.9742 -2.3963
  448SOL     OW 1342   1.062   1.034   1.791  0.0899 -0.7742 -0.1502
  448SOL    HW1 1343   1.061   1.001   1.693 -0.5656 -1.5406 -0.3071
  448SOL    HW2 1344   1.126   0.976   1.846 -0.0559  0.6650 -0.4102
  449SOL     OW 1345   0.209   1.610   2.986 -0.1416  0.7095  0.1988
  449SOL    HW1 1346   0.195   1.534   2.922  0.0464 -0.1469 -0.0648
  449SOL    HW2 1347   0.143   1.604   3.063  0.6876  1.7515 -0.5610
  450SOL     OW 1348   2.563   2.379   2.089  0.0596  0.2740  0.0401
  450SOL    HW1 1349   2.488   2.431   2.050  0.7988 -1.1822  0.4524
  450SOL    HW2 1350   2.622   2.428   2.156 -0.5021 -3.0183 -0.7694
  451SOL     OW 1351   1.998   0.369   2.152 -0.0464 -0.3576  0.5529
  451SOL    HW1 1352   1.973   0.295   2.088 -0.6021  0.0947 -0.4275
  451SOL    HW2 1353   1.928   0.446   2.151  1.4602 -0.0595 -1.0467
  452SOL     OW 1354   0.751   2.925   1.090 -0.1414 -0.6228 -0.4098
  452SOL    HW1 1355   0.773   2.854   1.027 -2.6463  0.8493 -0.3938
  452SOL    HW2 1356   0.833   2.983   1.108 -2.0245 -1.4804  1.0083
  453SOL     OW 1357   1.147   1.300   1.012  0.1766 -0.0545  0.2087
  453SOL    HW1 1358   1.232   1.327   1.062  1.2922 -1.0081 -1.0353
  453SOL    HW2 1359   1.071   1.368   1.027 -2.3235  0.5931  0.8860
  454SOL     OW 1360   0.235   1.074   0.972 -0.2478 -0.0762  0.3501
  454SOL    HW1 1361   0.319   1.120   1.011  1.4480 -2.0768  0.5134
  454SOL    HW2 1362   0.185   1.137   0.912  0.1985  0.3363  0.5006
  455SOL     OW 1363   2.933   2.871   0.320  0.0581 -0.4826  0.4905
  455SOL    HW1 1364   2.985   2.865   0.233 -2.5699 -2.2879  0.0052
  455SOL    HW2 1365   2.949   2.962   0.370 -2.7207  1.5244 -0.9575
  456SOL     OW 1366   2.419   2.341   0.652  0.0941  0.7733  0.1874
  456SOL    HW1 1367   2.449   2.269   0.716 -0.5308 -0.2614 -0.0142
  456SOL    HW2 1368   2.450   2.319   0.556  1.5306 -1.9672 -0.6539
  457SOL     OW 1369   1.195   0.033   2.904  0.4613 -0.5149 -0.3062
  457SOL    HW1 1370   1.232   0.011   2.999  0.2005  3.2616 -1.1143
  457SOL    HW2 1371   1.270   0.028   2.839 -0.6741 -0.6067  3.2535
  458SOL     OW 1372   2.889   2.728   0.545 -0.6392  0.3560  0.5500
  458SOL    HW1 1373   2.872   2.788   0.471  0.3856 -2.2124  2.0549
  458SOL    HW2 1374   2.809   2.671   0.565  1.2767 -2.8523 -1.0594
  459SOL     OW 1375   2.373   0.486   2.369  0.2235 -0.7193  0.2296
  459SOL    HW1 1376   2.364   0.516   2.464  0.8093 -0.2245 -0.6782
  459SOL    HW2 1377   2.335   0.389   2.360 -0.7773 -1.2916 -0.4864
  460SOL     OW 1378   0.059   0.266   0.227  0.1164 -0.1306  0.1992
  460SOL    HW1 1379   0.059   0.297   0.131 -0.0233  1.3276 -1.2319
  460SOL    HW2 1380   3.073   0.287   0.260  0.3848  2.2697 -2.7888
  461SOL     OW 1381   0.609   1.882   1.272 -0.1495 -0.8691  0.2286
  461SOL    HW1 1382   0.668   1.841   1.347 -0.3136 -0.2994 -0.7600
  461SOL    HW2 1383   0.634   1.979   1.249 -0.3586  0.4998 -0.8763
  462SOL     OW 1384   0.003   2.757   1.636  0.3110 -0.3187 -0.1733
  462SOL    HW1 1385   3.068   2.845   1.608 -1.3486  3.7439  0.9067
  462SOL    HW2 1386   3.055   2.716   1.710 -0.0213  0.1338  0.5129
  463SOL     OW 1387   2.631   1.130   2.979  0.1233 -0.6041  0.0987
  463SOL    HW1 1388   2.606   1.033   3.001 -0.1243 -4.8480 -0.5795
  463SOL    HW2 1389   2.703   1.120   2.903  0.0429 -3.3042  0.4372
  464SOL     OW 1390   0.333   2.355   1.182 -0.4556  0.4004  0.2778
  464SOL    HW1 1391   0.381   2.280   1.125  0.2962 -3.0066  1.0093
  464SOL    HW2 1392   0.356   2.349   1.284 -0.6298  0.0869  1.4487
  465SOL     OW 1393   0.555   0.591   0.629  0.0739  0.3096 -0.3069
  465SOL    HW1 1394   0.473   0.582   0.569 -0.8345  2.1404 -0.6984
  465SOL    HW2 1395   0.534   0.646   0.715  0.5943  0.3391 -0.8673
  466SOL     OW 1396   1.269   2.934   2.153  0.8708  0.2392 -0.1708
  466SOL    HW1 1397   1.312   2.844   2.130 -1.0780  1.1496  0.4707
  466SOL    HW2 1398   1.248   2.940   2.254  0.7590  1.3848 -1.2397
  467SOL     OW 1399   0.700   0.507   2.159  0.0399 -0.0242  0.0416
  467SOL    HW1 1400   0.707   0.513   2.059  0.4585  0.3242  1.7315
  467SOL    HW2 1401   0.600   0.520   2.176 -0.1017  0.6757 -1.0106
  468SOL     OW 1402   0.307   1.255   2.179 -0.1603 -0.2337 -0.1318
  468SOL    HW1 1403   0.291   1.156   2.197  0.5079  1.0881 -0.6013
  468SOL    HW2 1404   0.281   1.309   2.263 -1.1735  0.7672  2.4899
  469SOL     OW 1405   0.344   1.749   0.691  0.3290  0.3800 -0.3092
  469SOL    HW1 1406   0.328   1.842   0.656 -1.6513 -2.8542  0.0908
  469SOL    HW2 1407   0.360   1.684   0.613  0.4694 -1.0099 -2.7922
  470SOL     OW 1408   2.537   1.796   2.292 -0.4350 -0.0746 -0.4411
  470SOL    HW1 1409   2.531   1.709   2.240  0.0289  2.2883 -1.9019
  470SOL    HW2 1410   2.451   1.850   2.280  0.4654  1.5248  0.1183
  471SOL     OW 1411   1.591   0.526   2.572  0.0901  0.3501 -0.0314
  471SOL    HW1 1412   1.603   0.430   2.546 -0.7503 -1.9183  3.6662
  471SOL    HW2 1413   1.563   0.537   2.669  2.0088  0.3967  0.0980
  472SOL     OW 1414   0.623   2.442   1.699  0.6786  0.5347  0.4356
  472SOL    HW1 1415   0.688   2.362   1.687  1.8888 -2.1908 -1.6267
  472SOL    HW2 1416   0.672   2.528   1.674  1.7560  0.9432 -1.1713
  473SOL     OW 1417   0.331   0.135   2.502 -0.4834 -0.0346  0.1640
  473SOL    HW1 1418   0.386   0.221   2.522  0.2562 -1.2445 -1.6331
  473SOL    HW2 1419   0.378   0.073   2.431  3.9643 -0.3328 -1.0472
  474SOL     OW 1420   1.805   0.124   1.184 -0.3190 -0.5329 -0.4195
  474SOL    HW1 1421   1.868   0.203   1.206  3.6166  1.4749  2.0902
  474SOL    HW2 1422   1.846   0.031   1.199  1.5608  0.9061 -0.2828
  475SOL     OW 1423   2.024   0.885   1.089 -0.1529  0.1983 -0.0283
  475SOL    HW1 1424   1.962   0.938   1.023 -0.8994  1.9225 -1.3257
  475SOL    HW2 1425   2.098   0.942   1.122 -1.9494 -0.9707 -2.3429
  476SOL     OW 1426   0.654   0.952   0.968 -0.3677 -0.0935  0.0546
  476SOL    HW1 1427   0.624   1.048   0.997 -3.2261  1.8413  1.5521
  476SOL    HW2 1428   0.749   0.926   0.993  0.5197 -1.7415  3.8455
  477SOL     OW 1429   1.300   2.414   0.557  0.3838  0.1488  0.0908
  477SOL    HW1 1430   1.230   2.341   0.528 -0.3298 -1.6560  1.8613
  477SOL    HW2 1431   1.271   2.454   0.649 -1.4465 -2.0570  0.6328
  478SOL     OW 1432   0.206   2.413   2.346 -0.1779  0.5624 -0.1829
  478SOL    HW1 1433   0.234   2.497   2.299 -1.5009 -0.2691 -2.7548
  478SOL    HW2 1434   0.172   2.351   2.280  3.8005  2.5658  2.2145
  479SOL     OW 1435   2.568   0.281   1.333  0.0730  0.0418  0.2443
  479SOL    HW1 1436   2.507   0.255   1.407  0.3596  2.2712 -1.6612
  479SOL    HW2 1437   2.513   0.268   1.245 -3.5464 -0.4916 -1.0270
  480SOL     OW 1438   0.294   2.359   0.589 -0.1104 -0.0096 -0.2277
  480SOL    HW1 1439   0.350   2.315   0.516 -1.2335 -2.2021 -3.4891
  480SOL    HW2 1440   0.206   2.392   0.544  0.7692 -1.2297 -1.1096
  481SOL     OW 1441   2.273   2.331   1.602  0.0639  0.6769 -0.3093
  481SOL    HW1 1442   2.261   2.426   1.577  0.3293 -2.8396  0.8024
  481SOL    HW2 1443   2.227   2.308   1.692 -1.9183 -1.2384  1.5447
  482SOL     OW 1444   1.233   2.707   2.798 -0.3730  0.0685  0.0420
  482SOL    HW1 1445   1.287   2.788   2.770  2.4274 -3.2586 -1.3085
  482SOL    HW2 1446   1.289   2.641   2.853 -2.0827 -1.3276 -2.8006
  483SOL     OW 1447   0.829   2.259   1.690  0.2740  0.0802 -0.1401
  483SOL    HW1 1448   0.918   2.287   1.647  2.4646  2.7401  0.0172
  483SOL    HW2 1449   0.820   2.156   1.684  0.3329 -2.8408 -1.8421
  484SOL     OW 1450   1.191   0.407   1.552 -0.2754 -0.1935  0.2928
  484SOL    HW1 1451   1.257   0.459   1.497  0.1871 -0.1738  0.3518
  484SOL    HW2 1452   1.214   0.414   1.653  0.5777  1.2765 -0.5653
  485SOL     OW 1453   1.800   0.999   2.910  0.0992 -0.2892  0.2039
  485SOL    HW1 1454   1.897   0.986   2.880  0.5622 -0.0533 -0.8361
  485SOL    HW2 1455   1.768   1.093   2.933 -1.3891  1.5125  0.5053
  486SOL     OW 1456   2.161   0.109   1.355  0.1163 -0.3819 -0.1229
  486SOL    HW1 1457   2.153   0.208   1.321 -0.2186 -1.3335  0.8316
  486SOL    HW2 1458   2.236   0.092   1.424  1.0773  0.4880 -3.1145
  487SOL     OW 1459   0.774   2.117   1.012 -0.1794  0.4517 -0.1557
  487SOL    HW1 1460   0.839   2.189   0.987 -2.5069 -1.9876 -2.0429
  487SOL    HW2 1461   0.705   2.149   1.079 -2.6311  0.0281 -1.4024
  488SOL     OW 1462   2.455   2.126   0.014 -0.4853 -0.2067 -0.0721
  488SOL    HW1 1463   2.459   2.196   3.048 -1.3144 -0.2380 -0.3086
  488SOL    HW2 1464   2.370   2.064   0.015 -2.2024  3.7347  0.3774
  489SOL     OW 1465   2.085   2.947   0.682  0.5997 -0.0688 -0.1286
  489SOL    HW1 1466   2.146   2.869   0.708 -1.5300 -0.7171  1.0228
  489SOL    HW2 1467   2.034   2.917   0.598  1.8304  0.2899  0.5597
  490SOL     OW 1468   0.816   1.899   3.065 -0.0171  0.4231  0.0683
  490SOL    HW1 1469   0.879   1.978   3.078 -1.2285  2.5783 -0.2868
  490SOL    HW2 1470   0.853   1.823   0.016 -1.8407  1.2470 -0.2558
  491SOL     OW 1471   0.219   2.071   1.391  0.3470  0.4445  0.3178
  491SOL    HW1 1472   0.116   2.078   1.376 -0.4357  0.9917  2.9455
  491SOL    HW2 1473   0.248   2.089   1.490 -2.3811 -0.0833  3.6554
  492SOL     OW 1474   0.841   1.525   1.596 -0.1607 -0.5403 -0.0849
  492SOL    HW1 1475   0.926   1.465   1.614 -0.0173 -1.1323  2.2034
  492SOL    HW2 1476   0.808   1.501   1.503 -2.5447 -1.1414 -2.3120
  493SOL     OW 1477   2.565   1.676   0.901 -0.3861 -0.2922  0.3678
  493SOL    HW1 1478   2.490   1.659   0.835  0.8852  2.0856  2.3487
  493SOL    HW2 1479   2.659   1.632   0.877  3.1810  0.3721  0.9315
  494SOL     OW 1480   2.835   1.641   0.803  0.2849 -0.1308  0.2856
  494SOL    HW1 1481   2.789   1.634   0.710 -1.0182  0.3430  0.4239
  494SOL    HW2 1482   2.915   1.705   0.791  2.6128  2.0555  0.8770
  495SOL     OW 1483   2.392   2.856   0.470  0.0524 -0.0399 -0.0384
  495SOL    HW1 1484   2.343   2.940   0.449  0.1561 -1.2418 -1.8758
  495SOL    HW2 1485   2.332   2.773   0.463  1.7198 -0.5466  1.6173
  496SOL     OW 1486   2.371   0.104   1.542  0.6889 -0.0702  0.3609
  496SOL    HW1 1487   2.419   0.022   1.514 -1.0256  2.0260 -2.6408
  496SOL    HW2 1488   2.419   0.163   1.605 -1.7458 -0.9098 -3.4341
  497SOL     OW 1489   2.410   1.354   2.828  0.3040  0.1025 -0.4372
  497SOL    HW1 1490   2.324   1.312   2.794  2.4016 -0.6539  0.2377
  497SOL    HW2 1491   2.490   1.301   2.785  1.7051 -1.1013 -1.1487
  498SOL     OW 1492   2.870   1.878   1.253 -0.2582 -0.3005  0.5494
  498SOL    HW1 1493   2.853   1.795   1.196  0.3154 -3.3490 -3.6993
  498SOL    HW2 1494   2.942   1.934   1.209  0.6888 -1.5850  0.4896
  499SOL     OW 1495   0.989   2.395   2.668 -0.0012 -0.7861  0.6340
  499SOL    HW1 1496   1.080   2.363   2.700  1.1306 -0.6779  0.9393
  499SOL    HW2 1497   1.007   2.476   2.610 -2.0442 -2.7876 -0.6018
  500SOL     OW 1498   1.653   1.427   0.475 -0.2946 -0.2793 -0.4516
  500SOL    HW1 1499   1.598   1.376   0.408  1.5498 -1.9725  0.9400
  500SOL    HW2 1500   1.626   1.396   0.570  1.0796 -1.0478  0.7059
  501SOL     OW 1501   1.521   0.108   1.544 -0.3225 -0.3571  0.5882
  501SOL    HW1 1502   1.459   0.077   1.623  2.2599 -0.6783  0.4530
  501SOL    HW2 1503   1.600   0.040   1.536 -1.9087 -1.5292 -2.2044
  502SOL     OW 1504   2.535   0.595   1.729 -0.3402 -0.1036 -0.1845
  502SOL    HW1 1505   2.600   0.531   1.770  1.1735  0.6057  1.9395
  502SOL    HW2 1506   2.485   0.655   1.793  1.6800  1.3383 -0.4643
  503SOL     OW 1507   2.536   1.552   2.180 -0.5912  0.1055 -0.1567
  503SOL    HW1 1508   2.433   1.539   2.183  0.4307 -0.0102 -0.0158
  503SOL    HW2 1509   2.580   1.523   2.092 -1.5014 -0.7411  0.1325
  504SOL     OW 1510   1.118   1.261   1.941 -0.4791 -0.2214 -0.8974
  504SOL    HW1 1511   1.140   1.232   2.036  3.2655  0.1828  0.2690
  504SOL    HW2 1512   1.136   1.185   1.875  2.2162  0.2576 -0.7489
  505SOL     OW 1513   0.369   0.340   1.585 -0.1204  0.3524  0.0183
  505SOL    HW1 1514   0.380   0.427   1.529  0.9049 -0.8332 -0.1241
  505SOL    HW2 1515   0.430   0.353   1.668  1.8847  0.3365 -1.8762
  506SOL     OW 1516   0.145   0.019   0.114 -0.1546  0.1395 -0.3919
  506SOL    HW1 1517   0.144   0.087   0.193  0.0815  0.0866  0.1106
  506SOL    HW2 1518   0.236   0.019   0.066 -0.5364 -0.2463  1.0004
  507SOL     OW 1519   0.448   2.487   3.086 -0.1950 -0.0238 -0.1168
  507SOL    HW1 1520   0.404   2.517   0.067  1.8762 -0.9782 -0.8024
  507SOL    HW2 1521   0.379   2.438   3.029 -3.7187 -1.1180 -0.6970
  508SOL     OW 1522   1.005   0.517   2.163  0.1849 -0.2157 -0.0799
  508SOL    HW1 1523   0.906   0.536   2.191 -0.3622 -0.0437 -0.3003
  508SOL    HW2 1524   1.022   0.415   2.163  0.7878 -2.5514 -0.8485
  509SOL     OW 1525   1.409   2.140   1.163 -0.3522 -0.0768 -0.1851
  509SOL    HW1 1526   1.495   2.150   1.215  0.4025  2.8439 -0.9529
  509SOL    HW2 1527   1.392   2.232   1.122  0.2678 -1.1988 -0.3365
  510SOL     OW 1528   2.952   1.139   1.532  0.0719 -0.1017  0.3666
  510SOL    HW1 1529   2.877   1.192   1.581  0.9731 -2.7050  1.2733
  510SOL    HW2 1530   2.931   1.040   1.520 -1.0858 -2.7953  0.9159
  511SOL     OW 1531   1.353   1.898   1.107  0.2053  0.1470  0.3641
  511SOL    HW1 1532   1.385   1.992   1.121  1.8230 -1.5411  0.1127
  511SOL    HW2 1533   1.379   1.839   1.189 -1.3106 -0.3297 -0.6324
  512SOL     OW 1534   3.062   1.752   0.404 -0.3851 -0.0521 -0.2857
  512SOL    HW1 1535   3.020   1.664   0.446 -1.0647 -1.9748  1.0334
  512SOL    HW2 1536   0.030   1.726   0.347 -0.3986  0.5943 -0.8094
  513SOL     OW 1537   0.169   1.405   2.817  0.1423  0.1496 -0.3869
  513SOL    HW1 1538   0.229   1.403   2.732 -0.9480 -1.1041 -2.2343
  513SOL    HW2 1539   0.128   1.311   2.830 -1.3247  1.0267  0.3652
  514SOL     OW 1540   2.262   2.344   2.403  0.3273 -0.2257 -0.1093
  514SOL    HW1 1541   2.173   2.330   2.365  2.3281  1.3690  0.2967
  514SOL    HW2 1542   2.326   2.270   2.383  1.2413  4.3309 -2.1168
  515SOL     OW 1543   2.463   0.899   0.847 -0.5919 -0.0877 -0.0927
  515SOL    HW1 1544   2.362   0.878   0.844  0.5660 -0.0156  0.9365
  515SOL    HW2 1545   2.498   0.892   0.753 -1.9245  2.6722  1.3724
  516SOL     OW 1546   2.707   2.435   0.205 -0.3926 -0.1646 -0.0916
  516SOL    HW1 1547   2.611   2.406   0.210 -1.7870  1.8049 -0.5410
  516SOL    HW2 1548   2.762   2.407   0.288  1.7333 -0.5589  2.5385
  517SOL     OW 1549   0.689   1.667   2.977 -0.1277 -0.1258  0.0373
  517SOL    HW1 1550   0.721   1.765   3.001  1.6021  1.9292 -0.5134
  517SOL    HW2 1551   0.599   1.647   3.018  0.3481  0.4485  1.4407
  518SOL     OW 1552   2.733   0.299   2.101  0.1972 -0.2959  0.0410
  518SOL    HW1 1553   2.694   0.206   2.075 -2.0416 -2.0278 -1.7146
  518SOL    HW2 1554   2.835   0.293   2.104 -1.0660 -0.9841  1.2454
  519SOL     OW 1555   1.999   1.036   0.201 -0.1538  0.2541  0.4213
  519SOL    HW1 1556   2.062   0.959   0.228 -0.0385 -0.2000 -0.9745
  519SOL    HW2 1557   1.906   1.012   0.233  1.3746  2.7438  2.1790
  520SOL     OW 1558   2.741   2.978   2.226  0.3649  0.2782  0.4080
  520SOL    HW1 1559   2.834   3.008   2.225 -3.0656  2.4320  0.4152
  520SOL    HW2 1560   2.729   2.897   2.288 -0.7904 -1.0207  2.0976
  521SOL     OW 1561   0.283   2.015   2.086  0.0484 -0.7830 -0.2691
  521SOL    HW1 1562   0.301   1.940   2.017  2.3931  0.2285 -0.5253
  521SOL    HW2 1563   0.335   2.000   2.168 -1.7528 -0.3327 -3.8715
  522SOL     OW 1564   1.341   2.891   1.752 -0.1191 -0.3926  0.1391
  522SOL    HW1 1565   1.297   2.943   1.826 -1.8607  0.3732 -1.7804
  522SOL    HW2 1566   1.290   2.809   1.720  1.2890 -0.7332 -0.6739
  523SOL     OW 1567   2.163   2.169   0.937 -0.6128  0.3498  0.3577
  523SOL    HW1 1568   2.253   2.123   0.908  1.7857 -1.5259  0.2491
  523SOL    HW2 1569   2.180   2.261   0.978 -0.1694  0.4056  0.3896
  524SOL     OW 1570   1.006   2.181   0.734  0.0566 -0.4761  0.0541
  524SOL    HW1 1571   0.973   2.256   0.790  2.7263 -2.3220 -1.1455
  524SOL    HW2 1572   0.931   2.130   0.685 -0.6940 -0.3251 -0.2810
  525SOL     OW 1573   2.739   0.466   0.852 -0.2383  0.4161 -0.0227
  525SOL    HW1 1574   2.769   0.566   0.847 -0.9638  0.7794 -3.7971
  525SOL    HW2 1575   2.672   0.446   0.777 -0.1769  0.7438  0.7799
  526SOL     OW 1576   1.611   0.027   0.508 -0.2676  0.5822 -0.4255
  526SOL    HW1 1577   1.660   0.036   0.600 -1.2901  0.7650 -0.8680
  526SOL    HW2 1578   1.615   0.123   0.467  1.2118  0.8871 -0.9162
  527SOL     OW 1579   1.963   1.626   1.253 -0.0889  0.2653  0.1981
  527SOL    HW1 1580   1.864   1.631   1.256  1.3272 -4.8091 -1.7678
  527SOL    HW2 1581   1.996   1.671   1.164 -1.2610  0.8948 -0.6223
  528SOL     OW 1582   2.757   2.751   2.373  0.9006  0.5666 -0.0685
  528SOL    HW1 1583   2.847   2.762   2.415 -0.5471 -2.7929 -1.4936
  528SOL    HW2 1584   2.749   2.656   2.332 -0.7654  0.7538  1.9951
  529SOL     OW 1585   0.990   1.276   2.384  0.0448  0.2336 -0.3463
  529SOL    HW1 1586   1.023   1.221   2.469 -0.6696  0.9507  0.2754
  529SOL    HW2 1587   0.885   1.290   2.389 -1.1986  3.4426  1.1419
  530SOL     OW 1588   1.878   0.790   2.624 -0.1856 -0.2011 -0.1960
  530SOL    HW1 1589   1.785   0.838   2.623 -2.3747 -2.7208 -0.5370
  530SOL    HW2 1590   1.937   0.828   2.703  3.2886 -1.3657  2.7274
  531SOL     OW 1591   0.261   0.851   0.074  0.2051 -0.5484  0.3682
  531SOL    HW1 1592   0.349   0.891   0.053  0.7356  1.5742  0.1410
  531SOL    HW2 1593   0.234   0.878   0.172 -1.1063  4.4156  4.3680
  532SOL     OW 1594   1.682   1.409   0.789 -0.6031 -0.0913  0.4213
  532SOL    HW1 1595   1.613   1.346   0.828 -0.6796  1.5602  0.7114
  532SOL    HW2 1596   1.661   1.500   0.825  3.0721 -1.8445  0.4180
  533SOL     OW 1597   0.228   0.770   2.509 -0.0526  0.0542  0.1886
  533SOL    HW1 1598   0.252   0.856   2.560  2.7758 -0.1854 -0.2288
  533SOL    HW2 1599   0.294   0.694   2.532  1.5013 -0.6618  0.4904
  534SOL     OW 1600   0.942   0.497   2.607 -0.2877 -0.0809 -0.7142
  534SOL    HW1 1601   1.041   0.513   2.615  2.3531  1.4447 -1.3967
  534SOL    HW2 1602   0.907   0.414   2.657  0.2712 -2.3314 -2.2271
  535SOL     OW 1603   0.558   0.530   3.027  0.0561 -0.8025  0.0790
  535SOL    HW1 1604   0.651   0.546   2.981  0.6354  0.6701 -3.3175
  535SOL    HW2 1605   0.491   0.595   2.990  0.7868 -1.6561 -0.5295
  536SOL     OW 1606   0.512   0.995   2.741  0.1903 -0.4607  0.5566
  536SOL    HW1 1607   0.480   1.044   2.654 -1.2197  2.9679 -1.9906
  536SOL    HW2 1608   0.578   1.057   2.792  3.9216 -0.9726 -0.2436
  537SOL     OW 1609   1.439   2.954   1.513  0.1740  0.0359  0.5400
  537SOL    HW1 1610   1.365   3.006   1.468 -0.5608 -1.9481 -3.4946
  537SOL    HW2 1611   1.413   2.931   1.607  1.1671  0.4244 -0.0975
  538SOL     OW 1612   0.674   2.383   0.161  0.0293 -0.1066 -0.6072
  538SOL    HW1 1613   0.615   2.465   0.155  0.4582  0.5344 -0.1896
  538SOL    HW2 1614   0.768   2.410   0.132 -1.4629  1.5022 -2.7943
  539SOL     OW 1615   2.724   1.226   1.726  0.0737 -0.6508  0.4106
  539SOL    HW1 1616   2.691   1.271   1.641  0.5961 -0.2702 -0.6003
  539SOL    HW2 1617   2.769   1.291   1.792 -1.1285  1.9176 -0.9682
  540SOL     OW 1618   1.965   1.923   1.517  0.4852  0.2373  0.2392
  540SOL    HW1 1619   1.873   1.880   1.527 -0.6876 -1.5240  0.0092
  540SOL    HW2 1620   1.971   2.002   1.583  0.6296 -3.3643  3.0394
  541SOL     OW 1621   0.770   1.782   1.476  0.1370 -0.6145  0.5243
  541SOL    HW1 1622   0.803   1.715   1.542 -3.4948 -0.7092 -2.0349
  541SOL    HW2 1623   0.824   1.777   1.391  0.2211  1.8458  1.1129
  542SOL     OW 1624   1.681   1.126   1.902 -0.3806 -0.4861 -0.2608
  542SOL    HW1 1625   1.633   1.175   1.830  0.2631 -0.2646  1.6235
  542SOL    HW2 1626   1.735   1.044   1.868  0.7989 -1.2471  0.7870
  543SOL     OW 1627   0.916   0.476   0.728  0.1005 -0.0025  0.4974
  543SOL    HW1 1628   0.875   0.559   0.681 -4.6041  0.0485 -1.0817
  543SOL    HW2 1629   0.959   0.407   0.662 -0.2676 -2.6258 -0.9887
  544SOL     OW 1630   2.102   1.807   2.291  0.2234  0.2945 -0.2027
  544SOL    HW1 1631   2.165   1.741   2.245  6.3269  2.1905  2.5876
  544SOL    HW2 1632   2.155   1.877   2.342  0.4695 -0.5358 -1.2023
  545SOL     OW 1633   1.640   1.602   1.265 -0.0490  0.1790  0.3214
  545SOL    HW1 1634   1.625   1.611   1.166 -0.3613  0.9886  2.7617
  545SOL    HW2 1635   1.647   1.503   1.290 -2.4176 -3.7074  2.0495
  546SOL     OW 1636   0.391   0.031   3.058 -0.6051 -0.5589 -0.0420
  546SOL    HW1 1637   0.347   0.015   2.967  0.9261 -0.3152 -0.1436
  546SOL    HW2 1638   0.439   0.118   3.057 -0.2411 -2.4925  0.1586
  547SOL     OW 1639   2.092   0.613   0.061  0.3585  0.6510  0.5419
  547SOL    HW1 1640   2.091   0.610   3.070  0.1709 -0.7398  0.1252
  547SOL    HW2 1641   2.050   0.529   0.102 -1.3616 -2.5492 -0.6212
  548SOL     OW 1642   2.361   1.942   2.135  0.3478  0.4955 -0.1387
  548SOL    HW1 1643   2.271   1.992   2.119 -0.9265  0.0060  0.5987
  548SOL    HW2 1644   2.394   1.898   2.047  0.9053  0.6838  0.0833
  549SOL     OW 1645   2.351   0.055   1.018 -0.5938 -0.2116 -0.7062
  549SOL    HW1 1646   2.320   3.083   1.067 -1.1257 -1.0927 -2.3668
  549SOL    HW2 1647   2.418   0.032   0.948  0.8870  0.5694 -0.5032
  550SOL     OW 1648   2.281   1.599   0.200 -0.1030 -0.2462  0.3336
  550SOL    HW1 1649   2.343   1.518   0.222  0.5476 -0.4609  0.0417
  550SOL    HW2 1650   2.349   1.675   0.220  0.0813 -1.8446 -0.5901
  551SOL     OW 1651   1.417   0.212   1.862 -0.0775  0.3908  0.0857
  551SOL    HW1 1652   1.460   0.267   1.937  0.5092  0.5797 -0.0709
  551SOL    HW2 1653   1.477   0.135   1.835 -0.2991  1.6820  1.6119
  552SOL     OW 1654   3.081   2.376   2.846  0.1531  0.4895 -0.8261
  552SOL    HW1 1655   0.029   2.427   2.918  0.5984  0.5814  0.1023
  552SOL    HW2 1656   3.004   2.437   2.823 -0.0205 -2.0152 -3.8059
  553SOL     OW 1657   0.771   3.072   0.414  0.0852  0.5870  0.5107
  553SOL    HW1 1658   0.868   3.096   0.413 -2.3170  2.3178  0.0749
  553SOL    HW2 1659   0.732   3.084   0.504  4.4887 -0.2495  1.1455
  554SOL     OW 1660   1.936   2.366   1.724  0.1405 -0.4933  0.1446
  554SOL    HW1 1661   1.932   2.386   1.621  1.4962 -0.1798 -0.9848
  554SOL    HW2 1662   1.929   2.447   1.783  0.9209 -0.1388  1.6159
  555SOL     OW 1663   1.347   2.299   1.669 -0.7985  0.1382 -0.4472
  555SOL    HW1 1664   1.369   2.366   1.593 -1.5059  0.7751  0.2105
  555SOL    HW2 1665   1.249   2.276   1.668 -0.4636 -1.8978  0.6319
  556SOL     OW 1666   1.630   1.946   0.414  1.0338 -0.6457 -0.3588
  556SOL    HW1 1667   1.604   1.852   0.395  1.0675  0.7222 -1.8838
  556SOL    HW2 1668   1.590   1.973   0.509 -2.2801  4.7193  3.2038
  557SOL     OW 1669   1.412   2.064   1.962  0.3550  0.0306 -0.0187
  557SOL    HW1 1670   1.490   2.066   1.896 -3.2801 -0.3225 -1.8310
  557SOL    HW2 1671   1.439   2.012   2.044 -0.3433 -0.2365  0.2271
  558SOL     OW 1672   3.005   0.318   2.052 -0.8040 -0.0681  0.0100
  558SOL    HW1 1673   3.003   0.416   2.017 -2.1934  0.2633 -1.0594
  558SOL    HW2 1674   3.043   0.244   1.989 -0.6044 -1.1048  0.4738
  559SOL     OW 1675   2.462   2.967   1.527  0.4665 -0.7390  0.8959
  559SOL    HW1 1676   2.456   2.877   1.487  1.0392 -2.3142  0.5311
  559SOL    HW2 1677   2.556   2.986   1.551 -2.8930 -1.1108 -0.1564
  560SOL     OW 1678   0.652   2.659   0.002 -0.2256  0.1296 -0.4837
  560SOL    HW1 1679   0.580   2.589   3.100  0.4614  2.1039  0.9642
  560SOL    HW2 1680   0.630   2.712   0.086 -1.1074  2.7150 -0.4239
  561SOL     OW 1681   1.259   0.888   0.415  0.2414 -0.1353  0.3602
  561SOL    HW1 1682   1.193   0.814   0.386 -0.5541 -2.2914 -1.0280
  561SOL    HW2 1683   1.234   0.974   0.367  1.5634  2.5801 -0.8510
  562SOL     OW 1684   0.884   0.738   2.506  0.1771  0.3129 -0.3757
  562SOL    HW1 1685   0.957   0.800   2.544  1.3054 -0.8780 -1.6427
  562SOL    HW2 1686   0.907   0.643   2.526  0.0620  1.3704  0.3501
  563SOL     OW 1687   2.185   2.481   2.631 -0.3245 -0.1517 -0.2035
  563SOL    HW1 1688   2.206   2.425   2.549  0.1412 -1.3557  1.4775
  563SOL    HW2 1689   2.084   2.500   2.633 -0.6330 -1.4863 -1.6967
  564SOL     OW 1690   0.160   1.178   0.226 -0.0952  0.0292 -0.2050
  564SOL    HW1 1691   0.246   1.160   0.176 -0.1261  1.7665  1.3645
  564SOL    HW2 1692   0.085   1.177   0.155 -0.9056  0.6609  1.6449
  565SOL     OW 1693   1.407   0.011   2.741 -0.3470  0.0224 -0.5083
  565SOL    HW1 1694   1.442   0.006   2.645 -2.8896 -1.2132  0.0276
  565SOL    HW2 1695   1.464   0.075   2.794  1.9735 -1.6765 -2.7751
  566SOL     OW 1696   1.772   2.995   2.551 -0.6310  0.0197  0.5510
  566SOL    HW1 1697   1.821   2.910   2.528  0.9587  0.2036 -0.2389
  566SOL    HW2 1698   1.773   3.015   2.651 -0.7686  1.7992 -1.2648
  567SOL     OW 1699   2.603   1.299   0.949 -0.6285  0.8207  0.1418
  567SOL    HW1 1700   2.590   1.208   0.992 -1.2049 -0.6818 -1.7705
  567SOL    HW2 1701   2.517   1.320   0.896  1.7346  1.3652  1.8910
  568SOL     OW 1702   2.102   1.754   3.047 -0.5847  0.1878  0.5102
  568SOL    HW1 1703   2.153   1.669   3.022 -0.0030 -0.0733 -0.0735
  568SOL    HW2 1704   2.002   1.738   3.041 -0.5869 -0.0790  1.5456
  569SOL     OW 1705   2.283   1.793   2.725 -0.5000 -0.0645  0.2491
  569SOL    HW1 1706   2.382   1.776   2.756  0.7119 -0.0582  1.3368
  569SOL    HW2 1707   2.231   1.699   2.736  0.6852 -0.7545 -0.5394
  570SOL     OW 1708   2.977   2.434   1.874 -0.5628  0.8028  0.3816
  570SOL    HW1 1709   2.969   2.383   1.964 -1.0532  1.6225  0.3643
  570SOL    HW2 1710   3.006   2.363   1.805  0.6474 -1.8796  0.1425
  571SOL     OW 1711   3.094   0.447   2.347 -0.5302 -0.0078 -0.2306
  571SOL    HW1 1712   0.072   0.451   2.402 -1.4109 -0.7358  3.2467
  571SOL    HW2 1713   0.005   0.494   2.258  1.1690  0.5201  1.8456
  572SOL     OW 1714   1.195   1.599   0.850  0.4054  0.6397  0.4471
  572SOL    HW1 1715   1.209   1.526   0.778  2.4904  0.4483  0.1885
  572SOL    HW2 1716   1.134   1.567   0.924  1.3736  0.2927  1.5302
  573SOL     OW 1717   1.006   0.147   0.008 -0.3673 -0.1048  0.5725
  573SOL    HW1 1718   1.059   0.097   3.043  1.2679 -1.2965 -2.8720
  573SOL    HW2 1719   1.056   0.147   0.096 -1.1810  0.0248 -2.8758
  574SOL     OW 1720   0.654   0.044   0.641 -0.0074  0.9988 -0.3599
  574SOL    HW1 1721   0.597   0.111   0.589 -0.9697  2.2571  1.8325
  574SOL    HW2 1722   0.599   3.069   0.663 -1.4255 -0.0123  0.5778
  575SOL     OW 1723   0.234   1.302   1.651 -0.4492  0.6444 -0.3649
  575SOL    HW1 1724   0.299   1.369   1.604  2.8551 -1.2898  0.0998
  575SOL    HW2 1725   0.289   1.240   1.709 -1.2422  0.8313 -0.8926
  576SOL     OW 1726   2.275   0.379   2.051  0.3691  0.1046  0.5126
  576SOL    HW1 1727   2.298   0.475   2.075  0.1948 -2.6104  2.9032
  576SOL    HW2 1728   2.178   0.357   2.079 -1.4365  0.6953 -0.8295
  577SOL     OW 1729   2.892   1.409   1.864  0.2840  0.4886  0.2903
  577SOL    HW1 1730   2.940   1.362   1.936 -0.7121  0.4253 -1.7913
  577SOL    HW2 1731   2.959   1.461   1.813  0.6152  0.7717  2.6286
  578SOL     OW 1732   1.479   2.652   2.310 -0.1936 -0.1503 -0.2921
  578SOL    HW1 1733   1.467   2.557   2.276 -3.0496 -1.7041 -2.4884
  578SOL    HW2 1734   1.417   2.675   2.391 -0.2035  1.0957  1.2521
  579SOL     OW 1735   2.130   2.037   2.030  0.2524 -0.1719 -0.0411
  579SOL    HW1 1736   2.060   2.044   2.102  4.4869 -0.1664 -2.4602
  579SOL    HW2 1737   2.109   1.958   1.971 -0.0252  0.6047 -0.1305
  580SOL     OW 1738   1.751   1.516   2.115 -0.4144 -0.2287  0.0368
  580SOL    HW1 1739   1.712   1.531   2.022  0.8563  0.1603 -2.9743
  580SOL    HW2 1740   1.799   1.426   2.126 -2.1508  1.4924  0.9750
  581SOL     OW 1741   1.436   1.211   2.319  0.1587 -0.1894  0.0686
  581SOL    HW1 1742   1.479   1.199   2.228 -1.3421 -2.7726 -1.2766
  581SOL    HW2 1743   1.394   1.124   2.345  0.4440  0.2205 -1.7301
  582SOL     OW 1744   0.059   1.973   1.813  0.1512  0.3132  0.2819
  582SOL    HW1 1745   0.139   1.923   1.844 -2.3345  3.1248 -1.0549
  582SOL    HW2 1746   3.093   1.905   1.813 -0.3829 -0.9909  1.5366
  583SOL     OW 1747   1.513   1.222   0.874 -0.2827 -0.1658  0.1644
  583SOL    HW1 1748   1.425   1.204   0.830  1.3109 -1.8949 -0.7662
  583SOL    HW2 1749   1.530   1.149   0.947  2.1991 -2.9018 -3.4119
  584SOL     OW 1750   1.129   2.197   0.440 -0.6471  0.4235  0.0611
  584SOL    HW1 1751   1.035   2.226   0.462  0.0703  1.3834 -1.0231
  584SOL    HW2 1752   1.165   2.122   0.497  2.4654 -0.9120 -0.2200
  585SOL     OW 1753   0.106   2.511   3.019  0.3321  0.2317 -0.1679
  585SOL    HW1 1754   0.119   2.525   0.009 -1.3587 -2.3326  0.8870
  585SOL    HW2 1755   0.184   2.455   2.981 -0.6946 -1.6976 -1.9198
  586SOL     OW 1756   2.633   1.277   0.473 -0.2113 -1.0442 -0.4663
  586SOL    HW1 1757   2.628   1.178   0.444 -0.4135  1.8989  2.0951
  586SOL    HW2 1758   2.706   1.287   0.538 -1.6643 -1.3338  1.0068
  587SOL     OW 1759   1.008   1.532   2.851  0.1361  0.1233  0.0055
  587SOL    HW1 1760   1.063   1.479   2.786 -1.2171  1.5972 -0.3847
  587SOL    HW2 1761   1.014   1.633   2.824  0.8469 -0.1932 -1.3253
  588SOL     OW 1762   0.244   0.445   0.724  0.4321  0.1094  0.2960
  588SOL    HW1 1763   0.244   0.356   0.675  0.4767 -1.4018  0.5976
  588SOL    HW2 1764   0.296   0.440   0.810 -1.1200  2.4562  2.3009
  589SOL     OW 1765   1.348   0.170   0.708  0.3153 -0.7513  0.4838
  589SOL    HW1 1766   1.380   0.231   0.631  1.5966  1.1260 -2.6947
  589SOL    HW2 1767   1.247   0.183   0.721 -3.8582  2.1024  0.2582
  590SOL     OW 1768   2.492   2.181   0.444  0.0519  0.1638 -0.9281
  590SOL    HW1 1769   2.580   2.131   0.464 -4.2111  0.0115  1.3837
  590SOL    HW2 1770   2.504   2.234   0.357  0.3413 -0.4628  0.0244
  591SOL     OW 1771   0.240   2.439   1.963  0.1561  0.3146  0.3586
  591SOL    HW1 1772   0.316   2.501   1.929  1.1443  0.8333  0.0558
  591SOL    HW2 1773   0.155   2.495   1.981  0.1782  1.4124 -0.3951
  592SOL     OW 1774   0.074   1.892   2.221 -0.1895 -0.3216 -0.2316
  592SOL    HW1 1775   0.051   1.823   2.151 -0.4053 -0.6925 -1.9567
  592SOL    HW2 1776   0.149   1.953   2.188  0.3243 -0.5651 -2.0589
  593SOL     OW 1777   1.431   1.368   1.320  0.0846 -0.4299  0.6031
  593SOL    HW1 1778   1.525   1.342   1.342 -0.0499  0.4237  2.8247
  593SOL    HW2 1779   1.417   1.381   1.218 -0.2999  1.3945 -1.7786
  594SOL     OW 1780   0.623   1.234   2.825 -0.0651  0.7631 -0.9073
  594SOL    HW1 1781   0.532   1.271   2.854 -4.0867 -0.8459 -0.8493
  594SOL    HW2 1782   0.687   1.316   2.821 -0.5695  0.7329 -1.3873
  595SOL     OW 1783   1.373   0.738   0.822 -0.3692  1.3636 -0.2097
  595SOL    HW1 1784   1.309   0.662   0.831  3.3268 -2.0402 -0.8499
  595SOL    HW2 1785   1.343   0.805   0.749  0.7136 -0.4235  1.0395
  596SOL     OW 1786   0.446   1.197   1.078  0.0054 -0.1587  0.6728
  596SOL    HW1 1787   0.548   1.224   1.071  3.2084 -1.5056 -0.5838
  596SOL    HW2 1788   0.423   1.177   1.173  0.0105 -0.2413  1.6658
  597SOL     OW 1789   0.782   2.291   1.972  0.2462 -0.1358 -0.1649
  597SOL    HW1 1790   0.730   2.373   2.000  1.3843 -0.6410  1.3195
  597SOL    HW2 1791   0.787   2.272   1.868  1.0270 -0.0832 -2.8557
  598SOL     OW 1792   1.862   2.492   2.143  0.6559  0.0959  0.0420
  598SOL    HW1 1793   1.809   2.575   2.168  0.3410  0.8541  1.1688
  598SOL    HW2 1794   1.834   2.420   2.211 -2.0200 -1.1784  0.6726
  599SOL     OW 1795   0.767   1.131   0.297  0.2782 -0.3021 -0.0508
  599SOL    HW1 1796   0.835   1.169   0.363 -0.3909 -2.0084  1.0894
  599SOL    HW2 1797   0.810   1.131   0.203  0.6869  0.4582 -0.6830
  600SOL     OW 1798   1.475   0.564   0.211 -0.0696 -0.0933  0.2217
  600SOL    HW1 1799   1.393   0.515   0.167  0.1615  1.2114  0.2400
  600SOL    HW2 1800   1.457   0.596   0.308  0.7484  2.8891  0.3463
  601SOL     OW 1801   0.540   0.326   1.267 -0.2670  0.7007 -0.0261
  601SOL    HW1 1802   0.476   0.383   1.326 -2.4383  2.2775  1.7559
  601SOL    HW2 1803   0.558   0.369   1.179 -0.2177 -0.9116  3.2389
  602SOL     OW 1804   0.336   2.173   0.774  0.0226 -0.0040 -0.1944
  602SOL    HW1 1805   0.327   2.088   0.717  0.3494 -2.9943 -1.3777
  602SOL    HW2 1806   0.328   2.256   0.713  2.0606 -2.6631  2.4126
  603SOL     OW 1807   0.829   2.730   2.533  0.1590 -0.3269 -0.4368
  603SOL    HW1 1808   0.924   2.696   2.520 -0.6089  0.2135  5.9379
  603SOL    HW2 1809   0.815   2.829   2.509 -0.2573  1.2443 -0.7918
  604SOL     OW 1810   0.407   2.271   0.343 -0.2001  0.1248 -0.7230
  604SOL    HW1 1811   0.354   2.211   0.281  3.0927  2.9825 -0.4673
  604SOL    HW2 1812   0.509   2.255   0.333  1.3180  2.9760 -1.1729
  605SOL     OW 1813   1.891   1.433   1.761 -0.0738  0.3086 -0.2732
  605SOL    HW1 1814   1.889   1.367   1.687 -0.2106  3.1716 -0.6286
  605SOL    HW2 1815   1.978   1.483   1.760 -2.4120 -1.4343 -1.5575
  606SOL     OW 1816   0.971   1.078   2.869  0.2820  0.3143  0.5191
  606SOL    HW1 1817   0.884   1.080   2.924  0.4564  0.5147 -1.1373
  606SOL    HW2 1818   1.053   1.064   2.925 -0.5211 -1.1452 -2.2398
  607SOL     OW 1819   1.213   0.979   1.198 -0.0031  0.6355  0.6008
  607SOL    HW1 1820   1.116   0.976   1.237 -0.9759  1.3038 -3.2538
  607SOL    HW2 1821   1.217   1.047   1.121  1.9727  0.9674 -0.5338
  608SOL     OW 1822   2.667   2.146   2.017  0.1513 -0.0726  0.2631
  608SOL    HW1 1823   2.682   2.104   2.111 -1.2642  1.1839 -0.2614
  608SOL    HW2 1824   2.636   2.243   2.037  1.2387 -0.7403  1.0925
  609SOL     OW 1825   2.219   3.083   0.401 -0.5939 -0.0003  0.3183
  609SOL    HW1 1826   2.242   3.050   0.306  0.2453 -1.7821 -0.2943
  609SOL    HW2 1827   2.136   3.036   0.435  3.1449 -1.9047  1.7266
  610SOL     OW 1828   0.031   2.345   1.513 -0.5562 -0.2847 -0.3878
  610SOL    HW1 1829   0.125   2.387   1.507 -1.0009  1.1229  3.7769
  610SOL    HW2 1830   3.082   2.349   1.426 -0.3874 -0.4457  1.1667
  611SOL     OW 1831   1.676   2.185   0.304 -0.0984 -0.2974 -0.7788
  611SOL    HW1 1832   1.747   2.167   0.232 -0.1445 -0.3652 -0.2999
  611SOL    HW2 1833   1.659   2.096   0.353  0.3241  1.6427  0.5146
  612SOL     OW 1834   0.721   0.185   2.024 -0.2504 -0.2973  0.5310
  612SOL    HW1 1835   0.781   0.199   1.944  3.1308  0.2528 -0.7447
  612SOL    HW2 1836   0.659   0.259   2.045  3.4587 -1.8416  1.0668
  613SOL     OW 1837   2.979   1.497   0.467  0.2794  0.1448 -0.2931
  613SOL    HW1 1838   2.937   1.447   0.547  1.0880  0.9321 -0.3420
  613SOL    HW2 1839   2.936   1.467   0.378  1.4165  0.3079  4.0938
  614SOL     OW 1840   1.848   0.595   2.062  0.1352  0.0251 -0.3062
  614SOL    HW1 1841   1.904   0.668   2.022 -1.5295  0.0735  0.6074
  614SOL    HW2 1842   1.831   0.528   1.991  3.2220  1.9312  0.4755
  615SOL     OW 1843   0.985   1.560   1.031 -0.1381  1.0054 -0.6245
  615SOL    HW1 1844   0.970   1.622   1.107  0.1381  0.1463  1.9335
  615SOL    HW2 1845   0.892   1.527   0.996 -2.4770 -1.1917  0.2922
  616SOL     OW 1846   1.607   1.777   2.984  0.3662  0.7160 -0.3050
  616SOL    HW1 1847   1.532   1.835   3.019  1.0854  0.3634  0.4498
  616SOL    HW2 1848   1.694   1.833   2.970  2.6412 -1.1541 -1.7444
  617SOL     OW 1849   2.007   2.890   0.425  0.1080  0.1780  0.9214
  617SOL    HW1 1850   2.020   2.882   0.321  0.3779 -1.0365 -1.1683
  617SOL    HW2 1851   1.977   2.794   0.449 -0.8899 -0.0101 -1.1917
  618SOL     OW 1852   0.624   0.755   2.619 -0.6260 -0.0070  0.2435
  618SOL    HW1 1853   0.604   0.844   2.663 -1.4195  1.2659 -1.3148
  618SOL    HW2 1854   0.718   0.755   2.587 -3.7042  1.3201 -0.7121
  619SOL     OW 1855   2.867   1.639   1.073 -0.5093  0.5486  0.4058
  619SOL    HW1 1856   2.865   1.643   0.972 -1.9647 -1.2203 -1.2623
  619SOL    HW2 1857   2.953   1.593   1.105  1.6135 -0.5176 -1.5383
  620SOL     OW 1858   2.126   3.053   3.061  0.5361  0.2991  0.4712
  620SOL    HW1 1859   2.202   2.997   3.025  0.5941  1.1116 -2.4044
  620SOL    HW2 1860   2.044   3.050   3.003 -2.9789 -2.1955 -0.2872
  621SOL     OW 1861   2.237   1.503   3.012  0.2824  0.1786  0.9922
  621SOL    HW1 1862   2.208   1.454   3.096 -1.0194  1.1464  3.9630
  621SOL    HW2 1863   2.304   1.446   2.967 -0.6814  2.5393  1.9619
  622SOL     OW 1864   1.733   2.908   1.980 -0.5930 -0.2308 -0.0694
  622SOL    HW1 1865   1.670   2.987   1.973  0.1064 -3.2048  3.4066
  622SOL    HW2 1866   1.827   2.940   1.970  1.2319 -0.5564  1.0447
  623SOL     OW 1867   1.242   1.787   0.449  0.2195 -0.1883  0.1005
  623SOL    HW1 1868   1.219   1.867   0.506  0.1167 -2.6216  1.5082
  623SOL    HW2 1869   1.181   1.787   0.368  1.2281  0.8685 -0.4840
  624SOL     OW 1870   0.121   2.845   0.071  0.0011 -0.0469 -0.3231
  624SOL    HW1 1871   0.203   2.831   0.018 -3.3558 -0.3526  1.1123
  624SOL    HW2 1872   0.103   2.942   0.077 -0.5496 -4.5712  0.7067
  625SOL     OW 1873   0.776   1.630   0.294 -0.0717 -0.2601  0.3934
  625SOL    HW1 1874   0.675   1.601   0.288  0.1461  1.7183  1.5962
  625SOL    HW2 1875   0.797   1.625   0.391 -1.1374  0.8035 -4.8449
  626SOL     OW 1876   2.947   2.842   0.024 -0.0837  0.0912 -0.0416
  626SOL    HW1 1877   3.043   2.802   0.034  2.5772 -0.6189 -0.3933
  626SOL    HW2 1878   2.929   2.871   3.038 -1.6981  0.2230  0.7355
  627SOL     OW 1879   1.335   1.905   2.693 -0.1150 -0.2740 -0.1973
  627SOL    HW1 1880   1.300   1.818   2.652 -3.6058  2.0318 -0.6893
  627SOL    HW2 1881   1.269   1.944   2.762 -1.4922  1.4274 -1.4877
  628SOL     OW 1882   0.260   3.091   2.816  0.0402  0.4253 -0.0644
  628SOL    HW1 1883   0.318   0.013   2.738 -1.0111 -0.6538  0.6961
  628SOL    HW2 1884   0.253   2.988   2.806 -3.2515  2.3791 -1.0941
  629SOL     OW 1885   0.471   3.092   2.342 -0.0593 -0.4044 -0.1285
  629SOL    HW1 1886   0.557   0.031   2.366 -0.0127 -2.7677  1.2493
  629SOL    HW2 1887   0.484   3.033   2.258 -0.3682 -3.5726  1.1390
  630SOL     OW 1888   1.293   1.248   1.668  0.8513  0.3138 -0.0878
  630SOL    HW1 1889   1.318   1.155   1.657 -0.0044 -0.9927  0.4398
  630SOL    HW2 1890   1.192   1.264   1.648 -1.8169 -1.0788  1.9926
  631SOL     OW 1891   2.220   0.919   0.553 -0.3547  0.2942 -0.3155
  631SOL    HW1 1892   2.180   0.892   0.645 -3.3617  0.0180  0.4274
  631SOL    HW2 1893   2.321   0.897   0.553  1.4814 -0.1778 -1.4924
  632SOL     OW 1894   2.360   0.632   2.135 -0.0525 -0.2633 -0.8941
  632SOL    HW1 1895   2.285   0.699   2.158 -0.2083  1.0394  2.0893
  632SOL    HW2 1896   2.390   0.583   2.217 -2.2312  3.8834 -1.6031
  633SOL     OW 1897   0.674   2.185   0.337  0.1819 -0.4719  1.0568
  633SOL    HW1 1898   0.675   2.252   0.260 -2.0611  1.0535 -0.9735
  633SOL    HW2 1899   0.761   2.166   0.375 -1.3028 -2.6756 -2.1616
  634SOL     OW 1900   1.687   2.518   2.551  0.2880 -0.4064 -0.6884
  634SOL    HW1 1901   1.659   2.603   2.502 -0.8712 -0.5521  1.9666
  634SOL    HW2 1902   1.609   2.475   2.603 -1.8336  0.8103  2.1791
  635SOL     OW 1903   2.069   0.370   0.192  0.2204  0.2958 -1.1183
  635SOL    HW1 1904   2.141   0.310   0.153 -0.8319  1.8198 -0.0220
  635SOL    HW2 1905   2.108   0.413   0.282 -0.5503  0.3527  2.3668
  636SOL     OW 1906   0.821   1.401   0.692  0.4329  0.6224 -0.5746
  636SOL    HW1 1907   0.741   1.361   0.643 -0.6989  1.1946 -0.4823
  636SOL    HW2 1908   0.877   1.323   0.734  2.3558 -2.0515 -2.1031
  637SOL     OW 1909   3.029   2.080   0.702 -0.1896 -0.8966 -0.2647
  637SOL    HW1 1910   3.106   2.109   0.763 -0.5455  2.0205 -0.4898
  637SOL    HW2 1911   2.941   2.082   0.749  2.1691  1.1453 -0.4223
  638SOL     OW 1912   0.922   0.053   2.806  0.5291  0.3629  0.1300
  638SOL    HW1 1913   0.870   3.095   2.866 -0.8009 -1.9578  2.9534
  638SOL    HW2 1914   1.014   0.048   2.840 -1.8682  0.6968 -1.5926
  639SOL     OW 1915   1.405   1.955   3.071  0.2817  0.1845 -0.2362
  639SOL    HW1 1916   1.402   1.890   0.043 -1.9787 -0.6644 -0.5824
  639SOL    HW2 1917   1.452   2.038   3.101  1.5983  0.7224  3.4838
  640SOL     OW 1918   1.871   2.937   0.841  0.5638 -0.3467 -0.6296
  640SOL    HW1 1919   1.960   2.933   0.790  1.8216  0.5120 -0.0355
  640SOL    HW2 1920   1.805   2.867   0.809  1.0436  0.1610  0.1841
  641SOL     OW 1921   0.056   2.813   0.614  0.8663  0.6918  0.4965
  641SOL    HW1 1922   3.066   2.795   0.593 -2.1368 -0.5170  1.5334
  641SOL    HW2 1923   0.100   2.885   0.558  1.5178 -0.8215 -3.3496
  642SOL     OW 1924   0.974   0.261   1.566  0.2989  0.3534  0.4553
  642SOL    HW1 1925   0.920   0.266   1.480 -0.9705  1.7949  2.1546
  642SOL    HW2 1926   1.054   0.322   1.551 -2.1255 -0.4247 -0.7243
  643SOL     OW 1927   0.604   2.083   1.997 -0.5623  0.1678  0.1953
  643SOL    HW1 1928   0.695   2.130   1.985  3.9322 -1.3471 -1.9033
  643SOL    HW2 1929   0.525   2.128   1.953 -2.6550  1.4225  0.1501
  644SOL     OW 1930   0.584   2.759   0.276  0.2970 -0.2197  0.5280
  644SOL    HW1 1931   0.632   2.839   0.232  0.1918  1.0504  1.9335
  644SOL    HW2 1932   0.614   2.743   0.370  0.7613  0.7142 -1.4516
  645SOL     OW 1933   1.332   2.328   3.075  0.6382  0.5677  0.3584
  645SOL    HW1 1934   1.417   2.278   0.005  0.9080  1.7339  3.1551
  645SOL    HW2 1935   1.277   2.363   0.046  1.8826  1.5190  1.6248
  646SOL     OW 1936   0.423   1.348   2.973 -0.2247 -0.1950 -0.9600
  646SOL    HW1 1937   0.352   1.358   2.901  1.6297 -3.0147 -1.9716
  646SOL    HW2 1938   0.447   1.437   3.009 -1.5907  1.0233 -1.8149
  647SOL     OW 1939   0.861   0.102   0.847  0.1068  0.0579 -0.2711
  647SOL    HW1 1940   0.796   0.084   0.775  2.7187 -2.2867  2.2812
  647SOL    HW2 1941   0.823   0.180   0.905  1.5854  2.5004  0.2802
  648SOL     OW 1942   1.955   0.343   1.709  0.0254 -0.0232 -0.2222
  648SOL    HW1 1943   1.934   0.392   1.623  1.9210 -1.8825  3.1055
  648SOL    HW2 1944   2.052   0.365   1.744  4.1051 -1.2869 -2.1321
  649SOL     OW 1945   0.921   1.877   2.600  0.1499 -0.1401  0.0117
  649SOL    HW1 1946   0.929   1.883   2.705 -2.9694 -2.1709  0.5710
  649SOL    HW2 1947   0.994   1.812   2.575 -0.6274  1.2859 -0.7441
  650SOL     OW 1948   2.813   1.677   1.662 -0.0880 -0.2419 -0.0729
  650SOL    HW1 1949   2.767   1.735   1.593 -0.7735 -0.5102  2.0282
  650SOL    HW2 1950   2.846   1.591   1.625 -1.2449  3.6302 -1.1944
  651SOL     OW 1951   1.170   2.949   0.389 -0.0748  0.0989 -0.2136
  651SOL    HW1 1952   1.161   2.890   0.306 -0.3233 -0.6937 -0.6961
  651SOL    HW2 1953   1.248   3.016   0.380  0.5701  0.6577  0.1067
  652SOL     OW 1954   2.820   1.649   0.022 -0.1584  0.0780 -0.5658
  652SOL    HW1 1955   2.739   1.596   3.095 -1.0559  1.5714 -0.5548
  652SOL    HW2 1956   2.832   1.746   3.095  1.6634  1.9791  0.8156
  653SOL     OW 1957   3.028   0.336   0.997 -0.8061 -0.4505 -0.2694
  653SOL    HW1 1958   2.936   0.337   1.039 -2.9268 -0.6621  2.1616
  653SOL    HW2 1959   3.049   0.423   0.947 -0.0222  2.8818 -3.1404
  654SOL     OW 1960   2.094   0.145   2.631 -0.4968  0.1420 -0.7101
  654SOL    HW1 1961   2.066   0.176   2.539  2.1838  1.3122 -0.4733
  654SOL    HW2 1962   2.102   0.045   2.641 -0.1043 -1.2214 -1.0328
  655SOL     OW 1963   0.460   2.553   1.027  0.7234 -0.3052 -0.2639
  655SOL    HW1 1964   0.450   2.643   1.078  2.0299  0.1707 -0.9844
  655SOL    HW2 1965   0.412   2.479   1.080 -0.5938  0.8125  2.6608
  656SOL     OW 1966   0.261   0.025   2.043  0.3202  0.2680  0.1965
  656SOL    HW1 1967   0.191   0.084   2.090  2.0784  2.3228 -2.1717
  656SOL    HW2 1968   0.244   3.036   2.054  0.8184 -1.9999  1.0733
  657SOL     OW 1969   2.364   0.588   2.631  0.0201 -0.1334 -0.4136
  657SOL    HW1 1970   2.270   0.620   2.638  2.1452 -1.0992  0.8553
  657SOL    HW2 1971   2.376   0.508   2.693  0.5497  0.1556  0.1840
  658SOL     OW 1972   2.215   1.854   1.115 -0.5380 -0.3535  0.2246
  658SOL    HW1 1973   2.231   1.916   1.038  0.9579  2.7053 -0.4130
  658SOL    HW2 1974   2.167   1.902   1.192 -2.3363  0.8229 -1.8139
  659SOL     OW 1975   2.241   0.205   0.075 -0.2598  0.4606  0.0415
  659SOL    HW1 1976   2.316   0.196   0.140 -1.4983  0.6519  0.1148
  659SOL    HW2 1977   2.205   0.115   0.041  1.4615 -0.9533 -1.7750
  660SOL     OW 1978   1.450   1.545   3.073 -0.6011 -0.0342 -0.4374
  660SOL    HW1 1979   1.519   1.586   3.011  0.6816  0.2084 -1.6198
  660SOL    HW2 1980   1.421   1.618   0.028 -0.4059 -2.4531  0.4615
  661SOL     OW 1981   2.319   2.523   0.871 -0.4358 -0.0621 -0.0418
  661SOL    HW1 1982   2.345   2.461   0.793  0.7026 -0.5284 -2.4802
  661SOL    HW2 1983   2.410   2.561   0.901  2.9178 -0.4076  0.3626
  662SOL     OW 1984   0.581   0.813   0.280  0.2208  0.3460 -0.1995
  662SOL    HW1 1985   0.656   0.759   0.248 -1.4623 -1.3640  1.4875
  662SOL    HW2 1986   0.597   0.846   0.378  0.4001  0.2034 -2.2323
  663SOL     OW 1987   1.888   2.177   2.957 -0.3223  0.5460  0.1883
  663SOL    HW1 1988   1.863   2.231   2.874  4.1088  2.6406  0.9259
  663SOL    HW2 1989   1.989   2.184   2.975  0.3121  0.3412  1.2617
  664SOL     OW 1990   0.712   2.132   1.275 -0.5431 -0.2963  0.2630
  664SOL    HW1 1991   0.682   2.220   1.311 -2.1977 -1.9972 -1.5847
  664SOL    HW2 1992   0.809   2.110   1.305 -0.6176 -1.0893  1.4993
  665SOL     OW 1993   1.765   2.224   1.954  0.0718  0.2681  0.3464
  665SOL    HW1 1994   1.845   2.267   1.902 -2.6672  0.0802 -2.7225
  665SOL    HW2 1995   1.719   2.152   1.898 -0.8166 -0.5097 -1.5443
  666SOL     OW 1996   0.389   2.546   0.232 -0.1497 -0.1102 -0.3587
  666SOL    HW1 1997   0.450   2.621   0.252 -2.0103 -3.6102  1.8774
  666SOL    HW2 1998   0.407   2.462   0.286 -0.5125  2.8612 -1.5261
  667SOL     OW 1999   2.157   1.291   2.049 -0.2065  0.0082  0.4269
  667SOL    HW1 2000   2.252   1.265   2.069 -0.9940 -0.2768  2.4204
  667SOL    HW2 2001   2.089   1.262   2.113  1.4652  1.0752 -0.9701
  668SOL     OW 2002   0.425   0.574   2.588 -0.1487  0.6484 -0.0910
  668SOL    HW1 2003   0.497   0.647   2.611  1.0905  0.9841  1.7657
  668SOL    HW2 2004   0.473   0.487   2.571  0.1339 -0.2945 -1.8430
  669SOL     OW 2005   1.616   2.169   2.619 -0.0539 -0.5132  0.7065
  669SOL    HW1 2006   1.627   2.071   2.650 -0.0999  0.4839 -3.3779
  669SOL    HW2 2007   1.580   2.161   2.523  0.1517 -1.3790 -3.7677
  670SOL     OW 2008   2.397   2.314   2.926  0.4199 -0.3289  0.3307
  670SOL    HW1 2009   2.461   2.390   2.950  0.1128  1.2419  2.9120
  670SOL    HW2 2010   2.396   2.309   2.821 -0.2916  1.3523 -1.9212
  671SOL     OW 2011   0.700   1.259   1.085  0.2925 -0.3234 -0.5661
  671SOL    HW1 2012   0.779   1.225   1.136  0.9859  1.3259 -0.1820
  671SOL    HW2 2013   0.728   1.343   1.038  1.1449  0.0137  0.7647
  672SOL     OW 2014   2.513   0.960   2.510  0.2820 -0.0231  0.0795
  672SOL    HW1 2015   2.524   0.965   2.408 -2.1664 -0.6240 -1.6171
  672SOL    HW2 2016   2.520   1.054   2.552 -2.0214 -1.3528 -3.1818
  673SOL     OW 2017   2.476   2.741   2.155 -0.0501 -0.1078  0.2065
  673SOL    HW1 2018   2.573   2.765   2.171 -2.0815 -1.0528 -1.8061
  673SOL    HW2 2019   2.446   2.743   2.059 -1.9322 -0.1125 -0.9190
  674SOL     OW 2020   1.160   2.487   2.205  0.6582 -0.2220  0.0456
  674SOL    HW1 2021   1.102   2.434   2.136  0.9082 -2.5290 -2.4327
  674SOL    HW2 2022   1.252   2.500   2.167  0.2129 -0.8484 -0.4919
  675SOL     OW 2023   0.723   0.812   1.633 -0.2772 -0.3252  0.8709
  675SOL    HW1 2024   0.812   0.767   1.606  1.6706 -2.0078  0.6916
  675SOL    HW2 2025   0.685   0.775   1.721 -0.5397  0.6046  2.4464
  676SOL     OW 2026   1.872   1.062   0.896  0.4650  0.1095  0.8743
  676SOL    HW1 2027   1.785   1.115   0.927 -1.7797  3.9116  0.6686
  676SOL    HW2 2028   1.873   1.048   0.797  2.2627 -0.2938  1.2890
  677SOL     OW 2029   2.562   1.877   2.552 -0.3429  0.0346  0.3583
  677SOL    HW1 2030   2.588   1.834   2.640  0.0679  1.0672 -0.2966
  677SOL    HW2 2031   2.561   1.822   2.461 -2.6166 -0.3666 -2.1749
  678SOL     OW 2032   2.619   2.042   0.988 -0.0878  0.6253  0.2204
  678SOL    HW1 2033   2.628   2.117   1.059 -0.1140  2.0417  1.2689
  678SOL    HW2 2034   2.562   1.965   1.024  0.1844 -0.6265  3.4604
  679SOL     OW 2035   1.655   2.782   0.671 -0.9610 -0.2921  0.3261
  679SOL    HW1 2036   1.701   2.689   0.655  0.2214 -2.4623  2.3939
  679SOL    HW2 2037   1.637   2.834   0.585  1.4154  1.9835  0.4696
  680SOL     OW 2038   0.329   2.664   2.260 -0.8809 -0.3795 -0.2523
  680SOL    HW1 2039   0.326   2.743   2.327  2.1821  2.1742  0.0264
  680SOL    HW2 2040   0.424   2.623   2.260  0.4459 -0.9784  0.4945
  681SOL     OW 2041   0.110   1.204   1.423 -0.2655 -0.0260 -0.5797
  681SOL    HW1 2042   0.137   1.227   1.523  0.1857  0.7877  1.3156
  681SOL    HW2 2043   0.030   1.145   1.414  0.8120 -0.4093  1.9838
  682SOL     OW 2044   0.364   1.929   1.170 -0.2176 -0.3561 -0.3594
  682SOL    HW1 2045   0.315   1.964   1.251  1.8119  1.0082 -0.9818
  682SOL    HW2 2046   0.460   1.906   1.195 -1.9859 -1.6750 -0.4111
  683SOL     OW 2047   2.371   1.403   1.334 -0.7889  0.6244  0.0758
  683SOL    HW1 2048   2.389   1.439   1.241 -1.3816 -0.0093  2.8774
  683SOL    HW2 2049   2.409   1.469   1.400  0.5378  0.7314  2.6152
  684SOL     OW 2050   2.560   1.533   0.019  0.3549 -0.3260  0.1537
  684SOL    HW1 2051   2.570   1.483   3.041 -1.0999  1.5971 -0.2616
  684SOL    HW2 2052   2.538   1.470   0.101  0.2050  0.3302  0.5497
  685SOL     OW 2053   1.546   1.255   0.001 -0.3409 -0.2583  0.5594
  685SOL    HW1 2054   1.498   1.346   3.090 -0.9002 -1.1379  1.2157
  685SOL    HW2 2055   1.636   1.263   3.066 -2.0462 -0.5153  0.3411
  686SOL     OW 2056   0.166   0.300   1.160 -0.0979 -0.4709 -0.1853
  686SOL    HW1 2057   0.190   0.266   1.252 -0.5132  0.7370 -3.3124
  686SOL    HW2 2058   0.078   0.270   1.125  4.2183  0.9686 -0.9287
  687SOL     OW 2059   1.027   2.038   2.372  0.3629  0.1353 -0.0462
  687SOL    HW1 2060   0.996   2.004   2.283  0.6541 -1.9650  1.0991
  687SOL    HW2 2061   1.018   1.970   2.449  2.7225 -3.1731  0.9683
  688SOL     OW 2062   0.148   1.792   1.112  0.0821  0.8041 -0.3978
  688SOL    HW1 2063   0.230   1.853   1.120 -0.6212 -2.8308 -0.3130
  688SOL    HW2 2064   0.152   1.740   1.020 -0.0410 -0.6264  0.3759
  689SOL     OW 2065   1.590   0.828   1.559  0.3033  0.0931 -0.1147
  689SOL    HW1 2066   1.600   0.930   1.543 -1.6232  2.8330 -1.3723
  689SOL    HW2 2067   1.654   0.765   1.510 -1.2721 -1.0451 -0.2376
  690SOL     OW 2068   2.578   1.057   1.050 -0.1506  0.4686  0.3667
  690SOL    HW1 2069   2.521   0.994   0.992  1.6278 -0.6413 -0.1479
  690SOL    HW2 2070   2.661   1.013   1.090  2.0115 -0.5749  1.2901
  691SOL     OW 2071   0.361   2.200   1.902  0.4347  0.2948 -0.6036
  691SOL    HW1 2072   0.348   2.300   1.930 -1.6909  0.4393  1.2166
  691SOL    HW2 2073   0.316   2.137   1.970 -0.7775 -4.6760 -2.2046
  692SOL     OW 2074   1.931   2.981   1.118 -0.2611  0.1990 -0.2454
  692SOL    HW1 2075   1.904   2.990   1.023 -0.2777 -1.5062  0.3501
  692SOL    HW2 2076   1.960   2.884   1.140 -2.1529 -3.4944 -0.2124
  693SOL     OW 2077   0.231   1.463   2.354  0.0627 -0.7597  0.3983
  693SOL    HW1 2078   0.286   1.549   2.352  0.2509 -0.3832 -2.3743
  693SOL    HW2 2079   0.144   1.475   2.304  1.4466 -0.5282 -0.7256
  694SOL     OW 2080   2.252   0.716   1.044  0.3881 -0.1277  0.1857
  694SOL    HW1 2081   2.331   0.689   1.102 -0.3547 -0.4607  0.4473
  694SOL    HW2 2082   2.183   0.755   1.107  0.2888 -0.4291  0.0972
  695SOL     OW 2083   1.042   1.305   1.606 -0.1140 -0.6089 -0.0614
  695SOL    HW1 2084   0.970   1.229   1.600 -4.6050  0.5937  0.1588
  695SOL    HW2 2085   1.081   1.336   1.516  2.6971  1.5479  1.2645
  696SOL     OW 2086   1.279   3.039   0.021  0.0443  0.3188 -0.0488
  696SOL    HW1 2087   1.222   2.965   0.057  1.7622  0.9100  0.4043
  696SOL    HW2 2088   1.374   3.036   0.054 -1.7199 -0.6562 -1.1848
  697SOL     OW 2089   0.977   0.329   1.147 -0.7785  1.0153 -0.6142
  697SOL    HW1 2090   0.913   0.339   1.065  1.3047  1.6571  1.0776
  697SOL    HW2 2091   1.026   0.239   1.136 -0.8965  0.0235 -2.7917
  698SOL     OW 2092   1.152   1.514   1.997  0.3058 -0.0361  0.6303
  698SOL    HW1 2093   1.145   1.413   1.969  0.6073  0.4910  0.1485
  698SOL    HW2 2094   1.119   1.527   2.091  0.6484  0.7434 -2.0830
  699SOL     OW 2095   1.417   0.804   1.087  0.3340 -0.4822 -0.3455
  699SOL    HW1 2096   1.330   0.839   1.132  1.8478 -1.1699 -0.3868
  699SOL    HW2 2097   1.399   0.788   0.986 -0.6225 -0.1126 -0.6678
  700SOL     OW 2098   1.063   2.745   0.513  0.0918 -0.6298  0.0899
  700SOL    HW1 2099   1.097   2.839   0.488 -1.3042 -0.9677 -0.8752
  700SOL    HW2 2100   1.143   2.682   0.510 -0.9136  0.8319 -1.3106
  701SOL     OW 2101   2.443   3.012   2.647 -0.5683 -0.3855  0.0201
  701SOL    HW1 2102   2.479   2.927   2.603 -2.5881 -1.5815 -4.7123
  701SOL    HW2 2103   2.477   3.094   2.595  0.5765  0.8548 -3.8081
  702SOL     OW 2104   1.172   0.183   0.240 -0.3591  0.3882 -0.2528
  702SOL    HW1 2105   1.218   0.117   0.302 -0.4774 -0.8448 -1.5790
  702SOL    HW2 2106   1.163   0.269   0.289  2.3099 -0.7064  0.2015
  703SOL     OW 2107   2.495   0.150   2.531  0.4837 -0.0786 -0.1184
  703SOL    HW1 2108   2.457   0.172   2.440 -0.0506  0.1630 -0.5041
  703SOL    HW2 2109   2.433   0.191   2.602 -0.8091  0.1904 -1.1990
  704SOL     OW 2110   3.034   1.814   0.711 -0.3346  0.2076  0.5675
  704SOL    HW1 2111   3.067   1.791   0.618 -2.2227  0.4508  2.2390
  704SOL    HW2 2112   3.020   1.913   0.722 -2.5741 -2.1348 -1.3015
  705SOL     OW 2113   2.996   3.078   2.244 -0.4588  0.0988  0.2225
  705SOL    HW1 2114   2.983   0.071   2.229  0.7468  1.1226 -0.0788
  705SOL    HW2 2115   3.064   3.066   2.317 -0.9568 -1.6797  0.8549
  706SOL     OW 2116   2.033   2.522   0.733  0.0383  0.0498  0.8536
  706SOL    HW1 2117   2.101   2.592   0.705  0.2192 -2.3315  0.2487
  706SOL    HW2 2118   2.049   2.438   0.679  1.3813  0.4687  4.2542
  707SOL     OW 2119   0.974   2.056   1.360  0.3879  0.0626 -0.0163
  707SOL    HW1 2120   1.011   2.006   1.443 -0.7248 -1.1817  0.0409
  707SOL    HW2 2121   1.028   2.030   1.278  0.5892  0.5626  1.2121
  708SOL     OW 2122   3.041   2.215   1.727  0.0355 -0.2339  0.3706
  708SOL    HW1 2123   3.085   2.275   1.652 -0.1946 -2.9179 -2.6180
  708SOL    HW2 2124   3.085   2.125   1.732 -1.8521 -0.0378 -1.1983
  709SOL     OW 2125   2.178   0.038   2.021  0.6454  0.0263  0.2726
  709SOL    HW1 2126   2.162   0.049   2.124  0.3871 -0.5607  3.1984
  709SOL    HW2 2127   2.269   0.062   1.985  3.0244  1.1059  0.0207
  710SOL     OW 2128   2.040   0.912   2.816  0.3756  0.1086 -0.1014
  710SOL    HW1 2129   2.076   0.891   2.908 -0.8689  1.4150 -0.8983
  710SOL    HW2 2130   2.115   0.921   2.747  1.7745  0.4585 -1.1180
  711SOL     OW 2131   0.970   2.188   3.065 -0.3077  0.3800 -0.0126
  711SOL    HW1 2132   0.963   2.285   3.100  0.0139  0.7765  0.4283
  711SOL    HW2 2133   0.947   2.187   2.966 -0.4863 -1.1475  3.1711
  712SOL     OW 2134   0.618   2.373   2.456  0.0197  0.6024 -0.8214
  712SOL    HW1 2135   0.701   2.333   2.417  2.5957 -0.0899 -0.3806
  712SOL    HW2 2136   0.530   2.315   2.464 -2.7504 -0.7909 -0.7641
  713SOL     OW 2137   1.800   1.295   3.015 -0.1121 -0.1013 -0.1856
  713SOL    HW1 2138   1.783   1.391   2.988 -2.2657 -0.2137  0.4301
  713SOL    HW2 2139   1.844   1.291   0.000 -0.7425  1.4932  0.7947
  714SOL     OW 2140   1.149   1.701   1.371  0.5104 -0.5073  0.0095
  714SOL    HW1 2141   1.241   1.733   1.349  1.1868 -2.7392 -0.5495
  714SOL    HW2 2142   1.129   1.712   1.470  0.5463  0.4438 -1.5135
  715SOL     OW 2143   1.660   0.258   0.101 -0.2147 -0.4377  0.5925
  715SOL    HW1 2144   1.727   0.309   0.037  2.0255  1.6960 -1.3298
  715SOL    HW2 2145   1.693   0.244   0.195  2.7366  1.1342 -1.5596
  716SOL     OW 2146   0.232   2.876   2.110  0.1107  0.4048  0.5161
  716SOL    HW1 2147   0.144   2.844   2.068 -1.6851 -0.9444 -0.6433
  716SOL    HW2 2148   0.270   2.797   2.170 -0.2706  0.9683 -0.3832
  717SOL     OW 2149   3.083   0.708   1.046 -0.5735 -0.2345  0.4492
  717SOL    HW1 2150   3.086   0.803   1.087 -1.6880  0.9122 -1.3773
  717SOL    HW2 2151   3.039   0.642   1.105 -0.0825  4.5002  0.0207
  718SOL     OW 2152   0.732   1.343   2.395  0.1473 -0.1792  0.1624
  718SOL    HW1 2153   0.713   1.405   2.471  0.2394  2.1560  2.1330
  718SOL    HW2 2154   0.671   1.359   2.313 -0.5921 -0.8654  0.7636
  719SOL     OW 2155   2.407   1.217   0.029  0.2251  0.3947 -0.2087
  719SOL    HW1 2156   2.318   1.217   3.096  0.3206 -5.3367 -0.9865
  719SOL    HW2 2157   2.475   1.197   3.067 -0.7036 -0.0850  4.3630
  720SOL     OW 2158   0.919   0.879   1.035  0.4885 -0.0169 -0.0053
  720SOL    HW1 2159   0.910   0.952   1.106 -0.2535  0.4856  1.7729
  720SOL    HW2 2160   0.941   0.791   1.078  1.6162  1.0718  0.4746
  721SOL     OW 2161   2.642   0.259   0.428 -0.1938  0.1209 -0.6483
  721SOL    HW1 2162   2.666   0.270   0.329  0.6490  1.1556 -0.6817
  721SOL    HW2 2163   2.677   0.169   0.458 -0.1972  0.8003  0.1404
  722SOL     OW 2164   2.117   0.577   2.895  0.2121  0.5070 -0.6863
  722SOL    HW1 2165   2.173   0.492   2.887 -0.2082 -1.5664 -0.7144
  722SOL    HW2 2166   2.094   0.620   2.802 -0.3541 -1.4434 -1.8203
  723SOL     OW 2167   2.554   0.386   0.662  0.0781  0.3125  0.1243
  723SOL    HW1 2168   2.600   0.344   0.580  1.3763 -0.4341 -2.3342
  723SOL    HW2 2169   2.519   0.310   0.718 -0.8352 -1.9374 -0.3111
  724SOL     OW 2170   0.696   1.594   1.812 -0.2751 -0.2154  0.0574
  724SOL    HW1 2171   0.717   1.541   1.893  3.8737  2.6680 -2.5952
  724SOL    HW2 2172   0.744   1.551   1.728  2.0351  1.2884  0.2155
  725SOL     OW 2173   1.885   0.430   1.458 -0.1396  0.5232 -0.1421
  725SOL    HW1 2174   1.858   0.529   1.467 -0.2729 -0.2417 -2.7499
  725SOL    HW2 2175   1.921   0.402   1.363  1.2114  0.6595 -0.6831
  726SOL     OW 2176   1.911   2.650   0.502  0.7138 -0.1000 -0.5174
  726SOL    HW1 2177   1.898   2.586   0.580  0.1139  0.5465 -0.0382
  726SOL    HW2 2178   1.871   2.611   0.420  2.7076  4.0575  0.8811
  727SOL     OW 2179   1.841   1.767   2.191 -0.3054 -0.3514 -0.2921
  727SOL    HW1 2180   1.926   1.798   2.228 -2.2283 -0.7193 -0.8673
  727SOL    HW2 2181   1.816   1.675   2.227 -0.5216 -0.0049  0.7464
  728SOL     OW 2182   2.060   2.951   1.686  0.1890  0.4798 -0.1973
  728SOL    HW1 2183   2.024   3.020   1.625  1.0703 -0.6042  1.5345
  728SOL    HW2 2184   2.048   2.859   1.661  2.1005  0.6552  3.5797
  729SOL     OW 2185   2.366   1.281   0.814  0.5888  0.0493 -0.2093
  729SOL    HW1 2186   2.288   1.222   0.839 -1.5599  2.0167  0.0159
  729SOL    HW2 2187   2.374   1.276   0.712  1.6797 -0.2188  0.9459
  730SOL     OW 2188   0.446   1.101   2.476  0.1528  0.2328  0.6732
  730SOL    HW1 2189   0.391   1.174   2.520 -0.5383 -1.4217  2.4145
  730SOL    HW2 2190   0.504   1.142   2.407  0.8672  0.4355  0.9396
  731SOL     OW 2191   0.002   0.102   0.887 -0.1733 -0.6664  0.3324
  731SOL    HW1 2192   0.062   0.046   0.941 -0.9121 -1.1064 -2.6937
  731SOL    HW2 2193   3.076   0.194   0.924 -1.1008 -2.7593 -0.4783
  732SOL     OW 2194   1.514   0.877   0.277  0.1061 -0.6736  0.5921
  732SOL    HW1 2195   1.423   0.884   0.319  0.0580  2.4673  0.6765
  732SOL    HW2 2196   1.544   0.781   0.261 -1.6584 -0.7136 -1.2619
  733SOL     OW 2197   0.564   1.686   0.848 -0.0448  0.7354  0.3370
  733SOL    HW1 2198   0.615   1.768   0.858  1.8062  2.0143 -1.1099
  733SOL    HW2 2199   0.496   1.690   0.769 -0.6729  1.1462 -1.8836
  734SOL     OW 2200   0.074   2.457   0.432  0.6701 -0.1703 -0.0335
  734SOL    HW1 2201   0.093   2.520   0.354 -0.0309  2.2958  3.4051
  734SOL    HW2 2202   3.107   2.493   0.489  0.1501  0.6878 -0.7516
  735SOL     OW 2203   1.277   0.355   0.998 -0.0375  0.0656  0.2311
  735SOL    HW1 2204   1.246   0.282   1.056  0.6170 -1.0594 -1.1618
  735SOL    HW2 2205   1.367   0.394   1.032  3.2814 -1.1282  2.1622
  736SOL     OW 2206   2.125   2.468   3.061  0.0840  0.3894 -0.1219
  736SOL    HW1 2207   2.160   2.527   2.986 -1.8092  0.4424 -3.1400
  736SOL    HW2 2208   2.092   2.375   3.024 -0.0196 -1.9669  0.2203
  737SOL     OW 2209   0.308   0.860   0.800 -0.3417  0.1295  0.0437
  737SOL    HW1 2210   0.265   0.938   0.847 -1.4212 -0.4804 -0.0809
  737SOL    HW2 2211   0.307   0.876   0.698  0.3520  2.0588 -1.2652
  738SOL     OW 2212   2.745   3.007   1.568  0.0140 -0.0832 -0.8004
  738SOL    HW1 2213   2.731   2.985   1.667 -0.0584 -0.9193 -0.8392
  738SOL    HW2 2214   2.846   2.994   1.554  1.0417  1.1666 -1.2513
  739SOL     OW 2215   1.403   2.544   2.904  0.5020  0.4076 -0.4921
  739SOL    HW1 2216   1.432   2.507   2.815  0.5010 -0.3093 -0.6080
  739SOL    HW2 2217   1.368   2.470   2.965  0.5919 -1.4394  1.2309
  740SOL     OW 2218   1.528   0.373   1.101  0.3619  0.4129 -0.5259
  740SOL    HW1 2219   1.555   0.300   1.166 -1.4950 -0.7169 -1.1168
  740SOL    HW2 2220   1.573   0.357   1.012  1.1587 -0.4051 -2.2452
  741SOL     OW 2221   2.854   0.902   0.887  0.1310  0.0059  0.0402
  741SOL    HW1 2222   2.787   0.827   0.880 -0.7961  1.7280 -2.7940
  741SOL    HW2 2223   2.922   0.901   0.811 -0.6783  1.5895 -0.7722
  742SOL     OW 2224   0.582   1.510   2.571 -0.0323  0.5465 -0.2473
  742SOL    HW1 2225   0.639   1.506   2.657  1.8065  0.4101 -3.2617
  742SOL    HW2 2226   0.578   1.604   2.532  1.3819 -1.0248 -3.8646
  743SOL     OW 2227   1.442   0.605   2.167 -0.3523 -0.1648  0.3674
  743SOL    HW1 2228   1.377   0.631   2.094 -0.9957 -2.6020  2.3933
  743SOL    HW2 2229   1.480   0.510   2.156 -0.5398 -0.8494  0.6002
  744SOL     OW 2230   2.170   0.870   1.510 -0.7324  0.4207  0.7429
  744SOL    HW1 2231   2.266   0.907   1.519  0.8409 -2.6506 -1.3260
  744SOL    HW2 2232   2.103   0.922   1.567  0.2138 -3.3759  0.2337
  745SOL     OW 2233   1.453   1.538   1.537  0.5683  0.2929 -0.0612
  745SOL    HW1 2234   1.451   1.511   1.437 -1.0521 -0.9857 -0.5151
  745SOL    HW2 2235   1.418   1.453   1.586 -0.0108  1.9498  0.1556
  746SOL     OW 2236   2.064   1.676   0.980  0.2441  0.3271 -0.2727
  746SOL    HW1 2237   2.139   1.737   1.012  0.1758 -1.6097 -1.0087
  746SOL    HW2 2238   2.087   1.635   0.890  0.1289 -0.1759  1.8659
  747SOL     OW 2239   2.334   1.492   1.089  0.3517 -0.1774 -0.7049
  747SOL    HW1 2240   2.373   1.577   1.056  0.6014 -1.1028  1.8439
  747SOL    HW2 2241   2.305   1.435   1.010  1.4243  1.0881 -0.4904
  748SOL     OW 2242   0.631   2.054   0.768 -0.3421 -0.0685 -0.0514
  748SOL    HW1 2243   0.638   2.128   0.698  1.0968  2.3379  2.1390
  748SOL    HW2 2244   0.684   2.075   0.856 -1.2653 -1.4880 -1.5425
  749SOL     OW 2245   2.204   2.863   2.277 -0.4381 -0.1595  0.2401
  749SOL    HW1 2246   2.163   2.797   2.214  1.1196  2.0921  1.6481
  749SOL    HW2 2247   2.303   2.868   2.259  3.4821 -1.8335  2.0433
  750SOL     OW 2248   2.396   0.489   0.887  0.0640 -0.0778  0.1612
  750SOL    HW1 2249   2.444   0.452   0.802 -0.6819 -1.6136 -1.3785
  750SOL    HW2 2250   2.295   0.512   0.868 -3.0106 -1.2386 -0.3235
  751SOL     OW 2251   2.607   2.671   0.408 -0.0170  0.0202 -0.5219
  751SOL    HW1 2252   2.669   2.670   0.325  1.8084 -0.2841  0.2945
  751SOL    HW2 2253   2.526   2.731   0.397  1.0145 -1.0930  2.6319
  752SOL     OW 2254   3.032   2.853   0.841  0.0796  0.2820 -0.5256
  752SOL    HW1 2255   3.081   2.819   0.760  1.8071 -0.9238  0.3377
  752SOL    HW2 2256   3.053   2.950   0.845 -1.9706 -0.1644  1.0744
  753SOL     OW 2257   1.724   0.955   2.265  0.1155  0.2413 -0.2928
  753SOL    HW1 2258   1.684   0.962   2.170 -1.7280  0.4408  0.4443
  753SOL    HW2 2259   1.649   0.951   2.334 -1.8067 -0.0147  1.0058
  754SOL     OW 2260   1.651   2.018   1.819  0.0781 -0.4966 -0.2072
  754SOL    HW1 2261   1.639   2.041   1.721 -0.5131 -1.5466  1.8402
  754SOL    HW2 2262   1.721   1.947   1.833 -0.7967 -1.3337 -3.2234
  755SOL     OW 2263   2.677   0.721   0.930  0.8478  0.3579 -0.4444
  755SOL    HW1 2264   2.647   0.649   0.998 -1.3217  0.0971  1.0340
  755SOL    HW2 2265   2.601   0.789   0.920 -0.0378 -0.3221 -1.5872
  756SOL     OW 2266   0.753   1.475   2.815 -0.4279 -0.5455  0.4821
  756SOL    HW1 2267   0.855   1.476   2.826  2.5436 -1.0130  1.9678
  756SOL    HW2 2268   0.709   1.552   2.870 -0.7532  1.4437  0.1119
  757SOL     OW 2269   1.231   2.821   0.748 -0.3403 -0.3175  0.8113
  757SOL    HW1 2270   1.154   2.879   0.781  1.3230  0.3740 -0.9283
  757SOL    HW2 2271   1.312   2.877   0.733 -1.4805 -3.0646  0.9089
  758SOL     OW 2272   1.106   2.846   1.342 -0.5678  0.2686 -0.0772
  758SOL    HW1 2273   1.046   2.891   1.280  0.9283 -3.0073  4.4261
  758SOL    HW2 2274   1.080   2.849   1.444  3.5758 -1.4473  2.3241
  759SOL     OW 2275   0.240   0.605   0.484  0.2065  0.1099  0.1128
  759SOL    HW1 2276   0.233   0.559   0.570  1.2005  1.2083 -3.3540
  759SOL    HW2 2277   0.149   0.633   0.461  1.1400  0.5641  0.1452
  760SOL     OW 2278   2.468   1.126   1.283 -0.1748 -0.7109 -0.4714
  760SOL    HW1 2279   2.523   1.112   1.198  0.7169 -0.2626  2.1517
  760SOL    HW2 2280   2.446   1.230   1.291  0.5700  0.9069 -0.7954
  761SOL     OW 2281   1.744   0.459   0.864  0.2047  0.4800 -0.6193
  761SOL    HW1 2282   1.669   0.390   0.872  2.0667 -0.4226  0.9637
  761SOL    HW2 2283   1.828   0.405   0.895  1.7791  0.9613  1.3351
  762SOL     OW 2284   2.327   1.971   0.395 -0.4748 -0.7030 -0.4146
  762SOL    HW1 2285   2.393   1.904   0.359  0.8410 -0.0642  1.8010
  762SOL    HW2 2286   2.374   2.058   0.409 -3.6898 -2.4921  0.7538
  763SOL     OW 2287   0.801   1.510   1.316  0.8741  0.3976 -0.4324
  763SOL    HW1 2288   0.703   1.507   1.286 -0.0343  1.5210  0.0506
  763SOL    HW2 2289   0.841   1.600   1.284 -1.9781  0.4742 -0.7407
  764SOL     OW 2290   2.627   2.152   2.473 -0.4145  0.3051  0.1700
  764SOL    HW1 2291   2.592   2.165   2.377  0.0599  1.9793 -3.2169
  764SOL    HW2 2292   2.634   2.050   2.493 -1.2715 -3.1899  2.5320
  765SOL     OW 2293   0.725   2.481   1.059 -0.3196 -0.3167  0.1649
  765SOL    HW1 2294   0.771   2.563   1.031 -3.7699 -3.0124  2.8474
  765SOL    HW2 2295   0.623   2.499   1.050 -2.5648  2.6224 -1.4212
  766SOL     OW 2296   2.967   1.968   2.377  0.4534  0.0950 -0.0113
  766SOL    HW1 2297   3.039   1.940   2.312 -1.1478  2.9900  2.0232
  766SOL    HW2 2298   2.988   2.060   2.420 -1.0057 -2.7455 -1.2319
  767SOL     OW 2299   2.278   0.938   2.686 -0.0196  0.0301 -0.0659
  767SOL    HW1 2300   2.342   0.944   2.609  2.8115 -0.7647 -1.1689
  767SOL    HW2 2301   2.312   0.872   2.751  1.6608  0.0765 -2.2541
  768SOL     OW 2302   1.278   0.247   2.544  0.2953 -0.4146  0.0381
  768SOL    HW1 2303   1.252   0.346   2.556  1.6018  2.5268  1.9212
  768SOL    HW2 2304   1.205   0.187   2.583  0.3437  1.2759  0.5857
  769SOL     OW 2305   0.083   2.413   1.064 -0.6733  0.3509 -0.5531
  769SOL    HW1 2306   0.093   2.456   0.970 -0.1151 -0.8066  1.3582
  769SOL    HW2 2307   0.171   2.405   1.114  2.1992  1.1517 -1.9705
  770SOL     OW 2308   0.642   0.464   0.175 -0.2703 -0.7719  0.7179
  770SOL    HW1 2309   0.623   0.491   0.078 -0.3619  2.3520  0.0823
  770SOL    HW2 2310   0.564   0.476   0.238  0.5715  3.8409  0.4693
  771SOL     OW 2311   1.275   1.651   2.580  0.0062  0.2894  0.0629
  771SOL    HW1 2312   1.204   1.677   2.511 -0.0905  1.5499  0.9167
  771SOL    HW2 2313   1.308   1.561   2.546 -1.4640 -0.5332 -0.5217
  772SOL     OW 2314   2.152   0.018   2.298  0.2354  0.6288 -0.6059
  772SOL    HW1 2315   2.156   3.019   2.302  0.4073 -1.8862  1.9778
  772SOL    HW2 2316   2.077   0.051   2.354  0.9262 -1.2321 -1.0114
  773SOL     OW 2317   1.454   0.844   1.814 -0.0632 -0.0104  0.4269
  773SOL    HW1 2318   1.498   0.871   1.724  0.3786 -2.0793  1.7563
  773SOL    HW2 2319   1.498   0.761   1.852 -1.7852 -2.2981  0.2127
  774SOL     OW 2320   1.314   0.602   1.394  0.0442 -0.4999 -0.3954
  774SOL    HW1 2321   1.395   0.624   1.335 -3.0002 -0.4674 -0.6504
  774SOL    HW2 2322   1.343   0.623   1.485  0.4331 -0.1155 -3.6365
  775SOL     OW 2323   2.030   2.905   0.159  0.2476  0.3992 -0.5317
  775SOL    HW1 2324   2.024   2.818   0.105  0.8217 -0.2327  1.2443
  775SOL    HW2 2325   2.074   2.977   0.100  2.1649  1.3712  0.5928
  776SOL     OW 2326   1.969   1.013   1.637  0.5689 -0.3878  0.0685
  776SOL    HW1 2327   1.892   0.978   1.692 -1.2950  0.0571  0.4418
  776SOL    HW2 2328   2.018   1.081   1.691 -0.8949  2.4852 -0.3487
  777SOL     OW 2329   0.004   1.450   2.204  0.1769  0.7727 -0.3538
  777SOL    HW1 2330   3.086   1.371   2.145 -0.5932  0.4441  2.8814
  777SOL    HW2 2331   0.029   1.524   2.141  0.6445 -0.5886  0.2060
  778SOL     OW 2332   2.601   1.204   2.625 -0.3160  0.4214 -0.0289
  778SOL    HW1 2333   2.667   1.143   2.675 -0.9268 -0.1214  1.0061
  778SOL    HW2 2334   2.653   1.271   2.565  2.0491  0.1016  2.5971
  779SOL     OW 2335   2.877   0.481   3.088  0.1756  0.1177 -0.6972
  779SOL    HW1 2336   2.972   0.449   3.085  0.1068  1.2206  1.1985
  779SOL    HW2 2337   2.852   0.497   0.080 -0.0787  1.1903  2.2526
  780SOL     OW 2338   2.378   2.588   2.384 -0.6582 -0.1738  0.1915
  780SOL    HW1 2339   2.405   2.622   2.292  0.6462 -0.1904 -1.3255
  780SOL    HW2 2340   2.329   2.499   2.382 -3.5187 -0.8574  1.9855
  781SOL     OW 2341   0.018   1.006   2.018  0.1105  0.1615  0.0651
  781SOL    HW1 2342   3.056   0.944   2.047  3.5075  1.0733  1.4946
  781SOL    HW2 2343   0.036   0.996   1.916 -0.7945  2.0390 -1.0624
  782SOL     OW 2344   1.469   2.398   2.669  0.2343  0.1047  0.9262
  782SOL    HW1 2345   1.517   2.305   2.673 -1.8892 -1.0512 -0.9771
  782SOL    HW2 2346   1.409   2.392   2.589 -1.4780  0.0127  0.9704
  783SOL     OW 2347   0.910   2.327   0.946 -0.0920 -0.3191 -0.1865
  783SOL    HW1 2348   1.001   2.311   0.995  1.8348  0.9437 -0.6607
  783SOL    HW2 2349   0.849   2.385   0.998 -0.2087 -1.7968 -0.3111
  784SOL     OW 2350   1.985   0.461   2.412 -0.2641 -0.2588  0.1312
  784SOL    HW1 2351   1.882   0.469   2.418  1.2750 -0.8053  0.5484
  784SOL    HW2 2352   2.016   0.439   2.320 -3.8909  1.2609 -0.8274
  785SOL     OW 2353   0.200   0.192   1.416  0.7009  0.4392 -0.5002
  785SOL    HW1 2354   0.168   0.094   1.432 -2.4185 -3.0264  1.2653
  785SOL    HW2 2355   0.254   0.220   1.497  0.1095 -1.2343 -1.0322
  786SOL     OW 2356   1.187   2.379   0.201  0.6987  0.8677 -0.2534
  786SOL    HW1 2357   1.166   2.305   0.271 -1.0389 -2.3305  1.8782
  786SOL    HW2 2358   1.212   2.469   0.238 -0.8827 -1.6449 -2.2792
  787SOL     OW 2359   1.112   0.220   0.816 -0.2865 -0.4109 -0.3005
  787SOL    HW1 2360   1.011   0.205   0.846 -1.6168 -4.8126  3.0020
  787SOL    HW2 2361   1.162   0.268   0.892 -0.2906  2.7482  2.8788
  788SOL     OW 2362   0.349   1.150   1.345  0.8208  0.1976 -0.3271
  788SOL    HW1 2363   0.395   1.186   1.429  0.3409  0.9809  0.8597
  788SOL    HW2 2364   0.255   1.194   1.346  1.3090 -0.9967 -0.8420
  789SOL     OW 2365   2.562   0.984   2.229  0.0560  0.3152 -0.4403
  789SOL    HW1 2366   2.543   0.933   2.140  1.7129 -1.6934 -1.2574
  789SOL    HW2 2367   2.648   1.042   2.222  2.7885  0.2769  0.7259
  790SOL     OW 2368   1.242   0.710   2.783 -0.7989  0.6405 -0.0719
  790SOL    HW1 2369   1.171   0.766   2.729 -1.7419  0.8455 -3.7310
  790SOL    HW2 2370   1.251   0.726   2.881 -1.3091 -1.1217  0.2592
  791SOL     OW 2371   0.131   2.595   0.202 -0.5874  0.0357  0.0378
  791SOL    HW1 2372   0.117   2.681   0.152  0.2310 -1.7586  1.9103
  791SOL    HW2 2373   0.232   2.585   0.201 -0.8687 -0.3409 -0.1200
  792SOL     OW 2374   1.255   0.850   1.994 -0.5585 -0.1786  0.0483
  792SOL    HW1 2375   1.330   0.845   1.920  3.5825  0.2529 -4.4347
  792SOL    HW2 2376   1.236   0.748   2.015 -0.4997 -1.6424  3.4480
  793SOL     OW 2377   2.774   0.350   1.138  0.4349  0.2728 -0.0078
  793SOL    HW1 2378   2.828   0.262   1.153 -0.2080 -1.5870 -0.1226
  793SOL    HW2 2379   2.715   0.370   1.219 -2.2006 -0.8523  0.4048
  794SOL     OW 2380   2.862   0.347   2.458  0.0936 -0.1939  0.5971
  794SOL    HW1 2381   2.786   0.397   2.405 -3.6770 -0.9142 -1.5797
  794SOL    HW2 2382   2.949   0.398   2.455  0.9779 -1.7092  1.1262
  795SOL     OW 2383   0.464   1.598   3.105  0.0493  0.2829 -0.3738
  795SOL    HW1 2384   0.458   1.590   0.099 -1.1970 -0.8970  0.1090
  795SOL    HW2 2385   0.370   1.621   3.076  0.7466  2.8718  0.5406
  796SOL     OW 2386   2.818   0.778   3.081  0.2310  0.7294  0.7356
  796SOL    HW1 2387   2.830   0.677   3.076  3.0657 -1.3016 -0.4631
  796SOL    HW2 2388   2.887   0.821   3.020 -0.0862 -0.7310  1.5831
  797SOL     OW 2389   2.181   2.757   2.531 -0.3125  0.7000 -0.0621
  797SOL    HW1 2390   2.240   2.680   2.512  0.7315  0.5013  2.0718
  797SOL    HW2 2391   2.174   2.820   2.454  1.1277  0.6991  0.7485
  798SOL     OW 2392   3.044   3.010   1.174 -0.5732 -0.3918 -0.0468
  798SOL    HW1 2393   3.050   2.925   1.116 -0.6523  1.3788 -2.8401
  798SOL    HW2 2394   0.014   3.016   1.238  2.1818 -1.9262 -1.1944
  799SOL     OW 2395   2.923   0.870   1.616 -0.7720 -0.0554 -0.5653
  799SOL    HW1 2396   2.890   0.799   1.552 -4.4088  1.3547 -0.3367
  799SOL    HW2 2397   2.847   0.880   1.684 -0.2798  1.9691 -1.6953
  800SOL     OW 2398   0.506   1.562   0.269  0.2925  0.1720 -0.4209
  800SOL    HW1 2399   0.506   1.458   0.282  2.8108  1.1047  0.1939
  800SOL    HW2 2400   0.430   1.599   0.322  0.8003  0.6602 -0.9655
  801SOL     OW 2401   1.925   1.911   0.411 -0.4402  0.2913  0.4990
  801SOL    HW1 2402   1.990   1.921   0.338 -0.3041 -1.5166  0.5379
  801SOL    HW2 2403   1.826   1.895   0.385  0.4698 -1.6694  0.4460
  802SOL     OW 2404   1.297   1.254   2.675 -0.1633  0.0196  0.0621
  802SOL    HW1 2405   1.354   1.300   2.603  0.1637  0.6093  2.6404
  802SOL    HW2 2406   1.343   1.170   2.704  0.6570  3.4533 -2.9407
  803SOL     OW 2407   1.110   1.762   1.663  0.3821 -0.5751  0.0355
  803SOL    HW1 2408   1.108   1.865   1.649  2.5437  1.7407  1.5177
  803SOL    HW2 2409   1.050   1.731   1.739 -3.6992 -2.2510  0.5651
  804SOL     OW 2410   1.714   2.489   0.660  0.0427 -0.2165 -0.3483
  804SOL    HW1 2411   1.759   2.403   0.699  0.6076  1.7793  1.5238
  804SOL    HW2 2412   1.653   2.460   0.585  0.7592 -1.0537 -2.4753
  805SOL     OW 2413   2.837   2.330   2.403 -0.2060 -0.8229  0.6188
  805SOL    HW1 2414   2.766   2.281   2.460 -0.1624 -1.2441 -2.5499
  805SOL    HW2 2415   2.929   2.312   2.443  0.8353 -3.3759  0.1416
  806SOL     OW 2416   3.019   0.029   0.430 -0.1218  0.0722  0.3096
  806SOL    HW1 2417   2.970   0.055   0.511 -0.8214 -3.3235 -1.1456
  806SOL    HW2 2418   3.051   0.107   0.377 -0.5319 -0.3060 -1.5570
  807SOL     OW 2419   2.358   0.788   2.925  0.0217  0.0014 -0.0166
  807SOL    HW1 2420   2.366   0.686   2.947  0.3345 -0.7742  1.0027
  807SOL    HW2 2421   2.291   0.838   2.978  0.6982 -0.6603  0.1555
  808SOL     OW 2422   1.229   2.554   0.765  0.2844 -0.2082  0.5667
  808SOL    HW1 2423   1.235   2.525   0.861 -0.3508 -0.0912  0.4174
  808SOL    HW2 2424   1.248   2.656   0.768  1.3576  1.6204 -2.3477
  809SOL     OW 2425   2.633   2.971   0.183 -0.4746 -0.1222  1.2839
  809SOL    HW1 2426   2.679   2.882   0.184  0.7136  1.8223 -2.8830
  809SOL    HW2 2427   2.679   3.046   0.133 -0.1497 -0.7071  2.3646
  810SOL     OW 2428   1.268   1.204   0.768  0.1809  0.4488  0.1000
  810SOL    HW1 2429   1.184   1.256   0.791  1.3248  2.1393  2.9901
  810SOL    HW2 2430   1.240   1.111   0.730 -3.2037 -0.7801 -0.9238
  811SOL     OW 2431   1.776   2.628   1.535 -0.9858 -0.1830  0.6332
  811SOL    HW1 2432   1.732   2.709   1.489  2.4483  2.8148  0.1348
  811SOL    HW2 2433   1.739   2.622   1.629  0.0058  0.4865 -1.6219
  812SOL     OW 2434   1.722   2.901   0.402  0.3350  0.3897  0.0650
  812SOL    HW1 2435   1.679   2.990   0.417  1.5795 -1.5013 -0.1801
  812SOL    HW2 2436   1.819   2.911   0.418 -2.7385 -0.5515 -3.2617
  813SOL     OW 2437   1.108   0.271   2.155  0.8110 -0.4374  0.1553
  813SOL    HW1 2438   1.059   0.188   2.138  4.1276  0.1071  1.2938
  813SOL    HW2 2439   1.196   0.243   2.193 -1.3599 -3.6087 -1.1389
  814SOL     OW 2440   0.273   2.991   1.223  0.8076 -0.2284 -0.8396
  814SOL    HW1 2441   0.215   2.995   1.136  0.1633 -0.1548 -0.1041
  814SOL    HW2 2442   0.352   3.053   1.219 -2.1215 -0.6076 -1.4238
  815SOL     OW 2443   0.216   2.771   0.838  0.1054 -0.1522  0.0251
  815SOL    HW1 2444   0.183   2.789   0.747  1.6487 -1.7539  3.2892
  815SOL    HW2 2445   0.315   2.749   0.843 -2.1756 -1.4318 -2.2191
  816SOL     OW 2446   2.522   1.600   2.737 -0.4939  0.0203 -0.1018
  816SOL    HW1 2447   2.489   1.518   2.783  3.0107  0.9607 -0.7968
  816SOL    HW2 2448   2.504   1.586   2.638  0.5753 -0.4385  2.4645
  817SOL     OW 2449   1.428   2.902   2.915  0.3085  0.0632  0.3103
  817SOL    HW1 2450   1.355   2.903   2.988 -0.8707  1.9950  3.9072
  817SOL    HW2 2451   1.425   2.978   2.849 -1.3241 -2.1632  0.0796
  818SOL     OW 2452   1.751   1.002   0.316 -0.5243  0.2424 -0.3882
  818SOL    HW1 2453   1.718   1.077   0.376 -0.3401 -0.6023  1.6446
  818SOL    HW2 2454   1.667   0.954   0.291  1.8238  1.4136  0.4440
  819SOL     OW 2455   1.925   2.559   2.677 -0.1793  0.2491  0.5369
  819SOL    HW1 2456   1.842   2.588   2.627 -0.9012  0.9742 -0.4497
  819SOL    HW2 2457   1.932   2.624   2.759 -1.2367  0.7974 -0.3748
  820SOL     OW 2458   1.089   0.705   0.297 -0.3086  0.1418  0.3159
  820SOL    HW1 2459   1.095   0.692   0.196  0.2232 -0.7650 -1.0253
  820SOL    HW2 2460   0.994   0.683   0.332 -0.0514 -0.2648  0.1491
  821SOL     OW 2461   0.415   0.542   1.408  0.7161  0.3771  0.3544
  821SOL    HW1 2462   0.471   0.625   1.416 -2.7375 -0.4520  0.6600
  821SOL    HW2 2463   0.363   0.552   1.322  1.6790  1.6467  0.2296
  822SOL     OW 2464   1.450   2.409   2.184  1.3144  0.2559  0.5636
  822SOL    HW1 2465   1.474   2.325   2.236 -0.7432  1.5972 -1.3960
  822SOL    HW2 2466   1.482   2.387   2.086  0.2658 -5.6246 -2.4642
  823SOL     OW 2467   0.627   1.120   1.955 -0.6091 -0.1411  0.1801
  823SOL    HW1 2468   0.662   1.213   1.927  0.5780 -0.0062 -1.4901
  823SOL    HW2 2469   0.657   1.105   2.051  1.2738  1.6476  0.8583
  824SOL     OW 2470   2.433   0.034   1.902  0.4758 -0.2050 -0.0336
  824SOL    HW1 2471   2.390   3.055   1.865  0.0932 -1.9024  0.0393
  824SOL    HW2 2472   2.448   0.106   1.831  0.6854 -1.2428  1.3933
  825SOL     OW 2473   1.061   1.420   0.048 -0.4775 -0.1559  0.1703
  825SOL    HW1 2474   1.095   1.327   0.033  0.5427  1.6759 -1.6975
  825SOL    HW2 2475   1.092   1.475   3.076 -0.4830 -0.1171  0.4874
  826SOL     OW 2476   2.089   0.610   2.622 -0.8539 -0.1210  0.0547
  826SOL    HW1 2477   2.060   0.699   2.595 -0.8057 -1.0122 -0.9634
  826SOL    HW2 2478   2.070   0.537   2.553 -2.5109 -0.5187 -1.7807
  827SOL     OW 2479   0.646   2.121   2.700 -0.3595 -0.2285  0.1421
  827SOL    HW1 2480   0.625   2.185   2.774  0.7889  1.1477  2.6280
  827SOL    HW2 2481   0.574   2.124   2.624  1.4790  0.2094  0.2748
  828SOL     OW 2482   2.807   0.190   1.442 -0.1649 -1.2006  0.1772
  828SOL    HW1 2483   2.780   0.094   1.418 -1.1154 -0.8275  5.0058
  828SOL    HW2 2484   2.740   0.254   1.397 -2.9384  1.3185  0.0250
  829SOL     OW 2485   1.420   1.769   1.337  0.1147 -0.3558  0.1799
  829SOL    HW1 2486   1.440   1.820   1.424 -0.1407 -0.1176 -2.2944
  829SOL    HW2 2487   1.488   1.703   1.305 -0.1245  0.3855  1.4487
  830SOL     OW 2488   0.397   0.845   1.651  0.2004 -0.1140  0.4010
  830SOL    HW1 2489   0.413   0.840   1.554  0.3816  1.1838  6.2371
  830SOL    HW2 2490   0.332   0.775   1.685  2.0996 -0.8116  0.8396
  831SOL     OW 2491   0.134   1.744   0.180  0.5159 -1.0388 -1.0601
  831SOL    HW1 2492   0.068   1.791   0.116  0.5392  0.9406 -1.8261
  831SOL    HW2 2493   0.220   1.800   0.191  2.8197  1.9884  0.4730
  832SOL     OW 2494   0.824   0.296   2.768 -1.2168  0.1229  0.6356
  832SOL    HW1 2495   0.868   0.205   2.775  0.7398 -0.2501  0.7233
  832SOL    HW2 2496   0.724   0.288   2.790 -3.7688 -2.0644 -1.8942
  833SOL     OW 2497   3.026   0.559   1.912  0.1798 -0.3657 -0.3602
  833SOL    HW1 2498   0.011   0.594   1.920  1.6643  1.5498  0.5828
  833SOL    HW2 2499   2.952   0.627   1.934  1.0736 -0.9785 -0.7449
  834SOL     OW 2500   0.272   0.574   1.178 -0.2522  0.6535 -0.8533
  834SOL    HW1 2501   0.299   0.621   1.092 -3.0275  2.0776  0.8459
  834SOL    HW2 2502   0.206   0.500   1.164  0.6717  0.1637 -0.0781
  835SOL     OW 2503   2.602   2.829   1.085  0.4647 -0.2347 -0.0830
  835SOL    HW1 2504   2.641   2.885   1.009  0.2092 -0.3360 -1.7356
  835SOL    HW2 2505   2.667   2.779   1.144 -1.3863  1.3112 -1.2041
  836SOL     OW 2506   0.544   1.876   2.749  0.0277 -0.3748  0.1461
  836SOL    HW1 2507   0.580   1.837   2.834  1.6557  1.2273  2.5010
  836SOL    HW2 2508   0.570   1.972   2.732 -1.2878 -1.4825  1.6307
  837SOL     OW 2509   2.080   2.170   2.597  0.2776 -0.0210 -0.3059
  837SOL    HW1 2510   2.019   2.242   2.640 -3.9710  3.6783 -2.4109
  837SOL    HW2 2511   2.066   2.192   2.496  1.3486  0.9572  1.9659
  838SOL     OW 2512   2.996   1.234   2.058  0.4545 -0.4293  0.5506
  838SOL    HW1 2513   2.908   1.211   2.105  1.2826  1.7369 -0.1282
  838SOL    HW2 2514   3.048   1.146   2.048  1.3945 -0.9720  1.7165
  839SOL     OW 2515   0.908   1.090   0.089 -0.4332 -0.6358 -0.3305
  839SOL    HW1 2516   0.856   1.062   0.006  0.0469  0.0053  0.6304
  839SOL    HW2 2517   1.000   1.127   0.064 -2.0295  0.2977 -0.5782
  840SOL     OW 2518   1.565   0.573   0.489  0.0627 -0.1811 -0.3223
  840SOL    HW1 2519   1.601   0.659   0.534 -0.1730  1.9011  0.5387
  840SOL    HW2 2520   1.513   0.512   0.555  0.0191 -1.4208  3.4733
  841SOL     OW 2521   0.512   2.931   0.678  0.0312 -1.2295 -0.1859
  841SOL    HW1 2522   0.500   2.943   0.780  1.0547  1.2392 -2.1559
  841SOL    HW2 2523   0.543   2.839   0.655 -1.9299  0.0010  1.0845
  842SOL     OW 2524   0.312   0.308   0.336  0.3835  0.8344  0.0273
  842SOL    HW1 2525   0.218   0.302   0.295 -2.4369 -3.2492  0.6074
  842SOL    HW2 2526   0.347   0.398   0.324 -0.9253 -5.2666  0.3470
  843SOL     OW 2527   0.504   0.382   1.832 -0.1541  0.4885 -0.2752
  843SOL    HW1 2528   0.587   0.442   1.857  2.6688  2.1673  2.4486
  843SOL    HW2 2529   0.457   0.363   1.918 -0.3226 -0.4186  0.3148
  844SOL     OW 2530   1.937   2.753   2.876  0.5647 -0.1762  0.1284
  844SOL    HW1 2531   1.876   2.823   2.850  1.4831 -1.2591  0.3714
  844SOL    HW2 2532   1.911   2.721   2.969 -1.4984  0.4981  0.6613
  845SOL     OW 2533   2.666   0.040   2.045 -0.1965  0.1634  0.6612
  845SOL    HW1 2534   2.578   0.048   1.994 -0.2077  0.4810 -0.2589
  845SOL    HW2 2535   2.669   3.072   2.111  1.7240  1.7388  1.6211
  846SOL     OW 2536   1.898   1.658   2.457 -0.7721 -0.5980  0.3191
  846SOL    HW1 2537   1.903   1.669   2.556 -0.3736  1.3868 -4.0514
  846SOL    HW2 2538   1.958   1.723   2.412 -1.2195 -2.3272  1.1222
  847SOL     OW 2539   2.077   2.702   2.078  0.4653  0.4029 -0.1385
  847SOL    HW1 2540   1.984   2.656   2.094 -1.9378 -0.2056 -0.3088
  847SOL    HW2 2541   2.070   2.784   2.016 -1.6047  2.3220 -0.0467
  848SOL     OW 2542   0.203   2.876   0.358  0.2024 -0.0429  0.1642
  848SOL    HW1 2543   0.186   2.775   0.370  1.4724  0.9329 -0.2267
  848SOL    HW2 2544   0.175   2.907   0.268 -3.7257 -0.6871  2.1483
  849SOL     OW 2545   0.655   2.762   1.284 -0.5788  0.4579  0.4655
  849SOL    HW1 2546   0.730   2.707   1.318 -2.2779  1.2978 -1.3377
  849SOL    HW2 2547   0.687   2.831   1.214  1.4178  1.7371 -0.4676
  850SOL     OW 2548   0.194   1.379   0.808  0.2423  1.2990  0.3736
  850SOL    HW1 2549   0.119   1.324   0.848 -2.4613 -3.9678  2.1741
  850SOL    HW2 2550   0.181   1.476   0.820  1.1344 -2.3492 -0.2619
  851SOL     OW 2551   0.028   0.385   3.087 -0.3973 -0.4695 -0.4201
  851SOL    HW1 2552   0.093   0.452   0.023  1.2284  2.0927  1.7568
  851SOL    HW2 2553   0.050   0.379   2.990 -0.2824  1.9938  2.0340
  852SOL     OW 2554   1.563   1.905   2.160 -0.2288 -0.4311  0.6355
  852SOL    HW1 2555   1.592   1.855   2.077  0.6580  0.4629 -1.1231
  852SOL    HW2 2556   1.610   1.866   2.242  0.9122  2.9700 -0.2683
  853SOL     OW 2557   0.613   1.846   0.558 -0.7691 -0.1558 -0.5469
  853SOL    HW1 2558   0.585   1.903   0.636 -2.7546 -0.1651  0.2601
  853SOL    HW2 2559   0.590   1.899   0.477  0.2715 -1.6554  2.4369
  854SOL     OW 2560   1.612   1.093   1.518 -0.4325  0.0742  0.0645
  854SOL    HW1 2561   1.616   1.179   1.570 -0.2529 -0.9134 -0.7441
  854SOL    HW2 2562   1.677   1.095   1.441 -1.0998 -0.2628  1.4159
  855SOL     OW 2563   0.368   1.898   0.138 -0.0804 -0.3061 -0.3351
  855SOL    HW1 2564   0.428   1.898   0.057  0.5980  1.1465  0.8940
  855SOL    HW2 2565   0.334   1.991   0.153 -0.3743 -0.6828 -0.0599
  856SOL     OW 2566   0.016   0.145   1.849  0.7464  0.1036 -0.2081
  856SOL    HW1 2567   0.036   0.045   1.868  0.7138 -0.0091  2.7694
  856SOL    HW2 2568   3.039   0.153   1.790  0.2183  0.6275 -1.8539
  857SOL     OW 2569   0.412   0.297   2.105 -0.6774 -0.0829  0.3093
  857SOL    HW1 2570   0.349   0.218   2.104  3.3915  0.9827 -0.3676
  857SOL    HW2 2571   0.404   0.357   2.185  1.1122  0.3749  3.9716
  858SOL     OW 2572   2.723   1.974   2.231  0.4671  0.0352  0.1521
  858SOL    HW1 2573   2.662   1.895   2.216  1.8217 -4.1166  0.4415
  858SOL    HW2 2574   2.803   1.944   2.282 -0.8353 -0.4620  0.8182
  859SOL     OW 2575   2.225   2.660   0.632  0.3299  0.3553  0.7744
  859SOL    HW1 2576   2.232   2.635   0.531 -0.8935  1.1943 -2.8992
  859SOL    HW2 2577   2.297   2.611   0.689  0.7087 -2.0935 -0.1372
  860SOL     OW 2578   1.849   0.453   0.590 -0.4553 -0.1672  0.2914
  860SOL    HW1 2579   1.805   0.478   0.675  1.9362 -0.4405 -0.4346
  860SOL    HW2 2580   1.793   0.474   0.505 -0.5639  0.1738  1.7357
  861SOL     OW 2581   0.365   0.357   0.965 -0.5606  0.5292  0.4867
  861SOL    HW1 2582   0.453   0.401   0.994  0.8056  1.3967  0.1172
  861SOL    HW2 2583   0.295   0.338   1.036  3.5789  0.6608 -0.0204
  862SOL     OW 2584   2.185   0.715   1.755  0.4919 -0.1337  0.1071
  862SOL    HW1 2585   2.178   0.618   1.744  1.8192 -3.2834 -2.1555
  862SOL    HW2 2586   2.199   0.766   1.669 -3.2359  0.3271  0.3417
  863SOL     OW 2587   0.513   1.578   1.250 -0.0003 -0.2272 -0.0202
  863SOL    HW1 2588   0.448   1.552   1.173 -1.4540  0.9348  4.4369
  863SOL    HW2 2589   0.533   1.677   1.246 -0.3444 -0.2155 -0.6669
  864SOL     OW 2590   2.354   0.207   2.305 -0.1989  0.3813 -0.1517
  864SOL    HW1 2591   2.347   0.250   2.214 -1.1599 -0.0594 -1.6791
  864SOL    HW2 2592   2.291   0.127   2.311  0.0413 -1.7109  1.1315
  865SOL     OW 2593   1.727   0.462   1.814  0.0795  0.1908  0.4430
  865SOL    HW1 2594   1.655   0.474   1.736 -2.1632  1.9351 -2.3801
  865SOL    HW2 2595   1.806   0.401   1.785 -2.6602 -1.0497 -1.2009
  866SOL     OW 2596   2.718   2.938   0.864  0.1097  0.0762  0.3239
  866SOL    HW1 2597   2.804   2.887   0.877 -1.9107 -0.6549  0.0946
  866SOL    HW2 2598   2.695   2.940   0.764 -4.0417 -0.1757  0.8376
  867SOL     OW 2599   2.670   2.549   0.643 -0.3454  0.0749 -0.2500
  867SOL    HW1 2600   2.673   2.447   0.647  3.3048 -0.1138  2.1558
  867SOL    HW2 2601   2.631   2.581   0.553 -1.1480  2.8985  0.2770
  868SOL     OW 2602   1.608   1.879   2.684 -0.3583 -0.1577 -0.2799
  868SOL    HW1 2603   1.506   1.880   2.700 -0.7465  4.5720 -0.7862
  868SOL    HW2 2604   1.663   1.831   2.756  1.2726 -0.0535  1.3708
  869SOL     OW 2605   2.401   1.677   0.675  0.4737 -0.2571  0.2074
  869SOL    HW1 2606   2.342   1.628   0.605  1.5626  4.2433 -3.3555
  869SOL    HW2 2607   2.358   1.769   0.682  1.8642 -0.4445  0.4056
  870SOL     OW 2608   2.721   1.654   0.357 -0.1430  0.4871 -0.0237
  870SOL    HW1 2609   2.761   1.577   0.306 -2.4474 -1.4427  0.6562
  870SOL    HW2 2610   2.773   1.742   0.344  1.5403 -2.6626 -0.1587
  871SOL     OW 2611   0.096   0.790   1.622 -0.7620 -0.1751  0.5434
  871SOL    HW1 2612   0.136   0.755   1.536  1.1207 -0.0973  1.5196
  871SOL    HW2 2613   3.104   0.812   1.618  1.6417 -0.0623  2.3226
  872SOL     OW 2614   0.507   2.039   2.270  0.0964  0.2748  0.1118
  872SOL    HW1 2615   0.557   1.971   2.322  1.1709  1.9099  1.1557
  872SOL    HW2 2616   0.547   2.057   2.177 -0.1469  0.2530 -1.2378
  873SOL     OW 2617   0.485   2.566   1.946 -0.6804  0.1750  0.0185
  873SOL    HW1 2618   0.531   2.500   1.888 -1.6718  3.0345  2.4319
  873SOL    HW2 2619   0.497   2.565   2.045 -1.2634  1.2387 -3.2972
  874SOL     OW 2620   1.147   0.922   2.228 -0.2643 -0.2400 -0.8133
  874SOL    HW1 2621   1.148   1.021   2.217 -2.3561 -1.7017 -1.9193
  874SOL    HW2 2622   1.181   0.876   2.143  0.8442 -2.2874 -1.4212
  875SOL     OW 2623   2.808   2.725   1.236 -0.1745 -0.8311  0.1826
  875SOL    HW1 2624   2.847   2.676   1.313 -1.6185  2.4523 -1.7296
  875SOL    HW2 2625   2.886   2.751   1.174  2.9379 -1.5974 -2.6887
  876SOL     OW 2626   0.962   1.259   0.473  0.1713 -0.1662  0.0472
  876SOL    HW1 2627   0.936   1.290   0.562  1.1336 -0.9350 -4.6425
  876SOL    HW2 2628   0.999   1.336   0.421  0.2149 -1.0126  0.1879
  877SOL     OW 2629   1.034   0.562   1.286  0.5348  0.0496  0.6285
  877SOL    HW1 2630   1.132   0.574   1.310 -2.5168 -2.3776  4.8240
  877SOL    HW2 2631   1.020   0.498   1.210 -1.3227  1.6804  0.6150
  878SOL     OW 2632   2.502   1.807   3.074 -0.5029  0.0710  0.1987
  878SOL    HW1 2633   2.524   1.707   3.067  4.8388 -0.1771 -2.8362
  878SOL    HW2 2634   2.535   1.857   2.990 -2.3735 -1.0460  1.4228
  879SOL     OW 2635   2.280   1.968   1.760 -0.0554  0.3395 -0.1286
  879SOL    HW1 2636   2.338   1.902   1.810 -0.7160 -0.4508 -1.2543
  879SOL    HW2 2637   2.334   2.040   1.712  3.1830  0.9633  1.0885
  880SOL     OW 2638   1.112   2.247   1.088  0.3088  0.8095 -0.5970
  880SOL    HW1 2639   1.211   2.267   1.092 -1.4062  1.1045 -1.7155
  880SOL    HW2 2640   1.100   2.148   1.091  0.0358  0.6963  4.2004
  881SOL     OW 2641   1.228   2.037   0.662  0.6414 -0.3208  0.2788
  881SOL    HW1 2642   1.156   2.100   0.694  0.4005  1.0398 -0.5645
  881SOL    HW2 2643   1.242   1.975   0.738 -2.8275 -0.3399 -4.8094
  882SOL     OW 2644   1.922   1.671   2.752  0.0525 -0.4324 -0.7386
  882SOL    HW1 2645   2.019   1.634   2.750 -0.8552  3.3029 -0.5878
  882SOL    HW2 2646   1.925   1.772   2.741 -0.5083 -0.5466  0.0864
  883SOL     OW 2647   1.548   0.600   1.265  0.5591 -0.1687  1.0542
  883SOL    HW1 2648   1.501   0.662   1.201  1.8784  0.3909 -1.3728
  883SOL    HW2 2649   1.573   0.511   1.221  1.2860  0.2804  0.0446
  884SOL     OW 2650   3.017   2.721   1.067  0.0012 -0.0768 -0.7382
  884SOL    HW1 2651   3.032   2.767   0.979  0.4707  3.0051 -0.2068
  884SOL    HW2 2652   3.069   2.630   1.084 -0.8869 -3.3038  1.9404
  885SOL     OW 2653   0.765   1.456   2.051  0.1429  0.6597 -0.2507
  885SOL    HW1 2654   0.682   1.415   2.096 -1.3721 -0.5218 -1.4225
  885SOL    HW2 2655   0.815   1.382   1.999  0.7250  1.4681  0.9213
  886SOL     OW 2656   1.054   1.173   2.617  0.1564 -0.0436 -0.8471
  886SOL    HW1 2657   1.004   1.151   2.702 -1.7182  3.9608 -3.0266
  886SOL    HW2 2658   1.153   1.201   2.634 -1.5199 -1.1171 -3.1520
  887SOL     OW 2659   1.574   0.248   0.855  0.4841 -0.0789  0.4438
  887SOL    HW1 2660   1.631   0.171   0.821 -0.8445 -0.0894  1.1814
  887SOL    HW2 2661   1.481   0.232   0.820  0.9031 -2.9966  0.5063
  888SOL     OW 2662   1.989   0.865   2.366  0.0433 -0.4931  0.4765
  888SOL    HW1 2663   1.948   0.844   2.459 -0.8509  1.4234  2.3999
  888SOL    HW2 2664   1.910   0.890   2.302 -3.0931 -1.5149  1.4130
  889SOL     OW 2665   2.889   2.110   0.939  0.0551 -0.3985  0.1801
  889SOL    HW1 2666   2.946   2.067   1.017  2.1225 -1.9273 -0.8436
  889SOL    HW2 2667   2.789   2.090   0.955 -3.2889 -0.0827 -0.0743
  890SOL     OW 2668   0.947   2.422   0.098  0.1124 -0.5774  0.3720
  890SOL    HW1 2669   0.942   2.519   0.066  0.1094 -0.6658 -1.3738
  890SOL    HW2 2670   1.037   2.400   0.142 -0.9643 -1.6503  3.0518
  891SOL     OW 2671   2.915   0.756   2.637 -0.2936 -0.3991 -0.5865
  891SOL    HW1 2672   2.924   0.821   2.566 -0.4805 -2.9418  4.1336
  891SOL    HW2 2673   2.813   0.751   2.657 -1.4831  1.9107  0.1618
  892SOL     OW 2674   3.010   2.364   1.279  0.3419  0.2134  0.4005
  892SOL    HW1 2675   3.071   2.387   1.198 -0.8529  0.0260 -0.8226
  892SOL    HW2 2676   2.944   2.287   1.268 -0.6091  0.6349 -0.8137
  893SOL     OW 2677   1.172   0.126   1.081  0.2558  0.5101 -0.1593
  893SOL    HW1 2678   1.217   0.049   1.023  1.9872  0.1655 -0.7055
  893SOL    HW2 2679   1.212   0.124   1.178 -0.8923 -0.2459  3.1390
  894SOL     OW 2680   2.851   0.085   1.126 -0.3689  0.1983 -0.3924
  894SOL    HW1 2681   2.773   0.057   1.185 -0.0137 -1.4229 -3.5519
  894SOL    HW2 2682   2.930   0.021   1.129 -0.6932  3.2058  1.1476
  895SOL     OW 2683   1.656   1.804   2.403 -0.2384  0.3386 -0.2375
  895SOL    HW1 2684   1.744   1.750   2.418 -0.8025 -1.1769  2.5217
  895SOL    HW2 2685   1.626   1.833   2.499  0.3990  0.8088  1.1980
  896SOL     OW 2686   1.945   0.829   1.335 -0.3387  0.1187  0.5208
  896SOL    HW1 2687   2.026   0.853   1.394  2.3445 -0.6546 -0.0798
  896SOL    HW2 2688   1.970   0.840   1.235 -0.5217 -0.6597 -3.6464
  897SOL     OW 2689   0.601   1.226   1.565  0.6454 -0.1821  0.0502
  897SOL    HW1 2690   0.583   1.324   1.541 -0.9426  0.9388  0.1908
  897SOL    HW2 2691   0.547   1.195   1.648 -4.5603 -2.0466  2.4236
  898SOL     OW 2692   1.546   2.154   2.346 -0.1898  0.5564  0.1656
  898SOL    HW1 2693   1.586   2.099   2.273  1.1682  1.1581  1.0210
  898SOL    HW2 2694   1.455   2.117   2.373 -0.3202  2.2534 -2.2222
  899SOL     OW 2695   1.270   1.867   0.862  0.6241  0.5114 -0.2934
  899SOL    HW1 2696   1.325   1.892   0.946  0.1136  1.0645  0.2665
  899SOL    HW2 2697   1.227   1.776   0.864  1.4358  1.9932 -1.2886
  900SOL     OW 2698   0.712   2.987   2.507 -0.2040  0.0079 -0.0943
  900SOL    HW1 2699   0.684   3.002   2.600 -1.0723  0.8385 -4.2059
  900SOL    HW2 2700   0.749   3.070   2.467 -1.6946 -1.3820 -1.0363
  901SOL     OW 2701   0.992   1.522   2.231  0.1907  0.9426 -0.1874
  901SOL    HW1 2702   0.898   1.523   2.185 -0.6186  1.5032  0.6197
  901SOL    HW2 2703   0.985   1.450   2.304 -0.8990  0.8348 -0.3451
  902SOL     OW 2704   2.170   0.906   3.059 -0.1517 -0.2047 -0.7009
  902SOL    HW1 2705   2.164   1.010   3.071 -0.2666  1.5639 -0.5302
  902SOL    HW2 2706   2.110   0.863   0.019 -1.0301  1.8880  0.2287
  903SOL     OW 2707   1.949   1.234   2.780  0.2463  0.3823  0.4263
  903SOL    HW1 2708   1.888   1.282   2.844 -2.2805  2.0808  1.4526
  903SOL    HW2 2709   1.897   1.186   2.704 -0.7237 -1.8001 -0.7335
  904SOL     OW 2710   1.554   1.272   1.728 -0.3106  0.0251 -0.1747
  904SOL    HW1 2711   1.456   1.281   1.712 -0.5576  2.0022 -0.3738
  904SOL    HW2 2712   1.594   1.348   1.782 -0.6697  1.0931 -1.2238
  905SOL     OW 2713   2.564   0.520   1.094 -0.1517 -0.6451 -0.4562
  905SOL    HW1 2714   2.498   0.514   1.016 -2.5811 -0.9719  0.5777
  905SOL    HW2 2715   2.643   0.459   1.092 -1.0707  1.2508  2.7161
  906SOL     OW 2716   0.363   1.559   0.513  0.5768 -0.3557  1.0039
  906SOL    HW1 2717   0.435   1.493   0.540  0.3894  2.0229  0.3811
  906SOL    HW2 2718   0.276   1.517   0.470 -2.5773 -2.6032  0.3293
  907SOL     OW 2719   1.391   3.082   0.345 -0.1292  0.6912 -0.1687
  907SOL    HW1 2720   1.456   3.104   0.421 -1.9893 -1.0093  0.1546
  907SOL    HW2 2721   1.426   3.101   0.252 -5.0827  0.8872  1.0382
  908SOL     OW 2722   1.183   2.668   1.686  0.5615 -0.4625  0.3323
  908SOL    HW1 2723   1.121   2.592   1.722  0.0340  0.4618  0.6080
  908SOL    HW2 2724   1.135   2.727   1.620  2.2334  0.2427  0.2766
  909SOL     OW 2725   2.468   0.776   1.936  0.1554  0.5594  0.2303
  909SOL    HW1 2726   2.440   0.725   2.018 -2.3504  0.4357 -2.4866
  909SOL    HW2 2727   2.435   0.872   1.946  1.5406 -0.6826  1.0962
  910SOL     OW 2728   1.353   0.208   2.260  0.4449  0.4049 -0.0766
  910SOL    HW1 2729   1.338   0.222   2.360  0.4839 -0.3469 -1.9494
  910SOL    HW2 2730   1.420   0.131   2.240 -1.6655 -1.7930 -0.7850
  911SOL     OW 2731   2.467   1.519   2.469 -0.2980  1.0299 -0.0911
  911SOL    HW1 2732   2.506   1.557   2.384 -1.1109 -1.0228  1.2808
  911SOL    HW2 2733   2.382   1.460   2.448 -0.0560 -2.6097  1.4635
  912SOL     OW 2734   2.281   2.120   1.402  0.8026 -0.0101 -0.2389
  912SOL    HW1 2735   2.317   2.200   1.351  2.6153  1.8992 -0.0859
  912SOL    HW2 2736   2.241   2.141   1.497 -2.7221  0.2460  2.2473
  913SOL     OW 2737   2.471   2.166   1.817 -1.0845 -0.4360 -0.2831
  913SOL    HW1 2738   2.539   2.156   1.893 -0.0532 -0.1403 -2.0607
  913SOL    HW2 2739   2.511   2.214   1.733  1.7787 -0.3539  1.2692
  914SOL     OW 2740   1.961   2.119   0.771  0.0870  0.9252 -0.0382
  914SOL    HW1 2741   2.032   2.140   0.841  1.6523 -0.7315  0.1621
  914SOL    HW2 2742   1.968   2.018   0.743 -0.9476 -2.5933  0.2267
  915SOL     OW 2743   1.061   2.702   2.037 -0.1899 -0.8006 -0.4847
  915SOL    HW1 2744   1.004   2.648   2.100 -1.9795  0.9077  0.2010
  915SOL    HW2 2745   1.158   2.664   2.035  0.9758 -0.0023  2.0988
  916SOL     OW 2746   0.109   2.161   0.920 -0.0654 -0.2703  0.8349
  916SOL    HW1 2747   0.081   2.257   0.943  1.0477 -0.9739  1.6174
  916SOL    HW2 2748   0.201   2.160   0.872 -0.1635  1.5298  0.4336
  917SOL     OW 2749   2.812   1.108   2.777 -0.0042  0.3769 -0.0113
  917SOL    HW1 2750   2.856   1.022   2.812  2.1713 -0.6307 -0.4699
  917SOL    HW2 2751   2.877   1.171   2.741 -1.5882 -1.4192 -0.3363
  918SOL     OW 2752   1.306   2.076   2.462  0.7105 -0.0015  0.1364
  918SOL    HW1 2753   1.328   2.033   2.551  0.5997 -1.1973 -3.4592
  918SOL    HW2 2754   1.210   2.051   2.440  3.2104 -1.2710 -1.5044
  919SOL     OW 2755   1.725   2.239   0.800  0.0943  0.1525 -0.1366
  919SOL    HW1 2756   1.660   2.158   0.806 -0.0528 -2.4834  0.7580
  919SOL    HW2 2757   1.820   2.205   0.783  0.1664  3.1444 -0.8442
  920SOL     OW 2758   1.208   0.514   2.599  0.3958  0.6086  0.5766
  920SOL    HW1 2759   1.227   0.575   2.678  0.8722 -3.4834 -1.9823
  920SOL    HW2 2760   1.220   0.568   2.514  1.7392  0.9624  0.6770
  921SOL     OW 2761   0.063   0.383   2.804  0.1805  0.7907  0.0771
  921SOL    HW1 2762   0.016   0.466   2.769  0.2396 -1.8973  1.9785
  921SOL    HW2 2763   0.067   0.312   2.728  2.3927 -0.0092 -0.5428
  922SOL     OW 2764   2.549   1.476   1.648  0.2047  0.0815 -0.5316
  922SOL    HW1 2765   2.485   1.546   1.617  1.8702 -0.2553 -1.0983
  922SOL    HW2 2766   2.614   1.453   1.574 -2.3648 -0.8303  4.3934
  923SOL     OW 2767   0.203   1.872   2.460  0.4410  0.2273  0.0686
  923SOL    HW1 2768   0.164   1.877   2.364  1.3252  0.1904 -1.3221
  923SOL    HW2 2769   0.137   1.815   2.513 -1.5524 -0.4793  1.5418
  924SOL     OW 2770   1.701   0.244   2.324 -0.4555  0.0986  0.5320
  924SOL    HW1 2771   1.648   0.233   2.412  0.4012 -1.8828 -0.2015
  924SOL    HW2 2772   1.725   0.345   2.311 -0.4019  2.8571  0.2943
  925SOL     OW 2773   2.808   0.944   0.204 -0.2656  0.0729  0.5816
  925SOL    HW1 2774   2.792   0.863   0.146  0.9389 -1.2732 -0.6955
  925SOL    HW2 2775   2.860   0.928   0.290 -1.4648 -0.6743 -1.2353
  926SOL     OW 2776   2.723   0.164   0.862 -0.2122 -0.0127  0.0927
  926SOL    HW1 2777   2.741   0.263   0.881  0.7163  1.2250 -1.2213
  926SOL    HW2 2778   2.754   0.111   0.944  1.9263  1.1162 -0.5080
  927SOL     OW 2779   1.220   0.966   0.682  0.3306 -0.0325  0.4419
  927SOL    HW1 2780   1.251   0.938   0.590  0.5445  2.0195  1.1203
  927SOL    HW2 2781   1.129   0.926   0.704  1.8789 -0.0813  0.8069
  928SOL     OW 2782   0.150   0.201   2.216  0.3579 -0.0346  0.6038
  928SOL    HW1 2783   0.065   0.251   2.221  2.5018  1.1843  0.5566
  928SOL    HW2 2784   0.205   0.239   2.289 -0.4355  1.1197 -2.3347
  929SOL     OW 2785   2.568   0.769   1.513 -0.7525 -0.1193  0.0724
  929SOL    HW1 2786   2.658   0.768   1.472 -1.3653 -1.9856  2.8911
  929SOL    HW2 2787   2.555   0.700   1.588  0.8722 -1.1732  0.7445
  930SOL     OW 2788   1.887   2.543   0.969  0.2843  0.1460 -0.8057
  930SOL    HW1 2789   1.790   2.515   0.979 -3.3580 -0.6853 -0.4135
  930SOL    HW2 2790   1.932   2.536   0.880 -0.8456 -2.1481 -0.0464
  931SOL     OW 2791   2.128   1.186   0.864 -0.2402 -0.4573 -0.2118
  931SOL    HW1 2792   2.072   1.272   0.850 -1.4621 -0.7218 -4.0325
  931SOL    HW2 2793   2.072   1.098   0.848 -1.5488 -2.0614 -1.8235
  932SOL     OW 2794   0.118   0.760   1.345 -0.2634 -0.4445 -0.1146
  932SOL    HW1 2795   0.045   0.809   1.296  1.3087  1.5037 -0.2122
  932SOL    HW2 2796   0.150   0.683   1.291 -1.9220  4.7789 -0.3665
  933SOL     OW 2797   2.267   1.593   2.173 -0.1914 -0.1121  0.2685
  933SOL    HW1 2798   2.204   1.542   2.237 -1.7165  1.3893  2.1783
  933SOL    HW2 2799   2.249   1.576   2.075  1.3424  0.9088 -0.1136
  934SOL     OW 2800   1.660   2.820   1.409  0.4753  0.0144 -0.4849
  934SOL    HW1 2801   1.662   2.795   1.313  1.1208  0.1447  0.4517
  934SOL    HW2 2802   1.565   2.855   1.436 -1.2420 -0.3741 -3.5871
  935SOL     OW 2803   0.601   0.736   1.394  0.4449  0.0148 -0.4826
  935SOL    HW1 2804   0.509   0.788   1.368 -1.6846  0.7054  2.3564
  935SOL    HW2 2805   0.644   0.765   1.484  1.8406 -1.7498  1.5875
  936SOL     OW 2806   2.409   0.658   1.246 -0.3304  0.2388 -0.1537
  936SOL    HW1 2807   2.492   0.618   1.214 -5.2058 -0.0251  0.3785
  936SOL    HW2 2808   2.423   0.702   1.339 -1.6625  0.4624  0.4152
  937SOL     OW 2809   0.960   3.054   1.219  0.5300  0.4525 -0.0601
  937SOL    HW1 2810   0.911   3.102   1.292  1.5114 -2.1334 -1.8990
  937SOL    HW2 2811   1.041   0.001   1.194 -1.1244 -0.2178 -1.8538
  938SOL     OW 2812   2.842   2.383   0.811 -0.2788 -0.3837 -0.1298
  938SOL    HW1 2813   2.868   2.295   0.849 -0.8071  2.2794  1.8903
  938SOL    HW2 2814   2.825   2.449   0.883 -1.9595  0.4051  0.5340
  939SOL     OW 2815   0.031   1.748   2.618 -0.4132  0.6518  0.1555
  939SOL    HW1 2816   3.057   1.732   2.561  1.9116 -2.4941 -1.7538
  939SOL    HW2 2817   0.010   1.773   2.714  1.1519 -1.0725 -1.1455
  940SOL     OW 2818   2.606   2.727   2.812  0.2525  0.1543  0.0798
  940SOL    HW1 2819   2.557   2.723   2.723  0.4363  0.2799 -1.4167
  940SOL    HW2 2820   2.590   2.819   2.853 -0.5054 -0.0474  2.6642
  941SOL     OW 2821   1.596   2.698   0.287  0.4440  0.1800 -0.5948
  941SOL    HW1 2822   1.657   2.617   0.278  1.0251  1.6126 -0.4660
  941SOL    HW2 2823   1.638   2.774   0.342 -2.2404 -2.2463  0.0711
  942SOL     OW 2824   1.663   2.047   1.346  0.4940  0.1887 -0.1397
  942SOL    HW1 2825   1.685   1.951   1.376  3.5376 -0.4692 -0.3993
  942SOL    HW2 2826   1.655   2.109   1.426 -1.4502 -1.6454 -0.9241
  943SOL     OW 2827   1.794   0.897   1.862  0.4753 -0.0626 -0.0998
  943SOL    HW1 2828   1.731   0.823   1.837 -1.2919 -0.5810  1.1312
  943SOL    HW2 2829   1.874   0.857   1.909 -1.1345  0.2352  1.5671
  944SOL     OW 2830   1.611   0.661   1.937 -0.2818  0.0831 -0.1833
  944SOL    HW1 2831   1.638   0.566   1.909  1.3221 -2.2735  0.1127
  944SOL    HW2 2832   1.631   0.670   2.039 -0.5938  0.9618 -1.9418
  945SOL     OW 2833   2.689   2.246   1.164  0.2895  0.4055 -0.4063
  945SOL    HW1 2834   2.703   2.345   1.144 -1.3104 -2.4606  3.6939
  945SOL    HW2 2835   2.747   2.217   1.244  0.1688  0.4684  0.2509
  946SOL     OW 2836   0.852   1.108   1.611 -0.2308 -0.0545  0.0976
  946SOL    HW1 2837   0.752   1.123   1.602  1.3029 -0.6693  2.1829
  946SOL    HW2 2838   0.878   1.007   1.622  0.9375 -0.4248 -1.0298
  947SOL     OW 2839   0.443   2.537   0.758  0.1169  0.1948 -0.1862
  947SOL    HW1 2840   0.443   2.542   0.857  0.6797  0.2791 -4.2963
  947SOL    HW2 2841   0.367   2.478   0.732  0.2678  0.6391  2.0029
  948SOL     OW 2842   0.013   1.519   1.733 -0.3026  0.3231  0.4702
  948SOL    HW1 2843   0.072   1.432   1.725  4.2315 -2.8267 -1.2924
  948SOL    HW2 2844   0.044   1.586   1.669  0.4371  0.9036 -0.6269
  949SOL     OW 2845   0.456   0.590   2.243  0.0531 -0.0910  0.6649
  949SOL    HW1 2846   0.482   0.681   2.280  1.7370  0.0751 -1.3701
  949SOL    HW2 2847   0.407   0.612   2.155 -0.0876  1.5208 -1.4624
  950SOL     OW 2848   0.519   0.725   0.888 -0.2751 -0.0328  0.4446
  950SOL    HW1 2849   0.562   0.804   0.934  0.5652  1.4425  2.6042
  950SOL    HW2 2850   0.433   0.770   0.860  1.7154 -2.3928  2.9943
  951SOL     OW 2851   1.105   1.709   2.372 -0.9290 -0.0376 -0.1053
  951SOL    HW1 2852   1.051   1.634   2.324 -3.2586 -2.0185 -2.5752
  951SOL    HW2 2853   1.180   1.740   2.306  1.9593 -1.3050 -0.7290
  952SOL     OW 2854   1.258   1.356   2.920 -0.2462 -0.0600 -0.4614
  952SOL    HW1 2855   1.270   1.319   2.826 -0.0745  0.3886  1.0229
  952SOL    HW2 2856   1.328   1.425   2.942  0.2127 -1.7808  1.0164
  953SOL     OW 2857   1.101   2.930   2.413  0.3996 -0.3008 -0.0669
  953SOL    HW1 2858   1.054   2.932   2.324 -0.7096 -0.7173  1.0906
  953SOL    HW2 2859   1.088   3.016   2.464  1.1551 -1.5194 -0.1896
  954SOL     OW 2860   2.251   1.533   0.506  0.1454  0.1563  0.5767
  954SOL    HW1 2861   2.182   1.548   0.433 -4.4320 -0.7969 -0.9673
  954SOL    HW2 2862   2.283   1.435   0.502 -1.3737 -3.7396  1.8265
  955SOL     OW 2863   0.305   2.370   2.888 -0.0928  0.2567  0.0194
  955SOL    HW1 2864   0.287   2.393   2.791 -0.4545  0.5215 -3.7708
  955SOL    HW2 2865   0.269   2.277   2.911 -1.2451 -0.5991  3.3483
  956SOL     OW 2866   0.942   0.713   1.505 -0.1901  0.0313  0.2756
  956SOL    HW1 2867   0.985   0.650   1.439 -3.4104 -0.1874 -0.7802
  956SOL    HW2 2868   0.982   0.808   1.493  0.8254  0.2417  1.8084
  957SOL     OW 2869   2.000   1.398   2.309 -0.1344 -0.2812  0.3399
  957SOL    HW1 2870   1.941   1.331   2.257 -0.7140  0.2457  0.7224
  957SOL    HW2 2871   1.954   1.482   2.347 -0.7193  2.7064 -0.3780
  958SOL     OW 2872   1.667   2.393   1.426 -0.0664 -0.1091  0.2342
  958SOL    HW1 2873   1.699   2.486   1.450  0.8568  0.2236 -1.7418
  958SOL    HW2 2874   1.712   2.360   1.341 -1.5381 -0.3557 -0.1115
  959SOL     OW 2875   1.653   1.517   1.850 -0.6301 -0.5071  0.4301
  959SOL    HW1 2876   1.746   1.489   1.823 -2.0418 -0.0440  4.4117
  959SOL    HW2 2877   1.627   1.595   1.792 -1.8535  1.4094 -0.3965
  960SOL     OW 2878   2.998   0.892   2.856 -0.1498 -0.1802 -0.2633
  960SOL    HW1 2879   2.981   0.851   2.764  3.4203 -0.3771 -2.2610
  960SOL    HW2 2880   3.099   0.883   2.880  1.7739 -2.4221 -0.5492
  961SOL     OW 2881   0.377   0.670   2.005 -0.1105  0.1375 -0.2191
  961SOL    HW1 2882   0.297   0.664   1.945  0.5573  0.9413  2.8474
  961SOL    HW2 2883   0.451   0.717   1.954 -2.4874  0.3748  0.2207
  962SOL     OW 2884   1.521   1.709   0.403  0.4232  0.0725  0.0123
  962SOL    HW1 2885   1.431   1.737   0.439 -0.8933  1.2369 -0.9748
  962SOL    HW2 2886   1.552   1.620   0.441 -1.1253 -0.2776 -0.7370
  963SOL     OW 2887   1.292   2.335   2.464  0.1322  0.2513  0.6992
  963SOL    HW1 2888   1.234   2.393   2.407 -1.3400 -2.4921 -2.2218
  963SOL    HW2 2889   1.284   2.235   2.442  3.0388  0.4866 -1.3958
  964SOL     OW 2890   0.898   2.317   0.475 -0.4884  0.2667 -0.7060
  964SOL    HW1 2891   0.878   2.418   0.465 -1.0812 -0.5124  0.0141
  964SOL    HW2 2892   0.816   2.277   0.514  1.6217  2.1260 -1.0639
  965SOL     OW 2893   0.515   2.980   0.944 -0.3172  0.2787  0.5310
  965SOL    HW1 2894   0.606   2.953   0.974 -1.9883 -1.0493 -0.9754
  965SOL    HW2 2895   0.489   3.075   0.969 -0.1988  0.3255 -1.1217
  966SOL     OW 2896   0.145   1.127   2.916 -0.2904  0.1239  0.5978
  966SOL    HW1 2897   0.119   1.028   2.918 -1.5838 -0.1137  0.2115
  966SOL    HW2 2898   0.109   1.169   3.000  0.4370 -1.8384 -0.2197
  967SOL     OW 2899   0.994   3.009   1.824 -0.1085 -0.1518  0.9064
  967SOL    HW1 2900   0.955   3.104   1.812  0.2541  1.7681  0.6072
  967SOL    HW2 2901   1.075   3.031   1.873 -4.8463 -0.5726 -3.1069
  968SOL     OW 2902   2.128   0.457   0.449  0.3765 -0.0199 -0.3540
  968SOL    HW1 2903   2.131   0.362   0.488 -1.3444 -1.4666  0.4059
  968SOL    HW2 2904   2.060   0.514   0.495 -2.3691 -0.9428 -1.4805
  969SOL     OW 2905   0.037   1.659   2.057 -0.3643  0.9269 -0.5534
  969SOL    HW1 2906   3.076   1.702   1.993 -2.1785  0.7840  2.2873
  969SOL    HW2 2907   0.107   1.616   1.997 -0.2485  1.4700 -0.5527
  970SOL     OW 2908   2.108   1.399   1.331  0.1879 -0.2178 -0.4507
  970SOL    HW1 2909   2.065   1.485   1.297  0.5572 -1.8657  0.8813
  970SOL    HW2 2910   2.211   1.393   1.325  0.7248  1.7815 -0.0456
  971SOL     OW 2911   1.978   0.352   1.226 -0.4863 -0.3628 -0.2007
  971SOL    HW1 2912   2.050   0.410   1.271  1.6769  3.6789 -0.3571
  971SOL    HW2 2913   1.991   0.332   1.126  2.0479 -3.0740  1.4079
  972SOL     OW 2914   0.620   3.067   1.924 -0.1093  0.7929  0.0759
  972SOL    HW1 2915   0.647   0.042   1.970 -3.5059 -2.3417 -3.3939
  972SOL    HW2 2916   0.538   3.092   1.869  1.6303 -0.4377 -0.3193
  973SOL     OW 2917   2.610   1.038   0.365 -0.8630  0.3390  0.2013
  973SOL    HW1 2918   2.523   1.010   0.319 -1.1637  0.6616  2.3268
  973SOL    HW2 2919   2.689   1.014   0.309 -0.1026 -1.5586 -0.0929
  974SOL     OW 2920   1.682   1.356   2.395 -0.4820 -0.1443  0.6674
  974SOL    HW1 2921   1.710   1.435   2.334 -0.9306  0.5651  0.6896
  974SOL    HW2 2922   1.606   1.387   2.449  0.2480 -0.1913  0.9297
  975SOL     OW 2923   0.242   2.638   1.487 -0.2185  0.0314 -0.4943
  975SOL    HW1 2924   0.265   2.662   1.392  0.5645  2.3715  3.1600
  975SOL    HW2 2925   0.153   2.683   1.520  0.4421  1.6111  3.2286
  976SOL     OW 2926   0.188   1.709   1.626  0.5939  0.0266 -0.2057
  976SOL    HW1 2927   0.158   1.784   1.685  2.7732  0.5665 -1.0871
  976SOL    HW2 2928   0.289   1.690   1.640  0.9229  0.7953  1.2932
  977SOL     OW 2929   0.793   2.460   2.826 -0.1012  0.4341  0.5596
  977SOL    HW1 2930   0.722   2.507   2.766 -1.7934 -0.7218 -0.5600
  977SOL    HW2 2931   0.874   2.421   2.773 -1.9563  0.2263 -0.7863
  978SOL     OW 2932   0.608   1.763   2.505  0.3621  0.1732 -0.6795
  978SOL    HW1 2933   0.667   1.832   2.459  3.0753 -1.9398  1.3486
  978SOL    HW2 2934   0.579   1.795   2.600  1.9818  1.2406  1.8037
  979SOL     OW 2935   1.644   2.403   0.990  0.0093 -0.3874 -0.6733
  979SOL    HW1 2936   1.689   2.392   1.082  0.1617 -1.1567  3.4864
  979SOL    HW2 2937   1.682   2.339   0.920  0.4622  0.2227  1.4284
  980SOL     OW 2938   1.006   1.809   2.853 -0.2072 -0.0503  0.0381
  980SOL    HW1 2939   0.930   1.809   2.918  1.6815 -2.8599  0.1334
  980SOL    HW2 2940   1.093   1.847   2.890 -0.6658  0.1352  2.2028
  981SOL     OW 2941   2.764   0.105   2.596  0.0157  0.1417  0.3932
  981SOL    HW1 2942   2.802   0.172   2.531  0.1026 -0.2117 -1.2069
  981SOL    HW2 2943   2.664   0.101   2.587 -0.5319  0.4738 -0.0700
  982SOL     OW 2944   0.269   2.807   2.745  0.1035 -0.4200 -0.6368
  982SOL    HW1 2945   0.203   2.737   2.716  0.6748  1.2276  1.4975
  982SOL    HW2 2946   0.351   2.765   2.790 -0.2931  1.6645 -0.2707
  983SOL     OW 2947   2.357   1.021   1.959 -0.2164 -0.2634 -0.3955
  983SOL    HW1 2948   2.407   1.098   2.011 -0.5456  1.2082  0.7101
  983SOL    HW2 2949   2.298   1.060   1.885  1.4931  0.0449 -0.9867
  984SOL     OW 2950   1.519   0.351   2.104  0.1405  0.1899  0.3415
  984SOL    HW1 2951   1.461   0.306   2.174 -2.8250  0.0275  1.6129
  984SOL    HW2 2952   1.607   0.306   2.106 -0.6403  3.1434  3.5105
  985SOL     OW 2953   1.026   1.860   2.120  0.2110  0.0849 -0.1918
  985SOL    HW1 2954   0.981   1.799   2.057  2.5089  2.4150 -1.2543
  985SOL    HW2 2955   1.126   1.841   2.118 -0.1609 -2.6656  0.7078
  986SOL     OW 2956   1.706   0.117   2.096 -0.0737  0.1016 -0.1339
  986SOL    HW1 2957   1.787   0.117   2.035  1.3999  0.4526  0.5600
  986SOL    HW2 2958   1.719   0.161   2.187 -0.5276 -0.1303 -2.7933
  987SOL     OW 2959   2.028   0.784   1.955 -0.1609  0.3119  0.1402
  987SOL    HW1 2960   2.099   0.749   1.891  0.5566 -0.4373  1.5458
  987SOL    HW2 2961   2.067   0.842   2.028 -0.9750 -0.3787 -2.2271
  988SOL     OW 2962   2.610   0.733   2.634 -0.4264  0.0143 -0.1739
  988SOL    HW1 2963   2.589   0.817   2.580  0.4445  3.4146 -1.0293
  988SOL    HW2 2964   2.530   0.708   2.692 -0.7334  0.8907 -1.6815
  989SOL     OW 2965   2.534   2.775   2.545  0.5368  0.3999 -0.3993
  989SOL    HW1 2966   2.493   2.698   2.499  1.2866  2.1333  5.2351
  989SOL    HW2 2967   2.622   2.782   2.505  1.2015 -0.9157  1.0505
  990SOL     OW 2968   0.791   0.522   2.909  1.2239  0.1073 -0.3646
  990SOL    HW1 2969   0.822   0.618   2.893  1.1791 -0.1292 -2.6389
  990SOL    HW2 2970   0.791   0.464   2.824 -0.5103  0.7723  1.0112
  991SOL     OW 2971   1.083   0.697   0.024 -0.3114 -0.5573  0.0949
  991SOL    HW1 2972   1.070   0.603   3.105  3.4394  0.4769  0.5292
  991SOL    HW2 2973   1.176   0.730   3.104 -1.0156  3.5461  2.2225
  992SOL     OW 2974   2.753   2.154   2.751  0.1704  0.2965  0.3354
  992SOL    HW1 2975   2.696   2.151   2.667 -2.6836 -0.3829 -3.2887
  992SOL    HW2 2976   2.767   2.251   2.777  0.1921 -0.6724  3.1757
  993SOL     OW 2977   0.534   0.208   0.438 -0.3506  0.0287 -0.5018
  993SOL    HW1 2978   0.443   0.235   0.396 -2.6495  0.6476 -0.3506
  993SOL    HW2 2979   0.591   0.171   0.358  1.5748  0.1927 -0.4908
  994SOL     OW 2980   0.328   2.128   1.627  0.7048  0.2205  0.5747
  994SOL    HW1 2981   0.308   2.145   1.724  0.4816  2.1829  0.4550
  994SOL    HW2 2982   0.353   2.215   1.575 -0.6376 -1.4342  2.3172
  995SOL     OW 2983   2.271   1.940   3.087  0.1422 -0.0339  0.1320
  995SOL    HW1 2984   2.362   1.895   3.089  0.1429  1.0107  0.7565
  995SOL    HW2 2985   2.204   1.867   3.054  1.8337 -0.9336  1.2436
  996SOL     OW 2986   1.522   1.594   2.300 -0.4686 -0.0823  0.0470
  996SOL    HW1 2987   1.483   1.591   2.205  1.2808  3.3302 -0.1589
  996SOL    HW2 2988   1.585   1.673   2.324 -0.2658  0.3415 -0.8506
  997SOL     OW 2989   1.779   1.048   1.300 -0.0117 -0.5915 -0.3708
  997SOL    HW1 2990   1.841   1.111   1.241 -0.8428 -0.6038 -2.2418
  997SOL    HW2 2991   1.832   0.965   1.318 -0.1809 -0.3284  0.6531
  998SOL     OW 2992   2.897   1.422   0.225 -0.0441 -0.2394  0.2493
  998SOL    HW1 2993   2.864   1.338   0.178  0.5760 -2.0945 -0.2151
  998SOL    HW2 2994   2.922   1.485   0.152  1.3737 -3.2620  1.8562
  999SOL     OW 2995   2.812   2.315   0.437  0.1259 -0.7293 -0.4943
  999SOL    HW1 2996   2.896   2.345   0.486 -1.5216  1.0845 -1.4321
  999SOL    HW2 2997   2.794   2.218   0.454 -0.3191 -2.5802  1.8309
 1000SOL     OW 2998   0.913   0.071   2.169  0.2932 -0.4269 -0.7095
 1000SOL    HW1 2999   0.828   0.094   2.120  3.1012 -0.2400 -0.0587
 1000SOL    HW2 3000   0.924   3.080   2.154 -0.1307  2.2136  2.1869
   3.10810   3.10810   3.10810
