1000 SPC/Fw water molecules t=  65.00000 step= 65000
 3000
    1SOL     OW    1   2.056   2.652   0.900 -0.2528  0.1874 -0.5751
    1SOL    HW1    2   1.962   2.663   0.858 -0.6994  0.3464  0.0007
    1SOL    HW2    3   2.108   2.743   0.888 -1.6390  2.8241 -1.1987
    2SOL     OW    4   1.001   1.286   2.511 -0.3572 -0.0820 -0.0837
    2SOL    HW1    5   0.922   1.231   2.538  1.1039  1.0624 -0.7105
    2SOL    HW2    6   1.035   1.342   2.586  1.9079  0.3258 -1.7273
    3SOL     OW    7   1.471   2.663   2.458  0.3367  0.4264 -0.6278
    3SOL    HW1    8   1.499   2.692   2.554 -1.0433  0.5129  1.1251
    3SOL    HW2    9   1.430   2.571   2.461 -2.8254  2.4434 -1.0690
    4SOL     OW   10   1.270   1.839   2.922 -0.1947 -0.5491 -0.3053
    4SOL    HW1   11   1.247   1.804   2.835 -2.0089  1.3237  1.0782
    4SOL    HW2   12   1.371   1.860   2.928  2.6669  0.0851  0.3510
    5SOL     OW   13   0.937   0.691   1.782 -0.5280 -0.1596  0.1752
    5SOL    HW1   14   1.037   0.672   1.795 -2.1784  1.2256 -0.6839
    5SOL    HW2   15   0.888   0.721   1.869 -3.0251  1.4147  1.9838
    6SOL     OW   16   2.031   0.585   2.516  0.2150  0.1074  0.4224
    6SOL    HW1   17   2.098   0.588   2.443 -3.0537 -0.0224 -0.3105
    6SOL    HW2   18   1.968   0.505   2.503  4.3949 -1.0015  1.0272
    7SOL     OW   19   0.267   0.503   1.685  0.8516  0.1908  0.6387
    7SOL    HW1   20   0.197   0.504   1.606 -0.6366  0.3031  1.2851
    7SOL    HW2   21   0.229   0.451   1.761 -0.8520 -0.5101 -2.4073
    8SOL     OW   22   1.942   3.095   1.965  0.7448 -0.0867  0.2638
    8SOL    HW1   23   1.887   3.012   1.970  1.4107  1.9969 -1.6273
    8SOL    HW2   24   1.883   0.068   1.937 -0.6747  1.0345  0.3386
    9SOL     OW   25   0.361   3.085   0.780 -0.2998 -0.0464  0.0540
    9SOL    HW1   26   0.339   3.057   0.688  0.9048  2.0881 -1.5856
    9SOL    HW2   27   0.448   0.028   0.775 -1.0804  2.7386  1.0537
   10SOL     OW   28   0.603   2.302   2.443 -0.2033 -0.6206  0.2884
   10SOL    HW1   29   0.628   2.351   2.352  2.5853  1.0180 -2.5014
   10SOL    HW2   30   0.682   2.308   2.508 -0.3326  0.4636 -1.6067
   11SOL     OW   31   0.730   1.555   0.098 -0.0199 -0.3764 -0.3944
   11SOL    HW1   32   0.668   1.550   0.019  0.6924  1.1726  0.1827
   11SOL    HW2   33   0.680   1.594   0.182 -0.4608 -1.0909 -1.2466
   12SOL     OW   34   2.737   2.427   1.489  0.1898  0.5136  0.0182
   12SOL    HW1   35   2.771   2.490   1.566 -1.7215  3.7742  3.0892
   12SOL    HW2   36   2.797   2.342   1.490 -1.2947 -0.2832  1.4452
   13SOL     OW   37   0.703   2.920   0.040 -0.4188 -0.1136 -0.1281
   13SOL    HW1   38   0.710   3.002   3.095 -0.1030 -3.0754  0.2668
   13SOL    HW2   39   0.615   2.920   0.091  0.2028 -1.8605  1.3610
   14SOL     OW   40   1.408   1.632   1.332  0.0260  0.5237  0.2651
   14SOL    HW1   41   1.352   1.578   1.400  2.3186  1.6444  2.1119
   14SOL    HW2   42   1.502   1.647   1.369 -1.6512 -2.1608  0.1792
   15SOL     OW   43   0.444   1.905   2.475  0.3760  0.2048 -0.4770
   15SOL    HW1   44   0.544   1.894   2.473  0.3745  3.5121 -2.8661
   15SOL    HW2   45   0.411   1.996   2.448  1.2856  0.9978 -0.2220
   16SOL     OW   46   1.541   0.520   2.722 -0.5388  0.3962 -0.3385
   16SOL    HW1   47   1.591   0.556   2.643  2.2754  2.7112  2.0706
   16SOL    HW2   48   1.544   0.597   2.785  0.1921 -0.9600 -1.8592
   17SOL     OW   49   3.085   2.667   2.396  0.5888 -0.6312 -0.1795
   17SOL    HW1   50   3.075   2.607   2.477  1.1181 -1.7158  1.0213
   17SOL    HW2   51   0.071   2.664   2.367  0.4666 -0.5768  3.5558
   18SOL     OW   52   1.182   1.321   0.752 -0.2377  0.2131  0.2698
   18SOL    HW1   53   1.184   1.422   0.745 -1.4886 -0.3899 -0.3110
   18SOL    HW2   54   1.107   1.284   0.812 -1.0099 -0.4803 -0.0640
   19SOL     OW   55   2.822   1.848   2.418  0.1388  0.1699 -0.2113
   19SOL    HW1   56   2.917   1.816   2.430 -0.5839 -1.3707 -0.5051
   19SOL    HW2   57   2.799   1.924   2.477 -0.9928 -2.0440 -1.7020
   20SOL     OW   58   2.393   2.423   2.652  0.0609 -0.3251  0.5038
   20SOL    HW1   59   2.392   2.488   2.573  0.8128  1.5214 -0.1453
   20SOL    HW2   60   2.298   2.392   2.679  2.3760 -0.0403 -1.9124
   21SOL     OW   61   1.633   1.767   0.403  0.2136 -1.0482 -0.0501
   21SOL    HW1   62   1.604   1.682   0.455 -0.3575  0.4667  1.3554
   21SOL    HW2   63   1.558   1.838   0.407  0.4585  0.8170  0.9370
   22SOL     OW   64   2.354   2.105   1.488  0.3662  0.3028 -0.4041
   22SOL    HW1   65   2.395   2.030   1.545 -1.0368 -0.1173  0.6147
   22SOL    HW2   66   2.296   2.167   1.545  3.1413 -0.7395  1.3249
   23SOL     OW   67   3.067   1.229   1.146 -0.4459  0.1343 -0.4687
   23SOL    HW1   68   2.979   1.272   1.122  0.0761 -2.1592  1.9236
   23SOL    HW2   69   3.051   1.132   1.182 -1.4234  0.0080  1.4633
   24SOL     OW   70   2.216   1.410   1.930 -0.7799 -0.2461 -0.3752
   24SOL    HW1   71   2.261   1.415   1.841  0.4228 -1.6402  2.1661
   24SOL    HW2   72   2.201   1.315   1.956 -0.3595 -0.1051  1.7456
   25SOL     OW   73   2.047   0.139   2.426 -0.0437 -0.1305 -0.1284
   25SOL    HW1   74   2.125   0.205   2.424 -0.3257  1.2582 -0.8773
   25SOL    HW2   75   2.075   0.049   2.385 -0.0660 -0.6534 -2.2619
   26SOL     OW   76   1.168   0.083   0.235 -0.3620 -0.4641 -0.3578
   26SOL    HW1   77   1.111   0.147   0.180  0.7883  1.4949 -0.1684
   26SOL    HW2   78   1.128   0.072   0.331 -0.6714 -0.0955  0.8605
   27SOL     OW   79   0.521   1.751   0.737  0.2817  0.0868  0.0706
   27SOL    HW1   80   0.579   1.751   0.651 -0.4242  0.2540 -2.3768
   27SOL    HW2   81   0.495   1.655   0.766 -1.7797  1.7527  0.9903
   28SOL     OW   82   2.405   2.352   1.136  0.5703 -0.0236  0.5745
   28SOL    HW1   83   2.339   2.276   1.144  1.2450 -0.5686 -1.2485
   28SOL    HW2   84   2.461   2.336   1.055 -1.1846  0.8205  0.1936
   29SOL     OW   85   2.134   3.028   1.718 -0.7816  0.1165 -0.1419
   29SOL    HW1   86   2.045   3.049   1.771 -3.0702 -0.3064 -0.1489
   29SOL    HW2   87   2.210   3.018   1.787 -0.5049  1.6442 -0.6786
   30SOL     OW   88   0.719   2.858   1.257  0.3735 -0.1697  0.0257
   30SOL    HW1   89   0.616   2.857   1.274 -0.6779 -3.4774  0.7365
   30SOL    HW2   90   0.767   2.926   1.315  1.3717  1.1110  2.9009
   31SOL     OW   91   3.030   1.858   2.026 -0.7883 -0.0279  0.4508
   31SOL    HW1   92   3.080   1.903   1.950  0.6437  0.2040 -1.3705
   31SOL    HW2   93   3.077   1.773   2.048  1.1589  1.6753  1.3364
   32SOL     OW   94   1.490   1.681   2.201  0.2787 -0.7294 -0.0303
   32SOL    HW1   95   1.457   1.698   2.107  2.5434 -2.3129 -1.4649
   32SOL    HW2   96   1.548   1.599   2.200  0.4519 -1.0679 -0.3223
   33SOL     OW   97   0.292   3.019   2.946  0.3825 -0.1546 -0.2608
   33SOL    HW1   98   0.349   3.105   2.942 -0.5416 -0.8007  0.0830
   33SOL    HW2   99   0.339   2.938   2.993  0.2429 -3.7166  2.7573
   34SOL     OW  100   2.433   3.066   0.693  0.2041  0.0668 -0.0213
   34SOL    HW1  101   2.422   3.109   0.785  2.5742  0.9469  0.4710
   34SOL    HW2  102   2.527   3.023   0.689  0.6037 -0.3276 -0.3390
   35SOL     OW  103   2.828   0.384   1.502  0.0795  0.5352  0.0279
   35SOL    HW1  104   2.893   0.400   1.581  2.9826 -0.4928  2.2307
   35SOL    HW2  105   2.739   0.355   1.544  0.1451  2.0395  0.2551
   36SOL     OW  106   2.808   3.025   2.305 -0.3262 -0.2737 -0.1597
   36SOL    HW1  107   2.719   2.998   2.271  0.0464 -0.8276 -1.2978
   36SOL    HW2  108   2.883   2.962   2.277  0.1675  2.0066  0.0052
   37SOL     OW  109   1.632   2.694   3.065 -0.1961  0.1491  0.0760
   37SOL    HW1  110   1.649   2.766   2.996  1.0171  0.7933 -2.7660
   37SOL    HW2  111   1.531   2.692   3.093 -0.2175 -0.2654  2.5096
   38SOL     OW  112   3.100   0.955   0.014 -0.4344 -0.3504  0.0860
   38SOL    HW1  113   3.040   0.905   3.066 -1.2905  2.8661  0.2672
   38SOL    HW2  114   3.068   0.964   0.110 -0.3321 -3.4768 -2.9383
   39SOL     OW  115   1.720   1.688   1.927 -0.4197 -0.5995  0.5756
   39SOL    HW1  116   1.705   1.783   1.966  0.5042 -2.8373 -0.3917
   39SOL    HW2  117   1.710   1.613   1.998 -1.0629  2.0527  0.5343
   40SOL     OW  118   0.296   0.330   2.601  0.1180 -0.6837  0.6487
   40SOL    HW1  119   0.206   0.305   2.648 -1.7206  0.1866  0.4000
   40SOL    HW2  120   0.379   0.304   2.654  1.2288 -2.9006  2.1007
   41SOL     OW  121   1.788   1.187   1.817 -0.6037 -0.3408  0.0452
   41SOL    HW1  122   1.762   1.206   1.912  0.7708  1.6610 -1.8979
   41SOL    HW2  123   1.742   1.259   1.760 -2.2258  1.3504  2.9275
   42SOL     OW  124   0.019   0.222   1.479 -0.9267  0.2299  0.4818
   42SOL    HW1  125   3.047   0.191   1.422 -0.9658 -0.4596  3.2397
   42SOL    HW2  126   0.045   0.317   1.456 -0.8831  1.1358 -1.7247
   43SOL     OW  127   1.424   1.185   1.724 -0.0449 -0.7160  0.1234
   43SOL    HW1  128   1.326   1.201   1.696  0.0220 -2.9425 -1.1861
   43SOL    HW2  129   1.446   1.087   1.697  0.8695 -1.1863  0.4904
   44SOL     OW  130   3.030   0.315   2.944 -0.5530 -0.2682  0.7006
   44SOL    HW1  131   3.061   0.289   3.036  0.4930  0.6707 -3.1657
   44SOL    HW2  132   2.953   0.251   2.916 -1.6157 -0.3895  0.2980
   45SOL     OW  133   0.359   2.114   1.112 -0.2560  0.2333 -0.1293
   45SOL    HW1  134   0.342   2.144   1.209 -2.8658 -1.6430  0.1914
   45SOL    HW2  135   0.269   2.076   1.082  0.1006 -0.8421  1.7095
   46SOL     OW  136   2.354   2.825   1.909 -0.4945 -0.2200  0.3985
   46SOL    HW1  137   2.391   2.918   1.921  1.5786  0.3909 -0.2518
   46SOL    HW2  138   2.426   2.753   1.885 -0.7068 -1.3660 -0.5535
   47SOL     OW  139   0.322   1.711   1.051  0.3987  0.8422 -0.0075
   47SOL    HW1  140   0.381   1.653   0.984  3.7707 -0.7247 -1.4811
   47SOL    HW2  141   0.312   1.801   1.015  1.7062 -0.1730 -1.1016
   48SOL     OW  142   0.476   2.941   0.178  0.6447 -0.0696  0.4145
   48SOL    HW1  143   0.486   3.028   0.231 -2.7021  2.2893 -1.4083
   48SOL    HW2  144   0.445   2.868   0.240  3.8318  0.9975  1.7520
   49SOL     OW  145   2.879   1.812   1.734  0.3047  0.0303  0.0258
   49SOL    HW1  146   2.813   1.751   1.778  3.6759  1.3889 -1.0964
   49SOL    HW2  147   2.972   1.770   1.734 -1.7384 -1.2606 -1.5523
   50SOL     OW  148   1.400   0.036   0.550  0.6170 -0.0985  0.4655
   50SOL    HW1  149   1.421   0.059   0.454 -0.6145 -1.7708  0.5185
   50SOL    HW2  150   1.330   0.093   0.600  1.1511  1.0579  1.5616
   51SOL     OW  151   0.965   0.616   1.310  0.2954  0.4169 -0.4338
   51SOL    HW1  152   1.000   0.704   1.288 -0.4137 -0.4270 -0.8209
   51SOL    HW2  153   0.927   0.568   1.226  1.4707 -2.6585 -1.4387
   52SOL     OW  154   0.750   1.164   0.563 -0.3721 -0.0217 -0.5567
   52SOL    HW1  155   0.693   1.217   0.499  0.1244 -1.0139  0.3177
   52SOL    HW2  156   0.725   1.169   0.663 -2.2706 -0.0404 -0.5862
   53SOL     OW  157   1.430   3.079   2.373 -0.2053 -0.2490  0.4255
   53SOL    HW1  158   1.447   3.082   2.477  0.4991 -2.1360  0.2728
   53SOL    HW2  159   1.521   3.061   2.329 -4.4097  0.0213  0.6261
   54SOL     OW  160   1.739   0.563   1.597 -0.3116 -0.2586 -0.3736
   54SOL    HW1  161   1.717   0.576   1.497 -0.5755 -1.4341 -0.1829
   54SOL    HW2  162   1.841   0.564   1.617  0.0690 -0.4997 -0.0476
   55SOL     OW  163   2.929   2.676   0.527 -0.4576 -0.0287 -0.3318
   55SOL    HW1  164   2.910   2.709   0.624 -0.5501 -0.2270  1.6471
   55SOL    HW2  165   2.954   2.576   0.521 -0.7177 -0.8101 -1.1420
   56SOL     OW  166   1.103   2.588   1.765  0.6578  0.0711  0.1106
   56SOL    HW1  167   1.187   2.614   1.812 -0.9660 -2.1217 -1.5746
   56SOL    HW2  168   1.105   2.636   1.674  1.3106 -1.4985 -2.7169
   57SOL     OW  169   1.763   0.822   2.396  0.3474 -0.1908  0.3276
   57SOL    HW1  170   1.690   0.772   2.447  0.0002  0.2510  0.1974
   57SOL    HW2  171   1.825   0.764   2.337 -0.5770  0.2099 -1.6252
   58SOL     OW  172   0.353   1.291   2.168 -0.0967  0.0509  0.3677
   58SOL    HW1  173   0.382   1.333   2.082  0.4890  0.7571  0.0341
   58SOL    HW2  174   0.261   1.246   2.163 -0.6874  1.1765  2.1532
   59SOL     OW  175   0.639   2.425   1.954 -0.3505 -0.1763  0.3392
   59SOL    HW1  176   0.606   2.335   1.979  0.9021  2.1713  1.6506
   59SOL    HW2  177   0.737   2.431   1.955 -5.4758  0.6298  2.1786
   60SOL     OW  178   2.325   2.423   0.160  0.1075  0.0432  0.2980
   60SOL    HW1  179   2.294   2.324   0.151  0.6945 -0.0758 -0.3629
   60SOL    HW2  180   2.369   2.460   0.075 -0.1474  0.9181 -1.4055
   61SOL     OW  181   1.088   2.874   0.582  0.1141  0.1809 -0.2300
   61SOL    HW1  182   1.177   2.824   0.597  1.7389 -0.1660 -0.1523
   61SOL    HW2  183   1.029   2.813   0.523  0.5495 -0.0461  0.0478
   62SOL     OW  184   1.792   2.366   2.713 -0.1469 -0.2866 -0.7111
   62SOL    HW1  185   1.724   2.320   2.655  1.1349  0.4860 -1.3160
   62SOL    HW2  186   1.811   2.301   2.792 -0.3577 -2.2840  0.7535
   63SOL     OW  187   2.126   0.582   2.991  0.6736  0.3826 -0.4406
   63SOL    HW1  188   2.128   0.673   2.946 -0.8521  0.0312  1.0033
   63SOL    HW2  189   2.204   0.517   2.968  0.7938 -0.5471 -2.5833
   64SOL     OW  190   1.428   1.552   0.278  0.3658 -0.0195  0.0480
   64SOL    HW1  191   1.476   1.628   0.326  0.4359 -0.3063  1.9892
   64SOL    HW2  192   1.326   1.559   0.270 -0.8313 -2.4035  0.5499
   65SOL     OW  193   0.851   3.047   1.439  0.0381  0.0435  0.0024
   65SOL    HW1  194   0.945   3.010   1.432 -3.1336 -0.1199  0.7491
   65SOL    HW2  195   0.848   0.041   1.443  4.1833  0.1916 -0.1478
   66SOL     OW  196   0.770   1.309   1.416  0.0489 -0.1908  0.0580
   66SOL    HW1  197   0.732   1.241   1.475  0.1808  4.6054 -0.3388
   66SOL    HW2  198   0.829   1.271   1.342 -2.9255  2.1344  0.6921
   67SOL     OW  199   2.293   2.433   1.880  0.0248  0.2102 -0.2232
   67SOL    HW1  200   2.344   2.416   1.967  0.1275 -0.5241  2.2543
   67SOL    HW2  201   2.330   2.373   1.807 -0.4591  0.7730 -0.6650
   68SOL     OW  202   0.985   1.114   1.791  0.3479 -0.3022 -0.2645
   68SOL    HW1  203   0.915   1.142   1.856  1.4757 -1.5102 -1.7036
   68SOL    HW2  204   0.961   1.036   1.723  1.9188 -2.9098  0.4634
   69SOL     OW  205   2.736   2.705   0.143 -0.0701 -0.0707  0.3358
   69SOL    HW1  206   2.712   2.722   0.240  0.7149  1.8104 -1.9629
   69SOL    HW2  207   2.663   2.725   0.078  0.5007 -0.3127 -0.4093
   70SOL     OW  208   2.534   0.727   2.523  0.5480 -0.3547  0.6184
   70SOL    HW1  209   2.564   0.775   2.606 -0.8215 -1.8113  2.6634
   70SOL    HW2  210   2.616   0.701   2.464  0.2762 -2.1919 -4.0335
   71SOL     OW  211   3.026   2.080   0.629 -0.0302 -0.2167  0.1619
   71SOL    HW1  212   2.976   2.033   0.554 -0.5510  2.2867 -1.3328
   71SOL    HW2  213   2.996   2.180   0.622 -0.2189  3.0222 -2.1958
   72SOL     OW  214   2.842   2.035   0.401  0.1827 -0.1519 -0.4151
   72SOL    HW1  215   2.807   1.941   0.393  2.1219  2.4933  1.2112
   72SOL    HW2  216   2.904   2.053   0.329  1.5797 -3.6846 -0.3402
   73SOL     OW  217   0.949   0.508   0.910  0.2028 -0.3795 -0.1544
   73SOL    HW1  218   0.904   0.503   1.007  2.3663  2.0949  1.4467
   73SOL    HW2  219   0.907   0.587   0.864 -1.7135 -2.9938  0.2773
   74SOL     OW  220   2.647   2.274   2.123 -0.6439  0.5398  0.0133
   74SOL    HW1  221   2.587   2.197   2.094 -0.7149  0.7635 -2.0180
   74SOL    HW2  222   2.714   2.241   2.192 -1.6244  1.5367  2.3132
   75SOL     OW  223   1.784   1.675   1.651 -0.3093 -0.3322 -0.1166
   75SOL    HW1  224   1.757   1.666   1.749 -3.1689  3.3286 -1.5414
   75SOL    HW2  225   1.704   1.641   1.600 -1.6328  0.0414  2.9163
   76SOL     OW  226   1.115   1.871   1.172  0.7049  0.0017  0.7771
   76SOL    HW1  227   1.155   1.782   1.147 -0.9446  1.3535  0.8907
   76SOL    HW2  228   1.042   1.870   1.238  1.6205 -0.6424 -1.3600
   77SOL     OW  229   2.721   1.711   1.921  0.5446  0.4472  0.0831
   77SOL    HW1  230   2.717   1.614   1.957 -0.8648 -0.9296  1.4055
   77SOL    HW2  231   2.737   1.773   2.000 -3.4405  0.3782  0.5469
   78SOL     OW  232   1.603   0.656   0.434 -0.1820  0.5399 -0.0729
   78SOL    HW1  233   1.528   0.607   0.380 -2.8233  1.0949 -0.1130
   78SOL    HW2  234   1.564   0.681   0.531 -0.1664  1.3600  2.7158
   79SOL     OW  235   2.039   1.187   1.758  0.2381  0.5755 -0.0970
   79SOL    HW1  236   2.094   1.152   1.834  1.4281 -1.0480 -2.7009
   79SOL    HW2  237   1.945   1.219   1.782  1.4363  0.8662 -1.1760
   80SOL     OW  238   0.963   0.492   1.556  0.1743 -0.0676  0.0874
   80SOL    HW1  239   0.974   0.544   1.469 -0.6018  1.8023  0.5847
   80SOL    HW2  240   0.916   0.548   1.625  0.1289 -1.0956  0.3146
   81SOL     OW  241   1.001   2.623   0.799  0.3133  0.5173 -0.1363
   81SOL    HW1  242   1.012   2.665   0.891 -0.6807  2.9214  2.4680
   81SOL    HW2  243   1.084   2.569   0.776 -1.7392  0.7717  0.5849
   82SOL     OW  244   1.310   0.356   1.770 -0.0335  0.0685 -0.5542
   82SOL    HW1  245   1.397   0.368   1.718 -2.1442 -2.9787 -0.2700
   82SOL    HW2  246   1.300   0.260   1.808  0.6330 -0.0599 -1.6234
   83SOL     OW  247   0.359   2.238   0.617  0.0307  0.0561  0.1040
   83SOL    HW1  248   0.298   2.159   0.593  2.9482  2.4611 -0.0951
   83SOL    HW2  249   0.354   2.259   0.716 -1.3922  1.3318  0.6124
   84SOL     OW  250   2.667   1.478   3.026  0.4765 -0.0038 -0.0583
   84SOL    HW1  251   2.748   1.424   2.998 -2.0978 -1.1791 -0.6091
   84SOL    HW2  252   2.684   1.577   3.012  1.2567  2.4750  1.6566
   85SOL     OW  253   2.683   2.439   1.853 -0.5036 -0.0071 -0.5390
   85SOL    HW1  254   2.630   2.360   1.816 -0.5417  0.1331 -2.3392
   85SOL    HW2  255   2.696   2.416   1.957  0.8181 -0.2341  1.3786
   86SOL     OW  256   1.540   2.685   1.179  0.4256 -0.3896 -0.0774
   86SOL    HW1  257   1.619   2.628   1.205  0.4400 -0.9146  1.9148
   86SOL    HW2  258   1.567   2.736   1.093 -0.1257 -3.1671 -1.5883
   87SOL     OW  259   2.780   1.763   0.338  0.9749 -0.4656  0.6631
   87SOL    HW1  260   2.704   1.696   0.312 -4.0447 -5.4174  0.5403
   87SOL    HW2  261   2.846   1.782   0.262 -3.0402  1.8590 -2.2600
   88SOL     OW  262   0.821   0.469   1.138 -0.0563 -0.3532  0.2609
   88SOL    HW1  263   0.724   0.494   1.143  0.2489  2.3412 -1.2041
   88SOL    HW2  264   0.834   0.366   1.134  1.6436  1.9089  3.0337
   89SOL     OW  265   0.796   3.030   1.844 -0.0165 -0.1349  0.0361
   89SOL    HW1  266   0.797   3.107   1.910 -1.6420 -1.0863 -1.2453
   89SOL    HW2  267   0.781   2.944   1.888 -1.0291  2.6018 -1.0386
   90SOL     OW  268   2.996   1.785   1.066 -0.9076 -0.5343  0.1573
   90SOL    HW1  269   3.032   1.812   0.972 -0.1376  0.0603 -3.3026
   90SOL    HW2  270   3.015   1.849   1.143 -2.6923  2.1507  0.6852
   91SOL     OW  271   1.266   1.656   1.102 -0.0339  0.3468 -0.3749
   91SOL    HW1  272   1.320   1.636   1.190 -0.8154 -1.9388 -1.7825
   91SOL    HW2  273   1.211   1.575   1.071  0.2310  1.1779  1.0222
   92SOL     OW  274   2.625   0.070   1.635 -0.5094  0.2589  0.1273
   92SOL    HW1  275   2.559   0.106   1.705 -1.9185  0.7631  2.7201
   92SOL    HW2  276   2.699   0.030   1.692  2.3053 -0.7542  0.6493
   93SOL     OW  277   0.292   1.112   2.761  1.0018 -0.6471  0.4802
   93SOL    HW1  278   0.374   1.075   2.806 -0.2477 -1.0648  1.4403
   93SOL    HW2  279   0.312   1.152   2.668  2.3490 -1.0600  1.2796
   94SOL     OW  280   2.374   3.094   1.935  0.1587  0.6699 -0.3057
   94SOL    HW1  281   2.291   0.002   1.998  0.2494 -2.0722 -0.7896
   94SOL    HW2  282   2.417   0.072   1.903  2.8766  0.0540 -2.1193
   95SOL     OW  283   1.673   0.610   2.002 -1.1186  0.2865 -0.6868
   95SOL    HW1  284   1.582   0.577   2.038  0.6898 -2.3629 -0.2426
   95SOL    HW2  285   1.659   0.681   1.927  2.1496 -0.3062 -2.4334
   96SOL     OW  286   3.016   0.671   1.785  0.5139 -0.1075 -0.3360
   96SOL    HW1  287   3.068   0.668   1.872 -0.8564  0.5043  0.7011
   96SOL    HW2  288   2.922   0.715   1.800 -2.3160  0.2248  0.3994
   97SOL     OW  289   2.154   3.003   1.412  0.2694  0.4606 -0.0207
   97SOL    HW1  290   2.248   3.016   1.446  0.4395  1.9045  0.8673
   97SOL    HW2  291   2.093   2.991   1.496 -0.5197 -1.1417  2.9317
   98SOL     OW  292   2.102   2.522   1.656  0.0889 -0.6275 -0.2354
   98SOL    HW1  293   2.154   2.524   1.743 -4.1069 -1.0045  1.5527
   98SOL    HW2  294   1.999   2.538   1.672 -1.1145 -0.2368  2.4182
   99SOL     OW  295   2.585   0.702   1.718  0.1189 -0.0359  0.4270
   99SOL    HW1  296   2.497   0.675   1.679  0.5819  0.0898 -1.3474
   99SOL    HW2  297   2.593   0.673   1.815 -0.8254  2.2035 -4.2525
  100SOL     OW  298   2.282   1.833   1.887 -0.8151 -0.5616  0.4281
  100SOL    HW1  299   2.228   1.762   1.841 -0.2313  0.6794 -0.6844
  100SOL    HW2  300   2.251   1.861   1.978 -0.7917 -2.8784 -3.4588
  101SOL     OW  301   2.358   0.155   0.007  0.3877 -0.5105  0.2361
  101SOL    HW1  302   2.360   0.066   0.052  0.6355  1.0976 -1.0824
  101SOL    HW2  303   2.277   0.214   0.035  1.6806  0.4351 -0.6930
  102SOL     OW  304   0.693   0.762   1.261  0.6821  0.5303 -0.7204
  102SOL    HW1  305   0.701   0.708   1.350 -0.8684 -1.0649  1.0371
  102SOL    HW2  306   0.653   0.694   1.195  0.5986  1.0764 -0.3010
  103SOL     OW  307   3.009   0.183   2.274  0.5081 -0.1142  0.0191
  103SOL    HW1  308   2.920   0.143   2.241 -4.1823 -1.8071 -0.1487
  103SOL    HW2  309   3.089   0.129   2.245 -1.5037 -0.4950 -1.1560
  104SOL     OW  310   0.207   2.923   1.569  0.3990 -0.2176 -0.0147
  104SOL    HW1  311   0.160   2.836   1.534 -0.2256 -1.6639 -0.4148
  104SOL    HW2  312   0.288   2.898   1.623  0.6323  0.2499  1.2348
  105SOL     OW  313   1.437   1.209   1.988  0.7341 -0.3649  0.4111
  105SOL    HW1  314   1.346   1.242   2.021  1.2156  0.1750  1.4095
  105SOL    HW2  315   1.436   1.180   1.887  0.3814  1.0644 -0.5665
  106SOL     OW  316   1.798   0.499   0.684  0.3529  0.4316  0.2196
  106SOL    HW1  317   1.812   0.542   0.777  0.4854  2.8582  2.2978
  106SOL    HW2  318   1.721   0.538   0.634 -1.4428 -2.2177 -1.9872
  107SOL     OW  319   0.509   0.951   1.405  0.3187  0.2678  0.0962
  107SOL    HW1  320   0.447   0.925   1.486 -0.2692  0.9299  1.5144
  107SOL    HW2  321   0.556   0.877   1.357 -0.4483  2.5497 -1.4869
  108SOL     OW  322   3.084   0.564   2.395  0.0552 -0.3929 -0.3488
  108SOL    HW1  323   3.063   0.531   2.302  2.4514 -0.0641 -3.0470
  108SOL    HW2  324   3.038   0.509   2.469  1.6178 -0.1797  3.1728
  109SOL     OW  325   2.009   0.022   2.780  0.5663  0.0965 -0.6018
  109SOL    HW1  326   2.105   0.021   2.805 -0.7481 -1.9941 -1.8995
  109SOL    HW2  327   1.972   3.033   2.766 -1.8627 -3.0096 -1.8427
  110SOL     OW  328   3.102   1.784   2.953 -0.3993 -0.2884  0.2320
  110SOL    HW1  329   3.018   1.830   2.915 -0.4327 -2.1819  1.4660
  110SOL    HW2  330   0.047   1.844   3.018  0.8079  1.0663  1.2981
  111SOL     OW  331   2.843   0.511   2.626 -0.5149 -0.2449 -0.4798
  111SOL    HW1  332   2.799   0.485   2.712 -2.4941  1.2499 -1.8432
  111SOL    HW2  333   2.899   0.430   2.594  1.0749 -0.9291  1.8770
  112SOL     OW  334   2.912   2.788   1.242 -0.1894  0.2053  0.2897
  112SOL    HW1  335   2.820   2.749   1.213 -0.0602 -0.2752 -2.0615
  112SOL    HW2  336   2.983   2.715   1.243 -0.9170  3.5393 -0.0039
  113SOL     OW  337   2.270   2.124   2.365 -0.7675 -0.0717 -0.6532
  113SOL    HW1  338   2.296   2.220   2.380 -0.4941  0.5888 -0.1374
  113SOL    HW2  339   2.176   2.121   2.325 -0.6894  0.9698  0.9739
  114SOL     OW  340   2.975   0.241   0.322  0.6690 -0.0034 -0.5201
  114SOL    HW1  341   2.955   0.144   0.346 -3.5849 -0.3865 -1.2674
  114SOL    HW2  342   2.967   0.308   0.400  0.5303 -3.6674  2.3476
  115SOL     OW  343   2.771   1.730   3.054 -0.2552 -0.2230 -0.0117
  115SOL    HW1  344   2.845   1.735   0.016 -1.4844 -1.8585 -2.1454
  115SOL    HW2  345   2.797   1.779   2.971  0.4697 -2.3671  2.5533
  116SOL     OW  346   0.060   1.415   2.030  0.1889  0.0497  0.1949
  116SOL    HW1  347   0.041   1.433   1.934 -0.0025 -1.3815 -0.1451
  116SOL    HW2  348   0.054   1.313   2.052 -3.0702 -1.5856 -2.1020
  117SOL     OW  349   2.147   0.108   1.022 -0.5579  0.2531 -0.1835
  117SOL    HW1  350   2.075   0.053   0.977  0.3176  1.4895 -0.3304
  117SOL    HW2  351   2.125   0.122   1.118 -2.0227 -0.6616 -2.1192
  118SOL     OW  352   2.942   2.324   2.019  0.0443 -0.0918  0.0979
  118SOL    HW1  353   2.885   2.273   1.950  2.0957 -0.8540 -0.7907
  118SOL    HW2  354   3.017   2.371   1.969  0.3532  1.4611 -0.7672
  119SOL     OW  355   0.768   1.699   1.326  0.2972  0.5584  0.3369
  119SOL    HW1  356   0.832   1.761   1.373  0.0971 -3.3411  1.4572
  119SOL    HW2  357   0.673   1.713   1.357 -1.3867  4.1465 -1.8240
  120SOL     OW  358   0.293   1.601   1.291 -0.2414  0.5024 -0.1035
  120SOL    HW1  359   0.212   1.541   1.291  1.1222 -0.0074  1.0406
  120SOL    HW2  360   0.312   1.652   1.206 -1.0053 -0.6567  1.1336
  121SOL     OW  361   1.895   1.305   0.922  0.1491 -0.5312  0.3021
  121SOL    HW1  362   1.860   1.350   0.841  0.3392 -0.2877 -0.0380
  121SOL    HW2  363   1.843   1.349   0.997  1.2341 -0.7529 -3.2988
  122SOL     OW  364   1.883   1.886   2.719 -0.2856  0.2095  0.2377
  122SOL    HW1  365   1.867   1.820   2.647 -0.3166  0.6489  0.1454
  122SOL    HW2  366   1.929   1.974   2.693 -0.8762  0.7909 -1.7088
  123SOL     OW  367   2.949   3.077   0.346 -0.1857  0.1569 -0.8538
  123SOL    HW1  368   3.046   3.051   0.369  1.6410  1.0029 -2.6205
  123SOL    HW2  369   2.884   3.048   0.420 -0.5971  2.7890  1.3512
  124SOL     OW  370   0.985   1.312   0.451 -0.2714  0.3153 -0.4424
  124SOL    HW1  371   0.914   1.272   0.510  1.4508  4.0044 -0.6294
  124SOL    HW2  372   1.009   1.403   0.491 -1.5999 -1.7745 -0.7969
  125SOL     OW  373   0.249   1.487   2.354  0.8361 -0.1767  0.0588
  125SOL    HW1  374   0.321   1.559   2.362  0.7043  1.7600  0.5407
  125SOL    HW2  375   0.274   1.416   2.287  2.7186 -0.5618 -0.4346
  126SOL     OW  376   0.136   2.515   0.137 -0.1681 -0.2569 -0.6307
  126SOL    HW1  377   0.104   2.512   0.233 -2.2002  0.1334 -0.0805
  126SOL    HW2  378   0.181   2.609   0.125  2.0154  1.9506  0.7937
  127SOL     OW  379   2.855   1.737   0.588 -0.1130 -0.0263 -0.4070
  127SOL    HW1  380   2.806   1.735   0.496 -0.7790  1.3166 -1.4717
  127SOL    HW2  381   2.817   1.662   0.647  1.4394 -0.7281 -0.3346
  128SOL     OW  382   1.202   1.065   0.632  0.0393 -0.5430 -0.2277
  128SOL    HW1  383   1.205   1.162   0.672  3.4307  2.4216 -1.6268
  128SOL    HW2  384   1.272   1.007   0.676 -1.7675  0.9283 -1.3252
  129SOL     OW  385   2.242   2.137   1.122 -0.5210  0.0290  0.0758
  129SOL    HW1  386   2.221   2.068   1.051  1.9701  0.4249  0.6774
  129SOL    HW2  387   2.230   2.098   1.216  0.3972  1.5944  0.1106
  130SOL     OW  388   2.028   0.970   0.869  0.0879 -0.0574 -0.1442
  130SOL    HW1  389   1.962   0.996   0.937  3.1608 -0.1629  0.1850
  130SOL    HW2  390   2.097   1.042   0.851 -0.7718 -1.8609  0.1948
  131SOL     OW  391   3.034   1.272   2.680 -0.1954 -0.0511 -0.1959
  131SOL    HW1  392   2.943   1.270   2.649  5.5569  1.2624  3.0417
  131SOL    HW2  393   3.083   1.190   2.645  3.0897  2.7948  3.0454
  132SOL     OW  394   1.706   1.228   2.073  0.1565 -0.2953  0.7126
  132SOL    HW1  395   1.733   1.166   2.151  1.5133 -0.0198 -0.5417
  132SOL    HW2  396   1.609   1.214   2.045  0.0790  1.6477  0.7924
  133SOL     OW  397   3.031   0.960   0.282  0.1205 -0.6143 -0.3331
  133SOL    HW1  398   3.017   0.870   0.325 -0.4566 -2.1829 -0.4582
  133SOL    HW2  399   0.012   1.005   0.302 -0.7593 -0.3943  2.8100
  134SOL     OW  400   2.732   0.863   0.408  0.2651 -0.2901  0.4321
  134SOL    HW1  401   2.747   0.830   0.316 -0.6419  0.5169  3.3104
  134SOL    HW2  402   2.691   0.959   0.390 -0.5116 -0.9553  0.3926
  135SOL     OW  403   1.507   0.863   3.055 -0.2610 -0.0737 -0.1255
  135SOL    HW1  404   1.550   0.844   2.963 -0.8436 -0.5668 -1.5732
  135SOL    HW2  405   1.576   0.851   0.019 -1.6836 -1.1075  1.0621
  136SOL     OW  406   1.841   1.926   1.592  0.4374  0.2659  0.3714
  136SOL    HW1  407   1.827   1.826   1.603  0.7961 -0.5848  0.2277
  136SOL    HW2  408   1.884   1.943   1.500 -2.4419  2.4891  0.1408
  137SOL     OW  409   2.520   2.584   0.574 -0.3399  0.1442  0.5374
  137SOL    HW1  410   2.515   2.537   0.663  1.1192  0.8245 -0.3652
  137SOL    HW2  411   2.457   2.537   0.506  0.3957 -4.0804  1.7273
  138SOL     OW  412   2.395   0.523   1.554 -0.1367  0.0289 -0.1119
  138SOL    HW1  413   2.323   0.493   1.619  0.8264  0.5501  0.5431
  138SOL    HW2  414   2.464   0.447   1.537 -1.8998  0.5550 -2.5157
  139SOL     OW  415   2.587   0.188   2.500 -0.6698 -0.4295 -0.1472
  139SOL    HW1  416   2.538   0.226   2.578  1.0614 -0.8166 -2.3167
  139SOL    HW2  417   2.657   0.124   2.541  0.8093 -0.6902  0.2435
  140SOL     OW  418   1.155   1.819   2.036  0.3466 -0.0781  0.1235
  140SOL    HW1  419   1.174   1.891   2.106  3.7731  1.0641  1.1528
  140SOL    HW2  420   1.244   1.790   1.993  0.4482  2.3433  0.7931
  141SOL     OW  421   0.990   0.696   2.426  0.0795 -0.2692 -0.0063
  141SOL    HW1  422   1.017   0.772   2.488 -0.0043  1.3753  2.0002
  141SOL    HW2  423   0.932   0.727   2.350 -1.9620 -0.6449 -1.5197
  142SOL     OW  424   2.748   2.621   2.716 -0.3734  0.2403  0.4312
  142SOL    HW1  425   2.711   2.677   2.790  0.8454 -0.2438  1.0198
  142SOL    HW2  426   2.712   2.528   2.724  0.6527  0.3442  1.6031
  143SOL     OW  427   0.942   2.088   0.422  0.2313 -0.1494  0.3353
  143SOL    HW1  428   1.042   2.075   0.428 -0.7300  1.9152  0.2070
  143SOL    HW2  429   0.896   2.036   0.495  1.0234 -1.2417 -2.6633
  144SOL     OW  430   1.377   2.632   0.032  0.0183  0.2236 -0.0480
  144SOL    HW1  431   1.306   2.595   3.085  2.2826  1.3793 -0.8251
  144SOL    HW2  432   1.329   2.683   0.105 -0.4215  1.1937 -2.0788
  145SOL     OW  433   1.653   2.013   2.654  0.5857  0.2616 -0.1706
  145SOL    HW1  434   1.745   1.967   2.670  1.0714  1.1514  0.1233
  145SOL    HW2  435   1.630   2.003   2.559 -0.9467 -0.8939 -0.1073
  146SOL     OW  436   2.514   3.069   2.805  0.6046  0.0052 -0.0039
  146SOL    HW1  437   2.591   3.058   2.873 -1.7233  3.7352  0.6816
  146SOL    HW2  438   2.514   2.985   2.751  0.5634  2.4679  1.1012
  147SOL     OW  439   2.691   1.158   1.074  0.8959 -0.2356 -0.2110
  147SOL    HW1  440   2.737   1.218   1.143 -3.6578 -2.2902 -2.5985
  147SOL    HW2  441   2.624   1.222   1.028  1.0076 -1.6284  3.5885
  148SOL     OW  442   2.257   2.753   0.139  0.4943 -0.0691  0.3610
  148SOL    HW1  443   2.242   2.745   0.235 -0.9172  3.1566 -2.2519
  148SOL    HW2  444   2.170   2.769   0.086  0.4941 -0.6741  0.0007
  149SOL     OW  445   0.562   1.715   2.744  0.4462  0.4191  0.3949
  149SOL    HW1  446   0.475   1.721   2.690  0.8698 -2.9074 -2.6782
  149SOL    HW2  447   0.617   1.638   2.707 -3.4255 -1.0719  0.6465
  150SOL     OW  448   0.380   2.417   0.417  0.2646  0.0380 -0.3097
  150SOL    HW1  449   0.463   2.466   0.451  0.1177 -0.4252  1.3566
  150SOL    HW2  450   0.356   2.333   0.476  1.6766 -1.2172  0.6399
  151SOL     OW  451   0.373   1.111   0.284  0.2416 -0.2093  0.2112
  151SOL    HW1  452   0.424   1.030   0.322  1.6312  0.5712  2.3727
  151SOL    HW2  453   0.395   1.130   0.188 -0.5796  1.9534 -0.3197
  152SOL     OW  454   2.721   2.262   0.474 -0.6205 -0.1839  0.3433
  152SOL    HW1  455   2.777   2.176   0.456 -2.1366 -2.6997 -0.8783
  152SOL    HW2  456   2.627   2.233   0.489 -2.5624  0.2520 -0.2401
  153SOL     OW  457   1.876   2.271   0.676 -0.3649 -0.4333 -0.3424
  153SOL    HW1  458   1.857   2.273   0.776 -1.4485 -0.3640  0.7631
  153SOL    HW2  459   1.797   2.229   0.622 -1.4273 -1.1458  0.7570
  154SOL     OW  460   0.868   2.634   1.281 -0.4829 -0.5167  0.9006
  154SOL    HW1  461   0.810   2.553   1.260 -0.1773  0.6442 -0.6852
  154SOL    HW2  462   0.816   2.720   1.273  2.9048 -0.1665  1.6045
  155SOL     OW  463   2.711   1.957   0.722 -0.2681 -0.0854  0.4232
  155SOL    HW1  464   2.639   2.023   0.688  0.0583 -1.4390  1.2629
  155SOL    HW2  465   2.748   1.896   0.648  1.9211  2.6577  1.3403
  156SOL     OW  466   2.839   2.308   2.897 -0.3769  0.3039  0.2134
  156SOL    HW1  467   2.809   2.356   2.981  0.1821 -0.4251 -0.3108
  156SOL    HW2  468   2.770   2.317   2.821 -0.2482 -1.9268  1.1126
  157SOL     OW  469   0.478   2.131   1.590  0.6703  0.6401  0.2070
  157SOL    HW1  470   0.523   2.219   1.594 -3.0644  0.1098 -1.3079
  157SOL    HW2  471   0.385   2.149   1.555 -0.5419  0.3293 -2.6832
  158SOL     OW  472   1.517   0.335   0.339  0.2954 -0.4581  0.1127
  158SOL    HW1  473   1.570   0.335   0.424  2.0104  0.5557 -0.1583
  158SOL    HW2  474   1.576   0.341   0.258 -0.8207 -0.5801  1.4275
  159SOL     OW  475   1.465   0.587   0.145  0.3990 -0.0528  0.1001
  159SOL    HW1  476   1.520   0.587   0.056  1.5806 -0.4084  0.8981
  159SOL    HW2  477   1.419   0.499   0.161  0.3467  1.3387 -0.9582
  160SOL     OW  478   0.756   1.475   0.673  0.2706 -0.4853  0.2546
  160SOL    HW1  479   0.786   1.437   0.756  1.7636 -0.4268 -2.6864
  160SOL    HW2  480   0.655   1.483   0.682  0.8964  0.6321  1.4992
  161SOL     OW  481   0.022   2.518   2.613  0.8575  0.4071  0.1990
  161SOL    HW1  482   3.103   2.421   2.587  0.3838 -1.5593 -0.9839
  161SOL    HW2  483   0.116   2.515   2.645 -1.9078  0.9813  3.9203
  162SOL     OW  484   0.189   2.282   1.265  0.0479 -0.4326  0.0685
  162SOL    HW1  485   0.230   2.375   1.238 -1.0895  2.9265  1.1330
  162SOL    HW2  486   0.084   2.287   1.282 -2.2705  2.5697 -0.4812
  163SOL     OW  487   0.207   0.681   2.961  0.2786  0.5695  0.1626
  163SOL    HW1  488   0.198   0.717   2.864 -1.8437  0.6275 -0.6754
  163SOL    HW2  489   0.120   0.644   2.996 -0.1005 -0.3803  0.7894
  164SOL     OW  490   0.292   3.048   2.517  0.3155 -0.0690  0.3312
  164SOL    HW1  491   0.385   3.016   2.546 -0.5155  1.8231  0.0117
  164SOL    HW2  492   0.226   2.969   2.506 -1.7818  0.2651 -0.6202
  165SOL     OW  493   2.524   1.041   1.690 -0.3779 -0.5296 -0.4932
  165SOL    HW1  494   2.540   1.041   1.590 -0.0917 -0.2332 -0.2490
  165SOL    HW2  495   2.429   0.998   1.700 -1.1716 -2.2848  0.4501
  166SOL     OW  496   1.998   2.067   1.389 -0.3810 -0.2350  0.2136
  166SOL    HW1  497   2.045   2.116   1.466 -0.1313  0.6592  1.3366
  166SOL    HW2  498   1.950   2.138   1.337  0.0688  2.9721 -0.3609
  167SOL     OW  499   0.742   1.034   2.375 -0.4923 -0.6459 -0.7331
  167SOL    HW1  500   0.824   1.037   2.313 -0.6043  0.4931 -0.7357
  167SOL    HW2  501   0.758   1.089   2.459 -0.3949 -1.7939 -0.3745
  168SOL     OW  502   2.163   0.042   2.089  0.5107 -0.4356 -0.3137
  168SOL    HW1  503   2.174   3.089   2.169  0.0648 -1.0476  2.3126
  168SOL    HW2  504   2.073   0.025   2.048 -0.0259  1.4701  0.4152
  169SOL     OW  505   0.213   0.817   0.424 -0.3934 -0.4729 -0.2826
  169SOL    HW1  506   0.297   0.763   0.428  0.3093  3.2213 -1.5763
  169SOL    HW2  507   0.194   0.831   0.324 -0.1161  1.5156  0.5204
  170SOL     OW  508   0.474   1.496   1.692  0.2522  0.5457  0.0947
  170SOL    HW1  509   0.404   1.444   1.638  0.0005  1.5209 -1.2010
  170SOL    HW2  510   0.566   1.492   1.644  1.8840  0.5586 -1.1268
  171SOL     OW  511   1.053   2.090   1.580  0.5264 -0.1881  0.1234
  171SOL    HW1  512   0.964   2.118   1.628 -2.0724  0.5348  0.1155
  171SOL    HW2  513   1.113   2.168   1.546  1.0822 -1.9348 -0.2322
  172SOL     OW  514   1.278   2.740   1.936 -0.0479  0.5984  0.1554
  172SOL    HW1  515   1.205   2.810   1.948 -1.0095  1.2080  2.3344
  172SOL    HW2  516   1.288   2.687   2.022  0.2798 -0.0413  0.5207
  173SOL     OW  517   1.276   2.482   0.646  0.1375 -0.2016  0.6900
  173SOL    HW1  518   1.238   2.385   0.635 -0.8272 -1.3319  1.1305
  173SOL    HW2  519   1.304   2.494   0.740  0.6423  1.8790 -0.6318
  174SOL     OW  520   2.438   3.104   0.365  0.1463 -0.3152  0.2553
  174SOL    HW1  521   2.423   3.062   0.457 -1.5222  1.2728 -0.4398
  174SOL    HW2  522   2.380   0.079   0.355  0.9038 -0.3749  0.6266
  175SOL     OW  523   1.017   1.528   0.570  0.1164  0.1228  0.6018
  175SOL    HW1  524   1.075   1.561   0.643  0.5001 -0.9635 -2.9288
  175SOL    HW2  525   0.921   1.534   0.596  0.9202  0.0369 -0.3122
  176SOL     OW  526   0.663   1.741   0.463  0.5857 -0.2149 -0.1370
  176SOL    HW1  527   0.650   1.820   0.405  0.2416 -1.1658  0.4433
  176SOL    HW2  528   0.621   1.658   0.422  0.7621  0.3054 -0.8524
  177SOL     OW  529   1.186   1.128   1.418 -0.0783  0.0581 -0.0750
  177SOL    HW1  530   1.191   1.203   1.488 -0.4497  1.1931 -1.6035
  177SOL    HW2  531   1.277   1.076   1.411 -0.8825 -1.2268 -0.0759
  178SOL     OW  532   2.446   1.886   0.387 -0.5413 -0.2781  0.4376
  178SOL    HW1  533   2.401   1.927   0.307  3.4661  1.2887  2.2916
  178SOL    HW2  534   2.421   1.787   0.388 -1.0149  2.1565  0.5300
  179SOL     OW  535   1.136   2.494   3.096  0.0979  0.0068  0.1552
  179SOL    HW1  536   1.080   2.509   3.013  0.3257  0.7174  0.4386
  179SOL    HW2  537   1.161   2.398   3.103 -0.9583 -0.8414  0.0501
  180SOL     OW  538   2.085   1.576   2.101 -0.4986  0.2655  0.1628
  180SOL    HW1  539   2.137   1.512   2.044  0.1652  1.0628  2.5096
  180SOL    HW2  540   2.053   1.656   2.048  1.0279  2.1154  0.5532
  181SOL     OW  541   1.014   0.842   2.666 -0.4703 -0.0505 -0.4547
  181SOL    HW1  542   0.984   0.796   2.747  2.4111  0.6656 -3.8540
  181SOL    HW2  543   1.074   0.924   2.684  2.0031 -0.9638 -0.8573
  182SOL     OW  544   2.830   1.449   2.300  0.2642  0.6490  0.0622
  182SOL    HW1  545   2.769   1.448   2.379  1.0030  0.1822  0.6834
  182SOL    HW2  546   2.913   1.500   2.315 -2.0055 -1.2029 -1.5523
  183SOL     OW  547   1.429   0.416   2.310 -0.1492 -0.0126 -0.1483
  183SOL    HW1  548   1.329   0.423   2.340 -1.7834 -1.0600  1.1141
  183SOL    HW2  549   1.439   0.458   2.219  2.5799 -2.6887  1.8521
  184SOL     OW  550   0.586   0.596   1.960 -0.4715 -0.2720 -0.0148
  184SOL    HW1  551   0.613   0.688   1.991 -0.4932 -3.9713 -3.0616
  184SOL    HW2  552   0.588   0.600   1.860  0.5051  0.0643  1.4699
  185SOL     OW  553   2.187   1.789   0.572 -0.4452  0.2679  0.6067
  185SOL    HW1  554   2.254   1.839   0.625 -0.3306 -2.7995  0.1018
  185SOL    HW2  555   2.157   1.705   0.613  1.9516  1.3513 -0.7257
  186SOL     OW  556   0.184   1.976   0.312 -0.3461  0.4516 -0.3956
  186SOL    HW1  557   0.276   1.965   0.269  3.2176 -1.2599  1.5702
  186SOL    HW2  558   0.148   1.884   0.338  0.6855  2.5184 -1.1535
  187SOL     OW  559   2.018   2.136   0.258 -0.2899  0.1649 -0.1143
  187SOL    HW1  560   2.006   2.229   0.299 -1.2138  2.0045  0.8404
  187SOL    HW2  561   1.968   2.063   0.309  3.6827  0.8935 -0.2219
  188SOL     OW  562   1.018   2.271   1.014 -0.0074 -1.1362  0.6036
  188SOL    HW1  563   1.068   2.191   1.048 -2.6354  1.7511 -1.2855
  188SOL    HW2  564   0.939   2.288   1.080 -2.2573 -0.8175  3.3884
  189SOL     OW  565   2.234   1.239   2.782  0.2282  0.5294  0.2702
  189SOL    HW1  566   2.172   1.314   2.763  0.7601 -3.3214  1.5560
  189SOL    HW2  567   2.326   1.276   2.806  1.2182 -2.2235  0.6891
  190SOL     OW  568   1.110   2.248   2.063 -0.5423 -0.0077 -0.1785
  190SOL    HW1  569   1.042   2.201   2.002 -2.4202 -0.1736  1.2737
  190SOL    HW2  570   1.117   2.203   2.152  0.1113 -0.4321 -0.7821
  191SOL     OW  571   2.550   0.980   1.408  0.7260  0.0523  0.2162
  191SOL    HW1  572   2.515   1.003   1.310  1.3358  1.6994 -0.1187
  191SOL    HW2  573   2.577   0.887   1.419 -2.6633  1.2374 -1.2488
  192SOL     OW  574   2.525   0.581   1.958 -0.2949  0.4075  0.4714
  192SOL    HW1  575   2.450   0.520   1.986  0.4061 -0.5826  1.3807
  192SOL    HW2  576   2.510   0.668   2.013 -0.5912  3.8210  2.5565
  193SOL     OW  577   0.674   0.246   0.068 -0.3568 -0.8704 -0.0063
  193SOL    HW1  578   0.700   0.318   0.134  1.6026 -0.2117 -0.5182
  193SOL    HW2  579   0.578   0.216   0.076  0.6850 -2.5528 -1.4187
  194SOL     OW  580   1.126   2.300   1.421 -0.0810 -0.3615  0.5873
  194SOL    HW1  581   1.148   2.258   1.328  0.5638 -3.4311 -2.5259
  194SOL    HW2  582   1.203   2.357   1.455  2.7558  0.1458 -0.8413
  195SOL     OW  583   2.414   1.045   0.540 -0.1695  0.2086 -0.5172
  195SOL    HW1  584   2.444   1.125   0.601 -1.5710  1.8092 -1.9592
  195SOL    HW2  585   2.447   1.061   0.444 -0.8793 -1.0663  2.3009
  196SOL     OW  586   0.800   2.210   1.702  0.1533  0.4071 -0.1553
  196SOL    HW1  587   0.767   2.280   1.642 -0.1365 -1.5399 -0.0117
  196SOL    HW2  588   0.728   2.140   1.733 -2.4793 -0.1987  0.4394
  197SOL     OW  589   0.341   0.798   2.429 -0.3015 -0.5219 -0.3739
  197SOL    HW1  590   0.282   0.883   2.424  0.9101  0.2549 -0.9143
  197SOL    HW2  591   0.292   0.724   2.477  0.5429  0.5769 -0.6098
  198SOL     OW  592   1.623   0.881   0.281 -0.6924  0.0495 -0.0814
  198SOL    HW1  593   1.600   0.799   0.337 -1.4340  0.2660 -2.3809
  198SOL    HW2  594   1.540   0.937   0.274  2.3438 -0.2688  0.0831
  199SOL     OW  595   2.736   0.518   2.166  0.1915  0.1244 -0.1010
  199SOL    HW1  596   2.748   0.559   2.258 -0.5027 -0.1042 -2.4862
  199SOL    HW2  597   2.664   0.563   2.117  2.2735  0.2544 -1.3126
  200SOL     OW  598   2.443   2.750   2.740 -0.0253  0.3580 -0.1031
  200SOL    HW1  599   2.511   2.750   2.817  0.1064  0.7423 -0.4841
  200SOL    HW2  600   2.463   2.813   2.661 -2.7787  2.4169 -2.4414
  201SOL     OW  601   2.547   0.305   1.483 -0.0649 -0.2328  0.1887
  201SOL    HW1  602   2.569   0.228   1.546  0.9387 -0.2844 -1.0036
  201SOL    HW2  603   2.515   0.262   1.398  0.9832 -0.8205  0.9643
  202SOL     OW  604   3.091   2.738   0.303  0.0003 -0.0255 -0.0021
  202SOL    HW1  605   3.039   2.732   0.389 -2.1177 -1.7391 -0.0232
  202SOL    HW2  606   3.036   2.755   0.221 -0.0870 -0.5714  1.9136
  203SOL     OW  607   1.158   2.122   2.834 -0.0657  0.1355 -0.5172
  203SOL    HW1  608   1.063   2.091   2.816 -0.3801 -1.1822  1.3577
  203SOL    HW2  609   1.228   2.053   2.799 -0.4861 -0.4569  0.7508
  204SOL     OW  610   0.741   1.909   2.444 -0.0156  0.3729 -0.3067
  204SOL    HW1  611   0.743   1.952   2.350 -1.2424 -0.2048  0.0052
  204SOL    HW2  612   0.779   1.970   2.522  0.4518 -0.0428 -1.2680
  205SOL     OW  613   1.110   0.934   1.003 -0.0308  0.2374 -0.7416
  205SOL    HW1  614   1.094   0.915   1.101 -1.1277  0.9659  3.0036
  205SOL    HW2  615   1.183   0.877   0.962 -0.8829 -1.7057  1.1733
  206SOL     OW  616   0.143   0.782   2.736 -0.7893 -0.1333 -0.7129
  206SOL    HW1  617   0.042   0.802   2.729 -0.3082 -0.7271 -0.1505
  206SOL    HW2  618   0.167   0.715   2.662 -2.4739  0.6645  1.1935
  207SOL     OW  619   1.687   2.391   1.795  0.3007 -0.5553  0.2001
  207SOL    HW1  620   1.716   2.402   1.892  1.8274  1.2831 -0.8343
  207SOL    HW2  621   1.587   2.366   1.784  1.2655  1.4744  0.5293
  208SOL     OW  622   0.419   2.893   1.295 -0.4768 -0.2379  0.5566
  208SOL    HW1  623   0.356   2.952   1.348 -0.4493 -0.9712 -2.4996
  208SOL    HW2  624   0.362   2.829   1.241  1.0163  3.6992  2.4924
  209SOL     OW  625   1.545   1.325   0.164  0.0695 -0.2109 -0.2263
  209SOL    HW1  626   1.507   1.404   0.216  2.3847 -2.5652  1.1322
  209SOL    HW2  627   1.647   1.326   0.171 -3.1087  2.1613 -0.8385
  210SOL     OW  628   2.376   0.648   0.812 -0.2648  0.2200 -0.0318
  210SOL    HW1  629   2.276   0.665   0.798  1.2717  0.0897 -0.1275
  210SOL    HW2  630   2.404   0.547   0.792  2.4019 -1.7041 -0.6261
  211SOL     OW  631   1.520   2.781   0.325 -0.4437 -0.0366 -0.1886
  211SOL    HW1  632   1.425   2.762   0.303  2.4735  0.5941 -0.8986
  211SOL    HW2  633   1.563   2.829   0.246  2.0842 -2.0885 -2.3862
  212SOL     OW  634   2.123   2.240   0.769  0.3231 -0.2050 -0.3273
  212SOL    HW1  635   2.143   2.313   0.838 -1.3945  2.2055  2.2816
  212SOL    HW2  636   2.025   2.248   0.733 -1.6411  0.6347 -1.4840
  213SOL     OW  637   1.905   0.706   2.738 -0.1626 -0.3799  0.1379
  213SOL    HW1  638   1.962   0.718   2.821  0.2263  0.6059 -0.3265
  213SOL    HW2  639   1.958   0.651   2.669 -0.4843 -1.0349 -0.3825
  214SOL     OW  640   1.011   1.448   1.986  0.6221 -0.1091 -0.8928
  214SOL    HW1  641   1.080   1.401   2.045  1.3268 -1.2243  0.7908
  214SOL    HW2  642   0.984   1.539   2.029 -3.3197 -0.9604  2.7812
  215SOL     OW  643   3.077   1.427   0.817  0.5706  0.0780 -0.3446
  215SOL    HW1  644   0.004   1.478   0.900  0.3887  0.8742  0.8402
  215SOL    HW2  645   2.975   1.408   0.823 -0.4961  0.3639  1.7359
  216SOL     OW  646   0.469   2.538   2.497  0.2761 -0.1265 -0.5425
  216SOL    HW1  647   0.496   2.438   2.485 -1.4399  0.8466  1.6731
  216SOL    HW2  648   0.545   2.603   2.505 -2.2971  2.0169  2.0236
  217SOL     OW  649   2.776   1.162   1.431  0.1738 -0.4114  0.3093
  217SOL    HW1  650   2.687   1.114   1.418  0.5021 -0.5190 -0.8953
  217SOL    HW2  651   2.778   1.252   1.384 -2.1499  0.5738 -3.2929
  218SOL     OW  652   0.924   2.129   1.913 -0.2200  0.4091  0.2245
  218SOL    HW1  653   0.882   2.189   1.838 -3.1166  1.0679 -2.5177
  218SOL    HW2  654   0.934   2.031   1.886 -0.0847 -2.0643  0.6674
  219SOL     OW  655   2.163   1.478   0.273  0.2172  0.0288 -0.1152
  219SOL    HW1  656   2.194   1.442   0.188 -0.3204  1.8605  3.2298
  219SOL    HW2  657   2.113   1.403   0.326 -0.4863 -0.7073 -0.8041
  220SOL     OW  658   2.180   1.006   0.411  0.0110  0.9559  0.0465
  220SOL    HW1  659   2.268   1.027   0.459 -0.8097 -0.5145 -0.8759
  220SOL    HW2  660   2.152   0.913   0.451  0.9275 -2.2537  0.0950
  221SOL     OW  661   2.981   0.680   0.303  0.2187  0.3410 -0.7704
  221SOL    HW1  662   3.046   0.621   0.252 -0.9807  1.4660  2.2833
  221SOL    HW2  663   2.884   0.674   0.272 -2.2560 -2.5183 -1.7865
  222SOL     OW  664   1.507   1.275   0.471 -0.1412 -0.1859  0.2877
  222SOL    HW1  665   1.429   1.280   0.405  0.5229  1.8813  0.4271
  222SOL    HW2  666   1.477   1.278   0.566  0.5285 -0.7754 -2.5345
  223SOL     OW  667   0.974   3.106   2.834 -0.8349  0.4436 -0.8960
  223SOL    HW1  668   0.891   3.107   2.892  0.0609  1.2682  0.3285
  223SOL    HW2  669   0.961   3.101   2.738 -0.9269 -0.0099  1.0244
  224SOL     OW  670   1.026   3.108   1.158 -0.4664  0.4371 -0.1746
  224SOL    HW1  671   1.047   0.029   1.255  0.0148  1.5329  1.1921
  224SOL    HW2  672   1.074   3.020   1.135 -0.7234  0.7329 -1.8903
  225SOL     OW  673   0.013   2.455   1.909 -0.2062 -1.0369  0.5689
  225SOL    HW1  674   0.079   2.433   1.833 -0.3163  0.3617  0.2478
  225SOL    HW2  675   3.079   2.541   1.884  0.3413 -0.8576  0.0031
  226SOL     OW  676   1.164   1.602   0.296  0.3012  0.5383  0.9378
  226SOL    HW1  677   1.109   1.590   0.381  0.9968  0.4792  0.0424
  226SOL    HW2  678   1.122   1.677   0.245 -0.1944  2.7924 -0.6264
  227SOL     OW  679   0.492   1.501   0.918  0.1432 -0.4292 -0.3391
  227SOL    HW1  680   0.568   1.500   0.989  0.5358  2.0261 -0.4513
  227SOL    HW2  681   0.459   1.407   0.895  0.4916  3.1439  1.7751
  228SOL     OW  682   3.068   1.875   0.817  0.2432 -0.0016  0.1914
  228SOL    HW1  683   3.033   1.951   0.758  0.9051 -0.2782  0.7665
  228SOL    HW2  684   0.011   1.809   0.760  0.7553 -0.6644 -1.3426
  229SOL     OW  685   2.483   0.254   2.745 -0.1607 -0.1791 -0.4958
  229SOL    HW1  686   2.397   0.305   2.726  0.1572 -1.5041  0.3824
  229SOL    HW2  687   2.470   0.157   2.775  2.5857  1.9974 -0.4902
  230SOL     OW  688   1.764   1.053   0.947 -0.2365  0.1593 -0.1757
  230SOL    HW1  689   1.802   1.148   0.949 -1.0377 -0.5771 -0.7680
  230SOL    HW2  690   1.664   1.057   0.938 -2.9032 -1.2886 -0.4326
  231SOL     OW  691   1.355   1.613   2.759 -0.1328  0.1081 -0.8638
  231SOL    HW1  692   1.406   1.609   2.670 -1.2189  1.2262  2.2971
  231SOL    HW2  693   1.413   1.627   2.838 -3.0346 -0.6140 -3.4628
  232SOL     OW  694   2.446   2.462   0.808 -1.2231 -0.6600  0.2648
  232SOL    HW1  695   2.508   2.401   0.862  5.3785 -1.3036  2.6593
  232SOL    HW2  696   2.349   2.442   0.818  1.0954  0.3046  1.1345
  233SOL     OW  697   0.699   2.509   0.845  0.0982 -0.5913 -0.7188
  233SOL    HW1  698   0.727   2.597   0.888  0.5662 -0.7460 -1.1419
  233SOL    HW2  699   0.770   2.484   0.777  1.8505 -1.6281 -0.8150
  234SOL     OW  700   0.638   0.568   2.731  0.2119  0.0468  0.1360
  234SOL    HW1  701   0.598   0.635   2.663  0.8024 -0.1462 -0.8155
  234SOL    HW2  702   0.622   0.583   2.830  2.7555  0.8070 -0.5685
  235SOL     OW  703   2.767   0.652   2.395 -0.1556 -0.3780  0.8824
  235SOL    HW1  704   2.783   0.593   2.477  0.7640  0.2913  0.1937
  235SOL    HW2  705   2.823   0.737   2.395 -0.3876 -2.2646 -0.7014
  236SOL     OW  706   1.572   2.805   1.418  0.4840  0.3473 -0.0125
  236SOL    HW1  707   1.558   2.729   1.353 -0.2738 -0.4023  1.9806
  236SOL    HW2  708   1.580   2.766   1.509 -0.6894 -0.5161 -3.5919
  237SOL     OW  709   1.101   1.571   2.441 -0.0377  0.6720  0.3229
  237SOL    HW1  710   1.015   1.611   2.418  2.1994 -2.5612  2.0093
  237SOL    HW2  711   1.085   1.470   2.457 -0.4762 -2.0051 -3.0607
  238SOL     OW  712   1.076   0.270   2.218  0.2292 -0.3552  0.1189
  238SOL    HW1  713   1.098   0.326   2.299 -0.6113 -2.8393 -1.9118
  238SOL    HW2  714   0.978   0.241   2.215  0.7200 -1.1457 -0.6466
  239SOL     OW  715   0.271   2.206   1.990  0.9299 -0.5749  0.0824
  239SOL    HW1  716   0.375   2.193   1.993  1.5710 -0.7532  0.2486
  239SOL    HW2  717   0.245   2.280   2.052  1.2487  1.6582  0.5901
  240SOL     OW  718   2.624   2.848   0.737  0.1087 -0.2946 -0.0047
  240SOL    HW1  719   2.716   2.805   0.723 -1.1489  0.9248 -0.4708
  240SOL    HW2  720   2.562   2.811   0.813 -0.0008 -2.2872  1.1705
  241SOL     OW  721   2.520   1.227   0.716  0.5765  0.8139  0.3507
  241SOL    HW1  722   2.496   1.313   0.672  0.5436 -2.5505 -2.5534
  241SOL    HW2  723   2.509   1.219   0.816 -1.8858 -2.3781 -1.3572
  242SOL     OW  724   1.866   2.464   1.997  0.1699  0.0300 -0.2939
  242SOL    HW1  725   1.949   2.411   2.018 -2.3189 -2.4303  0.0196
  242SOL    HW2  726   1.881   2.544   1.934  0.0787 -0.0714 -0.7852
  243SOL     OW  727   0.620   2.653   1.789  0.4442  0.0647  0.1954
  243SOL    HW1  728   0.614   2.582   1.863 -2.2310 -0.0591  0.5174
  243SOL    HW2  729   0.712   2.662   1.748 -0.9156  0.5999 -1.1911
  244SOL     OW  730   2.302   0.679   2.634  0.0392  0.5161  0.2140
  244SOL    HW1  731   2.244   0.598   2.620  0.8359  0.3659 -0.4631
  244SOL    HW2  732   2.396   0.671   2.590  2.9841 -0.2430 -2.7832
  245SOL     OW  733   1.388   0.161   0.995 -0.4528  0.2850  0.6192
  245SOL    HW1  734   1.403   0.230   0.913 -0.0360 -0.2622 -2.2570
  245SOL    HW2  735   1.291   0.144   1.007  0.2289  1.2296 -2.1379
  246SOL     OW  736   1.830   2.721   0.106 -0.4178 -0.4696 -0.4105
  246SOL    HW1  737   1.910   2.744   0.041  2.6006 -0.3965  0.8491
  246SOL    HW2  738   1.753   2.687   0.051  2.9013 -0.7109  3.3010
  247SOL     OW  739   1.315   0.804   2.248  0.3739 -0.6317  0.8422
  247SOL    HW1  740   1.292   0.815   2.351 -2.8610  0.9262  3.0284
  247SOL    HW2  741   1.361   0.886   2.206 -2.8895  0.6807  1.0381
  248SOL     OW  742   0.204   2.339   1.761 -0.2873 -0.0873 -0.0017
  248SOL    HW1  743   0.205   2.281   1.677 -2.0852  2.8800  0.5056
  248SOL    HW2  744   0.218   2.295   1.849  0.8411 -0.7276 -0.7559
  249SOL     OW  745   2.786   0.397   0.192  0.4166  0.5406  0.5349
  249SOL    HW1  746   2.868   0.345   0.223  1.7340 -2.4679 -3.3650
  249SOL    HW2  747   2.746   0.355   0.109  1.3799  1.7773  0.6861
  250SOL     OW  748   2.782   3.086   2.574  0.5301 -0.7520  0.1521
  250SOL    HW1  749   2.852   3.042   2.636  0.2560  1.2763  3.6216
  250SOL    HW2  750   2.819   3.099   2.482 -0.2340  0.1204  0.0472
  251SOL     OW  751   1.257   0.768   3.067  0.4671 -0.0909 -0.7635
  251SOL    HW1  752   1.270   0.667   3.076  0.4559  2.3379 -2.2876
  251SOL    HW2  753   1.346   0.806   3.090 -3.9366  2.6353 -4.0613
  252SOL     OW  754   1.372   2.076   1.896  0.2006 -0.1053 -0.6393
  252SOL    HW1  755   1.285   2.023   1.889  0.9813  0.4117  0.4646
  252SOL    HW2  756   1.406   2.068   1.992  0.3725  3.2624  0.9891
  253SOL     OW  757   2.218   2.435   1.312 -0.0319  0.2761  0.1809
  253SOL    HW1  758   2.245   2.521   1.363 -1.0023  2.3536  1.4432
  253SOL    HW2  759   2.304   2.408   1.259  2.8517  2.1203  0.4084
  254SOL     OW  760   2.243   1.312   0.621 -0.3542  0.4164  0.0009
  254SOL    HW1  761   2.181   1.289   0.544 -0.1979  1.2406  1.3958
  254SOL    HW2  762   2.214   1.267   0.704 -0.9998 -1.1643  2.0811
  255SOL     OW  763   1.205   2.922   1.210  0.3210  0.0725 -0.3741
  255SOL    HW1  764   1.233   2.825   1.209  1.6695 -0.8803 -3.3626
  255SOL    HW2  765   1.254   2.971   1.280  1.6668 -1.9767 -0.0445
  256SOL     OW  766   1.724   2.176   1.305  0.1326  0.1923 -0.0831
  256SOL    HW1  767   1.799   2.211   1.241  0.3881  1.4763 -1.0527
  256SOL    HW2  768   1.692   2.087   1.273  0.6762  1.0440 -2.8258
  257SOL     OW  769   0.748   2.677   2.536  0.0495  0.4985 -0.4616
  257SOL    HW1  770   0.793   2.727   2.460 -2.2757  0.4814  0.5235
  257SOL    HW2  771   0.727   2.738   2.618 -0.3781  0.1954  2.3118
  258SOL     OW  772   0.827   2.661   0.563 -0.0177  0.2945 -0.1480
  258SOL    HW1  773   0.834   2.743   0.504  1.3407  1.3912  1.3525
  258SOL    HW2  774   0.895   2.661   0.638 -1.4614 -0.1301 -2.6558
  259SOL     OW  775   1.588   0.243   2.753  0.6907  0.0707  0.2104
  259SOL    HW1  776   1.597   0.212   2.852 -0.1078 -0.0265  0.0649
  259SOL    HW2  777   1.577   0.346   2.749 -0.5631  4.0727 -0.9469
  260SOL     OW  778   2.676   0.738   1.450  0.0628 -0.0447  0.3188
  260SOL    HW1  779   2.646   0.661   1.387 -1.5308 -3.5570 -4.6398
  260SOL    HW2  780   2.642   0.720   1.543 -1.1247 -0.9154  0.3899
  261SOL     OW  781   0.843   0.493   2.555 -0.0520  0.1951 -0.0149
  261SOL    HW1  782   0.775   0.537   2.617  2.3048  2.4355 -2.1511
  261SOL    HW2  783   0.906   0.558   2.511 -1.6413  0.4347 -0.3663
  262SOL     OW  784   1.464   2.350   2.233  0.9501  0.8223  0.0522
  262SOL    HW1  785   1.395   2.400   2.168 -1.1201  1.4971  0.5545
  262SOL    HW2  786   1.540   2.408   2.268 -1.0130  0.8872 -1.1593
  263SOL     OW  787   0.582   1.949   2.850 -0.1965  0.5671 -0.2673
  263SOL    HW1  788   0.667   1.977   2.895  0.1718 -0.3174  1.2183
  263SOL    HW2  789   0.594   1.858   2.804  3.0719  1.0742 -0.5137
  264SOL     OW  790   1.206   1.604   0.749 -0.0909 -0.1005 -0.4147
  264SOL    HW1  791   1.182   1.691   0.694  2.5376  0.4387 -1.0929
  264SOL    HW2  792   1.302   1.607   0.770 -1.4931 -0.6198  0.8072
  265SOL     OW  793   1.105   2.618   0.455  0.1282  0.4892 -0.4689
  265SOL    HW1  794   1.011   2.572   0.450 -3.0006 -0.6464  1.6987
  265SOL    HW2  795   1.163   2.568   0.522 -0.7129  0.1785  0.6325
  266SOL     OW  796   1.901   0.590   0.918 -0.4774  0.1438  0.5299
  266SOL    HW1  797   1.974   0.523   0.951  2.9074  0.2460  1.3279
  266SOL    HW2  798   1.860   0.639   0.992  1.9678  1.2742 -0.5754
  267SOL     OW  799   0.105   1.446   2.644 -0.3143  0.4076  0.1745
  267SOL    HW1  800   0.193   1.411   2.615  0.7670  2.4656  1.7775
  267SOL    HW2  801   0.032   1.373   2.653 -1.2975 -0.6477 -0.3469
  268SOL     OW  802   1.620   3.023   0.190  0.4787  0.0298  0.0498
  268SOL    HW1  803   1.718   3.040   0.231 -0.6050  0.1001 -0.4384
  268SOL    HW2  804   1.552   3.079   0.244  0.6884 -1.3868  1.4082
  269SOL     OW  805   2.929   0.749   2.695  0.1389 -0.1036 -0.4513
  269SOL    HW1  806   2.906   0.656   2.663 -1.0665  1.0550  0.7768
  269SOL    HW2  807   2.960   0.806   2.620  0.2897 -0.3153 -0.3165
  270SOL     OW  808   0.021   1.540   0.147  0.2495  0.1426 -0.2577
  270SOL    HW1  809   3.065   1.459   0.152 -1.0870 -0.7440  0.7928
  270SOL    HW2  810   0.101   1.515   0.091  0.4260 -0.0607  0.3805
  271SOL     OW  811   2.770   1.350   2.554  0.1226  0.8099 -0.0257
  271SOL    HW1  812   2.676   1.389   2.542  1.6134  1.2123  1.4843
  271SOL    HW2  813   2.763   1.252   2.527  0.6735 -2.1186 -2.5112
  272SOL     OW  814   2.857   2.621   2.232  0.5829 -0.1283 -0.4200
  272SOL    HW1  815   2.941   2.649   2.279  0.0743  0.5534  0.7966
  272SOL    HW2  816   2.880   2.547   2.167  2.2681 -1.9437  0.2947
  273SOL     OW  817   0.200   2.789   0.522 -0.3149  0.0414  0.2254
  273SOL    HW1  818   0.261   2.870   0.526 -0.8786 -0.8083 -1.8719
  273SOL    HW2  819   0.118   2.811   0.465  1.3836 -1.5275  0.6189
  274SOL     OW  820   0.931   2.314   0.761  0.3763  0.2840 -0.2674
  274SOL    HW1  821   1.003   2.282   0.696 -0.6346  1.8505  1.6555
  274SOL    HW2  822   0.956   2.299   0.858  1.6093  0.6457  0.2389
  275SOL     OW  823   2.401   1.615   0.379 -0.1924  0.1365 -0.1863
  275SOL    HW1  824   2.315   1.568   0.348  0.6396  1.8733  0.0380
  275SOL    HW2  825   2.481   1.601   0.317  0.5285 -0.4690 -2.4355
  276SOL     OW  826   2.571   1.766   1.328 -0.2663  0.0799  0.0376
  276SOL    HW1  827   2.661   1.734   1.357 -1.2138 -0.2612 -1.0601
  276SOL    HW2  828   2.593   1.826   1.246  2.0660  1.0786 -1.6144
  277SOL     OW  829   2.405   0.072   0.940 -0.3414  0.6310  0.0673
  277SOL    HW1  830   2.314   0.087   0.986  1.1934  0.4944  3.3946
  277SOL    HW2  831   2.476   0.110   0.997  1.1385 -2.3996  0.6728
  278SOL     OW  832   1.631   0.282   2.456 -0.0858  0.2586 -0.0561
  278SOL    HW1  833   1.564   0.344   2.412 -0.8188  1.7091  1.1995
  278SOL    HW2  834   1.577   0.224   2.520 -1.3161  0.1263  1.4816
  279SOL     OW  835   1.274   2.663   1.241 -0.1539 -0.2042  0.6079
  279SOL    HW1  836   1.373   2.655   1.235 -0.8846  1.1985  1.4223
  279SOL    HW2  837   1.233   2.588   1.186 -0.7382  2.3662  0.7578
  280SOL     OW  838   0.937   0.960   0.590 -0.3534  0.0659 -0.1027
  280SOL    HW1  839   0.872   1.037   0.576  0.1310  1.1378 -0.1970
  280SOL    HW2  840   1.035   0.999   0.597 -1.8043  0.6073  2.6627
  281SOL     OW  841   2.531   1.456   2.532  0.3259 -0.5944 -0.3066
  281SOL    HW1  842   2.523   1.533   2.596 -1.2295 -2.4850 -1.4660
  281SOL    HW2  843   2.446   1.443   2.482 -1.0663 -0.8834  0.0315
  282SOL     OW  844   3.009   1.310   0.129  0.3567  0.0632  0.0960
  282SOL    HW1  845   2.924   1.263   0.157 -1.4307 -0.3743 -0.9204
  282SOL    HW2  846   3.083   1.254   0.165 -1.9085 -1.3237  1.1226
  283SOL     OW  847   1.785   2.614   2.674 -0.2272 -0.1348  0.4669
  283SOL    HW1  848   1.841   2.615   2.583  5.6255 -1.9745 -3.4535
  283SOL    HW2  849   1.777   2.517   2.709 -0.2268  2.5124  1.4573
  284SOL     OW  850   0.743   0.016   2.971  0.0257 -0.2292  0.4459
  284SOL    HW1  851   0.719   0.095   3.026  0.4403  0.5124 -1.5081
  284SOL    HW2  852   0.708   0.040   2.880 -1.2343 -0.1413  0.1710
  285SOL     OW  853   2.095   1.586   2.538 -0.0681 -0.7818  0.0136
  285SOL    HW1  854   2.108   1.626   2.630  1.3645  2.5022  2.3064
  285SOL    HW2  855   2.102   1.662   2.469 -0.0303  2.4427 -1.1820
  286SOL     OW  856   1.191   2.020   0.787  0.2425  0.6845  0.0548
  286SOL    HW1  857   1.096   1.989   0.820 -0.8509  1.0269  1.0501
  286SOL    HW2  858   1.269   1.992   0.842 -1.4745  1.3995  0.2733
  287SOL     OW  859   1.794   0.215   1.299 -0.1720  0.0108 -0.1080
  287SOL    HW1  860   1.807   0.168   1.387 -1.9823  1.0691 -1.0255
  287SOL    HW2  861   1.844   0.304   1.285 -0.2408  0.5200 -0.7118
  288SOL     OW  862   0.882   2.787   2.329 -0.1488 -1.1700 -0.5498
  288SOL    HW1  863   0.976   2.749   2.334  1.1306  2.1560 -1.6827
  288SOL    HW2  864   0.836   2.752   2.249  2.6638  0.1476  2.4641
  289SOL     OW  865   0.040   1.178   0.649  0.2517  0.5316 -0.0603
  289SOL    HW1  866   0.042   1.268   0.699 -0.1444  1.1991 -0.7404
  289SOL    HW2  867   3.072   1.120   0.685  1.7935 -1.8371 -1.6622
  290SOL     OW  868   1.208   2.141   1.187 -0.4249  0.2630  0.4954
  290SOL    HW1  869   1.308   2.146   1.170 -3.0388 -1.9031  0.2167
  290SOL    HW2  870   1.170   2.047   1.177  2.6669 -0.4558 -1.9348
  291SOL     OW  871   1.815   2.745   0.758  0.0504 -0.2589  0.3187
  291SOL    HW1  872   1.851   2.834   0.737 -0.8434 -4.3001  2.0788
  291SOL    HW2  873   1.767   2.703   0.676 -2.4583  3.4981  0.3233
  292SOL     OW  874   0.515   0.167   2.025 -0.2003  0.1037  0.0417
  292SOL    HW1  875   0.498   0.085   1.961 -0.0501  1.2620 -1.2009
  292SOL    HW2  876   0.525   0.132   2.120 -2.6375  0.4488  0.2878
  293SOL     OW  877   2.413   1.901   0.761  0.0784  0.1652 -0.3117
  293SOL    HW1  878   2.471   1.845   0.820 -0.1642  2.8054  2.2089
  293SOL    HW2  879   2.465   1.971   0.708  1.2012 -1.3273 -2.5714
  294SOL     OW  880   1.050   0.012   2.140 -0.4250  0.0480  0.0622
  294SOL    HW1  881   1.061   0.106   2.171 -1.7232 -2.7169  0.2746
  294SOL    HW2  882   1.103   3.047   2.193 -0.0334 -2.9715  1.0873
  295SOL     OW  883   1.035   1.208   0.968 -0.0720  0.9688  0.2258
  295SOL    HW1  884   1.075   1.236   1.054  2.1532  0.1373 -2.8090
  295SOL    HW2  885   1.047   1.109   0.953 -0.7402 -0.9361 -3.4586
  296SOL     OW  886   2.190   1.980   0.897  0.3668 -0.4384  0.5223
  296SOL    HW1  887   2.277   1.952   0.856 -1.2820 -0.5446 -2.6507
  296SOL    HW2  888   2.149   2.054   0.836 -0.0434  0.1472 -0.2487
  297SOL     OW  889   2.262   0.017   2.880  0.1217  0.0269 -0.3381
  297SOL    HW1  890   2.340   3.103   2.823 -2.9976 -0.8659  0.9281
  297SOL    HW2  891   2.283   0.049   2.975  0.8398  0.6822 -1.6195
  298SOL     OW  892   1.199   0.134   2.613  0.2581  0.0937 -0.4673
  298SOL    HW1  893   1.114   0.086   2.582 -0.2036 -0.0903  1.7287
  298SOL    HW2  894   1.269   0.070   2.642  0.2941 -0.0075 -1.3023
  299SOL     OW  895   1.089   2.948   1.938 -0.0373 -0.1038 -0.5066
  299SOL    HW1  896   1.092   3.009   1.855  1.9958  0.1740  1.1304
  299SOL    HW2  897   1.074   3.004   2.024  2.1027  2.0781  1.6750
  300SOL     OW  898   2.506   0.222   1.863  0.4836 -0.5361 -0.3674
  300SOL    HW1  899   2.576   0.230   1.935 -0.2480 -2.0622  0.0749
  300SOL    HW2  900   2.432   0.294   1.864 -0.2908 -0.4748  1.3121
  301SOL     OW  901   2.218   0.368   1.743  0.0600  0.4682 -0.0917
  301SOL    HW1  902   2.179   0.345   1.835 -0.2449  1.6990  1.0052
  301SOL    HW2  903   2.211   0.292   1.677 -2.2054  0.7428  0.4557
  302SOL     OW  904   0.487   2.489   3.103 -0.4101  0.1817 -0.2478
  302SOL    HW1  905   0.439   2.406   3.077  0.3451  0.3922 -3.6373
  302SOL    HW2  906   0.555   2.473   0.068 -2.0632  1.5425  0.4034
  303SOL     OW  907   1.600   1.915   1.267  0.3422 -0.8678 -0.1755
  303SOL    HW1  908   1.511   1.910   1.316 -2.7108  1.1293  1.6137
  303SOL    HW2  909   1.637   1.821   1.269  1.5579  2.7702 -0.1793
  304SOL     OW  910   0.152   0.634   1.067 -0.3322  0.0548 -0.6492
  304SOL    HW1  911   0.172   0.718   1.122 -0.2189  0.6271  3.5856
  304SOL    HW2  912   0.087   0.659   0.992 -1.1581  0.0524  2.4390
  305SOL     OW  913   0.891   0.744   0.802  0.8074  0.1254 -0.0456
  305SOL    HW1  914   0.850   0.816   0.864 -1.4148 -0.4022  1.3502
  305SOL    HW2  915   0.913   0.783   0.708  0.3905 -1.7773 -2.1173
  306SOL     OW  916   0.479   1.027   2.897  0.6451 -0.6893 -0.1303
  306SOL    HW1  917   0.549   0.976   2.847  1.3243 -0.1196 -0.9158
  306SOL    HW2  918   0.440   0.974   2.974 -0.8630 -0.1588  1.2233
  307SOL     OW  919   1.098   0.250   1.602 -0.1496  0.1043 -0.3575
  307SOL    HW1  920   1.019   0.307   1.587  2.7233 -1.4655  0.7931
  307SOL    HW2  921   1.161   0.292   1.670 -1.2247 -1.9032  0.7809
  308SOL     OW  922   0.427   0.832   0.997  0.3460 -0.4867  0.0604
  308SOL    HW1  923   0.406   0.876   0.911  1.9568  1.1035  1.5307
  308SOL    HW2  924   0.356   0.851   1.069 -2.9438  1.4011 -0.6086
  309SOL     OW  925   2.407   0.910   0.811  0.1448 -0.3647  0.1942
  309SOL    HW1  926   2.383   0.813   0.802  0.1691  3.2474  0.5548
  309SOL    HW2  927   2.363   0.960   0.735  0.4504 -0.4141  0.8404
  310SOL     OW  928   0.953   1.342   3.040 -0.0823 -0.0729  0.0085
  310SOL    HW1  929   1.054   1.355   3.048  1.8197 -0.8967  2.4860
  310SOL    HW2  930   0.933   1.244   3.013  0.2855 -1.5245 -1.7317
  311SOL     OW  931   2.461   2.664   2.275  0.1712  0.4569  0.2865
  311SOL    HW1  932   2.543   2.680   2.330  1.0511  1.3991 -1.9370
  311SOL    HW2  933   2.387   2.619   2.330 -0.9203  0.7926 -1.3678
  312SOL     OW  934   2.028   2.330   3.067  0.4108 -0.2231  0.3383
  312SOL    HW1  935   2.127   2.351   3.080  1.1445  0.5115 -1.2728
  312SOL    HW2  936   1.977   2.346   0.047  1.3870 -0.1842 -1.6750
  313SOL     OW  937   0.203   0.054   0.121  0.1174  0.1262  0.2184
  313SOL    HW1  938   0.265   0.139   0.107 -0.7608 -0.8152 -0.2351
  313SOL    HW2  939   0.248   3.091   0.070 -1.3316  0.4926  3.4929
  314SOL     OW  940   2.485   1.359   2.820 -0.2003 -0.3728  0.1052
  314SOL    HW1  941   2.537   1.422   2.882 -1.3699 -0.9417  2.2834
  314SOL    HW2  942   2.519   1.356   2.727  0.8031  2.0023 -1.8267
  315SOL     OW  943   1.836   0.406   2.043  0.4661 -0.2778 -0.4126
  315SOL    HW1  944   1.857   0.409   2.143 -1.0917  0.5823  2.7010
  315SOL    HW2  945   1.774   0.489   2.018 -0.7195  2.1522 -1.4118
  316SOL     OW  946   2.936   1.066   0.765  0.2628 -0.3125  0.1530
  316SOL    HW1  947   2.932   1.026   0.857  0.2534  0.1520  0.1916
  316SOL    HW2  948   2.932   0.993   0.695 -0.2030  1.6701 -1.3547
  317SOL     OW  949   0.942   2.837   0.145  0.0559  0.0783 -0.6196
  317SOL    HW1  950   0.858   2.852   0.085  0.7100  0.4125  0.3730
  317SOL    HW2  951   0.953   2.741   0.176 -1.7859 -0.8055 -0.1516
  318SOL     OW  952   1.970   2.710   1.435  0.8591  0.1817 -0.6749
  318SOL    HW1  953   1.968   2.658   1.348  0.4562 -0.6075  2.4505
  318SOL    HW2  954   2.038   2.683   1.501  0.6152  1.9092 -0.6710
  319SOL     OW  955   1.027   1.647   2.871 -0.5596  0.1532  0.2604
  319SOL    HW1  956   0.935   1.609   2.889  1.4170 -1.0473 -1.9958
  319SOL    HW2  957   1.068   1.680   2.958 -3.6469 -0.7884  1.0544
  320SOL     OW  958   0.294   1.878   0.785 -0.0781 -0.1406 -0.1229
  320SOL    HW1  959   0.249   1.937   0.715 -0.7894 -1.2938  1.2121
  320SOL    HW2  960   0.391   1.857   0.756  0.3097  0.9081  1.0838
  321SOL     OW  961   1.910   2.713   1.827 -0.3379  0.0557 -0.2272
  321SOL    HW1  962   1.995   2.696   1.881 -0.0133 -1.6903 -0.2002
  321SOL    HW2  963   1.855   2.780   1.877 -0.9553 -1.9973 -1.7398
  322SOL     OW  964   2.359   1.902   2.505 -0.4308 -0.7074 -0.6360
  322SOL    HW1  965   2.359   1.994   2.458 -1.4671 -0.0072  1.3897
  322SOL    HW2  966   2.444   1.855   2.477 -1.7442 -0.1585  1.6844
  323SOL     OW  967   2.270   0.202   0.645  0.2421  0.2350  0.3867
  323SOL    HW1  968   2.311   0.108   0.659 -0.4379  4.2076  0.9439
  323SOL    HW2  969   2.306   0.241   0.556  1.0713  1.2620 -0.7607
  324SOL     OW  970   3.055   2.897   2.239  0.0540 -0.3392 -0.5402
  324SOL    HW1  971   0.031   2.938   2.207  0.1110 -1.6176  2.8247
  324SOL    HW2  972   3.070   2.813   2.288  1.1961  1.4780 -2.5238
  325SOL     OW  973   1.041   0.457   2.774  0.5045 -0.3421 -0.4936
  325SOL    HW1  974   1.131   0.430   2.743  0.2787 -0.7056 -0.0930
  325SOL    HW2  975   0.976   0.474   2.704  1.7642 -1.7507  2.2947
  326SOL     OW  976   2.712   2.452   1.216  0.4042 -0.2856  0.0673
  326SOL    HW1  977   2.728   2.454   1.314 -1.2844 -1.1265 -2.1109
  326SOL    HW2  978   2.695   2.545   1.182  1.7408  0.3201 -1.0809
  327SOL     OW  979   2.369   3.013   0.133  0.1883 -0.4951  0.3186
  327SOL    HW1  980   2.396   3.048   0.222 -1.5920 -0.7946 -2.2535
  327SOL    HW2  981   2.330   2.922   0.150  0.7405  0.8407  0.2146
  328SOL     OW  982   0.368   0.863   1.644  0.4384  0.2328  0.0485
  328SOL    HW1  983   0.442   0.794   1.647  2.2112 -1.6313 -0.8630
  328SOL    HW2  984   0.387   0.933   1.718  3.0047  2.6150  2.5970
  329SOL     OW  985   2.008   0.675   1.381 -0.1722 -0.1552  0.0477
  329SOL    HW1  986   1.998   0.631   1.476 -0.5430  1.8118  1.9938
  329SOL    HW2  987   2.110   0.666   1.364  2.3291 -1.0752 -1.7214
  330SOL     OW  988   0.566   0.604   1.092 -0.0064  0.3522  0.1918
  330SOL    HW1  989   0.564   0.535   1.020 -0.2538 -1.4124  0.6638
  330SOL    HW2  990   0.504   0.678   1.065  2.8155 -0.8000  1.8748
  331SOL     OW  991   0.797   1.372   1.847  0.4983 -0.0607 -0.0040
  331SOL    HW1  992   0.880   1.409   1.895  0.2189 -0.2941  3.5593
  331SOL    HW2  993   0.765   1.434   1.768 -2.2654  1.1588  3.5152
  332SOL     OW  994   2.888   2.565   1.682  0.3674 -0.1069  0.1935
  332SOL    HW1  995   2.950   2.625   1.738  0.2043 -0.8488  4.0995
  332SOL    HW2  996   2.819   2.526   1.746  0.3549 -0.2711 -0.6694
  333SOL     OW  997   0.038   2.892   1.125  0.6684  0.5527 -0.6505
  333SOL    HW1  998   0.009   2.882   1.028 -0.5365  0.5651  1.1857
  333SOL    HW2  999   3.062   2.871   1.180 -2.4657  0.2771  0.0945
  334SOL     OW 1000   0.117   1.130   0.354  0.6613 -0.0583 -0.5890
  334SOL    HW1 1001   0.085   1.212   0.409 -1.9906  3.1985  2.5275
  334SOL    HW2 1002   0.218   1.118   0.349 -2.0212 -1.6485 -0.2146
  335SOL     OW 1003   0.694   2.702   3.002  0.7583 -0.3793  0.1608
  335SOL    HW1 1004   0.611   2.648   3.022 -2.4825 -0.7364  0.5146
  335SOL    HW2 1005   0.699   2.785   3.058  0.2711  0.4983 -1.5897
  336SOL     OW 1006   2.922   2.922   2.001 -0.3533 -0.3827  0.2582
  336SOL    HW1 1007   2.971   2.930   2.089  0.2854  3.4746  1.0859
  336SOL    HW2 1008   2.836   2.872   2.012  3.4887 -2.0243 -3.2277
  337SOL     OW 1009   1.486   1.868   1.729  0.3932  0.1314 -0.1572
  337SOL    HW1 1010   1.394   1.907   1.751  0.2614 -0.2569 -1.0999
  337SOL    HW2 1011   1.557   1.936   1.758 -0.8761 -1.2808  1.4261
  338SOL     OW 1012   0.870   0.206   2.574  0.1074 -0.7892  0.2641
  338SOL    HW1 1013   0.876   0.313   2.591 -0.7746  3.9392 -2.0705
  338SOL    HW2 1014   0.859   0.180   2.474  1.0397 -0.8063 -0.1438
  339SOL     OW 1015   0.465   1.115   2.333  0.3898  0.4587  0.3936
  339SOL    HW1 1016   0.443   1.184   2.260  0.8820  1.7795 -0.8287
  339SOL    HW2 1017   0.559   1.074   2.311 -1.6394 -2.2617  2.0724
  340SOL     OW 1018   2.091   0.397   1.002  0.2458 -0.3295  0.0959
  340SOL    HW1 1019   2.116   0.307   0.965 -0.6817  1.4127 -1.7482
  340SOL    HW2 1020   2.171   0.448   1.039  0.8362 -1.5595 -1.6714
  341SOL     OW 1021   2.144   1.212   0.847 -0.0810 -0.6851  0.2591
  341SOL    HW1 1022   2.064   1.268   0.873  1.9473 -1.1806  0.7012
  341SOL    HW2 1023   2.204   1.212   0.923 -2.1904  1.2420 -0.7826
  342SOL     OW 1024   2.018   2.524   2.874  0.2106  0.2048  0.7349
  342SOL    HW1 1025   2.035   2.449   2.941  0.8007  1.9419 -3.4145
  342SOL    HW2 1026   1.921   2.535   2.847  2.2560 -0.7942  0.0540
  343SOL     OW 1027   0.650   2.417   1.550 -0.2740 -0.0141 -0.1671
  343SOL    HW1 1028   0.692   2.507   1.574  0.9744 -0.1266 -1.3698
  343SOL    HW2 1029   0.568   2.409   1.614  1.5241  0.7272 -0.4410
  344SOL     OW 1030   2.455   2.781   1.354 -0.0237 -0.0551  0.5540
  344SOL    HW1 1031   2.405   2.742   1.430  2.0054  2.9636 -4.2615
  344SOL    HW2 1032   2.472   2.883   1.358 -0.5225 -1.1507 -0.0518
  345SOL     OW 1033   2.323   2.238   3.043  0.4237 -0.3788  0.2706
  345SOL    HW1 1034   2.392   2.186   3.096 -0.6821 -1.1770  1.7172
  345SOL    HW2 1035   2.244   2.179   3.014  1.4999  2.1283  0.6401
  346SOL     OW 1036   1.392   2.098   1.532 -0.0224 -0.2217  0.4098
  346SOL    HW1 1037   1.334   2.033   1.470 -1.9044 -2.1784 -2.9240
  346SOL    HW2 1038   1.446   2.046   1.598 -0.1812  0.5441  0.0978
  347SOL     OW 1039   0.998   1.718   1.634 -0.3653 -0.6064 -0.4602
  347SOL    HW1 1040   0.996   1.793   1.561 -2.0487 -0.5447 -1.6417
  347SOL    HW2 1041   0.988   1.626   1.596 -1.2636  1.2978 -1.2777
  348SOL     OW 1042   0.094   2.003   1.883 -0.6007  0.5923 -0.6958
  348SOL    HW1 1043   0.157   1.922   1.889 -0.5140  0.4076  1.3872
  348SOL    HW2 1044   0.128   2.081   1.935 -0.6419 -1.8009 -1.7721
  349SOL     OW 1045   1.715   1.652   1.354  0.1445  0.4465 -0.5501
  349SOL    HW1 1046   1.726   1.552   1.346 -4.6175 -1.1393 -1.4780
  349SOL    HW2 1047   1.805   1.700   1.350 -1.9958  3.9697 -0.5465
  350SOL     OW 1048   2.319   2.284   0.590 -0.0685  0.5045 -1.0284
  350SOL    HW1 1049   2.237   2.273   0.653 -0.7247  0.1695 -0.5322
  350SOL    HW2 1050   2.314   2.369   0.538  0.4092 -0.6637  0.4048
  351SOL     OW 1051   0.648   3.026   1.615  0.1351  0.2295 -0.1970
  351SOL    HW1 1052   0.708   3.016   1.697 -0.3580 -0.3827 -0.1906
  351SOL    HW2 1053   0.705   3.035   1.533 -1.2316 -0.8942  2.5812
  352SOL     OW 1054   0.118   0.965   0.881  0.0083  0.3938 -0.4341
  352SOL    HW1 1055   0.164   0.995   0.793 -0.6765  0.9541  1.7940
  352SOL    HW2 1056   0.125   1.047   0.948  0.1242  3.5572 -0.4021
  353SOL     OW 1057   1.229   1.813   2.490  0.4340  0.2992  0.3106
  353SOL    HW1 1058   1.187   1.721   2.462  0.1256  1.4074  1.6199
  353SOL    HW2 1059   1.333   1.805   2.503  2.2419 -1.4064  2.3566
  354SOL     OW 1060   1.752   2.898   1.998 -0.2747  0.2350 -0.2247
  354SOL    HW1 1061   1.747   2.897   2.099  0.9979 -0.2691  0.7896
  354SOL    HW2 1062   1.664   2.892   1.949  0.5032  0.7148 -0.1468
  355SOL     OW 1063   2.064   1.242   0.024  0.7812 -0.2951  0.0364
  355SOL    HW1 1064   2.116   1.325   3.108  1.0183 -0.5769  0.1164
  355SOL    HW2 1065   1.973   1.237   3.087 -0.5078  1.7321  0.3570
  356SOL     OW 1066   3.068   1.567   1.478 -0.2666  0.5587 -0.5191
  356SOL    HW1 1067   3.098   1.508   1.399  0.0308 -1.1877 -1.6685
  356SOL    HW2 1068   3.066   1.513   1.564  1.3304 -4.0650 -1.0811
  357SOL     OW 1069   0.314   2.523   1.272 -0.4095  0.5446 -0.7686
  357SOL    HW1 1070   0.292   2.600   1.215  2.8744 -2.4537 -0.1907
  357SOL    HW2 1071   0.291   2.534   1.373 -0.6055 -2.8765  1.0799
  358SOL     OW 1072   2.542   1.920   1.571 -0.2474 -0.1024  0.1080
  358SOL    HW1 1073   2.511   1.857   1.645 -1.1919 -0.6700  0.0343
  358SOL    HW2 1074   2.533   1.871   1.484 -0.1433 -0.1531  1.1028
  359SOL     OW 1075   2.159   2.699   2.657  0.2188  0.1065  0.2433
  359SOL    HW1 1076   2.250   2.745   2.677  1.3462  0.4432 -0.1786
  359SOL    HW2 1077   2.133   2.639   2.735  4.4588 -0.1644 -1.8239
  360SOL     OW 1078   1.128   2.939   0.880 -0.2745 -0.1046 -0.4376
  360SOL    HW1 1079   1.225   2.911   0.885 -1.7817 -1.3005 -0.2895
  360SOL    HW2 1080   1.087   2.899   0.794 -1.2839  1.8016 -1.5799
  361SOL     OW 1081   2.142   0.412   0.336 -0.0206 -0.1643  0.3641
  361SOL    HW1 1082   2.089   0.384   0.415  0.7289 -0.5592 -0.4222
  361SOL    HW2 1083   2.189   0.501   0.349  1.9385  3.4886 -0.2993
  362SOL     OW 1084   1.415   0.966   0.794  0.5420  0.4523  0.3698
  362SOL    HW1 1085   1.498   0.923   0.758  2.8868  1.2709  3.4205
  362SOL    HW2 1086   1.435   1.055   0.838 -0.5240 -0.3067  1.2198
  363SOL     OW 1087   2.327   1.163   2.521 -0.3678 -0.1950 -0.1711
  363SOL    HW1 1088   2.286   1.179   2.614  0.0096 -2.2131 -2.8096
  363SOL    HW2 1089   2.288   1.074   2.483 -2.0617  1.7063  0.2356
  364SOL     OW 1090   0.384   0.219   1.169 -0.0830  0.1181  0.3021
  364SOL    HW1 1091   0.287   0.221   1.140  2.2321 -2.9052  0.9050
  364SOL    HW2 1092   0.424   0.125   1.154 -1.0600 -3.4115  0.3042
  365SOL     OW 1093   0.671   0.096   2.714  0.2237 -0.1309 -0.1052
  365SOL    HW1 1094   0.614   0.029   2.666  1.0243  0.1827 -0.0948
  365SOL    HW2 1095   0.741   0.141   2.657 -3.3035  2.2033 -1.4662
  366SOL     OW 1096   2.059   2.115   2.627  0.5242 -0.1895 -0.3151
  366SOL    HW1 1097   2.132   2.044   2.629  0.9026 -3.5925 -1.0753
  366SOL    HW2 1098   2.096   2.208   2.651 -1.3412  1.7554  1.4353
  367SOL     OW 1099   2.823   2.461   0.027 -0.1205 -0.3541 -0.2604
  367SOL    HW1 1100   2.791   2.547   0.074 -0.5984 -0.1986 -0.7910
  367SOL    HW2 1101   2.924   2.449   0.028 -0.6493 -1.3984 -0.8016
  368SOL     OW 1102   2.841   1.375   1.172  0.1386 -0.0565 -0.4613
  368SOL    HW1 1103   2.811   1.407   1.261  0.7166 -0.6486 -0.3117
  368SOL    HW2 1104   2.843   1.448   1.102 -1.8608 -2.5990 -0.3617
  369SOL     OW 1105   0.982   2.991   2.580 -0.5176  0.1531  0.2375
  369SOL    HW1 1106   0.988   2.925   2.657  0.5535 -0.6745  1.7801
  369SOL    HW2 1107   1.060   2.972   2.512  4.3119 -1.4471 -0.1897
  370SOL     OW 1108   2.719   0.209   0.580  0.0823 -0.0558 -0.1371
  370SOL    HW1 1109   2.791   0.273   0.541  1.1313  0.2898  0.2700
  370SOL    HW2 1110   2.625   0.236   0.544 -0.5677 -2.3338 -1.2676
  371SOL     OW 1111   1.487   2.169   1.120  0.3730  0.0433 -0.1458
  371SOL    HW1 1112   1.540   2.179   1.207 -0.8348 -0.3933 -0.3418
  371SOL    HW2 1113   1.514   2.245   1.062 -2.6850 -2.1452  1.0606
  372SOL     OW 1114   2.989   0.926   2.473  0.3129  0.3102  0.0117
  372SOL    HW1 1115   3.024   0.918   2.377  2.4822 -0.4152  0.8170
  372SOL    HW2 1116   3.046   1.003   2.514 -1.4291 -0.7955 -0.7607
  373SOL     OW 1117   2.621   1.793   0.934  0.1359 -0.1252  0.0250
  373SOL    HW1 1118   2.687   1.841   0.870  1.6693  1.1739  1.4704
  373SOL    HW2 1119   2.589   1.861   1.005 -1.0322  1.7365  2.5610
  374SOL     OW 1120   0.571   2.980   2.603 -0.5915 -0.2415  0.1144
  374SOL    HW1 1121   0.605   2.923   2.682  1.9332  1.1088 -1.3164
  374SOL    HW2 1122   0.642   2.984   2.529 -0.2893 -0.3055  1.4043
  375SOL     OW 1123   0.118   3.094   2.747 -0.1011 -0.0457 -0.5169
  375SOL    HW1 1124   0.169   3.086   2.662 -2.1468  2.3011  2.6652
  375SOL    HW2 1125   0.168   3.043   2.820 -1.3894 -0.4446 -0.8582
  376SOL     OW 1126   3.023   2.119   1.725  0.2456  0.7353 -0.2342
  376SOL    HW1 1127   0.009   2.117   1.762  4.1845  0.6704  2.0408
  376SOL    HW2 1128   2.961   2.100   1.803 -1.4132 -0.2506  1.2311
  377SOL     OW 1129   1.773   2.196   2.300  0.0751 -0.0833  0.5850
  377SOL    HW1 1130   1.708   2.119   2.307  0.1309 -0.4348 -1.0528
  377SOL    HW2 1131   1.728   2.286   2.296  0.5093 -1.8488  1.1469
  378SOL     OW 1132   0.541   0.309   2.785  0.6377  0.1925  0.1466
  378SOL    HW1 1133   0.586   0.393   2.748 -0.0239  1.3541 -1.3734
  378SOL    HW2 1134   0.603   0.225   2.777  0.1544 -2.2541  1.0401
  379SOL     OW 1135   0.439   0.668   0.338  0.0752  0.1664  0.3182
  379SOL    HW1 1136   0.495   0.653   0.421 -1.1007  1.3154 -0.1852
  379SOL    HW2 1137   0.487   0.728   0.270 -0.7813 -0.0440 -1.1454
  380SOL     OW 1138   0.316   1.730   1.728 -0.1330 -0.5638  0.2014
  380SOL    HW1 1139   0.347   1.632   1.720 -1.8789 -0.6897 -0.8673
  380SOL    HW2 1140   0.313   1.765   1.822  0.6485 -0.9605  0.3607
  381SOL     OW 1141   0.372   1.035   1.938 -0.5986  0.1746  0.4843
  381SOL    HW1 1142   0.283   0.991   1.946  4.8529 -1.0459  0.0099
  381SOL    HW2 1143   0.386   1.090   1.854  1.2337  0.2225 -0.4074
  382SOL     OW 1144   2.278   2.136   0.308  0.5333  0.2076  0.0111
  382SOL    HW1 1145   2.185   2.156   0.283  2.5242 -1.3987  0.9913
  382SOL    HW2 1146   2.273   2.128   0.410 -1.6762 -0.7480  0.6141
  383SOL     OW 1147   0.333   2.050   2.854 -0.6004  0.3232 -0.0075
  383SOL    HW1 1148   0.308   1.976   2.921 -0.7191  2.3240 -2.3900
  383SOL    HW2 1149   0.431   2.032   2.825  0.5971  0.8079 -1.8524
  384SOL     OW 1150   0.801   2.112   2.842  0.5140  0.0850  0.3576
  384SOL    HW1 1151   0.859   2.112   2.924 -0.0066 -2.6117  1.9142
  384SOL    HW2 1152   0.721   2.175   2.846 -0.7586  0.8071  0.6228
  385SOL     OW 1153   2.510   2.092   0.584  0.2727  0.2377 -0.2859
  385SOL    HW1 1154   2.440   2.165   0.591  0.9985  2.2307  0.5503
  385SOL    HW2 1155   2.491   2.028   0.510 -2.5585 -0.3812  1.7477
  386SOL     OW 1156   2.235   1.244   1.592 -0.2311  0.2054  0.1664
  386SOL    HW1 1157   2.310   1.312   1.612 -1.3700 -0.9798  1.5476
  386SOL    HW2 1158   2.177   1.225   1.671 -1.5457  0.8869  0.9422
  387SOL     OW 1159   2.707   1.467   2.069  0.3199 -0.2537 -0.1995
  387SOL    HW1 1160   2.756   1.473   2.157 -0.6776 -1.6204  2.0275
  387SOL    HW2 1161   2.610   1.479   2.102  0.5315 -0.6180  2.2045
  388SOL     OW 1162   0.268   1.814   1.988 -0.1052 -0.6265  0.0888
  388SOL    HW1 1163   0.364   1.790   2.008  1.4829  1.8489  0.4881
  388SOL    HW2 1164   0.202   1.764   2.052 -1.5776  0.7580 -0.3336
  389SOL     OW 1165   1.853   0.913   1.751  0.2824  0.3601 -0.4881
  389SOL    HW1 1166   1.894   0.915   1.657 -0.2730 -1.1764 -3.3111
  389SOL    HW2 1167   1.826   1.012   1.781  2.5257  0.1991  1.2607
  390SOL     OW 1168   1.996   0.078   0.503  0.2537  0.5874  0.0931
  390SOL    HW1 1169   1.970   0.012   0.577  2.5341 -0.7379 -1.5041
  390SOL    HW2 1170   1.985   0.174   0.532  2.0588  0.4128  1.2548
  391SOL     OW 1171   1.990   1.571   1.169 -0.0109  0.4069 -0.3617
  391SOL    HW1 1172   2.070   1.506   1.183  4.0118  0.2690 -0.5531
  391SOL    HW2 1173   1.989   1.649   1.234  0.4412 -1.4859  2.7575
  392SOL     OW 1174   2.687   2.736   0.420  0.6295 -0.0561 -0.2319
  392SOL    HW1 1175   2.614   2.694   0.480 -2.4171 -2.1592  0.7052
  392SOL    HW2 1176   2.782   2.728   0.455  0.7085  0.9953  1.1299
  393SOL     OW 1177   1.848   1.934   2.980 -0.1445 -0.1490  0.2757
  393SOL    HW1 1178   1.886   1.858   3.038  0.0515 -0.7553  1.1198
  393SOL    HW2 1179   1.848   1.911   2.878 -0.5108 -0.7013 -1.7223
  394SOL     OW 1180   0.109   2.860   2.567  0.4355  0.2460 -0.4070
  394SOL    HW1 1181   0.008   2.862   2.577 -0.5915  2.4378  3.0276
  394SOL    HW2 1182   0.139   2.824   2.657 -1.0332 -1.0761  0.0580
  395SOL     OW 1183   0.514   0.355   0.465 -0.2259  0.2964  0.4589
  395SOL    HW1 1184   0.416   0.386   0.445 -3.5635 -0.4037 -2.1299
  395SOL    HW2 1185   0.537   0.382   0.560  1.6500  2.2397  1.7956
  396SOL     OW 1186   1.830   0.963   0.458 -0.2408 -0.3105 -0.1278
  396SOL    HW1 1187   1.763   0.939   0.386  1.9184 -4.2214  2.1033
  396SOL    HW2 1188   1.912   0.898   0.460  0.6782  1.6735 -0.4888
  397SOL     OW 1189   0.745   0.771   2.267 -0.1118 -0.1794  0.0872
  397SOL    HW1 1190   0.644   0.766   2.265  0.4073 -0.7584  2.6812
  397SOL    HW2 1191   0.776   0.855   2.306 -0.2533  1.2787 -3.5605
  398SOL     OW 1192   0.781   0.067   0.407  0.2090 -0.1132  0.0952
  398SOL    HW1 1193   0.770   0.162   0.386  0.3925  0.7653  1.5446
  398SOL    HW2 1194   0.881   0.049   0.429 -1.8829 -0.4865  0.0146
  399SOL     OW 1195   2.308   2.623   1.513 -0.7640 -0.4568  0.0498
  399SOL    HW1 1196   2.377   2.545   1.514  0.6230  0.2491  3.1059
  399SOL    HW2 1197   2.226   2.602   1.567  0.1329 -1.1567 -1.8412
  400SOL     OW 1198   0.940   1.667   2.126  0.4136  0.0734 -0.0367
  400SOL    HW1 1199   1.025   1.719   2.110 -1.7655 -1.1140 -1.0674
  400SOL    HW2 1200   0.913   1.664   2.227  1.1051  0.7409  0.6765
  401SOL     OW 1201   0.772   1.155   2.608  0.4938 -0.3240 -0.0482
  401SOL    HW1 1202   0.694   1.219   2.643 -0.9313  1.3819 -2.7765
  401SOL    HW2 1203   0.768   1.068   2.652 -1.0851  2.9721  0.3056
  402SOL     OW 1204   2.848   2.139   0.919  0.5059 -0.0277 -0.3903
  402SOL    HW1 1205   2.791   2.215   0.874  0.4953  3.2640 -1.1418
  402SOL    HW2 1206   2.858   2.066   0.847 -0.4012  0.8122 -0.7295
  403SOL     OW 1207   0.201   1.074   2.348  0.3439 -0.7078 -0.1182
  403SOL    HW1 1208   0.146   1.086   2.263 -1.8428  1.7021  0.6133
  403SOL    HW2 1209   0.296   1.095   2.333 -3.8045 -2.5414  2.7420
  404SOL     OW 1210   0.203   2.448   2.106  0.5469 -0.0416 -1.0416
  404SOL    HW1 1211   0.164   2.452   2.010  0.2445 -0.7952  0.9200
  404SOL    HW2 1212   0.264   2.528   2.121 -0.2189 -1.0421  1.4835
  405SOL     OW 1213   0.173   0.432   1.942  0.0983 -0.2117  0.2178
  405SOL    HW1 1214   0.262   0.433   1.995 -0.8128  2.3701 -0.9580
  405SOL    HW2 1215   0.115   0.344   1.953 -1.9518  0.5973 -1.1863
  406SOL     OW 1216   1.466   1.684   2.493  0.1466  0.5803 -0.1203
  406SOL    HW1 1217   1.493   1.698   2.398 -3.1472 -0.5724  4.7307
  406SOL    HW2 1218   1.530   1.627   2.548 -1.5124 -0.3036 -2.4548
  407SOL     OW 1219   1.543   1.103   2.416  0.3828  0.3068  0.4464
  407SOL    HW1 1220   1.477   1.079   2.345  0.5151  2.2198  2.1899
  407SOL    HW2 1221   1.634   1.065   2.393  0.2554  1.9263  0.1398
  408SOL     OW 1222   0.756   3.013   2.426 -0.1422 -0.1249 -0.0148
  408SOL    HW1 1223   0.841   3.032   2.484 -3.6613 -2.1958  0.2468
  408SOL    HW2 1224   0.780   2.934   2.368 -1.7503  6.3966 -0.5161
  409SOL     OW 1225   0.053   2.249   0.843 -0.7561 -0.7856 -0.0553
  409SOL    HW1 1226   0.009   2.204   0.766  1.1553  1.5984  2.6248
  409SOL    HW2 1227   0.054   2.189   0.930  0.6395  0.4452 -0.4123
  410SOL     OW 1228   2.587   1.531   0.202  0.0973 -0.1957 -0.4807
  410SOL    HW1 1229   2.638   1.474   0.270  0.4506 -1.8986  1.7513
  410SOL    HW2 1230   2.613   1.508   0.110  2.9293 -2.8040  0.1814
  411SOL     OW 1231   0.113   0.049   1.200 -0.3966 -0.2140  0.5929
  411SOL    HW1 1232   0.183   0.055   1.274  1.0773 -2.7354  1.2737
  411SOL    HW2 1233   0.085   3.062   1.185 -0.3216  2.0257  1.4350
  412SOL     OW 1234   1.685   0.561   1.343  0.1995  0.1326 -0.2821
  412SOL    HW1 1235   1.754   0.504   1.294 -0.0689 -0.5585 -0.8817
  412SOL    HW2 1236   1.614   0.587   1.279 -0.1080 -1.3375 -0.5542
  413SOL     OW 1237   0.869   0.171   1.962 -0.1241 -0.2633 -0.1629
  413SOL    HW1 1238   0.925   0.109   2.022  1.4038 -0.0984  0.5984
  413SOL    HW2 1239   0.869   0.268   1.994  1.7690 -0.2137 -0.9202
  414SOL     OW 1240   2.865   1.572   2.667 -0.5180  0.0556  0.3600
  414SOL    HW1 1241   2.894   1.520   2.750 -0.0411  0.0376  2.2143
  414SOL    HW2 1242   2.855   1.507   2.591 -0.1913  1.5878 -3.6556
  415SOL     OW 1243   0.677   2.492   0.186  0.1149  0.0516  0.1379
  415SOL    HW1 1244   0.770   2.530   0.189 -0.5172 -2.1345  0.9935
  415SOL    HW2 1245   0.637   2.498   0.276  0.0648  0.7930 -1.8517
  416SOL     OW 1246   1.813   3.059   2.967  0.7837  0.1211  0.4809
  416SOL    HW1 1247   1.789   0.005   3.046  0.6758 -0.7071  0.7250
  416SOL    HW2 1248   1.876   3.106   2.901 -0.3744  0.6772 -0.9005
  417SOL     OW 1249   0.198   0.518   0.643 -0.3963 -0.5114  0.0942
  417SOL    HW1 1250   0.271   0.551   0.705 -1.5783  0.5718  0.3554
  417SOL    HW2 1251   0.130   0.461   0.688  0.8041  3.8994 -2.1421
  418SOL     OW 1252   2.458   0.173   1.244  0.8182  0.3142  0.0763
  418SOL    HW1 1253   2.360   0.168   1.267 -0.8373  0.9429 -0.5407
  418SOL    HW2 1254   2.517   0.111   1.295  1.2644 -0.1810 -1.6502
  419SOL     OW 1255   3.098   2.900   0.846 -0.5031 -0.0169 -0.0409
  419SOL    HW1 1256   3.095   2.959   0.763 -0.7795  2.0086 -2.0890
  419SOL    HW2 1257   0.067   2.833   0.846  1.4290 -2.0575 -3.1801
  420SOL     OW 1258   0.040   1.409   1.744  0.0351  0.2239 -0.7180
  420SOL    HW1 1259   0.115   1.447   1.691 -2.5172  0.8709 -2.7977
  420SOL    HW2 1260   3.101   1.341   1.683  0.4191  2.0410  0.1702
  421SOL     OW 1261   1.380   2.861   0.572  0.1021  0.0735  0.3841
  421SOL    HW1 1262   1.439   2.811   0.504  2.0754  1.5199 -0.5077
  421SOL    HW2 1263   1.400   2.962   0.564  0.5341  3.1786 -3.3488
  422SOL     OW 1264   0.709   0.571   1.476  0.5426 -0.3650 -0.4386
  422SOL    HW1 1265   0.781   0.525   1.522  1.1767  1.8235 -5.0891
  422SOL    HW2 1266   0.670   0.506   1.410  1.3398 -0.0094  3.2587
  423SOL     OW 1267   1.166   1.313   1.671 -0.6149  0.8657  0.2337
  423SOL    HW1 1268   1.186   1.390   1.735  0.2848  0.5490 -0.0220
  423SOL    HW2 1269   1.097   1.250   1.707  1.3064 -1.1005  2.4370
  424SOL     OW 1270   2.157   1.872   0.131 -1.0338  0.0647  0.2237
  424SOL    HW1 1271   2.140   1.972   0.114  1.2213  2.8074 -1.8857
  424SOL    HW2 1272   2.125   1.834   0.220  1.2283 -1.3382  2.2736
  425SOL     OW 1273   0.056   0.196   1.975 -0.0895  0.0700  0.1813
  425SOL    HW1 1274   0.082   0.172   2.069 -0.0098 -1.3502 -0.8395
  425SOL    HW2 1275   3.065   0.172   1.952 -2.3663  0.6503  1.5146
  426SOL     OW 1276   0.203   2.760   2.799  0.4099 -0.0721 -0.1201
  426SOL    HW1 1277   0.268   2.821   2.847  0.1036  3.6648  1.1044
  426SOL    HW2 1278   0.238   2.665   2.786  0.5302 -0.2980 -0.8017
  427SOL     OW 1279   1.028   0.714   2.928  0.6548 -0.6591 -0.4773
  427SOL    HW1 1280   1.113   0.747   2.975  0.7354  1.3045  0.9991
  427SOL    HW2 1281   1.046   0.627   2.876 -1.5220  3.1661  0.3054
  428SOL     OW 1282   2.807   0.842   1.798  0.1608 -0.0523  1.0717
  428SOL    HW1 1283   2.727   0.797   1.756 -0.7147 -1.5251  0.4948
  428SOL    HW2 1284   2.789   0.932   1.842 -0.1113  2.9766  0.3920
  429SOL     OW 1285   2.079   2.902   1.171  0.3361  0.0072  0.0010
  429SOL    HW1 1286   2.112   2.952   1.257  1.2382  1.6384 -1.5710
  429SOL    HW2 1287   2.047   2.806   1.189 -0.7300  1.4490  0.1390
  430SOL     OW 1288   1.098   1.428   2.721 -0.9155  0.5044 -0.0523
  430SOL    HW1 1289   1.070   1.511   2.771  0.5705 -0.0251  0.0727
  430SOL    HW2 1290   1.192   1.437   2.689  0.3458 -2.7170 -3.4860
  431SOL     OW 1291   2.842   1.719   1.439  0.0794  0.3170  0.1270
  431SOL    HW1 1292   2.849   1.765   1.528 -1.0667  0.7314  1.2916
  431SOL    HW2 1293   2.928   1.665   1.423  0.1710 -0.6850 -2.2518
  432SOL     OW 1294   0.944   2.397   2.408  0.5529  0.3902  0.3693
  432SOL    HW1 1295   0.885   2.393   2.491  1.2264  0.9116  0.6398
  432SOL    HW2 1296   1.018   2.470   2.416  0.1081  1.3945 -1.0958
  433SOL     OW 1297   2.107   0.285   1.970  0.1844  0.8461 -0.1510
  433SOL    HW1 1298   2.118   0.188   2.003  0.1357  0.1078  1.9282
  433SOL    HW2 1299   2.018   0.325   1.991  1.0268 -1.5166 -0.1893
  434SOL     OW 1300   0.734   2.434   2.237  0.0096 -0.3372  0.3646
  434SOL    HW1 1301   0.731   2.517   2.182  2.3463 -1.8350 -2.6044
  434SOL    HW2 1302   0.824   2.419   2.279 -1.3131  2.4137  1.4953
  435SOL     OW 1303   0.133   3.093   0.385  0.4149 -0.2389  0.1172
  435SOL    HW1 1304   0.156   0.012   0.285  0.4454 -3.7193 -1.2948
  435SOL    HW2 1305   0.219   3.052   0.428  0.7540 -2.1589  1.4312
  436SOL     OW 1306   0.809   0.784   2.001 -0.3907  0.5632 -0.1385
  436SOL    HW1 1307   0.750   0.867   2.001 -1.6459 -2.4139  0.1205
  436SOL    HW2 1308   0.786   0.734   2.088  0.8487  0.2250  1.5811
  437SOL     OW 1309   0.776   2.411   2.623 -0.1645  0.6438 -0.3528
  437SOL    HW1 1310   0.776   2.510   2.598  0.7073  1.0662 -0.5160
  437SOL    HW2 1311   0.725   2.400   2.712  0.5326  1.9921 -0.7286
  438SOL     OW 1312   0.998   1.244   1.247 -0.1191  0.4734  0.1658
  438SOL    HW1 1313   0.958   1.150   1.220 -1.2333 -4.0309  1.1410
  438SOL    HW2 1314   1.092   1.232   1.289  2.3323 -2.1517 -0.3346
  439SOL     OW 1315   2.526   1.095   2.310 -0.0943  0.0922 -0.6114
  439SOL    HW1 1316   2.601   1.057   2.370  0.8225  0.9264  2.1396
  439SOL    HW2 1317   2.461   1.137   2.373  1.5495 -2.5577  1.1157
  440SOL     OW 1318   0.065   0.491   0.214  0.4024  0.3443  0.3456
  440SOL    HW1 1319   0.046   0.404   0.164  1.4367  0.7599  1.1757
  440SOL    HW2 1320   0.127   0.475   0.286 -2.3774 -0.3571 -0.1832
  441SOL     OW 1321   1.192   1.932   1.747 -0.3948  0.0408 -0.1230
  441SOL    HW1 1322   1.146   2.006   1.693  1.6625 -1.8425  0.3228
  441SOL    HW2 1323   1.124   1.854   1.766 -3.1034 -1.1782 -0.5131
  442SOL     OW 1324   2.090   1.578   0.726 -0.2222  0.3557 -0.3197
  442SOL    HW1 1325   2.138   1.597   0.814  0.1908  1.4525 -2.3637
  442SOL    HW2 1326   2.133   1.493   0.687 -0.8982 -0.5993 -1.6789
  443SOL     OW 1327   2.728   2.006   2.632 -0.0167  0.0282 -0.2371
  443SOL    HW1 1328   2.754   2.099   2.603  2.4691  0.4263  0.3619
  443SOL    HW2 1329   2.640   1.997   2.682  0.0740 -1.8409  0.2853
  444SOL     OW 1330   1.593   1.581   2.936 -0.4148  1.2081 -0.3241
  444SOL    HW1 1331   1.559   1.487   2.965 -1.8456 -1.2466  2.7444
  444SOL    HW2 1332   1.605   1.643   3.016  0.2470  0.2594 -0.0943
  445SOL     OW 1333   2.580   2.694   1.827  0.3213 -0.2092  0.2768
  445SOL    HW1 1334   2.648   2.729   1.892 -0.0686  1.5034 -0.0760
  445SOL    HW2 1335   2.603   2.594   1.815 -0.0674 -0.5033  2.3633
  446SOL     OW 1336   0.891   0.915   1.632 -0.0554 -0.4909 -0.3422
  446SOL    HW1 1337   0.946   0.899   1.546 -2.9771  0.2881  1.1364
  446SOL    HW2 1338   0.916   0.840   1.695  2.0897  1.8806 -1.9232
  447SOL     OW 1339   0.691   0.882   0.989 -0.7933  0.2874 -0.1070
  447SOL    HW1 1340   0.589   0.866   0.988  0.6270 -0.0078 -1.6870
  447SOL    HW2 1341   0.734   0.877   1.081 -1.4596 -0.4340  2.4585
  448SOL     OW 1342   1.149   1.154   2.322 -1.0341  0.1830  0.2117
  448SOL    HW1 1343   1.116   1.211   2.400 -1.0096  0.0984 -0.3132
  448SOL    HW2 1344   1.069   1.099   2.286  0.5904 -4.4530  1.5540
  449SOL     OW 1345   3.072   2.041   2.238 -0.6132  0.5357  0.1187
  449SOL    HW1 1346   3.079   1.979   2.322 -0.3270  0.7453 -0.6939
  449SOL    HW2 1347   3.072   1.989   2.150  1.6378  0.7929  0.7973
  450SOL     OW 1348   2.383   1.739   2.213  0.6732 -0.1328  0.6279
  450SOL    HW1 1349   2.444   1.754   2.295 -0.5971 -0.0954 -1.6419
  450SOL    HW2 1350   2.385   1.642   2.178  0.0906 -3.2163 -5.7794
  451SOL     OW 1351   2.730   1.457   1.428  0.9072 -0.4005  0.3700
  451SOL    HW1 1352   2.759   1.556   1.443  0.0674  0.7104  1.9673
  451SOL    HW2 1353   2.671   1.428   1.507 -0.6138  0.8799 -1.4800
  452SOL     OW 1354   0.325   1.326   1.510  0.3636 -0.2436 -0.2452
  452SOL    HW1 1355   0.249   1.264   1.479  0.7797 -1.5959  1.3643
  452SOL    HW2 1356   0.374   1.372   1.432 -0.7785 -0.4131  0.1874
  453SOL     OW 1357   0.467   0.926   0.748  0.1412  0.5312  0.1051
  453SOL    HW1 1358   0.375   0.943   0.702 -2.3642  0.7418  3.0900
  453SOL    HW2 1359   0.530   1.005   0.749 -3.7258 -2.1450 -0.0090
  454SOL     OW 1360   0.561   1.535   0.328  0.2183 -0.1138  0.2541
  454SOL    HW1 1361   0.577   1.439   0.354 -1.2218  0.6440 -1.7641
  454SOL    HW2 1362   0.467   1.544   0.293  0.2756 -1.3918 -0.9900
  455SOL     OW 1363   1.588   0.525   0.961  0.7488 -0.0134 -0.0604
  455SOL    HW1 1364   1.607   0.458   1.037  0.8114 -1.0352 -0.5990
  455SOL    HW2 1365   1.518   0.477   0.902 -2.0219  0.7264  1.0393
  456SOL     OW 1366   1.629   2.831   0.947  0.3739 -0.4803  0.2620
  456SOL    HW1 1367   1.703   2.806   0.880  2.5812 -0.7847 -2.6316
  456SOL    HW2 1368   1.602   2.932   0.955  1.6839 -0.5430  0.8219
  457SOL     OW 1369   1.885   0.366   2.448  0.2248 -0.4516  0.2687
  457SOL    HW1 1370   1.789   0.333   2.458 -1.0661 -1.5402 -0.4417
  457SOL    HW2 1371   1.943   0.291   2.436 -0.4530  1.7849 -0.7139
  458SOL     OW 1372   2.528   0.605   3.006 -0.0120 -0.0194  0.2391
  458SOL    HW1 1373   2.443   0.547   2.992  0.8538 -2.9045  0.0202
  458SOL    HW2 1374   2.600   0.572   2.948  0.2090  0.5787  0.4452
  459SOL     OW 1375   0.087   1.654   2.137 -0.2986  0.9468  0.2468
  459SOL    HW1 1376   0.075   1.565   2.086  0.3558 -2.8382 -0.7779
  459SOL    HW2 1377   0.065   1.637   2.234 -0.2396 -2.6934  0.6430
  460SOL     OW 1378   0.397   0.816   3.073 -0.6512  0.1340 -0.4518
  460SOL    HW1 1379   0.326   0.757   3.035  3.5240  0.0351  2.3483
  460SOL    HW2 1380   0.455   0.766   0.028  2.0540  0.6297 -0.2662
  461SOL     OW 1381   2.936   2.331   0.629 -0.3052 -0.1280  0.5103
  461SOL    HW1 1382   2.842   2.323   0.595  0.5221  0.1152 -0.8627
  461SOL    HW2 1383   3.008   2.372   0.564  0.3392  1.2858 -1.0718
  462SOL     OW 1384   3.107   3.089   1.612  0.1790 -0.7009 -0.2434
  462SOL    HW1 1385   0.052   3.011   1.579 -0.7596  2.0810  1.3231
  462SOL    HW2 1386   0.009   0.064   1.551 -1.4072  0.8914  0.4552
  463SOL     OW 1387   1.679   2.081   1.773  0.6105  0.0292  0.3885
  463SOL    HW1 1388   1.751   2.039   1.712 -1.8765 -0.1476 -0.6420
  463SOL    HW2 1389   1.694   2.178   1.790  0.8627 -1.1468 -0.9015
  464SOL     OW 1390   0.270   2.746   1.152  0.1196  0.1978 -0.2471
  464SOL    HW1 1391   0.182   2.796   1.154 -1.0978  1.4007  2.0196
  464SOL    HW2 1392   0.322   2.773   1.067  3.4057  2.4043 -4.7781
  465SOL     OW 1393   0.495   0.285   1.767  0.3179  0.0276 -0.4393
  465SOL    HW1 1394   0.484   0.241   1.856 -0.7243 -1.3128 -2.3096
  465SOL    HW2 1395   0.413   0.340   1.748  0.9008 -2.1036  1.4051
  466SOL     OW 1396   1.190   2.008   2.260 -0.0605 -0.3065  0.1196
  466SOL    HW1 1397   1.217   1.937   2.326  2.0549  0.7851 -3.1551
  466SOL    HW2 1398   1.110   2.063   2.294 -0.9136 -0.7345  2.3305
  467SOL     OW 1399   2.743   1.523   0.702 -0.5107 -0.0734 -0.0835
  467SOL    HW1 1400   2.705   1.498   0.788  1.7336  3.6868 -1.1025
  467SOL    HW2 1401   2.757   1.434   0.653 -0.9518 -0.6420  2.0735
  468SOL     OW 1402   2.234   1.904   2.741 -0.2504  0.7806  0.6085
  468SOL    HW1 1403   2.166   1.830   2.763 -1.9482 -2.5254  0.4574
  468SOL    HW2 1404   2.282   1.885   2.648  0.3003 -0.9469 -0.3711
  469SOL     OW 1405   1.153   2.221   0.603  0.3407 -0.7492  0.8166
  469SOL    HW1 1406   1.176   2.175   0.516 -1.4189 -0.3287 -0.1350
  469SOL    HW2 1407   1.158   2.161   0.681 -1.3970 -0.5476 -1.7362
  470SOL     OW 1408   1.985   1.765   1.360  0.1585  0.1203 -0.2147
  470SOL    HW1 1409   2.015   1.858   1.335 -3.1004 -2.9036 -2.2882
  470SOL    HW2 1410   2.034   1.735   1.441 -0.3360  0.7419 -2.3171
  471SOL     OW 1411   0.016   2.454   0.452 -0.7281 -1.0192  0.3274
  471SOL    HW1 1412   0.116   2.476   0.471  3.1535  0.8225  0.8837
  471SOL    HW2 1413   0.006   2.380   0.383 -4.9137 -0.8549  1.7281
  472SOL     OW 1414   2.569   1.754   2.405  0.1717  0.1776 -0.3119
  472SOL    HW1 1415   2.569   1.706   2.492  1.1640  0.5035  1.3406
  472SOL    HW2 1416   2.661   1.780   2.379 -0.0015 -0.8213  1.6773
  473SOL     OW 1417   1.347   2.530   0.919 -0.0173  0.4024 -0.1397
  473SOL    HW1 1418   1.270   2.496   0.976 -3.7891 -0.1632  0.2766
  473SOL    HW2 1419   1.350   2.632   0.916  0.7397 -1.5019  1.4839
  474SOL     OW 1420   2.877   0.146   1.339  0.1675  0.2941  0.3563
  474SOL    HW1 1421   2.830   0.052   1.339 -2.6870  3.7043 -2.6601
  474SOL    HW2 1422   2.815   0.213   1.383  1.5084 -0.6915 -2.9525
  475SOL     OW 1423   2.129   2.661   1.983 -0.0959  0.3884 -0.5156
  475SOL    HW1 1424   2.189   2.575   1.995  2.2192 -0.4663  2.7404
  475SOL    HW2 1425   2.190   2.737   1.942  4.0700 -0.0671 -0.9655
  476SOL     OW 1426   0.364   0.569   0.868  0.0743  0.3036  0.5582
  476SOL    HW1 1427   0.371   0.480   0.922  1.3620 -0.7736  0.0992
  476SOL    HW2 1428   0.310   0.637   0.918 -0.0502 -3.7789  0.2613
  477SOL     OW 1429   0.704   1.879   0.898 -0.1045 -0.1734 -0.0628
  477SOL    HW1 1430   0.657   1.938   0.961  3.3516 -4.5811 -1.3632
  477SOL    HW2 1431   0.627   1.830   0.851  1.1270 -2.9947 -0.7530
  478SOL     OW 1432   0.885   2.515   2.935  0.2426 -0.0286 -0.3458
  478SOL    HW1 1433   0.868   2.427   2.982  0.6075  3.6479  0.5499
  478SOL    HW2 1434   0.814   2.581   2.962  1.9332 -2.7723  0.2716
  479SOL     OW 1435   0.083   1.128   2.105 -0.0644  0.2435  0.0199
  479SOL    HW1 1436   3.096   1.104   2.132  0.7221  0.6619 -0.1626
  479SOL    HW2 1437   0.126   1.060   2.040  1.4851  0.1745 -1.0717
  480SOL     OW 1438   0.323   2.289   0.181 -0.1445  0.3432  0.1774
  480SOL    HW1 1439   0.247   2.332   0.128 -2.1834  0.9967 -2.3157
  480SOL    HW2 1440   0.328   2.323   0.274 -2.1086 -1.2828 -0.5685
  481SOL     OW 1441   1.714   3.010   2.296  0.0794 -0.0656  0.0488
  481SOL    HW1 1442   1.765   3.012   2.385 -0.1169 -0.3132 -2.4040
  481SOL    HW2 1443   1.732   3.095   2.247  1.8291 -0.9182  0.5228
  482SOL     OW 1444   1.747   2.051   0.111  0.2929  0.6367 -0.1692
  482SOL    HW1 1445   1.799   2.004   0.187  1.0367 -2.2362  3.6345
  482SOL    HW2 1446   1.780   2.020   0.019 -1.9871  1.2568 -0.2812
  483SOL     OW 1447   1.052   2.541   2.705  0.3565 -0.2138  0.1019
  483SOL    HW1 1448   1.131   2.484   2.733  1.9048 -1.2551  0.6921
  483SOL    HW2 1449   0.966   2.495   2.725 -0.8376  0.2274  0.1669
  484SOL     OW 1450   0.701   2.776   0.955 -0.2415  0.2971  0.4111
  484SOL    HW1 1451   0.771   2.813   0.890 -2.1071  2.2904  1.5267
  484SOL    HW2 1452   0.718   2.801   1.052  0.0614  0.2055 -0.8124
  485SOL     OW 1453   2.103   0.718   0.785 -0.4260  0.0739  0.0304
  485SOL    HW1 1454   2.101   0.818   0.817 -0.9092  1.9538 -0.3445
  485SOL    HW2 1455   2.026   0.675   0.828  1.6315  0.5080 -1.0358
  486SOL     OW 1456   2.142   2.757   2.239 -0.3065 -0.5907 -0.1248
  486SOL    HW1 1457   2.197   2.689   2.294  1.3539 -1.2297  0.1474
  486SOL    HW2 1458   2.152   2.739   2.136  0.9378 -1.1082 -2.6185
  487SOL     OW 1459   1.161   1.837   0.607 -0.0289 -0.1351  0.5452
  487SOL    HW1 1460   1.060   1.849   0.577 -4.1224 -3.2090 -2.2284
  487SOL    HW2 1461   1.187   1.904   0.679  1.0617  2.4901  2.6892
  488SOL     OW 1462   2.155   0.322   0.073  0.0679 -0.0087 -0.7750
  488SOL    HW1 1463   2.135   0.349   0.175  0.2349 -0.1588  1.8016
  488SOL    HW2 1464   2.143   0.401   0.011  1.0354 -0.9689  1.6250
  489SOL     OW 1465   2.205   2.992   0.557  0.5488 -0.4927 -0.8228
  489SOL    HW1 1466   2.284   3.034   0.601 -0.9257  2.5810 -3.0717
  489SOL    HW2 1467   2.148   3.072   0.521  0.4017  3.7060 -1.8118
  490SOL     OW 1468   1.590   2.900   2.895 -0.1738  0.1114 -0.4536
  490SOL    HW1 1469   1.673   2.963   2.908  1.1725 -2.4929  2.2209
  490SOL    HW2 1470   1.520   2.936   2.962  1.5533 -0.0723  0.0063
  491SOL     OW 1471   0.817   0.197   1.126 -0.4634 -0.2259 -0.0601
  491SOL    HW1 1472   0.881   0.124   1.160 -0.7574  1.4950 -1.0206
  491SOL    HW2 1473   0.748   0.172   1.055 -0.1733 -0.3195 -0.0488
  492SOL     OW 1474   1.868   3.045   0.289  0.6056  0.1210  0.8052
  492SOL    HW1 1475   1.910   3.092   0.365  0.0728  1.1827 -0.1487
  492SOL    HW2 1476   1.877   2.944   0.305  1.8391 -0.4625  0.2954
  493SOL     OW 1477   1.484   2.478   2.861 -0.6723 -0.5038  0.2924
  493SOL    HW1 1478   1.496   2.555   2.795 -0.8384  3.4377 -1.8793
  493SOL    HW2 1479   1.516   2.517   2.946  3.1162 -0.3436  1.2121
  494SOL     OW 1480   0.225   1.183   1.026  0.2419  0.4113 -0.4019
  494SOL    HW1 1481   0.296   1.192   1.099  3.3476 -1.0639  0.9457
  494SOL    HW2 1482   0.145   1.244   1.035 -1.5405 -1.0352 -0.6281
  495SOL     OW 1483   3.008   0.402   1.714  0.5590  0.3805  0.2627
  495SOL    HW1 1484   3.078   0.342   1.677 -3.7707  1.6508 -0.2802
  495SOL    HW2 1485   3.039   0.497   1.743 -2.9405  0.5624 -0.2579
  496SOL     OW 1486   2.427   2.435   2.115  0.2179  0.1368 -0.1510
  496SOL    HW1 1487   2.510   2.377   2.122  3.6615 -0.0267  0.5535
  496SOL    HW2 1488   2.445   2.524   2.159 -1.1557  0.6095 -0.4416
  497SOL     OW 1489   1.659   1.321   2.543  0.2155 -0.5396  0.6722
  497SOL    HW1 1490   1.748   1.279   2.540 -0.2403  0.1101 -0.7512
  497SOL    HW2 1491   1.605   1.253   2.491 -0.8850  2.6883 -0.5389
  498SOL     OW 1492   0.749   2.107   0.696 -0.2022 -0.2174  0.1426
  498SOL    HW1 1493   0.814   2.182   0.722  1.1043  0.3283  2.5221
  498SOL    HW2 1494   0.706   2.072   0.782  0.0991 -0.6616 -0.3439
  499SOL     OW 1495   0.059   1.582   1.026 -0.1821 -0.3518  0.1311
  499SOL    HW1 1496   3.095   1.652   1.038 -0.7344 -0.2163  1.4297
  499SOL    HW2 1497   0.149   1.628   0.999 -0.0127  0.6241  0.6342
  500SOL     OW 1498   1.477   2.437   0.487 -1.0760  0.0612 -0.3601
  500SOL    HW1 1499   1.447   2.428   0.393  1.3623 -0.6490  2.0056
  500SOL    HW2 1500   1.414   2.478   0.554 -0.2322 -1.8036 -2.3187
  501SOL     OW 1501   2.022   2.613   1.168 -0.5567 -0.1379  0.1557
  501SOL    HW1 1502   2.075   2.537   1.203 -2.3965  1.4999  0.7661
  501SOL    HW2 1503   2.039   2.626   1.067  0.6677  0.0591 -2.0054
  502SOL     OW 1504   0.528   0.614   1.691  0.1043 -0.1318  0.4197
  502SOL    HW1 1505   0.427   0.580   1.689 -4.0947 -0.5704 -0.1972
  502SOL    HW2 1506   0.577   0.589   1.609 -0.8252  1.6533  2.6057
  503SOL     OW 1507   2.080   0.166   1.599 -0.1154 -0.1722 -0.5937
  503SOL    HW1 1508   1.981   0.169   1.577  0.1579 -0.9891 -0.5531
  503SOL    HW2 1509   2.099   0.075   1.639 -1.8057 -1.3778 -2.7460
  504SOL     OW 1510   2.081   0.749   1.807 -0.3646 -0.6039  0.5225
  504SOL    HW1 1511   1.988   0.792   1.807  1.2550  2.4345 -1.7547
  504SOL    HW2 1512   2.153   0.822   1.789 -0.4610  1.3585 -0.6708
  505SOL     OW 1513   1.200   2.925   2.393  0.1360  0.2698 -0.0146
  505SOL    HW1 1514   1.214   2.853   2.461 -0.3123  0.5941 -0.1451
  505SOL    HW2 1515   1.280   2.991   2.395 -0.7631 -1.7891  2.6582
  506SOL     OW 1516   0.414   0.422   2.060 -0.2273  0.5524 -0.0711
  506SOL    HW1 1517   0.482   0.484   2.018 -0.1802  1.0807  0.6236
  506SOL    HW2 1518   0.450   0.328   2.071  0.1855  0.2267  0.3162
  507SOL     OW 1519   1.575   0.154   3.054  0.1144 -0.0279 -0.0461
  507SOL    HW1 1520   1.538   0.067   3.087 -0.4955 -3.7619 -1.0863
  507SOL    HW2 1521   1.632   0.208   0.012 -0.9482 -2.0580  0.0743
  508SOL     OW 1522   2.184   0.566   2.309  0.2325  0.5076 -0.4571
  508SOL    HW1 1523   2.263   0.629   2.310 -0.2509 -0.4218 -2.3500
  508SOL    HW2 1524   2.132   0.556   2.220 -0.4326  1.4834 -0.7493
  509SOL     OW 1525   0.805   1.323   2.258 -0.2569 -0.6162  0.7299
  509SOL    HW1 1526   0.766   1.406   2.305  2.4400 -0.9096 -1.0879
  509SOL    HW2 1527   0.856   1.261   2.325  1.0662 -2.4677  0.4990
  510SOL     OW 1528   2.916   0.631   1.014 -0.2081 -0.0010 -0.4700
  510SOL    HW1 1529   2.987   0.652   0.943 -0.6918 -3.9974 -0.5347
  510SOL    HW2 1530   2.883   0.713   1.061  0.5385  0.0122 -0.3764
  511SOL     OW 1531   1.509   1.410   1.191  0.1307  0.1130  0.3236
  511SOL    HW1 1532   1.491   1.509   1.202  0.1618  1.2717 -0.7251
  511SOL    HW2 1533   1.575   1.377   1.261 -0.4377 -0.4813  0.8391
  512SOL     OW 1534   0.483   1.403   0.614  0.1977 -0.4545 -0.0108
  512SOL    HW1 1535   0.529   1.347   0.547 -1.1573 -2.2847 -0.4683
  512SOL    HW2 1536   0.410   1.344   0.654  1.5492 -0.3562 -0.6508
  513SOL     OW 1537   0.609   2.087   1.025 -0.3916 -0.0448  0.0642
  513SOL    HW1 1538   0.505   2.088   1.041 -1.2205 -0.5717  1.2866
  513SOL    HW2 1539   0.649   2.173   1.064  0.3828  1.0216  2.1804
  514SOL     OW 1540   0.013   2.207   0.312  0.3887  0.0623 -0.2315
  514SOL    HW1 1541   3.044   2.182   0.253  0.8239 -0.3954  1.1296
  514SOL    HW2 1542   0.081   2.135   0.314 -0.4148  0.7702 -0.1769
  515SOL     OW 1543   2.867   3.032   0.081  0.1543  0.0324  0.1048
  515SOL    HW1 1544   2.909   2.937   0.085  2.1782 -1.6812 -0.5092
  515SOL    HW2 1545   2.864   3.068   0.175 -2.0822  0.3907  0.8156
  516SOL     OW 1546   1.939   3.016   0.950  0.4326 -0.0080  0.1114
  516SOL    HW1 1547   1.869   3.031   1.026  0.2153  1.8764  4.2104
  516SOL    HW2 1548   2.022   2.960   0.979  1.9086  0.4317 -0.6129
  517SOL     OW 1549   1.622   1.514   0.511  0.1321  0.8508 -0.4910
  517SOL    HW1 1550   1.699   1.496   0.575  0.8719  3.0073  0.9463
  517SOL    HW2 1551   1.569   1.431   0.491 -2.6864  0.1699 -1.9244
  518SOL     OW 1552   1.381   0.539   1.203  0.6693 -0.5810 -0.3790
  518SOL    HW1 1553   1.304   0.520   1.134 -1.1268  1.3012  2.5640
  518SOL    HW2 1554   1.459   0.472   1.208  1.9226  0.2705  2.2982
  519SOL     OW 1555   2.704   2.240   0.172 -0.6770  0.1242 -0.5715
  519SOL    HW1 1556   2.715   2.281   0.266  0.8709  0.7217  0.3821
  519SOL    HW2 1557   2.733   2.310   0.105 -1.8172 -0.0063 -0.2597
  520SOL     OW 1558   1.987   2.047   1.810  0.4717 -0.3241  0.3772
  520SOL    HW1 1559   1.978   1.980   1.882 -0.2920  0.2081 -1.0368
  520SOL    HW2 1560   1.953   2.013   1.721  2.2038  0.8977  0.3934
  521SOL     OW 1561   1.677   2.737   2.313 -0.1021  0.0341 -0.1304
  521SOL    HW1 1562   1.598   2.706   2.370  3.4147 -0.3946  1.8886
  521SOL    HW2 1563   1.670   2.835   2.300  0.9732 -0.7239  1.1127
  522SOL     OW 1564   2.899   0.217   1.885 -0.2207 -0.3823  0.5308
  522SOL    HW1 1565   2.951   0.285   1.827  0.5823 -0.1710  0.4062
  522SOL    HW2 1566   2.897   0.123   1.841 -0.9630 -0.0098 -0.9297
  523SOL     OW 1567   0.956   1.888   1.417 -0.2833  0.1579  0.4529
  523SOL    HW1 1568   0.991   1.958   1.481  2.0978 -5.4214  0.1132
  523SOL    HW2 1569   0.891   1.932   1.350 -2.8785 -1.5764 -3.9306
  524SOL     OW 1570   2.149   2.064   2.938 -0.9325  0.1984  0.2059
  524SOL    HW1 1571   2.186   2.016   2.856 -0.0896 -0.5412 -1.6299
  524SOL    HW2 1572   2.050   2.042   2.949  0.3188 -0.8761  0.5518
  525SOL     OW 1573   2.836   1.125   0.212  0.2540  0.1126  0.7300
  525SOL    HW1 1574   2.909   1.065   0.250  0.7996 -1.8277  0.9358
  525SOL    HW2 1575   2.821   1.094   0.118 -1.5820 -0.2633  0.3121
  526SOL     OW 1576   1.030   2.724   1.043  0.4016  0.4783 -0.5576
  526SOL    HW1 1577   1.050   2.821   1.018 -0.6753 -0.2057 -1.1087
  526SOL    HW2 1578   0.999   2.711   1.142 -0.7114  1.5288 -2.0215
  527SOL     OW 1579   2.437   1.484   0.650 -0.7967  0.4259  0.1366
  527SOL    HW1 1580   2.360   1.419   0.622 -1.1657 -3.9646 -0.4769
  527SOL    HW2 1581   2.454   1.548   0.577 -0.7378  1.9185  0.7362
  528SOL     OW 1582   0.581   0.843   2.565  0.1838 -0.4908 -0.4040
  528SOL    HW1 1583   0.644   0.895   2.505 -3.7285  2.0840 -1.2509
  528SOL    HW2 1584   0.493   0.829   2.517  0.6263  1.8515  0.8036
  529SOL     OW 1585   0.526   1.469   3.025  0.3660  0.6096  0.1523
  529SOL    HW1 1586   0.455   1.540   3.019 -0.6915 -0.2880 -1.0552
  529SOL    HW2 1587   0.488   1.388   3.080 -0.2989 -1.6544 -0.0483
  530SOL     OW 1588   1.419   0.895   1.698 -0.3193 -0.1028 -0.4006
  530SOL    HW1 1589   1.498   0.832   1.724 -0.8463  2.6293 -0.5135
  530SOL    HW2 1590   1.328   0.872   1.739  0.1916 -1.3112  2.4484
  531SOL     OW 1591   1.242   2.224   3.056 -0.1034  0.2590 -0.4841
  531SOL    HW1 1592   1.209   2.191   2.965  1.1966 -0.3092 -1.8098
  531SOL    HW2 1593   1.340   2.194   3.069  1.7459 -2.0769 -0.9851
  532SOL     OW 1594   2.487   0.694   0.177  0.2486  0.1392  0.1658
  532SOL    HW1 1595   2.404   0.656   0.228 -0.7180 -1.4194 -1.8744
  532SOL    HW2 1596   2.500   0.635   0.095 -0.2584 -0.7601  1.2441
  533SOL     OW 1597   3.008   0.450   2.167  0.0194 -0.6741  0.2650
  533SOL    HW1 1598   3.027   0.360   2.214 -0.3951  0.1497 -0.9833
  533SOL    HW2 1599   2.914   0.467   2.135  1.4790 -2.4326 -0.5807
  534SOL     OW 1600   1.899   0.123   0.079 -0.0396  0.3444  0.0657
  534SOL    HW1 1601   1.868   0.059   0.155  1.5667 -1.8392 -0.5174
  534SOL    HW2 1602   1.992   0.148   0.091 -0.9851  1.3119 -2.0035
  535SOL     OW 1603   0.416   0.180   2.994 -0.0629 -0.5888 -0.0258
  535SOL    HW1 1604   0.466   0.222   2.915  2.6694  3.6026 -2.0468
  535SOL    HW2 1605   0.401   0.244   3.073 -2.5173  1.6212  0.3689
  536SOL     OW 1606   0.743   1.565   1.653  0.5904 -0.1212  0.3129
  536SOL    HW1 1607   0.699   1.655   1.667 -0.5717 -1.4967 -0.6794
  536SOL    HW2 1608   0.798   1.559   1.564  0.4140  0.2406 -3.0187
  537SOL     OW 1609   0.226   2.713   1.843  0.2357 -0.5557  0.4565
  537SOL    HW1 1610   0.303   2.701   1.777 -2.2679  0.5029 -0.4678
  537SOL    HW2 1611   0.260   2.691   1.936  1.3085  1.6230  2.5676
  538SOL     OW 1612   2.939   2.116   0.147  0.0411  0.1578 -0.4380
  538SOL    HW1 1613   2.837   2.147   0.141 -3.2366  3.0278  1.9674
  538SOL    HW2 1614   2.984   2.114   0.059 -3.3440  3.5877  2.2049
  539SOL     OW 1615   2.665   0.865   2.744  0.0616  0.3416  0.1797
  539SOL    HW1 1616   2.739   0.800   2.747 -1.7542  1.0225 -0.7870
  539SOL    HW2 1617   2.625   0.893   2.836 -2.6380 -0.6275  1.4823
  540SOL     OW 1618   1.801   0.729   0.133 -0.4850  0.0171 -0.7200
  540SOL    HW1 1619   1.868   0.788   0.087 -1.4408  0.4314 -0.3533
  540SOL    HW2 1620   1.749   0.777   0.206  0.5263  2.9943 -0.9739
  541SOL     OW 1621   1.061   0.505   2.070 -0.2112 -0.4058 -0.4229
  541SOL    HW1 1622   1.074   0.413   2.119  1.2199  1.1256  0.4529
  541SOL    HW2 1623   0.960   0.524   2.065  1.0178  1.7395 -1.2647
  542SOL     OW 1624   1.727   2.478   2.265 -0.3609 -0.0312  0.1014
  542SOL    HW1 1625   1.704   2.577   2.292 -2.8034  4.1254 -0.2519
  542SOL    HW2 1626   1.769   2.480   2.170  1.3654  0.7846  0.4413
  543SOL     OW 1627   0.810   2.890   0.412  0.5162  0.3886  0.0334
  543SOL    HW1 1628   0.753   2.971   0.429 -0.9213 -1.0692  1.1615
  543SOL    HW2 1629   0.839   2.877   0.320  0.2526 -3.0009  1.6422
  544SOL     OW 1630   2.779   1.876   2.130  0.1611 -0.2660 -0.1345
  544SOL    HW1 1631   2.864   1.880   2.071 -1.0785  3.3643  0.3672
  544SOL    HW2 1632   2.804   1.871   2.228 -0.1705 -2.1236 -2.0921
  545SOL     OW 1633   1.313   1.886   1.387  0.6237  0.6386  0.4300
  545SOL    HW1 1634   1.324   1.784   1.375 -1.7339 -2.5506  0.1968
  545SOL    HW2 1635   1.244   1.914   1.317  3.6082 -0.5692  1.7984
  546SOL     OW 1636   0.556   0.042   2.281 -0.7355  0.4504 -0.2268
  546SOL    HW1 1637   0.592   0.008   2.374 -0.4173  0.1183  0.4261
  546SOL    HW2 1638   0.466   0.086   2.304 -0.2246  0.8935  2.6823
  547SOL     OW 1639   1.084   0.468   0.267  0.3609 -0.3570 -0.5095
  547SOL    HW1 1640   1.023   0.388   0.253 -0.2196 -0.4140  1.1556
  547SOL    HW2 1641   1.035   0.551   0.254  2.1135  0.7062 -1.5734
  548SOL     OW 1642   1.481   2.080   3.101 -0.1154  0.4765  0.3081
  548SOL    HW1 1643   1.559   2.080   0.056  1.5974 -3.5324 -2.0102
  548SOL    HW2 1644   1.510   2.025   3.017 -0.1194 -0.8740 -2.1804
  549SOL     OW 1645   2.140   1.017   0.136  0.4378 -0.1661  0.1947
  549SOL    HW1 1646   2.099   1.112   0.119 -2.9059  0.9600 -0.4078
  549SOL    HW2 1647   2.157   1.003   0.237 -0.9246  4.4532  1.1745
  550SOL     OW 1648   2.468   2.103   0.113  0.0306  0.2178 -0.0504
  550SOL    HW1 1649   2.394   2.098   0.183 -1.5460  1.8833 -1.6838
  550SOL    HW2 1650   2.555   2.137   0.145 -1.0037 -0.6186 -3.4426
  551SOL     OW 1651   1.281   0.462   1.467  0.2823 -0.0026  0.6407
  551SOL    HW1 1652   1.290   0.474   1.365 -2.9826  1.7648 -1.6192
  551SOL    HW2 1653   1.199   0.405   1.484 -1.0414  0.2912  1.8064
  552SOL     OW 1654   0.326   2.318   2.913 -0.1295  0.0476  0.3934
  552SOL    HW1 1655   0.305   2.214   2.917  0.5332  1.3700  0.8748
  552SOL    HW2 1656   0.242   2.370   2.942  1.0818 -1.3614 -2.8621
  553SOL     OW 1657   2.889   2.772   0.776 -0.0188 -0.3172 -0.0623
  553SOL    HW1 1658   2.901   2.685   0.826 -1.2592 -0.6476 -0.7642
  553SOL    HW2 1659   2.969   2.826   0.792 -4.0334 -3.0273 -0.9211
  554SOL     OW 1660   1.998   1.478   1.668  0.0728 -0.3463  0.1899
  554SOL    HW1 1661   2.002   1.380   1.690  1.4626  2.4099  2.0051
  554SOL    HW2 1662   1.906   1.523   1.652 -2.5366  2.0618 -1.0929
  555SOL     OW 1663   1.460   2.064   2.167 -0.7958 -0.0415  0.2063
  555SOL    HW1 1664   1.368   2.035   2.194  0.7392 -0.0407 -0.1753
  555SOL    HW2 1665   1.465   2.166   2.181 -2.3825  2.8490 -0.1472
  556SOL     OW 1666   1.209   1.562   1.795  0.1118 -0.1946 -0.0810
  556SOL    HW1 1667   1.138   1.522   1.855 -2.4809  0.8818  0.6610
  556SOL    HW2 1668   1.164   1.627   1.735  0.8156 -0.3422  0.8273
  557SOL     OW 1669   1.388   3.045   1.722  0.1295 -0.1343  0.2759
  557SOL    HW1 1670   1.438   2.991   1.790 -3.9329  0.6243  1.2805
  557SOL    HW2 1671   1.324   3.102   1.772 -0.0047 -2.7108 -0.0659
  558SOL     OW 1672   0.525   2.904   2.113  0.3410 -0.2406  0.1429
  558SOL    HW1 1673   0.466   2.958   2.047 -0.8846  1.0123 -4.3186
  558SOL    HW2 1674   0.549   2.964   2.192  0.8670 -0.3662 -3.1266
  559SOL     OW 1675   1.884   2.415   0.170  0.2899 -0.2419  0.0729
  559SOL    HW1 1676   1.835   2.504   0.155  1.3345 -0.2789 -1.6911
  559SOL    HW2 1677   1.924   2.406   0.262 -0.9938  1.8712  0.1731
  560SOL     OW 1678   1.209   2.061   0.393 -0.1185 -0.1610 -0.0259
  560SOL    HW1 1679   1.284   1.993   0.425 -2.4120  2.2653  2.2925
  560SOL    HW2 1680   1.233   2.103   0.307  0.3717  0.8300  1.1359
  561SOL     OW 1681   1.228   0.502   0.013 -0.3436 -0.5858 -0.4302
  561SOL    HW1 1682   1.179   0.482   0.097 -0.8322  0.3687 -0.6032
  561SOL    HW2 1683   1.242   0.415   3.067  0.5004  1.2212 -0.8845
  562SOL     OW 1684   0.511   1.385   1.924 -0.4148 -0.3583 -0.6336
  562SOL    HW1 1685   0.606   1.350   1.920  1.9404 -0.2153  3.0468
  562SOL    HW2 1686   0.483   1.423   1.834  2.8214  0.9375  0.7243
  563SOL     OW 1687   1.528   2.254   2.668  0.2991 -0.1430  0.1877
  563SOL    HW1 1688   1.513   2.304   2.757  2.1420 -2.4287  0.7472
  563SOL    HW2 1689   1.580   2.167   2.685 -1.1905  1.3422  0.4595
  564SOL     OW 1690   2.837   0.942   1.019  0.4319 -0.1389 -0.1801
  564SOL    HW1 1691   2.790   0.887   0.949 -0.9648  1.0030  2.2707
  564SOL    HW2 1692   2.779   1.026   1.048  1.8929 -1.3089  2.3691
  565SOL     OW 1693   0.408   1.215   0.024 -0.7500 -0.0518  0.3451
  565SOL    HW1 1694   0.331   1.158   3.098 -1.5091 -1.9639  1.2063
  565SOL    HW2 1695   0.492   1.187   3.084 -1.3926 -1.1342  0.2990
  566SOL     OW 1696   2.631   2.801   2.929  0.3926  0.4393 -0.5360
  566SOL    HW1 1697   2.637   2.899   2.958  2.4063  2.3283 -3.2938
  566SOL    HW2 1698   2.571   2.749   2.999 -0.7167 -0.1729 -1.2553
  567SOL     OW 1699   1.299   1.244   1.149  0.2438 -0.0576  0.0718
  567SOL    HW1 1700   1.375   1.307   1.175  2.1815 -2.2255  0.6972
  567SOL    HW2 1701   1.305   1.160   1.204  1.1217  2.1127 -2.6400
  568SOL     OW 1702   1.291   1.278   2.917 -1.1165 -0.6332 -0.3388
  568SOL    HW1 1703   1.256   1.188   2.945 -1.8391  3.5673  0.2835
  568SOL    HW2 1704   1.226   1.331   2.855  1.7180  2.5550 -2.8903
  569SOL     OW 1705   2.307   1.736   3.043 -0.1115  0.2372 -0.4645
  569SOL    HW1 1706   2.391   1.793   3.047  0.2485  0.5871  0.6865
  569SOL    HW2 1707   2.244   1.777   0.002 -0.8324 -1.8903  3.1948
  570SOL     OW 1708   2.876   2.220   2.248 -0.4418  0.6111 -0.3231
  570SOL    HW1 1709   2.893   2.268   2.161 -0.8874 -0.7309 -1.8251
  570SOL    HW2 1710   2.935   2.134   2.252  2.7436 -2.0343 -2.2780
  571SOL     OW 1711   2.834   2.033   1.889 -0.0153 -0.0598 -0.3482
  571SOL    HW1 1712   2.846   1.938   1.857  1.2815  2.6429  1.0435
  571SOL    HW2 1713   2.753   2.042   1.947 -0.4665  1.4889  1.0653
  572SOL     OW 1714   1.648   2.223   0.533 -0.3243  0.5378  0.1624
  572SOL    HW1 1715   1.585   2.300   0.536  0.9180 -4.5954 -1.8504
  572SOL    HW2 1716   1.676   2.205   0.439 -3.7888  1.8980  2.6796
  573SOL     OW 1717   1.400   1.902   0.508 -0.8198 -0.7241 -0.3451
  573SOL    HW1 1718   1.477   1.921   0.573  1.8236  1.0556  1.0132
  573SOL    HW2 1719   1.316   1.858   0.549 -0.6004 -1.7323  3.3558
  574SOL     OW 1720   1.362   2.996   1.439 -0.2456  0.3179  0.4190
  574SOL    HW1 1721   1.444   2.936   1.437  0.8711  1.9762 -1.3207
  574SOL    HW2 1722   1.352   3.035   1.532  1.4626 -0.1781  2.4895
  575SOL     OW 1723   0.401   1.197   1.244 -0.2142 -0.1488 -0.1244
  575SOL    HW1 1724   0.441   1.118   1.297 -1.4876  0.9541  0.6921
  575SOL    HW2 1725   0.449   1.280   1.270 -1.2855 -1.1444 -1.4775
  576SOL     OW 1726   2.556   0.381   1.101 -0.1046  0.0445 -0.0779
  576SOL    HW1 1727   2.617   0.437   1.161  0.0329  3.0869 -1.0372
  576SOL    HW2 1728   2.546   0.283   1.122  1.5674 -1.0891  0.4344
  577SOL     OW 1729   1.520   0.668   2.457  0.2801  0.0140 -0.1882
  577SOL    HW1 1730   1.440   0.719   2.499  0.0941  1.1345  0.0877
  577SOL    HW2 1731   1.481   0.586   2.414 -0.1299  2.9765  0.2691
  578SOL     OW 1732   2.007   1.376   2.683 -0.1104 -0.4726 -0.3715
  578SOL    HW1 1733   1.970   1.413   2.774 -0.3774 -0.1887 -0.9829
  578SOL    HW2 1734   2.045   1.451   2.619  1.8587  0.1319 -1.7883
  579SOL     OW 1735   0.507   1.678   1.403 -0.1039 -0.0911 -0.0315
  579SOL    HW1 1736   0.503   1.761   1.459  1.4268  1.1645 -0.8939
  579SOL    HW2 1737   0.419   1.668   1.351 -2.0929  0.0021  1.5123
  580SOL     OW 1738   1.438   2.390   0.229  0.9629 -0.2024  0.6520
  580SOL    HW1 1739   1.439   2.469   0.157 -0.2032  2.0594 -3.5600
  580SOL    HW2 1740   1.523   2.339   0.229  1.6610 -0.2911 -2.7719
  581SOL     OW 1741   0.942   1.028   2.198 -0.2129  0.6696  0.0903
  581SOL    HW1 1742   0.894   1.076   2.121 -1.8984 -1.8792 -0.0530
  581SOL    HW2 1743   0.997   0.950   2.161 -2.4476 -0.7563  0.4248
  582SOL     OW 1744   0.676   1.117   0.863  0.0976  0.1177 -0.0529
  582SOL    HW1 1745   0.708   1.032   0.914  0.6490 -1.7798  0.6975
  582SOL    HW2 1746   0.709   1.203   0.906 -0.4136 -1.9226  1.7814
  583SOL     OW 1747   0.825   1.199   2.033 -0.3560  0.7240 -0.2334
  583SOL    HW1 1748   0.817   1.257   1.950 -0.8910  0.1174  2.0124
  583SOL    HW2 1749   0.811   1.254   2.116 -1.1697  2.0339  0.0151
  584SOL     OW 1750   2.183   2.740   0.399 -0.0847 -0.0296 -0.1568
  584SOL    HW1 1751   2.082   2.754   0.389 -1.3462 -1.4297 -1.1014
  584SOL    HW2 1752   2.226   2.811   0.462 -0.3437 -0.6377 -0.3695
  585SOL     OW 1753   1.995   0.273   2.732 -0.0789 -0.2302 -0.5913
  585SOL    HW1 1754   1.994   0.177   2.768  0.1679 -1.3707  1.4152
  585SOL    HW2 1755   1.916   0.297   2.669 -1.4248  0.7116 -0.5302
  586SOL     OW 1756   0.111   1.713   0.380  0.3276 -0.2964  0.0868
  586SOL    HW1 1757   0.087   1.683   0.472 -1.3268 -0.0584 -3.1590
  586SOL    HW2 1758   0.059   1.664   0.308 -1.0837 -2.0750 -1.4686
  587SOL     OW 1759   1.768   1.809   0.778  0.0638  0.6658  0.2201
  587SOL    HW1 1760   1.794   1.731   0.718 -0.0162  1.3488  0.7916
  587SOL    HW2 1761   1.829   1.813   0.860 -0.6345  1.0536 -1.6535
  588SOL     OW 1762   0.526   0.359   0.974  0.3127  0.7104  0.3018
  588SOL    HW1 1763   0.482   0.305   1.045 -0.6903 -1.6593 -0.1187
  588SOL    HW2 1764   0.584   0.299   0.911  0.8243 -0.7211 -1.4832
  589SOL     OW 1765   1.222   0.497   0.989  0.0379 -0.0856 -0.2175
  589SOL    HW1 1766   1.130   0.492   0.947 -0.8521 -2.3265 -1.6596
  589SOL    HW2 1767   1.266   0.589   0.971 -1.7269 -0.3431 -2.7033
  590SOL     OW 1768   1.435   1.086   0.246  0.2113  0.2578 -1.1959
  590SOL    HW1 1769   1.484   1.170   0.210 -0.1850  0.7621  0.8071
  590SOL    HW2 1770   1.353   1.118   0.300 -0.3722 -1.7754  2.4542
  591SOL     OW 1771   2.698   2.682   2.457  0.0933 -0.1630 -0.1042
  591SOL    HW1 1772   2.699   2.651   2.558 -0.1913  1.8019  2.4686
  591SOL    HW2 1773   2.763   2.629   2.400 -0.8011  3.9041 -0.4925
  592SOL     OW 1774   1.417   1.993   0.919  0.7365  0.5403 -0.7622
  592SOL    HW1 1775   1.471   2.019   0.838 -2.8520 -1.2495  0.4497
  592SOL    HW2 1776   1.440   2.050   0.998  0.1218 -0.8088 -2.1601
  593SOL     OW 1777   1.085   0.087   0.922 -0.0263  0.1992  0.1749
  593SOL    HW1 1778   1.098   3.102   0.882 -0.5185  1.2116 -0.9725
  593SOL    HW2 1779   1.058   0.066   1.017  0.4321 -1.5171 -2.0292
  594SOL     OW 1780   3.092   0.820   2.251 -0.8103  0.3284  0.0281
  594SOL    HW1 1781   0.014   0.792   2.162 -0.6515  0.3291  2.4216
  594SOL    HW2 1782   3.067   0.741   2.312 -0.5933 -0.5995  2.0668
  595SOL     OW 1783   0.567   2.419   1.283 -0.0474  0.0834 -0.0838
  595SOL    HW1 1784   0.584   2.430   1.383 -0.4848 -1.9906 -0.4083
  595SOL    HW2 1785   0.473   2.450   1.261 -1.5182 -0.2129  0.6227
  596SOL     OW 1786   0.183   0.884   1.461  0.0396 -0.4908  0.2496
  596SOL    HW1 1787   0.254   0.854   1.525  0.9039  0.9017 -2.3825
  596SOL    HW2 1788   0.104   0.815   1.470  2.7975 -1.5187  1.4657
  597SOL     OW 1789   1.865   1.898   0.319 -0.3685 -0.1715  0.2175
  597SOL    HW1 1790   1.786   1.847   0.354 -0.4420 -0.7131  0.2903
  597SOL    HW2 1791   1.955   1.848   0.339  1.8641 -0.1639  0.7635
  598SOL     OW 1792   0.453   2.829   1.674 -0.1064 -0.6595 -0.1572
  598SOL    HW1 1793   0.502   2.899   1.620 -1.0307 -2.3114 -1.0139
  598SOL    HW2 1794   0.518   2.761   1.720  2.5516 -1.0578  0.1557
  599SOL     OW 1795   2.487   1.920   2.784 -0.1491  0.2374 -0.7590
  599SOL    HW1 1796   2.386   1.923   2.774 -2.4182 -1.5356  0.5814
  599SOL    HW2 1797   2.504   1.922   2.886  0.4735  1.0768  1.4319
  600SOL     OW 1798   0.625   0.911   0.146 -0.4486  0.5627 -0.2865
  600SOL    HW1 1799   0.667   0.998   0.110 -1.6372 -1.5982  0.5369
  600SOL    HW2 1800   0.654   0.893   0.242  1.9019 -0.9698  1.7700
  601SOL     OW 1801   0.750   0.865   0.409  0.6472 -0.5858  0.2538
  601SOL    HW1 1802   0.824   0.904   0.467  0.9933 -2.7854  0.9719
  601SOL    HW2 1803   0.679   0.822   0.462 -1.4536 -0.8534 -0.3501
  602SOL     OW 1804   1.382   2.787   0.841 -0.1613 -0.3907 -0.1492
  602SOL    HW1 1805   1.474   2.812   0.880  2.1379  1.3329 -0.6581
  602SOL    HW2 1806   1.387   2.821   0.743  0.5515  2.4789 -0.9061
  603SOL     OW 1807   0.725   2.704   2.122 -0.1881  0.2675 -0.3428
  603SOL    HW1 1808   0.656   2.777   2.103 -3.3903  1.4059  0.2512
  603SOL    HW2 1809   0.775   2.674   2.035  2.4796 -1.4785 -0.4271
  604SOL     OW 1810   0.132   0.059   2.186  0.8659 -0.0254  0.0120
  604SOL    HW1 1811   0.166   3.077   2.156  2.0312 -0.1592  0.0075
  604SOL    HW2 1812   0.199   0.115   2.238 -3.0809 -1.9741 -0.9152
  605SOL     OW 1813   2.650   2.193   1.315  0.3987 -0.0356  0.1168
  605SOL    HW1 1814   2.624   2.280   1.271  1.1770  0.4811 -0.1082
  605SOL    HW2 1815   2.626   2.197   1.415  2.6228  1.2520  1.3918
  606SOL     OW 1816   0.280   1.619   2.927  0.2098 -0.0924 -0.1546
  606SOL    HW1 1817   0.317   1.696   2.980  0.2529  2.8482  1.6927
  606SOL    HW2 1818   0.303   1.624   2.831  0.4474  0.6459 -0.4594
  607SOL     OW 1819   0.976   0.254   0.104 -0.1007  0.4235 -0.4886
  607SOL    HW1 1820   0.881   0.224   0.113  0.0286 -1.3476  0.4684
  607SOL    HW2 1821   1.003   0.265   0.006 -1.4540 -1.8595  2.0023
  608SOL     OW 1822   1.807   1.088   2.298 -0.5581  0.4806  0.2302
  608SOL    HW1 1823   1.833   1.145   2.379  1.3510  0.3665 -0.4194
  608SOL    HW2 1824   1.800   0.993   2.328 -0.3203  3.8745 -0.1210
  609SOL     OW 1825   2.927   0.373   0.936 -0.0297  0.2663 -0.0690
  609SOL    HW1 1826   2.966   0.316   1.006  0.7536 -0.3535 -1.0150
  609SOL    HW2 1827   2.914   0.474   0.962 -1.9833  2.0981  0.9753
  610SOL     OW 1828   0.537   2.780   0.654 -0.5269 -0.3788 -0.6186
  610SOL    HW1 1829   0.623   2.748   0.608  0.4087  1.5970  1.1174
  610SOL    HW2 1830   0.481   2.702   0.689  0.4852  3.6019  0.8617
  611SOL     OW 1831   1.570   1.074   2.874  0.1672  0.1466  0.0249
  611SOL    HW1 1832   1.538   1.019   2.951  0.7230  0.5183 -0.6893
  611SOL    HW2 1833   1.566   1.171   2.887  1.6231 -2.7878  0.9587
  612SOL     OW 1834   0.948   2.140   2.345  0.3980 -0.3016 -0.0299
  612SOL    HW1 1835   0.948   2.092   2.437 -0.9502 -1.7731 -1.2685
  612SOL    HW2 1836   0.951   2.239   2.359  1.2707 -3.9339 -0.0317
  613SOL     OW 1837   1.197   2.262   0.211 -0.4361  0.0265 -0.3746
  613SOL    HW1 1838   1.287   2.303   0.226  0.5139  0.5634  1.0730
  613SOL    HW2 1839   1.187   2.232   0.115 -0.2119 -1.0570 -1.0492
  614SOL     OW 1840   2.541   3.051   1.399 -0.0449  0.1777 -0.0759
  614SOL    HW1 1841   2.630   3.027   1.355  1.5043 -1.3793  1.6450
  614SOL    HW2 1842   2.560   3.084   1.491 -1.5593 -1.8121 -1.9560
  615SOL     OW 1843   2.281   1.462   0.008 -0.3642 -0.2236  0.4054
  615SOL    HW1 1844   2.273   1.561   3.091  0.5356  0.7997 -0.0854
  615SOL    HW2 1845   2.376   1.434   0.037 -1.3351  1.8932  0.2567
  616SOL     OW 1846   1.423   0.074   0.285 -0.2689  0.1437  0.2050
  616SOL    HW1 1847   1.328   0.088   0.252  1.1305  0.5971  1.7930
  616SOL    HW2 1848   1.465   0.167   0.313  0.5296  1.2651  1.8595
  617SOL     OW 1849   0.718   1.130   0.023  0.5100  0.4324 -0.8304
  617SOL    HW1 1850   0.760   1.125   3.045 -1.6041 -3.0967  4.5962
  617SOL    HW2 1851   0.744   1.217   0.072  2.3943 -1.4725  1.9391
  618SOL     OW 1852   0.797   0.497   2.097 -0.3928 -0.1450  0.2749
  618SOL    HW1 1853   0.737   0.465   2.173  1.6136  1.9507  0.5839
  618SOL    HW2 1854   0.740   0.540   2.030 -0.1164 -1.0036  2.5737
  619SOL     OW 1855   0.132   1.151   1.392 -0.6662  0.5759 -0.3921
  619SOL    HW1 1856   0.142   1.173   1.291  1.0831  3.9780  2.2799
  619SOL    HW2 1857   0.168   1.059   1.414 -0.1374  2.1780  0.0206
  620SOL     OW 1858   1.856   1.033   2.849 -0.3566  0.0052 -0.0458
  620SOL    HW1 1859   1.878   0.966   2.779 -0.9064  0.4671 -0.9483
  620SOL    HW2 1860   1.758   1.054   2.844  3.0492  0.6113 -3.4386
  621SOL     OW 1861   2.305   2.745   1.130  0.8317  0.1303 -0.3836
  621SOL    HW1 1862   2.221   2.806   1.132 -4.2055 -0.3933 -3.0138
  621SOL    HW2 1863   2.357   2.759   1.221  3.8070  1.6997  3.2315
  622SOL     OW 1864   1.282   0.833   2.515 -0.0051 -0.2203  0.5193
  622SOL    HW1 1865   1.336   0.910   2.551 -2.2024 -0.1169 -2.0578
  622SOL    HW2 1866   1.209   0.807   2.582  2.0823  2.3183  0.2266
  623SOL     OW 1867   1.292   0.266   3.012 -0.6722 -0.0491  0.3480
  623SOL    HW1 1868   1.215   0.222   2.965 -2.0634 -1.9996  2.2937
  623SOL    HW2 1869   1.378   0.206   3.028  0.5345 -3.8779  2.6671
  624SOL     OW 1870   1.708   0.575   3.060  0.6979  0.1292  0.3709
  624SOL    HW1 1871   1.744   0.625   0.034 -0.5141 -3.6723 -3.4393
  624SOL    HW2 1872   1.782   0.520   3.016  0.3904 -1.0022 -2.2801
  625SOL     OW 1873   0.802   1.339   0.914 -0.0808  0.7408  0.4810
  625SOL    HW1 1874   0.893   1.289   0.907  1.0987 -0.6004 -2.4697
  625SOL    HW2 1875   0.795   1.384   1.007 -0.1236  0.1528 -0.0260
  626SOL     OW 1876   1.541   1.312   3.009  0.3356 -0.3681  0.7818
  626SOL    HW1 1877   1.539   1.314   0.001  0.4118 -2.7520  1.2718
  626SOL    HW2 1878   1.444   1.308   2.979 -0.7900 -2.4678 -0.0233
  627SOL     OW 1879   0.908   2.761   1.896  0.2071 -0.2956 -0.2029
  627SOL    HW1 1880   0.936   2.665   1.908 -1.9041  1.2589  2.5636
  627SOL    HW2 1881   0.978   2.829   1.921 -0.2413 -3.3739 -0.1815
  628SOL     OW 1882   2.489   0.280   2.262 -0.2297 -0.0311 -0.0258
  628SOL    HW1 1883   2.568   0.291   2.194 -0.3440  0.0022 -1.2611
  628SOL    HW2 1884   2.525   0.250   2.353 -1.5072  0.0962  0.0103
  629SOL     OW 1885   0.880   1.103   2.907  0.6422 -0.8265  0.3410
  629SOL    HW1 1886   0.965   1.085   2.851  1.6294 -1.6816 -2.4411
  629SOL    HW2 1887   0.804   1.039   2.878  0.5365 -0.6671 -2.5881
  630SOL     OW 1888   1.315   0.129   2.145  0.1663 -0.1361 -0.4612
  630SOL    HW1 1889   1.252   0.194   2.186  1.4045  0.1252 -1.6881
  630SOL    HW2 1890   1.375   0.076   2.210  0.8057  0.5270 -1.1599
  631SOL     OW 1891   2.748   0.662   0.674 -0.5279  0.4487 -0.0202
  631SOL    HW1 1892   2.699   0.699   0.756  0.7651  1.4532  0.0441
  631SOL    HW2 1893   2.799   0.737   0.632  0.3922 -0.1383  1.8123
  632SOL     OW 1894   2.081   1.043   1.180  0.0564  0.8592  0.4310
  632SOL    HW1 1895   2.021   0.971   1.142 -0.2356 -1.4568 -0.0926
  632SOL    HW2 1896   2.167   0.998   1.210 -2.7731  1.4764  1.7126
  633SOL     OW 1897   1.554   0.694   0.700  0.3042 -0.3195 -0.2521
  633SOL    HW1 1898   1.610   0.781   0.700  0.0212  2.2233 -3.2293
  633SOL    HW2 1899   1.529   0.668   0.792 -4.5417  1.5168  0.6828
  634SOL     OW 1900   1.857   3.009   0.715  0.3200 -0.2213  0.4889
  634SOL    HW1 1901   1.908   3.034   0.801  1.1661 -0.8504  2.5486
  634SOL    HW2 1902   1.771   3.061   0.703 -0.3924 -0.0704 -2.5746
  635SOL     OW 1903   1.637   0.746   1.138 -0.3159 -0.0623 -0.2397
  635SOL    HW1 1904   1.605   0.687   1.058 -1.4888 -1.3380  0.2154
  635SOL    HW2 1905   1.552   0.793   1.168 -2.5816 -0.3387 -2.4553
  636SOL     OW 1906   0.576   0.486   0.704 -0.1671  0.4022  0.1987
  636SOL    HW1 1907   0.507   0.512   0.773 -0.3254 -2.2617  1.0157
  636SOL    HW2 1908   0.654   0.429   0.742  0.2787 -0.8549 -0.6925
  637SOL     OW 1909   2.014   2.335   0.447 -0.2304 -0.3690 -0.0521
  637SOL    HW1 1910   1.970   2.337   0.541 -2.6226  1.4949  2.6347
  637SOL    HW2 1911   2.100   2.383   0.448 -0.2290  0.4307 -1.6004
  638SOL     OW 1912   1.549   2.716   2.712 -0.2801 -0.1170  0.2978
  638SOL    HW1 1913   1.555   2.791   2.785 -0.1324  2.5335  0.8936
  638SOL    HW2 1914   1.644   2.673   2.695  2.8535 -1.0729  2.1475
  639SOL     OW 1915   0.826   2.023   1.201  0.0391 -0.4620 -0.1156
  639SOL    HW1 1916   0.840   2.113   1.246  0.0105  1.5729  0.8241
  639SOL    HW2 1917   0.740   2.016   1.146  0.0381 -2.4502  1.3153
  640SOL     OW 1918   0.347   2.675   0.303 -0.2824  0.1169 -0.3705
  640SOL    HW1 1919   0.293   2.717   0.373  1.3347  0.3473 -2.4449
  640SOL    HW2 1920   0.374   2.580   0.326 -0.4682  1.5205 -1.4318
  641SOL     OW 1921   3.103   0.254   0.086 -0.0930  0.4813 -0.0425
  641SOL    HW1 1922   3.045   0.248   0.165 -0.2995 -0.0368 -1.8625
  641SOL    HW2 1923   0.064   0.181   0.100  2.4959  0.8856  0.3294
  642SOL     OW 1924   3.041   0.947   1.198 -0.0886  0.4130  0.2446
  642SOL    HW1 1925   2.975   0.916   1.273  1.0455 -0.9985 -0.3211
  642SOL    HW2 1926   2.991   0.938   1.110  0.8823 -1.8993 -0.3317
  643SOL     OW 1927   0.734   1.800   2.032  0.3493 -0.3632 -0.0919
  643SOL    HW1 1928   0.736   1.878   2.099  1.6343  2.3962  1.1301
  643SOL    HW2 1929   0.810   1.733   2.052  0.0999 -1.2537 -1.7126
  644SOL     OW 1930   1.692   2.638   0.468 -0.5385  0.2273  0.6583
  644SOL    HW1 1931   1.657   2.541   0.470  0.9445 -1.4224  0.7783
  644SOL    HW2 1932   1.642   2.685   0.394 -2.2200 -1.2375 -1.2786
  645SOL     OW 1933   1.572   2.385   0.977  0.0188 -0.2981 -0.9058
  645SOL    HW1 1934   1.622   2.444   1.048  0.1561 -0.6782  1.1666
  645SOL    HW2 1935   1.492   2.427   0.933  2.7003 -0.1648 -0.7742
  646SOL     OW 1936   1.263   2.746   0.250  0.4265  0.4252  0.3296
  646SOL    HW1 1937   1.202   2.688   0.315  0.4244 -1.2679 -0.0303
  646SOL    HW2 1938   1.213   2.817   0.194  1.0639 -0.8607 -2.6675
  647SOL     OW 1939   0.456   3.084   1.853 -0.1841 -0.1987  0.2575
  647SOL    HW1 1940   0.350   3.090   1.841 -0.9649  0.5609 -1.7589
  647SOL    HW2 1941   0.495   3.013   1.790  0.4526  2.9609  1.0037
  648SOL     OW 1942   1.917   0.812   1.132 -0.2878  0.1931  0.3697
  648SOL    HW1 1943   1.959   0.762   1.210  1.3007 -1.5587 -2.3438
  648SOL    HW2 1944   1.814   0.797   1.133 -0.6694 -0.7181  1.9521
  649SOL     OW 1945   1.847   2.195   2.898 -0.0780  0.3640  0.1197
  649SOL    HW1 1946   1.839   2.098   2.929  2.1115 -0.7709  0.7448
  649SOL    HW2 1947   1.901   2.252   2.965 -0.5034  1.2290  1.7829
  650SOL     OW 1948   2.496   1.747   1.767 -0.0474 -0.2733  1.0057
  650SOL    HW1 1949   2.581   1.736   1.814 -1.8805 -0.2281 -2.3023
  650SOL    HW2 1950   2.419   1.770   1.829  0.2063  1.4595 -1.3451
  651SOL     OW 1951   1.547   1.921   2.903 -0.4714  0.3253 -0.3117
  651SOL    HW1 1952   1.613   1.857   2.946  1.1568  0.2280 -0.2308
  651SOL    HW2 1953   1.581   1.949   2.812 -0.9873 -1.7755  0.6611
  652SOL     OW 1954   0.983   2.785   2.760 -0.0334  0.1100 -0.2015
  652SOL    HW1 1955   1.006   2.682   2.754  2.1636 -1.7667 -1.9631
  652SOL    HW2 1956   1.047   2.832   2.828  1.6639 -2.5645 -1.6334
  653SOL     OW 1957   1.959   2.266   1.163 -0.1816  0.2046 -0.3887
  653SOL    HW1 1958   2.059   2.284   1.148  1.9826 -0.4087  0.0290
  653SOL    HW2 1959   1.908   2.281   1.079  2.6731 -0.9056  1.7094
  654SOL     OW 1960   2.715   2.766   2.059  0.0098 -0.2375 -0.2864
  654SOL    HW1 1961   2.749   2.713   2.139 -1.2402  1.3645 -1.1923
  654SOL    HW2 1962   2.630   2.821   2.077 -0.2841  1.3793  0.9332
  655SOL     OW 1963   2.899   2.165   1.174 -0.2515  0.2965 -0.4502
  655SOL    HW1 1964   2.867   2.170   1.077 -0.1517  1.2790 -1.0400
  655SOL    HW2 1965   2.819   2.171   1.240  0.6235  1.0977  2.7813
  656SOL     OW 1966   0.299   2.512   2.699  0.0951  0.1131 -0.4044
  656SOL    HW1 1967   0.365   2.500   2.619  0.7253  0.1644 -1.8118
  656SOL    HW2 1968   0.285   2.426   2.750 -1.1366  0.4169  1.2001
  657SOL     OW 1969   2.933   0.868   0.599  0.1379  0.3428  0.3074
  657SOL    HW1 1970   2.990   0.779   0.602  0.7889 -1.0974  2.0189
  657SOL    HW2 1971   2.863   0.868   0.524 -1.9042 -0.7125  0.7441
  658SOL     OW 1972   1.514   1.734   1.023  0.2152 -0.2559 -0.3522
  658SOL    HW1 1973   1.420   1.694   1.047  0.6854 -1.0404  1.5370
  658SOL    HW2 1974   1.507   1.832   0.991  0.7522  1.9518 -0.4227
  659SOL     OW 1975   1.567   0.324   1.168  0.4796  0.5153 -0.0728
  659SOL    HW1 1976   1.628   0.256   1.215 -1.9694  1.9008  2.4629
  659SOL    HW2 1977   1.493   0.277   1.114 -1.0025 -0.6442  0.2832
  660SOL     OW 1978   1.795   1.218   0.492  0.1972 -0.1889 -0.2997
  660SOL    HW1 1979   1.803   1.119   0.469  0.7992  2.1031 -1.3559
  660SOL    HW2 1980   1.696   1.250   0.496 -0.0864  0.3721 -2.5376
  661SOL     OW 1981   0.318   1.596   0.235  0.0836 -0.1592  0.4001
  661SOL    HW1 1982   0.277   1.525   0.175 -0.1384 -0.2887  1.0456
  661SOL    HW2 1983   0.238   1.640   0.283 -0.8332  1.1382  1.3371
  662SOL     OW 1984   2.931   1.082   2.158 -0.1630 -0.5220 -0.1777
  662SOL    HW1 1985   2.910   0.983   2.132  0.6418 -2.3221 -0.4000
  662SOL    HW2 1986   2.850   1.147   2.153 -1.4430  0.5179  1.3984
  663SOL     OW 1987   2.198   1.437   1.293 -0.7362 -0.5834 -0.4587
  663SOL    HW1 1988   2.253   1.518   1.281 -1.8384 -0.5751 -0.9728
  663SOL    HW2 1989   2.203   1.412   1.390  1.2759 -0.2018 -1.5274
  664SOL     OW 1990   0.544   0.002   1.162 -0.6143 -0.2930  0.0429
  664SOL    HW1 1991   0.490   3.031   1.194 -1.7701 -0.4777  2.3490
  664SOL    HW2 1992   0.612   0.027   1.231 -2.8137 -1.8187  0.6321
  665SOL     OW 1993   1.343   3.000   2.686  0.1636  0.6262 -0.4165
  665SOL    HW1 1994   1.441   2.991   2.694 -2.5776 -0.2738 -0.2723
  665SOL    HW2 1995   1.290   2.967   2.768 -1.5345 -0.7010 -0.9580
  666SOL     OW 1996   0.487   0.607   2.290 -0.4455  0.4241 -0.0956
  666SOL    HW1 1997   0.442   0.571   2.208  2.7027  0.7756  0.5097
  666SOL    HW2 1998   0.425   0.676   2.337 -2.2566  2.4836  1.8035
  667SOL     OW 1999   1.899   1.578   2.315  0.1152 -0.2919  0.0591
  667SOL    HW1 2000   1.964   1.587   2.238  3.2838 -0.8929 -1.2446
  667SOL    HW2 2001   1.943   1.538   2.394  1.4676  0.5761 -0.4389
  668SOL     OW 2002   0.063   1.707   2.695  0.1661 -0.4758  0.3530
  668SOL    HW1 2003   0.078   1.610   2.689 -1.3644  2.4212 -1.5568
  668SOL    HW2 2004   0.036   1.737   2.791 -0.6424 -0.5895  0.7225
  669SOL     OW 2005   2.353   3.078   2.515 -0.4682  0.1071  0.8719
  669SOL    HW1 2006   2.447   3.028   2.499  0.3450  1.4050 -1.0985
  669SOL    HW2 2007   2.374   0.058   2.555 -1.0125 -0.8042  1.6491
  670SOL     OW 2008   2.737   1.068   2.512  0.2212 -0.0454 -0.5841
  670SOL    HW1 2009   2.821   1.044   2.461 -0.0561 -2.0730 -2.9082
  670SOL    HW2 2010   2.711   1.008   2.590 -2.5651  0.3120  2.5913
  671SOL     OW 2011   2.526   1.894   3.040 -0.2313  0.3041 -0.1977
  671SOL    HW1 2012   2.505   1.972   3.104  1.0684 -0.4301 -3.2125
  671SOL    HW2 2013   2.612   1.843   3.064  0.2037  1.3255  1.5897
  672SOL     OW 2014   2.431   1.472   2.164 -0.4915  0.0175 -0.0643
  672SOL    HW1 2015   2.383   1.449   2.252 -2.3397 -3.1280  1.7426
  672SOL    HW2 2016   2.364   1.452   2.094  0.9028  0.7533  1.1054
  673SOL     OW 2017   2.793   1.603   1.012  0.8377  0.3170  0.0373
  673SOL    HW1 2018   2.714   1.667   0.994 -2.3828  0.3423 -2.0515
  673SOL    HW2 2019   2.877   1.655   1.016  0.4815 -0.6378 -2.2321
  674SOL     OW 2020   1.389   1.711   1.944 -0.3342 -0.4714 -0.4969
  674SOL    HW1 2021   1.458   1.750   1.882 -0.4966 -0.7323  1.4197
  674SOL    HW2 2022   1.341   1.630   1.898  1.0962 -2.2818 -0.5821
  675SOL     OW 2023   2.756   0.521   1.289 -0.2131 -0.4278  0.2909
  675SOL    HW1 2024   2.838   0.526   1.230 -0.2415 -0.9369  1.8207
  675SOL    HW2 2025   2.773   0.460   1.369  0.4554 -0.3882  1.7007
  676SOL     OW 2026   2.780   1.266   0.624 -0.1245  0.5768  0.3270
  676SOL    HW1 2027   2.687   1.222   0.632 -1.1657 -0.3715  0.4749
  676SOL    HW2 2028   2.859   1.209   0.656  1.0601 -2.1437  2.5092
  677SOL     OW 2029   1.700   1.490   2.131 -0.1610  0.1426  0.1033
  677SOL    HW1 2030   1.781   1.504   2.190  1.8137 -1.6364 -1.0456
  677SOL    HW2 2031   1.694   1.393   2.110  0.1044 -1.7291 -1.2109
  678SOL     OW 2032   2.498   1.301   0.993 -0.1674 -0.5272 -0.0323
  678SOL    HW1 2033   2.487   1.396   0.942 -1.1588  3.0576  0.2503
  678SOL    HW2 2034   2.412   1.285   1.050 -0.7364 -2.2448  1.6600
  679SOL     OW 2035   0.453   2.536   0.718 -0.2602  0.1207 -0.4301
  679SOL    HW1 2036   0.546   2.522   0.753 -1.8777  1.2469 -1.0703
  679SOL    HW2 2037   0.391   2.484   0.776  0.8352  2.0872 -2.4779
  680SOL     OW 2038   2.633   1.978   1.134 -0.1638  0.1687 -0.0996
  680SOL    HW1 2039   2.713   1.998   1.079 -0.9768  0.1541  1.0972
  680SOL    HW2 2040   2.618   2.060   1.195 -1.1304  0.8065  1.3668
  681SOL     OW 2041   0.909   0.955   1.259 -0.6550  0.7512  0.3072
  681SOL    HW1 2042   0.984   0.933   1.325  1.3734 -0.9430  1.6831
  681SOL    HW2 2043   0.841   0.881   1.262  0.7731  3.1124 -1.4751
  682SOL     OW 2044   1.626   0.039   0.727  0.4006  0.1884  0.1748
  682SOL    HW1 2045   1.604   0.049   0.826 -0.0706  2.3472 -1.2771
  682SOL    HW2 2046   1.542   0.012   0.672  0.5060 -1.3891  0.2232
  683SOL     OW 2047   2.379   1.451   1.694 -0.1501 -0.4523  0.0153
  683SOL    HW1 2048   2.415   1.545   1.694  0.7350 -2.0478  0.2632
  683SOL    HW2 2049   2.455   1.385   1.717  1.3094 -3.2918  0.7508
  684SOL     OW 2050   0.030   1.744   1.667 -0.1739 -0.3402  0.3513
  684SOL    HW1 2051   0.027   1.673   1.591  0.4460 -2.0166 -1.2682
  684SOL    HW2 2052   0.115   1.731   1.724  2.1472 -2.1829  1.8301
  685SOL     OW 2053   2.078   1.727   0.341 -0.5503 -0.2650 -0.3108
  685SOL    HW1 2054   2.135   1.745   0.424 -1.9481  0.7951  1.1238
  685SOL    HW2 2055   2.099   1.639   0.296 -2.4583  2.2167  0.3344
  686SOL     OW 2056   2.700   0.194   0.852 -0.5694  0.8447  0.2577
  686SOL    HW1 2057   2.743   0.275   0.892  0.8785 -1.6598 -0.7705
  686SOL    HW2 2058   2.721   0.179   0.754 -1.3104 -1.7719  0.1235
  687SOL     OW 2059   1.610   3.098   2.604  0.3655 -0.4369  0.2586
  687SOL    HW1 2060   1.587   0.082   2.644  1.5490 -3.0122  0.8478
  687SOL    HW2 2061   1.711   3.091   2.586 -3.2887  0.2701  0.2641
  688SOL     OW 2062   1.633   1.970   2.372  0.1608 -0.8423  0.2650
  688SOL    HW1 2063   1.698   1.892   2.389 -0.8008 -0.8284 -1.0809
  688SOL    HW2 2064   1.551   1.958   2.308 -1.5009 -1.4087  0.7543
  689SOL     OW 2065   2.729   1.214   1.977 -0.3919  0.3362 -0.1870
  689SOL    HW1 2066   2.745   1.307   2.021  1.3586  2.0901  1.3310
  689SOL    HW2 2067   2.807   1.176   1.915 -0.4625 -1.2501 -1.7503
  690SOL     OW 2068   1.747   2.027   1.055  0.2900  0.2375  0.4702
  690SOL    HW1 2069   1.680   1.984   1.118 -1.7063  0.3745  1.5452
  690SOL    HW2 2070   1.826   1.964   1.043 -2.3467  0.0825 -2.7230
  691SOL     OW 2071   0.430   1.239   0.854 -0.1473 -0.0677  0.0663
  691SOL    HW1 2072   0.506   1.171   0.873  1.7233 -1.7878  2.8153
  691SOL    HW2 2073   0.346   1.213   0.900  0.5935  0.5364  0.2131
  692SOL     OW 2074   2.516   2.933   2.181 -0.4206 -0.2648  0.2458
  692SOL    HW1 2075   2.468   3.016   2.147 -1.2495  2.6151  0.2775
  692SOL    HW2 2076   2.451   2.858   2.200 -1.2628 -0.6836 -1.6868
  693SOL     OW 2077   3.098   1.534   2.401  0.4678  0.0344 -0.2297
  693SOL    HW1 2078   3.070   1.554   2.496  1.5101 -0.4952 -2.8044
  693SOL    HW2 2079   0.089   1.500   2.398  1.4840 -0.6032  1.9952
  694SOL     OW 2080   2.168   0.141   1.300  0.3924  0.1315  0.3633
  694SOL    HW1 2081   2.168   0.039   1.306  0.9698 -0.1033 -0.7698
  694SOL    HW2 2082   2.147   0.191   1.385  1.7007 -2.5023 -3.4196
  695SOL     OW 2083   1.213   1.040   3.019 -0.3913  0.2234  0.7266
  695SOL    HW1 2084   1.191   1.079   0.003 -1.2318  0.2792 -0.0407
  695SOL    HW2 2085   1.226   0.938   3.022 -1.4243  0.4607  0.3199
  696SOL     OW 2086   1.753   0.192   1.912 -0.1367  0.1627 -0.1363
  696SOL    HW1 2087   1.786   0.289   1.934 -1.5021 -0.1235 -1.4097
  696SOL    HW2 2088   1.691   0.191   1.831  0.0903  2.9077 -1.2869
  697SOL     OW 2089   1.715   0.168   2.201 -0.4414  0.4044  0.5350
  697SOL    HW1 2090   1.708   0.258   2.251  0.7949  1.1069 -1.2238
  697SOL    HW2 2091   1.727   0.189   2.102 -2.2735  1.4589 -0.2989
  698SOL     OW 2092   1.751   1.746   2.472  0.7969 -0.8690  0.6815
  698SOL    HW1 2093   1.705   1.683   2.533 -0.0281  1.7211 -1.4497
  698SOL    HW2 2094   1.824   1.699   2.418  0.6562  1.1229  0.2010
  699SOL     OW 2095   1.880   0.660   0.390  0.2961 -0.4852  0.1216
  699SOL    HW1 2096   1.884   0.666   0.287  0.7986  1.0940  0.8120
  699SOL    HW2 2097   1.785   0.648   0.413  0.3830 -0.0250 -0.8592
  700SOL     OW 2098   1.448   3.009   3.107  0.3425 -0.4704  0.0289
  700SOL    HW1 2099   1.535   2.997   0.054  2.2041  0.1562  1.8932
  700SOL    HW2 2100   1.364   2.993   0.053 -0.8578 -0.2734 -0.2238
  701SOL     OW 2101   0.139   0.397   1.175 -0.5447  0.0555  0.2355
  701SOL    HW1 2102   0.131   0.482   1.119 -0.8966 -0.9844 -0.8063
  701SOL    HW2 2103   0.053   0.346   1.159  3.6186 -1.5356 -3.2081
  702SOL     OW 2104   1.804   0.106   1.536 -0.4977  0.6698  0.4283
  702SOL    HW1 2105   1.725   0.125   1.596 -0.5041 -2.2554 -2.0088
  702SOL    HW2 2106   1.807   0.006   1.515 -0.5668  0.9427 -0.9874
  703SOL     OW 2107   2.884   0.896   1.428 -0.7296  0.3586  0.2226
  703SOL    HW1 2108   2.811   0.824   1.436  1.1474  0.1796  1.2884
  703SOL    HW2 2109   2.845   0.988   1.450 -1.1368 -1.2578  2.1464
  704SOL     OW 2110   0.864   2.237   1.382 -0.1518  0.9430 -0.3833
  704SOL    HW1 2111   0.966   2.257   1.412  0.4958 -0.7613  0.6651
  704SOL    HW2 2112   0.795   2.307   1.413 -4.3235  0.8440  1.0617
  705SOL     OW 2113   0.440   1.672   2.334  0.1924  0.0663  0.1150
  705SOL    HW1 2114   0.438   1.683   2.233 -1.7383 -0.7544 -1.3211
  705SOL    HW2 2115   0.410   1.755   2.383  1.5281 -0.9554 -0.8474
  706SOL     OW 2116   2.681   0.419   2.828 -0.3252 -0.2285  0.6914
  706SOL    HW1 2117   2.605   0.375   2.778  0.6255 -1.3741  2.2643
  706SOL    HW2 2118   2.700   0.375   2.917  0.1916 -0.2861 -0.9619
  707SOL     OW 2119   1.907   2.680   2.432 -0.1550 -0.1525  0.5952
  707SOL    HW1 2120   1.975   2.755   2.411 -0.1102  2.4554 -1.2587
  707SOL    HW2 2121   1.819   2.700   2.392  2.1205 -0.6614  1.4046
  708SOL     OW 2122   0.455   2.439   1.716 -0.0330  0.2163  0.3678
  708SOL    HW1 2123   0.504   2.467   1.803  1.6013 -0.3544  2.3623
  708SOL    HW2 2124   0.356   2.423   1.736 -1.7048  0.7754  4.3108
  709SOL     OW 2125   0.131   0.912   1.929  0.0820  0.6740 -0.0759
  709SOL    HW1 2126   0.095   0.943   1.837  0.3239  2.6157 -3.0926
  709SOL    HW2 2127   0.124   0.811   1.946 -0.2963  1.6570  1.3998
  710SOL     OW 2128   0.128   0.480   1.433 -0.3419  0.3211 -0.3779
  710SOL    HW1 2129   0.172   0.455   1.342  0.4973  0.6555 -2.2184
  710SOL    HW2 2130   0.081   0.570   1.424 -2.0886  1.2998  1.1430
  711SOL     OW 2131   3.096   2.573   1.232 -0.0207 -0.6000  0.4409
  711SOL    HW1 2132   3.067   2.491   1.284 -1.7749  1.6203  2.3169
  711SOL    HW2 2133   0.016   2.553   1.135  0.3842 -3.1061  1.0411
  712SOL     OW 2134   0.305   0.157   2.352 -0.1286 -0.5524  0.4734
  712SOL    HW1 2135   0.281   0.106   2.434 -0.6377  2.6113 -2.2039
  712SOL    HW2 2136   0.321   0.251   2.389 -0.4033 -4.8317  0.6017
  713SOL     OW 2137   2.334   0.250   0.380  0.2968  0.0650 -0.0137
  713SOL    HW1 2138   2.262   0.310   0.348  2.9827 -2.7787  1.9214
  713SOL    HW2 2139   2.419   0.303   0.382 -0.3535 -0.5019 -0.9132
  714SOL     OW 2140   1.762   1.632   0.204  0.0385  0.5689 -0.2263
  714SOL    HW1 2141   1.728   1.693   0.279 -0.3304  0.5061 -0.3038
  714SOL    HW2 2142   1.785   1.539   0.238  1.7479 -0.3141 -0.0406
  715SOL     OW 2143   0.034   0.337   0.785 -0.3557 -0.1798 -1.2164
  715SOL    HW1 2144   0.055   0.236   0.792 -1.1413  3.2681  1.6163
  715SOL    HW2 2145   3.072   0.357   0.852  1.8536  1.0593 -1.8588
  716SOL     OW 2146   1.188   0.574   1.848  0.1315  0.2449 -0.5986
  716SOL    HW1 2147   1.226   0.487   1.807 -0.8831 -2.4095 -0.8523
  716SOL    HW2 2148   1.155   0.554   1.942  2.3284  0.5892  0.2210
  717SOL     OW 2149   0.373   0.495   3.046 -0.2837 -0.0285 -0.2413
  717SOL    HW1 2150   0.309   0.545   2.984  1.6710  0.0898 -3.1522
  717SOL    HW2 2151   0.467   0.522   3.036  1.2770  1.3560  0.6404
  718SOL     OW 2152   1.033   0.831   0.103  0.0600  0.4936  0.1270
  718SOL    HW1 2153   1.050   0.927   0.131 -1.6594 -0.9694  3.8234
  718SOL    HW2 2154   1.109   0.793   0.052 -1.1627 -0.3624 -0.3189
  719SOL     OW 2155   2.651   2.359   2.721  0.4808  0.2223 -0.5308
  719SOL    HW1 2156   2.698   2.312   2.643 -1.4475 -2.3765  0.0552
  719SOL    HW2 2157   2.555   2.379   2.699  0.8249 -0.7495 -0.8865
  720SOL     OW 2158   1.355   0.804   1.229 -0.6294 -0.4165 -0.0625
  720SOL    HW1 2159   1.375   0.863   1.313  0.1707  3.9199 -0.0993
  720SOL    HW2 2160   1.359   0.703   1.248  1.4882  1.2621  1.2779
  721SOL     OW 2161   0.080   2.722   1.456 -0.2129 -0.3916 -0.0373
  721SOL    HW1 2162   0.006   2.683   1.508  1.2140 -0.5551  1.5481
  721SOL    HW2 2163   0.069   2.701   1.359 -1.0125  0.2234 -2.0047
  722SOL     OW 2164   0.792   1.497   2.920 -0.8699 -0.4275 -0.3408
  722SOL    HW1 2165   0.701   1.485   2.966 -2.1686  0.4818 -0.7340
  722SOL    HW2 2166   0.862   1.435   2.961  2.0821 -1.3134  1.5020
  723SOL     OW 2167   2.014   0.355   0.571  0.3176  0.5129  0.4704
  723SOL    HW1 2168   2.084   0.336   0.644  1.2261 -1.8453 -2.1135
  723SOL    HW2 2169   1.937   0.404   0.610 -2.8434  1.1640 -0.4038
  724SOL     OW 2170   0.781   2.308   3.089 -0.0366  0.6187  0.4780
  724SOL    HW1 2171   0.796   2.213   0.018  0.0666 -1.3391  0.9429
  724SOL    HW2 2172   0.721   2.361   0.047 -0.8024 -0.5062  2.8712
  725SOL     OW 2173   0.219   0.876   1.180 -0.4345 -0.1325 -0.6875
  725SOL    HW1 2174   0.131   0.917   1.153 -0.6178 -1.2226  0.3434
  725SOL    HW2 2175   0.224   0.874   1.282  0.0775 -0.1177 -0.4689
  726SOL     OW 2176   2.558   0.647   0.491 -0.0886 -0.2663 -0.0717
  726SOL    HW1 2177   2.591   0.719   0.431 -0.4167  1.1627  2.7104
  726SOL    HW2 2178   2.615   0.638   0.571 -2.2122  0.9724  0.9341
  727SOL     OW 2179   1.896   1.176   2.537 -0.3630 -0.4670 -0.1408
  727SOL    HW1 2180   1.936   1.235   2.611 -0.0994 -2.2398  0.2335
  727SOL    HW2 2181   1.913   1.079   2.553  0.1367  1.5907 -1.7291
  728SOL     OW 2182   1.799   2.958   1.428 -0.3651 -0.3777 -0.2143
  728SOL    HW1 2183   1.861   2.874   1.429 -2.1471 -0.5571 -0.5397
  728SOL    HW2 2184   1.702   2.928   1.405  1.2729 -0.7927  0.2874
  729SOL     OW 2185   2.370   0.774   2.299  0.2789  0.3371  0.7477
  729SOL    HW1 2186   2.429   0.754   2.381 -0.6184  2.6491  1.0157
  729SOL    HW2 2187   2.314   0.856   2.327  1.5791  1.3259  1.9987
  730SOL     OW 2188   1.093   0.883   1.451  0.2871  0.2497 -0.1874
  730SOL    HW1 2189   1.138   0.974   1.457 -2.0112 -2.4964 -0.6605
  730SOL    HW2 2190   1.149   0.811   1.500  0.6082  0.4512 -1.1816
  731SOL     OW 2191   0.314   0.310   0.118  0.1022  0.4001 -0.0870
  731SOL    HW1 2192   0.306   0.344   0.215  0.8911 -0.1884 -5.1575
  731SOL    HW2 2193   0.351   0.387   0.060 -1.0101  0.7424  0.2227
  732SOL     OW 2194   0.256   0.451   0.389  0.4800  0.2843 -0.0921
  732SOL    HW1 2195   0.314   0.524   0.349 -0.2775  1.9754  1.7498
  732SOL    HW2 2196   0.242   0.469   0.487  1.7385  0.9706  2.0767
  733SOL     OW 2197   1.656   1.573   2.646  0.2118 -0.4351  0.4433
  733SOL    HW1 2198   1.658   1.479   2.613  1.0350  1.6960 -0.1699
  733SOL    HW2 2199   1.662   1.577   2.750 -0.6308 -1.4268  1.3793
  734SOL     OW 2200   0.206   2.162   2.627  0.2181 -0.1792 -0.0066
  734SOL    HW1 2201   0.262   2.160   2.544 -0.5632 -3.0226  2.0477
  734SOL    HW2 2202   0.247   2.126   2.709 -2.3194 -1.0361 -1.7369
  735SOL     OW 2203   1.938   0.427   1.223  0.2328 -0.2372  0.1325
  735SOL    HW1 2204   1.990   0.392   1.145 -2.4551  0.9972  2.7169
  735SOL    HW2 2205   1.980   0.507   1.267 -2.9714 -1.7425 -1.2886
  736SOL     OW 2206   1.621   1.766   0.025 -0.8089 -0.5365  0.7515
  736SOL    HW1 2207   1.662   1.698   0.086  0.5455  1.4706 -1.1485
  736SOL    HW2 2208   1.543   1.813   0.063 -0.3678 -0.7564  1.5700
  737SOL     OW 2209   2.961   0.385   0.576  0.0958  0.1312  0.3385
  737SOL    HW1 2210   2.918   0.478   0.590 -2.3085 -1.4610 -1.2696
  737SOL    HW2 2211   3.014   0.356   0.659 -0.9211 -2.2234  3.7290
  738SOL     OW 2212   0.643   2.001   1.827 -0.1145  0.3534  0.4415
  738SOL    HW1 2213   0.608   1.968   1.736  0.3715 -0.9795 -0.7366
  738SOL    HW2 2214   0.705   1.929   1.867  0.1074 -1.6711  0.1853
  739SOL     OW 2215   1.121   2.643   2.455 -0.4809  0.1831  0.3338
  739SOL    HW1 2216   1.111   2.632   2.554  1.0566 -1.6064  0.0661
  739SOL    HW2 2217   1.210   2.605   2.430 -4.0260  0.4423  0.4511
  740SOL     OW 2218   1.660   2.396   1.479  0.0548  0.2075 -0.3024
  740SOL    HW1 2219   1.661   2.312   1.423 -0.9202  0.1665  3.2714
  740SOL    HW2 2220   1.699   2.375   1.572  3.1536 -3.2574 -1.3003
  741SOL     OW 2221   2.297   0.642   0.426 -0.5270 -0.8842  0.8889
  741SOL    HW1 2222   2.391   0.658   0.461  0.0616 -0.5081  0.6057
  741SOL    HW2 2223   2.227   0.697   0.479 -3.0807 -0.7258 -0.1236
  742SOL     OW 2224   0.955   2.566   0.198  0.6584  0.2827  0.0463
  742SOL    HW1 2225   1.001   2.540   0.116 -1.0685 -1.4188 -2.9689
  742SOL    HW2 2226   0.944   2.483   0.260 -2.0600 -1.4346  1.2487
  743SOL     OW 2227   2.513   0.824   2.071  0.1599 -0.0239 -0.1179
  743SOL    HW1 2228   2.470   0.800   2.163 -1.1884  1.0364  1.7731
  743SOL    HW2 2229   2.501   0.924   2.044 -0.0055  1.2129 -0.7797
  744SOL     OW 2230   2.413   0.398   0.790 -0.2941  0.0748  0.1472
  744SOL    HW1 2231   2.376   0.320   0.730 -0.7052  1.4110  0.3516
  744SOL    HW2 2232   2.452   0.364   0.877  0.3452 -1.0379  1.4137
  745SOL     OW 2233   2.580   1.300   1.756  0.4211 -0.3648 -0.0157
  745SOL    HW1 2234   2.573   1.199   1.739  0.3405 -0.8374 -0.4205
  745SOL    HW2 2235   2.639   1.321   1.838 -1.0663  2.8055  2.4036
  746SOL     OW 2236   1.449   1.321   0.726 -0.2395  0.1690  0.2860
  746SOL    HW1 2237   1.477   1.421   0.735 -0.9542  0.4845  2.3305
  746SOL    HW2 2238   1.349   1.304   0.750 -0.5722  0.9623 -2.4115
  747SOL     OW 2239   1.473   1.618   1.633 -0.2491 -0.5538 -0.3135
  747SOL    HW1 2240   1.493   1.717   1.657 -0.9860  4.2551 -1.6079
  747SOL    HW2 2241   1.382   1.597   1.602  3.8618  1.4925  3.8704
  748SOL     OW 2242   0.384   2.780   3.062 -0.6773  0.5367 -0.2830
  748SOL    HW1 2243   0.410   2.685   3.057  0.4177 -1.0528 -2.5799
  748SOL    HW2 2244   0.392   2.829   0.043  0.2813  3.9936  1.8912
  749SOL     OW 2245   0.344   1.295   2.534  0.2252  0.4571 -0.3970
  749SOL    HW1 2246   0.401   1.232   2.481 -1.1120  1.7530  2.2037
  749SOL    HW2 2247   0.306   1.360   2.470  2.1281 -1.4134  1.3077
  750SOL     OW 2248   1.904   0.758   2.128 -0.5621 -0.1764  0.1103
  750SOL    HW1 2249   1.959   0.669   2.108 -0.9032 -1.4337 -1.5813
  750SOL    HW2 2250   1.826   0.760   2.065 -3.3872  0.2664 -0.8515
  751SOL     OW 2251   2.587   0.371   0.396  0.0326 -0.2780 -0.6191
  751SOL    HW1 2252   2.638   0.378   0.308 -1.3761  1.0696 -0.7743
  751SOL    HW2 2253   2.587   0.459   0.451  1.0302 -0.7127  1.4312
  752SOL     OW 2254   0.318   2.302   0.877 -0.1677 -0.3615 -0.2902
  752SOL    HW1 2255   0.219   2.275   0.869  0.7746  0.2575 -3.1825
  752SOL    HW2 2256   0.359   2.271   0.964  1.7376  1.0858  0.5038
  753SOL     OW 2257   1.147   2.485   1.091 -0.3456  0.3325  0.4564
  753SOL    HW1 2258   1.108   2.391   1.065 -0.6829 -1.9655 -0.3259
  753SOL    HW2 2259   1.090   2.565   1.062 -0.5393  0.7612 -0.4021
  754SOL     OW 2260   0.175   3.081   1.838 -0.6237  0.4228  0.4208
  754SOL    HW1 2261   0.146   0.055   1.894  2.5779  0.2153  0.7810
  754SOL    HW2 2262   0.116   3.073   1.751 -0.5160  0.3410 -0.7187
  755SOL     OW 2263   2.085   0.761   0.517 -0.1225 -0.6498 -0.1499
  755SOL    HW1 2264   2.012   0.704   0.478  0.6566  0.8795  2.9538
  755SOL    HW2 2265   2.085   0.749   0.620 -0.7497 -1.2040  1.1263
  756SOL     OW 2266   2.128   2.370   2.647 -0.1424 -0.5663 -0.1549
  756SOL    HW1 2267   2.074   2.409   2.727 -0.2421  0.9553  2.8526
  756SOL    HW2 2268   2.075   2.397   2.563  1.5854 -0.7427 -3.3911
  757SOL     OW 2269   1.628   0.305   0.586  0.3881 -0.1644  0.2674
  757SOL    HW1 2270   1.700   0.358   0.626 -2.4301 -3.3694 -2.0465
  757SOL    HW2 2271   1.634   0.210   0.619  0.9527 -3.1688 -1.2196
  758SOL     OW 2272   2.268   0.613   1.321 -0.3913  0.1969  0.3443
  758SOL    HW1 2273   2.314   0.577   1.404 -0.0528  1.3112  0.4593
  758SOL    HW2 2274   2.315   0.579   1.239  0.0072 -4.4695  1.2398
  759SOL     OW 2275   2.323   0.530   1.055  0.2958  0.1348  0.2533
  759SOL    HW1 2276   2.408   0.478   1.076  0.9229 -2.1608  0.3289
  759SOL    HW2 2277   2.335   0.596   0.978 -0.7596  0.1805 -1.6481
  760SOL     OW 2278   2.251   1.244   1.110 -0.2289 -0.1273  0.1568
  760SOL    HW1 2279   2.212   1.315   1.174 -1.7062 -1.8203  0.7167
  760SOL    HW2 2280   2.196   1.158   1.128 -0.9498 -1.3909 -2.1488
  761SOL     OW 2281   0.724   0.429   0.273 -0.2291  0.0569 -0.2326
  761SOL    HW1 2282   0.758   0.525   0.272 -0.1826 -1.5785  0.9440
  761SOL    HW2 2283   0.664   0.411   0.356 -2.3813 -0.2753  1.0181
  762SOL     OW 2284   0.979   1.931   0.927  0.2237  0.4763  0.0888
  762SOL    HW1 2285   1.003   1.901   1.023 -0.6113  0.5435  0.7268
  762SOL    HW2 2286   0.881   1.910   0.903  1.2008  0.6058  0.7532
  763SOL     OW 2287   1.398   0.984   1.437  0.5772 -0.2073  0.0643
  763SOL    HW1 2288   1.381   0.947   1.531  1.0770  0.6151  1.2303
  763SOL    HW2 2289   1.499   0.997   1.424 -0.3863  0.3019 -0.0788
  764SOL     OW 2290   0.325   1.747   2.646  0.7628  0.3192  0.0647
  764SOL    HW1 2291   0.227   1.729   2.663 -0.4224  0.9658 -0.3839
  764SOL    HW2 2292   0.335   1.814   2.573 -0.4518 -1.0551 -2.4198
  765SOL     OW 2293   0.844   2.620   1.620  0.3706  0.5286 -0.1396
  765SOL    HW1 2294   0.904   2.676   1.559  0.0742  0.0496 -2.3449
  765SOL    HW2 2295   0.908   2.554   1.668 -0.4870 -0.0663 -1.7988
  766SOL     OW 2296   2.797   2.250   2.521 -0.2429  0.2887  0.0383
  766SOL    HW1 2297   2.887   2.251   2.572  2.6138  4.0422  0.7976
  766SOL    HW2 2298   2.817   2.259   2.420 -0.3391 -0.1816 -3.2287
  767SOL     OW 2299   1.379   1.063   2.211  0.0575 -0.2202 -0.1928
  767SOL    HW1 2300   1.422   1.126   2.146  0.6119 -0.2476  0.9513
  767SOL    HW2 2301   1.290   1.098   2.242  0.2455  1.4389  2.1924
  768SOL     OW 2302   1.262   1.950   0.056 -0.4817 -0.3279  0.3147
  768SOL    HW1 2303   1.239   1.880   3.090 -0.6561 -1.0470 -2.9587
  768SOL    HW2 2304   1.342   2.004   0.038 -1.7187 -4.2440  0.4384
  769SOL     OW 2305   0.218   2.180   1.522  0.0194 -0.1242  0.1281
  769SOL    HW1 2306   0.204   2.224   1.430  1.7164  0.9043 -1.9504
  769SOL    HW2 2307   0.144   2.113   1.532 -0.7491  2.1476  0.3983
  770SOL     OW 2308   1.425   1.033   2.632  0.3331 -0.0219 -0.0558
  770SOL    HW1 2309   1.470   1.052   2.721  0.5894 -0.9723  2.2375
  770SOL    HW2 2310   1.471   1.085   2.561 -2.0227 -0.1371 -0.9300
  771SOL     OW 2311   0.194   2.911   2.077  0.2955 -0.0795 -0.3519
  771SOL    HW1 2312   0.247   2.821   2.093  3.9312 -0.6844 -0.9925
  771SOL    HW2 2313   0.200   2.941   1.980  2.0652 -0.6138 -2.4599
  772SOL     OW 2314   2.283   2.091   1.790 -0.2488 -0.1968  0.7223
  772SOL    HW1 2315   2.298   2.000   1.830  1.9292 -1.7084  2.2798
  772SOL    HW2 2316   2.181   2.097   1.773  1.3234  2.2803  1.6929
  773SOL     OW 2317   0.532   1.853   1.614 -0.1905  0.1617 -0.0545
  773SOL    HW1 2318   0.449   1.803   1.647  0.7472  0.1114  0.6713
  773SOL    HW2 2319   0.507   1.937   1.567 -0.3030 -0.5303  1.0169
  774SOL     OW 2320   1.148   0.451   2.399 -0.2288 -0.7637  0.3406
  774SOL    HW1 2321   1.195   0.442   2.487 -1.1505  0.1853  0.5195
  774SOL    HW2 2322   1.096   0.541   2.398 -1.0583 -0.8426  2.9725
  775SOL     OW 2323   2.029   2.882   3.077  0.0974 -0.3404  0.1248
  775SOL    HW1 2324   1.952   2.949   3.072  2.5941  2.0858  2.4953
  775SOL    HW2 2325   2.099   2.910   3.008 -1.3913 -0.3463 -0.2924
  776SOL     OW 2326   0.023   0.658   2.031  0.1848 -0.0766 -0.3306
  776SOL    HW1 2327   3.091   0.581   2.083 -0.8109 -0.2539  1.0687
  776SOL    HW2 2328   0.098   0.611   1.981 -0.9367 -0.2941 -2.1896
  777SOL     OW 2329   2.329   1.992   2.149 -0.0800 -0.1364 -0.1495
  777SOL    HW1 2330   2.355   1.897   2.161 -2.6255  0.0089 -1.1417
  777SOL    HW2 2331   2.327   2.046   2.235 -2.1693 -0.9380  2.9561
  778SOL     OW 2332   2.032   1.001   2.146  0.2303  0.0477 -0.0225
  778SOL    HW1 2333   1.960   1.056   2.192 -1.3867  0.6917 -0.4002
  778SOL    HW2 2334   1.997   0.908   2.135 -1.0426  1.6755  0.1335
  779SOL     OW 2335   2.560   1.052   0.307  0.6545  0.1267  0.0828
  779SOL    HW1 2336   2.636   1.104   0.269 -2.0561 -1.7011  0.6063
  779SOL    HW2 2337   2.520   0.986   0.239 -2.3082 -3.2253 -0.6777
  780SOL     OW 2338   2.321   0.420   2.946 -0.0163 -0.7599  0.4264
  780SOL    HW1 2339   2.298   0.383   2.858  1.9108  1.3852  1.0862
  780SOL    HW2 2340   2.353   0.351   3.011  0.6800 -2.7406 -1.8934
  781SOL     OW 2341   0.016   1.984   1.513  0.2535  0.2682  0.2517
  781SOL    HW1 2342   3.059   2.028   1.577  0.4310 -1.3231 -2.7042
  781SOL    HW2 2343   0.041   1.894   1.550  3.7226  0.0072  0.9192
  782SOL     OW 2344   2.406   2.480   2.956  0.6816  0.5590 -0.1733
  782SOL    HW1 2345   2.412   2.481   2.855 -0.2949  0.4353  1.5739
  782SOL    HW2 2346   2.376   2.388   2.988  0.5948  1.9239  1.4372
  783SOL     OW 2347   0.541   1.410   1.331  0.1952 -0.1510  0.0713
  783SOL    HW1 2348   0.633   1.381   1.361 -1.6038 -1.2612  0.5203
  783SOL    HW2 2349   0.536   1.517   1.345  0.6259  2.5485  0.3482
  784SOL     OW 2350   1.651   0.737   2.845 -0.3196 -0.3435  0.3552
  784SOL    HW1 2351   1.742   0.725   2.791  0.3172  0.3754 -0.7614
  784SOL    HW2 2352   1.666   0.679   2.930 -1.0535  0.4540 -1.2746
  785SOL     OW 2353   2.486   2.712   0.931 -0.1465  0.1862  0.5547
  785SOL    HW1 2354   2.459   2.636   0.871  0.3913  1.3689 -0.7239
  785SOL    HW2 2355   2.430   2.729   1.011  1.3315  0.6842 -1.6283
  786SOL     OW 2356   0.782   2.052   2.154 -0.3369  0.2717  0.1019
  786SOL    HW1 2357   0.848   2.061   2.073 -0.2253  0.3631  2.0748
  786SOL    HW2 2358   0.817   2.111   2.225 -1.8554 -3.3298 -0.2082
  787SOL     OW 2359   1.326   0.758   0.968  0.5833 -0.6769 -0.4292
  787SOL    HW1 2360   1.354   0.778   1.066  0.3753  1.2618 -0.1269
  787SOL    HW2 2361   1.374   0.823   0.910 -0.8364 -1.9093  0.4437
  788SOL     OW 2362   3.084   0.639   0.570 -0.1788  0.0305 -0.0482
  788SOL    HW1 2363   0.072   0.602   0.580  3.5503 -0.0216  2.0338
  788SOL    HW2 2364   3.068   0.651   0.470  2.2509 -1.7144 -1.2959
  789SOL     OW 2365   3.067   1.980   1.258 -0.1823 -0.1927  0.6258
  789SOL    HW1 2366   3.002   2.057   1.229 -1.7516  0.3556 -1.0798
  789SOL    HW2 2367   3.095   1.987   1.356 -0.2866 -1.1814  2.0087
  790SOL     OW 2368   1.101   0.825   2.111 -0.2637 -0.2106  0.1177
  790SOL    HW1 2369   1.054   0.739   2.074 -1.8582  0.1159  0.0165
  790SOL    HW2 2370   1.183   0.816   2.170  0.8624 -0.6165 -1.2418
  791SOL     OW 2371   1.308   0.474   0.427 -0.0882  0.3209 -0.4750
  791SOL    HW1 2372   1.367   0.398   0.390 -0.3603 -0.5470  0.4337
  791SOL    HW2 2373   1.228   0.485   0.367  0.3138 -1.5731  0.0622
  792SOL     OW 2374   1.515   2.852   1.860  0.1126  0.2421  0.5526
  792SOL    HW1 2375   1.426   2.808   1.898 -3.2706  0.0171 -1.3025
  792SOL    HW2 2376   1.549   2.789   1.791  1.0840  0.6304  1.5873
  793SOL     OW 2377   1.222   0.457   0.683  0.2144  0.3312  0.3090
  793SOL    HW1 2378   1.125   0.487   0.674  0.5917  0.9873 -1.0357
  793SOL    HW2 2379   1.278   0.468   0.594  1.6700  1.4616 -1.5988
  794SOL     OW 2380   0.634   1.016   2.021  0.3583 -0.1423  0.0744
  794SOL    HW1 2381   0.534   1.048   2.009 -0.8735  2.8374  1.2262
  794SOL    HW2 2382   0.693   1.102   2.029 -1.4590  2.6566  1.8540
  795SOL     OW 2383   0.361   2.157   2.405  0.0012 -0.1690  0.3839
  795SOL    HW1 2384   0.441   2.219   2.414 -1.2140  1.0850  0.1030
  795SOL    HW2 2385   0.287   2.185   2.341 -0.6459 -1.5733 -1.8979
  796SOL     OW 2386   2.480   1.099   2.045  0.3683  0.6983 -0.5052
  796SOL    HW1 2387   2.511   1.090   2.141 -1.0578  1.0116  0.0008
  796SOL    HW2 2388   2.547   1.142   1.991 -0.4583 -2.4396  0.3909
  797SOL     OW 2389   3.014   2.605   2.966 -0.4045  0.5743  0.4210
  797SOL    HW1 2390   3.035   2.664   2.880 -1.0577  0.9755 -0.3395
  797SOL    HW2 2391   2.918   2.617   2.994 -0.6101 -3.0501  1.9550
  798SOL     OW 2392   0.103   2.270   2.303 -0.0998 -0.3072  0.1122
  798SOL    HW1 2393   0.138   2.345   2.243 -0.1217  2.8884 -0.0177
  798SOL    HW2 2394   0.044   2.202   2.249 -1.3948 -2.6281 -1.7247
  799SOL     OW 2395   0.607   2.340   2.824  0.0289 -0.1287 -0.5018
  799SOL    HW1 2396   0.652   2.376   2.910  0.7736  0.6586  0.7517
  799SOL    HW2 2397   0.513   2.319   2.845  2.9643 -0.9873 -0.4973
  800SOL     OW 2398   0.915   1.734   0.027 -0.0949 -0.2698 -0.4367
  800SOL    HW1 2399   0.835   1.671   0.042  0.4285  1.0353 -1.0626
  800SOL    HW2 2400   0.963   1.754   0.119  0.8060  0.7492  1.3868
  801SOL     OW 2401   1.731   1.389   1.394 -0.8783 -0.0110 -0.5602
  801SOL    HW1 2402   1.805   1.320   1.383 -0.9064  3.9347 -0.8665
  801SOL    HW2 2403   1.685   1.385   1.485  2.3579  0.2986  0.8952
  802SOL     OW 2404   2.717   1.368   0.370  0.0977  0.2554 -0.0073
  802SOL    HW1 2405   2.763   1.364   0.459 -0.6321  2.4455  1.0093
  802SOL    HW2 2406   2.759   1.295   0.309  1.1872 -3.4694 -2.5606
  803SOL     OW 2407   1.078   1.857   2.704 -0.3703 -0.0087  0.3433
  803SOL    HW1 2408   1.055   1.776   2.761 -2.7572  0.6424  2.1224
  803SOL    HW2 2409   1.122   1.828   2.619 -1.2081  0.7459  1.6023
  804SOL     OW 2410   1.823   1.322   0.196  0.3603  0.0337  0.0975
  804SOL    HW1 2411   1.814   1.273   0.289  0.5097  1.3609  0.0746
  804SOL    HW2 2412   1.895   1.282   0.135 -0.5706 -0.7331 -1.3835
  805SOL     OW 2413   2.583   1.688   2.684  0.6264 -0.3162 -0.5283
  805SOL    HW1 2414   2.536   1.757   2.745 -2.0216  1.3420  0.9225
  805SOL    HW2 2415   2.684   1.694   2.704  0.2133  1.9730  0.1288
  806SOL     OW 2416   0.399   2.979   0.523 -0.4620 -0.5568 -0.7371
  806SOL    HW1 2417   0.469   3.030   0.474  0.3198 -0.6865  1.6085
  806SOL    HW2 2418   0.447   2.898   0.564 -0.9518 -0.6106  2.4753
  807SOL     OW 2419   1.962   1.487   2.932 -0.0990 -0.1066 -0.3401
  807SOL    HW1 2420   1.949   1.574   2.987 -1.1616  0.1947  2.0153
  807SOL    HW2 2421   1.896   1.418   2.961  0.2380  1.4443  0.7591
  808SOL     OW 2422   0.008   1.682   0.630 -0.2503 -0.5233  0.2067
  808SOL    HW1 2423   3.104   1.598   0.687  0.5058 -0.0650  2.2944
  808SOL    HW2 2424   3.024   1.717   0.602  1.4916 -1.2362  0.4587
  809SOL     OW 2425   2.424   0.942   0.075  0.6388 -0.5559  0.2443
  809SOL    HW1 2426   2.455   0.849   0.111 -0.7016 -0.7449  3.9312
  809SOL    HW2 2427   2.326   0.966   0.101  1.1562 -1.6215  0.0358
  810SOL     OW 2428   0.605   1.268   0.363  0.0535  0.4686  0.1039
  810SOL    HW1 2429   0.690   1.286   0.309  0.3555 -0.6065  1.4162
  810SOL    HW2 2430   0.531   1.226   0.307 -0.6355  1.4902  0.0311
  811SOL     OW 2431   1.373   2.366   1.520 -0.1644  0.2367  0.1310
  811SOL    HW1 2432   1.469   2.403   1.513  0.0494  0.2707  2.0544
  811SOL    HW2 2433   1.379   2.261   1.531 -1.7058 -4.3887  0.3675
  812SOL     OW 2434   0.946   2.466   1.959  0.1730  0.4926  0.5746
  812SOL    HW1 2435   1.017   2.489   1.888 -0.6125 -0.0286 -1.0824
  812SOL    HW2 2436   0.978   2.402   2.028 -1.8366 -0.1191 -1.1828
  813SOL     OW 2437   1.267   0.112   1.872 -0.4957  0.4928  0.2885
  813SOL    HW1 2438   1.276   0.119   1.973 -1.4980 -1.0852 -2.2838
  813SOL    HW2 2439   1.171   0.084   1.848 -0.9584 -0.0683 -0.9123
  814SOL     OW 2440   1.242   2.386   2.809 -0.1490  0.5561  0.2451
  814SOL    HW1 2441   1.340   2.412   2.834  5.0888 -0.3280 -0.9111
  814SOL    HW2 2442   1.224   2.291   2.821  1.6151  1.0918 -0.1310
  815SOL     OW 2443   0.812   0.182   2.300 -0.0658  0.4497 -0.3056
  815SOL    HW1 2444   0.742   0.106   2.295 -2.5518 -3.6353 -1.0256
  815SOL    HW2 2445   0.760   0.267   2.300  0.9819 -2.4308 -0.5333
  816SOL     OW 2446   1.903   0.442   2.939 -0.3606 -0.1644 -0.1044
  816SOL    HW1 2447   1.979   0.508   2.954  2.4808  0.9743 -0.6480
  816SOL    HW2 2448   1.924   0.372   2.864  0.6580 -4.5925 -0.9147
  817SOL     OW 2449   2.250   0.320   2.416  0.1675 -0.0953 -0.3667
  817SOL    HW1 2450   2.337   0.299   2.368  1.8508  0.4528 -2.1433
  817SOL    HW2 2451   2.221   0.415   2.394 -1.8492 -1.7970  2.4851
  818SOL     OW 2452   1.706   0.342   0.107 -0.3630  0.2960 -0.3894
  818SOL    HW1 2453   1.709   0.418   0.042  0.5240 -1.2701  2.0468
  818SOL    HW2 2454   1.795   0.284   0.101  1.3423  1.3863 -0.6882
  819SOL     OW 2455   2.144   1.654   2.810  0.4575 -0.7372 -0.6074
  819SOL    HW1 2456   2.079   1.590   2.856 -2.0944  0.5182  0.9573
  819SOL    HW2 2457   2.202   1.700   2.881 -1.2818  2.2112  1.2740
  820SOL     OW 2458   0.100   1.956   0.030 -0.2848 -0.0183  0.0601
  820SOL    HW1 2459   0.054   2.025   3.083 -0.3904 -2.0893 -1.1181
  820SOL    HW2 2460   0.145   1.987   0.119 -0.6602 -0.6308 -1.6489
  821SOL     OW 2461   0.414   2.846   0.930 -0.2286  0.0573 -0.4913
  821SOL    HW1 2462   0.511   2.821   0.939 -2.2586 -0.6757  0.6111
  821SOL    HW2 2463   0.396   2.938   0.882 -2.3591 -0.0902 -0.3948
  822SOL     OW 2464   2.971   2.795   0.067  1.0055 -0.2642 -0.7371
  822SOL    HW1 2465   2.885   2.745   0.105 -0.1740 -2.4605  0.4164
  822SOL    HW2 2466   3.036   2.738   0.006 -0.4230 -0.6326 -2.4343
  823SOL     OW 2467   1.310   0.403   2.658 -0.4917 -0.1143 -0.0778
  823SOL    HW1 2468   1.290   0.303   2.676  0.6346 -2.4081 -1.0706
  823SOL    HW2 2469   1.398   0.429   2.709 -0.9946 -1.0419  2.9062
  824SOL     OW 2470   2.584   2.027   2.033 -0.5022 -0.7114 -0.3020
  824SOL    HW1 2471   2.647   1.961   2.077 -2.6354  0.4249 -2.4958
  824SOL    HW2 2472   2.485   1.990   2.046 -2.4619  0.6088  0.4001
  825SOL     OW 2473   3.079   2.251   2.535 -0.0554 -0.5014  0.5326
  825SOL    HW1 2474   0.051   2.221   2.590 -1.2369 -0.2374 -3.1639
  825SOL    HW2 2475   3.108   2.282   2.442 -0.9908 -0.5500 -1.6934
  826SOL     OW 2476   2.297   1.437   2.412 -0.0543 -0.5069 -0.3307
  826SOL    HW1 2477   2.291   1.337   2.431  0.7748 -2.3550  0.8129
  826SOL    HW2 2478   2.214   1.484   2.455 -1.0476  0.0155  1.0421
  827SOL     OW 2479   2.120   2.267   1.534  0.0058 -0.3237  0.1781
  827SOL    HW1 2480   2.142   2.294   1.433 -1.1548  1.5912 -2.3041
  827SOL    HW2 2481   2.136   2.354   1.585  2.0212 -0.3444  1.3271
  828SOL     OW 2482   0.286   3.107   1.422 -0.3648 -0.1847 -0.1319
  828SOL    HW1 2483   0.250   3.038   1.493 -0.4644 -3.1255  0.0004
  828SOL    HW2 2484   0.357   0.055   1.466  1.7130  1.6893  0.2039
  829SOL     OW 2485   1.382   2.412   2.472  0.1839  0.0785  0.3236
  829SOL    HW1 2486   1.426   2.351   2.542  0.8804  0.3662 -3.4222
  829SOL    HW2 2487   1.389   2.367   2.383  0.5294  0.0264 -0.4623
  830SOL     OW 2488   0.766   0.331   0.784  0.6754 -0.0646  0.1388
  830SOL    HW1 2489   0.763   0.240   0.834 -0.9567 -2.3789 -0.4367
  830SOL    HW2 2490   0.845   0.386   0.814  0.6337 -0.6738 -3.1292
  831SOL     OW 2491   2.990   1.480   2.880  0.0396  0.5842 -0.0988
  831SOL    HW1 2492   3.050   1.526   2.945  2.0364  0.2840  0.4658
  831SOL    HW2 2493   3.034   1.404   2.830 -0.1648 -1.6649  1.3533
  832SOL     OW 2494   1.682   1.945   2.013  0.4330  0.2841  0.1848
  832SOL    HW1 2495   1.623   1.973   2.092  1.9654  2.0385 -1.3905
  832SOL    HW2 2496   1.659   2.000   1.930  2.5857 -2.3717 -0.7368
  833SOL     OW 2497   0.664   0.398   2.362  0.1104 -0.1545  0.4887
  833SOL    HW1 2498   0.590   0.468   2.348 -1.4143 -3.0709  4.3188
  833SOL    HW2 2499   0.729   0.419   2.435  1.4538 -2.4378  1.7917
  834SOL     OW 2500   0.717   1.086   1.549  0.4531  0.2229 -0.0974
  834SOL    HW1 2501   0.647   1.035   1.494 -1.0708  2.9115  1.3432
  834SOL    HW2 2502   0.784   1.022   1.594 -0.5346  1.0373 -2.4291
  835SOL     OW 2503   2.798   0.958   3.093 -0.5415 -0.2158  0.1680
  835SOL    HW1 2504   2.853   0.892   3.038 -1.5714  2.3221 -2.5987
  835SOL    HW2 2505   2.715   0.993   3.042 -2.8689 -1.8917  2.8051
  836SOL     OW 2506   1.038   1.830   0.248  0.1785 -0.0917 -0.2491
  836SOL    HW1 2507   0.978   1.896   0.301  0.5614  1.1378  2.2840
  836SOL    HW2 2508   1.114   1.885   0.209 -1.3314 -0.4880  1.3737
  837SOL     OW 2509   1.780   1.572   0.983  0.3175 -0.1821  0.0882
  837SOL    HW1 2510   1.858   1.585   1.046  1.3381  1.9705  1.2624
  837SOL    HW2 2511   1.690   1.608   1.015  1.7601  0.5276 -0.4582
  838SOL     OW 2512   1.191   1.320   2.121 -0.2701 -0.0238 -0.3237
  838SOL    HW1 2513   1.153   1.247   2.184 -1.8694  0.0156 -0.9315
  838SOL    HW2 2514   1.233   1.395   2.180  0.7568  3.7642  0.7449
  839SOL     OW 2515   0.907   2.064   2.606  0.2538 -0.1420  0.2022
  839SOL    HW1 2516   0.990   2.014   2.641 -0.2806 -0.0511  2.4899
  839SOL    HW2 2517   0.863   2.100   2.694 -1.9147 -0.7142 -1.9963
  840SOL     OW 2518   0.628   2.478   0.455  0.5918 -0.1547  0.6544
  840SOL    HW1 2519   0.702   2.531   0.496 -0.8934 -2.9730  1.2961
  840SOL    HW2 2520   0.655   2.381   0.467  1.8352 -2.6130  1.2736
  841SOL     OW 2521   1.877   2.787   0.354 -0.2709  0.7974  0.1849
  841SOL    HW1 2522   1.815   2.741   0.420  0.1263  0.0435  1.6441
  841SOL    HW2 2523   1.862   2.763   0.257 -1.0415  0.2687 -0.4154
  842SOL     OW 2524   0.642   0.556   3.006 -0.1433 -0.3964  0.4908
  842SOL    HW1 2525   0.719   0.492   2.995  3.3624 -1.2709 -2.6653
  842SOL    HW2 2526   0.684   0.651   3.032  1.6847  3.5601  0.9540
  843SOL     OW 2527   1.182   0.169   0.681 -0.3590  0.1787  0.0663
  843SOL    HW1 2528   1.135   0.157   0.773 -1.5232 -1.0225  1.1187
  843SOL    HW2 2529   1.194   0.270   0.669 -0.4692  0.8927  0.7251
  844SOL     OW 2530   2.994   2.727   2.711  0.5383 -0.3500 -0.0328
  844SOL    HW1 2531   3.051   2.651   2.668 -0.0115 -2.7625  0.5647
  844SOL    HW2 2532   2.895   2.699   2.712  0.9402  2.5654  0.3212
  845SOL     OW 2533   2.660   2.364   0.949 -0.0068 -0.0512 -0.0661
  845SOL    HW1 2534   2.722   2.410   0.891 -2.4518 -0.6106  1.7165
  845SOL    HW2 2535   2.679   2.377   1.048 -1.0758  2.4062 -0.1326
  846SOL     OW 2536   0.011   1.859   2.464 -0.3154 -0.1484  0.5999
  846SOL    HW1 2537   0.056   1.949   2.471 -0.6336 -1.1074 -0.1673
  846SOL    HW2 2538   0.061   1.793   2.520  0.6132  1.7977  0.2125
  847SOL     OW 2539   1.230   0.695   1.590 -0.4092 -0.1286  0.0376
  847SOL    HW1 2540   1.205   0.682   1.687  0.9051 -0.7396 -0.5848
  847SOL    HW2 2541   1.262   0.606   1.554  1.4923 -2.2073  1.7961
  848SOL     OW 2542   2.620   3.035   3.061  0.3997 -0.5283  0.3651
  848SOL    HW1 2543   2.535   3.026   0.008  2.7042 -0.6366  0.8563
  848SOL    HW2 2544   2.708   3.033   0.009  1.2440 -1.0187  3.3861
  849SOL     OW 2545   0.734   2.840   2.770 -0.1772  0.2809  0.0246
  849SOL    HW1 2546   0.697   2.786   2.851 -1.2623  1.9167  1.1386
  849SOL    HW2 2547   0.833   2.819   2.764 -0.5148 -1.1730 -1.0355
  850SOL     OW 2548   1.077   2.642   1.470 -0.0617  0.2839 -0.1850
  850SOL    HW1 2549   1.164   2.652   1.413  0.7575  1.1044 -0.3115
  850SOL    HW2 2550   0.999   2.652   1.408  1.1313 -1.9372  0.7299
  851SOL     OW 2551   2.695   0.279   2.045 -0.4109  0.5255 -0.0400
  851SOL    HW1 2552   2.705   0.378   2.067  2.0530 -3.7576 -1.8845
  851SOL    HW2 2553   2.774   0.250   1.986  0.2160 -0.1227 -0.2278
  852SOL     OW 2554   2.175   0.944   2.382 -0.0523  0.0807 -0.2185
  852SOL    HW1 2555   2.141   0.993   2.299  1.3909 -0.9558  1.0269
  852SOL    HW2 2556   2.101   0.943   2.447  2.1356 -0.9850 -1.0691
  853SOL     OW 2557   2.782   3.021   0.550 -0.1007 -0.5363 -0.0895
  853SOL    HW1 2558   2.756   0.004   0.570  0.0055 -0.8041  3.8944
  853SOL    HW2 2559   2.708   2.961   0.583 -0.7956 -0.5886  0.6178
  854SOL     OW 2560   2.216   1.121   1.972 -0.2058  0.4573  0.3697
  854SOL    HW1 2561   2.154   1.064   2.032 -1.7316 -0.3458 -0.5660
  854SOL    HW2 2562   2.314   1.124   2.004  1.8415 -0.3596 -2.1324
  855SOL     OW 2563   0.973   2.351   0.336 -0.0058  0.4670  0.2876
  855SOL    HW1 2564   0.921   2.269   0.370 -0.8562 -1.8221 -1.8814
  855SOL    HW2 2565   1.073   2.325   0.314  0.6913  1.3970 -1.0816
  856SOL     OW 2566   0.069   0.241   2.698  0.1906  0.1156  0.2572
  856SOL    HW1 2567   0.075   0.137   2.687 -1.0092 -0.1688  0.4974
  856SOL    HW2 2568   0.040   0.269   2.789 -0.6015  1.0150 -4.0790
  857SOL     OW 2569   1.052   0.027   1.734  0.6758 -0.3793 -0.5980
  857SOL    HW1 2570   1.069   0.107   1.670 -0.2612  1.5850  0.2789
  857SOL    HW2 2571   0.951   0.009   1.738 -2.2886  2.0807  1.9656
  858SOL     OW 2572   2.518   2.238   1.770  0.2908  0.1881 -0.3708
  858SOL    HW1 2573   2.602   2.204   1.728 -0.6231 -0.5602  0.4262
  858SOL    HW2 2574   2.449   2.165   1.793 -2.7496  0.0626 -0.8220
  859SOL     OW 2575   1.428   2.326   1.788  0.2649  0.4073 -0.2450
  859SOL    HW1 2576   1.405   2.233   1.831 -0.1601 -0.1004  2.5970
  859SOL    HW2 2577   1.379   2.340   1.701 -0.7903  1.5227 -1.7690
  860SOL     OW 2578   2.494   2.690   3.107  0.3639 -0.3899 -0.6805
  860SOL    HW1 2579   2.455   2.616   3.048  0.3556  0.5198 -0.0837
  860SOL    HW2 2580   2.422   2.734   0.051  0.6416  1.2545 -3.0607
  861SOL     OW 2581   2.174   2.889   0.835 -0.6097 -0.3019 -0.1701
  861SOL    HW1 2582   2.164   2.899   0.735 -1.4679 -1.5271 -2.5803
  861SOL    HW2 2583   2.271   2.908   0.868  2.0673  1.2311  0.6315
  862SOL     OW 2584   1.862   3.060   2.523 -0.8333 -0.4458 -0.4736
  862SOL    HW1 2585   1.930   0.030   2.522  0.7344  2.0601 -0.8416
  862SOL    HW2 2586   1.887   2.977   2.584  0.0337 -1.4304  1.6430
  863SOL     OW 2587   0.008   0.722   0.858 -0.3982 -0.1604  0.6677
  863SOL    HW1 2588   0.045   0.817   0.850 -1.3487 -2.4324  1.0301
  863SOL    HW2 2589   3.109   0.687   0.761 -0.0929 -1.0193 -2.3391
  864SOL     OW 2590   0.338   2.675   2.137  0.0874 -0.1510  0.0125
  864SOL    HW1 2591   0.426   2.720   2.122 -0.2162 -0.4468 -2.1749
  864SOL    HW2 2592   0.291   2.699   2.225  0.3648  0.4636 -2.0905
  865SOL     OW 2593   0.554   1.284   2.720 -0.2317  0.3672  0.4626
  865SOL    HW1 2594   0.524   1.238   2.801 -2.5523  0.4664 -2.0945
  865SOL    HW2 2595   0.464   1.300   2.663 -1.8887 -1.6575 -0.0310
  866SOL     OW 2596   2.950   0.787   2.966  0.1720  0.3856 -0.5071
  866SOL    HW1 2597   2.947   0.771   2.862 -1.4568 -1.2797 -0.1350
  866SOL    HW2 2598   2.998   0.715   3.013  0.1688  2.5807  1.2934
  867SOL     OW 2599   2.968   3.000   2.742  0.5917 -0.2462 -0.0637
  867SOL    HW1 2600   3.064   3.026   2.750 -1.9470 -1.6269  0.7983
  867SOL    HW2 2601   2.963   2.897   2.744 -0.0285 -0.4169  2.8261
  868SOL     OW 2602   1.041   0.033   0.513 -0.0289  0.3266 -0.2694
  868SOL    HW1 2603   1.086   0.093   0.583  0.7304 -1.8682  0.7817
  868SOL    HW2 2604   1.053   3.043   0.546  0.0807  0.1406 -0.2463
  869SOL     OW 2605   1.485   1.596   0.794 -1.1127  0.1255 -0.2611
  869SOL    HW1 2606   1.566   1.631   0.742  1.3195 -0.4160  1.7404
  869SOL    HW2 2607   1.486   1.648   0.879 -0.4574  2.4616 -0.3269
  870SOL     OW 2608   1.949   1.838   0.986  0.0884  0.0024 -0.3502
  870SOL    HW1 2609   2.037   1.881   0.952 -1.1604 -0.2392  0.8801
  870SOL    HW2 2610   1.969   1.747   1.031  2.0970 -1.4683 -0.4043
  871SOL     OW 2611   1.221   1.511   1.504 -0.5591  0.4755 -0.2694
  871SOL    HW1 2612   1.229   1.416   1.552 -2.2721  1.1873  0.5263
  871SOL    HW2 2613   1.122   1.534   1.498 -0.7333 -1.0142 -0.1664
  872SOL     OW 2614   0.955   1.523   1.466 -0.2561 -0.1241 -0.2164
  872SOL    HW1 2615   0.945   1.580   1.381  0.2498 -1.5739  1.8098
  872SOL    HW2 2616   0.914   1.431   1.457 -0.2058  0.2615  1.7303
  873SOL     OW 2617   1.181   1.042   2.760  0.0539  0.3212  0.0281
  873SOL    HW1 2618   1.196   1.037   2.861  0.9228  3.5938  1.2130
  873SOL    HW2 2619   1.267   1.042   2.709 -0.1753  1.3087 -0.4819
  874SOL     OW 2620   0.064   1.437   1.270 -0.0738  0.0994  0.3224
  874SOL    HW1 2621   0.076   1.500   1.193 -2.8906 -1.1945 -0.3221
  874SOL    HW2 2622   0.025   1.353   1.234 -0.0738  0.3519  1.4165
  875SOL     OW 2623   2.693   3.068   1.032 -0.4049 -0.3695  0.4358
  875SOL    HW1 2624   2.692   0.052   0.995 -1.8029  1.2406 -0.8030
  875SOL    HW2 2625   2.740   3.002   0.972 -0.2571 -1.3345 -3.8519
  876SOL     OW 2626   0.772   0.795   3.045 -0.2053  0.7262  0.4679
  876SOL    HW1 2627   0.872   0.792   3.071  2.6596 -0.9957  0.2209
  876SOL    HW2 2628   0.719   0.842   0.009  2.0091 -2.7074 -2.7663
  877SOL     OW 2629   3.050   0.228   1.124  0.0460  0.4024 -0.3195
  877SOL    HW1 2630   2.992   0.215   1.209 -2.3489  2.6849 -3.6488
  877SOL    HW2 2631   0.011   0.155   1.129  0.1469  0.7574  0.1454
  878SOL     OW 2632   1.675   2.259   0.273  0.4486 -0.7751  0.2259
  878SOL    HW1 2633   1.738   2.330   0.233  1.8498  2.9753 -0.5196
  878SOL    HW2 2634   1.679   2.176   0.216 -0.2666 -0.2728  3.1014
  879SOL     OW 2635   2.242   1.876   1.440  0.1522 -0.2300 -0.2790
  879SOL    HW1 2636   2.208   1.851   1.533 -0.1536  0.2434  2.0247
  879SOL    HW2 2637   2.286   1.968   1.445  0.8589 -0.0379  2.2460
  880SOL     OW 2638   0.776   0.280   1.733  0.0515  0.1479  0.0474
  880SOL    HW1 2639   0.824   0.257   1.820  3.3802 -1.5699  2.0025
  880SOL    HW2 2640   0.677   0.302   1.753 -0.7264  1.8197  0.9139
  881SOL     OW 2641   1.008   2.004   3.074 -0.5396 -0.3615  0.7628
  881SOL    HW1 2642   1.096   2.012   0.014 -1.8106  0.8975 -1.7752
  881SOL    HW2 2643   0.976   1.910   3.054  0.1541 -0.4921 -1.3830
  882SOL     OW 2644   2.200   1.008   1.490 -0.0346  0.4149  0.2371
  882SOL    HW1 2645   2.220   1.108   1.508  1.0384  0.9112  1.2155
  882SOL    HW2 2646   2.253   0.973   1.407 -1.5150 -1.0531 -2.9859
  883SOL     OW 2647   1.420   0.582   2.080 -0.0009  0.1180 -0.1433
  883SOL    HW1 2648   1.367   0.657   2.132 -2.3528  1.1296  1.2304
  883SOL    HW2 2649   1.376   0.538   2.004  0.0730  0.6386  3.3824
  884SOL     OW 2650   2.649   0.219   3.071 -0.0824  1.3501  0.0493
  884SOL    HW1 2651   2.703   0.143   3.017  2.9916  1.1964 -1.5006
  884SOL    HW2 2652   2.560   0.183   3.101  2.6521 -2.3200 -0.9202
  885SOL     OW 2653   0.171   2.034   0.590 -0.8257 -0.1599 -0.3271
  885SOL    HW1 2654   0.196   2.005   0.491 -0.4579 -1.6636 -3.1640
  885SOL    HW2 2655   0.070   2.047   0.605 -1.2745  2.5095 -1.5741
  886SOL     OW 2656   1.800   1.271   2.983  0.2076 -0.0965  0.1815
  886SOL    HW1 2657   1.803   1.183   2.934  1.7705  0.3647  0.0952
  886SOL    HW2 2658   1.705   1.307   2.992 -0.0040  1.8254 -1.2069
  887SOL     OW 2659   1.535   0.400   1.625  0.5050  0.0741  0.4005
  887SOL    HW1 2660   1.613   0.461   1.612 -1.4861 -0.9196  3.5443
  887SOL    HW2 2661   1.479   0.403   1.542  2.0696 -0.1852 -1.4822
  888SOL     OW 2662   3.023   1.245   1.547  0.5318 -0.7883  0.2363
  888SOL    HW1 2663   3.084   1.202   1.480  0.0491 -3.4312 -2.5384
  888SOL    HW2 2664   2.926   1.228   1.522 -1.9327 -1.9444 -0.8299
  889SOL     OW 2665   0.045   2.527   0.971 -0.7924  0.1586 -0.2196
  889SOL    HW1 2666   0.075   2.613   0.921  4.1998 -0.4742 -1.9628
  889SOL    HW2 2667   0.071   2.445   0.914  2.3558  0.4065 -0.2945
  890SOL     OW 2668   0.270   2.692   2.399 -0.2807 -0.8789 -0.3553
  890SOL    HW1 2669   0.353   2.632   2.422 -0.2351  0.4604 -2.5968
  890SOL    HW2 2670   0.237   2.740   2.479 -0.5935  1.5362 -1.4062
  891SOL     OW 2671   0.400   1.863   0.224 -0.5265 -0.1374 -0.3427
  891SOL    HW1 2672   0.482   1.917   0.251  1.5397 -1.6372  2.4934
  891SOL    HW2 2673   0.397   1.770   0.260 -0.6408 -0.4299 -1.3387
  892SOL     OW 2674   3.045   2.326   1.337  0.2559  0.2951  0.4787
  892SOL    HW1 2675   3.001   2.321   1.429  0.6025  1.7085 -2.1424
  892SOL    HW2 2676   2.995   2.275   1.265  0.9455 -2.6892 -1.5605
  893SOL     OW 2677   0.479   0.125   1.575 -0.9252  0.0789 -0.6951
  893SOL    HW1 2678   0.561   0.067   1.585 -2.6769  2.0183 -2.1095
  893SOL    HW2 2679   0.478   0.193   1.654  3.5578  0.2019  1.6172
  894SOL     OW 2680   2.507   1.556   0.900  0.0877  0.7014  0.1916
  894SOL    HW1 2681   2.553   1.646   0.910  2.1885 -0.4361  1.2152
  894SOL    HW2 2682   2.493   1.530   0.800 -0.8535  2.1191 -1.7868
  895SOL     OW 2683   2.458   2.423   1.564 -0.1230  0.2253  0.7434
  895SOL    HW1 2684   2.453   2.342   1.623  1.1921 -0.1675 -1.5276
  895SOL    HW2 2685   2.553   2.416   1.528 -0.9577  0.9504  2.6110
  896SOL     OW 2686   0.812   0.193   1.465 -1.0385  0.4668 -0.1746
  896SOL    HW1 2687   0.750   0.243   1.404  1.9802 -1.1887 -2.1557
  896SOL    HW2 2688   0.796   0.224   1.563 -3.3941 -0.2849  0.3336
  897SOL     OW 2689   0.731   1.601   1.064  0.8286 -0.2236 -0.4993
  897SOL    HW1 2690   0.730   1.612   1.165  0.1389 -0.0742  2.4771
  897SOL    HW2 2691   0.739   1.690   1.010  1.2307  0.4111 -4.2519
  898SOL     OW 2692   1.665   2.701   1.659  0.3104  0.1404  0.1358
  898SOL    HW1 2693   1.660   2.601   1.667 -0.7398  0.5274  1.7796
  898SOL    HW2 2694   1.753   2.737   1.702  0.7205  4.1162 -1.4637
  899SOL     OW 2695   1.035   0.255   2.947 -0.1130 -0.0562  0.3145
  899SOL    HW1 2696   1.029   0.349   2.901 -2.0208  0.1816 -0.0758
  899SOL    HW2 2697   1.007   0.171   2.888 -0.6852 -1.3209  1.9297
  900SOL     OW 2698   1.286   2.448   2.052  0.3403 -0.1424 -0.0799
  900SOL    HW1 2699   1.203   2.391   2.052  3.0661  2.5204  1.4404
  900SOL    HW2 2700   1.332   2.439   1.965  2.2879 -3.0780  1.8503
  901SOL     OW 2701   0.825   2.056   0.159  0.1413  0.0072  0.3033
  901SOL    HW1 2702   0.851   2.091   0.249  1.8937  0.1727 -0.9291
  901SOL    HW2 2703   0.902   2.052   0.095  1.4133  0.9448 -2.0391
  902SOL     OW 2704   1.504   1.161   0.968  0.2752  1.0532  0.6335
  902SOL    HW1 2705   1.447   1.173   1.047  1.3614 -1.1687 -1.2803
  902SOL    HW2 2706   1.524   1.248   0.918  0.2730 -0.3973 -0.1846
  903SOL     OW 2707   2.566   1.038   2.970  0.0997 -0.1732 -0.4544
  903SOL    HW1 2708   2.577   1.141   2.978 -0.4034  2.2746 -0.0856
  903SOL    HW2 2709   2.506   1.007   3.046 -0.2635  0.5826 -0.0054
  904SOL     OW 2710   0.851   1.297   0.236 -0.1350 -0.6208  0.3217
  904SOL    HW1 2711   0.845   1.384   0.189  1.4704 -1.6431 -0.0288
  904SOL    HW2 2712   0.920   1.302   0.315  2.2378 -2.3751  0.0416
  905SOL     OW 2713   1.761   3.089   1.181  0.2607  0.1675  0.4682
  905SOL    HW1 2714   1.780   0.075   1.205  2.9764 -0.8647  0.3087
  905SOL    HW2 2715   1.773   3.030   1.262 -1.1822 -0.3049 -0.0766
  906SOL     OW 2716   2.666   2.702   1.178  0.1368  0.2678  0.3108
  906SOL    HW1 2717   2.588   2.696   1.248 -5.2714 -0.4526  1.2025
  906SOL    HW2 2718   2.627   2.727   1.083  0.4551  4.4912 -2.0707
  907SOL     OW 2719   1.213   1.186   0.389  0.0400 -0.0651 -0.0309
  907SOL    HW1 2720   1.211   1.127   0.471 -2.0779 -0.1586 -1.2925
  907SOL    HW2 2721   1.138   1.251   0.396  4.0173  1.0657  4.2275
  908SOL     OW 2722   1.557   3.076   0.984 -0.1042 -0.7429 -0.2409
  908SOL    HW1 2723   1.490   0.045   0.984  1.5871 -0.1684 -1.4923
  908SOL    HW2 2724   1.621   3.101   1.058 -1.1230 -1.0224  0.2741
  909SOL     OW 2725   2.296   0.881   1.264 -0.1369 -0.3559  0.5236
  909SOL    HW1 2726   2.359   0.909   1.184 -0.2288  1.3386 -3.5428
  909SOL    HW2 2727   2.294   0.783   1.288 -1.3192  0.8545  0.1641
  910SOL     OW 2728   2.122   0.617   2.034  0.2736  0.0981 -0.0432
  910SOL    HW1 2729   2.094   0.645   1.943 -0.8068  0.2505  4.5180
  910SOL    HW2 2730   2.210   0.570   2.029 -2.3788  4.1326 -1.7690
  911SOL     OW 2731   2.144   0.791   2.845 -0.0845  0.3620  0.0915
  911SOL    HW1 2732   2.155   0.888   2.883  1.0030  2.2454 -1.7210
  911SOL    HW2 2733   2.222   0.763   2.791  0.9010 -0.2171  1.0898
  912SOL     OW 2734   0.436   1.137   1.709  0.0434  0.4874  0.5135
  912SOL    HW1 2735   0.535   1.152   1.729  1.9251  3.4378  0.4030
  912SOL    HW2 2736   0.416   1.183   1.617 -4.6957  1.8982  1.4126
  913SOL     OW 2737   2.967   2.316   1.579 -0.3491  1.0179  0.0516
  913SOL    HW1 2738   3.000   2.236   1.632  1.1833  1.1933 -0.3645
  913SOL    HW2 2739   2.980   2.401   1.630 -0.1678  0.6861 -2.0503
  914SOL     OW 2740   1.634   0.756   1.768  0.0096 -0.3245 -0.3725
  914SOL    HW1 2741   1.717   0.813   1.752  2.5740 -0.3294  0.1127
  914SOL    HW2 2742   1.635   0.677   1.700 -1.6476 -1.0782 -0.6835
  915SOL     OW 2743   2.474   0.995   1.092  0.5314 -0.5154 -0.0011
  915SOL    HW1 2744   2.452   0.963   0.993 -0.4504  0.3545 -1.3245
  915SOL    HW2 2745   2.547   1.066   1.101  1.4957  1.5918 -0.0700
  916SOL     OW 2746   1.815   2.265   0.934  0.0596 -0.4280  0.6317
  916SOL    HW1 2747   1.727   2.311   0.953 -0.2906 -1.6052  0.4853
  916SOL    HW2 2748   1.801   2.164   0.955  3.0193 -0.6604  1.7433
  917SOL     OW 2749   2.012   2.081   2.269  0.0855  0.0722  0.1026
  917SOL    HW1 2750   1.929   2.135   2.299  1.6378  0.1152 -0.1240
  917SOL    HW2 2751   2.021   2.067   2.168 -0.1191 -1.8266  1.9301
  918SOL     OW 2752   2.025   2.438   2.385  0.0373 -0.8453  0.0523
  918SOL    HW1 2753   1.966   2.516   2.386  0.2018 -1.4143  0.0511
  918SOL    HW2 2754   1.978   2.358   2.339 -3.6428 -0.7779  1.4883
  919SOL     OW 2755   1.126   0.046   1.416  0.2357 -0.1121 -0.1625
  919SOL    HW1 2756   1.225   0.019   1.399 -0.9003 -1.3996  1.0844
  919SOL    HW2 2757   1.132   0.127   1.478  1.5897 -1.8465 -0.5335
  920SOL     OW 2758   2.997   0.325   2.508 -0.5157  0.0217 -0.0470
  920SOL    HW1 2759   3.062   0.288   2.578 -1.3306  0.0299  1.4927
  920SOL    HW2 2760   2.995   0.262   2.426 -0.1732 -0.9236  0.8092
  921SOL     OW 2761   3.109   0.949   1.687  0.4992  0.6380 -0.5741
  921SOL    HW1 2762   0.033   0.972   1.590  0.9515 -1.1947 -0.6167
  921SOL    HW2 2763   3.022   0.890   1.676 -0.7994 -1.6623 -1.7530
  922SOL     OW 2764   2.295   2.503   0.422  0.0047  0.0526 -0.2924
  922SOL    HW1 2765   2.262   2.600   0.424 -2.6661  0.8196 -1.7091
  922SOL    HW2 2766   2.313   2.474   0.322 -0.2325  1.0198 -2.9261
  923SOL     OW 2767   0.580   2.151   0.496  0.0314  0.3879  0.0547
  923SOL    HW1 2768   0.649   2.115   0.563 -0.4931 -2.4375 -0.6459
  923SOL    HW2 2769   0.500   2.191   0.537  0.1852 -1.0365 -0.0212
  924SOL     OW 2770   1.072   1.086   0.167 -0.0803  0.0716  0.5815
  924SOL    HW1 2771   0.983   1.136   0.174 -1.2542 -0.0952  0.2602
  924SOL    HW2 2772   1.117   1.103   0.254 -2.0361 -0.6078 -1.6361
  925SOL     OW 2773   2.641   0.793   0.871  0.1685 -0.0937 -0.3532
  925SOL    HW1 2774   2.577   0.711   0.891  0.4203 -3.7661 -0.2686
  925SOL    HW2 2775   2.580   0.867   0.836 -1.4216 -1.1198 -0.5507
  926SOL     OW 2776   0.544   0.342   1.359  0.2060  0.2498 -0.3121
  926SOL    HW1 2777   0.492   0.276   1.417 -1.3652 -1.1409  0.2731
  926SOL    HW2 2778   0.504   0.330   1.269 -1.1910  0.4816 -1.1387
  927SOL     OW 2779   0.663   1.519   2.401 -0.0350 -0.2756  0.7924
  927SOL    HW1 2780   0.665   1.520   2.505  1.7671 -0.7116 -1.6369
  927SOL    HW2 2781   0.572   1.546   2.369 -0.4433 -0.1988 -0.4405
  928SOL     OW 2782   0.189   0.586   2.562  0.3689 -0.3070  0.5278
  928SOL    HW1 2783   0.117   0.582   2.494  2.1112  1.3363  1.1679
  928SOL    HW2 2784   0.238   0.501   2.575 -0.2520  1.5567  0.6074
  929SOL     OW 2785   2.768   3.010   1.289  0.0252 -0.4227  0.0127
  929SOL    HW1 2786   2.826   2.927   1.283 -0.0967  1.2749  0.8238
  929SOL    HW2 2787   2.729   3.033   1.197 -1.5881 -0.0544  0.0988
  930SOL     OW 2788   2.017   0.553   1.620 -0.1039 -0.5958 -0.4971
  930SOL    HW1 2789   2.063   0.463   1.610 -1.3712 -1.5522 -1.5927
  930SOL    HW2 2790   2.053   0.619   1.694  0.9923  0.3910  2.2401
  931SOL     OW 2791   1.947   0.880   3.075 -0.6803  0.2869  0.1857
  931SOL    HW1 2792   1.928   0.926   2.989  0.1810 -1.0442  2.2124
  931SOL    HW2 2793   2.034   0.921   0.006  1.4199 -1.1300  0.0216
  932SOL     OW 2794   2.056   1.259   0.408 -0.2334  0.0960 -0.4657
  932SOL    HW1 2795   2.089   1.164   0.424  0.7980  1.8223  0.7479
  932SOL    HW2 2796   1.963   1.266   0.442 -1.3644  0.1818 -2.0286
  933SOL     OW 2797   2.255   1.660   0.966  0.2625  0.3660 -0.3072
  933SOL    HW1 2798   2.346   1.613   0.980  0.7184 -1.0767  0.8988
  933SOL    HW2 2799   2.220   1.694   1.060 -0.7318  0.8405  0.4039
  934SOL     OW 2800   1.942   0.916   2.552 -0.2689  0.0257 -1.0023
  934SOL    HW1 2801   1.982   0.854   2.621 -1.8352 -1.5042 -0.9263
  934SOL    HW2 2802   1.863   0.874   2.505  1.5543  1.4392  1.6963
  935SOL     OW 2803   0.220   0.993   0.640  0.6219 -0.1411  0.2762
  935SOL    HW1 2804   0.196   0.940   0.560 -1.2005 -0.6817  1.9542
  935SOL    HW2 2805   0.163   1.079   0.651 -1.9255  1.8080  0.6730
  936SOL     OW 2806   0.631   0.086   0.919  0.1759  0.2501  0.2224
  936SOL    HW1 2807   0.606   0.031   1.001  1.4733 -0.7471 -1.3708
  936SOL    HW2 2808   0.663   0.026   0.839  2.2842 -0.3315 -1.1285
  937SOL     OW 2809   2.862   3.068   1.789 -0.2731 -0.1118 -0.7970
  937SOL    HW1 2810   2.930   3.050   1.715 -1.0078  0.4706  2.1961
  937SOL    HW2 2811   2.876   3.005   1.870  0.9348 -0.8606  2.5261
  938SOL     OW 2812   0.086   2.403   3.003 -0.5047  0.0352 -0.2386
  938SOL    HW1 2813   0.031   2.467   2.955 -0.0745 -1.3175 -0.6335
  938SOL    HW2 2814   0.102   2.435   3.098 -0.5132 -0.7681 -0.7629
  939SOL     OW 2815   0.989   1.546   1.179 -0.5058 -0.0575  0.0368
  939SOL    HW1 2816   0.986   1.446   1.209 -0.1549 -2.1165  3.0749
  939SOL    HW2 2817   0.912   1.574   1.123  2.1927  0.9642  0.2518
  940SOL     OW 2818   3.079   0.574   3.054 -0.1339 -0.0380  0.2216
  940SOL    HW1 2819   3.037   0.487   3.011  0.0993 -1.1878 -1.5836
  940SOL    HW2 2820   3.108   0.550   0.037 -0.1196  0.6616 -0.1526
  941SOL     OW 2821   2.250   0.357   2.675  0.2889 -0.3886 -0.0076
  941SOL    HW1 2822   2.266   0.341   2.572  0.1282 -1.1083 -1.4010
  941SOL    HW2 2823   2.152   0.331   2.703 -1.1410  1.6149 -1.1313
  942SOL     OW 2824   1.434   0.332   0.783  0.4277  0.0711 -0.1180
  942SOL    HW1 2825   1.349   0.393   0.773  0.5848 -0.8757 -2.0158
  942SOL    HW2 2826   1.501   0.341   0.706  1.9452 -0.6386 -1.4647
  943SOL     OW 2827   1.200   0.939   1.870 -0.1535 -0.1431  0.1070
  943SOL    HW1 2828   1.197   0.907   1.962 -0.6888  0.3979 -1.0672
  943SOL    HW2 2829   1.142   1.021   1.869  3.4527 -0.2795 -1.9836
  944SOL     OW 2830   1.953   0.913   1.508 -0.5514 -0.2529  0.6570
  944SOL    HW1 2831   1.953   0.837   1.440 -0.3459  1.2801 -1.8986
  944SOL    HW2 2832   2.038   0.969   1.506 -0.0599 -2.7679 -2.5671
  945SOL     OW 2833   2.867   0.077   2.927  0.0646 -0.2049 -0.1358
  945SOL    HW1 2834   2.898   0.020   2.848 -1.2682  3.0627  2.7641
  945SOL    HW2 2835   2.885   0.038   3.020  0.3608  3.6218  1.4274
  946SOL     OW 2836   2.926   1.116   1.802  0.4875 -0.8257  0.1381
  946SOL    HW1 2837   2.909   1.187   1.733  0.0700 -1.2499 -0.2770
  946SOL    HW2 2838   3.002   1.053   1.770  1.6202  0.2039  0.6791
  947SOL     OW 2839   1.174   2.973   0.061 -0.1909  0.3166  0.3165
  947SOL    HW1 2840   1.100   2.904   0.066 -0.6868 -0.1783 -2.7211
  947SOL    HW2 2841   1.163   3.049   0.129  1.2381 -2.3591 -2.9688
  948SOL     OW 2842   2.312   1.694   1.230 -0.0035  0.3265 -0.4788
  948SOL    HW1 2843   2.256   1.774   1.269 -1.9229  1.1900  0.1134
  948SOL    HW2 2844   2.411   1.710   1.248  2.7869 -1.2764  1.1561
  949SOL     OW 2845   0.237   1.442   0.019  0.2975 -0.0937  0.6449
  949SOL    HW1 2846   0.230   1.352   3.088  1.3352  0.5944  0.8915
  949SOL    HW2 2847   0.213   1.503   3.052 -0.9828 -1.0887  1.3460
  950SOL     OW 2848   0.723   2.339   1.065  0.4452 -0.4658  0.4383
  950SOL    HW1 2849   0.657   2.377   1.133 -1.3452  0.9960 -0.6835
  950SOL    HW2 2850   0.727   2.400   0.984  0.7118  0.7486 -0.6911
  951SOL     OW 2851   0.717   1.501   2.674  0.1317 -0.7204  0.0329
  951SOL    HW1 2852   0.781   1.514   2.755  0.1330 -0.9277  0.1975
  951SOL    HW2 2853   0.672   1.406   2.680 -1.9336 -4.9493 -1.2073
  952SOL     OW 2854   0.580   0.730   0.580  0.7058 -0.4326  0.6539
  952SOL    HW1 2855   0.592   0.638   0.623 -0.9948 -0.0579  1.1687
  952SOL    HW2 2856   0.541   0.795   0.645  2.0103 -1.6487  1.4608
  953SOL     OW 2857   2.565   2.906   2.555  0.0991  0.1081  0.2744
  953SOL    HW1 2858   2.606   2.828   2.502 -0.9046 -0.2828  0.8346
  953SOL    HW2 2859   2.631   2.979   2.564 -5.2214 -0.3853 -2.9029
  954SOL     OW 2860   1.707   0.920   0.693 -0.2921  0.1976 -0.3607
  954SOL    HW1 2861   1.772   0.948   0.769 -0.7942 -0.5517 -1.7459
  954SOL    HW2 2862   1.749   0.945   0.603  1.1476  1.7324 -1.0604
  955SOL     OW 2863   0.632   1.968   0.305  0.2187  0.3316  0.0293
  955SOL    HW1 2864   0.699   1.996   0.233 -1.5253  1.6188  2.2024
  955SOL    HW2 2865   0.606   2.046   0.363 -0.7065  1.5847 -1.9898
  956SOL     OW 2866   2.330   0.409   2.063 -0.3786  0.1847 -0.2444
  956SOL    HW1 2867   2.247   0.358   2.032  2.4126  0.3722  0.7526
  956SOL    HW2 2868   2.378   0.352   2.138  0.6980 -1.5664 -0.3434
  957SOL     OW 2869   2.087   2.250   1.999  0.7124 -0.3812  0.5445
  957SOL    HW1 2870   2.160   2.286   1.939  1.5438 -0.7979 -4.5253
  957SOL    HW2 2871   2.016   2.198   1.949  0.1472 -0.4807  1.3857
  958SOL     OW 2872   1.647   1.030   1.346 -0.2141  0.6394  0.2513
  958SOL    HW1 2873   1.677   0.995   1.254 -0.7498 -1.3622 -1.1381
  958SOL    HW2 2874   1.722   1.029   1.418 -1.8486 -0.0946  1.3437
  959SOL     OW 2875   1.968   1.808   1.965 -0.3475 -0.4338 -0.4626
  959SOL    HW1 2876   1.906   1.743   1.919  1.1653  1.5756  0.8790
  959SOL    HW2 2877   1.920   1.864   2.040 -0.2780  0.8666  3.7573
  960SOL     OW 2878   0.726   0.926   2.786  0.3710  0.0822  0.2188
  960SOL    HW1 2879   0.694   0.862   2.714 -0.6908 -1.2445 -1.0690
  960SOL    HW2 2880   0.755   0.867   2.868  0.2504 -2.3251  0.2632
  961SOL     OW 2881   0.183   1.126   3.032  0.1852  0.1997 -0.1944
  961SOL    HW1 2882   0.112   1.055   3.052 -1.5943  1.6778  0.7109
  961SOL    HW2 2883   0.209   1.111   2.929  1.3140  2.3152 -1.0013
  962SOL     OW 2884   0.869   1.693   2.385 -0.4147  0.0460 -0.8905
  962SOL    HW1 2885   0.796   1.620   2.377  2.7706 -0.5248  0.0846
  962SOL    HW2 2886   0.831   1.774   2.433 -1.6318 -1.2212  1.7558
  963SOL     OW 2887   3.065   2.162   3.008  0.4963  0.4364  0.2730
  963SOL    HW1 2888   2.987   2.193   2.948  0.5719 -1.9621 -0.7705
  963SOL    HW2 2889   0.030   2.238   3.013  0.2998 -0.5357 -3.1310
  964SOL     OW 2890   0.943   1.883   1.849 -0.5181  0.0993 -0.0434
  964SOL    HW1 2891   1.022   1.886   1.916 -3.0589  2.6000  0.0073
  964SOL    HW2 2892   0.935   1.793   1.803  1.1302 -0.2124  0.9864
  965SOL     OW 2893   1.593   1.986   0.690 -0.2656 -0.0800 -0.4939
  965SOL    HW1 2894   1.611   2.069   0.639 -2.4076 -3.2517  2.0336
  965SOL    HW2 2895   1.674   1.943   0.734  2.2996  1.8799  0.2349
  966SOL     OW 2896   2.979   1.768   0.142  0.5468  0.4237 -0.2812
  966SOL    HW1 2897   3.025   1.842   0.098 -1.7380  1.2332  0.5536
  966SOL    HW2 2898   3.033   1.682   0.161  1.7956 -1.1723 -1.6874
  967SOL     OW 2899   2.154   3.025   2.321 -0.0229  0.4278 -0.3523
  967SOL    HW1 2900   2.230   3.038   2.383 -2.8665  1.0745 -4.7218
  967SOL    HW2 2901   2.149   2.926   2.298 -1.3019  0.3718  1.7790
  968SOL     OW 2902   0.861   0.669   0.246  0.4788  0.5247  0.2339
  968SOL    HW1 2903   0.834   0.740   0.315 -0.2956  0.8166  0.8522
  968SOL    HW2 2904   0.917   0.718   0.177  0.4769 -3.2447 -0.9789
  969SOL     OW 2905   0.504   1.661   2.052 -0.1294  0.2237 -0.0990
  969SOL    HW1 2906   0.592   1.700   2.039 -4.8376  1.4292 -1.9327
  969SOL    HW2 2907   0.509   1.562   2.041  1.5726 -0.9477 -0.3103
  970SOL     OW 2908   1.728   2.484   1.208  0.1811 -0.1970 -0.8674
  970SOL    HW1 2909   1.816   2.531   1.202 -1.1046  0.0073  3.1477
  970SOL    HW2 2910   1.694   2.477   1.304 -2.9378 -2.1598  1.7775
  971SOL     OW 2911   2.208   2.428   0.927  0.3307 -0.9754  0.0055
  971SOL    HW1 2912   2.139   2.497   0.905 -0.1030 -1.8192  1.7317
  971SOL    HW2 2913   2.265   2.446   1.009 -0.6197  2.5420 -1.4632
  972SOL     OW 2914   0.078   1.076   2.587 -0.0486  0.1366  0.1397
  972SOL    HW1 2915   0.138   1.069   2.506  0.9527  0.8594 -1.4920
  972SOL    HW2 2916   0.135   1.053   2.667 -1.3509 -0.3807  2.3608
  973SOL     OW 2917   0.506   0.032   0.357 -0.6832  0.2507  0.1660
  973SOL    HW1 2918   0.606   0.047   0.357  1.3104 -1.5932 -2.3348
  973SOL    HW2 2919   0.453   0.120   0.368 -2.2662  3.4867  3.0400
  974SOL     OW 2920   2.277   0.948   1.772  0.3329  0.0160  0.2018
  974SOL    HW1 2921   2.232   0.994   1.689  1.1775  0.5671 -2.9614
  974SOL    HW2 2922   2.258   1.004   1.853  0.3734  0.2642  1.3789
  975SOL     OW 2923   3.081   3.052   0.626 -0.0968 -0.1446 -0.4124
  975SOL    HW1 2924   2.985   3.046   0.594  0.8454 -2.1930 -4.0284
  975SOL    HW2 2925   0.027   0.006   0.571  0.7024  1.6887  1.3397
  976SOL     OW 2926   0.100   2.019   1.024 -0.2433  0.1504  0.6126
  976SOL    HW1 2927   0.043   2.000   1.103  2.6166  1.7087 -1.0736
  976SOL    HW2 2928   0.085   1.952   0.952  2.6259 -0.4966  0.6953
  977SOL     OW 2929   0.890   1.865   0.597  0.3526  0.0319  0.2202
  977SOL    HW1 2930   0.825   1.795   0.572  2.7642  1.8988 -1.7762
  977SOL    HW2 2931   0.841   1.919   0.663 -1.8558 -0.5889  0.7055
  978SOL     OW 2932   0.214   0.873   0.157  0.6687 -0.0209 -0.9227
  978SOL    HW1 2933   0.288   0.851   0.093 -1.3956  1.2673 -1.8483
  978SOL    HW2 2934   0.140   0.916   0.106  4.0735 -2.3561 -0.1397
  979SOL     OW 2935   1.815   1.537   0.712  0.4515 -0.2984  0.3357
  979SOL    HW1 2936   1.914   1.546   0.687 -1.7046  2.3394 -0.9990
  979SOL    HW2 2937   1.796   1.554   0.813 -0.6307  2.3183  1.3056
  980SOL     OW 2938   0.527   2.193   2.013 -0.0733 -0.1133  0.2938
  980SOL    HW1 2939   0.589   2.168   2.089 -0.5193  0.9423  0.2408
  980SOL    HW2 2940   0.554   2.126   1.944  0.2043  1.1923  0.0915
  981SOL     OW 2941   2.179   1.041   2.948  0.1019  1.0194  0.2500
  981SOL    HW1 2942   2.202   1.113   2.880 -2.3967 -1.0076  0.2763
  981SOL    HW2 2943   2.151   1.080   3.037  1.6215 -1.3805  0.8735
  982SOL     OW 2944   3.057   2.710   1.846 -0.1464  0.2145 -0.1266
  982SOL    HW1 2945   3.031   2.802   1.886 -0.6271  3.3124 -0.1933
  982SOL    HW2 2946   0.050   2.715   1.814  3.6340 -0.4664  0.2947
  983SOL     OW 2947   1.599   0.152   1.696  0.1109  0.3428 -0.2794
  983SOL    HW1 2948   1.554   0.232   1.650 -0.0858 -0.3366 -0.6746
  983SOL    HW2 2949   1.538   0.071   1.686 -1.6772  3.1529  0.0388
  984SOL     OW 2950   1.959   2.874   2.709 -0.0046  0.5696  0.3838
  984SOL    HW1 2951   2.047   2.830   2.681 -0.3948 -3.4036  0.1655
  984SOL    HW2 2952   1.891   2.800   2.723  0.1013 -0.2089  0.9825
  985SOL     OW 2953   1.610   1.375   1.658 -0.2417  0.3709 -0.6343
  985SOL    HW1 2954   1.548   1.295   1.692  0.9380 -1.4790  1.6416
  985SOL    HW2 2955   1.554   1.459   1.661 -1.4201  1.5997 -2.2078
  986SOL     OW 2956   2.270   2.576   2.419 -0.2170 -0.2967  0.4203
  986SOL    HW1 2957   2.223   2.629   2.497  0.6066  1.6395 -0.2187
  986SOL    HW2 2958   2.215   2.496   2.384  0.1582 -1.0635  0.1668
  987SOL     OW 2959   2.842   1.818   2.805  0.6681  0.3959  0.2005
  987SOL    HW1 2960   2.864   1.739   2.737 -0.6741  0.7988 -1.7064
  987SOL    HW2 2961   2.813   1.902   2.753  0.6149  2.5466  0.2099
  988SOL     OW 2962   3.088   0.728   1.496 -0.0294 -0.4857  0.1280
  988SOL    HW1 2963   3.073   0.706   1.595  0.8025  1.9712 -1.8791
  988SOL    HW2 2964   3.009   0.781   1.460  2.2983 -0.0245  1.2547
  989SOL     OW 2965   1.896   1.165   1.395  0.3293 -0.4049  0.6098
  989SOL    HW1 2966   1.978   1.157   1.336  2.2155  0.8028 -3.6781
  989SOL    HW2 2967   1.883   1.083   1.451  0.5647  1.0311  0.3633
  990SOL     OW 2968   2.759   0.752   0.168 -0.2588  0.5175  0.2112
  990SOL    HW1 2969   2.753   0.826   0.095 -2.0138  0.9215 -0.0503
  990SOL    HW2 2970   2.670   0.710   0.188  1.1531  3.4733  2.1480
  991SOL     OW 2971   0.382   1.842   3.039 -0.3600  0.0748  0.0963
  991SOL    HW1 2972   0.456   1.896   2.996  0.9375  1.2323 -2.9501
  991SOL    HW2 2973   0.379   1.849   0.033  0.8522 -2.1705 -1.7650
  992SOL     OW 2974   2.152   1.691   1.625  0.8309  0.4497 -0.3131
  992SOL    HW1 2975   2.082   1.620   1.657  1.4030  2.4630 -1.0366
  992SOL    HW2 2976   2.222   1.652   1.562 -2.4279 -1.7587 -0.3669
  993SOL     OW 2977   0.691   3.054   0.709  0.1537  0.1089  0.3888
  993SOL    HW1 2978   0.742   3.082   0.629 -0.9222 -3.6677 -0.5821
  993SOL    HW2 2979   0.639   2.968   0.704  1.1101  1.3759 -0.5748
  994SOL     OW 2980   2.724   2.120   1.625 -0.2648 -0.2296  0.1942
  994SOL    HW1 2981   2.805   2.076   1.670  1.4514 -0.1934 -4.0181
  994SOL    HW2 2982   2.657   2.051   1.602 -1.4992  1.2429  1.2455
  995SOL     OW 2983   2.091   1.829   2.422  0.2274 -0.0785 -0.5854
  995SOL    HW1 2984   2.049   1.890   2.351 -1.3223  2.3273 -2.6145
  995SOL    HW2 2985   2.189   1.853   2.444 -1.3252  1.1941 -1.6988
  996SOL     OW 2986   1.934   1.712   0.009 -0.0440  0.5171  0.5085
  996SOL    HW1 2987   1.870   1.695   0.088  0.7471  0.0399  2.3973
  996SOL    HW2 2988   2.015   1.759   0.040 -0.8606 -0.0766 -2.5378
  997SOL     OW 2989   1.295   1.515   2.262  0.1982  0.3251  0.0135
  997SOL    HW1 2990   1.248   1.541   2.346 -1.0605  1.1984  0.3887
  997SOL    HW2 2991   1.368   1.580   2.247 -0.0890 -0.0358 -2.7987
  998SOL     OW 2992   2.896   2.459   0.849 -0.4433  0.2009 -0.4206
  998SOL    HW1 2993   2.918   2.399   0.773 -0.4497 -0.3299  2.2287
  998SOL    HW2 2994   2.963   2.455   0.928 -2.4534 -1.3331  0.5930
  999SOL     OW 2995   0.178   2.722   0.797  0.2520 -0.3207  0.2927
  999SOL    HW1 2996   0.276   2.724   0.813 -4.8849 -2.6490 -2.2696
  999SOL    HW2 2997   0.165   2.738   0.699  1.7400  0.9688  0.4396
 1000SOL     OW 2998   1.172   2.935   2.895 -0.2700  0.5013  0.7852
 1000SOL    HW1 2999   1.212   2.934   2.990 -0.1407 -0.4462 -0.5620
 1000SOL    HW2 3000   1.108   3.015   2.889 -1.1909  1.3247  0.6765
   3.10930   3.10930   3.10930
