1000 SPC/Fw water molecules t= 352.00000 step= 352000
 3000
    1SOL     OW    1   2.412   0.086   1.256 -0.0110 -0.2059 -0.1274
    1SOL    HW1    2   2.349   0.140   1.315  0.9377 -0.9406  0.4555
    1SOL    HW2    3   2.400   3.092   1.279  0.9804  1.0261  1.1814
    2SOL     OW    4   2.889   2.414   1.064  0.0175  0.3453 -0.2905
    2SOL    HW1    5   2.877   2.457   0.974 -0.9040 -1.5680  1.5894
    2SOL    HW2    6   2.819   2.345   1.088 -0.3107 -2.2916 -3.0569
    3SOL     OW    7   1.349   2.986   2.912 -0.6506 -0.0036  0.0257
    3SOL    HW1    8   1.365   3.080   2.878  0.1687 -0.0662  0.2685
    3SOL    HW2    9   1.308   2.992   3.004 -0.0999  0.7516 -1.0259
    4SOL     OW   10   1.661   2.615   2.503  0.0134  0.3302 -0.5902
    4SOL    HW1   11   1.593   2.549   2.476 -0.4621 -2.3893 -0.2846
    4SOL    HW2   12   1.750   2.586   2.470 -2.5708 -0.7131 -1.5567
    5SOL     OW   13   1.766   0.441   1.857  0.4587 -0.0960 -0.2814
    5SOL    HW1   14   1.863   0.451   1.826  0.3094 -0.5364  2.0868
    5SOL    HW2   15   1.728   0.535   1.880 -0.4331  1.8325 -0.4644
    6SOL     OW   16   2.236   2.596   0.542 -0.5707  0.2198  0.5981
    6SOL    HW1   17   2.247   2.650   0.454 -1.6747  1.0919 -1.9140
    6SOL    HW2   18   2.276   2.643   0.627  1.1975  0.2281  1.4284
    7SOL     OW   19   1.589   1.174   1.030 -0.2890  0.2824 -0.0781
    7SOL    HW1   20   1.608   1.225   1.116 -0.7505 -0.6519 -0.1474
    7SOL    HW2   21   1.508   1.212   0.983 -3.1041 -3.1627  0.0828
    8SOL     OW   22   0.691   1.807   1.190  0.5834 -0.0347  0.6346
    8SOL    HW1   23   0.615   1.759   1.243 -1.0939 -1.2000  0.1852
    8SOL    HW2   24   0.762   1.847   1.249 -0.9920 -1.5827 -1.1293
    9SOL     OW   25   1.269   2.281   1.844 -0.6369  0.5559 -0.3891
    9SOL    HW1   26   1.194   2.351   1.838  0.3723 -2.1692  4.2109
    9SOL    HW2   27   1.225   2.192   1.823  0.7103  1.3555  0.2807
   10SOL     OW   28   0.715   2.057   0.579  0.2068  0.2408  0.1025
   10SOL    HW1   29   0.793   2.042   0.643 -1.4635  0.6754  0.2413
   10SOL    HW2   30   0.670   2.145   0.601  3.2851 -0.5680 -1.4928
   11SOL     OW   31   1.529   1.914   1.532 -0.3362 -0.1542 -0.3635
   11SOL    HW1   32   1.568   2.007   1.504  1.6489  0.8085 -2.2631
   11SOL    HW2   33   1.441   1.891   1.482  0.2721 -0.3306  0.9409
   12SOL     OW   34   2.620   0.479   2.409 -0.2055 -0.1837 -1.0294
   12SOL    HW1   35   2.584   0.471   2.313  1.7652  1.8863  2.4798
   12SOL    HW2   36   2.722   0.473   2.415  2.4417  0.9618  0.6717
   13SOL     OW   37   2.814   2.903   0.624 -0.1369 -0.9185  0.0666
   13SOL    HW1   38   2.885   2.843   0.668 -0.7285  2.1246 -0.1750
   13SOL    HW2   39   2.852   2.996   0.621  1.0283 -2.6591  1.8112
   14SOL     OW   40   1.465   1.545   2.880 -0.5760  0.4874  0.3137
   14SOL    HW1   41   1.559   1.550   2.843  2.1137 -1.1037  1.0881
   14SOL    HW2   42   1.393   1.525   2.812  0.6792  0.0252  3.6567
   15SOL     OW   43   2.490   2.694   1.229 -0.4003 -0.0006 -0.2793
   15SOL    HW1   44   2.575   2.711   1.176  0.5320  1.5256 -2.6372
   15SOL    HW2   45   2.483   2.610   1.288 -0.1427  1.1524 -0.0439
   16SOL     OW   46   2.775   2.913   0.367 -0.7925 -0.2599  0.1692
   16SOL    HW1   47   2.782   2.884   0.466 -2.8714  0.6227  2.5101
   16SOL    HW2   48   2.862   2.959   0.334  1.4765 -0.6086 -0.1188
   17SOL     OW   49   0.298   0.513   1.236  0.2464  0.0628  0.1759
   17SOL    HW1   50   0.393   0.501   1.204 -1.3138  1.9205  1.6458
   17SOL    HW2   51   0.268   0.434   1.292  1.3809 -1.5319  0.1557
   18SOL     OW   52   2.116   0.508   0.472 -0.0709  0.5764 -0.2103
   18SOL    HW1   53   2.047   0.474   0.541  0.8225 -1.2773  0.7260
   18SOL    HW2   54   2.202   0.454   0.479  1.2439  2.2629  2.5510
   19SOL     OW   55   1.881   1.730   3.086 -0.0017  0.2312  0.0140
   19SOL    HW1   56   1.798   1.786   3.085 -1.3487 -1.9580  1.1734
   19SOL    HW2   57   1.892   1.673   0.068 -0.1219 -1.4913  2.0353
   20SOL     OW   58   2.359   1.749   2.299 -0.1073  0.4236 -0.1198
   20SOL    HW1   59   2.378   1.662   2.350  0.1545 -1.9968  0.1396
   20SOL    HW2   60   2.424   1.762   2.219  1.0418  0.4430  0.2527
   21SOL     OW   61   1.774   3.095   0.700  0.5785 -0.1250 -0.4387
   21SOL    HW1   62   1.818   3.042   0.772 -2.4888 -1.8425 -1.8698
   21SOL    HW2   63   1.799   3.055   0.610  1.0724  1.5637  1.9690
   22SOL     OW   64   2.667   0.501   1.535  0.2746  0.1590 -0.3386
   22SOL    HW1   65   2.622   0.411   1.501 -1.3700 -4.0058 -1.5650
   22SOL    HW2   66   2.644   0.582   1.476  1.1186  0.1629 -0.9307
   23SOL     OW   67   0.324   0.645   1.920  0.5545 -0.2829  0.1763
   23SOL    HW1   68   0.276   0.649   2.010  3.2558 -0.8636 -1.3267
   23SOL    HW2   69   0.367   0.556   1.906  3.1514  1.0413 -1.1116
   24SOL     OW   70   3.044   2.584   0.424 -0.4038 -0.2022  0.3871
   24SOL    HW1   71   0.036   2.542   0.448  0.2608 -1.4057  2.3007
   24SOL    HW2   72   3.053   2.685   0.424  0.7678 -1.6699  1.3391
   25SOL     OW   73   0.899   2.775   2.853  0.1061 -0.9344 -0.5482
   25SOL    HW1   74   0.847   2.863   2.865  0.5630  3.7187  1.6652
   25SOL    HW2   75   0.999   2.783   2.876  0.6213 -1.8840 -1.0814
   26SOL     OW   76   1.282   2.764   0.391  0.5004  0.5109 -0.1712
   26SOL    HW1   77   1.289   2.666   0.417  1.1997  1.2019  0.3199
   26SOL    HW2   78   1.365   2.808   0.432  0.2117 -2.0719 -1.0350
   27SOL     OW   79   2.224   0.823   0.394  0.4765  0.4237  0.2195
   27SOL    HW1   80   2.130   0.858   0.416  2.4372  0.3455 -0.2789
   27SOL    HW2   81   2.282   0.878   0.455 -0.7178  1.1846  2.4323
   28SOL     OW   82   0.942   1.582   0.901  0.7115  0.5015 -0.1684
   28SOL    HW1   83   0.888   1.530   0.831 -1.6606 -1.1802 -0.3390
   28SOL    HW2   84   1.042   1.579   0.884  0.7691  1.4952  0.6711
   29SOL     OW   85   3.052   2.869   1.651 -0.7537  0.3467 -0.2226
   29SOL    HW1   86   0.026   2.899   1.596 -2.9169 -0.8309  1.2476
   29SOL    HW2   87   2.999   2.797   1.602  2.3469 -0.3123  0.8108
   30SOL     OW   88   1.393   0.020   1.473 -0.1018 -0.3983  0.2687
   30SOL    HW1   89   1.420   3.091   1.382  0.4107 -1.6983 -0.6173
   30SOL    HW2   90   1.294   0.000   1.490 -0.7646  0.9287 -0.8965
   31SOL     OW   91   2.124   3.057   2.294 -1.2018 -0.4798 -0.3937
   31SOL    HW1   92   2.034   3.055   2.337  1.7408 -2.3044 -2.2364
   31SOL    HW2   93   2.159   2.961   2.287  1.2444 -0.7347  0.0831
   32SOL     OW   94   0.965   1.271   0.113  0.3601 -0.0605 -0.4053
   32SOL    HW1   95   0.970   1.289   0.012 -1.4650 -3.2293 -0.0474
   32SOL    HW2   96   0.867   1.286   0.133 -2.6080 -1.2345 -2.1340
   33SOL     OW   97   2.992   0.819   2.503 -0.4329  0.4210 -0.3246
   33SOL    HW1   98   2.956   0.792   2.416  0.2032 -0.8395 -0.0764
   33SOL    HW2   99   3.043   0.753   2.555 -4.4957  1.5736 -0.0539
   34SOL     OW  100   2.672   0.188   0.542 -0.1991  0.4323 -0.7439
   34SOL    HW1  101   2.620   0.186   0.455  0.2810  0.2707 -0.0005
   34SOL    HW2  102   2.602   0.159   0.612 -0.5849 -0.9027  1.5607
   35SOL     OW  103   2.292   2.637   1.806  0.4971  0.2872 -0.1808
   35SOL    HW1  104   2.329   2.583   1.886 -1.1600  2.2621  2.9986
   35SOL    HW2  105   2.190   2.623   1.801  0.0764  2.2234 -0.4448
   36SOL     OW  106   2.256   1.911   3.102  0.3996 -0.9565  0.4213
   36SOL    HW1  107   2.302   1.900   3.010 -0.2672 -1.8741 -0.4328
   36SOL    HW2  108   2.153   1.913   3.098 -0.1589  4.0360 -0.6991
   37SOL     OW  109   1.813   3.059   2.001 -0.3853 -0.1072  0.2061
   37SOL    HW1  110   1.864   0.042   1.989 -0.4661 -3.1165 -1.4549
   37SOL    HW2  111   1.716   3.077   1.987  1.1139  1.2617 -0.1498
   38SOL     OW  112   0.240   0.568   2.835  0.1496  0.3282 -0.0602
   38SOL    HW1  113   0.187   0.481   2.808 -0.3228 -3.2668 -0.1062
   38SOL    HW2  114   0.241   0.566   2.937  1.2810 -1.9474  0.5442
   39SOL     OW  115   1.831   1.265   1.426  0.4038  0.4822  0.1670
   39SOL    HW1  116   1.862   1.340   1.362 -0.7473  0.0711 -0.4758
   39SOL    HW2  117   1.883   1.259   1.515  0.6129 -0.9924 -2.1067
   40SOL     OW  118   1.223   2.496   0.407  0.0057  0.0097  0.1976
   40SOL    HW1  119   1.278   2.433   0.467  2.7682 -0.4430  2.9930
   40SOL    HW2  120   1.166   2.442   0.342  1.3198  0.4614 -1.9045
   41SOL     OW  121   2.049   1.216   0.810 -0.0325  0.1844 -0.2022
   41SOL    HW1  122   1.996   1.141   0.764 -1.6534 -0.4502  1.6210
   41SOL    HW2  123   2.063   1.283   0.732  0.1026  2.1266 -1.5246
   42SOL     OW  124   0.676   0.232   1.218  0.3347  0.4670  0.4653
   42SOL    HW1  125   0.711   0.239   1.124 -0.6199 -0.7187 -0.6349
   42SOL    HW2  126   0.748   0.226   1.287  0.3014 -0.2837 -1.2965
   43SOL     OW  127   0.109   1.610   2.510  0.1420  0.7588 -0.1928
   43SOL    HW1  128   0.124   1.547   2.592 -1.9527 -0.6966  1.6402
   43SOL    HW2  129   0.199   1.661   2.495  1.6058  1.4099  0.9734
   44SOL     OW  130   2.114   2.947   1.400 -0.4611 -0.3259 -0.0126
   44SOL    HW1  131   2.059   3.005   1.331 -1.1190 -0.6288 -2.1309
   44SOL    HW2  132   2.211   2.942   1.366  1.6993  0.5189 -0.4486
   45SOL     OW  133   1.114   3.050   2.535 -0.0925 -0.1849  0.2912
   45SOL    HW1  134   1.215   3.048   2.549  1.4613 -0.4070  0.8394
   45SOL    HW2  135   1.080   2.975   2.480  0.9883  1.0468 -0.7648
   46SOL     OW  136   1.036   2.370   2.300  0.5315  0.3366  0.3779
   46SOL    HW1  137   1.114   2.314   2.332 -1.0963 -1.4110 -1.7982
   46SOL    HW2  138   0.992   2.425   2.372 -0.5521  0.9554 -2.6334
   47SOL     OW  139   1.139   1.724   0.616  0.1462 -0.2578 -0.0617
   47SOL    HW1  140   1.190   1.685   0.536 -0.5018  0.2175 -1.4957
   47SOL    HW2  141   1.176   1.699   0.705 -0.1725  2.6051 -1.6687
   48SOL     OW  142   1.325   2.516   1.176  0.6462 -0.1859 -0.3528
   48SOL    HW1  143   1.319   2.559   1.083  0.2081 -0.7841  0.6302
   48SOL    HW2  144   1.413   2.471   1.190  1.0311 -0.5470 -0.9808
   49SOL     OW  145   2.401   0.409   2.920 -0.3222 -0.3157  0.2726
   49SOL    HW1  146   2.305   0.425   2.948 -0.6384 -1.0587 -1.0909
   49SOL    HW2  147   2.430   0.485   2.857 -1.4776 -1.2526  0.5260
   50SOL     OW  148   1.658   0.134   0.011 -0.3588  0.1821 -0.1934
   50SOL    HW1  149   1.740   0.167   0.069  2.9290 -0.3508  2.8368
   50SOL    HW2  150   1.619   0.207   3.060  0.7154  1.7405 -0.6860
   51SOL     OW  151   2.200   0.611   1.456 -0.1405  0.4470  0.2007
   51SOL    HW1  152   2.251   0.695   1.451 -0.9132 -0.3100 -1.4472
   51SOL    HW2  153   2.260   0.544   1.501 -0.6724 -0.9188 -2.1135
   52SOL     OW  154   0.813   1.605   3.105 -0.2890  0.3583  0.5779
   52SOL    HW1  155   0.819   1.640   0.094 -0.9588 -0.5069 -0.2864
   52SOL    HW2  156   0.785   1.508   0.012  1.3285 -1.3676  0.4496
   53SOL     OW  157   0.143   1.455   2.735  0.7113  0.3969  0.2094
   53SOL    HW1  158   0.124   1.358   2.742 -1.2519 -0.0711  0.3186
   53SOL    HW2  159   0.214   1.480   2.802 -0.4599  1.3399  1.1674
   54SOL     OW  160   2.753   1.254   1.655  0.0958 -0.1647 -0.4633
   54SOL    HW1  161   2.774   1.155   1.644  0.5901  0.6185 -2.7572
   54SOL    HW2  162   2.724   1.272   1.753  0.1267 -0.4667  0.7561
   55SOL     OW  163   2.291   2.008   0.446  0.3029 -0.1958  0.0675
   55SOL    HW1  164   2.383   2.029   0.458 -1.3899 -0.8862 -3.5863
   55SOL    HW2  165   2.242   2.022   0.531 -0.6535  0.4400 -2.2869
   56SOL     OW  166   1.614   0.250   1.712  0.0927 -0.3128  0.2121
   56SOL    HW1  167   1.668   0.331   1.743  0.6004 -1.8751  2.9480
   56SOL    HW2  168   1.518   0.270   1.744  2.8229  0.3369 -1.2674
   57SOL     OW  169   1.418   1.268   2.596  0.0179  0.0470  0.5679
   57SOL    HW1  170   1.450   1.171   2.575 -2.4518 -1.6176  1.7439
   57SOL    HW2  171   1.447   1.293   2.687  0.0939  0.2718 -2.5150
   58SOL     OW  172   0.199   0.709   1.403  0.1778  0.0717 -0.4490
   58SOL    HW1  173   0.183   0.676   1.497 -2.5114  2.8859  0.0721
   58SOL    HW2  174   0.234   0.633   1.341  0.6986  0.2493 -2.4597
   59SOL     OW  175   1.219   2.752   0.106  0.1048 -0.0745 -0.1321
   59SOL    HW1  176   1.242   2.749   0.203  2.3208 -0.1309 -0.8415
   59SOL    HW2  177   1.208   2.848   0.070  0.6312  1.6854  1.8536
   60SOL     OW  178   3.066   1.929   2.833 -0.5027 -0.0396  0.6473
   60SOL    HW1  179   0.057   1.927   2.802  0.3245 -2.3833  1.5440
   60SOL    HW2  180   3.021   2.017   2.827  1.9668 -1.6640  0.8580
   61SOL     OW  181   0.774   2.623   1.045 -0.1368 -0.1596  0.9451
   61SOL    HW1  182   0.831   2.652   0.967  0.3336 -3.1079  0.0838
   61SOL    HW2  183   0.761   2.695   1.116  1.0637 -0.5402 -1.5323
   62SOL     OW  184   1.714   1.574   2.798 -0.3407  0.1239 -0.3884
   62SOL    HW1  185   1.724   1.662   2.753 -0.5763 -0.5875  0.2161
   62SOL    HW2  186   1.800   1.549   2.851  5.1013 -1.9758  3.5440
   63SOL     OW  187   2.336   1.809   0.248  0.4532 -0.0685  0.2150
   63SOL    HW1  188   2.307   1.846   0.156 -0.3603 -1.8118  0.8267
   63SOL    HW2  189   2.296   1.869   0.327 -1.6209  2.0925  2.7419
   64SOL     OW  190   1.797   0.968   0.041 -0.6056 -0.0883 -0.0127
   64SOL    HW1  191   1.742   0.883   0.057  0.2221  1.9661 -0.4797
   64SOL    HW2  192   1.746   1.041   3.096 -2.4450 -0.3640  0.2408
   65SOL     OW  193   2.108   1.849   2.294 -0.2728 -0.4969 -0.1610
   65SOL    HW1  194   2.182   1.787   2.271 -2.0144  1.1335 -0.3646
   65SOL    HW2  195   2.020   1.805   2.286  2.4719 -0.5207  0.0988
   66SOL     OW  196   0.399   1.117   1.432 -0.3537  0.0447  0.6402
   66SOL    HW1  197   0.298   1.140   1.444 -2.6603  0.9133  0.1435
   66SOL    HW2  198   0.419   1.018   1.423 -1.5444  1.2883 -3.1140
   67SOL     OW  199   2.179   3.043   2.656 -0.2069  0.3814 -0.0584
   67SOL    HW1  200   2.096   3.102   2.638 -2.4588 -0.8856  0.2976
   67SOL    HW2  201   2.159   2.962   2.710 -0.6276 -0.9652  1.3810
   68SOL     OW  202   1.111   2.258   1.534 -0.1574 -0.3208 -0.0205
   68SOL    HW1  203   1.149   2.348   1.569 -2.3048  2.9971 -0.7980
   68SOL    HW2  204   1.182   2.186   1.513 -0.0257 -0.5582 -1.9490
   69SOL     OW  205   0.737   2.599   0.071  0.4414  0.2143 -0.1377
   69SOL    HW1  206   0.676   2.585   0.153 -2.4679  0.4351  0.4280
   69SOL    HW2  207   0.835   2.582   0.095 -0.9002  1.6302  1.3483
   70SOL     OW  208   0.255   0.694   2.181  0.4712 -0.0073 -0.6236
   70SOL    HW1  209   0.177   0.671   2.244  0.8583 -1.3437 -0.3564
   70SOL    HW2  210   0.294   0.789   2.196 -1.6210 -3.0927 -1.0916
   71SOL     OW  211   0.655   1.362   2.671  0.0034  0.1059 -0.1500
   71SOL    HW1  212   0.742   1.406   2.641 -1.0259 -2.0096  0.5871
   71SOL    HW2  213   0.581   1.365   2.603 -0.4794 -0.3360 -0.2059
   72SOL     OW  214   2.998   1.448   2.280  0.4690  0.1452 -0.2625
   72SOL    HW1  215   3.092   1.488   2.272  1.9828  0.6541 -1.7677
   72SOL    HW2  216   2.934   1.521   2.232 -1.8445  1.7465 -2.0511
   73SOL     OW  217   1.558   1.388   0.405 -0.2321  0.4349  0.6484
   73SOL    HW1  218   1.657   1.413   0.426  2.3587  0.9111 -0.8607
   73SOL    HW2  219   1.523   1.312   0.467  0.8089 -1.6080 -1.5752
   74SOL     OW  220   2.537   3.008   2.710 -0.9324 -0.2930 -0.2703
   74SOL    HW1  221   2.534   3.098   2.756  1.0801  0.5444  0.6549
   74SOL    HW2  222   2.479   3.012   2.622  1.5823  0.1442 -1.3656
   75SOL     OW  223   1.811   2.220   0.894  0.1265 -0.3499  0.0553
   75SOL    HW1  224   1.836   2.216   0.995 -0.1182 -1.7817 -1.1081
   75SOL    HW2  225   1.819   2.133   0.846 -1.8172  1.4632 -1.8049
   76SOL     OW  226   2.902   2.214   2.037 -0.8672  0.4872 -0.0003
   76SOL    HW1  227   2.957   2.129   2.049 -0.5121 -1.7580  1.1035
   76SOL    HW2  228   2.947   2.273   1.964 -0.4254 -0.9589  0.6651
   77SOL     OW  229   0.091   0.204   2.072 -0.1410 -0.2961 -0.1351
   77SOL    HW1  230   0.129   0.161   1.987 -1.1366  0.9409  1.0324
   77SOL    HW2  231   0.085   0.304   2.059  1.6725 -0.6503 -2.7202
   78SOL     OW  232   2.358   1.188   2.995 -0.1509  0.3813  0.0266
   78SOL    HW1  233   2.425   1.253   3.033  2.2886 -1.7909  0.6602
   78SOL    HW2  234   2.267   1.228   2.972  0.1554  1.5966 -1.1694
   79SOL     OW  235   2.875   1.314   2.521 -0.0738  0.1240 -0.0048
   79SOL    HW1  236   2.845   1.365   2.602 -2.3691 -2.1555 -1.5336
   79SOL    HW2  237   2.909   1.376   2.445  0.5328 -0.8663 -0.5311
   80SOL     OW  238   1.394   1.371   1.402 -0.0543  0.0193  0.7019
   80SOL    HW1  239   1.367   1.445   1.464 -1.4494 -2.0908 -3.1571
   80SOL    HW2  240   1.353   1.282   1.427  0.1788  0.5026  0.2287
   81SOL     OW  241   2.004   0.882   1.857  0.4505 -0.0260 -0.4130
   81SOL    HW1  242   2.033   0.806   1.923  0.6919  1.3496 -0.5032
   81SOL    HW2  243   2.087   0.898   1.793  0.7070 -1.2105 -2.1089
   82SOL     OW  244   1.608   1.538   1.633  0.3226  0.1525  0.0977
   82SOL    HW1  245   1.645   1.500   1.719  0.1621 -0.3723 -2.1308
   82SOL    HW2  246   1.676   1.551   1.555  0.5418  0.5055 -3.2166
   83SOL     OW  247   0.179   0.180   0.381  0.1282  0.2388 -0.3623
   83SOL    HW1  248   0.134   0.160   0.294  1.1958  0.2495  0.4402
   83SOL    HW2  249   0.274   0.216   0.364  1.1629 -1.8673 -0.8855
   84SOL     OW  250   0.441   0.777   3.024 -0.5617 -0.2395 -0.3533
   84SOL    HW1  251   0.375   0.796   2.950 -1.2068 -0.9224  0.6328
   84SOL    HW2  252   0.391   0.795   0.011  0.9126  0.5683  1.8072
   85SOL     OW  253   2.228   1.983   1.081  0.2800 -0.0829  0.5465
   85SOL    HW1  254   2.277   1.894   1.057  1.4089  0.0663 -1.6123
   85SOL    HW2  255   2.296   2.051   1.115 -0.3925 -0.0738  1.3547
   86SOL     OW  256   0.504   2.517   1.339 -0.0513 -0.4150  0.1733
   86SOL    HW1  257   0.502   2.421   1.374  0.8699 -2.1769 -0.5650
   86SOL    HW2  258   0.506   2.526   1.239  0.7810  1.3699 -2.8534
   87SOL     OW  259   0.712   2.498   2.399  0.7725 -0.2084  0.1938
   87SOL    HW1  260   0.694   2.527   2.493 -1.2025 -2.5835  1.4628
   87SOL    HW2  261   0.744   2.405   2.397 -0.7125  3.0583 -2.1414
   88SOL     OW  262   3.085   1.808   0.234 -0.2896  0.1886  0.3103
   88SOL    HW1  263   3.096   1.880   0.303 -1.6346  0.3268 -1.0686
   88SOL    HW2  264   3.044   1.851   0.153  0.3013  1.0384  0.2164
   89SOL     OW  265   0.874   0.948   0.903  0.1678  0.2674  0.2616
   89SOL    HW1  266   0.942   0.902   0.958  1.1698  0.6161 -2.6672
   89SOL    HW2  267   0.869   0.900   0.815 -0.5160  0.3393  0.5710
   90SOL     OW  268   0.149   1.252   1.734  0.7869 -0.0735  0.2042
   90SOL    HW1  269   0.137   1.154   1.744  1.2119  0.8856 -3.3054
   90SOL    HW2  270   0.065   1.301   1.767 -0.5304  1.1332 -2.1982
   91SOL     OW  271   1.088   0.860   1.064 -0.2964 -0.1539 -0.3198
   91SOL    HW1  272   1.129   0.772   1.088 -0.7080  0.5369 -0.5694
   91SOL    HW2  273   1.150   0.920   1.009 -2.3233 -0.5185  0.6530
   92SOL     OW  274   1.755   1.012   0.913  0.2389  0.2946 -0.3989
   92SOL    HW1  275   1.691   1.074   0.962 -0.2864 -0.4767  2.6907
   92SOL    HW2  276   1.841   1.012   0.968 -0.5862  1.0609 -2.7025
   93SOL     OW  277   2.686   0.888   2.395  0.2306 -0.1138 -0.2769
   93SOL    HW1  278   2.606   0.851   2.345 -0.6711  0.5877  0.5204
   93SOL    HW2  279   2.772   0.833   2.367  1.1668  0.6792 -2.1975
   94SOL     OW  280   2.126   1.746   2.685 -0.2755 -0.5149 -0.4743
   94SOL    HW1  281   2.197   1.802   2.639  2.9596  1.7187  0.9625
   94SOL    HW2  282   2.050   1.800   2.713  0.0949 -2.5489  1.0609
   95SOL     OW  283   2.928   0.735   1.104  0.0861 -0.0666  0.1202
   95SOL    HW1  284   2.873   0.816   1.090 -0.4846 -2.7232 -2.8230
   95SOL    HW2  285   2.934   0.680   1.019  0.2851 -0.6234  2.0848
   96SOL     OW  286   2.404   2.926   1.372  0.0780  0.6248  0.0144
   96SOL    HW1  287   2.407   2.912   1.473 -0.1411 -1.9184 -4.1141
   96SOL    HW2  288   2.433   2.840   1.327 -0.8016 -0.8004  0.7434
   97SOL     OW  289   2.482   1.152   1.526 -0.7152 -0.3725  0.2800
   97SOL    HW1  290   2.523   1.115   1.438  4.1185 -1.9098 -1.3402
   97SOL    HW2  291   2.554   1.184   1.592  2.2270 -2.7235 -0.3029
   98SOL     OW  292   1.518   2.617   2.120  0.0883 -0.0822  0.3385
   98SOL    HW1  293   1.609   2.644   2.163  2.1365  0.8300  2.2862
   98SOL    HW2  294   1.529   2.573   2.027  0.4786 -0.2952  0.9222
   99SOL     OW  295   0.196   2.569   1.541  0.0575  0.3187  0.0300
   99SOL    HW1  296   0.279   2.615   1.509 -0.4913 -1.4079 -2.1194
   99SOL    HW2  297   0.173   2.609   1.627 -0.2605 -0.2728 -1.6016
  100SOL     OW  298   1.541   0.426   2.732  0.0166 -0.2940 -0.2618
  100SOL    HW1  299   1.480   0.435   2.813  0.2237 -1.5585  0.9978
  100SOL    HW2  300   1.623   0.490   2.740  4.0187  0.5550  3.0265
  101SOL     OW  301   2.470   0.200   2.564  0.4707 -0.1404 -0.0325
  101SOL    HW1  302   2.379   0.247   2.552  2.0777  1.3266  0.2819
  101SOL    HW2  303   2.533   0.211   2.487 -0.4618  1.6203  0.0694
  102SOL     OW  304   0.432   0.848   1.494 -0.2560 -0.3680  0.2428
  102SOL    HW1  305   0.423   0.861   1.593  1.8919 -1.0519  0.5598
  102SOL    HW2  306   0.347   0.810   1.452  1.3044 -2.6373  0.8391
  103SOL     OW  307   0.701   0.968   2.450  0.5036 -0.4366 -0.2814
  103SOL    HW1  308   0.633   0.930   2.387  0.4533 -0.6293 -1.3022
  103SOL    HW2  309   0.669   0.994   2.541 -3.6125 -1.2181 -1.7340
  104SOL     OW  310   0.215   1.008   2.572  0.0876 -0.1124 -0.1357
  104SOL    HW1  311   0.146   1.064   2.527 -0.1064 -2.5758  1.0155
  104SOL    HW2  312   0.281   1.070   2.621  0.6780  0.4634  1.0363
  105SOL     OW  313   1.894   2.188   1.649  1.3226  0.4880 -0.3233
  105SOL    HW1  314   1.942   2.102   1.687  0.0038 -4.0055  0.9879
  105SOL    HW2  315   1.877   2.179   1.549  1.8678 -1.8332  1.1581
  106SOL     OW  316   1.899   2.964   0.486  0.6317  0.2302 -0.1832
  106SOL    HW1  317   1.879   2.867   0.487 -0.7112 -1.4980 -1.6939
  106SOL    HW2  318   1.937   2.997   0.397  0.4047 -0.5160 -0.0063
  107SOL     OW  319   2.037   1.985   0.900  0.6258  0.3690  0.1259
  107SOL    HW1  320   2.102   1.989   0.980 -0.3105  0.3276  2.1726
  107SOL    HW2  321   2.022   1.888   0.874  3.2921 -1.4618  1.1789
  108SOL     OW  322   2.867   2.705   1.540 -0.2545  0.5318  0.0296
  108SOL    HW1  323   2.858   2.615   1.593  0.2845 -0.5675  2.7037
  108SOL    HW2  324   2.795   2.754   1.589 -0.1121 -1.1582 -0.6601
  109SOL     OW  325   1.943   2.452   0.722  0.7581  0.7550  0.0653
  109SOL    HW1  326   1.885   2.398   0.789 -1.6845 -4.6618  3.1985
  109SOL    HW2  327   2.037   2.433   0.735 -4.8394 -0.1524  2.8584
  110SOL     OW  328   1.064   1.753   2.147  0.3865 -0.1766 -0.2795
  110SOL    HW1  329   1.113   1.666   2.167  0.9908  0.8941 -0.0845
  110SOL    HW2  330   0.972   1.737   2.109 -2.4221 -1.2651 -1.6594
  111SOL     OW  331   1.783   2.287   2.018 -0.0947  0.0141  0.5328
  111SOL    HW1  332   1.719   2.264   1.940  2.2677 -1.4269  0.3186
  111SOL    HW2  333   1.731   2.334   2.090  0.5785 -0.1286  1.9229
  112SOL     OW  334   1.776   1.765   2.564 -0.4628 -0.4680 -0.0661
  112SOL    HW1  335   1.831   1.830   2.623 -0.7999 -0.6363  1.1174
  112SOL    HW2  336   1.839   1.693   2.528 -0.0011  0.7530 -0.2703
  113SOL     OW  337   1.729   1.773   1.878  0.0647 -0.0633  0.0602
  113SOL    HW1  338   1.743   1.860   1.925  1.2928  0.3088 -1.0089
  113SOL    HW2  339   1.647   1.721   1.906  0.9450 -0.1029  1.2213
  114SOL     OW  340   2.992   1.300   1.063 -0.2881  0.1698  0.2222
  114SOL    HW1  341   2.944   1.250   1.139 -1.4058 -0.8031 -1.4824
  114SOL    HW2  342   3.057   1.233   1.018  0.6901 -3.2664 -0.8494
  115SOL     OW  343   0.854   0.553   0.266 -0.1717  0.8562 -0.3104
  115SOL    HW1  344   0.756   0.559   0.299 -1.9082 -0.4690  1.8855
  115SOL    HW2  345   0.914   0.619   0.319  0.0275  1.0784 -2.4332
  116SOL     OW  346   2.767   1.923   2.217 -0.4349 -0.5136 -0.4264
  116SOL    HW1  347   2.675   1.955   2.203  3.0372 -0.4756  1.1983
  116SOL    HW2  348   2.785   1.912   2.318  0.1423  0.9458  0.5896
  117SOL     OW  349   0.091   2.641   0.729 -0.4493 -0.0203 -0.0907
  117SOL    HW1  350   0.154   2.609   0.655 -0.4736  0.4878  0.4770
  117SOL    HW2  351   0.128   2.617   0.822 -1.2691 -0.2555  2.6976
  118SOL     OW  352   0.471   1.735   2.757  0.4756 -0.0993 -0.3103
  118SOL    HW1  353   0.468   1.797   2.837 -0.6148  0.8337  2.2383
  118SOL    HW2  354   0.555   1.680   2.760 -0.8105  0.1641 -3.5832
  119SOL     OW  355   0.693   1.921   0.356 -0.4836 -0.3543 -0.7739
  119SOL    HW1  356   0.724   1.956   0.449  0.4760  0.0894 -0.8588
  119SOL    HW2  357   0.639   1.991   0.305  0.0440 -1.9466 -1.1110
  120SOL     OW  358   1.548   0.470   0.272  0.0603  0.1842  0.3666
  120SOL    HW1  359   1.596   0.395   0.322 -4.8934  1.2709 -1.2798
  120SOL    HW2  360   1.566   0.555   0.316  1.4443 -1.4757 -2.8614
  121SOL     OW  361   1.525   2.593   0.714 -0.4989  0.0342 -0.3291
  121SOL    HW1  362   1.535   2.493   0.732  1.9235 -0.6459 -0.2691
  121SOL    HW2  363   1.552   2.615   0.615  0.8620  0.4237  0.7071
  122SOL     OW  364   2.370   2.454   1.617 -0.5584  0.3529 -0.3877
  122SOL    HW1  365   2.328   2.527   1.679  1.7069  3.2215  3.5204
  122SOL    HW2  366   2.417   2.384   1.678  1.2965 -1.3544  1.2862
  123SOL     OW  367   0.565   1.619   0.862 -0.6263 -0.1700  0.2145
  123SOL    HW1  368   0.660   1.588   0.866 -0.0727  0.7026  1.6636
  123SOL    HW2  369   0.566   1.714   0.819 -3.3298 -0.0547 -0.0538
  124SOL     OW  370   2.994   0.875   0.267 -1.3583  0.5820 -0.2418
  124SOL    HW1  371   2.948   0.787   0.294 -1.7183  1.3170 -0.2046
  124SOL    HW2  372   2.939   0.959   0.280  1.0553  2.7114  1.9418
  125SOL     OW  373   0.590   0.500   0.357 -0.8124  0.5536 -0.2133
  125SOL    HW1  374   0.511   0.482   0.299  0.4499  2.6667  0.8026
  125SOL    HW2  375   0.560   0.537   0.447 -2.4587  3.4835  0.7999
  126SOL     OW  376   2.907   2.049   0.648  0.5344  0.5620 -0.2023
  126SOL    HW1  377   2.871   1.955   0.625  1.4219 -3.4436 -0.6729
  126SOL    HW2  378   2.892   2.114   0.569  0.9482 -2.3508 -2.3719
  127SOL     OW  379   1.499   2.452   1.881 -0.4862  0.1945  0.0499
  127SOL    HW1  380   1.402   2.429   1.884  0.9702  0.1554  3.9453
  127SOL    HW2  381   1.547   2.370   1.840 -2.3534 -0.8445  0.8297
  128SOL     OW  382   1.006   1.037   0.284 -0.1389 -0.5913 -0.4516
  128SOL    HW1  383   0.958   1.043   0.374  0.3193 -1.0777  1.7408
  128SOL    HW2  384   1.008   1.124   0.230 -0.5289 -0.4364  2.4691
  129SOL     OW  385   1.766   1.784   1.614 -0.1026 -0.4979  0.2170
  129SOL    HW1  386   1.680   1.810   1.565 -1.8636 -3.6331  0.5271
  129SOL    HW2  387   1.753   1.769   1.715  0.7744 -0.2039 -3.1370
  130SOL     OW  388   2.046   1.496   1.589  0.2977  0.5082 -0.5599
  130SOL    HW1  389   2.063   1.560   1.667  1.3583 -2.0635  2.0332
  130SOL    HW2  390   1.991   1.415   1.621  0.9566 -0.4810 -2.8602
  131SOL     OW  391   2.967   2.927   3.031  0.0439  0.0229 -0.5356
  131SOL    HW1  392   2.929   2.973   2.951  0.3119 -1.2614  3.3599
  131SOL    HW2  393   2.931   2.835   3.043  1.2442  2.5211 -0.1675
  132SOL     OW  394   2.505   1.860   0.629 -0.1854  0.0345  0.1397
  132SOL    HW1  395   2.531   1.943   0.577  0.9819  2.6855 -0.0228
  132SOL    HW2  396   2.559   1.781   0.590 -0.3552 -1.3217 -2.0172
  133SOL     OW  397   0.481   0.243   2.208  0.2276  0.0699  0.5027
  133SOL    HW1  398   0.399   0.195   2.240 -0.7016  0.0382  0.5000
  133SOL    HW2  399   0.540   0.277   2.282  1.6515 -1.5578 -0.5570
  134SOL     OW  400   2.822   2.109   3.029  0.5331 -0.0843  0.3033
  134SOL    HW1  401   2.856   2.019   3.066 -0.5594 -0.6535  1.6009
  134SOL    HW2  402   2.723   2.105   3.005  1.0800 -1.1709 -0.1848
  135SOL     OW  403   1.601   0.543   2.124 -0.0421 -0.2081  0.0422
  135SOL    HW1  404   1.679   0.608   2.092  2.9433  2.8136 -0.0547
  135SOL    HW2  405   1.556   0.579   2.209  2.4124 -0.8756 -1.1556
  136SOL     OW  406   2.508   1.495   0.585 -0.7376  0.0398  0.1024
  136SOL    HW1  407   2.459   1.412   0.561 -1.9416  1.3356 -0.2561
  136SOL    HW2  408   2.498   1.492   0.686  0.6441 -1.4362  0.4414
  137SOL     OW  409   2.853   1.756   0.658 -0.5581  0.1605 -0.0216
  137SOL    HW1  410   2.840   1.659   0.681 -0.0970  1.1597 -0.0324
  137SOL    HW2  411   2.865   1.807   0.748  0.5153  0.6744  0.8955
  138SOL     OW  412   2.456   0.899   1.152 -0.1368  0.2259 -0.1504
  138SOL    HW1  413   2.367   0.919   1.111  2.1944  1.2446  2.1425
  138SOL    HW2  414   2.526   0.872   1.085  1.6931 -1.2925 -0.9697
  139SOL     OW  415   0.627   2.481   2.976 -0.1246  0.0863 -0.2650
  139SOL    HW1  416   0.683   2.521   3.052  1.7486  0.1385 -0.8341
  139SOL    HW2  417   0.687   2.434   2.906 -2.6399 -1.3876 -1.0400
  140SOL     OW  418   1.099   1.909   1.121  0.0423  0.1386 -0.2882
  140SOL    HW1  419   1.147   1.948   1.044 -3.3180 -1.6556 -0.6707
  140SOL    HW2  420   1.009   1.880   1.097  2.1980 -0.0974  0.9314
  141SOL     OW  421   1.266   2.221   0.546 -0.1645  0.5096 -0.2419
  141SOL    HW1  422   1.228   2.128   0.566 -1.6489 -0.0564  0.5917
  141SOL    HW2  423   1.217   2.293   0.602  0.0586 -3.3378  0.8124
  142SOL     OW  424   0.979   0.504   0.960 -0.3736 -0.1837  0.3490
  142SOL    HW1  425   1.013   0.487   0.862 -0.6774 -2.0061 -0.1994
  142SOL    HW2  426   0.884   0.552   0.965 -1.5104  4.1513  2.5779
  143SOL     OW  427   0.839   1.155   2.787  0.4549  0.0431 -0.5748
  143SOL    HW1  428   0.793   1.233   2.744 -0.0220 -1.2389  1.0447
  143SOL    HW2  429   0.903   1.114   2.722 -1.3834  2.0812  2.2449
  144SOL     OW  430   1.869   2.719   0.810 -0.0153 -0.6135 -0.3614
  144SOL    HW1  431   1.778   2.701   0.859 -2.5173  0.4117  1.9213
  144SOL    HW2  432   1.922   2.640   0.775  3.0257  1.3423  0.2270
  145SOL     OW  433   1.964   0.716   2.627  0.7469 -0.3423  0.4203
  145SOL    HW1  434   1.967   0.760   2.536  0.2331 -1.4122 -0.1324
  145SOL    HW2  435   2.054   0.729   2.675 -1.3457 -1.8537 -0.1938
  146SOL     OW  436   0.194   2.864   0.588 -0.0991 -0.3172 -0.4587
  146SOL    HW1  437   0.264   2.892   0.656  1.1510 -0.0918 -1.7658
  146SOL    HW2  438   0.157   2.769   0.611  0.8210 -1.1408 -1.1019
  147SOL     OW  439   1.846   0.378   2.182 -0.1871  0.1049 -0.1953
  147SOL    HW1  440   1.767   0.441   2.171  0.6945 -0.3083  0.1382
  147SOL    HW2  441   1.875   0.388   2.281 -0.5891 -0.5587  3.0284
  148SOL     OW  442   1.391   0.383   2.064 -0.1171  0.3927 -0.3412
  148SOL    HW1  443   1.469   0.436   2.094  1.5522 -3.1897 -1.2530
  148SOL    HW2  444   1.345   0.337   2.141  0.8329  1.6262  0.4610
  149SOL     OW  445   1.445   0.164   2.412 -0.4554  0.3593  0.5232
  149SOL    HW1  446   1.430   0.148   2.314 -0.2217  0.1117 -1.5260
  149SOL    HW2  447   1.412   0.088   2.472 -0.6479 -1.6965 -0.1502
  150SOL     OW  448   2.859   0.037   0.036 -0.5872 -0.0170  0.2032
  150SOL    HW1  449   2.934   3.074   0.020  4.0826  0.5866  1.8025
  150SOL    HW2  450   2.769   0.005   0.003 -1.7482 -0.4162  0.0260
  151SOL     OW  451   0.549   1.016   0.056  0.0308 -0.1448  0.0406
  151SOL    HW1  452   0.493   0.942   0.021 -1.2570  1.5252 -0.7975
  151SOL    HW2  453   0.639   1.020   0.007  3.1315  0.3355 -1.8349
  152SOL     OW  454   3.094   0.397   0.680  0.1469 -0.4138  0.0771
  152SOL    HW1  455   3.019   0.349   0.732 -2.7725  0.1224  0.2232
  152SOL    HW2  456   0.076   0.351   0.666  1.1670  1.5263  1.0793
  153SOL     OW  457   2.585   0.251   1.406 -0.0281 -0.0905 -0.3697
  153SOL    HW1  458   2.514   0.188   1.365  2.8365 -2.0324  1.2829
  153SOL    HW2  459   2.641   0.209   1.485  3.1842  0.8615  3.1817
  154SOL     OW  460   1.453   0.090   2.132  0.3684  0.1017  0.0103
  154SOL    HW1  461   1.509   0.113   2.054 -2.0912 -0.1408  1.9424
  154SOL    HW2  462   1.394   0.011   2.129 -1.7144  2.5203  0.8574
  155SOL     OW  463   3.100   1.633   0.455  0.1661  0.2810 -0.1993
  155SOL    HW1  464   3.031   1.665   0.523 -0.0637 -2.1265 -3.8502
  155SOL    HW2  465   3.089   1.677   0.367 -1.6080 -2.3997  0.5703
  156SOL     OW  466   2.740   1.779   2.977 -0.0656  0.2440 -0.0932
  156SOL    HW1  467   2.843   1.788   2.962  1.9658 -0.8932 -2.0200
  156SOL    HW2  468   2.705   1.690   3.018  0.1022 -1.6951 -1.1380
  157SOL     OW  469   0.800   0.095   0.752 -0.3808 -0.5646 -0.4133
  157SOL    HW1  470   0.753   0.150   0.679 -2.2076 -1.5065 -2.6102
  157SOL    HW2  471   0.883   0.048   0.715  0.5779  0.8227  2.8690
  158SOL     OW  472   2.433   0.463   1.944 -0.1576  0.4541 -0.4770
  158SOL    HW1  473   2.375   0.381   1.923  0.7459  1.2200 -1.8858
  158SOL    HW2  474   2.530   0.443   1.925  1.2957 -1.0322  0.4984
  159SOL     OW  475   0.221   0.249   0.653 -0.3289 -0.2450  0.2770
  159SOL    HW1  476   0.225   0.180   0.574 -0.1951 -0.8243 -2.6078
  159SOL    HW2  477   0.315   0.283   0.669  2.7812  1.1710 -0.8641
  160SOL     OW  478   1.870   2.005   2.043  0.1801  0.1238  0.5623
  160SOL    HW1  479   1.860   2.106   2.040 -1.3624 -1.1773 -0.1497
  160SOL    HW2  480   1.853   1.969   2.138 -0.8525  1.1686 -1.2347
  161SOL     OW  481   2.879   0.421   2.517 -0.0562  0.2635  0.7025
  161SOL    HW1  482   2.895   0.443   2.614 -1.2624  2.9151 -2.0004
  161SOL    HW2  483   2.942   0.349   2.487  2.4539  0.6273  1.1899
  162SOL     OW  484   1.011   2.899   1.680 -0.4087  0.0429 -0.3176
  162SOL    HW1  485   1.091   2.849   1.717 -1.0689  3.2480  2.0237
  162SOL    HW2  486   0.983   2.972   1.747 -0.5376 -0.0489  0.1526
  163SOL     OW  487   2.722   0.363   2.161 -0.1072 -0.2446 -0.5749
  163SOL    HW1  488   2.668   0.291   2.206  1.3889 -0.6576  1.9918
  163SOL    HW2  489   2.816   0.369   2.193  2.2583  1.7329  2.6230
  164SOL     OW  490   2.311   1.607   0.429 -0.3362 -0.5288 -0.2203
  164SOL    HW1  491   2.329   1.684   0.368  0.3945 -0.3953 -2.6654
  164SOL    HW2  492   2.401   1.562   0.455  0.0026 -0.6386 -0.3466
  165SOL     OW  493   3.049   0.552   1.285  0.5345  0.1736 -0.3457
  165SOL    HW1  494   3.042   0.465   1.237  0.3085 -0.9999  0.5799
  165SOL    HW2  495   3.021   0.631   1.230 -0.6590 -1.8993  0.3621
  166SOL     OW  496   2.311   0.715   0.070 -0.0831  0.4348 -0.2529
  166SOL    HW1  497   2.372   0.735   3.096  1.2135  2.8383  1.2223
  166SOL    HW2  498   2.273   0.804   0.095 -1.6983 -0.2652  2.0750
  167SOL     OW  499   2.720   0.941   0.018  0.4312 -0.3226  0.1838
  167SOL    HW1  500   2.761   0.981   3.037 -1.9513  0.6290  1.9383
  167SOL    HW2  501   2.761   0.975   0.106  0.4391  2.0286 -2.1289
  168SOL     OW  502   1.750   2.994   2.712 -0.4420  0.2413  0.5298
  168SOL    HW1  503   1.667   2.938   2.686 -1.7429  2.3163  0.2044
  168SOL    HW2  504   1.722   3.080   2.762  1.1561  1.2317 -0.2881
  169SOL     OW  505   3.095   1.587   0.837  0.1426  0.4941 -0.3235
  169SOL    HW1  506   3.017   1.553   0.775  0.0246  1.4137 -2.2062
  169SOL    HW2  507   0.047   1.505   0.872  3.1690 -3.6123 -0.4303
  170SOL     OW  508   0.113   0.934   1.253  0.3024 -0.3062  0.3032
  170SOL    HW1  509   0.113   0.987   1.345 -1.6426 -0.3883  0.9786
  170SOL    HW2  510   0.113   0.836   1.283  0.7049 -1.0583  1.4923
  171SOL     OW  511   2.377   2.176   1.978 -0.6579  0.0352  0.1377
  171SOL    HW1  512   2.388   2.159   1.880  0.5729 -0.2500  3.0064
  171SOL    HW2  513   2.292   2.138   2.019  3.1544  2.1018 -0.2600
  172SOL     OW  514   0.218   2.268   1.580 -0.0710  0.2999  0.8109
  172SOL    HW1  515   0.185   2.206   1.500  0.7454 -1.7805  0.6672
  172SOL    HW2  516   0.180   2.363   1.574 -2.7636 -2.0673 -0.2933
  173SOL     OW  517   1.256   1.160   3.005  0.1041 -0.1676 -0.1433
  173SOL    HW1  518   1.340   1.205   2.963  1.4957 -1.7376 -1.8238
  173SOL    HW2  519   1.178   1.231   3.003  1.2977 -1.1461  2.8718
  174SOL     OW  520   1.281   0.612   2.853  0.1340  0.5248  0.2023
  174SOL    HW1  521   1.227   0.661   2.923  0.9447  2.5000 -3.0858
  174SOL    HW2  522   1.361   0.662   2.811  1.5222 -1.1761 -0.4561
  175SOL     OW  523   1.584   1.917   1.180 -0.0370 -0.0165  0.2325
  175SOL    HW1  524   1.663   1.858   1.163 -1.7111  1.5143 -2.3568
  175SOL    HW2  525   1.497   1.870   1.194  0.5945  2.2963 -1.5499
  176SOL     OW  526   1.567   0.008   0.295 -0.0234  0.2470 -0.2781
  176SOL    HW1  527   1.609   0.089   0.345  1.6105  0.2521  1.9345
  176SOL    HW2  528   1.582   0.023   0.201 -0.8261 -0.9608  2.7085
  177SOL     OW  529   0.574   0.966   2.708  0.1130 -0.0090 -0.2324
  177SOL    HW1  530   0.665   0.957   2.754 -2.5622  2.1773 -3.1156
  177SOL    HW2  531   0.504   0.901   2.748 -0.6006 -2.5157 -0.2922
  178SOL     OW  532   2.180   2.308   2.313  0.1872  0.0941  0.5236
  178SOL    HW1  533   2.270   2.308   2.359 -2.7233  2.5491 -2.3418
  178SOL    HW2  534   2.172   2.233   2.241 -0.0420 -1.9338 -1.7927
  179SOL     OW  535   3.097   0.062   2.746 -0.3048 -0.3091  0.1208
  179SOL    HW1  536   3.018   0.051   2.808  0.6414 -2.0543 -1.1464
  179SOL    HW2  537   3.075   0.014   2.661  1.0900  1.3523  1.1925
  180SOL     OW  538   1.936   0.965   0.712 -0.1176 -0.6263  0.6782
  180SOL    HW1  539   1.982   0.884   0.743 -1.3462  2.2527 -1.2742
  180SOL    HW2  540   1.862   0.991   0.776  4.1209  0.4935  1.3936
  181SOL     OW  541   2.147   1.210   2.517  0.1550 -0.0555 -0.2472
  181SOL    HW1  542   2.144   1.306   2.555  0.7577  1.2871  1.7764
  181SOL    HW2  543   2.056   1.168   2.533  0.4645 -3.5942 -3.0043
  182SOL     OW  544   2.631   2.504   2.139 -0.4215  0.2985  0.2610
  182SOL    HW1  545   2.701   2.536   2.074  0.6455  0.5620  0.5988
  182SOL    HW2  546   2.674   2.432   2.198  0.5496 -0.4276  0.4855
  183SOL     OW  547   2.031   0.633   2.046  0.0416 -0.4491  0.3665
  183SOL    HW1  548   1.989   0.543   2.040 -0.4398  2.6478  0.9594
  183SOL    HW2  549   2.127   0.642   2.082 -0.5026  0.0259 -0.7360
  184SOL     OW  550   3.073   1.748   1.340  0.0069 -0.1552 -0.5640
  184SOL    HW1  551   3.082   1.738   1.242 -1.4956  3.6307  1.8961
  184SOL    HW2  552   0.041   1.810   1.385  1.4297  3.4329  1.3114
  185SOL     OW  553   2.423   0.088   0.652  0.1777  0.5525  0.5259
  185SOL    HW1  554   2.414   3.100   0.695  0.6598 -0.5622  2.2765
  185SOL    HW2  555   2.355   0.099   0.576  0.4789 -1.2065 -1.4277
  186SOL     OW  556   3.002   2.627   2.782 -0.4307  0.1651  0.8523
  186SOL    HW1  557   2.926   2.568   2.748  1.7619  0.7115  0.7363
  186SOL    HW2  558   2.998   2.636   2.883  1.6310  0.7638  0.8352
  187SOL     OW  559   2.840   1.307   0.516 -0.2417  0.3584  0.3145
  187SOL    HW1  560   2.915   1.325   0.445 -0.3727 -0.5319  0.4736
  187SOL    HW2  561   2.749   1.294   0.473 -1.8858 -1.3301  1.6643
  188SOL     OW  562   2.293   1.231   0.918  0.5018  0.3946  0.2270
  188SOL    HW1  563   2.280   1.235   1.020  0.2238 -0.1373 -1.6773
  188SOL    HW2  564   2.201   1.234   0.872 -0.0751 -0.5315  0.5318
  189SOL     OW  565   3.085   0.269   2.413 -0.6828 -0.5748 -0.1844
  189SOL    HW1  566   3.068   0.172   2.442  0.6993 -2.5514  0.1951
  189SOL    HW2  567   0.079   0.294   2.430 -2.0205 -0.6909 -1.8005
  190SOL     OW  568   1.627   1.167   1.877 -0.1664  0.4414  0.1945
  190SOL    HW1  569   1.527   1.160   1.882 -1.5628  2.0649 -0.2301
  190SOL    HW2  570   1.654   1.162   1.778  2.1189  3.6559 -1.2852
  191SOL     OW  571   1.017   0.364   2.029  0.2564 -0.0131 -0.5649
  191SOL    HW1  572   1.108   0.331   2.058  0.0834  0.6367  2.8577
  191SOL    HW2  573   1.003   0.467   2.047 -1.6190  1.3727  0.2032
  192SOL     OW  574   1.572   2.004   1.783 -0.5825  0.2026 -0.0081
  192SOL    HW1  575   1.559   1.967   1.877  1.8385 -3.0015  2.5978
  192SOL    HW2  576   1.551   1.936   1.710 -0.0571 -1.4377  1.3486
  193SOL     OW  577   1.719   0.527   1.096 -0.2563 -0.0781 -0.4717
  193SOL    HW1  578   1.635   0.530   1.043  0.6078 -2.6409  0.8339
  193SOL    HW2  579   1.703   0.503   1.194  1.0489 -1.0397 -1.1255
  194SOL     OW  580   0.582   2.013   1.500 -0.0909 -0.0573  0.3895
  194SOL    HW1  581   0.564   2.010   1.601 -0.1114 -0.0759  1.5977
  194SOL    HW2  582   0.559   1.926   1.461  1.5384  2.5724  0.4676
  195SOL     OW  583   1.684   0.288   0.391  0.4174 -0.6340  0.3944
  195SOL    HW1  584   1.766   0.282   0.332 -1.7875  0.4280  0.6172
  195SOL    HW2  585   1.708   0.271   0.492  1.0626 -0.3157  2.7927
  196SOL     OW  586   0.183   1.392   1.476 -0.3858  0.1957 -0.2108
  196SOL    HW1  587   0.188   1.494   1.479 -0.9530 -3.3799 -0.7212
  196SOL    HW2  588   0.186   1.347   1.566 -0.5556  0.8466  0.7601
  197SOL     OW  589   0.989   0.284   1.765  0.6068  0.5564  0.2703
  197SOL    HW1  590   1.028   0.289   1.673 -2.1108 -0.2699  1.2153
  197SOL    HW2  591   0.984   0.377   1.801 -0.8008 -0.9277 -3.0863
  198SOL     OW  592   0.648   1.257   1.136 -0.1635 -0.1095 -0.4509
  198SOL    HW1  593   0.616   1.355   1.117  2.3041  0.1336  0.3607
  198SOL    HW2  594   0.665   1.246   1.238 -0.2354  0.8239 -2.0169
  199SOL     OW  595   3.054   2.342   1.833  0.3151  0.0381  0.0275
  199SOL    HW1  596   3.028   2.386   1.747 -2.8039 -2.1460 -0.6823
  199SOL    HW2  597   0.025   2.279   1.822 -2.5658  3.2317  0.8585
  200SOL     OW  598   1.893   1.302   1.693 -0.8228 -0.1188 -0.0444
  200SOL    HW1  599   1.926   1.232   1.759  1.2042 -1.9042 -1.2176
  200SOL    HW2  600   1.845   1.378   1.738  1.6850 -1.9392  1.2530
  201SOL     OW  601   0.758   1.803   2.062  0.0827 -0.1222  0.0691
  201SOL    HW1  602   0.755   1.721   2.130  1.3644  0.1507  4.6756
  201SOL    HW2  603   0.728   1.778   1.968 -0.2964 -2.0098 -0.2542
  202SOL     OW  604   1.540   0.430   3.091 -0.2295  0.2202  0.7075
  202SOL    HW1  605   1.639   0.433   3.061 -1.5251 -1.8325 -0.5355
  202SOL    HW2  606   1.532   0.464   0.081 -1.4968 -0.4006 -0.1708
  203SOL     OW  607   1.315   2.758   2.444 -0.2681  0.0378  0.4521
  203SOL    HW1  608   1.297   2.691   2.369  0.5135  0.6968 -2.2540
  203SOL    HW2  609   1.390   2.825   2.418  2.9931  1.3971 -0.8859
  204SOL     OW  610   0.669   1.795   1.800  0.3173 -0.4140 -0.0493
  204SOL    HW1  611   0.745   1.821   1.735  0.6113  2.2030  0.6927
  204SOL    HW2  612   0.593   1.729   1.761 -1.7143 -2.0883 -2.0890
  205SOL     OW  613   1.806   1.377   2.122 -0.0424 -0.3403 -0.1638
  205SOL    HW1  614   1.779   1.382   2.024 -2.5388 -5.7311  0.8782
  205SOL    HW2  615   1.728   1.392   2.183  2.2882  1.7791 -1.6311
  206SOL     OW  616   0.135   1.552   2.256 -0.4685  0.1062  0.1911
  206SOL    HW1  617   0.229   1.528   2.226  0.5368  2.8013  2.0332
  206SOL    HW2  618   0.133   1.580   2.353  1.7175  1.6215  0.6009
  207SOL     OW  619   0.946   3.003   1.942 -0.2376 -0.4065  0.1213
  207SOL    HW1  620   0.867   3.059   1.918 -1.2825 -1.3811 -2.6424
  207SOL    HW2  621   0.925   2.920   1.999  0.6036 -1.7204  2.1172
  208SOL     OW  622   0.439   2.499   1.852 -0.2871 -0.1540  0.3866
  208SOL    HW1  623   0.498   2.508   1.937 -0.9789 -3.5793  2.4769
  208SOL    HW2  624   0.488   2.518   1.766 -0.6470 -0.4852  2.3142
  209SOL     OW  625   1.546   2.887   0.457  0.1469 -0.7735  0.0599
  209SOL    HW1  626   1.541   2.939   0.547  2.5739  1.0300  2.0191
  209SOL    HW2  627   1.574   2.958   0.392  0.0225  0.6645  1.7333
  210SOL     OW  628   2.661   0.751   0.908 -0.4310  0.1020 -0.2630
  210SOL    HW1  629   2.760   0.733   0.897 -1.8745 -1.3431  0.5997
  210SOL    HW2  630   2.627   0.786   0.821 -0.9942  2.5217 -2.6158
  211SOL     OW  631   0.681   0.409   1.821  0.0454  0.3246 -0.0702
  211SOL    HW1  632   0.720   0.314   1.829 -1.6466  0.1351 -0.7989
  211SOL    HW2  633   0.607   0.413   1.751  0.1250 -0.9891  2.3468
  212SOL     OW  634   1.485   2.652   1.696  0.5160  0.0055 -0.5064
  212SOL    HW1  635   1.476   2.620   1.596 -2.7864  1.2198  0.2834
  212SOL    HW2  636   1.500   2.572   1.761 -2.9771 -0.6353 -0.7943
  213SOL     OW  637   2.955   0.583   1.537  0.4907 -0.1432  0.1140
  213SOL    HW1  638   3.015   0.569   1.453  0.9276 -2.3229 -2.1312
  213SOL    HW2  639   2.884   0.510   1.545 -2.0137 -1.3872 -0.3116
  214SOL     OW  640   0.615   2.464   2.080  0.5921  0.5361 -0.1324
  214SOL    HW1  641   0.663   2.376   2.078  1.1666  0.0950 -1.3376
  214SOL    HW2  642   0.679   2.541   2.104  0.0913  2.8325  0.8939
  215SOL     OW  643   2.498   1.626   1.748 -0.4051 -0.4002 -0.4212
  215SOL    HW1  644   2.467   1.530   1.740 -1.5692  3.3443 -2.5310
  215SOL    HW2  645   2.458   1.685   1.674 -2.0367  0.9072 -0.9280
  216SOL     OW  646   0.509   1.175   2.159  0.0926 -0.3992 -0.6641
  216SOL    HW1  647   0.515   1.247   2.089 -0.5010  0.7675 -1.2716
  216SOL    HW2  648   0.604   1.146   2.186  2.3413 -2.4286 -0.8806
  217SOL     OW  649   2.692   3.071   1.475  0.6145 -0.0200  1.0261
  217SOL    HW1  650   2.647   2.986   1.504 -0.1238 -3.4150  0.5792
  217SOL    HW2  651   2.730   3.066   1.381  0.5813  0.8391  0.0567
  218SOL     OW  652   1.516   2.162   1.049 -0.0205 -0.0178  0.2966
  218SOL    HW1  653   1.564   2.081   1.090 -0.1647 -2.7012 -0.4600
  218SOL    HW2  654   1.487   2.141   0.954 -0.6516  1.6214  3.0690
  219SOL     OW  655   1.851   2.684   0.491  0.1466  0.0065 -0.5316
  219SOL    HW1  656   1.860   2.641   0.581  0.7737  0.6574 -3.1511
  219SOL    HW2  657   1.756   2.663   0.460 -1.5753  0.0060  0.7142
  220SOL     OW  658   1.563   2.512   0.180 -0.4623  0.3169  0.1842
  220SOL    HW1  659   1.506   2.509   0.096 -0.4415 -3.6499 -0.7389
  220SOL    HW2  660   1.664   2.513   0.163 -0.1404  0.0467 -0.5362
  221SOL     OW  661   2.663   1.689   0.472  0.4084 -0.3702  0.1689
  221SOL    HW1  662   2.744   1.722   0.522 -0.4632  1.0468 -1.7868
  221SOL    HW2  663   2.633   1.599   0.504  1.6069  1.3173 -1.8603
  222SOL     OW  664   1.000   2.304   0.925 -0.3102  0.1515  0.0467
  222SOL    HW1  665   0.934   2.382   0.911  0.9520 -0.4598 -2.9732
  222SOL    HW2  666   1.056   2.307   1.006 -3.5972 -1.3835 -1.6199
  223SOL     OW  667   0.976   3.006   0.122 -0.0501 -0.3376 -0.3476
  223SOL    HW1  668   0.974   3.025   0.021 -1.2776 -0.8254  0.8546
  223SOL    HW2  669   0.888   2.967   0.155  1.5120 -0.4364 -0.9107
  224SOL     OW  670   2.840   1.003   1.047  0.2247 -0.1656 -0.6383
  224SOL    HW1  671   2.783   1.044   0.977  3.4429  1.3824  4.4644
  224SOL    HW2  672   2.839   1.061   1.132  0.2732  1.8351  2.2143
  225SOL     OW  673   2.899   1.845   0.913  0.1444 -0.7410 -0.4949
  225SOL    HW1  674   2.882   1.946   0.898  0.3391  0.7369 -1.0564
  225SOL    HW2  675   2.974   1.833   0.981 -1.1644  0.5209  1.0637
  226SOL     OW  676   0.810   2.988   1.078 -0.2043 -0.0238 -0.2932
  226SOL    HW1  677   0.793   2.907   1.142 -2.7581 -0.2702 -0.3346
  226SOL    HW2  678   0.721   3.019   1.043  1.7780 -2.3855  0.2140
  227SOL     OW  679   0.978   1.569   1.362 -0.1751 -0.2334  0.3004
  227SOL    HW1  680   0.997   1.508   1.283 -0.5619 -1.1824 -1.2492
  227SOL    HW2  681   0.884   1.545   1.396  2.3045 -0.1618  0.0980
  228SOL     OW  682   1.214   0.227   2.207  0.1754 -0.2964 -0.0672
  228SOL    HW1  683   1.216   0.133   2.165  2.0193 -1.7743  2.0342
  228SOL    HW2  684   1.176   0.232   2.305 -0.7772 -2.1225  1.4793
  229SOL     OW  685   2.882   0.737   2.254 -0.3007 -0.0327 -0.2351
  229SOL    HW1  686   2.890   0.636   2.234 -0.7288  0.1094 -2.0197
  229SOL    HW2  687   2.937   0.791   2.191 -0.5722  0.2116 -1.2610
  230SOL     OW  688   3.097   1.002   1.001  0.1716  0.2504 -0.2070
  230SOL    HW1  689   0.035   0.958   1.086  1.0439 -1.4382  2.3826
  230SOL    HW2  690   2.998   0.994   1.005  4.3455 -1.3040 -1.5610
  231SOL     OW  691   1.372   3.057   2.567 -0.4130 -0.2192  0.4068
  231SOL    HW1  692   1.409   2.962   2.568  1.2187  0.8703  0.2831
  231SOL    HW2  693   1.396   3.102   2.655 -0.1735  0.8370 -0.0249
  232SOL     OW  694   0.135   1.499   0.050  0.2235 -0.3467  0.4894
  232SOL    HW1  695   0.166   1.600   0.061 -0.0880 -0.2624  1.3155
  232SOL    HW2  696   0.196   1.435   0.095  1.6790 -1.3890 -2.9507
  233SOL     OW  697   1.172   2.361   2.978 -0.2915  0.1150  0.8965
  233SOL    HW1  698   1.227   2.350   2.891 -0.4693  2.3213  0.4755
  233SOL    HW2  699   1.089   2.414   2.954  0.0523 -1.5466  0.7949
  234SOL     OW  700   0.797   1.418   1.877  0.2579  0.5164  0.5201
  234SOL    HW1  701   0.837   1.333   1.842  2.5614  2.7114 -2.1608
  234SOL    HW2  702   0.875   1.472   1.913 -0.7497  4.6949 -0.6465
  235SOL     OW  703   0.381   2.373   2.177 -0.0188 -0.0307  0.2120
  235SOL    HW1  704   0.370   2.282   2.136  4.3626  2.2301  0.8477
  235SOL    HW2  705   0.476   2.404   2.151  0.5005 -0.6392 -1.0330
  236SOL     OW  706   1.756   2.111   2.828  0.4619 -0.1133  0.6322
  236SOL    HW1  707   1.717   2.048   2.900 -0.0513 -0.3250 -1.2498
  236SOL    HW2  708   1.774   2.203   2.862  0.4105 -0.8786 -1.2261
  237SOL     OW  709   1.625   0.724   0.367  0.2592 -0.1762 -0.6521
  237SOL    HW1  710   1.677   0.732   0.451 -2.5570 -0.2142 -2.7554
  237SOL    HW2  711   1.555   0.796   0.356  1.5209  2.7182 -1.9491
  238SOL     OW  712   0.971   2.791   2.116  0.5014 -0.3510  0.1230
  238SOL    HW1  713   1.050   2.774   2.055  3.8401  1.0409  1.9163
  238SOL    HW2  714   0.912   2.708   2.127 -0.5112  0.8045  1.3297
  239SOL     OW  715   1.188   2.684   1.999 -0.0958 -0.3028  0.5402
  239SOL    HW1  716   1.120   2.610   1.975 -0.7957  0.8171 -1.8766
  239SOL    HW2  717   1.238   2.725   1.920 -1.2332 -1.7879  1.5390
  240SOL     OW  718   1.952   2.962   0.870 -0.0232 -0.8192  0.3295
  240SOL    HW1  719   1.940   2.870   0.827  0.3290 -0.8059 -0.8519
  240SOL    HW2  720   2.051   2.963   0.900  0.9922 -2.6244  2.1305
  241SOL     OW  721   1.486   1.533   1.995  0.2950 -0.3900 -0.4947
  241SOL    HW1  722   1.421   1.468   1.963  1.2754 -1.6267  0.1490
  241SOL    HW2  723   1.452   1.571   2.082 -0.4228  0.5938  0.0954
  242SOL     OW  724   2.518   0.796   3.011 -0.6016 -0.2461 -0.2595
  242SOL    HW1  725   2.601   0.843   3.056  1.7795  0.4609 -0.7841
  242SOL    HW2  726   2.475   0.860   2.945 -2.0042 -2.4576  2.7905
  243SOL     OW  727   0.816   0.944   1.202 -0.4749  0.4162 -0.2662
  243SOL    HW1  728   0.873   0.913   1.122  0.5193  0.0863 -0.5206
  243SOL    HW2  729   0.833   0.881   1.279 -0.6025 -0.5140 -0.2162
  244SOL     OW  730   1.388   0.119   2.786  0.5499  0.2223  0.0409
  244SOL    HW1  731   1.345   0.206   2.815 -1.0624  2.4953 -2.4631
  244SOL    HW2  732   1.487   0.119   2.811  3.4217  0.3439  0.0564
  245SOL     OW  733   2.115   0.066   2.941 -0.0300 -0.3605 -0.0926
  245SOL    HW1  734   2.110   3.088   3.004 -0.5234 -0.5592 -1.5207
  245SOL    HW2  735   2.210   0.076   2.910 -2.9581  0.4182 -0.6606
  246SOL     OW  736   0.901   0.829   1.446  0.9359  0.3501  0.6243
  246SOL    HW1  737   0.992   0.812   1.412 -2.6521  1.6103  2.6113
  246SOL    HW2  738   0.876   0.761   1.517 -2.0039  1.3624  2.7904
  247SOL     OW  739   0.373   0.373   1.973 -0.1530  0.8398  0.6321
  247SOL    HW1  740   0.417   0.335   2.057  0.9526 -1.7291 -3.2645
  247SOL    HW2  741   0.378   0.304   1.902 -3.4197 -1.5271  0.2118
  248SOL     OW  742   2.998   1.965   2.052 -0.1767 -0.3222 -0.1990
  248SOL    HW1  743   3.068   1.890   2.065  0.2665  0.1035 -0.3681
  248SOL    HW2  744   2.909   1.945   2.097  1.0535  0.1073  1.3702
  249SOL     OW  745   2.957   0.307   3.099 -0.4344  0.4874 -0.0063
  249SOL    HW1  746   3.060   0.304   3.083  1.8223  0.5766 -1.4433
  249SOL    HW2  747   2.932   0.217   0.034  1.7383 -0.2797  2.0768
  250SOL     OW  748   2.915   0.113   0.310 -0.1103  0.2601 -0.2755
  250SOL    HW1  749   2.831   0.135   0.255 -7.2236 -0.3128 -0.2542
  250SOL    HW2  750   2.993   0.090   0.245 -0.3146 -1.5706  0.0964
  251SOL     OW  751   0.716   1.524   1.428  0.3257  0.3626 -0.5483
  251SOL    HW1  752   0.647   1.583   1.392  3.1590 -1.2336  0.5829
  251SOL    HW2  753   0.683   1.426   1.427 -1.0528  1.2089 -0.0511
  252SOL     OW  754   1.861   2.503   1.505  0.1898  0.2106  0.3170
  252SOL    HW1  755   1.916   2.461   1.578 -0.7397  2.1459  0.4398
  252SOL    HW2  756   1.923   2.511   1.429 -1.5842  4.3257  1.5638
  253SOL     OW  757   2.319   1.910   2.553 -0.6188 -0.0193  0.7143
  253SOL    HW1  758   2.396   1.978   2.554  3.4946  1.7396 -1.4759
  253SOL    HW2  759   2.324   1.861   2.464 -1.8946  0.3321 -1.0917
  254SOL     OW  760   0.721   2.097   2.110 -0.0567  0.4237 -0.3430
  254SOL    HW1  761   0.743   1.998   2.098  1.0815 -1.1026 -0.3101
  254SOL    HW2  762   0.642   2.116   2.046 -0.6050 -0.5155 -1.5320
  255SOL     OW  763   1.099   0.267   1.512 -0.1140 -0.1652  0.9877
  255SOL    HW1  764   1.193   0.308   1.514 -0.1197  0.0753  0.4814
  255SOL    HW2  765   1.095   0.176   1.461 -0.4445 -3.3326 -0.5167
  256SOL     OW  766   2.153   2.024   1.341  0.6423  0.7038 -0.0774
  256SOL    HW1  767   2.077   1.971   1.384  0.3498 -1.0896 -0.6815
  256SOL    HW2  768   2.154   2.007   1.240  0.1888  0.0465 -2.3256
  257SOL     OW  769   0.575   2.167   2.776  0.1483 -0.5495  0.2189
  257SOL    HW1  770   0.603   2.195   2.871 -0.1801  1.4320  0.1937
  257SOL    HW2  771   0.563   2.251   2.719  0.6613 -0.2553  2.7689
  258SOL     OW  772   0.456   1.383   2.877  0.1774 -0.8646  0.3312
  258SOL    HW1  773   0.551   1.393   2.838 -0.2450  1.8376 -1.1877
  258SOL    HW2  774   0.462   1.344   2.971 -1.1828  0.2113  2.1433
  259SOL     OW  775   0.898   1.451   2.640 -0.4399  0.0447 -0.4240
  259SOL    HW1  776   0.994   1.407   2.633  3.4924 -1.8182 -1.5478
  259SOL    HW2  777   0.895   1.533   2.580 -0.4761  0.3612 -1.1963
  260SOL     OW  778   1.891   0.912   1.248 -0.4390 -0.7863 -0.3094
  260SOL    HW1  779   1.813   0.903   1.314 -0.8495  1.3984 -0.8451
  260SOL    HW2  780   1.888   0.999   1.193 -0.4869  0.3817  2.3999
  261SOL     OW  781   1.170   0.265   1.090  0.2012  0.0101 -0.3870
  261SOL    HW1  782   1.083   0.304   1.066  3.0158  0.1506 -1.3697
  261SOL    HW2  783   1.216   0.298   1.177 -0.7554  1.8761  0.0512
  262SOL     OW  784   2.052   2.074   2.512  0.1611  0.0223 -0.3420
  262SOL    HW1  785   2.058   2.164   2.467  0.1059  2.8885 -1.3472
  262SOL    HW2  786   2.109   2.003   2.464 -0.1848 -0.1841  1.6939
  263SOL     OW  787   2.998   1.583   3.070  0.0366  0.4679  0.1892
  263SOL    HW1  788   3.024   1.605   2.972 -1.1524  1.8567 -4.9670
  263SOL    HW2  789   3.081   1.558   0.017  0.7032  1.8551  1.7365
  264SOL     OW  790   0.242   1.894   0.999 -0.5366 -0.2509 -0.6451
  264SOL    HW1  791   0.343   1.900   1.010 -1.7664  1.4037  0.2808
  264SOL    HW2  792   0.213   1.886   0.907 -1.7374  0.0641  1.7497
  265SOL     OW  793   0.594   1.001   0.686  0.3413 -0.0883 -0.0223
  265SOL    HW1  794   0.555   0.991   0.590  0.1483 -1.5406 -0.3694
  265SOL    HW2  795   0.569   1.078   0.743  2.6709 -0.6522 -1.1598
  266SOL     OW  796   1.480   1.749   3.078 -0.2788 -0.0438 -0.0749
  266SOL    HW1  797   1.487   1.677   3.006  2.8841  1.4889 -3.0896
  266SOL    HW2  798   1.397   1.811   3.059  0.4971  2.7602 -0.0029
  267SOL     OW  799   0.776   1.109   2.235 -0.0852 -0.3216 -0.5500
  267SOL    HW1  800   0.876   1.118   2.209  0.1313  1.5629  1.1669
  267SOL    HW2  801   0.757   1.055   2.318 -0.1981 -0.2914 -2.5459
  268SOL     OW  802   0.752   0.672   2.982 -0.3276  0.0283  0.2352
  268SOL    HW1  803   0.822   0.713   2.920 -0.4649  1.3642  1.6975
  268SOL    HW2  804   0.709   0.745   3.033 -0.0927  0.9020 -0.1932
  269SOL     OW  805   1.855   2.998   2.433 -0.3287  0.3043  0.2032
  269SOL    HW1  806   1.781   3.025   2.366  1.8609  2.2515 -0.7787
  269SOL    HW2  807   1.818   3.006   2.527  0.0265  1.2981  1.5881
  270SOL     OW  808   1.170   1.344   2.555 -0.0563  0.1089 -0.2331
  270SOL    HW1  809   1.266   1.315   2.557  2.6937 -0.9006 -0.6552
  270SOL    HW2  810   1.112   1.261   2.549  0.8584 -2.2566 -1.6089
  271SOL     OW  811   0.133   0.287   3.075  0.3210 -0.1085 -0.4295
  271SOL    HW1  812   0.146   0.379   0.003 -1.9894  0.2692  2.1016
  271SOL    HW2  813   0.219   0.259   3.024  0.9939  2.0457  1.2698
  272SOL     OW  814   2.413   0.963   2.848 -1.0057  0.7380 -0.2529
  272SOL    HW1  815   2.405   1.057   2.884 -2.0407  1.4287 -1.1801
  272SOL    HW2  816   2.472   0.965   2.768 -1.2244 -0.2913 -0.7279
  273SOL     OW  817   0.255   0.114   2.310  0.5964 -0.2209  0.0955
  273SOL    HW1  818   0.183   0.133   2.232 -1.3807  0.5559 -2.3734
  273SOL    HW2  819   0.238   0.175   2.391  0.7439  0.9807  2.0458
  274SOL     OW  820   0.082   0.470   2.021 -0.4867 -0.2869  0.1097
  274SOL    HW1  821   0.177   0.451   1.985  0.0107 -0.9961  1.3015
  274SOL    HW2  822   0.016   0.502   1.951 -0.6419 -1.2150 -0.1973
  275SOL     OW  823   1.526   1.708   0.608 -0.1069 -0.3715 -0.1358
  275SOL    HW1  824   1.610   1.678   0.559 -0.8903 -0.8364 -1.9778
  275SOL    HW2  825   1.488   1.802   0.576 -1.9409  0.1451  0.3985
  276SOL     OW  826   0.720   1.385   2.349 -0.2258  0.5438  0.2297
  276SOL    HW1  827   0.748   1.298   2.302  1.3335 -1.5113  1.2564
  276SOL    HW2  828   0.635   1.381   2.399  2.1637  0.1636 -1.5237
  277SOL     OW  829   1.965   2.762   2.390  0.3971 -0.9702 -0.1732
  277SOL    HW1  830   2.031   2.792   2.318 -1.0029  1.8181 -0.6441
  277SOL    HW2  831   1.908   2.841   2.411 -0.1518 -0.7265 -2.0263
  278SOL     OW  832   2.188   2.999   1.705 -0.5289  0.2120  0.1764
  278SOL    HW1  833   2.100   2.953   1.682 -0.0570  1.5591  0.8780
  278SOL    HW2  834   2.190   3.008   1.803 -1.9326 -2.8443 -0.2313
  279SOL     OW  835   1.721   1.367   3.085 -0.4855  0.1234  0.0323
  279SOL    HW1  836   1.627   1.390   0.010 -1.8401 -2.1103  1.2929
  279SOL    HW2  837   1.795   1.421   0.026 -0.2758  2.0528  0.0247
  280SOL     OW  838   0.806   0.980   3.001 -0.3770  0.5200 -0.2898
  280SOL    HW1  839   0.812   1.043   2.924 -1.3935  0.1605  4.1296
  280SOL    HW2  840   0.901   0.941   3.016 -2.8582  1.5721  0.7633
  281SOL     OW  841   3.022   0.012   1.417  0.7171 -0.0692  0.0517
  281SOL    HW1  842   0.012   3.098   1.444 -1.3713  0.3786 -0.3356
  281SOL    HW2  843   3.001   0.102   1.457 -0.5311 -0.5507  1.4543
  282SOL     OW  844   2.900   2.104   0.900 -0.7689 -0.1050 -0.0499
  282SOL    HW1  845   2.986   2.154   0.929 -0.3859 -1.6440 -1.3037
  282SOL    HW2  846   2.884   2.114   0.798 -2.5218 -1.8481  1.1223
  283SOL     OW  847   1.461   1.904   2.022 -0.8443 -1.0454  0.2790
  283SOL    HW1  848   1.494   1.847   2.099 -0.0585  0.9411 -0.5118
  283SOL    HW2  849   1.424   1.995   2.054 -1.1900  0.9662 -2.2562
  284SOL     OW  850   2.037   3.050   0.261 -0.3872 -0.6276  0.3210
  284SOL    HW1  851   2.138   3.054   0.290  0.0919  1.8621 -0.5065
  284SOL    HW2  852   2.030   3.010   0.170  0.9218  3.8509  3.0827
  285SOL     OW  853   2.988   2.762   2.548 -0.6113 -0.2476  0.2917
  285SOL    HW1  854   3.023   2.857   2.546 -1.7742  2.6135  1.1482
  285SOL    HW2  855   3.003   2.728   2.640 -0.0074 -0.2231 -2.2709
  286SOL     OW  856   2.136   2.510   1.353 -0.8633 -0.3850 -0.2160
  286SOL    HW1  857   2.139   2.581   1.420  2.7823 -2.0003 -2.2766
  286SOL    HW2  858   2.147   2.411   1.381  3.1073  0.1237  0.6902
  287SOL     OW  859   0.360   1.495   0.713  0.0340  0.2435  0.0030
  287SOL    HW1  860   0.276   1.483   0.773 -2.9615  1.6466 -1.2390
  287SOL    HW2  861   0.430   1.550   0.766 -1.7851  0.1326 -0.7838
  288SOL     OW  862   1.914   1.943   2.696 -0.0399  0.3127  0.2180
  288SOL    HW1  863   1.847   2.002   2.751 -0.2095  1.7414  0.9799
  288SOL    HW2  864   1.971   2.013   2.647 -0.5810  3.1510 -0.3498
  289SOL     OW  865   0.346   1.711   2.513 -0.4691  0.1987 -0.0732
  289SOL    HW1  866   0.419   1.737   2.448 -0.0471 -1.0705 -0.3204
  289SOL    HW2  867   0.380   1.728   2.608  0.2618 -0.4062 -3.1723
  290SOL     OW  868   1.264   2.105   1.246 -0.1337 -0.1039  0.0940
  290SOL    HW1  869   1.350   2.139   1.201 -0.4190  2.0998  0.1618
  290SOL    HW2  870   1.208   2.048   1.182 -2.8265 -0.9696 -1.2910
  291SOL     OW  871   1.720   1.159   2.925 -0.1360 -0.4938  0.2309
  291SOL    HW1  872   1.815   1.141   2.897 -0.1100  1.1405 -2.7305
  291SOL    HW2  873   1.724   1.249   2.984 -0.5267  2.0196  3.6380
  292SOL     OW  874   0.822   1.441   0.709  0.4796  0.1144  0.5102
  292SOL    HW1  875   0.747   1.428   0.645 -0.3168  0.8608 -2.5427
  292SOL    HW2  876   0.841   1.353   0.761  1.1910  0.7796  3.7318
  293SOL     OW  877   1.480   2.982   1.220  0.4893  0.0601 -0.5878
  293SOL    HW1  878   1.517   3.000   1.130 -1.0726 -1.4619  1.6319
  293SOL    HW2  879   1.377   2.986   1.210 -1.6861  2.4743 -2.2107
  294SOL     OW  880   2.803   1.015   2.867  0.1918 -0.1193 -0.3598
  294SOL    HW1  881   2.710   1.006   2.828 -2.5013  0.9851  1.6859
  294SOL    HW2  882   2.876   0.975   2.804  0.4060  2.0193  0.1163
  295SOL     OW  883   1.657   2.098   2.578 -0.4140  0.1908 -0.3876
  295SOL    HW1  884   1.700   2.088   2.668  1.0325 -3.1565 -0.5994
  295SOL    HW2  885   1.716   2.155   2.518 -0.7709  2.5169  2.1565
  296SOL     OW  886   1.822   0.757   2.164  0.3786  0.1840  0.0649
  296SOL    HW1  887   1.783   0.838   2.117 -0.3217 -0.6880 -1.8158
  296SOL    HW2  888   1.908   0.730   2.117  0.7675  2.3495  1.0849
  297SOL     OW  889   3.026   0.853   2.026  0.4729  0.0955  0.6931
  297SOL    HW1  890   3.063   0.787   1.952 -1.3587 -1.1784  0.9945
  297SOL    HW2  891   3.086   0.935   2.026 -0.0687  0.5286  2.6702
  298SOL     OW  892   1.392   2.164   2.092 -0.3289 -0.5841 -0.2540
  298SOL    HW1  893   1.354   2.200   2.007  3.7129  1.8462 -0.1650
  298SOL    HW2  894   1.329   2.175   2.172  0.6012  0.0608 -1.9264
  299SOL     OW  895   0.823   2.685   2.571  0.3419 -0.3642 -0.2160
  299SOL    HW1  896   0.829   2.697   2.672  1.3964 -0.6635  0.1325
  299SOL    HW2  897   0.898   2.738   2.524  0.7322 -0.6112 -1.0065
  300SOL     OW  898   3.044   0.963   2.725 -0.0214 -0.4191 -0.4636
  300SOL    HW1  899   3.068   0.913   2.815 -1.3318  0.2159  0.9593
  300SOL    HW2  900   3.014   0.900   2.651  1.1711  2.5162  0.0218
  301SOL     OW  901   1.621   0.937   1.411  0.6555  0.0166 -0.1764
  301SOL    HW1  902   1.544   0.875   1.434  0.4053 -1.3373 -3.8463
  301SOL    HW2  903   1.667   0.954   1.500 -0.5370  0.2221  0.4909
  302SOL     OW  904   2.765   1.982   2.497 -0.2246 -0.6965 -0.7052
  302SOL    HW1  905   2.751   1.943   2.593 -1.5980  1.3277  1.4906
  302SOL    HW2  906   2.672   2.020   2.475  1.7149 -0.9688  0.2507
  303SOL     OW  907   0.243   2.966   2.441  0.3572  0.2085 -0.5837
  303SOL    HW1  908   0.324   2.961   2.504  0.3781 -1.3294 -0.2058
  303SOL    HW2  909   0.240   3.062   2.405 -0.4907 -0.3840 -1.7789
  304SOL     OW  910   0.114   1.063   1.482 -0.4133 -0.3408 -0.1384
  304SOL    HW1  911   0.037   1.130   1.482 -1.2736 -1.7870  0.1051
  304SOL    HW2  912   0.138   1.030   1.575 -1.7041 -2.4874 -0.9254
  305SOL     OW  913   2.955   0.269   1.494 -0.2737 -0.4636  0.0518
  305SOL    HW1  914   2.926   0.351   1.442 -1.1737 -2.0440 -0.6802
  305SOL    HW2  915   2.885   0.242   1.565  0.5689 -0.7236  2.0965
  306SOL     OW  916   2.255   1.210   1.201 -0.0155  0.2717 -0.0146
  306SOL    HW1  917   2.290   1.136   1.254  1.5487  5.8601 -1.4786
  306SOL    HW2  918   2.279   1.304   1.236  1.2894 -0.3538  1.9756
  307SOL     OW  919   2.210   2.972   0.958 -0.1073 -0.5975  0.0404
  307SOL    HW1  920   2.239   2.883   1.000  2.1185 -2.8441  1.3947
  307SOL    HW2  921   2.288   3.035   0.964 -0.2048  0.2995 -0.2876
  308SOL     OW  922   2.560   2.041   1.227  0.1690 -0.5108 -0.0776
  308SOL    HW1  923   2.588   2.108   1.161 -1.6722 -3.1883  2.5203
  308SOL    HW2  924   2.635   1.980   1.249  1.6920  3.3192  1.4841
  309SOL     OW  925   1.995   1.952   1.792 -0.2646  0.0680 -0.0083
  309SOL    HW1  926   2.005   1.859   1.759  1.4538  1.7581 -3.0627
  309SOL    HW2  927   1.935   1.959   1.871 -1.5883  1.6844 -2.5351
  310SOL     OW  928   2.424   1.480   2.824  0.3778  0.5156  0.8925
  310SOL    HW1  929   2.461   1.529   2.905 -0.1389  0.0823 -2.8552
  310SOL    HW2  930   2.350   1.418   2.853  0.7095 -0.1720  5.0748
  311SOL     OW  931   2.009   1.115   2.860  0.2323 -0.0198  0.2298
  311SOL    HW1  932   1.969   1.120   2.762 -0.3056  0.6818 -1.9822
  311SOL    HW2  933   1.999   1.025   2.898 -1.3006  2.4036 -3.7058
  312SOL     OW  934   1.593   2.320   2.233 -0.3156  0.2747 -0.7315
  312SOL    HW1  935   1.543   2.375   2.299  1.3438 -1.4669  0.1365
  312SOL    HW2  936   1.530   2.264   2.174  0.8125 -2.1075  1.8285
  313SOL     OW  937   0.339   2.961   1.259  0.2733 -0.3445 -0.6136
  313SOL    HW1  938   0.315   2.898   1.179  0.0354 -1.3158 -0.2791
  313SOL    HW2  939   0.422   2.936   1.307 -1.1264  0.6017  1.9173
  314SOL     OW  940   0.482   1.669   1.310  0.1775 -0.0117  0.3321
  314SOL    HW1  941   0.395   1.674   1.364  1.1362  0.2800 -1.6615
  314SOL    HW2  942   0.473   1.616   1.222 -0.9151  1.1349 -0.3690
  315SOL     OW  943   0.768   2.639   2.182  0.0885  0.4378 -0.3693
  315SOL    HW1  944   0.760   2.590   2.273  0.7312 -0.0575  1.1178
  315SOL    HW2  945   0.748   2.742   2.190 -1.3227  1.9001  1.7783
  316SOL     OW  946   3.099   2.243   0.995  0.3547  0.2889  0.1081
  316SOL    HW1  947   3.045   2.327   1.025 -0.7284 -0.1384 -1.0746
  316SOL    HW2  948   0.070   2.207   1.055  0.0465  0.1532 -0.0817
  317SOL     OW  949   1.883   0.616   0.288  0.1982  0.2061 -0.0319
  317SOL    HW1  950   1.795   0.601   0.324  3.1783  2.3520  0.0816
  317SOL    HW2  951   1.957   0.577   0.348 -0.1166  0.6492  3.5400
  318SOL     OW  952   2.924   2.667   3.099 -0.7268 -0.2913  0.3391
  318SOL    HW1  953   2.861   2.660   0.072  1.2855  3.6982  2.1577
  318SOL    HW2  954   2.996   2.594   3.093  2.1863 -2.0102 -0.6372
  319SOL     OW  955   1.575   1.756   0.256  0.2146 -0.1554  0.6485
  319SOL    HW1  956   1.495   1.780   0.315 -4.8513 -3.1280  1.9476
  319SOL    HW2  957   1.539   1.730   0.166  1.2382 -1.0360  1.8142
  320SOL     OW  958   0.909   2.268   2.685 -0.0823  0.4166 -0.1732
  320SOL    HW1  959   0.876   2.200   2.616  0.6003 -2.2249  0.9274
  320SOL    HW2  960   0.891   2.229   2.777 -0.5018 -1.6978  1.0002
  321SOL     OW  961   1.004   2.568   0.103 -0.2723  0.1104  0.1624
  321SOL    HW1  962   1.032   2.474   0.139  1.6833 -1.6977  1.6031
  321SOL    HW2  963   1.081   2.636   0.125  1.0834 -0.2915  1.0598
  322SOL     OW  964   2.260   0.444   2.149 -0.2320  0.4175  0.2094
  322SOL    HW1  965   2.232   0.346   2.146  0.5583 -1.0930  3.2085
  322SOL    HW2  966   2.327   0.461   2.075 -1.5025 -2.2280 -1.3297
  323SOL     OW  967   2.832   1.065   0.680  0.2590  0.7098  0.0360
  323SOL    HW1  968   2.914   1.005   0.683  1.3496  0.2275  0.8163
  323SOL    HW2  969   2.856   1.161   0.652  1.7377  4.5248 -1.0387
  324SOL     OW  970   0.374   0.521   2.367 -0.9407  0.5064  0.3495
  324SOL    HW1  971   0.324   0.559   2.291  0.4032 -2.2448 -0.1129
  324SOL    HW2  972   0.439   0.589   2.408 -0.2014 -0.6072  0.7112
  325SOL     OW  973   0.787   3.101   2.321  0.0674 -0.1294 -0.3525
  325SOL    HW1  974   0.827   0.083   2.284 -0.6116 -0.5156  1.4647
  325SOL    HW2  975   0.721   0.011   2.400 -3.3251 -0.1915 -0.2306
  326SOL     OW  976   2.609   2.303   0.614 -0.3893  0.0498 -0.5733
  326SOL    HW1  977   2.576   2.308   0.715 -2.5728  1.3770  2.5018
  326SOL    HW2  978   2.697   2.355   0.606 -0.5192  0.8713  0.0707
  327SOL     OW  979   1.773   1.073   0.280 -0.0767  0.8568  0.2520
  327SOL    HW1  980   1.681   1.074   0.324  1.2130  1.1042 -1.5909
  327SOL    HW2  981   1.780   1.038   0.181  0.5169  0.4326 -0.6729
  328SOL     OW  982   0.291   1.907   2.191 -0.1632 -0.1936 -0.1429
  328SOL    HW1  983   0.372   1.873   2.242  0.8661 -0.8669 -0.1288
  328SOL    HW2  984   0.217   1.942   2.255 -0.0994  2.2381  2.9518
  329SOL     OW  985   2.836   2.499   1.701 -0.2504 -0.1668 -0.0281
  329SOL    HW1  986   2.788   2.409   1.677 -3.8536 -1.1601 -0.1241
  329SOL    HW2  987   2.825   2.525   1.798 -2.7143  0.8604  0.5433
  330SOL     OW  988   2.452   1.370   1.860  0.3334  0.3974 -0.5500
  330SOL    HW1  989   2.362   1.309   1.875  0.2361 -1.5696 -2.5882
  330SOL    HW2  990   2.537   1.315   1.847  3.2023 -3.4097  1.2770
  331SOL     OW  991   2.676   2.202   1.024  0.1655 -0.6017  0.1336
  331SOL    HW1  992   2.755   2.153   0.981 -0.9451  2.1312 -3.1568
  331SOL    HW2  993   2.619   2.256   0.961  2.7392  0.6434 -0.0552
  332SOL     OW  994   0.587   2.559   0.293  0.1357 -0.4535 -0.0160
  332SOL    HW1  995   0.487   2.586   0.274 -2.1535 -1.3253 -0.8042
  332SOL    HW2  996   0.619   2.603   0.378  1.2666  1.4671  0.2094
  333SOL     OW  997   2.251   0.181   2.316  0.0615 -0.3708 -0.4405
  333SOL    HW1  998   2.226   0.212   2.409  0.2004  0.2359  0.7922
  333SOL    HW2  999   2.206   0.093   2.299  1.8053  0.0043 -0.9530
  334SOL     OW 1000   0.841   0.826   0.645 -0.0588  0.0937 -0.7319
  334SOL    HW1 1001   0.826   0.909   0.588  0.2828  1.2728 -1.3712
  334SOL    HW2 1002   0.750   0.784   0.659 -1.8783  0.0664 -0.2492
  335SOL     OW 1003   0.416   2.576   2.391  0.3713 -0.0728  0.3942
  335SOL    HW1 1004   0.430   2.528   2.302  1.1292 -0.5841 -0.4062
  335SOL    HW2 1005   0.318   2.602   2.409  0.0566  1.0905  2.0833
  336SOL     OW 1006   2.730   0.044   2.424  0.4886  0.0607  0.4845
  336SOL    HW1 1007   2.670   3.084   2.473 -2.4374  1.2319 -1.9734
  336SOL    HW2 1008   2.681   0.097   2.353  0.5788  0.2953 -0.6294
  337SOL     OW 1009   1.219   1.615   0.860  0.2827 -0.2821 -0.1652
  337SOL    HW1 1010   1.266   1.685   0.920 -0.6604 -0.5470 -0.1490
  337SOL    HW2 1011   1.291   1.548   0.836 -0.4381  0.7552  1.9125
  338SOL     OW 1012   0.853   1.829   0.990 -0.2358 -0.5869  0.2125
  338SOL    HW1 1013   0.889   1.742   0.951 -1.1748  1.7864 -0.1020
  338SOL    HW2 1014   0.769   1.813   1.045 -1.1383 -0.1451 -2.4884
  339SOL     OW 1015   3.029   1.247   1.475 -0.5201  0.2389  0.2059
  339SOL    HW1 1016   3.098   1.316   1.446 -0.9198 -0.5041 -0.1879
  339SOL    HW2 1017   3.015   1.257   1.575  2.0762  1.6809  0.9804
  340SOL     OW 1018   1.543   2.875   2.346  0.1381 -0.0629 -0.0705
  340SOL    HW1 1019   1.600   2.802   2.388  0.1204  3.5289  0.3803
  340SOL    HW2 1020   1.594   2.959   2.322 -3.1626 -1.6574  0.8872
  341SOL     OW 1021   1.723   1.617   0.818 -0.1558  0.0195 -0.2169
  341SOL    HW1 1022   1.629   1.654   0.794  1.7970  0.0953  1.3277
  341SOL    HW2 1023   1.732   1.599   0.916 -2.3579 -2.8383 -0.0809
  342SOL     OW 1024   2.871   1.494   0.700  0.0143 -0.1936 -0.4095
  342SOL    HW1 1025   2.854   1.422   0.632  0.8858  4.2396 -0.7665
  342SOL    HW2 1026   2.819   1.464   0.786 -2.1105 -0.4826  0.9919
  343SOL     OW 1027   2.852   1.170   1.264 -0.0074 -0.1423 -0.4422
  343SOL    HW1 1028   2.903   1.190   1.349 -1.4807 -2.4410 -0.9272
  343SOL    HW2 1029   2.755   1.173   1.287 -1.2358  0.6391 -1.3199
  344SOL     OW 1030   1.987   0.555   0.980 -0.4488  0.1372 -0.3057
  344SOL    HW1 1031   1.892   0.572   1.004  0.5030 -2.8222 -0.2097
  344SOL    HW2 1032   2.041   0.573   1.064 -1.4823 -0.8375  0.5320
  345SOL     OW 1033   0.471   2.986   2.594 -0.4061  0.7775 -0.0844
  345SOL    HW1 1034   0.517   2.911   2.542  0.8734 -2.8897 -3.3276
  345SOL    HW2 1035   0.525   3.075   2.586  2.0936 -1.2025 -1.1357
  346SOL     OW 1036   2.371   1.389   0.263  0.2178  0.2321  0.4082
  346SOL    HW1 1037   2.333   1.479   0.300 -1.0053  0.7711 -0.3352
  346SOL    HW2 1038   2.308   1.311   0.278 -2.2140  1.9508 -0.9924
  347SOL     OW 1039   2.018   2.880   1.991 -0.1783  0.3941 -0.0817
  347SOL    HW1 1040   1.947   2.953   2.014 -1.8348  0.5712 -2.6159
  347SOL    HW2 1041   2.008   2.853   1.894 -2.7668  0.1187 -0.4617
  348SOL     OW 1042   0.956   1.179   1.294 -0.0056  0.3759 -0.3973
  348SOL    HW1 1043   0.994   1.142   1.380  1.3859  1.5378  0.5006
  348SOL    HW2 1044   0.878   1.119   1.261  2.0588  1.5468 -1.3546
  349SOL     OW 1045   2.490   0.968   1.711  0.3857  0.4056 -0.2181
  349SOL    HW1 1046   2.570   0.916   1.665  4.9171 -1.8052 -1.4082
  349SOL    HW2 1047   2.460   1.038   1.644 -1.1225  2.1858 -2.7386
  350SOL     OW 1048   2.421   2.141   0.111 -0.3536 -0.3870 -0.3988
  350SOL    HW1 1049   2.367   2.067   0.071  0.0170  4.2015 -0.7432
  350SOL    HW2 1050   2.359   2.219   0.142  2.0628  1.4030  0.0877
  351SOL     OW 1051   0.416   3.105   1.769 -0.7522 -0.0488 -0.0693
  351SOL    HW1 1052   0.475   0.045   1.837 -3.7428 -0.5571 -2.1538
  351SOL    HW2 1053   0.320   0.028   1.773 -0.7302 -1.1917  1.3894
  352SOL     OW 1054   1.927   2.518   2.070 -0.5818  0.8960 -0.6205
  352SOL    HW1 1055   2.028   2.507   2.087  0.5280  0.5995 -2.9121
  352SOL    HW2 1056   1.895   2.428   2.033  0.6024 -1.1269  2.4200
  353SOL     OW 1057   0.823   1.598   2.216 -0.6230 -0.3076  0.3431
  353SOL    HW1 1058   0.783   1.531   2.281  2.4314 -1.1180  2.7860
  353SOL    HW2 1059   0.896   1.556   2.152  1.1677  0.5369 -0.1303
  354SOL     OW 1060   1.302   1.807   0.342  0.5847  0.0114 -0.0676
  354SOL    HW1 1061   1.299   1.709   0.363  2.6118  0.0957  0.6801
  354SOL    HW2 1062   1.211   1.848   0.325 -0.2668  1.1160  2.3104
  355SOL     OW 1063   1.843   0.044   1.009  0.2441 -0.2415  0.1677
  355SOL    HW1 1064   1.892   3.071   0.966  1.0009  1.6279  1.3073
  355SOL    HW2 1065   1.901   0.129   0.982  0.1668  1.3307  2.0205
  356SOL     OW 1066   2.795   1.273   2.951  0.3053  0.1289 -0.1433
  356SOL    HW1 1067   2.805   1.178   2.914  0.1310 -0.2855  0.9142
  356SOL    HW2 1068   2.711   1.277   3.012  0.5208 -0.8875  0.2286
  357SOL     OW 1069   3.047   0.029   2.212  0.2529 -0.1743 -0.1519
  357SOL    HW1 1070   3.094   0.110   2.170  0.2310  0.0597  1.7729
  357SOL    HW2 1071   2.964   0.002   2.161  4.4243  1.0038 -0.8568
  358SOL     OW 1072   0.386   1.295   0.530 -0.4080  0.4535 -0.5428
  358SOL    HW1 1073   0.334   1.215   0.561 -1.6225 -1.6250  0.0774
  358SOL    HW2 1074   0.356   1.376   0.590 -1.2808  1.0583  1.6327
  359SOL     OW 1075   2.646   0.187   2.790  0.0092  0.2314  0.5483
  359SOL    HW1 1076   2.591   0.221   2.709 -1.3481  0.4387 -0.3554
  359SOL    HW2 1077   2.584   0.190   2.871 -0.1151 -1.4927  2.7985
  360SOL     OW 1078   1.267   0.980   1.248 -0.1500 -0.2793 -0.0088
  360SOL    HW1 1079   1.360   0.983   1.196 -2.2417 -1.4959  0.7559
  360SOL    HW2 1080   1.183   0.970   1.190 -0.7107  0.7744  1.5913
  361SOL     OW 1081   2.349   2.369   1.104  0.2946  0.2888  0.1665
  361SOL    HW1 1082   2.392   2.390   1.198 -0.7512  1.6563  2.5265
  361SOL    HW2 1083   2.273   2.427   1.078 -0.2043  1.1886  1.3115
  362SOL     OW 1084   1.316   0.392   1.267  0.0436 -0.0539  0.2818
  362SOL    HW1 1085   1.305   0.385   1.367 -1.3771 -1.4362  0.1377
  362SOL    HW2 1086   1.408   0.360   1.233  1.4506  1.0095 -1.4077
  363SOL     OW 1087   2.116   2.156   0.266  0.3335 -0.4244 -0.3984
  363SOL    HW1 1088   2.186   2.094   0.308  0.6369  0.3354 -2.5707
  363SOL    HW2 1089   2.086   2.236   0.325 -0.1996 -3.2074 -1.5091
  364SOL     OW 1090   0.145   0.517   0.946  0.3577 -0.4094 -0.4238
  364SOL    HW1 1091   0.166   0.422   0.918  1.5607  4.3294  2.3341
  364SOL    HW2 1092   0.178   0.529   1.041 -1.8778  0.2550 -1.0689
  365SOL     OW 1093   0.381   2.879   0.791 -0.0607 -0.3998  0.0949
  365SOL    HW1 1094   0.318   2.886   0.867  1.1755 -2.9201  0.2796
  365SOL    HW2 1095   0.457   2.948   0.801  0.3338  0.2470  0.1969
  366SOL     OW 1096   2.998   1.260   0.048 -0.3807  0.2320  0.3872
  366SOL    HW1 1097   3.077   1.206   0.012 -1.8801  0.5986 -0.9781
  366SOL    HW2 1098   2.931   1.295   3.085 -1.6810  3.4424  0.0264
  367SOL     OW 1099   2.432   2.455   2.386 -0.0295  0.2255 -0.3707
  367SOL    HW1 1100   2.390   2.529   2.440  0.8072  2.3727  1.0897
  367SOL    HW2 1101   2.462   2.491   2.299  0.4539  2.0379  2.9685
  368SOL     OW 1102   2.292   1.721   0.680 -0.2060  0.3053  0.4965
  368SOL    HW1 1103   2.276   1.659   0.603  1.0198  0.2809  3.5076
  368SOL    HW2 1104   2.369   1.785   0.658  1.8756  0.6386 -1.8900
  369SOL     OW 1105   1.456   0.876   3.013  0.3401  0.3852  0.3397
  369SOL    HW1 1106   1.370   0.828   3.035  1.6162 -1.5373 -0.0056
  369SOL    HW2 1107   1.529   0.848   3.077 -1.7817 -0.2587 -1.0099
  370SOL     OW 1108   0.500   0.067   1.105  0.0047  0.6490 -0.4923
  370SOL    HW1 1109   0.554   0.135   1.161 -0.7864  0.5367  0.4770
  370SOL    HW2 1110   0.438   0.010   1.165  1.3166 -1.4584  1.4085
  371SOL     OW 1111   2.803   1.478   2.735 -0.2992 -0.3374 -0.6174
  371SOL    HW1 1112   2.881   1.540   2.746 -1.4676 -2.1374 -0.0345
  371SOL    HW2 1113   2.826   1.414   2.814  1.9440  0.2067  0.2076
  372SOL     OW 1114   0.577   0.701   2.414  0.1835 -0.4327  0.8376
  372SOL    HW1 1115   0.633   0.730   2.492  1.3540  2.0827 -3.0739
  372SOL    HW2 1116   0.629   0.655   2.342 -3.5337  2.0796  0.9992
  373SOL     OW 1117   0.578   0.252   0.069 -0.3214 -0.4796  0.0203
  373SOL    HW1 1118   0.664   0.301   0.038  1.3762  0.5608  0.4058
  373SOL    HW2 1119   0.610   0.158   0.091 -2.7061 -0.0458 -1.1448
  374SOL     OW 1120   1.297   1.935   3.024 -0.5963 -0.5300 -0.0370
  374SOL    HW1 1121   1.282   1.948   2.925 -0.1413 -2.9093 -0.3848
  374SOL    HW2 1122   1.263   2.015   3.081  1.1447 -0.4327  2.1374
  375SOL     OW 1123   0.794   0.128   1.855  0.3538 -0.0269  0.3048
  375SOL    HW1 1124   0.779   0.069   1.776  3.6689  2.3685 -1.2601
  375SOL    HW2 1125   0.882   0.185   1.845  0.2858 -1.3775  0.1507
  376SOL     OW 1126   0.088   2.703   2.024  0.6319 -0.1774  0.0618
  376SOL    HW1 1127   0.073   2.618   2.078  0.6902  1.6888  1.2617
  376SOL    HW2 1128   0.127   2.775   2.085 -1.8215 -2.1156 -1.9215
  377SOL     OW 1129   2.647   2.334   2.819 -0.3887 -0.4888 -0.2122
  377SOL    HW1 1130   2.588   2.419   2.843  1.8671  1.3908 -1.2589
  377SOL    HW2 1131   2.636   2.257   2.882  0.6225  2.3328 -2.0713
  378SOL     OW 1132   2.360   0.371   0.514 -0.2804  0.2917 -0.2368
  378SOL    HW1 1133   2.403   0.326   0.593  0.5901 -0.8713  0.0920
  378SOL    HW2 1134   2.401   0.330   0.429 -1.9456 -0.1697 -1.8491
  379SOL     OW 1135   1.274   0.636   0.523 -0.1658 -0.2843  0.1814
  379SOL    HW1 1136   1.212   0.559   0.498 -3.9972 -2.5828 -0.7824
  379SOL    HW2 1137   1.263   0.719   0.458 -1.9510 -0.9660 -0.4627
  380SOL     OW 1138   2.431   2.199   1.669  0.1126 -0.1918  0.0124
  380SOL    HW1 1139   2.530   2.208   1.689  0.7217 -0.1937 -0.3213
  380SOL    HW2 1140   2.412   2.123   1.602 -0.7798  1.9229 -1.1929
  381SOL     OW 1141   2.712   1.269   1.920 -0.2096 -0.0234 -0.1271
  381SOL    HW1 1142   2.670   1.350   1.968 -0.6718 -1.6764  0.7644
  381SOL    HW2 1143   2.736   1.187   1.980  0.1211  1.3668  3.5413
  382SOL     OW 1144   2.820   2.478   2.651 -0.5230  0.1175  0.1012
  382SOL    HW1 1145   2.760   2.432   2.717  2.1202  0.2813 -3.6557
  382SOL    HW2 1146   2.869   2.409   2.595 -1.9877  0.6016 -0.6972
  383SOL     OW 1147   1.309   0.892   2.538  0.0643 -0.6081  0.0707
  383SOL    HW1 1148   1.385   0.963   2.524  0.0345 -0.9976 -0.1081
  383SOL    HW2 1149   1.278   0.861   2.444 -1.1775  1.1834  0.5889
  384SOL     OW 1150   1.805   1.929   2.318  0.1618  0.2387 -0.0115
  384SOL    HW1 1151   1.808   2.025   2.356 -0.1028 -0.4956  2.0716
  384SOL    HW2 1152   1.805   1.857   2.392 -0.8087  0.7745  1.9957
  385SOL     OW 1153   2.713   2.711   0.195  0.3921  0.1525 -0.2164
  385SOL    HW1 1154   2.655   2.638   0.242 -3.1425  0.7967  0.2644
  385SOL    HW2 1155   2.730   2.794   0.253 -0.9986  1.7121 -1.6604
  386SOL     OW 1156   1.666   1.189   0.574  0.1449  0.3080 -0.2676
  386SOL    HW1 1157   1.736   1.128   0.615  1.3643 -1.2396  2.8088
  386SOL    HW2 1158   1.688   1.287   0.576 -1.1761 -0.9780 -0.2785
  387SOL     OW 1159   2.558   1.727   1.180  0.0038  0.3056 -0.0767
  387SOL    HW1 1160   2.579   1.736   1.280 -2.5839 -1.5314  0.5786
  387SOL    HW2 1161   2.636   1.688   1.125 -2.5956  0.9901 -0.7714
  388SOL     OW 1162   0.605   1.085   1.757 -0.0950 -0.1870 -0.4139
  388SOL    HW1 1163   0.537   1.157   1.748  1.2400 -0.2409 -0.8789
  388SOL    HW2 1164   0.664   1.077   1.676 -0.0466  0.2535  2.3190
  389SOL     OW 1165   2.341   0.870   2.520 -0.2039  0.2302  0.1411
  389SOL    HW1 1166   2.251   0.874   2.567  1.0149 -0.4899  0.5163
  389SOL    HW2 1167   2.408   0.938   2.556  0.2922 -1.2447 -1.2167
  390SOL     OW 1168   1.005   1.315   2.943  0.1502  0.5560  0.2104
  390SOL    HW1 1169   1.022   1.388   2.874 -1.7303 -2.8806  0.3196
  390SOL    HW2 1170   0.950   1.239   2.902 -2.5257  0.2518  0.1053
  391SOL     OW 1171   1.046   1.892   0.204  0.0407 -0.1849  0.1629
  391SOL    HW1 1172   1.018   1.940   0.116 -1.0476  0.6424  1.0429
  391SOL    HW2 1173   0.997   1.808   0.215  0.1337  0.3324 -1.2414
  392SOL     OW 1174   2.690   2.832   2.336  0.3325 -0.5931  0.2875
  392SOL    HW1 1175   2.789   2.832   2.321 -2.7464  0.8230 -1.4291
  392SOL    HW2 1176   2.658   2.744   2.378 -2.5341 -0.3211  0.7343
  393SOL     OW 1177   1.569   2.267   0.317 -0.5165  0.2768 -0.1129
  393SOL    HW1 1178   1.542   2.360   0.298 -0.0817  0.0488  0.7648
  393SOL    HW2 1179   1.485   2.214   0.324  2.1280  0.5732  2.1126
  394SOL     OW 1180   0.880   0.233   2.237  0.0939  0.0103  0.6510
  394SOL    HW1 1181   0.957   0.199   2.297 -1.5863  0.9620 -0.2738
  394SOL    HW2 1182   0.927   0.259   2.150 -0.6197 -1.0302 -2.6753
  395SOL     OW 1183   0.146   1.912   1.465 -0.0899  0.0078 -0.1734
  395SOL    HW1 1184   0.110   1.933   1.558  1.6660  0.5012  0.9576
  395SOL    HW2 1185   0.141   1.996   1.403 -0.1428  2.6352 -0.8311
  396SOL     OW 1186   2.170   1.357   2.886 -0.7701 -0.0013  0.2086
  396SOL    HW1 1187   2.110   1.281   2.866  2.3237  0.3401  0.5762
  396SOL    HW2 1188   2.117   1.442   2.891  0.3958 -0.2476 -0.3067
  397SOL     OW 1189   0.277   0.521   0.319 -0.3059  0.1571 -0.0724
  397SOL    HW1 1190   0.301   0.430   0.364  2.1896 -2.3817  0.1982
  397SOL    HW2 1191   0.265   0.601   0.380  0.3237  1.1921 -1.6425
  398SOL     OW 1192   0.999   2.568   0.535  0.8213  0.3747  0.3127
  398SOL    HW1 1193   1.095   2.575   0.494  0.6257 -0.6542 -0.5254
  398SOL    HW2 1194   0.944   2.645   0.509  3.3421  0.3162  2.6685
  399SOL     OW 1195   2.011   2.403   2.677  0.1699  0.2409  0.1698
  399SOL    HW1 1196   2.033   2.467   2.753  2.8423 -1.7139 -0.9605
  399SOL    HW2 1197   1.988   2.444   2.590  1.1044 -1.6178  0.7424
  400SOL     OW 1198   3.022   1.610   1.615  0.1856  0.1116  0.2334
  400SOL    HW1 1199   2.929   1.606   1.658  0.6327 -2.8964  0.0238
  400SOL    HW2 1200   3.013   1.640   1.516 -0.3447 -0.8770 -2.3082
  401SOL     OW 1201   1.110   0.497   0.736  0.1066  0.2654  0.2295
  401SOL    HW1 1202   1.084   0.448   0.647  0.9108 -0.5046 -0.6774
  401SOL    HW2 1203   1.156   0.583   0.716  0.8758 -0.0065  2.8655
  402SOL     OW 1204   0.645   0.084   2.547 -0.4886 -0.0743  0.3831
  402SOL    HW1 1205   0.730   0.066   2.600  0.5347 -0.5692 -0.9619
  402SOL    HW2 1206   0.635   0.178   2.519  0.8768 -1.6148  0.1920
  403SOL     OW 1207   2.796   1.606   1.765  0.1081 -0.2616 -0.1527
  403SOL    HW1 1208   2.700   1.578   1.748  2.6385 -1.4448 -2.5152
  403SOL    HW2 1209   2.801   1.701   1.785  0.0101 -2.1700  0.0271
  404SOL     OW 1210   2.401   2.036   1.443 -0.0811 -0.0540  0.0718
  404SOL    HW1 1211   2.305   2.025   1.404 -0.1478  2.2353 -1.2796
  404SOL    HW2 1212   2.474   2.064   1.374  0.6592  0.6756  0.6584
  405SOL     OW 1213   2.226   0.291   2.555  0.1808 -0.5369  0.4070
  405SOL    HW1 1214   2.168   0.214   2.590  0.2146 -0.6922 -0.0817
  405SOL    HW2 1215   2.218   0.373   2.618  0.1586  1.0670 -1.3577
  406SOL     OW 1216   1.122   1.532   2.789  0.0378 -0.0567  0.0301
  406SOL    HW1 1217   1.077   1.622   2.772  1.6811  0.6037 -3.4633
  406SOL    HW2 1218   1.163   1.514   2.701 -1.4734  0.6444  4.2921
  407SOL     OW 1219   1.747   1.891   0.843 -0.1188  0.5468 -0.0614
  407SOL    HW1 1220   1.762   1.791   0.824  1.5370 -0.8406  3.2554
  407SOL    HW2 1221   1.779   1.944   0.757 -1.7522  1.3064 -1.4521
  408SOL     OW 1222   2.957   0.309   1.085 -0.2532 -0.3812 -0.2106
  408SOL    HW1 1223   2.856   0.319   1.117 -2.5010  1.6808 -1.5593
  408SOL    HW2 1224   2.962   0.355   0.998 -0.1974 -4.0350  0.2766
  409SOL     OW 1225   1.780   1.462   0.581 -0.5960 -0.5148  0.1213
  409SOL    HW1 1226   1.773   1.479   0.682  1.3757 -1.7937  0.8897
  409SOL    HW2 1227   1.857   1.516   0.540  0.8869  0.8927  0.4810
  410SOL     OW 1228   2.297   2.376   0.189  0.5805 -0.2737  0.2535
  410SOL    HW1 1229   2.200   2.349   0.176  0.6575 -0.1638  0.8043
  410SOL    HW2 1230   2.316   2.406   0.280 -0.8035 -0.5982 -1.0035
  411SOL     OW 1231   0.335   3.026   0.390 -0.0137  0.3371 -0.0782
  411SOL    HW1 1232   0.311   0.016   0.363  0.0751 -2.1063  2.1054
  411SOL    HW2 1233   0.281   2.991   0.468  1.6520 -1.0369 -3.3660
  412SOL     OW 1234   1.497   3.022   0.692 -0.1051  0.0437 -0.0164
  412SOL    HW1 1235   1.415   3.079   0.710 -0.7938 -2.7888  0.7651
  412SOL    HW2 1236   1.581   3.065   0.729 -2.5232 -0.9224  0.0164
  413SOL     OW 1237   1.749   0.167   2.518 -0.0192 -0.1248 -0.0779
  413SOL    HW1 1238   1.764   0.260   2.479 -3.1642 -0.9304 -2.3508
  413SOL    HW2 1239   1.668   0.118   2.477 -0.2473 -2.2718  1.2427
  414SOL     OW 1240   0.251   0.776   0.450  0.3727 -0.0923 -0.0933
  414SOL    HW1 1241   0.182   0.792   0.518  0.8462 -0.4542  1.0562
  414SOL    HW2 1242   0.333   0.835   0.464 -0.5404 -0.5748  0.5902
  415SOL     OW 1243   2.927   1.516   1.243 -0.5751  0.2267  0.0908
  415SOL    HW1 1244   2.978   1.471   1.169 -1.6300 -1.6294 -0.2683
  415SOL    HW2 1245   2.992   1.583   1.284 -0.3969 -0.7908  0.1641
  416SOL     OW 1246   0.286   0.835   2.806 -0.1735 -0.6480 -0.2868
  416SOL    HW1 1247   0.270   0.736   2.822 -0.5142  0.1910 -1.3611
  416SOL    HW2 1248   0.239   0.867   2.724 -0.5044  1.1530 -0.1141
  417SOL     OW 1249   2.474   0.435   0.791  0.0085 -0.2420  0.4090
  417SOL    HW1 1250   2.549   0.444   0.719  0.0935  0.8778 -1.0521
  417SOL    HW2 1251   2.509   0.467   0.880  0.5011  3.0492 -1.2167
  418SOL     OW 1252   0.663   0.385   2.344  0.4536 -0.2676  0.0114
  418SOL    HW1 1253   0.746   0.330   2.332 -1.1406  2.8150  0.3733
  418SOL    HW2 1254   0.630   0.429   2.256 -0.1372 -1.7448  1.5233
  419SOL     OW 1255   0.246   1.074   0.583  0.2302  0.1131 -0.3511
  419SOL    HW1 1256   0.157   1.093   0.532 -4.4266  2.0514  0.9386
  419SOL    HW2 1257   0.233   1.082   0.680 -0.7914 -0.1806 -0.6844
  420SOL     OW 1258   2.333   1.493   1.216 -0.1042 -0.2315 -0.2792
  420SOL    HW1 1259   2.247   1.520   1.166 -1.9745 -0.7238  0.2446
  420SOL    HW2 1260   2.396   1.572   1.227  0.4484  0.4331 -3.4059
  421SOL     OW 1261   0.957   2.021   2.806  0.7114  0.0805 -0.7984
  421SOL    HW1 1262   0.942   1.919   2.806 -0.1127 -0.5753 -0.5898
  421SOL    HW2 1263   1.023   2.044   2.735  0.3629 -0.0360 -2.0313
  422SOL     OW 1264   2.430   0.637   2.775 -0.3034  0.2398  0.0328
  422SOL    HW1 1265   2.488   0.684   2.706 -0.0154  2.4416  2.4559
  422SOL    HW2 1266   2.413   0.705   2.849 -2.2962  1.9443 -2.3267
  423SOL     OW 1267   1.887   1.515   0.157  0.3025 -0.3834 -0.0640
  423SOL    HW1 1268   1.916   1.430   0.201 -0.4557  0.5508  0.7338
  423SOL    HW2 1269   1.887   1.588   0.223 -1.3375 -2.4861  1.1799
  424SOL     OW 1270   1.009   0.990   1.948  0.2690 -0.2164 -0.0412
  424SOL    HW1 1271   0.909   0.966   1.939  0.4479  1.3189 -1.3637
  424SOL    HW2 1272   1.027   1.026   2.045 -2.3877  1.1128 -1.3251
  425SOL     OW 1273   2.967   2.826   2.293 -0.4770 -0.2458 -0.0106
  425SOL    HW1 1274   3.049   2.863   2.250 -0.1545 -2.4096  1.6192
  425SOL    HW2 1275   2.980   2.791   2.383  0.5497 -1.9633 -0.8055
  426SOL     OW 1276   2.034   2.686   0.253 -0.1947  0.5012  0.0501
  426SOL    HW1 1277   2.126   2.728   0.273 -1.8146 -1.5117 -1.0384
  426SOL    HW2 1278   1.970   2.681   0.334  0.8586 -0.5824  1.3207
  427SOL     OW 1279   0.763   0.438   0.028 -0.1176  0.5781  0.2714
  427SOL    HW1 1280   0.782   0.461   0.125 -0.9189 -0.3306  1.4325
  427SOL    HW2 1281   0.729   0.520   3.077  0.1860  3.2230 -3.4490
  428SOL     OW 1282   2.406   1.253   2.632 -0.1565  0.3233  0.6190
  428SOL    HW1 1283   2.315   1.248   2.584 -0.9988 -0.0168 -1.2584
  428SOL    HW2 1284   2.416   1.344   2.678 -0.7114  0.5200 -0.0995
  429SOL     OW 1285   2.597   0.434   0.207 -0.0750 -0.3815 -0.2596
  429SOL    HW1 1286   2.539   0.515   0.235 -2.1769 -1.0009  0.1692
  429SOL    HW2 1287   2.688   0.469   0.179  2.1212 -1.2801  0.6025
  430SOL     OW 1288   1.296   2.560   2.262  0.0465 -0.5654  0.3856
  430SOL    HW1 1289   1.228   2.530   2.188  0.2679  1.7772 -3.6000
  430SOL    HW2 1290   1.391   2.584   2.225  1.5432  1.3314 -1.5536
  431SOL     OW 1291   2.807   1.868   1.350  0.5915 -0.2291  0.5981
  431SOL    HW1 1292   2.745   1.804   1.394  1.1091 -3.4041 -0.9893
  431SOL    HW2 1293   2.901   1.827   1.342 -1.0356 -0.2322 -0.9309
  432SOL     OW 1294   2.421   2.453   1.971 -0.2138 -0.0546 -0.1435
  432SOL    HW1 1295   2.502   2.484   2.032  0.1243 -0.8121  0.7384
  432SOL    HW2 1296   2.397   2.356   1.987 -1.2447  2.0438  0.2325
  433SOL     OW 1297   1.380   2.064   0.239  0.2322  0.2029  0.6250
  433SOL    HW1 1298   1.340   1.976   0.266  0.2050  1.4230  0.0070
  433SOL    HW2 1299   1.325   2.108   0.162 -3.5547  1.1045  0.9378
  434SOL     OW 1300   0.108   2.294   2.820 -0.0565  0.2396 -0.4601
  434SOL    HW1 1301   0.165   2.245   2.889  3.1339  1.9970 -0.8968
  434SOL    HW2 1302   0.016   2.254   2.810 -0.3208  2.1741 -5.0070
  435SOL     OW 1303   3.097   1.100   0.454 -0.5319  0.3014 -0.0475
  435SOL    HW1 1304   3.014   1.149   0.424  1.4540  1.7001 -0.3133
  435SOL    HW2 1305   3.079   1.012   0.498  3.0708 -2.1694 -1.4305
  436SOL     OW 1306   0.557   2.572   1.614 -0.1901 -0.0456  0.4787
  436SOL    HW1 1307   0.547   2.546   1.512 -1.1285 -0.1475 -2.7738
  436SOL    HW2 1308   0.602   2.661   1.625 -0.2636 -2.3231  1.4593
  437SOL     OW 1309   0.882   2.880   0.829  0.5214 -0.1531 -0.2752
  437SOL    HW1 1310   0.869   2.923   0.919  0.3610 -0.7077 -1.0281
  437SOL    HW2 1311   0.928   2.946   0.762  1.7983  0.2463 -0.2760
  438SOL     OW 1312   0.196   2.296   0.617  0.0990  0.4810  0.1818
  438SOL    HW1 1313   0.163   2.199   0.628  0.5050  1.3351  0.6400
  438SOL    HW2 1314   0.178   2.355   0.694  1.5750 -1.4912 -2.8242
  439SOL     OW 1315   1.044   2.480   1.903  0.2565  0.4932  0.1328
  439SOL    HW1 1316   0.999   2.486   1.812 -1.3332 -0.6798  0.3852
  439SOL    HW2 1317   0.981   2.453   1.977  0.9182 -0.2632 -1.4231
  440SOL     OW 1318   2.436   2.875   1.966  0.2648 -0.3982  0.3499
  440SOL    HW1 1319   2.445   2.879   1.870 -0.2799  0.9075  1.4231
  440SOL    HW2 1320   2.353   2.816   1.986  3.4889 -2.1944 -0.7787
  441SOL     OW 1321   0.211   0.566   1.637 -0.1161 -0.4752  0.0685
  441SOL    HW1 1322   0.222   0.602   1.732  2.6062  0.2438 -0.1772
  441SOL    HW2 1323   0.160   0.477   1.631 -1.0424  1.8831 -0.1979
  442SOL     OW 1324   2.052   2.371   0.396 -0.1367  0.3053  0.4880
  442SOL    HW1 1325   1.997   2.344   0.478 -1.1492 -0.4207  0.0010
  442SOL    HW2 1326   2.092   2.462   0.408 -1.0685  0.0784  1.2685
  443SOL     OW 1327   3.070   0.633   2.700 -0.1780  0.1261  0.3866
  443SOL    HW1 1328   3.082   0.542   2.738  2.7826  1.0097  1.5652
  443SOL    HW2 1329   3.034   0.693   2.772 -1.1600  1.6210  1.1174
  444SOL     OW 1330   1.720   1.004   2.067 -0.7378 -0.1827 -0.1141
  444SOL    HW1 1331   1.807   1.039   2.110 -2.1554 -2.1031  0.9748
  444SOL    HW2 1332   1.693   1.056   1.981 -1.7966  3.3856  1.5061
  445SOL     OW 1333   0.097   2.575   1.277 -0.2537  0.4091  0.5373
  445SOL    HW1 1334   0.132   2.580   1.369 -2.8395 -0.1148 -0.9304
  445SOL    HW2 1335   0.004   2.602   1.282  3.1754 -1.3526  0.2028
  446SOL     OW 1336   2.776   1.628   1.034 -0.0229 -0.0588 -0.5548
  446SOL    HW1 1337   2.839   1.584   1.103 -1.4916 -0.6431 -0.1181
  446SOL    HW2 1338   2.820   1.711   0.988  2.4361  0.7727 -1.1948
  447SOL     OW 1339   0.452   0.941   0.459  0.1920  0.6135 -0.4213
  447SOL    HW1 1340   0.374   0.989   0.511  1.7378  1.3218  0.9031
  447SOL    HW2 1341   0.525   1.004   0.430  0.3337  1.5742  1.2630
  448SOL     OW 1342   1.282   1.787   1.856  0.0754  0.2412  0.2810
  448SOL    HW1 1343   1.279   1.880   1.815 -0.2476  0.0231 -0.7529
  448SOL    HW2 1344   1.343   1.795   1.941  0.5069 -0.5511  1.2914
  449SOL     OW 1345   1.313   1.539   0.398  0.5596 -0.0429  0.3867
  449SOL    HW1 1346   1.402   1.490   0.386  0.6733 -3.5805  1.5385
  449SOL    HW2 1347   1.236   1.474   0.380  0.0262  0.4255  0.8703
  450SOL     OW 1348   2.828   3.012   2.076 -0.1981 -0.3013 -0.2714
  450SOL    HW1 1349   2.870   2.946   2.017 -2.5335  0.5014  3.6806
  450SOL    HW2 1350   2.787   2.969   2.156  0.2219 -0.3658 -4.8251
  451SOL     OW 1351   2.207   0.497   2.703 -0.4166 -0.2671  0.5105
  451SOL    HW1 1352   2.302   0.534   2.685  3.4311 -1.9085  0.9937
  451SOL    HW2 1353   2.177   0.502   2.799  0.2929 -0.9378 -0.6991
  452SOL     OW 1354   1.522   0.555   0.922  0.5315  0.2146 -0.3121
  452SOL    HW1 1355   1.519   0.473   0.861  1.0511  1.5283  0.1188
  452SOL    HW2 1356   1.584   0.627   0.889  0.2536 -1.6054 -1.7057
  453SOL     OW 1357   1.815   0.862   1.650  0.1951 -0.0417 -0.1483
  453SOL    HW1 1358   1.898   0.903   1.693 -0.7471 -0.7752  0.4876
  453SOL    HW2 1359   1.837   0.768   1.611 -1.1456  0.1745 -0.2243
  454SOL     OW 1360   3.029   1.371   0.329  0.0867  0.8378  0.3380
  454SOL    HW1 1361   3.068   1.365   0.236 -0.0557  0.1043  1.9477
  454SOL    HW2 1362   3.087   1.425   0.392  0.3453 -2.4128  0.9148
  455SOL     OW 1363   2.954   3.080   0.949  0.0692 -0.0384  0.7839
  455SOL    HW1 1364   2.992   3.020   0.874  3.0995  2.8833 -1.7609
  455SOL    HW2 1365   2.950   0.071   0.923 -0.1973 -1.4474  0.1376
  456SOL     OW 1366   0.151   2.975   1.499 -0.6028 -0.1157  0.2602
  456SOL    HW1 1367   0.197   2.969   1.410  0.5399 -2.8666  1.2441
  456SOL    HW2 1368   0.208   2.928   1.570  0.8746  3.9877 -3.6324
  457SOL     OW 1369   1.323   0.025   0.402 -0.5449 -0.3888  0.3016
  457SOL    HW1 1370   1.296   3.033   0.416  1.4550 -0.1691 -2.9428
  457SOL    HW2 1371   1.411   0.025   0.353 -0.2941 -2.0420  0.2618
  458SOL     OW 1372   2.358   2.740   0.750  0.3637 -0.7260  0.8168
  458SOL    HW1 1373   2.344   2.738   0.850 -1.4894 -1.6281  1.9459
  458SOL    HW2 1374   2.456   2.752   0.722 -1.8004  0.6634  1.9366
  459SOL     OW 1375   2.154   0.547   2.994 -0.5701  0.5250  0.1821
  459SOL    HW1 1376   2.063   0.559   3.036 -2.9231 -0.8431  0.6647
  459SOL    HW2 1377   2.222   0.576   3.059 -2.7455 -1.8187  0.1754
  460SOL     OW 1378   2.414   2.887   2.927  0.0267 -0.3444 -0.0124
  460SOL    HW1 1379   2.326   2.858   2.891  0.7624  1.2133  3.7056
  460SOL    HW2 1380   2.464   2.912   2.843  0.1128  0.4197 -0.3642
  461SOL     OW 1381   0.830   1.701   0.256 -0.5333 -0.0095 -0.0754
  461SOL    HW1 1382   0.873   1.646   0.330  1.4486  0.3854  1.5799
  461SOL    HW2 1383   0.773   1.780   0.294 -0.5132  1.2291  0.0493
  462SOL     OW 1384   2.165   2.062   0.686 -0.3850 -0.5157  0.2154
  462SOL    HW1 1385   2.118   2.046   0.776  0.0728  2.0121 -0.4995
  462SOL    HW2 1386   2.207   2.159   0.687 -2.1007  3.8009  0.9383
  463SOL     OW 1387   2.376   0.997   0.572  0.1294 -0.3405  0.1980
  463SOL    HW1 1388   2.421   0.965   0.655 -1.2393  1.6795  0.0575
  463SOL    HW2 1389   2.435   0.989   0.492  0.7155  3.0711  1.5454
  464SOL     OW 1390   0.461   0.136   1.414  0.2314 -0.5088  0.3706
  464SOL    HW1 1391   0.472   0.107   1.513  1.7951 -3.2476 -0.9504
  464SOL    HW2 1392   0.548   0.114   1.365  0.5196 -0.5646 -2.7218
  465SOL     OW 1393   2.500   1.378   0.010 -0.1521 -0.0896  0.1566
  465SOL    HW1 1394   2.447   1.385   0.100 -0.3703  0.2040 -1.8143
  465SOL    HW2 1395   2.588   1.433   0.007 -0.1254 -0.6620 -2.6949
  466SOL     OW 1396   1.924   0.237   2.875  0.2853  0.0898 -0.1260
  466SOL    HW1 1397   2.001   0.177   2.900  0.3736  3.5710 -2.4698
  466SOL    HW2 1398   1.910   0.302   2.949 -0.0746 -1.3156 -2.4612
  467SOL     OW 1399   0.915   0.403   1.383  0.0579  0.3925  0.7738
  467SOL    HW1 1400   0.997   0.348   1.409  1.9685  0.6565 -1.0331
  467SOL    HW2 1401   0.938   0.461   1.307  2.6333  0.0902  1.7209
  468SOL     OW 1402   0.367   1.160   2.738  0.4832  0.6602 -0.0057
  468SOL    HW1 1403   0.449   1.105   2.722  1.4067 -3.9162  1.1765
  468SOL    HW2 1404   0.389   1.242   2.797  0.7774  0.9692 -0.0616
  469SOL     OW 1405   0.458   2.062   0.293  0.6760 -0.0853  0.0715
  469SOL    HW1 1406   0.428   2.095   0.384 -2.6414 -2.7181 -0.4074
  469SOL    HW2 1407   0.513   2.131   0.240 -2.4938  2.0652 -0.4952
  470SOL     OW 1408   2.413   1.500   2.420 -0.1276  0.5478 -0.3933
  470SOL    HW1 1409   2.479   1.540   2.485 -2.8597 -0.0208 -0.7937
  470SOL    HW2 1410   2.441   1.414   2.376 -0.6713  2.0632  2.8469
  471SOL     OW 1411   2.719   1.071   2.088 -0.0877  0.1323  0.3848
  471SOL    HW1 1412   2.633   1.022   2.067 -0.1003  0.2610  1.7877
  471SOL    HW2 1413   2.729   1.083   2.188  0.5646 -0.9776  1.5188
  472SOL     OW 1414   0.502   2.616   0.656  0.1965 -0.1999  0.4427
  472SOL    HW1 1415   0.439   2.618   0.579 -0.2194  1.8366  1.4193
  472SOL    HW2 1416   0.490   2.696   0.715  1.1625 -2.8620  1.3599
  473SOL     OW 1417   0.732   0.082   0.221  0.1421 -0.6983 -0.8122
  473SOL    HW1 1418   0.681   0.010   0.277 -0.0233 -2.1348  1.0592
  473SOL    HW2 1419   0.829   0.070   0.222 -1.1857 -0.6173  2.5280
  474SOL     OW 1420   1.681   3.077   2.250 -0.4413  0.0283 -0.7033
  474SOL    HW1 1421   1.597   0.027   2.223  0.6309  0.4875 -0.8340
  474SOL    HW2 1422   1.741   3.057   2.173 -1.3351 -1.4703  1.0707
  475SOL     OW 1423   1.590   2.631   0.421 -0.2520 -0.3111 -0.5519
  475SOL    HW1 1424   1.577   2.731   0.430  0.3963 -1.7140  0.9162
  475SOL    HW2 1425   1.568   2.592   0.331  0.1896  0.7554  2.4268
  476SOL     OW 1426   0.190   1.097   0.847 -0.3763  0.6975  0.0999
  476SOL    HW1 1427   0.112   1.080   0.912  1.0733  0.6296 -1.2810
  476SOL    HW2 1428   0.278   1.062   0.890 -0.0895 -2.5965 -3.6912
  477SOL     OW 1429   1.568   2.375   1.225 -0.3131 -0.2239  0.0177
  477SOL    HW1 1430   1.548   2.301   1.158  1.1466 -1.4429 -0.1664
  477SOL    HW2 1431   1.633   2.444   1.178  0.7684  0.7942 -0.2199
  478SOL     OW 1432   0.549   1.829   2.353  1.3390  0.1354 -0.0387
  478SOL    HW1 1433   0.645   1.805   2.346  1.3728 -1.0605 -2.5725
  478SOL    HW2 1434   0.528   1.905   2.417  0.1414  0.3323 -0.7343
  479SOL     OW 1435   2.707   0.366   1.182  0.4509 -0.2052 -0.2653
  479SOL    HW1 1436   2.663   0.436   1.120  0.1964  0.1602 -2.7874
  479SOL    HW2 1437   2.657   0.358   1.268  1.3335  1.4472  0.4004
  480SOL     OW 1438   3.103   2.847   0.409 -0.1366 -0.1112  0.3261
  480SOL    HW1 1439   0.078   2.864   0.469  1.1851  2.1017  1.8286
  480SOL    HW2 1440   0.027   2.876   0.317 -1.4480  1.0540  2.8610
  481SOL     OW 1441   2.806   2.551   0.856 -0.1498  0.0499  0.0166
  481SOL    HW1 1442   2.719   2.558   0.799 -0.4875 -1.3735 -0.3741
  481SOL    HW2 1443   2.791   2.608   0.938 -0.4801 -1.2167 -0.4991
  482SOL     OW 1444   1.387   2.132   2.618 -0.0298  0.3968 -0.0007
  482SOL    HW1 1445   1.487   2.132   2.602  0.6059 -0.2086 -2.4995
  482SOL    HW2 1446   1.353   2.227   2.638 -2.7266 -0.6290 -0.4331
  483SOL     OW 1447   0.524   1.987   2.591 -0.3621 -0.2580 -0.4747
  483SOL    HW1 1448   0.540   2.060   2.657 -0.1054  0.4600 -2.4688
  483SOL    HW2 1449   0.435   1.943   2.612  0.4290 -0.0437  0.3070
  484SOL     OW 1450   0.937   1.210   1.757 -0.3721  0.0407 -0.1020
  484SOL    HW1 1451   0.993   1.143   1.814  0.8526 -0.0667  0.1020
  484SOL    HW2 1452   0.989   1.286   1.714  2.5167  0.7375 -2.4165
  485SOL     OW 1453   2.404   0.625   0.399 -0.1572 -0.4331 -0.3024
  485SOL    HW1 1454   2.384   0.536   0.450 -2.7197  0.0291 -0.0784
  485SOL    HW2 1455   2.318   0.677   0.384 -1.4299  1.3935 -1.1024
  486SOL     OW 1456   1.578   3.050   0.973 -0.3785  0.9232 -0.5372
  486SOL    HW1 1457   1.508   0.009   0.941 -1.5418 -1.1172 -0.0993
  486SOL    HW2 1458   1.662   3.102   0.993 -2.3517 -1.4965 -1.6089
  487SOL     OW 1459   0.484   2.194   1.091  0.2823 -0.1337  0.3833
  487SOL    HW1 1460   0.500   2.258   1.014 -0.0803  2.6195  2.1200
  487SOL    HW2 1461   0.530   2.231   1.174 -1.0360 -1.8891 -2.4492
  488SOL     OW 1462   2.347   1.262   0.556 -0.0152  0.2271 -0.0543
  488SOL    HW1 1463   2.272   1.309   0.607  2.1883  0.5729 -2.1929
  488SOL    HW2 1464   2.349   1.158   0.573 -0.4922 -0.7760  0.8101
  489SOL     OW 1465   1.577   0.302   1.129  0.0661  0.0896 -0.4140
  489SOL    HW1 1466   1.611   0.248   1.205 -0.1544  2.1510  0.5182
  489SOL    HW2 1467   1.647   0.367   1.092 -0.2659 -1.8619  0.2028
  490SOL     OW 1468   1.298   0.273   0.570  0.4096  0.4522  0.5603
  490SOL    HW1 1469   1.224   0.335   0.541  0.6731  0.3312  2.5209
  490SOL    HW2 1470   1.311   0.199   0.501 -0.2751  0.8428 -0.1327
  491SOL     OW 1471   0.612   2.386   0.611 -0.1706  0.1656 -0.2441
  491SOL    HW1 1472   0.699   2.388   0.563 -3.4196 -1.7570  1.5105
  491SOL    HW2 1473   0.584   2.481   0.640 -0.9276  0.1005  2.3755
  492SOL     OW 1474   1.113   1.433   2.293  0.0449  0.6936 -0.0313
  492SOL    HW1 1475   1.120   1.420   2.396  0.6313  1.3292 -1.8577
  492SOL    HW2 1476   1.042   1.373   2.247 -0.7571 -2.4411  1.0358
  493SOL     OW 1477   0.188   2.391   0.863  0.3675 -0.6330  0.2735
  493SOL    HW1 1478   0.135   2.324   0.916  1.5903  0.7196 -0.4461
  493SOL    HW2 1479   0.209   2.474   0.922 -0.5779  1.0574 -0.3479
  494SOL     OW 1480   2.551   2.118   2.981  0.3425  0.0643  0.1292
  494SOL    HW1 1481   2.517   2.033   2.924 -2.6147 -4.3074 -5.4321
  494SOL    HW2 1482   2.490   2.140   3.057  3.2726 -0.3978 -0.6002
  495SOL     OW 1483   2.650   1.847   2.729 -0.5109  0.1229 -0.5782
  495SOL    HW1 1484   2.681   1.825   2.824 -0.4561 -0.9100  2.4951
  495SOL    HW2 1485   2.625   1.762   2.676 -1.0946 -0.1409  1.5506
  496SOL     OW 1486   2.748   0.181   1.628 -0.3173  0.4959  0.2943
  496SOL    HW1 1487   2.730   0.095   1.572 -0.0373  1.5787  1.0255
  496SOL    HW2 1488   2.747   0.153   1.725  1.3608 -0.0226  2.0727
  497SOL     OW 1489   2.491   0.979   0.322  0.0159  0.0963  0.1753
  497SOL    HW1 1490   2.441   0.955   0.239 -0.3580  0.1823  0.6109
  497SOL    HW2 1491   2.581   0.934   0.334 -0.4341  1.4326  1.0050
  498SOL     OW 1492   0.489   2.337   2.548 -0.7931  0.4667 -0.4993
  498SOL    HW1 1493   0.456   2.414   2.492 -1.2649  0.6309 -2.5921
  498SOL    HW2 1494   0.425   2.260   2.546  1.5231  1.3816 -1.0989
  499SOL     OW 1495   1.078   2.324   0.244 -0.2077  0.3784 -0.0023
  499SOL    HW1 1496   1.036   2.251   0.299  1.4053 -1.1226  0.7704
  499SOL    HW2 1497   1.137   2.277   0.173  0.3906 -0.3598  0.1856
  500SOL     OW 1498   1.237   3.058   0.051  0.1481  0.2867 -0.5593
  500SOL    HW1 1499   1.249   0.052   0.040 -1.5183 -1.4969  1.7627
  500SOL    HW2 1500   1.140   3.033   0.087 -6.6249  0.3666  2.7975
  501SOL     OW 1501   1.585   0.040   1.898 -0.2848 -0.1957  0.5286
  501SOL    HW1 1502   1.501   0.001   1.858  0.6936  0.2422 -0.9466
  501SOL    HW2 1503   1.617   0.118   1.832  1.4649  2.6190 -1.5680
  502SOL     OW 1504   2.967   0.469   2.223 -0.4760 -0.2003  0.1863
  502SOL    HW1 1505   3.013   0.427   2.303  1.1257  1.1257 -0.3426
  502SOL    HW2 1506   3.025   0.467   2.137 -0.0171  0.3145 -3.1535
  503SOL     OW 1507   2.526   2.088   2.474 -0.2727 -0.0019  0.2604
  503SOL    HW1 1508   2.537   2.112   2.376  0.0951  0.1706 -2.3937
  503SOL    HW2 1509   2.511   2.170   2.538  2.0083  0.6145  1.1349
  504SOL     OW 1510   1.336   0.384   1.548 -0.1330 -0.1520  0.5611
  504SOL    HW1 1511   1.397   0.463   1.525  0.6755  3.3790  0.6605
  504SOL    HW2 1512   1.349   0.347   1.644 -2.3031 -0.1717 -3.4867
  505SOL     OW 1513   0.926   0.572   1.774 -0.0821 -0.8723  0.3734
  505SOL    HW1 1514   0.948   0.663   1.808 -1.4458  0.3330 -0.9504
  505SOL    HW2 1515   0.840   0.540   1.823  0.5165  0.3023  1.8241
  506SOL     OW 1516   0.347   0.865   2.382 -0.8238  0.0594 -0.3868
  506SOL    HW1 1517   0.307   0.918   2.462  0.6257  2.7130  0.0244
  506SOL    HW2 1518   0.423   0.798   2.396 -0.8191 -0.4513 -0.8608
  507SOL     OW 1519   0.382   3.073   3.077 -0.1129 -0.5148 -0.3271
  507SOL    HW1 1520   0.283   3.056   3.085 -0.5130 -3.1601  0.0240
  507SOL    HW2 1521   0.425   3.004   3.010  0.7297 -0.3233  0.9641
  508SOL     OW 1522   1.540   0.749   1.622 -0.4312 -0.1785 -0.6372
  508SOL    HW1 1523   1.551   0.670   1.556  0.6251 -0.4706 -0.8523
  508SOL    HW2 1524   1.624   0.800   1.627 -2.8656 -2.1012 -1.5356
  509SOL     OW 1525   0.872   1.860   1.632 -0.4897 -0.2595 -0.3236
  509SOL    HW1 1526   0.899   1.957   1.644 -3.4067  0.3600 -2.4419
  509SOL    HW2 1527   0.871   1.832   1.537  0.7624  1.6325 -1.0401
  510SOL     OW 1528   2.373   1.171   2.120  0.0716 -0.2131  0.0314
  510SOL    HW1 1529   2.440   1.237   2.158  0.4331  2.2010  0.5774
  510SOL    HW2 1530   2.424   1.087   2.094  3.6508  2.6847 -1.3150
  511SOL     OW 1531   0.508   1.920   1.030  0.2250  0.0009 -0.4824
  511SOL    HW1 1532   0.484   2.016   1.056 -0.7302  1.3825 -1.1351
  511SOL    HW2 1533   0.584   1.880   1.086  0.3977 -0.6262  2.4690
  512SOL     OW 1534   2.573   2.487   0.262  0.4955  0.3319  0.0841
  512SOL    HW1 1535   2.522   2.455   0.181  1.5763  2.2501  0.7230
  512SOL    HW2 1536   2.515   2.472   0.350 -2.9546 -3.0517 -0.2532
  513SOL     OW 1537   3.023   1.837   2.437 -0.0125  0.1877  0.2049
  513SOL    HW1 1538   3.049   1.755   2.487 -0.9250  0.8249  1.2297
  513SOL    HW2 1539   2.937   1.877   2.473  0.7488 -2.4596  0.0211
  514SOL     OW 1540   0.338   2.533   2.701 -0.0223  0.2455  0.5885
  514SOL    HW1 1541   0.248   2.515   2.651  1.5266 -1.9402  1.3511
  514SOL    HW2 1542   0.411   2.473   2.661  0.6636 -1.1026 -1.5942
  515SOL     OW 1543   1.983   1.329   1.175  0.0678  0.4352 -0.5730
  515SOL    HW1 1544   1.985   1.420   1.134 -1.2187 -0.8178  0.6922
  515SOL    HW2 1545   2.069   1.276   1.163 -1.1263 -0.0918 -1.0021
  516SOL     OW 1546   2.459   2.310   2.613  0.3563  0.1069 -0.2292
  516SOL    HW1 1547   2.466   2.378   2.533  0.0898 -0.1836 -1.4157
  516SOL    HW2 1548   2.517   2.333   2.696  1.0279 -2.2679 -2.7933
  517SOL     OW 1549   1.544   0.990   2.804  0.9954 -0.2135 -0.6111
  517SOL    HW1 1550   1.621   1.054   2.814 -1.1761  0.8300 -1.4724
  517SOL    HW2 1551   1.518   0.951   2.895 -1.7401 -0.2014 -1.5290
  518SOL     OW 1552   2.982   3.083   2.479  0.8867 -0.1581  0.0789
  518SOL    HW1 1553   3.030   3.091   2.389  1.0096 -2.3432  3.0500
  518SOL    HW2 1554   2.880   3.092   2.479  0.2630  0.3773  1.5293
  519SOL     OW 1555   1.574   1.787   2.241  0.7648 -0.0386 -0.3149
  519SOL    HW1 1556   1.518   1.825   2.317  2.2009  0.2355 -0.6791
  519SOL    HW2 1557   1.660   1.848   2.233  2.8923  1.3506  2.3579
  520SOL     OW 1558   2.841   3.065   2.822 -0.5563  0.3802  0.9842
  520SOL    HW1 1559   2.788   0.049   2.820 -0.0256  0.5634 -1.1351
  520SOL    HW2 1560   2.789   2.988   2.775 -1.4939 -4.1423  0.0583
  521SOL     OW 1561   0.384   1.644   1.737 -0.0024 -0.4226 -0.1329
  521SOL    HW1 1562   0.377   1.684   1.831  0.8566  1.0569  3.0087
  521SOL    HW2 1563   0.472   1.600   1.729 -1.3537  1.3938 -0.0603
  522SOL     OW 1564   1.175   0.103   1.856  0.0359 -0.0878 -0.2731
  522SOL    HW1 1565   1.094   0.167   1.834 -0.9186  0.5736 -1.3841
  522SOL    HW2 1566   1.157   0.048   1.942 -0.1143 -1.4975  0.9284
  523SOL     OW 1567   0.249   2.592   1.063 -0.1461 -0.6640  0.0477
  523SOL    HW1 1568   0.197   2.602   1.153  1.2783 -1.2570 -1.0940
  523SOL    HW2 1569   0.352   2.594   1.080  1.0952 -2.0446  1.6515
  524SOL     OW 1570   1.620   2.720   0.952  0.1341 -0.3973 -0.0796
  524SOL    HW1 1571   1.548   2.703   0.883  0.0608  1.5331 -1.6234
  524SOL    HW2 1572   1.634   2.824   0.965  1.4270  4.1633 -0.0611
  525SOL     OW 1573   2.399   0.987   0.847 -0.0195 -0.4412 -0.2007
  525SOL    HW1 1574   2.341   1.068   0.856  1.0524 -0.4155 -1.5731
  525SOL    HW2 1575   2.354   0.911   0.899 -0.1122 -0.2530 -1.2934
  526SOL     OW 1576   1.117   2.391   0.697 -0.2145  0.3668  0.0712
  526SOL    HW1 1577   1.081   2.346   0.785 -2.1417 -2.2656  2.3131
  526SOL    HW2 1578   1.052   2.448   0.644  2.2207  0.2871 -0.2690
  527SOL     OW 1579   2.501   1.993   0.847  0.3449  0.5641  0.3133
  527SOL    HW1 1580   2.501   1.938   0.758 -0.6842 -0.8739  1.3028
  527SOL    HW2 1581   2.441   1.944   0.912 -1.4294 -1.0385  0.7870
  528SOL     OW 1582   2.156   0.522   0.196 -0.5792 -0.3347 -0.0580
  528SOL    HW1 1583   2.213   0.599   0.157  0.4721  2.5488 -0.9445
  528SOL    HW2 1584   2.154   0.526   0.297  0.8461 -1.6431  0.5584
  529SOL     OW 1585   1.353   1.119   1.912 -0.1213 -0.0606 -0.0055
  529SOL    HW1 1586   1.308   1.056   1.844  1.3983  2.0696  1.0793
  529SOL    HW2 1587   1.346   1.082   2.006 -0.7308  1.8710 -1.0442
  530SOL     OW 1588   2.568   1.023   2.629 -0.0152 -0.5745 -0.9975
  530SOL    HW1 1589   2.540   1.120   2.610  1.1809 -0.6721 -1.1681
  530SOL    HW2 1590   2.638   0.988   2.565 -0.1633 -1.0884  3.0454
  531SOL     OW 1591   1.082   0.981   0.031 -0.7409 -0.0708  0.0316
  531SOL    HW1 1592   1.156   1.044   3.100  0.7722 -0.6238  1.5861
  531SOL    HW2 1593   1.051   0.997   0.125 -1.5164 -2.6093  1.3918
  532SOL     OW 1594   2.280   0.230   0.863 -0.2956 -0.0867 -0.1627
  532SOL    HW1 1595   2.323   0.321   0.863  1.8177 -0.0284 -1.6363
  532SOL    HW2 1596   2.302   0.181   0.776 -3.0607  1.1120 -0.5905
  533SOL     OW 1597   0.755   0.939   1.925 -0.5996 -0.0288 -0.1856
  533SOL    HW1 1598   0.697   1.010   1.872 -1.1373 -1.2299  1.0297
  533SOL    HW2 1599   0.701   0.849   1.948 -2.0955 -1.5660  2.0775
  534SOL     OW 1600   1.671   0.137   2.812  0.4892 -0.2551  0.1136
  534SOL    HW1 1601   1.658   0.165   2.713  2.1080  1.0603 -1.0644
  534SOL    HW2 1602   1.757   0.179   2.853  1.0862  1.2273  0.0492
  535SOL     OW 1603   0.612   3.070   0.438 -0.1205 -0.5178 -0.5174
  535SOL    HW1 1604   0.515   3.057   0.414  3.6860 -2.4281  4.0889
  535SOL    HW2 1605   0.643   3.013   0.522  2.8044  1.6029  3.2084
  536SOL     OW 1606   0.949   2.789   1.432 -0.0270  0.3062  0.0567
  536SOL    HW1 1607   1.029   2.746   1.386  0.5808  1.8477 -3.9605
  536SOL    HW2 1608   0.970   2.824   1.527 -1.3653 -1.0889  0.7319
  537SOL     OW 1609   2.158   2.788   2.205  0.2921 -0.2280  0.1502
  537SOL    HW1 1610   2.115   2.844   2.131 -2.0185  3.1347 -0.0222
  537SOL    HW2 1611   2.160   2.686   2.185 -1.2121 -1.8391  0.2529
  538SOL     OW 1612   0.217   2.687   0.003  0.2013  0.0533 -0.0599
  538SOL    HW1 1613   0.286   2.674   3.035  2.1048 -0.2010 -1.8041
  538SOL    HW2 1614   0.133   2.624   3.096 -3.1087  1.1128 -1.2612
  539SOL     OW 1615   2.833   1.891   1.836 -0.0902  0.0484  0.5979
  539SOL    HW1 1616   2.835   1.960   1.756 -0.8566  1.6281 -2.5098
  539SOL    HW2 1617   2.893   1.930   1.908 -1.2372  1.8734  1.5089
  540SOL     OW 1618   2.833   2.577   1.977  0.1709  0.1256 -0.1401
  540SOL    HW1 1619   2.880   2.551   2.068  0.2321  0.6075  0.1435
  540SOL    HW2 1620   2.890   2.650   1.938 -0.3551 -2.7884  1.6844
  541SOL     OW 1621   3.017   3.102   1.789  0.2683  0.0758 -0.1893
  541SOL    HW1 1622   2.927   0.035   1.809 -0.6258  2.3222 -1.5276
  541SOL    HW2 1623   3.020   3.040   1.715 -0.1580  3.2635  1.3356
  542SOL     OW 1624   3.055   0.626   1.825 -0.8627 -0.4488  0.4451
  542SOL    HW1 1625   2.961   0.588   1.819  0.8681  2.5458 -2.0284
  542SOL    HW2 1626   3.089   0.655   1.735  0.0990  1.9420  2.6799
  543SOL     OW 1627   0.559   0.898   1.162 -0.0868 -0.3994 -0.7825
  543SOL    HW1 1628   0.645   0.919   1.213 -0.3480  0.4205  1.4239
  543SOL    HW2 1629   0.492   0.853   1.225  1.6871 -0.3691  0.2623
  544SOL     OW 1630   2.106   1.584   1.087  0.4177  0.1004 -0.0970
  544SOL    HW1 1631   2.052   1.650   1.146  1.0057  3.9998 -0.0240
  544SOL    HW2 1632   2.086   1.606   0.991 -0.8542  0.7558  0.4892
  545SOL     OW 1633   0.952   1.583   0.486  0.3826 -0.7468 -0.5319
  545SOL    HW1 1634   1.016   1.647   0.528 -0.4273  0.5343 -3.8021
  545SOL    HW2 1635   0.914   1.517   0.554 -1.0231 -0.4728  1.4938
  546SOL     OW 1636   2.678   0.343   1.910 -0.0304  0.4166 -0.3299
  546SOL    HW1 1637   2.728   0.417   1.855  2.3031  0.5708 -2.8278
  546SOL    HW2 1638   2.694   0.355   2.011  0.2811  1.7748 -2.0234
  547SOL     OW 1639   0.240   0.315   2.491  0.2058  0.4723  0.0143
  547SOL    HW1 1640   0.308   0.284   2.559  0.7270  1.9946 -1.6718
  547SOL    HW2 1641   0.278   0.398   2.444  0.9017 -1.0167 -0.7161
  548SOL     OW 1642   2.271   2.131   2.745  0.2296 -0.0294 -0.6192
  548SOL    HW1 1643   2.339   2.205   2.717  1.3688  1.3290 -1.9986
  548SOL    HW2 1644   2.224   2.097   2.663  0.5991  1.8598 -1.0777
  549SOL     OW 1645   2.546   0.549   1.043  0.7789 -0.2743 -0.0322
  549SOL    HW1 1646   2.475   0.578   1.111 -2.3064  1.3185  0.4985
  549SOL    HW2 1647   2.598   0.633   1.016 -0.9528 -0.4941  0.0233
  550SOL     OW 1648   2.174   1.449   0.693 -0.0203  0.7898 -0.3919
  550SOL    HW1 1649   2.108   1.507   0.637 -2.2423  3.5575 -0.0991
  550SOL    HW2 1650   2.248   1.500   0.740  2.4761  1.6015 -0.4682
  551SOL     OW 1651   1.113   0.008   1.436  0.3375  0.3711  0.1986
  551SOL    HW1 1652   1.092   3.025   1.479  1.1354  1.2800  1.1316
  551SOL    HW2 1653   1.061   0.016   1.345  0.8111 -2.9734 -1.7561
  552SOL     OW 1654   1.964   2.470   2.398  0.5035  0.1565 -0.1631
  552SOL    HW1 1655   1.970   2.561   2.360 -0.9815  1.1112  2.3084
  552SOL    HW2 1656   2.046   2.414   2.376 -2.2798  2.2723  0.4749
  553SOL     OW 1657   0.670   2.899   0.637  0.2572  0.5065 -0.4392
  553SOL    HW1 1658   0.693   2.931   0.733  0.9173 -0.4109  3.5884
  553SOL    HW2 1659   0.689   2.803   0.621  0.0342  1.0870  1.7459
  554SOL     OW 1660   1.764   2.664   2.225  0.2561 -0.7639 -0.2406
  554SOL    HW1 1661   1.825   2.615   2.162  0.1865 -0.5484  0.8629
  554SOL    HW2 1662   1.818   2.702   2.306  1.7309  2.7468  0.4901
  555SOL     OW 1663   2.201   2.524   2.150 -0.0842 -0.1777  0.1692
  555SOL    HW1 1664   2.277   2.505   2.085  1.4395  1.2703 -1.2541
  555SOL    HW2 1665   2.202   2.460   2.229  1.3285 -1.6139 -1.3348
  556SOL     OW 1666   1.013   3.062   0.653 -0.4604  0.0575 -0.0467
  556SOL    HW1 1667   1.107   3.070   0.695  0.7703  0.8240 -0.5368
  556SOL    HW2 1668   1.013   3.077   0.547 -2.7386  1.3073 -2.7078
  557SOL     OW 1669   0.726   2.271   1.790  0.4279 -0.3176 -0.2793
  557SOL    HW1 1670   0.712   2.325   1.879 -1.9615 -0.4094 -0.7152
  557SOL    HW2 1671   0.648   2.283   1.723 -1.1283  1.3584  1.6436
  558SOL     OW 1672   2.761   1.139   2.359 -0.0983  0.2445  0.0380
  558SOL    HW1 1673   2.755   1.044   2.397  0.2930 -0.6216  2.3988
  558SOL    HW2 1674   2.790   1.209   2.424  1.3637  3.0532 -1.2312
  559SOL     OW 1675   2.561   2.102   2.203  0.5857  0.0986 -0.1498
  559SOL    HW1 1676   2.502   2.108   2.119 -4.1822 -0.1050  0.6349
  559SOL    HW2 1677   2.631   2.177   2.214  0.7456 -0.6489  2.1586
  560SOL     OW 1678   0.695   0.489   2.086  0.0757  0.6813 -0.0551
  560SOL    HW1 1679   0.685   0.460   1.987 -0.6409 -1.4493  2.0138
  560SOL    HW2 1680   0.783   0.540   2.102 -0.6044 -0.2055 -0.8490
  561SOL     OW 1681   1.307   0.358   0.260  0.0606  0.1301 -0.1896
  561SOL    HW1 1682   1.392   0.408   0.282  1.3281 -0.3132 -2.0329
  561SOL    HW2 1683   1.320   0.309   0.170  1.8565 -2.4928 -1.2432
  562SOL     OW 1684   1.054   1.432   1.630 -0.2229 -0.4953  0.0180
  562SOL    HW1 1685   1.058   1.507   1.701 -0.2439 -0.4889 -0.4644
  562SOL    HW2 1686   1.042   1.466   1.534 -0.7480 -1.1993 -0.3067
  563SOL     OW 1687   1.882   2.514   0.129  0.6146  0.0163 -0.0319
  563SOL    HW1 1688   1.924   2.425   0.100 -1.4000  1.4105  0.5886
  563SOL    HW2 1689   1.950   2.578   0.168 -0.5467 -1.2591  1.0093
  564SOL     OW 1690   2.882   2.162   0.382  0.2869 -0.2161 -0.2259
  564SOL    HW1 1691   2.894   2.261   0.369 -0.7830 -3.2929 -1.3385
  564SOL    HW2 1692   2.813   2.122   0.316 -1.7961 -0.0952 -4.3090
  565SOL     OW 1693   0.660   2.903   2.189  0.3607 -0.1415  0.5386
  565SOL    HW1 1694   0.713   2.986   2.219  0.3553  2.2607  0.0616
  565SOL    HW2 1695   0.599   2.870   2.266 -1.0169  1.6057  1.3448
  566SOL     OW 1696   1.561   2.482   2.761 -0.1347  0.5907  0.6174
  566SOL    HW1 1697   1.632   2.436   2.817 -0.5760  2.1678 -3.2680
  566SOL    HW2 1698   1.597   2.545   2.684  2.7388 -0.8929 -0.6520
  567SOL     OW 1699   1.959   1.858   1.393 -0.2712  0.1348 -0.2171
  567SOL    HW1 1700   1.895   1.887   1.318 -0.6564  0.9842  1.1366
  567SOL    HW2 1701   1.912   1.846   1.485  0.0731 -2.0061  3.0410
  568SOL     OW 1702   2.170   0.860   2.765 -0.0697  0.0176  0.3460
  568SOL    HW1 1703   2.097   0.868   2.831 -0.8649  2.5478 -2.5114
  568SOL    HW2 1704   2.262   0.879   2.807  0.4625 -1.2950  0.5765
  569SOL     OW 1705   2.644   1.506   2.055 -0.4027 -0.0693 -0.1026
  569SOL    HW1 1706   2.728   1.560   2.079 -0.5989 -2.9823  1.0375
  569SOL    HW2 1707   2.586   1.550   1.983  0.6051  0.5857  0.5097
  570SOL     OW 1708   2.670   2.824   1.680  0.0933 -0.3125 -0.1578
  570SOL    HW1 1709   2.567   2.827   1.681 -1.9309  0.6783  0.9704
  570SOL    HW2 1710   2.713   2.877   1.757 -1.1147 -2.1447  2.0313
  571SOL     OW 1711   0.095   0.297   1.618 -0.0190  0.0805  0.2182
  571SOL    HW1 1712   3.104   0.281   1.589  0.6762 -2.9845  1.3102
  571SOL    HW2 1713   0.160   0.302   1.538 -0.0172  0.6266 -1.0647
  572SOL     OW 1714   0.079   2.040   0.654  0.2916 -0.0321  0.4698
  572SOL    HW1 1715   3.092   2.049   0.699  1.5584  1.8043 -1.0450
  572SOL    HW2 1716   0.130   1.967   0.695 -2.3501  0.6263  1.3764
  573SOL     OW 1717   1.103   0.552   0.151 -0.1967  0.3390 -0.1501
  573SOL    HW1 1718   1.003   0.538   0.177  0.2303 -1.4262 -1.1476
  573SOL    HW2 1719   1.165   0.490   0.209  2.0924 -0.2686 -0.6428
  574SOL     OW 1720   0.056   0.084   0.150  0.2906  0.4281  0.1274
  574SOL    HW1 1721   0.074   0.157   0.085  1.6322 -0.9170 -0.0054
  574SOL    HW2 1722   0.087   3.096   0.128 -1.2899  3.8427  1.0950
  575SOL     OW 1723   1.107   2.338   1.179 -0.1894  0.2679 -0.0134
  575SOL    HW1 1724   1.147   2.256   1.220 -1.2627  2.5834 -2.9923
  575SOL    HW2 1725   1.164   2.418   1.165  0.4465  0.9597 -3.0844
  576SOL     OW 1726   3.000   2.792   1.297 -0.1092 -0.0577  0.1316
  576SOL    HW1 1727   2.944   2.811   1.379  1.1709  1.2543 -2.0189
  576SOL    HW2 1728   3.055   2.869   1.261 -0.6386 -0.5533  0.7154
  577SOL     OW 1729   2.631   1.699   1.437  0.4071 -0.3598  0.6467
  577SOL    HW1 1730   2.675   1.607   1.446  0.3532  2.0079  0.6934
  577SOL    HW2 1731   2.580   1.724   1.520  0.2759 -2.9399 -2.8826
  578SOL     OW 1732   1.156   2.796   2.880  0.2860 -0.5977  0.1075
  578SOL    HW1 1733   1.168   2.724   2.811 -0.8886  2.3312  0.6352
  578SOL    HW2 1734   1.213   2.874   2.854 -3.4958 -1.5399 -0.8754
  579SOL     OW 1735   1.975   1.589   2.194 -0.0938 -0.0745 -0.0445
  579SOL    HW1 1736   1.906   1.516   2.168 -3.3457  0.2679  1.3999
  579SOL    HW2 1737   2.061   1.586   2.134  3.4676  0.4533 -0.1951
  580SOL     OW 1738   1.932   0.204   1.992 -0.2434 -0.4475  0.2554
  580SOL    HW1 1739   1.893   0.262   1.922  1.9721 -3.2784  0.4380
  580SOL    HW2 1740   1.911   0.251   2.082 -1.2745  1.1101 -1.8489
  581SOL     OW 1741   1.017   1.499   2.034 -0.3386 -0.5384 -0.2527
  581SOL    HW1 1742   1.036   1.563   1.958 -2.0490 -0.3480 -2.3355
  581SOL    HW2 1743   1.101   1.442   2.050 -0.6920  0.0187 -0.5333
  582SOL     OW 1744   2.949   2.832   1.914 -0.1178 -0.3536 -0.3499
  582SOL    HW1 1745   3.031   2.791   1.955 -3.3218  2.0352 -1.2142
  582SOL    HW2 1746   2.977   2.877   1.831  1.2765  0.1124  0.5531
  583SOL     OW 1747   1.295   1.498   1.154 -0.3700 -0.6286  0.1019
  583SOL    HW1 1748   1.321   1.478   1.250 -1.6460  0.6614 -3.0463
  583SOL    HW2 1749   1.197   1.472   1.136  1.4549  1.4479 -2.2804
  584SOL     OW 1750   1.279   1.895   2.721  0.8019 -0.0073  0.0451
  584SOL    HW1 1751   1.327   1.813   2.691 -0.1817 -0.4311  0.2001
  584SOL    HW2 1752   1.333   1.983   2.704  3.4133 -0.0071  1.5352
  585SOL     OW 1753   0.267   2.354   0.288 -0.1851 -0.0022  0.2165
  585SOL    HW1 1754   0.331   2.305   0.354 -2.2597 -0.7343 -1.5882
  585SOL    HW2 1755   0.214   2.285   0.231 -0.1652 -2.1616  1.7547
  586SOL     OW 1756   1.985   2.268   0.063 -0.3754  0.2566  0.1875
  586SOL    HW1 1757   2.027   2.197   0.128  0.9092 -1.6964  0.4224
  586SOL    HW2 1758   2.025   2.267   3.075  0.6385  0.9568 -0.4935
  587SOL     OW 1759   2.556   2.081   0.471  0.2014  0.1348 -0.1035
  587SOL    HW1 1760   2.607   2.148   0.530  2.7776  0.9426 -0.5501
  587SOL    HW2 1761   2.610   2.061   0.388  0.7075 -3.0332  2.0021
  588SOL     OW 1762   2.050   0.257   1.020  0.4706  0.2150  0.3259
  588SOL    HW1 1763   2.016   0.343   0.982  1.9252 -1.4963  0.1903
  588SOL    HW2 1764   2.135   0.227   0.970  0.6083  0.0889 -2.6014
  589SOL     OW 1765   0.553   0.796   0.889  0.3210 -0.0176 -0.0347
  589SOL    HW1 1766   0.547   0.829   0.988  2.5428 -0.0850  3.6945
  589SOL    HW2 1767   0.575   0.879   0.828 -0.7679  5.5138 -2.2892
  590SOL     OW 1768   2.865   2.415   0.283  0.2942  0.1955  0.5353
  590SOL    HW1 1769   2.765   2.426   0.269  3.5698 -2.1317 -2.1596
  590SOL    HW2 1770   2.918   2.496   0.320  1.2046  0.2307  1.7075
  591SOL     OW 1771   0.225   2.641   1.797  0.0309  0.2901 -0.3374
  591SOL    HW1 1772   0.308   2.581   1.813 -0.5865  0.4101  0.7828
  591SOL    HW2 1773   0.190   2.675   1.887  0.4139  1.0441  0.5688
  592SOL     OW 1774   0.635   1.245   1.421 -0.5986  0.1879 -0.3560
  592SOL    HW1 1775   0.533   1.211   1.420 -1.9176  0.6089  1.1883
  592SOL    HW2 1776   0.698   1.184   1.478  0.5715  1.0906 -1.0523
  593SOL     OW 1777   0.899   1.829   1.374 -0.2018  0.0445 -0.0964
  593SOL    HW1 1778   0.907   1.729   1.359  0.2896  0.8336 -2.5028
  593SOL    HW2 1779   0.983   1.877   1.346  0.5374  0.6414 -0.0944
  594SOL     OW 1780   0.241   1.946   2.799  0.3443  0.0890  0.2542
  594SOL    HW1 1781   0.265   2.016   2.863 -3.1284 -0.5893  0.1769
  594SOL    HW2 1782   0.313   1.874   2.782 -0.2524 -1.6205 -0.1655
  595SOL     OW 1783   1.257   0.631   1.020 -0.7441 -0.1709 -0.0966
  595SOL    HW1 1784   1.343   0.611   0.970 -1.1300 -0.4723 -0.3691
  595SOL    HW2 1785   1.187   0.572   0.979  0.1846  2.0727  1.1008
  596SOL     OW 1786   0.239   1.700   0.535  0.0094 -0.7368  0.7060
  596SOL    HW1 1787   0.139   1.696   0.516 -0.7913 -1.3544  0.4889
  596SOL    HW2 1788   0.279   1.608   0.551 -1.3498  2.5470  2.3109
  597SOL     OW 1789   2.962   2.208   2.814 -0.3977  0.4372 -0.1381
  597SOL    HW1 1790   2.933   2.212   2.719  0.7155  1.8141 -2.1430
  597SOL    HW2 1791   2.884   2.190   2.879 -2.6908 -1.7780  1.8601
  598SOL     OW 1792   2.132   2.123   2.111  0.6085 -0.5147 -0.4132
  598SOL    HW1 1793   2.073   2.128   2.030  1.5021 -0.1298 -0.5869
  598SOL    HW2 1794   2.140   2.029   2.137 -0.3360  3.2278 -0.2841
  599SOL     OW 1795   1.739   0.256   0.659 -0.0420  0.0261  0.8566
  599SOL    HW1 1796   1.734   0.150   0.658 -2.0538 -0.9236  1.3382
  599SOL    HW2 1797   1.662   0.287   0.711  1.2385 -0.8312  0.1164
  600SOL     OW 1798   0.843   2.775   0.433 -0.1874 -0.2323  0.0142
  600SOL    HW1 1799   0.855   2.866   0.477  0.7758  0.2256 -0.1272
  600SOL    HW2 1800   0.820   2.789   0.336 -1.4042  1.3278 -0.4993
  601SOL     OW 1801   0.620   0.688   1.366  0.4457  0.5903 -0.0381
  601SOL    HW1 1802   0.562   0.756   1.414  0.6847 -1.7003  2.0781
  601SOL    HW2 1803   0.686   0.646   1.433 -1.6229 -0.7191  0.6882
  602SOL     OW 1804   0.198   2.851   1.021  0.2752  0.1228 -0.3647
  602SOL    HW1 1805   0.162   2.755   1.036 -3.5799  0.9612  0.5910
  602SOL    HW2 1806   0.141   2.914   1.076 -0.1114  0.2126  1.7996
  603SOL     OW 1807   1.216   2.623   2.667  0.2131 -0.2612 -0.5127
  603SOL    HW1 1808   1.134   2.577   2.624  1.9328  2.1221  0.6364
  603SOL    HW2 1809   1.256   2.691   2.600 -0.6094  0.4051 -1.2012
  604SOL     OW 1810   0.695   3.035   3.011  0.2162 -0.2464 -0.4049
  604SOL    HW1 1811   0.662   3.033   0.000  1.3769  1.2733 -1.2492
  604SOL    HW2 1812   0.623   2.998   2.942 -0.8047 -2.4315 -0.6489
  605SOL     OW 1813   1.143   0.784   2.029  0.2512 -0.1436  0.3341
  605SOL    HW1 1814   1.210   0.730   1.974  0.1656  0.3841 -1.4756
  605SOL    HW2 1815   1.107   0.858   1.976  0.8413 -2.6773 -2.1725
  606SOL     OW 1816   2.013   0.141   2.619  0.5956  0.6168  0.0790
  606SOL    HW1 1817   1.971   0.157   2.717 -0.1481  0.5894  1.4672
  606SOL    HW2 1818   1.935   0.135   2.553 -1.6203 -0.9471 -1.3202
  607SOL     OW 1819   0.259   1.354   1.192  0.2372 -0.7727  0.1848
  607SOL    HW1 1820   0.251   1.370   1.294 -2.1826 -0.2010  0.1940
  607SOL    HW2 1821   0.307   1.270   1.171 -1.3789  0.3977 -0.8765
  608SOL     OW 1822   0.150   2.649   2.402  0.2421  0.4812  0.2298
  608SOL    HW1 1823   0.153   2.749   2.429 -0.2678  2.1500  1.7327
  608SOL    HW2 1824   0.126   2.589   2.482  1.9036 -1.9204 -0.8442
  609SOL     OW 1825   1.629   0.767   0.077 -1.0149  0.4768 -0.5066
  609SOL    HW1 1826   1.612   0.684   0.024  2.2494 -0.3823  1.6557
  609SOL    HW2 1827   1.630   0.753   0.174 -2.1901 -1.3007 -0.1830
  610SOL     OW 1828   0.744   2.797   1.262 -0.3958  0.5730 -0.1005
  610SOL    HW1 1829   0.827   2.782   1.320  0.5161  1.8337  0.1763
  610SOL    HW2 1830   0.658   2.800   1.323 -3.3862 -3.1093  2.5398
  611SOL     OW 1831   0.997   0.703   0.413  0.4213  0.0103  0.0231
  611SOL    HW1 1832   0.948   0.737   0.496 -0.9075 -0.8555  0.6612
  611SOL    HW2 1833   1.070   0.772   0.386  0.5812 -0.5859 -1.3216
  612SOL     OW 1834   1.486   0.742   2.676 -0.7282  0.0682  0.0562
  612SOL    HW1 1835   1.406   0.776   2.621 -1.6020  2.2719  0.2349
  612SOL    HW2 1836   1.516   0.825   2.731  0.4737  2.5003  1.6051
  613SOL     OW 1837   1.955   0.895   0.390 -0.3922 -0.1525  0.3625
  613SOL    HW1 1838   1.882   0.960   0.360  2.8934  0.1920  0.8008
  613SOL    HW2 1839   1.931   0.799   0.369 -1.5436  0.9449 -1.5272
  614SOL     OW 1840   2.013   0.392   1.754  0.4779  0.3473 -0.0642
  614SOL    HW1 1841   2.007   0.301   1.718  3.1010 -0.8447  2.3897
  614SOL    HW2 1842   2.030   0.468   1.687 -1.8733 -2.2238 -0.6622
  615SOL     OW 1843   0.921   2.029   0.831  0.5202 -0.3834 -0.1118
  615SOL    HW1 1844   0.889   1.957   0.896  0.9230 -0.9783  2.4978
  615SOL    HW2 1845   0.910   2.117   0.875  0.5491  0.5949  1.0560
  616SOL     OW 1846   1.550   1.157   2.214 -0.3502  0.4274 -0.1817
  616SOL    HW1 1847   1.590   1.242   2.242  0.3272  1.1949  0.5757
  616SOL    HW2 1848   1.610   1.087   2.166  0.9289 -1.4202 -2.1724
  617SOL     OW 1849   1.789   2.992   2.992 -0.4670  0.4906 -0.6215
  617SOL    HW1 1850   1.745   3.075   3.024  0.0088 -0.2015  2.8311
  617SOL    HW2 1851   1.798   2.982   2.891  2.0893  1.4744 -2.6774
  618SOL     OW 1852   1.013   1.074   2.588 -0.2579 -0.1483 -0.1595
  618SOL    HW1 1853   1.086   1.028   2.647  2.7050 -1.3550 -1.5769
  618SOL    HW2 1854   0.987   0.999   2.519 -1.0070  0.3632  0.8511
  619SOL     OW 1855   2.401   1.475   0.847  0.1517 -0.1265  0.0499
  619SOL    HW1 1856   2.354   1.388   0.859  1.5598  0.6239 -0.6529
  619SOL    HW2 1857   2.502   1.467   0.857  3.0000 -0.7610 -0.7849
  620SOL     OW 1858   2.467   2.517   2.909  0.7367 -0.1870 -0.2433
  620SOL    HW1 1859   2.541   2.576   2.937 -4.3810 -1.6403 -1.9191
  620SOL    HW2 1860   2.375   2.550   2.938  2.9262 -0.0113 -0.7753
  621SOL     OW 1861   2.197   1.174   0.263 -0.2651 -0.5552 -0.1767
  621SOL    HW1 1862   2.123   1.227   0.217  1.3136 -0.5299 -0.4250
  621SOL    HW2 1863   2.164   1.142   0.352  2.0047  2.0682 -0.3272
  622SOL     OW 1864   1.322   2.379   2.739  0.8360  0.1209  0.1483
  622SOL    HW1 1865   1.271   2.464   2.710 -1.5984  0.4086 -0.5684
  622SOL    HW2 1866   1.417   2.413   2.746 -1.1301 -1.4718 -1.1595
  623SOL     OW 1867   0.273   2.163   2.988 -0.4749 -0.7063  0.1411
  623SOL    HW1 1868   0.363   2.206   2.990 -1.4999 -1.8079  0.2034
  623SOL    HW2 1869   0.246   2.143   3.084 -0.0500  2.1865 -1.4774
  624SOL     OW 1870   0.397   0.225   2.982  0.4698 -0.4162  0.2038
  624SOL    HW1 1871   0.472   0.264   3.041 -0.7758  0.7449 -1.5440
  624SOL    HW2 1872   0.401   0.128   2.991 -0.3704 -0.0338  1.8520
  625SOL     OW 1873   0.759   1.897   0.009  0.0582 -0.0596  0.7554
  625SOL    HW1 1874   0.663   1.901   3.089  1.5374  1.5459 -0.5810
  625SOL    HW2 1875   0.792   1.809   0.037 -1.9987  1.3703  1.3943
  626SOL     OW 1876   2.889   0.643   0.337 -1.1126  0.2955  0.0733
  626SOL    HW1 1877   2.851   0.636   0.240 -0.4867 -0.2912  0.0431
  626SOL    HW2 1878   2.924   0.558   0.379 -0.0403  1.0859  2.4863
  627SOL     OW 1879   1.480   1.271   2.885  0.1747 -0.7795 -0.2256
  627SOL    HW1 1880   1.562   1.207   2.876  0.0475 -0.3809  0.7445
  627SOL    HW2 1881   1.508   1.367   2.916  3.0942 -1.3664  1.5564
  628SOL     OW 1882   1.181   0.983   2.773 -0.0114  0.4474  0.0604
  628SOL    HW1 1883   1.218   1.045   2.846 -0.6167 -2.6010  0.7317
  628SOL    HW2 1884   1.259   0.951   2.718 -0.8878  0.3799  2.3589
  629SOL     OW 1885   0.162   0.107   1.808  0.2841  0.1595 -0.0001
  629SOL    HW1 1886   0.072   0.056   1.810  0.6575  2.7752  0.5796
  629SOL    HW2 1887   0.156   0.172   1.728 -0.1199  2.5985 -0.3454
  630SOL     OW 1888   2.417   0.724   2.052 -0.0945 -0.4166  0.2866
  630SOL    HW1 1889   2.414   0.640   1.993  1.1361 -0.5467  0.9548
  630SOL    HW2 1890   2.436   0.695   2.148  0.9707  0.3429 -2.0632
  631SOL     OW 1891   2.092   0.726   0.779 -0.5371 -0.0203  0.1778
  631SOL    HW1 1892   2.075   0.649   0.845 -1.4261 -2.4029  1.1316
  631SOL    HW2 1893   2.185   0.721   0.743 -3.0294  0.1815 -0.6081
  632SOL     OW 1894   2.889   0.861   1.393  0.5391  0.3411  0.2048
  632SOL    HW1 1895   2.920   0.768   1.430  0.4077 -1.9380  0.0967
  632SOL    HW2 1896   2.932   0.878   1.299 -0.2393 -1.2148  1.0624
  633SOL     OW 1897   0.955   0.242   0.018  0.1826 -0.4115  0.1568
  633SOL    HW1 1898   0.872   0.303   0.004  1.3028  0.8068 -2.4818
  633SOL    HW2 1899   0.949   0.160   3.063  0.2074 -1.5386  1.8695
  634SOL     OW 1900   0.969   2.526   2.960  0.2839  0.0326 -0.3714
  634SOL    HW1 1901   0.978   2.561   3.055 -0.4908  0.7811 -0.5673
  634SOL    HW2 1902   0.950   2.603   2.898  2.6087  1.0401  1.9061
  635SOL     OW 1903   2.921   0.389   0.441  0.8154  0.6059  0.7615
  635SOL    HW1 1904   2.990   0.386   0.514 -0.9482  0.4478  0.9342
  635SOL    HW2 1905   2.909   0.299   0.396  1.5677  1.6728  1.4602
  636SOL     OW 1906   0.633   1.077   0.315  0.1870  0.2076  0.0717
  636SOL    HW1 1907   0.606   1.063   0.219  1.8041 -0.4893  1.1721
  636SOL    HW2 1908   0.733   1.070   0.318 -1.4894  0.7194 -2.4790
  637SOL     OW 1909   0.308   2.611   0.265  0.0391  0.1259  0.3293
  637SOL    HW1 1910   0.293   2.509   0.263  0.4805 -0.0674  1.3792
  637SOL    HW2 1911   0.274   2.654   0.179  0.6010  2.5276  1.6964
  638SOL     OW 1912   0.230   2.561   0.522 -0.0189  0.4313 -0.2529
  638SOL    HW1 1913   0.259   2.607   0.437 -2.4419  2.7521 -0.9250
  638SOL    HW2 1914   0.185   2.475   0.500 -0.2598  1.7303  1.3436
  639SOL     OW 1915   1.482   1.115   0.078  0.3165 -0.1312 -0.2234
  639SOL    HW1 1916   1.420   1.108   3.102 -0.5952 -2.7446  2.2416
  639SOL    HW2 1917   1.498   1.211   0.114 -1.2213 -1.4817 -1.1982
  640SOL     OW 1918   1.589   2.186   1.476 -0.1297  0.0540 -0.3882
  640SOL    HW1 1919   1.562   2.247   1.555  0.4726  1.7584  3.6455
  640SOL    HW2 1920   1.571   2.238   1.390 -1.5053 -1.7479  0.9048
  641SOL     OW 1921   2.859   2.496   1.358 -0.0141  0.3752  0.0712
  641SOL    HW1 1922   2.833   2.574   1.418  2.1300 -1.0312 -1.8028
  641SOL    HW2 1923   2.874   2.518   1.262  0.5151  2.9681  1.3317
  642SOL     OW 1924   0.687   2.794   1.735  0.2752  0.0716 -0.5120
  642SOL    HW1 1925   0.763   2.725   1.757  1.8633  0.8249  2.0215
  642SOL    HW2 1926   0.646   2.835   1.820 -2.8563 -0.8696 -0.0705
  643SOL     OW 1927   0.813   2.287   2.963  0.2033 -0.4455  0.0480
  643SOL    HW1 1928   0.860   2.375   2.988 -0.4088  0.0160 -1.9454
  643SOL    HW2 1929   0.837   2.202   3.017 -2.9030  0.0160 -1.4570
  644SOL     OW 1930   1.275   2.574   0.856  0.1495  0.0026 -0.1069
  644SOL    HW1 1931   1.353   2.584   0.797 -1.4139  1.8051  0.5758
  644SOL    HW2 1932   1.207   2.524   0.804  2.4905 -0.6680 -0.2851
  645SOL     OW 1933   1.276   1.386   1.895  0.2606  0.5795  0.4671
  645SOL    HW1 1934   1.309   1.414   1.799  2.7702 -0.4420  1.2970
  645SOL    HW2 1935   1.306   1.291   1.923 -1.3823 -0.0637  1.9370
  646SOL     OW 1936   0.301   0.866   0.151  0.6225 -0.1922  0.4238
  646SOL    HW1 1937   0.307   0.846   0.248  2.1407 -2.0663 -0.1194
  646SOL    HW2 1938   0.206   0.844   0.123 -0.6525  1.2449  1.4832
  647SOL     OW 1939   1.494   0.325   0.770  0.4801  0.3039 -0.0127
  647SOL    HW1 1940   1.444   0.270   0.837 -1.0449 -0.6370 -0.0933
  647SOL    HW2 1941   1.429   0.340   0.691 -1.3246 -0.2397  0.1204
  648SOL     OW 1942   2.106   2.541   1.093 -0.1057  0.6886  0.0674
  648SOL    HW1 1943   2.121   2.521   1.193  1.5229  1.1201  0.5078
  648SOL    HW2 1944   2.013   2.588   1.087 -3.7069 -0.0324 -0.4646
  649SOL     OW 1945   0.520   1.925   2.929 -0.2808  0.3514  0.0672
  649SOL    HW1 1946   0.518   2.013   2.880 -1.8162 -3.6770 -1.8331
  649SOL    HW2 1947   0.472   1.941   3.014  1.3120  2.1692 -2.0707
  650SOL     OW 1948   2.255   1.925   1.867  0.4967  0.0135 -0.1324
  650SOL    HW1 1949   2.154   1.941   1.863  2.3500  0.2730  1.2476
  650SOL    HW2 1950   2.306   1.928   1.777  3.0840 -0.1105 -0.2064
  651SOL     OW 1951   0.124   3.039   2.966 -0.0265 -0.2660  0.3293
  651SOL    HW1 1952   0.082   2.946   2.956 -1.6980 -0.4609  0.7281
  651SOL    HW2 1953   0.085   0.000   2.898  1.0921 -4.0578  0.9663
  652SOL     OW 1954   2.598   1.666   0.218  0.3670  0.3798 -0.5350
  652SOL    HW1 1955   2.642   1.693   0.303 -0.7959  0.5214 -1.5249
  652SOL    HW2 1956   2.519   1.719   0.192  1.2106 -2.8192  3.0573
  653SOL     OW 1957   0.102   0.200   1.172 -0.1675  0.6395  0.2157
  653SOL    HW1 1958   0.161   0.192   1.086 -1.1355  1.4602 -0.4624
  653SOL    HW2 1959   0.004   0.227   1.146 -0.2778  0.2743  0.9590
  654SOL     OW 1960   0.999   3.089   0.387 -0.4060  0.0542 -0.0356
  654SOL    HW1 1961   1.000   3.048   0.294 -1.6515  3.3025 -0.7596
  654SOL    HW2 1962   1.025   0.083   0.377  1.5829  0.7188 -1.8242
  655SOL     OW 1963   0.520   2.798   1.410 -0.4834  0.4130 -0.0306
  655SOL    HW1 1964   0.466   2.834   1.489  1.1406  1.2794  1.2568
  655SOL    HW2 1965   0.495   2.702   1.391  1.2222  0.9665  0.9094
  656SOL     OW 1966   0.126   2.898   2.195  0.1206  0.2201  0.7767
  656SOL    HW1 1967   0.160   2.899   2.293  0.0304  1.8287  2.4067
  656SOL    HW2 1968   0.077   2.984   2.176 -2.0764 -2.0077 -0.7242
  657SOL     OW 1969   1.881   0.436   2.453  0.0395  0.0082  0.0293
  657SOL    HW1 1970   1.879   0.420   2.554 -1.0737 -0.9811  1.0598
  657SOL    HW2 1971   1.966   0.489   2.428  0.8180  3.5395  0.4079
  658SOL     OW 1972   1.759   1.546   1.109 -0.0717 -0.3223  0.5496
  658SOL    HW1 1973   1.678   1.487   1.129  3.0461  1.6891  0.5304
  658SOL    HW2 1974   1.830   1.532   1.183  1.2815  1.1879 -0.9347
  659SOL     OW 1975   2.685   2.655   2.955  0.0128  0.1914 -0.2845
  659SOL    HW1 1976   2.693   2.699   2.865 -0.0860 -2.3685  1.0569
  659SOL    HW2 1977   2.764   2.648   3.020  0.5350 -0.3113  1.3373
  660SOL     OW 1978   1.224   0.757   3.085  0.7232  0.3839  0.0889
  660SOL    HW1 1979   1.196   0.694   0.057  0.4647 -0.1805  2.7773
  660SOL    HW2 1980   1.181   0.847   3.099 -0.1860 -2.6246 -1.2780
  661SOL     OW 1981   2.629   2.782   0.790  0.0491 -0.0857 -0.1226
  661SOL    HW1 1982   2.692   2.830   0.726  0.8710 -0.5838  0.7761
  661SOL    HW2 1983   2.619   2.838   0.874  0.2429  1.8861  1.1775
  662SOL     OW 1984   0.733   0.589   0.990 -0.5545  0.3212  0.4299
  662SOL    HW1 1985   0.681   0.562   1.072 -1.5379  1.6994  0.0587
  662SOL    HW2 1986   0.697   0.678   0.951 -0.8714  0.3580 -1.0643
  663SOL     OW 1987   1.460   2.442   2.429  0.0654  0.1989  0.1154
  663SOL    HW1 1988   1.415   2.440   2.518 -0.6561  2.8468  1.5094
  663SOL    HW2 1989   1.389   2.474   2.358 -0.7066 -0.6795 -1.8063
  664SOL     OW 1990   0.602   2.252   1.334 -0.5764 -0.0786 -0.5513
  664SOL    HW1 1991   0.685   2.313   1.334 -0.3663  0.2222 -1.0608
  664SOL    HW2 1992   0.617   2.162   1.379 -2.5863 -1.8036  3.3237
  665SOL     OW 1993   1.190   2.032   1.754 -0.0552 -0.0520 -0.2620
  665SOL    HW1 1994   1.090   2.031   1.744 -1.3824  0.9153 -2.2151
  665SOL    HW2 1995   1.223   2.026   1.658 -0.4198 -2.0285  1.6414
  666SOL     OW 1996   0.501   2.919   2.862 -0.2716 -0.4401 -0.2267
  666SOL    HW1 1997   0.494   2.936   2.759 -1.6424  0.5032 -1.8201
  666SOL    HW2 1998   0.467   2.824   2.887  0.8316 -1.5073  2.6719
  667SOL     OW 1999   1.359   1.738   1.076 -0.0583  0.1542 -0.3842
  667SOL    HW1 2000   1.357   1.639   1.104 -0.8316  0.3947  1.1663
  667SOL    HW2 2001   1.302   1.796   1.141  1.1448  0.5438  1.3288
  668SOL     OW 2002   1.037   0.173   2.423  0.1693 -0.3650 -0.4687
  668SOL    HW1 2003   0.995   0.230   2.497  0.9324  0.7528  1.2308
  668SOL    HW2 2004   1.077   0.089   2.468 -0.3131  0.0756  1.3342
  669SOL     OW 2005   2.062   2.378   1.696 -0.3476  0.3625  0.0227
  669SOL    HW1 2006   2.001   2.295   1.697  0.6995 -0.7758  3.9573
  669SOL    HW2 2007   2.131   2.368   1.619  0.2555  0.2767 -0.5938
  670SOL     OW 2008   1.933   1.938   0.233  0.0460 -0.2742  0.1387
  670SOL    HW1 2009   1.972   2.025   0.259 -3.3642 -1.3450  0.1453
  670SOL    HW2 2010   1.928   1.916   0.135  2.0786  2.2247 -0.8666
  671SOL     OW 2011   1.258   1.018   0.903 -0.3039 -0.2696  0.3250
  671SOL    HW1 2012   1.328   0.962   0.858  0.1480  2.8145  1.1901
  671SOL    HW2 2013   1.298   1.106   0.929  1.0647 -1.6507 -0.4312
  672SOL     OW 2014   2.547   1.326   2.272  0.1335 -0.3045 -0.1590
  672SOL    HW1 2015   2.603   1.394   2.214 -1.8806 -1.0061 -2.9465
  672SOL    HW2 2016   2.615   1.265   2.321 -2.2113 -1.7734  3.0339
  673SOL     OW 2017   2.874   1.656   2.150  0.4154 -0.2773 -0.1963
  673SOL    HW1 2018   2.969   1.672   2.118 -3.1530 -0.3097  2.1498
  673SOL    HW2 2019   2.825   1.736   2.187 -0.6105 -3.8473  1.5115
  674SOL     OW 2020   1.003   2.497   2.580 -0.0950 -0.8382  0.4870
  674SOL    HW1 2021   0.928   2.561   2.559  3.7360 -1.8995 -2.0887
  674SOL    HW2 2022   0.971   2.402   2.610  0.6636  0.5549  2.7861
  675SOL     OW 2023   0.805   1.079   1.571  0.2968  0.1629 -0.1660
  675SOL    HW1 2024   0.829   0.990   1.526  0.1982  0.9009  0.2335
  675SOL    HW2 2025   0.875   1.115   1.635 -0.2042  1.4385 -1.9252
  676SOL     OW 2026   2.348   0.666   0.710 -0.4608  0.2735  0.1296
  676SOL    HW1 2027   2.366   0.701   0.615  2.3357 -2.6994  2.4547
  676SOL    HW2 2028   2.377   0.572   0.717  1.8715  1.7463 -1.1942
  677SOL     OW 2029   2.578   1.573   2.631 -0.0764  0.4505 -0.3875
  677SOL    HW1 2030   2.667   1.535   2.663 -2.5136 -2.2483  0.8844
  677SOL    HW2 2031   2.507   1.558   2.698  3.9222  2.6658 -2.7594
  678SOL     OW 2032   0.045   3.013   1.156 -0.0288  0.5585  0.2872
  678SOL    HW1 2033   3.072   3.032   1.099  0.8555  0.1122  0.5736
  678SOL    HW2 2034   0.079   3.097   1.200  0.1735 -0.8185 -0.0591
  679SOL     OW 2035   2.490   0.229   0.340 -0.1344  0.0148 -0.0358
  679SOL    HW1 2036   2.529   0.289   0.271  0.9438 -0.3839 -0.2471
  679SOL    HW2 2037   2.490   0.128   0.311 -1.8234  0.0550  0.3544
  680SOL     OW 2038   0.112   2.462   2.212  0.3036 -0.3504  0.3832
  680SOL    HW1 2039   0.211   2.433   2.199 -2.6085  0.8552  0.8329
  680SOL    HW2 2040   0.112   2.537   2.283 -0.1799 -1.8859  3.2076
  681SOL     OW 2041   2.178   1.722   1.451  0.2332 -0.0525 -0.9014
  681SOL    HW1 2042   2.094   1.776   1.434 -1.9441  0.1992 -1.3455
  681SOL    HW2 2043   2.145   1.626   1.461 -0.7231 -0.1549  1.4820
  682SOL     OW 2044   3.099   2.227   2.282  0.0447  0.0833  0.2546
  682SOL    HW1 2045   3.047   2.190   2.204  0.3883 -3.0859 -2.7007
  682SOL    HW2 2046   0.050   2.306   2.254  1.6134  0.3881  1.0813
  683SOL     OW 2047   2.922   2.118   1.337 -0.2199 -0.7542 -0.2868
  683SOL    HW1 2048   2.884   2.026   1.330  2.1939  2.3498 -0.4310
  683SOL    HW2 2049   2.853   2.177   1.298  1.9690  0.8105  0.3101
  684SOL     OW 2050   2.149   1.101   2.271 -0.5396 -0.1565 -0.5672
  684SOL    HW1 2051   2.183   1.142   2.361  0.0255 -2.6480  1.7581
  684SOL    HW2 2052   2.227   1.116   2.207  0.1004  1.9432  1.8587
  685SOL     OW 2053   1.421   1.047   0.544  0.5655 -0.3010  0.0790
  685SOL    HW1 2054   1.434   0.968   0.604  0.0368  2.2939 -0.9608
  685SOL    HW2 2055   1.491   1.114   0.567 -1.8778 -0.2937 -1.3172
  686SOL     OW 2056   0.580   3.035   0.880  0.5099 -0.2326  0.3498
  686SOL    HW1 2057   0.544   3.074   0.970 -0.4206 -0.9703  0.7515
  686SOL    HW2 2058   0.636   3.104   0.828  3.0146 -0.6192 -2.9906
  687SOL     OW 2059   1.621   1.418   2.312  0.4315  0.3558 -0.3585
  687SOL    HW1 2060   1.651   1.407   2.409  1.0761 -1.5820  0.5057
  687SOL    HW2 2061   1.546   1.487   2.305  1.0479  0.4423 -1.2137
  688SOL     OW 2062   1.186   1.724   1.490 -0.1002 -0.1298  0.0399
  688SOL    HW1 2063   1.112   1.671   1.451  1.1439 -0.3670  0.6193
  688SOL    HW2 2064   1.207   1.681   1.580 -1.1308  0.0487 -1.6250
  689SOL     OW 2065   2.023   0.320   1.278  0.1149 -0.4945 -0.5317
  689SOL    HW1 2066   2.037   0.287   1.184  2.9697  0.8873 -1.2890
  689SOL    HW2 2067   2.103   0.288   1.335  1.8198 -3.3469  1.2807
  690SOL     OW 2068   0.019   1.729   1.070 -0.2548  0.0320  0.2211
  690SOL    HW1 2069   0.100   1.796   1.060 -0.9842  1.1032  2.3514
  690SOL    HW2 2070   0.019   1.670   0.986  3.4474 -0.1331  0.1032
  691SOL     OW 2071   0.532   2.550   1.063 -0.1459 -0.5088  0.0359
  691SOL    HW1 2072   0.629   2.580   1.048  2.4089 -1.0834  0.2242
  691SOL    HW2 2073   0.495   2.488   0.988  0.1999 -2.4146 -0.2842
  692SOL     OW 2074   2.259   0.285   1.860 -0.4633  0.1948 -0.4043
  692SOL    HW1 2075   2.251   0.188   1.889 -0.3725 -1.5026  0.7113
  692SOL    HW2 2076   2.169   0.326   1.840 -1.9040  1.8859  0.4512
  693SOL     OW 2077   0.364   2.127   2.047  0.5207 -0.3015  0.4090
  693SOL    HW1 2078   0.432   2.106   1.975 -1.6202  0.9963  0.2345
  693SOL    HW2 2079   0.317   2.048   2.090  1.4951 -0.1396  0.7931
  694SOL     OW 2080   1.625   1.143   1.586  0.2073 -0.8496  0.3739
  694SOL    HW1 2081   1.535   1.130   1.536 -0.2621 -1.6912  1.0593
  694SOL    HW2 2082   1.695   1.200   1.538  0.6597 -1.9219  0.3641
  695SOL     OW 2083   0.530   1.242   0.842  0.0734 -0.9947 -0.2222
  695SOL    HW1 2084   0.513   1.317   0.777 -1.8718 -0.0376  2.1100
  695SOL    HW2 2085   0.630   1.221   0.864  0.1758 -0.4153 -0.8513
  696SOL     OW 2086   1.258   0.060   0.764 -0.1268 -0.3788 -0.1622
  696SOL    HW1 2087   1.272   0.118   0.683  2.4680  1.3130  1.4462
  696SOL    HW2 2088   1.278   0.113   0.848 -0.5095 -0.9425 -0.7388
  697SOL     OW 2089   1.374   0.290   1.797  0.3356 -0.8405  0.4336
  697SOL    HW1 2090   1.391   0.334   1.888 -0.5861  0.4495  2.5133
  697SOL    HW2 2091   1.298   0.221   1.802 -2.0768 -0.6167 -0.0309
  698SOL     OW 2092   1.915   1.141   2.161  0.6224  0.0453 -0.1392
  698SOL    HW1 2093   1.997   1.118   2.220 -0.5619 -0.3686 -0.8880
  698SOL    HW2 2094   1.890   1.240   2.176 -1.2314 -3.6898  4.7661
  699SOL     OW 2095   2.255   0.209   1.448  1.2683 -0.2135 -0.1675
  699SOL    HW1 2096   2.302   0.274   1.511  1.0649  0.7243 -2.1366
  699SOL    HW2 2097   2.174   0.161   1.495  0.4363 -2.0899 -0.1550
  700SOL     OW 2098   0.979   2.135   0.402  0.0803 -0.2655 -0.2469
  700SOL    HW1 2099   0.973   2.056   0.340  0.5779 -1.4462 -0.5263
  700SOL    HW2 2100   1.012   2.104   0.491  1.1298  0.9140  0.2682
  701SOL     OW 2101   2.206   2.769   2.769 -0.0319 -0.5798  0.2021
  701SOL    HW1 2102   2.255   2.724   2.693  1.1657 -2.3998 -0.1266
  701SOL    HW2 2103   2.141   2.705   2.813 -1.3957 -0.3488 -2.7452
  702SOL     OW 2104   1.000   0.030   1.203 -0.1944 -0.0704  0.3856
  702SOL    HW1 2105   0.918   3.092   1.158 -0.6909 -0.7064 -0.7628
  702SOL    HW2 2106   1.032   0.101   1.140  0.0253 -2.2270 -0.3836
  703SOL     OW 2107   2.504   0.179   2.234 -0.5778  0.3153 -0.4395
  703SOL    HW1 2108   2.410   0.190   2.276  0.7336  0.3084 -1.0946
  703SOL    HW2 2109   2.513   0.085   2.200 -0.6062  0.1754 -0.0303
  704SOL     OW 2110   0.164   2.111   0.128  0.7190 -0.3453 -0.6020
  704SOL    HW1 2111   0.176   2.046   0.203 -1.1169 -0.5362 -3.7279
  704SOL    HW2 2112   0.066   2.145   0.120  0.0383 -1.9666 -1.1347
  705SOL     OW 2113   2.549   3.001   2.183  0.1374 -0.0774 -0.0143
  705SOL    HW1 2114   2.531   2.947   2.098  0.8789 -0.5784 -4.1450
  705SOL    HW2 2115   2.599   2.947   2.250 -1.3448  2.0731 -0.5092
  706SOL     OW 2116   2.296   2.716   1.023  0.1748  0.3440  0.1363
  706SOL    HW1 2117   2.231   2.643   1.049 -2.0854 -1.3958  1.0204
  706SOL    HW2 2118   2.375   2.714   1.084 -0.0524 -2.3630 -0.6077
  707SOL     OW 2119   0.947   2.884   2.372 -0.2006  0.0664  0.5089
  707SOL    HW1 2120   0.986   2.873   2.276  1.5558  0.1953 -5.1261
  707SOL    HW2 2121   0.904   2.975   2.377  0.0146  1.7641  1.6769
  708SOL     OW 2122   2.742   2.254   1.727  0.2721  0.0930  0.0303
  708SOL    HW1 2123   2.754   2.245   1.828 -0.0487 -0.1603 -0.4946
  708SOL    HW2 2124   2.813   2.196   1.682  0.8473  1.0215 -1.6442
  709SOL     OW 2125   1.544   0.561   1.434  0.1458  0.0819 -0.2942
  709SOL    HW1 2126   1.518   0.607   1.347  2.2403  1.5315  0.1689
  709SOL    HW2 2127   1.637   0.521   1.423 -1.2778  2.9411 -0.3409
  710SOL     OW 2128   0.902   0.033   2.672  0.1307  0.2502  0.4650
  710SOL    HW1 2129   0.977   3.097   2.622  0.4019 -0.7553  0.1216
  710SOL    HW2 2130   0.913   0.133   2.687  1.1126 -2.5684 -0.7022
  711SOL     OW 2131   0.756   1.835   2.588  0.1064  0.2398 -0.8106
  711SOL    HW1 2132   0.665   1.881   2.574  1.8926 -1.0367  0.4142
  711SOL    HW2 2133   0.760   1.778   2.668 -0.7579  1.7582 -2.1921
  712SOL     OW 2134   0.958   2.050   3.099  0.2114 -0.6310 -0.6128
  712SOL    HW1 2135   0.872   1.993   0.012  0.3076 -0.7708  0.1444
  712SOL    HW2 2136   0.981   2.047   3.000 -3.3536  2.8851  0.6744
  713SOL     OW 2137   2.033   0.876   2.373 -0.0216  0.1572  0.1571
  713SOL    HW1 2138   2.083   0.956   2.340  2.8619  2.3098  2.8388
  713SOL    HW2 2139   1.989   0.815   2.298 -2.7886 -0.5485 -3.9108
  714SOL     OW 2140   1.039   1.680   1.841 -0.2861 -0.3103  0.3805
  714SOL    HW1 2141   1.132   1.717   1.852 -0.8281 -0.5156 -0.4330
  714SOL    HW2 2142   0.967   1.741   1.803 -0.1323 -0.6371  1.5441
  715SOL     OW 2143   2.017   0.343   0.067 -0.1668  0.2322 -0.3267
  715SOL    HW1 2144   2.061   0.417   0.118 -3.0935 -4.8539  0.1541
  715SOL    HW2 2145   2.071   0.314   3.092 -3.8758  2.7135 -0.3252
  716SOL     OW 2146   2.682   2.315   1.434 -0.0802 -0.3604  0.0018
  716SOL    HW1 2147   2.695   2.289   1.529  1.2954 -2.6238 -1.6006
  716SOL    HW2 2148   2.764   2.374   1.405  1.7436 -3.1180  1.3936
  717SOL     OW 2149   2.656   1.109   0.882  0.5222 -0.3219 -0.3170
  717SOL    HW1 2150   2.572   1.053   0.882  0.5151  2.1532  0.3800
  717SOL    HW2 2151   2.707   1.113   0.793  1.1055 -1.1724 -1.2844
  718SOL     OW 2152   1.342   1.569   1.693  0.0536  0.5946  0.2988
  718SOL    HW1 2153   1.441   1.557   1.672 -0.5966  1.3308 -0.4679
  718SOL    HW2 2154   1.319   1.649   1.753  1.4587 -0.8119  0.4198
  719SOL     OW 2155   2.819   0.510   0.088 -0.9533  0.0332  0.4723
  719SOL    HW1 2156   2.816   0.571   0.005 -1.4431 -1.9488 -2.4149
  719SOL    HW2 2157   2.891   0.438   0.073  3.8714  1.4447 -3.4342
  720SOL     OW 2158   0.835   0.254   0.969  0.0325 -0.0847 -0.3351
  720SOL    HW1 2159   0.885   0.341   0.948 -1.5519 -1.6579  1.8797
  720SOL    HW2 2160   0.829   0.192   0.889  2.8025 -1.7640  0.1278
  721SOL     OW 2161   2.637   0.885   0.657  0.0368  0.0914  0.0234
  721SOL    HW1 2162   2.624   0.853   0.559  0.4234  1.2313 -0.9817
  721SOL    HW2 2163   2.703   0.960   0.656 -1.1629 -1.4196 -0.5283
  722SOL     OW 2164   0.579   2.790   2.450 -0.5581 -0.4001  0.1850
  722SOL    HW1 2165   0.657   2.763   2.506 -0.7144 -2.8951 -2.8375
  722SOL    HW2 2166   0.525   2.701   2.426  0.4156 -3.0637 -0.3681
  723SOL     OW 2167   1.881   0.476   0.698  0.6084  0.5371  0.0646
  723SOL    HW1 2168   1.904   0.492   0.797  1.7354 -0.1689 -0.5616
  723SOL    HW2 2169   1.831   0.388   0.692 -0.7696 -2.6752  1.7560
  724SOL     OW 2170   1.109   1.958   2.313  0.5329 -0.4605  0.2758
  724SOL    HW1 2171   1.026   1.984   2.367 -0.7210  1.6684 -0.8950
  724SOL    HW2 2172   1.093   1.881   2.243  1.8536  0.2268 -3.5302
  725SOL     OW 2173   1.685   2.986   1.436  0.3640  0.1774  0.0616
  725SOL    HW1 2174   1.600   2.980   1.380 -0.6363 -3.8474  0.2511
  725SOL    HW2 2175   1.698   2.901   1.494  1.4168 -0.3469  2.3151
  726SOL     OW 2176   2.448   2.770   0.066  0.3512 -0.2828  0.0041
  726SOL    HW1 2177   2.441   2.817   3.084 -0.1354  0.2265  0.7952
  726SOL    HW2 2178   2.543   2.759   0.085 -1.7875  0.7973  0.0010
  727SOL     OW 2179   1.218   2.073   0.919  0.2072 -0.6119  0.3648
  727SOL    HW1 2180   1.308   2.057   0.868 -0.3691 -1.6023  0.4745
  727SOL    HW2 2181   1.168   2.160   0.888 -1.0998  0.3792  1.3433
  728SOL     OW 2182   2.282   2.687   2.483  0.0617 -0.6401  0.2359
  728SOL    HW1 2183   2.310   2.786   2.499  0.3352  1.8267  0.1833
  728SOL    HW2 2184   2.186   2.679   2.459  1.0216 -0.7629 -0.2488
  729SOL     OW 2185   1.843   2.154   1.373  0.1377  0.1994  0.5284
  729SOL    HW1 2186   1.893   2.196   1.294 -0.1461 -2.9214 -1.3131
  729SOL    HW2 2187   1.747   2.189   1.375 -0.8230 -1.9043 -1.3630
  730SOL     OW 2188   1.726   0.623   2.760 -0.1423  0.2152 -0.0776
  730SOL    HW1 2189   1.641   0.664   2.717  1.5597 -1.6657  2.3636
  730SOL    HW2 2190   1.811   0.647   2.706 -1.2630  1.5735  0.1558
  731SOL     OW 2191   0.810   0.120   1.465 -0.5789  0.2187  0.0488
  731SOL    HW1 2192   0.856   0.192   1.516  0.0454 -3.2500 -0.7936
  731SOL    HW2 2193   0.768   0.046   1.521  1.6576  2.3182 -1.8622
  732SOL     OW 2194   1.404   0.179   0.983  0.6418 -0.0881  0.0922
  732SOL    HW1 2195   1.314   0.210   1.024  0.8644  1.2583  1.7171
  732SOL    HW2 2196   1.488   0.217   1.032  0.4164 -2.2075  0.5197
  733SOL     OW 2197   0.802   1.210   0.930 -0.4339 -0.6218  0.3219
  733SOL    HW1 2198   0.811   1.110   0.914 -0.8068  1.0316  2.4480
  733SOL    HW2 2199   0.763   1.237   1.020  0.9974  0.1339  0.4456
  734SOL     OW 2200   2.718   2.797   2.711  0.0465  0.6662 -0.3070
  734SOL    HW1 2201   2.647   2.860   2.677  0.8739  2.2544 -1.7416
  734SOL    HW2 2202   2.770   2.750   2.637 -2.0262  2.2460  2.6307
  735SOL     OW 2203   0.695   3.051   1.645 -0.8243  0.2345 -0.3400
  735SOL    HW1 2204   0.730   2.960   1.659 -1.0164  2.0407  2.7316
  735SOL    HW2 2205   0.605   3.054   1.694 -1.0773  1.1606  1.5729
  736SOL     OW 2206   1.674   1.969   3.059  0.1999  0.6080  0.2012
  736SOL    HW1 2207   1.591   1.911   3.080  0.8646  0.0529 -1.2901
  736SOL    HW2 2208   1.681   2.044   0.020  0.3587 -0.4263 -1.6002
  737SOL     OW 2209   0.087   2.160   1.354  0.3396 -0.1856  0.4760
  737SOL    HW1 2210   0.124   2.170   1.259 -2.9876 -1.2573  0.3231
  737SOL    HW2 2211   3.090   2.174   1.357  0.1907  2.5626 -1.7122
  738SOL     OW 2212   1.803   2.597   2.988 -0.0410 -0.1864  0.0306
  738SOL    HW1 2213   1.715   2.639   2.954  0.2893 -0.9819 -2.1491
  738SOL    HW2 2214   1.826   2.617   3.084 -1.6374 -0.2521 -0.9980
  739SOL     OW 2215   1.304   2.156   2.363  0.6093 -0.2104  0.1259
  739SOL    HW1 2216   1.330   2.148   2.463 -0.3976 -0.6437  1.0392
  739SOL    HW2 2217   1.231   2.087   2.342  0.3213 -3.4175  4.0445
  740SOL     OW 2218   1.173   2.682   1.342 -0.2825  0.7827 -0.2722
  740SOL    HW1 2219   1.226   2.602   1.304 -0.5616  0.0912  2.5004
  740SOL    HW2 2220   1.209   2.772   1.319 -3.5475 -0.1381  1.1803
  741SOL     OW 2221   2.835   1.118   0.205 -0.0671 -0.1637 -0.3029
  741SOL    HW1 2222   2.768   1.182   0.246 -0.0375  2.7484  3.5604
  741SOL    HW2 2223   2.915   1.161   0.154 -3.0294 -2.3741 -1.6790
  742SOL     OW 2224   0.920   1.675   2.472  0.5597 -0.1270 -0.3240
  742SOL    HW1 2225   0.906   1.662   2.373  1.5940  1.3826 -0.5366
  742SOL    HW2 2226   0.865   1.755   2.507 -1.2900  2.0432  1.5915
  743SOL     OW 2227   0.961   0.898   2.394  0.1378  0.0877  0.3915
  743SOL    HW1 2228   0.866   0.932   2.419 -3.2231 -1.2138  0.2066
  743SOL    HW2 2229   0.978   0.799   2.410  0.6259 -2.0040  1.2846
  744SOL     OW 2230   2.081   2.710   1.519  0.0741 -0.5064 -0.0341
  744SOL    HW1 2231   2.040   2.713   1.611  0.0570  0.1454  0.7925
  744SOL    HW2 2232   2.087   2.805   1.484 -1.6237 -0.7427 -0.6074
  745SOL     OW 2233   1.615   1.326   1.261  0.5374 -0.3217  0.4979
  745SOL    HW1 2234   1.531   1.365   1.313  0.4980 -2.5300  1.1314
  745SOL    HW2 2235   1.682   1.289   1.330 -1.6489 -0.7124 -0.4590
  746SOL     OW 2236   1.656   0.736   0.815 -0.2012  0.3527 -0.1085
  746SOL    HW1 2237   1.672   0.817   0.876 -3.5841  2.0778 -0.1448
  746SOL    HW2 2238   1.716   0.743   0.736  1.4966 -2.1038 -0.3549
  747SOL     OW 2239   2.027   1.721   0.806 -0.0032 -0.3249  0.2803
  747SOL    HW1 2240   2.114   1.737   0.760 -1.1634 -0.8243 -0.6761
  747SOL    HW2 2241   1.969   1.660   0.750  1.9197  1.6409 -0.4726
  748SOL     OW 2242   0.541   1.567   0.184  0.3842 -0.5593 -0.5588
  748SOL    HW1 2243   0.525   1.627   0.265 -2.5621  1.1344 -1.8920
  748SOL    HW2 2244   0.511   1.608   0.100  1.7375  1.8190  0.1399
  749SOL     OW 2245   0.086   2.495   2.622 -0.4096  0.6444  0.2014
  749SOL    HW1 2246   0.051   2.405   2.645  0.6571  1.1557 -1.8965
  749SOL    HW2 2247   0.036   2.568   2.675  0.2982  0.9484 -0.1117
  750SOL     OW 2248   2.078   0.685   1.197  0.0423  0.4950 -0.5907
  750SOL    HW1 2249   2.118   0.643   1.283  0.4176  0.3250  2.7579
  750SOL    HW2 2250   2.006   0.758   1.209 -1.5429  1.2245 -0.3571
  751SOL     OW 2251   2.567   3.075   0.260  0.6566  0.0748 -0.3053
  751SOL    HW1 2252   2.588   3.091   0.161 -2.1831  1.5499  1.2601
  751SOL    HW2 2253   2.636   3.017   0.307 -1.4017  0.2576  0.1172
  752SOL     OW 2254   2.398   2.402   0.440 -0.0797  0.3436  0.3978
  752SOL    HW1 2255   2.361   2.473   0.508  1.9289  1.3383 -1.5145
  752SOL    HW2 2256   2.454   2.334   0.488 -2.5643 -0.6328  1.9952
  753SOL     OW 2257   1.932   1.562   2.446 -0.5331  0.3570 -0.2774
  753SOL    HW1 2258   2.024   1.562   2.491 -2.7957  0.4662 -1.3244
  753SOL    HW2 2259   1.944   1.577   2.345  0.0555  0.5309  2.4449
  754SOL     OW 2260   2.184   2.270   1.458 -0.0020 -0.3539 -0.4773
  754SOL    HW1 2261   2.177   2.178   1.419  1.5310  0.5288  1.8860
  754SOL    HW2 2262   2.281   2.286   1.496  1.3229  2.1218  2.1144
  755SOL     OW 2263   2.195   0.893   1.074  0.4409 -0.3897 -0.9151
  755SOL    HW1 2264   2.120   0.963   1.089 -4.1650  3.6102 -3.7103
  755SOL    HW2 2265   2.169   0.807   1.121 -3.6204 -1.4043 -0.9303
  756SOL     OW 2266   1.332   1.582   2.593 -0.1347  0.2241 -0.5603
  756SOL    HW1 2267   1.295   1.496   2.565 -1.8009  1.3046  2.0323
  756SOL    HW2 2268   1.348   1.647   2.517  1.0223 -1.9349  1.1090
  757SOL     OW 2269   1.761   2.551   1.131 -0.6931 -0.2446  0.5378
  757SOL    HW1 2270   1.824   2.620   1.171 -0.0754 -1.2555 -0.7046
  757SOL    HW2 2271   1.697   2.602   1.068 -1.3365  1.7241  0.7999
  758SOL     OW 2272   0.865   2.342   1.361  0.0632 -0.0239  0.1259
  758SOL    HW1 2273   0.924   2.296   1.429  0.6796  0.8082 -3.8030
  758SOL    HW2 2274   0.909   2.348   1.265 -0.5914  2.0421 -1.2176
  759SOL     OW 2275   1.994   1.079   1.046 -0.5887 -0.7213  0.3072
  759SOL    HW1 2276   1.963   1.146   1.115 -0.0801 -1.3744  1.3926
  759SOL    HW2 2277   2.054   1.113   0.970 -0.4415 -0.6576  1.0060
  760SOL     OW 2278   2.147   1.035   1.423  0.0710 -0.4212 -0.1599
  760SOL    HW1 2279   2.070   1.065   1.366 -1.8292 -1.1785  0.8926
  760SOL    HW2 2280   2.176   1.112   1.486  0.5385 -0.2703  0.6031
  761SOL     OW 2281   2.286   2.763   0.278 -0.1763  0.2977 -0.5210
  761SOL    HW1 2282   2.286   2.859   0.309  0.4135 -0.1015  0.1021
  761SOL    HW2 2283   2.340   2.757   0.194 -1.2244 -0.1749  0.2747
  762SOL     OW 2284   2.036   1.594   2.905 -0.1479  0.0738 -0.1409
  762SOL    HW1 2285   2.081   1.644   2.828 -0.7163 -1.6995  0.5142
  762SOL    HW2 2286   2.006   1.653   2.984  1.5672  0.2349  0.2552
  763SOL     OW 2287   0.262   1.663   1.480  0.8431  0.1501 -0.1125
  763SOL    HW1 2288   0.233   1.759   1.458  0.9542  1.3220 -0.2953
  763SOL    HW2 2289   0.307   1.664   1.572 -0.9720 -0.6203  0.2711
  764SOL     OW 2290   0.026   2.462   3.053 -0.1949 -0.0644  0.5488
  764SOL    HW1 2291   3.087   2.378   3.091  3.2482 -2.2218  1.2510
  764SOL    HW2 2292   0.077   2.434   2.968  2.9952  0.0923  0.4207
  765SOL     OW 2293   0.563   0.118   1.960 -0.3266  0.6707 -0.1645
  765SOL    HW1 2294   0.656   0.115   1.922 -0.6852  0.8642 -1.0656
  765SOL    HW2 2295   0.562   0.156   2.056  0.4027  0.3580  2.3503
  766SOL     OW 2296   0.114   2.012   2.393 -0.6608 -0.5340 -0.2386
  766SOL    HW1 2297   0.067   2.087   2.340  1.3963  1.1584  0.4314
  766SOL    HW2 2298   0.045   1.937   2.397 -2.1900  1.5213  1.6439
  767SOL     OW 2299   3.030   1.359   1.811  0.0390 -0.0555  0.1513
  767SOL    HW1 2300   3.001   1.310   1.899  2.3879  0.2538 -0.5479
  767SOL    HW2 2301   2.976   1.443   1.792 -0.9953 -0.0481 -0.5927
  768SOL     OW 2302   1.026   0.518   2.977  0.4068  0.2255  0.1735
  768SOL    HW1 2303   1.078   0.432   2.946  1.5388 -1.3550  1.5948
  768SOL    HW2 2304   1.019   0.525   3.076  1.6256 -0.1203 -0.0354
  769SOL     OW 2305   2.216   2.374   0.716  0.2967  0.3768 -0.1675
  769SOL    HW1 2306   2.304   2.362   0.770 -0.9610 -2.8932  1.0486
  769SOL    HW2 2307   2.211   2.455   0.656  0.6540 -5.3046 -2.0220
  770SOL     OW 2308   2.852   0.389   2.856  0.1680 -0.2261  0.0622
  770SOL    HW1 2309   2.907   0.351   2.935  3.4247  0.1657  2.3412
  770SOL    HW2 2310   2.787   0.314   2.835  0.7604  0.2268  1.2175
  771SOL     OW 2311   1.656   2.265   1.754  0.0960 -0.2492  0.7651
  771SOL    HW1 2312   1.753   2.252   1.731 -1.1130  0.8383  2.5677
  771SOL    HW2 2313   1.615   2.173   1.763  0.2094  0.8024  1.8866
  772SOL     OW 2314   0.933   0.308   2.665  0.0691  0.4552  0.0667
  772SOL    HW1 2315   0.836   0.343   2.657 -1.7448  1.4641  1.2438
  772SOL    HW2 2316   0.997   0.391   2.647  1.3510  1.4368 -1.7160
  773SOL     OW 2317   2.812   0.992   1.621 -0.3476  0.2540 -0.0392
  773SOL    HW1 2318   2.868   0.969   1.542 -0.5233 -0.2693 -1.4521
  773SOL    HW2 2319   2.799   0.909   1.679  0.6136  1.7917  0.9052
  774SOL     OW 2320   1.202   0.899   0.417  0.7283  0.2140 -0.3256
  774SOL    HW1 2321   1.140   0.949   0.350  2.0429 -0.8776 -0.4574
  774SOL    HW2 2322   1.269   0.968   0.454  0.3889  2.6581 -1.3629
  775SOL     OW 2323   2.609   3.094   3.083 -0.0457  0.2324 -0.2353
  775SOL    HW1 2324   2.583   0.085   3.067 -0.4870 -1.5416  1.1208
  775SOL    HW2 2325   2.537   3.041   3.040 -1.5795  1.7057  1.3083
  776SOL     OW 2326   2.506   0.964   1.987 -0.1278 -0.3591  0.0258
  776SOL    HW1 2327   2.487   0.965   1.888  2.1228 -1.9706  0.9498
  776SOL    HW2 2328   2.474   0.874   2.025  0.7198  1.6985  1.3565
  777SOL     OW 2329   3.104   1.182   2.544  0.4141 -0.1291 -0.2310
  777SOL    HW1 2330   3.077   1.096   2.594  1.4720 -1.7350 -3.9483
  777SOL    HW2 2331   3.028   1.249   2.535  3.2542  1.2411  1.8773
  778SOL     OW 2332   0.683   0.202   0.544 -0.6864  0.0467 -0.0604
  778SOL    HW1 2333   0.738   0.245   0.471  0.6341 -1.1689 -0.8641
  778SOL    HW2 2334   0.674   0.107   0.518 -0.4037  1.8597 -1.2756
  779SOL     OW 2335   0.529   0.604   2.793 -0.1045  0.2636 -0.1115
  779SOL    HW1 2336   0.543   0.630   2.889 -1.9812  0.8267  1.5551
  779SOL    HW2 2337   0.431   0.589   2.776  1.2376  0.0821  1.4139
  780SOL     OW 2338   1.800   0.927   2.490 -0.3803  0.1003  0.4566
  780SOL    HW1 2339   1.893   0.935   2.445  0.0917  0.2651  0.0399
  780SOL    HW2 2340   1.782   0.828   2.506  0.7565 -0.8792  0.1832
  781SOL     OW 2341   0.150   0.989   1.740  0.5604 -0.0603  0.1117
  781SOL    HW1 2342   0.232   0.927   1.741 -1.1837 -0.2771 -0.6665
  781SOL    HW2 2343   0.105   1.005   1.832 -4.1667  1.2958 -0.2262
  782SOL     OW 2344   0.741   1.632   2.791 -0.3365 -0.2652  0.4413
  782SOL    HW1 2345   0.812   1.580   2.740 -0.5075 -1.4382 -2.2529
  782SOL    HW2 2346   0.755   1.628   2.887  0.3287  1.5456 -2.2978
  783SOL     OW 2347   0.860   2.544   1.686 -0.1765  0.0055  0.0987
  783SOL    HW1 2348   0.772   2.503   1.662  2.3242 -0.7550 -0.9416
  783SOL    HW2 2349   0.916   2.571   1.607 -1.4648  0.0090 -1.3331
  784SOL     OW 2350   1.343   0.357   2.915 -0.2292  0.3952 -0.2965
  784SOL    HW1 2351   1.311   0.441   2.877  0.2470 -0.8664 -0.2542
  784SOL    HW2 2352   1.426   0.379   2.972 -0.9568  0.7702 -1.5118
  785SOL     OW 2353   1.118   0.492   2.600  0.6748  0.0260 -0.5828
  785SOL    HW1 2354   1.135   0.559   2.674 -2.8916  3.3382  1.8318
  785SOL    HW2 2355   1.207   0.466   2.549  2.2851 -2.4060 -0.3678
  786SOL     OW 2356   0.484   1.722   0.394 -0.0834  0.1854 -0.0454
  786SOL    HW1 2357   0.414   1.733   0.465  0.6699  2.1439 -0.6540
  786SOL    HW2 2358   0.547   1.804   0.397  1.4705 -1.4819  1.1208
  787SOL     OW 2359   1.500   0.950   0.294  0.3755  0.1457 -0.0241
  787SOL    HW1 2360   1.484   0.993   0.205  1.5055  0.3179  0.1045
  787SOL    HW2 2361   1.450   0.989   0.371  0.1002  0.3272 -0.0864
  788SOL     OW 2362   1.902   1.590   1.351 -0.3493  0.2722  0.2746
  788SOL    HW1 2363   1.916   1.692   1.361 -0.8039  0.3513 -1.0351
  788SOL    HW2 2364   1.931   1.542   1.437  1.0393  0.6865 -0.5264
  789SOL     OW 2365   0.015   1.714   2.054 -0.2197  0.5713  0.3506
  789SOL    HW1 2366   0.051   1.716   1.958 -1.7891  1.0351 -0.0545
  789SOL    HW2 2367   0.082   1.665   2.113  1.0862  0.0422 -0.6748
  790SOL     OW 2368   0.751   2.844   0.198  0.6459  0.0330  0.1877
  790SOL    HW1 2369   0.650   2.869   0.194  0.5481  1.4806 -0.5591
  790SOL    HW2 2370   0.767   2.764   0.134  1.1623  1.4067  0.4663
  791SOL     OW 2371   0.428   0.246   0.339 -0.0447 -0.1766  0.0021
  791SOL    HW1 2372   0.490   0.264   0.418  2.0271  2.6259  1.8950
  791SOL    HW2 2373   0.481   0.235   0.254  2.5892  0.7240 -1.9647
  792SOL     OW 2374   1.697   0.670   2.395 -0.8174 -0.1210  0.6861
  792SOL    HW1 2375   1.755   0.598   2.436 -2.5195  0.4608 -0.3929
  792SOL    HW2 2376   1.744   0.724   2.324 -1.7749 -1.8776  1.4188
  793SOL     OW 2377   0.059   0.664   0.720 -0.2731  0.0462 -0.2571
  793SOL    HW1 2378   0.062   0.570   0.673  0.3674 -1.8972 -3.7234
  793SOL    HW2 2379   0.097   0.657   0.817  1.4229  0.0733  3.4541
  794SOL     OW 2380   0.467   0.480   1.662  0.9453  0.4988 -0.2198
  794SOL    HW1 2381   0.376   0.513   1.629  0.0487  3.8599  2.4298
  794SOL    HW2 2382   0.543   0.548   1.640 -0.1004 -1.0755  1.5036
  795SOL     OW 2383   0.106   1.072   0.015  0.4496 -0.0556 -0.0011
  795SOL    HW1 2384   0.206   1.067   0.040  1.3248  0.8173  0.2201
  795SOL    HW2 2385   0.092   1.092   3.021 -1.8880  1.4474 -0.5680
  796SOL     OW 2386   0.207   0.548   0.027  0.0996  0.2475 -0.0567
  796SOL    HW1 2387   0.255   0.504   0.107  0.8788 -0.2009 -0.6939
  796SOL    HW2 2388   0.164   0.631   0.052  0.9286 -0.4507  0.5488
  797SOL     OW 2389   1.357   2.520   0.021  0.0626  0.1137  0.4756
  797SOL    HW1 2390   1.300   2.599   0.042 -0.3647  2.7810 -1.2265
  797SOL    HW2 2391   1.315   2.466   3.053 -0.4428  1.7482  1.6324
  798SOL     OW 2392   2.914   0.574   0.855  0.3390  0.4465  0.2564
  798SOL    HW1 2393   2.850   0.546   0.782  1.1513  1.6383 -2.2342
  798SOL    HW2 2394   3.007   0.553   0.838 -2.6474 -0.8379  2.2531
  799SOL     OW 2395   2.782   0.836   1.846 -0.5856 -0.1449  0.1114
  799SOL    HW1 2396   2.711   0.900   1.875 -0.0236 -2.5498 -0.1540
  799SOL    HW2 2397   2.867   0.842   1.902 -0.3501 -1.5343  0.0798
  800SOL     OW 2398   0.009   2.011   0.395 -0.2174 -0.2981 -0.5900
  800SOL    HW1 2399   0.038   2.016   0.492  0.4433 -0.1420 -0.0472
  800SOL    HW2 2400   3.027   2.062   0.390 -0.1973 -1.9800  1.4074
  801SOL     OW 2401   1.462   2.046   0.784 -0.0341  1.1784  0.3316
  801SOL    HW1 2402   1.454   2.013   0.685  0.3057 -1.6109 -0.5546
  801SOL    HW2 2403   1.535   1.990   0.824 -1.7060  0.8835  0.0900
  802SOL     OW 2404   1.042   1.772   2.717 -0.3095  0.1163 -0.3663
  802SOL    HW1 2405   1.019   1.760   2.619  1.3768 -0.1346 -1.1681
  802SOL    HW2 2406   1.129   1.824   2.728  0.1235  0.5607  2.1498
  803SOL     OW 2407   2.903   2.065   1.612  0.2178  0.1647 -0.2364
  803SOL    HW1 2408   2.908   2.082   1.513 -0.3041  1.4539  3.7990
  803SOL    HW2 2409   2.993   2.033   1.652  1.0065 -1.6843 -1.0356
  804SOL     OW 2410   1.169   2.522   1.580 -0.1324 -0.2556 -0.4935
  804SOL    HW1 2411   1.181   2.602   1.637 -0.0224  2.8568 -0.8867
  804SOL    HW2 2412   1.129   2.554   1.492 -1.0014 -1.7740  2.1444
  805SOL     OW 2413   2.388   1.905   2.870 -0.0009  0.4748  0.5294
  805SOL    HW1 2414   2.341   1.977   2.812  0.0174 -0.4026 -0.8831
  805SOL    HW2 2415   2.448   1.844   2.816 -1.4578  2.3488 -0.4329
  806SOL     OW 2416   2.244   2.951   0.614 -0.1010 -0.0882  0.3281
  806SOL    HW1 2417   2.276   2.879   0.676 -0.8283  0.3538 -0.7972
  806SOL    HW2 2418   2.144   2.948   0.608 -0.0502  0.9307 -0.0250
  807SOL     OW 2419   2.796   0.626   2.964  0.6657 -0.2714  0.3187
  807SOL    HW1 2420   2.811   0.541   2.909 -2.0895 -1.1627 -1.3454
  807SOL    HW2 2421   2.701   0.654   2.959  2.9334 -1.1566  0.6196
  808SOL     OW 2422   0.675   1.301   0.516 -0.1714  0.2262 -0.5172
  808SOL    HW1 2423   0.706   1.309   0.417 -1.9283 -0.0578 -2.2515
  808SOL    HW2 2424   0.573   1.300   0.514  0.6991 -1.2258  0.4407
  809SOL     OW 2425   2.784   0.565   1.774  0.4499 -0.3866  0.0657
  809SOL    HW1 2426   2.755   0.662   1.790  0.4760  0.2958  0.1090
  809SOL    HW2 2427   2.760   0.543   1.678 -0.7242 -0.0440 -0.4565
  810SOL     OW 2428   1.068   0.588   1.207  0.6397 -0.5604 -0.1235
  810SOL    HW1 2429   1.025   0.589   1.115  2.0367  0.5155  0.4043
  810SOL    HW2 2430   1.158   0.543   1.197  0.4982  2.9939  3.9193
  811SOL     OW 2431   2.401   2.840   1.639  0.0041 -0.7041  0.2170
  811SOL    HW1 2432   2.324   2.900   1.664 -2.2699  1.0110 -1.2043
  811SOL    HW2 2433   2.369   2.747   1.655 -0.1736  1.6099  2.1300
  812SOL     OW 2434   1.716   2.189   0.101  0.9240 -0.3485 -0.5929
  812SOL    HW1 2435   1.660   2.221   0.180 -0.3950 -0.8747 -0.0948
  812SOL    HW2 2436   1.811   2.214   0.115 -1.5622 -1.2283  0.5326
  813SOL     OW 2437   1.268   0.705   1.641  0.2618  0.3802 -0.5098
  813SOL    HW1 2438   1.218   0.711   1.549  1.5601  0.0278 -1.2248
  813SOL    HW2 2439   1.367   0.706   1.625 -1.5367 -2.0359  2.3791
  814SOL     OW 2440   0.555   0.488   1.195 -0.6187 -0.0568  0.1081
  814SOL    HW1 2441   0.580   0.568   1.254 -1.3031  1.5358  3.5080
  814SOL    HW2 2442   0.607   0.406   1.224 -1.6553  0.3691  0.4503
  815SOL     OW 2443   0.489   0.366   0.651 -0.2999 -0.4475 -0.4781
  815SOL    HW1 2444   0.576   0.321   0.634 -2.6634  1.8375 -2.0070
  815SOL    HW2 2445   0.482   0.425   0.736 -2.7309  1.5234 -1.4204
  816SOL     OW 2446   2.186   1.485   2.551  0.0948 -0.1922  0.3031
  816SOL    HW1 2447   2.182   1.579   2.591  1.4994  0.2653 -1.7310
  816SOL    HW2 2448   2.271   1.468   2.498 -0.1408 -0.4750 -0.2380
  817SOL     OW 2449   1.334   2.846   0.906  0.1091  0.0268 -0.0369
  817SOL    HW1 2450   1.310   2.747   0.888 -2.0804  0.8127  0.5869
  817SOL    HW2 2451   1.378   2.891   0.826 -1.1615  1.2967 -3.7413
  818SOL     OW 2452   1.794   0.477   2.996 -0.0987 -0.0037 -0.1615
  818SOL    HW1 2453   1.853   0.534   3.050  0.4112  1.6798  3.2838
  818SOL    HW2 2454   1.792   0.512   2.900 -0.1887 -1.0966  1.1303
  819SOL     OW 2455   1.893   0.170   0.240  0.3005 -0.2243 -0.0256
  819SOL    HW1 2456   1.941   0.227   0.167  0.5015  2.7668 -2.5671
  819SOL    HW2 2457   1.930   0.081   0.244 -1.2104  3.8898 -0.4621
  820SOL     OW 2458   1.943   0.661   0.011 -0.1016 -0.3708 -0.3612
  820SOL    HW1 2459   1.978   0.749   3.075  4.0983  1.6022  1.3626
  820SOL    HW2 2460   1.940   0.667   0.113 -2.7924  1.6707 -2.2189
  821SOL     OW 2461   2.710   0.509   0.593  0.4696 -0.3948 -0.4799
  821SOL    HW1 2462   2.732   0.608   0.602 -0.3746  0.6212  2.2939
  821SOL    HW2 2463   2.782   0.459   0.541  1.8137 -0.4575 -1.7558
  822SOL     OW 2464   0.867   2.319   2.039 -0.0644  0.4935 -0.4222
  822SOL    HW1 2465   0.928   2.334   2.118  1.1797  0.9572 -1.2075
  822SOL    HW2 2466   0.828   2.225   2.044  0.6800 -4.2462 -2.9450
  823SOL     OW 2467   0.100   1.712   1.796 -0.3289  0.4370 -0.1851
  823SOL    HW1 2468   0.197   1.680   1.794 -0.2049  0.1052  0.1849
  823SOL    HW2 2469   0.040   1.654   1.741  1.4644  1.2038 -0.6498
  824SOL     OW 2470   1.539   2.845   2.655 -0.1229 -0.5876  0.4113
  824SOL    HW1 2471   1.576   2.779   2.590 -2.1342  0.9139 -0.0651
  824SOL    HW2 2472   1.519   2.804   2.747 -0.5829 -0.3768 -0.7772
  825SOL     OW 2473   1.810   0.740   0.587  0.6633  0.0802  0.1294
  825SOL    HW1 2474   1.845   0.646   0.597  1.2997  0.6501 -0.2365
  825SOL    HW2 2475   1.888   0.807   0.588  0.7865 -2.9528 -1.3176
  826SOL     OW 2476   2.039   0.900   3.032  0.1215  0.0372  0.0376
  826SOL    HW1 2477   2.125   0.923   3.080 -1.8263  0.8924 -0.4887
  826SOL    HW2 2478   1.961   0.949   3.080 -1.2892 -2.6805 -1.6889
  827SOL     OW 2479   0.400   1.730   1.986 -0.1395 -0.1673 -0.5330
  827SOL    HW1 2480   0.349   1.815   2.018  0.0730  1.2947  2.1846
  827SOL    HW2 2481   0.396   1.661   2.062  1.7378 -1.7116  3.2245
  828SOL     OW 2482   2.233   1.195   1.596 -0.1056 -0.2198 -0.3355
  828SOL    HW1 2483   2.330   1.210   1.569 -0.9545 -1.4770  0.5983
  828SOL    HW2 2484   2.218   1.202   1.696 -0.8713 -4.2615 -0.3328
  829SOL     OW 2485   0.228   1.722   0.195 -0.0125 -0.0906  0.0056
  829SOL    HW1 2486   0.270   1.742   0.288 -1.6159 -0.6442  2.9838
  829SOL    HW2 2487   0.133   1.753   0.195  2.5700  0.9266  1.1622
  830SOL     OW 2488   1.395   0.825   0.694 -0.0999  0.2177 -0.9910
  830SOL    HW1 2489   1.483   0.778   0.729  1.5515  0.1745  2.3674
  830SOL    HW2 2490   1.360   0.775   0.615 -1.4031  2.4101  1.6246
  831SOL     OW 2491   3.005   1.876   3.091  0.6692  0.0987 -0.3654
  831SOL    HW1 2492   3.033   1.913   3.000 -2.1552 -1.7232  2.9530
  831SOL    HW2 2493   3.026   1.778   3.103 -0.8701  1.4034  0.2087
  832SOL     OW 2494   1.068   0.250   0.286 -0.1190 -0.2750 -0.2032
  832SOL    HW1 2495   1.164   0.278   0.267 -3.6159  0.4661  1.6725
  832SOL    HW2 2496   1.018   0.230   0.198  2.8143 -3.8853  0.2193
  833SOL     OW 2497   0.601   0.684   1.947 -0.1717  0.5387 -0.6326
  833SOL    HW1 2498   0.619   0.620   2.022 -2.3769 -2.0939 -1.8723
  833SOL    HW2 2499   0.507   0.666   1.921 -0.4910  3.4188  3.1786
  834SOL     OW 2500   0.232   0.208   0.932 -0.2947  0.3904 -0.1311
  834SOL    HW1 2501   0.330   0.227   0.950  3.3703 -0.3620  0.1978
  834SOL    HW2 2502   0.214   0.215   0.831  2.6554 -0.4873  0.6485
  835SOL     OW 2503   2.783   2.729   1.093 -0.4329 -0.2024 -0.2774
  835SOL    HW1 2504   2.859   2.742   1.161 -0.5131 -4.0431 -0.2721
  835SOL    HW2 2505   2.749   2.821   1.063 -2.0283  1.4368  0.5095
  836SOL     OW 2506   0.438   1.876   0.087  0.7181  0.3447  0.2333
  836SOL    HW1 2507   0.457   1.929   0.173 -2.3361  0.3259 -1.4100
  836SOL    HW2 2508   0.366   1.805   0.102 -1.4749 -1.4264 -0.1652
  837SOL     OW 2509   1.732   1.401   2.555  0.3968  0.4630  0.6274
  837SOL    HW1 2510   1.706   1.431   2.649  0.6548  0.5067  0.3909
  837SOL    HW2 2511   1.799   1.464   2.505  1.1384  3.8716  1.4531
  838SOL     OW 2512   0.563   1.387   1.992 -0.3442 -0.4031 -0.2340
  838SOL    HW1 2513   0.660   1.387   1.959 -2.7193  0.1670  3.1709
  838SOL    HW2 2514   0.496   1.385   1.917  1.5288  1.7096  1.4436
  839SOL     OW 2515   0.199   1.399   0.917 -0.0172 -0.5573 -0.6397
  839SOL    HW1 2516   0.227   1.376   1.012 -1.9159 -0.2114 -0.5621
  839SOL    HW2 2517   0.190   1.314   0.863 -2.8567  1.5241 -1.2644
  840SOL     OW 2518   2.073   0.131   1.622  0.1120 -0.3898 -0.1949
  840SOL    HW1 2519   1.979   0.093   1.604 -1.9443 -1.2175 -0.9956
  840SOL    HW2 2520   2.127   0.054   1.652  0.1632  2.6522  1.0924
  841SOL     OW 2521   0.826   2.352   0.452  0.2365 -0.0119 -0.2486
  841SOL    HW1 2522   0.892   2.434   0.464 -0.2411  2.3861  0.3593
  841SOL    HW2 2523   0.876   2.265   0.435  0.0333  2.4490  1.4073
  842SOL     OW 2524   0.493   0.333   0.951 -0.5005  0.0786  0.1250
  842SOL    HW1 2525   0.515   0.407   1.016 -2.1967  2.8588  2.8452
  842SOL    HW2 2526   0.548   0.247   0.973  1.8626 -0.3546  2.1538
  843SOL     OW 2527   0.413   1.233   0.006 -0.2497  0.0800  0.2910
  843SOL    HW1 2528   0.451   1.143   0.044 -0.7194  1.8521  2.7691
  843SOL    HW2 2529   0.366   1.272   0.086  0.3748 -1.7243  2.1023
  844SOL     OW 2530   1.200   2.183   0.066  0.4044  0.2874  0.1273
  844SOL    HW1 2531   1.115   2.125   0.048 -1.2286 -0.5873  1.0306
  844SOL    HW2 2532   1.210   2.248   3.096  0.8435 -1.0237  1.0813
  845SOL     OW 2533   2.371   2.950   2.496 -0.0244 -0.3319  0.1184
  845SOL    HW1 2534   2.388   3.012   2.422 -5.1320 -2.2128  4.6889
  845SOL    HW2 2535   2.284   2.979   2.544 -2.5125  1.2865 -0.4991
  846SOL     OW 2536   2.000   2.006   3.040  0.4576  0.1360  0.1718
  846SOL    HW1 2537   2.020   2.083   2.979 -1.0218 -0.1783  0.2525
  846SOL    HW2 2538   1.936   1.940   2.993  1.4011  0.3181 -1.6704
  847SOL     OW 2539   2.551   0.262   3.070  0.9267 -0.4413  0.1229
  847SOL    HW1 2540   2.499   0.325   3.008  1.8060 -0.8066  1.4420
  847SOL    HW2 2541   2.584   0.308   0.051  2.8496 -0.0806  1.1543
  848SOL     OW 2542   0.399   0.586   0.792  0.1377  0.5778  0.3816
  848SOL    HW1 2543   0.465   0.652   0.832  3.9541 -1.6096 -2.0748
  848SOL    HW2 2544   0.306   0.566   0.836 -0.7829  0.3853 -0.8652
  849SOL     OW 2545   1.326   2.895   2.147  0.2532  0.1169 -0.6624
  849SOL    HW1 2546   1.409   2.874   2.201  2.4137  1.1372  0.1315
  849SOL    HW2 2547   1.291   2.814   2.094  0.3692 -1.5235 -0.0792
  850SOL     OW 2548   0.704   1.338   0.136 -0.3532  0.3254 -0.0762
  850SOL    HW1 2549   0.638   1.268   0.102  0.3260  0.5167 -1.5367
  850SOL    HW2 2550   0.654   1.421   0.172 -0.1286 -0.6054  0.5906
  851SOL     OW 2551   0.338   1.370   0.267  0.3383  0.1429  0.2292
  851SOL    HW1 2552   0.393   1.454   0.260  3.6073 -0.9644  1.2357
  851SOL    HW2 2553   0.343   1.330   0.363  3.4250 -1.5127  0.2912
  852SOL     OW 2554   1.263   2.785   1.748 -0.0517  0.4754  0.5373
  852SOL    HW1 2555   1.351   2.731   1.732  2.7245  0.6862  0.8842
  852SOL    HW2 2556   1.279   2.885   1.732 -1.1810 -0.7170  0.7400
  853SOL     OW 2557   2.702   1.551   0.008 -0.5376  0.0692  0.2565
  853SOL    HW1 2558   2.801   1.521   0.016  0.2051 -1.2620  0.0517
  853SOL    HW2 2559   2.666   1.597   0.092 -2.1404 -0.9815  0.4837
  854SOL     OW 2560   1.685   1.436   1.863  0.0839  0.1903 -0.0110
  854SOL    HW1 2561   1.602   1.485   1.898  1.0629  2.8985 -0.3988
  854SOL    HW2 2562   1.666   1.336   1.869 -2.8422 -0.1560 -1.0205
  855SOL     OW 2563   0.530   2.237   3.059  0.3738 -0.4584  0.4354
  855SOL    HW1 2564   0.590   2.226   0.032 -0.6302 -2.2631 -1.2908
  855SOL    HW2 2565   0.536   2.333   3.035  0.6481 -1.6420 -0.6330
  856SOL     OW 2566   0.374   0.857   1.760  0.1182 -0.1380  0.4907
  856SOL    HW1 2567   0.355   0.775   1.816  2.0891 -1.7518 -0.1172
  856SOL    HW2 2568   0.453   0.914   1.797 -2.6836  0.1837  1.0957
  857SOL     OW 2569   1.308   1.071   2.175  0.1868  1.0719  0.0504
  857SOL    HW1 2570   1.309   0.972   2.203 -0.2060  1.1296 -0.2046
  857SOL    HW2 2571   1.395   1.112   2.196 -4.1827 -1.1107 -2.1095
  858SOL     OW 2572   0.231   1.277   2.376 -0.1269  0.3979 -0.2574
  858SOL    HW1 2573   0.153   1.274   2.441  1.5830  1.3516  3.1749
  858SOL    HW2 2574   0.224   1.197   2.313 -1.6437  1.4547 -0.4287
  859SOL     OW 2575   2.639   2.952   1.006 -0.1254  0.0344 -0.2524
  859SOL    HW1 2576   2.560   3.014   1.002 -2.4464  1.7957  0.7096
  859SOL    HW2 2577   2.723   2.999   1.045  1.5954  0.7728  2.0405
  860SOL     OW 2578   2.027   2.962   3.105 -0.6346  0.0544 -0.2404
  860SOL    HW1 2579   2.053   2.866   0.018 -1.1253 -0.3302  0.1694
  860SOL    HW2 2580   1.939   2.967   3.057  1.8022  1.4756 -0.0262
  861SOL     OW 2581   1.077   0.429   0.481  0.1935  0.0405  0.3388
  861SOL    HW1 2582   1.089   0.368   0.403 -3.2899  0.6326  5.0884
  861SOL    HW2 2583   1.022   0.513   0.457 -0.7915  0.6511  2.5086
  862SOL     OW 2584   1.368   0.415   2.509  0.0979  0.4873  0.0175
  862SOL    HW1 2585   1.419   0.411   2.591 -3.1294 -1.0467  0.6643
  862SOL    HW2 2586   1.402   0.333   2.462  0.3530 -1.1356  1.2053
  863SOL     OW 2587   2.444   2.277   0.837  0.6319  0.2453 -0.4117
  863SOL    HW1 2588   2.421   2.314   0.927 -0.6164 -1.3952 -4.0294
  863SOL    HW2 2589   2.435   2.174   0.825 -1.2011  0.3297 -2.6669
  864SOL     OW 2590   2.754   0.079   1.864 -0.2330 -0.2221 -0.2346
  864SOL    HW1 2591   2.773   0.021   1.947  0.0004  0.0727  1.6974
  864SOL    HW2 2592   2.702   0.162   1.890  1.5768 -1.7017  1.5152
  865SOL     OW 2593   1.281   0.589   1.897  0.7506  0.0370 -0.0706
  865SOL    HW1 2594   1.325   0.514   1.945 -0.0652  3.0285  0.9622
  865SOL    HW2 2595   1.296   0.601   1.798 -2.6076 -0.1792  1.7607
  866SOL     OW 2596   1.921   2.728   1.249  0.3200 -0.1298  0.5808
  866SOL    HW1 2597   2.015   2.732   1.293 -1.1391 -1.0240  2.3501
  866SOL    HW2 2598   1.875   2.812   1.270  0.7884 -1.5011 -0.7880
  867SOL     OW 2599   2.857   2.449   0.614  0.4901  0.0888  0.2532
  867SOL    HW1 2600   2.906   2.501   0.537 -1.2334  0.2095  3.5803
  867SOL    HW2 2601   2.877   2.490   0.710 -1.2023 -0.5387 -1.0484
  868SOL     OW 2602   0.511   2.244   1.626  0.4912 -0.0564 -0.3488
  868SOL    HW1 2603   0.416   2.273   1.618 -0.8476 -0.5128 -1.3126
  868SOL    HW2 2604   0.539   2.191   1.541  0.3695  0.0456 -2.0592
  869SOL     OW 2605   2.072   2.244   2.906 -0.3008 -0.0249  0.1334
  869SOL    HW1 2606   2.168   2.215   2.888  0.7062 -0.1155  1.7620
  869SOL    HW2 2607   2.032   2.296   2.829  0.3501 -1.8795 -1.7849
  870SOL     OW 2608   1.849   1.809   1.125 -0.3393  0.0730  0.2751
  870SOL    HW1 2609   1.850   1.882   1.054 -1.3684  0.5513  0.6847
  870SOL    HW2 2610   1.813   1.721   1.098  2.3955  1.3487  1.8601
  871SOL     OW 2611   0.040   1.987   1.696 -0.0299 -0.7668 -0.2719
  871SOL    HW1 2612   0.041   1.896   1.742 -0.2710 -0.6660 -1.4994
  871SOL    HW2 2613   0.088   2.057   1.756  0.3624  0.4793  2.5443
  872SOL     OW 2614   0.445   1.409   2.465 -0.1545 -0.6349  0.1383
  872SOL    HW1 2615   0.407   1.490   2.512 -1.2180  2.4419  0.4713
  872SOL    HW2 2616   0.371   1.362   2.416 -0.0168  0.3649  0.5001
  873SOL     OW 2617   0.931   2.138   1.697 -0.5867 -0.5093  0.2453
  873SOL    HW1 2618   0.864   2.197   1.747  0.9958 -2.3810  0.8450
  873SOL    HW2 2619   0.991   2.193   1.630  1.8191  1.0194 -0.2094
  874SOL     OW 2620   1.691   0.697   1.861  0.2943 -0.1428 -0.1690
  874SOL    HW1 2621   1.599   0.719   1.826  0.5551 -0.5440  2.3570
  874SOL    HW2 2622   1.761   0.767   1.837  1.0985  1.4541 -0.3987
  875SOL     OW 2623   3.020   2.825   0.778  0.3302 -0.0305  0.2111
  875SOL    HW1 2624   2.989   2.781   0.864  0.1198 -1.8282  0.3812
  875SOL    HW2 2625   3.096   2.760   0.748  2.2073  0.9048  0.5957
  876SOL     OW 2626   1.091   1.380   0.345 -0.0897 -0.3224  0.1196
  876SOL    HW1 2627   1.070   1.342   0.253 -0.7255  0.8578  0.5281
  876SOL    HW2 2628   1.017   1.447   0.369  2.7342 -1.6225 -1.9887
  877SOL     OW 2629   2.909   0.251   0.797  0.2796 -0.6389  0.1197
  877SOL    HW1 2630   2.943   0.180   0.737 -1.3226  2.4467  0.6481
  877SOL    HW2 2631   2.817   0.229   0.834 -1.4739  0.1364  2.3404
  878SOL     OW 2632   1.996   1.632   0.517 -0.4687  0.6050 -0.3168
  878SOL    HW1 2633   1.926   1.669   0.453 -0.0927 -2.5589 -0.2874
  878SOL    HW2 2634   2.085   1.669   0.492 -2.0153  1.7193 -1.1574
  879SOL     OW 2635   2.383   1.790   0.982 -0.3960 -0.3458  0.9501
  879SOL    HW1 2636   2.446   1.757   1.057  4.4820 -1.0597  1.9070
  879SOL    HW2 2637   2.347   1.723   0.914 -2.0186  0.9392  0.1281
  880SOL     OW 2638   0.482   2.365   0.860 -0.3331 -0.1411 -0.2020
  880SOL    HW1 2639   0.385   2.383   0.839 -0.5270 -3.7153  0.2983
  880SOL    HW2 2640   0.548   2.362   0.783  2.9489 -0.8981  0.1902
  881SOL     OW 2641   1.058   1.107   0.749 -0.2961 -0.2605 -0.2312
  881SOL    HW1 2642   0.984   1.067   0.805  0.2449  0.0203 -0.4560
  881SOL    HW2 2643   1.146   1.087   0.792 -0.1754 -0.4667  3.4670
  882SOL     OW 2644   2.257   0.985   0.076 -0.3166 -0.2604  0.1302
  882SOL    HW1 2645   2.341   1.034   0.036  1.8866 -0.1956 -0.7081
  882SOL    HW2 2646   2.214   1.048   0.147 -1.3050  1.6283  2.1112
  883SOL     OW 2647   1.355   3.043   1.726  1.0106  0.1645 -0.2718
  883SOL    HW1 2648   1.278   0.004   1.756 -1.7547  1.2855 -0.9998
  883SOL    HW2 2649   1.384   3.061   1.631 -0.3096 -1.1249 -0.8049
  884SOL     OW 2650   2.839   3.071   1.228  0.1298  0.2750  0.5258
  884SOL    HW1 2651   2.910   3.098   1.297  2.2279  0.2405 -0.7107
  884SOL    HW2 2652   2.830   0.035   1.161 -0.8230  0.0725  0.0781
  885SOL     OW 2653   1.190   0.984   1.728  0.3854  0.4403 -0.1112
  885SOL    HW1 2654   1.114   0.980   1.802 -0.8491 -1.8936  0.8635
  885SOL    HW2 2655   1.211   0.888   1.696  1.5053 -1.6016  1.8026
  886SOL     OW 2656   1.532   1.039   2.476  0.7798 -0.6677 -0.2076
  886SOL    HW1 2657   1.519   1.050   2.375 -0.0011 -1.6891  2.5109
  886SOL    HW2 2658   1.629   1.011   2.491  1.2714  0.2858  0.9022
  887SOL     OW 2659   1.444   0.706   1.228 -0.6161 -0.2387 -0.2965
  887SOL    HW1 2660   1.373   0.659   1.170 -3.5624 -0.3424  0.1077
  887SOL    HW2 2661   1.470   0.804   1.205  1.8427  3.3467 -0.5011
  888SOL     OW 2662   2.178   1.530   1.996  0.2550 -0.1726  0.4698
  888SOL    HW1 2663   2.171   1.447   1.936  0.4021 -2.0189  0.4460
  888SOL    HW2 2664   2.263   1.588   1.975  2.0014  1.3657  2.4694
  889SOL     OW 2665   1.867   2.016   0.655 -0.4732 -0.1844  0.1878
  889SOL    HW1 2666   1.961   2.048   0.673 -1.5523 -0.3721 -2.0705
  889SOL    HW2 2667   1.830   2.049   0.568 -3.6075 -0.2592  1.6432
  890SOL     OW 2668   1.119   1.998   0.591  0.2164  0.3186  0.0440
  890SOL    HW1 2669   1.129   1.889   0.595  2.3414 -3.3218  0.3587
  890SOL    HW2 2670   1.106   2.036   0.686 -3.4830  0.2069  2.1469
  891SOL     OW 2671   2.633   0.708   2.617 -0.2574  0.0309 -0.1342
  891SOL    HW1 2672   2.641   0.614   2.586 -1.3143  1.2359  1.9704
  891SOL    HW2 2673   2.657   0.768   2.540  0.2384 -0.4052  2.6964
  892SOL     OW 2674   0.954   0.629   2.453  0.1574  0.7473  0.4135
  892SOL    HW1 2675   0.875   0.637   2.512  1.0894  0.6337 -2.3546
  892SOL    HW2 2676   1.025   0.568   2.497 -0.2974  1.3848  0.6616
  893SOL     OW 2677   1.618   0.178   1.359 -0.0919 -0.2955 -0.1985
  893SOL    HW1 2678   1.692   0.112   1.371 -1.3979  0.1072  0.5227
  893SOL    HW2 2679   1.533   0.171   1.414  0.2612 -0.7461 -0.3870
  894SOL     OW 2680   2.919   0.062   0.596  0.2865  0.2704 -0.9211
  894SOL    HW1 2681   2.823   0.093   0.583 -0.1317  2.2680 -1.0106
  894SOL    HW2 2682   2.967   0.091   0.511 -2.8814 -1.9600  0.7820
  895SOL     OW 2683   2.054   2.584   2.904  0.2039  0.4464 -0.2188
  895SOL    HW1 2684   1.959   2.604   2.939 -1.2448  2.2443 -1.6613
  895SOL    HW2 2685   2.120   2.561   2.981  2.4821 -1.3124  2.1322
  896SOL     OW 2686   1.812   0.082   1.579 -0.5172 -0.0593 -0.2715
  896SOL    HW1 2687   1.736   0.145   1.596  0.3939  0.1779 -0.7270
  896SOL    HW2 2688   1.783   0.005   1.522 -0.0271  2.4021 -0.8707
  897SOL     OW 2689   0.164   2.166   1.826  0.6328  0.0440  0.2788
  897SOL    HW1 2690   0.187   2.216   1.740  2.7362 -1.8603 -1.2144
  897SOL    HW2 2691   0.233   2.181   1.894 -0.3765 -1.8683 -2.4909
  898SOL     OW 2692   2.403   1.741   1.994 -0.0110 -0.3188  0.5451
  898SOL    HW1 2693   2.472   1.715   1.921  0.2740  1.6190  0.4767
  898SOL    HW2 2694   2.344   1.818   1.956  1.9888  2.8106 -0.9230
  899SOL     OW 2695   1.545   2.342   0.774 -0.3368 -0.2422  0.6826
  899SOL    HW1 2696   1.617   2.300   0.833  0.9234 -0.1280 -1.0645
  899SOL    HW2 2697   1.486   2.268   0.739 -2.2159  0.4251  0.4456
  900SOL     OW 2698   0.951   3.092   2.979 -0.5796 -0.1352  0.7743
  900SOL    HW1 2699   0.850   3.090   2.968 -0.2706  0.0905 -1.2456
  900SOL    HW2 2700   0.982   3.073   2.881  0.4367 -0.5243 -1.9650
  901SOL     OW 2701   1.297   1.803   2.398  0.6165  0.5796 -0.1242
  901SOL    HW1 2702   1.364   1.847   2.457 -0.7522  1.4398  3.1972
  901SOL    HW2 2703   1.221   1.866   2.377 -0.9392 -0.6351 -0.9444
  902SOL     OW 2704   0.085   0.358   2.732 -0.1623 -0.0333 -0.4758
  902SOL    HW1 2705   0.051   0.261   2.721 -3.2979 -3.6809 -0.3767
  902SOL    HW2 2706   0.146   0.381   2.651 -1.4347  1.7622  0.7611
  903SOL     OW 2707   2.126   0.546   2.357  0.2391 -0.7481 -0.2553
  903SOL    HW1 2708   2.195   0.563   2.426 -2.3955  0.2963 -1.6410
  903SOL    HW2 2709   2.166   0.507   2.274 -1.4971  0.2430  0.7454
  904SOL     OW 2710   1.452   0.623   2.356  0.1646  0.1114  0.1953
  904SOL    HW1 2711   1.547   0.645   2.378 -1.8611 -0.1013 -1.1930
  904SOL    HW2 2712   1.412   0.554   2.419  2.4512 -0.5796 -2.0342
  905SOL     OW 2713   2.020   2.612   1.802 -0.0740 -1.3424  0.6678
  905SOL    HW1 2714   1.959   2.603   1.883  0.6056 -1.0735 -2.6253
  905SOL    HW2 2715   2.027   2.524   1.750  4.4332  1.0800  1.3125
  906SOL     OW 2716   1.759   2.074   0.407  0.1092 -0.1128 -0.0935
  906SOL    HW1 2717   1.803   2.029   0.330  1.2047  2.4772 -0.8318
  906SOL    HW2 2718   1.717   2.166   0.385 -2.9769  1.1077  1.2447
  907SOL     OW 2719   1.226   2.952   1.162 -0.3033 -0.2037 -0.0862
  907SOL    HW1 2720   1.127   2.969   1.151  0.9774 -1.0150  1.4209
  907SOL    HW2 2721   1.285   2.944   1.077 -0.0172 -0.8668 -1.7244
  908SOL     OW 2722   1.801   2.217   2.392 -0.3946  0.3474  0.5131
  908SOL    HW1 2723   1.873   2.285   2.374  0.0207  0.1464  0.9975
  908SOL    HW2 2724   1.716   2.248   2.344 -2.6551 -0.0726 -0.9524
  909SOL     OW 2725   2.204   0.056   1.971 -0.0300 -0.0078  0.3723
  909SOL    HW1 2726   2.238   3.088   2.036  1.3100 -0.5652 -0.3871
  909SOL    HW2 2727   2.105   0.080   1.995  0.8074 -0.9051  0.1536
  910SOL     OW 2728   0.963   0.764   2.849  0.2077  0.0591  0.0105
  910SOL    HW1 2729   0.990   0.671   2.873  1.3588 -0.1022 -0.5776
  910SOL    HW2 2730   1.042   0.833   2.846  0.2925  1.2129 -0.0637
  911SOL     OW 2731   0.059   0.804   0.049  0.3703 -0.8860  0.0434
  911SOL    HW1 2732   0.077   0.903   0.018  1.4008  2.2110  0.3584
  911SOL    HW2 2733   3.099   0.809   0.123  1.0903 -0.8117 -2.4736
  912SOL     OW 2734   0.425   2.226   0.493 -0.6121  0.3298 -0.0213
  912SOL    HW1 2735   0.346   2.238   0.556  3.4690  0.4148  1.7491
  912SOL    HW2 2736   0.508   2.280   0.523 -0.5479  2.5443 -1.6343
  913SOL     OW 2737   2.752   2.275   2.254 -0.6809 -0.2778 -0.0384
  913SOL    HW1 2738   2.813   2.245   2.327 -1.2620  0.6911  0.6916
  913SOL    HW2 2739   2.807   2.272   2.162 -0.8555 -2.3245 -2.9158
  914SOL     OW 2740   1.221   1.994   1.488  0.3649 -0.3466 -0.2104
  914SOL    HW1 2741   1.247   2.037   1.400  0.3877 -0.0364 -1.2911
  914SOL    HW2 2742   1.201   1.899   1.479 -2.1760  2.6700 -2.5425
  915SOL     OW 2743   0.589   2.920   1.935  0.1316 -0.1894  0.3773
  915SOL    HW1 2744   0.515   2.988   1.923  0.6129  0.2532 -0.8678
  915SOL    HW2 2745   0.606   2.913   2.035 -0.4009  0.4421 -0.8265
  916SOL     OW 2746   0.798   0.568   1.543 -0.6007  0.1029 -0.3082
  916SOL    HW1 2747   0.843   0.495   1.488 -0.7595  0.0601 -1.5152
  916SOL    HW2 2748   0.850   0.574   1.635  1.2780 -2.4232  0.3378
  917SOL     OW 2749   2.645   0.751   0.419  0.5536  0.2660  0.3154
  917SOL    HW1 2750   2.725   0.702   0.379 -0.8577  0.6034  1.3458
  917SOL    HW2 2751   2.561   0.692   0.415  3.2712 -1.2674  2.0429
  918SOL     OW 2752   1.747   2.334   2.973  0.2118  0.3311  0.2417
  918SOL    HW1 2753   1.776   2.434   2.972 -3.4987  2.2232 -0.8292
  918SOL    HW2 2754   1.724   2.294   3.063 -0.3227  2.0913  0.6391
  919SOL     OW 2755   1.545   2.479   1.487  0.3753  0.6535 -0.0642
  919SOL    HW1 2756   1.545   2.453   1.389 -1.5802  1.5954 -0.3709
  919SOL    HW2 2757   1.635   2.471   1.534  1.9947 -4.2905 -0.0914
  920SOL     OW 2758   0.765   0.692   2.658 -0.4708  0.0251  0.3684
  920SOL    HW1 2759   0.692   0.657   2.714  0.2023 -0.0489  0.8435
  920SOL    HW2 2760   0.844   0.724   2.714  1.6310 -0.6809  2.1996
  921SOL     OW 2761   3.011   0.780   2.938 -0.0069 -0.0759  0.0199
  921SOL    HW1 2762   2.924   0.726   2.947  1.0680 -0.1901  0.2643
  921SOL    HW2 2763   3.069   0.782   3.021  0.1854 -0.2305 -1.0981
  922SOL     OW 2764   0.214   2.140   1.116  0.6121 -0.2347  0.4054
  922SOL    HW1 2765   0.211   2.041   1.100 -2.1937  3.9534 -0.7918
  922SOL    HW2 2766   0.310   2.171   1.125 -1.6300 -1.0463 -1.6697
  923SOL     OW 2767   0.617   1.522   1.714 -0.1098  0.5281 -0.6733
  923SOL    HW1 2768   0.668   1.510   1.628 -0.3183  0.0596  0.3001
  923SOL    HW2 2769   0.669   1.473   1.784 -1.5885  0.9806  0.0512
  924SOL     OW 2770   1.569   2.725   2.921 -0.1797 -0.3065 -0.0627
  924SOL    HW1 2771   1.505   2.645   2.934 -0.3958 -2.8984  1.2749
  924SOL    HW2 2772   1.537   2.806   2.974 -2.8830  0.1248  0.8210
  925SOL     OW 2773   2.665   1.415   0.864 -0.2377 -0.1967  0.6311
  925SOL    HW1 2774   2.679   1.320   0.896  0.0102 -0.7074  1.7692
  925SOL    HW2 2775   2.685   1.474   0.949 -0.6468  0.0832 -0.0314
  926SOL     OW 2776   1.933   0.618   1.555  0.2685  0.1131  0.1870
  926SOL    HW1 2777   2.025   0.622   1.515 -1.5002 -1.6874  0.0859
  926SOL    HW2 2778   1.880   0.552   1.507 -0.9353 -0.1141 -0.3069
  927SOL     OW 2779   1.974   0.024   1.269  0.0967 -0.5594  0.4557
  927SOL    HW1 2780   2.009   0.115   1.301  1.3546  2.8268  1.2504
  927SOL    HW2 2781   1.942   0.033   1.171 -1.0425 -1.4133 -1.8694
  928SOL     OW 2782   0.270   1.063   2.183 -0.6598  0.0356 -0.3516
  928SOL    HW1 2783   0.359   1.116   2.193  4.1561  0.4972  1.9834
  928SOL    HW2 2784   0.271   0.993   2.258 -0.7746 -0.0057  2.6353
  929SOL     OW 2785   2.349   0.838   1.391  0.1195 -0.2169 -0.0396
  929SOL    HW1 2786   2.292   0.922   1.408 -1.1083  0.2488  0.2420
  929SOL    HW2 2787   2.392   0.848   1.296 -0.6956 -1.3307 -0.9488
  930SOL     OW 2788   2.944   2.528   2.202  0.3254  0.0366  0.0332
  930SOL    HW1 2789   2.949   2.576   2.291  1.8347  1.7809  2.5934
  930SOL    HW2 2790   3.030   2.483   2.186 -1.6732 -1.1849 -0.1526
  931SOL     OW 2791   1.514   0.957   1.162 -0.0134  0.0816 -0.0283
  931SOL    HW1 2792   1.573   0.964   1.249  0.8171 -1.0061  0.9114
  931SOL    HW2 2793   1.536   1.027   1.088  0.3433  2.2977 -2.9966
  932SOL     OW 2794   0.425   1.304   1.774  0.2276  0.2164  0.2339
  932SOL    HW1 2795   0.335   1.261   1.806 -0.4018 -1.4440 -0.4306
  932SOL    HW2 2796   0.400   1.363   1.694 -2.2627  0.4945  0.6276
  933SOL     OW 2797   2.382   1.826   1.605  0.4599  0.1929  0.5395
  933SOL    HW1 2798   2.399   1.902   1.540 -1.2439  1.5831  2.6493
  933SOL    HW2 2799   2.304   1.770   1.571  2.8125  0.4570 -0.2543
  934SOL     OW 2800   0.573   2.050   1.879  0.3075  0.4963 -0.0941
  934SOL    HW1 2801   0.622   1.958   1.857 -1.8408  1.1914  0.4500
  934SOL    HW2 2802   0.610   2.127   1.823 -0.9529 -2.3978  1.2841
  935SOL     OW 2803   2.585   1.364   1.192  0.1433  0.2513  0.2794
  935SOL    HW1 2804   2.502   1.418   1.186  2.9628  2.6613  1.8491
  935SOL    HW2 2805   2.637   1.392   1.275  1.3801  3.1066 -1.7921
  936SOL     OW 2806   2.742   1.437   1.415 -0.3330  0.7468 -0.6183
  936SOL    HW1 2807   2.784   1.365   1.474 -1.2623  0.7147  0.0765
  936SOL    HW2 2808   2.818   1.473   1.348  4.2546  0.5146 -2.6592
  937SOL     OW 2809   1.788   0.433   1.398 -0.0240 -0.7905  0.0768
  937SOL    HW1 2810   1.875   0.417   1.344  1.0627 -2.3400 -1.8614
  937SOL    HW2 2811   1.734   0.346   1.400 -1.5498 -1.0890 -3.1923
  938SOL     OW 2812   0.497   2.924   0.157 -0.3147  0.7791  0.0146
  938SOL    HW1 2813   0.454   2.949   0.244  4.5136  0.3228 -0.0711
  938SOL    HW2 2814   0.450   2.963   0.079  1.6622 -2.5102  0.8554
  939SOL     OW 2815   2.918   2.235   2.501 -0.0119 -0.2351  0.3087
  939SOL    HW1 2816   2.999   2.242   2.438 -0.1351  0.0272  1.4972
  939SOL    HW2 2817   2.881   2.142   2.508  0.7110 -0.3758  1.0806
  940SOL     OW 2818   1.510   1.974   0.512 -0.0708  0.0996 -0.2309
  940SOL    HW1 2819   1.464   1.996   0.425  0.7696  1.2183  0.7748
  940SOL    HW2 2820   1.606   2.011   0.508 -1.7114 -0.3027 -2.2542
  941SOL     OW 2821   2.253   2.582   3.098  0.3071  0.3266 -0.2667
  941SOL    HW1 2822   2.260   2.510   0.068 -0.7503 -2.4043  0.3462
  941SOL    HW2 2823   2.324   2.654   0.008 -0.5667 -0.4710  1.4646
  942SOL     OW 2824   1.889   2.312   1.164 -0.4863  0.3872  0.3347
  942SOL    HW1 2825   1.818   2.378   1.135 -1.2175  0.0312 -0.5427
  942SOL    HW2 2826   1.984   2.348   1.140  0.3568  0.3273 -1.1091
  943SOL     OW 2827   2.203   0.903   1.677  0.7505 -0.4092 -0.5793
  943SOL    HW1 2828   2.168   0.954   1.599 -1.4145  1.1820  2.9260
  943SOL    HW2 2829   2.300   0.897   1.687 -2.2386  1.8874  0.1625
  944SOL     OW 2830   1.287   0.820   2.269 -0.3626 -0.1657 -0.2930
  944SOL    HW1 2831   1.341   0.742   2.295  0.5647  2.6103  0.6818
  944SOL    HW2 2832   1.220   0.799   2.190  0.7284 -0.1801 -1.2479
  945SOL     OW 2833   2.460   2.471   1.367 -0.3368 -0.1469 -0.2651
  945SOL    HW1 2834   2.533   2.397   1.372  1.0271 -1.0300 -2.5593
  945SOL    HW2 2835   2.414   2.486   1.457  1.6287 -0.8136  0.2331
  946SOL     OW 2836   0.560   0.683   0.585  0.4224 -0.3793 -0.2532
  946SOL    HW1 2837   0.533   0.775   0.561  0.3306 -2.2143 -1.4530
  946SOL    HW2 2838   0.494   0.643   0.658  0.8791 -1.4212  1.2152
  947SOL     OW 2839   1.914   2.923   1.724  0.1889 -0.1784  0.2003
  947SOL    HW1 2840   1.848   2.869   1.668 -2.8067 -3.9004 -0.5294
  947SOL    HW2 2841   1.882   3.017   1.752  0.2494  3.0852  2.2687
  948SOL     OW 2842   0.161   1.803   0.762  0.2242  0.2300 -0.2046
  948SOL    HW1 2843   0.212   1.758   0.688  0.3316  1.2555  1.2544
  948SOL    HW2 2844   0.077   1.750   0.787 -3.4994  1.4367  0.6281
  949SOL     OW 2845   1.269   1.139   1.466  0.6842  0.1556  0.0863
  949SOL    HW1 2846   1.277   1.075   1.387 -1.1637 -1.2589  0.4023
  949SOL    HW2 2847   1.226   1.095   1.551  1.3939  0.6164  2.9954
  950SOL     OW 2848   0.424   1.054   0.991  0.0407  0.0640 -0.4351
  950SOL    HW1 2849   0.491   1.014   1.059  3.4870  1.1299  1.3893
  950SOL    HW2 2850   0.464   1.134   0.945 -1.7690  0.4348 -0.5203
  951SOL     OW 2851   0.745   2.195   2.379 -0.1005  0.2976 -0.2877
  951SOL    HW1 2852   0.655   2.180   2.425 -0.3071  2.7787  0.2938
  951SOL    HW2 2853   0.750   2.161   2.283  2.4969  3.3892  2.6245
  952SOL     OW 2854   1.466   1.391   0.140 -0.5381 -0.0007 -0.8681
  952SOL    HW1 2855   1.500   1.388   0.239 -0.5195 -0.0572  6.1045
  952SOL    HW2 2856   1.399   1.469   0.130 -0.1122  1.2343 -1.2942
  953SOL     OW 2857   1.228   0.239   0.035  0.3898 -0.0187 -0.0827
  953SOL    HW1 2858   1.290   0.288   3.074  0.5431 -2.2555  3.0688
  953SOL    HW2 2859   1.131   0.247   0.015 -0.3179 -1.1385  1.8939
  954SOL     OW 2860   1.936   1.286   0.299 -0.6147 -0.0066 -0.0697
  954SOL    HW1 2861   1.865   1.214   0.277  1.5423 -1.0047 -1.4326
  954SOL    HW2 2862   1.950   1.285   0.401  2.0045 -1.5427 -0.1226
  955SOL     OW 2863   0.070   2.892   0.132  0.3568  0.5548  0.1440
  955SOL    HW1 2864   3.091   2.898   0.073 -3.9751 -2.2727  1.2674
  955SOL    HW2 2865   0.139   2.824   0.101  1.3597  3.0433  0.7192
  956SOL     OW 2866   1.162   0.760   1.391 -0.3303 -0.0081  0.1662
  956SOL    HW1 2867   1.224   0.825   1.344 -2.3158  0.9218 -0.0772
  956SOL    HW2 2868   1.112   0.706   1.328  0.9202  0.5889  3.1180
  957SOL     OW 2869   1.030   1.412   1.147  0.5940  0.0811 -0.0857
  957SOL    HW1 2870   0.995   1.330   1.196 -0.1535 -2.9528 -0.6594
  957SOL    HW2 2871   0.973   1.423   1.063  0.0496  1.7201  1.8498
  958SOL     OW 2872   0.578   1.869   0.768  0.5972 -0.3347  0.4208
  958SOL    HW1 2873   0.552   1.904   0.860  2.5395 -0.2633 -0.9564
  958SOL    HW2 2874   0.623   1.941   0.711 -0.4868  4.0751  0.6319
  959SOL     OW 2875   1.376   1.313   0.953 -0.3887 -0.3067  0.1836
  959SOL    HW1 2876   1.375   1.370   0.867 -0.6818 -0.7083 -4.0207
  959SOL    HW2 2877   1.369   1.364   1.041 -1.1322 -1.9875 -0.9034
  960SOL     OW 2878   0.101   1.158   2.865  0.1057  0.3838  0.0063
  960SOL    HW1 2879   0.195   1.186   2.828 -0.9259 -0.8611  0.6081
  960SOL    HW2 2880   0.057   1.097   2.799  0.6854  0.8896 -1.2925
  961SOL     OW 2881   0.467   1.503   1.086 -0.1486 -0.3095 -0.5007
  961SOL    HW1 2882   0.381   1.459   1.110  2.5284  0.1042 -0.5169
  961SOL    HW2 2883   0.469   1.534   0.988  1.2144  0.6340  1.3430
  962SOL     OW 2884   0.872   1.079   0.529  0.1003  0.5843 -0.3491
  962SOL    HW1 2885   0.935   1.081   0.609 -1.5839  0.6131 -0.0570
  962SOL    HW2 2886   0.784   1.129   0.541 -1.9775 -2.2847  0.5059
  963SOL     OW 2887   1.526   1.849   2.521  0.0130  0.1712  0.4122
  963SOL    HW1 2888   1.555   1.945   2.540  3.4754  2.1394 -1.5685
  963SOL    HW2 2889   1.610   1.786   2.532 -0.3230 -1.2249  0.2567
  964SOL     OW 2890   0.418   2.652   2.926  0.2613 -0.8359  0.2097
  964SOL    HW1 2891   0.484   2.585   2.959 -1.4934  0.2703  3.8773
  964SOL    HW2 2892   0.390   2.622   2.832  0.5980 -1.5809 -2.9246
  965SOL     OW 2893   0.636   2.271   0.238 -0.5414 -0.1378  0.2741
  965SOL    HW1 2894   0.613   2.359   0.200  0.4324 -0.3549  0.0624
  965SOL    HW2 2895   0.705   2.285   0.310  0.0968  3.5003  1.2390
  966SOL     OW 2896   3.019   1.633   2.789  0.4612  0.8552  0.5149
  966SOL    HW1 2897   3.103   1.605   2.736  0.1681  1.2913 -2.3108
  966SOL    HW2 2898   3.004   1.736   2.785 -3.0400  0.8232  1.2945
  967SOL     OW 2899   2.355   0.100   2.796 -0.2156 -0.4825  0.2698
  967SOL    HW1 2900   2.288   0.039   2.749 -1.1672  1.3956 -0.1076
  967SOL    HW2 2901   2.390   0.170   2.731 -0.8925  0.5470  3.7366
  968SOL     OW 2902   2.310   3.032   0.370 -0.0525 -0.3485  0.2694
  968SOL    HW1 2903   2.313   2.986   0.465 -1.2902 -2.9306  0.4431
  968SOL    HW2 2904   2.402   3.048   0.341 -3.0564 -2.5670  2.3124
  969SOL     OW 2905   0.405   1.533   2.205 -0.6246  0.2553 -0.1646
  969SOL    HW1 2906   0.473   1.516   2.134 -1.2664  0.5945 -0.6217
  969SOL    HW2 2907   0.421   1.476   2.289 -1.1035 -1.1942  0.2514
  970SOL     OW 2908   1.383   1.471   0.703 -0.4158 -0.2465  0.3195
  970SOL    HW1 2909   1.450   1.534   0.648  1.5554  1.4483 -1.9743
  970SOL    HW2 2910   1.351   1.399   0.635  0.2762 -0.4818 -2.6435
  971SOL     OW 2911   2.421   0.023   0.993 -0.2126 -0.4558  0.2506
  971SOL    HW1 2912   2.414   0.057   1.093 -0.7508 -2.4368  2.1047
  971SOL    HW2 2913   2.381   0.090   0.929 -0.7313 -2.3452 -0.6381
  972SOL     OW 2914   0.328   2.862   1.663  0.4916 -0.1637 -0.5317
  972SOL    HW1 2915   0.292   2.794   1.725  2.2714  3.5838 -2.8220
  972SOL    HW2 2916   0.363   2.940   1.717  0.7455 -1.1427 -0.3669
  973SOL     OW 2917   0.672   0.379   2.612 -0.1502  0.0318 -0.8842
  973SOL    HW1 2918   0.693   0.395   2.516 -0.4903 -1.6787 -2.0095
  973SOL    HW2 2919   0.605   0.445   2.655 -2.2084  0.6086 -3.3336
  974SOL     OW 2920   2.204   1.254   1.908  0.0487  0.6789  0.0294
  974SOL    HW1 2921   2.105   1.224   1.910  0.1393  0.3068 -1.2679
  974SOL    HW2 2922   2.260   1.209   1.977 -0.4463  0.2461 -1.7018
  975SOL     OW 2923   0.238   0.292   1.377  0.4863  0.0643 -0.2916
  975SOL    HW1 2924   0.320   0.228   1.390  0.7316 -1.2587  1.4545
  975SOL    HW2 2925   0.187   0.257   1.296 -1.1093  2.0220 -2.0207
  976SOL     OW 2926   0.916   2.037   2.501 -0.8879 -0.1889  0.0460
  976SOL    HW1 2927   0.867   1.970   2.562 -1.2498 -0.8927  0.6505
  976SOL    HW2 2928   0.851   2.087   2.445  1.0642 -2.1198  2.0552
  977SOL     OW 2929   0.934   2.630   0.796 -0.3333 -0.2027 -0.2574
  977SOL    HW1 2930   0.931   2.733   0.810  1.2847 -0.4448 -0.4264
  977SOL    HW2 2931   0.941   2.620   0.695 -0.9034 -0.8148  0.9780
  978SOL     OW 2932   2.971   1.253   2.082  0.0100 -0.7356  0.9891
  978SOL    HW1 2933   2.894   1.185   2.092 -1.0676  0.7838 -0.8735
  978SOL    HW2 2934   2.969   1.321   2.160  0.6319  1.5974 -0.5357
  979SOL     OW 2935   1.724   2.752   1.592 -0.4866  0.5054  0.5768
  979SOL    HW1 2936   1.784   2.671   1.569  1.0182 -0.0285  1.5593
  979SOL    HW2 2937   1.644   2.721   1.648 -0.2149 -1.0358 -0.2019
  980SOL     OW 2938   1.379   1.569   2.252 -0.1587 -0.1071 -0.2454
  980SOL    HW1 2939   1.294   1.518   2.266  2.5964  2.1936 -0.8386
  980SOL    HW2 2940   1.372   1.664   2.290  0.9234  1.6729 -2.1519
  981SOL     OW 2941   2.368   0.421   1.596 -0.3444  0.5813 -0.3767
  981SOL    HW1 2942   2.332   0.370   1.679 -0.6325  1.4848  1.3333
  981SOL    HW2 2943   2.460   0.458   1.620 -2.2681  1.3448  1.2282
  982SOL     OW 2944   0.400   0.238   2.698  0.1156 -0.2471  0.3449
  982SOL    HW1 2945   0.365   0.232   2.793  0.3727  2.0828 -0.8209
  982SOL    HW2 2946   0.503   0.233   2.688  1.3434  0.4509  0.9103
  983SOL     OW 2947   2.466   0.723   2.351  1.0063 -0.0265  0.0375
  983SOL    HW1 2948   2.399   0.779   2.406 -0.1923  0.3226 -2.1364
  983SOL    HW2 2949   2.483   0.635   2.399  0.6903  0.7445 -1.3521
  984SOL     OW 2950   1.148   3.092   2.103 -0.4216  0.0177 -0.2687
  984SOL    HW1 2951   1.211   3.017   2.124  1.2886  0.0565 -2.2626
  984SOL    HW2 2952   1.057   3.056   2.071 -0.0244 -0.3955  0.6404
  985SOL     OW 2953   2.022   1.661   1.804 -0.1692  0.6684 -0.2562
  985SOL    HW1 2954   1.922   1.670   1.798  1.3567  0.5167 -0.8548
  985SOL    HW2 2955   2.054   1.621   1.889 -1.8913  2.2316 -2.0969
  986SOL     OW 2956   2.622   0.752   1.417  0.0312  0.1239 -0.0749
  986SOL    HW1 2957   2.708   0.808   1.412  0.4457 -0.4277 -1.2241
  986SOL    HW2 2958   2.543   0.803   1.380 -0.7944 -2.2205  2.4698
  987SOL     OW 2959   2.566   1.107   1.293  0.5967  0.6794 -0.4060
  987SOL    HW1 2960   2.569   1.196   1.243  0.6777 -0.9710 -2.7631
  987SOL    HW2 2961   2.505   1.034   1.249  1.0042  1.7199 -0.5308
  988SOL     OW 2962   0.069   1.063   1.997  0.3456  0.2324  0.1425
  988SOL    HW1 2963   0.005   1.125   2.034  1.1846  1.2679  2.3270
  988SOL    HW2 2964   0.155   1.077   2.049 -0.3980  1.9463 -2.1767
  989SOL     OW 2965   1.815   1.712   0.344  0.4243  0.3484 -0.1406
  989SOL    HW1 2966   1.868   1.797   0.317  0.6600  2.5772  1.2087
  989SOL    HW2 2967   1.717   1.721   0.317 -0.5920 -0.3305 -1.0020
  990SOL     OW 2968   0.961   0.607   2.159 -0.2134  0.2697 -0.2964
  990SOL    HW1 2969   0.975   0.598   2.256 -2.0273 -0.7008 -3.0347
  990SOL    HW2 2970   1.018   0.685   2.118  4.4938 -0.8797 -0.5475
  991SOL     OW 2971   1.237   1.275   0.545 -0.6405  0.6671  0.3987
  991SOL    HW1 2972   1.189   1.202   0.600  0.8267 -0.2146  3.2433
  991SOL    HW2 2973   1.177   1.321   0.477  2.5845  0.7899  0.1623
  992SOL     OW 2974   2.104   1.089   0.513  0.0413  0.2275 -0.4887
  992SOL    HW1 2975   2.189   1.044   0.550  0.3958 -1.4794  2.2688
  992SOL    HW2 2976   2.030   1.019   0.496 -1.6981  0.1179  0.3003
  993SOL     OW 2977   3.063   0.921   0.703  0.5629  0.2745 -0.2991
  993SOL    HW1 2978   3.098   0.963   0.788  2.5443  0.7662  3.2685
  993SOL    HW2 2979   3.094   0.822   0.704  2.3410 -0.5408  1.2680
  994SOL     OW 2980   0.256   2.181   2.564  0.3244  0.2897  0.2773
  994SOL    HW1 2981   0.200   2.103   2.521 -1.5352 -1.6362 -1.3714
  994SOL    HW2 2982   0.225   2.213   2.654  0.0889 -0.1993 -1.4927
  995SOL     OW 2983   1.889   1.158   2.608  0.2646 -0.0064 -0.0564
  995SOL    HW1 2984   1.845   1.076   2.568  0.3467 -0.6709 -0.1696
  995SOL    HW2 2985   1.827   1.240   2.599 -2.8253  0.5374 -0.6572
  996SOL     OW 2986   2.617   1.255   0.334  0.7438 -0.2481  0.3253
  996SOL    HW1 2987   2.543   1.321   0.308 -0.6502  1.1013 -0.1271
  996SOL    HW2 2988   2.571   1.161   0.343 -3.0089  2.1564  1.6519
  997SOL     OW 2989   1.955   1.140   1.889  0.0092  0.3026 -0.2654
  997SOL    HW1 2990   1.961   1.045   1.862 -0.8331 -0.9120 -2.7905
  997SOL    HW2 2991   1.961   1.151   1.988 -0.9291 -1.4233  1.4454
  998SOL     OW 2992   2.662   2.055   0.214 -0.0857  0.0841  0.2911
  998SOL    HW1 2993   2.572   2.093   0.182  1.0234 -1.5840  2.1031
  998SOL    HW2 2994   2.670   1.957   0.190 -0.6984  0.7118  3.1021
  999SOL     OW 2995   3.021   2.225   0.099 -0.0324 -0.1609  0.0876
  999SOL    HW1 2996   2.943   2.172   0.051 -4.5348 -2.2170 -0.9116
  999SOL    HW2 2997   2.983   2.282   0.172  2.9093 -0.7521  0.0377
 1000SOL     OW 2998   1.045   1.068   2.213 -0.3964  0.3264  0.3234
 1000SOL    HW1 2999   1.039   0.998   2.289  2.1584 -0.8307  0.3105
 1000SOL    HW2 3000   1.144   1.077   2.180 -2.0085 -1.4200 -0.0329
   3.10535   3.10535   3.10535
