1000 SPC/Fw water molecules t= 165.00000 step= 165000
 3000
    1SOL     OW    1   2.663   2.619   0.693  0.2359 -0.2638  0.1510
    1SOL    HW1    2   2.731   2.650   0.629 -1.2383 -0.5025  3.8145
    1SOL    HW2    3   2.708   2.585   0.779 -2.1168 -0.1067 -1.2896
    2SOL     OW    4   1.349   1.910   2.232 -0.0834 -0.2865  0.2016
    2SOL    HW1    5   1.319   1.851   2.151 -1.8584 -3.5490 -1.1015
    2SOL    HW2    6   1.445   1.946   2.229  0.1013  0.4219  0.1493
    3SOL     OW    7   1.744   2.403   2.258 -0.0837 -0.2762  0.2374
    3SOL    HW1    8   1.658   2.457   2.237 -2.7494 -0.0213 -2.8690
    3SOL    HW2    9   1.789   2.428   2.345  0.0183 -0.0117 -0.2725
    4SOL     OW   10   1.999   2.073   2.203  0.4794  0.0283  0.5354
    4SOL    HW1   11   2.083   2.090   2.257 -0.0881  0.4487  2.4541
    4SOL    HW2   12   2.011   2.108   2.112  0.9490 -0.7230  2.0484
    5SOL     OW   13   0.963   0.686   1.643  0.4810 -0.4261  0.1958
    5SOL    HW1   14   0.998   0.778   1.664 -0.5644 -1.4789  0.7048
    5SOL    HW2   15   0.933   0.642   1.726 -1.0801  1.2708 -0.2534
    6SOL     OW   16   2.369   0.962   2.912  0.3702 -0.1359  0.4014
    6SOL    HW1   17   2.414   0.996   2.829  0.3149 -1.1087 -0.2598
    6SOL    HW2   18   2.285   1.019   2.929 -1.4827  0.0471 -2.2697
    7SOL     OW   19   1.112   0.539   1.281 -0.3190  0.0439 -0.3547
    7SOL    HW1   20   1.191   0.515   1.228 -2.8577 -0.1004 -0.2013
    7SOL    HW2   21   1.079   0.635   1.270 -0.4622  0.2611  0.0237
    8SOL     OW   22   0.996   2.503   1.387 -0.7911  0.5590  0.4888
    8SOL    HW1   23   0.963   2.430   1.450 -1.8591 -0.4965 -1.1085
    8SOL    HW2   24   1.030   2.584   1.436  0.3042 -1.2213  2.3573
    9SOL     OW   25   0.708   1.198   0.253  0.3600  0.4557  0.0161
    9SOL    HW1   26   0.684   1.157   0.345  0.3405 -0.2680 -0.1150
    9SOL    HW2   27   0.806   1.208   0.246 -2.7371  0.3313 -0.7694
   10SOL     OW   28   0.354   2.885   2.993  0.1496 -0.0401  0.2004
   10SOL    HW1   29   0.317   2.897   2.896  0.8470  0.1943  1.1437
   10SOL    HW2   30   0.413   2.799   3.005  2.1993  0.1327 -1.2822
   11SOL     OW   31   0.044   1.276   2.820  0.3351 -0.2570 -0.0683
   11SOL    HW1   32   0.139   1.306   2.794  1.8238  3.2690 -0.6000
   11SOL    HW2   33   0.048   1.257   2.919  1.5120  0.6016 -0.7700
   12SOL     OW   34   0.641   0.139   1.363  0.0486 -0.1590  0.4871
   12SOL    HW1   35   0.626   0.073   1.286  1.8811  0.5804 -1.3073
   12SOL    HW2   36   0.598   0.230   1.350  0.7061 -1.2510  0.9009
   13SOL     OW   37   0.647   2.939   0.574 -0.5909 -0.0059 -0.4821
   13SOL    HW1   38   0.718   2.870   0.555 -0.4682  1.0351 -0.8907
   13SOL    HW2   39   0.682   3.033   0.540 -0.8605 -0.1501 -0.1428
   14SOL     OW   40   1.425   1.882   0.847 -0.0625  0.3375  0.7148
   14SOL    HW1   41   1.421   1.982   0.828 -2.5042 -1.6491  0.7775
   14SOL    HW2   42   1.376   1.862   0.937 -2.2436 -0.2121  2.6938
   15SOL     OW   43   2.546   0.798   2.405  0.4474 -0.2053 -0.2132
   15SOL    HW1   44   2.531   0.775   2.504  0.6427 -1.0936  0.8221
   15SOL    HW2   45   2.467   0.843   2.360  1.5434 -2.2602  0.4948
   16SOL     OW   46   1.338   2.943   2.916 -0.3992 -0.3689  0.0006
   16SOL    HW1   47   1.276   2.863   2.932 -0.3393  0.2891 -3.3084
   16SOL    HW2   48   1.378   2.940   2.822 -0.8130 -0.7248 -2.0673
   17SOL     OW   49   0.609   2.836   1.732 -0.0043 -0.0621  0.6560
   17SOL    HW1   50   0.588   2.851   1.832 -1.5532 -2.1537  0.3925
   17SOL    HW2   51   0.640   2.921   1.693 -0.5936 -1.7729  1.9322
   18SOL     OW   52   1.415   0.815   0.195  0.1020  0.1576  0.1141
   18SOL    HW1   53   1.453   0.815   0.101 -2.5236 -2.3346  1.2526
   18SOL    HW2   54   1.408   0.721   0.233  2.8876  1.3275 -1.7105
   19SOL     OW   55   2.116   1.875   2.942  0.2914 -0.7072  0.1165
   19SOL    HW1   56   2.062   1.965   2.938  1.2187  2.0014 -1.1912
   19SOL    HW2   57   2.190   1.866   2.873  1.1673 -2.1700 -1.0787
   20SOL     OW   58   2.095   1.964   1.789 -0.1047 -0.4425  0.2006
   20SOL    HW1   59   2.167   1.910   1.836 -1.9346  0.7023  0.4551
   20SOL    HW2   60   2.021   1.974   1.856  0.0037  0.4909 -2.5729
   21SOL     OW   61   0.307   1.356   2.827 -0.0453 -0.0679  0.3878
   21SOL    HW1   62   0.361   1.323   2.903 -0.7640 -0.2076 -1.3319
   21SOL    HW2   63   0.368   1.407   2.762  1.9702 -0.0093 -0.5292
   22SOL     OW   64   2.569   3.038   1.458  0.2796  0.5470  0.2533
   22SOL    HW1   65   2.609   2.954   1.410 -0.8226  0.3215 -0.5295
   22SOL    HW2   66   2.471   3.025   1.470 -0.0572 -1.5771  1.2885
   23SOL     OW   67   2.974   1.041   1.712 -0.1527  0.2232 -0.3666
   23SOL    HW1   68   2.876   1.034   1.693  2.0056  0.5083  2.0358
   23SOL    HW2   69   3.030   0.979   1.661 -1.1365  1.0357  0.2613
   24SOL     OW   70   2.617   1.908   1.401 -0.2487  0.0598 -0.0696
   24SOL    HW1   71   2.572   1.944   1.483 -0.3507  0.2266  0.9540
   24SOL    HW2   72   2.681   1.834   1.432 -0.8786 -2.8966  2.0310
   25SOL     OW   73   1.815   0.108   2.560 -0.2067  0.0653 -0.3211
   25SOL    HW1   74   1.884   0.064   2.497  1.6886  2.6173 -0.0000
   25SOL    HW2   75   1.764   0.039   2.619 -1.5943 -0.3498  2.3216
   26SOL     OW   76   1.446   0.006   0.520  0.0932 -0.0355  0.1212
   26SOL    HW1   77   1.438   0.110   0.529  0.5245  1.8503  2.5798
   26SOL    HW2   78   1.527   3.081   0.465  1.5146 -0.3798  1.0648
   27SOL     OW   79   0.680   2.008   3.007 -0.5027  0.5596 -0.5142
   27SOL    HW1   80   0.777   2.006   3.039 -1.3944 -0.6506  0.0952
   27SOL    HW2   81   0.623   1.932   3.040  1.1120  0.5149 -1.8474
   28SOL     OW   82   2.944   1.542   1.086 -0.1347 -0.6690  0.2975
   28SOL    HW1   83   2.903   1.581   1.000 -2.1559  0.7998  2.0896
   28SOL    HW2   84   3.019   1.478   1.062 -1.4755 -0.3193 -1.3394
   29SOL     OW   85   2.428   2.086   2.004  0.0065 -0.3318  0.9012
   29SOL    HW1   86   2.355   2.153   2.021  1.4780  0.7815 -2.6281
   29SOL    HW2   87   2.502   2.116   2.064  0.3115  1.1066  0.0470
   30SOL     OW   88   0.958   2.903   0.873 -0.5552  0.1194  0.3329
   30SOL    HW1   89   1.051   2.935   0.837  0.1437 -0.3677  0.3948
   30SOL    HW2   90   0.893   2.976   0.882  1.1682  0.2506 -0.4354
   31SOL     OW   91   0.069   2.195   1.665 -0.0584 -0.3225 -0.2912
   31SOL    HW1   92   0.102   2.282   1.712  0.3610  1.7181  0.6961
   31SOL    HW2   93   0.154   2.129   1.666  2.5958 -0.4923  2.4725
   32SOL     OW   94   1.427   0.903   1.934  0.4026 -0.0539  0.0319
   32SOL    HW1   95   1.459   0.918   1.841 -4.7973  0.5982 -0.6590
   32SOL    HW2   96   1.506   0.893   1.995  1.1844  1.3286 -0.4928
   33SOL     OW   97   0.548   2.820   2.592 -0.1050 -0.0501  0.3409
   33SOL    HW1   98   0.577   2.865   2.507 -2.4001  0.2789 -0.8809
   33SOL    HW2   99   0.514   2.889   2.656  1.0386 -1.0561 -0.5973
   34SOL     OW  100   1.897   2.889   1.322 -0.4896 -0.0181  0.4909
   34SOL    HW1  101   1.821   2.838   1.275 -3.0975 -0.2864 -1.8490
   34SOL    HW2  102   1.940   2.825   1.383 -2.2681  0.9436  2.3800
   35SOL     OW  103   2.333   0.756   1.176 -0.4247  0.0559  0.5344
   35SOL    HW1  104   2.283   0.839   1.200 -0.5281 -0.2719 -0.8654
   35SOL    HW2  105   2.360   0.719   1.266 -0.4707 -1.0798  0.1026
   36SOL     OW  106   2.365   2.558   2.133 -0.0425 -0.0027 -0.1213
   36SOL    HW1  107   2.341   2.486   2.199  1.0475  1.6426 -0.2387
   36SOL    HW2  108   2.356   2.652   2.175 -2.2134  1.5716  1.8738
   37SOL     OW  109   1.060   2.401   2.264  0.0981 -0.1380 -0.5462
   37SOL    HW1  110   1.143   2.387   2.317  2.1344 -0.7268 -2.3544
   37SOL    HW2  111   0.975   2.400   2.323  0.3918  0.0471 -3.9262
   38SOL     OW  112   2.433   0.421   0.115  0.2936  0.3096 -0.1094
   38SOL    HW1  113   2.424   0.319   0.093  0.0302 -1.6390 -1.4358
   38SOL    HW2  114   2.404   0.469   0.034  0.5826 -1.6383 -0.0290
   39SOL     OW  115   2.115   1.628   2.499 -0.5401  0.1754  0.4660
   39SOL    HW1  116   2.062   1.692   2.549  2.5230 -1.7596 -1.4603
   39SOL    HW2  117   2.063   1.549   2.465  0.5350 -0.8233  0.4439
   40SOL     OW  118   0.013   2.967   2.282  0.4668  0.5283  0.3025
   40SOL    HW1  119   3.054   3.037   2.312 -0.5440 -0.9503  2.1336
   40SOL    HW2  120   3.091   2.879   2.328  0.8400  0.5802 -1.2605
   41SOL     OW  121   1.798   0.413   1.495  0.4570  0.5502  0.0527
   41SOL    HW1  122   1.717   0.350   1.491  0.1324  1.5101 -1.6679
   41SOL    HW2  123   1.876   0.372   1.445 -2.8672 -0.6088  1.9899
   42SOL     OW  124   0.566   0.318   1.664 -0.2566 -0.1869  0.1643
   42SOL    HW1  125   0.578   0.418   1.645  0.0830 -0.5372 -0.5269
   42SOL    HW2  126   0.559   0.276   1.573  1.7663 -1.1591 -0.1832
   43SOL     OW  127   1.730   0.454   1.848 -0.3227  0.9792  0.1098
   43SOL    HW1  128   1.703   0.355   1.827  1.1648  0.5291  2.7957
   43SOL    HW2  129   1.810   0.490   1.795 -0.3328 -1.6706 -1.0045
   44SOL     OW  130   0.203   2.911   2.754 -0.3002  0.1216  0.2952
   44SOL    HW1  131   0.240   2.847   2.683  2.0409  0.5517 -0.0897
   44SOL    HW2  132   0.105   2.891   2.779 -1.2962  0.8256 -0.3514
   45SOL     OW  133   0.308   2.425   1.486 -0.1818  0.2599 -0.4674
   45SOL    HW1  134   0.281   2.398   1.582 -2.0189 -1.4412 -1.1377
   45SOL    HW2  135   0.410   2.410   1.475  0.0507  1.2210 -2.9778
   46SOL     OW  136   2.227   2.052   2.381 -0.0598 -0.6996 -0.2084
   46SOL    HW1  137   2.204   2.063   2.479 -2.4441  1.8785 -0.6029
   46SOL    HW2  138   2.288   1.970   2.367 -1.5064 -0.1677  0.2189
   47SOL     OW  139   1.719   1.829   1.600 -0.8090 -0.2288  0.3120
   47SOL    HW1  140   1.814   1.866   1.579  0.1720 -0.0187 -0.2663
   47SOL    HW2  141   1.727   1.774   1.685 -0.1590  1.7334 -0.1900
   48SOL     OW  142   0.381   1.685   0.265 -0.3777 -0.0537 -0.2497
   48SOL    HW1  143   0.467   1.728   0.223 -0.5990 -0.9895 -1.9356
   48SOL    HW2  144   0.386   1.687   0.369  0.8062 -1.0590  1.7625
   49SOL     OW  145   2.801   0.325   2.511  0.2388 -0.3242 -0.5022
   49SOL    HW1  146   2.752   0.391   2.574 -0.5663 -0.2199 -2.0995
   49SOL    HW2  147   2.780   0.355   2.414  0.9346 -1.7776 -2.9771
   50SOL     OW  148   1.977   0.653   0.909 -0.3291 -0.1695 -0.5579
   50SOL    HW1  149   1.991   0.730   0.972  1.5177  1.3922 -2.1417
   50SOL    HW2  150   1.926   0.689   0.827 -0.0062  0.0724 -0.6760
   51SOL     OW  151   1.320   0.757   1.143  0.1040  0.5288 -0.0580
   51SOL    HW1  152   1.265   0.809   1.208 -0.4568  2.6810 -1.8243
   51SOL    HW2  153   1.263   0.741   1.063 -1.1784 -2.2499 -0.1980
   52SOL     OW  154   1.344   1.233   0.038  0.5826 -0.0762  0.3959
   52SOL    HW1  155   1.358   1.196   0.132 -0.7886  2.3303  2.4003
   52SOL    HW2  156   1.365   1.336   0.033 -1.0326  1.1219 -2.1976
   53SOL     OW  157   1.226   2.098   2.768  0.7313  0.0983  0.6779
   53SOL    HW1  158   1.196   2.048   2.851 -0.3119  2.5811 -0.0759
   53SOL    HW2  159   1.265   2.189   2.790  1.5621  1.8913  1.0508
   54SOL     OW  160   1.991   0.284   1.326 -0.4014 -0.6477  0.6879
   54SOL    HW1  161   2.004   0.181   1.336 -0.1713 -1.1945 -1.8666
   54SOL    HW2  162   2.074   0.336   1.354 -1.2278  1.1823 -1.0301
   55SOL     OW  163   2.268   2.660   0.630 -0.3962 -0.1153  0.1084
   55SOL    HW1  164   2.341   2.696   0.576  0.5137 -0.1487  2.1371
   55SOL    HW2  165   2.174   2.663   0.582 -1.3294  2.6729  1.5814
   56SOL     OW  166   0.786   2.889   1.343 -0.6741  0.0197  0.5029
   56SOL    HW1  167   0.741   2.798   1.345 -0.0874  0.1389 -1.1257
   56SOL    HW2  168   0.814   2.928   1.428 -3.4896  0.8755 -3.2221
   57SOL     OW  169   1.853   1.302   0.553 -0.2382 -0.3026 -0.2774
   57SOL    HW1  170   1.775   1.239   0.537  2.1669 -0.1257  0.0259
   57SOL    HW2  171   1.936   1.263   0.509 -1.7935 -1.1704 -0.9506
   58SOL     OW  172   0.375   1.169   2.293  0.0850 -0.4464  0.3231
   58SOL    HW1  173   0.397   1.209   2.384  0.8877  0.3932 -3.2220
   58SOL    HW2  174   0.301   1.097   2.299 -0.8666 -2.1852 -2.1866
   59SOL     OW  175   0.655   2.657   2.803  0.0682 -0.0163  0.0007
   59SOL    HW1  176   0.758   2.641   2.814  1.1562 -2.6732 -0.3764
   59SOL    HW2  177   0.624   2.738   2.747  0.7364 -2.1887 -0.4007
   60SOL     OW  178   2.468   2.546   1.088 -0.5771 -0.3698 -0.4113
   60SOL    HW1  179   2.401   2.542   1.014  2.2528 -1.2138  1.0590
   60SOL    HW2  180   2.473   2.642   1.124  0.2947 -1.1863  2.1153
   61SOL     OW  181   1.060   2.146   0.546 -0.7222 -0.6203 -0.5792
   61SOL    HW1  182   1.028   2.111   0.634  0.7701  1.0631  1.5931
   61SOL    HW2  183   1.162   2.167   0.550  2.1429  1.4694  1.5377
   62SOL     OW  184   2.042   2.645   2.844  0.0651  0.0062  0.0433
   62SOL    HW1  185   2.073   2.551   2.865 -0.8964  1.6373 -0.2988
   62SOL    HW2  186   2.083   2.720   2.901  0.8584  0.5514  1.2721
   63SOL     OW  187   2.054   0.439   0.147  0.1440 -0.5185  0.1551
   63SOL    HW1  188   1.966   0.480   0.173 -0.1734 -0.5120 -0.2467
   63SOL    HW2  189   2.109   0.421   0.230  0.1968  2.3550 -0.9419
   64SOL     OW  190   1.016   1.176   2.826 -0.0101 -0.9305  0.2776
   64SOL    HW1  191   1.037   1.270   2.783  2.2349  2.1095 -2.4346
   64SOL    HW2  192   0.928   1.185   2.880  0.7458  1.1507  3.0896
   65SOL     OW  193   1.419   2.468   0.649  0.1052  0.1702 -0.4305
   65SOL    HW1  194   1.411   2.543   0.583 -0.4712 -1.9579  0.4311
   65SOL    HW2  195   1.410   2.377   0.599 -0.2242 -1.7029 -1.8367
   66SOL     OW  196   0.679   1.249   1.719 -0.4361  0.6025 -0.3441
   66SOL    HW1  197   0.770   1.204   1.741 -0.0791 -1.0705  0.1339
   66SOL    HW2  198   0.625   1.272   1.804 -0.2895 -3.3620 -0.0747
   67SOL     OW  199   2.351   3.024   2.420 -0.4696  0.0641  0.3375
   67SOL    HW1  200   2.296   3.079   2.351  2.3914  2.1384 -1.6985
   67SOL    HW2  201   2.441   3.070   2.416 -0.9678  0.7157 -1.7571
   68SOL     OW  202   0.920   1.275   1.194  0.0597 -0.5407  0.0228
   68SOL    HW1  203   0.910   1.203   1.261  0.6647  1.4369 -3.0325
   68SOL    HW2  204   0.844   1.274   1.127  2.5664 -1.8037  0.7066
   69SOL     OW  205   1.713   2.503   0.343 -0.3960 -0.3511 -0.1005
   69SOL    HW1  206   1.655   2.589   0.336  0.3279 -0.5087 -3.1435
   69SOL    HW2  207   1.769   2.510   0.428  1.2678  0.2652  0.6008
   70SOL     OW  208   2.750   1.008   2.355 -0.2702 -0.1855 -0.2333
   70SOL    HW1  209   2.833   0.949   2.365  1.1075  0.2825  2.4174
   70SOL    HW2  210   2.665   0.948   2.363 -0.8037  0.1473 -2.0981
   71SOL     OW  211   3.048   1.629   2.878  0.1932 -0.3344  0.3421
   71SOL    HW1  212   2.995   1.547   2.846 -2.9637 -0.8436 -1.8528
   71SOL    HW2  213   3.004   1.681   2.957 -2.7066  1.2582  1.5767
   72SOL     OW  214   2.795   2.316   0.611  0.4263 -0.0191 -0.2543
   72SOL    HW1  215   2.713   2.365   0.582 -0.4087  0.4393 -0.2811
   72SOL    HW2  216   2.784   2.223   0.569 -0.4915 -2.4796  3.1587
   73SOL     OW  217   0.630   1.559   0.462  0.1774  0.5191  0.4076
   73SOL    HW1  218   0.677   1.522   0.377 -0.0013 -0.1295 -2.3175
   73SOL    HW2  219   0.530   1.585   0.448 -1.6069  1.5070  1.0842
   74SOL     OW  220   0.171   1.758   2.311 -0.3684  0.3697  0.2291
   74SOL    HW1  221   0.250   1.704   2.283  0.0132 -0.5904 -1.1797
   74SOL    HW2  222   0.141   1.733   2.403  0.9242 -0.7463 -1.9813
   75SOL     OW  223   1.646   1.362   1.568 -0.2049 -0.4675  0.7626
   75SOL    HW1  224   1.656   1.356   1.470 -0.0667 -1.5685 -1.3361
   75SOL    HW2  225   1.603   1.454   1.589 -2.3760  0.8583  1.6810
   76SOL     OW  226   2.013   2.742   1.525  0.7050  0.2714 -0.3319
   76SOL    HW1  227   2.078   2.668   1.544 -0.6906 -1.4755 -0.0584
   76SOL    HW2  228   2.003   2.800   1.608 -4.1044 -0.6183 -0.4336
   77SOL     OW  229   2.630   0.804   1.325 -0.5205 -0.2095 -0.0094
   77SOL    HW1  230   2.715   0.835   1.370 -0.3103 -0.8507  1.5577
   77SOL    HW2  231   2.628   0.772   1.229  1.2326  0.8512  1.2073
   78SOL     OW  232   1.396   1.046   0.674  0.3462 -0.2039  0.2925
   78SOL    HW1  233   1.361   1.145   0.671 -0.8603 -0.8523 -1.9371
   78SOL    HW2  234   1.467   1.025   0.608 -0.9665 -1.5542 -1.9180
   79SOL     OW  235   0.050   1.449   1.813 -0.0214  0.4516  0.3266
   79SOL    HW1  236   0.077   1.368   1.749 -0.4266 -3.6737 -0.6199
   79SOL    HW2  237   3.063   1.428   1.855 -0.3696  0.3081 -0.0728
   80SOL     OW  238   1.377   0.788   1.490 -0.2586 -0.4167 -0.0892
   80SOL    HW1  239   1.315   0.732   1.545 -0.5045 -0.3721 -0.0204
   80SOL    HW2  240   1.463   0.735   1.468  1.3835 -0.0270 -1.5734
   81SOL     OW  241   0.773   0.014   0.978 -0.1928 -0.2632 -0.5781
   81SOL    HW1  242   0.738   0.075   0.908  1.9093  0.7700 -0.4922
   81SOL    HW2  243   0.709   3.100   1.053 -0.3256  1.2176 -0.3918
   82SOL     OW  244   1.381   2.795   1.671  0.3289 -0.0238  0.1378
   82SOL    HW1  245   1.314   2.726   1.707 -2.3394  2.5556  0.5019
   82SOL    HW2  246   1.406   2.761   1.575 -0.3550 -0.2249 -2.2849
   83SOL     OW  247   0.952   2.005   0.799 -0.6900 -0.0049 -0.0430
   83SOL    HW1  248   0.866   2.020   0.847  2.1058 -1.0737  0.8845
   83SOL    HW2  249   1.033   2.031   0.859 -0.9440  2.2906 -1.1207
   84SOL     OW  250   0.457   1.517   2.643  0.7666 -0.5109  0.3730
   84SOL    HW1  251   0.368   1.497   2.594  1.5692  0.2244  2.1505
   84SOL    HW2  252   0.540   1.503   2.585  1.6954 -0.0200  0.0294
   85SOL     OW  253   0.130   2.272   1.330 -0.1719  0.3063 -0.0227
   85SOL    HW1  254   0.032   2.300   1.350 -0.0392 -1.9469 -0.8921
   85SOL    HW2  255   0.196   2.315   1.395 -0.7018 -0.3587  0.7940
   86SOL     OW  256   2.484   2.136   1.354 -0.3336 -0.4561 -0.1515
   86SOL    HW1  257   2.539   2.050   1.349 -1.0666  0.4814 -0.3105
   86SOL    HW2  258   2.464   2.168   1.448 -0.6633  0.5229 -2.7311
   87SOL     OW  259   2.777   2.116   0.435 -0.2157 -0.3464 -0.5819
   87SOL    HW1  260   2.690   2.081   0.410  3.7659 -0.2388  2.0065
   87SOL    HW2  261   2.825   2.161   0.356 -0.8632  0.5300  0.7709
   88SOL     OW  262   0.685   1.449   1.306 -0.3233  0.2959 -0.1653
   88SOL    HW1  263   0.623   1.492   1.234 -0.5559  0.7871  0.8754
   88SOL    HW2  264   0.761   1.389   1.266  4.7089 -2.3317 -3.0691
   89SOL     OW  265   0.961   0.003   1.932  0.1872 -0.4458  0.0211
   89SOL    HW1  266   0.959   3.007   1.938  2.0269 -1.7640  1.1603
   89SOL    HW2  267   0.879   0.033   1.874 -4.1652 -0.9180 -0.7142
   90SOL     OW  268   0.007   1.733   1.219 -0.7967 -0.0709 -0.5386
   90SOL    HW1  269   0.012   1.698   1.314 -0.5256 -2.8057  0.3708
   90SOL    HW2  270   3.040   1.681   1.165 -1.9292 -2.1348 -0.7886
   91SOL     OW  271   1.326   1.828   1.121 -0.1025  0.0866  0.4231
   91SOL    HW1  272   1.266   1.887   1.176 -1.7227 -1.9348 -2.1052
   91SOL    HW2  273   1.390   1.787   1.188 -3.8348 -1.1279 -2.7785
   92SOL     OW  274   2.465   2.259   1.605 -0.2102 -0.0053  0.0553
   92SOL    HW1  275   2.400   2.266   1.682 -2.8486  2.4013  4.7115
   92SOL    HW2  276   2.556   2.298   1.627  0.0277  2.4429  1.9171
   93SOL     OW  277   2.865   1.619   2.558 -0.0685 -0.1399 -0.2274
   93SOL    HW1  278   2.811   1.566   2.487  0.4678  1.0324  2.0633
   93SOL    HW2  279   2.900   1.558   2.631  0.7473 -1.0674 -0.7938
   94SOL     OW  280   2.768   2.614   2.125  0.6161 -0.4173 -0.1657
   94SOL    HW1  281   2.751   2.662   2.212  0.5754 -2.5584  1.0130
   94SOL    HW2  282   2.853   2.561   2.132 -2.9745  2.2713 -0.8453
   95SOL     OW  283   1.615   0.215   1.822 -0.0141 -0.2501 -0.3776
   95SOL    HW1  284   1.674   0.167   1.894  2.2030 -2.1625  0.5767
   95SOL    HW2  285   1.516   0.188   1.828  1.6484  1.1473 -2.1750
   96SOL     OW  286   3.093   3.057   1.540 -0.2387  0.2999 -0.4281
   96SOL    HW1  287   3.093   0.054   1.555 -1.8908 -1.2392  4.0962
   96SOL    HW2  288   3.088   3.036   1.443  1.8821 -0.2534  3.6145
   97SOL     OW  289   2.396   0.225   1.450  0.5431  0.5310  0.6061
   97SOL    HW1  290   2.381   0.284   1.535 -0.9769 -1.6188 -2.1898
   97SOL    HW2  291   2.491   0.227   1.411  0.9048 -0.9218 -0.5567
   98SOL     OW  292   1.682   2.514   1.565  0.0684  0.3207 -0.5069
   98SOL    HW1  293   1.756   2.518   1.488  1.4545 -1.7800  0.1582
   98SOL    HW2  294   1.732   2.512   1.649 -0.8877 -2.1475 -1.1151
   99SOL     OW  295   3.025   3.079   1.994 -0.1818  0.2179  0.4024
   99SOL    HW1  296   3.010   3.018   1.914  1.4033 -0.6121 -1.2801
   99SOL    HW2  297   0.019   0.001   1.991 -0.4600  0.3236 -0.1688
  100SOL     OW  298   2.839   1.163   2.122  0.2045  0.0618 -0.2174
  100SOL    HW1  299   2.842   1.264   2.131  2.2016 -0.1757 -1.9368
  100SOL    HW2  300   2.810   1.118   2.211 -0.9142 -0.5059  2.3675
  101SOL     OW  301   1.557   0.613   0.615  0.5224 -0.5482 -0.5980
  101SOL    HW1  302   1.481   0.557   0.572 -1.0173 -0.2693 -0.7984
  101SOL    HW2  303   1.529   0.623   0.711  0.9413 -0.4069 -1.4018
  102SOL     OW  304   0.358   0.658   1.545  0.0980  0.2049 -0.0451
  102SOL    HW1  305   0.377   0.609   1.631  1.9740  3.0057 -0.5722
  102SOL    HW2  306   0.277   0.724   1.547  0.6721 -1.1952  1.6072
  103SOL     OW  307   2.130   0.621   3.031 -0.3946  0.1599  0.0477
  103SOL    HW1  308   2.102   0.540   3.088  0.5905 -2.0185  0.9211
  103SOL    HW2  309   2.056   0.690   3.026  0.8002 -1.2449 -1.5328
  104SOL     OW  310   0.082   0.333   2.148 -0.1703 -0.2429  0.6054
  104SOL    HW1  311   0.171   0.392   2.145  1.5861  0.7729 -0.8524
  104SOL    HW2  312   0.080   0.285   2.237 -2.1853  1.9422 -0.5501
  105SOL     OW  313   2.009   0.786   1.746 -0.7466  0.5608  0.5566
  105SOL    HW1  314   1.917   0.829   1.748  0.3858 -0.6872  1.0567
  105SOL    HW2  315   2.061   0.832   1.671 -0.3922 -0.3179  0.7112
  106SOL     OW  316   1.649   2.997   0.994  0.1405  0.1304  0.1521
  106SOL    HW1  317   1.563   3.005   1.056 -1.0555 -3.2314 -0.4801
  106SOL    HW2  318   1.727   3.041   1.044  3.0532  3.5089 -0.5257
  107SOL     OW  319   0.250   1.287   0.719 -0.1199 -0.2582 -0.4053
  107SOL    HW1  320   0.268   1.266   0.619  3.5037 -0.5196 -1.4707
  107SOL    HW2  321   0.155   1.324   0.740  0.8116  1.1188 -1.1415
  108SOL     OW  322   0.082   0.177   2.360 -0.6492 -0.5601 -0.8840
  108SOL    HW1  323   0.001   0.115   2.351 -1.4212 -1.0047  0.9905
  108SOL    HW2  324   0.146   0.140   2.429  0.5665 -0.9838 -2.2523
  109SOL     OW  325   2.657   0.301   0.536  0.4091  0.0464 -0.2844
  109SOL    HW1  326   2.602   0.358   0.471  0.3919  0.4233 -1.2721
  109SOL    HW2  327   2.634   0.328   0.631  1.2084  0.9652 -0.7311
  110SOL     OW  328   0.333   2.310   2.860 -0.0562  0.0235  0.3822
  110SOL    HW1  329   0.268   2.316   2.938 -1.5160 -0.5725  1.3626
  110SOL    HW2  330   0.368   2.398   2.831 -1.4823 -1.8040 -1.5160
  111SOL     OW  331   1.778   3.044   2.173  0.1650 -0.1114  0.4481
  111SOL    HW1  332   1.779   0.015   2.102  1.1832  0.8677 -1.7377
  111SOL    HW2  333   1.737   2.958   2.136  1.3022  4.3111 -2.7320
  112SOL     OW  334   2.167   2.413   2.970 -0.5079  0.4961  0.0902
  112SOL    HW1  335   2.126   2.344   3.034  0.3631  0.1363 -2.1752
  112SOL    HW2  336   2.246   2.466   3.019  0.5507 -0.5448  0.5988
  113SOL     OW  337   2.733   2.083   1.828  0.0482 -0.6348 -0.0532
  113SOL    HW1  338   2.820   2.082   1.771  1.7674 -0.5022  2.6151
  113SOL    HW2  339   2.723   2.170   1.882 -2.2716  2.4003  1.2050
  114SOL     OW  340   2.686   0.766   1.004 -0.0876  0.3325  0.3473
  114SOL    HW1  341   2.589   0.746   0.967 -2.9492 -1.6013  0.0718
  114SOL    HW2  342   2.731   0.677   1.026  1.6241  3.0428  2.0641
  115SOL     OW  343   2.958   1.725   0.002 -0.3742  0.0680 -0.0879
  115SOL    HW1  344   3.014   1.654   0.048 -0.0574 -0.6935 -1.1578
  115SOL    HW2  345   2.995   1.818   0.031 -1.4161 -1.3694  0.9988
  116SOL     OW  346   0.159   1.568   2.036 -0.0177  0.0412 -0.3724
  116SOL    HW1  347   0.131   1.506   1.960 -2.1450  1.8767  1.2506
  116SOL    HW2  348   0.075   1.595   2.087  1.5342 -2.6412 -1.2443
  117SOL     OW  349   2.747   3.050   0.787 -0.2090 -0.9395 -0.1264
  117SOL    HW1  350   2.655   3.011   0.766  0.4514  0.2056 -1.7820
  117SOL    HW2  351   2.782   3.100   0.702  0.5112  0.4642 -0.8479
  118SOL     OW  352   0.575   2.151   1.644 -0.5130 -0.4356 -0.0162
  118SOL    HW1  353   0.556   2.205   1.728 -0.1644 -0.9488  1.0500
  118SOL    HW2  354   0.576   2.217   1.564 -2.1191 -0.0643 -1.2921
  119SOL     OW  355   1.551   2.268   0.430 -0.1573 -0.4214  0.0254
  119SOL    HW1  356   1.596   2.176   0.443  0.7572 -1.8080 -0.2481
  119SOL    HW2  357   1.626   2.339   0.422 -1.1678  0.6682 -2.2586
  120SOL     OW  358   0.026   2.094   2.257 -0.1073  0.2395 -0.0318
  120SOL    HW1  359   0.123   2.068   2.233  2.3854 -1.1678 -1.0921
  120SOL    HW2  360   0.029   2.169   2.325 -0.4525  0.2453  1.2783
  121SOL     OW  361   2.139   1.941   1.355 -0.0753  0.0456 -0.7360
  121SOL    HW1  362   2.139   1.879   1.276 -1.4590  1.1329  1.5671
  121SOL    HW2  363   2.107   2.034   1.328  1.1425 -0.5392 -0.0382
  122SOL     OW  364   2.242   1.750   2.255  0.1842 -0.5515 -0.1368
  122SOL    HW1  365   2.332   1.782   2.278 -4.8515 -2.9008 -2.0040
  122SOL    HW2  366   2.183   1.728   2.338 -0.5851  0.4525  1.8322
  123SOL     OW  367   0.153   2.915   0.653  0.0917  0.3806  0.0796
  123SOL    HW1  368   0.083   2.988   0.629 -1.2550 -1.3325 -0.5986
  123SOL    HW2  369   0.104   2.830   0.687 -2.0485 -2.6977 -0.5426
  124SOL     OW  370   1.647   0.746   2.471  0.2793  0.0495  0.6570
  124SOL    HW1  371   1.736   0.780   2.434 -1.3842  0.0140 -3.3540
  124SOL    HW2  372   1.600   0.823   2.516 -2.1702 -3.8880 -1.5292
  125SOL     OW  373   0.620   1.447   3.016 -0.2998  0.3820 -0.4143
  125SOL    HW1  374   0.607   1.527   2.956 -0.9954 -1.8977  2.2688
  125SOL    HW2  375   0.526   1.418   3.043  0.9921  2.4792 -1.3866
  126SOL     OW  376   2.554   1.911   0.387  0.6683 -0.5432  0.6982
  126SOL    HW1  377   2.523   1.985   0.325  0.7844 -0.2306  0.0796
  126SOL    HW2  378   2.538   1.937   0.485 -1.3583  2.6467 -2.7328
  127SOL     OW  379   0.488   1.731   1.189  0.0664 -0.4720 -0.0491
  127SOL    HW1  380   0.443   1.820   1.213  1.1646  1.4967  1.1455
  127SOL    HW2  381   0.424   1.666   1.139 -0.0396  1.3474 -0.5282
  128SOL     OW  382   0.884   0.758   0.099 -0.0868 -0.0019  0.2324
  128SOL    HW1  383   0.851   0.755   0.002 -1.6106  0.7879 -1.3270
  128SOL    HW2  384   0.973   0.812   0.109  0.9506  2.1403  1.5352
  129SOL     OW  385   2.202   1.378   0.893 -0.2284 -0.0267 -0.1784
  129SOL    HW1  386   2.122   1.338   0.846  2.6353  0.7071  0.0567
  129SOL    HW2  387   2.226   1.312   0.967  1.6184 -0.5117 -2.3144
  130SOL     OW  388   2.175   1.597   1.163 -0.3024  0.1111 -0.5009
  130SOL    HW1  389   2.217   1.683   1.130  1.4637 -1.2958 -1.4890
  130SOL    HW2  390   2.086   1.587   1.113 -0.3026 -1.0748 -0.9636
  131SOL     OW  391   2.792   1.172   2.782  0.5685  0.0663 -0.4224
  131SOL    HW1  392   2.734   1.162   2.865 -0.9058 -1.0069  0.0717
  131SOL    HW2  393   2.869   1.107   2.782  0.9692  0.6969 -1.8600
  132SOL     OW  394   2.788   1.627   1.761 -0.0060 -0.1228  0.9250
  132SOL    HW1  395   2.774   1.711   1.812 -0.9655  0.6177 -3.9207
  132SOL    HW2  396   2.822   1.545   1.815  0.5543 -1.4455  1.4994
  133SOL     OW  397   2.980   0.615   0.275  0.6723  0.4944 -0.2166
  133SOL    HW1  398   2.941   0.514   0.285 -0.6851 -3.9765  0.8829
  133SOL    HW2  399   3.074   0.603   0.236  4.1779 -2.8705 -2.6084
  134SOL     OW  400   0.242   1.028   0.059 -0.0805  0.1606 -0.4537
  134SOL    HW1  401   0.174   1.096   0.027  0.8234 -2.6782  0.6770
  134SOL    HW2  402   0.223   0.942   0.015  0.8314  3.9783 -0.7797
  135SOL     OW  403   2.237   1.646   0.813 -0.0054  0.2791 -0.5646
  135SOL    HW1  404   2.234   1.546   0.831  0.2700 -2.5869  1.2018
  135SOL    HW2  405   2.169   1.666   0.741  0.6328 -0.8319 -0.3930
  136SOL     OW  406   1.882   1.357   1.058  0.3010  0.0872 -0.3398
  136SOL    HW1  407   1.936   1.329   1.142 -0.1804  1.2912 -0.2523
  136SOL    HW2  408   1.873   1.458   1.058 -1.2620 -2.2964  1.6364
  137SOL     OW  409   2.481   1.394   0.800 -0.0429  0.0158  0.0576
  137SOL    HW1  410   2.386   1.361   0.821  2.1516 -0.1862  0.2602
  137SOL    HW2  411   2.510   1.457   0.874  1.9587  0.0413 -0.0914
  138SOL     OW  412   1.281   0.301   1.645  0.1108 -0.3877 -0.1420
  138SOL    HW1  413   1.339   0.381   1.648  3.4216 -4.7472 -1.3879
  138SOL    HW2  414   1.282   0.260   1.551 -1.6923 -0.6070 -0.2196
  139SOL     OW  415   1.923   0.036   0.262 -0.5943  0.1558  0.8500
  139SOL    HW1  416   1.983   0.045   0.177  0.3547 -1.7391 -1.8168
  139SOL    HW2  417   1.957   0.090   0.343  0.6174  0.3137  0.8082
  140SOL     OW  418   1.550   2.185   2.488 -0.8089 -0.2864  0.0464
  140SOL    HW1  419   1.455   2.181   2.466  1.6419  0.7325 -2.1213
  140SOL    HW2  420   1.607   2.156   2.409  2.0172 -0.4734 -0.7629
  141SOL     OW  421   0.941   1.170   1.741 -0.2019 -0.3158  0.0069
  141SOL    HW1  422   1.004   1.246   1.765 -0.9295  0.7516  1.7549
  141SOL    HW2  423   0.986   1.075   1.746  0.6630 -2.7458 -1.8911
  142SOL     OW  424   2.623   0.156   2.967  0.0920 -0.1767  0.1724
  142SOL    HW1  425   2.551   0.148   3.039 -0.6101  0.5666  0.2243
  142SOL    HW2  426   2.679   0.072   2.955 -3.4013 -1.7082 -1.1693
  143SOL     OW  427   0.914   2.351   2.934  0.2799 -0.3947  0.0661
  143SOL    HW1  428   0.908   2.432   2.997  2.2950  0.7765 -0.2120
  143SOL    HW2  429   0.981   2.372   2.856  0.2215  0.6432 -0.4236
  144SOL     OW  430   1.044   2.790   2.495  0.5420  0.1997 -0.4052
  144SOL    HW1  431   1.033   2.727   2.577  0.9394  1.6224  0.2107
  144SOL    HW2  432   1.143   2.819   2.482  2.7896 -0.8488  0.4059
  145SOL     OW  433   2.445   1.420   0.106  0.4792 -0.3955 -0.1181
  145SOL    HW1  434   2.519   1.350   0.109  0.4851 -0.9039 -0.3695
  145SOL    HW2  435   2.469   1.506   0.160 -0.4161  1.2945  0.7522
  146SOL     OW  436   2.727   2.945   2.959 -0.0930 -0.2748 -0.1188
  146SOL    HW1  437   2.708   2.970   3.059 -0.5729 -0.6384  0.3449
  146SOL    HW2  438   2.818   2.892   2.954 -0.5987 -0.4940  1.6868
  147SOL     OW  439   2.321   2.184   1.139 -0.0214  0.1408 -0.2566
  147SOL    HW1  440   2.303   2.285   1.154  0.0901  0.0255 -1.5615
  147SOL    HW2  441   2.366   2.145   1.224 -0.6450  0.5625  0.7458
  148SOL     OW  442   1.627   0.013   0.262 -0.2218  0.1979  0.4910
  148SOL    HW1  443   1.594   0.089   0.204 -1.6248 -1.0261  0.5126
  148SOL    HW2  444   1.728   0.017   0.273  0.9121 -3.1131  0.5758
  149SOL     OW  445   1.028   1.545   2.806  0.1194  0.0663  0.3347
  149SOL    HW1  446   1.122   1.508   2.792 -1.3304 -2.0236 -3.3862
  149SOL    HW2  447   0.982   1.543   2.715  0.2996  3.8132 -4.4751
  150SOL     OW  448   0.800   2.682   0.566  0.4523 -0.2425 -0.4071
  150SOL    HW1  449   0.900   2.678   0.578 -2.4122  0.0772 -0.2090
  150SOL    HW2  450   0.769   2.608   0.507  0.7336  3.4666 -0.0046
  151SOL     OW  451   0.321   1.844   2.939  0.0399  0.2509  0.0451
  151SOL    HW1  452   0.251   1.770   2.938 -3.0419  0.9353  0.0942
  151SOL    HW2  453   0.412   1.804   2.920  0.2183  0.6991  0.0269
  152SOL     OW  454   2.952   0.894   0.362  0.3561 -0.1570  0.0663
  152SOL    HW1  455   2.992   0.889   0.451 -0.7251 -0.4601 -0.6529
  152SOL    HW2  456   2.947   0.799   0.326 -2.3805 -1.5905  0.8951
  153SOL     OW  457   2.446   2.535   2.972  0.2610  0.1029  0.5371
  153SOL    HW1  458   2.522   2.529   3.038  0.0454  0.7130  0.4099
  153SOL    HW2  459   2.444   2.626   2.923 -0.7388  2.5214 -2.4745
  154SOL     OW  460   0.621   3.037   1.184  0.1264  0.2119  0.4668
  154SOL    HW1  461   0.686   2.979   1.237 -1.3958  1.0910 -1.8568
  154SOL    HW2  462   0.532   2.987   1.168 -0.5842 -0.9968  0.1611
  155SOL     OW  463   0.375   1.959   1.266  0.0508 -0.1565 -0.2577
  155SOL    HW1  464   0.377   1.952   1.164  0.5413 -3.0295  0.4004
  155SOL    HW2  465   0.282   1.974   1.303 -0.6101  0.9176 -0.1333
  156SOL     OW  466   2.469   2.304   2.844 -0.0112 -0.6017 -0.5395
  156SOL    HW1  467   2.524   2.242   2.894  1.3062  0.2403  0.2333
  156SOL    HW2  468   2.461   2.391   2.894 -0.1831  1.5474  0.8963
  157SOL     OW  469   0.925   2.477   1.119 -0.5437  0.2475  0.0208
  157SOL    HW1  470   0.832   2.511   1.087  0.2022  2.9518  1.6434
  157SOL    HW2  471   0.930   2.485   1.227 -0.6705  1.2897 -0.2403
  158SOL     OW  472   1.814   0.788   2.775 -0.0704 -0.1400  0.7199
  158SOL    HW1  473   1.774   0.700   2.740 -0.4975  0.0480 -0.0745
  158SOL    HW2  474   1.752   0.872   2.753 -0.9805 -0.0949 -1.2210
  159SOL     OW  475   0.982   0.445   2.514 -0.3474 -0.1064  0.4909
  159SOL    HW1  476   0.985   0.480   2.417 -1.7199 -1.4008  3.1740
  159SOL    HW2  477   1.043   0.497   2.575  0.1930 -0.3953  0.6379
  160SOL     OW  478   1.165   1.894   0.422  0.4080 -0.1597 -0.2919
  160SOL    HW1  479   1.116   1.973   0.453 -0.7052 -2.0880 -1.5045
  160SOL    HW2  480   1.093   1.843   0.371 -0.2019 -2.9315  1.2925
  161SOL     OW  481   3.044   2.174   0.017 -0.5757  0.6488 -0.2557
  161SOL    HW1  482   3.066   2.076   0.021 -0.8059 -1.9690 -2.4183
  161SOL    HW2  483   3.005   2.194   0.108  0.2922 -1.8175  1.8019
  162SOL     OW  484   0.645   2.547   1.044  0.4689 -0.1671  0.1869
  162SOL    HW1  485   0.682   2.613   0.975 -2.5698 -2.2184  0.8793
  162SOL    HW2  486   0.626   2.591   1.137 -1.0284  0.8587 -0.8802
  163SOL     OW  487   2.475   0.799   0.009  0.1868 -0.1706  0.8125
  163SOL    HW1  488   2.438   0.838   3.027  1.5423 -1.7268  3.0224
  163SOL    HW2  489   2.528   0.715   3.094 -2.3668  1.1005  0.5224
  164SOL     OW  490   0.053   2.797   3.100 -0.3072 -0.5005 -0.6081
  164SOL    HW1  491   0.083   2.703   0.017  0.6769  0.2470  0.8006
  164SOL    HW2  492   0.139   2.849   3.086 -2.0615  0.6699  3.6391
  165SOL     OW  493   2.265   0.449   1.341 -0.1694 -0.0587 -0.2531
  165SOL    HW1  494   2.319   0.373   1.385 -1.0091 -0.3228  1.6116
  165SOL    HW2  495   2.279   0.539   1.390 -0.7094 -1.4510  0.0290
  166SOL     OW  496   2.049   0.192   1.007  0.2019  0.0778 -0.3904
  166SOL    HW1  497   2.124   0.248   1.049 -0.5387  0.4971  0.0141
  166SOL    HW2  498   2.085   0.130   0.935 -0.9047  1.8492  1.9751
  167SOL     OW  499   0.545   0.766   1.869  0.0841 -0.0077 -0.7847
  167SOL    HW1  500   0.508   0.683   1.824 -0.2527  2.0084  0.0842
  167SOL    HW2  501   0.470   0.809   1.929 -2.4860  2.5322  2.7810
  168SOL     OW  502   2.829   2.999   2.164  0.2420 -0.4020  0.1184
  168SOL    HW1  503   2.763   3.073   2.136 -0.7643  1.1814 -1.5215
  168SOL    HW2  504   2.917   3.007   2.107  2.0460 -1.1612 -0.8891
  169SOL     OW  505   3.086   1.357   0.459  0.0313 -0.6038  0.7149
  169SOL    HW1  506   0.066   1.300   0.462 -0.1160 -2.2263 -1.3952
  169SOL    HW2  507   3.010   1.309   0.505  1.3971  0.5506  0.9732
  170SOL     OW  508   0.046   0.829   1.598  0.5191 -0.3920  0.6529
  170SOL    HW1  509   0.135   0.875   1.616  0.7594  0.7911 -0.4475
  170SOL    HW2  510   0.031   0.758   1.666 -0.5092  1.3926 -0.0155
  171SOL     OW  511   1.251   1.988   1.901 -0.4650  0.0103 -0.1980
  171SOL    HW1  512   1.232   2.061   1.966  1.6840 -2.1346  2.5971
  171SOL    HW2  513   1.167   1.938   1.874  2.5668  1.6105  1.2955
  172SOL     OW  514   0.572   2.352   1.458 -0.3940  0.5203  0.2397
  172SOL    HW1  515   0.668   2.371   1.447  1.3970 -2.8056  0.2509
  172SOL    HW2  516   0.539   2.293   1.381  0.0394 -0.5959  0.4547
  173SOL     OW  517   1.208   0.067   0.356 -0.3172 -0.0127 -0.1124
  173SOL    HW1  518   1.111   0.053   0.380  0.4832 -0.8117 -0.1442
  173SOL    HW2  519   1.278   0.034   0.420  1.7542  0.2590 -0.7943
  174SOL     OW  520   0.659   2.896   0.156  0.0438 -0.1420 -0.8146
  174SOL    HW1  521   0.627   2.859   0.067 -0.8673  0.9757  0.2008
  174SOL    HW2  522   0.615   2.985   0.182 -2.7255  1.7327  0.4498
  175SOL     OW  523   1.210   1.049   3.007  0.1954  0.2521 -0.5268
  175SOL    HW1  524   1.266   1.125   3.046  1.5049 -0.5342  4.4446
  175SOL    HW2  525   1.137   1.085   2.954 -0.4754  1.3765 -0.3360
  176SOL     OW  526   1.354   0.529   0.247 -0.4918  0.1794  0.4316
  176SOL    HW1  527   1.356   0.427   0.246 -1.2499  0.2697  0.9585
  176SOL    HW2  528   1.261   0.559   0.276  0.0242 -0.5630  0.5196
  177SOL     OW  529   1.261   0.899   0.852 -0.4702  0.6077 -0.4552
  177SOL    HW1  530   1.201   0.971   0.896 -2.5174 -0.7862  4.4179
  177SOL    HW2  531   1.324   0.945   0.787 -0.6408  0.0933  1.9311
  178SOL     OW  532   2.824   1.887   2.576 -0.3900 -0.7023  0.2617
  178SOL    HW1  533   2.826   1.783   2.571  1.6056  0.6251  0.4507
  178SOL    HW2  534   2.742   1.931   2.535  2.0425  0.5875  1.5748
  179SOL     OW  535   0.482   2.999   2.768 -0.1771  0.2884  0.3350
  179SOL    HW1  536   0.451   3.087   2.808 -0.0755  0.5356  1.6812
  179SOL    HW2  537   0.566   2.967   2.824  1.2619 -4.3771 -0.2759
  180SOL     OW  538   1.748   1.428   1.310 -0.1515  0.2569 -0.2448
  180SOL    HW1  539   1.821   1.354   1.323  1.5379 -2.4187  1.9408
  180SOL    HW2  540   1.787   1.522   1.338  0.2636  0.5698 -0.3945
  181SOL     OW  541   1.180   1.374   2.189 -0.3151  0.1635 -1.0651
  181SOL    HW1  542   1.224   1.298   2.139 -2.8736  2.1622 -2.4939
  181SOL    HW2  543   1.230   1.391   2.276 -1.3305  1.9352 -0.0348
  182SOL     OW  544   2.921   0.789   2.709 -0.1008 -0.2221 -0.3130
  182SOL    HW1  545   2.925   0.885   2.746  0.8190  1.3353  0.0955
  182SOL    HW2  546   2.839   0.740   2.744 -2.6651  0.2908  1.2216
  183SOL     OW  547   1.446   3.007   2.665  0.5508 -0.0457 -0.1309
  183SOL    HW1  548   1.548   3.014   2.666  0.3082 -3.0788  2.5831
  183SOL    HW2  549   1.409   3.100   2.675 -0.9910  4.3610 -0.1668
  184SOL     OW  550   0.616   0.562   1.488  0.0178 -0.2210 -0.4549
  184SOL    HW1  551   0.576   0.651   1.512  4.0780 -2.6193 -1.0977
  184SOL    HW2  552   0.717   0.571   1.469 -1.0609  1.5385 -1.7029
  185SOL     OW  553   2.708   1.218   0.798 -0.1789 -0.1089  0.5702
  185SOL    HW1  554   2.644   1.291   0.774  2.6547  0.9695  0.5843
  185SOL    HW2  555   2.693   1.191   0.893  0.4883  0.0714 -0.8674
  186SOL     OW  556   0.304   2.059   2.757 -0.0464  0.3859 -0.1129
  186SOL    HW1  557   0.329   2.139   2.815 -0.4762 -1.4163  1.9907
  186SOL    HW2  558   0.309   1.979   2.821 -1.1800  3.1578 -0.2995
  187SOL     OW  559   2.662   1.230   0.104 -0.3838 -0.0649 -0.0501
  187SOL    HW1  560   2.754   1.263   0.129  1.6636 -0.9906 -0.5302
  187SOL    HW2  561   2.670   1.170   0.021  0.9575  0.2667 -0.4574
  188SOL     OW  562   0.454   1.963   0.509  0.4950  0.1777 -0.5839
  188SOL    HW1  563   0.535   2.019   0.488 -3.0499  2.4019 -2.3898
  188SOL    HW2  564   0.371   1.982   0.451 -0.2230  0.0751 -2.4133
  189SOL     OW  565   2.484   0.906   0.253 -0.2763  0.1526  0.2724
  189SOL    HW1  566   2.488   0.881   0.154  1.4052 -0.8392  1.0882
  189SOL    HW2  567   2.534   0.988   0.271  0.3835 -1.9228  0.1853
  190SOL     OW  568   1.187   1.646   2.064  0.6491 -0.2386 -0.1313
  190SOL    HW1  569   1.206   1.556   2.112 -0.2158 -1.1151  1.5266
  190SOL    HW2  570   1.119   1.693   2.126 -2.1719  1.0626  1.1161
  191SOL     OW  571   2.945   0.433   1.474 -0.0131 -0.5905  0.0126
  191SOL    HW1  572   2.857   0.449   1.428  0.8224  1.0166  0.7432
  191SOL    HW2  573   2.941   0.472   1.566 -0.7718 -2.0153 -1.3005
  192SOL     OW  574   2.262   0.282   1.882  0.2230 -0.2406 -0.2575
  192SOL    HW1  575   2.281   0.184   1.907  2.6196 -1.1029  2.3441
  192SOL    HW2  576   2.316   0.349   1.939  1.7339 -0.1628  1.1567
  193SOL     OW  577   0.505   0.683   0.579 -0.3870  0.2473 -0.0854
  193SOL    HW1  578   0.438   0.673   0.660 -1.6258  0.7757  3.3751
  193SOL    HW2  579   0.511   0.778   0.552  1.3437 -3.0081  2.1524
  194SOL     OW  580   1.419   2.381   1.708  0.0073  0.1284  0.9373
  194SOL    HW1  581   1.401   2.288   1.677  2.0754 -0.2909  2.3458
  194SOL    HW2  582   1.483   2.431   1.635  1.9622  1.5185 -3.9899
  195SOL     OW  583   2.251   0.536   0.881  0.9497 -0.1700  0.1264
  195SOL    HW1  584   2.312   0.612   0.903 -0.2915 -1.0769  0.5077
  195SOL    HW2  585   2.157   0.572   0.862 -0.8321 -2.0525 -1.3382
  196SOL     OW  586   1.858   2.034   1.926  0.2401 -0.1287  0.5264
  196SOL    HW1  587   1.839   1.959   1.991  1.2386 -0.3565 -2.8901
  196SOL    HW2  588   1.773   2.069   1.876 -1.4707 -1.9087 -2.1019
  197SOL     OW  589   0.377   0.240   0.068 -0.1176  0.2496 -0.1993
  197SOL    HW1  590   0.339   0.145   0.062 -0.1625 -1.5734 -0.2207
  197SOL    HW2  591   0.340   0.299   3.097  1.3468  2.1393 -0.0397
  198SOL     OW  592   0.959   1.274   0.793 -0.0065  0.1451 -0.3241
  198SOL    HW1  593   0.864   1.308   0.800  0.3046 -0.1504 -1.6262
  198SOL    HW2  594   1.021   1.351   0.810 -1.8099 -1.7695 -0.1552
  199SOL     OW  595   2.495   0.805   1.936 -0.4769 -0.4224 -0.5748
  199SOL    HW1  596   2.530   0.725   1.991 -1.0617  0.1413  0.8403
  199SOL    HW2  597   2.560   0.880   1.955 -0.9787  0.0278 -1.8033
  200SOL     OW  598   2.658   2.376   2.216  0.1559 -0.5398  0.5365
  200SOL    HW1  599   2.636   2.428   2.130 -1.2957 -0.2201 -1.1367
  200SOL    HW2  600   2.681   2.447   2.287  2.4688  0.2076 -0.2629
  201SOL     OW  601   2.868   0.172   1.131  0.2830 -0.2517  0.0733
  201SOL    HW1  602   2.950   0.206   1.077  1.1389 -1.2468 -0.7493
  201SOL    HW2  603   2.783   0.175   1.079  0.7104  2.9768  1.9366
  202SOL     OW  604   1.908   0.296   0.759 -0.1464  0.1981  0.2087
  202SOL    HW1  605   1.881   0.248   0.843  0.4211 -1.2614  2.5593
  202SOL    HW2  606   2.008   0.318   0.760  0.0978  0.3434 -1.4551
  203SOL     OW  607   1.762   1.841   2.139 -0.3714 -0.2873 -0.2634
  203SOL    HW1  608   1.674   1.882   2.099  2.8785 -0.7362 -2.5450
  203SOL    HW2  609   1.750   1.834   2.237 -1.7525  2.6859  0.2504
  204SOL     OW  610   0.822   1.675   2.072 -0.1049 -0.4417  0.4047
  204SOL    HW1  611   0.864   1.581   2.065  1.5429 -1.6782  0.0186
  204SOL    HW2  612   0.880   1.736   2.124 -1.7787 -1.8757 -1.5836
  205SOL     OW  613   0.876   1.726   1.528  0.2551 -0.2838  0.5733
  205SOL    HW1  614   0.840   1.637   1.551  1.5322  3.1864  2.4990
  205SOL    HW2  615   0.804   1.794   1.547  1.9136 -0.4051 -0.4066
  206SOL     OW  616   2.960   0.446   2.957  0.1179 -0.2567 -0.0982
  206SOL    HW1  617   2.999   0.536   2.978  1.0805 -1.0686  0.0899
  206SOL    HW2  618   2.869   0.460   2.915 -0.6445  0.0959  1.9399
  207SOL     OW  619   1.802   2.708   1.904  0.7622  0.4454 -0.1209
  207SOL    HW1  620   1.884   2.735   1.957 -0.4425  1.9492 -0.8030
  207SOL    HW2  621   1.811   2.615   1.860  0.8717 -2.2835  0.4147
  208SOL     OW  622   0.515   2.227   1.240  0.0825  0.2399 -0.2493
  208SOL    HW1  623   0.433   2.165   1.245 -1.7692 -0.0486  2.9875
  208SOL    HW2  624   0.542   2.232   1.145 -1.0885  0.1777 -0.5986
  209SOL     OW  625   1.528   1.290   2.281  0.2638 -0.0754  0.3099
  209SOL    HW1  626   1.546   1.329   2.188  0.8540  1.4331 -1.3607
  209SOL    HW2  627   1.460   1.348   2.335 -0.4632  1.0069  2.0468
  210SOL     OW  628   1.910   0.844   1.339 -0.1267 -0.3018  0.2587
  210SOL    HW1  629   1.950   0.873   1.249  1.9519 -1.4091 -1.4714
  210SOL    HW2  630   1.862   0.751   1.322 -0.9247 -1.2027 -3.4338
  211SOL     OW  631   0.712   0.090   0.507 -0.0422 -0.0443  0.0607
  211SOL    HW1  632   0.658   0.074   0.420 -1.3430  0.1332 -0.6178
  211SOL    HW2  633   0.694   0.185   0.540 -0.0058  0.7960  1.4392
  212SOL     OW  634   1.691   1.368   0.215 -0.0507  0.1107 -0.1237
  212SOL    HW1  635   1.730   1.431   0.282  0.4597  0.4212 -0.8402
  212SOL    HW2  636   1.721   1.387   0.119  0.2080  0.1921  1.1863
  213SOL     OW  637   1.389   0.196   2.725 -0.3856 -0.3231  0.2451
  213SOL    HW1  638   1.466   0.233   2.670 -1.3789 -0.6045 -1.5405
  213SOL    HW2  639   1.428   0.158   2.812 -1.5393 -1.1640 -0.5756
  214SOL     OW  640   1.512   1.661   2.186 -0.1787 -0.0576 -0.3134
  214SOL    HW1  641   1.558   1.683   2.275 -0.4017 -0.2467  0.3362
  214SOL    HW2  642   1.577   1.683   2.112  2.5598 -2.3404  0.2027
  215SOL     OW  643   0.604   1.826   0.165 -0.1101  0.0138 -0.1529
  215SOL    HW1  644   0.534   1.900   0.181 -1.4489 -2.1925  1.4498
  215SOL    HW2  645   0.679   1.836   0.232 -0.9964  1.1448 -0.4596
  216SOL     OW  646   0.462   3.014   2.362 -0.0761  0.2801 -0.2996
  216SOL    HW1  647   0.533   3.082   2.374 -2.4956  0.5624 -1.2377
  216SOL    HW2  648   0.386   3.059   2.312  1.0801 -0.0739  0.6386
  217SOL     OW  649   2.376   0.986   0.808  0.1064  0.1063  0.4642
  217SOL    HW1  650   2.446   0.985   0.728 -1.2765  1.0056 -1.3247
  217SOL    HW2  651   2.285   1.002   0.763  1.4108  1.2648  2.0380
  218SOL     OW  652   1.748   1.686   1.839 -0.1644 -0.5331  0.3432
  218SOL    HW1  653   1.822   1.702   1.908 -0.2237 -0.3444 -1.8106
  218SOL    HW2  654   1.766   1.600   1.787 -0.2846  0.3271 -2.8839
  219SOL     OW  655   1.777   1.329   3.056 -0.6506 -0.0376 -0.0696
  219SOL    HW1  656   1.833   1.308   2.972  0.6684  0.6655  0.7129
  219SOL    HW2  657   1.687   1.360   3.014  2.5293  0.2339 -1.9215
  220SOL     OW  658   1.314   1.603   0.970 -0.3890 -0.2309 -0.5874
  220SOL    HW1  659   1.316   1.682   1.043  3.2770  3.0668  2.2129
  220SOL    HW2  660   1.399   1.610   0.919 -0.9397 -2.4916  3.4012
  221SOL     OW  661   0.827   0.751   2.948 -0.1259 -0.1950 -0.3299
  221SOL    HW1  662   0.856   0.807   2.872 -1.3237  0.0918  1.9012
  221SOL    HW2  663   0.787   0.663   2.920 -0.9341 -1.3897  2.5642
  222SOL     OW  664   0.765   1.528   0.960 -0.4687  0.0620  0.6043
  222SOL    HW1  665   0.734   1.514   0.864  0.4958  1.6521 -1.5522
  222SOL    HW2  666   0.734   1.618   0.994  2.1530 -0.7387  0.8079
  223SOL     OW  667   1.106   3.087   2.991  0.4721 -0.2839 -0.2192
  223SOL    HW1  668   1.194   3.045   2.975 -1.1484 -2.0315 -0.0316
  223SOL    HW2  669   1.053   3.065   2.904  1.1290  0.1161 -3.4614
  224SOL     OW  670   2.634   0.167   1.320  0.8291 -0.3954 -0.0104
  224SOL    HW1  671   2.597   0.088   1.375  2.1730  1.4995  1.5827
  224SOL    HW2  672   2.733   0.165   1.293  2.4481  2.1683 -0.7636
  225SOL     OW  673   0.890   0.543   1.426  0.0811  0.2590  0.4936
  225SOL    HW1  674   0.981   0.517   1.385  0.7514  0.6826 -0.7396
  225SOL    HW2  675   0.909   0.591   1.513  1.3188  0.2457  0.3299
  226SOL     OW  676   1.507   1.783   2.849 -0.6614 -0.1776  0.2419
  226SOL    HW1  677   1.461   1.840   2.781  1.6562  1.9996 -0.0726
  226SOL    HW2  678   1.464   1.791   2.940 -1.1276  0.0535  4.3083
  227SOL     OW  679   1.231   1.951   1.337  0.2086  0.2156 -0.0014
  227SOL    HW1  680   1.238   1.906   1.428 -1.4514 -0.0909  0.4637
  227SOL    HW2  681   1.137   1.985   1.308 -0.3634 -0.2135 -3.0677
  228SOL     OW  682   0.366   1.609   0.538  0.1151 -0.7648 -0.0658
  228SOL    HW1  683   0.264   1.608   0.545  0.6945 -0.5918  1.3317
  228SOL    HW2  684   0.412   1.618   0.627  1.6054 -2.1121 -1.9913
  229SOL     OW  685   1.359   0.320   3.090 -0.2094  0.6696  0.2339
  229SOL    HW1  686   1.331   0.408   3.046 -1.7478  1.5922  0.5757
  229SOL    HW2  687   1.403   0.259   3.018  0.4866 -0.9864 -2.7878
  230SOL     OW  688   1.241   0.569   2.200  0.4114  0.2304 -0.2784
  230SOL    HW1  689   1.227   0.565   2.097 -0.0042  1.9362 -1.0540
  230SOL    HW2  690   1.157   0.540   2.244  2.5363  4.7355 -1.8743
  231SOL     OW  691   1.020   1.827   2.223 -0.1574  0.6758 -0.6443
  231SOL    HW1  692   1.039   1.811   2.324  2.4471 -2.4902  0.4781
  231SOL    HW2  693   1.035   1.924   2.198  1.2063 -1.8652  0.4887
  232SOL     OW  694   2.267   1.811   1.019  0.0858  0.2835 -0.1211
  232SOL    HW1  695   2.270   1.756   0.934  0.5292  0.9270  0.7039
  232SOL    HW2  696   2.365   1.832   1.049  1.1415  0.8171  0.6989
  233SOL     OW  697   2.387   2.902   0.250  0.2534 -0.3238  0.5320
  233SOL    HW1  698   2.319   2.973   0.274  2.0477  0.0625  1.8098
  233SOL    HW2  699   2.377   2.864   0.155  1.2000  0.0297  1.8185
  234SOL     OW  700   0.838   0.298   2.829 -0.0159 -0.0196  0.3578
  234SOL    HW1  701   0.884   0.248   2.908 -1.0262  1.7048  2.7075
  234SOL    HW2  702   0.787   0.231   2.768 -0.4660 -0.7025  0.9718
  235SOL     OW  703   2.216   3.066   2.689  0.2725 -0.2141 -0.1111
  235SOL    HW1  704   2.302   0.003   2.731 -0.1755  0.4958 -0.8677
  235SOL    HW2  705   2.246   3.029   2.599  0.5490 -1.9786 -2.1650
  236SOL     OW  706   2.319   2.316   2.307 -0.7324  0.0084 -0.0149
  236SOL    HW1  707   2.390   2.377   2.351  0.4152 -0.6243 -0.3957
  236SOL    HW2  708   2.326   2.221   2.339 -2.8628 -2.3241 -2.2304
  237SOL     OW  709   0.941   1.429   2.056 -0.0550  0.6437 -0.0116
  237SOL    HW1  710   0.964   1.434   1.954  3.0522 -2.4189  0.3849
  237SOL    HW2  711   1.026   1.399   2.104  0.9155 -0.5474  0.0641
  238SOL     OW  712   1.593   0.294   2.608  0.2037 -0.8065 -0.0248
  238SOL    HW1  713   1.676   0.241   2.585 -2.0688  0.4171 -0.2197
  238SOL    HW2  714   1.617   0.390   2.634 -1.0379  0.3316  1.3529
  239SOL     OW  715   0.281   1.777   1.670  0.4121  0.1926  0.8292
  239SOL    HW1  716   0.330   1.689   1.694 -1.0751 -1.9148 -1.1214
  239SOL    HW2  717   0.192   1.787   1.721 -1.8191 -0.2648  2.4709
  240SOL     OW  718   2.883   2.673   0.497  0.4880 -0.0492  0.3921
  240SOL    HW1  719   2.941   2.608   0.551  1.0188 -0.8908 -0.0285
  240SOL    HW2  720   2.877   2.641   0.401  1.3734 -2.7874  1.4895
  241SOL     OW  721   2.063   1.644   0.595  0.2553  0.1115 -0.0543
  241SOL    HW1  722   2.096   1.545   0.574 -1.3651 -4.2234 -0.8113
  241SOL    HW2  723   2.016   1.676   0.510  0.8037  0.9627 -1.7392
  242SOL     OW  724   1.435   1.950   2.657 -0.5163 -0.1474 -0.0512
  242SOL    HW1  725   1.525   2.001   2.658  1.7813  1.1648  0.6516
  242SOL    HW2  726   1.352   2.012   2.663  0.2325  1.3819  0.2308
  243SOL     OW  727   0.601   2.590   2.435  0.1272  0.1395 -0.1659
  243SOL    HW1  728   0.559   2.626   2.346 -2.8475  1.0303 -0.3084
  243SOL    HW2  729   0.590   2.653   2.514  0.4764 -1.1650  2.0020
  244SOL     OW  730   2.070   0.205   2.717 -0.4171  0.1604  0.3608
  244SOL    HW1  731   1.984   0.161   2.738  1.3761 -3.3252 -0.6908
  244SOL    HW2  732   2.133   0.137   2.673 -0.7539 -1.6223 -0.2827
  245SOL     OW  733   1.593   2.841   0.785  0.2851  0.2514  0.2203
  245SOL    HW1  734   1.621   2.894   0.871  0.8754  1.1759  2.5947
  245SOL    HW2  735   1.503   2.877   0.751 -0.1118  0.2429  0.4368
  246SOL     OW  736   1.384   2.669   0.495  0.5431 -0.0281  0.3760
  246SOL    HW1  737   1.453   2.712   0.438 -1.4125 -0.9806  0.0906
  246SOL    HW2  738   1.292   2.665   0.453  1.8741 -1.1517 -3.0962
  247SOL     OW  739   0.958   0.510   2.232  0.4972  0.1884  0.1226
  247SOL    HW1  740   0.897   0.589   2.214  0.7162 -1.0114 -0.7705
  247SOL    HW2  741   0.928   0.424   2.184  1.9354  0.8076  1.3204
  248SOL     OW  742   0.605   1.527   2.173 -0.4154 -0.6040 -0.0698
  248SOL    HW1  743   0.660   1.444   2.202 -2.3123  0.1760 -3.3300
  248SOL    HW2  744   0.669   1.609   2.142 -0.1182  1.2236  2.1308
  249SOL     OW  745   2.180   0.422   0.379  0.1214 -0.0266 -0.0114
  249SOL    HW1  746   2.263   0.472   0.346 -1.8514  0.0420  2.4213
  249SOL    HW2  747   2.145   0.477   0.461  2.1752  0.6314  0.7452
  250SOL     OW  748   0.642   0.187   0.816  0.9797  0.0742 -0.5618
  250SOL    HW1  749   0.555   0.139   0.797  1.5782 -0.3457  0.2725
  250SOL    HW2  750   0.675   0.241   0.734  0.6916  0.4150 -1.1047
  251SOL     OW  751   1.656   0.443   2.919  0.3374 -0.3565  0.2780
  251SOL    HW1  752   1.649   0.474   2.820 -0.1633  0.4377 -0.9690
  251SOL    HW2  753   1.674   0.521   2.980  1.2870 -1.0229  1.0272
  252SOL     OW  754   1.970   1.698   2.045 -0.1982  0.2645  0.2722
  252SOL    HW1  755   2.044   1.703   2.117  2.9677 -1.0234  1.5320
  252SOL    HW2  756   1.879   1.741   2.075 -3.1426  0.8554  0.5584
  253SOL     OW  757   2.745   2.367   1.862  0.3582  0.2319  0.0473
  253SOL    HW1  758   2.660   2.410   1.897 -1.2004  1.1946 -0.6857
  253SOL    HW2  759   2.739   2.354   1.762  2.8666  0.9578  0.3550
  254SOL     OW  760   0.177   1.415   1.205  0.9501  0.0273 -0.1946
  254SOL    HW1  761   0.206   1.362   1.290 -0.3424  0.4764 -0.7008
  254SOL    HW2  762   0.102   1.367   1.153 -0.5563 -0.5148 -1.0917
  255SOL     OW  763   0.769   0.843   1.394  0.1021 -0.1492  0.7712
  255SOL    HW1  764   0.691   0.834   1.327 -1.7072 -2.0702  1.1705
  255SOL    HW2  765   0.843   0.780   1.363  1.0660  1.3157 -0.0360
  256SOL     OW  766   2.156   2.522   1.678  0.1873 -0.1701  0.4291
  256SOL    HW1  767   2.194   2.572   1.760  0.2195  2.5553 -1.0884
  256SOL    HW2  768   2.230   2.464   1.642  0.4064 -0.2053  0.3870
  257SOL     OW  769   0.567   2.733   3.061 -0.0490  0.1117 -0.1979
  257SOL    HW1  770   0.612   2.702   2.975  0.2035  0.3598 -0.3849
  257SOL    HW2  771   0.536   2.649   0.008 -0.3105 -2.2874 -0.3368
  258SOL     OW  772   0.782   2.648   0.205 -0.2868  0.5397 -0.2864
  258SOL    HW1  773   0.704   2.612   0.262 -1.4630 -0.4302 -0.1689
  258SOL    HW2  774   0.755   2.742   0.171  0.6440 -2.6607  1.1131
  259SOL     OW  775   1.057   0.063   2.205  0.3716 -0.5855  0.2003
  259SOL    HW1  776   0.989   0.041   2.131 -0.1374  4.3496  0.5639
  259SOL    HW2  777   1.146   0.102   2.173 -0.4644 -1.2147 -2.1491
  260SOL     OW  778   1.851   0.424   1.049  0.0018 -0.2412 -0.5029
  260SOL    HW1  779   1.898   0.335   1.057  1.0616 -0.4799  0.9681
  260SOL    HW2  780   1.907   0.483   0.986  0.6548  0.0154  0.2127
  261SOL     OW  781   0.521   0.479   2.496 -0.1022 -0.1975  0.1269
  261SOL    HW1  782   0.453   0.539   2.548 -1.1124  0.0283  1.6622
  261SOL    HW2  783   0.616   0.501   2.524 -0.6551  2.7340  2.2636
  262SOL     OW  784   0.306   2.460   2.139  0.2675  0.1213  0.4882
  262SOL    HW1  785   0.391   2.510   2.115  5.7713 -2.3217 -0.5262
  262SOL    HW2  786   0.304   2.361   2.115  0.6444  0.2846  3.2298
  263SOL     OW  787   3.031   1.663   2.158 -0.2196  0.0003 -0.0468
  263SOL    HW1  788   3.000   1.728   2.085  1.1908 -0.8069  1.1223
  263SOL    HW2  789   3.100   1.714   2.220  2.1267  1.1882  2.9805
  264SOL     OW  790   0.341   1.054   0.858 -0.3496 -0.3513  0.5734
  264SOL    HW1  791   0.301   1.132   0.807 -2.3062  1.4650 -0.3439
  264SOL    HW2  792   0.292   1.047   0.942  3.7204 -0.5559 -3.6969
  265SOL     OW  793   1.212   2.557   0.832 -0.2405 -0.3792 -0.1982
  265SOL    HW1  794   1.304   2.526   0.793  0.3746  0.4495  0.7524
  265SOL    HW2  795   1.152   2.483   0.880  0.7738 -1.8183 -1.5031
  266SOL     OW  796   1.646   0.732   1.076  0.0408  0.0799  0.0958
  266SOL    HW1  797   1.683   0.662   1.145  0.3924 -0.0651  0.3929
  266SOL    HW2  798   1.701   0.817   1.083 -2.5789  1.5098 -1.2659
  267SOL     OW  799   2.695   1.041   3.016 -0.4791 -0.1281  0.0913
  267SOL    HW1  800   2.759   0.965   3.034 -0.4128  0.6333  2.2140
  267SOL    HW2  801   2.606   0.989   3.002  0.0038 -0.9190  0.8437
  268SOL     OW  802   1.616   0.396   0.245  0.1551  0.2267  0.1224
  268SOL    HW1  803   1.634   0.391   0.349 -0.9581  2.2760  2.3238
  268SOL    HW2  804   1.552   0.479   0.230 -3.7024  1.8541  3.3420
  269SOL     OW  805   1.959   0.819   2.987  0.8085  0.1866 -0.0942
  269SOL    HW1  806   1.912   0.789   2.904  2.1023  0.2139  2.3990
  269SOL    HW2  807   2.013   0.900   2.967 -1.4343  0.5331 -0.3374
  270SOL     OW  808   2.978   0.904   3.041  0.5511 -0.6685 -0.4593
  270SOL    HW1  809   2.985   0.964   2.959  0.9577  2.7634  2.0489
  270SOL    HW2  810   3.044   0.827   3.033 -0.9424  1.3267  1.2450
  271SOL     OW  811   2.717   0.735   0.287 -0.2530  0.0705 -0.0419
  271SOL    HW1  812   2.737   0.812   0.348 -0.2772 -0.3349  1.0182
  271SOL    HW2  813   2.800   0.671   0.294  3.4241 -1.1305 -0.2916
  272SOL     OW  814   0.060   2.390   2.989  0.2787 -0.8027 -0.1734
  272SOL    HW1  815   0.043   2.398   2.890 -1.5480  0.1869 -1.7272
  272SOL    HW2  816   0.002   2.320   3.032  2.2119 -0.0456 -3.0663
  273SOL     OW  817   2.512   0.044   0.319  0.0001  0.2444 -0.0618
  273SOL    HW1  818   2.503   0.088   0.411  3.8134  1.5083 -0.4149
  273SOL    HW2  819   2.512   3.046   0.328  2.4461 -0.0967 -0.0920
  274SOL     OW  820   0.630   2.265   1.007 -0.3476 -0.0833  0.0469
  274SOL    HW1  821   0.632   2.364   1.013 -0.7075  0.8860 -0.0962
  274SOL    HW2  822   0.598   2.240   0.914 -0.9289 -0.0614  1.5790
  275SOL     OW  823   2.792   1.497   0.409  0.9362 -0.1214  0.3880
  275SOL    HW1  824   2.807   1.406   0.358  1.1161 -2.9967  1.2567
  275SOL    HW2  825   2.858   1.566   0.377 -0.9011 -2.0324 -0.1996
  276SOL     OW  826   3.050   1.055   1.968 -0.3532  0.2155 -0.0515
  276SOL    HW1  827   2.976   1.106   2.016 -1.1110  0.5654 -0.8906
  276SOL    HW2  828   3.015   1.048   1.872 -2.0258 -0.2282 -0.3162
  277SOL     OW  829   2.241   2.855   1.254 -0.2212 -0.4185  0.2511
  277SOL    HW1  830   2.182   2.790   1.201  2.1663 -0.5709 -0.3713
  277SOL    HW2  831   2.205   2.951   1.248 -2.3288 -1.7739 -0.8083
  278SOL     OW  832   1.538   2.586   2.139  0.1373  0.1733 -0.0490
  278SOL    HW1  833   1.585   2.682   2.128  2.5365  0.9180  0.5179
  278SOL    HW2  834   1.440   2.604   2.158 -1.0401 -0.0660 -2.5750
  279SOL     OW  835   1.640   2.000   0.419 -0.3625 -0.2278  0.8737
  279SOL    HW1  836   1.718   1.940   0.395 -2.2502  4.0042  3.2347
  279SOL    HW2  837   1.555   1.987   0.363  1.2508 -0.3606  0.1847
  280SOL     OW  838   0.316   1.581   1.067 -0.1318  0.3735  0.1896
  280SOL    HW1  839   0.269   1.652   1.013  0.3820 -0.3672  1.2140
  280SOL    HW2  840   0.247   1.530   1.123  0.7082 -2.0247 -0.8393
  281SOL     OW  841   2.939   0.816   2.405 -0.1536  0.3443 -0.3040
  281SOL    HW1  842   3.026   0.767   2.377  1.3173  0.0781 -1.5470
  281SOL    HW2  843   2.920   0.808   2.507  1.8101  1.5580 -0.2534
  282SOL     OW  844   0.694   1.472   0.707  0.1166  0.4823 -0.0807
  282SOL    HW1  845   0.599   1.463   0.742 -0.8183  1.2317 -1.7241
  282SOL    HW2  846   0.690   1.504   0.611 -1.8480  0.5319 -0.6850
  283SOL     OW  847   2.086   2.260   0.075  0.4160  0.4212 -0.2100
  283SOL    HW1  848   2.037   2.341   0.115  0.0819 -0.1758  0.5249
  283SOL    HW2  849   2.093   2.182   0.143  1.2329 -1.5265  0.1915
  284SOL     OW  850   0.925   0.505   0.378 -0.1396  0.2000 -0.3454
  284SOL    HW1  851   0.895   0.509   0.283 -1.4172 -0.7557  1.3091
  284SOL    HW2  852   0.867   0.562   0.436  0.2865  1.4731  1.6875
  285SOL     OW  853   2.130   1.099   2.955  0.5626 -0.3529 -0.3186
  285SOL    HW1  854   2.080   1.168   2.902  0.5685 -3.8999  1.1891
  285SOL    HW2  855   2.164   1.129   3.046  2.3453  3.0305 -0.3076
  286SOL     OW  856   1.806   2.325   1.336 -0.4319  0.1027 -0.1369
  286SOL    HW1  857   1.736   2.307   1.262  0.6461  1.9237  3.1202
  286SOL    HW2  858   1.841   2.421   1.340  1.9835  2.2047 -1.8057
  287SOL     OW  859   1.038   1.027   0.599  0.0713  0.2815 -0.2184
  287SOL    HW1  860   0.957   1.070   0.549 -2.4903  2.4302 -1.0168
  287SOL    HW2  861   1.044   1.072   0.690  0.7588 -0.1846 -0.4700
  288SOL     OW  862   0.998   2.567   0.026 -0.4786  0.1690  0.4050
  288SOL    HW1  863   1.058   2.519   0.092  2.9006 -2.1053 -0.8553
  288SOL    HW2  864   0.914   2.602   0.068  3.0011 -0.7793 -0.3113
  289SOL     OW  865   3.083   1.447   1.478 -0.5270  0.1566 -0.7079
  289SOL    HW1  866   0.031   1.535   1.481 -0.6999  1.5305  1.3847
  289SOL    HW2  867   0.035   1.372   1.510 -1.5013  2.0211 -0.0607
  290SOL     OW  868   1.457   2.163   0.802  0.5174  0.1735  0.0604
  290SOL    HW1  869   1.431   2.195   0.897 -0.1007  0.9060  0.7565
  290SOL    HW2  870   1.553   2.121   0.798  1.9911 -0.2193  1.0496
  291SOL     OW  871   1.804   0.034   2.979 -0.2208 -0.5650 -0.0540
  291SOL    HW1  872   1.761   0.098   3.050  0.0548  0.2633  3.2663
  291SOL    HW2  873   1.805   3.043   3.011  1.3176  1.9490 -0.4535
  292SOL     OW  874   0.930   0.322   2.038  0.0162  0.4153 -0.4442
  292SOL    HW1  875   0.881   0.301   1.948 -0.9254  1.0732 -2.3369
  292SOL    HW2  876   0.995   0.249   2.069  0.1159  1.3611  2.5978
  293SOL     OW  877   2.175   2.291   0.796 -0.0260  0.3480 -0.2659
  293SOL    HW1  878   2.078   2.257   0.806 -2.3794 -0.1948 -0.3600
  293SOL    HW2  879   2.248   2.219   0.810  0.0677  0.8947 -2.2254
  294SOL     OW  880   0.511   0.970   2.528 -0.1457 -0.2928  0.4447
  294SOL    HW1  881   0.467   0.914   2.604 -1.3834  1.4841  2.6392
  294SOL    HW2  882   0.482   1.065   2.541  2.3042 -3.9013 -1.7346
  295SOL     OW  883   1.559   1.527   0.831  0.1093  0.1878  0.8064
  295SOL    HW1  884   1.546   1.443   0.889 -0.5057  1.3584  1.3448
  295SOL    HW2  885   1.651   1.567   0.840 -0.4737 -0.0421 -2.9204
  296SOL     OW  886   2.479   1.718   0.175 -0.3134  0.3770 -0.2974
  296SOL    HW1  887   2.436   1.782   0.113  0.8452  1.2861  1.0929
  296SOL    HW2  888   2.522   1.770   0.252 -1.8024 -0.3581  1.7161
  297SOL     OW  889   2.009   2.893   0.357  0.1585 -0.1121  0.5308
  297SOL    HW1  890   1.942   2.972   0.347 -0.3323 -0.0048  1.1140
  297SOL    HW2  891   2.104   2.924   0.366 -2.2629 -1.1317 -1.5385
  298SOL     OW  892   0.995   2.669   2.746  0.0761 -0.5116 -0.3818
  298SOL    HW1  893   1.055   2.585   2.741  0.4905  1.8341  1.1183
  298SOL    HW2  894   1.037   2.738   2.811 -0.1414  3.8369  1.8843
  299SOL     OW  895   1.223   2.222   2.018  0.0230 -0.0647  0.2620
  299SOL    HW1  896   1.319   2.251   2.004 -1.8822  1.2701 -5.5185
  299SOL    HW2  897   1.157   2.300   2.000 -3.4083 -0.6365  0.5972
  300SOL     OW  898   2.431   0.136   2.778  0.4051  0.2232  0.5847
  300SOL    HW1  899   2.491   0.122   2.860  0.0353  0.7320  1.5094
  300SOL    HW2  900   2.381   0.224   2.774  0.2275 -0.6251 -0.6028
  301SOL     OW  901   1.260   1.128   2.030  0.1111  0.4133 -0.0073
  301SOL    HW1  902   1.261   1.205   1.967 -1.2992 -2.6972  0.1130
  301SOL    HW2  903   1.329   1.058   2.006 -2.6720 -0.2222  0.0367
  302SOL     OW  904   2.760   2.719   0.233 -0.1822  0.1621 -0.3236
  302SOL    HW1  905   2.739   2.751   0.326 -1.3827  0.3007 -0.7068
  302SOL    HW2  906   2.801   2.795   0.177 -3.1599 -0.4027  1.4324
  303SOL     OW  907   2.503   2.493   1.920  0.2931 -0.0295 -0.4725
  303SOL    HW1  908   2.432   2.444   1.865  0.0130 -0.3538 -0.3418
  303SOL    HW2  909   2.461   2.525   2.007 -0.5888 -0.8001 -0.4576
  304SOL     OW  910   2.857   0.550   1.764 -0.0960  0.2379 -0.1177
  304SOL    HW1  911   2.835   0.509   1.858 -0.2901 -1.8956  0.1403
  304SOL    HW2  912   2.802   0.631   1.744  0.2015 -0.8480 -0.1542
  305SOL     OW  913   0.505   1.576   1.474  0.7028  0.8256 -0.3962
  305SOL    HW1  914   0.593   1.532   1.439 -0.8932 -0.1383 -1.6040
  305SOL    HW2  915   0.462   1.630   1.397 -2.1960 -0.2626 -1.4192
  306SOL     OW  916   0.192   1.085   1.841  0.1465  0.2368 -0.0497
  306SOL    HW1  917   0.260   1.101   1.916  2.1852  1.7966  1.8951
  306SOL    HW2  918   0.097   1.100   1.876  1.2425 -1.3941  2.5455
  307SOL     OW  919   1.063   0.936   1.659 -0.1198  0.2451  0.3010
  307SOL    HW1  920   1.073   0.962   1.563 -1.8110 -0.1196  3.2267
  307SOL    HW2  921   1.145   0.885   1.691 -3.2179  0.9503 -0.5547
  308SOL     OW  922   2.925   1.049   1.138 -0.4548 -0.6872 -0.1269
  308SOL    HW1  923   2.965   0.961   1.114 -2.0866  2.3359  4.4410
  308SOL    HW2  924   2.915   1.062   1.240  2.3721  1.5319  2.1922
  309SOL     OW  925   2.469   1.024   1.417  0.0377 -0.1811  0.1850
  309SOL    HW1  926   2.503   1.095   1.350 -2.2900  4.2863 -0.5625
  309SOL    HW2  927   2.500   0.935   1.377 -1.5197  1.6629 -1.4840
  310SOL     OW  928   2.907   2.295   2.571 -0.3624  0.2136 -0.6383
  310SOL    HW1  929   2.948   2.203   2.592  0.0957  0.8801 -2.7388
  310SOL    HW2  930   2.805   2.290   2.565  1.0768  2.8681 -1.1810
  311SOL     OW  931   2.647   3.011   2.661 -0.2916 -0.0447 -0.2270
  311SOL    HW1  932   2.684   2.986   2.748 -0.2568  2.1850  1.1799
  311SOL    HW2  933   2.575   2.947   2.634  0.5804 -2.1067  0.4796
  312SOL     OW  934   2.356   1.885   0.011  0.0271 -0.0117 -0.1757
  312SOL    HW1  935   2.371   1.983   0.027 -1.0257  1.3676  0.2958
  312SOL    HW2  936   2.265   1.874   3.069 -0.8889  2.4785 -0.2094
  313SOL     OW  937   2.709   2.871   0.492  0.7746  0.3219 -0.0597
  313SOL    HW1  938   2.799   2.817   0.489  3.1753  1.4419  1.5928
  313SOL    HW2  939   2.718   2.960   0.539 -1.5349 -1.4774  0.4832
  314SOL     OW  940   1.618   1.184   0.391  0.1477  0.6183 -0.0529
  314SOL    HW1  941   1.522   1.150   0.364  0.5413  1.1552 -0.9170
  314SOL    HW2  942   1.645   1.266   0.335 -0.5606 -0.5638  1.3634
  315SOL     OW  943   1.382   2.936   2.008  0.0459 -0.0058 -0.1860
  315SOL    HW1  944   1.323   2.938   2.091  0.9872 -1.3150 -1.1298
  315SOL    HW2  945   1.326   2.954   1.923 -3.0124  1.2946  0.3393
  316SOL     OW  946   2.765   0.744   2.965  0.2090  0.2199  0.1570
  316SOL    HW1  947   2.840   0.795   3.013 -1.4482  0.9337  0.8859
  316SOL    HW2  948   2.718   0.679   3.033  0.4957  1.3193 -0.5810
  317SOL     OW  949   0.327   3.075   0.074  0.0839  0.0795  0.0942
  317SOL    HW1  950   0.293   3.022   0.158 -0.5069  0.0238  2.9671
  317SOL    HW2  951   0.333   3.005   3.104 -0.7653 -3.7250  1.8151
  318SOL     OW  952   2.284   2.541   0.872 -0.4213  0.4483  0.1864
  318SOL    HW1  953   2.253   2.444   0.867  1.6728  3.1071  2.2067
  318SOL    HW2  954   2.285   2.586   0.781  2.1215  0.8299  1.0926
  319SOL     OW  955   1.099   1.921   2.955 -0.5728  0.9947 -0.2920
  319SOL    HW1  956   1.043   1.929   3.040  0.2983 -0.5157 -0.1116
  319SOL    HW2  957   1.038   1.914   2.876 -0.2980 -3.0537 -2.4138
  320SOL     OW  958   0.537   2.342   1.835 -0.2885 -0.1523  0.4210
  320SOL    HW1  959   0.546   2.449   1.827 -0.9147  2.7218  3.6028
  320SOL    HW2  960   0.459   2.321   1.900 -2.3074 -0.1895 -0.8160
  321SOL     OW  961   1.310   2.856   2.488 -0.3040 -0.3858  0.0951
  321SOL    HW1  962   1.372   2.922   2.535 -2.2417  3.4324  1.9015
  321SOL    HW2  963   1.350   2.765   2.475 -3.3615  2.0722  0.4213
  322SOL     OW  964   2.840   1.459   2.144 -0.0319 -0.2396 -0.1031
  322SOL    HW1  965   2.909   1.534   2.145  1.4500 -0.0299  0.2759
  322SOL    HW2  966   2.747   1.491   2.161  0.2815  3.8161 -1.1134
  323SOL     OW  967   2.172   1.024   1.181  0.0341 -0.4918 -0.4056
  323SOL    HW1  968   2.240   1.059   1.107 -0.2483 -1.6751 -1.9721
  323SOL    HW2  969   2.208   1.049   1.275 -0.2635 -0.0636 -0.1989
  324SOL     OW  970   2.951   0.064   2.355  0.9580  0.1536 -0.0129
  324SOL    HW1  971   2.880   0.041   2.285 -0.2530 -1.2024 -2.2444
  324SOL    HW2  972   2.909   0.090   2.444 -1.0005 -0.5908 -0.3903
  325SOL     OW  973   1.311   0.732   2.626 -0.2728  0.0766 -0.2516
  325SOL    HW1  974   1.299   0.628   2.641 -0.1304 -0.3340  0.1446
  325SOL    HW2  975   1.227   0.771   2.591  1.3937 -1.4502 -0.1126
  326SOL     OW  976   2.023   2.771   2.050 -0.4189 -0.3378  0.0644
  326SOL    HW1  977   2.037   2.816   2.140  1.6713 -2.2291  0.4325
  326SOL    HW2  978   2.106   2.749   1.995 -0.5259 -0.1039  1.6394
  327SOL     OW  979   1.999   0.195   0.448  0.1416  0.2121  0.3964
  327SOL    HW1  980   1.916   0.245   0.466  0.2455  1.8941 -0.9748
  327SOL    HW2  981   2.074   0.259   0.458 -0.5437 -2.2052 -0.3766
  328SOL     OW  982   0.236   1.448   2.498  0.1563 -0.5826  0.7598
  328SOL    HW1  983   0.262   1.465   2.397 -0.4785 -0.1802 -1.7388
  328SOL    HW2  984   0.170   1.517   2.527 -0.7194 -1.3048 -2.2370
  329SOL     OW  985   2.313   0.017   1.967 -0.5056 -0.7850 -0.5631
  329SOL    HW1  986   2.269   3.061   1.902  2.5326  3.4460 -0.1619
  329SOL    HW2  987   2.416   3.098   1.965  1.1925 -0.7901 -1.5765
  330SOL     OW  988   3.096   1.357   0.783  0.1531 -0.0990  0.1394
  330SOL    HW1  989   3.080   1.460   0.772 -0.5515  1.7381 -1.3656
  330SOL    HW2  990   3.032   1.303   0.729 -0.0836  2.0560  2.2185
  331SOL     OW  991   0.487   1.812   2.255  0.5180 -0.7722  0.1207
  331SOL    HW1  992   0.528   1.738   2.309 -1.7213 -0.0361  0.0559
  331SOL    HW2  993   0.544   1.899   2.265  0.3530  1.4745  1.0939
  332SOL     OW  994   0.207   2.961   1.705 -0.1161 -0.1348  0.0555
  332SOL    HW1  995   0.292   2.963   1.646  1.2976 -1.0279  1.3277
  332SOL    HW2  996   0.126   2.977   1.646  3.3406 -1.0161 -0.5426
  333SOL     OW  997   2.320   3.050   0.837 -0.0730  0.0735 -0.0454
  333SOL    HW1  998   2.234   3.014   0.878 -1.0610  1.7243  0.1918
  333SOL    HW2  999   2.347   0.021   0.899 -2.4361 -0.5272 -2.6143
  334SOL     OW 1000   0.480   1.929   0.783  0.1450  0.2945 -0.0300
  334SOL    HW1 1001   0.464   1.914   0.683 -0.9531 -1.3539  0.4185
  334SOL    HW2 1002   0.572   1.941   0.814 -0.7128  3.0431 -3.1857
  335SOL     OW 1003   0.125   2.553   0.082  0.3373  0.1530  0.1946
  335SOL    HW1 1004   0.099   2.489   0.002 -0.0771  0.0442  0.0300
  335SOL    HW2 1005   0.217   2.520   0.120  3.5672  1.1198 -0.4449
  336SOL     OW 1006   0.267   3.020   2.178  0.2486  0.0655 -0.4758
  336SOL    HW1 1007   0.181   2.975   2.213 -2.4909 -2.3379  1.8864
  336SOL    HW2 1008   0.259   3.060   2.084 -0.4671  1.2736  1.7355
  337SOL     OW 1009   2.637   2.271   2.582 -0.2321  0.4472 -0.4930
  337SOL    HW1 1010   2.587   2.341   2.527  4.8555 -1.5347  0.2211
  337SOL    HW2 1011   2.595   2.264   2.675 -2.6179  0.7250  2.2531
  338SOL     OW 1012   0.866   0.958   1.080  0.6830  0.6710 -0.0376
  338SOL    HW1 1013   0.859   0.939   0.978 -1.6738  0.6980 -0.2989
  338SOL    HW2 1014   0.775   0.990   1.118  0.3592  1.8435 -0.9832
  339SOL     OW 1015   0.140   0.926   2.110 -0.1396  0.0122  0.2324
  339SOL    HW1 1016   0.138   0.968   2.199  0.1282 -2.6983 -0.4947
  339SOL    HW2 1017   0.073   0.960   2.042  1.6678  0.7438  2.9331
  340SOL     OW 1018   1.600   2.755   0.335 -0.5385  0.3910 -0.0393
  340SOL    HW1 1019   1.651   2.787   0.419  0.4395 -1.6243 -0.9268
  340SOL    HW2 1020   1.613   2.813   0.252  1.4080  1.9879 -2.1431
  341SOL     OW 1021   1.956   0.900   1.085  0.0429 -0.3144  0.1312
  341SOL    HW1 1022   1.890   0.957   1.030 -0.5378  1.2346  0.2049
  341SOL    HW2 1023   2.040   0.951   1.113  1.0869  2.5527  0.2155
  342SOL     OW 1024   2.328   2.809   3.099 -0.2299  1.0230  0.4219
  342SOL    HW1 1025   2.260   2.877   3.057  0.0427  0.8835 -0.7462
  342SOL    HW2 1026   2.405   2.799   3.028  1.6479 -2.7997  0.8163
  343SOL     OW 1027   1.634   2.167   1.830 -0.4930  0.5198  0.0426
  343SOL    HW1 1028   1.672   2.190   1.740 -0.0409  3.3351 -0.1024
  343SOL    HW2 1029   1.587   2.245   1.876  0.7999  0.5608 -1.0912
  344SOL     OW 1030   2.219   2.419   1.250  0.0179  0.3630  0.1826
  344SOL    HW1 1031   2.176   2.491   1.192  1.1461 -1.0300  0.5747
  344SOL    HW2 1032   2.265   2.463   1.333  0.4697  1.3476 -2.3266
  345SOL     OW 1033   2.637   2.526   0.059 -0.3461 -0.2645  0.0662
  345SOL    HW1 1034   2.616   2.455   0.126 -0.9020 -0.8113  2.1989
  345SOL    HW2 1035   2.670   2.611   0.106  0.3320 -0.9816  1.2318
  346SOL     OW 1036   2.669   1.644   0.592 -0.4812 -0.2905  0.6388
  346SOL    HW1 1037   2.698   1.581   0.520 -1.7126  1.1989 -1.7018
  346SOL    HW2 1038   2.569   1.647   0.587  0.4012  1.3751  0.4727
  347SOL     OW 1039   1.967   1.903   1.561  0.4633  0.3375  0.0394
  347SOL    HW1 1040   2.023   1.925   1.644 -0.9492 -0.7846 -0.7311
  347SOL    HW2 1041   2.025   1.916   1.481  1.1672 -0.8304  0.6004
  348SOL     OW 1042   0.544   1.666   2.862  0.0726  0.4851  0.1447
  348SOL    HW1 1043   0.505   1.616   2.782 -0.2810  0.6390  0.6850
  348SOL    HW2 1044   0.643   1.685   2.847 -2.0866  1.6020  1.1214
  349SOL     OW 1045   2.409   1.304   1.633 -0.0004 -0.3466 -0.3005
  349SOL    HW1 1046   2.385   1.383   1.573  0.8404 -0.5667 -1.1936
  349SOL    HW2 1047   2.498   1.259   1.603  2.7708  0.3829 -0.7406
  350SOL     OW 1048   2.859   2.553   1.223  0.3816  0.5588  0.7675
  350SOL    HW1 1049   2.897   2.489   1.292  0.9634 -0.2059 -3.0737
  350SOL    HW2 1050   2.776   2.514   1.176 -4.8906 -1.1563 -0.1944
  351SOL     OW 1051   0.564   0.512   2.231 -0.2190  0.0112 -0.2698
  351SOL    HW1 1052   0.621   0.596   2.229  1.4203  0.4324  0.2654
  351SOL    HW2 1053   0.539   0.489   2.331  0.1437 -0.9761  0.7851
  352SOL     OW 1054   0.725   1.781   1.091 -0.0274  0.3249 -0.1319
  352SOL    HW1 1055   0.807   1.781   1.154  4.5589  2.0732 -0.5084
  352SOL    HW2 1056   0.640   1.742   1.142 -2.1453  1.6653 -1.7100
  353SOL     OW 1057   1.313   1.774   2.474  0.0461  0.0933 -0.1946
  353SOL    HW1 1058   1.323   1.825   2.389 -0.7739 -0.1774  2.3379
  353SOL    HW2 1059   1.362   1.824   2.545 -1.8250 -0.4487  0.7886
  354SOL     OW 1060   1.123   0.555   0.917  0.1285  0.6631 -0.1741
  354SOL    HW1 1061   1.058   0.495   0.965 -0.7400 -1.6595  1.4150
  354SOL    HW2 1062   1.214   0.503   0.897  0.4696 -1.8484  0.8657
  355SOL     OW 1063   2.610   0.753   0.631 -0.0401 -0.6671  0.2524
  355SOL    HW1 1064   2.612   0.853   0.636 -4.1983 -2.2770 -3.6611
  355SOL    HW2 1065   2.557   0.723   0.549  1.2638  1.4311  1.0710
  356SOL     OW 1066   2.476   1.861   2.375  0.0837 -0.4286 -0.4183
  356SOL    HW1 1067   2.458   1.830   2.471  2.2490 -0.6371  0.0833
  356SOL    HW2 1068   2.531   1.945   2.382 -0.7779 -5.1339 -0.1103
  357SOL     OW 1069   0.654   2.641   1.314  0.3128 -0.1732  0.4488
  357SOL    HW1 1070   0.555   2.656   1.327 -0.3984 -0.4322 -1.1151
  357SOL    HW2 1071   0.697   2.620   1.400 -2.4210 -0.5500 -2.1846
  358SOL     OW 1072   2.460   0.678   1.702 -0.0108 -0.2856 -0.2362
  358SOL    HW1 1073   2.553   0.696   1.670 -2.0052  0.9223  2.1184
  358SOL    HW2 1074   2.450   0.727   1.792 -0.4625 -2.8883  1.2840
  359SOL     OW 1075   2.273   2.639   2.606  0.2484 -0.1365 -0.1221
  359SOL    HW1 1076   2.222   2.650   2.519  0.8286  1.9253  1.9358
  359SOL    HW2 1077   2.210   2.617   2.680  2.6237  3.7185 -0.8468
  360SOL     OW 1078   1.359   0.449   0.849 -0.3829 -0.5969  0.1265
  360SOL    HW1 1079   1.411   0.541   0.860  1.4119 -1.2574  0.4995
  360SOL    HW2 1080   1.415   0.376   0.885 -0.4372  3.1494 -0.9864
  361SOL     OW 1081   2.238   0.066   1.310  0.1103  0.5502 -0.2553
  361SOL    HW1 1082   2.284   0.136   1.368  2.5509 -1.6583 -0.1013
  361SOL    HW2 1083   2.154   0.026   1.353 -1.9865  0.0291  2.4214
  362SOL     OW 1084   1.161   1.237   0.402  0.0217 -0.3052  0.0382
  362SOL    HW1 1085   1.189   1.161   0.467 -0.4978 -2.6122  0.0740
  362SOL    HW2 1086   1.240   1.298   0.389 -1.4134 -3.0591  0.7062
  363SOL     OW 1087   2.366   1.717   2.589  0.5888  0.1543  0.6066
  363SOL    HW1 1088   2.424   1.635   2.611  3.8732 -1.2096 -0.7737
  363SOL    HW2 1089   2.268   1.691   2.570  0.6761  0.0905  0.8808
  364SOL     OW 1090   0.886   0.245   1.427 -0.2412  0.1056  0.2057
  364SOL    HW1 1091   0.889   0.338   1.394  0.0964 -2.8773 -0.1371
  364SOL    HW2 1092   0.809   0.192   1.389  1.5493  0.5406  1.4721
  365SOL     OW 1093   0.227   2.919   0.309  0.6799  0.0317  0.2974
  365SOL    HW1 1094   0.190   2.845   0.254  0.8581 -0.6194  1.6588
  365SOL    HW2 1095   0.295   2.893   0.384 -1.0905 -0.2566  3.3669
  366SOL     OW 1096   2.686   1.725   3.046  0.1433 -0.1673 -0.2671
  366SOL    HW1 1097   2.631   1.693   0.020  0.4213  2.6251 -1.5464
  366SOL    HW2 1098   2.780   1.735   3.080 -1.8038  0.0284 -0.2628
  367SOL     OW 1099   2.710   2.578   2.423 -0.7511 -0.0352  0.4410
  367SOL    HW1 1100   2.722   2.676   2.408 -0.3155 -2.0162  2.8083
  367SOL    HW2 1101   2.774   2.562   2.501 -0.0769 -0.6577  0.1123
  368SOL     OW 1102   0.132   1.769   0.990 -0.7835  0.2522  0.0878
  368SOL    HW1 1103   0.111   1.755   1.090  0.4513  1.1387  1.2917
  368SOL    HW2 1104   0.184   1.854   0.990 -0.2577 -0.2532  1.6419
  369SOL     OW 1105   0.892   3.026   0.164  0.0831  0.2686 -0.0609
  369SOL    HW1 1106   0.906   3.078   0.080  1.9990 -0.2726  5.1446
  369SOL    HW2 1107   0.795   2.993   0.172  0.8250  0.4394  3.0762
  370SOL     OW 1108   0.205   0.866   0.727  0.1324  0.0789 -0.4931
  370SOL    HW1 1109   0.223   0.772   0.749  0.8366  2.2823 -2.9030
  370SOL    HW2 1110   0.262   0.939   0.774  1.2195  2.2046  0.3637
  371SOL     OW 1111   1.955   2.881   0.737 -0.4273  0.2941  0.2354
  371SOL    HW1 1112   1.922   2.971   0.709  1.4258 -3.4755 -0.1152
  371SOL    HW2 1113   1.989   2.821   0.663 -0.4712 -2.6416 -1.9476
  372SOL     OW 1114   0.118   0.903   2.653  0.2902 -0.6310 -0.0619
  372SOL    HW1 1115   0.181   0.921   2.731 -3.7507  4.0457 -0.9818
  372SOL    HW2 1116   0.113   0.809   2.619 -1.1051  2.2101  2.9756
  373SOL     OW 1117   2.772   1.888   0.814  0.4408  0.3413 -0.1203
  373SOL    HW1 1118   2.854   1.936   0.780 -1.7906 -1.2260 -0.2512
  373SOL    HW2 1119   2.783   1.790   0.838 -1.0006 -0.0811  2.8317
  374SOL     OW 1120   0.140   2.422   0.360  0.0989 -0.1092  0.2465
  374SOL    HW1 1121   0.074   2.481   0.312  1.0989 -0.1971  1.6166
  374SOL    HW2 1122   0.217   2.473   0.406 -1.1873  1.8367 -0.1483
  375SOL     OW 1123   0.424   0.661   0.096 -0.1435 -0.5450 -0.7092
  375SOL    HW1 1124   0.497   0.732   0.122  2.1909  0.8194  0.7716
  375SOL    HW2 1125   0.423   0.585   0.166  0.7754  1.2183 -1.4547
  376SOL     OW 1126   0.574   2.571   2.060 -1.0220  0.0821  0.0704
  376SOL    HW1 1127   0.523   2.576   1.978  2.3098  2.8814  1.0863
  376SOL    HW2 1128   0.600   2.664   2.097  1.4897  1.1535  1.6540
  377SOL     OW 1129   1.266   2.417   2.457 -0.3128 -0.0044 -0.5769
  377SOL    HW1 1130   1.353   2.460   2.482 -1.9841  0.2933  2.6978
  377SOL    HW2 1131   1.274   2.320   2.428 -2.4743  0.5261  0.5181
  378SOL     OW 1132   1.233   0.878   0.486 -0.7170  0.6357  0.4894
  378SOL    HW1 1133   1.154   0.930   0.517  1.9943 -1.0505 -0.9653
  378SOL    HW2 1134   1.314   0.880   0.548  0.3925  0.0005 -0.1102
  379SOL     OW 1135   0.850   1.836   0.317  0.2621  0.6857  0.6483
  379SOL    HW1 1136   0.801   1.875   0.396 -0.0297  1.3347 -0.9606
  379SOL    HW2 1137   0.895   1.750   0.342 -2.1350  1.6251  0.8585
  380SOL     OW 1138   0.116   1.997   1.368  0.4118 -0.5719  0.0324
  380SOL    HW1 1139   0.040   1.949   1.414  0.9893 -2.9431 -0.6261
  380SOL    HW2 1140   0.096   2.095   1.355 -0.7654  0.1477  1.2226
  381SOL     OW 1141   0.312   0.942   1.635 -0.2565 -0.3391 -0.1102
  381SOL    HW1 1142   0.287   0.998   1.713 -1.9260 -1.4995  0.0453
  381SOL    HW2 1143   0.406   0.949   1.604 -2.6330  0.5683  0.1421
  382SOL     OW 1144   2.274   2.140   0.463  0.4104  0.3082  0.0162
  382SOL    HW1 1145   2.261   2.237   0.484  0.6760 -1.9625 -1.4237
  382SOL    HW2 1146   2.364   2.126   0.424  1.2432  1.9671  1.3993
  383SOL     OW 1147   2.696   1.791   2.211  1.2741 -0.2294  0.0287
  383SOL    HW1 1148   2.619   1.811   2.280 -4.2138 -0.4956  1.7625
  383SOL    HW2 1149   2.781   1.838   2.237  0.5088  0.0105  2.5334
  384SOL     OW 1150   0.291   2.215   1.918 -0.4446  0.4468 -0.0970
  384SOL    HW1 1151   0.333   2.138   1.861 -0.5879 -1.0211  0.2089
  384SOL    HW2 1152   0.204   2.182   1.962  1.6014  1.8899  0.2285
  385SOL     OW 1153   2.804   2.220   0.859 -0.0928 -0.3101 -0.3906
  385SOL    HW1 1154   2.791   2.251   0.764 -0.3429 -1.2103  0.5665
  385SOL    HW2 1155   2.900   2.187   0.880 -0.0070 -1.1838  2.0405
  386SOL     OW 1156   1.823   0.698   0.692 -0.2168 -0.5469  0.2665
  386SOL    HW1 1157   1.804   0.797   0.664 -0.2882 -1.2349 -2.8138
  386SOL    HW2 1158   1.728   0.656   0.688 -0.6151 -1.9166 -1.8006
  387SOL     OW 1159   0.409   0.917   2.059  0.2897 -0.2410  0.7273
  387SOL    HW1 1160   0.317   0.897   2.089 -1.1657 -2.0125  1.1666
  387SOL    HW2 1161   0.416   1.016   2.040 -0.5206 -1.8636  1.3615
  388SOL     OW 1162   2.208   1.054   2.543 -0.4875  0.0125 -0.2075
  388SOL    HW1 1163   2.156   1.140   2.521 -0.5060  0.4847 -0.9923
  388SOL    HW2 1164   2.139   0.986   2.576 -0.5023  1.0070  0.4058
  389SOL     OW 1165   1.831   1.444   1.754 -0.1498 -0.5626 -0.0603
  389SOL    HW1 1166   1.773   1.391   1.687 -1.2033 -2.2830 -1.4009
  389SOL    HW2 1167   1.933   1.458   1.737  1.3265  0.4203 -0.1700
  390SOL     OW 1168   1.958   2.739   0.147  0.9290 -0.0591 -0.3529
  390SOL    HW1 1169   1.996   2.784   0.231 -0.1675 -2.4002  0.2833
  390SOL    HW2 1170   1.898   2.800   0.092 -0.9857  0.5890  1.3304
  391SOL     OW 1171   2.026   2.178   1.280 -0.1189 -0.4960 -0.3063
  391SOL    HW1 1172   2.108   2.238   1.275 -0.7158 -1.4876  0.1442
  391SOL    HW2 1173   1.936   2.223   1.309 -1.9422 -0.6378  0.8596
  392SOL     OW 1174   3.056   2.533   0.970  0.4259 -0.0693  0.2486
  392SOL    HW1 1175   3.019   2.539   1.062 -1.2584  0.9970  1.2478
  392SOL    HW2 1176   3.035   2.436   0.934 -0.7296  1.7218 -1.5885
  393SOL     OW 1177   2.050   1.698   0.151 -0.7964 -0.1010 -0.1857
  393SOL    HW1 1178   2.049   1.599   0.123 -0.3219 -1.9024 -1.7608
  393SOL    HW2 1179   2.129   1.744   0.108 -0.7471 -1.7426 -2.2998
  394SOL     OW 1180   3.078   0.212   3.011 -0.4472 -0.3684  0.1371
  394SOL    HW1 1181   3.022   0.290   2.982 -0.1738 -1.3237 -1.3289
  394SOL    HW2 1182   3.057   0.133   2.948  0.4449 -2.3614  0.8974
  395SOL     OW 1183   1.300   1.215   1.110 -0.1727  0.0676 -0.1461
  395SOL    HW1 1184   1.360   1.141   1.133 -0.3891  0.4262  0.3937
  395SOL    HW2 1185   1.237   1.189   1.037  0.5712  0.7415 -2.8233
  396SOL     OW 1186   1.483   0.809   3.024 -0.4412  0.1415  0.4471
  396SOL    HW1 1187   1.482   0.909   3.011  0.0929 -2.3001  1.2329
  396SOL    HW2 1188   1.401   0.765   2.991  1.8855  3.2225  1.4270
  397SOL     OW 1189   0.082   0.630   2.625 -0.2164  0.3459 -0.4112
  397SOL    HW1 1190   0.068   0.537   2.584 -2.5880 -1.3594  0.2886
  397SOL    HW2 1191   3.102   0.664   2.673  1.0650  2.3876 -0.9864
  398SOL     OW 1192   0.784   0.211   0.198 -0.0020  0.5302  0.1853
  398SOL    HW1 1193   0.769   0.309   0.215 -1.5906 -2.8854  0.1104
  398SOL    HW2 1194   0.884   0.202   0.180 -0.8059  2.2165 -0.3021
  399SOL     OW 1195   2.586   2.770   2.036  0.0287  0.1670  0.1017
  399SOL    HW1 1196   2.585   2.781   1.934 -0.4677  2.2273 -0.3533
  399SOL    HW2 1197   2.668   2.711   2.064  0.1232 -1.1527  0.9484
  400SOL     OW 1198   0.348   1.805   2.026  0.0638  0.0873 -0.2017
  400SOL    HW1 1199   0.290   1.714   2.028 -0.6607 -3.0074 -0.3021
  400SOL    HW2 1200   0.420   1.814   2.098  1.3704 -1.1792 -1.4646
  401SOL     OW 1201   0.753   0.566   2.606  0.1009 -0.1449  0.1383
  401SOL    HW1 1202   0.723   0.562   2.704  3.0137 -0.6826 -0.6388
  401SOL    HW2 1203   0.840   0.517   2.584  0.5486  2.5115 -3.4169
  402SOL     OW 1204   0.301   2.067   1.632 -0.0927 -0.1900 -0.3814
  402SOL    HW1 1205   0.295   1.972   1.593 -2.1250 -0.4208 -0.3790
  402SOL    HW2 1206   0.384   2.115   1.598 -0.3722  0.8249 -2.0850
  403SOL     OW 1207   0.577   1.019   1.592 -0.0824  0.1272 -0.0987
  403SOL    HW1 1208   0.659   0.976   1.624 -1.9700 -0.0435 -0.6397
  403SOL    HW2 1209   0.568   1.107   1.639 -0.8434 -2.1052 -0.3772
  404SOL     OW 1210   2.722   2.351   1.577  0.0970 -0.4093 -0.3246
  404SOL    HW1 1211   2.723   2.420   1.500  2.7688  0.4040 -1.8677
  404SOL    HW2 1212   2.776   2.272   1.555 -2.3981  1.9833  0.7326
  405SOL     OW 1213   0.159   0.388   1.810 -0.5692  0.6036  0.1427
  405SOL    HW1 1214   0.219   0.343   1.742 -2.4017  0.0660  1.6308
  405SOL    HW2 1215   0.122   0.322   1.878  0.7157 -0.8789 -2.3543
  406SOL     OW 1216   1.633   2.467   0.051 -0.6444  0.0664  0.0560
  406SOL    HW1 1217   1.684   2.494   0.137 -2.3114 -3.4839 -2.6972
  406SOL    HW2 1218   1.701   2.411   3.100  4.0792 -2.0288  1.1066
  407SOL     OW 1219   1.413   1.215   1.605  0.2227  0.1402 -0.0050
  407SOL    HW1 1220   1.506   1.258   1.595 -1.2368 -1.2012  0.9013
  407SOL    HW2 1221   1.361   1.218   1.515 -0.4048 -0.0394  0.0858
  408SOL     OW 1222   0.691   0.138   2.653  0.0749 -0.7363 -0.0942
  408SOL    HW1 1223   0.718   0.044   2.675 -1.1186  1.2687 -3.2433
  408SOL    HW2 1224   0.681   0.153   2.554  2.3418 -0.1085  2.1177
  409SOL     OW 1225   3.033   2.487   0.624  0.9013  0.7491  0.2466
  409SOL    HW1 1226   2.953   2.424   0.591 -2.2326 -2.9059 -1.5963
  409SOL    HW2 1227   0.009   2.431   0.654  0.3162  0.5439  0.7154
  410SOL     OW 1228   2.336   1.592   0.375 -0.0504  0.5867 -0.4438
  410SOL    HW1 1229   2.336   1.650   0.460 -0.3408 -0.1545  0.5160
  410SOL    HW2 1230   2.381   1.647   0.305 -0.4289 -1.1477 -0.3156
  411SOL     OW 1231   3.086   0.665   0.990  0.1316  0.0207 -0.0332
  411SOL    HW1 1232   0.034   0.591   0.942 -0.5720  0.8742  2.2775
  411SOL    HW2 1233   0.043   0.717   1.048  0.1025  2.2044 -4.0543
  412SOL     OW 1234   1.448   0.691   0.875 -0.0901 -0.7138  0.4610
  412SOL    HW1 1235   1.507   0.735   0.949  2.9209  1.1852  0.7963
  412SOL    HW2 1236   1.376   0.757   0.847  1.0651 -1.7299  2.6325
  413SOL     OW 1237   0.974   0.374   1.067  0.2627  0.1308 -0.3506
  413SOL    HW1 1238   0.981   0.275   1.095  0.6071 -0.7318  1.2291
  413SOL    HW2 1239   0.991   0.433   1.152 -2.2453  4.3343  0.2667
  414SOL     OW 1240   0.207   1.586   2.946  0.2142  0.1295  0.1627
  414SOL    HW1 1241   0.115   1.613   2.909  0.2376  0.0421  2.1203
  414SOL    HW2 1242   0.232   1.492   2.916 -1.8617  0.4321 -1.0165
  415SOL     OW 1243   0.511   2.223   3.054 -0.0443  0.4270  0.3388
  415SOL    HW1 1244   0.583   2.161   3.012 -1.5124 -2.2506  0.0030
  415SOL    HW2 1245   0.453   2.262   2.979 -1.2206  0.7012  0.1753
  416SOL     OW 1246   1.524   0.863   0.515 -0.2392 -0.0843  0.2169
  416SOL    HW1 1247   1.520   0.762   0.549 -0.9850  0.0618  3.5925
  416SOL    HW2 1248   1.547   0.875   0.412  1.3831 -1.1996 -1.9787
  417SOL     OW 1249   0.325   1.034   0.337  0.1218 -0.2626  0.5993
  417SOL    HW1 1250   0.321   1.030   0.233 -1.0173 -0.9120 -2.1801
  417SOL    HW2 1251   0.281   0.956   0.384 -1.4376 -1.6814 -0.8028
  418SOL     OW 1252   2.638   1.479   2.463  0.0554 -0.6116  0.4987
  418SOL    HW1 1253   2.606   1.474   2.362 -2.0453 -0.5671 -4.1615
  418SOL    HW2 1254   2.651   1.383   2.501 -1.0985 -2.0021 -0.1275
  419SOL     OW 1255   0.433   0.557   2.947  0.0546  0.4824 -0.1706
  419SOL    HW1 1256   0.436   0.614   3.028 -0.2726  2.5221  0.1480
  419SOL    HW2 1257   0.361   0.487   2.944  0.8051  1.9652 -0.1625
  420SOL     OW 1258   0.431   1.487   0.819  0.1542  0.3188 -0.1300
  420SOL    HW1 1259   0.390   1.536   0.895  1.0267 -0.0346  0.7647
  420SOL    HW2 1260   0.367   1.412   0.789 -1.0426 -0.1651  0.3919
  421SOL     OW 1261   0.562   2.211   0.749  0.4804 -0.0784 -0.1040
  421SOL    HW1 1262   0.633   2.235   0.682  0.0127  0.2043  2.5079
  421SOL    HW2 1263   0.523   2.119   0.727 -0.0474 -2.3165  1.4305
  422SOL     OW 1264   2.877   0.857   1.419 -0.7063  0.0744  0.1574
  422SOL    HW1 1265   2.925   0.949   1.432 -2.0143 -0.0484  1.5507
  422SOL    HW2 1266   2.937   0.796   1.362 -1.1781  2.0517 -0.3458
  423SOL     OW 1267   1.490   1.446   1.248 -0.5074 -0.3117 -0.1118
  423SOL    HW1 1268   1.584   1.424   1.287  2.0921  1.0181  1.7977
  423SOL    HW2 1269   1.459   1.382   1.181 -2.0228 -1.4845  0.3449
  424SOL     OW 1270   1.785   0.967   0.316 -0.2902 -0.2468 -0.0144
  424SOL    HW1 1271   1.725   1.043   0.353  0.6268  0.6442  1.0794
  424SOL    HW2 1272   1.800   0.968   0.216 -0.3967  0.2600  2.6476
  425SOL     OW 1273   3.030   0.240   1.948  0.1207 -0.0465  0.3359
  425SOL    HW1 1274   3.085   0.272   2.032  2.1353 -1.7436  1.0066
  425SOL    HW2 1275   3.016   0.139   1.952 -0.5443 -1.2233  0.0023
  426SOL     OW 1276   2.443   2.842   2.585  0.2952 -0.4159 -0.2291
  426SOL    HW1 1277   2.409   2.750   2.582  1.6515  1.5206  0.8779
  426SOL    HW2 1278   2.399   2.899   2.516  2.8738 -2.7377  2.9091
  427SOL     OW 1279   1.197   0.852   2.272  0.8998  0.0380 -0.1465
  427SOL    HW1 1280   1.235   0.760   2.235  1.7854 -4.0300 -1.4790
  427SOL    HW2 1281   1.275   0.916   2.264 -1.4209 -4.4948  2.0624
  428SOL     OW 1282   2.225   1.315   2.164 -0.7416  0.1421  0.0538
  428SOL    HW1 1283   2.248   1.276   2.254  0.5492 -0.5062 -1.6916
  428SOL    HW2 1284   2.281   1.393   2.127 -0.5786  1.7946  2.7122
  429SOL     OW 1285   2.817   0.055   0.540 -0.0790  0.1355 -0.4320
  429SOL    HW1 1286   2.776   0.147   0.528  1.8285  1.6924 -1.0171
  429SOL    HW2 1287   2.916   0.062   0.512  1.2965  1.1869 -1.0970
  430SOL     OW 1288   1.937   1.314   2.169 -0.0019  0.3418 -0.2613
  430SOL    HW1 1289   2.033   1.316   2.126 -0.4876 -0.6893  0.1187
  430SOL    HW2 1290   1.869   1.314   2.097  1.1624 -2.0896 -0.0573
  431SOL     OW 1291   2.968   2.030   1.078 -0.0581 -0.2020  0.0154
  431SOL    HW1 1292   2.868   2.021   1.081  2.8819 -0.6150  0.2818
  431SOL    HW2 1293   3.018   1.964   1.133 -0.3932  0.0720 -3.1402
  432SOL     OW 1294   1.583   3.104   2.369 -0.4113  0.2761 -0.2468
  432SOL    HW1 1295   1.520   0.081   2.368 -0.8516  0.6947  0.5210
  432SOL    HW2 1296   1.663   0.013   2.307  2.0041  2.6274 -2.8601
  433SOL     OW 1297   1.252   3.021   1.762  0.8149  0.4548 -0.3582
  433SOL    HW1 1298   1.157   3.014   1.727 -1.7585  1.5532 -0.1784
  433SOL    HW2 1299   1.310   2.961   1.705  2.0030 -0.7094  1.2321
  434SOL     OW 1300   0.490   2.773   2.251 -0.2044 -0.2886 -0.6113
  434SOL    HW1 1301   0.486   2.861   2.302 -0.7924 -0.7220 -2.3967
  434SOL    HW2 1302   0.404   2.722   2.274 -0.5433 -0.0756 -2.1452
  435SOL     OW 1303   0.256   2.000   0.333 -0.1401 -0.6147  0.7868
  435SOL    HW1 1304   0.286   2.015   0.233  0.5255  0.7710 -0.0981
  435SOL    HW2 1305   0.206   1.914   0.344  0.6456  4.2331 -2.6934
  436SOL     OW 1306   0.933   0.857   1.973  0.0518  0.1323  0.0329
  436SOL    HW1 1307   1.033   0.865   1.981 -1.9655 -2.3219 -1.2901
  436SOL    HW2 1308   0.896   0.904   1.892  1.5443 -0.6331  1.4584
  437SOL     OW 1309   0.622   0.128   2.345  0.2013  0.0037 -0.0232
  437SOL    HW1 1310   0.695   0.194   2.337 -1.5347 -2.5716 -2.5599
  437SOL    HW2 1311   0.527   0.171   2.338 -3.3129 -0.0693 -0.6592
  438SOL     OW 1312   0.660   1.899   1.561  0.0602  0.8749  0.6378
  438SOL    HW1 1313   0.630   1.985   1.598 -1.3654 -0.8537  2.4520
  438SOL    HW2 1314   0.579   1.839   1.542  0.2167 -2.2250 -1.0576
  439SOL     OW 1315   1.727   0.699   3.087  0.1973 -0.5453 -0.4129
  439SOL    HW1 1316   1.639   0.743   3.047 -2.6190  0.4454 -0.7763
  439SOL    HW2 1317   1.813   0.756   3.055  1.9055  3.5992 -0.3057
  440SOL     OW 1318   0.808   0.633   0.588  0.0586  0.1021  0.2927
  440SOL    HW1 1319   0.869   0.677   0.656 -1.1646 -0.1775  0.2539
  440SOL    HW2 1320   0.713   0.669   0.586 -1.2867 -0.8920  0.7533
  441SOL     OW 1321   0.878   2.327   1.530  0.7920  0.4211 -0.3332
  441SOL    HW1 1322   0.865   2.294   1.626 -0.6364 -1.8313 -0.9526
  441SOL    HW2 1323   0.842   2.252   1.467  0.9147 -3.6356 -3.3144
  442SOL     OW 1324   2.848   1.780   0.408  0.3937  0.0747  0.4158
  442SOL    HW1 1325   2.801   1.840   0.340  1.7285  0.0779 -2.2353
  442SOL    HW2 1326   2.786   1.757   0.488  0.7160 -2.4220  0.3027
  443SOL     OW 1327   3.003   2.074   2.679 -0.1521 -0.4903 -0.2487
  443SOL    HW1 1328   2.932   2.005   2.647  0.3046  0.4231 -0.0123
  443SOL    HW2 1329   3.100   2.042   2.673  3.5832  0.1461  1.2905
  444SOL     OW 1330   1.388   1.063   0.296 -0.1354  0.0354  0.2115
  444SOL    HW1 1331   1.397   0.977   0.245 -1.9086  1.7547  1.1835
  444SOL    HW2 1332   1.325   1.040   0.369 -1.4674 -1.6176 -2.2240
  445SOL     OW 1333   2.647   2.668   1.779  0.3574 -0.3960  0.6158
  445SOL    HW1 1334   2.747   2.653   1.779 -2.4609 -0.2364  1.2379
  445SOL    HW2 1335   2.600   2.598   1.832  1.4510 -1.5969 -3.6780
  446SOL     OW 1336   2.933   1.194   0.642  0.2355 -0.0264  0.3904
  446SOL    HW1 1337   2.938   1.107   0.590 -1.7938 -2.9356 -0.0336
  446SOL    HW2 1338   2.857   1.203   0.711  2.0112 -3.0036  1.6680
  447SOL     OW 1339   1.140   2.096   0.992 -0.0257  0.3678 -0.3772
  447SOL    HW1 1340   1.233   2.132   1.016  1.6439  1.8714 -0.1728
  447SOL    HW2 1341   1.097   2.051   1.073  3.0427  0.5712 -0.2651
  448SOL     OW 1342   1.524   1.610   1.601 -0.2501 -0.8431 -0.5890
  448SOL    HW1 1343   1.554   1.692   1.546  1.2036  0.0083 -0.6158
  448SOL    HW2 1344   1.461   1.632   1.674 -1.9458 -3.9885 -0.9755
  449SOL     OW 1345   3.095   2.359   2.388  0.8905  0.2225 -0.0676
  449SOL    HW1 1346   3.010   2.326   2.440 -1.0808 -0.9694  2.7476
  449SOL    HW2 1347   0.057   2.372   2.463  0.5853  1.7081  0.1718
  450SOL     OW 1348   3.025   1.870   1.932  0.2427 -0.3511  0.0288
  450SOL    HW1 1349   3.051   1.970   1.949 -0.8134  1.1846  0.0880
  450SOL    HW2 1350   2.925   1.872   1.910  1.7104  0.5038 -1.5798
  451SOL     OW 1351   2.297   0.695   1.465 -0.2817 -0.1595  0.6096
  451SOL    HW1 1352   2.233   0.765   1.495  0.8627 -0.2657 -2.1675
  451SOL    HW2 1353   2.365   0.680   1.538 -2.8214 -0.1414  0.8579
  452SOL     OW 1354   0.707   1.263   1.007  0.6789  0.1911 -0.3245
  452SOL    HW1 1355   0.681   1.222   0.917 -0.6011  0.5230  2.7211
  452SOL    HW2 1356   0.701   1.359   0.990  1.1726 -5.0767  0.1048
  453SOL     OW 1357   1.322   2.157   0.556 -0.2919 -0.4181  0.6256
  453SOL    HW1 1358   1.344   2.145   0.651  0.0593  0.9593 -3.6763
  453SOL    HW2 1359   1.408   2.182   0.496  2.8230  1.3671 -2.9560
  454SOL     OW 1360   0.166   1.687   0.090 -0.1843  0.1575  0.4723
  454SOL    HW1 1361   0.248   1.706   0.150  0.9093 -1.1936  0.5810
  454SOL    HW2 1362   0.190   1.657   3.103 -1.1354  0.6672  1.2723
  455SOL     OW 1363   0.986   1.127   0.227  0.2159  0.3250  0.1261
  455SOL    HW1 1364   1.016   1.032   0.207  1.0207  2.1389 -1.9149
  455SOL    HW2 1365   1.047   1.169   0.293 -3.0162  1.2649 -2.4505
  456SOL     OW 1366   1.892   2.704   0.956  0.6593 -0.4466  0.7272
  456SOL    HW1 1367   1.904   2.747   0.862 -0.0346  1.1769 -0.0884
  456SOL    HW2 1368   1.852   2.610   0.943  0.9115 -1.5627  1.7475
  457SOL     OW 1369   1.564   2.910   0.091  0.1184 -0.1240 -0.2852
  457SOL    HW1 1370   1.574   2.983   0.159 -1.5658 -1.0065 -2.0195
  457SOL    HW2 1371   1.474   2.864   0.096 -0.9759 -1.2137  0.0201
  458SOL     OW 1372   2.429   0.703   0.422 -0.0565 -0.0037  0.1828
  458SOL    HW1 1373   2.344   0.741   0.457  2.2228  0.4400 -0.4261
  458SOL    HW2 1374   2.465   0.770   0.356 -0.1039 -2.1394 -0.0654
  459SOL     OW 1375   2.488   0.384   2.441 -0.0243  0.1973 -0.2366
  459SOL    HW1 1376   2.402   0.428   2.471 -1.1720 -0.5904 -1.2420
  459SOL    HW2 1377   2.567   0.415   2.494 -0.0958 -0.7342 -0.8637
  460SOL     OW 1378   2.671   0.508   2.645 -0.5965 -0.6145 -0.4153
  460SOL    HW1 1379   2.655   0.463   2.730  1.4540 -2.7939 -3.6168
  460SOL    HW2 1380   2.631   0.602   2.642 -0.2589 -0.8733  0.8206
  461SOL     OW 1381   0.091   2.270   0.737 -0.2485 -0.2622 -0.0096
  461SOL    HW1 1382   0.045   2.261   0.828  1.4276 -0.3774 -1.2251
  461SOL    HW2 1383   0.050   2.205   0.671  2.1988  0.0751  0.3646
  462SOL     OW 1384   2.979   2.546   1.579 -0.1733  0.2700 -0.0950
  462SOL    HW1 1385   2.969   2.594   1.668  0.4054  0.3844 -0.8255
  462SOL    HW2 1386   3.010   2.615   1.500 -1.6349  1.5807 -2.8295
  463SOL     OW 1387   2.366   1.891   2.809  0.0589  0.1659  0.2465
  463SOL    HW1 1388   2.455   1.913   2.850 -1.1817 -1.1594  0.6552
  463SOL    HW2 1389   2.365   1.801   2.762  0.8769  0.0603  0.5588
  464SOL     OW 1390   0.773   2.668   1.564 -0.1286  0.5844  0.0279
  464SOL    HW1 1391   0.871   2.670   1.592  0.3806  0.4325  0.3792
  464SOL    HW2 1392   0.711   2.720   1.630  0.5672  1.1004  0.6446
  465SOL     OW 1393   0.735   3.057   1.603 -0.4798 -0.1737 -0.0584
  465SOL    HW1 1394   0.694   0.009   1.531  2.2396  1.0236  1.6479
  465SOL    HW2 1395   0.753   0.021   1.683  0.5245  0.3432 -0.3164
  466SOL     OW 1396   1.623   2.824   2.084 -0.3516 -0.1223 -0.4076
  466SOL    HW1 1397   1.689   2.782   2.015 -0.2292  0.3688  0.9102
  466SOL    HW2 1398   1.547   2.876   2.037 -2.0056 -2.4537  0.5374
  467SOL     OW 1399   0.988   1.995   1.219  0.3150  0.3369  0.1758
  467SOL    HW1 1400   0.990   1.892   1.214  0.1419 -1.0319 -1.7107
  467SOL    HW2 1401   0.897   2.032   1.250 -1.0162  0.3159 -0.1575
  468SOL     OW 1402   2.902   1.930   2.301 -0.2262 -0.2141  0.2330
  468SOL    HW1 1403   2.979   1.991   2.280  0.2197 -2.7664  3.0650
  468SOL    HW2 1404   2.896   1.924   2.404 -1.2453  4.9262 -2.7569
  469SOL     OW 1405   0.796   1.901   0.585  0.0273 -0.0047 -0.4102
  469SOL    HW1 1406   0.875   1.934   0.639 -1.4434 -1.3836  0.3576
  469SOL    HW2 1407   0.770   1.803   0.611 -3.5036 -1.5622  0.2116
  470SOL     OW 1408   2.185   1.189   1.725  0.3078 -0.0318  0.1362
  470SOL    HW1 1409   2.120   1.262   1.737 -0.5589 -0.3658  1.0443
  470SOL    HW2 1410   2.277   1.225   1.705  1.1970  3.7675  0.3818
  471SOL     OW 1411   0.507   2.496   0.086  0.3190 -0.1254 -0.4784
  471SOL    HW1 1412   0.549   2.491   0.177 -1.8408  0.5570  1.0403
  471SOL    HW2 1413   0.517   2.412   0.037 -2.6555  1.2520 -0.3797
  472SOL     OW 1414   3.019   2.351   1.932  1.0445  0.2977  0.2447
  472SOL    HW1 1415   2.929   2.355   1.888  1.4504 -1.4072  0.0611
  472SOL    HW2 1416   3.089   2.401   1.875  1.0681  1.2524 -0.2324
  473SOL     OW 1417   0.944   2.829   0.349  0.4380  0.3681  0.0751
  473SOL    HW1 1418   0.852   2.786   0.364 -0.1784  2.8802  0.3856
  473SOL    HW2 1419   0.950   2.892   0.267  2.0615  0.8593  1.8463
  474SOL     OW 1420   2.713   2.478   0.934  0.0019  0.2926 -0.0753
  474SOL    HW1 1421   2.636   2.476   1.006 -2.4411  0.7739  0.7088
  474SOL    HW2 1422   2.743   2.387   0.897  1.3751 -0.7765 -1.7889
  475SOL     OW 1423   2.206   2.933   1.772 -0.0791  0.0459 -0.1158
  475SOL    HW1 1424   2.259   2.915   1.688 -2.1398  0.0533  1.7945
  475SOL    HW2 1425   2.107   2.913   1.764  4.5676  1.1314 -2.3959
  476SOL     OW 1426   0.748   1.168   0.528 -0.0230  0.1863 -0.4030
  476SOL    HW1 1427   0.804   1.245   0.500 -3.2594 -1.9069  0.3207
  476SOL    HW2 1428   0.725   1.176   0.628 -0.4644  0.4010  2.7676
  477SOL     OW 1429   0.298   1.977   0.996 -0.1773 -0.4786  0.2767
  477SOL    HW1 1430   0.283   2.075   1.027  0.4159  0.2244 -0.0025
  477SOL    HW2 1431   0.364   1.977   0.920  2.3323  0.3209  2.9162
  478SOL     OW 1432   0.258   2.646   2.331  0.1439  0.4704  0.5568
  478SOL    HW1 1433   0.169   2.699   2.325 -0.0714  0.3834  0.2903
  478SOL    HW2 1434   0.255   2.566   2.268  2.5479  0.7466  0.2384
  479SOL     OW 1435   0.235   0.204   1.394  0.3063 -0.5344  0.0686
  479SOL    HW1 1436   0.316   0.258   1.398  2.1365 -1.4851 -0.4203
  479SOL    HW2 1437   0.164   0.264   1.361  2.0813 -1.9625 -1.1997
  480SOL     OW 1438   2.844   2.503   2.974 -0.4516 -0.1584 -0.3096
  480SOL    HW1 1439   2.877   2.413   2.941  0.2655  0.2290  1.6704
  480SOL    HW2 1440   2.765   2.494   3.034 -0.2991 -0.7677 -0.6858
  481SOL     OW 1441   2.285   1.975   1.605 -0.6859  0.1289  0.2018
  481SOL    HW1 1442   2.212   1.976   1.676  0.4111  0.9085 -0.8214
  481SOL    HW2 1443   2.249   1.941   1.517 -0.2178 -2.1931 -0.7387
  482SOL     OW 1444   1.677   2.357   2.695  0.9930  0.1901 -0.3649
  482SOL    HW1 1445   1.614   2.292   2.643 -2.2258 -3.7053 -2.1491
  482SOL    HW2 1446   1.753   2.385   2.632 -0.9350  0.2303 -1.1080
  483SOL     OW 1447   0.690   1.969   2.215  0.1591  0.1919  0.0815
  483SOL    HW1 1448   0.712   1.899   2.141 -1.8319 -0.7228 -0.9717
  483SOL    HW2 1449   0.664   2.060   2.178  1.0592 -0.2785  1.2974
  484SOL     OW 1450   0.015   0.335   1.276  0.1247  0.3308 -0.0918
  484SOL    HW1 1451   3.095   0.301   1.182 -0.5984 -0.8717 -0.0702
  484SOL    HW2 1452   3.034   0.364   1.321  0.5505 -1.5314  1.0461
  485SOL     OW 1453   2.132   1.034   0.710  0.0226  0.2366  0.0973
  485SOL    HW1 1454   2.143   1.113   0.647 -1.5494 -0.3949 -0.3853
  485SOL    HW2 1455   2.051   1.054   0.770  3.5146 -1.8918  1.8017
  486SOL     OW 1456   1.310   0.166   2.142  0.1264  0.0505  0.0670
  486SOL    HW1 1457   1.318   0.195   2.045 -0.6566  1.9734  0.8740
  486SOL    HW2 1458   1.384   0.205   2.197  0.5476 -1.2937 -2.8314
  487SOL     OW 1459   0.966   1.724   1.256 -0.2880 -0.0910 -0.4949
  487SOL    HW1 1460   0.923   1.718   1.345  1.4734  2.7702 -1.0957
  487SOL    HW2 1461   1.020   1.639   1.228 -2.3143  0.0231 -0.1549
  488SOL     OW 1462   2.336   1.550   2.910  0.6575  0.1530  0.5963
  488SOL    HW1 1463   2.416   1.526   2.852 -0.0111 -2.4352 -0.5329
  488SOL    HW2 1464   2.359   1.537   3.006  1.3730  0.4320 -4.2978
  489SOL     OW 1465   2.218   3.095   0.380  1.0803  0.0915 -0.6869
  489SOL    HW1 1466   2.289   0.022   0.450  1.1698 -0.4509  4.0430
  489SOL    HW2 1467   2.150   0.065   0.363  2.1553 -1.1856  1.4845
  490SOL     OW 1468   1.176   2.443   0.222 -0.1004 -0.5401  0.1578
  490SOL    HW1 1469   1.257   2.396   0.194  0.0804  3.0505  3.2929
  490SOL    HW2 1470   1.190   2.540   0.253  0.7991 -1.1542 -1.2440
  491SOL     OW 1471   1.091   1.087   0.957 -0.1416 -0.2716 -0.4822
  491SOL    HW1 1472   1.028   1.061   1.033  2.1943  2.1599  0.2824
  491SOL    HW2 1473   1.042   1.140   0.885 -0.9190 -0.6769  0.4657
  492SOL     OW 1474   1.126   0.151   2.730  0.1908  0.7547  0.0880
  492SOL    HW1 1475   1.224   0.176   2.727 -0.8311  0.7394  1.0493
  492SOL    HW2 1476   1.068   0.233   2.709  0.1011  0.8988 -1.9520
  493SOL     OW 1477   1.797   1.950   0.078  0.2996  0.1911 -0.3087
  493SOL    HW1 1478   1.794   1.919   0.177 -1.8926  0.5960  0.9381
  493SOL    HW2 1479   1.884   1.999   0.060 -3.4804 -0.3169  2.0106
  494SOL     OW 1480   0.384   1.409   0.239  0.4054  0.2531 -0.0791
  494SOL    HW1 1481   0.367   1.512   0.245 -1.5588 -0.3673  2.1783
  494SOL    HW2 1482   0.482   1.397   0.233 -2.5743  0.4852  0.7332
  495SOL     OW 1483   0.005   2.695   0.773 -0.0244  0.0743  0.0369
  495SOL    HW1 1484   3.089   2.641   0.857  0.9561 -0.0002 -3.1458
  495SOL    HW2 1485   3.087   2.637   0.693 -0.4242  0.8709  1.0364
  496SOL     OW 1486   2.697   3.092   1.725  0.9934  0.2305 -0.2537
  496SOL    HW1 1487   2.658   3.042   1.645 -1.4163  0.6161  1.6688
  496SOL    HW2 1488   2.664   0.085   1.738 -0.1212  0.3332 -0.5697
  497SOL     OW 1489   2.147   1.334   2.485  0.2631 -0.6365 -0.4317
  497SOL    HW1 1490   2.143   1.385   2.577 -0.2208  1.7635 -2.3337
  497SOL    HW2 1491   2.068   1.370   2.432 -0.0874  1.9876 -0.0227
  498SOL     OW 1492   0.723   2.006   0.936 -0.1267  0.1242 -0.1687
  498SOL    HW1 1493   0.710   2.095   0.984  0.7631  1.5708 -0.3591
  498SOL    HW2 1494   0.721   1.926   0.995  3.1033  0.4123 -0.5282
  499SOL     OW 1495   0.764   2.082   1.371  0.0555  0.0095  0.3632
  499SOL    HW1 1496   0.738   1.996   1.422 -4.0428 -1.6057  0.5580
  499SOL    HW2 1497   0.680   2.126   1.326 -1.0957  1.9252 -0.5162
  500SOL     OW 1498   0.948   2.003   0.093  0.4328  0.5226 -0.3851
  500SOL    HW1 1499   0.938   1.923   0.156  0.7282 -2.5735  2.0269
  500SOL    HW2 1500   0.907   2.088   0.136 -1.6721  1.8345  0.8481
  501SOL     OW 1501   2.685   2.838   1.318  0.0587 -0.1348  0.2861
  501SOL    HW1 1502   2.625   2.828   1.233 -2.3545 -1.0639 -0.8908
  501SOL    HW2 1503   2.783   2.816   1.293  1.6705 -0.8014  0.1098
  502SOL     OW 1504   0.012   0.630   1.775  0.2929 -0.5051 -0.3130
  502SOL    HW1 1505   0.059   0.546   1.800  0.3048  1.1551 -2.0477
  502SOL    HW2 1506   3.025   0.600   1.738 -1.4293  0.8799 -2.1845
  503SOL     OW 1507   2.269   0.908   2.055  0.0972  0.6590  0.0816
  503SOL    HW1 1508   2.349   0.899   1.990  3.4984  0.8155 -2.6472
  503SOL    HW2 1509   2.198   0.978   2.029 -3.2762  0.1375  1.1149
  504SOL     OW 1510   1.230   0.750   1.767  0.1657  0.0819 -0.0434
  504SOL    HW1 1511   1.200   0.664   1.808 -0.3479  0.0709 -1.4216
  504SOL    HW2 1512   1.286   0.807   1.832  0.3810  1.2613  1.9792
  505SOL     OW 1513   0.795   2.998   2.481 -0.2329 -0.1051 -0.7986
  505SOL    HW1 1514   0.842   2.939   2.416 -3.1102  1.8325  2.8009
  505SOL    HW2 1515   0.787   3.089   2.443  0.3559 -2.9900 -1.6358
  506SOL     OW 1516   0.163   0.490   0.854  0.4983 -0.0562 -0.4530
  506SOL    HW1 1517   0.102   0.435   0.796  1.2021  1.2694  0.1490
  506SOL    HW2 1518   0.202   0.431   0.926 -1.4258 -2.6967 -0.7185
  507SOL     OW 1519   1.467   0.096   2.963  0.5353  0.1591  0.2431
  507SOL    HW1 1520   1.540   0.093   3.032  1.5068  1.7522 -2.1345
  507SOL    HW2 1521   1.438   0.001   2.946 -2.2516  2.8722  0.3527
  508SOL     OW 1522   1.476   0.265   2.342  0.6390  0.0932  0.3722
  508SOL    HW1 1523   1.488   0.361   2.305  1.9691 -1.0302 -1.2506
  508SOL    HW2 1524   1.512   0.251   2.431 -1.3665 -1.4754 -0.6591
  509SOL     OW 1525   0.772   1.343   2.263  0.1658 -0.1963 -0.3793
  509SOL    HW1 1526   0.828   1.359   2.183 -1.8899 -0.2778 -0.0147
  509SOL    HW2 1527   0.784   1.243   2.286 -0.1227 -0.6824  1.2405
  510SOL     OW 1528   3.032   0.891   0.649 -0.4157  0.1150  0.2994
  510SOL    HW1 1529   2.990   0.882   0.741  2.1635 -3.5001  0.3599
  510SOL    HW2 1530   0.031   0.895   0.657 -0.8631 -2.6748 -0.2808
  511SOL     OW 1531   1.818   2.079   1.076  0.2674  0.0738  0.4348
  511SOL    HW1 1532   1.800   2.166   1.126 -1.0024 -1.8481  2.2743
  511SOL    HW2 1533   1.914   2.043   1.084  0.3159  0.6582  0.1230
  512SOL     OW 1534   0.089   1.594   0.549 -0.0876  0.1666  0.2572
  512SOL    HW1 1535   0.046   1.617   0.637 -1.4084  1.2236  1.9719
  512SOL    HW2 1536   0.048   1.512   0.505  2.0984  0.6384  0.6663
  513SOL     OW 1537   0.058   2.165   0.458 -0.0965 -0.2338  0.1016
  513SOL    HW1 1538   0.117   2.093   0.416  1.7520  0.6657  1.2008
  513SOL    HW2 1539   0.101   2.258   0.450  0.6358 -0.2688  1.8789
  514SOL     OW 1540   2.651   2.063   2.435 -0.6733  0.4190  0.4902
  514SOL    HW1 1541   2.643   2.152   2.487 -0.8354 -0.8356  0.2258
  514SOL    HW2 1542   2.672   2.088   2.337  0.8368  0.1575  0.9846
  515SOL     OW 1543   2.243   1.075   0.293  0.2717  0.6820  0.3401
  515SOL    HW1 1544   2.180   1.006   0.248 -0.8449 -0.7053 -0.6212
  515SOL    HW2 1545   2.330   1.024   0.297  1.6817  0.4145 -1.1949
  516SOL     OW 1546   1.824   3.103   0.601 -0.1551  0.2726 -0.1186
  516SOL    HW1 1547   1.781   0.049   0.679  3.7683 -1.2039 -0.1192
  516SOL    HW2 1548   1.886   0.059   0.546  0.8421  1.2845 -0.3474
  517SOL     OW 1549   1.103   2.217   3.077  0.3373  0.6135  0.2174
  517SOL    HW1 1550   1.043   2.251   3.003 -0.8887 -1.0017 -0.3909
  517SOL    HW2 1551   1.042   2.174   0.044 -0.2815  1.5461  0.9292
  518SOL     OW 1552   0.808   0.535   1.917 -0.0489  0.2277  0.4656
  518SOL    HW1 1553   0.904   0.491   1.918  3.9184  1.8581 -1.3965
  518SOL    HW2 1554   0.791   0.606   1.981 -2.0461 -1.6547 -2.5666
  519SOL     OW 1555   2.882   1.326   0.200 -0.8000 -0.2129  0.2902
  519SOL    HW1 1556   2.946   1.403   0.190 -1.0697 -0.1061  2.8839
  519SOL    HW2 1557   2.929   1.238   0.190  0.5055 -1.3760  3.8438
  520SOL     OW 1558   2.543   1.950   1.652 -0.2905  0.6247  0.8239
  520SOL    HW1 1559   2.448   1.984   1.645  2.4927 -0.8007 -0.3425
  520SOL    HW2 1560   2.606   2.003   1.715  2.0341  0.7614  1.0357
  521SOL     OW 1561   0.872   2.788   2.287  0.6515 -0.2809 -0.5108
  521SOL    HW1 1562   0.953   2.787   2.348 -0.9723 -1.8190  0.5344
  521SOL    HW2 1563   0.826   2.698   2.296  0.6990 -1.3884 -1.4108
  522SOL     OW 1564   1.819   0.275   2.295  0.0113  0.5524  0.3515
  522SOL    HW1 1565   1.877   0.198   2.335  0.9155 -0.1955 -1.1772
  522SOL    HW2 1566   1.798   0.340   2.369 -2.0136  0.6681  1.8767
  523SOL     OW 1567   1.753   1.832   1.199 -0.1428  0.1691  0.0991
  523SOL    HW1 1568   1.771   1.926   1.170  1.2779  1.7086 -1.3029
  523SOL    HW2 1569   1.657   1.809   1.202  0.8572  1.0450  0.5271
  524SOL     OW 1570   1.081   2.591   0.570 -0.0277 -0.1882  0.2848
  524SOL    HW1 1571   1.058   2.494   0.547 -1.1868 -1.4312 -0.6485
  524SOL    HW2 1572   1.136   2.594   0.659  0.4554 -0.7188 -1.6702
  525SOL     OW 1573   2.909   0.349   0.311 -0.7161  0.2884 -0.0461
  525SOL    HW1 1574   2.809   0.343   0.302 -0.7535 -1.8855  1.2219
  525SOL    HW2 1575   2.964   0.296   0.241 -0.0003  0.3222 -0.8811
  526SOL     OW 1576   1.003   3.064   0.485 -0.2502  0.9164 -0.0637
  526SOL    HW1 1577   0.934   0.030   0.504  1.7668 -1.0138 -1.4728
  526SOL    HW2 1578   0.979   2.992   0.414 -0.3663  3.3081 -1.8034
  527SOL     OW 1579   2.533   1.979   0.664 -0.3040  0.2105  0.1806
  527SOL    HW1 1580   2.624   1.950   0.710  3.4225 -3.4198  3.3928
  527SOL    HW2 1581   2.474   2.036   0.732 -2.4031 -1.6116 -1.8735
  528SOL     OW 1582   0.018   0.602   2.318 -0.2038  0.0072  0.0358
  528SOL    HW1 1583   0.010   0.524   2.386  2.6203 -1.6134 -1.2456
  528SOL    HW2 1584   0.019   0.574   2.220 -0.8653 -0.2406 -2.5838
  529SOL     OW 1585   1.034   1.827   2.488 -0.4773 -0.5396 -0.4862
  529SOL    HW1 1586   1.122   1.815   2.538  2.5842 -1.0043  3.9495
  529SOL    HW2 1587   1.011   1.926   2.484 -0.9817 -1.9231 -2.5716
  530SOL     OW 1588   1.766   1.146   2.348  0.2382 -0.4108  0.1809
  530SOL    HW1 1589   1.676   1.161   2.304  2.7453  0.1204  1.2080
  530SOL    HW2 1590   1.842   1.200   2.300 -1.5331 -1.3741  0.4407
  531SOL     OW 1591   0.729   1.940   2.492  0.1910 -0.3953  0.1949
  531SOL    HW1 1592   0.729   1.920   2.390 -0.9550  0.2670 -1.7875
  531SOL    HW2 1593   0.635   1.958   2.521 -0.0214  1.1986  0.5690
  532SOL     OW 1594   2.147   1.196   0.498  0.1387  0.3304  0.0577
  532SOL    HW1 1595   2.177   1.143   0.419  0.2057  3.0029  0.0705
  532SOL    HW2 1596   2.149   1.294   0.467  0.5308  0.8190 -0.7059
  533SOL     OW 1597   0.208   3.104   1.930  0.1996  0.3956 -0.2695
  533SOL    HW1 1598   0.266   0.078   1.911 -0.0842 -0.8000 -2.1800
  533SOL    HW2 1599   0.213   3.044   1.849  0.8647 -0.9873 -0.1916
  534SOL     OW 1600   0.689   0.084   3.091  0.1098  0.3611  0.2362
  534SOL    HW1 1601   0.594   0.127   3.088  0.8948  0.9401 -3.0702
  534SOL    HW2 1602   0.734   0.112   0.075  2.3771 -0.2158  2.9214
  535SOL     OW 1603   0.195   0.277   0.300  0.7569 -0.1747 -0.5751
  535SOL    HW1 1604   0.220   0.248   0.394 -0.5982  0.4419  1.1198
  535SOL    HW2 1605   0.280   0.275   0.244 -2.9003  3.0323  2.7182
  536SOL     OW 1606   0.352   1.328   1.467  0.1629 -0.1286 -0.6396
  536SOL    HW1 1607   0.398   1.243   1.431 -0.9683  1.2381  0.7690
  536SOL    HW2 1608   0.421   1.402   1.467 -1.2938 -4.0775 -2.8354
  537SOL     OW 1609   1.220   2.605   1.764  0.2210  0.6940  0.2437
  537SOL    HW1 1610   1.154   2.638   1.837 -1.1049  1.4600 -1.0399
  537SOL    HW2 1611   1.268   2.515   1.783 -2.0777 -0.6177 -0.0056
  538SOL     OW 1612   3.101   1.803   0.376  0.0128  0.0272  0.1944
  538SOL    HW1 1613   0.045   1.735   0.431 -0.6169 -1.2814  1.2815
  538SOL    HW2 1614   3.004   1.786   0.390  0.7657  0.0853 -1.8414
  539SOL     OW 1615   2.664   1.235   2.560  0.0535 -0.3085  0.6844
  539SOL    HW1 1616   2.698   1.227   2.653 -0.8176 -0.8383 -0.5527
  539SOL    HW2 1617   2.698   1.159   2.498 -0.0101 -1.0110 -1.4640
  540SOL     OW 1618   1.853   1.074   1.987  0.0436  0.4193  0.2754
  540SOL    HW1 1619   1.952   1.086   1.988 -1.6082 -1.6288 -1.3775
  540SOL    HW2 1620   1.804   1.163   2.002  0.5600  0.4746 -2.3699
  541SOL     OW 1621   0.762   0.689   2.157  0.0204  0.5872  0.1692
  541SOL    HW1 1622   0.680   0.742   2.198 -1.5885  2.7052  1.1731
  541SOL    HW2 1623   0.816   0.758   2.107 -0.3772  1.1379  3.0918
  542SOL     OW 1624   2.088   0.195   0.038 -0.1282  0.1632 -0.2874
  542SOL    HW1 1625   2.079   0.286   0.086  0.8069  0.9090 -0.2620
  542SOL    HW2 1626   2.021   0.194   3.063 -0.6595 -0.6035 -1.3192
  543SOL     OW 1627   1.263   2.870   0.104 -0.7202 -0.6950  0.1039
  543SOL    HW1 1628   1.213   2.822   0.028 -0.3849  0.5303  3.0104
  543SOL    HW2 1629   1.244   2.970   0.108 -0.9770 -0.1828  1.4382
  544SOL     OW 1630   2.892   1.421   1.887 -0.0409 -0.2121 -0.3634
  544SOL    HW1 1631   2.861   1.423   1.983 -2.3247 -0.3823  1.3717
  544SOL    HW2 1632   2.864   1.333   1.844 -0.2988  0.6235 -1.4556
  545SOL     OW 1633   1.885   2.446   1.762 -0.4627 -0.5084  0.2141
  545SOL    HW1 1634   1.882   2.347   1.760 -0.1991  4.1272 -0.5354
  545SOL    HW2 1635   1.980   2.470   1.722  3.6383  2.4887 -1.1247
  546SOL     OW 1636   0.222   0.077   2.608 -0.5527  0.2030  0.3983
  546SOL    HW1 1637   0.235   3.091   2.653 -1.7196  0.7516  0.6965
  546SOL    HW2 1638   0.279   0.154   2.640 -0.9807 -1.3877 -0.9119
  547SOL     OW 1639   1.767   1.010   0.957  0.2304  0.0498  0.4950
  547SOL    HW1 1640   1.768   0.975   0.862 -0.9482  0.7097  1.5530
  547SOL    HW2 1641   1.731   1.104   0.962  0.2456  1.2203 -1.2460
  548SOL     OW 1642   1.883   1.872   2.396  0.4426 -0.3247  0.2907
  548SOL    HW1 1643   1.948   1.884   2.472  0.3104  1.4263  1.7368
  548SOL    HW2 1644   1.920   1.920   2.314 -2.2732  0.1603 -0.7220
  549SOL     OW 1645   2.074   0.558   0.597  0.0659  0.3262 -0.2838
  549SOL    HW1 1646   1.977   0.549   0.635 -1.8657  0.0531  4.1004
  549SOL    HW2 1647   2.096   0.657   0.579 -1.8282  0.7727  1.9365
  550SOL     OW 1648   2.381   1.743   0.591 -0.0056 -0.2820 -0.4462
  550SOL    HW1 1649   2.416   1.836   0.606 -1.2253 -0.9998  0.6237
  550SOL    HW2 1650   2.348   1.703   0.678 -1.1339  0.0573 -0.1438
  551SOL     OW 1651   1.282   2.631   2.202  0.1217 -0.3573  0.1353
  551SOL    HW1 1652   1.242   2.722   2.229  0.3437  0.1361 -0.1209
  551SOL    HW2 1653   1.226   2.554   2.241  2.8379 -1.4973  0.8287
  552SOL     OW 1654   3.092   2.412   2.731  0.0629  0.3498 -0.2717
  552SOL    HW1 1655   3.010   2.362   2.698 -1.3969 -2.3861  0.8105
  552SOL    HW2 1656   0.075   2.409   2.681  1.2363  0.5322  1.7391
  553SOL     OW 1657   0.306   0.266   1.008  0.5447  0.1234 -0.2568
  553SOL    HW1 1658   0.300   0.223   0.919  0.0621 -0.3623  4.2110
  553SOL    HW2 1659   0.241   0.218   1.072  0.6253 -1.5722  4.3822
  554SOL     OW 1660   2.291   2.300   1.813 -0.0935  0.3326  0.7225
  554SOL    HW1 1661   2.219   2.269   1.748  0.6290 -1.1341  2.1759
  554SOL    HW2 1662   2.262   2.292   1.908  0.8184 -1.5182 -0.9595
  555SOL     OW 1663   1.492   2.370   1.957 -0.2351  0.4375  0.1665
  555SOL    HW1 1664   1.462   2.391   1.861 -0.1467 -0.5166  0.3499
  555SOL    HW2 1665   1.507   2.450   2.017  2.0200 -1.0533 -0.1456
  556SOL     OW 1666   1.282   1.784   1.552 -0.5361  0.2178  0.2044
  556SOL    HW1 1667   1.275   1.684   1.525 -0.7878 -1.8082  0.0327
  556SOL    HW2 1668   1.271   1.797   1.652  1.8032  1.6672 -0.1388
  557SOL     OW 1669   1.835   2.472   2.518  0.3110 -0.1449  0.1860
  557SOL    HW1 1670   1.932   2.434   2.516  0.8658  0.6310  1.9622
  557SOL    HW2 1671   1.839   2.575   2.516  1.6672  1.6492 -0.7624
  558SOL     OW 1672   0.187   2.701   1.832 -0.9145 -0.3263  0.4578
  558SOL    HW1 1673   0.181   2.784   1.771 -1.9426  0.9091  0.6695
  558SOL    HW2 1674   0.128   2.717   1.914 -0.6590  0.2109  0.0533
  559SOL     OW 1675   2.528   2.856   0.838 -0.1493 -0.1253  0.3317
  559SOL    HW1 1676   2.513   2.762   0.797  0.1985 -1.6924  0.4260
  559SOL    HW2 1677   2.443   2.916   0.824 -4.5888 -0.6874 -0.8601
  560SOL     OW 1678   1.832   2.474   0.580  0.4291 -0.1391  0.1520
  560SOL    HW1 1679   1.756   2.523   0.629 -0.0252 -0.8621 -1.6078
  560SOL    HW2 1680   1.878   2.396   0.633  1.0070 -2.3478 -1.5590
  561SOL     OW 1681   0.995   0.287   0.692  0.6718 -0.3143  0.5008
  561SOL    HW1 1682   1.063   0.324   0.627  1.1472  1.9718  2.5394
  561SOL    HW2 1683   1.034   0.282   0.783  2.7275  0.9501 -1.3524
  562SOL     OW 1684   0.778   0.821   2.489  0.5450 -0.4840  0.5647
  562SOL    HW1 1685   0.757   0.735   2.534  2.3264 -2.1120 -0.5563
  562SOL    HW2 1686   0.716   0.837   2.404  0.1954 -0.6882 -2.0253
  563SOL     OW 1687   1.707   1.641   2.791  0.2355  0.2520  0.0542
  563SOL    HW1 1688   1.631   1.703   2.818  3.6834 -3.4904  1.3546
  563SOL    HW2 1689   1.792   1.676   2.837 -0.9323  0.7537  0.4578
  564SOL     OW 1690   2.731   0.498   1.314  0.0069 -0.0427  0.7097
  564SOL    HW1 1691   2.684   0.430   1.252  0.9847 -0.5162  2.3392
  564SOL    HW2 1692   2.660   0.563   1.337 -1.5779 -2.0378  1.1930
  565SOL     OW 1693   1.102   0.600   3.060 -0.1447 -0.1502 -0.5529
  565SOL    HW1 1694   1.125   0.679   3.001  0.7753  2.2412 -1.1733
  565SOL    HW2 1695   1.041   0.639   0.028 -2.7657 -0.2632 -0.5974
  566SOL     OW 1696   1.925   0.427   2.578 -0.0781  0.3024  0.1972
  566SOL    HW1 1697   1.972   0.449   2.488 -0.2382 -1.1976 -2.0672
  566SOL    HW2 1698   1.956   0.335   2.613 -0.8096 -4.1256 -0.9662
  567SOL     OW 1699   2.104   1.451   0.401  0.0478  0.2720 -0.1957
  567SOL    HW1 1700   2.189   1.506   0.386 -0.5663  2.5687  1.0732
  567SOL    HW2 1701   2.027   1.485   0.348  0.7283 -1.7176 -1.4797
  568SOL     OW 1702   1.710   1.670   0.024 -0.1396 -0.1750  0.1862
  568SOL    HW1 1703   1.706   1.623   3.040 -1.3777  1.0560 -0.9406
  568SOL    HW2 1704   1.738   1.766   0.017  0.1962 -1.1845 -1.2730
  569SOL     OW 1705   1.773   1.028   0.056 -0.2113  0.1798  0.8381
  569SOL    HW1 1706   1.781   1.124   0.018  0.6563  0.7113 -1.3336
  569SOL    HW2 1707   1.844   0.963   0.021 -0.3782 -2.6644  2.0113
  570SOL     OW 1708   0.442   2.609   1.819  0.3697  0.0384 -0.6709
  570SOL    HW1 1709   0.342   2.643   1.812 -1.4970  2.8681 -1.3750
  570SOL    HW2 1710   0.503   2.673   1.771 -0.6191  2.4461  0.1484
  571SOL     OW 1711   0.375   1.176   2.016 -0.2723 -0.0421  0.0936
  571SOL    HW1 1712   0.439   1.252   1.982 -0.4066  1.1583 -3.1700
  571SOL    HW2 1713   0.375   1.185   2.120  2.9035 -0.9087  4.0658
  572SOL     OW 1714   0.999   1.611   0.375 -0.5379 -0.5326  0.0231
  572SOL    HW1 1715   1.046   1.582   0.459 -0.4123 -0.9005  0.2197
  572SOL    HW2 1716   1.070   1.641   0.314 -0.1332 -1.6421  2.0078
  573SOL     OW 1717   1.630   2.023   2.956 -0.3463  0.2571 -0.3205
  573SOL    HW1 1718   1.534   1.985   2.966  0.3088  0.8296  1.2527
  573SOL    HW2 1719   1.693   1.987   3.031  1.1173 -2.6110  2.1662
  574SOL     OW 1720   1.008   0.112   1.097  0.9066 -0.5496  0.8633
  574SOL    HW1 1721   0.942   0.077   1.027  0.1961  2.2984  0.5669
  574SOL    HW2 1722   1.010   0.051   1.180  1.1147 -1.3460  1.6965
  575SOL     OW 1723   0.178   1.077   1.373 -0.0905  0.4362 -0.1256
  575SOL    HW1 1724   0.174   0.999   1.440  0.7733 -0.4478  0.2556
  575SOL    HW2 1725   0.280   1.101   1.359  1.2469 -1.7044 -0.9524
  576SOL     OW 1726   2.488   2.813   1.112  0.0532 -0.2476 -0.4426
  576SOL    HW1 1727   2.390   2.822   1.146 -3.7722 -0.4284  0.1445
  576SOL    HW2 1728   2.502   2.840   1.016 -0.0747  1.9599 -1.5331
  577SOL     OW 1729   1.040   1.066   2.248 -0.9674 -0.0638 -0.4448
  577SOL    HW1 1730   1.071   1.085   2.154 -0.8155  0.8501 -0.0665
  577SOL    HW2 1731   1.098   0.984   2.276  1.8459  0.9676  1.6546
  578SOL     OW 1732   2.027   0.878   2.631  0.0652 -0.4288 -0.6750
  578SOL    HW1 1733   1.976   0.899   2.548 -0.6973  1.0432  2.0638
  578SOL    HW2 1734   1.954   0.843   2.691 -0.2595  0.0122 -0.8268
  579SOL     OW 1735   2.134   2.232   1.600 -0.4336 -0.2523 -0.0526
  579SOL    HW1 1736   2.032   2.229   1.608  0.2974 -2.5529 -1.8358
  579SOL    HW2 1737   2.172   2.211   1.506 -0.3272  1.9595 -0.5225
  580SOL     OW 1738   1.686   1.681   2.392  0.0744 -0.2605 -0.6842
  580SOL    HW1 1739   1.761   1.751   2.404  3.1732  1.5388 -0.9059
  580SOL    HW2 1740   1.698   1.599   2.455 -0.2766 -1.9264  0.5047
  581SOL     OW 1741   1.343   1.473   2.393 -0.0780  0.0325 -0.8847
  581SOL    HW1 1742   1.332   1.571   2.421 -1.7151 -0.4620 -0.0305
  581SOL    HW2 1743   1.338   1.409   2.471  2.2320 -0.3189 -1.6432
  582SOL     OW 1744   1.015   1.434   1.751  0.1155 -0.0821  0.2423
  582SOL    HW1 1745   0.936   1.469   1.697  2.9218 -1.7525 -0.8740
  582SOL    HW2 1746   1.092   1.505   1.752  3.2787  1.9801 -2.2291
  583SOL     OW 1747   1.510   0.973   1.690  0.2650 -0.3326  0.0833
  583SOL    HW1 1748   1.471   0.921   1.610  0.2219 -3.0018 -3.3553
  583SOL    HW2 1749   1.485   1.073   1.686  3.2100 -1.6410  0.4954
  584SOL     OW 1750   2.034   2.662   0.510  0.3308  0.6594 -0.0235
  584SOL    HW1 1751   1.968   2.588   0.499 -0.8838  1.6435 -0.2385
  584SOL    HW2 1752   2.002   2.748   0.468 -1.0188  0.4074  0.7452
  585SOL     OW 1753   1.722   3.048   2.744 -0.0464  0.2835  0.0328
  585SOL    HW1 1754   1.746   2.948   2.731 -0.2258 -2.3616 -1.4927
  585SOL    HW2 1755   1.766   3.085   2.830 -0.0708 -1.0724  1.8029
  586SOL     OW 1756   2.690   2.091   1.070 -0.3952  0.3679 -0.0474
  586SOL    HW1 1757   2.678   2.187   1.113 -0.0206  1.6923 -0.3639
  586SOL    HW2 1758   2.706   2.105   0.973  1.4772 -1.0708  2.4622
  587SOL     OW 1759   1.364   1.906   3.053  0.3874  0.0892 -0.2583
  587SOL    HW1 1760   1.366   1.985   0.016  1.9377  2.5951 -0.5090
  587SOL    HW2 1761   1.273   1.901   3.011 -0.3948 -1.0046 -0.3025
  588SOL     OW 1762   0.466   0.445   1.123 -0.1785 -0.2563  0.1487
  588SOL    HW1 1763   0.550   0.461   1.072  0.1848 -0.3401 -1.2260
  588SOL    HW2 1764   0.402   0.384   1.068 -1.5436 -0.0087 -1.4446
  589SOL     OW 1765   1.123   0.374   0.471  0.0705  0.4691 -0.2131
  589SOL    HW1 1766   1.041   0.433   0.452 -3.8737 -0.1985  2.2616
  589SOL    HW2 1767   1.134   0.295   0.406 -0.0630 -1.3935  0.7780
  590SOL     OW 1768   1.230   0.788   2.888 -0.0889  0.5953  0.2692
  590SOL    HW1 1769   1.275   0.781   2.795  1.1575 -1.1404 -0.8727
  590SOL    HW2 1770   1.225   0.887   2.917  0.9146  0.9492  0.7033
  591SOL     OW 1771   2.674   2.119   2.185  0.1021  0.4472  0.1308
  591SOL    HW1 1772   2.676   2.222   2.184 -0.8334 -1.6047  1.3777
  591SOL    HW2 1773   2.731   2.066   2.123 -0.8320 -2.0121  0.6007
  592SOL     OW 1774   2.542   1.313   1.877 -0.3789  0.2717  0.9772
  592SOL    HW1 1775   2.481   1.320   1.790 -0.2467 -0.0064 -0.3252
  592SOL    HW2 1776   2.537   1.394   1.930 -1.3398 -1.8610  1.0936
  593SOL     OW 1777   1.239   0.972   1.336  0.0299 -0.6934 -0.2427
  593SOL    HW1 1778   1.242   1.069   1.365  1.0841 -1.6241 -1.8021
  593SOL    HW2 1779   1.287   0.913   1.404  0.6892 -1.2414 -2.0101
  594SOL     OW 1780   2.572   1.551   2.726  0.1280  0.5886  0.0239
  594SOL    HW1 1781   2.626   1.620   2.781 -0.9637  0.2863  1.8391
  594SOL    HW2 1782   2.620   1.527   2.640 -1.1941  0.9686 -0.4126
  595SOL     OW 1783   0.244   0.271   0.551  0.3381 -0.2755 -0.1531
  595SOL    HW1 1784   0.241   0.231   0.644  1.3744 -0.2544 -1.6101
  595SOL    HW2 1785   0.316   0.337   0.546 -1.2259 -2.1614  1.1402
  596SOL     OW 1786   3.092   1.305   1.065  0.1364  0.1953 -0.2881
  596SOL    HW1 1787   3.044   1.219   1.094  1.9078 -0.5349  0.8489
  596SOL    HW2 1788   3.104   1.313   0.969  2.0613  0.0379  1.7346
  597SOL     OW 1789   1.322   1.756   0.598 -0.2491  0.0142 -0.2572
  597SOL    HW1 1790   1.344   1.802   0.686 -0.6259 -0.5478  1.6011
  597SOL    HW2 1791   1.253   1.802   0.541  1.1720  1.4533 -1.8835
  598SOL     OW 1792   0.419   2.915   1.544  0.3252  0.7522 -0.0344
  598SOL    HW1 1793   0.481   2.873   1.613  2.0935 -0.2762  2.1984
  598SOL    HW2 1794   0.423   2.861   1.456 -0.9453 -0.2166  2.7065
  599SOL     OW 1795   0.053   1.655   2.585 -0.5117  0.2607  0.4351
  599SOL    HW1 1796   3.068   1.681   2.548  0.1038 -0.0881  0.1629
  599SOL    HW2 1797   0.051   1.661   2.685 -1.1847  2.4679 -2.6803
  600SOL     OW 1798   0.234   0.854   2.912  0.3798  0.2403  0.3170
  600SOL    HW1 1799   0.320   0.801   2.904  0.3258  1.9193 -1.1785
  600SOL    HW2 1800   0.252   0.948   2.879  0.1709 -0.5503 -0.2122
  601SOL     OW 1801   0.583   0.768   1.200 -0.4663  0.1290 -0.6681
  601SOL    HW1 1802   0.556   0.861   1.178 -0.6122 -3.4226  0.1150
  601SOL    HW2 1803   0.502   0.715   1.237 -1.7140  0.2721  1.2608
  602SOL     OW 1804   1.159   3.057   0.723 -0.8210 -0.1451 -0.8830
  602SOL    HW1 1805   1.232   2.986   0.722 -2.9160 -0.6251 -0.3249
  602SOL    HW2 1806   1.119   3.077   0.631  1.3422  1.1850  0.3620
  603SOL     OW 1807   1.668   2.134   2.256 -0.0452  0.3554  0.0816
  603SOL    HW1 1808   1.748   2.076   2.279 -1.5100  0.6260  0.3438
  603SOL    HW2 1809   1.692   2.228   2.227 -0.3304 -0.0464 -0.9063
  604SOL     OW 1810   0.387   0.126   2.900  0.2076  0.1353  0.2727
  604SOL    HW1 1811   0.337   0.041   2.925  2.2783 -0.2721 -1.5282
  604SOL    HW2 1812   0.344   0.175   2.825 -1.3489 -1.8615  1.0805
  605SOL     OW 1813   2.709   1.028   1.678 -0.2295  0.2806  0.2812
  605SOL    HW1 1814   2.695   1.046   1.776 -0.5313 -0.7878 -1.1725
  605SOL    HW2 1815   2.721   1.114   1.622 -0.6068 -2.0535 -0.8875
  606SOL     OW 1816   0.910   1.907   2.744  0.1551 -0.3111 -0.1874
  606SOL    HW1 1817   0.870   1.822   2.783 -1.6826  0.8664  2.6572
  606SOL    HW2 1818   0.885   1.926   2.645 -0.9994  3.3582 -1.8514
  607SOL     OW 1819   0.725   0.355   0.606 -0.0324  0.2209  0.6532
  607SOL    HW1 1820   0.746   0.453   0.607 -1.5082  0.6790 -1.1372
  607SOL    HW2 1821   0.812   0.312   0.628 -1.3320 -1.7187  0.9204
  608SOL     OW 1822   2.786   1.701   1.490 -0.3347 -0.8700  0.0594
  608SOL    HW1 1823   2.805   1.674   1.590  3.3282 -0.8929  0.5205
  608SOL    HW2 1824   2.807   1.626   1.430 -0.1697  0.4068 -1.7773
  609SOL     OW 1825   2.768   0.348   0.875 -0.1876  0.3516  0.0760
  609SOL    HW1 1826   2.714   0.264   0.901 -0.6405 -0.7243  0.1444
  609SOL    HW2 1827   2.708   0.416   0.832  0.4805 -0.8661  0.7753
  610SOL     OW 1828   0.208   2.576   1.302  0.4893  0.0354  0.0431
  610SOL    HW1 1829   0.259   2.524   1.374  1.9686  0.5819 -0.2227
  610SOL    HW2 1830   0.217   2.538   1.208  0.0623  1.6144  0.5877
  611SOL     OW 1831   1.478   1.698   0.150 -0.3127 -0.1846  0.3137
  611SOL    HW1 1832   1.575   1.692   0.118  0.0284 -0.3960  1.2221
  611SOL    HW2 1833   1.456   1.789   0.190  1.0671 -2.2082  0.2674
  612SOL     OW 1834   0.870   2.856   2.028  0.1627  0.6078 -0.3011
  612SOL    HW1 1835   0.875   2.831   2.127  0.8479 -0.6018 -0.8980
  612SOL    HW2 1836   0.775   2.881   2.000  0.3379 -0.6014 -1.3676
  613SOL     OW 1837   0.398   2.604   0.871  0.7400  0.4696 -0.1646
  613SOL    HW1 1838   0.374   2.530   0.806  1.2913 -1.4824  1.0976
  613SOL    HW2 1839   0.477   2.578   0.929  1.6155 -0.1659  0.8733
  614SOL     OW 1840   2.226   0.046   2.213  0.2216  0.2244 -0.5409
  614SOL    HW1 1841   2.263   0.137   2.247 -0.9058  1.3919 -0.2216
  614SOL    HW2 1842   2.239   0.044   2.108 -0.1403  1.3115 -3.2934
  615SOL     OW 1843   1.341   1.415   0.319 -0.1652  0.4741 -0.1689
  615SOL    HW1 1844   1.275   1.482   0.292 -1.3216 -1.3399  0.0299
  615SOL    HW2 1845   1.426   1.462   0.323 -2.6108 -2.0348  1.1732
  616SOL     OW 1846   1.792   1.551   0.474  0.1072 -0.9156  0.5280
  616SOL    HW1 1847   1.848   1.472   0.513  1.5907 -0.7089 -0.3969
  616SOL    HW2 1848   1.691   1.541   0.500 -1.1935  0.7126 -0.0078
  617SOL     OW 1849   1.317   1.252   2.596 -0.2694 -0.0281  0.1009
  617SOL    HW1 1850   1.227   1.235   2.554  3.5901 -1.3244 -1.0111
  617SOL    HW2 1851   1.371   1.169   2.605 -0.3934  2.7079 -3.0733
  618SOL     OW 1852   0.648   0.063   2.082 -0.3162 -0.6775  0.0362
  618SOL    HW1 1853   0.577   0.115   2.028 -2.2696  2.0004 -4.2390
  618SOL    HW2 1854   0.643   0.093   2.181  1.5346  1.6811  1.7681
  619SOL     OW 1855   2.828   1.473   1.346 -0.4479 -0.2133 -0.1830
  619SOL    HW1 1856   2.913   1.441   1.396  3.5133 -2.3417  2.6142
  619SOL    HW2 1857   2.850   1.475   1.243  1.5821  0.2652 -1.7134
  620SOL     OW 1858   2.287   0.365   2.731 -0.1935 -0.7536  0.1829
  620SOL    HW1 1859   2.305   0.422   2.651 -0.1090  0.5394  0.9209
  620SOL    HW2 1860   2.197   0.317   2.727  1.1879 -1.5221  1.5067
  621SOL     OW 1861   2.221   2.069   2.650 -0.2196 -0.0033 -0.0151
  621SOL    HW1 1862   2.266   2.023   2.727 -0.8974  1.2904  1.3750
  621SOL    HW2 1863   2.195   2.164   2.674 -0.7037  0.4905  1.0484
  622SOL     OW 1864   1.068   0.827   2.510  0.2209 -0.2690  0.1700
  622SOL    HW1 1865   0.966   0.825   2.505  0.3430 -0.8398  1.4065
  622SOL    HW2 1866   1.106   0.829   2.418  1.3516 -1.9780 -0.1086
  623SOL     OW 1867   0.749   1.079   2.260  0.3400 -0.0707  0.4773
  623SOL    HW1 1868   0.845   1.041   2.259 -0.0543  0.4891 -1.6973
  623SOL    HW2 1869   0.684   1.009   2.234  1.6549  1.5217 -0.5672
  624SOL     OW 1870   3.030   0.461   0.531  0.1717 -0.0395 -0.2470
  624SOL    HW1 1871   3.001   0.411   0.447 -0.1175  1.1079 -1.5590
  624SOL    HW2 1872   2.961   0.533   0.558  2.9460  0.2920 -0.6547
  625SOL     OW 1873   0.835   2.455   0.781  0.0126 -0.0182  0.4518
  625SOL    HW1 1874   0.808   2.544   0.817  1.6174 -1.7567  1.4664
  625SOL    HW2 1875   0.913   2.422   0.836 -2.8207 -0.8974  0.3342
  626SOL     OW 1876   2.214   0.704   2.751  0.4987 -0.0410 -0.4759
  626SOL    HW1 1877   2.181   0.645   2.826 -1.3159  0.5485 -1.2759
  626SOL    HW2 1878   2.146   0.770   2.725  1.9769 -1.0923 -1.9526
  627SOL     OW 1879   1.287   2.339   2.902 -0.2209  0.1001  0.1983
  627SOL    HW1 1880   1.343   2.421   2.931  0.8360  0.9440  3.4851
  627SOL    HW2 1881   1.213   2.326   2.969 -0.7203 -0.5599  1.0437
  628SOL     OW 1882   2.730   2.835   2.360 -0.2346 -0.3102  0.0150
  628SOL    HW1 1883   2.766   2.868   2.269 -0.3567 -0.5385 -3.6560
  628SOL    HW2 1884   2.706   2.913   2.420 -0.6354 -1.5097 -1.8939
  629SOL     OW 1885   1.196   2.919   2.227 -0.3440  0.1392 -0.1785
  629SOL    HW1 1886   1.242   2.942   2.318  1.9978  1.3273 -0.2039
  629SOL    HW2 1887   1.120   2.983   2.208  0.9092 -0.7201  0.1462
  630SOL     OW 1888   0.867   0.217   2.411  0.1310  0.1463  0.7247
  630SOL    HW1 1889   0.902   0.293   2.474 -1.9735  2.5073  1.2786
  630SOL    HW2 1890   0.946   0.178   2.354 -0.7297 -2.1034 -1.5567
  631SOL     OW 1891   1.967   1.291   0.807  0.1429  0.0408 -0.0688
  631SOL    HW1 1892   1.902   1.306   0.728 -0.9370  1.6205 -2.1015
  631SOL    HW2 1893   1.927   1.314   0.901 -0.3056  0.6406  2.3349
  632SOL     OW 1894   2.623   0.244   1.739 -0.1330 -0.1509  0.3591
  632SOL    HW1 1895   2.547   0.296   1.697  1.0764 -1.4010 -2.2195
  632SOL    HW2 1896   2.686   0.299   1.791 -2.6773  1.4753  2.3209
  633SOL     OW 1897   1.211   1.655   0.207 -0.3348 -0.4496  0.0378
  633SOL    HW1 1898   1.309   1.684   0.207 -1.4696 -0.4724  1.9860
  633SOL    HW2 1899   1.176   1.645   0.113  1.0389  0.0338  2.0795
  634SOL     OW 1900   2.934   2.956   1.736  0.2455  0.1256 -0.1222
  634SOL    HW1 1901   2.849   3.014   1.737  0.5369  1.5604  0.0403
  634SOL    HW2 1902   2.993   2.982   1.658 -0.8400  1.8715  1.9241
  635SOL     OW 1903   1.592   0.336   0.985 -0.3276 -0.1567 -0.2586
  635SOL    HW1 1904   1.682   0.379   1.000 -1.7232  0.9460 -1.7908
  635SOL    HW2 1905   1.563   0.278   1.067 -1.3499  0.5362  0.7991
  636SOL     OW 1906   0.801   1.211   2.974  0.7594  0.2983 -0.3030
  636SOL    HW1 1907   0.757   1.156   3.050  0.7569 -1.5293  1.9685
  636SOL    HW2 1908   0.740   1.295   2.956  0.2281  3.0684 -0.8184
  637SOL     OW 1909   2.902   2.203   2.906  0.0322  0.1396 -0.1696
  637SOL    HW1 1910   2.955   2.167   2.829 -4.0310 -3.5935  1.2379
  637SOL    HW2 1911   2.952   2.189   2.998 -0.3270 -0.3680  1.1723
  638SOL     OW 1912   1.464   2.636   2.495  0.3254  0.2142 -0.3603
  638SOL    HW1 1913   1.522   2.684   2.423  1.4994 -1.1944  1.3881
  638SOL    HW2 1914   1.514   2.619   2.580 -0.8419 -0.9494 -2.0586
  639SOL     OW 1915   1.657   1.838   0.696  0.2894  0.3157 -0.6181
  639SOL    HW1 1916   1.580   1.830   0.768 -2.4369  0.2776  1.0010
  639SOL    HW2 1917   1.625   1.892   0.615 -0.7051 -0.0072 -3.5946
  640SOL     OW 1918   2.451   2.732   0.435 -0.3976  0.5793  0.6368
  640SOL    HW1 1919   2.421   2.797   0.362 -1.3654  0.1909 -0.9831
  640SOL    HW2 1920   2.545   2.759   0.463  1.5797 -2.8311  1.7155
  641SOL     OW 1921   2.668   0.436   2.900  0.0709 -0.0032 -0.1880
  641SOL    HW1 1922   2.590   0.485   2.934  3.1062  0.4346  0.0476
  641SOL    HW2 1923   2.650   0.335   2.909 -2.4485  0.2236 -0.5983
  642SOL     OW 1924   0.347   0.644   1.274  0.1023  0.4118  0.1385
  642SOL    HW1 1925   0.338   0.629   1.373 -1.2055 -2.6298 -0.7700
  642SOL    HW2 1926   0.372   0.558   1.229  0.4747  1.6136  1.7687
  643SOL     OW 1927   0.666   1.467   2.480 -0.0039  0.2578  0.2225
  643SOL    HW1 1928   0.734   1.525   2.525 -2.9509 -0.1698  0.5143
  643SOL    HW2 1929   0.715   1.422   2.399 -0.0423  0.1142  2.2398
  644SOL     OW 1930   1.927   2.234   0.688 -0.1412  0.3081 -0.0996
  644SOL    HW1 1931   1.943   2.179   0.607 -2.0586  1.6369  2.1983
  644SOL    HW2 1932   1.858   2.187   0.750  1.5832 -1.3936  2.3297
  645SOL     OW 1933   1.824   2.447   0.894 -0.2160  0.1312  0.2532
  645SOL    HW1 1934   1.875   2.373   0.841 -1.6684 -1.7759 -0.2796
  645SOL    HW2 1935   1.754   2.491   0.827 -1.2242 -0.9028 -1.9006
  646SOL     OW 1936   0.697   2.207   2.833 -0.2724  0.0336  0.4771
  646SOL    HW1 1937   0.709   2.111   2.869  0.2333  1.1519  0.8508
  646SOL    HW2 1938   0.748   2.274   2.886 -0.1380 -1.9480  2.7102
  647SOL     OW 1939   1.052   2.709   1.580  0.4034 -0.8587 -0.0087
  647SOL    HW1 1940   1.103   2.766   1.512  1.0283  1.8230 -0.2035
  647SOL    HW2 1941   1.123   2.661   1.639 -0.9634  0.7097 -0.4745
  648SOL     OW 1942   1.483   0.198   1.190  0.1788  0.7709  0.1666
  648SOL    HW1 1943   1.477   0.181   1.288  0.0665 -1.9068 -0.8285
  648SOL    HW2 1944   1.403   0.159   1.144  2.2359  1.3984  2.1929
  649SOL     OW 1945   1.324   2.110   0.100  0.2487  0.1805 -0.4155
  649SOL    HW1 1946   1.239   2.148   0.060  0.9679  0.1902  0.5267
  649SOL    HW2 1947   1.394   2.188   0.103 -1.8052  3.8831 -1.0691
  650SOL     OW 1948   2.389   1.528   1.493  0.4122  0.1860 -0.1494
  650SOL    HW1 1949   2.412   1.583   1.578 -0.6514  0.0953  0.2978
  650SOL    HW2 1950   2.286   1.538   1.471  0.0785 -1.3204 -1.4300
  651SOL     OW 1951   1.788   2.887   3.066 -0.0207  0.1208 -0.0027
  651SOL    HW1 1952   1.696   2.906   0.011 -2.2281  2.6652  0.2539
  651SOL    HW2 1953   1.781   2.820   2.992 -0.9295 -0.9470 -1.7951
  652SOL     OW 1954   0.034   1.920   0.071 -0.8765  0.1995 -0.4033
  652SOL    HW1 1955   0.012   1.920   0.170  1.5057 -1.7975  1.6769
  652SOL    HW2 1956   0.105   1.843   0.059  3.7432 -1.2105  0.7453
  653SOL     OW 1957   2.963   2.896   0.897 -0.9841  0.3568  0.0607
  653SOL    HW1 1958   3.029   2.833   0.847  2.4721  0.7834 -2.2427
  653SOL    HW2 1959   2.911   2.956   0.837  1.4107  1.4944  2.6108
  654SOL     OW 1960   2.913   2.690   1.812 -0.0661 -0.7628  0.4669
  654SOL    HW1 1961   2.957   2.677   1.898  0.2837  1.1473  0.4111
  654SOL    HW2 1962   2.920   2.788   1.779  0.3877  0.5658 -2.6720
  655SOL     OW 1963   3.078   2.249   0.987 -0.4167  0.2655 -0.4775
  655SOL    HW1 1964   3.034   2.160   1.018 -1.6758 -0.4638  0.7840
  655SOL    HW2 1965   0.051   2.260   1.050 -2.2424 -0.0291 -1.3370
  656SOL     OW 1966   3.068   2.679   2.321  0.0847 -0.4050 -0.0938
  656SOL    HW1 1967   3.032   2.601   2.266 -0.2969  1.3001  1.3580
  656SOL    HW2 1968   3.037   2.672   2.418 -1.0149  1.6373  4.4138
  657SOL     OW 1969   2.927   1.417   2.774  0.4826 -0.1529 -0.3424
  657SOL    HW1 1970   3.008   1.359   2.801  1.2711 -2.1597 -0.5449
  657SOL    HW2 1971   2.846   1.354   2.762  0.2431 -1.0424 -0.6903
  658SOL     OW 1972   2.563   1.622   1.006 -0.5259  0.0354 -0.2344
  658SOL    HW1 1973   2.555   1.718   1.034  0.7219 -3.0481  0.7302
  658SOL    HW2 1974   2.511   1.562   1.071  0.9784  1.7296 -0.0074
  659SOL     OW 1975   1.665   0.094   0.806  0.3827 -0.3562 -0.3372
  659SOL    HW1 1976   1.675   0.025   0.882  0.6892  1.5181  0.7983
  659SOL    HW2 1977   1.627   0.182   0.842  2.6650 -3.1006  0.9598
  660SOL     OW 1978   1.583   1.439   2.897 -0.4930 -0.5334 -0.2192
  660SOL    HW1 1979   1.520   1.471   2.969  1.2719  1.0654 -1.2653
  660SOL    HW2 1980   1.621   1.518   2.837  1.5798  1.5259 -0.6642
  661SOL     OW 1981   0.260   2.224   1.082 -0.0695  0.0604 -0.0303
  661SOL    HW1 1982   0.259   2.322   1.057  0.1466 -3.8244  2.4750
  661SOL    HW2 1983   0.237   2.222   1.180 -0.8903  1.9261 -1.7623
  662SOL     OW 1984   0.037   0.670   3.013 -0.4952  0.5235 -0.0517
  662SOL    HW1 1985   0.088   0.659   3.103  0.0309 -2.8259  3.4222
  662SOL    HW2 1986   0.089   0.723   2.945  0.7007  2.3572 -1.3378
  663SOL     OW 1987   1.895   1.631   1.046 -0.1495  0.2232  0.0835
  663SOL    HW1 1988   1.900   1.646   0.947 -3.6537  0.3532  1.0900
  663SOL    HW2 1989   1.836   1.699   1.093 -2.0574  2.0141 -1.5960
  664SOL     OW 1990   1.117   1.491   1.180 -0.0804 -0.4234  0.5982
  664SOL    HW1 1991   1.059   1.413   1.153  1.3936 -0.7071  1.6700
  664SOL    HW2 1992   1.209   1.482   1.141  0.0856 -1.6994  0.3562
  665SOL     OW 1993   1.874   2.745   2.466 -0.3380  0.2823  0.3318
  665SOL    HW1 1994   1.790   2.780   2.421  1.7528 -0.3337  1.8403
  665SOL    HW2 1995   1.958   2.762   2.407  0.0582 -0.8103 -1.9104
  666SOL     OW 1996   3.031   2.876   2.746 -0.1446  0.3828 -0.6194
  666SOL    HW1 1997   2.977   2.828   2.819  0.0343  0.7523  0.5106
  666SOL    HW2 1998   3.039   2.976   2.769 -0.4414  0.0840  2.4544
  667SOL     OW 1999   2.341   1.540   2.073  0.0516 -0.3282  0.0116
  667SOL    HW1 2000   2.302   1.570   1.985 -1.5450 -0.8302  1.4373
  667SOL    HW2 2001   2.292   1.585   2.152 -0.2141 -2.5039 -0.2809
  668SOL     OW 2002   0.459   1.271   2.528 -0.3893  0.1751 -0.1935
  668SOL    HW1 2003   0.377   1.328   2.524  1.3701 -3.3823  1.0284
  668SOL    HW2 2004   0.544   1.329   2.521  0.9470 -0.4981 -2.4223
  669SOL     OW 2005   2.082   2.360   2.458 -0.0618 -0.2173 -0.6192
  669SOL    HW1 2006   2.142   2.300   2.407 -1.6582  3.1206 -0.1296
  669SOL    HW2 2007   2.122   2.369   2.549 -3.6389 -2.3371 -1.7273
  670SOL     OW 2008   2.117   1.131   1.988 -0.2966 -0.0962  0.5837
  670SOL    HW1 2009   2.142   1.213   2.041 -1.5190 -1.2263 -0.8157
  670SOL    HW2 2010   2.132   1.133   1.886 -1.3925  0.3284 -2.9225
  671SOL     OW 2011   2.559   1.167   0.339 -0.9354 -0.1970 -0.0262
  671SOL    HW1 2012   2.607   1.193   0.250  1.3791  1.6524  0.8724
  671SOL    HW2 2013   2.541   1.253   0.398 -1.4351  1.2595  0.3131
  672SOL     OW 2014   2.294   0.878   2.319 -0.2100  0.1375  0.2668
  672SOL    HW1 2015   2.300   0.894   2.222 -0.1962 -0.0038  4.8945
  672SOL    HW2 2016   2.241   0.946   2.366 -0.0762 -4.5986  1.2021
  673SOL     OW 2017   3.086   0.213   1.590 -0.2015 -0.0150 -0.0063
  673SOL    HW1 2018   3.080   0.240   1.686  0.2898 -0.5431  0.9188
  673SOL    HW2 2019   3.044   0.273   1.523  0.7964 -1.5561  2.1293
  674SOL     OW 2020   1.839   1.669   1.381 -0.0382  0.1945 -0.1620
  674SOL    HW1 2021   1.825   1.720   1.292 -2.8718  0.9441 -1.3185
  674SOL    HW2 2022   1.784   1.710   1.454 -0.3998 -3.9379 -0.0572
  675SOL     OW 2023   0.770   0.871   0.810  0.1500  0.5653 -0.2924
  675SOL    HW1 2024   0.707   0.815   0.868  1.7005  1.5981 -1.9543
  675SOL    HW2 2025   0.858   0.826   0.792 -0.6021  0.0455  2.9474
  676SOL     OW 2026   1.583   1.175   1.301 -0.4568 -0.4266  0.6026
  676SOL    HW1 2027   1.565   1.098   1.234  1.2482 -1.0242 -1.5049
  676SOL    HW2 2028   1.661   1.164   1.358  1.1257 -0.0873 -0.2404
  677SOL     OW 2029   2.587   1.551   2.206  0.3572 -0.0739  0.4431
  677SOL    HW1 2030   2.509   1.550   2.144  0.6357  0.0772 -1.3370
  677SOL    HW2 2031   2.637   1.639   2.202 -2.0043  1.8435  1.2667
  678SOL     OW 2032   2.777   1.619   0.854 -0.6868  0.0154  0.5783
  678SOL    HW1 2033   2.751   1.608   0.758  1.0387 -0.0853  1.2789
  678SOL    HW2 2034   2.691   1.614   0.912 -2.0641  0.9680  0.6253
  679SOL     OW 2035   2.273   2.543   0.154  0.2171 -0.1701 -0.1195
  679SOL    HW1 2036   2.175   2.554   0.177  2.1755  1.3506  3.4702
  679SOL    HW2 2037   2.311   2.615   0.101  1.5772 -1.0468 -0.8516
  680SOL     OW 2038   2.949   2.064   1.663  0.7461 -0.0401 -0.2367
  680SOL    HW1 2039   2.964   1.971   1.623 -0.8804 -0.8052 -1.6364
  680SOL    HW2 2040   3.034   2.114   1.682 -1.3498  0.9336  1.0405
  681SOL     OW 2041   0.479   1.104   1.355 -0.4724  0.2439  0.4968
  681SOL    HW1 2042   0.508   1.066   1.261 -0.2169 -2.5645 -1.5627
  681SOL    HW2 2043   0.549   1.072   1.424  0.3479 -1.3034  2.0334
  682SOL     OW 2044   1.653   2.574   0.744 -0.7918 -0.6436  0.2333
  682SOL    HW1 2045   1.632   2.673   0.758 -0.4679 -3.3570  0.2395
  682SOL    HW2 2046   1.573   2.522   0.706 -2.1363 -0.6468  0.0290
  683SOL     OW 2047   2.481   1.387   0.517 -0.2310 -0.1490  0.1778
  683SOL    HW1 2048   2.456   1.387   0.616  0.1638  0.1190  0.1112
  683SOL    HW2 2049   2.402   1.422   0.457  0.7092  0.5272  0.2473
  684SOL     OW 2050   0.493   1.942   1.843  0.7574  0.4488 -0.0025
  684SOL    HW1 2051   0.439   1.955   1.759  0.3419 -0.2000 -1.5721
  684SOL    HW2 2052   0.444   1.892   1.911  1.2938 -0.9679 -1.5208
  685SOL     OW 2053   2.017   1.440   0.031  0.3605 -0.1280  0.1196
  685SOL    HW1 2054   2.090   1.372   0.034  0.4890  0.3293 -0.1452
  685SOL    HW2 2055   1.927   1.399   0.023  0.7678  2.4200  0.9160
  686SOL     OW 2056   0.381   0.662   0.809 -0.3823 -0.1533  0.2698
  686SOL    HW1 2057   0.315   0.588   0.824  1.0607 -0.1238 -0.3227
  686SOL    HW2 2058   0.459   0.663   0.876  2.0733  0.3973  0.8368
  687SOL     OW 2059   1.129   2.422   2.710  0.1293  0.1888  0.1163
  687SOL    HW1 2060   1.196   2.385   2.780  1.1050 -0.3523  0.2636
  687SOL    HW2 2061   1.171   2.452   2.619  0.5944 -0.9076 -0.7307
  688SOL     OW 2062   2.509   1.666   1.704  0.5261  0.2262  0.6656
  688SOL    HW1 2063   2.600   1.627   1.728 -0.6051  2.1231 -2.1054
  688SOL    HW2 2064   2.513   1.767   1.693  0.1754  2.1683  1.0297
  689SOL     OW 2065   2.361   0.468   2.044 -0.6224  0.5421 -0.3083
  689SOL    HW1 2066   2.458   0.493   2.042 -2.7552 -4.6608 -1.8275
  689SOL    HW2 2067   2.299   0.550   2.042  2.4031 -1.3778  0.7505
  690SOL     OW 2068   2.100   0.883   1.505 -0.2544 -0.1571 -0.6361
  690SOL    HW1 2069   2.047   0.833   1.430  0.4176  0.7805  0.0709
  690SOL    HW2 2070   2.135   0.983   1.487  0.0284  3.4987 -1.1784
  691SOL     OW 2071   1.074   2.128   1.626 -0.3268 -0.1399  0.4524
  691SOL    HW1 2072   1.010   2.071   1.677  2.5371  0.2435 -1.1819
  691SOL    HW2 2073   1.036   2.158   1.533 -2.6404  2.6967  0.0136
  692SOL     OW 2074   1.990   0.023   1.383  0.5361 -0.2610 -0.4833
  692SOL    HW1 2075   1.969   0.046   1.480  1.7354  2.4814 -1.0400
  692SOL    HW2 2076   1.947   3.036   1.363  1.0931  2.1163 -2.7702
  693SOL     OW 2077   0.744   1.094   2.634 -0.0641  0.6935  0.6594
  693SOL    HW1 2078   0.706   1.032   2.567  0.1014 -0.6409 -1.6657
  693SOL    HW2 2079   0.833   1.069   2.664 -3.6075  0.8761  0.7393
  694SOL     OW 2080   1.857   2.577   1.372 -0.1640 -0.1816 -0.0921
  694SOL    HW1 2081   1.819   2.621   1.288  0.9063  0.7830 -0.3078
  694SOL    HW2 2082   1.901   2.649   1.429  0.5685  1.3720  0.4322
  695SOL     OW 2083   1.502   1.431   2.027  0.4671  0.1933 -0.5456
  695SOL    HW1 2084   1.437   1.441   1.952 -0.6056 -1.9359  1.6990
  695SOL    HW2 2085   1.487   1.501   2.095  0.2646  1.9593  0.5717
  696SOL     OW 2086   1.880   0.004   1.124  0.2845  0.0990  0.7604
  696SOL    HW1 2087   1.935   0.086   1.095  1.5022  0.0536 -1.3271
  696SOL    HW2 2088   1.878   3.100   1.227  0.8620 -0.8487  0.6273
  697SOL     OW 2089   1.272   0.076   1.034 -0.5185 -0.1673  0.0889
  697SOL    HW1 2090   1.174   0.081   1.062  0.1643 -0.9437 -1.5600
  697SOL    HW2 2091   1.270   0.084   0.932  0.3206  0.3060  2.4354
  698SOL     OW 2092   1.741   1.330   1.979 -0.3556 -0.0487 -0.0314
  698SOL    HW1 2093   1.778   1.351   1.887 -0.1541 -0.2472 -0.2633
  698SOL    HW2 2094   1.647   1.366   1.998  3.7284 -0.9705  1.3433
  699SOL     OW 2095   1.227   1.232   1.362  0.0807  0.4202  0.3229
  699SOL    HW1 2096   1.140   1.269   1.395  1.0942  0.5712  2.3327
  699SOL    HW2 2097   1.242   1.226   1.260 -1.1529 -0.9672  2.1109
  700SOL     OW 2098   1.327   0.259   0.232 -0.0009  0.5357 -0.1486
  700SOL    HW1 2099   1.345   0.256   0.132 -3.7948 -0.1924 -0.2579
  700SOL    HW2 2100   1.279   0.175   0.262  0.6258 -0.4541  0.9983
  701SOL     OW 2101   0.432   0.179   1.905 -0.6451  0.8805  0.2935
  701SOL    HW1 2102   0.447   0.272   1.943 -0.3517  0.7765 -3.6159
  701SOL    HW2 2103   0.411   0.183   1.807  0.8044 -0.9984 -0.2405
  702SOL     OW 2104   1.365   2.895   0.661 -0.6517  0.3079 -0.5421
  702SOL    HW1 2105   1.399   2.987   0.634 -0.7199  2.4732  1.7737
  702SOL    HW2 2106   1.379   2.832   0.581 -3.3391 -1.4778  0.4473
  703SOL     OW 2107   2.627   0.119   2.148 -1.0407 -0.8397 -0.5778
  703SOL    HW1 2108   2.563   0.148   2.225  2.0859 -0.0781  0.4662
  703SOL    HW2 2109   2.582   0.076   2.071  0.4989  0.1178  1.7667
  704SOL     OW 2110   1.041   2.341   0.931  0.2106  0.3636  0.0773
  704SOL    HW1 2111   1.060   2.242   0.951 -0.9131 -0.4135 -1.7864
  704SOL    HW2 2112   0.995   2.384   1.010  0.2790 -1.7004 -1.4162
  705SOL     OW 2113   0.174   1.015   2.379  0.2866 -0.3181  0.1410
  705SOL    HW1 2114   0.203   0.921   2.358 -3.1318  1.7090 -3.0534
  705SOL    HW2 2115   0.133   1.022   2.466 -0.4112  1.0710 -2.4291
  706SOL     OW 2116   1.454   0.286   0.503  0.0730 -0.0299  0.2792
  706SOL    HW1 2117   1.407   0.370   0.530 -0.0561 -0.2491  1.5494
  706SOL    HW2 2118   1.429   0.265   0.409  0.0350  2.1160  1.0284
  707SOL     OW 2119   1.282   2.132   2.368  0.9133 -0.9123  0.0958
  707SOL    HW1 2120   1.187   2.135   2.396  0.9196 -2.2557  0.5082
  707SOL    HW2 2121   1.296   2.057   2.298 -1.2852 -1.2809 -1.6564
  708SOL     OW 2122   2.824   2.130   1.436 -0.3296 -0.2220  0.1929
  708SOL    HW1 2123   2.751   2.067   1.404  2.1018  1.4428 -1.0293
  708SOL    HW2 2124   2.878   2.085   1.512 -1.2735 -2.1412  1.4026
  709SOL     OW 2125   2.002   0.268   1.827  0.7211  0.2769  0.2612
  709SOL    HW1 2126   2.091   0.265   1.882  1.7045 -1.1028  1.9984
  709SOL    HW2 2127   1.984   0.359   1.780 -0.6490  1.4930 -1.9517
  710SOL     OW 2128   3.011   3.037   1.237 -0.7559 -0.2506  0.0357
  710SOL    HW1 2129   2.934   3.098   1.204 -3.0201  1.8159 -0.3123
  710SOL    HW2 2130   3.007   2.941   1.203  1.7965  0.5254 -1.2274
  711SOL     OW 2131   0.346   2.401   0.700  0.1042 -0.3809  0.0295
  711SOL    HW1 2132   0.424   2.337   0.728 -0.6557  1.4767 -1.8343
  711SOL    HW2 2133   0.255   2.355   0.710 -0.3741 -3.4970 -0.8669
  712SOL     OW 2134   0.298   2.032   2.324  0.0129  0.4191  0.5240
  712SOL    HW1 2135   0.352   2.096   2.270 -0.3403 -0.5839 -0.3715
  712SOL    HW2 2136   0.316   1.936   2.301 -1.5140 -0.8052  0.2156
  713SOL     OW 2137   1.829   0.574   0.207 -0.1164  0.0426  0.0362
  713SOL    HW1 2138   1.759   0.510   0.239  0.0632  0.6531 -1.3683
  713SOL    HW2 2139   1.800   0.620   0.120  1.9094  0.9708  2.8418
  714SOL     OW 2140   1.405   1.924   0.283  0.0400 -0.5846  0.1074
  714SOL    HW1 2141   1.347   1.922   0.364  0.2088  1.1381 -2.1016
  714SOL    HW2 2142   1.368   1.989   0.212  1.0062 -2.4362 -1.4859
  715SOL     OW 2143   2.360   0.114   0.580 -0.2328  0.2104  0.7940
  715SOL    HW1 2144   2.369   0.214   0.593 -2.2016 -2.3217  0.4639
  715SOL    HW2 2145   2.359   0.065   0.669  0.8219 -1.7925 -0.6299
  716SOL     OW 2146   0.563   0.837   2.298  0.2323 -0.4208  0.1515
  716SOL    HW1 2147   0.551   0.905   2.376  1.7145 -0.6921 -0.8255
  716SOL    HW2 2148   0.509   0.867   2.215 -2.2393  1.4839 -0.6142
  717SOL     OW 2149   0.174   0.401   3.019 -0.5013  0.7211 -0.2349
  717SOL    HW1 2150   0.107   0.322   3.015 -0.3197 -0.5688  0.5110
  717SOL    HW2 2151   0.124   0.482   2.991 -0.4168 -0.5444 -1.2021
  718SOL     OW 2152   1.106   0.892   0.124  0.1237 -0.6000  0.2976
  718SOL    HW1 2153   1.165   0.947   0.061  0.3907 -0.0266  0.1774
  718SOL    HW2 2154   1.169   0.841   0.179  2.0141  0.6030 -3.5978
  719SOL     OW 2155   2.640   2.121   2.981  0.4496 -0.1079 -0.5588
  719SOL    HW1 2156   2.635   2.043   2.917 -0.5415 -1.5451  0.1173
  719SOL    HW2 2157   2.735   2.157   2.975 -0.2720  1.7311  0.8651
  720SOL     OW 2158   1.489   0.990   1.123  0.1693 -0.1418  0.4900
  720SOL    HW1 2159   1.455   0.901   1.149 -1.0704 -0.6839 -0.5047
  720SOL    HW2 2160   1.557   0.981   1.047  1.3404  1.5090 -2.3650
  721SOL     OW 2161   2.869   0.664   0.584  0.2252  0.1057  0.3829
  721SOL    HW1 2162   2.772   0.687   0.609 -1.9593  0.3124  0.8146
  721SOL    HW2 2163   2.934   0.736   0.622 -0.8693 -0.1681  0.2786
  722SOL     OW 2164   1.047   2.120   2.548  0.0088  0.0355 -0.5781
  722SOL    HW1 2165   1.087   2.115   2.640  0.5050 -0.4347  1.7212
  722SOL    HW2 2166   0.978   2.191   2.550  2.6520 -1.2966 -0.6174
  723SOL     OW 2167   0.565   0.934   0.424  0.4189  0.1291 -0.3835
  723SOL    HW1 2168   0.592   1.017   0.475  0.1861  0.6394 -1.6768
  723SOL    HW2 2169   0.472   0.953   0.382 -1.0837 -0.5761  0.5029
  724SOL     OW 2170   0.975   1.905   1.754 -0.4697  0.1250  0.4135
  724SOL    HW1 2171   0.956   1.819   1.702 -0.4895 -1.2433  0.2422
  724SOL    HW2 2172   0.907   1.929   1.824  2.0501 -1.4346 -1.1316
  725SOL     OW 2173   3.004   1.102   1.412  0.1870 -0.3108 -0.4975
  725SOL    HW1 2174   3.102   1.077   1.389  0.2378  0.1051 -0.9001
  725SOL    HW2 2175   3.007   1.176   1.483 -0.3902  2.0473 -0.8554
  726SOL     OW 2176   1.748   0.306   0.545 -0.5064  0.8853 -0.2187
  726SOL    HW1 2177   1.667   0.252   0.570 -4.1877 -1.2353 -2.9725
  726SOL    HW2 2178   1.800   0.327   0.633  2.0411  0.9563  0.1611
  727SOL     OW 2179   1.446   1.001   2.248 -0.0849 -0.3757 -0.3549
  727SOL    HW1 2180   1.470   1.101   2.253  1.0879 -0.6095 -1.1500
  727SOL    HW2 2181   1.511   0.952   2.189 -0.8396  0.9425  2.6034
  728SOL     OW 2182   1.481   2.357   1.372  0.2139 -0.0659  0.6113
  728SOL    HW1 2183   1.460   2.260   1.366 -0.1521  2.1828  0.8978
  728SOL    HW2 2184   1.579   2.373   1.389 -3.2446  0.1230  3.0930
  729SOL     OW 2185   1.454   0.475   1.475  0.1665  0.5938 -0.2089
  729SOL    HW1 2186   1.407   0.485   1.383 -1.2747 -0.1807  2.3853
  729SOL    HW2 2187   1.485   0.378   1.488  2.8741  0.7023  1.9062
  730SOL     OW 2188   0.744   2.014   1.907 -0.2430 -0.3812  0.2562
  730SOL    HW1 2189   0.773   2.104   1.869 -0.9657  0.4962 -3.0581
  730SOL    HW2 2190   0.640   2.003   1.899 -0.5598  0.4003 -0.5051
  731SOL     OW 2191   0.463   0.431   0.248 -0.2285 -0.0132  0.0156
  731SOL    HW1 2192   0.450   0.406   0.345 -2.9873  1.2515 -3.7701
  731SOL    HW2 2193   0.444   0.349   0.189 -0.7284  0.4337  0.4482
  732SOL     OW 2194   0.695   0.523   2.852 -0.0716  0.7167 -0.2964
  732SOL    HW1 2195   0.748   0.437   2.880  1.8167  0.6909  0.3558
  732SOL    HW2 2196   0.603   0.514   2.888  1.3919  0.0222  0.1563
  733SOL     OW 2197   1.445   2.099   1.295  0.7589  0.0424 -0.1673
  733SOL    HW1 2198   1.368   2.030   1.284 -5.4678  1.2098 -0.8483
  733SOL    HW2 2199   1.498   2.083   1.378 -2.2602  1.1842 -3.1071
  734SOL     OW 2200   2.970   2.667   2.567  0.3472 -0.1860 -0.1156
  734SOL    HW1 2201   3.004   2.590   2.620  0.9235 -0.8857 -1.6366
  734SOL    HW2 2202   2.987   2.752   2.616 -1.0064 -1.2862  0.7612
  735SOL     OW 2203   0.765   2.703   0.856  0.2134  0.0722 -0.3844
  735SOL    HW1 2204   0.843   2.766   0.873  2.3008 -2.0691 -1.7112
  735SOL    HW2 2205   0.742   2.701   0.754 -3.0262 -0.8344  0.4567
  736SOL     OW 2206   1.632   0.991   2.745  0.1936  0.1981 -0.0608
  736SOL    HW1 2207   1.566   0.977   2.668  1.6524 -2.1209 -2.4777
  736SOL    HW2 2208   1.587   1.039   2.823 -1.2246  0.6988 -0.1751
  737SOL     OW 2209   0.172   0.542   0.402  0.2947  0.3023  0.1909
  737SOL    HW1 2210   0.201   0.451   0.363  1.1319 -1.1778  0.8592
  737SOL    HW2 2211   0.089   0.523   0.457 -3.4180 -0.9911 -0.8853
  738SOL     OW 2212   2.971   2.363   1.381 -0.1381 -0.2038 -0.8083
  738SOL    HW1 2213   2.903   2.294   1.390  1.5019 -0.2601 -1.8591
  738SOL    HW2 2214   2.966   2.427   1.461 -0.9762 -1.1096 -1.9801
  739SOL     OW 2215   1.721   2.854   0.535  0.2771 -0.4884  0.1218
  739SOL    HW1 2216   1.670   2.848   0.623  0.8491 -0.6501 -3.3097
  739SOL    HW2 2217   1.792   2.928   0.539  0.4299 -1.0276 -2.2173
  740SOL     OW 2218   1.450   2.950   1.352  0.0213  0.7241  0.6692
  740SOL    HW1 2219   1.441   2.939   1.253  3.5602  0.0866 -0.5011
  740SOL    HW2 2220   1.458   2.860   1.402 -0.6671 -0.1920  0.8694
  741SOL     OW 2221   2.211   0.331   0.726 -0.1127  0.6353 -0.1792
  741SOL    HW1 2222   2.231   0.403   0.798  0.3465  0.4394  0.0133
  741SOL    HW2 2223   2.171   0.378   0.646  0.0106  0.0859  0.7260
  742SOL     OW 2224   1.561   1.990   2.041  0.2774 -0.2653 -0.4380
  742SOL    HW1 2225   1.569   2.051   2.123 -1.6592 -0.6993  0.2207
  742SOL    HW2 2226   1.578   2.049   1.958 -0.6305  0.1017  1.8264
  743SOL     OW 2227   2.416   0.394   1.675 -0.0925  0.2126  0.6235
  743SOL    HW1 2228   2.355   0.360   1.754  0.7499  3.8140  1.6638
  743SOL    HW2 2229   2.405   0.497   1.666  3.5737  1.0523 -1.5148
  744SOL     OW 2230   2.256   0.357   1.077  0.2281 -0.9250  0.3266
  744SOL    HW1 2231   2.238   0.427   1.002  2.3468  0.5916 -3.4136
  744SOL    HW2 2232   2.264   0.398   1.166  1.5681  1.1872  1.8926
  745SOL     OW 2233   2.274   1.643   1.829 -0.4658  0.6706  0.3563
  745SOL    HW1 2234   2.271   1.732   1.877 -0.1502 -2.2829 -1.0407
  745SOL    HW2 2235   2.363   1.639   1.774  0.4248 -0.5074 -0.1324
  746SOL     OW 2236   1.072   1.523   0.881 -0.7961 -0.4373  0.1214
  746SOL    HW1 2237   0.980   1.545   0.911 -0.2033  2.6714  1.5769
  746SOL    HW2 2238   1.150   1.569   0.932  2.7891  2.3183 -0.3339
  747SOL     OW 2239   1.639   1.269   1.007  1.3457 -0.0380 -0.0802
  747SOL    HW1 2240   1.574   1.222   1.070 -1.9504 -0.1311  1.0758
  747SOL    HW2 2241   1.718   1.313   1.049 -2.5654  0.6507  1.1890
  748SOL     OW 2242   0.016   3.086   0.342 -0.5105  0.5520 -0.1962
  748SOL    HW1 2243   0.007   0.037   0.254 -1.5031  0.9133 -1.1087
  748SOL    HW2 2244   0.099   3.025   0.336 -0.4729  2.9280  0.4645
  749SOL     OW 2245   0.306   0.464   2.151 -0.0066 -0.2387 -0.8173
  749SOL    HW1 2246   0.404   0.469   2.175 -0.4668 -2.2866 -1.1066
  749SOL    HW2 2247   0.283   0.543   2.097 -1.8444  2.1488  1.4638
  750SOL     OW 2248   1.924   2.918   1.707 -0.3677 -0.3327 -0.1355
  750SOL    HW1 2249   1.933   3.016   1.684 -1.0073 -0.2239 -0.2727
  750SOL    HW2 2250   1.829   2.892   1.728 -0.5833 -3.2513  1.6574
  751SOL     OW 2251   3.013   0.331   0.779  0.0640  0.0064 -0.0456
  751SOL    HW1 2252   3.013   0.377   0.683 -0.5251  3.0401 -0.9319
  751SOL    HW2 2253   2.915   0.325   0.806  1.7101  2.3099 -2.0624
  752SOL     OW 2254   0.321   2.861   0.860 -0.0765  0.0476 -0.5823
  752SOL    HW1 2255   0.340   2.758   0.847  1.7735 -1.8043 -0.9793
  752SOL    HW2 2256   0.254   2.896   0.796  3.7069 -2.2926  2.1302
  753SOL     OW 2257   0.982   0.329   1.682 -0.0462  0.4741 -0.3850
  753SOL    HW1 2258   0.918   0.313   1.607 -2.5278  1.0843  2.4334
  753SOL    HW2 2259   1.082   0.312   1.658  0.8773 -1.6230 -1.3784
  754SOL     OW 2260   1.081   2.677   1.985 -0.4338 -0.1528 -0.3558
  754SOL    HW1 2261   1.150   2.686   2.059  1.1461 -0.2696 -0.1370
  754SOL    HW2 2262   1.006   2.746   1.981  0.0532 -1.6863  1.9906
  755SOL     OW 2263   2.604   1.031   0.630  0.1940  0.0785  0.0291
  755SOL    HW1 2264   2.649   1.099   0.695 -1.8576 -2.3340 -1.7331
  755SOL    HW2 2265   2.591   1.069   0.531 -0.3636  1.3888 -1.7246
  756SOL     OW 2266   2.032   1.872   2.618  0.3348  0.4894 -0.1225
  756SOL    HW1 2267   1.947   1.899   2.665  1.6617 -1.1852  0.0212
  756SOL    HW2 2268   2.102   1.942   2.618 -1.5760 -0.4282  0.5356
  757SOL     OW 2269   2.082   2.965   0.991  0.3651  0.1442  0.2613
  757SOL    HW1 2270   2.006   2.986   1.054  0.7263 -1.4256 -2.2072
  757SOL    HW2 2271   2.052   2.918   0.906  2.3064  0.7067  1.2956
  758SOL     OW 2272   1.219   2.808   0.951 -0.1729 -0.3617  0.5720
  758SOL    HW1 2273   1.135   2.788   1.004  2.5727  3.1102 -1.9722
  758SOL    HW2 2274   1.220   2.749   0.864  0.3631  1.7993  1.1854
  759SOL     OW 2275   2.540   0.358   1.184 -0.5074  0.1610  0.0793
  759SOL    HW1 2276   2.451   0.340   1.138 -2.2811 -2.1898 -1.0799
  759SOL    HW2 2277   2.579   0.277   1.229 -2.7332  3.2378  1.4642
  760SOL     OW 2278   2.211   1.115   1.458 -0.0011 -0.2204 -0.2419
  760SOL    HW1 2279   2.307   1.080   1.443  1.4127 -0.3619 -2.1326
  760SOL    HW2 2280   2.196   1.171   1.540 -0.3579 -1.2185 -0.0355
  761SOL     OW 2281   0.656   1.115   0.796  0.3763 -0.4621  0.1485
  761SOL    HW1 2282   0.560   1.085   0.792 -1.2332  1.2802 -1.0868
  761SOL    HW2 2283   0.718   1.035   0.792 -1.0430 -0.1967 -1.0578
  762SOL     OW 2284   2.116   1.575   1.430  0.8293 -0.3882 -0.1381
  762SOL    HW1 2285   2.136   1.566   1.329  4.1546 -1.4060 -1.3703
  762SOL    HW2 2286   2.024   1.620   1.440  1.3861  2.0746  1.0804
  763SOL     OW 2287   1.223   1.590   1.807  0.8940 -0.1745 -0.2679
  763SOL    HW1 2288   1.296   1.650   1.784 -1.4126 -3.1181  0.8781
  763SOL    HW2 2289   1.187   1.612   1.904 -1.4619 -3.3428 -1.4925
  764SOL     OW 2290   3.104   2.124   1.998 -0.8123  0.3937  0.0856
  764SOL    HW1 2291   3.072   2.213   1.954 -0.8668  4.0140 -0.7677
  764SOL    HW2 2292   3.090   2.124   2.098  1.6427 -0.5665  1.1589
  765SOL     OW 2293   1.227   2.381   1.237  0.3271 -0.2765 -0.2781
  765SOL    HW1 2294   1.141   2.408   1.280  2.5937 -1.0820  0.7624
  765SOL    HW2 2295   1.297   2.381   1.306 -3.9799  2.6029 -0.3945
  766SOL     OW 2296   0.469   2.364   2.475  0.2706 -0.2998  0.4143
  766SOL    HW1 2297   0.526   2.312   2.544  2.7931  1.0138 -1.2567
  766SOL    HW2 2298   0.513   2.450   2.450  2.1862  2.0333 -1.7440
  767SOL     OW 2299   1.453   0.944   2.544 -0.4150 -0.5600  0.6520
  767SOL    HW1 2300   1.410   0.859   2.576  0.3534 -1.7977  1.1172
  767SOL    HW2 2301   1.436   0.957   2.443 -0.9592 -0.1869 -1.1190
  768SOL     OW 2302   1.164   2.722   2.956  0.2244  0.0479 -0.9985
  768SOL    HW1 2303   1.099   2.669   3.014  2.1126  1.2450 -2.2469
  768SOL    HW2 2304   1.254   2.680   2.974 -1.4449  2.3517  0.7435
  769SOL     OW 2305   3.085   2.713   1.377  0.0815  0.1567 -0.0753
  769SOL    HW1 2306   3.047   2.741   1.285  1.3618 -1.8665 -0.5418
  769SOL    HW2 2307   0.067   2.664   1.365 -2.3348  1.1131  3.7310
  770SOL     OW 2308   1.081   0.437   2.841 -0.0155 -0.3119  0.0234
  770SOL    HW1 2309   0.992   0.395   2.821 -0.5107  0.8922  1.9246
  770SOL    HW2 2310   1.075   0.487   2.930 -0.7904 -1.0779  1.6635
  771SOL     OW 2311   0.375   0.186   2.277  0.3904  0.0372 -0.4296
  771SOL    HW1 2312   0.324   0.106   2.232 -2.1489 -0.7495 -2.0469
  771SOL    HW2 2313   0.331   0.275   2.279  2.3749  1.1468  1.6148
  772SOL     OW 2314   2.574   3.041   1.959  0.1308 -0.5129 -0.3613
  772SOL    HW1 2315   2.614   3.050   1.869 -0.9780 -0.3935  2.2480
  772SOL    HW2 2316   2.612   2.959   2.004 -3.1402 -0.6194 -0.0507
  773SOL     OW 2317   0.836   2.288   1.800  0.3154  0.3283  0.2834
  773SOL    HW1 2318   0.908   2.319   1.867  2.0183 -2.0642 -0.8241
  773SOL    HW2 2319   0.744   2.313   1.839 -1.3976  1.7842 -0.2681
  774SOL     OW 2320   1.202   0.500   1.893  0.3449  0.2136 -0.4792
  774SOL    HW1 2321   1.295   0.479   1.859 -0.0691  0.4951  0.0944
  774SOL    HW2 2322   1.137   0.429   1.861  0.5847 -2.0444 -2.9227
  775SOL     OW 2323   2.142   2.959   2.962 -0.7984  0.0083 -0.2914
  775SOL    HW1 2324   2.057   2.993   2.996  2.0085  0.2400  1.7855
  775SOL    HW2 2325   2.163   3.005   2.871 -0.2232  0.3914 -0.2324
  776SOL     OW 2326   2.064   0.507   2.340  0.0751  0.2116  0.7795
  776SOL    HW1 2327   2.001   0.578   2.305 -0.0376 -0.5170  2.5996
  776SOL    HW2 2328   2.081   0.436   2.267  3.0072 -1.4569 -1.9294
  777SOL     OW 2329   2.434   1.046   2.653 -0.2616  0.0522 -0.1820
  777SOL    HW1 2330   2.488   1.113   2.601  0.9470  2.1506 -0.4287
  777SOL    HW2 2331   2.337   1.048   2.618  2.1907 -2.1215  1.4822
  778SOL     OW 2332   1.914   0.691   2.197  0.1990 -0.5981 -0.7240
  778SOL    HW1 2333   1.991   0.701   2.129 -0.3358 -1.2754  0.9235
  778SOL    HW2 2334   1.834   0.652   2.155 -0.5229  2.5881  1.6092
  779SOL     OW 2335   3.080   0.182   0.172  0.0267  0.2902 -0.3339
  779SOL    HW1 2336   0.051   0.230   0.218  0.0694  0.2801 -1.0038
  779SOL    HW2 2337   3.080   0.191   0.069 -1.7641 -0.6822  1.0902
  780SOL     OW 2338   2.368   0.520   2.954 -0.7314 -0.0925  0.2330
  780SOL    HW1 2339   2.337   0.468   2.875 -0.6091  0.3302  2.1576
  780SOL    HW2 2340   2.300   0.597   2.973  3.4338  1.3762  1.2211
  781SOL     OW 2341   0.404   2.750   1.321 -0.2169 -0.4289  0.7342
  781SOL    HW1 2342   0.386   2.823   1.250 -0.3219 -1.6574  1.3126
  781SOL    HW2 2343   0.323   2.692   1.327  0.1714  2.0301  0.4264
  782SOL     OW 2344   1.970   2.477   0.185 -0.1872 -0.1644 -0.2711
  782SOL    HW1 2345   1.896   2.450   0.250 -0.3718 -1.5583 -0.2293
  782SOL    HW2 2346   1.959   2.578   0.166  1.4927 -0.3371  1.5646
  783SOL     OW 2347   0.790   1.473   1.575  0.4134 -0.1686 -0.2899
  783SOL    HW1 2348   0.785   1.453   1.475 -1.2979  0.2547  2.2631
  783SOL    HW2 2349   0.744   1.396   1.628  1.3611  1.3077 -3.3359
  784SOL     OW 2350   1.666   0.878   2.103  0.0220 -0.4158  0.0673
  784SOL    HW1 2351   1.735   0.951   2.070  2.7679 -0.1507 -1.1643
  784SOL    HW2 2352   1.706   0.784   2.098 -1.2548 -1.2834  0.7628
  785SOL     OW 2353   2.650   0.124   0.964 -0.5735 -0.7181  0.2888
  785SOL    HW1 2354   2.570   0.095   1.016  0.1288  2.0832  0.2928
  785SOL    HW2 2355   2.681   0.044   0.905 -1.3251 -2.9594 -2.0499
  786SOL     OW 2356   1.452   2.684   1.426  0.0556  0.2333 -0.5932
  786SOL    HW1 2357   1.519   2.616   1.462 -1.5210  3.0135 -1.6823
  786SOL    HW2 2358   1.417   2.655   1.333  1.0421 -0.6681 -2.0303
  787SOL     OW 2359   1.374   0.102   1.420 -0.3727 -0.5964 -0.1124
  787SOL    HW1 2360   1.272   0.085   1.419 -1.0975  1.6692 -0.3247
  787SOL    HW2 2361   1.419   0.008   1.413 -3.2257 -1.6163 -0.1563
  788SOL     OW 2362   2.968   1.067   0.142 -0.3608  0.0199 -0.1326
  788SOL    HW1 2363   2.969   1.000   0.069  1.1159  4.0642  3.8850
  788SOL    HW2 2364   2.971   1.022   0.237 -1.0470 -1.2113  0.4719
  789SOL     OW 2365   0.531   1.389   1.929  0.0933  0.0297  0.1960
  789SOL    HW1 2366   0.569   1.439   2.010  0.2161  0.5014 -3.4439
  789SOL    HW2 2367   0.520   1.449   1.847 -1.7763 -2.7036  0.9524
  790SOL     OW 2368   0.356   0.643   2.620 -0.8276  0.4632 -0.3863
  790SOL    HW1 2369   0.397   0.638   2.716  0.2969 -1.0311  2.0701
  790SOL    HW2 2370   0.255   0.633   2.631  0.0176 -1.1698  0.1150
  791SOL     OW 2371   2.185   0.835   0.493 -0.5702 -0.1521 -0.6186
  791SOL    HW1 2372   2.093   0.817   0.451 -0.2886  1.5726  2.4564
  791SOL    HW2 2373   2.164   0.895   0.572 -0.4718  0.4670  0.7971
  792SOL     OW 2374   1.143   2.825   1.359 -0.0902 -0.1623 -0.2656
  792SOL    HW1 2375   1.091   2.852   1.278  1.2771 -1.0398 -1.8210
  792SOL    HW2 2376   1.237   2.864   1.369  0.2663  0.1315 -0.3958
  793SOL     OW 2377   0.375   2.924   1.128  0.5349 -0.3599  0.3091
  793SOL    HW1 2378   0.367   2.897   1.028 -1.9718  1.2985 -3.2747
  793SOL    HW2 2379   0.288   2.973   1.151  0.4041 -0.4514 -1.2065
  794SOL     OW 2380   0.236   0.749   2.369 -0.0482  0.1848  0.2152
  794SOL    HW1 2381   0.290   0.719   2.448 -0.5136  0.1523 -4.1672
  794SOL    HW2 2382   0.207   0.667   2.317  2.2905 -1.1665  0.2639
  795SOL     OW 2383   0.384   2.562   2.799 -0.2629 -0.0103 -0.1802
  795SOL    HW1 2384   0.485   2.592   2.802  0.7521  1.2274  0.6812
  795SOL    HW2 2385   0.342   2.600   2.713  0.4223 -2.6290  1.7701
  796SOL     OW 2386   2.285   0.548   2.522 -0.2460  0.2883 -0.1852
  796SOL    HW1 2387   2.252   0.607   2.603  1.3550 -0.7284 -0.1644
  796SOL    HW2 2388   2.216   0.538   2.448 -0.3517 -1.9801  3.7235
  797SOL     OW 2389   2.464   2.485   2.440  0.1374 -0.0157 -0.1531
  797SOL    HW1 2390   2.565   2.515   2.418  2.2571  1.4172 -0.0382
  797SOL    HW2 2391   2.413   2.541   2.504  4.6799  0.9464  0.4059
  798SOL     OW 2392   0.381   0.576   1.809  0.1052  0.0457  0.3948
  798SOL    HW1 2393   0.434   0.513   1.870  0.1444  1.0780 -0.0908
  798SOL    HW2 2394   0.287   0.551   1.822  0.6661  1.0505 -0.3666
  799SOL     OW 2395   0.583   2.907   2.008 -0.1366  0.1014 -0.4246
  799SOL    HW1 2396   0.588   3.009   2.019 -0.9410 -1.0856 -2.1831
  799SOL    HW2 2397   0.536   2.873   2.093  2.3809  1.4697 -0.6760
  800SOL     OW 2398   2.960   2.253   0.283  0.3484 -0.0432 -0.0133
  800SOL    HW1 2399   2.976   2.349   0.252  0.6270 -1.4525 -0.9811
  800SOL    HW2 2400   3.037   2.223   0.345 -1.6158  0.8502  0.6242
  801SOL     OW 2401   1.854   1.690   0.787  0.3278 -0.5291 -0.0703
  801SOL    HW1 2402   1.938   1.685   0.725 -2.3454 -0.2615 -1.3955
  801SOL    HW2 2403   1.786   1.755   0.748 -1.1018 -2.0438 -4.4816
  802SOL     OW 2404   0.468   0.420   0.500 -0.0396  0.2892 -0.1841
  802SOL    HW1 2405   0.553   0.379   0.530  2.3173  0.6726 -0.6130
  802SOL    HW2 2406   0.469   0.520   0.517 -1.3183 -2.1980 -0.0800
  803SOL     OW 2407   1.300   1.309   1.831 -0.4780  0.5226  0.4683
  803SOL    HW1 2408   1.345   1.265   1.750  0.6486  2.7755 -0.4383
  803SOL    HW2 2409   1.236   1.375   1.797  1.6157 -0.5286  0.2307
  804SOL     OW 2410   1.719   2.097   0.812 -0.2721 -0.0922 -0.1279
  804SOL    HW1 2411   1.755   2.090   0.906  1.7245  1.4448 -1.6439
  804SOL    HW2 2412   1.728   2.007   0.766  1.2744 -0.3228 -0.0424
  805SOL     OW 2413   0.135   2.006   2.557 -0.0822 -0.0839 -0.8101
  805SOL    HW1 2414   0.215   2.014   2.616  1.8125  2.9661 -1.4857
  805SOL    HW2 2415   0.162   2.016   2.461  0.2341 -0.4302  1.5512
  806SOL     OW 2416   0.582   2.493   0.355  0.1147  0.9538 -0.6478
  806SOL    HW1 2417   0.630   2.422   0.413  0.7680  1.0168 -2.6553
  806SOL    HW2 2418   0.481   2.494   0.376 -1.4914 -0.9244  2.0241
  807SOL     OW 2419   2.077   1.492   2.788 -0.0143 -0.2776  0.1472
  807SOL    HW1 2420   2.173   1.490   2.826  1.1721 -3.4776  1.6209
  807SOL    HW2 2421   2.017   1.570   2.823 -0.5327 -3.0936 -0.1046
  808SOL     OW 2422   1.396   2.233   1.065 -0.2393  0.1372  0.2117
  808SOL    HW1 2423   1.437   2.174   1.136 -3.5949  0.7576 -2.4629
  808SOL    HW2 2424   1.334   2.298   1.112  1.1108 -0.7308  1.3019
  809SOL     OW 2425   0.193   0.808   0.446 -0.1109 -0.6004  0.1573
  809SOL    HW1 2426   0.207   0.834   0.543  0.1849  0.4034 -2.6898
  809SOL    HW2 2427   0.197   0.709   0.431 -0.8158  1.6733 -2.2227
  810SOL     OW 2428   1.369   1.506   3.078 -0.8885  0.6645 -0.1522
  810SOL    HW1 2429   1.267   1.509   3.081 -0.7052 -2.3941  0.4104
  810SOL    HW2 2430   1.402   1.586   0.021 -0.4797 -2.0244 -0.9929
  811SOL     OW 2431   1.691   2.330   1.093 -0.2916  0.3519 -0.1723
  811SOL    HW1 2432   1.755   2.356   1.018 -0.5508  0.2683 -3.1578
  811SOL    HW2 2433   1.596   2.332   1.057  2.2333 -0.4277  0.6990
  812SOL     OW 2434   1.403   2.957   1.095 -0.0432  0.2444  0.5518
  812SOL    HW1 2435   1.321   2.911   1.052  1.2857  2.0205 -2.1755
  812SOL    HW2 2436   1.380   3.056   1.098 -0.8368  3.3695  1.4725
  813SOL     OW 2437   0.741   0.123   1.816 -0.3677 -0.3561 -0.0247
  813SOL    HW1 2438   0.686   0.195   1.764 -1.6667 -1.1136 -0.9373
  813SOL    HW2 2439   0.723   0.123   1.920  0.6608  1.0369  3.2255
  814SOL     OW 2440   1.011   2.411   1.994 -0.1484  0.6177  0.2507
  814SOL    HW1 2441   1.014   2.381   2.088 -0.8191  1.7451 -0.8171
  814SOL    HW2 2442   1.026   2.510   1.987  0.3147 -1.9613  0.7668
  815SOL     OW 2443   0.445   0.251   2.639  0.2687 -0.1879  0.0800
  815SOL    HW1 2444   0.532   0.204   2.662  0.0250 -0.6588 -0.4080
  815SOL    HW2 2445   0.447   0.337   2.583 -1.3092 -1.8711  2.4318
  816SOL     OW 2446   2.165   0.853   0.153  0.3074  0.6787 -0.0853
  816SOL    HW1 2447   2.244   0.808   0.107 -0.4399 -3.0527  0.5582
  816SOL    HW2 2448   2.112   0.794   0.216  1.0250  1.0724 -1.4279
  817SOL     OW 2449   3.010   2.481   2.161  0.3581  0.0301  0.4096
  817SOL    HW1 2450   3.015   2.424   2.075 -1.1433 -3.9536  0.1613
  817SOL    HW2 2451   3.057   2.426   2.240  3.8992 -1.7944  2.1818
  818SOL     OW 2452   0.912   1.342   0.407  0.3813  0.1423  0.1263
  818SOL    HW1 2453   0.916   1.443   0.413 -0.5561 -0.6728  0.6863
  818SOL    HW2 2454   1.006   1.308   0.395 -2.0009  2.2757  0.9164
  819SOL     OW 2455   1.790   1.174   2.612 -0.1405  0.3826 -0.5177
  819SOL    HW1 2456   1.771   1.154   2.517 -1.2592  2.0444  1.5012
  819SOL    HW2 2457   1.715   1.131   2.665  0.8152 -0.1367 -1.4106
  820SOL     OW 2458   0.385   1.299   3.088 -0.0687 -0.1891  0.0541
  820SOL    HW1 2459   0.372   1.373   0.057 -0.7119 -1.0027  1.1459
  820SOL    HW2 2460   0.349   1.211   0.020 -0.8125  0.5830 -0.5627
  821SOL     OW 2461   0.471   3.051   0.765  0.2842  0.0079 -0.4427
  821SOL    HW1 2462   0.549   3.015   0.709  0.2156  0.9828  0.4228
  821SOL    HW2 2463   0.422   2.975   0.814  0.9250 -0.3292 -2.0279
  822SOL     OW 2464   2.225   2.348   2.708  0.2610  0.1945 -0.2502
  822SOL    HW1 2465   2.329   2.325   2.712  1.7474  0.4123  0.9355
  822SOL    HW2 2466   2.193   2.368   2.806 -0.8847  1.2104  0.2298
  823SOL     OW 2467   1.274   0.462   2.632 -0.0223 -0.4198 -0.1741
  823SOL    HW1 2468   1.310   0.374   2.597 -1.3973 -2.6458 -0.9940
  823SOL    HW2 2469   1.235   0.454   2.726  0.1608  0.8768  2.0450
  824SOL     OW 2470   2.561   2.700   1.514 -0.3312  0.1959 -0.2627
  824SOL    HW1 2471   2.607   2.710   1.608  1.3399 -1.0191 -0.2097
  824SOL    HW2 2472   2.618   2.746   1.445 -0.7080 -3.7126  2.2918
  825SOL     OW 2473   0.210   2.342   2.582 -0.0026  0.2544 -0.0830
  825SOL    HW1 2474   0.296   2.355   2.526  0.5761  1.1141  0.6761
  825SOL    HW2 2475   0.234   2.296   2.672 -0.4725  0.7977  1.9481
  826SOL     OW 2476   1.676   0.237   0.017  0.0368 -0.3534  0.9046
  826SOL    HW1 2477   1.638   0.312   0.080 -1.4923  1.0358  0.2408
  826SOL    HW2 2478   1.677   0.273   3.026 -1.3081  0.5309 -2.1924
  827SOL     OW 2479   3.101   1.701   1.724 -0.1693  0.6332 -0.0189
  827SOL    HW1 2480   0.021   1.608   1.762  2.9241 -1.6450 -0.5344
  827SOL    HW2 2481   3.075   1.768   1.800  1.9156  0.1529  2.2980
  828SOL     OW 2482   0.171   3.093   1.205  0.4060  0.2882 -0.1924
  828SOL    HW1 2483   0.206   0.067   1.266  2.0297  1.3495 -0.3424
  828SOL    HW2 2484   0.074   3.072   1.228 -0.6424 -1.8006  0.8909
  829SOL     OW 2485   0.818   2.404   2.390  0.6366  0.0006  0.3303
  829SOL    HW1 2486   0.792   2.328   2.451 -0.2166  3.8099 -0.9540
  829SOL    HW2 2487   0.762   2.484   2.412  1.2941 -0.0430 -2.0311
  830SOL     OW 2488   0.785   0.885   1.741  0.0808 -0.0941 -0.3749
  830SOL    HW1 2489   0.807   0.841   1.652  1.0751  0.9729  1.2634
  830SOL    HW2 2490   0.707   0.835   1.782 -1.3562  0.9289  0.1903
  831SOL     OW 2491   2.657   1.904   2.832  0.4256  0.4976 -0.5700
  831SOL    HW1 2492   2.714   1.873   2.755 -0.8041  3.3292 -0.6621
  831SOL    HW2 2493   2.660   1.837   2.907  1.0197 -0.2487 -1.4852
  832SOL     OW 2494   1.413   2.570   2.959 -0.0182  0.4245  0.0255
  832SOL    HW1 2495   1.464   2.554   3.047  1.8556  0.1390  4.3375
  832SOL    HW2 2496   1.475   2.601   2.886  1.8988  1.6740 -1.5236
  833SOL     OW 2497   0.553   0.445   1.973  0.8256 -0.4973 -0.0667
  833SOL    HW1 2498   0.632   0.468   1.915  0.2768  0.8507  0.6785
  833SOL    HW2 2499   0.573   0.483   2.068 -0.0835  0.6967  2.5183
  834SOL     OW 2500   0.127   0.776   1.190  0.5631  0.3919  0.5954
  834SOL    HW1 2501   0.215   0.728   1.207  0.9038 -1.4008 -0.8139
  834SOL    HW2 2502   0.062   0.715   1.236  1.8697  0.0102  0.6571
  835SOL     OW 2503   2.530   0.453   0.359 -0.3649  0.4878 -0.5420
  835SOL    HW1 2504   2.497   0.445   0.264  3.2865 -0.3788  2.7909
  835SOL    HW2 2505   2.526   0.547   0.392  1.2188 -1.3492  0.3909
  836SOL     OW 2506   0.985   2.359   0.394  0.0063  0.0972 -0.6604
  836SOL    HW1 2507   1.017   2.272   0.440  0.0406 -2.3971  2.4326
  836SOL    HW2 2508   1.053   2.381   0.323  0.0591 -1.8453 -0.9497
  837SOL     OW 2509   1.827   1.805   0.319 -0.3813  0.2550  0.1721
  837SOL    HW1 2510   1.905   1.757   0.269  1.5669 -0.6506 -1.0827
  837SOL    HW2 2511   1.770   1.732   0.357  1.0864 -1.7764 -0.8549
  838SOL     OW 2512   1.890   0.873   2.396 -0.2027 -0.0519  0.1600
  838SOL    HW1 2513   1.928   0.809   2.324 -0.9190 -0.7612  0.0176
  838SOL    HW2 2514   1.854   0.961   2.353 -0.2906  1.5873  0.2416
  839SOL     OW 2515   0.934   1.572   2.556  0.3229  0.4516  0.3957
  839SOL    HW1 2516   0.972   1.511   2.486  0.6097 -1.0145 -0.6999
  839SOL    HW2 2517   0.949   1.668   2.528 -1.4525 -1.4898  1.0243
  840SOL     OW 2518   0.969   1.328   0.059  0.0194  0.4662  0.2204
  840SOL    HW1 2519   0.986   1.247   0.122  0.4433  0.7962 -0.8511
  840SOL    HW2 2520   0.913   1.301   3.084 -0.1306 -2.5951 -2.9270
  841SOL     OW 2521   1.438   2.337   0.172 -0.5867  0.0917  0.0609
  841SOL    HW1 2522   1.486   2.299   0.256  0.4700 -0.7623 -0.0635
  841SOL    HW2 2523   1.505   2.393   0.114  1.0362 -0.1122  1.0621
  842SOL     OW 2524   0.179   0.734   0.155  0.0144 -0.1052  0.1882
  842SOL    HW1 2525   0.270   0.694   0.123  0.6390  1.2615  1.1576
  842SOL    HW2 2526   0.163   0.742   0.252  1.5896 -0.7928 -3.8248
  843SOL     OW 2527   0.693   0.397   0.980 -0.0978  0.3181 -0.1269
  843SOL    HW1 2528   0.671   0.311   0.931 -0.9943 -0.2215 -2.5013
  843SOL    HW2 2529   0.793   0.403   0.982 -0.1391  0.7491 -0.7604
  844SOL     OW 2530   2.130   2.610   2.374  0.0273  0.1643  0.0836
  844SOL    HW1 2531   2.140   2.507   2.399  0.2673 -0.9917  0.1232
  844SOL    HW2 2532   2.106   2.623   2.278  3.1326  1.5259  0.3514
  845SOL     OW 2533   0.073   2.457   1.745 -0.0093 -0.3840 -0.1023
  845SOL    HW1 2534   0.015   2.472   1.668  0.4036 -1.0423  1.6747
  845SOL    HW2 2535   0.113   2.546   1.776 -0.0214 -1.1239 -0.4029
  846SOL     OW 2536   1.947   1.456   2.381  0.5124 -0.1559 -0.0111
  846SOL    HW1 2537   1.874   1.465   2.455 -1.4529 -0.9282 -1.0505
  846SOL    HW2 2538   1.905   1.422   2.292  0.4507 -0.2265 -0.9932
  847SOL     OW 2539   0.095   0.667   2.048 -0.1597 -0.2241  0.0505
  847SOL    HW1 2540   0.062   0.668   1.954  1.4348 -0.2970  1.0272
  847SOL    HW2 2541   0.137   0.751   2.076  2.1872 -0.0628  1.2189
  848SOL     OW 2542   2.508   2.791   2.864 -0.1262  0.2859 -0.5546
  848SOL    HW1 2543   2.589   2.838   2.896 -1.3787 -1.5619  1.3717
  848SOL    HW2 2544   2.487   2.822   2.767  1.9843 -1.7226 -1.3872
  849SOL     OW 2545   0.390   2.817   0.506 -0.2090 -0.0550  0.3406
  849SOL    HW1 2546   0.475   2.866   0.516 -4.4528 -0.3579  3.3979
  849SOL    HW2 2547   0.320   2.861   0.566  1.7075  0.3244  1.3831
  850SOL     OW 2548   0.762   2.369   0.537  0.0828  0.2068 -0.6641
  850SOL    HW1 2549   0.844   2.371   0.475  1.3876  1.3618  0.2941
  850SOL    HW2 2550   0.799   2.381   0.633  0.9972 -1.7779  1.3401
  851SOL     OW 2551   1.688   0.555   2.666  0.3101 -0.0073  0.5244
  851SOL    HW1 2552   1.654   0.625   2.599  1.3126  0.1413 -0.1630
  851SOL    HW2 2553   1.776   0.521   2.628  1.0306 -0.3743  1.2873
  852SOL     OW 2554   1.614   2.611   2.747  0.0571  0.7352  0.0068
  852SOL    HW1 2555   1.644   2.518   2.718 -0.5130  1.2922  0.1127
  852SOL    HW2 2556   1.688   2.682   2.735 -1.5979  2.1473  1.8820
  853SOL     OW 2557   2.994   2.516   0.199 -0.7966  0.5488 -0.3834
  853SOL    HW1 2558   3.064   2.543   0.134 -0.3556  1.0479 -0.3383
  853SOL    HW2 2559   2.900   2.544   0.179  1.3903  0.0558 -3.3604
  854SOL     OW 2560   1.491   0.528   2.290  0.3942  0.1782  0.5592
  854SOL    HW1 2561   1.396   0.545   2.250 -1.4949 -0.2645 -0.0877
  854SOL    HW2 2562   1.524   0.606   2.351  4.2176  3.0581  2.6300
  855SOL     OW 2563   0.351   2.555   0.460 -0.1122 -0.0029  0.0531
  855SOL    HW1 2564   0.351   2.501   0.546  1.2551  0.9876  2.0429
  855SOL    HW2 2565   0.371   2.652   0.484 -0.0094 -0.3499  2.3700
  856SOL     OW 2566   0.287   2.723   2.588 -0.6842  0.1672 -0.4781
  856SOL    HW1 2567   0.380   2.760   2.585  0.0535  0.3509  1.9838
  856SOL    HW2 2568   0.267   2.689   2.496  0.1281 -1.1413  0.6713
  857SOL     OW 2569   0.988   2.964   1.647 -0.1656 -0.1314 -0.2273
  857SOL    HW1 2570   1.009   2.864   1.636 -0.6066  0.2332 -0.6773
  857SOL    HW2 2571   0.896   2.984   1.613  1.0885 -0.8176  0.7280
  858SOL     OW 2572   3.014   1.824   1.507 -0.3130  0.6598  0.3330
  858SOL    HW1 2573   3.062   1.772   1.581 -1.0118  0.6530 -2.0668
  858SOL    HW2 2574   2.923   1.783   1.491  0.3969  1.4944  0.4594
  859SOL     OW 2575   1.981   2.401   2.072  0.0328  0.3760 -0.3736
  859SOL    HW1 2576   1.971   2.471   2.001  1.0725  0.8024 -0.7389
  859SOL    HW2 2577   1.891   2.394   2.118 -1.0827 -0.8093 -0.4896
  860SOL     OW 2578   1.327   0.507   0.578  0.1789  0.0562  0.0280
  860SOL    HW1 2579   1.313   0.487   0.677  1.2482  0.7127 -2.0187
  860SOL    HW2 2580   1.255   0.454   0.526 -1.5744  0.3904  0.2852
  861SOL     OW 2581   2.859   0.549   1.053 -0.2416 -0.1932 -0.2163
  861SOL    HW1 2582   2.809   0.474   1.004 -1.4839 -0.6721  1.3394
  861SOL    HW2 2583   2.953   0.568   1.017 -2.5888  1.7957  2.0983
  862SOL     OW 2584   1.688   0.613   2.064 -0.6673  0.5163  0.0421
  862SOL    HW1 2585   1.637   0.554   2.128 -0.4674  0.7286 -1.9481
  862SOL    HW2 2586   1.713   0.561   1.982 -0.4735  1.3596  2.6137
  863SOL     OW 2587   0.609   0.672   0.956  0.0515 -0.4478 -0.4393
  863SOL    HW1 2588   0.661   0.585   0.946  1.6461 -3.4226  1.5004
  863SOL    HW2 2589   0.616   0.711   1.055 -1.0272  0.4384  0.1116
  864SOL     OW 2590   3.085   2.776   2.048 -0.0375  0.4903 -0.3392
  864SOL    HW1 2591   3.078   2.721   2.134  0.3708 -0.7789  1.0319
  864SOL    HW2 2592   3.087   2.873   2.074  1.1277 -1.1301  1.0967
  865SOL     OW 2593   1.068   1.225   2.497 -0.1371 -0.2725 -0.2017
  865SOL    HW1 2594   1.078   1.169   2.411  4.2201 -2.2138  1.0307
  865SOL    HW2 2595   0.975   1.259   2.511 -0.2738  0.9648  0.9305
  866SOL     OW 2596   2.963   2.902   0.174 -0.0887 -0.9003  0.5123
  866SOL    HW1 2597   3.008   2.967   0.240  1.2513  1.9416  0.0047
  866SOL    HW2 2598   3.035   2.860   0.112  2.0301  1.0748 -1.9111
  867SOL     OW 2599   2.929   2.759   2.971 -0.3584  0.1787  0.3456
  867SOL    HW1 2600   2.900   2.663   2.937  0.6700 -0.6590  0.6438
  867SOL    HW2 2601   3.014   2.759   3.027 -1.8183 -0.0690  0.8511
  868SOL     OW 2602   1.525   1.087   2.999 -0.4493  0.1814 -0.2027
  868SOL    HW1 2603   1.624   1.069   3.025  3.8255 -0.9746  2.5047
  868SOL    HW2 2604   1.478   1.152   3.058 -1.2831 -1.9502 -3.3785
  869SOL     OW 2605   2.943   1.993   0.634 -0.0297 -0.0612 -0.8257
  869SOL    HW1 2606   2.896   2.057   0.569 -1.7662  0.2626 -2.7498
  869SOL    HW2 2607   2.997   1.921   0.592  0.4777  2.5265 -1.7451
  870SOL     OW 2608   2.039   2.040   0.542  0.2773  0.6152  0.4234
  870SOL    HW1 2609   2.052   1.967   0.604  2.6911  1.0724 -1.8733
  870SOL    HW2 2610   2.127   2.082   0.515 -2.7133 -0.0784 -1.0111
  871SOL     OW 2611   0.557   1.030   1.107 -0.0847 -0.3501 -0.0351
  871SOL    HW1 2612   0.483   0.998   1.038  0.7018  1.8264 -0.4294
  871SOL    HW2 2613   0.599   1.117   1.079  0.1973 -0.3835  0.6752
  872SOL     OW 2614   1.430   1.763   1.826 -0.2805 -0.2813 -0.3714
  872SOL    HW1 2615   1.375   1.835   1.868  1.9469 -1.0305 -0.7614
  872SOL    HW2 2616   1.530   1.782   1.837  1.6515 -2.2887  1.1028
  873SOL     OW 2617   0.705   2.320   2.161  0.0854  0.1946  0.2205
  873SOL    HW1 2618   0.767   2.342   2.238  0.5223  1.9751  0.0564
  873SOL    HW2 2619   0.671   2.403   2.113 -2.3194 -2.2701  0.7510
  874SOL     OW 2620   0.994   2.927   1.141  0.0518  0.7182 -0.8964
  874SOL    HW1 2621   0.974   2.908   1.045  0.3294  2.1369  3.5019
  874SOL    HW2 2622   0.909   2.897   1.193 -1.2344 -2.7213 -3.1336
  875SOL     OW 2623   0.012   0.237   1.015  0.1429  0.5406  0.4082
  875SOL    HW1 2624   0.033   0.141   0.984  0.2522  1.3807 -1.1433
  875SOL    HW2 2625   3.071   0.284   0.934 -1.2572 -1.5575 -1.3173
  876SOL     OW 2626   0.623   0.833   0.174 -0.0115 -0.1780 -0.3092
  876SOL    HW1 2627   0.619   0.874   0.267  1.2104  1.5861  0.1559
  876SOL    HW2 2628   0.716   0.803   0.151  1.5222  1.1958  0.7496
  877SOL     OW 2629   3.003   0.640   1.287  0.2790 -0.5957 -0.1812
  877SOL    HW1 2630   2.945   0.609   1.210  2.5574 -0.0165  1.1783
  877SOL    HW2 2631   3.014   0.564   1.354  0.5082 -0.0100 -0.1307
  878SOL     OW 2632   2.557   2.445   0.537 -0.5914 -0.0637 -0.0196
  878SOL    HW1 2633   2.471   2.405   0.580  0.1930 -0.4936  0.8243
  878SOL    HW2 2634   2.603   2.518   0.593  0.1243  2.2903  0.3926
  879SOL     OW 2635   2.520   1.208   1.221 -0.1945  0.2565 -0.3436
  879SOL    HW1 2636   2.598   1.174   1.163  2.9379 -1.6176 -0.5858
  879SOL    HW2 2637   2.476   1.291   1.181 -0.8842  3.0891 -3.3281
  880SOL     OW 2638   1.704   2.706   1.208  0.6251  0.2060 -0.3397
  880SOL    HW1 2639   1.730   2.747   1.119  1.8805  1.5436 -1.0268
  880SOL    HW2 2640   1.607   2.673   1.211 -1.1252  1.1174 -0.5185
  881SOL     OW 2641   0.833   2.239   0.179 -0.2352  0.0052  0.0803
  881SOL    HW1 2642   0.889   2.285   0.252 -0.5437  0.6007  1.1855
  881SOL    HW2 2643   0.751   2.290   0.159  1.0373 -0.1582  1.4583
  882SOL     OW 2644   1.796   0.585   1.269 -0.4481 -0.1950 -0.1499
  882SOL    HW1 2645   1.804   0.516   1.193 -1.2906  0.3360 -0.7865
  882SOL    HW2 2646   1.811   0.545   1.359  2.1901  0.8244 -0.2008
  883SOL     OW 2647   1.451   0.510   1.754 -0.0175 -0.7439 -0.1076
  883SOL    HW1 2648   1.465   0.546   1.657  2.3114  0.8165 -0.9133
  883SOL    HW2 2649   1.529   0.531   1.814  1.0821  2.6483 -0.8105
  884SOL     OW 2650   2.655   0.598   0.065 -0.0808  0.0625  0.9680
  884SOL    HW1 2651   2.582   0.537   0.102 -0.7337 -2.4685 -0.0528
  884SOL    HW2 2652   2.687   0.661   0.135  0.4153  0.1571 -2.0870
  885SOL     OW 2653   1.106   1.537   3.086  0.0608 -0.1942 -0.3851
  885SOL    HW1 2654   1.063   1.555   2.996 -2.5862  1.6723  1.4921
  885SOL    HW2 2655   1.048   1.468   0.031  0.5520 -1.5180 -0.7164
  886SOL     OW 2656   1.762   1.487   2.573  0.3201  0.1326 -0.8217
  886SOL    HW1 2657   1.750   1.538   2.663 -1.6201 -0.2221 -0.9911
  886SOL    HW2 2658   1.743   1.388   2.583 -0.8288  0.2069  0.2751
  887SOL     OW 2659   1.581   0.226   1.534 -0.1170 -0.4536  0.3850
  887SOL    HW1 2660   1.525   0.149   1.494  0.7787  1.5409 -0.1749
  887SOL    HW2 2661   1.590   0.217   1.634  1.7305 -1.6336 -0.7457
  888SOL     OW 2662   2.624   0.573   2.055  0.0609  0.0877 -0.3519
  888SOL    HW1 2663   2.661   0.486   2.020  0.0371  0.5084 -0.5455
  888SOL    HW2 2664   2.653   0.580   2.148 -1.7383  0.0440  0.4784
  889SOL     OW 2665   0.212   2.488   1.041 -0.1484  0.1455  1.1991
  889SOL    HW1 2666   0.114   2.507   1.015 -1.1914 -1.8956  0.2503
  889SOL    HW2 2667   0.276   2.528   0.973  0.7168 -0.2661  0.2761
  890SOL     OW 2668   2.495   2.400   0.264  0.1260  0.0680 -0.1538
  890SOL    HW1 2669   2.420   2.446   0.217  1.4546 -0.0888 -0.2103
  890SOL    HW2 2670   2.524   2.456   0.341 -0.7588 -0.0540  1.0502
  891SOL     OW 2671   0.801   1.679   2.879  0.0232 -0.0847 -0.1801
  891SOL    HW1 2672   0.884   1.639   2.849 -1.3399 -0.8024 -0.7355
  891SOL    HW2 2673   0.807   1.685   2.985 -0.7573  0.7946  3.1154
  892SOL     OW 2674   0.065   3.075   0.956  0.5345  0.4894 -0.4798
  892SOL    HW1 2675   0.114   3.078   1.043 -1.3508 -0.0586 -4.0487
  892SOL    HW2 2676   3.090   3.013   0.958  0.8062  0.5488  1.9573
  893SOL     OW 2677   1.092   0.095   1.500  0.3108  0.0511 -0.2119
  893SOL    HW1 2678   1.051   0.021   1.560  1.9001 -1.1870 -0.5892
  893SOL    HW2 2679   1.019   0.165   1.462 -3.4573  2.9064  1.7511
  894SOL     OW 2680   2.600   0.527   0.785  0.0908 -0.2738  0.1645
  894SOL    HW1 2681   2.518   0.527   0.845 -0.2135  0.8981 -0.7653
  894SOL    HW2 2682   2.615   0.621   0.743  0.3439  1.0721 -1.1640
  895SOL     OW 2683   2.213   2.269   2.069  0.4523 -0.1656  0.3745
  895SOL    HW1 2684   2.271   2.297   2.152 -1.4144  0.3566  1.2045
  895SOL    HW2 2685   2.129   2.322   2.067  2.7649  0.7563 -0.6697
  896SOL     OW 2686   1.327   0.153   1.870 -0.4452 -0.4791 -0.3099
  896SOL    HW1 2687   1.297   0.224   1.802 -0.8319 -1.0959  0.3165
  896SOL    HW2 2688   1.309   0.061   1.838 -2.9529  0.4230 -0.1771
  897SOL     OW 2689   0.727   1.737   1.818 -0.2763  0.5528  0.0844
  897SOL    HW1 2690   0.696   1.833   1.822 -0.1972  0.7720  0.9992
  897SOL    HW2 2691   0.768   1.719   1.903 -1.6309  3.7017 -4.7848
  898SOL     OW 2692   2.257   2.653   1.912  0.1066 -0.4570 -0.0445
  898SOL    HW1 2693   2.328   2.710   1.863  0.2937 -0.1290 -2.4511
  898SOL    HW2 2694   2.297   2.599   1.987 -0.2181  2.1025 -0.0907
  899SOL     OW 2695   1.052   0.806   1.256 -0.0670 -0.0569  0.8416
  899SOL    HW1 2696   1.107   0.880   1.296 -2.5600  0.8276 -1.9830
  899SOL    HW2 2697   1.005   0.853   1.176 -1.1259 -0.1235  1.7025
  900SOL     OW 2698   1.722   2.296   2.969  0.2225  0.0777  0.0604
  900SOL    HW1 2699   1.684   2.201   2.966  0.1237 -0.8272 -1.4569
  900SOL    HW2 2700   1.712   2.338   2.877 -0.6942  0.0525 -0.1658
  901SOL     OW 2701   0.748   2.208   2.567 -0.0323  0.1375 -0.8018
  901SOL    HW1 2702   0.711   2.218   2.659 -0.0675 -4.3073  0.8463
  901SOL    HW2 2703   0.730   2.113   2.530 -1.6282 -1.9908  0.0180
  902SOL     OW 2704   2.226   1.272   0.086  0.4572  0.0014 -0.0161
  902SOL    HW1 2705   2.313   1.326   0.069 -0.8159  1.9275  0.5959
  902SOL    HW2 2706   2.228   1.244   0.184  0.4477  0.5316 -1.2223
  903SOL     OW 2707   1.966   0.755   0.364 -0.0166 -0.1344  0.3233
  903SOL    HW1 2708   1.922   0.843   0.336 -0.1291  0.2879 -1.5456
  903SOL    HW2 2709   1.909   0.677   0.325  0.7575 -1.3591  1.8216
  904SOL     OW 2710   0.672   1.065   0.036  0.0497 -0.1299  0.0183
  904SOL    HW1 2711   0.642   0.970   0.067 -3.5264 -1.3363  2.6396
  904SOL    HW2 2712   0.692   1.120   0.117  0.9335 -4.0559 -2.5257
  905SOL     OW 2713   2.380   0.113   1.063  0.4020  0.5774  0.2428
  905SOL    HW1 2714   2.331   0.052   1.127 -0.6688  2.3390  0.5317
  905SOL    HW2 2715   2.333   0.206   1.063 -1.0521  1.0574  0.2993
  906SOL     OW 2716   2.587   2.335   1.188  0.5325 -0.3359  0.3687
  906SOL    HW1 2717   2.540   2.269   1.253 -4.5648  0.2233  1.2648
  906SOL    HW2 2718   2.530   2.419   1.172 -0.3921  1.3771  0.5574
  907SOL     OW 2719   1.139   0.669   0.337 -0.4383  0.1938 -0.0299
  907SOL    HW1 2720   1.050   0.628   0.365 -1.3919  0.7515  3.1779
  907SOL    HW2 2721   1.170   0.748   0.393 -0.6276  0.4623  1.3919
  908SOL     OW 2722   2.326   2.883   1.512  0.3337 -0.2413 -0.8321
  908SOL    HW1 2723   2.403   2.815   1.507 -1.6789  0.1783 -1.6213
  908SOL    HW2 2724   2.277   2.879   1.422 -0.5401  2.4268  3.2964
  909SOL     OW 2725   2.716   0.757   1.643 -0.2031  0.0633 -0.1584
  909SOL    HW1 2726   2.760   0.741   1.554  0.1940  0.1096  0.3937
  909SOL    HW2 2727   2.696   0.855   1.654  0.6427 -1.7208  0.5147
  910SOL     OW 2728   1.627   2.834   2.358 -0.0819 -0.7679 -1.1025
  910SOL    HW1 2729   1.631   2.818   2.260 -2.9481 -2.3656 -1.2958
  910SOL    HW2 2730   1.594   2.932   2.377 -1.8603  0.1751  1.4976
  911SOL     OW 2731   2.360   0.270   2.243 -0.2209 -0.4457  0.1487
  911SOL    HW1 2732   2.373   0.336   2.163  0.9947  1.6090 -1.4466
  911SOL    HW2 2733   2.392   0.318   2.329 -1.9476  2.9437 -1.1424
  912SOL     OW 2734   2.750   1.258   1.541  0.6517 -0.1379  0.6181
  912SOL    HW1 2735   2.822   1.326   1.547  1.4781  1.8400  0.3623
  912SOL    HW2 2736   2.710   1.261   1.449 -0.0567  0.7399 -1.1545
  913SOL     OW 2737   2.534   1.860   1.122 -0.2149  0.7486 -0.5815
  913SOL    HW1 2738   2.591   1.840   1.205  0.3452 -1.7697 -0.1880
  913SOL    HW2 2739   2.569   1.948   1.082  1.2308 -0.6812 -2.3960
  914SOL     OW 2740   1.963   1.257   1.293 -0.0573 -0.1255 -0.3721
  914SOL    HW1 2741   2.059   1.270   1.324  0.5501 -0.0133 -1.3788
  914SOL    HW2 2742   1.914   1.187   1.344  4.2320  1.6822 -1.3456
  915SOL     OW 2743   0.899   1.101   1.436 -0.2650 -0.4544 -0.0013
  915SOL    HW1 2744   0.913   1.122   1.535  0.6144 -2.0671 -1.9253
  915SOL    HW2 2745   0.830   1.029   1.422  0.0794  4.0282 -2.3070
  916SOL     OW 2746   2.381   2.488   1.476 -0.4218 -0.5809  0.3524
  916SOL    HW1 2747   2.402   2.398   1.510 -2.3517  1.6011  0.9459
  916SOL    HW2 2748   2.458   2.553   1.491  0.1207 -0.5112  0.7645
  917SOL     OW 2749   2.491   2.142   0.267  0.2247 -0.2113  0.1139
  917SOL    HW1 2750   2.439   2.117   0.179 -1.5984 -2.0604 -1.0140
  917SOL    HW2 2751   2.506   2.244   0.276  0.6001  0.1446 -1.2252
  918SOL     OW 2752   1.831   2.775   2.742  0.2529 -0.3818  0.1312
  918SOL    HW1 2753   1.875   2.764   2.650 -0.2420 -1.5534 -0.1673
  918SOL    HW2 2754   1.879   2.714   2.803  0.0053  0.4302 -1.6275
  919SOL     OW 2755   1.560   2.047   1.542 -0.2233 -0.8488  0.5165
  919SOL    HW1 2756   1.481   2.074   1.605  1.8938 -0.5115  0.5169
  919SOL    HW2 2757   1.593   1.956   1.573 -0.4943  0.6699  0.8278
  920SOL     OW 2758   2.848   0.083   2.622  0.3930 -0.4055 -0.0228
  920SOL    HW1 2759   2.765   0.023   2.607 -2.8457 -0.8240  2.5312
  920SOL    HW2 2760   2.824   0.183   2.599 -1.1948  2.2606 -1.5989
  921SOL     OW 2761   2.766   0.343   1.980 -0.4869 -0.1221 -0.6503
  921SOL    HW1 2762   2.856   0.298   1.971 -1.9891  1.5941 -0.4786
  921SOL    HW2 2763   2.702   0.276   2.018  0.2082  0.8948 -2.5283
  922SOL     OW 2764   2.077   2.026   0.251 -0.3224  0.3219 -0.2244
  922SOL    HW1 2765   2.166   2.043   0.300  0.3289  0.4555  0.9437
  922SOL    HW2 2766   2.006   1.993   0.320  0.2726 -2.1041  0.0823
  923SOL     OW 2767   0.375   2.001   0.083 -0.3125  0.3247  0.3003
  923SOL    HW1 2768   0.333   1.955   0.002  0.4332  0.7905 -0.5503
  923SOL    HW2 2769   0.431   2.082   0.050  5.6169  0.0305 -1.6848
  924SOL     OW 2770   0.740   0.488   0.170 -0.0459  0.0889 -0.2595
  924SOL    HW1 2771   0.646   0.480   0.210 -2.3069  0.1675 -0.0241
  924SOL    HW2 2772   0.759   0.581   0.132 -0.6245  1.7873  2.0778
  925SOL     OW 2773   2.419   0.734   0.928  1.1531  0.4905  0.0358
  925SOL    HW1 2774   2.385   0.821   0.886  0.4188  0.6940 -0.7433
  925SOL    HW2 2775   2.374   0.721   1.023 -1.5275 -0.8720  1.9862
  926SOL     OW 2776   2.905   0.837   0.870 -0.0184 -0.3125  0.1479
  926SOL    HW1 2777   2.821   0.827   0.923  0.8244 -2.4326 -1.7399
  926SOL    HW2 2778   2.975   0.784   0.924  0.6893 -2.9822  1.8710
  927SOL     OW 2779   3.031   1.029   2.811  0.0364 -0.5395  0.5969
  927SOL    HW1 2780   3.079   0.969   2.749 -0.9923  1.0686  0.2199
  927SOL    HW2 2781   3.076   1.124   2.801  0.6415  2.7015 -0.7973
  928SOL     OW 2782   3.080   0.399   2.508 -0.2045  0.0367 -0.3256
  928SOL    HW1 2783   3.102   0.315   2.459 -0.0877  1.4120 -0.2682
  928SOL    HW2 2784   2.985   0.398   2.545  1.0483 -0.8325 -0.4309
  929SOL     OW 2785   2.957   2.782   1.150  0.0425 -0.3384 -0.5894
  929SOL    HW1 2786   2.941   2.805   1.050  1.0494 -1.5225 -1.1258
  929SOL    HW2 2787   2.928   2.687   1.180 -0.8547 -3.4135 -2.6528
  930SOL     OW 2788   2.093   1.460   1.711 -0.3120 -0.0415  0.2242
  930SOL    HW1 2789   2.155   1.525   1.764  1.2917  1.9512 -0.8288
  930SOL    HW2 2790   2.103   1.481   1.610  0.6310  1.7573 -1.9754
  931SOL     OW 2791   1.502   1.511   0.552 -0.4310 -0.2398 -0.1231
  931SOL    HW1 2792   1.506   1.506   0.655  0.4049  1.7452  3.3392
  931SOL    HW2 2793   1.420   1.572   0.529 -2.7970  3.1229  0.4465
  932SOL     OW 2794   2.670   1.084   1.042  0.1605  0.1284  0.2694
  932SOL    HW1 2795   2.618   0.995   1.028 -2.8855 -2.6490 -0.7787
  932SOL    HW2 2796   2.766   1.067   1.066 -1.1755 -0.7226 -0.2038
  933SOL     OW 2797   2.426   1.488   1.214  0.0474  0.4440  0.3015
  933SOL    HW1 2798   2.332   1.521   1.199  2.2160 -0.2796 -1.6361
  933SOL    HW2 2799   2.455   1.504   1.310  0.7417  2.0230  1.3350
  934SOL     OW 2800   1.652   2.886   1.755 -0.3205 -0.1537 -0.6822
  934SOL    HW1 2801   1.690   2.822   1.822  2.0633  0.8236 -1.4254
  934SOL    HW2 2802   1.558   2.863   1.724 -0.2896  0.1903  1.2707
  935SOL     OW 2803   3.045   1.643   0.805 -0.1626 -0.1580 -0.4814
  935SOL    HW1 2804   2.944   1.642   0.822 -0.5261 -0.9605  2.1100
  935SOL    HW2 2805   3.083   1.706   0.875 -2.0584 -2.7545 -0.7836
  936SOL     OW 2806   0.242   1.264   0.451 -0.5401 -0.1025 -0.3847
  936SOL    HW1 2807   0.238   1.168   0.411 -0.4370 -1.1732  0.6938
  936SOL    HW2 2808   0.294   1.323   0.388 -0.8585  0.8225 -1.2433
  937SOL     OW 2809   2.134   2.617   1.099 -0.2498  0.0471 -0.1471
  937SOL    HW1 2810   2.041   2.644   1.070 -0.3061  0.3457 -1.0819
  937SOL    HW2 2811   2.188   2.600   1.016  2.9503 -0.5141  0.4095
  938SOL     OW 2812   2.438   2.137   0.876 -0.0113 -0.0192  0.2242
  938SOL    HW1 2813   2.390   2.136   0.965  2.1439  0.2720 -3.0957
  938SOL    HW2 2814   2.494   2.219   0.882 -0.4668  0.1894 -0.4761
  939SOL     OW 2815   0.665   2.123   0.453 -0.0374 -0.3169 -0.6092
  939SOL    HW1 2816   0.726   2.056   0.504  1.1869 -2.9801  0.6265
  939SOL    HW2 2817   0.689   2.219   0.484 -0.2035 -1.3423  0.2879
  940SOL     OW 2818   2.726   3.010   0.128  0.3591  0.1787  0.1979
  940SOL    HW1 2819   2.827   3.002   0.146  0.7943 -2.3342  1.3564
  940SOL    HW2 2820   2.688   3.093   0.170  0.1268 -0.0323  1.5695
  941SOL     OW 2821   1.056   0.171   0.076  0.1238 -0.5939 -0.2794
  941SOL    HW1 2822   1.090   0.096   0.013  0.9846 -4.7121 -1.2917
  941SOL    HW2 2823   1.118   0.254   0.058  1.4674  0.9564 -1.3229
  942SOL     OW 2824   1.274   1.565   1.414 -0.3576  0.6883 -0.6732
  942SOL    HW1 2825   1.352   1.495   1.415 -0.2611  0.1208  2.5178
  942SOL    HW2 2826   1.199   1.551   1.345 -1.9963 -1.4988 -1.8748
  943SOL     OW 2827   1.815   1.080   1.440  0.0889  0.2021 -0.3271
  943SOL    HW1 2828   1.839   1.072   1.538 -0.6483 -1.9734  1.2017
  943SOL    HW2 2829   1.820   0.986   1.398  0.0932 -1.2144 -1.6438
  944SOL     OW 2830   1.947   0.497   1.701  0.2552  0.3872 -0.2934
  944SOL    HW1 2831   1.892   0.464   1.621  0.1789 -0.7580 -0.3525
  944SOL    HW2 2832   1.990   0.590   1.693 -0.6635 -2.3495  3.1584
  945SOL     OW 2833   0.016   0.020   0.620  0.4414 -0.1198  0.7108
  945SOL    HW1 2834   3.096   0.110   0.658  2.2729 -3.9285 -1.3421
  945SOL    HW2 2835   0.029   0.021   0.520  0.0154 -1.6127 -0.5665
  946SOL     OW 2836   0.466   0.366   1.379 -0.5946  0.0942 -0.4686
  946SOL    HW1 2837   0.510   0.446   1.420  1.2136  0.1239 -0.0617
  946SOL    HW2 2838   0.473   0.386   1.278 -0.0210 -1.2336 -3.6709
  947SOL     OW 2839   0.595   0.042   0.254  0.9512  0.2887 -0.4128
  947SOL    HW1 2840   0.517   0.036   0.186 -0.7685  1.3174  0.5830
  947SOL    HW2 2841   0.667   0.100   0.222 -1.0841 -2.7348 -0.6020
  948SOL     OW 2842   2.621   1.043   1.963  0.2536  0.7876 -0.2580
  948SOL    HW1 2843   2.568   1.126   1.936  1.5036  1.8108  2.4903
  948SOL    HW2 2844   2.691   1.065   2.037  3.0651 -0.0447  1.3823
  949SOL     OW 2845   0.565   1.089   2.842  0.3324  0.0737 -0.1785
  949SOL    HW1 2846   0.623   1.091   2.929  1.3320  0.7669  3.3369
  949SOL    HW2 2847   0.613   1.104   2.757  1.3382  1.1849  0.3601
  950SOL     OW 2848   1.008   0.755   0.762  0.3822  0.5273  0.4899
  950SOL    HW1 2849   1.063   0.681   0.811  1.8467 -2.5828 -0.3708
  950SOL    HW2 2850   1.072   0.820   0.717  0.7546 -1.0752 -1.3346
  951SOL     OW 2851   1.020   2.084   2.124  0.8759 -0.2383 -0.3822
  951SOL    HW1 2852   1.100   2.128   2.082  1.0428 -3.2117  0.1300
  951SOL    HW2 2853   0.928   2.114   2.086  0.9224 -0.0374  0.7251
  952SOL     OW 2854   0.809   1.690   0.048  0.2836  0.0403  0.2687
  952SOL    HW1 2855   0.823   1.616   0.119 -0.6294 -2.6704  0.1965
  952SOL    HW2 2856   0.722   1.740   0.071 -2.7156  1.1364  0.4826
  953SOL     OW 2857   1.976   0.049   2.349 -0.0981  0.3873  0.3773
  953SOL    HW1 2858   1.900   0.017   2.288  1.8297 -1.3852  0.9060
  953SOL    HW2 2859   2.066   0.068   2.305  1.1465  0.3135  0.5307
  954SOL     OW 2860   1.325   1.291   0.637  0.2943  0.0496  0.5122
  954SOL    HW1 2861   1.380   1.343   0.576 -1.5739 -2.2038  0.9137
  954SOL    HW2 2862   1.251   1.342   0.667  1.2151 -0.8933  0.0775
  955SOL     OW 2863   0.463   2.219   2.233  0.8583 -0.2654 -0.7799
  955SOL    HW1 2864   0.544   2.255   2.197 -3.8656 -0.3602  2.4431
  955SOL    HW2 2865   0.448   2.254   2.329  1.3007 -1.3441  0.7285
  956SOL     OW 2866   1.884   0.091   1.648  0.5634  0.6008 -0.1523
  956SOL    HW1 2867   1.944   0.154   1.706  0.8748  2.4665 -0.2019
  956SOL    HW2 2868   1.786   0.111   1.674  2.3591  1.1809  0.5099
  957SOL     OW 2869   1.817   1.956   2.745  0.1980 -0.1374  0.0370
  957SOL    HW1 2870   1.769   1.873   2.716 -0.6591 -1.8838  0.5899
  957SOL    HW2 2871   1.768   1.996   2.828 -1.1091  0.1892  1.7969
  958SOL     OW 2872   1.333   2.117   1.675 -0.2772  0.6349 -0.1023
  958SOL    HW1 2873   1.339   2.079   1.770 -1.3621  2.1602  2.7181
  958SOL    HW2 2874   1.233   2.125   1.655 -0.1620 -2.9946 -1.9673
  959SOL     OW 2875   1.990   2.130   2.964 -0.3707  0.2790 -0.5610
  959SOL    HW1 2876   2.036   2.166   3.047  0.4111  2.3983 -1.2889
  959SOL    HW2 2877   1.935   2.205   2.926  0.5452  0.3385 -0.0507
  960SOL     OW 2878   3.045   0.041   2.794  0.4600  0.0497 -0.0309
  960SOL    HW1 2879   0.023   0.029   2.743 -2.2307 -1.6022 -0.3414
  960SOL    HW2 2880   2.968   0.052   2.730 -1.0429 -0.7917  2.0165
  961SOL     OW 2881   0.985   0.902   2.770 -0.1387 -0.1536 -0.4917
  961SOL    HW1 2882   1.011   0.996   2.804 -0.4616  2.9197  1.2202
  961SOL    HW2 2883   1.033   0.882   2.683 -0.1222 -0.6896 -1.4765
  962SOL     OW 2884   1.253   1.450   2.772 -0.3164  0.5389 -0.1255
  962SOL    HW1 2885   1.280   1.366   2.718  2.5593  0.2639 -1.9970
  962SOL    HW2 2886   1.341   1.482   2.817  1.2602 -2.1756 -0.4832
  963SOL     OW 2887   2.387   2.145   0.008 -0.2359  0.0908 -0.2065
  963SOL    HW1 2888   2.479   2.145   3.058  1.9131 -0.9435 -1.7321
  963SOL    HW2 2889   2.314   2.200   3.070 -1.5297  1.8606  1.9201
  964SOL     OW 2890   1.397   2.624   1.166  0.1387  0.4982 -0.3338
  964SOL    HW1 2891   1.347   2.678   1.098 -2.1716 -1.7656  2.6111
  964SOL    HW2 2892   1.348   2.536   1.185 -0.9309  0.5349 -0.5140
  965SOL     OW 2893   1.135   1.551   0.619 -0.4562 -0.2231 -0.1840
  965SOL    HW1 2894   1.200   1.626   0.601 -1.3201 -2.6563  0.8509
  965SOL    HW2 2895   1.113   1.543   0.717 -2.9677  2.8635 -2.1644
  966SOL     OW 2896   0.045   1.229   0.028 -0.1295 -0.1384 -0.0796
  966SOL    HW1 2897   0.035   1.323   0.068  0.2847  2.6261  0.5557
  966SOL    HW2 2898   3.080   1.169   0.058  5.4419  1.5211 -0.7498
  967SOL     OW 2899   1.817   0.171   2.035 -0.3006 -0.3033  0.1055
  967SOL    HW1 2900   1.799   0.225   2.123  1.4352  2.8120  0.9034
  967SOL    HW2 2901   1.900   0.212   1.992  2.8621  0.8676  1.2744
  968SOL     OW 2902   1.772   0.936   0.601 -0.0933  0.1413  0.3865
  968SOL    HW1 2903   1.817   0.943   0.511  2.0852  0.5094 -2.8594
  968SOL    HW2 2904   1.679   0.901   0.593  1.5003 -2.2480  0.2490
  969SOL     OW 2905   0.322   1.515   2.253  0.5316 -0.0372 -0.0199
  969SOL    HW1 2906   0.278   1.517   2.162 -0.6869  2.0252 -1.5181
  969SOL    HW2 2907   0.421   1.496   2.237  1.4122  0.2695 -0.3413
  970SOL     OW 2908   2.329   1.147   1.006  0.3236  0.1179 -0.0231
  970SOL    HW1 2909   2.403   1.176   1.067 -1.8533 -0.6614 -1.4477
  970SOL    HW2 2910   2.367   1.091   0.929  0.6864  2.5866 -0.9750
  971SOL     OW 2911   0.266   0.161   1.674  0.3414  0.1459  0.3905
  971SOL    HW1 2912   0.235   0.182   1.578  0.0570 -3.5409  0.3582
  971SOL    HW2 2913   0.226   0.071   1.701 -2.2942 -3.0401  0.2065
  972SOL     OW 2914   0.494   0.818   2.805 -0.4556 -0.1767 -0.3958
  972SOL    HW1 2915   0.558   0.785   2.733  1.8122  1.2070  0.8340
  972SOL    HW2 2916   0.509   0.914   2.839  2.9886  0.9322  2.2883
  973SOL     OW 2917   0.238   1.001   1.108 -0.0276 -0.2394  0.4293
  973SOL    HW1 2918   0.208   1.055   1.187  1.4973  0.2482 -0.0248
  973SOL    HW2 2919   0.191   0.909   1.113  0.3291  2.8904 -0.3702
  974SOL     OW 2920   2.120   0.685   2.029  0.5233  0.2607  0.0524
  974SOL    HW1 2921   2.088   0.689   1.931  0.7179  1.4474  1.3026
  974SOL    HW2 2922   2.181   0.764   2.057 -2.5092  1.9454 -0.1918
  975SOL     OW 2923   2.388   0.138   0.075  0.7663 -0.2851  0.1278
  975SOL    HW1 2924   2.286   0.133   0.081 -0.4910 -2.7390 -1.1272
  975SOL    HW2 2925   2.433   0.113   0.164 -3.4242  1.1437 -0.3598
  976SOL     OW 2926   0.146   1.279   1.619 -0.5341  0.1437  0.1064
  976SOL    HW1 2927   0.228   1.301   1.557 -2.5662  0.2129 -0.9630
  976SOL    HW2 2928   0.158   1.195   1.673  0.8496  1.8086 -1.0098
  977SOL     OW 2929   1.181   2.694   0.299  0.6363 -0.7868  0.2129
  977SOL    HW1 2930   1.209   2.767   0.238 -0.7577 -2.6576 -1.5055
  977SOL    HW2 2931   1.087   2.718   0.339 -1.8274 -0.2879  0.5429
  978SOL     OW 2932   0.671   1.462   0.190  0.3445  0.2973  0.2590
  978SOL    HW1 2933   0.668   1.460   0.090 -0.0654 -0.0559  0.9362
  978SOL    HW2 2934   0.698   1.372   0.226  0.1607  2.3365  0.8042
  979SOL     OW 2935   1.502   1.724   1.285  0.2657  0.0818 -0.2942
  979SOL    HW1 2936   1.456   1.764   1.371  0.1618  1.5791  1.3038
  979SOL    HW2 2937   1.496   1.622   1.279 -2.2876  0.9409 -1.0566
  980SOL     OW 2938   0.494   1.612   1.731 -0.7805  0.4666 -0.2251
  980SOL    HW1 2939   0.579   1.653   1.761 -3.0468 -1.1094 -0.5230
  980SOL    HW2 2940   0.492   1.601   1.628  0.5094  1.5191  0.8384
  981SOL     OW 2941   3.096   1.470   0.213 -0.2001  0.4810 -0.2160
  981SOL    HW1 2942   3.100   1.427   0.308  0.1906 -1.0309  1.3676
  981SOL    HW2 2943   0.051   1.552   0.194  2.1616  0.4018  0.3246
  982SOL     OW 2944   2.382   2.810   2.211  0.1522  0.4504 -0.3610
  982SOL    HW1 2945   2.395   2.869   2.293  2.8790 -0.1654  0.9206
  982SOL    HW2 2946   2.456   2.829   2.143  1.6899 -0.2766 -0.4012
  983SOL     OW 2947   1.406   0.511   1.210 -0.1459  0.6885 -0.1099
  983SOL    HW1 2948   1.402   0.607   1.179 -0.3545 -0.4378 -0.4001
  983SOL    HW2 2949   1.451   0.458   1.139  0.7438  2.3920  2.0139
  984SOL     OW 2950   0.944   3.047   2.726  0.5430  0.3577 -0.3526
  984SOL    HW1 2951   0.999   0.026   2.715  2.7753 -2.8057 -0.8234
  984SOL    HW2 2952   0.919   3.008   2.636  0.5841 -0.4438  1.1782
  985SOL     OW 2953   1.852   2.193   1.600 -0.1980 -0.2827  0.0606
  985SOL    HW1 2954   1.809   2.257   1.540 -0.2584 -0.6590 -0.6801
  985SOL    HW2 2955   1.865   2.103   1.557 -0.2768  0.9318 -0.5164
  986SOL     OW 2956   2.549   0.104   2.442  0.6878  0.7194 -0.1775
  986SOL    HW1 2957   2.501   0.193   2.429 -1.0366  2.9737 -0.0620
  986SOL    HW2 2958   2.598   0.100   2.527 -2.0914  0.6479 -3.8144
  987SOL     OW 2959   2.720   0.610   2.327 -0.3481  0.2613 -0.5605
  987SOL    HW1 2960   2.807   0.653   2.350 -0.9800 -1.3697  0.2252
  987SOL    HW2 2961   2.647   0.669   2.363 -1.7542  2.5303  0.2419
  988SOL     OW 2962   2.483   0.760   2.699 -0.5309 -0.1696 -0.1341
  988SOL    HW1 2963   2.408   0.718   2.754  0.6139 -1.4898 -0.5519
  988SOL    HW2 2964   2.464   0.856   2.689  0.5088 -2.4101 -0.0076
  989SOL     OW 2965   2.294   1.850   1.993 -0.4891  0.0724 -0.4646
  989SOL    HW1 2966   2.269   1.832   2.089  1.1522  1.0662  0.3327
  989SOL    HW2 2967   2.346   1.938   1.996  1.3455 -0.9609 -1.9835
  990SOL     OW 2968   0.306   1.065   2.771 -0.0397 -0.1708  0.2419
  990SOL    HW1 2969   0.271   1.149   2.732 -0.8287 -0.6777  1.8166
  990SOL    HW2 2970   0.408   1.083   2.784  2.4635  0.4443  1.4475
  991SOL     OW 2971   0.468   2.031   2.536 -0.2687  0.0655  0.4820
  991SOL    HW1 2972   0.392   2.017   2.467 -2.2386  0.3475  2.7134
  991SOL    HW2 2973   0.425   2.044   2.627 -0.6343 -0.4392  0.5009
  992SOL     OW 2974   2.756   1.834   1.953  0.2782  0.3610  0.5605
  992SOL    HW1 2975   2.713   1.915   1.911 -0.3012 -1.9346 -1.9395
  992SOL    HW2 2976   2.717   1.808   2.043 -0.3346  1.0785 -3.0926
  993SOL     OW 2977   0.271   0.106   0.785 -0.3093 -0.3210 -0.3560
  993SOL    HW1 2978   0.354   0.047   0.771 -0.3835 -0.1419 -1.2715
  993SOL    HW2 2979   0.199   0.046   0.811  3.4839  1.2873  0.0003
  994SOL     OW 2980   0.165   1.681   1.427  0.0705  0.3841  0.6951
  994SOL    HW1 2981   0.208   1.677   1.520 -0.8853  1.3458  2.5888
  994SOL    HW2 2982   0.135   1.779   1.410 -0.4784  0.6801  1.7990
  995SOL     OW 2983   1.937   1.675   2.935  0.1301 -0.1803  0.1157
  995SOL    HW1 2984   1.966   1.611   3.009 -0.3538  0.0027 -1.0616
  995SOL    HW2 2985   2.000   1.756   2.937 -0.3564  0.7190  0.2692
  996SOL     OW 2986   1.919   1.281   2.836 -0.4242 -0.0456  0.3795
  996SOL    HW1 2987   1.973   1.369   2.829  1.2429 -2.5041 -0.5051
  996SOL    HW2 2988   1.878   1.245   2.750 -0.6218 -2.1973  1.6417
  997SOL     OW 2989   1.770   0.921   1.753 -0.2122 -0.1547 -0.0698
  997SOL    HW1 2990   1.771   0.986   1.827  0.6889 -4.6229 -2.8299
  997SOL    HW2 2991   1.676   0.914   1.721  2.0059  1.4070  1.6076
  998SOL     OW 2992   2.097   2.012   1.007  0.9946 -0.1469 -0.0147
  998SOL    HW1 2993   2.140   1.922   0.999  0.9472  0.1311  1.4658
  998SOL    HW2 2994   2.137   2.069   1.080  0.4082 -0.0921 -1.7988
  999SOL     OW 2995   2.284   2.392   0.583 -0.2646  0.3046  0.9307
  999SOL    HW1 2996   2.231   2.348   0.655  0.2784 -0.6796  0.1932
  999SOL    HW2 2997   2.299   2.489   0.609  2.2665  0.2523 -2.4710
 1000SOL     OW 2998   0.720   3.010   2.889  0.3278 -0.8891 -0.2012
 1000SOL    HW1 2999   0.715   3.086   2.956 -0.4959 -0.3782 -0.4206
 1000SOL    HW2 3000   0.811   3.006   2.843  0.4250 -0.3718 -1.2464
   3.10429   3.10429   3.10429
