1000 SPC/Fw water molecules t=  17.00000 step= 17000
 3000
    1SOL     OW    1   1.750   2.663   0.293  0.6800 -0.2896  0.1039
    1SOL    HW1    2   1.720   2.748   0.245  2.5275 -1.8207  0.5414
    1SOL    HW2    3   1.737   2.581   0.233  1.6777  2.7631 -1.8706
    2SOL     OW    4   1.153   0.698   2.084 -0.4789  0.0990  0.3893
    2SOL    HW1    5   1.245   0.652   2.089 -0.0675 -2.1001 -1.0577
    2SOL    HW2    6   1.115   0.723   2.175 -2.9659  0.1483 -0.2574
    3SOL     OW    7   0.737   0.095   2.732 -0.0034 -0.1314  0.0542
    3SOL    HW1    8   0.724   0.144   2.648 -0.1354  1.7743  1.5114
    3SOL    HW2    9   0.667   0.024   2.750  4.2614 -0.5156  1.2397
    4SOL     OW   10   1.517   1.740   2.982  0.1994  0.1389 -0.6070
    4SOL    HW1   11   1.459   1.670   2.939  1.3514  1.3122 -0.7491
    4SOL    HW2   12   1.492   1.833   2.956 -0.0224 -3.1459  1.1021
    5SOL     OW   13   0.701   0.953   2.260 -0.5561 -0.3182  0.2246
    5SOL    HW1   14   0.774   0.885   2.272  2.5540  0.8970  4.1639
    5SOL    HW2   15   0.711   1.023   2.334  1.1706 -2.9985  0.7790
    6SOL     OW   16   2.022   0.854   2.616  0.4177  0.0056  0.3414
    6SOL    HW1   17   2.003   0.779   2.549 -0.2329  0.0971 -2.1405
    6SOL    HW2   18   2.109   0.894   2.589 -0.1361  0.9223 -2.2537
    7SOL     OW   19   0.495   0.948   1.121 -0.0558  0.4966 -0.0217
    7SOL    HW1   20   0.445   0.874   1.071 -1.1279  0.2547  1.5944
    7SOL    HW2   21   0.461   1.043   1.088 -0.3364  1.6262 -2.4386
    8SOL     OW   22   2.054   2.804   1.837 -0.1832  0.5119 -0.0527
    8SOL    HW1   23   1.996   2.780   1.753  1.8163 -0.1737 -2.1578
    8SOL    HW2   24   2.009   2.857   1.909  2.4315 -1.2805  0.4920
    9SOL     OW   25   0.114   2.490   0.625 -0.2652  0.0106 -0.2050
    9SOL    HW1   26   0.091   2.414   0.558 -1.5161 -2.4640 -0.3073
    9SOL    HW2   27   0.184   2.555   0.592 -1.4161  1.0699  0.0442
   10SOL     OW   28   2.922   2.336   2.464 -0.0922 -0.3575  0.0402
   10SOL    HW1   29   2.962   2.401   2.399 -2.2255  0.1742 -1.7493
   10SOL    HW2   30   2.936   2.245   2.432 -1.9700  0.4269  2.6253
   11SOL     OW   31   0.423   1.511   0.091  0.4488  0.3564 -0.2180
   11SOL    HW1   32   0.440   1.485   0.190  0.1437  2.1036 -0.0323
   11SOL    HW2   33   0.441   1.605   0.080 -0.8664 -4.4543  1.8475
   12SOL     OW   34   2.084   2.682   0.749 -0.3313  0.0749 -0.5997
   12SOL    HW1   35   1.991   2.647   0.777 -1.7621  1.8644 -0.2003
   12SOL    HW2   36   2.095   2.776   0.779  1.1098 -2.5294 -1.9815
   13SOL     OW   37   0.130   0.401   2.759 -0.1737  1.4040  0.1332
   13SOL    HW1   38   0.184   0.379   2.840  0.0022 -0.1548  1.9600
   13SOL    HW2   39   0.120   0.503   2.744 -2.8803  0.2968  1.4150
   14SOL     OW   40   1.250   1.076   1.771  0.3532 -0.4801 -0.1952
   14SOL    HW1   41   1.176   1.022   1.813  2.4537  2.0937  0.4421
   14SOL    HW2   42   1.222   1.178   1.770  1.1314  0.0722  2.2376
   15SOL     OW   43   0.630   1.395   2.006  0.3938 -0.0585 -0.0385
   15SOL    HW1   44   0.590   1.456   1.934  0.8631 -1.5009  0.1683
   15SOL    HW2   45   0.587   1.303   2.017  0.3650 -0.2497 -0.2332
   16SOL     OW   46   1.519   1.126   2.890 -0.1786 -0.1533 -0.3798
   16SOL    HW1   47   1.514   1.222   2.851  2.6428 -1.2883 -2.1507
   16SOL    HW2   48   1.610   1.113   2.930 -0.3107  1.5373  0.0478
   17SOL     OW   49   3.041   2.491   2.238  0.5999  0.3641 -0.4183
   17SOL    HW1   50   3.018   2.583   2.208  1.1862 -2.1658 -1.6922
   17SOL    HW2   51   3.037   2.425   2.160  0.9600  0.2796  1.0785
   18SOL     OW   52   1.440   1.335   0.703  0.0363 -0.4531  0.3779
   18SOL    HW1   53   1.480   1.256   0.650  1.4308  1.0281  0.3955
   18SOL    HW2   54   1.369   1.296   0.765  0.7437  1.1189  0.3880
   19SOL     OW   55   0.304   1.246   1.932  0.5252 -0.0752  0.5795
   19SOL    HW1   56   0.376   1.212   2.000 -0.3075  0.2833  0.5279
   19SOL    HW2   57   0.251   1.173   1.893  3.5084  0.7437  0.5455
   20SOL     OW   58   2.080   2.300   2.929 -0.3316  0.2923 -0.3200
   20SOL    HW1   59   2.114   2.306   3.022 -1.5867 -3.1171 -2.2077
   20SOL    HW2   60   2.075   2.390   2.886 -3.0093  1.3562  0.1851
   21SOL     OW   61   1.936   1.834   1.104 -0.4342  0.9506 -0.1536
   21SOL    HW1   62   1.915   1.847   1.206 -1.4672 -1.5194  1.4727
   21SOL    HW2   63   2.005   1.763   1.089  1.0575  0.5892  0.4580
   22SOL     OW   64   1.990   2.119   1.384  0.6926 -0.2084  0.2853
   22SOL    HW1   65   1.910   2.080   1.442 -3.0368 -2.7942 -0.8460
   22SOL    HW2   66   1.946   2.188   1.324  1.3627 -0.2768  2.4361
   23SOL     OW   67   3.058   1.145   1.570 -0.1446  0.4558 -0.4242
   23SOL    HW1   68   3.053   1.082   1.490  1.4526  0.1071 -1.2554
   23SOL    HW2   69   2.979   1.137   1.630  0.7257  0.6676  0.4449
   24SOL     OW   70   1.697   1.131   1.879 -0.5649 -0.9709  0.0201
   24SOL    HW1   71   1.630   1.094   1.811  1.6522  0.8977  2.7103
   24SOL    HW2   72   1.760   1.199   1.836  2.9981  1.5935  0.6404
   25SOL     OW   73   1.921   0.081   2.284  0.0954  0.0963 -0.1995
   25SOL    HW1   74   2.016   0.094   2.312  1.1866 -1.5358  0.8988
   25SOL    HW2   75   1.860   0.147   2.336 -1.0671 -0.8724  2.3837
   26SOL     OW   76   0.600   2.899   0.656  0.0682 -0.0362  0.1958
   26SOL    HW1   77   0.667   2.927   0.726  0.4008  3.9522 -2.2157
   26SOL    HW2   78   0.655   2.869   0.572  2.3012 -0.3356 -1.0596
   27SOL     OW   79   1.459   1.169   1.120 -0.5338 -0.1975 -0.2680
   27SOL    HW1   80   1.552   1.177   1.080  0.5497  1.8996 -3.6253
   27SOL    HW2   81   1.402   1.254   1.101 -0.7328 -1.2698 -4.0224
   28SOL     OW   82   2.211   2.406   0.958  0.0327  0.5312  0.1822
   28SOL    HW1   83   2.229   2.443   0.870 -0.4663  4.9032  4.0764
   28SOL    HW2   84   2.281   2.435   1.028 -0.2614 -1.0194  1.0493
   29SOL     OW   85   2.026   2.805   2.264 -0.7705  0.2244  0.6354
   29SOL    HW1   86   1.980   2.763   2.343  2.2306  2.3379  0.9067
   29SOL    HW2   87   2.108   2.858   2.298  1.9046  1.8503  2.7167
   30SOL     OW   88   0.064   2.747   1.915  0.0505  0.0913 -0.1278
   30SOL    HW1   89   0.023   2.803   1.837 -1.8383  0.3197  0.5362
   30SOL    HW2   90   0.150   2.791   1.950 -0.2705  0.7293  0.8510
   31SOL     OW   91   3.056   1.780   1.992  0.1092  0.3207 -0.1995
   31SOL    HW1   92   0.062   1.776   2.028 -1.6041  0.7282 -2.0756
   31SOL    HW2   93   3.053   1.801   1.892  4.3671  0.1649  0.3503
   32SOL     OW   94   1.198   2.104   2.172  0.0103  0.3794 -0.6716
   32SOL    HW1   95   1.231   2.055   2.087  0.5138 -0.0079  3.0725
   32SOL    HW2   96   1.271   2.116   2.242 -2.0247 -0.6352 -1.3273
   33SOL     OW   97   0.254   0.411   2.981 -0.1396 -0.0497 -0.5525
   33SOL    HW1   98   0.353   0.383   2.983  0.2726 -1.0971  0.0294
   33SOL    HW2   99   0.254   0.508   3.004  2.1987 -0.0622 -0.1581
   34SOL     OW  100   2.842   0.053   0.089 -0.1787  0.0095 -0.5102
   34SOL    HW1  101   2.926   0.025   0.045 -0.8573  0.3123  0.8161
   34SOL    HW2  102   2.792   0.126   0.036  1.0791  0.1636 -1.0297
   35SOL     OW  103   2.839   2.565   1.565 -0.4001  0.1698 -0.0348
   35SOL    HW1  104   2.803   2.536   1.653 -0.2634  2.1161  0.0372
   35SOL    HW2  105   2.838   2.668   1.566  1.0871  0.2422  0.3508
   36SOL     OW  106   2.237   2.949   2.377 -0.1367  0.0153 -0.0013
   36SOL    HW1  107   2.279   2.932   2.461 -1.9006 -1.0485 -1.2518
   36SOL    HW2  108   2.207   3.049   2.375 -1.1949  0.4642 -1.0469
   37SOL     OW  109   1.612   2.952   2.963 -0.5485  0.1157 -0.7839
   37SOL    HW1  110   1.662   2.870   2.931  0.7580 -0.8895  2.4780
   37SOL    HW2  111   1.529   2.957   2.908  2.5357 -2.0443  2.1916
   38SOL     OW  112   0.254   0.615   0.421 -0.2954 -0.5893 -0.4851
   38SOL    HW1  113   0.294   0.545   0.489  0.6108  1.5679  0.2896
   38SOL    HW2  114   0.267   0.702   0.462  1.5035 -0.3056  0.8202
   39SOL     OW  115   1.035   1.809   2.011 -0.0306  0.1706 -0.1441
   39SOL    HW1  116   1.093   1.728   2.038  0.0596 -0.2631  2.7561
   39SOL    HW2  117   1.091   1.881   1.968 -2.9692  2.1446  0.6044
   40SOL     OW  118   3.065   0.806   2.835 -0.1504 -0.4345 -0.0232
   40SOL    HW1  119   2.993   0.829   2.771 -0.9146  1.8705  0.3055
   40SOL    HW2  120   0.026   0.882   2.878  0.2468  1.1053 -0.3396
   41SOL     OW  121   1.205   0.533   1.776  0.2588  0.0725  0.1032
   41SOL    HW1  122   1.280   0.593   1.740  2.2713  2.4060 -5.1896
   41SOL    HW2  123   1.242   0.451   1.822 -0.0369  0.9290 -2.0817
   42SOL     OW  124   2.321   0.178   1.171 -0.6128 -0.5416 -0.2529
   42SOL    HW1  125   2.333   0.206   1.077  1.7698  0.3968  2.0085
   42SOL    HW2  126   2.311   0.264   1.232  4.2077  0.4169  2.4622
   43SOL     OW  127   1.421   0.640   1.618  0.5699 -0.2545  0.1756
   43SOL    HW1  128   1.475   0.723   1.649  1.3064  1.9941  2.1864
   43SOL    HW2  129   1.474   0.553   1.631  0.8207 -1.5973 -0.5818
   44SOL     OW  130   0.223   0.670   3.070  0.4774  0.1946 -0.1030
   44SOL    HW1  131   0.210   0.594   0.049  0.6384 -2.4371 -0.7787
   44SOL    HW2  132   0.205   0.758   0.028  0.2949 -1.9261 -0.7647
   45SOL     OW  133   0.420   1.779   1.809 -0.0148  0.1290  0.1681
   45SOL    HW1  134   0.441   1.790   1.712 -1.6760 -1.0627 -0.4357
   45SOL    HW2  135   0.428   1.681   1.827 -1.3782  2.5603 -2.3624
   46SOL     OW  136   2.294   2.672   1.921  0.4098 -0.3260  0.2730
   46SOL    HW1  137   2.313   2.709   2.018 -0.2938 -1.3725  2.1606
   46SOL    HW2  138   2.198   2.704   1.890  1.6960  3.8036  1.0609
   47SOL     OW  139   0.071   1.859   1.495  0.1735  0.2356 -0.1857
   47SOL    HW1  140   0.108   1.765   1.480 -0.1991  2.1963  0.6670
   47SOL    HW2  141   0.149   1.922   1.513  2.3185  1.5880  0.8543
   48SOL     OW  142   1.037   2.623   2.777 -0.1894 -0.0272  0.3507
   48SOL    HW1  143   1.064   2.549   2.708 -1.6027 -0.7245 -1.9343
   48SOL    HW2  144   0.957   2.589   2.835  0.0990  0.6474  1.6781
   49SOL     OW  145   2.516   1.477   1.786 -0.0109 -0.9237  0.6600
   49SOL    HW1  146   2.571   1.562   1.764 -0.3290  0.3831 -0.2962
   49SOL    HW2  147   2.526   1.441   1.880 -1.2921  1.6595  1.2341
   50SOL     OW  148   1.080   2.966   0.496  0.1278 -0.2372  1.0381
   50SOL    HW1  149   1.162   2.975   0.556 -3.0567  0.5752  1.1833
   50SOL    HW2  150   1.030   3.053   0.495  1.3950  0.5226 -1.1125
   51SOL     OW  151   1.143   0.266   1.255  0.5084 -0.5092 -0.1141
   51SOL    HW1  152   1.095   0.232   1.339 -0.8573  1.2861 -0.8198
   51SOL    HW2  153   1.244   0.255   1.264 -0.6554  1.0132 -1.0051
   52SOL     OW  154   0.614   1.015   0.435 -0.1229  0.2849 -0.5102
   52SOL    HW1  155   0.564   1.046   0.355 -1.8161 -0.4222  0.8030
   52SOL    HW2  156   0.680   1.086   0.461  1.7009 -1.7717  0.5858
   53SOL     OW  157   1.211   0.073   2.706  0.4612 -0.3931 -0.0038
   53SOL    HW1  158   1.115   0.056   2.750 -1.8695  0.0756 -1.1388
   53SOL    HW2  159   1.211   0.057   2.604  0.3827  1.5452 -0.5150
   54SOL     OW  160   2.192   0.328   2.249  0.3614  0.2987 -0.1561
   54SOL    HW1  161   2.228   0.410   2.289 -3.2276 -0.9477 -2.1894
   54SOL    HW2  162   2.135   0.342   2.166 -0.3736 -0.8219  1.1649
   55SOL     OW  163   2.896   2.387   0.199  0.3054 -1.1509 -0.0360
   55SOL    HW1  164   2.973   2.344   0.250 -0.1786  1.9511  0.9355
   55SOL    HW2  165   2.908   2.489   0.214  1.4862 -1.1349  2.9224
   56SOL     OW  166   0.690   0.150   1.797 -0.1305  0.3471 -0.3077
   56SOL    HW1  167   0.650   0.069   1.844  1.6623 -2.3169 -1.5567
   56SOL    HW2  168   0.748   0.201   1.861 -2.9024 -1.5177 -1.1849
   57SOL     OW  169   1.650   0.884   2.539 -0.4415 -0.9366 -0.0690
   57SOL    HW1  170   1.672   0.987   2.539  2.1651  2.1044 -0.0705
   57SOL    HW2  171   1.739   0.843   2.569  1.8440 -0.7564 -2.1526
   58SOL     OW  172   2.875   1.075   2.206  0.5675  0.6365  0.3093
   58SOL    HW1  173   2.861   1.101   2.109  1.7666  0.3572 -0.6579
   58SOL    HW2  174   2.863   0.973   2.215  1.3756 -0.3077  0.9718
   59SOL     OW  175   0.475   2.573   1.526  0.1934 -0.2090 -1.0994
   59SOL    HW1  176   0.530   2.651   1.565  0.8668  0.9655  1.4474
   59SOL    HW2  177   0.460   2.583   1.426  0.2175 -1.6068 -0.6898
   60SOL     OW  178   2.068   2.902   0.403 -0.3879  0.1025  0.6415
   60SOL    HW1  179   2.066   2.798   0.422  1.1277 -2.6115  1.9079
   60SOL    HW2  180   2.158   2.934   0.370 -2.4806 -0.9325  1.0719
   61SOL     OW  181   1.494   2.393   0.356 -0.2067 -0.4687 -0.5032
   61SOL    HW1  182   1.547   2.349   0.432  1.8904 -0.1644  0.8959
   61SOL    HW2  183   1.557   2.422   0.280 -2.5374 -1.4707  0.1818
   62SOL     OW  184   1.791   2.741   2.895  1.2108  0.1496 -0.3586
   62SOL    HW1  185   1.867   2.749   2.829 -3.6038 -0.3899  1.5302
   62SOL    HW2  186   1.771   2.646   2.923  0.1264  2.4902 -0.5686
   63SOL     OW  187   2.203   0.596   0.536 -0.4131 -0.1199 -0.1284
   63SOL    HW1  188   2.199   0.663   0.615 -1.2080 -0.6664 -1.6182
   63SOL    HW2  189   2.125   0.601   0.471 -1.7265  1.6396 -0.2585
   64SOL     OW  190   1.592   1.159   0.139 -0.2557  0.0478 -0.3372
   64SOL    HW1  191   1.596   1.245   0.191 -1.3090  0.8354 -1.3807
   64SOL    HW2  192   1.507   1.154   0.084 -0.5799 -1.1469  0.5461
   65SOL     OW  193   0.589   2.317   1.534 -0.0123  0.3073  0.8779
   65SOL    HW1  194   0.538   2.242   1.482 -0.8681  0.4840  1.2051
   65SOL    HW2  195   0.547   2.408   1.517  1.7806 -0.0216 -0.7271
   66SOL     OW  196   1.031   1.163   1.467 -0.0432  0.2415  0.1280
   66SOL    HW1  197   1.113   1.102   1.488 -0.7082 -0.6229  1.1580
   66SOL    HW2  198   0.980   1.190   1.551 -3.7392 -1.1427  0.0230
   67SOL     OW  199   2.295   1.937   1.783 -0.5009 -0.0618 -0.0176
   67SOL    HW1  200   2.344   1.903   1.704  0.8013  2.9450  1.4848
   67SOL    HW2  201   2.240   1.863   1.829  1.1641 -4.0591  0.8394
   68SOL     OW  202   0.866   1.543   1.651 -0.1056  0.3104  0.2764
   68SOL    HW1  203   0.791   1.485   1.618  2.0976 -0.9311 -1.1901
   68SOL    HW2  204   0.845   1.581   1.742  0.8046  0.1790  0.2031
   69SOL     OW  205   0.022   2.755   0.077 -0.0695 -0.2974  0.1782
   69SOL    HW1  206   3.071   2.698   0.156  0.2938 -1.4626  3.2064
   69SOL    HW2  207   0.076   2.836   0.106  0.7199 -2.5809  1.1385
   70SOL     OW  208   2.207   1.043   2.553 -0.3301 -0.6308  0.1444
   70SOL    HW1  209   2.120   1.082   2.517 -0.1448 -1.1222  0.9219
   70SOL    HW2  210   2.288   1.071   2.492  0.1532  2.4087 -0.6890
   71SOL     OW  211   0.934   2.068   1.047 -0.9611  0.1533  0.5747
   71SOL    HW1  212   0.939   2.020   1.137  0.9829  2.6448 -0.3238
   71SOL    HW2  213   0.846   2.063   0.999 -0.9514  0.7545 -1.1581
   72SOL     OW  214   2.648   2.042   0.506 -0.0772 -0.1706  0.4652
   72SOL    HW1  215   2.695   2.112   0.450 -2.0367  1.8529 -1.1503
   72SOL    HW2  216   2.635   2.072   0.605 -0.3653 -0.1612 -0.2759
   73SOL     OW  217   1.667   0.686   0.818 -0.1585  0.0271  0.3965
   73SOL    HW1  218   1.660   0.750   0.901  2.6476  1.2332 -1.1359
   73SOL    HW2  219   1.582   0.620   0.807 -2.8829  0.3495  1.0807
   74SOL     OW  220   2.556   2.279   2.025 -0.2052 -0.1231  0.2835
   74SOL    HW1  221   2.654   2.291   1.995 -2.5318 -0.6699 -0.1820
   74SOL    HW2  222   2.551   2.256   2.128  0.3974 -2.4745 -1.1945
   75SOL     OW  223   1.503   1.842   1.936 -0.5727  0.1907 -0.6143
   75SOL    HW1  224   1.502   1.764   2.000 -1.5240  1.3283  0.5888
   75SOL    HW2  225   1.541   1.814   1.845  1.7898  1.0430  1.4182
   76SOL     OW  226   1.463   1.362   1.345  0.4101  0.1468  0.4967
   76SOL    HW1  227   1.404   1.281   1.328  0.8557 -1.9824 -0.4435
   76SOL    HW2  228   1.504   1.399   1.260  1.1334 -0.0646  0.6358
   77SOL     OW  229   2.510   1.177   1.677  0.1584 -0.2345  0.2544
   77SOL    HW1  230   2.500   1.277   1.645  0.0062  3.0456  0.4622
   77SOL    HW2  231   2.462   1.117   1.612  2.8430  0.0913 -1.2095
   78SOL     OW  232   1.671   0.716   0.350  0.2404  0.2555  0.4047
   78SOL    HW1  233   1.632   0.762   0.266 -1.9676  1.8486 -0.9733
   78SOL    HW2  234   1.601   0.650   0.395 -1.2565 -1.8818  1.3570
   79SOL     OW  235   1.012   1.390   2.180  0.5854 -0.1210 -0.1402
   79SOL    HW1  236   1.020   1.344   2.093  2.7775  2.5187  2.1170
   79SOL    HW2  237   0.924   1.441   2.195  2.6970 -1.1869 -0.2578
   80SOL     OW  238   1.034   0.190   1.494 -0.7512 -0.6094  0.3937
   80SOL    HW1  239   1.018   0.260   1.564 -0.5597  0.7201 -0.5573
   80SOL    HW2  240   1.105   0.120   1.523 -1.1394 -1.1549 -1.8618
   81SOL     OW  241   0.563   2.334   0.179 -0.3562  0.0461  0.0503
   81SOL    HW1  242   0.629   2.405   0.148  0.5300  2.0064  0.6283
   81SOL    HW2  243   0.578   2.306   0.275 -1.7872 -0.1082  0.6288
   82SOL     OW  244   1.246   0.083   1.636 -0.4386  0.0508 -0.2588
   82SOL    HW1  245   1.184   0.097   1.720 -1.4725 -2.3780  0.0818
   82SOL    HW2  246   1.303   0.005   1.647 -0.5898  0.7551 -0.8482
   83SOL     OW  247   0.493   2.111   1.010 -0.7134 -0.4882 -0.7455
   83SOL    HW1  248   0.394   2.143   1.024 -1.5108  1.8094 -1.0803
   83SOL    HW2  249   0.515   2.090   0.916 -1.2959 -1.2304  2.0676
   84SOL     OW  250   2.917   1.587   0.913  0.0681  0.8649  1.0323
   84SOL    HW1  251   2.919   1.484   0.926  1.7012  0.1769  2.0544
   84SOL    HW2  252   2.998   1.628   0.875 -2.7460 -1.6375  1.1803
   85SOL     OW  253   2.180   2.016   1.228  0.1098 -0.0585  0.2517
   85SOL    HW1  254   2.096   2.051   1.274 -1.1613 -2.4684  1.1950
   85SOL    HW2  255   2.196   1.922   1.261  0.6012  2.8019 -0.2622
   86SOL     OW  256   1.418   2.313   1.968  0.1878 -0.1881  0.3354
   86SOL    HW1  257   1.450   2.404   1.944 -0.1585  0.4530 -3.8807
   86SOL    HW2  258   1.316   2.317   1.980 -2.6375 -0.7616 -2.8988
   87SOL     OW  259   2.276   1.681   0.685 -0.4049 -0.1305  0.1149
   87SOL    HW1  260   2.250   1.657   0.587  0.1956 -2.6408  0.8303
   87SOL    HW2  261   2.351   1.752   0.683 -2.0477 -1.1582 -1.3099
   88SOL     OW  262   0.348   3.067   0.857  0.0244  0.4028  0.0136
   88SOL    HW1  263   0.348   2.972   0.820  1.9548 -3.4181  0.3692
   88SOL    HW2  264   0.439   0.020   0.848 -0.6495 -1.9476  1.8307
   89SOL     OW  265   0.321   0.702   2.021 -0.1792  0.0075  0.6493
   89SOL    HW1  266   0.360   0.771   2.084 -0.7566 -1.9105  1.4383
   89SOL    HW2  267   0.390   0.681   1.946  0.3871 -0.8576 -2.2636
   90SOL     OW  268   2.917   1.962   0.331 -0.4187 -0.1983  0.5150
   90SOL    HW1  269   2.870   2.047   0.356 -2.8784  1.0884  1.7167
   90SOL    HW2  270   2.885   1.884   0.387 -1.1737  0.6235 -0.5965
   91SOL     OW  271   1.021   1.784   1.130  0.1424 -0.5464 -0.5997
   91SOL    HW1  272   0.928   1.823   1.125  1.6048 -0.1376 -0.8857
   91SOL    HW2  273   1.027   1.691   1.183 -0.2805 -3.5187  3.1369
   92SOL     OW  274   2.279   2.972   1.764 -0.0927  0.0395 -0.0829
   92SOL    HW1  275   2.345   2.998   1.836  1.2149 -1.7150 -3.0941
   92SOL    HW2  276   2.211   2.910   1.799 -0.6315  2.7497  3.4018
   93SOL     OW  277   0.409   1.486   2.888 -0.5560 -0.3157  0.5028
   93SOL    HW1  278   0.432   1.501   2.988  2.3424  0.2095  1.7584
   93SOL    HW2  279   0.497   1.502   2.834  1.0066 -0.7567  0.3919
   94SOL     OW  280   2.458   3.022   1.975  0.0648  0.4519  0.2405
   94SOL    HW1  281   2.481   0.027   2.014  0.7524  0.4157 -1.5121
   94SOL    HW2  282   2.533   2.986   1.920 -0.6723  0.3694 -1.0098
   95SOL     OW  283   1.861   0.282   1.885  0.4355  0.2959  0.5390
   95SOL    HW1  284   1.802   0.220   1.936  0.5505  3.1737  1.6495
   95SOL    HW2  285   1.913   0.234   1.810 -2.3116  0.1222  1.2391
   96SOL     OW  286   0.249   0.397   1.597  0.8090  0.0783  0.3911
   96SOL    HW1  287   0.280   0.390   1.494  2.2221 -2.4155 -3.0283
   96SOL    HW2  288   0.248   0.487   1.636  0.8865  0.2890  0.8945
   97SOL     OW  289   1.940   0.170   1.660 -0.0927 -0.7588  0.2360
   97SOL    HW1  290   1.940   0.225   1.573 -0.3383  0.4323  2.4687
   97SOL    HW2  291   1.862   0.100   1.668  0.1968 -0.5617  0.7024
   98SOL     OW  292   1.946   2.311   1.783  0.2757  0.2743 -0.3602
   98SOL    HW1  293   2.019   2.257   1.744  0.3997 -0.8440  2.8264
   98SOL    HW2  294   1.922   2.288   1.885 -3.9141 -0.2182  2.5762
   99SOL     OW  295   0.732   0.822   0.875  0.4783 -0.1266  0.1493
   99SOL    HW1  296   0.727   0.855   0.777 -0.9085 -1.3365 -4.7734
   99SOL    HW2  297   0.694   0.731   0.883  1.2251  1.0750  1.4531
  100SOL     OW  298   2.834   1.912   2.057 -0.1644 -0.3985 -0.4302
  100SOL    HW1  299   2.819   1.931   2.157  2.3313  0.0915 -0.9397
  100SOL    HW2  300   2.906   1.839   2.039 -1.1216  0.2377 -0.0549
  101SOL     OW  301   1.627   0.177   3.054  0.2518 -0.4298  0.2500
  101SOL    HW1  302   1.636   0.255   2.989 -1.9537 -0.5668 -0.2262
  101SOL    HW2  303   1.634   0.087   3.006 -0.0574 -0.2355 -2.2554
  102SOL     OW  304   3.067   0.059   1.170 -0.0536  0.0172 -0.4851
  102SOL    HW1  305   3.015   0.054   1.084  0.7974  0.7991  1.6670
  102SOL    HW2  306   0.085   0.047   1.153  2.3873  0.9525  0.5473
  103SOL     OW  307   0.193   2.966   2.225  0.1385 -0.0706  0.4829
  103SOL    HW1  308   0.105   2.935   2.263  0.4197 -0.9973  0.4701
  103SOL    HW2  309   0.271   2.909   2.263 -1.0006  0.1234 -0.7423
  104SOL     OW  310   0.243   2.071   1.518  0.2567 -0.4655 -0.2904
  104SOL    HW1  311   0.185   2.153   1.510  0.0180 -2.2824 -1.8772
  104SOL    HW2  312   0.325   2.086   1.463 -1.9006  1.9139  1.0085
  105SOL     OW  313   0.657   1.859   1.966  0.5608 -1.0361  0.2563
  105SOL    HW1  314   0.563   1.865   1.999  4.2572 -0.3317  0.6104
  105SOL    HW2  315   0.715   1.897   2.043  0.2441  1.7451  0.3507
  106SOL     OW  316   2.534   3.061   0.516  0.0585  0.4551  0.0027
  106SOL    HW1  317   2.520   3.038   0.614  0.6698 -1.6838 -0.8938
  106SOL    HW2  318   2.615   3.012   0.476  3.0856  0.7976 -2.1417
  107SOL     OW  319   0.718   1.260   1.103  0.1411 -0.0407 -0.2417
  107SOL    HW1  320   0.616   1.261   1.111  0.4212  1.4255  1.7432
  107SOL    HW2  321   0.756   1.167   1.098  0.0968  1.5119 -0.3175
  108SOL     OW  322   2.864   1.069   1.916  0.0934 -0.4291 -0.0117
  108SOL    HW1  323   2.765   1.069   1.943  4.2297 -1.2087 -0.5798
  108SOL    HW2  324   2.896   1.162   1.884 -1.3060 -0.1382 -3.4151
  109SOL     OW  325   1.939   2.933   3.023  0.0530  0.0143  0.4710
  109SOL    HW1  326   1.923   3.027   2.991  0.2809 -0.1158 -0.4252
  109SOL    HW2  327   1.876   2.869   2.979 -4.1595 -0.5168  0.0409
  110SOL     OW  328   0.189   2.077   2.757  0.4529 -0.6003 -0.0879
  110SOL    HW1  329   0.093   2.111   2.738 -0.3924  0.8023 -0.6326
  110SOL    HW2  330   0.185   2.017   2.838 -2.7675  1.2842 -2.3568
  111SOL     OW  331   2.624   0.856   2.333  0.1777 -0.1539  0.2072
  111SOL    HW1  332   2.706   0.846   2.276 -0.0546 -1.5496  1.9724
  111SOL    HW2  333   2.655   0.893   2.425  1.7560 -0.1940 -0.1143
  112SOL     OW  334   2.319   2.651   1.571  0.1517 -0.1401 -0.0042
  112SOL    HW1  335   2.267   2.733   1.548  0.7202 -1.1552  0.9822
  112SOL    HW2  336   2.393   2.671   1.640  1.5471  1.1888 -1.3809
  113SOL     OW  337   2.145   2.097   2.715  0.3190 -0.3392 -0.5759
  113SOL    HW1  338   2.216   2.027   2.733 -0.8461  0.5522  0.7606
  113SOL    HW2  339   2.124   2.151   2.802  0.5830  1.7518 -0.1951
  114SOL     OW  340   0.613   0.207   0.493  0.5331 -0.0873  0.0943
  114SOL    HW1  341   0.614   0.217   0.394 -0.4178 -1.8202  0.2353
  114SOL    HW2  342   0.709   0.227   0.521 -0.5269  0.9908  1.6945
  115SOL     OW  343   0.052   1.777   0.051  0.1476 -0.3045  0.1240
  115SOL    HW1  344   0.099   1.696   0.072  0.8215  3.2188  2.4035
  115SOL    HW2  345   0.092   1.833   3.062 -0.0424 -1.6636 -0.5185
  116SOL     OW  346   2.961   1.324   1.937  0.9351  0.7352 -0.4613
  116SOL    HW1  347   3.060   1.332   1.949  0.3826 -1.1025 -0.9443
  116SOL    HW2  348   2.922   1.419   1.920 -1.3562  0.7552  0.2190
  117SOL     OW  349   1.922   0.258   1.392  0.4107 -0.1782 -0.0932
  117SOL    HW1  350   2.000   0.311   1.351 -0.9629 -0.3736  1.0751
  117SOL    HW2  351   1.832   0.310   1.381  0.6095 -0.6165  0.1946
  118SOL     OW  352   2.713   2.642   2.023  0.3767 -0.0709  0.3347
  118SOL    HW1  353   2.707   2.598   1.935 -0.6870  0.7772 -0.6104
  118SOL    HW2  354   2.810   2.658   2.048  2.4082  0.5595  1.4411
  119SOL     OW  355   0.469   1.492   1.364 -0.2796 -0.5449 -0.5930
  119SOL    HW1  356   0.452   1.397   1.382 -2.7626  1.6246 -1.4471
  119SOL    HW2  357   0.559   1.524   1.408  3.6727 -1.6885 -0.7580
  120SOL     OW  358   0.473   1.497   1.777  0.4301  0.3205  0.0669
  120SOL    HW1  359   0.546   1.457   1.713 -1.6182  0.0081  0.0474
  120SOL    HW2  360   0.387   1.447   1.762  0.8673  1.6085  1.1633
  121SOL     OW  361   1.531   1.033   0.662  0.0480 -0.0688 -0.0716
  121SOL    HW1  362   1.590   0.965   0.613 -1.1662  0.1743 -0.2867
  121SOL    HW2  363   1.519   1.009   0.762 -0.5899  1.5133  2.9965
  122SOL     OW  364   2.347   2.449   2.853  0.2741 -0.0638 -0.4061
  122SOL    HW1  365   2.312   2.542   2.859  0.4647  1.6686  2.3751
  122SOL    HW2  366   2.303   2.395   2.776 -2.9747 -0.4890 -3.0915
  123SOL     OW  367   0.161   2.986   0.119 -0.4818  0.2862  0.1223
  123SOL    HW1  368   0.157   3.028   0.210 -0.1926 -3.1427 -3.3461
  123SOL    HW2  369   0.255   2.953   0.095  0.2550 -1.1443  1.3437
  124SOL     OW  370   1.629   1.423   0.219 -0.0514 -0.5060 -0.1275
  124SOL    HW1  371   1.712   1.485   0.212 -0.6771  0.2725  2.0539
  124SOL    HW2  372   1.566   1.476   0.276 -1.6500  1.9255  0.6822
  125SOL     OW  373   0.190   1.051   2.275 -0.0324 -0.2482 -0.2337
  125SOL    HW1  374   0.134   0.996   2.344  2.8278 -2.6523  2.2850
  125SOL    HW2  375   0.270   0.994   2.249  0.1283 -1.5751 -3.2152
  126SOL     OW  376   0.041   2.756   2.873 -0.3049  0.0893 -0.1985
  126SOL    HW1  377   3.045   2.708   2.846  2.7643  2.3341  1.0180
  126SOL    HW2  378   0.044   2.786   2.973 -1.3408  0.9839  1.1783
  127SOL     OW  379   2.817   1.927   0.076  0.7397  0.5362 -0.4413
  127SOL    HW1  380   2.891   1.926   0.145 -0.5160 -0.2470 -2.1024
  127SOL    HW2  381   2.746   1.987   0.112 -0.0396  1.1248  1.4120
  128SOL     OW  382   1.113   0.722   0.852 -0.1556 -0.3424  0.2557
  128SOL    HW1  383   1.050   0.646   0.846  1.2652 -1.3850  1.2731
  128SOL    HW2  384   1.063   0.804   0.892 -1.9988  0.2767  0.7861
  129SOL     OW  385   2.326   2.173   1.045  0.5118  0.5153 -0.6624
  129SOL    HW1  386   2.275   2.127   1.120 -1.5097  3.7356 -1.5696
  129SOL    HW2  387   2.262   2.227   0.992 -0.7522 -0.4903  0.9412
  130SOL     OW  388   1.939   0.756   0.257  0.4743  0.7987  0.3883
  130SOL    HW1  389   1.988   0.824   0.307  0.3620  0.5335  0.2467
  130SOL    HW2  390   1.848   0.742   0.304  0.1222 -1.1071  2.0694
  131SOL     OW  391   2.901   1.582   2.627  0.3203 -0.1039 -0.1416
  131SOL    HW1  392   2.935   1.632   2.546 -1.3716  0.6833  1.8138
  131SOL    HW2  393   2.970   1.607   2.701  1.2315  3.7112 -0.2804
  132SOL     OW  394   1.055   1.104   2.079  0.0309  0.0932 -0.5044
  132SOL    HW1  395   0.980   1.173   2.079 -0.4270  0.3154  0.2776
  132SOL    HW2  396   1.049   1.035   2.003 -0.0645  0.6532 -0.2271
  133SOL     OW  397   0.528   1.299   0.668 -0.0800  0.0091  0.3346
  133SOL    HW1  398   0.618   1.252   0.636  1.3701 -2.2577 -1.0765
  133SOL    HW2  399   0.550   1.389   0.710 -1.6302 -2.5281  1.7094
  134SOL     OW  400   3.070   1.414   2.973  0.4046  0.5084 -0.2018
  134SOL    HW1  401   0.029   1.405   3.063  1.1802  1.9405  1.1281
  134SOL    HW2  402   3.011   1.332   2.951  1.1251 -0.9748 -0.6294
  135SOL     OW  403   1.548   0.799   0.121 -0.2128  0.0551 -0.5509
  135SOL    HW1  404   1.482   0.866   0.081 -0.8689  0.8874 -0.0443
  135SOL    HW2  405   1.644   0.813   0.091  2.9432 -0.7292  2.0158
  136SOL     OW  406   2.177   1.745   1.349  0.4705  0.1938 -0.0235
  136SOL    HW1  407   2.162   1.644   1.332 -3.1619 -2.2713  1.4767
  136SOL    HW2  408   2.086   1.785   1.381 -0.4835  2.2188 -2.0012
  137SOL     OW  409   2.342   2.529   0.739 -0.2992 -0.2391 -0.1376
  137SOL    HW1  410   2.355   2.603   0.806  1.5699  1.5513  1.3595
  137SOL    HW2  411   2.266   2.548   0.673 -1.1974 -1.0586  0.4928
  138SOL     OW  412   2.234   0.424   1.808 -0.0141  0.1878  0.4878
  138SOL    HW1  413   2.169   0.429   1.885  0.2303  1.5588 -1.0076
  138SOL    HW2  414   2.230   0.329   1.767  0.1179 -0.3790  0.9546
  139SOL     OW  415   2.654   2.531   2.861  0.0226 -0.2298  0.3334
  139SOL    HW1  416   2.614   2.612   2.907  0.8704 -0.0857  1.2278
  139SOL    HW2  417   2.589   2.495   2.789 -0.2895 -2.2388 -1.0078
  140SOL     OW  418   1.554   1.999   2.293 -0.4105  0.5408 -0.1135
  140SOL    HW1  419   1.611   2.039   2.220 -0.4177  0.0061 -0.3177
  140SOL    HW2  420   1.563   1.898   2.293 -0.5022  1.9151  0.5624
  141SOL     OW  421   0.976   1.227   2.544 -0.2727  0.4356 -0.1950
  141SOL    HW1  422   1.050   1.292   2.512 -0.2415  1.5920  1.1866
  141SOL    HW2  423   1.019   1.155   2.605 -1.2641  0.7781  2.9613
  142SOL     OW  424   1.948   2.520   2.100 -0.3095  0.6097 -0.0818
  142SOL    HW1  425   2.004   2.441   2.069 -0.9534  1.3864  0.1613
  142SOL    HW2  426   1.935   2.589   2.027  1.2464  1.9380  0.1206
  143SOL     OW  427   1.242   2.335   0.426  0.7156 -0.1181 -0.5586
  143SOL    HW1  428   1.340   2.360   0.398  1.6544 -0.1868  1.2010
  143SOL    HW2  429   1.229   2.356   0.527 -1.8855  3.6181  3.3376
  144SOL     OW  430   1.000   2.702   0.566 -0.8526  0.3892  0.4986
  144SOL    HW1  431   1.018   2.801   0.566  0.7080  2.2367  1.1200
  144SOL    HW2  432   0.999   2.659   0.473 -2.3762 -1.5825 -0.7841
  145SOL     OW  433   1.621   2.595   2.586  0.1099  0.0631  0.0405
  145SOL    HW1  434   1.540   2.653   2.584  3.0386  1.6098  1.1358
  145SOL    HW2  435   1.706   2.640   2.558 -2.1998 -0.9992  2.3757
  146SOL     OW  436   2.002   2.745   0.148 -0.5021  0.0352 -0.2242
  146SOL    HW1  437   1.970   2.814   0.079  1.9144  2.3332 -2.3519
  146SOL    HW2  438   1.942   2.740   0.229  3.4550  1.6782 -1.8108
  147SOL     OW  439   0.195   1.617   1.447 -0.0698  0.0187 -0.3476
  147SOL    HW1  440   0.289   1.598   1.418 -1.8267  0.2953  0.6378
  147SOL    HW2  441   0.143   1.526   1.452 -0.3302 -0.9707  0.7364
  148SOL     OW  442   1.678   2.878   0.125  0.2980  0.2450 -0.0477
  148SOL    HW1  443   1.751   2.938   0.168  0.0423 -1.5877 -1.7732
  148SOL    HW2  444   1.650   2.923   0.039 -1.9147  0.2675  0.0363
  149SOL     OW  445   0.548   2.005   2.901  0.9348  1.1326  0.0871
  149SOL    HW1  446   0.644   2.031   2.917 -0.8760 -0.1620 -1.8530
  149SOL    HW2  447   0.483   2.073   2.941 -0.8642  1.6948  0.3402
  150SOL     OW  448   0.136   2.670   1.123 -0.0199 -0.0607 -0.2195
  150SOL    HW1  449   0.184   2.709   1.202  1.5502 -2.2952 -0.0292
  150SOL    HW2  450   0.046   2.714   1.104 -3.8112 -0.5461  1.6150
  151SOL     OW  451   0.531   1.107   3.012 -0.6850  0.5684 -0.0426
  151SOL    HW1  452   0.576   1.143   2.924 -0.9105  0.8344 -1.1499
  151SOL    HW2  453   0.557   1.173   0.001 -0.8875  3.4808  0.8964
  152SOL     OW  454   0.022   2.202   0.856  0.4476  0.0192  0.4168
  152SOL    HW1  455   3.029   2.141   0.867  1.4180  1.9250 -2.6131
  152SOL    HW2  456   3.073   2.295   0.837 -1.2075  0.0723 -1.3948
  153SOL     OW  457   1.572   2.285   0.589  0.1317  0.3301  0.2566
  153SOL    HW1  458   1.661   2.252   0.555 -1.8289 -0.3269  0.8056
  153SOL    HW2  459   1.510   2.201   0.604 -1.0856 -0.8269  1.7028
  154SOL     OW  460   0.597   2.997   1.510  0.2853  0.2202 -0.3232
  154SOL    HW1  461   0.496   2.993   1.523  0.1003  0.7797 -0.4659
  154SOL    HW2  462   0.625   0.004   1.525 -1.7905  1.0552  0.4412
  155SOL     OW  463   2.796   2.217   0.386  0.0344 -0.2923 -0.5333
  155SOL    HW1  464   2.820   2.262   0.473 -1.3253 -0.5179 -0.2746
  155SOL    HW2  465   2.804   2.280   0.302  0.6891  1.1688  0.5256
  156SOL     OW  466   2.446   2.013   0.328  0.2613 -0.0044  0.0445
  156SOL    HW1  467   2.446   2.105   0.274 -1.0751  1.6211 -0.4422
  156SOL    HW2  468   2.465   2.037   0.425  2.1441  0.0184  0.0637
  157SOL     OW  469   0.686   2.852   1.963 -0.2787  0.0384 -0.2520
  157SOL    HW1  470   0.612   2.925   1.966 -1.1347 -0.3912 -0.3649
  157SOL    HW2  471   0.647   2.766   2.007  0.3806 -0.5757 -2.4180
  158SOL     OW  472   1.317   0.674   1.087  0.0901  0.3459 -0.0374
  158SOL    HW1  473   1.331   0.707   0.994  0.7055 -0.5588 -1.2155
  158SOL    HW2  474   1.257   0.738   1.136 -2.4839  1.0689 -0.0495
  159SOL     OW  475   1.849   1.092   0.061 -0.4626 -0.5024  0.6227
  159SOL    HW1  476   1.751   1.103   0.094  0.1511 -1.6635 -0.5716
  159SOL    HW2  477   1.870   1.006   0.005  2.7711 -2.6344  0.6930
  160SOL     OW  478   1.107   1.977   0.489  0.7072 -0.0906 -0.0825
  160SOL    HW1  479   1.198   2.005   0.449  0.6760 -1.1624 -2.5471
  160SOL    HW2  480   1.058   2.065   0.521 -2.5958  1.2373 -1.5161
  161SOL     OW  481   2.464   2.027   2.579  0.3905 -0.2824  0.4048
  161SOL    HW1  482   2.550   2.014   2.629  1.4552  0.8602  0.7124
  161SOL    HW2  483   2.417   1.939   2.567 -1.2233  0.1459  2.3129
  162SOL     OW  484   0.120   2.297   1.451 -0.1995  0.1948 -0.4973
  162SOL    HW1  485   0.027   2.252   1.438 -0.6009  0.1045  0.1035
  162SOL    HW2  486   0.145   2.352   1.372 -0.7613 -0.4465  0.7776
  163SOL     OW  487   0.176   0.662   2.693 -0.0794 -0.2330 -0.2720
  163SOL    HW1  488   0.254   0.685   2.753 -0.6730 -2.0689 -0.7289
  163SOL    HW2  489   0.097   0.720   2.714  0.4511  0.9118  1.1947
  164SOL     OW  490   0.203   2.701   2.637 -0.1522 -0.9907 -0.4769
  164SOL    HW1  491   0.206   2.600   2.623 -1.6032  0.9365  0.4370
  164SOL    HW2  492   0.154   2.726   2.721  1.8832 -0.2943 -3.4185
  165SOL     OW  493   2.521   0.813   1.644  0.6909  0.1994  0.1649
  165SOL    HW1  494   2.468   0.873   1.581  0.3097 -0.1700  2.1147
  165SOL    HW2  495   2.621   0.834   1.625  1.1739  1.6889  1.1359
  166SOL     OW  496   2.111   1.478   1.299 -0.3611 -0.1543  0.1916
  166SOL    HW1  497   2.154   1.417   1.365 -0.1558  0.8609  0.9589
  166SOL    HW2  498   2.004   1.474   1.298 -2.4417  1.4260 -0.8551
  167SOL     OW  499   0.036   0.912   2.459  0.5080 -0.4507 -0.4472
  167SOL    HW1  500   3.078   0.833   2.412 -0.0858 -0.1246 -0.3891
  167SOL    HW2  501   3.052   0.960   2.516 -1.9773 -0.3563  1.1579
  168SOL     OW  502   2.209   0.298   2.617 -0.4187  0.1150  0.1978
  168SOL    HW1  503   2.106   0.290   2.616 -1.3715 -0.0102 -0.6497
  168SOL    HW2  504   2.244   0.388   2.586 -1.6933 -2.8414 -0.5036
  169SOL     OW  505   0.643   0.863   3.024  0.3218  0.0281  0.2389
  169SOL    HW1  506   0.606   0.838   0.027  0.1496  4.3407 -0.9939
  169SOL    HW2  507   0.594   0.944   2.997 -2.5645  1.9059 -0.7472
  170SOL     OW  508   0.950   1.251   1.722  0.2623  0.0336 -0.0767
  170SOL    HW1  509   0.899   1.237   1.809 -1.8941 -0.3225  2.1575
  170SOL    HW2  510   1.032   1.311   1.733  0.2275 -0.2351  1.0335
  171SOL     OW  511   1.245   2.600   1.233 -0.1624 -0.6803  0.3950
  171SOL    HW1  512   1.210   2.653   1.314 -0.4608  1.1982  0.6062
  171SOL    HW2  513   1.343   2.612   1.228 -1.9104  2.1418  0.6441
  172SOL     OW  514   0.908   2.883   1.829  0.0951  0.4181 -0.5370
  172SOL    HW1  515   0.811   2.887   1.865  0.3257  3.6943  0.6207
  172SOL    HW2  516   0.945   2.787   1.829 -2.2720 -0.0689 -1.6394
  173SOL     OW  517   0.744   2.536   0.627  0.2761  0.1811  0.5069
  173SOL    HW1  518   0.831   2.574   0.594  1.4948 -0.1620  1.4869
  173SOL    HW2  519   0.720   2.573   0.724 -1.5501  0.1907  2.1083
  174SOL     OW  520   2.114   0.113   0.496 -0.2519 -0.2624 -0.0156
  174SOL    HW1  521   2.014   0.125   0.505 -0.9893  1.8262 -1.1129
  174SOL    HW2  522   2.138   0.065   0.412  0.1982  2.3186  3.1716
  175SOL     OW  523   1.309   1.401   1.037  0.3742  0.1775  0.6610
  175SOL    HW1  524   1.363   1.482   1.000 -0.9694 -0.7390 -1.0136
  175SOL    HW2  525   1.273   1.340   0.962 -0.5935 -1.9544  0.3404
  176SOL     OW  526   1.174   1.739   0.898  0.6914 -0.7904 -0.0430
  176SOL    HW1  527   1.174   1.827   0.841  0.6680  1.9396  1.9713
  176SOL    HW2  528   1.128   1.755   0.990 -1.5217  0.4511  1.5869
  177SOL     OW  529   1.716   1.204   1.020  0.7773 -0.3136 -0.2213
  177SOL    HW1  530   1.749   1.133   0.960 -0.3163  2.3511 -1.8045
  177SOL    HW2  531   1.693   1.290   0.974  0.3298 -0.4388  1.2565
  178SOL     OW  532   2.225   1.576   0.444  0.0105  0.5176 -0.1036
  178SOL    HW1  533   2.327   1.565   0.448 -0.1762 -0.5924  0.6279
  178SOL    HW2  534   2.180   1.493   0.426  0.4657  1.3988 -1.5233
  179SOL     OW  535   1.246   3.037   0.162  0.0623 -0.3748 -0.3636
  179SOL    HW1  536   1.298   2.951   0.183  1.4130 -0.1214  0.4726
  179SOL    HW2  537   1.309   0.013   0.117 -0.7671  1.7992  0.7059
  180SOL     OW  538   1.871   1.118   1.478 -0.0894 -0.2106  0.0119
  180SOL    HW1  539   1.862   1.215   1.508  0.1480 -0.2867 -1.8983
  180SOL    HW2  540   1.871   1.114   1.374  1.4222 -0.6909  0.9469
  181SOL     OW  541   0.688   0.878   1.758 -0.0548 -0.3192  0.1102
  181SOL    HW1  542   0.780   0.849   1.729 -0.1970  0.1222 -0.5777
  181SOL    HW2  543   0.634   0.794   1.780  2.7886 -1.1994  0.1622
  182SOL     OW  544   2.908   1.065   2.655  0.6543 -0.6028 -0.0247
  182SOL    HW1  545   2.858   1.019   2.578 -0.2348 -1.6656  2.5895
  182SOL    HW2  546   2.911   1.168   2.645  0.2415  3.1900  0.9803
  183SOL     OW  547   1.488   0.355   2.157  0.5090 -0.4924  0.0847
  183SOL    HW1  548   1.576   0.383   2.192 -4.2295  0.1261  2.2599
  183SOL    HW2  549   1.419   0.428   2.182 -3.5837  1.6206 -0.0376
  184SOL     OW  550   0.694   0.507   1.225 -0.3798 -0.9317 -0.6676
  184SOL    HW1  551   0.746   0.510   1.135 -1.1251  2.4749 -1.0737
  184SOL    HW2  552   0.712   0.421   1.273 -1.0995  1.9797 -1.1694
  185SOL     OW  553   2.268   1.146   0.486 -0.7408  0.4295  0.8235
  185SOL    HW1  554   2.363   1.174   0.462  0.3289  2.1153 -0.4051
  185SOL    HW2  555   2.207   1.221   0.454  0.4431 -1.2805 -1.3937
  186SOL     OW  556   0.323   2.051   0.161  0.2981 -0.1002 -0.1582
  186SOL    HW1  557   0.224   2.021   0.175 -2.1334 -2.5173  0.4047
  186SOL    HW2  558   0.334   2.113   0.081  0.9490 -0.8261  1.4523
  187SOL     OW  559   1.884   2.108   2.953 -0.0335 -0.4318  0.2228
  187SOL    HW1  560   1.933   2.017   2.949  0.9003 -0.3766  1.4254
  187SOL    HW2  561   1.952   2.188   2.961  0.6470  1.9720 -0.7219
  188SOL     OW  562   1.302   2.337   1.449  0.2976  0.1089  0.0743
  188SOL    HW1  563   1.369   2.413   1.459  1.8698  0.1615 -1.7094
  188SOL    HW2  564   1.339   2.254   1.400 -2.0660 -1.0168 -0.4220
  189SOL     OW  565   2.519   1.404   2.665 -0.3830 -0.4108 -0.1571
  189SOL    HW1  566   2.417   1.395   2.673 -0.2079  0.9680 -0.0276
  189SOL    HW2  567   2.548   1.368   2.577 -2.2738  1.7300  3.2001
  190SOL     OW  568   0.862   2.732   2.254 -0.1225  0.1490 -0.2551
  190SOL    HW1  569   0.834   2.681   2.175  2.1928 -3.3961 -1.8309
  190SOL    HW2  570   0.857   2.834   2.236  0.3797  0.5084  1.1678
  191SOL     OW  571   2.590   1.134   1.242 -0.3720 -0.8628  0.0635
  191SOL    HW1  572   2.682   1.152   1.290  0.1238 -1.7190  0.8140
  191SOL    HW2  573   2.546   1.227   1.234 -1.0001  0.8920 -0.5382
  192SOL     OW  574   2.108   0.549   1.099 -0.0066  0.0913  1.0014
  192SOL    HW1  575   2.114   0.509   1.193 -1.9510  1.4755 -0.0216
  192SOL    HW2  576   2.073   0.477   1.037 -1.2967 -1.8158  2.3207
  193SOL     OW  577   0.912   0.275   0.274  0.2302  0.2429 -0.0257
  193SOL    HW1  578   0.982   0.295   0.202  0.2810  2.4215 -2.3232
  193SOL    HW2  579   0.819   0.271   0.228 -0.7395 -0.4260 -0.7724
  194SOL     OW  580   1.530   2.411   1.030  0.3047 -0.2363 -0.0054
  194SOL    HW1  581   1.531   2.464   0.941 -2.8141 -1.3617  2.0754
  194SOL    HW2  582   1.586   2.325   1.017  2.2747 -0.5477  2.1121
  195SOL     OW  583   2.703   0.995   0.568  0.1315 -0.2885 -0.1119
  195SOL    HW1  584   2.728   0.980   0.665 -0.6777 -1.7618 -0.5462
  195SOL    HW2  585   2.678   0.909   0.521  1.8256 -0.6867 -2.4851
  196SOL     OW  586   0.485   2.224   1.793  0.2994 -0.1821  0.0615
  196SOL    HW1  587   0.394   2.184   1.797  0.1525 -0.6082 -1.8793
  196SOL    HW2  588   0.499   2.276   1.707 -0.7582  0.9700  0.1928
  197SOL     OW  589   2.934   0.466   2.450 -0.0889 -0.1888 -0.0346
  197SOL    HW1  590   2.978   0.406   2.517  1.1417 -1.9379  0.7575
  197SOL    HW2  591   2.836   0.442   2.436 -2.8749  0.4622  0.3512
  198SOL     OW  592   2.111   1.333   0.380 -0.3337  0.2208 -0.1646
  198SOL    HW1  593   2.106   1.315   0.279 -0.2259 -0.0851 -1.0243
  198SOL    HW2  594   2.017   1.324   0.421  0.3158  1.8868 -1.3531
  199SOL     OW  595   2.459   0.447   1.997 -0.0875 -0.1716  0.1423
  199SOL    HW1  596   2.542   0.458   1.938  0.2966 -1.2990  0.3080
  199SOL    HW2  597   2.374   0.433   1.942 -1.3415  2.9724 -2.9280
  200SOL     OW  598   1.872   0.093   2.922 -0.7753 -0.4506 -0.1133
  200SOL    HW1  599   1.923   0.174   2.967  2.4857 -0.2290  2.4293
  200SOL    HW2  600   1.806   0.124   2.854  1.1216 -0.0034 -0.6270
  201SOL     OW  601   2.641   0.224   1.245 -0.0901 -0.2217  0.8076
  201SOL    HW1  602   2.533   0.236   1.258 -5.2218 -0.1656  0.5465
  201SOL    HW2  603   2.686   0.311   1.224  1.7579  0.7907  0.5746
  202SOL     OW  604   3.014   2.624   0.293  0.2164  0.1475  0.3880
  202SOL    HW1  605   0.028   2.626   0.313  0.2052  0.4682 -2.1002
  202SOL    HW2  606   2.959   2.652   0.373 -3.0904 -0.2155  1.2433
  203SOL     OW  607   1.761   1.840   0.552 -0.0885 -0.0173  0.0313
  203SOL    HW1  608   1.677   1.859   0.610 -0.9842 -2.4356 -2.1031
  203SOL    HW2  609   1.833   1.913   0.569 -0.2090  1.9519 -0.4968
  204SOL     OW  610   0.249   1.741   2.014 -0.2487 -0.4103 -0.3171
  204SOL    HW1  611   0.317   1.768   1.948 -2.3808 -0.5427 -1.3777
  204SOL    HW2  612   0.243   1.641   2.013  1.0214 -2.4996  0.2431
  205SOL     OW  613   0.680   0.520   0.860 -0.3556  0.3419 -0.0893
  205SOL    HW1  614   0.717   0.511   0.767 -1.3761  0.1646  1.1068
  205SOL    HW2  615   0.747   0.473   0.925  3.8538 -1.9301  2.1858
  206SOL     OW  616   0.387   0.719   2.854  0.0518 -0.3374  0.8848
  206SOL    HW1  617   0.344   0.704   2.948 -0.3396  0.3951 -1.8384
  206SOL    HW2  618   0.373   0.816   2.823 -1.1745  0.1636  0.7408
  207SOL     OW  619   1.145   2.399   1.795 -0.2976 -0.2497  0.1388
  207SOL    HW1  620   1.143   2.349   1.881 -2.5931 -1.9084 -0.6232
  207SOL    HW2  621   1.111   2.345   1.715  3.5672  1.1061  1.8360
  208SOL     OW  622   2.449   0.168   1.575 -0.0283  0.6729 -0.0366
  208SOL    HW1  623   2.533   0.134   1.623 -1.5060 -1.3294 -1.7032
  208SOL    HW2  624   2.373   0.186   1.638  1.4538 -0.5595  0.6422
  209SOL     OW  625   1.910   0.595   0.697 -0.4043 -0.7856  0.2925
  209SOL    HW1  626   1.988   0.644   0.735 -3.4869 -2.9134  2.1421
  209SOL    HW2  627   1.820   0.642   0.722 -0.7971  1.4095 -1.0342
  210SOL     OW  628   2.527   1.180   0.472 -0.1601 -0.4497  0.3496
  210SOL    HW1  629   2.599   1.119   0.500  0.7167  3.6137 -0.3769
  210SOL    HW2  630   2.519   1.259   0.541  0.3731  0.8509  1.2127
  211SOL     OW  631   1.054   0.091   0.016  0.0717 -0.8515 -0.1795
  211SOL    HW1  632   1.069   0.193   0.043  0.6065  1.3620 -0.2371
  211SOL    HW2  633   1.125   0.030   0.060  0.0181 -0.5324 -1.3877
  212SOL     OW  634   1.985   1.986   0.546  0.2635 -0.4568 -0.1144
  212SOL    HW1  635   2.027   1.963   0.639  2.3046 -0.1803  2.2542
  212SOL    HW2  636   2.042   1.938   0.475  0.6363 -1.4674 -0.6676
  213SOL     OW  637   2.408   0.004   0.149 -0.3710  0.0240 -0.1734
  213SOL    HW1  638   2.343   3.071   0.081  5.0433  0.7670  1.7044
  213SOL    HW2  639   2.430   0.106   0.146 -0.0833  1.8179 -1.2684
  214SOL     OW  640   1.156   2.347   2.060  0.2328 -0.1455  0.0837
  214SOL    HW1  641   1.143   2.430   2.115  0.8727  0.2037  2.2056
  214SOL    HW2  642   1.167   2.274   2.124  1.7496  1.5714 -3.5864
  215SOL     OW  643   0.363   1.390   0.887  0.1692 -0.1073 -0.1650
  215SOL    HW1  644   0.260   1.404   0.860 -2.0796 -1.3810  0.1611
  215SOL    HW2  645   0.420   1.348   0.811  2.4396 -1.6846  2.4343
  216SOL     OW  646   0.452   2.799   2.583 -0.4295 -0.2989  0.1893
  216SOL    HW1  647   0.528   2.739   2.620  2.9802 -1.0268 -1.2368
  216SOL    HW2  648   0.366   2.760   2.611  0.5001  1.1507  0.3564
  217SOL     OW  649   2.837   1.223   1.342  0.3006 -0.6974 -0.4477
  217SOL    HW1  650   2.877   1.311   1.319 -0.7543 -2.1326  2.8994
  217SOL    HW2  651   2.830   1.204   1.440  1.6522  0.0187 -1.1630
  218SOL     OW  652   0.862   2.137   1.481 -0.5127 -0.3522  0.3844
  218SOL    HW1  653   0.779   2.194   1.506 -0.1935  2.6802  0.3628
  218SOL    HW2  654   0.890   2.079   1.561  0.6841  1.9137 -0.1698
  219SOL     OW  655   1.868   1.570   0.274 -0.2007 -0.0674 -0.1540
  219SOL    HW1  656   1.884   1.666   0.287  0.2056  0.8917 -2.7052
  219SOL    HW2  657   1.857   1.516   0.357  0.5666 -1.3217 -2.2628
  220SOL     OW  658   2.079   0.277   2.992 -0.1286 -0.1293  0.0872
  220SOL    HW1  659   2.068   0.377   2.986 -0.1161 -1.0668  0.8270
  220SOL    HW2  660   2.172   0.245   2.972 -0.6218 -2.6922 -2.0512
  221SOL     OW  661   2.950   0.890   0.072 -0.7173 -0.3479 -0.5950
  221SOL    HW1  662   2.909   0.798   0.072 -0.7447  0.6254  0.1916
  221SOL    HW2  663   3.052   0.882   0.072  1.6576  0.8815  0.3008
  222SOL     OW  664   1.649   1.432   0.876 -0.3906 -0.1376 -0.1351
  222SOL    HW1  665   1.562   1.406   0.823  0.5597 -0.2034 -0.5157
  222SOL    HW2  666   1.716   1.482   0.817 -2.7953 -1.7048  1.6125
  223SOL     OW  667   1.046   0.403   2.799 -0.4220 -0.2799 -0.3168
  223SOL    HW1  668   1.123   0.342   2.818 -1.7574  1.9887 -3.4982
  223SOL    HW2  669   0.961   0.371   2.845 -0.7978 -1.1426  1.2847
  224SOL     OW  670   0.839   2.818   1.060  0.0936  0.0438 -0.3492
  224SOL    HW1  671   0.789   2.835   1.149 -1.8065 -0.5582 -0.1353
  224SOL    HW2  672   0.941   2.798   1.077  1.9725 -1.6177  2.4297
  225SOL     OW  673   0.846   2.978   2.162  0.2857  0.1636  0.4756
  225SOL    HW1  674   0.802   2.949   2.074  2.4221 -2.1158 -2.2866
  225SOL    HW2  675   0.795   3.052   2.210 -0.3010 -1.2823 -1.9269
  226SOL     OW  676   1.510   1.630   0.667  0.1345  0.2989  0.2622
  226SOL    HW1  677   1.538   1.719   0.708  0.5356 -1.7384  1.3861
  226SOL    HW2  678   1.456   1.577   0.739 -1.4289  0.5340  0.7494
  227SOL     OW  679   0.505   1.870   1.236 -0.0337 -0.0263  0.3012
  227SOL    HW1  680   0.430   1.882   1.167  0.9953  1.0030  2.3374
  227SOL    HW2  681   0.559   1.782   1.220 -0.3327  0.5480 -1.4904
  228SOL     OW  682   0.072   1.842   0.571 -0.0642 -0.4265 -0.1150
  228SOL    HW1  683   0.151   1.787   0.560 -0.7613  1.6250 -0.3254
  228SOL    HW2  684   0.101   1.939   0.599  0.0226 -0.0843 -0.5792
  229SOL     OW  685   2.685   0.219   3.048  0.1075 -0.0216  0.3238
  229SOL    HW1  686   2.699   0.290   2.979 -1.8819  3.8115 -1.7622
  229SOL    HW2  687   2.640   0.137   3.000  0.9436 -3.3957 -3.2561
  230SOL     OW  688   2.490   0.543   0.547 -0.0427 -0.3133 -0.0418
  230SOL    HW1  689   2.406   0.569   0.606  1.8692  0.9745  0.8027
  230SOL    HW2  690   2.473   0.477   0.477  0.3871  4.2837  2.5678
  231SOL     OW  691   1.975   1.539   0.013  0.6686  0.0904  0.1186
  231SOL    HW1  692   1.898   1.568   3.041  3.4709 -0.9904  1.8549
  231SOL    HW2  693   1.945   1.558   0.108  1.9682 -0.5045 -1.5030
  232SOL     OW  694   1.962   2.097   0.953  0.5975  0.3550  0.3504
  232SOL    HW1  695   1.970   2.022   1.024 -0.7778  0.4237  0.4813
  232SOL    HW2  696   1.985   2.062   0.865 -0.2099  1.1621  2.1056
  233SOL     OW  697   0.187   2.764   1.570 -0.3765 -0.4369  0.3773
  233SOL    HW1  698   0.207   2.667   1.594 -0.9915  0.3595 -0.9322
  233SOL    HW2  699   0.098   2.783   1.618 -1.1894  1.1320  1.1991
  234SOL     OW  700   0.729   0.250   2.504 -0.4391  0.5936  0.1314
  234SOL    HW1  701   0.823   0.279   2.523  1.1058 -0.6313 -1.3681
  234SOL    HW2  702   0.668   0.323   2.528  0.5688 -0.6743  0.3886
  235SOL     OW  703   2.583   1.094   1.916 -0.1827 -0.2026  0.2390
  235SOL    HW1  704   2.534   1.007   1.946 -2.8104 -2.1426  0.4826
  235SOL    HW2  705   2.528   1.132   1.836 -0.8891 -1.2641  0.5601
  236SOL     OW  706   1.329   2.736   1.584 -0.4765  0.1404 -0.2495
  236SOL    HW1  707   1.250   2.754   1.524  2.2761  1.1425  2.1440
  236SOL    HW2  708   1.387   2.667   1.539  0.5331  1.0450  0.1451
  237SOL     OW  709   0.629   1.546   2.756 -0.2516  0.2746 -0.0171
  237SOL    HW1  710   0.669   1.501   2.676 -1.8119 -0.6755  0.7040
  237SOL    HW2  711   0.608   1.644   2.732 -2.2419 -0.4308 -1.4725
  238SOL     OW  712   0.866   0.742   2.317  0.0449  0.1310  0.0326
  238SOL    HW1  713   0.932   0.666   2.327 -0.1729 -0.6361 -0.3874
  238SOL    HW2  714   0.777   0.719   2.363  2.4058  3.6608  0.7036
  239SOL     OW  715   0.666   1.830   2.260 -0.5324  0.3793 -0.2740
  239SOL    HW1  716   0.582   1.865   2.212 -0.2012  0.7779 -1.9128
  239SOL    HW2  717   0.727   1.911   2.275  1.6003  3.7529 -0.5088
  240SOL     OW  718   2.325   2.978   0.382  0.3090  0.3753  0.1118
  240SOL    HW1  719   2.361   3.011   0.292  1.3082 -0.2016  1.1543
  240SOL    HW2  720   2.394   3.012   0.449 -0.5627 -1.3283  1.0427
  241SOL     OW  721   0.417   1.099   0.248 -0.2388  0.1529 -0.5937
  241SOL    HW1  722   0.399   1.142   0.336 -0.5032  0.3682 -0.8260
  241SOL    HW2  723   0.349   1.123   0.177  0.8071  0.9960  1.4788
  242SOL     OW  724   1.485   2.554   1.478  0.1947  0.0707  0.0517
  242SOL    HW1  725   1.572   2.523   1.523  1.2772  3.3333  1.2372
  242SOL    HW2  726   1.513   2.595   1.390 -0.6951 -0.8631  2.4959
  243SOL     OW  727   0.713   2.428   1.847  0.3873 -0.2189  0.6266
  243SOL    HW1  728   0.713   2.425   1.747 -1.9269 -0.1908 -1.0864
  243SOL    HW2  729   0.622   2.406   1.887  2.2874 -1.4115 -2.8658
  244SOL     OW  730   2.508   0.729   2.728  0.0329 -0.0378 -0.2973
  244SOL    HW1  731   2.415   0.689   2.750 -0.5012  1.7425  0.6699
  244SOL    HW2  732   2.495   0.830   2.716  0.1216  0.2420 -3.4443
  245SOL     OW  733   1.527   2.620   1.229 -0.0860 -0.2945  0.4162
  245SOL    HW1  734   1.530   2.529   1.191 -0.8433  1.9799  1.9975
  245SOL    HW2  735   1.583   2.684   1.174 -0.9668  1.0949 -0.1235
  246SOL     OW  736   1.386   0.084   0.353  0.4835 -0.5024 -0.1081
  246SOL    HW1  737   1.316   0.028   0.308 -0.2427 -2.4930  2.5384
  246SOL    HW2  738   1.344   0.121   0.438 -0.5292 -2.5034  0.9252
  247SOL     OW  739   1.707   0.503   1.894 -0.2609 -0.1323  0.6181
  247SOL    HW1  740   1.660   0.469   1.808  1.2553 -0.9177 -1.4912
  247SOL    HW2  741   1.761   0.431   1.939  1.6120 -0.0510 -0.2791
  248SOL     OW  742   0.070   2.117   1.908  0.4625  0.5209 -0.1728
  248SOL    HW1  743   0.152   2.085   1.858 -1.8864  0.0802  1.0627
  248SOL    HW2  744   3.082   2.054   1.890  0.7141 -1.8211 -0.8148
  249SOL     OW  745   0.292   0.189   0.202 -0.1687 -0.2670 -0.1621
  249SOL    HW1  746   0.216   0.231   0.153 -2.8546  0.8697 -0.2072
  249SOL    HW2  747   0.275   0.204   0.299 -0.1341  1.4860 -1.6032
  250SOL     OW  748   2.562   0.124   2.416 -0.3149 -0.0058 -0.0754
  250SOL    HW1  749   2.558   0.138   2.512  0.1384 -2.0092 -1.4605
  250SOL    HW2  750   2.485   0.067   2.388  1.3448  0.3296 -1.3949
  251SOL     OW  751   1.493   0.534   0.057 -0.0019  0.3784 -0.6180
  251SOL    HW1  752   1.390   0.519   0.041 -1.2548  0.2159 -0.3127
  251SOL    HW2  753   1.516   0.624   0.098  3.8550  0.0722 -0.4015
  252SOL     OW  754   1.105   2.587   2.203 -0.8324  0.6129  0.4358
  252SOL    HW1  755   1.007   2.609   2.181 -0.6838  0.7941  3.9547
  252SOL    HW2  756   1.173   2.663   2.173  0.9985  0.4824 -2.0256
  253SOL     OW  757   2.613   2.537   0.596 -0.4732  0.1325  0.0395
  253SOL    HW1  758   2.526   2.517   0.649 -0.4840  1.0577 -1.2282
  253SOL    HW2  759   2.593   2.547   0.494  2.1023 -0.9963  1.1488
  254SOL     OW  760   2.237   1.152   1.197 -0.4477 -0.1196  0.2355
  254SOL    HW1  761   2.239   1.202   1.286  0.2279  1.3676  0.6515
  254SOL    HW2  762   2.266   1.221   1.125  0.6549  0.5080  0.4960
  255SOL     OW  763   0.514   2.702   1.295  0.1795 -0.1981 -0.1481
  255SOL    HW1  764   0.597   2.758   1.310 -0.7755  0.0876  1.6259
  255SOL    HW2  765   0.509   2.658   1.206  0.2594 -0.7655  1.5019
  256SOL     OW  766   1.990   1.811   1.661 -0.8022 -0.2290 -0.6343
  256SOL    HW1  767   2.017   1.745   1.590 -1.4315  0.4413  0.2114
  256SOL    HW2  768   2.067   1.818   1.728  0.6541  1.1524 -0.4548
  257SOL     OW  769   0.452   2.298   2.434 -0.3150  0.4355 -0.3174
  257SOL    HW1  770   0.548   2.322   2.410 -1.5686  0.5781 -0.6672
  257SOL    HW2  771   0.440   2.222   2.499  1.2339 -0.1656 -1.8833
  258SOL     OW  772   0.706   2.622   0.885  0.6600 -0.2508 -0.5545
  258SOL    HW1  773   0.751   2.694   0.944  2.3751  1.5913  1.8993
  258SOL    HW2  774   0.617   2.597   0.928 -0.8261 -2.3750  0.4964
  259SOL     OW  775   1.425   0.703   2.723 -0.3694  0.2841 -0.4232
  259SOL    HW1  776   1.444   0.804   2.722  0.2990  0.4823 -0.8084
  259SOL    HW2  777   1.324   0.684   2.713  1.0735 -0.3667 -1.4896
  260SOL     OW  778   0.184   0.330   1.038  0.0324 -0.3672  0.2541
  260SOL    HW1  779   0.270   0.363   0.988  1.0774 -0.0993 -1.6128
  260SOL    HW2  780   0.135   0.256   0.991  0.1461 -0.6570  1.0469
  261SOL     OW  781   0.705   0.126   2.249  0.0335  0.0765 -0.5412
  261SOL    HW1  782   0.635   0.056   2.257 -0.1446 -0.5466  0.2912
  261SOL    HW2  783   0.738   0.141   2.345 -1.0950 -0.4067  2.0958
  262SOL     OW  784   1.003   2.630   1.741  0.3246 -0.2953  0.1676
  262SOL    HW1  785   1.007   2.667   1.644 -2.2608 -0.4796 -4.1704
  262SOL    HW2  786   1.058   2.544   1.751  1.2857 -1.9438  0.5046
  263SOL     OW  787   0.866   2.069   2.944 -0.1023  0.7932  0.3760
  263SOL    HW1  788   0.927   2.131   2.892  0.9780 -0.7547  2.4562
  263SOL    HW2  789   0.870   2.091   3.042  0.8095 -0.2616  0.3414
  264SOL     OW  790   1.589   1.475   1.154 -0.7508 -0.0814  0.0065
  264SOL    HW1  791   1.552   1.505   1.064  0.4373 -3.6050  0.6925
  264SOL    HW2  792   1.688   1.445   1.142  4.2477 -1.4168  0.1420
  265SOL     OW  793   0.921   2.327   0.329 -0.0356  0.2475  0.0802
  265SOL    HW1  794   0.979   2.264   0.383 -1.7822  0.7329 -0.6112
  265SOL    HW2  795   0.962   2.418   0.317 -0.9703 -1.4146 -2.3005
  266SOL     OW  796   2.853   0.780   0.888 -0.5154  0.3242 -0.4540
  266SOL    HW1  797   2.820   0.734   0.807  0.3576 -1.0360 -1.7244
  266SOL    HW2  798   2.908   0.717   0.948  1.0778 -2.7452  0.3300
  267SOL     OW  799   0.139   1.459   0.155 -0.7457  0.6217  0.1063
  267SOL    HW1  800   0.140   1.486   0.253  1.0201 -1.0056  1.4432
  267SOL    HW2  801   0.234   1.466   0.115  2.7799 -0.7615 -2.4449
  268SOL     OW  802   1.439   0.388   0.313 -0.2051 -0.0584 -0.0300
  268SOL    HW1  803   1.474   0.426   0.229 -3.1812  0.9202 -0.3826
  268SOL    HW2  804   1.425   0.291   0.309  0.1394  1.2424  2.3479
  269SOL     OW  805   2.872   0.801   2.189  0.4401  0.0822 -0.4890
  269SOL    HW1  806   2.822   0.757   2.111  1.4791 -0.6794 -3.4967
  269SOL    HW2  807   2.942   0.738   2.231 -0.1937  0.3179 -0.5183
  270SOL     OW  808   2.953   1.143   0.444  0.1828 -0.1197  0.1648
  270SOL    HW1  809   2.893   1.065   0.467  1.5866 -0.8786  0.6549
  270SOL    HW2  810   2.934   1.160   0.346 -0.4242 -0.5451  0.0286
  271SOL     OW  811   2.760   1.523   2.130 -0.3154 -0.0874 -0.4591
  271SOL    HW1  812   2.751   1.605   2.185 -0.3286 -0.9731 -0.8066
  271SOL    HW2  813   2.825   1.543   2.053  1.0168 -1.2413 -0.5869
  272SOL     OW  814   2.349   2.390   1.878  0.4828  0.2147  0.7383
  272SOL    HW1  815   2.427   2.375   1.940 -0.7881  1.6385 -0.3860
  272SOL    HW2  816   2.351   2.481   1.839  0.1066 -2.1772  2.7697
  273SOL     OW  817   0.299   2.506   0.178 -0.1246 -0.3128 -0.1329
  273SOL    HW1  818   0.389   2.463   0.175 -0.6237  2.5135 -1.8564
  273SOL    HW2  819   0.240   2.481   0.102  2.0740 -0.4192  1.1126
  274SOL     OW  820   0.807   2.288   0.700 -0.1360 -0.3658 -0.5467
  274SOL    HW1  821   0.776   2.370   0.659 -0.3041 -2.7421  0.0553
  274SOL    HW2  822   0.828   2.308   0.796  0.4028 -1.7793 -2.9541
  275SOL     OW  823   1.692   2.000   2.738  0.0441  0.1390  0.2287
  275SOL    HW1  824   1.764   2.035   2.802  1.5743  2.6987 -0.6534
  275SOL    HW2  825   1.729   1.946   2.657 -1.0634  0.3411 -2.1778
  276SOL     OW  826   2.452   1.542   2.203  0.4246 -0.6973 -0.2066
  276SOL    HW1  827   2.475   1.467   2.142  0.8258  1.8131  1.2535
  276SOL    HW2  828   2.479   1.635   2.168  0.3667  2.4671 -0.7174
  277SOL     OW  829   2.214   0.071   0.774 -0.0714 -0.1186 -0.1280
  277SOL    HW1  830   2.146   0.079   0.697 -1.4526 -0.1518 -1.8241
  277SOL    HW2  831   2.165   0.027   0.855  2.8263  0.6358 -0.4950
  278SOL     OW  832   1.545   0.619   2.488  0.0097  0.7345 -0.1984
  278SOL    HW1  833   1.471   0.631   2.554  0.6542  0.4958 -0.2907
  278SOL    HW2  834   1.602   0.701   2.483 -5.0030 -0.4388 -1.3412
  279SOL     OW  835   1.143   2.748   1.027 -0.1726  0.1793  0.1209
  279SOL    HW1  836   1.166   2.686   1.103 -0.2096  1.9975 -2.3326
  279SOL    HW2  837   1.117   2.686   0.945 -0.8008 -1.0971 -1.8512
  280SOL     OW  838   1.248   1.218   0.844  0.0356 -0.1563  0.3109
  280SOL    HW1  839   1.245   1.149   0.770  0.3347  3.9758  1.7515
  280SOL    HW2  840   1.166   1.205   0.906  1.8289 -1.6176  0.5301
  281SOL     OW  841   2.169   1.853   0.401 -0.1022  0.0344  0.3020
  281SOL    HW1  842   2.188   1.754   0.404  0.7394  0.9589  2.0190
  281SOL    HW2  843   2.241   1.893   0.342  1.5652  0.0282 -3.0496
  282SOL     OW  844   2.889   1.368   0.594 -0.3350  0.0646 -0.2464
  282SOL    HW1  845   2.909   1.275   0.553 -0.6431 -2.4743 -0.0408
  282SOL    HW2  846   2.916   1.443   0.530 -3.7249  0.6181  0.6978
  283SOL     OW  847   1.514   3.016   2.538  0.5643  0.6205  0.3599
  283SOL    HW1  848   1.588   3.007   2.464  0.3122  1.1023 -2.1143
  283SOL    HW2  849   1.439   3.085   2.508 -1.9896  0.7199 -1.0196
  284SOL     OW  850   0.474   0.178   2.632  0.2896 -0.1843  0.5933
  284SOL    HW1  851   0.534   0.259   2.615 -0.9865 -0.3177 -3.3211
  284SOL    HW2  852   0.459   0.164   2.735  3.2420 -0.5136  2.9285
  285SOL     OW  853   1.766   1.625   2.963 -0.3609 -0.5710  0.6953
  285SOL    HW1  854   1.684   1.676   2.994 -2.5667  1.4511 -0.0180
  285SOL    HW2  855   1.795   1.657   2.870 -0.3990  0.9528 -1.5449
  286SOL     OW  856   1.735   2.012   1.452  0.0236 -0.1184 -0.6362
  286SOL    HW1  857   1.664   1.960   1.406  2.6022  0.6695  1.7424
  286SOL    HW2  858   1.710   2.034   1.551  0.4165  1.4953  0.0811
  287SOL     OW  859   1.684   3.079   1.691 -0.3976 -0.2069  0.0328
  287SOL    HW1  860   1.690   3.007   1.764 -1.5153  2.9404 -0.3278
  287SOL    HW2  861   1.632   0.075   1.717  0.3551 -1.7184  0.7943
  288SOL     OW  862   0.496   2.697   2.058  0.2824  0.5471 -0.0035
  288SOL    HW1  863   0.489   2.596   2.049  1.3638 -1.0667  1.1049
  288SOL    HW2  864   0.458   2.726   2.146  1.0688 -0.9470  0.1290
  289SOL     OW  865   0.358   1.798   0.698  0.1100  0.2526 -0.2511
  289SOL    HW1  866   0.321   1.786   0.791 -1.0024  2.2017  5.4263
  289SOL    HW2  867   0.370   1.898   0.676  0.3023 -0.3197 -0.3222
  290SOL     OW  868   0.910   2.021   1.717 -0.5244 -0.4038 -0.4978
  290SOL    HW1  869   0.811   2.001   1.728  3.1079 -1.1011  2.8320
  290SOL    HW2  870   0.945   2.081   1.791  1.3719  0.8645  0.3023
  291SOL     OW  871   1.644   0.154   0.253 -0.2712 -0.5600 -0.0724
  291SOL    HW1  872   1.566   0.098   0.294  0.6151  2.5270  0.4701
  291SOL    HW2  873   1.641   0.167   0.151  1.1182  0.8364 -0.1977
  292SOL     OW  874   0.300   0.371   1.327 -0.3999 -0.0320  0.4108
  292SOL    HW1  875   0.215   0.379   1.273 -1.1240 -0.0471 -2.6912
  292SOL    HW2  876   0.393   0.357   1.278  2.5183 -0.4609 -1.4614
  293SOL     OW  877   2.461   1.606   1.072 -0.4654  0.0895  0.2156
  293SOL    HW1  878   2.556   1.635   1.093  0.8979  0.2788 -0.8218
  293SOL    HW2  879   2.451   1.580   0.968  0.0533 -1.3932 -3.2111
  294SOL     OW  880   0.264   0.169   2.285 -0.2890 -0.3757  0.2966
  294SOL    HW1  881   0.229   0.071   2.276 -2.6350 -1.5826 -0.1432
  294SOL    HW2  882   0.298   0.189   2.377  0.3235  1.0508 -0.6191
  295SOL     OW  883   0.903   1.442   0.500  0.2079  0.4856 -0.5162
  295SOL    HW1  884   0.986   1.467   0.553 -0.7640  1.5498 -1.8763
  295SOL    HW2  885   0.938   1.423   0.405  0.2622  1.2974  0.9270
  296SOL     OW  886   2.336   1.263   0.938 -0.0204  0.0318  0.3289
  296SOL    HW1  887   2.290   1.225   0.854 -0.3833  1.0241  0.2583
  296SOL    HW2  888   2.373   1.357   0.923  0.9002  0.8448 -0.8357
  297SOL     OW  889   1.694   0.664   2.785  0.5206  0.2096  0.0603
  297SOL    HW1  890   1.747   0.746   2.822  1.5041  2.3985 -0.5061
  297SOL    HW2  891   1.595   0.680   2.772  0.9127 -0.5253  1.1313
  298SOL     OW  892   1.000   0.281   2.568 -0.1132  0.6072  0.4926
  298SOL    HW1  893   1.011   0.347   2.645  1.0345  0.7761  0.3170
  298SOL    HW2  894   1.078   0.301   2.499  3.2624  2.0817  2.5640
  299SOL     OW  895   0.923   0.604   2.006 -0.1636 -0.1662  0.1634
  299SOL    HW1  896   0.938   0.608   1.907  1.3425 -1.5436  3.1165
  299SOL    HW2  897   1.012   0.628   2.049 -1.4957 -1.5248 -1.1163
  300SOL     OW  898   2.690   0.111   1.685  0.3333 -0.1049 -0.0594
  300SOL    HW1  899   2.736   0.154   1.609  0.2353  0.9687  3.3057
  300SOL    HW2  900   2.737   0.122   1.772 -1.8486  0.7737  2.5415
  301SOL     OW  901   1.846   0.730   1.779  0.9162 -0.5889  0.2421
  301SOL    HW1  902   1.770   0.779   1.734  1.7193  1.1084  1.4626
  301SOL    HW2  903   1.819   0.645   1.834  1.7828 -4.6873  1.2881
  302SOL     OW  904   0.757   2.823   2.876 -0.4985  0.3449  0.1658
  302SOL    HW1  905   0.838   2.827   2.940  0.0869 -2.6298  0.5512
  302SOL    HW2  906   0.698   2.907   2.872 -1.8517 -0.6933  1.6948
  303SOL     OW  907   1.808   1.932   1.843 -0.0228 -0.5838 -0.0222
  303SOL    HW1  908   1.776   2.023   1.808 -2.2596  1.9475  0.7827
  303SOL    HW2  909   1.869   1.883   1.772  0.9375  0.6089 -2.2391
  304SOL     OW  910   0.454   3.081   0.520 -0.0934 -1.1557  0.0715
  304SOL    HW1  911   0.488   0.091   0.519 -0.1883 -0.1588  0.8006
  304SOL    HW2  912   0.487   3.040   0.607 -0.8245  1.4398 -0.6611
  305SOL     OW  913   1.150   0.833   0.406 -0.0749 -0.0126  0.2017
  305SOL    HW1  914   1.214   0.894   0.355  0.4041 -0.2780 -2.1770
  305SOL    HW2  915   1.181   0.800   0.497 -0.5474  0.4862 -0.4225
  306SOL     OW  916   0.641   1.282   0.108  0.3736 -0.2784 -0.2699
  306SOL    HW1  917   0.656   1.378   0.125 -1.2638  0.9300 -1.9408
  306SOL    HW2  918   0.678   1.214   0.173  1.2614  2.5128  1.5614
  307SOL     OW  919   0.550   0.633   1.829  0.4871 -0.3006  0.2663
  307SOL    HW1  920   0.585   0.637   1.929  2.3704 -2.0774 -0.0989
  307SOL    HW2  921   0.554   0.541   1.791 -0.8763  4.2363 -1.1441
  308SOL     OW  922   0.456   0.214   1.146 -0.5552  0.1712  0.5717
  308SOL    HW1  923   0.483   0.255   1.055 -1.7823 -0.0641  0.4076
  308SOL    HW2  924   0.386   0.143   1.138  0.1826 -0.3946  0.6923
  309SOL     OW  925   2.285   0.980   0.081 -0.0216  0.3159 -0.4405
  309SOL    HW1  926   2.376   0.935   0.082 -0.2922  1.5646 -1.1851
  309SOL    HW2  927   2.292   1.069   0.028  3.6008 -0.7597  2.3234
  310SOL     OW  928   1.294   1.534   3.021  0.2043  0.1778 -0.2616
  310SOL    HW1  929   1.250   1.592   2.956  1.9530 -0.7790  2.7266
  310SOL    HW2  930   1.282   1.572   0.028  1.8331  0.2827  2.1018
  311SOL     OW  931   1.793   2.560   2.321 -0.3064  0.9655  0.0657
  311SOL    HW1  932   1.842   2.515   2.236  1.8046 -1.7479  0.8293
  311SOL    HW2  933   1.696   2.582   2.297 -2.2275  0.6547  1.1721
  312SOL     OW  934   2.192   3.045   3.073  0.2678 -0.6351 -0.4207
  312SOL    HW1  935   2.222   3.052   2.977 -0.8103 -0.6745  1.0755
  312SOL    HW2  936   2.129   2.968   3.084  1.4720  1.9333 -0.8490
  313SOL     OW  937   0.605   0.686   0.388  0.1283 -0.2934  0.3458
  313SOL    HW1  938   0.624   0.635   0.477 -0.7428  0.3873 -0.9110
  313SOL    HW2  939   0.684   0.741   0.355  0.6867 -1.0632  0.1065
  314SOL     OW  940   2.656   1.492   3.048 -0.2836 -0.3237  0.0599
  314SOL    HW1  941   2.684   1.527   2.956 -1.2575  0.8788 -0.5843
  314SOL    HW2  942   2.732   1.505   0.024 -2.5280  0.2872 -1.4949
  315SOL     OW  943   1.613   0.694   2.070 -0.1196 -0.0083 -0.0862
  315SOL    HW1  944   1.659   0.622   2.011 -0.6079 -1.1046 -0.3089
  315SOL    HW2  945   1.668   0.770   2.093 -2.6582 -1.5487 -0.9997
  316SOL     OW  946   0.094   0.841   0.565 -0.1578  0.0429  0.3740
  316SOL    HW1  947   0.162   0.882   0.503  1.3301  1.6123  0.9342
  316SOL    HW2  948   0.073   0.904   0.641 -1.4136 -0.5516  0.2358
  317SOL     OW  949   0.646   0.266   0.215 -0.1172 -0.0473 -0.1727
  317SOL    HW1  950   0.594   0.348   0.187  2.3486 -0.9472  1.5887
  317SOL    HW2  951   0.619   0.178   0.173  1.2675  2.8196  2.3479
  318SOL     OW  952   2.336   2.545   1.160 -0.6081  0.2071  0.5459
  318SOL    HW1  953   2.434   2.566   1.184  2.7053 -2.5413 -1.4773
  318SOL    HW2  954   2.268   2.547   1.239 -0.4017  1.0526 -0.5532
  319SOL     OW  955   1.122   1.488   0.639 -0.3222 -0.1529  0.5280
  319SOL    HW1  956   1.182   1.413   0.598 -1.3066 -0.1180  0.6661
  319SOL    HW2  957   1.155   1.582   0.616  0.7773  1.4518  0.1070
  320SOL     OW  958   0.618   2.275   1.179 -0.0517  0.3717 -0.2614
  320SOL    HW1  959   0.583   2.211   1.105  1.4647 -0.2008 -0.7214
  320SOL    HW2  960   0.719   2.294   1.173 -0.2023  1.8411 -2.3372
  321SOL     OW  961   2.215   2.546   2.234  0.1984 -0.4648  0.4282
  321SOL    HW1  962   2.218   2.458   2.189  0.3607  4.1175 -0.9711
  321SOL    HW2  963   2.122   2.587   2.211 -1.8274  0.8700  1.5925
  322SOL     OW  964   2.765   2.293   2.671  0.5254  0.5128  0.1307
  322SOL    HW1  965   2.836   2.311   2.597 -0.3792  0.5617  1.2766
  322SOL    HW2  966   2.674   2.334   2.641 -2.0261  1.1175 -1.0185
  323SOL     OW  967   2.773   0.661   0.639  0.5122 -0.1526  0.0924
  323SOL    HW1  968   2.717   0.691   0.558  0.9136  0.2806 -0.3147
  323SOL    HW2  969   2.730   0.579   0.680 -1.4960  2.1764 -0.3535
  324SOL     OW  970   2.325   2.189   2.420 -0.2883  0.0163  0.4230
  324SOL    HW1  971   2.254   2.238   2.471  0.5982 -2.1550 -2.1690
  324SOL    HW2  972   2.370   2.110   2.469  0.4824 -0.3222 -2.3417
  325SOL     OW  973   1.159   0.576   2.441 -0.5825  0.0403 -0.1740
  325SOL    HW1  974   1.152   0.665   2.386 -0.3888  0.7509 -1.2176
  325SOL    HW2  975   1.162   0.601   2.539  0.4469 -0.4160 -1.1027
  326SOL     OW  976   2.919   2.318   0.610 -0.7896 -0.5043  0.5285
  326SOL    HW1  977   2.933   2.387   0.685  0.7509  1.9742 -0.1329
  326SOL    HW2  978   3.003   2.298   0.559 -2.3200  0.8499  0.9337
  327SOL     OW  979   2.645   3.031   2.911  0.2959 -0.1534 -0.1807
  327SOL    HW1  980   2.616   2.935   2.921 -1.1315  2.2583  1.3228
  327SOL    HW2  981   2.746   3.030   2.901 -1.0499  1.1961 -0.9885
  328SOL     OW  982   1.223   0.442   0.647 -0.0570  0.0964  0.2297
  328SOL    HW1  983   1.213   0.454   0.544 -0.5103 -1.0538  0.2266
  328SOL    HW2  984   1.296   0.505   0.684  1.1199  3.5186  0.8210
  329SOL     OW  985   2.157   0.684   1.424  0.2384 -0.9080 -0.1716
  329SOL    HW1  986   2.178   0.771   1.375 -1.0459  1.5238  1.3392
  329SOL    HW2  987   2.212   0.669   1.509 -1.5191 -0.5194 -2.1273
  330SOL     OW  988   1.066   0.365   0.879  0.5172 -0.7982 -0.2905
  330SOL    HW1  989   1.105   0.420   0.804 -1.3283 -0.0924  0.1611
  330SOL    HW2  990   1.140   0.346   0.945 -0.8049  2.3474 -0.2827
  331SOL     OW  991   0.634   2.012   1.745 -0.3068  0.2342  0.4536
  331SOL    HW1  992   0.629   1.942   1.818 -0.8275  1.0159  0.0146
  331SOL    HW2  993   0.579   2.093   1.768 -1.9851 -1.0011 -2.0161
  332SOL     OW  994   2.195   2.209   1.747  0.4879 -0.0779 -0.2455
  332SOL    HW1  995   2.254   2.269   1.804 -0.2432 -2.6385  0.4090
  332SOL    HW2  996   2.217   2.116   1.771  0.0933  2.9738 -1.8102
  333SOL     OW  997   2.961   0.055   0.894  0.1928 -0.3112  0.0876
  333SOL    HW1  998   2.875   0.069   0.951  0.5467  0.7989  2.1512
  333SOL    HW2  999   2.928   0.035   0.798 -1.2561  0.5020 -1.1064
  334SOL     OW 1000   0.061   1.669   0.779 -0.3199  0.0094 -0.7522
  334SOL    HW1 1001   0.134   1.702   0.835  0.4065  2.9863  0.4397
  334SOL    HW2 1002   0.042   1.727   0.700 -2.7190 -1.1139  1.8326
  335SOL     OW 1003   0.655   2.665   2.674  0.0465  0.4323  0.1947
  335SOL    HW1 1004   0.626   2.574   2.713  1.1263  0.5833  1.9949
  335SOL    HW2 1005   0.686   2.724   2.751  1.1194 -1.4729 -0.9826
  336SOL     OW 1006   0.202   2.519   1.892  0.3791  0.4415 -0.1065
  336SOL    HW1 1007   0.207   2.494   1.796 -0.5812  1.4409  3.1587
  336SOL    HW2 1008   0.137   2.594   1.906  0.9231 -1.5391  1.1244
  337SOL     OW 1009   0.951   1.992   2.203  0.1154  0.4472  0.1183
  337SOL    HW1 1010   0.949   1.917   2.130  0.6650  0.5898 -3.5183
  337SOL    HW2 1011   1.042   2.043   2.199 -3.8317  0.6485  0.2475
  338SOL     OW 1012   0.955   0.027   2.435  0.4177  0.3591  0.3041
  338SOL    HW1 1013   1.006   0.037   2.349  0.2961  1.6533 -0.3299
  338SOL    HW2 1014   0.951   0.109   2.493  0.7112 -0.0405 -0.1206
  339SOL     OW 1015   0.263   1.269   2.925 -0.6014 -0.2057  0.1175
  339SOL    HW1 1016   0.190   1.269   2.856  1.1534  0.9368 -0.0028
  339SOL    HW2 1017   0.316   1.355   2.926 -2.7316  1.7244 -1.4576
  340SOL     OW 1018   2.137   0.425   1.358 -0.4927  0.4606  0.1233
  340SOL    HW1 1019   2.132   0.527   1.385  0.1478  0.7400 -1.2416
  340SOL    HW2 1020   2.232   0.389   1.370  1.4155 -3.4272  1.8727
  341SOL     OW 1021   1.849   0.995   0.895 -0.0296 -0.2353  0.2854
  341SOL    HW1 1022   1.851   1.017   0.798  0.5341 -0.3016 -0.1041
  341SOL    HW2 1023   1.941   0.996   0.938  2.1452 -0.9713 -1.3626
  342SOL     OW 1024   2.228   2.731   2.854 -0.0369  0.0786 -0.4393
  342SOL    HW1 1025   2.228   2.736   2.957 -0.8919  0.2659 -1.1795
  342SOL    HW2 1026   2.158   2.788   2.806 -3.2620  1.0188 -2.5475
  343SOL     OW 1027   2.903   2.710   0.938  0.1645  0.4630 -0.2001
  343SOL    HW1 1028   2.894   2.692   1.037  1.9988  0.9541 -1.4134
  343SOL    HW2 1029   2.814   2.717   0.888  0.5914 -1.8126 -0.0433
  344SOL     OW 1030   2.399   2.747   0.888  0.0547 -0.4291 -0.0845
  344SOL    HW1 1031   2.409   2.821   0.815  1.7349 -0.4924 -3.3041
  344SOL    HW2 1032   2.340   2.777   0.973  1.1904  3.4844  1.8578
  345SOL     OW 1033   2.495   2.273   0.250 -0.2435 -0.0445  0.3164
  345SOL    HW1 1034   2.544   2.222   0.178  0.1643 -0.1100  1.6591
  345SOL    HW2 1035   2.519   2.375   0.245  2.0474  1.9258  1.1154
  346SOL     OW 1036   1.321   2.087   1.668  0.0396 -0.0144  0.3898
  346SOL    HW1 1037   1.385   2.152   1.620  0.9808  1.2649 -0.8148
  346SOL    HW2 1038   1.305   2.004   1.614 -1.4319  1.4748  1.4864
  347SOL     OW 1039   1.264   1.991   1.926 -0.1039  0.1746 -0.4642
  347SOL    HW1 1040   1.345   1.932   1.932 -0.0807 -2.5749 -0.5950
  347SOL    HW2 1041   1.263   2.046   1.837  0.6145  0.6773 -2.7448
  348SOL     OW 1042   0.857   1.653   1.328 -0.9205  0.2092 -0.3012
  348SOL    HW1 1043   0.798   1.685   1.253  1.0343 -1.1353  1.2939
  348SOL    HW2 1044   0.887   1.725   1.397  0.0574  1.2744 -1.6400
  349SOL     OW 1045   1.816   1.383   1.594 -0.0670 -0.0896  0.2346
  349SOL    HW1 1046   1.842   1.381   1.690 -1.1930 -0.9948  1.5232
  349SOL    HW2 1047   1.719   1.357   1.573 -0.1640  0.2507  0.6955
  350SOL     OW 1048   2.509   2.337   0.859 -0.4763  0.3817 -0.4345
  350SOL    HW1 1049   2.539   2.372   0.945 -0.9690 -0.4424 -3.0912
  350SOL    HW2 1050   2.452   2.406   0.812  4.3295 -1.4070 -1.8517
  351SOL     OW 1051   0.302   0.023   1.821  0.0837  0.1621  0.1694
  351SOL    HW1 1052   0.314   0.008   1.720 -1.3493  1.2502 -1.0513
  351SOL    HW2 1053   0.262   3.033   1.870  2.1081  0.5040  1.2155
  352SOL     OW 1054   0.852   1.005   0.152  1.0039  0.3844 -0.0601
  352SOL    HW1 1055   0.853   0.925   0.214  1.3161 -1.7439 -1.4082
  352SOL    HW2 1056   0.782   0.998   0.078  2.1080  3.7358 -0.4422
  353SOL     OW 1057   0.830   1.558   2.963  0.9367  0.4085  0.2480
  353SOL    HW1 1058   0.899   1.628   2.968 -2.1121 -4.2646 -0.1402
  353SOL    HW2 1059   0.788   1.551   2.870 -0.2556 -2.3737  0.0594
  354SOL     OW 1060   1.794   2.494   1.682  0.3043 -0.6444  0.3540
  354SOL    HW1 1061   1.755   2.449   1.596 -0.3624 -1.2557 -0.4736
  354SOL    HW2 1062   1.867   2.433   1.723 -0.6721 -0.1807 -0.0218
  355SOL     OW 1063   2.071   0.880   3.000 -0.5041  0.9305 -0.0288
  355SOL    HW1 1064   2.095   0.944   2.923  2.3005  1.1889  3.0800
  355SOL    HW2 1065   2.137   0.904   3.077  1.9861  0.0965  1.3006
  356SOL     OW 1066   0.469   2.131   1.378 -0.0478 -0.0858 -0.1803
  356SOL    HW1 1067   0.498   2.215   1.328 -0.0183  0.7028  2.1076
  356SOL    HW2 1068   0.499   2.050   1.320  3.5880 -1.3988 -1.4577
  357SOL     OW 1069   3.039   2.857   1.695 -0.1355  0.7559 -0.6164
  357SOL    HW1 1070   2.949   2.838   1.649 -1.0533  0.1505  0.9497
  357SOL    HW2 1071   3.078   2.945   1.653  3.3484  1.2849  1.8350
  358SOL     OW 1072   2.387   1.863   1.505 -0.3290 -0.1661  0.1409
  358SOL    HW1 1073   2.418   1.952   1.463 -2.2832  2.8084 -0.7889
  358SOL    HW2 1074   2.319   1.818   1.440  0.2132 -0.7999  0.3310
  359SOL     OW 1075   1.875   2.367   2.493  0.4833  0.1003  0.6340
  359SOL    HW1 1076   1.846   2.444   2.429  0.8216  1.1076  1.3249
  359SOL    HW2 1077   1.920   2.405   2.573  2.4621 -0.0519 -1.8936
  360SOL     OW 1078   1.330   2.640   0.712  0.6028  0.4207  0.1181
  360SOL    HW1 1079   1.255   2.651   0.773  1.3400  3.5240 -2.9681
  360SOL    HW2 1080   1.330   2.708   0.636  1.7244  0.6988 -0.4526
  361SOL     OW 1081   1.829   0.179   0.473  0.1946  0.6194  0.1245
  361SOL    HW1 1082   1.829   0.168   0.372  0.5232 -1.9983  0.1691
  361SOL    HW2 1083   1.770   0.107   0.504  1.1781  0.3207 -1.1490
  362SOL     OW 1084   1.616   0.833   1.642  0.0363  0.1449  0.3532
  362SOL    HW1 1085   1.653   0.829   1.550 -0.9416  0.0205 -1.0133
  362SOL    HW2 1086   1.594   0.935   1.656  1.9686 -0.7916 -2.4996
  363SOL     OW 1087   1.811   1.567   2.100  0.7036 -0.1410  0.3866
  363SOL    HW1 1088   1.711   1.567   2.129 -2.8540 -0.8344  0.4897
  363SOL    HW2 1089   1.865   1.515   2.167  0.5354  0.3257 -0.9241
  364SOL     OW 1090   0.734   0.723   1.429 -0.0454 -0.3754  0.3038
  364SOL    HW1 1091   0.711   0.649   1.366 -0.4705  1.9799  1.8504
  364SOL    HW2 1092   0.728   0.813   1.382  2.1389 -1.0761  1.6305
  365SOL     OW 1093   0.308   0.532   2.496  0.6471  0.0437 -0.1930
  365SOL    HW1 1094   0.262   0.571   2.581  0.1383  1.9753  0.9004
  365SOL    HW2 1095   0.260   0.541   2.406 -2.2840 -1.9529  0.2165
  366SOL     OW 1096   2.176   1.529   2.885  0.4745  0.1586  0.0107
  366SOL    HW1 1097   2.265   1.550   2.932  2.0626  3.2153 -1.4693
  366SOL    HW2 1098   2.099   1.537   2.951  1.2552  2.0231  2.7969
  367SOL     OW 1099   2.888   2.653   2.800  0.5211  0.1110  0.0927
  367SOL    HW1 1100   2.808   2.597   2.815  0.8306  1.4833  0.5298
  367SOL    HW2 1101   2.872   2.717   2.721 -2.1328 -0.4723 -1.0689
  368SOL     OW 1102   0.150   1.185   1.171  0.4089 -0.3488 -0.2362
  368SOL    HW1 1103   0.061   1.141   1.202 -1.2678  0.2435 -0.0203
  368SOL    HW2 1104   0.134   1.287   1.159 -1.0938  0.0653 -1.9624
  369SOL     OW 1105   0.562   2.961   2.283  0.0522 -0.2874 -0.3066
  369SOL    HW1 1106   0.645   2.936   2.341  2.5481  2.1965  1.3599
  369SOL    HW2 1107   0.494   3.005   2.349 -1.7081 -0.6133  1.6336
  370SOL     OW 1108   2.959   0.349   0.513  0.1086 -0.2433 -0.2069
  370SOL    HW1 1109   2.959   0.297   0.425 -2.6142  1.1822 -2.5600
  370SOL    HW2 1110   2.980   0.448   0.494  1.0359 -0.1537  0.1963
  371SOL     OW 1111   1.012   2.376   1.480 -0.0703 -0.1231 -0.4197
  371SOL    HW1 1112   1.113   2.361   1.475  1.3460  0.4733  1.5720
  371SOL    HW2 1113   0.961   2.291   1.484  1.9111  0.9875  0.7282
  372SOL     OW 1114   2.696   0.335   2.353  0.5683 -0.2757  0.4697
  372SOL    HW1 1115   2.664   0.238   2.376 -1.0181  0.5234 -0.1674
  372SOL    HW2 1116   2.624   0.401   2.324  0.3566 -0.1028  1.4195
  373SOL     OW 1117   0.194   2.063   0.697 -0.3241  0.2410  0.7860
  373SOL    HW1 1118   0.272   2.129   0.694 -0.0168 -0.5826 -0.6621
  373SOL    HW2 1119   0.143   2.085   0.782 -2.0867  1.9673  0.2158
  374SOL     OW 1120   0.171   0.034   2.597  0.2275 -0.0442 -0.3247
  374SOL    HW1 1121   0.131   0.117   2.553 -1.1940  0.6248 -1.2451
  374SOL    HW2 1122   0.253   3.085   2.548 -0.4311  2.4560 -0.7585
  375SOL     OW 1123   0.551   0.449   2.572 -0.3689 -0.0058 -0.4755
  375SOL    HW1 1124   0.456   0.484   2.546  0.2990 -1.3183  0.5859
  375SOL    HW2 1125   0.584   0.487   2.662 -0.7573  2.9023  1.3365
  376SOL     OW 1126   2.815   2.325   1.957 -0.1998 -0.5110 -0.1161
  376SOL    HW1 1127   2.788   2.417   1.919 -0.8235  0.5918  0.4453
  376SOL    HW2 1128   2.913   2.326   1.986 -0.2838  1.6264 -1.3002
  377SOL     OW 1129   1.285   0.270   2.872  0.4680  0.1451 -0.1405
  377SOL    HW1 1130   1.273   0.184   2.822 -0.6704 -1.6235 -0.6626
  377SOL    HW2 1131   1.358   0.322   2.828 -0.9566 -1.7473  0.0006
  378SOL     OW 1132   2.706   0.917   2.573  0.2215 -0.5010  0.3891
  378SOL    HW1 1133   2.772   0.848   2.608 -1.4819  2.6293 -1.5320
  378SOL    HW2 1134   2.620   0.911   2.630 -2.0731 -0.5012  0.1365
  379SOL     OW 1135   1.112   0.813   0.008 -0.6120 -0.3662  0.7842
  379SOL    HW1 1136   1.070   0.833   3.003 -1.8876  1.7708  0.6222
  379SOL    HW2 1137   1.039   0.802   0.077 -0.7948 -0.3781 -0.1549
  380SOL     OW 1138   0.130   1.589   1.746  0.0112 -0.2749  0.1063
  380SOL    HW1 1139   0.075   1.678   1.759 -1.3401  2.4945  1.2405
  380SOL    HW2 1140   0.127   1.556   1.653  1.9511 -0.0661  0.2713
  381SOL     OW 1141   0.145   1.277   2.551 -0.3513  0.3082  0.1089
  381SOL    HW1 1142   0.189   1.278   2.459  0.0421 -2.5988 -1.1695
  381SOL    HW2 1143   0.042   1.293   2.544 -1.3410 -0.0864  2.0214
  382SOL     OW 1144   2.250   2.243   0.382 -0.4771 -0.1006  0.2579
  382SOL    HW1 1145   2.337   2.263   0.344 -0.4036 -2.2497  2.2432
  382SOL    HW2 1146   2.263   2.194   0.469  2.8730  0.1919 -0.2006
  383SOL     OW 1147   0.623   1.738   0.255 -0.1285 -0.8494  0.1126
  383SOL    HW1 1148   0.620   1.843   0.267 -1.0574  0.0907 -0.1150
  383SOL    HW2 1149   0.616   1.691   0.348  0.5601  2.8239  2.5055
  384SOL     OW 1150   0.842   2.101   2.423 -0.3416 -0.1220  0.4429
  384SOL    HW1 1151   0.882   2.049   2.502  1.6478 -1.4791 -0.5436
  384SOL    HW2 1152   0.896   2.072   2.341 -0.0747  2.4197  1.1035
  385SOL     OW 1153   2.307   2.075   0.581 -0.4081 -0.2460 -0.2613
  385SOL    HW1 1154   2.302   1.975   0.576  2.3397  0.9506 -0.1222
  385SOL    HW2 1155   2.287   2.104   0.677 -0.5528 -2.2191 -1.4238
  386SOL     OW 1156   2.245   0.892   1.284  0.1878 -0.0439  0.5371
  386SOL    HW1 1157   2.282   0.827   1.213 -0.8381 -1.1137 -0.1743
  386SOL    HW2 1158   2.236   0.989   1.248 -1.2725 -0.2747 -0.0943
  387SOL     OW 1159   0.064   1.051   1.998  0.1548  0.6070  0.2500
  387SOL    HW1 1160   0.121   1.070   2.080  0.8628 -0.1713  2.0490
  387SOL    HW2 1161   3.052   1.031   2.025 -5.4504 -1.7128 -0.8889
  388SOL     OW 1162   0.785   1.526   2.201  0.1749 -0.4145  0.7640
  388SOL    HW1 1163   0.753   1.617   2.237  2.6444  1.8316  0.3434
  388SOL    HW2 1164   0.731   1.501   2.116 -1.3287  0.9935  1.1551
  389SOL     OW 1165   0.699   0.995   1.997  0.3716  0.2572 -0.3951
  389SOL    HW1 1166   0.700   0.947   2.082  1.0779 -0.2458 -0.9724
  389SOL    HW2 1167   0.677   0.933   1.919 -1.3507 -2.0436  2.0169
  390SOL     OW 1168   2.847   3.068   0.655 -0.2165 -0.3085  0.7067
  390SOL    HW1 1169   2.758   0.016   0.698 -1.0161 -0.3779  1.7349
  390SOL    HW2 1170   2.832   3.020   0.565 -0.7941 -1.2600  1.7387
  391SOL     OW 1171   1.845   1.445   1.299 -0.1714  0.1157 -0.0211
  391SOL    HW1 1172   1.770   1.500   1.342  0.6263 -0.8099  0.3151
  391SOL    HW2 1173   1.822   1.345   1.295  2.1158 -0.8953 -2.2981
  392SOL     OW 1174   2.853   2.735   3.081  0.1218 -0.6945  0.4493
  392SOL    HW1 1175   2.859   2.805   3.004  0.4964  3.2099 -3.2285
  392SOL    HW2 1176   2.947   2.722   0.032 -0.1069 -0.5587  0.1922
  393SOL     OW 1177   1.628   2.329   2.665 -0.2098 -0.1471 -0.1398
  393SOL    HW1 1178   1.711   2.285   2.631 -0.8179 -0.8082 -0.5839
  393SOL    HW2 1179   1.631   2.428   2.639 -2.8956 -2.8365 -1.6767
  394SOL     OW 1180   0.147   2.431   2.632 -0.3776  0.4507 -0.0354
  394SOL    HW1 1181   0.167   2.362   2.561  0.1464 -1.1386  1.3648
  394SOL    HW2 1182   0.067   2.404   2.685 -0.3803 -0.6118 -0.7265
  395SOL     OW 1183   0.182   0.263   0.483  0.9188  0.6314  0.0510
  395SOL    HW1 1184   0.085   0.279   0.506  1.8312 -1.8253  0.2929
  395SOL    HW2 1185   0.203   0.163   0.474 -1.9731 -1.9172 -1.3296
  396SOL     OW 1186   2.278   0.344   0.443  0.7742 -0.0682  0.3223
  396SOL    HW1 1187   2.271   0.428   0.494  0.2049 -1.4580 -0.3295
  396SOL    HW2 1188   2.202   0.280   0.462 -1.4438  0.9283  1.0310
  397SOL     OW 1189   3.073   0.676   2.345  0.1493  0.3600 -0.4453
  397SOL    HW1 1190   0.067   0.651   2.286  3.2018  1.5141 -2.7851
  397SOL    HW2 1191   3.026   0.591   2.382 -0.1012  0.4343 -0.2418
  398SOL     OW 1192   0.815   3.010   0.059  0.2979  0.3655 -0.5986
  398SOL    HW1 1193   0.728   3.063   0.055 -2.2460 -1.0170  0.0619
  398SOL    HW2 1194   0.897   3.057   0.025 -1.4539 -3.6922  3.3994
  399SOL     OW 1195   2.067   0.389   2.023  0.5686  0.4519  0.3246
  399SOL    HW1 1196   2.076   0.493   2.029  1.4945 -1.9913  1.5366
  399SOL    HW2 1197   1.983   0.362   1.972  1.1948 -0.3909 -1.3472
  400SOL     OW 1198   1.011   1.994   2.633  0.5461 -0.0635  0.2366
  400SOL    HW1 1199   1.097   1.986   2.582  3.1585  1.5708 -0.2431
  400SOL    HW2 1200   1.013   2.077   2.699  0.2982  3.1025  1.8871
  401SOL     OW 1201   0.401   1.294   2.612  0.0370  0.0424  0.0069
  401SOL    HW1 1202   0.406   1.315   2.713 -0.2903  1.4423  0.5965
  401SOL    HW2 1203   0.308   1.253   2.592  0.3927 -1.6519 -2.6166
  402SOL     OW 1204   0.419   2.841   0.368  0.1075 -0.2548  0.1091
  402SOL    HW1 1205   0.455   2.749   0.396  0.4010 -0.0045 -1.7976
  402SOL    HW2 1206   0.449   2.915   0.433 -0.4841 -2.2445 -3.6399
  403SOL     OW 1207   0.603   1.074   1.589  0.8145 -0.0501  0.0027
  403SOL    HW1 1208   0.655   1.021   1.656 -1.9207 -1.4338  0.9004
  403SOL    HW2 1209   0.504   1.051   1.599 -0.8673  0.9625  1.1809
  404SOL     OW 1210   2.489   2.460   2.306 -0.3769  0.0114  0.1156
  404SOL    HW1 1211   2.539   2.553   2.293 -1.8868  3.4022 -0.4706
  404SOL    HW2 1212   2.394   2.483   2.286  3.4328  1.6268  0.6714
  405SOL     OW 1213   2.986   0.186   1.775  0.1447  0.4624 -0.1414
  405SOL    HW1 1214   3.069   0.195   1.835 -0.9317  1.3133  3.1357
  405SOL    HW2 1215   2.992   0.258   1.707 -2.0462 -1.5207  0.3903
  406SOL     OW 1216   1.132   1.541   2.678  0.0080  0.1425  0.5424
  406SOL    HW1 1217   1.072   1.567   2.598 -1.4847  1.1132 -1.2357
  406SOL    HW2 1218   1.150   1.623   2.731 -0.0475 -1.4174 -2.3662
  407SOL     OW 1219   1.844   0.908   2.787 -0.0280  0.4636 -0.1022
  407SOL    HW1 1220   1.921   0.863   2.741  1.5019  0.8126  1.0660
  407SOL    HW2 1221   1.857   1.009   2.795 -0.6157 -0.9149  1.9698
  408SOL     OW 1222   0.353   2.752   2.277 -0.3693  0.2728 -0.0659
  408SOL    HW1 1223   0.395   2.775   2.364 -2.3236 -0.9707 -5.1214
  408SOL    HW2 1224   0.290   2.672   2.291  0.3537  1.5310 -0.7032
  409SOL     OW 1225   0.086   2.434   1.225  0.4582 -0.1856  0.2747
  409SOL    HW1 1226   3.069   2.429   1.232  0.1129 -0.8830  0.0629
  409SOL    HW2 1227   0.112   2.522   1.183 -0.8946  1.4371  1.1032
  410SOL     OW 1228   2.902   1.768   0.527  0.4223 -0.0300  0.0413
  410SOL    HW1 1229   3.000   1.799   0.545 -1.7640 -1.2575 -0.3350
  410SOL    HW2 1230   2.900   1.679   0.481  0.0006 -0.1169 -1.1400
  411SOL     OW 1231   2.732   0.059   1.041  0.5189 -0.1679 -0.3075
  411SOL    HW1 1232   2.677   3.063   1.049  0.5600  0.4296  1.8369
  411SOL    HW2 1233   2.707   0.133   1.107 -0.8888 -0.2820 -0.3773
  412SOL     OW 1234   2.202   0.158   1.739  0.4302  0.0252 -0.1186
  412SOL    HW1 1235   2.235   0.068   1.742 -1.4050  1.5455 -1.5124
  412SOL    HW2 1236   2.102   0.163   1.714  0.7169 -1.4926  1.7279
  413SOL     OW 1237   3.027   0.436   1.991 -0.2405  0.2228 -0.6869
  413SOL    HW1 1238   3.033   0.391   2.083  0.2744 -1.9891 -1.4350
  413SOL    HW2 1239   3.069   0.379   1.918 -2.5967  0.5320  2.7367
  414SOL     OW 1240   2.936   1.172   2.999 -1.0354 -0.5281 -0.4527
  414SOL    HW1 1241   2.951   1.154   0.011  2.1740 -1.5395 -1.1262
  414SOL    HW2 1242   2.852   1.131   2.961  0.3442  0.8036  2.0538
  415SOL     OW 1243   0.947   2.544   3.031  0.0166 -0.6177 -0.2487
  415SOL    HW1 1244   1.034   2.497   3.057  1.7420 -0.0433  0.3271
  415SOL    HW2 1245   0.950   2.636   3.067  3.7595 -1.5892 -1.9780
  416SOL     OW 1246   1.310   2.943   2.249 -0.6364  0.0378  0.1965
  416SOL    HW1 1247   1.271   2.865   2.308 -3.2112 -1.0532  3.2149
  416SOL    HW2 1248   1.406   2.934   2.215  1.2985 -0.2862  0.6454
  417SOL     OW 1249   0.258   0.762   1.009 -0.2363 -0.0507 -0.3296
  417SOL    HW1 1250   0.335   0.712   1.052  0.0216 -0.9485 -0.1396
  417SOL    HW2 1251   0.226   0.710   0.925  2.7832 -0.9983  1.1427
  418SOL     OW 1252   2.622   0.085   0.788 -0.0993 -0.2342  0.4264
  418SOL    HW1 1253   2.672   0.080   0.879 -1.7775  0.7204 -0.8180
  418SOL    HW2 1254   2.641   0.174   0.743 -1.8637 -1.9049  2.0555
  419SOL     OW 1255   0.414   2.891   0.107 -0.4319  0.4102 -0.3681
  419SOL    HW1 1256   0.471   2.815   0.072  3.9106  2.1053 -0.1541
  419SOL    HW2 1257   0.389   2.872   0.207  0.0632 -0.9747  2.7581
  420SOL     OW 1258   0.341   1.012   1.540  0.1174  0.1413  0.3477
  420SOL    HW1 1259   0.311   0.918   1.503 -0.7200 -1.0231 -1.7676
  420SOL    HW2 1260   0.280   1.043   1.612  0.3388  0.3139 -0.2537
  421SOL     OW 1261   1.836   2.604   0.837 -0.4102 -0.0945 -0.5063
  421SOL    HW1 1262   1.870   2.516   0.882  0.7862 -0.7180 -0.7953
  421SOL    HW2 1263   1.748   2.594   0.786  0.1084  2.8899 -0.8659
  422SOL     OW 1264   0.038   0.488   1.202  0.5195  0.5429  0.6860
  422SOL    HW1 1265   0.108   0.456   1.133 -0.0928  0.3151 -2.9548
  422SOL    HW2 1266   0.042   0.590   1.214 -1.4866  0.5110  1.5886
  423SOL     OW 1267   0.840   1.233   1.980 -0.4999 -0.1829 -0.0103
  423SOL    HW1 1268   0.799   1.137   1.979 -2.3949  2.0221 -2.0390
  423SOL    HW2 1269   0.771   1.310   1.991  0.7060 -0.8210  1.0552
  424SOL     OW 1270   1.822   2.180   0.450 -0.0132 -0.7362 -0.5011
  424SOL    HW1 1271   1.819   2.162   0.348  0.3784 -2.6007  1.1984
  424SOL    HW2 1272   1.877   2.107   0.502 -2.0652  0.3658  0.6847
  425SOL     OW 1273   2.677   2.947   1.827  0.0032 -0.1912  0.3963
  425SOL    HW1 1274   2.694   3.014   1.752 -0.8400 -3.8521 -0.6231
  425SOL    HW2 1275   2.750   2.959   1.901 -1.2396 -0.2812  2.2792
  426SOL     OW 1276   0.013   2.704   2.432  0.3473 -0.0737  0.2826
  426SOL    HW1 1277   0.093   2.718   2.499  0.6622  1.9743  2.8217
  426SOL    HW2 1278   0.039   2.643   2.355 -0.3047  5.2623  2.9161
  427SOL     OW 1279   0.953   0.130   0.487  0.1711  0.0531  0.1193
  427SOL    HW1 1280   0.932   0.188   0.402  0.4302 -1.0511 -1.6322
  427SOL    HW2 1281   0.907   0.166   0.572 -2.0238  0.1649 -0.3116
  428SOL     OW 1282   2.707   0.502   1.579  0.2564 -0.5084 -0.6599
  428SOL    HW1 1283   2.708   0.400   1.569  0.2226  0.3641 -1.3224
  428SOL    HW2 1284   2.645   0.541   1.508  1.9494  0.1294  0.1300
  429SOL     OW 1285   2.087   2.973   0.991 -0.2709 -0.1657  0.0519
  429SOL    HW1 1286   1.998   2.937   0.968  1.2279  0.2849  1.8594
  429SOL    HW2 1287   2.151   2.905   1.034 -1.7568 -1.3730  2.3603
  430SOL     OW 1288   0.964   1.609   2.452 -0.7370  0.6695 -0.8149
  430SOL    HW1 1289   0.904   1.672   2.500  0.7163  0.3393 -2.8283
  430SOL    HW2 1290   0.919   1.549   2.382  1.9239 -1.0808  0.8814
  431SOL     OW 1291   0.248   1.943   1.148 -0.2466 -0.8385  0.2270
  431SOL    HW1 1292   0.195   1.922   1.232 -1.0694  0.1278  0.0618
  431SOL    HW2 1293   0.261   2.042   1.139 -0.6352 -1.9738  1.4635
  432SOL     OW 1294   1.433   2.762   2.550  0.0448 -0.3022 -0.6435
  432SOL    HW1 1295   1.439   2.862   2.543  0.5399  0.8227  0.0385
  432SOL    HW2 1296   1.345   2.730   2.516  2.7158  0.1959 -1.7108
  433SOL     OW 1297   1.200   0.317   2.354  0.5614  0.3931  0.1094
  433SOL    HW1 1298   1.179   0.309   2.256 -1.5678 -0.8669  3.3648
  433SOL    HW2 1299   1.181   0.410   2.387  2.2902  0.0810 -1.1354
  434SOL     OW 1300   0.778   2.533   2.083  0.0018 -0.2610 -0.7823
  434SOL    HW1 1301   0.792   2.529   1.984  0.9097  2.0085  3.0706
  434SOL    HW2 1302   0.745   2.446   2.123  3.1653  1.0557  1.0036
  435SOL     OW 1303   0.514   0.071   0.094 -0.4940 -0.1910 -0.5344
  435SOL    HW1 1304   0.495   3.054   0.100 -1.9753  1.8477 -0.2570
  435SOL    HW2 1305   0.427   0.118   0.120  2.1730 -1.8328 -0.5271
  436SOL     OW 1306   0.530   1.265   2.374  0.3486 -0.4986 -0.3971
  436SOL    HW1 1307   0.474   1.285   2.458 -1.9555 -0.3373  1.0114
  436SOL    HW2 1308   0.616   1.222   2.384 -4.9671  1.9489 -3.0550
  437SOL     OW 1309   1.101   2.434   2.589  0.2117  0.3036 -0.1323
  437SOL    HW1 1310   1.189   2.390   2.557  1.0412 -0.2684 -1.5320
  437SOL    HW2 1311   1.057   2.486   2.512  0.8449 -0.8870 -1.0777
  438SOL     OW 1312   0.935   1.023   0.729  0.2753 -0.0481 -0.1600
  438SOL    HW1 1313   0.955   1.012   0.822 -1.8061  2.4115 -4.8360
  438SOL    HW2 1314   1.017   1.014   0.675  0.8552  1.4319  0.6227
  439SOL     OW 1315   2.838   1.315   2.317  0.3064 -0.1860 -0.3571
  439SOL    HW1 1316   2.848   1.220   2.292  0.8714  2.5948 -2.5368
  439SOL    HW2 1317   2.844   1.381   2.240 -1.6271 -0.8376  1.2181
  440SOL     OW 1318   2.728   0.695   2.936  0.2948 -0.4289  0.2600
  440SOL    HW1 1319   2.644   0.662   2.892 -3.3259 -0.9862 -0.2711
  440SOL    HW2 1320   2.756   0.787   2.899 -0.1491  1.0908 -2.0442
  441SOL     OW 1321   0.934   1.811   1.561  0.4592  0.4351 -0.1032
  441SOL    HW1 1322   0.928   1.890   1.624 -1.4417 -1.3806  3.0138
  441SOL    HW2 1323   0.891   1.726   1.602 -0.8946 -0.8603 -1.4661
  442SOL     OW 1324   1.953   1.275   0.790 -0.4301  0.6710  0.2043
  442SOL    HW1 1325   1.877   1.246   0.732 -1.2900  2.3210  1.7142
  442SOL    HW2 1326   1.987   1.368   0.768  0.2359  1.1123 -0.3182
  443SOL     OW 1327   2.301   1.903   2.897  0.6799  0.5374 -0.0047
  443SOL    HW1 1328   2.392   1.866   2.868  0.0296 -0.4534  3.5881
  443SOL    HW2 1329   2.319   1.992   2.947 -1.0290  2.2810 -0.9596
  444SOL     OW 1330   1.928   1.394   2.680  0.1253  0.1632 -0.6423
  444SOL    HW1 1331   2.007   1.389   2.619 -2.4260  2.6335  1.7213
  444SOL    HW2 1332   1.910   1.494   2.696 -0.8893 -1.9519 -3.3598
  445SOL     OW 1333   0.401   2.200   2.199 -0.1868  0.4314 -0.2157
  445SOL    HW1 1334   0.410   2.258   2.284  0.6387 -0.3857 -2.4051
  445SOL    HW2 1335   0.497   2.178   2.171  0.9224  0.4135  0.8306
  446SOL     OW 1336   0.971   0.785   1.643 -0.5748 -0.0744 -0.3174
  446SOL    HW1 1337   0.931   0.824   1.561 -1.0663  1.0631 -0.8065
  446SOL    HW2 1338   0.997   0.687   1.630  2.0888 -3.0677  0.4007
  447SOL     OW 1339   1.220   1.049   0.639  0.3542  0.1250  0.4290
  447SOL    HW1 1340   1.194   1.117   0.563 -0.7922  2.3910 -0.8690
  447SOL    HW2 1341   1.312   1.007   0.626  2.3733  0.7410  0.3535
  448SOL     OW 1342   1.171   1.391   2.414  0.6820 -0.0125  0.3117
  448SOL    HW1 1343   1.166   1.489   2.431 -1.0252 -1.3386 -1.3457
  448SOL    HW2 1344   1.133   1.381   2.321 -0.5737 -1.0262  0.5956
  449SOL     OW 1345   0.209   1.757   2.438 -0.7991 -0.2552 -0.2814
  449SOL    HW1 1346   0.167   1.699   2.371  0.9028  0.4501  1.1252
  449SOL    HW2 1347   0.144   1.819   2.484  1.5314 -0.0958 -1.0584
  450SOL     OW 1348   2.063   1.419   2.130 -0.7202 -0.0949 -0.0754
  450SOL    HW1 1349   2.100   1.454   2.219  2.2561  0.2850 -1.0790
  450SOL    HW2 1350   2.131   1.450   2.053  0.8450  1.7297  0.2589
  451SOL     OW 1351   2.515   1.388   1.238 -0.1745  0.2346  0.7436
  451SOL    HW1 1352   2.482   1.466   1.178 -1.4825  3.2478 -0.3728
  451SOL    HW2 1353   2.545   1.418   1.328 -1.2570  0.2047 -1.2648
  452SOL     OW 1354   0.914   1.043   1.229  0.0700  0.1748 -0.2589
  452SOL    HW1 1355   0.820   1.007   1.261  1.0426  0.1171 -2.5301
  452SOL    HW2 1356   0.958   1.101   1.299  1.9823  0.4269  0.4552
  453SOL     OW 1357   0.731   1.925   0.902  0.3967 -0.4767 -0.5703
  453SOL    HW1 1358   0.657   1.974   0.852 -1.3815 -0.4212 -0.1981
  453SOL    HW2 1359   0.758   1.847   0.845 -2.8351  0.6373 -0.0459
  454SOL     OW 1360   1.270   1.611   0.184  0.3409  0.1431  0.5984
  454SOL    HW1 1361   1.353   1.659   0.210 -0.8876 -1.5069  0.4123
  454SOL    HW2 1362   1.237   1.556   0.261  0.0125  2.5145 -1.5078
  455SOL     OW 1363   1.801   0.471   1.007  0.2506 -0.0879  0.5009
  455SOL    HW1 1364   1.881   0.414   0.979 -1.5186  1.1164 -0.0617
  455SOL    HW2 1365   1.761   0.519   0.928  0.9771 -1.7214  0.1683
  456SOL     OW 1366   1.892   2.932   0.616  0.0244  0.1139 -0.0859
  456SOL    HW1 1367   1.844   2.844   0.617 -1.8317 -0.6943  1.2086
  456SOL    HW2 1368   1.946   2.946   0.528 -0.7179  2.4152  0.4436
  457SOL     OW 1369   1.974   0.649   2.426  0.7913  0.5588  0.3364
  457SOL    HW1 1370   1.944   0.696   2.345  1.5783 -0.7565  2.3413
  457SOL    HW2 1371   1.908   0.578   2.451  0.2508 -2.9780 -1.6394
  458SOL     OW 1372   2.615   0.469   2.793  0.3555 -0.4201 -0.0691
  458SOL    HW1 1373   2.589   0.550   2.742 -1.1312 -1.2023  2.1135
  458SOL    HW2 1374   2.708   0.436   2.775 -0.4749  0.1304  1.0677
  459SOL     OW 1375   2.585   1.384   2.381 -0.0952  0.1437  0.4001
  459SOL    HW1 1376   2.536   1.446   2.312 -1.8413  1.4826 -1.6586
  459SOL    HW2 1377   2.676   1.353   2.347  1.2019 -0.5855  1.7796
  460SOL     OW 1378   0.782   0.869   2.780  0.3766  0.0372 -0.0098
  460SOL    HW1 1379   0.744   0.883   2.874 -1.0719 -0.2839 -0.7161
  460SOL    HW2 1380   0.715   0.902   2.710  2.8366 -0.5951 -0.8545
  461SOL     OW 1381   0.418   2.229   3.046 -0.3536 -0.0944 -0.2690
  461SOL    HW1 1382   0.467   2.275   0.039  0.1285  0.6566  2.1657
  461SOL    HW2 1383   0.387   2.299   2.977  1.7821 -0.8418  0.4055
  462SOL     OW 1384   1.101   0.022   2.185 -0.2453  0.1665  0.5775
  462SOL    HW1 1385   1.187   3.055   2.184  0.1654 -0.7020 -2.5890
  462SOL    HW2 1386   1.018   3.052   2.163  0.7618  0.4404 -2.2243
  463SOL     OW 1387   1.989   2.250   2.031 -0.9019 -0.2722 -0.1105
  463SOL    HW1 1388   1.924   2.184   2.066 -1.8630  0.9146 -1.8771
  463SOL    HW2 1389   2.087   2.229   2.061 -0.1095 -0.5773  1.9831
  464SOL     OW 1390   2.638   2.637   0.869 -0.3075 -0.1543 -0.5108
  464SOL    HW1 1391   2.558   2.689   0.899  1.3707 -1.7933  2.5898
  464SOL    HW2 1392   2.648   2.622   0.770  0.1652 -1.8807  2.2792
  465SOL     OW 1393   3.037   0.280   1.353  0.5468  0.1383  0.7696
  465SOL    HW1 1394   3.044   0.199   1.290 -1.1037 -0.4080  0.1872
  465SOL    HW2 1395   3.067   0.361   1.302  0.8188 -1.1524 -2.9986
  466SOL     OW 1396   1.198   2.724   2.423 -0.3040 -0.2471 -0.8798
  466SOL    HW1 1397   1.121   2.767   2.484  0.8888  1.1939  1.5257
  466SOL    HW2 1398   1.156   2.661   2.349  0.9574  0.8185 -0.9076
  467SOL     OW 1399   0.080   2.276   0.206  0.1246 -0.3966 -0.1714
  467SOL    HW1 1400   0.077   2.178   0.208 -1.1901  3.0788  0.4459
  467SOL    HW2 1401   0.087   2.311   0.107  0.8213  1.3689 -4.3244
  468SOL     OW 1402   2.026   1.864   2.907 -0.2912  0.0349 -0.8982
  468SOL    HW1 1403   1.998   1.883   2.812  1.2489  0.0344  1.3584
  468SOL    HW2 1404   2.127   1.858   2.921  0.3932  0.0749 -1.9211
  469SOL     OW 1405   1.010   2.215   0.554 -0.3733 -0.3327  0.0564
  469SOL    HW1 1406   1.081   2.286   0.590  0.2565  1.0730 -0.3707
  469SOL    HW2 1407   0.928   2.228   0.614 -1.6424  0.0270 -2.1031
  470SOL     OW 1408   2.116   0.715   0.879  0.4136  0.2209 -0.0197
  470SOL    HW1 1409   2.096   0.657   0.963  0.9391 -0.1310  2.9015
  470SOL    HW2 1410   2.128   0.809   0.911  2.2969 -1.6000  1.0123
  471SOL     OW 1411   0.572   1.990   0.279  0.1584 -0.2465  0.3995
  471SOL    HW1 1412   0.634   2.058   0.239  0.9525 -0.1417 -1.2091
  471SOL    HW2 1413   0.479   2.011   0.246  2.0438 -0.0909 -1.4592
  472SOL     OW 1414   2.566   1.645   2.492 -0.4389  0.3672  0.9832
  472SOL    HW1 1415   2.592   1.624   2.586 -0.3496 -1.1126  0.6835
  472SOL    HW2 1416   2.569   1.558   2.431 -0.7542 -4.8835  0.3658
  473SOL     OW 1417   1.597   1.877   0.763 -0.3634 -0.0091 -0.4774
  473SOL    HW1 1418   1.533   1.954   0.757 -2.6384  0.1809 -0.8366
  473SOL    HW2 1419   1.632   1.872   0.858 -1.7157  1.1591 -0.3054
  474SOL     OW 1420   2.691   0.466   1.091 -0.5700 -0.2307 -0.1621
  474SOL    HW1 1421   2.640   0.465   1.003  1.3613  0.4829  0.8743
  474SOL    HW2 1422   2.786   0.447   1.078 -1.8286  0.3191  1.3724
  475SOL     OW 1423   2.549   2.837   1.336 -0.5656  0.8603  0.2384
  475SOL    HW1 1424   2.518   2.900   1.407 -0.7379  0.7287  0.8816
  475SOL    HW2 1425   2.528   2.886   1.248 -0.7002  1.5178  2.1545
  476SOL     OW 1426   0.433   0.398   0.899  0.0410  0.4076  0.0699
  476SOL    HW1 1427   0.415   0.322   0.832  1.2793  1.0620 -2.1300
  476SOL    HW2 1428   0.522   0.441   0.873 -0.2012 -0.7659 -2.1532
  477SOL     OW 1429   1.295   2.331   1.123  1.1769 -0.6712 -0.0959
  477SOL    HW1 1430   1.386   2.368   1.092  1.4294  1.5432  0.0923
  477SOL    HW2 1431   1.255   2.402   1.183  0.2305 -1.4185  1.8633
  478SOL     OW 1432   1.301   2.651   2.830 -0.7195 -0.3482 -0.2562
  478SOL    HW1 1433   1.207   2.646   2.800  0.9464 -0.4968 -1.3018
  478SOL    HW2 1434   1.356   2.698   2.758 -1.0418 -1.2871  1.2533
  479SOL     OW 1435   2.495   0.818   1.924 -0.0643 -0.1516  0.1821
  479SOL    HW1 1436   2.580   0.782   1.967 -2.2160 -0.7745  0.5938
  479SOL    HW2 1437   2.508   0.811   1.824 -0.9569 -2.6716  0.1290
  480SOL     OW 1438   2.707   2.054   2.763 -0.4567  0.2676 -0.4659
  480SOL    HW1 1439   2.728   2.152   2.732 -1.4731  2.3361  0.3573
  480SOL    HW2 1440   2.794   2.000   2.758  2.8485  1.8719  0.2160
  481SOL     OW 1441   1.754   0.078   2.041  0.3765 -0.5871  0.7093
  481SOL    HW1 1442   1.800   0.093   2.132 -0.0772  1.3642 -0.6549
  481SOL    HW2 1443   1.654   0.046   2.042 -2.9502 -0.8514  2.3522
  482SOL     OW 1444   1.470   2.426   2.386  0.3277 -0.1213 -0.2096
  482SOL    HW1 1445   1.492   2.471   2.298 -0.0206  2.0858  2.2664
  482SOL    HW2 1446   1.507   2.482   2.463 -0.6862 -0.0026  2.2114
  483SOL     OW 1447   1.042   2.846   2.631  0.2309  0.6947 -0.1298
  483SOL    HW1 1448   1.038   2.757   2.676 -0.9075  0.6078  2.7341
  483SOL    HW2 1449   1.021   2.927   2.686 -0.7450 -2.4202 -0.1708
  484SOL     OW 1450   2.408   2.997   1.508 -0.0688 -0.4827  0.4384
  484SOL    HW1 1451   2.357   2.963   1.589  1.3226  1.2678  0.7001
  484SOL    HW2 1452   2.431   0.010   1.520 -0.6197  2.3541 -0.4116
  485SOL     OW 1453   1.970   0.517   0.438 -0.4610  0.4355 -0.2514
  485SOL    HW1 1454   1.934   0.555   0.526 -0.9465  0.5308  0.0086
  485SOL    HW2 1455   1.900   0.476   0.377 -0.5205  1.6839  0.9731
  486SOL     OW 1456   2.230   2.634   2.495  0.1348  0.4161 -0.1745
  486SOL    HW1 1457   2.260   2.727   2.508 -2.4782 -1.2846 -0.3576
  486SOL    HW2 1458   2.203   2.613   2.400 -1.0877  1.5510 -0.6389
  487SOL     OW 1459   1.520   0.594   0.520  0.0548  0.3589  1.0461
  487SOL    HW1 1460   1.461   0.626   0.600  0.0022 -1.1968  1.1837
  487SOL    HW2 1461   1.488   0.504   0.481  2.6552  1.9658 -0.6353
  488SOL     OW 1462   2.624   2.822   2.436 -0.5988 -0.1738  0.3199
  488SOL    HW1 1463   2.592   2.786   2.346  1.5415  2.6726  0.3754
  488SOL    HW2 1464   2.546   2.825   2.499  0.7449  2.0266 -0.2242
  489SOL     OW 1465   1.428   2.822   0.238  0.2343 -0.1669  0.3082
  489SOL    HW1 1466   1.429   2.804   0.339  1.0033 -0.2727 -0.9864
  489SOL    HW2 1467   1.528   2.838   0.208  2.4166  1.1221  1.5799
  490SOL     OW 1468   1.666   0.423   2.962  0.3853 -0.4676  0.7010
  490SOL    HW1 1469   1.743   0.484   2.955 -5.0202 -0.7246  2.5927
  490SOL    HW2 1470   1.596   0.466   3.024  0.5196 -2.2814 -0.5931
  491SOL     OW 1471   0.740   2.848   1.328  0.4969  0.1538  0.4048
  491SOL    HW1 1472   0.703   2.918   1.390 -0.6617 -3.0873 -0.0642
  491SOL    HW2 1473   0.813   2.792   1.373  1.0564  0.7049  0.9437
  492SOL     OW 1474   1.688   2.768   0.542  0.0076 -0.1482 -0.3588
  492SOL    HW1 1475   1.676   2.683   0.602  0.8304 -0.5953  0.5287
  492SOL    HW2 1476   1.731   2.742   0.456 -2.2592  1.6372  0.8107
  493SOL     OW 1477   1.223   2.290   2.962 -0.3586 -0.1139 -0.3514
  493SOL    HW1 1478   1.306   2.311   2.910 -2.0404 -1.6356 -0.2150
  493SOL    HW2 1479   1.212   2.360   3.039 -0.8042  1.6499  2.0784
  494SOL     OW 1480   0.923   0.755   0.285  0.7265  0.0239  0.3557
  494SOL    HW1 1481   0.928   0.655   0.314  0.0863 -4.4226  0.6304
  494SOL    HW2 1482   0.987   0.805   0.346  1.7087  1.4217 -0.8215
  495SOL     OW 1483   2.721   0.480   1.858 -0.0626  0.1043 -0.2605
  495SOL    HW1 1484   2.766   0.397   1.896 -1.3233 -1.5676 -2.8316
  495SOL    HW2 1485   2.716   0.477   1.758  0.3877  1.0606 -0.0148
  496SOL     OW 1486   2.227   2.387   2.609 -0.0825 -0.2880 -0.5212
  496SOL    HW1 1487   2.232   2.472   2.550  1.3208  1.6154 -2.1993
  496SOL    HW2 1488   2.137   2.349   2.620  1.7531  3.4398  1.5987
  497SOL     OW 1489   1.682   1.384   2.591  0.9399 -0.1171 -0.0095
  497SOL    HW1 1490   1.779   1.395   2.624 -0.9850 -0.0940  2.4653
  497SOL    HW2 1491   1.613   1.410   2.663 -0.6302 -1.1217 -1.1160
  498SOL     OW 1492   0.873   2.425   0.935  0.2260 -0.3023 -1.0596
  498SOL    HW1 1493   0.803   2.496   0.915  0.9798 -0.1327  0.0323
  498SOL    HW2 1494   0.891   2.410   1.034 -0.3460  0.2215 -0.4286
  499SOL     OW 1495   0.227   2.203   1.042  0.0420  0.1924  0.1849
  499SOL    HW1 1496   0.158   2.176   0.974  2.2590  1.5305  0.5908
  499SOL    HW2 1497   0.208   2.297   1.076  1.4069  0.1172 -0.9627
  500SOL     OW 1498   0.958   2.790   0.049 -0.4476  0.0599  0.4570
  500SOL    HW1 1499   0.899   2.871   0.046 -2.8559 -2.7532 -1.5927
  500SOL    HW2 1500   1.011   2.797   0.135  0.4536  1.1392  1.3689
  501SOL     OW 1501   1.886   3.013   0.238 -0.1721 -0.3360 -0.0936
  501SOL    HW1 1502   1.950   2.964   0.304 -0.2841  0.6950  1.8734
  501SOL    HW2 1503   1.932   0.013   0.214 -1.7269 -0.0864  2.9716
  502SOL     OW 1504   0.022   0.404   0.736  0.3191 -0.3252 -0.1230
  502SOL    HW1 1505   3.043   0.383   0.665  2.1515 -0.3782  1.9977
  502SOL    HW2 1506   0.083   0.324   0.754 -0.4780  3.2657  2.2340
  503SOL     OW 1507   1.929   2.934   2.027 -0.5305  0.3249  0.0340
  503SOL    HW1 1508   1.997   2.891   2.096  1.6705 -0.2291 -1.3622
  503SOL    HW2 1509   1.921   3.034   2.043  0.3144 -1.5838 -3.0611
  504SOL     OW 1510   2.205   1.033   1.970 -0.3776  0.0576  0.6402
  504SOL    HW1 1511   2.229   0.949   1.912  0.0770  0.2835  0.1129
  504SOL    HW2 1512   2.265   1.047   2.055 -0.1494  0.7710 -0.9849
  505SOL     OW 1513   1.695   2.957   2.358  0.1330  0.5368 -0.3884
  505SOL    HW1 1514   1.774   3.018   2.339  1.7066  3.1599  0.2643
  505SOL    HW2 1515   1.668   2.915   2.266 -0.2681  1.5317  1.6488
  506SOL     OW 1516   0.025   0.694   1.978 -0.4048  0.1984 -0.1407
  506SOL    HW1 1517   3.086   0.591   1.979 -0.0634  0.4631  0.6898
  506SOL    HW2 1518   0.121   0.709   1.968 -0.4712 -1.7069  0.8399
  507SOL     OW 1519   1.754   0.414   0.291 -0.4978 -0.7264  0.1317
  507SOL    HW1 1520   1.686   0.486   0.303  0.2694  0.7518 -0.8024
  507SOL    HW2 1521   1.711   0.328   0.283  3.1465  1.8924 -0.8748
  508SOL     OW 1522   2.090   0.694   2.036  0.5488  0.4222 -0.5971
  508SOL    HW1 1523   2.099   0.746   1.945 -1.1976 -0.3510 -0.8271
  508SOL    HW2 1524   2.169   0.717   2.094  0.3668  1.3796 -1.6404
  509SOL     OW 1525   0.574   1.811   2.715  1.1488  0.3073 -0.0423
  509SOL    HW1 1526   0.560   1.875   2.793  0.4478  0.2316 -0.7237
  509SOL    HW2 1527   0.527   1.848   2.634 -0.0268 -0.9615  0.9178
  510SOL     OW 1528   0.236   1.026   0.953  0.4913  0.2063 -0.1907
  510SOL    HW1 1529   0.224   0.922   0.959 -0.4234 -3.8820 -1.1680
  510SOL    HW2 1530   0.201   1.076   1.029  2.1566 -0.5508 -3.2486
  511SOL     OW 1531   1.512   1.078   1.681  0.3711  0.2089  0.1670
  511SOL    HW1 1532   1.415   1.069   1.713  0.5103  0.5239 -1.2717
  511SOL    HW2 1533   1.529   1.171   1.645 -1.7659 -0.1289  2.2886
  512SOL     OW 1534   0.503   2.089   0.749  0.5255 -0.5451  0.3464
  512SOL    HW1 1535   0.556   2.047   0.676  3.4456  1.5233 -0.6367
  512SOL    HW2 1536   0.512   2.190   0.741 -2.6912 -1.5680 -0.9834
  513SOL     OW 1537   0.316   2.597   0.888  0.1114  0.5812 -0.1069
  513SOL    HW1 1538   0.328   2.670   0.815  1.2850 -0.2704 -0.1811
  513SOL    HW2 1539   0.228   2.603   0.939  0.6356  0.6605  0.3693
  514SOL     OW 1540   0.643   1.983   0.545  0.5115 -0.4380 -0.1510
  514SOL    HW1 1541   0.741   1.953   0.547 -0.3418 -1.2050  1.5172
  514SOL    HW2 1542   0.601   1.976   0.452 -0.2913 -1.3446 -1.9561
  515SOL     OW 1543   0.448   0.162   2.900  0.2438  0.2693  0.3267
  515SOL    HW1 1544   0.359   0.122   2.917  1.3542  1.6029 -0.5547
  515SOL    HW2 1545   0.497   0.186   2.983  0.3580 -1.4488  0.1497
  516SOL     OW 1546   1.992   3.068   1.324  0.0884  0.2888 -0.0098
  516SOL    HW1 1547   1.974   0.074   1.357  0.9684  1.9098 -2.1883
  516SOL    HW2 1548   2.091   3.057   1.302  0.2293  0.3802  0.7645
  517SOL     OW 1549   1.821   1.583   0.671 -0.1976 -0.2500  0.4059
  517SOL    HW1 1550   1.804   1.676   0.624 -2.0409  0.2124  0.4666
  517SOL    HW2 1551   1.902   1.597   0.729 -2.2017  3.0732  0.0273
  518SOL     OW 1552   1.872   2.867   0.892  0.4851  0.5460 -0.1596
  518SOL    HW1 1553   1.855   2.770   0.869  1.0597  3.1139 -1.4888
  518SOL    HW2 1554   1.884   2.924   0.802 -0.1663  1.0196 -1.1945
  519SOL     OW 1555   0.134   2.398   3.043  0.2631  0.5864  0.4424
  519SOL    HW1 1556   0.052   2.384   2.984 -1.8687  0.5694 -1.6067
  519SOL    HW2 1557   0.219   2.375   2.991 -0.8349 -0.0678  1.0708
  520SOL     OW 1558   2.091   1.839   2.329  0.1216 -0.1120 -0.0759
  520SOL    HW1 1559   2.077   1.929   2.372  0.6815  0.9373  0.5081
  520SOL    HW2 1560   2.045   1.829   2.238 -2.3047  0.2818  1.8147
  521SOL     OW 1561   1.298   3.032   1.948 -0.5292 -0.0907 -0.2676
  521SOL    HW1 1562   1.352   3.002   1.863 -1.0118 -0.6128 -1.1044
  521SOL    HW2 1563   1.206   3.052   1.917 -3.1938 -1.1480 -1.5960
  522SOL     OW 1564   0.417   2.419   2.038 -0.0537 -0.4855 -0.2980
  522SOL    HW1 1565   0.336   2.479   2.022 -0.1657 -2.4025  0.2749
  522SOL    HW2 1566   0.391   2.323   2.052 -0.0099  3.2150  0.9997
  523SOL     OW 1567   0.904   2.233   1.920 -0.9363  0.2387 -0.2256
  523SOL    HW1 1568   0.842   2.309   1.903  0.1225 -3.1282 -0.2184
  523SOL    HW2 1569   0.961   2.245   2.004  0.0240 -0.6583  1.5914
  524SOL     OW 1570   2.182   2.113   0.152  0.8794  0.2925 -0.4165
  524SOL    HW1 1571   2.200   2.152   0.247 -2.0205  1.1974  3.0920
  524SOL    HW2 1572   2.239   2.033   0.138 -1.8862 -0.0734  0.7823
  525SOL     OW 1573   2.746   1.010   2.867  0.4948 -0.0094 -0.8061
  525SOL    HW1 1574   2.668   1.076   2.860 -3.1291  3.1004 -0.3760
  525SOL    HW2 1575   2.808   1.024   2.788  1.1558 -1.5255  1.2458
  526SOL     OW 1576   0.369   2.797   0.722  0.5336 -0.2991  0.0081
  526SOL    HW1 1577   0.465   2.820   0.701 -0.1946  2.0035 -0.8651
  526SOL    HW2 1578   0.299   2.837   0.658 -0.4846  0.5181 -0.8840
  527SOL     OW 1579   0.027   1.012   0.771  0.2399 -0.3149 -0.6592
  527SOL    HW1 1580   0.087   1.030   0.851 -2.3434 -1.9706  0.8945
  527SOL    HW2 1581   3.022   1.051   0.787 -0.0907 -1.7525  0.9087
  528SOL     OW 1582   0.746   1.115   2.457 -0.2998  0.1291 -0.0470
  528SOL    HW1 1583   0.718   1.039   2.516 -0.9500  1.7477 -1.2724
  528SOL    HW2 1584   0.831   1.157   2.483 -4.4916 -3.2408 -0.8796
  529SOL     OW 1585   0.979   1.381   0.258 -0.2461 -0.2901  0.0701
  529SOL    HW1 1586   1.024   1.318   0.190  0.8598  0.4793  2.7776
  529SOL    HW2 1587   0.906   1.430   0.214  3.2591 -0.0564 -1.3836
  530SOL     OW 1588   1.071   0.910   1.876  0.3856 -0.4303  0.2266
  530SOL    HW1 1589   1.032   0.871   1.792 -0.0375 -1.0439  3.3729
  530SOL    HW2 1590   1.100   0.842   1.946 -0.1019  2.7625  0.9263
  531SOL     OW 1591   1.203   2.446   0.096  0.1004  0.6064  0.3231
  531SOL    HW1 1592   1.200   2.445   0.196 -2.0353 -1.8337  0.4834
  531SOL    HW2 1593   1.269   2.519   0.066 -0.5335  0.2874  1.9497
  532SOL     OW 1594   2.419   0.686   2.428 -0.0424 -0.1405  0.0892
  532SOL    HW1 1595   2.488   0.760   2.400  2.4192  3.7252 -0.9003
  532SOL    HW2 1596   2.448   0.646   2.522  1.6369  1.8114  0.4638
  533SOL     OW 1597   0.038   0.019   2.021 -0.1519  0.4785  0.2998
  533SOL    HW1 1598   3.022   0.002   2.022 -0.7469 -0.4376 -1.7064
  533SOL    HW2 1599   0.082   3.086   2.112  0.5979  2.1241  3.4351
  534SOL     OW 1600   2.653   2.978   0.198  0.4413  0.3527 -0.4764
  534SOL    HW1 1601   2.726   3.023   0.146 -1.0635 -0.9503  0.2252
  534SOL    HW2 1602   2.559   3.016   0.184 -1.1873 -3.4607  0.9171
  535SOL     OW 1603   0.496   0.512   0.181 -0.2654 -0.0496 -0.1358
  535SOL    HW1 1604   0.534   0.587   0.237 -1.7731  0.6278  0.7620
  535SOL    HW2 1605   0.393   0.512   0.180  0.4580  0.8611  1.8770
  536SOL     OW 1606   1.335   2.102   1.284 -0.1255  0.2485 -0.6381
  536SOL    HW1 1607   1.261   2.031   1.302 -1.8146 -4.0091 -1.7805
  536SOL    HW2 1608   1.302   2.152   1.204 -1.0499  0.2607  0.9566
  537SOL     OW 1609   2.744   2.369   1.413  0.0185 -0.3461  0.5709
  537SOL    HW1 1610   2.787   2.451   1.465  0.8954  3.3667  2.1376
  537SOL    HW2 1611   2.654   2.354   1.453 -0.4395  2.0724 -2.2758
  538SOL     OW 1612   0.658   2.286   0.416 -0.3563 -0.1337 -0.3569
  538SOL    HW1 1613   0.749   2.292   0.376  1.9394  0.4250  2.0583
  538SOL    HW2 1614   0.658   2.249   0.510 -2.2244 -1.9396 -0.0049
  539SOL     OW 1615   1.990   1.125   2.418  0.0545  0.2986  0.1389
  539SOL    HW1 1616   1.894   1.121   2.448  2.4341 -0.7934  1.6170
  539SOL    HW2 1617   2.002   1.104   2.318 -1.2259 -0.8014 -1.7624
  540SOL     OW 1618   1.792   0.842   3.050 -0.3694  0.1274 -0.1313
  540SOL    HW1 1619   1.867   0.801   0.011  2.2972  0.3848 -3.4918
  540SOL    HW2 1620   1.824   0.868   2.960 -0.8063  0.8846  0.5716
  541SOL     OW 1621   0.324   0.812   2.456 -0.3953  0.3038  0.2982
  541SOL    HW1 1622   0.339   0.711   2.477 -0.1865  0.0010  3.9565
  541SOL    HW2 1623   0.226   0.840   2.469  0.5024 -2.3637  0.3412
  542SOL     OW 1624   1.370   2.574   1.835  0.4450 -0.2564 -0.0278
  542SOL    HW1 1625   1.289   2.510   1.843 -3.3571 -0.9633  0.2727
  542SOL    HW2 1626   1.365   2.625   1.744  1.7083 -1.9788  0.9964
  543SOL     OW 1627   0.704   2.657   0.230 -0.1854  0.3556 -0.2530
  543SOL    HW1 1628   0.665   2.673   0.136 -4.9132 -0.5835 -2.7595
  543SOL    HW2 1629   0.624   2.646   0.296 -2.0717  0.9927  0.3213
  544SOL     OW 1630   2.781   2.025   2.315 -0.4625  0.4085 -0.2113
  544SOL    HW1 1631   2.711   2.098   2.314  2.1579  2.8471  0.8629
  544SOL    HW2 1632   2.864   2.066   2.354 -2.0991 -1.5846 -2.1280
  545SOL     OW 1633   1.509   1.612   1.702 -0.6358 -0.3638  0.3803
  545SOL    HW1 1634   1.511   1.578   1.795  1.0809  0.2481  0.0441
  545SOL    HW2 1635   1.415   1.624   1.670  2.7394  1.9979  0.3995
  546SOL     OW 1636   2.874   0.414   2.772  0.3418 -0.2948  0.1252
  546SOL    HW1 1637   2.894   0.312   2.768 -0.8556 -1.5057 -3.1146
  546SOL    HW2 1638   2.957   0.462   2.807 -0.4060 -4.2443  2.0063
  547SOL     OW 1639   1.461   3.041   1.071 -0.0195 -0.4153 -0.1633
  547SOL    HW1 1640   1.439   3.045   1.169  0.5250  0.2996 -2.8580
  547SOL    HW2 1641   1.546   2.990   1.058 -0.9313 -0.3703  0.4899
  548SOL     OW 1642   1.257   2.070   0.076  0.3380 -0.1431  0.0661
  548SOL    HW1 1643   1.350   2.091   0.114  1.2872  1.3381 -1.0266
  548SOL    HW2 1644   1.211   2.154   0.039 -0.2332 -0.5742  0.0601
  549SOL     OW 1645   2.091   0.609   2.963 -0.1204  0.1295 -0.2987
  549SOL    HW1 1646   2.071   0.573   3.054  0.1531 -0.6047 -3.0691
  549SOL    HW2 1647   2.082   0.712   2.960 -1.0413  0.3961 -0.7064
  550SOL     OW 1648   2.882   2.023   0.855 -0.1501  0.3780  0.5519
  550SOL    HW1 1649   2.799   2.078   0.830  0.3521  0.6994  0.4090
  550SOL    HW2 1650   2.875   1.930   0.812 -0.3676  3.4753  0.1611
  551SOL     OW 1651   0.952   0.053   1.183  0.8037 -0.1457  0.2389
  551SOL    HW1 1652   0.969   0.154   1.199  2.9014 -0.7358  0.1299
  551SOL    HW2 1653   0.853   0.028   1.188 -1.3907  0.5956 -0.6902
  552SOL     OW 1654   3.080   1.642   2.827  0.3481  0.6860 -0.2618
  552SOL    HW1 1655   0.090   1.667   2.835 -2.7005 -0.6161  0.7854
  552SOL    HW2 1656   3.058   1.550   2.868 -1.4096 -3.1555 -0.7440
  553SOL     OW 1657   2.544   2.564   0.343  0.0614 -0.3065  0.5997
  553SOL    HW1 1658   2.596   2.595   0.262  2.8936 -0.8747  0.5061
  553SOL    HW2 1659   2.453   2.613   0.355 -1.9083  1.8232 -0.4619
  554SOL     OW 1660   2.124   1.102   1.594  0.7895 -0.1715  0.4293
  554SOL    HW1 1661   2.034   1.102   1.554  2.0559  4.1133 -0.0363
  554SOL    HW2 1662   2.124   1.029   1.660  1.5669  2.1830 -1.2161
  555SOL     OW 1663   0.718   2.333   2.345 -0.1232 -0.7729  0.2073
  555SOL    HW1 1664   0.766   2.423   2.364 -0.2002  1.9192 -2.3264
  555SOL    HW2 1665   0.775   2.258   2.383 -2.5862 -1.6790 -0.4982
  556SOL     OW 1666   1.217   1.342   1.784  0.0327  0.3148  0.6801
  556SOL    HW1 1667   1.294   1.342   1.846  0.7786 -0.9378 -2.6252
  556SOL    HW2 1668   1.220   1.421   1.724  0.4820 -0.9237  2.8284
  557SOL     OW 1669   1.392   0.026   1.362  0.0580  0.3354  0.2553
  557SOL    HW1 1670   1.422   0.123   1.333 -0.2551  1.2275  2.2299
  557SOL    HW2 1671   1.289   0.011   1.352  0.5864  0.1139  3.0546
  558SOL     OW 1672   0.215   0.549   2.242 -0.3232 -0.0787  0.4370
  558SOL    HW1 1673   0.257   0.474   2.193 -1.4886  3.1649  0.5312
  558SOL    HW2 1674   0.234   0.634   2.188  0.6871 -1.1663  0.1498
  559SOL     OW 1675   1.123   2.808   0.292  0.0052  0.6460  0.4719
  559SOL    HW1 1676   1.107   2.892   0.349 -0.2098  1.9031  0.3426
  559SOL    HW2 1677   1.223   2.786   0.297  1.5073  1.0877 -0.4161
  560SOL     OW 1678   1.514   2.077   0.165  0.3086  0.4793 -0.2630
  560SOL    HW1 1679   1.589   2.023   0.206  3.7444  0.5760  0.5539
  560SOL    HW2 1680   1.554   2.159   0.122  1.0521 -0.7135  0.5664
  561SOL     OW 1681   1.276   3.015   0.673  0.1041 -0.2957  0.1469
  561SOL    HW1 1682   1.314   0.020   0.661 -0.8182  1.8448  0.1458
  561SOL    HW2 1683   1.243   3.009   0.767  3.9581 -1.6400 -0.0332
  562SOL     OW 1684   0.424   0.899   2.221 -0.3410 -0.1516 -0.1346
  562SOL    HW1 1685   0.526   0.908   2.216  0.7155 -1.0662  0.5566
  562SOL    HW2 1686   0.394   0.863   2.309  1.5949  2.0799  0.1145
  563SOL     OW 1687   1.458   2.081   2.670  0.1287  0.3986 -0.2983
  563SOL    HW1 1688   1.468   2.181   2.658 -2.6459  1.7470 -0.4580
  563SOL    HW2 1689   1.548   2.041   2.696 -1.6659 -0.6713 -1.4871
  564SOL     OW 1690   2.608   0.835   1.256  0.9298 -0.3199  0.0584
  564SOL    HW1 1691   2.601   0.936   1.265 -1.3259 -1.7192 -0.2916
  564SOL    HW2 1692   2.523   0.792   1.215  2.7241  0.2516 -1.1273
  565SOL     OW 1693   1.384   1.298   0.332  0.2968 -0.0794 -0.3663
  565SOL    HW1 1694   1.395   1.311   0.233 -1.1923 -0.5288 -1.4591
  565SOL    HW2 1695   1.440   1.371   0.380  3.6160 -1.3943  2.8235
  566SOL     OW 1696   2.262   2.756   0.030  0.3889 -0.0165 -0.0887
  566SOL    HW1 1697   2.330   2.696   0.073  0.7518  0.8008 -0.3292
  566SOL    HW2 1698   2.171   2.759   0.079 -0.0212  0.7009  0.6005
  567SOL     OW 1699   1.665   0.845   1.057 -0.1235 -0.9101  0.0298
  567SOL    HW1 1700   1.728   0.928   1.031  2.0452  1.0633 -2.6942
  567SOL    HW2 1701   1.726   0.775   1.104 -0.8870  2.0851 -1.4561
  568SOL     OW 1702   1.216   1.699   2.388  0.4643  0.3263 -0.2001
  568SOL    HW1 1703   1.115   1.678   2.399 -0.9226 -1.8832  0.6252
  568SOL    HW2 1704   1.239   1.789   2.423 -0.5781 -0.7654  1.2854
  569SOL     OW 1705   2.048   1.616   0.810 -0.4190  0.1226  0.5427
  569SOL    HW1 1706   2.133   1.633   0.761 -0.4807 -0.9675 -0.6004
  569SOL    HW2 1707   2.066   1.607   0.912 -0.4488 -0.0650  2.7436
  570SOL     OW 1708   2.574   2.211   2.294 -0.2728  0.0866  0.0566
  570SOL    HW1 1709   2.574   2.309   2.320  1.6141  0.3481  1.2073
  570SOL    HW2 1710   2.490   2.163   2.334 -1.6052 -2.2956 -0.8859
  571SOL     OW 1711   2.758   1.906   1.806 -0.3569 -0.3677 -0.2013
  571SOL    HW1 1712   2.770   1.935   1.900  0.2614 -0.7231 -1.0222
  571SOL    HW2 1713   2.734   1.978   1.743 -0.0700 -0.4122  0.1590
  572SOL     OW 1714   1.438   2.373   2.845 -0.1556 -0.2460  0.4101
  572SOL    HW1 1715   1.439   2.470   2.865  0.9078  0.7169  1.0298
  572SOL    HW2 1716   1.518   2.338   2.785  1.8180 -0.7259 -1.5518
  573SOL     OW 1717   1.679   2.164   1.018 -0.2017  0.5392 -0.3732
  573SOL    HW1 1718   1.629   2.072   1.018 -4.3752 -1.4461 -0.7561
  573SOL    HW2 1719   1.774   2.147   0.988  1.4223 -0.6288 -0.0592
  574SOL     OW 1720   1.127   2.770   1.422  0.4840  0.6701 -0.5032
  574SOL    HW1 1721   1.031   2.757   1.448 -0.4324  1.1707 -0.4387
  574SOL    HW2 1722   1.146   2.864   1.387  0.8053 -0.8271 -0.3199
  575SOL     OW 1723   0.874   0.442   1.018 -0.3737  0.1849 -0.0548
  575SOL    HW1 1724   0.943   0.402   0.950  1.7227  0.6097  0.2690
  575SOL    HW2 1725   0.928   0.478   1.099  0.9956  1.3755  2.3872
  576SOL     OW 1726   2.396   0.358   1.398  0.2996 -0.1131 -1.0411
  576SOL    HW1 1727   2.481   0.410   1.382 -1.2990 -2.5717  3.5724
  576SOL    HW2 1728   2.413   0.292   1.475 -0.2547  1.1068  1.5583
  577SOL     OW 1729   2.305   0.196   2.849  0.0159 -0.0088  0.1711
  577SOL    HW1 1730   2.353   0.258   2.909  0.3665 -0.9461  1.6709
  577SOL    HW2 1731   2.265   0.240   2.763 -1.2939 -0.3270 -0.1821
  578SOL     OW 1732   1.928   1.811   2.060  0.4706  0.5172  0.3665
  578SOL    HW1 1733   1.865   1.733   2.075 -2.0722  0.8427 -2.2162
  578SOL    HW2 1734   1.904   1.850   1.971 -0.0445  1.2219  1.6026
  579SOL     OW 1735   0.710   1.730   1.106 -0.1519 -0.0058  0.1075
  579SOL    HW1 1736   0.713   1.804   1.038 -0.9739 -0.1290 -2.2909
  579SOL    HW2 1737   0.713   1.639   1.054  0.1302 -1.7217 -2.3587
  580SOL     OW 1738   1.414   2.998   2.779  0.0102 -0.3121 -0.5252
  580SOL    HW1 1739   1.339   3.063   2.769 -0.4630 -0.1310  1.7178
  580SOL    HW2 1740   1.462   2.982   2.690  0.9577 -0.5148 -2.8154
  581SOL     OW 1741   0.665   0.660   2.073 -0.3852 -0.2420 -0.5113
  581SOL    HW1 1742   0.758   0.646   2.037 -1.4988 -1.8888 -0.6140
  581SOL    HW2 1743   0.656   0.634   2.175  2.1456 -2.8847 -1.2846
  582SOL     OW 1744   0.345   0.900   0.480  0.0802 -0.8217  0.4549
  582SOL    HW1 1745   0.343   0.949   0.573 -1.6963  0.8547 -0.0294
  582SOL    HW2 1746   0.433   0.919   0.429  0.6160  1.2671  0.5472
  583SOL     OW 1747   0.847   1.703   1.864 -0.2296 -0.3339 -0.6796
  583SOL    HW1 1748   0.760   1.758   1.885 -6.2863 -0.8885 -0.2897
  583SOL    HW2 1749   0.925   1.737   1.921 -0.6582  1.6598  2.3179
  584SOL     OW 1750   2.346   2.720   0.392  0.7359 -0.5142 -0.3086
  584SOL    HW1 1751   2.261   2.690   0.435  0.9848  0.8323 -1.8149
  584SOL    HW2 1752   2.336   2.820   0.368  1.4766 -0.2474  1.0515
  585SOL     OW 1753   2.266   0.617   2.769 -0.3091 -0.6327 -0.2490
  585SOL    HW1 1754   2.226   0.576   2.684  0.2823  0.6506 -0.8017
  585SOL    HW2 1755   2.201   0.617   2.847  2.1423  1.2662 -1.1046
  586SOL     OW 1756   0.461   1.456   0.348 -0.3510  0.5717  0.3049
  586SOL    HW1 1757   0.535   1.486   0.410 -2.0053  2.2448 -0.7996
  586SOL    HW2 1758   0.414   1.375   0.387 -0.1901  1.2662 -2.6522
  587SOL     OW 1759   1.673   1.860   1.044 -0.1057 -0.2458  0.6611
  587SOL    HW1 1760   1.765   1.835   1.072 -0.6569 -0.7406  1.4983
  587SOL    HW2 1761   1.615   1.862   1.128  1.4904  0.9679  0.1136
  588SOL     OW 1762   0.440   0.574   1.104  0.4363 -0.2953 -0.0574
  588SOL    HW1 1763   0.524   0.559   1.157 -1.0442 -0.1745 -0.2506
  588SOL    HW2 1764   0.438   0.510   1.023 -0.0991 -2.5662  0.1508
  589SOL     OW 1765   1.661   2.832   1.119  0.3052 -0.2722 -0.2772
  589SOL    HW1 1766   1.710   2.836   1.030 -1.0836  1.7124 -0.2215
  589SOL    HW2 1767   1.725   2.838   1.201  3.8474 -2.0191  0.2727
  590SOL     OW 1768   1.310   1.001   0.289 -0.2584  0.5139 -0.1143
  590SOL    HW1 1769   1.295   0.973   0.193 -0.8239 -0.8812  0.1356
  590SOL    HW2 1770   1.376   1.079   0.297  1.4445  0.3531 -0.4379
  591SOL     OW 1771   2.229   2.224   2.172 -0.4447 -0.3059 -0.1271
  591SOL    HW1 1772   2.277   2.224   2.260 -0.8967 -1.3969 -2.4730
  591SOL    HW2 1773   2.270   2.167   2.102 -1.3902  3.4527  1.6290
  592SOL     OW 1774   1.532   1.898   1.285 -0.0684  0.1682 -0.5017
  592SOL    HW1 1775   1.492   1.805   1.292 -0.2388 -1.9706  0.0128
  592SOL    HW2 1776   1.468   1.973   1.301 -0.0468 -0.3427  0.1796
  593SOL     OW 1777   0.612   0.067   0.845  0.2910 -0.3037  0.1798
  593SOL    HW1 1778   0.678   3.081   0.867  3.4302  1.3202  1.3277
  593SOL    HW2 1779   0.645   0.119   0.761  0.8913  0.4421 -0.8027
  594SOL     OW 1780   2.974   0.836   1.818  0.7167  0.4900 -0.2943
  594SOL    HW1 1781   2.975   0.939   1.832 -0.1605 -1.4040  1.3381
  594SOL    HW2 1782   3.030   0.791   1.895  1.7857  1.9085  0.2962
  595SOL     OW 1783   0.140   2.844   0.587  0.0802  0.8661 -0.0039
  595SOL    HW1 1784   0.151   2.780   0.507  2.4379 -1.8432 -0.7739
  595SOL    HW2 1785   0.049   2.835   0.643 -0.2911 -2.3669  1.8923
  596SOL     OW 1786   3.027   0.432   1.617  0.1045  0.2025  0.1663
  596SOL    HW1 1787   3.039   0.534   1.639 -1.4276  3.5318  1.6703
  596SOL    HW2 1788   3.077   0.411   1.532 -0.4297 -1.0098 -0.2954
  597SOL     OW 1789   2.144   0.984   0.322 -0.2780  0.6333 -0.0627
  597SOL    HW1 1790   2.186   0.986   0.229 -1.4156 -0.4006  0.0399
  597SOL    HW2 1791   2.200   1.042   0.389  0.7383  0.5040 -0.5578
  598SOL     OW 1792   0.536   3.078   1.994 -0.3153 -0.1965 -0.0025
  598SOL    HW1 1793   0.453   0.020   1.944  0.0973 -0.0366  2.4506
  598SOL    HW2 1794   0.528   3.071   2.098 -0.8641 -1.1822  1.7407
  599SOL     OW 1795   2.622   1.777   0.244  0.2579 -0.1314  0.3625
  599SOL    HW1 1796   2.602   1.858   0.304  0.4076  0.1788  3.1820
  599SOL    HW2 1797   2.673   1.806   0.158  2.4156 -0.9449  2.4027
  600SOL     OW 1798   1.065   1.216   0.074  0.0964  0.0599  0.1260
  600SOL    HW1 1799   1.026   1.245   3.069 -1.1740 -0.2321 -1.6214
  600SOL    HW2 1800   1.004   1.141   0.110 -3.1017 -0.8007  1.8674
  601SOL     OW 1801   1.340   1.267   0.058 -0.5499  0.2364 -0.2398
  601SOL    HW1 1802   1.345   1.360   0.011 -0.7556 -0.9988 -2.5762
  601SOL    HW2 1803   1.246   1.228   0.055  1.8715  1.9466  0.3611
  602SOL     OW 1804   0.967   2.990   1.565  0.0890 -0.6023 -0.0622
  602SOL    HW1 1805   0.985   2.939   1.654 -0.3089 -0.3994  0.6284
  602SOL    HW2 1806   0.886   3.051   1.570 -0.4341  0.8547 -0.6640
  603SOL     OW 1807   0.747   2.941   2.493  0.1259  0.2850  0.1146
  603SOL    HW1 1808   0.794   2.856   2.516 -1.7684 -1.0406 -0.2104
  603SOL    HW2 1809   0.809   3.024   2.491 -1.8121 -0.6369 -0.3893
  604SOL     OW 1810   2.833   3.074   2.025 -0.1049  0.2398 -0.6244
  604SOL    HW1 1811   2.792   0.079   2.047 -0.0432 -0.7251  1.5000
  604SOL    HW2 1812   2.819   3.009   2.105  0.2702 -2.2733  1.4789
  605SOL     OW 1813   2.570   2.561   1.272 -0.0606  0.3842 -0.1039
  605SOL    HW1 1814   2.540   2.510   1.353  0.5773 -0.5583  0.9990
  605SOL    HW2 1815   2.579   2.659   1.291  0.8273 -1.3005  2.6743
  606SOL     OW 1816   2.932   1.896   2.798 -0.2125 -0.2987  0.1063
  606SOL    HW1 1817   2.936   1.973   2.865 -2.1138  1.3202  1.8423
  606SOL    HW2 1818   2.987   1.816   2.828 -1.9331  0.6669 -0.4251
  607SOL     OW 1819   0.842   0.274   0.679  0.0961  0.0624 -0.0082
  607SOL    HW1 1820   0.886   0.365   0.688  2.1067 -0.6977  0.6778
  607SOL    HW2 1821   0.855   0.213   0.756 -1.4997 -0.1405  3.1022
  608SOL     OW 1822   1.522   1.714   2.299  0.3147 -0.0621  0.3430
  608SOL    HW1 1823   1.425   1.705   2.334 -2.3387 -0.2918 -3.7993
  608SOL    HW2 1824   1.572   1.628   2.328 -1.0914 -0.3773 -2.0138
  609SOL     OW 1825   2.934   0.428   0.963  0.2370  0.2534  0.1065
  609SOL    HW1 1826   2.963   0.410   0.868  0.1874 -1.4305 -0.0623
  609SOL    HW2 1827   3.014   0.432   1.025  2.2578  0.6242 -1.1266
  610SOL     OW 1828   0.731   2.395   3.034 -0.4856  0.1293 -0.6644
  610SOL    HW1 1829   0.822   2.445   3.037  1.6261 -0.0703 -1.7189
  610SOL    HW2 1830   0.738   2.303   3.072 -2.7345 -0.6415 -1.3283
  611SOL     OW 1831   1.784   1.133   0.635 -0.8732  0.2901 -0.0480
  611SOL    HW1 1832   1.829   1.068   0.568 -1.4173  1.3523  0.5167
  611SOL    HW2 1833   1.689   1.113   0.662  0.7157 -1.0143  0.8427
  612SOL     OW 1834   0.852   2.559   2.455 -0.0224  0.0401  0.5421
  612SOL    HW1 1835   0.777   2.587   2.511  1.4303 -1.2232 -0.7664
  612SOL    HW2 1836   0.866   2.621   2.372  1.3518  1.6287 -0.8318
  613SOL     OW 1837   1.190   1.739   0.581  0.4536  0.4241 -0.5075
  613SOL    HW1 1838   1.279   1.723   0.532 -0.5671  0.9033 -0.7599
  613SOL    HW2 1839   1.157   1.835   0.560 -0.7652 -0.4775  0.8170
  614SOL     OW 1840   2.538   2.273   1.734 -0.2991 -0.3107 -0.6568
  614SOL    HW1 1841   2.575   2.185   1.698 -1.3912 -1.9115 -0.4729
  614SOL    HW2 1842   2.467   2.264   1.809 -2.7069 -0.3719 -0.6259
  615SOL     OW 1843   2.525   1.266   0.002  0.3746  0.3556 -0.3896
  615SOL    HW1 1844   2.566   1.361   3.071  0.5290  2.7949  2.3199
  615SOL    HW2 1845   2.424   1.274   0.007  2.2765  1.8328 -1.6501
  616SOL     OW 1846   1.526   0.104   0.843 -0.1941 -0.1051  0.2401
  616SOL    HW1 1847   1.455   0.050   0.891  1.6015  1.2439 -1.3098
  616SOL    HW2 1848   1.605   0.124   0.907 -0.8830 -1.2740  0.3254
  617SOL     OW 1849   0.643   1.228   2.796  1.1622 -0.0759 -0.0613
  617SOL    HW1 1850   0.651   1.326   2.817  0.7341 -2.6071  0.0195
  617SOL    HW2 1851   0.659   1.208   2.697  0.4259 -1.3303  0.1326
  618SOL     OW 1852   0.317   0.671   1.669  0.0236 -0.4988 -0.4941
  618SOL    HW1 1853   0.312   0.716   1.574  0.4720 -0.5520 -1.8084
  618SOL    HW2 1854   0.411   0.673   1.713  1.7681  0.0126 -0.3404
  619SOL     OW 1855   2.791   0.856   1.605  0.3604 -0.1159  0.1733
  619SOL    HW1 1856   2.807   0.786   1.536  1.3158  0.7900  1.4007
  619SOL    HW2 1857   2.848   0.850   1.685 -2.0897  1.0114 -1.4700
  620SOL     OW 1858   2.032   1.288   0.108  0.0858 -0.4060 -0.1243
  620SOL    HW1 1859   1.967   1.211   0.105 -0.7533  3.0338  0.1820
  620SOL    HW2 1860   2.012   1.370   0.053  0.2573 -0.1531  0.9612
  621SOL     OW 1861   2.259   3.031   1.284  0.2711  0.0283 -0.3773
  621SOL    HW1 1862   2.289   0.033   1.238 -1.3452  1.4408 -2.0968
  621SOL    HW2 1863   2.318   3.016   1.370  2.1589 -1.4425  1.4368
  622SOL     OW 1864   1.398   0.602   2.228  0.5450 -0.5920  0.3607
  622SOL    HW1 1865   1.485   0.636   2.181  0.4546  2.4710  1.8255
  622SOL    HW2 1866   1.370   0.661   2.306 -1.1585  0.4077  0.5588
  623SOL     OW 1867   1.053   0.874   2.811 -0.1669  0.1062  0.0000
  623SOL    HW1 1868   0.949   0.874   2.796 -3.2387 -1.7138 -0.5881
  623SOL    HW2 1869   1.086   0.967   2.782 -1.9420  1.6951  0.5723
  624SOL     OW 1870   1.933   0.338   0.716 -0.3010  0.2599  0.1943
  624SOL    HW1 1871   1.904   0.273   0.644  1.0925  2.9833  2.8434
  624SOL    HW2 1872   1.917   0.437   0.692 -0.7858  1.6404  0.7258
  625SOL     OW 1873   0.656   1.569   0.491  0.2018 -0.2891 -0.1699
  625SOL    HW1 1874   0.750   1.522   0.481  3.0585  0.5569 -1.9030
  625SOL    HW2 1875   0.618   1.587   0.585 -2.9219 -0.4838 -1.1831
  626SOL     OW 1876   1.710   1.141   2.488  0.7507  0.1082  0.8017
  626SOL    HW1 1877   1.648   1.158   2.410 -0.4188  2.1249 -0.6505
  626SOL    HW2 1878   1.698   1.222   2.552 -1.4870 -0.3055  1.9923
  627SOL     OW 1879   0.520   0.378   1.724 -0.2131  0.2017 -0.1113
  627SOL    HW1 1880   0.553   0.290   1.769  0.2523 -2.5992  1.5392
  627SOL    HW2 1881   0.438   0.361   1.665  0.5693  1.2962 -0.1666
  628SOL     OW 1882   2.216   0.548   2.497  0.1445 -0.0271 -0.0940
  628SOL    HW1 1883   2.123   0.565   2.457  2.1436  0.7746  0.1012
  628SOL    HW2 1884   2.284   0.620   2.472 -1.4278  0.5447  1.5545
  629SOL     OW 1885   0.787   1.541   0.139 -0.4036  0.2146 -0.1478
  629SOL    HW1 1886   0.765   1.625   0.191  2.0528 -0.8420 -0.7042
  629SOL    HW2 1887   0.801   1.560   0.037  0.2448  0.8428 -1.5152
  630SOL     OW 1888   0.835   0.306   1.995 -0.5145  0.0624  0.4644
  630SOL    HW1 1889   0.868   0.394   1.957  1.0093  1.9599 -1.3063
  630SOL    HW2 1890   0.759   0.320   2.060 -0.4705 -1.5853  0.9705
  631SOL     OW 1891   2.563   1.102   0.948  0.1411  0.0652  0.1957
  631SOL    HW1 1892   2.579   1.082   1.050  1.0075 -0.9248  4.8488
  631SOL    HW2 1893   2.485   1.170   0.937  0.2982 -0.7981 -1.8273
  632SOL     OW 1894   2.429   1.494   0.806 -0.5656 -0.1896 -0.8704
  632SOL    HW1 1895   2.500   1.482   0.734 -1.0520  0.4836  2.4744
  632SOL    HW2 1896   2.348   1.538   0.769  2.9127 -1.5864  1.0954
  633SOL     OW 1897   1.030   1.229   0.996  0.1042  0.2845  0.2375
  633SOL    HW1 1898   0.998   1.217   1.090 -1.1241  0.6052 -3.1044
  633SOL    HW2 1899   1.015   1.327   0.972 -3.0016 -0.8157  0.8639
  634SOL     OW 1900   1.657   3.057   0.581 -0.1317 -0.3274 -0.0543
  634SOL    HW1 1901   1.617   0.001   0.669  0.6151 -0.3427 -0.5326
  634SOL    HW2 1902   1.735   2.993   0.590  1.1852 -1.0395  2.2938
  635SOL     OW 1903   1.891   0.654   1.470 -0.5506  0.5146  0.5455
  635SOL    HW1 1904   1.990   0.688   1.457  2.4483  3.3511  1.1932
  635SOL    HW2 1905   1.884   0.632   1.569  0.1020 -1.6265  0.2340
  636SOL     OW 1906   1.335   0.740   0.656  0.3223  0.0130  0.1083
  636SOL    HW1 1907   1.249   0.749   0.706  0.2660 -1.0296  0.5673
  636SOL    HW2 1908   1.402   0.805   0.692 -0.6850  0.1523 -2.1162
  637SOL     OW 1909   1.644   2.259   3.026 -0.4986 -0.0892 -0.2042
  637SOL    HW1 1910   1.550   2.247   2.997 -0.3214 -1.4463  0.1024
  637SOL    HW2 1911   1.707   2.185   2.992 -0.1883 -0.0254 -0.2353
  638SOL     OW 1912   0.984   0.033   2.831 -0.2126  0.4012  0.2708
  638SOL    HW1 1913   1.008   0.076   2.922 -0.0363 -0.3616 -0.9225
  638SOL    HW2 1914   0.895   0.047   2.792  0.2026 -1.4018  1.9190
  639SOL     OW 1915   1.298   1.852   1.523 -0.3013  0.0955 -0.4128
  639SOL    HW1 1916   1.348   1.786   1.466 -0.3483 -0.6510 -0.5005
  639SOL    HW2 1917   1.216   1.886   1.474 -0.1164  0.8970  0.0064
  640SOL     OW 1918   0.559   2.976   2.793  0.1982 -0.0361  0.0615
  640SOL    HW1 1919   0.538   2.904   2.725 -1.0497 -1.4900  2.9071
  640SOL    HW2 1920   0.483   2.998   2.854  0.7053  1.2219 -2.3948
  641SOL     OW 1921   0.172   0.514   0.200  0.3522  0.3970  0.5202
  641SOL    HW1 1922   0.068   0.509   0.195 -2.7459 -1.1959  0.6450
  641SOL    HW2 1923   0.205   0.531   0.295  1.7512 -2.3017 -3.0628
  642SOL     OW 1924   0.357   1.548   1.130  0.0497 -0.2777  0.7324
  642SOL    HW1 1925   0.414   1.542   1.215  2.7082 -1.8062 -2.4586
  642SOL    HW2 1926   0.391   1.485   1.060 -1.4538 -1.1860 -1.4104
  643SOL     OW 1927   0.456   1.861   2.451 -0.0493 -0.3599 -0.2034
  643SOL    HW1 1928   0.524   1.827   2.386 -0.2569 -1.8813  1.8049
  643SOL    HW2 1929   0.368   1.810   2.438  0.6811  2.2267  2.9732
  644SOL     OW 1930   1.624   2.466   0.139  0.3102 -0.0402 -0.3329
  644SOL    HW1 1931   1.676   2.412   0.077  0.0109  3.7952  1.1365
  644SOL    HW2 1932   1.556   2.525   0.091  1.0688 -0.0534 -1.3403
  645SOL     OW 1933   1.716   2.152   1.690  0.2015 -0.3724 -0.4746
  645SOL    HW1 1934   1.654   2.178   1.771  1.1572  0.8653  0.2369
  645SOL    HW2 1935   1.805   2.194   1.710 -1.3630 -0.7717 -0.0425
  646SOL     OW 1936   0.937   2.602   0.311  0.4070  0.3862 -0.2118
  646SOL    HW1 1937   1.013   2.665   0.282  0.4280  0.9831  0.0325
  646SOL    HW2 1938   0.840   2.629   0.286 -0.7476  0.6962 -1.1200
  647SOL     OW 1939   0.290   2.861   1.977 -0.1164 -0.0685 -0.2283
  647SOL    HW1 1940   0.297   2.911   2.060 -0.4073 -3.9269 -4.5564
  647SOL    HW2 1941   0.353   2.782   1.973  0.4920  1.1190 -1.6953
  648SOL     OW 1942   2.811   1.052   0.853  0.3981  0.0894 -0.0773
  648SOL    HW1 1943   2.837   0.958   0.876  1.7996  0.0785  0.1074
  648SOL    HW2 1944   2.713   1.062   0.868 -3.1988  1.6081 -0.8424
  649SOL     OW 1945   1.988   2.802   2.707  0.2498  0.1067  0.3430
  649SOL    HW1 1946   1.957   2.767   2.614  0.9394 -0.7361  3.1764
  649SOL    HW2 1947   1.973   2.901   2.707 -0.5764 -1.9289 -2.3805
  650SOL     OW 1948   2.237   1.476   1.909  0.0984  0.5145  0.8340
  650SOL    HW1 1949   2.204   1.399   1.858  0.2206  3.3477 -2.3630
  650SOL    HW2 1950   2.324   1.508   1.869 -0.2948  2.5433 -1.7549
  651SOL     OW 1951   1.223   1.767   2.844  0.1788 -0.0762  0.0625
  651SOL    HW1 1952   1.150   1.806   2.900 -0.0496 -0.9235  1.0684
  651SOL    HW2 1953   1.306   1.828   2.846 -1.8502  1.8412  0.2100
  652SOL     OW 1954   0.409   3.058   2.491  0.4666  0.2421  0.0821
  652SOL    HW1 1955   0.446   2.970   2.525  1.3493 -0.3182 -0.6344
  652SOL    HW2 1956   0.449   0.043   2.550  1.9935 -0.5115 -0.2330
  653SOL     OW 1957   2.273   1.943   0.920  0.6199  0.3706 -0.2562
  653SOL    HW1 1958   2.265   1.886   1.007  0.4439 -4.1058 -0.1615
  653SOL    HW2 1959   2.312   2.036   0.933 -3.1255 -0.2475 -3.1218
  654SOL     OW 1960   2.344   2.861   2.146  0.3538  0.4985 -0.1317
  654SOL    HW1 1961   2.321   2.908   2.233 -2.9607  1.2437  0.1141
  654SOL    HW2 1962   2.387   2.927   2.081 -0.0391 -2.4309  1.6297
  655SOL     OW 1963   2.571   2.181   1.128  0.4578  0.4902 -0.3762
  655SOL    HW1 1964   2.606   2.272   1.103  2.2759 -0.5290 -0.4565
  655SOL    HW2 1965   2.477   2.169   1.086  0.8035 -2.6017  3.6664
  656SOL     OW 1966   2.539   1.814   2.843 -0.1616  0.0657 -0.9111
  656SOL    HW1 1967   2.600   1.885   2.878 -0.5470  1.5379 -0.3159
  656SOL    HW2 1968   2.584   1.726   2.810  0.9297 -1.7099  0.6109
  657SOL     OW 1969   0.103   1.216   0.536  0.5670 -0.0721 -0.5224
  657SOL    HW1 1970   0.013   1.198   0.485  2.1979 -2.9649  1.2485
  657SOL    HW2 1971   0.109   1.147   0.609 -1.5893 -1.9498  2.4428
  658SOL     OW 1972   1.547   1.339   1.594  0.1269 -0.3476 -0.3745
  658SOL    HW1 1973   1.516   1.355   1.499  0.7135  2.2848  1.3196
  658SOL    HW2 1974   1.554   1.420   1.654 -1.2035 -1.3853  0.6347
  659SOL     OW 1975   1.119   3.024   1.346  0.3626  0.0029 -0.7166
  659SOL    HW1 1976   1.070   3.070   1.267 -1.3452 -2.3055 -1.1093
  659SOL    HW2 1977   1.059   3.013   1.432 -2.8761 -2.7828  1.2376
  660SOL     OW 1978   2.390   0.712   1.121 -0.2653 -0.0741 -0.4516
  660SOL    HW1 1979   2.432   0.753   1.035  0.2932  1.6892 -2.2778
  660SOL    HW2 1980   2.365   0.612   1.103  0.7168  0.9444 -0.6156
  661SOL     OW 1981   0.509   1.788   0.002 -0.3926  0.1014 -0.4626
  661SOL    HW1 1982   0.562   1.776   0.088 -0.9810  1.2163  0.3166
  661SOL    HW2 1983   0.543   1.863   3.031  0.3058  0.9820  1.7808
  662SOL     OW 1984   2.311   0.751   2.178  0.5957 -0.5331 -0.4455
  662SOL    HW1 1985   2.359   0.720   2.262 -1.0224 -0.9914  0.0703
  662SOL    HW2 1986   2.370   0.791   2.109 -0.4615 -0.1730 -1.7367
  663SOL     OW 1987   1.895   1.159   1.219 -0.0596  0.2023  0.4796
  663SOL    HW1 1988   1.823   1.175   1.147  0.0189 -1.0112  0.7334
  663SOL    HW2 1989   1.987   1.169   1.184 -0.4787 -3.0687  2.4355
  664SOL     OW 1990   0.259   3.054   1.125  0.0700 -0.1433 -0.0070
  664SOL    HW1 1991   0.280   3.034   1.027  1.1710 -0.5198  0.5897
  664SOL    HW2 1992   0.262   2.972   1.182  0.5989 -0.9603  0.7878
  665SOL     OW 1993   1.486   0.431   2.758 -0.3003 -0.0734 -0.6749
  665SOL    HW1 1994   1.573   0.430   2.813  1.5746  2.5012  1.3778
  665SOL    HW2 1995   1.461   0.531   2.743  1.7649  0.1248  1.2739
  666SOL     OW 1996   0.310   0.353   2.090  0.3139 -0.5553 -0.1426
  666SOL    HW1 1997   0.298   0.268   2.139  2.1923 -1.1431 -1.0841
  666SOL    HW2 1998   0.264   0.358   1.996  1.1567  0.9405 -0.4301
  667SOL     OW 1999   1.722   1.632   1.501  0.0133  0.6855 -0.3001
  667SOL    HW1 2000   1.773   1.550   1.527  0.9891  0.8182  2.5690
  667SOL    HW2 2001   1.645   1.639   1.567  0.4114  0.0103  2.9390
  668SOL     OW 2002   0.120   1.510   2.242 -0.1433 -0.4574  0.0273
  668SOL    HW1 2003   0.185   1.446   2.290  0.8381 -2.6927  0.0357
  668SOL    HW2 2004   0.131   1.491   2.139  1.5053 -1.4877  1.2402
  669SOL     OW 2005   2.448   2.503   0.044  0.2176  0.1110 -0.0477
  669SOL    HW1 2006   2.450   2.459   3.034 -0.0222 -0.4689 -3.1510
  669SOL    HW2 2007   2.503   2.586   0.045 -0.8500 -0.1250 -1.7831
  670SOL     OW 2008   2.539   1.378   2.023 -0.1562 -0.0358 -0.7809
  670SOL    HW1 2009   2.559   1.279   2.005  0.6260 -0.3122  2.3207
  670SOL    HW2 2010   2.623   1.437   2.049 -1.2105  4.1069  0.3511
  671SOL     OW 2011   2.521   1.821   0.599 -0.1446 -0.1379 -0.0027
  671SOL    HW1 2012   2.574   1.820   0.687  0.3670  0.4688 -0.3476
  671SOL    HW2 2013   2.565   1.886   0.535  0.6468 -0.5113  2.6738
  672SOL     OW 2014   1.323   1.065   2.125 -0.1497 -0.3080  0.0183
  672SOL    HW1 2015   1.348   0.978   2.068 -0.1774 -2.9047 -2.7848
  672SOL    HW2 2016   1.226   1.070   2.140 -0.8471 -3.4830 -0.0471
  673SOL     OW 2017   2.646   2.061   1.582  0.7401 -0.0630 -0.1051
  673SOL    HW1 2018   2.573   2.112   1.518 -2.9737  3.4609 -2.0319
  673SOL    HW2 2019   2.695   1.992   1.522 -2.0404  1.4720  0.7148
  674SOL     OW 2020   1.265   1.605   1.630 -0.7715  0.1896 -0.8730
  674SOL    HW1 2021   1.226   1.695   1.647 -1.0694  1.8696 -4.1141
  674SOL    HW2 2022   1.212   1.550   1.566  3.0739  0.9508  2.5409
  675SOL     OW 2023   0.079   0.763   1.228  0.8047  0.1441  0.1660
  675SOL    HW1 2024   0.142   0.778   1.148 -0.9701  0.8975  0.9537
  675SOL    HW2 2025   3.065   0.788   1.208 -3.0820 -1.4896 -0.2846
  676SOL     OW 2026   2.995   1.058   1.210  0.3659 -0.1395 -0.0190
  676SOL    HW1 2027   2.943   0.972   1.212  0.0504 -0.0652  0.3046
  676SOL    HW2 2028   2.933   1.140   1.230 -0.4949  0.2741  0.8399
  677SOL     OW 2029   2.130   1.343   2.510 -0.2552 -0.0393 -0.5772
  677SOL    HW1 2030   2.079   1.270   2.460  0.4222  0.6290 -2.0895
  677SOL    HW2 2031   2.152   1.419   2.454  0.7915 -1.1424  0.2927
  678SOL     OW 2032   2.735   1.681   1.157 -0.6349 -0.2298 -0.1074
  678SOL    HW1 2033   2.787   1.642   1.078  3.4779 -1.3955 -0.4851
  678SOL    HW2 2034   2.742   1.783   1.150 -0.2802  0.3454  0.1096
  679SOL     OW 2035   0.529   2.615   0.443  0.0306  0.2855 -0.1043
  679SOL    HW1 2036   0.617   2.617   0.495  1.4710  1.9750 -0.5226
  679SOL    HW2 2037   0.472   2.535   0.471 -2.1048 -0.0510  0.0140
  680SOL     OW 2038   0.300   1.763   0.953 -0.2834  0.3378 -0.0953
  680SOL    HW1 2039   0.268   1.839   1.010 -1.4580 -0.6305 -0.9423
  680SOL    HW2 2040   0.327   1.691   1.022  1.4594  1.2523 -0.6169
  681SOL     OW 2041   0.998   0.068   0.836 -0.9149 -0.3435 -0.3759
  681SOL    HW1 2042   1.020   0.147   0.897  0.9045 -1.5861  0.2596
  681SOL    HW2 2043   1.064   3.081   0.862  3.1474 -1.4002  2.4156
  682SOL     OW 2044   1.912   2.727   1.623 -0.1891  0.6093  0.2260
  682SOL    HW1 2045   1.858   2.644   1.639  1.7915  0.5162  1.3556
  682SOL    HW2 2046   1.883   2.776   1.536 -0.9947  2.1655  0.6478
  683SOL     OW 2047   2.457   1.451   1.525 -0.3116  0.2979 -0.3348
  683SOL    HW1 2048   2.487   1.539   1.482 -0.3598  2.0307 -1.6842
  683SOL    HW2 2049   2.479   1.455   1.627  0.5967 -0.5664  0.8199
  684SOL     OW 2050   2.852   1.575   1.857  0.2320 -0.2660  0.1593
  684SOL    HW1 2051   2.762   1.568   1.812 -1.0883  0.4853 -0.7826
  684SOL    HW2 2052   2.904   1.652   1.811 -3.9789 -0.7304 -2.5822
  685SOL     OW 2053   1.537   1.741   0.175  0.1852  0.0169 -0.0961
  685SOL    HW1 2054   1.610   1.806   0.200 -0.8198  0.1287 -0.0857
  685SOL    HW2 2055   1.515   1.746   0.073  1.1868 -0.2003  0.6343
  686SOL     OW 2056   2.906   0.647   1.460  0.2494 -0.5621 -0.3976
  686SOL    HW1 2057   2.993   0.653   1.513 -1.5679 -0.3015  1.3296
  686SOL    HW2 2058   2.848   0.580   1.509  1.5269 -0.8923  1.3146
  687SOL     OW 2059   1.646   0.123   2.766  0.1986  0.3382 -0.1165
  687SOL    HW1 2060   1.589   0.039   2.767 -0.1102 -0.2092 -2.5357
  687SOL    HW2 2061   1.642   0.177   2.682 -1.9314  1.5487  2.6857
  688SOL     OW 2062   1.291   1.947   2.485  0.6097  0.4687  0.8995
  688SOL    HW1 2063   1.359   1.960   2.558 -0.9658  0.5457 -0.9354
  688SOL    HW2 2064   1.271   2.031   2.430  1.2009 -0.6561  2.7120
  689SOL     OW 2065   2.126   1.248   1.814  0.1683  0.2803 -0.5672
  689SOL    HW1 2066   2.156   1.188   1.889 -1.3408  0.0958  0.3744
  689SOL    HW2 2067   2.113   1.194   1.729 -1.4811 -1.0368 -2.1560
  690SOL     OW 2068   2.229   2.248   1.475 -0.1099  0.2146  0.5403
  690SOL    HW1 2069   2.211   2.249   1.579  0.0906  1.6044  2.2356
  690SOL    HW2 2070   2.155   2.199   1.430  2.1665 -1.2959  1.5711
  691SOL     OW 2071   0.304   1.640   0.484  0.2219  0.3025  0.4614
  691SOL    HW1 2072   0.326   1.697   0.565  1.2739  2.4765  0.8215
  691SOL    HW2 2073   0.389   1.606   0.443 -0.0837 -0.5192  0.9745
  692SOL     OW 2074   2.875   2.797   2.570 -0.0824 -0.2072 -0.5947
  692SOL    HW1 2075   2.792   2.797   2.514 -1.1234  0.8622 -0.3036
  692SOL    HW2 2076   2.946   2.727   2.538  3.4658 -1.6117  0.8326
  693SOL     OW 2077   0.158   1.454   1.980  0.2713  0.1315  0.1160
  693SOL    HW1 2078   0.135   1.485   1.884 -1.4376  2.2310 -2.8723
  693SOL    HW2 2079   0.212   1.368   1.985  0.8580 -0.8853  1.4787
  694SOL     OW 2080   2.496   0.187   2.075 -0.0322  0.6156  0.3433
  694SOL    HW1 2081   2.583   0.235   2.066 -1.0118 -1.4107 -0.0701
  694SOL    HW2 2082   2.425   0.250   2.102  0.9726 -2.5220  1.4799
  695SOL     OW 2083   1.151   0.816   2.333 -0.0180  0.0836  0.1390
  695SOL    HW1 2084   1.244   0.856   2.340 -0.7491  0.8102  0.4515
  695SOL    HW2 2085   1.081   0.883   2.301 -3.4558 -0.2257 -0.6451
  696SOL     OW 2086   2.127   2.877   1.490  0.0959 -0.3594  0.0628
  696SOL    HW1 2087   2.065   2.838   1.559  0.3875  1.8435  1.3651
  696SOL    HW2 2088   2.076   2.946   1.433  1.1865 -1.6232 -0.6646
  697SOL     OW 2089   1.106   0.279   2.082  0.5702  0.1700  0.3535
  697SOL    HW1 2090   1.116   0.179   2.112  0.2337  0.2861  1.8117
  697SOL    HW2 2091   1.009   0.303   2.062 -0.5009  0.4572  1.9560
  698SOL     OW 2092   2.348   1.798   2.492  0.0743 -0.2884 -0.0694
  698SOL    HW1 2093   2.356   1.845   2.404 -1.3159 -3.1696  2.3685
  698SOL    HW2 2094   2.425   1.731   2.497 -1.0165  2.4662 -0.5858
  699SOL     OW 2095   1.956   0.542   0.111 -0.0080  0.5101  0.0980
  699SOL    HW1 2096   1.958   0.622   0.168 -0.3535 -1.7227  1.6286
  699SOL    HW2 2097   1.869   0.494   0.125 -1.0367  0.0781 -0.5017
  700SOL     OW 2098   1.230   2.992   0.948  0.0651 -0.1021  0.2198
  700SOL    HW1 2099   1.308   3.016   1.011  0.8704 -0.3503  2.4337
  700SOL    HW2 2100   1.184   2.908   0.989  0.5349 -2.0383 -1.0820
  701SOL     OW 2101   2.981   0.602   0.481  0.3315 -0.4269  0.2285
  701SOL    HW1 2102   2.910   0.645   0.538 -0.5194  1.4654 -1.1102
  701SOL    HW2 2103   3.062   0.664   0.487 -2.1001 -0.9389  0.4761
  702SOL     OW 2104   1.598   2.962   1.476 -0.1306  0.3281 -0.0314
  702SOL    HW1 2105   1.523   3.016   1.429 -0.6782 -2.2317 -3.6728
  702SOL    HW2 2106   1.639   3.010   1.553 -2.2949  0.4895 -2.3714
  703SOL     OW 2107   2.882   0.806   1.234  0.0679  0.0877  0.3339
  703SOL    HW1 2108   2.779   0.812   1.232 -0.1638  3.5274 -1.8122
  703SOL    HW2 2109   2.912   0.730   1.299  0.5748  2.4445  1.4553
  704SOL     OW 2110   0.882   2.681   1.484  0.2608 -0.6910 -0.0216
  704SOL    HW1 2111   0.903   2.586   1.472  3.4797  0.0199 -2.1556
  704SOL    HW2 2112   0.810   2.696   1.553  1.5127 -0.3144 -1.1046
  705SOL     OW 2113   0.219   1.893   2.960  0.6432  0.1864 -0.2117
  705SOL    HW1 2114   0.226   1.814   2.890 -2.7861 -1.4697  2.7685
  705SOL    HW2 2115   0.300   1.895   3.015 -1.9516 -0.5209 -2.3668
  706SOL     OW 2116   0.003   0.035   3.024  0.6794 -0.2095 -0.2112
  706SOL    HW1 2117   0.027   0.131   3.052  0.6906  3.5978  0.9815
  706SOL    HW2 2118   0.075   3.067   3.065 -0.8020  0.7077  0.5246
  707SOL     OW 2119   1.577   2.935   2.116  0.4391 -0.5606 -0.5689
  707SOL    HW1 2120   1.523   3.022   2.126 -1.8569  3.4090 -2.0239
  707SOL    HW2 2121   1.635   2.938   2.030 -0.3152  0.4998  0.1191
  708SOL     OW 2122   0.341   2.988   1.572 -0.1735  0.3256  0.0948
  708SOL    HW1 2123   0.289   3.069   1.540  0.5995 -0.7371  0.1202
  708SOL    HW2 2124   0.278   2.905   1.578  2.1666 -0.1057 -0.9918
  709SOL     OW 2125   0.035   0.696   1.647 -0.5818  0.3044 -0.3732
  709SOL    HW1 2126   0.122   0.677   1.687 -1.0735  1.2239 -0.8503
  709SOL    HW2 2127   3.075   0.764   1.705  0.1936  1.0916 -0.7547
  710SOL     OW 2128   0.345   1.085   0.708 -0.2337 -0.7089 -0.7797
  710SOL    HW1 2129   0.428   1.150   0.724  1.0777  2.5585  2.1326
  710SOL    HW2 2130   0.298   1.081   0.797  1.8017  0.5416  0.1832
  711SOL     OW 2131   2.515   2.726   1.744  0.0440  0.3180  0.2373
  711SOL    HW1 2132   2.446   2.712   1.819 -0.7877  0.3270 -0.4059
  711SOL    HW2 2133   2.572   2.803   1.766 -1.4441 -0.5434 -2.5503
  712SOL     OW 2134   0.228   2.521   2.321  0.5595  0.0002  0.4166
  712SOL    HW1 2135   0.139   2.480   2.291 -0.5057  4.8750 -0.1456
  712SOL    HW2 2136   0.298   2.449   2.328 -1.4750  2.4157 -1.8904
  713SOL     OW 2137   2.706   0.285   0.620  0.1318  0.0206 -0.0712
  713SOL    HW1 2138   2.638   0.312   0.551  3.1176  1.0673  0.8300
  713SOL    HW2 2139   2.799   0.283   0.572  2.1197 -0.8819 -0.5884
  714SOL     OW 2140   1.775   1.899   2.509 -0.2964  0.3389 -0.0124
  714SOL    HW1 2141   1.706   1.923   2.437  0.8676  2.3359 -2.1719
  714SOL    HW2 2142   1.860   1.959   2.508  0.2991 -0.2537 -0.7936
  715SOL     OW 2143   0.120   0.677   0.788  0.1401 -0.0677  0.1605
  715SOL    HW1 2144   0.098   0.581   0.778  1.9421  0.5155  1.5778
  715SOL    HW2 2145   0.117   0.728   0.699 -1.1212  1.5379 -1.8148
  716SOL     OW 2146   0.751   0.505   1.614 -0.6306 -0.0241  0.1859
  716SOL    HW1 2147   0.748   0.588   1.555  0.6797  0.6417  0.1600
  716SOL    HW2 2148   0.661   0.460   1.621  1.5328 -0.9560 -0.4976
  717SOL     OW 2149   0.634   0.579   2.345  0.6299  0.8543  0.0826
  717SOL    HW1 2150   0.625   0.495   2.284  1.6413  0.5371 -0.8671
  717SOL    HW2 2151   0.618   0.539   2.434  0.3872 -0.8041 -4.3639
  718SOL     OW 2152   1.247   0.175   0.558 -0.4282 -0.2582 -0.0124
  718SOL    HW1 2153   1.249   0.258   0.620 -0.1800 -0.2200 -3.2665
  718SOL    HW2 2154   1.151   0.157   0.527  2.2169  2.9505 -0.3121
  719SOL     OW 2155   3.037   2.386   2.830 -0.3053 -0.3146 -0.2379
  719SOL    HW1 2156   2.955   2.327   2.849 -0.3887 -1.7679  0.3542
  719SOL    HW2 2157   3.010   2.482   2.816  0.4143 -1.1932  0.4482
  720SOL     OW 2158   0.960   0.359   1.704  0.4324 -0.3006 -0.6613
  720SOL    HW1 2159   1.025   0.426   1.725 -3.1432 -0.5772 -0.5228
  720SOL    HW2 2160   0.881   0.400   1.657  0.5734 -1.2210 -0.9429
  721SOL     OW 2161   2.985   2.844   0.708  0.0941  0.0895 -0.1855
  721SOL    HW1 2162   2.986   2.809   0.802 -1.5886 -0.6783 -0.5395
  721SOL    HW2 2163   2.943   2.936   0.718  1.4583 -0.7722  3.0556
  722SOL     OW 2164   0.930   1.315   2.958 -0.5404  0.4451  0.1383
  722SOL    HW1 2165   0.899   1.403   2.994 -0.4560  1.2706  0.6062
  722SOL    HW2 2166   0.857   1.271   2.906  0.9685 -1.0041  1.6111
  723SOL     OW 2167   2.425   1.024   1.449 -0.0783 -0.3839 -0.0307
  723SOL    HW1 2168   2.478   1.066   1.378 -2.1810 -1.5505  0.1194
  723SOL    HW2 2169   2.350   0.967   1.413  1.9350 -0.8779  1.5115
  724SOL     OW 2170   0.909   1.979   0.270 -0.3127 -0.0246  0.7922
  724SOL    HW1 2171   0.946   1.908   0.206 -2.0001  2.5816 -2.2210
  724SOL    HW2 2172   0.986   1.990   0.340  2.5048 -1.2712  2.1590
  725SOL     OW 2173   0.293   0.769   1.416  0.1513  0.2155  0.4850
  725SOL    HW1 2174   0.378   0.775   1.363 -0.6919 -0.0265  1.8007
  725SOL    HW2 2175   0.211   0.781   1.354 -1.2990 -0.1490 -1.6411
  726SOL     OW 2176   2.534   1.176   2.846 -0.2550  0.6631 -0.6984
  726SOL    HW1 2177   2.525   1.182   2.948 -0.2646 -2.8236 -0.2483
  726SOL    HW2 2178   2.501   1.258   2.801  2.1392 -2.1921  1.0512
  727SOL     OW 2179   1.886   1.173   2.839  0.0356  0.7242 -0.2194
  727SOL    HW1 2180   1.844   1.227   2.912  2.7972 -0.7568 -1.5503
  727SOL    HW2 2181   1.921   1.240   2.766 -0.9102  3.4460 -0.8659
  728SOL     OW 2182   1.868   2.333   1.255  0.4267  0.4586  0.2036
  728SOL    HW1 2183   1.892   2.430   1.281  1.0174  1.0573  0.3404
  728SOL    HW2 2184   1.855   2.324   1.153 -1.6211 -1.7624  0.4176
  729SOL     OW 2185   1.891   0.772   2.198 -0.0725  0.5240  0.1553
  729SOL    HW1 2186   1.957   0.726   2.130  0.3467 -1.6120  1.2559
  729SOL    HW2 2187   1.860   0.860   2.153 -0.6901  1.8909  0.6455
  730SOL     OW 2188   1.296   0.410   1.011  0.0176  0.1038  0.5969
  730SOL    HW1 2189   1.310   0.514   1.021  0.0052  0.6967  1.6904
  730SOL    HW2 2190   1.260   0.381   1.105 -1.6644  0.4933  3.2239
  731SOL     OW 2191   0.640   0.601   2.804  0.2629 -0.7516 -0.6710
  731SOL    HW1 2192   0.718   0.659   2.803 -2.6537 -3.4370  0.8346
  731SOL    HW2 2193   0.558   0.657   2.812 -0.7007  0.9872  3.0865
  732SOL     OW 2194   0.738   0.861   0.614 -0.1494  0.0304  0.6980
  732SOL    HW1 2195   0.815   0.929   0.629 -0.9698 -2.9698 -3.0222
  732SOL    HW2 2196   0.667   0.901   0.547 -1.8853  0.9421  0.3011
  733SOL     OW 2197   1.478   1.563   1.979  0.2048 -0.7325  0.6041
  733SOL    HW1 2198   1.389   1.581   2.030 -3.3783  2.3569 -0.1076
  733SOL    HW2 2199   1.496   1.462   1.978 -1.7296  1.5546  0.0110
  734SOL     OW 2200   0.327   2.408   2.840  0.1293 -0.0241 -0.0919
  734SOL    HW1 2201   0.257   2.409   2.765 -0.7248  1.9979  1.9608
  734SOL    HW2 2202   0.414   2.411   2.786 -1.5343 -1.9025  0.8989
  735SOL     OW 2203   2.613   0.476   0.807 -0.6231 -0.8262 -0.5361
  735SOL    HW1 2204   2.532   0.510   0.763  1.8936  0.7736  0.6042
  735SOL    HW2 2205   2.669   0.414   0.749 -0.3866 -1.1795 -0.0993
  736SOL     OW 2206   2.193   1.560   2.344 -0.1304  0.0486 -0.3784
  736SOL    HW1 2207   2.281   1.572   2.293 -2.6039  1.2542  0.4970
  736SOL    HW2 2208   2.164   1.656   2.370 -0.3064  0.0790  0.8294
  737SOL     OW 2209   2.996   0.489   0.212  0.1358 -0.0609 -0.1721
  737SOL    HW1 2210   2.914   0.512   0.153  0.4911 -0.7524 -1.3651
  737SOL    HW2 2211   2.992   0.543   0.297  2.7665  0.6187 -3.0852
  738SOL     OW 2212   0.788   1.947   1.307 -0.4665  0.1023 -0.3842
  738SOL    HW1 2213   0.813   2.011   1.383 -0.2794  2.4283 -1.0274
  738SOL    HW2 2214   0.692   1.958   1.276  0.6763 -3.0466 -2.0059
  739SOL     OW 2215   1.270   2.752   2.064 -0.3423 -0.0718  0.3063
  739SOL    HW1 2216   1.287   2.704   1.974 -0.3647 -0.6478  0.8548
  739SOL    HW2 2217   1.297   2.849   2.071 -0.6767 -1.2919 -0.4474
  740SOL     OW 2218   2.176   2.517   1.382  0.4710  0.4707  0.2505
  740SOL    HW1 2219   2.183   2.417   1.400 -0.3362 -2.0326  0.4040
  740SOL    HW2 2220   2.227   2.563   1.456 -1.5170 -2.5080 -0.4845
  741SOL     OW 2221   2.196   0.489   0.213  0.4052  0.0899 -0.0441
  741SOL    HW1 2222   2.201   0.442   0.306  0.7178 -1.9307  2.4854
  741SOL    HW2 2223   2.100   0.514   0.193 -0.8751 -0.1380 -1.6709
  742SOL     OW 2224   1.376   2.633   0.018  0.1331 -0.2397 -0.3025
  742SOL    HW1 2225   1.404   2.714   0.069 -0.3290 -2.6127 -0.7478
  742SOL    HW2 2226   1.346   2.655   3.012  1.9238 -1.0839  0.9712
  743SOL     OW 2227   2.331   1.042   2.199 -0.8705  0.0655  0.2089
  743SOL    HW1 2228   2.292   0.957   2.244 -0.1720 -0.0729 -1.0782
  743SOL    HW2 2229   2.403   1.085   2.257  1.4734  2.2839  0.5645
  744SOL     OW 2230   2.942   0.225   0.289  0.1863 -0.6252 -0.0686
  744SOL    HW1 2231   2.904   0.143   0.243  0.3538 -0.5119  0.8106
  744SOL    HW2 2232   2.908   0.315   0.252 -0.6690  3.1871  1.0112
  745SOL     OW 2233   2.236   1.292   1.438 -0.1321  0.5728 -0.1554
  745SOL    HW1 2234   2.221   1.213   1.508 -0.6301 -0.6700 -1.9081
  745SOL    HW2 2235   2.320   1.340   1.466 -2.1681 -0.2208 -1.2164
  746SOL     OW 2236   1.013   1.488   0.894  0.4516 -0.5948 -0.1374
  746SOL    HW1 2237   1.070   1.562   0.934 -0.2999  2.9804 -0.1901
  746SOL    HW2 2238   1.057   1.458   0.809  0.6819  0.6356 -0.0124
  747SOL     OW 2239   1.074   1.447   1.482  0.5488 -0.1260 -0.3078
  747SOL    HW1 2240   0.982   1.477   1.523 -1.8603  0.3367 -1.7976
  747SOL    HW2 2241   1.073   1.351   1.453 -0.6718 -2.2070 -0.4205
  748SOL     OW 2242   0.241   2.960   2.843  0.2442  0.1073 -0.1439
  748SOL    HW1 2243   0.224   3.025   2.766 -0.5599  1.7944  0.7049
  748SOL    HW2 2244   0.171   2.884   2.843 -1.0332 -1.5985  2.5617
  749SOL     OW 2245   0.058   1.078   2.837 -0.0231  0.0557 -0.2649
  749SOL    HW1 2246   3.067   1.093   2.902 -2.3552 -1.9563 -0.6534
  749SOL    HW2 2247   0.025   1.107   2.744 -0.8706  0.3186 -0.3615
  750SOL     OW 2248   1.420   0.867   1.944 -0.3065  0.2863 -0.5170
  750SOL    HW1 2249   1.448   0.860   1.848 -0.5062 -1.2671  1.7968
  750SOL    HW2 2250   1.468   0.798   2.001  0.1702  2.1717 -0.6838
  751SOL     OW 2251   2.652   0.742   0.411  0.2478 -0.3403  0.4299
  751SOL    HW1 2252   2.670   0.720   0.315 -2.5846 -1.1966  0.1238
  751SOL    HW2 2253   2.577   0.686   0.442  2.4457  2.6503  0.9294
  752SOL     OW 2254   2.555   2.963   1.072  0.0479  0.1943 -0.5163
  752SOL    HW1 2255   2.505   3.048   1.090 -0.1826  1.1044 -1.8049
  752SOL    HW2 2256   2.527   2.918   0.985  1.8149  0.0045  0.7962
  753SOL     OW 2257   0.891   2.317   1.200 -0.2886 -0.1070  0.2257
  753SOL    HW1 2258   0.938   2.370   1.273  2.5297  1.2364  0.2027
  753SOL    HW2 2259   0.911   2.217   1.196  1.5536 -1.5971 -1.1454
  754SOL     OW 2260   2.986   2.734   2.119 -0.3287  0.1930 -0.0644
  754SOL    HW1 2261   2.993   2.825   2.169 -1.5356  0.6141  0.6597
  754SOL    HW2 2262   3.046   2.727   2.041 -1.3049  2.5125  1.4160
  755SOL     OW 2263   2.391   0.621   0.054 -0.2159  0.1567  0.4455
  755SOL    HW1 2264   2.427   0.715   0.055 -1.3339 -4.5559  0.8290
  755SOL    HW2 2265   2.334   0.595   0.133  0.2960  1.2280  0.1435
  756SOL     OW 2266   1.943   2.471   0.104  0.3416  0.0702 -0.2974
  756SOL    HW1 2267   1.950   2.570   0.120 -1.7833 -0.5783  1.4177
  756SOL    HW2 2268   2.029   2.424   0.081  1.7462 -1.1051  1.6070
  757SOL     OW 2269   2.511   0.243   0.424 -0.8701  0.2998 -0.2764
  757SOL    HW1 2270   2.414   0.259   0.420  2.1326  0.0758  0.4854
  757SOL    HW2 2271   2.532   0.147   0.450  1.3157 -3.0734  0.4063
  758SOL     OW 2272   2.114   0.802   1.775 -0.0239 -0.6750 -0.2568
  758SOL    HW1 2273   2.016   0.779   1.771 -1.6737  0.9859 -3.1044
  758SOL    HW2 2274   2.174   0.742   1.722 -0.6830  2.4536  3.2846
  759SOL     OW 2275   2.575   0.563   1.327  0.2601 -0.5172  0.4337
  759SOL    HW1 2276   2.627   0.653   1.342  1.2181  0.2122  1.6046
  759SOL    HW2 2277   2.595   0.528   1.234 -1.4929 -1.4938 -1.9002
  760SOL     OW 2278   0.382   1.244   1.388 -1.1991  0.4273 -0.0489
  760SOL    HW1 2279   0.405   1.166   1.449  1.4252  1.0767 -0.4360
  760SOL    HW2 2280   0.290   1.242   1.348 -1.7476  1.1963 -3.3573
  761SOL     OW 2281   1.229   0.548   3.061  0.1812 -0.3707 -0.0456
  761SOL    HW1 2282   1.206   0.530   2.965 -1.8038 -2.4711  1.9213
  761SOL    HW2 2283   1.188   0.633   0.004 -0.3027 -0.0509  1.9613
  762SOL     OW 2284   1.108   1.948   1.332 -0.3596  0.1764 -0.2414
  762SOL    HW1 2285   1.093   1.891   1.247 -0.5291 -2.0633  0.2809
  762SOL    HW2 2286   1.030   1.939   1.394 -1.0631  1.9712 -0.4736
  763SOL     OW 2287   1.216   0.642   1.457 -0.3213 -0.0571 -0.8585
  763SOL    HW1 2288   1.287   0.653   1.530 -1.8555 -1.6609 -0.5849
  763SOL    HW2 2289   1.173   0.726   1.428  0.0412 -3.1663  1.1270
  764SOL     OW 2290   0.316   2.637   2.970 -0.3742  0.5494  0.5204
  764SOL    HW1 2291   0.308   2.548   2.919 -3.9959 -1.7932  0.3214
  764SOL    HW2 2292   0.236   2.695   2.952  0.7852 -3.3459  0.3855
  765SOL     OW 2293   0.669   2.745   1.632  0.1671 -0.4041 -0.0410
  765SOL    HW1 2294   0.674   2.759   1.736  1.0382 -1.4599  2.7959
  765SOL    HW2 2295   0.646   2.833   1.583 -1.7124  2.2295 -0.5088
  766SOL     OW 2296   2.565   1.765   2.070 -0.2754 -0.1988  0.3860
  766SOL    HW1 2297   2.490   1.816   2.104  2.2753 -1.7128 -0.1544
  766SOL    HW2 2298   2.647   1.825   2.067  0.0319  0.0111  0.4880
  767SOL     OW 2299   1.505   1.205   2.296  0.2779  0.3618  0.1696
  767SOL    HW1 2300   1.455   1.242   2.373  0.3166 -1.7841 -0.5346
  767SOL    HW2 2301   1.441   1.153   2.232 -0.2852  1.6815 -0.2178
  768SOL     OW 2302   1.733   1.910   0.286  0.2831  0.1602  0.0754
  768SOL    HW1 2303   1.738   1.872   0.380 -1.7154  2.4428 -0.5715
  768SOL    HW2 2304   1.827   1.910   0.251  0.3302  0.8204 -1.4654
  769SOL     OW 2305   0.540   1.569   0.727  0.2064  0.4871  0.0435
  769SOL    HW1 2306   0.495   1.660   0.721  2.1036 -1.2431 -2.4339
  769SOL    HW2 2307   0.561   1.541   0.818  1.1424 -1.1150 -6.8961
  770SOL     OW 2308   1.419   0.881   2.335 -0.2647 -0.0629  0.2666
  770SOL    HW1 2309   1.505   0.894   2.386 -0.5139  1.2116 -0.7826
  770SOL    HW2 2310   1.412   0.949   2.262 -2.8047  0.6518 -1.2936
  771SOL     OW 2311   2.752   3.018   2.301 -0.1469  0.2404  0.5525
  771SOL    HW1 2312   2.715   0.018   2.347  0.4991  0.0208 -0.6980
  771SOL    HW2 2313   2.704   2.935   2.337  0.7097 -0.3018  0.9524
  772SOL     OW 2314   2.362   1.899   2.222  0.3696  0.0332 -0.2802
  772SOL    HW1 2315   2.266   1.871   2.244 -4.5347  0.1317  0.4456
  772SOL    HW2 2316   2.363   1.973   2.156 -0.0291 -1.7612  2.0719
  773SOL     OW 2317   0.614   1.355   1.598  0.0113 -0.1161  0.2194
  773SOL    HW1 2318   0.601   1.253   1.608  3.0029 -2.6065  1.4948
  773SOL    HW2 2319   0.659   1.382   1.508  1.1618 -0.1912 -0.7447
  774SOL     OW 2320   1.350   0.967   0.010  0.1071 -0.0874 -0.1654
  774SOL    HW1 2321   1.359   1.014   3.011  0.7829 -3.4099  3.8933
  774SOL    HW2 2322   1.268   0.907   0.015  0.8703 -1.1769  1.9399
  775SOL     OW 2323   1.804   2.476   2.952 -0.0403  0.2478  0.0132
  775SOL    HW1 2324   1.872   2.466   3.032 -0.7398  0.7831  2.2180
  775SOL    HW2 2325   1.746   2.391   2.957  0.6148  0.7355 -1.0502
  776SOL     OW 2326   0.166   1.054   1.738  0.0903  0.2204  0.4917
  776SOL    HW1 2327   0.137   1.005   1.819  0.0231 -0.6387  0.1540
  776SOL    HW2 2328   0.090   1.088   1.682 -0.8167 -1.8647 -0.0658
  777SOL     OW 2329   2.385   2.063   2.003 -0.1727  0.0999 -0.0196
  777SOL    HW1 2330   2.468   2.119   1.989 -2.5081  0.0793 -0.2434
  777SOL    HW2 2331   2.356   2.005   1.929 -0.7766 -0.4450  2.0839
  778SOL     OW 2332   1.750   0.968   2.079  0.0546 -0.8048 -0.0442
  778SOL    HW1 2333   1.711   1.031   2.007 -0.6661  2.7571 -2.5147
  778SOL    HW2 2334   1.834   1.018   2.100 -0.7712 -0.7490 -0.7535
  779SOL     OW 2335   2.883   1.126   0.183 -0.0467 -0.1471 -0.4916
  779SOL    HW1 2336   2.901   1.027   0.156 -0.1517 -1.5197 -2.5407
  779SOL    HW2 2337   2.781   1.147   0.197 -2.1885  0.3220 -0.3212
  780SOL     OW 2338   2.230   3.041   2.790  0.1751  0.2550 -0.1455
  780SOL    HW1 2339   2.144   3.061   2.742  0.6941  1.1872 -0.4520
  780SOL    HW2 2340   2.269   0.043   2.817  0.8870 -0.2582 -3.3635
  781SOL     OW 2341   2.927   1.458   1.248  0.0333 -0.1266  0.1657
  781SOL    HW1 2342   3.004   1.459   1.181  1.7085  0.1757  1.2869
  781SOL    HW2 2343   2.873   1.542   1.252 -3.7911  1.2787  2.5485
  782SOL     OW 2344   2.624   2.143   0.059  0.0531  0.1639 -0.2370
  782SOL    HW1 2345   2.691   2.223   0.043  0.9932  3.2533  0.7798
  782SOL    HW2 2346   2.557   2.149   3.073  3.7565  0.6756  3.8110
  783SOL     OW 2347   0.734   1.486   0.950 -0.4442 -0.2374  0.0348
  783SOL    HW1 2348   0.709   1.386   0.977 -1.6789 -2.0265  3.1176
  783SOL    HW2 2349   0.837   1.483   0.923  1.3672  0.0801 -0.7034
  784SOL     OW 2350   2.622   1.102   0.207 -0.3378 -0.0121 -0.4150
  784SOL    HW1 2351   2.594   1.174   0.141 -0.8388  0.5491  2.7946
  784SOL    HW2 2352   2.567   1.108   0.289  2.1006 -0.2617 -2.9485
  785SOL     OW 2353   2.087   2.628   0.485  0.2481 -0.2053 -0.5254
  785SOL    HW1 2354   2.078   2.640   0.588  0.8047 -0.0702  1.8218
  785SOL    HW2 2355   2.064   2.531   0.462 -1.7577  0.3642 -0.4716
  786SOL     OW 2356   0.664   2.187   2.641 -0.0939 -0.1456  0.0027
  786SOL    HW1 2357   0.717   2.112   2.593  2.6243  1.8909  0.9335
  786SOL    HW2 2358   0.565   2.164   2.656 -0.5018  0.8794  2.1500
  787SOL     OW 2359   1.431   0.529   1.295  0.1879 -0.3689  0.2364
  787SOL    HW1 2360   1.364   0.549   1.371 -0.7555 -0.8219  1.5120
  787SOL    HW2 2361   1.407   0.600   1.227 -1.1274 -3.9045 -1.1413
  788SOL     OW 2362   0.546   0.845   0.182  0.8777 -0.1328 -0.8861
  788SOL    HW1 2363   0.526   0.784   0.259 -2.4780 -2.4248 -1.8367
  788SOL    HW2 2364   0.493   0.934   0.185 -0.5290  0.4573 -1.6957
  789SOL     OW 2365   2.835   1.934   1.417 -0.0170 -0.3609 -0.3520
  789SOL    HW1 2366   2.925   1.893   1.420 -0.5760 -1.3700  2.7004
  789SOL    HW2 2367   2.805   1.966   1.327 -1.5661 -0.9654  0.7172
  790SOL     OW 2368   1.324   0.341   1.920  0.1857 -0.0252  0.3552
  790SOL    HW1 2369   1.384   0.361   1.999 -1.5452  0.4769  2.8158
  790SOL    HW2 2370   1.233   0.305   1.945  0.7205  1.1493 -1.9437
  791SOL     OW 2371   1.211   0.559   0.401  0.0471 -0.2216  0.0650
  791SOL    HW1 2372   1.285   0.517   0.348  0.8529 -1.8191 -0.8546
  791SOL    HW2 2373   1.214   0.662   0.390  0.4014 -0.3442  0.7485
  792SOL     OW 2374   1.397   2.959   1.704  0.0386 -0.3786  0.2940
  792SOL    HW1 2375   1.354   2.884   1.651 -0.7027  0.3680  0.6343
  792SOL    HW2 2376   1.498   2.937   1.703  0.8588 -1.0472 -1.1374
  793SOL     OW 2377   0.784   2.960   0.849  0.7346  0.6469  0.3070
  793SOL    HW1 2378   0.857   3.023   0.831 -1.6101 -1.2662  0.3329
  793SOL    HW2 2379   0.808   2.901   0.927  0.2899  0.4060  0.5081
  794SOL     OW 2380   0.506   1.184   2.100  0.1957  0.1591  0.3039
  794SOL    HW1 2381   0.558   1.097   2.071 -0.1503 -1.3090 -1.5046
  794SOL    HW2 2382   0.513   1.198   2.201 -1.5199 -0.5533 -0.3063
  795SOL     OW 2383   3.016   1.673   2.387 -0.1131 -0.0204 -0.3025
  795SOL    HW1 2384   2.928   1.694   2.341 -0.3909 -1.2415 -0.5311
  795SOL    HW2 2385   3.075   1.625   2.322 -0.6929  1.3070 -0.7833
  796SOL     OW 2386   1.990   1.117   2.124  0.6674  0.2180 -0.5798
  796SOL    HW1 2387   2.064   1.077   2.072  1.2655  1.4959  2.0923
  796SOL    HW2 2388   1.989   1.216   2.117  2.6226 -1.6059  0.7555
  797SOL     OW 2389   3.014   3.008   2.681 -0.2059 -0.1030  0.2218
  797SOL    HW1 2390   0.009   3.047   2.635 -1.6758  0.1652 -2.4304
  797SOL    HW2 2391   2.983   2.924   2.641 -0.7075  0.8781 -0.9111
  798SOL     OW 2392   0.169   2.079   2.172 -0.2921  0.0209 -0.2004
  798SOL    HW1 2393   0.122   2.099   2.080 -1.9479 -0.6343  0.2489
  798SOL    HW2 2394   0.262   2.127   2.183  1.4775 -1.5179 -2.0860
  799SOL     OW 2395   2.786   2.346   3.051 -0.9678 -0.7470 -0.1555
  799SOL    HW1 2396   2.830   2.384   0.045 -3.1873 -0.3484 -0.0266
  799SOL    HW2 2397   2.739   2.419   3.002  0.3072 -3.0906 -1.6350
  800SOL     OW 2398   1.423   1.630   0.947 -0.1638  0.5305  0.3323
  800SOL    HW1 2399   1.334   1.672   0.910 -0.4440 -1.7745 -2.3344
  800SOL    HW2 2400   1.499   1.693   0.955  0.0258 -2.6398 -0.7663
  801SOL     OW 2401   2.345   0.607   0.796 -0.5085  0.2673 -0.2013
  801SOL    HW1 2402   2.248   0.629   0.822 -3.3341 -0.3385 -1.8850
  801SOL    HW2 2403   2.406   0.689   0.812 -0.2395  0.8763  2.1451
  802SOL     OW 2404   2.504   1.613   0.419  0.5634 -0.3104 -0.1545
  802SOL    HW1 2405   2.546   1.645   0.334  2.0255  0.9915  2.1662
  802SOL    HW2 2406   2.509   1.686   0.488 -1.9145 -1.3494 -0.4254
  803SOL     OW 2407   1.395   1.975   2.903 -0.1094 -0.1251  0.0708
  803SOL    HW1 2408   1.397   2.026   2.813  0.9588  2.9985  0.6474
  803SOL    HW2 2409   1.339   2.021   2.974  0.4972  2.7809 -0.5351
  804SOL     OW 2410   2.002   1.898   0.097 -0.2995 -0.0294 -0.3495
  804SOL    HW1 2411   2.035   1.987   0.113 -0.1982 -4.3871 -1.5163
  804SOL    HW2 2412   1.999   1.876   3.083  0.0921 -0.5861 -3.3776
  805SOL     OW 2413   2.412   1.588   3.000  0.0431  0.7280 -0.0360
  805SOL    HW1 2414   2.428   1.687   2.976  1.9656  1.0564 -0.4620
  805SOL    HW2 2415   2.501   1.552   3.037 -2.4359  1.0523 -2.2731
  806SOL     OW 2416   0.774   0.599   0.596 -0.1812  0.0049 -0.0991
  806SOL    HW1 2417   0.835   0.580   0.515  0.7131  0.2037  0.3214
  806SOL    HW2 2418   0.770   0.702   0.614 -2.1567 -2.5602 -2.0966
  807SOL     OW 2419   2.274   1.328   2.732  0.7360  0.9894  0.6783
  807SOL    HW1 2420   2.254   1.402   2.798 -1.4649 -1.0564 -3.1764
  807SOL    HW2 2421   2.219   1.327   2.645  0.8574 -1.4412 -0.0594
  808SOL     OW 2422   0.113   1.471   0.450  0.0547  0.0811 -0.5165
  808SOL    HW1 2423   0.129   1.393   0.511 -1.8517 -1.9567 -2.3495
  808SOL    HW2 2424   0.187   1.540   0.466 -0.5964  0.9935  1.8638
  809SOL     OW 2425   2.453   0.993   2.667 -0.3555 -0.5343 -0.5034
  809SOL    HW1 2426   2.478   1.064   2.737 -1.0517  0.8005  0.2180
  809SOL    HW2 2427   2.356   1.007   2.644  1.1532 -1.9021  0.8217
  810SOL     OW 2428   1.167   1.227   0.459  1.1509  0.5017 -0.2032
  810SOL    HW1 2429   1.255   1.238   0.405 -0.2798 -1.2668 -2.3640
  810SOL    HW2 2430   1.081   1.239   0.406 -1.3615 -2.7684 -0.2440
  811SOL     OW 2431   1.632   2.544   0.689  0.2325  0.1112  0.3202
  811SOL    HW1 2432   1.531   2.568   0.690 -1.5346  2.0386  1.3876
  811SOL    HW2 2433   1.643   2.448   0.662  2.1445  1.6080  3.6704
  812SOL     OW 2434   0.221   2.496   1.616  0.3985 -0.0877 -1.1542
  812SOL    HW1 2435   0.171   2.418   1.570 -1.2842 -2.8508  2.7044
  812SOL    HW2 2436   0.318   2.503   1.582  3.2898  0.0233 -2.8244
  813SOL     OW 2437   1.054   0.036   1.868  0.1385 -0.2729 -0.0573
  813SOL    HW1 2438   0.989   3.046   1.864 -0.1837 -0.8215 -0.4871
  813SOL    HW2 2439   1.007   0.127   1.863  1.6364 -0.3840 -0.3014
  814SOL     OW 2440   1.318   0.080   2.439 -0.0828  0.2898  0.2570
  814SOL    HW1 2441   1.321   0.016   2.361  1.8768 -2.5701  1.2079
  814SOL    HW2 2442   1.275   0.164   2.404 -0.8076 -0.4707 -1.6260
  815SOL     OW 2443   0.181   0.283   1.845  0.2004  0.1470  0.2128
  815SOL    HW1 2444   0.219   0.191   1.835 -1.0754  2.3789  2.0158
  815SOL    HW2 2445   0.194   0.341   1.757  0.5845  0.7717 -1.0599
  816SOL     OW 2446   2.397   0.280   0.106  0.2906  0.5012  0.3295
  816SOL    HW1 2447   2.424   0.327   0.023 -0.0585 -1.7169  1.9917
  816SOL    HW2 2448   2.350   0.343   0.174 -1.1623  0.1106 -0.1974
  817SOL     OW 2449   1.936   0.270   2.600  0.2488 -0.1090  1.2044
  817SOL    HW1 2450   1.856   0.262   2.535  0.1654 -2.0146 -2.0128
  817SOL    HW2 2451   1.918   0.356   2.648 -1.1470 -1.4323 -1.0275
  818SOL     OW 2452   2.054   0.124   0.147  0.4155  0.3328  0.3888
  818SOL    HW1 2453   2.027   0.199   0.089  2.0926 -2.1214  3.2474
  818SOL    HW2 2454   2.111   0.054   0.098 -0.2693 -1.1823 -0.2632
  819SOL     OW 2455   2.301   1.857   0.127 -0.0535 -0.4487 -0.8736
  819SOL    HW1 2456   2.385   1.797   0.128 -0.7559 -1.7891  0.4843
  819SOL    HW2 2457   2.209   1.808   0.120 -1.1338 -3.0751  2.0378
  820SOL     OW 2458   0.080   1.986   0.212 -0.5004  0.2009 -0.0369
  820SOL    HW1 2459   0.063   1.914   0.143  1.2448  0.8356  0.3059
  820SOL    HW2 2460   0.008   1.984   0.282  2.2637 -0.3145  1.1598
  821SOL     OW 2461   2.947   2.694   1.188 -0.1391 -0.4311 -0.3182
  821SOL    HW1 2462   2.925   2.605   1.227  2.4744  0.5789  0.9720
  821SOL    HW2 2463   2.970   2.758   1.263  0.2250 -4.5151  0.4608
  822SOL     OW 2464   2.522   2.435   2.595 -0.3276  0.4836  0.5573
  822SOL    HW1 2465   2.434   2.400   2.628  1.8973 -0.6194 -1.6540
  822SOL    HW2 2466   2.524   2.453   2.495  2.3048 -0.2638  2.8723
  823SOL     OW 2467   1.533   0.265   2.545 -0.0793 -0.1523 -0.1985
  823SOL    HW1 2468   1.517   0.343   2.611 -1.3827 -0.4043 -0.2125
  823SOL    HW2 2469   1.449   0.211   2.523  1.2536 -1.4853  1.9148
  824SOL     OW 2470   2.581   1.674   1.398  0.1709 -0.4766 -0.3993
  824SOL    HW1 2471   2.515   1.747   1.405  1.2655 -1.9545 -1.6085
  824SOL    HW2 2472   2.635   1.674   1.316 -1.4229  0.1887  3.3558
  825SOL     OW 2473   2.758   1.754   2.322 -0.1529  0.4641  0.0326
  825SOL    HW1 2474   2.695   1.711   2.396 -0.8944  0.1632  2.1494
  825SOL    HW2 2475   2.772   1.856   2.331  0.4738  1.5603 -1.1290
  826SOL     OW 2476   2.453   1.138   2.415 -0.4846  0.2716 -0.4111
  826SOL    HW1 2477   2.511   1.084   2.477 -3.5887  0.6871 -0.1548
  826SOL    HW2 2478   2.492   1.230   2.395 -0.6757 -2.1301 -0.1630
  827SOL     OW 2479   2.492   2.432   1.527 -0.4460 -0.0314  0.7960
  827SOL    HW1 2480   2.497   2.367   1.608  1.0032  0.1706  0.3292
  827SOL    HW2 2481   2.411   2.493   1.535 -1.5644 -1.0845 -0.2906
  828SOL     OW 2482   2.806   2.826   1.486 -0.4946  0.2372 -0.8191
  828SOL    HW1 2483   2.859   2.898   1.442 -1.3155  0.0405 -0.5804
  828SOL    HW2 2484   2.710   2.818   1.450  0.4748 -0.7840 -1.0061
  829SOL     OW 2485   1.374   2.184   2.352 -0.4773  0.5149 -0.1366
  829SOL    HW1 2486   1.419   2.270   2.386 -0.0320 -0.5848  1.6890
  829SOL    HW2 2487   1.443   2.106   2.338 -0.4269 -1.8274 -1.3084
  830SOL     OW 2488   1.562   0.304   0.676 -0.1103  0.0632 -0.1152
  830SOL    HW1 2489   1.597   0.274   0.585 -2.4485 -1.6040 -0.1505
  830SOL    HW2 2490   1.553   0.218   0.735 -1.3802 -1.8608 -0.6047
  831SOL     OW 2491   2.606   1.440   0.609 -0.0536  0.1459  0.4772
  831SOL    HW1 2492   2.703   1.407   0.604 -1.2319 -1.0364 -0.3933
  831SOL    HW2 2493   2.576   1.482   0.517 -0.0459 -0.4967 -0.1028
  832SOL     OW 2494   1.629   2.616   1.913  0.2823 -0.4235  0.3080
  832SOL    HW1 2495   1.530   2.602   1.877 -1.3642 -2.1471  0.9445
  832SOL    HW2 2496   1.695   2.579   1.843 -0.3297 -0.3512  1.2828
  833SOL     OW 2497   3.021   2.919   2.301  0.1550 -0.7072  0.5040
  833SOL    HW1 2498   3.038   2.844   2.367  2.3446  1.3191 -3.5112
  833SOL    HW2 2499   2.924   2.960   2.312 -1.9798 -0.8090 -1.8003
  834SOL     OW 2500   1.131   0.851   1.275 -0.2924 -0.4269 -0.1219
  834SOL    HW1 2501   1.045   0.888   1.242 -0.5376 -0.6914 -1.1419
  834SOL    HW2 2502   1.171   0.913   1.346 -0.8502  0.9368 -1.7541
  835SOL     OW 2503   2.868   0.694   2.650 -0.6051 -0.2268 -0.0749
  835SOL    HW1 2504   2.905   0.618   2.592 -0.2788  1.8442 -0.5388
  835SOL    HW2 2505   2.834   0.660   2.737 -1.0697  1.5787 -1.7398
  836SOL     OW 2506   1.143   2.223   0.915  0.6026  0.0033 -0.1405
  836SOL    HW1 2507   1.049   2.206   0.945  0.1229 -0.9341  1.3879
  836SOL    HW2 2508   1.192   2.262   0.999  0.6853  0.3453  0.9738
  837SOL     OW 2509   2.102   0.996   0.976 -0.0941  0.1936 -0.1468
  837SOL    HW1 2510   2.149   1.040   0.893 -0.7880 -1.1501 -1.1411
  837SOL    HW2 2511   2.148   1.013   1.061 -2.1154 -0.4079 -2.5526
  838SOL     OW 2512   1.394   1.279   2.530  0.2124 -0.2064 -0.0412
  838SOL    HW1 2513   1.313   1.321   2.485 -2.0347 -0.8084  0.6885
  838SOL    HW2 2514   1.416   1.319   2.618 -1.6679 -0.5212 -1.0265
  839SOL     OW 2515   0.608   2.426   2.759  0.3059  0.5671 -0.0028
  839SOL    HW1 2516   0.629   2.345   2.693 -1.7394 -1.9008 -1.3734
  839SOL    HW2 2517   0.652   2.419   2.850  0.2756 -2.6422 -1.2460
  840SOL     OW 2518   0.580   2.712   3.063  0.2741 -0.1727  0.7197
  840SOL    HW1 2519   0.490   2.683   3.024  0.5213  1.2370 -1.0871
  840SOL    HW2 2520   0.641   2.734   2.983  0.0298  0.0475 -0.5339
  841SOL     OW 2521   1.836   2.185   0.162  0.1367 -0.4485 -0.0576
  841SOL    HW1 2522   1.850   2.153   0.072  1.6697  0.6941  0.0668
  841SOL    HW2 2523   1.877   2.277   0.178 -0.0798  2.1631 -0.0287
  842SOL     OW 2524   1.172   1.099   2.703  0.5623  0.4667  0.3371
  842SOL    HW1 2525   1.194   1.186   2.751  1.4907  0.2423  1.4857
  842SOL    HW2 2526   1.255   1.054   2.668 -1.7522 -0.0512  0.4581
  843SOL     OW 2527   1.394   2.841   0.517  0.0419  0.1481  0.1275
  843SOL    HW1 2528   1.481   2.818   0.557  0.0910 -2.3428 -2.4651
  843SOL    HW2 2529   1.355   2.915   0.572 -1.4893 -2.5476  0.7947
  844SOL     OW 2530   2.341   2.854   2.601  0.2392  0.0288 -0.5083
  844SOL    HW1 2531   2.289   2.918   2.667  0.8057 -1.3099  1.3304
  844SOL    HW2 2532   2.383   2.778   2.654 -0.2906  1.3641  1.0119
  845SOL     OW 2533   2.650   2.443   1.056  0.0920 -0.0340 -0.1677
  845SOL    HW1 2534   2.621   2.475   1.147 -1.7395 -1.4081 -1.6564
  845SOL    HW2 2535   2.665   2.522   0.993  0.8936  1.4336 -2.6728
  846SOL     OW 2536   3.054   2.101   2.361 -0.1620 -0.0143  0.0547
  846SOL    HW1 2537   0.030   2.093   2.286 -1.9919 -0.3722  0.6482
  846SOL    HW2 2538   3.079   2.043   2.437 -1.4560 -0.1100 -1.0039
  847SOL     OW 2539   1.576   0.435   1.659 -0.6473  0.3040 -0.1220
  847SOL    HW1 2540   1.609   0.436   1.567 -2.0858  0.3297  1.9481
  847SOL    HW2 2541   1.564   0.340   1.692 -0.5706  0.1145  0.9899
  848SOL     OW 2542   0.051   0.279   0.044 -0.2584  0.1069  0.7792
  848SOL    HW1 2543   0.117   0.339   3.082 -1.9547 -2.0291 -0.3856
  848SOL    HW2 2544   0.009   0.319   0.124  0.0834  0.7642  0.4735
  849SOL     OW 2545   0.566   0.417   3.006 -0.3207 -0.6605 -0.3475
  849SOL    HW1 2546   0.611   0.477   2.937 -2.0175  0.1032  1.0000
  849SOL    HW2 2547   0.544   0.475   0.005  2.2975  2.3982  2.8113
  850SOL     OW 2548   0.516   2.533   1.076  0.2738 -0.0222 -0.4834
  850SOL    HW1 2549   0.538   2.443   1.120 -0.4180 -0.8283  1.1605
  850SOL    HW2 2550   0.430   2.536   1.023  1.8632 -0.5579  1.5244
  851SOL     OW 2551   2.166   0.119   2.424 -0.5010 -0.6862 -0.3984
  851SOL    HW1 2552   2.173   0.198   2.357  0.9247 -0.3288  1.3632
  851SOL    HW2 2553   2.198   0.153   2.514  0.0719 -0.5559  2.5238
  852SOL     OW 2554   1.635   1.473   2.345 -0.2192 -0.5750 -0.0564
  852SOL    HW1 2555   1.677   1.465   2.436  0.7259  1.7954  0.0708
  852SOL    HW2 2556   1.582   1.390   2.322  0.6287 -0.6478 -0.7960
  853SOL     OW 2557   2.846   2.708   0.524  0.3209 -0.4657  0.4478
  853SOL    HW1 2558   2.901   2.729   0.609 -1.0732 -0.3966  0.6586
  853SOL    HW2 2559   2.788   2.624   0.536  0.2564 -2.4145 -2.0976
  854SOL     OW 2560   2.342   0.282   0.902 -0.1994 -0.4822  0.3728
  854SOL    HW1 2561   2.308   0.208   0.842  2.8758 -0.5706  0.0630
  854SOL    HW2 2562   2.329   0.379   0.869 -1.0859 -0.3583  0.2533
  855SOL     OW 2563   1.434   2.056   0.636 -0.1963 -0.0449  0.4557
  855SOL    HW1 2564   1.432   2.042   0.539  0.4765 -1.1064 -1.3019
  855SOL    HW2 2565   1.344   2.032   0.685 -0.8997  1.2635 -2.0950
  856SOL     OW 2566   2.674   0.369   0.207 -0.3616  0.1893  0.1068
  856SOL    HW1 2567   2.646   0.297   0.133  0.5977 -1.8991 -1.8799
  856SOL    HW2 2568   2.623   0.347   0.291  0.3659 -1.4219 -0.9992
  857SOL     OW 2569   1.707   2.886   1.880  0.0442  0.1366  0.3164
  857SOL    HW1 2570   1.667   2.794   1.894 -2.2155  0.5164  1.1932
  857SOL    HW2 2571   1.797   2.894   1.923 -3.9040 -2.1014  1.5981
  858SOL     OW 2572   2.460   2.124   1.406  0.1296 -0.2141  0.1369
  858SOL    HW1 2573   2.491   2.147   1.312  0.1706  0.5616 -1.5295
  858SOL    HW2 2574   2.375   2.178   1.428  0.6618 -0.4089 -0.0522
  859SOL     OW 2575   1.196   2.351   0.686 -0.1103 -0.3519 -0.1568
  859SOL    HW1 2576   1.195   2.451   0.716 -1.1694  3.6156 -0.6475
  859SOL    HW2 2577   1.187   2.288   0.765 -0.0503 -0.7313  0.2614
  860SOL     OW 2578   2.202   2.379   0.063 -0.5513  0.0920  0.2256
  860SOL    HW1 2579   2.293   2.420   0.094  1.7338 -2.4096 -0.2794
  860SOL    HW2 2580   2.187   2.298   0.125 -0.7587 -3.7669  2.6418
  861SOL     OW 2581   1.908   2.608   1.329 -0.1855 -0.0327  0.3770
  861SOL    HW1 2582   2.005   2.603   1.361 -2.0322  2.0521 -2.4687
  861SOL    HW2 2583   1.881   2.701   1.331 -3.0049 -0.0311  1.5068
  862SOL     OW 2584   1.986   3.080   2.685 -0.4110  0.5463  0.1556
  862SOL    HW1 2585   1.983   0.080   2.631 -1.0520  1.1338  0.7032
  862SOL    HW2 2586   1.969   0.017   2.781 -0.8030 -0.9826  0.2760
  863SOL     OW 2587   0.399   0.306   0.648 -0.3814 -0.2605  0.4686
  863SOL    HW1 2588   0.476   0.264   0.596  0.9159  2.7685 -0.3921
  863SOL    HW2 2589   0.316   0.308   0.592 -0.8678 -3.7056 -1.0188
  864SOL     OW 2590   2.667   2.510   1.784  0.8804 -0.2422 -0.4009
  864SOL    HW1 2591   2.630   2.415   1.767  1.8167 -1.1613  0.7747
  864SOL    HW2 2592   2.609   2.587   1.755 -0.5609  0.7356  1.0700
  865SOL     OW 2593   2.904   2.112   2.985 -0.0810  0.4877 -0.0777
  865SOL    HW1 2594   2.853   2.045   3.043  0.8869  1.2791 -1.3389
  865SOL    HW2 2595   2.852   2.197   2.984 -1.1017  0.5917  1.1078
  866SOL     OW 2596   2.414   0.416   2.966 -0.1561 -0.0676 -0.0234
  866SOL    HW1 2597   2.483   0.429   2.896 -2.1565  1.2973  0.0498
  866SOL    HW2 2598   2.399   0.502   3.017  0.3757 -1.8719 -2.0573
  867SOL     OW 2599   0.061   0.294   2.509  0.5039 -0.3563 -0.1973
  867SOL    HW1 2600   0.068   0.317   2.609 -0.8753  0.0069 -1.7883
  867SOL    HW2 2601   0.136   0.343   2.459  1.9636 -1.9859 -0.5124
  868SOL     OW 2602   1.072   2.586   0.818  0.4173  0.3452 -0.8621
  868SOL    HW1 2603   0.999   2.519   0.853  0.0224 -0.9668 -1.2317
  868SOL    HW2 2604   1.043   2.634   0.734 -0.8567 -0.1601  3.2457
  869SOL     OW 2605   1.440   1.039   1.353 -0.1074  0.0625 -0.0043
  869SOL    HW1 2606   1.447   1.040   1.249 -0.1851  1.3653  0.8675
  869SOL    HW2 2607   1.534   1.024   1.394  3.3909 -0.6548  2.0151
  870SOL     OW 2608   1.903   1.834   1.382  0.4846  0.4538 -0.3570
  870SOL    HW1 2609   1.840   1.914   1.374  1.2668  2.2538 -0.4180
  870SOL    HW2 2610   1.856   1.751   1.422 -0.5618  0.9988  2.1564
  871SOL     OW 2611   1.155   1.536   1.231  0.6570 -0.1947 -0.5135
  871SOL    HW1 2612   1.123   1.510   1.325  0.4903  0.6573  0.0015
  871SOL    HW2 2613   1.186   1.458   1.174  1.6818  2.5820 -0.9830
  872SOL     OW 2614   1.460   0.956   0.916  0.4497 -0.2597 -0.0497
  872SOL    HW1 2615   1.523   0.890   0.965  3.1225  0.4676 -0.6460
  872SOL    HW2 2616   1.411   1.020   0.975 -1.1364  3.0208  1.9176
  873SOL     OW 2617   1.417   0.979   2.667 -0.8360 -0.6175 -0.2368
  873SOL    HW1 2618   1.458   1.025   2.752 -1.0005  1.0099 -0.1440
  873SOL    HW2 2619   1.497   0.956   2.607 -1.4154  0.4315 -2.6113
  874SOL     OW 2620   0.445   1.225   1.103 -0.7653 -0.3119 -0.3714
  874SOL    HW1 2621   0.405   1.226   1.195 -0.2749  0.1808 -3.5436
  874SOL    HW2 2622   0.376   1.263   1.039 -0.2002  2.3495 -0.2923
  875SOL     OW 2623   2.619   2.728   0.107 -0.2242 -0.4428 -0.2979
  875SOL    HW1 2624   2.604   2.824   0.125 -1.9575 -2.2794 -0.9295
  875SOL    HW2 2625   2.717   2.716   0.076 -0.6161 -1.7136 -0.8241
  876SOL     OW 2626   1.171   0.648   2.720 -0.2010 -0.3410 -0.0607
  876SOL    HW1 2627   1.126   0.567   2.760  1.3505 -0.1814  1.4194
  876SOL    HW2 2628   1.124   0.737   2.751 -0.3195 -0.8651 -0.1878
  877SOL     OW 2629   2.946   3.006   1.350  0.3483  0.0599 -0.2536
  877SOL    HW1 2630   2.979   3.058   1.428  0.2178 -1.2080 -1.8066
  877SOL    HW2 2631   2.982   3.058   1.274 -0.4784 -2.1991 -0.1042
  878SOL     OW 2632   1.951   2.508   2.729  0.0600  0.2632  0.2493
  878SOL    HW1 2633   1.891   2.493   2.806 -1.1020  0.3508 -1.2263
  878SOL    HW2 2634   1.979   2.604   2.725  0.5961  2.1852  1.4957
  879SOL     OW 2635   2.147   1.743   1.894 -0.3692  0.2228  0.0958
  879SOL    HW1 2636   2.084   1.762   1.973  0.4427 -2.3452 -0.6122
  879SOL    HW2 2637   2.175   1.645   1.893 -0.1929 -2.8660  0.7289
  880SOL     OW 2638   0.959   0.915   0.967 -0.4488 -0.1773 -0.2560
  880SOL    HW1 2639   0.964   0.960   1.062  3.3563  0.6419  0.7804
  880SOL    HW2 2640   0.869   0.884   0.936  2.5159  1.1019 -2.2919
  881SOL     OW 2641   1.099   1.834   0.123  0.1781  0.0454 -0.1867
  881SOL    HW1 2642   1.159   1.913   0.103 -1.2056 -1.5352  1.7506
  881SOL    HW2 2643   1.144   1.765   0.182  0.0190  0.7456 -0.4016
  882SOL     OW 2644   1.692   0.218   1.048  0.3081  0.0299  0.1416
  882SOL    HW1 2645   1.705   0.317   1.041  0.4474 -1.4474  1.4192
  882SOL    HW2 2646   1.779   0.172   1.068 -2.2807  1.2597  0.9614
  883SOL     OW 2647   1.708   0.516   2.294  0.2465 -0.6529  0.0878
  883SOL    HW1 2648   1.636   0.542   2.364 -1.4617  0.3541 -0.5395
  883SOL    HW2 2649   1.744   0.598   2.244  1.4464  0.0385 -0.4421
  884SOL     OW 2650   2.770   0.615   0.096  0.5887 -0.1284  0.4337
  884SOL    HW1 2651   2.749   0.628   3.086  0.7236 -1.1512 -1.0073
  884SOL    HW2 2652   2.721   0.531   0.128 -0.7818 -1.6149 -0.5784
  885SOL     OW 2653   1.204   1.991   0.769 -0.9515 -0.1546  0.3860
  885SOL    HW1 2654   1.125   1.977   0.706 -0.8380  2.1904 -2.2796
  885SOL    HW2 2655   1.198   2.077   0.826  0.2341 -3.4713 -0.0048
  886SOL     OW 2656   1.496   1.392   2.783  0.4424  0.4844 -0.1813
  886SOL    HW1 2657   1.567   1.396   2.860  1.5821  0.4878  3.1644
  886SOL    HW2 2658   1.403   1.386   2.825 -0.3684  0.5362 -1.2509
  887SOL     OW 2659   1.489   0.176   1.766 -0.5804 -0.6699  0.5293
  887SOL    HW1 2660   1.413   0.142   1.704 -0.9055 -2.0454 -0.2065
  887SOL    HW2 2661   1.462   0.255   1.829  0.4684  3.7219  3.1594
  888SOL     OW 2662   2.655   1.691   1.691 -0.4822 -0.1739 -0.3451
  888SOL    HW1 2663   2.683   1.776   1.740 -0.0973  0.0747 -1.0503
  888SOL    HW2 2664   2.651   1.708   1.592  1.0857 -0.8940  0.7502
  889SOL     OW 2665   3.014   2.478   0.837  0.7081  0.1596  0.2005
  889SOL    HW1 2666   0.004   2.499   0.768  3.0462  0.0727 -3.2966
  889SOL    HW2 2667   2.987   2.557   0.892  2.1223  0.7787 -1.4995
  890SOL     OW 2668   0.428   1.909   2.135 -0.1444  0.2586 -0.1184
  890SOL    HW1 2669   0.357   1.836   2.116 -3.0906 -1.5636 -1.3140
  890SOL    HW2 2670   0.375   1.995   2.160 -1.5853  2.2336 -1.4056
  891SOL     OW 2671   0.846   1.710   0.736  0.1478  0.7686  0.1161
  891SOL    HW1 2672   0.860   1.627   0.794  0.7518  1.2663  0.2165
  891SOL    HW2 2673   0.925   1.718   0.669  3.5772  0.3254 -0.8788
  892SOL     OW 2674   2.964   2.182   1.476  0.1551  0.0030  0.4994
  892SOL    HW1 2675   2.907   2.263   1.443 -2.3689 -0.5914 -1.7866
  892SOL    HW2 2676   2.902   2.102   1.471 -0.3312  3.4206  0.0221
  893SOL     OW 2677   3.063   0.020   1.567 -0.6288  0.3997  0.4305
  893SOL    HW1 2678   3.020   0.070   1.643  2.2558  0.4570 -2.0972
  893SOL    HW2 2679   0.043   0.075   1.519 -1.2142 -0.3556 -1.1312
  894SOL     OW 2680   2.763   1.790   0.765 -0.2549  0.6135 -0.5660
  894SOL    HW1 2681   2.794   1.790   0.665  0.2436  0.4640  0.5492
  894SOL    HW2 2682   2.804   1.707   0.819  1.9476 -2.4355  2.5575
  895SOL     OW 2683   1.715   2.345   1.486 -0.2902 -0.2309  0.1352
  895SOL    HW1 2684   1.720   2.254   1.523  0.6194  1.1379 -0.2806
  895SOL    HW2 2685   1.751   2.351   1.388 -1.1953  1.8619 -2.8059
  896SOL     OW 2686   0.203   0.108   1.432  0.0014 -0.4073 -0.1088
  896SOL    HW1 2687   0.245   0.070   1.351  0.5518  0.2373  2.1686
  896SOL    HW2 2688   0.214   0.207   1.440  0.9675 -1.8239  1.6778
  897SOL     OW 2689   1.226   0.990   1.501  0.2484  0.0414 -0.3545
  897SOL    HW1 2690   1.306   1.030   1.443  0.7497 -1.0976 -0.9306
  897SOL    HW2 2691   1.242   1.003   1.604  1.3389 -1.0178  3.0547
  898SOL     OW 2692   0.767   0.137   1.541 -0.2895 -0.0112  0.3695
  898SOL    HW1 2693   0.745   0.160   1.638  0.6217 -0.3281  1.8969
  898SOL    HW2 2694   0.862   0.164   1.516 -0.0081  1.4946  1.2033
  899SOL     OW 2695   1.360   0.177   0.018  0.1860 -0.2345 -0.2024
  899SOL    HW1 2696   1.461   0.162   3.087 -1.8364 -1.6981 -1.9801
  899SOL    HW2 2697   1.315   0.215   3.021 -2.2133  1.3282  0.6468
  900SOL     OW 2698   0.585   0.357   2.154  0.1401  0.2015  0.1176
  900SOL    HW1 2699   0.606   0.259   2.172 -0.0478 -0.3322  0.2931
  900SOL    HW2 2700   0.490   0.369   2.124  0.9601 -0.4454 -0.4908
  901SOL     OW 2701   0.829   2.180   0.116 -0.1108 -0.0991  0.3647
  901SOL    HW1 2702   0.864   2.096   0.163  1.5503  1.1595  2.2409
  901SOL    HW2 2703   0.860   2.261   0.171 -0.6551 -0.2682  0.6659
  902SOL     OW 2704   2.014   0.328   0.985 -0.2278  0.6209 -0.1462
  902SOL    HW1 2705   2.005   0.308   0.887  2.6093  0.4073  2.8958
  902SOL    HW2 2706   1.979   0.250   1.051  1.8542 -2.3921  1.2973
  903SOL     OW 2707   2.947   1.321   2.583 -0.0680  0.2939 -0.7665
  903SOL    HW1 2708   2.920   1.417   2.613 -1.1890 -1.1840  1.1974
  903SOL    HW2 2709   2.905   1.301   2.494  0.4319 -0.1843  3.4966
  904SOL     OW 2710   1.492   1.565   0.415 -0.9740  0.1913 -0.0394
  904SOL    HW1 2711   1.542   1.639   0.364  2.9753  2.6024  0.7388
  904SOL    HW2 2712   1.503   1.585   0.516  2.0352  1.0598  1.9250
  905SOL     OW 2713   1.807   2.859   1.328 -0.1737  0.9645 -0.2524
  905SOL    HW1 2714   1.723   2.872   1.389 -0.4957 -2.8271 -0.0431
  905SOL    HW2 2715   1.874   2.941   1.322 -0.6128  3.0901  0.1396
  906SOL     OW 2716   2.251   2.810   1.119 -0.5334 -0.1010 -0.2686
  906SOL    HW1 2717   2.279   2.716   1.151 -0.2506  0.2766  1.2818
  906SOL    HW2 2718   2.256   2.873   1.201 -1.0843 -2.2209 -0.4993
  907SOL     OW 2719   1.879   1.054   0.386  0.0668  0.3016  0.4552
  907SOL    HW1 2720   1.970   1.015   0.372 -1.9877  1.5624  1.0065
  907SOL    HW2 2721   1.833   1.073   0.298  1.2425 -0.8658 -0.3088
  908SOL     OW 2722   1.697   0.442   1.392  0.1818 -0.4947  0.4415
  908SOL    HW1 2723   1.617   0.476   1.344 -1.0585 -0.3394  0.8583
  908SOL    HW2 2724   1.766   0.515   1.394 -0.6465  3.2527  0.4030
  909SOL     OW 2725   2.429   3.009   0.788 -0.3413  0.2456  0.2064
  909SOL    HW1 2726   2.510   3.068   0.781  0.2942 -1.2864 -0.3870
  909SOL    HW2 2727   2.346   3.070   0.773 -0.6146  4.9129 -0.4119
  910SOL     OW 2728   2.480   0.465   2.259  0.1801  0.2554 -0.4496
  910SOL    HW1 2729   2.472   0.458   2.156  2.8365  1.2203 -1.4036
  910SOL    HW2 2730   2.453   0.560   2.281 -0.7767  0.4042 -0.6058
  911SOL     OW 2731   2.530   0.070   2.678 -0.5691 -0.3230  0.5708
  911SOL    HW1 2732   2.469   0.132   2.728  1.3614  1.9934  2.1456
  911SOL    HW2 2733   2.589   0.018   2.740 -0.7352 -0.0201 -2.7904
  912SOL     OW 2734   0.669   0.955   1.320 -0.2691  0.1400 -0.0903
  912SOL    HW1 2735   0.652   1.023   1.391 -0.8107 -2.1569  1.6764
  912SOL    HW2 2736   0.588   0.957   1.252 -3.4108  1.5036  0.8720
  913SOL     OW 2737   2.898   2.418   1.219  0.3789  0.0217  0.1974
  913SOL    HW1 2738   2.842   2.392   1.301  0.4981  1.5589  0.4268
  913SOL    HW2 2739   2.840   2.417   1.138 -0.4198 -1.1378 -1.1466
  914SOL     OW 2740   1.850   0.728   1.224 -0.5874  0.1146 -0.1809
  914SOL    HW1 2741   1.867   0.687   1.315 -0.7654  0.7468 -0.2184
  914SOL    HW2 2742   1.919   0.696   1.152  1.1019  1.2046 -0.9784
  915SOL     OW 2743   0.073   1.449   1.096  0.0901 -0.0430  0.1044
  915SOL    HW1 2744   0.144   1.520   1.119 -0.6749  2.2842  1.2362
  915SOL    HW2 2745   0.086   1.413   1.004 -0.8547  1.2543  0.4483
  916SOL     OW 2746   1.955   2.361   0.959 -0.2131  0.2417  0.2107
  916SOL    HW1 2747   2.047   2.401   0.960 -1.6727  0.0336 -3.1881
  916SOL    HW2 2748   1.950   2.262   0.966 -2.7820  4.7156  0.9901
  917SOL     OW 2749   1.578   2.619   2.175 -0.7955 -0.7204  0.3399
  917SOL    HW1 2750   1.541   2.715   2.186 -1.2701  2.8375 -0.0396
  917SOL    HW2 2751   1.595   2.604   2.073 -0.0770 -0.4410 -2.3065
  918SOL     OW 2752   1.985   2.086   2.483 -0.2551  0.2320  0.2219
  918SOL    HW1 2753   1.937   2.175   2.468 -0.7423 -0.8855 -1.5819
  918SOL    HW2 2754   2.062   2.093   2.545  0.3907 -0.8113 -1.7253
  919SOL     OW 2755   0.699   0.229   1.292  0.1226  0.0135  0.2020
  919SOL    HW1 2756   0.606   0.225   1.251 -0.7774  1.5036  3.7557
  919SOL    HW2 2757   0.708   0.172   1.378  1.4978 -0.3244  0.3270
  920SOL     OW 2758   2.771   0.298   2.046  0.1106 -0.3466  0.0315
  920SOL    HW1 2759   2.745   0.321   2.143  0.7362 -1.3461  1.8081
  920SOL    HW2 2760   2.868   0.316   2.031  0.2492 -0.7725  0.5917
  921SOL     OW 2761   2.766   1.127   1.590  0.2432 -0.0084 -0.4484
  921SOL    HW1 2762   2.767   1.021   1.588  1.2836 -2.4048  0.1431
  921SOL    HW2 2763   2.682   1.161   1.637  2.4117 -0.3001  2.1037
  922SOL     OW 2764   2.673   2.192   0.724 -0.0346 -0.1340  0.2479
  922SOL    HW1 2765   2.612   2.255   0.780  0.5149  2.0163  0.4724
  922SOL    HW2 2766   2.736   2.255   0.673 -1.3697 -0.2064  1.2126
  923SOL     OW 2767   0.388   2.372   0.482 -0.1391  0.0950 -0.3210
  923SOL    HW1 2768   0.309   2.373   0.415 -1.1635 -1.0146 -0.3680
  923SOL    HW2 2769   0.463   2.317   0.447  0.9742  0.5220  1.2591
  924SOL     OW 2770   1.214   1.331   2.813  0.8990 -0.0165 -0.0326
  924SOL    HW1 2771   1.144   1.314   2.884  1.0152  0.4452 -3.0313
  924SOL    HW2 2772   1.176   1.399   2.748  1.5255  1.3432 -1.9499
  925SOL     OW 2773   2.910   1.310   0.852 -0.0762 -0.1314 -0.0284
  925SOL    HW1 2774   2.856   1.222   0.867  0.3283  1.9826  1.7322
  925SOL    HW2 2775   2.889   1.350   0.759  1.0700  0.8288  2.3929
  926SOL     OW 2776   0.120   0.135   0.801  0.1844 -0.2822  0.4557
  926SOL    HW1 2777   0.199   0.071   0.793 -0.2881  1.3112  0.5448
  926SOL    HW2 2778   0.035   0.084   0.820  0.0916  1.6284 -0.8242
  927SOL     OW 2779   0.406   2.091   2.612 -0.7566  0.0026  0.1305
  927SOL    HW1 2780   0.320   2.071   2.666 -0.4605 -3.1138 -0.6121
  927SOL    HW2 2781   0.418   2.023   2.538  0.3502  4.0680 -0.0434
  928SOL     OW 2782   3.071   0.321   2.224 -0.0798 -0.6050  0.0480
  928SOL    HW1 2783   0.053   0.253   2.234 -2.9602  0.2951  0.4756
  928SOL    HW2 2784   3.037   0.349   2.315  0.7482  1.1614 -0.9319
  929SOL     OW 2785   2.769   1.984   1.159  0.4333 -0.2595  0.1414
  929SOL    HW1 2786   2.705   2.061   1.181 -1.7392  2.2208 -0.1545
  929SOL    HW2 2787   2.826   2.009   1.078 -0.5450  0.7530 -2.1539
  930SOL     OW 2788   1.761   0.266   2.393  0.2806 -0.1380 -0.3227
  930SOL    HW1 2789   1.670   0.245   2.439 -2.6053 -0.0612  2.6037
  930SOL    HW2 2790   1.752   0.356   2.348  0.4775 -0.1785 -0.4175
  931SOL     OW 2791   2.241   1.221   3.049  0.3017 -0.1863  0.1791
  931SOL    HW1 2792   2.158   1.247   0.018  0.1139  1.9476  0.0459
  931SOL    HW2 2793   2.224   1.184   2.956 -2.7705  3.6517  1.0134
  932SOL     OW 2794   1.706   0.845   0.585 -0.3064  0.2476  0.6539
  932SOL    HW1 2795   1.691   0.781   0.661  1.8720  2.1980 -0.1569
  932SOL    HW2 2796   1.700   0.809   0.488 -0.1228  0.8753 -1.5613
  933SOL     OW 2797   2.184   1.119   0.747 -0.2295  0.4773  0.5045
  933SOL    HW1 2798   2.222   1.096   0.658 -3.8541  1.1477  1.2434
  933SOL    HW2 2799   2.105   1.176   0.745 -1.5067  2.1652  0.7130
  934SOL     OW 2800   2.150   1.082   2.835 -0.3369 -0.4270 -0.5390
  934SOL    HW1 2801   2.059   1.127   2.834  0.4539  2.2198  1.7482
  934SOL    HW2 2802   2.188   1.081   2.741 -1.1342  1.3508  0.8721
  935SOL     OW 2803   0.081   1.409   0.834  0.1929 -0.5344 -0.3941
  935SOL    HW1 2804   0.072   1.494   0.775 -2.0398  2.2693 -1.2337
  935SOL    HW2 2805   3.081   1.354   0.838 -0.9955 -0.7414  1.0047
  936SOL     OW 2806   0.193   2.675   0.369 -0.7102  0.1262 -0.2137
  936SOL    HW1 2807   0.266   2.751   0.368  1.2782  0.4992  2.2289
  936SOL    HW2 2808   0.219   2.601   0.304 -1.0125  1.8594  0.3991
  937SOL     OW 2809   3.082   2.354   2.018 -0.0769  0.2577  0.2429
  937SOL    HW1 2810   0.062   2.412   1.963  2.8942  1.5809 -1.2739
  937SOL    HW2 2811   0.017   2.256   1.998 -4.1301  0.3533  2.7344
  938SOL     OW 2812   2.447   2.205   2.947  0.2970  0.9022 -0.2527
  938SOL    HW1 2813   2.417   2.295   2.914  0.7303  2.9887  0.0310
  938SOL    HW2 2814   2.487   2.156   2.865  1.9389 -0.4700 -1.3634
  939SOL     OW 2815   1.054   0.506   1.215  0.0832  0.1612 -0.1148
  939SOL    HW1 2816   1.096   0.570   1.279 -0.2156 -2.5289 -0.5466
  939SOL    HW2 2817   1.081   0.410   1.239  1.2478 -0.6233  0.8286
  940SOL     OW 2818   2.530   2.770   2.959 -0.3434  0.2010  0.0097
  940SOL    HW1 2819   2.579   2.769   3.052 -0.2292 -0.4398  1.4730
  940SOL    HW2 2820   2.430   2.795   2.969 -1.3158 -0.5851  0.5865
  941SOL     OW 2821   2.538   2.717   2.224  0.0433  0.4576 -0.4495
  941SOL    HW1 2822   2.604   2.689   2.153 -1.2562 -2.5454 -0.3441
  941SOL    HW2 2823   2.452   2.749   2.179  1.9908 -3.3151 -4.3431
  942SOL     OW 2824   1.459   0.270   1.251  0.0270  0.3297  0.1870
  942SOL    HW1 2825   1.524   0.252   1.175  0.6620  0.7624  3.0187
  942SOL    HW2 2826   1.462   0.374   1.266 -0.4837  2.5703  0.2375
  943SOL     OW 2827   0.751   1.384   2.569  0.3061 -0.4455  0.1758
  943SOL    HW1 2828   0.853   1.369   2.564  0.0672 -0.5163  2.0821
  943SOL    HW2 2829   0.700   1.341   2.495  1.3820  3.2794 -0.0184
  944SOL     OW 2830   2.516   0.805   0.882  0.3531 -0.2891  0.5660
  944SOL    HW1 2831   2.607   0.780   0.925  1.3746 -2.5576  0.3143
  944SOL    HW2 2832   2.514   0.904   0.863 -1.5502  0.7885  1.4450
  945SOL     OW 2833   2.943   0.163   2.806 -1.3790  0.2740 -0.1439
  945SOL    HW1 2834   2.960   0.083   2.742 -0.6277  0.9677 -1.9732
  945SOL    HW2 2835   2.982   0.137   2.896  2.6098  1.3623  1.7107
  946SOL     OW 2836   0.005   1.418   1.468 -0.1128 -0.3021 -0.3774
  946SOL    HW1 2837   3.018   1.422   1.396 -1.6821 -0.7480 -3.3551
  946SOL    HW2 2838   3.080   1.332   1.522 -1.5777 -4.0694  2.3758
  947SOL     OW 2839   0.795   0.304   2.902 -0.3857 -0.0458 -0.0184
  947SOL    HW1 2840   0.714   0.304   2.965 -0.6235  1.9257 -2.6090
  947SOL    HW2 2841   0.787   0.226   2.837  1.4294 -2.3615  0.1542
  948SOL     OW 2842   2.164   1.628   1.075 -0.3774 -0.0200 -0.0929
  948SOL    HW1 2843   2.140   1.558   1.152 -0.8151 -1.6931  1.4338
  948SOL    HW2 2844   2.268   1.640   1.080 -1.7644 -0.0320 -2.0177
  949SOL     OW 2845   0.343   0.988   2.837  0.2626  0.0241  0.3562
  949SOL    HW1 2846   0.393   1.019   2.921  0.2144  1.9493  0.9990
  949SOL    HW2 2847   0.253   1.032   2.825 -0.8760  0.3401 -0.2840
  950SOL     OW 2848   0.269   2.837   1.307 -0.2705  0.2625  0.3936
  950SOL    HW1 2849   0.232   2.835   1.402 -1.2173 -0.1474 -0.3104
  950SOL    HW2 2850   0.361   2.790   1.313  1.7858 -0.3981 -0.0910
  951SOL     OW 2851   0.852   1.766   2.635  0.0884  0.0022 -0.0220
  951SOL    HW1 2852   0.763   1.802   2.670  1.5817 -0.9272 -1.1809
  951SOL    HW2 2853   0.925   1.833   2.655 -3.6341 -0.0759  1.6909
  952SOL     OW 2854   0.757   1.228   0.600 -0.4267  0.3676 -0.4066
  952SOL    HW1 2855   0.826   1.186   0.667  2.0032 -0.3436  1.0067
  952SOL    HW2 2856   0.793   1.308   0.546  0.3770  2.3354 -0.0620
  953SOL     OW 2857   2.143   1.726   2.653  0.4014  0.2631 -0.1714
  953SOL    HW1 2858   2.209   1.750   2.582  0.6941 -1.4590  2.5049
  953SOL    HW2 2859   2.184   1.682   2.737 -1.3400  0.2385  0.6524
  954SOL     OW 2860   1.455   0.500   0.812 -0.1722  0.1426  0.5559
  954SOL    HW1 2861   1.524   0.438   0.762 -0.5951 -0.9489 -1.4719
  954SOL    HW2 2862   1.404   0.455   0.888  2.0580  2.1956  3.3653
  955SOL     OW 2863   0.987   1.800   2.980 -0.0458 -0.2168 -0.2951
  955SOL    HW1 2864   0.925   1.880   2.964  1.3855 -0.7196 -3.2752
  955SOL    HW2 2865   1.016   1.793   3.081  1.4932 -1.3264  3.0447
  956SOL     OW 2866   2.741   0.740   1.964  0.1912  0.0314  0.4427
  956SOL    HW1 2867   2.803   0.796   1.912 -1.6197 -0.6678  1.1726
  956SOL    HW2 2868   2.748   0.644   1.928  0.2040  1.5879 -0.4108
  957SOL     OW 2869   1.810   2.059   2.100  0.5095  0.3304 -0.4505
  957SOL    HW1 2870   1.854   1.969   2.100 -4.0111 -0.5448 -0.6089
  957SOL    HW2 2871   1.735   2.060   2.041  1.0486  1.8592  0.9825
  958SOL     OW 2872   1.699   0.938   1.404 -0.0528 -0.4528 -0.2498
  958SOL    HW1 2873   1.766   1.016   1.430  2.4329 -0.2434  3.3226
  958SOL    HW2 2874   1.720   0.889   1.318  1.4684  0.2169 -0.7963
  959SOL     OW 2875   1.583   2.107   1.975 -0.7246 -0.0687  0.1094
  959SOL    HW1 2876   1.540   2.017   1.957 -1.1972  2.7914  1.9907
  959SOL    HW2 2877   1.517   2.184   1.984 -1.6929 -1.8334 -1.2917
  960SOL     OW 2878   0.534   0.950   2.630  0.0106  0.6241 -0.5099
  960SOL    HW1 2879   0.479   0.979   2.713 -0.9040  1.3546  3.1273
  960SOL    HW2 2880   0.480   0.945   2.543  2.0662  0.1748  0.4429
  961SOL     OW 2881   0.183   1.169   0.078  0.1023  0.5552 -0.8775
  961SOL    HW1 2882   0.205   1.192   3.069 -0.6803  0.7918 -1.5738
  961SOL    HW2 2883   0.165   1.257   0.129 -0.0273 -0.3795 -2.2850
  962SOL     OW 2884   1.027   2.226   2.762  0.0536  0.4286  0.1002
  962SOL    HW1 2885   1.084   2.248   2.842  0.1565 -0.7038 -2.4786
  962SOL    HW2 2886   1.022   2.304   2.698  1.4441  0.9701  1.9898
  963SOL     OW 2887   2.913   1.545   0.100 -0.0569 -0.3915  0.4287
  963SOL    HW1 2888   2.957   1.512   0.014  3.2037 -0.2528  2.2081
  963SOL    HW2 2889   2.943   1.641   0.112 -2.5559  1.3365 -0.5222
  964SOL     OW 2890   0.659   2.154   2.119 -0.2011 -0.7654 -0.6767
  964SOL    HW1 2891   0.736   2.143   2.055  2.3104 -0.8926 -0.5094
  964SOL    HW2 2892   0.694   2.190   2.206 -1.6552 -2.0102 -0.7655
  965SOL     OW 2893   1.412   1.661   1.330 -0.7918  0.4160  0.0849
  965SOL    HW1 2894   1.314   1.646   1.300  0.0689  2.0553  2.8269
  965SOL    HW2 2895   1.458   1.577   1.363  0.3628  1.0877  0.4561
  966SOL     OW 2896   2.948   1.526   0.388  0.6671  0.3764  0.1827
  966SOL    HW1 2897   3.047   1.509   0.394  1.0513 -0.2991 -0.8195
  966SOL    HW2 2898   2.925   1.522   0.287  0.4171  0.2725  0.4163
  967SOL     OW 2899   1.842   2.764   2.467  0.0613 -0.1009 -0.1401
  967SOL    HW1 2900   1.776   2.839   2.436  2.2709  1.1025  1.1878
  967SOL    HW2 2901   1.827   2.674   2.421 -0.5666 -0.8983 -1.0527
  968SOL     OW 2902   1.677   1.348   3.004  0.1833 -0.0649 -0.0608
  968SOL    HW1 2903   1.725   1.430   3.037 -0.4597  0.2723  0.9337
  968SOL    HW2 2904   1.617   1.314   3.080 -2.7686  0.6522  0.4303
  969SOL     OW 2905   0.276   1.301   2.326 -0.4429 -0.0763  0.2857
  969SOL    HW1 2906   0.255   1.200   2.298 -3.2335 -1.0706 -2.0525
  969SOL    HW2 2907   0.373   1.325   2.329  0.5274 -0.8314 -0.9814
  970SOL     OW 2908   2.751   2.937   0.441  0.3641  0.0978  0.0388
  970SOL    HW1 2909   2.792   2.846   0.466  0.8250 -0.0383  0.7487
  970SOL    HW2 2910   2.720   2.942   0.345 -0.5196 -2.7205  0.2103
  971SOL     OW 2911   2.054   1.898   0.790  0.7798 -0.2820  0.4114
  971SOL    HW1 2912   2.136   1.930   0.836 -1.5800 -0.0301 -1.6397
  971SOL    HW2 2913   2.029   1.803   0.814 -0.5699 -0.3764 -0.0596
  972SOL     OW 2914   0.264   1.704   2.765 -0.0590  0.0693  0.0487
  972SOL    HW1 2915   0.271   1.729   2.665 -0.4960 -2.0515 -0.7915
  972SOL    HW2 2916   0.329   1.627   2.798  3.2901 -1.8113  3.8181
  973SOL     OW 2917   0.951   0.509   0.403  0.2845 -0.2126 -0.0449
  973SOL    HW1 2918   0.915   0.424   0.360 -0.0823 -0.9760  0.1980
  973SOL    HW2 2919   1.052   0.514   0.402  0.0246 -0.8266 -0.6829
  974SOL     OW 2920   2.301   0.618   1.623 -0.1285 -0.0329  0.0885
  974SOL    HW1 2921   2.285   0.544   1.690 -3.5037  1.5853 -0.7382
  974SOL    HW2 2922   2.388   0.663   1.638  0.1718  1.2352  0.9676
  975SOL     OW 2923   0.206   3.077   0.432  0.1698 -0.4811  0.1491
  975SOL    HW1 2924   0.302   3.068   0.461 -2.9971 -1.5956  0.4721
  975SOL    HW2 2925   0.147   3.011   0.480  1.9364 -0.2164 -0.8006
  976SOL     OW 2926   0.761   1.400   1.367 -0.1695  0.0196  0.3533
  976SOL    HW1 2927   0.734   1.359   1.278  0.2452  1.2080 -1.2000
  976SOL    HW2 2928   0.819   1.481   1.351  1.9781 -0.6711  1.0111
  977SOL     OW 2929   1.325   2.065   0.382 -0.2588  0.0198 -0.4798
  977SOL    HW1 2930   1.385   2.031   0.309 -0.2156  1.5648  0.9412
  977SOL    HW2 2931   1.301   2.167   0.369  1.5032  3.6518 -1.3164
  978SOL     OW 2932   0.142   0.900   0.124 -0.1415 -0.0536  0.4932
  978SOL    HW1 2933   0.178   0.987   0.090  3.9197  1.3993  1.0292
  978SOL    HW2 2934   0.156   0.899   0.225 -1.1516 -1.8953 -0.8171
  979SOL     OW 2935   1.855   1.370   0.507  0.3555 -0.1410 -0.0100
  979SOL    HW1 2936   1.799   1.287   0.516 -0.1942  1.3468  3.9340
  979SOL    HW2 2937   1.825   1.442   0.571  0.2727 -0.7120 -0.3532
  980SOL     OW 2938   0.510   1.840   1.522  0.0160  0.1181 -0.0017
  980SOL    HW1 2939   0.568   1.919   1.552  2.8453  2.9341 -0.6904
  980SOL    HW2 2940   0.499   1.846   1.424 -1.2695 -1.2716  1.6255
  981SOL     OW 2941   2.691   1.566   2.798 -0.4501 -0.5216 -0.1311
  981SOL    HW1 2942   2.775   1.571   2.737  1.2456 -0.9998 -0.9143
  981SOL    HW2 2943   2.635   1.483   2.773 -1.3577  0.7137 -2.2519
  982SOL     OW 2944   0.297   2.025   1.781 -0.0728  0.6567  0.2118
  982SOL    HW1 2945   0.281   2.026   1.678  2.1595 -0.4846 -0.0731
  982SOL    HW2 2946   0.325   1.935   1.817  1.2641 -1.1085  2.4907
  983SOL     OW 2947   1.462   0.094   2.104  0.1533 -0.0252 -0.5958
  983SOL    HW1 2948   1.400   0.073   2.033  1.9145  0.2789  4.2268
  983SOL    HW2 2949   1.477   0.196   2.120  1.1401 -1.0631 -1.0756
  984SOL     OW 2950   2.905   2.950   2.918 -0.2451 -0.0887  0.1573
  984SOL    HW1 2951   2.971   3.010   2.966 -2.7950 -1.0736 -1.3420
  984SOL    HW2 2952   2.946   2.940   2.825 -0.2614  0.1266  2.8741
  985SOL     OW 2953   1.448   1.293   1.940 -0.1348  0.2895  0.3034
  985SOL    HW1 2954   1.527   1.238   1.913 -1.2310 -0.9889  0.7144
  985SOL    HW2 2955   1.391   1.243   2.006 -1.1982  2.0764  0.0072
  986SOL     OW 2956   1.910   0.505   2.718 -0.6754  0.3152  0.1994
  986SOL    HW1 2957   1.976   0.560   2.767 -1.2969 -0.6423  0.1470
  986SOL    HW2 2958   1.820   0.546   2.732  0.3164 -0.4532  1.0441
  987SOL     OW 2959   3.072   1.908   2.541  0.1073  0.5961 -0.2930
  987SOL    HW1 2960   3.019   1.919   2.630  0.2418  0.0893 -0.4981
  987SOL    HW2 2961   3.049   1.827   2.483 -1.0008  1.8869  1.2009
  988SOL     OW 2962   2.793   0.250   1.463 -0.3210  0.3085  0.5889
  988SOL    HW1 2963   2.886   0.273   1.426  0.8968 -0.1026 -0.8043
  988SOL    HW2 2964   2.742   0.219   1.382 -0.0358  0.4362  1.7564
  989SOL     OW 2965   1.935   0.084   1.091  0.0135  0.2423  0.1895
  989SOL    HW1 2966   2.006   0.035   1.042 -0.6426  2.7425  0.5659
  989SOL    HW2 2967   1.934   0.047   1.187 -1.0079 -1.0231  0.3787
  990SOL     OW 2968   2.557   0.857   0.064  0.7984 -0.1875 -0.3560
  990SOL    HW1 2969   2.602   0.788   0.006 -0.4832  0.6398 -0.4693
  990SOL    HW2 2970   2.620   0.936   0.101  2.0179  2.6712 -0.4155
  991SOL     OW 2971   0.352   1.244   0.449 -0.0359 -0.1242  0.2221
  991SOL    HW1 2972   0.257   1.210   0.471  0.0063  0.8613 -0.0587
  991SOL    HW2 2973   0.391   1.270   0.538 -0.4569  2.3174  0.0573
  992SOL     OW 2974   1.863   1.383   1.873 -0.1733 -0.2490  0.0042
  992SOL    HW1 2975   1.842   1.462   1.933  0.3718  2.1227  0.5040
  992SOL    HW2 2976   1.957   1.351   1.892 -1.0248  0.9546  1.5520
  993SOL     OW 2977   0.442   2.377   0.763 -0.4112  0.3547 -0.4962
  993SOL    HW1 2978   0.405   2.460   0.813  1.4518  0.8394 -0.0583
  993SOL    HW2 2979   0.430   2.383   0.665  0.6334 -0.9835 -0.0005
  994SOL     OW 2980   3.022   1.816   1.729 -0.1760 -0.5664 -0.5527
  994SOL    HW1 2981   2.930   1.860   1.736 -1.1978 -0.0265 -2.2351
  994SOL    HW2 2982   3.064   1.847   1.642 -3.1960  0.5915 -2.8001
  995SOL     OW 2983   1.888   1.664   2.687  0.0702 -0.0149 -0.3773
  995SOL    HW1 2984   1.842   1.704   2.609 -0.3011  2.0936 -1.2467
  995SOL    HW2 2985   1.987   1.687   2.684 -3.3706 -1.7702  1.9398
  996SOL     OW 2986   2.024   2.377   0.475  0.2186 -0.2982  0.4139
  996SOL    HW1 2987   1.941   2.321   0.470 -0.3008  1.2822  1.2878
  996SOL    HW2 2988   2.108   2.336   0.436  2.1550 -0.9350 -0.7974
  997SOL     OW 2989   1.191   1.594   2.109  0.0231  0.2535 -0.0463
  997SOL    HW1 2990   1.221   1.666   2.173 -0.8098 -2.0128  0.8380
  997SOL    HW2 2991   1.117   1.538   2.150 -0.9449 -0.9356 -2.6657
  998SOL     OW 2992   0.060   2.252   0.489  0.2584 -0.3035 -0.1362
  998SOL    HW1 2993   0.075   2.255   0.391  0.4041 -2.1840  1.1910
  998SOL    HW2 2994   0.096   2.164   0.523 -0.5178 -2.9356 -2.5668
  999SOL     OW 2995   0.722   2.850   0.417 -0.2004  0.5301  0.2983
  999SOL    HW1 2996   0.730   2.792   0.339  0.5096  1.2051  1.3453
  999SOL    HW2 2997   0.773   2.935   0.403 -1.5724 -0.0739 -0.8209
 1000SOL     OW 2998   1.141   0.332   0.130 -0.4083 -0.4779 -0.3455
 1000SOL    HW1 2999   1.232   0.295   0.151 -0.0496  1.1422  1.4814
 1000SOL    HW2 3000   1.148   0.404   0.060 -1.8551 -2.5723  1.1822
   3.08722   3.08722   3.08722
