1000 SPC/Fw water molecules t=  89.00000 step= 89000
 3000
    1SOL     OW    1   2.039   2.592   0.504 -0.2590  0.0559  0.0596
    1SOL    HW1    2   2.051   2.522   0.431 -0.7354 -0.8303 -0.7328
    1SOL    HW2    3   2.102   2.669   0.481 -0.9687 -0.5510  0.7184
    2SOL     OW    4   0.958   1.187   2.054  0.2556  0.3990  0.4194
    2SOL    HW1    5   1.027   1.177   1.981 -1.4933  1.2729  0.7051
    2SOL    HW2    6   0.974   1.133   2.137  1.3488  4.9560  0.6088
    3SOL     OW    7   1.503   2.623   2.445 -0.3869  0.1893 -0.1438
    3SOL    HW1    8   1.548   2.536   2.479  0.3377  0.1774  1.5775
    3SOL    HW2    9   1.478   2.623   2.349 -1.1107 -0.6084  0.8419
    4SOL     OW   10   1.301   1.755   2.775  0.3415 -0.2967 -0.4500
    4SOL    HW1   11   1.368   1.827   2.737  2.8117  1.1180  0.7887
    4SOL    HW2   12   1.332   1.720   2.868 -0.3162 -3.2662  0.7603
    5SOL     OW   13   0.591   0.905   1.694  0.2898 -0.2430  0.2258
    5SOL    HW1   14   0.621   0.973   1.764  0.3340 -0.2843  3.3735
    5SOL    HW2   15   0.655   0.879   1.625 -3.3763 -0.2296  3.1922
    6SOL     OW   16   1.945   0.767   2.682  0.0880  0.2707  0.4007
    6SOL    HW1   17   1.897   0.752   2.596  0.7170 -0.9362 -0.7744
    6SOL    HW2   18   1.881   0.778   2.761  3.1403  0.0688 -1.5474
    7SOL     OW   19   0.406   0.310   1.684 -0.2451  0.1509 -0.8407
    7SOL    HW1   20   0.396   0.391   1.621 -0.2095  0.2077 -0.4748
    7SOL    HW2   21   0.310   0.284   1.717 -0.5821 -1.5879  1.0509
    8SOL     OW   22   1.730   0.102   1.901  0.3617  0.2703 -0.6731
    8SOL    HW1   23   1.810   0.156   1.863 -0.2908 -1.1638 -2.2712
    8SOL    HW2   24   1.752   0.002   1.900  0.6122 -3.4039  1.5476
    9SOL     OW   25   0.290   0.306   0.551 -0.0233 -0.0827  0.4867
    9SOL    HW1   26   0.323   0.221   0.601 -0.3635 -1.6407  0.0541
    9SOL    HW2   27   0.359   0.381   0.557  0.3234 -1.3640  1.6443
   10SOL     OW   28   0.581   2.105   2.275  0.1044 -0.0361 -0.3921
   10SOL    HW1   29   0.649   2.034   2.257  0.0682  0.5769  2.7927
   10SOL    HW2   30   0.575   2.160   2.191  1.8419 -0.5252  1.0969
   11SOL     OW   31   0.624   1.550   0.183  0.6706  0.0436 -0.5128
   11SOL    HW1   32   0.687   1.548   0.101  2.8593  0.3222 -1.8651
   11SOL    HW2   33   0.613   1.457   0.221 -0.9111 -1.0998 -2.1373
   12SOL     OW   34   2.972   2.838   1.385 -0.1644  0.0238 -0.4581
   12SOL    HW1   35   2.966   2.937   1.403 -0.5548  0.3625  1.7904
   12SOL    HW2   36   3.027   2.831   1.301 -0.3210  0.3277 -0.3086
   13SOL     OW   37   0.859   3.004   0.538 -0.1685 -0.5539  0.0561
   13SOL    HW1   38   0.841   2.935   0.465 -2.2248  0.7077  1.5228
   13SOL    HW2   39   0.884   3.096   0.498 -0.4573  0.7051 -1.6041
   14SOL     OW   40   1.499   1.629   0.996 -0.2740 -0.3006 -0.7010
   14SOL    HW1   41   1.433   1.674   1.057  1.2404 -0.6326 -2.5535
   14SOL    HW2   42   1.574   1.590   1.050 -0.0399 -0.3083  0.6134
   15SOL     OW   43   3.010   1.628   2.529 -0.0562 -0.1930  0.0133
   15SOL    HW1   44   2.935   1.608   2.597  0.6183  2.5237 -2.1094
   15SOL    HW2   45   3.071   1.706   2.571  1.0770  1.0235  0.7695
   16SOL     OW   46   1.400   0.513   2.600 -0.6050 -0.0383  0.2879
   16SOL    HW1   47   1.411   0.541   2.500  0.6301  0.5655 -1.3568
   16SOL    HW2   48   1.464   0.561   2.664 -0.6506  0.5571  0.7652
   17SOL     OW   49   0.116   2.217   2.273  0.1914  0.3072  0.0407
   17SOL    HW1   50   0.121   2.170   2.361  0.5197  0.4349  2.3928
   17SOL    HW2   51   0.036   2.176   2.218 -1.1127 -0.5724 -0.8573
   18SOL     OW   52   1.017   1.313   0.669  0.4135 -0.2251  0.1078
   18SOL    HW1   53   1.053   1.406   0.670 -0.7757 -0.5235 -1.2320
   18SOL    HW2   54   1.095   1.246   0.682  1.1881 -0.4788 -0.4122
   19SOL     OW   55   2.625   1.411   2.538 -0.1304  0.8191 -0.3639
   19SOL    HW1   56   2.687   1.468   2.592 -3.6930 -1.1667  1.0953
   19SOL    HW2   57   2.582   1.458   2.458  1.1914  0.7103  2.0266
   20SOL     OW   58   2.504   2.153   2.481  0.2594  0.1596  0.1450
   20SOL    HW1   59   2.465   2.167   2.389 -0.6741 -2.5814  2.2892
   20SOL    HW2   60   2.553   2.241   2.506 -0.7648  1.8871 -0.0033
   21SOL     OW   61   1.063   2.110   0.144 -0.2438 -0.4162 -0.0090
   21SOL    HW1   62   1.147   2.156   0.101  0.3448 -1.8290  0.8515
   21SOL    HW2   63   1.039   2.157   0.236 -2.1654  1.1015  0.2961
   22SOL     OW   64   2.216   2.230   1.433 -0.4480  0.4783 -0.5359
   22SOL    HW1   65   2.216   2.326   1.454  1.1202 -0.2601  0.8451
   22SOL    HW2   66   2.127   2.214   1.384 -1.6756  0.2899 -1.8562
   23SOL     OW   67   0.347   1.185   1.291 -0.0263 -0.1980 -0.1569
   23SOL    HW1   68   0.268   1.126   1.314  0.7143 -1.2485 -1.8078
   23SOL    HW2   69   0.441   1.138   1.298  1.6415 -0.6625  0.0693
   24SOL     OW   70   2.152   1.733   2.326  0.5424 -0.8969 -0.6227
   24SOL    HW1   71   2.195   1.671   2.392  1.1974  3.2190  0.7863
   24SOL    HW2   72   2.206   1.822   2.323  0.9537  1.7683 -1.8834
   25SOL     OW   73   1.998   0.510   2.202  0.6204  0.1968  0.1888
   25SOL    HW1   74   2.092   0.498   2.175  0.5364  3.1208  2.3928
   25SOL    HW2   75   1.929   0.505   2.129 -1.0160 -1.2321 -0.7798
   26SOL     OW   76   1.378   0.335   0.462 -0.1188  0.1284  0.7715
   26SOL    HW1   77   1.363   0.412   0.392 -3.2551  2.0494 -0.4045
   26SOL    HW2   78   1.397   0.385   0.547 -0.1769  0.5341 -2.8088
   27SOL     OW   79   0.859   1.627   0.486  0.3701 -0.0440  0.0289
   27SOL    HW1   80   0.783   1.673   0.436 -1.0350 -0.3443 -0.9561
   27SOL    HW2   81   0.813   1.565   0.556 -1.2569  2.0257  0.2975
   28SOL     OW   82   2.486   1.811   0.995  0.1332  0.0034  0.2691
   28SOL    HW1   83   2.514   1.806   1.092  0.4802  0.5891 -0.6339
   28SOL    HW2   84   2.388   1.842   0.979 -0.8277 -2.0908 -0.5728
   29SOL     OW   85   2.357   3.085   1.642 -0.2259 -0.5350 -0.0148
   29SOL    HW1   86   2.256   3.071   1.659 -3.1044 -0.4172  3.5834
   29SOL    HW2   87   2.401   3.005   1.691  0.1206  3.2065  0.1138
   30SOL     OW   88   0.895   0.109   1.285  0.1943 -0.7304  0.0262
   30SOL    HW1   89   0.913   0.018   1.321  2.9216  3.9780 -1.7655
   30SOL    HW2   90   0.956   0.179   1.333  1.0353  1.2048 -0.0901
   31SOL     OW   91   2.890   2.116   1.793  0.0676  0.1525  0.0908
   31SOL    HW1   92   2.903   2.023   1.834  1.5245 -0.0839  0.9415
   31SOL    HW2   93   2.969   2.169   1.826  0.3101 -1.2814  0.9896
   32SOL     OW   94   1.447   1.456   1.839 -0.0233 -0.2057  0.1709
   32SOL    HW1   95   1.396   1.523   1.782 -1.9486  2.7369 -1.4167
   32SOL    HW2   96   1.547   1.472   1.852 -1.0657  0.1296  0.0754
   33SOL     OW   97   0.342   0.259   0.101  0.0144 -0.1722  0.6971
   33SOL    HW1   98   0.392   0.324   0.040  1.1025  0.8774  0.0799
   33SOL    HW2   99   0.400   0.199   0.150 -3.6467  1.5904 -0.0782
   34SOL     OW  100   2.281   0.091   0.610  0.2508 -0.3486  0.4813
   34SOL    HW1  101   2.224   0.003   0.614 -1.6444  0.1588 -0.5541
   34SOL    HW2  102   2.340   0.103   0.688  0.9334 -1.3270 -3.5143
   35SOL     OW  103   2.604   0.113   1.592  0.0877 -0.0854 -0.1559
   35SOL    HW1  104   2.510   0.074   1.568 -2.7243 -1.0983  1.7707
   35SOL    HW2  105   2.679   0.058   1.567 -2.2077  0.8348  2.5480
   36SOL     OW  106   2.762   2.730   2.688 -0.3618 -0.0112 -0.2265
   36SOL    HW1  107   2.667   2.774   2.678 -3.3361  0.0465 -0.3205
   36SOL    HW2  108   2.796   2.697   2.599 -1.4016  0.9978  0.3958
   37SOL     OW  109   1.535   2.523   3.023 -0.3807  0.6518 -0.4704
   37SOL    HW1  110   1.544   2.613   2.974  1.5383 -3.9478  0.1687
   37SOL    HW2  111   1.450   2.524   3.070  2.2914  2.4863 -1.9183
   38SOL     OW  112   2.790   0.844   2.846 -0.3209 -0.2902 -0.3038
   38SOL    HW1  113   2.867   0.876   2.906  0.9625 -0.8477  2.5637
   38SOL    HW2  114   2.700   0.881   2.873  1.1615 -0.9807  0.3603
   39SOL     OW  115   1.823   1.819   2.001 -0.0065  0.1121  0.1218
   39SOL    HW1  116   1.844   1.865   2.092  1.5788 -2.7001  0.9426
   39SOL    HW2  117   1.907   1.785   1.955  2.7752 -1.1634 -2.2919
   40SOL     OW  118   0.249   0.291   2.737  0.3689 -0.0389 -0.3043
   40SOL    HW1  119   0.171   0.279   2.806 -0.9232 -1.0785 -0.6980
   40SOL    HW2  120   0.334   0.245   2.765  0.6687 -1.3205 -0.2863
   41SOL     OW  121   1.575   1.364   1.488 -0.3825 -0.1895  0.9803
   41SOL    HW1  122   1.567   1.266   1.469 -0.0720 -1.2049  1.2931
   41SOL    HW2  123   1.663   1.388   1.540  0.6823  1.3691  0.0791
   42SOL     OW  124   0.159   0.267   1.821 -0.0651  0.1400 -0.1952
   42SOL    HW1  125   0.116   0.364   1.802 -0.7236  0.7449 -0.0795
   42SOL    HW2  126   0.157   0.238   1.921 -1.2418  0.1374 -0.3976
   43SOL     OW  127   1.422   1.273   2.062 -0.2190  0.3916  0.2138
   43SOL    HW1  128   1.502   1.213   2.061 -2.2100  3.6365 -0.3065
   43SOL    HW2  129   1.425   1.333   1.979  2.7661  3.9022 -0.4302
   44SOL     OW  130   2.991   0.031   0.062 -0.0452 -0.3062  0.0878
   44SOL    HW1  131   2.982   0.029   3.065 -0.2754  1.6430  0.1002
   44SOL    HW2  132   2.970   0.119   0.102  1.4470 -3.4691 -1.9835
   45SOL     OW  133   0.430   2.115   1.113 -0.1032  0.1619  0.0270
   45SOL    HW1  134   0.521   2.135   1.159  0.1141 -1.9888  1.1941
   45SOL    HW2  135   0.424   2.020   1.091  0.3710 -0.5580  3.1573
   46SOL     OW  136   2.462   2.716   1.778  0.2075  0.1081 -0.0760
   46SOL    HW1  137   2.481   2.805   1.830 -0.4160  0.7560  1.8382
   46SOL    HW2  138   2.548   2.696   1.721  2.1001 -0.6552 -1.0776
   47SOL     OW  139   0.823   1.872   1.197 -0.1698 -0.0268  0.1958
   47SOL    HW1  140   0.850   1.815   1.281  0.8279 -1.6835  0.2400
   47SOL    HW2  141   0.722   1.899   1.202  0.9231  0.4671  1.7482
   48SOL     OW  142   0.600   2.688   0.388  0.1927 -0.2008  0.2077
   48SOL    HW1  143   0.569   2.637   0.470 -0.5237  0.6482  0.7185
   48SOL    HW2  144   0.527   2.757   0.360 -2.8079  0.9706 -3.2296
   49SOL     OW  145   2.876   1.618   2.024 -0.3712  0.4997  0.4048
   49SOL    HW1  146   2.908   1.586   2.113 -1.3832  1.0454 -1.1909
   49SOL    HW2  147   2.802   1.562   1.988  1.3576 -2.0074  1.4157
   50SOL     OW  148   1.749   1.052   0.659  0.3338 -0.2389  0.3212
   50SOL    HW1  149   1.684   0.990   0.620  1.4747 -1.6414 -2.1469
   50SOL    HW2  150   1.791   1.012   0.744 -2.0952  0.2560 -2.2598
   51SOL     OW  151   1.089   0.690   0.931  0.0589 -0.4922  0.0091
   51SOL    HW1  152   1.047   0.644   1.014  0.4062 -1.8976  1.7225
   51SOL    HW2  153   1.106   0.620   0.859  2.1361  0.8775 -0.8286
   52SOL     OW  154   1.046   1.484   0.300  0.2691  0.9059  0.2881
   52SOL    HW1  155   1.094   1.398   0.331  1.1855 -1.5044 -1.0443
   52SOL    HW2  156   0.966   1.510   0.361 -1.8767 -0.3674  1.1801
   53SOL     OW  157   1.101   2.683   2.804 -0.7511 -0.1393 -0.5117
   53SOL    HW1  158   1.074   2.596   2.851 -0.7796 -0.2278 -1.0570
   53SOL    HW2  159   1.202   2.666   2.780  1.1462 -0.4257 -0.4087
   54SOL     OW  160   1.649   0.695   1.650  0.3562  0.2788  0.0853
   54SOL    HW1  161   1.615   0.638   1.731  1.1718 -3.3306  0.2185
   54SOL    HW2  162   1.570   0.742   1.605 -0.1949  1.1675 -1.0262
   55SOL     OW  163   2.894   2.557   0.246  0.0642  0.2709  0.4029
   55SOL    HW1  164   2.958   2.631   0.268 -1.1781 -1.9330 -2.2716
   55SOL    HW2  165   2.799   2.583   0.240 -0.1057 -1.9574 -1.0749
   56SOL     OW  166   0.747   2.457   1.819 -0.2951  0.0403 -0.0103
   56SOL    HW1  167   0.671   2.396   1.792 -2.2375  0.8300  0.7881
   56SOL    HW2  168   0.735   2.549   1.777 -0.5995 -1.2340  1.7234
   57SOL     OW  169   1.792   0.926   2.421 -0.0562  0.0525 -0.1209
   57SOL    HW1  170   1.797   0.823   2.401  0.7157 -2.0177 -0.8974
   57SOL    HW2  171   1.693   0.953   2.406 -0.9887  0.4999  2.0476
   58SOL     OW  172   0.148   1.104   1.918  0.0493  0.6297  0.4068
   58SOL    HW1  173   0.223   1.092   1.847 -0.1625 -2.0356 -0.0672
   58SOL    HW2  174   0.133   1.200   1.945  0.1378 -0.0781 -0.3425
   59SOL     OW  175   0.450   2.759   2.299  0.0218 -0.2976  0.1241
   59SOL    HW1  176   0.545   2.791   2.271 -0.6338 -0.6456  0.5475
   59SOL    HW2  177   0.463   2.683   2.363 -1.7980 -0.6768  1.3825
   60SOL     OW  178   2.877   2.427   0.489 -0.2283 -0.0062  0.3455
   60SOL    HW1  179   2.895   2.328   0.496 -3.5209  0.4652  3.0647
   60SOL    HW2  180   2.868   2.459   0.392  0.9442 -1.0215  2.9304
   61SOL     OW  181   0.887   2.762   0.697 -0.5422  0.2585  0.0162
   61SOL    HW1  182   0.935   2.689   0.651 -0.8419  2.6629  0.3172
   61SOL    HW2  183   0.884   2.849   0.640  0.2817  0.5365  0.5486
   62SOL     OW  184   1.814   2.614   2.635  0.2572  0.3992  0.1271
   62SOL    HW1  185   1.750   2.565   2.573 -1.5340  0.7483  0.4360
   62SOL    HW2  186   1.881   2.670   2.579 -0.0184 -0.3138  0.7609
   63SOL     OW  187   1.916   0.423   0.094 -0.1549  0.3124  0.5913
   63SOL    HW1  188   1.961   0.338   0.059  2.1725  1.5759  1.4319
   63SOL    HW2  189   1.905   0.427   0.196  0.2635  0.0565 -0.7184
   64SOL     OW  190   0.995   1.429   2.636 -0.1625 -0.1270  0.0448
   64SOL    HW1  191   1.054   1.426   2.555  2.7168  0.7973  0.8858
   64SOL    HW2  192   1.017   1.519   2.679  0.1337  4.9476 -2.0592
   65SOL     OW  193   1.364   3.082   1.129 -0.0801  0.0921  0.2066
   65SOL    HW1  194   1.441   3.020   1.154 -0.5580 -1.0294 -1.7707
   65SOL    HW2  195   1.371   3.096   1.026  1.5564 -1.3083 -0.8330
   66SOL     OW  196   0.435   1.673   1.739 -0.0876  0.7323  0.3361
   66SOL    HW1  197   0.513   1.716   1.692  3.1163 -0.7946 -0.7551
   66SOL    HW2  198   0.437   1.701   1.839 -0.3542  0.3962 -1.4549
   67SOL     OW  199   2.319   2.856   2.147  0.2872  0.6610 -0.0816
   67SOL    HW1  200   2.415   2.815   2.169  0.7007 -2.0005  0.7604
   67SOL    HW2  201   2.329   2.955   2.130  1.8932  3.0507  1.5216
   68SOL     OW  202   0.942   0.964   1.578 -0.7025 -0.4100 -0.2201
   68SOL    HW1  203   0.885   1.050   1.559  4.4976  1.4618 -3.1180
   68SOL    HW2  204   0.937   0.899   1.499 -0.1345  1.3636 -1.0071
   69SOL     OW  205   2.469   2.435   0.167  0.1903 -0.2241 -0.0649
   69SOL    HW1  206   2.453   2.522   0.219  1.7142  0.9850 -2.7524
   69SOL    HW2  207   2.530   2.371   0.216 -1.5915 -0.5123 -0.8461
   70SOL     OW  208   2.275   0.807   2.849  0.0879 -0.3877  0.3105
   70SOL    HW1  209   2.361   0.753   2.840 -3.2575  0.3123  1.5252
   70SOL    HW2  210   2.245   0.843   2.761  0.2853 -2.0394  1.6093
   71SOL     OW  211   2.946   2.133   0.463  0.0563 -0.5436  0.1064
   71SOL    HW1  212   2.973   2.057   0.526  1.3157 -0.2182  0.0046
   71SOL    HW2  213   2.938   2.099   0.367  0.3208  0.9900 -1.9325
   72SOL     OW  214   2.967   1.784   0.413 -0.2353  0.3388 -0.3424
   72SOL    HW1  215   3.010   1.820   0.500  0.6843  1.0142  1.5808
   72SOL    HW2  216   3.021   1.712   0.358  1.6701 -2.5323  1.2647
   73SOL     OW  217   1.006   0.735   0.569  0.3257  0.1802  0.1397
   73SOL    HW1  218   0.928   0.717   0.497 -3.5979 -0.4044 -3.2066
   73SOL    HW2  219   0.974   0.813   0.625  0.0088 -1.4355 -1.5717
   74SOL     OW  220   0.111   1.924   1.991  0.2457  0.6464 -0.1037
   74SOL    HW1  221   0.135   1.859   2.066 -0.6700  3.4815 -1.0750
   74SOL    HW2  222   0.192   1.982   1.976 -0.7604  0.2900  0.7161
   75SOL     OW  223   1.678   1.654   1.396 -0.3379  0.1440 -0.0868
   75SOL    HW1  224   1.724   1.672   1.487 -0.1290  2.1542 -1.9287
   75SOL    HW2  225   1.582   1.627   1.395  2.2603  3.1876 -0.9626
   76SOL     OW  226   1.649   2.225   1.034 -0.0274 -0.0685 -0.1097
   76SOL    HW1  227   1.645   2.193   0.940  0.6788  0.3889  1.3671
   76SOL    HW2  228   1.561   2.222   1.084  0.7865  0.4169  1.9957
   77SOL     OW  229   2.480   1.683   2.055 -0.1098  0.1696  0.2964
   77SOL    HW1  230   2.525   1.690   2.146 -0.9219 -0.3258  1.0179
   77SOL    HW2  231   2.449   1.774   2.021  2.0755  2.1092  0.5256
   78SOL     OW  232   1.445   0.687   0.639  0.3016 -0.9320 -0.3196
   78SOL    HW1  233   1.378   0.698   0.558 -3.0855 -1.5131 -2.6533
   78SOL    HW2  234   1.461   0.591   0.664  1.5771 -0.1717  1.0573
   79SOL     OW  235   2.144   1.809   1.710 -0.1746  0.2795 -0.3916
   79SOL    HW1  236   2.181   1.747   1.637  0.4198  0.7505 -0.1044
   79SOL    HW2  237   2.173   1.903   1.683  2.6724  1.4808  1.6257
   80SOL     OW  238   1.032   0.336   1.422 -0.6725  0.3563 -0.4373
   80SOL    HW1  239   1.131   0.316   1.438 -1.2537 -2.4408  0.7680
   80SOL    HW2  240   0.999   0.432   1.441 -0.1670  1.0489 -0.3202
   81SOL     OW  241   0.512   2.556   0.596 -0.0740  0.1427 -0.5958
   81SOL    HW1  242   0.561   2.471   0.639  1.7347 -2.3066  1.9202
   81SOL    HW2  243   0.489   2.622   0.669  0.5442 -5.7374  0.6897
   82SOL     OW  244   1.318   0.275   1.760 -0.3167 -0.2193  0.1187
   82SOL    HW1  245   1.221   0.299   1.784  0.4275 -1.0693 -1.5008
   82SOL    HW2  246   1.326   0.265   1.654 -1.7351 -0.6437 -1.8723
   83SOL     OW  247   0.629   1.811   0.632  0.1012 -0.5778 -0.0970
   83SOL    HW1  248   0.701   1.869   0.673 -1.3232 -0.1267 -1.5739
   83SOL    HW2  249   0.645   1.801   0.532 -0.5360 -1.5579  0.9488
   84SOL     OW  250   2.754   1.332   0.155 -0.1139  0.0196 -0.1319
   84SOL    HW1  251   2.654   1.326   0.171 -0.0732  0.7417  1.3985
   84SOL    HW2  252   2.796   1.250   0.109 -0.1073 -1.7585  1.5632
   85SOL     OW  253   3.042   2.605   1.496  0.5818  0.5773  0.0618
   85SOL    HW1  254   3.005   2.697   1.465  1.6071 -0.6053 -0.1224
   85SOL    HW2  255   2.973   2.536   1.481  1.9592  0.0165  1.5120
   86SOL     OW  256   1.736   2.758   1.063  0.0144 -0.3292  0.6721
   86SOL    HW1  257   1.786   2.691   1.121 -2.2622  1.5283 -2.0494
   86SOL    HW2  258   1.709   2.725   0.968 -1.1068 -3.1295 -2.1340
   87SOL     OW  259   2.994   1.555   0.639 -0.2944 -0.0860  0.0837
   87SOL    HW1  260   2.993   1.468   0.697  0.0841 -2.6655  0.4459
   87SOL    HW2  261   2.938   1.554   0.552 -1.2167  0.2728 -4.9395
   88SOL     OW  262   0.967   0.572   1.159 -0.3243  0.3986  0.2174
   88SOL    HW1  263   0.924   0.647   1.207  1.1859  2.0146 -1.2981
   88SOL    HW2  264   0.910   0.488   1.145  2.1759 -2.6163  0.9966
   89SOL     OW  265   0.614   2.748   1.950 -0.4151 -0.1989  0.2652
   89SOL    HW1  266   0.675   2.723   1.876  2.1418 -2.9970  1.5942
   89SOL    HW2  267   0.529   2.685   1.946 -1.5061 -1.7067 -0.1692
   90SOL     OW  268   2.964   1.983   1.364 -0.4148  0.1014  0.5642
   90SOL    HW1  269   3.047   1.948   1.315  0.7258 -0.8978 -0.5495
   90SOL    HW2  270   2.901   2.016   1.290  0.3351  0.0805  1.5948
   91SOL     OW  271   1.164   1.905   0.963  0.1050 -0.3003 -0.0641
   91SOL    HW1  272   1.172   1.967   0.883 -1.5217 -0.0020 -0.2804
   91SOL    HW2  273   1.118   1.819   0.931 -2.0676 -2.8394  0.1494
   92SOL     OW  274   2.909   2.833   1.869  0.1322 -0.3971 -0.8412
   92SOL    HW1  275   2.992   2.867   1.823  0.2637 -2.9374  0.6486
   92SOL    HW2  276   2.860   2.909   1.919  0.1884 -1.1537 -0.5767
   93SOL     OW  277   2.948   1.227   3.008 -0.0441  0.1438  0.0459
   93SOL    HW1  278   2.979   1.194   2.918 -3.8250 -1.0576 -3.0118
   93SOL    HW2  279   2.903   1.155   3.062 -0.6112  1.7707 -1.0476
   94SOL     OW  280   2.520   2.953   1.895  0.0704 -0.1557  0.1326
   94SOL    HW1  281   2.448   3.016   1.935 -3.1330  1.6684  0.5470
   94SOL    HW2  282   2.607   2.958   1.950 -1.5560  0.5231  1.4061
   95SOL     OW  283   1.378   0.551   1.877  0.3707  0.1577  0.0124
   95SOL    HW1  284   1.280   0.568   1.856  1.1200 -2.1824  1.6025
   95SOL    HW2  285   1.416   0.490   1.807  0.8170  0.6470  0.3836
   96SOL     OW  286   2.356   0.635   1.933 -0.3101 -0.1484  0.3626
   96SOL    HW1  287   2.402   0.707   1.983  0.8660 -2.0365  0.7340
   96SOL    HW2  288   2.426   0.598   1.865  2.2076 -1.6740 -1.6322
   97SOL     OW  289   2.481   2.999   1.419  0.5217  0.5266 -0.2554
   97SOL    HW1  290   2.572   2.984   1.460  0.1744 -0.0290  0.0675
   97SOL    HW2  291   2.417   3.029   1.494 -1.6997 -0.5610  0.0470
   98SOL     OW  292   2.103   2.906   1.439 -0.0562 -0.6151  0.1495
   98SOL    HW1  293   2.155   2.865   1.516 -2.1928  3.3130 -1.8000
   98SOL    HW2  294   2.026   2.845   1.417 -1.9097  1.0891 -1.6231
   99SOL     OW  295   2.576   0.225   1.815  0.1104  0.0841 -0.2808
   99SOL    HW1  296   2.525   0.153   1.866 -1.2616 -0.6017 -1.6835
   99SOL    HW2  297   2.621   0.184   1.732  3.8355  0.0717 -1.3958
  100SOL     OW  298   2.093   1.551   2.112  0.5947  0.2464 -0.2887
  100SOL    HW1  299   2.071   1.609   2.191  2.0651  0.9364  1.5538
  100SOL    HW2  300   2.056   1.458   2.122  0.1237  2.8731 -0.9609
  101SOL     OW  301   2.033   0.096   0.212 -0.0423 -0.3951 -0.6232
  101SOL    HW1  302   2.124   0.113   0.263 -0.8451 -0.5277  3.6368
  101SOL    HW2  303   1.958   0.141   0.270 -2.8349  2.7548  0.5066
  102SOL     OW  304   0.606   0.562   1.481  0.1151 -0.1567  0.4060
  102SOL    HW1  305   0.509   0.554   1.514 -1.8332 -0.2174  0.4726
  102SOL    HW2  306   0.624   0.490   1.411  0.8844  0.3333 -1.1501
  103SOL     OW  307   2.464   0.052   2.636  0.1087  0.5533  0.7208
  103SOL    HW1  308   2.533   0.042   2.716  0.3796  1.8664  2.2038
  103SOL    HW2  309   2.368   0.044   2.672  0.3875  0.7519 -1.3895
  104SOL     OW  310   0.115   2.897   1.796  0.0817  0.3809 -0.4093
  104SOL    HW1  311   0.098   2.801   1.772 -1.7572 -1.3978  0.5549
  104SOL    HW2  312   0.153   2.948   1.721 -0.8758 -0.5222  1.7752
  105SOL     OW  313   1.335   0.665   2.138  0.7518  0.0262  0.1774
  105SOL    HW1  314   1.298   0.765   2.142 -0.2090  1.9276  0.3410
  105SOL    HW2  315   1.349   0.630   2.045  0.3754  3.4644  1.0005
  106SOL     OW  316   1.643   0.264   0.838 -0.1102  0.7027 -0.0634
  106SOL    HW1  317   1.680   0.285   0.930  0.3116  0.8603  0.3977
  106SOL    HW2  318   1.729   0.251   0.776  2.0605 -0.3203 -1.5417
  107SOL     OW  319   0.694   1.258   1.191 -0.1578  0.6404 -0.6444
  107SOL    HW1  320   0.643   1.182   1.230 -0.8706  2.4324 -3.4789
  107SOL    HW2  321   0.707   1.231   1.091 -2.2285 -0.9114 -0.8156
  108SOL     OW  322   2.860   0.419   2.361  0.0116 -0.2148  0.3178
  108SOL    HW1  323   2.875   0.387   2.265  1.4790 -0.6508  3.2877
  108SOL    HW2  324   2.899   0.353   2.429  0.3660  0.9521 -1.0089
  109SOL     OW  325   2.051   0.206   3.082 -0.1779  0.1995  0.2899
  109SOL    HW1  326   2.042   0.152   0.061  1.0330  0.7776 -1.7884
  109SOL    HW2  327   2.000   0.172   3.001  0.4170 -0.8840  1.0794
  110SOL     OW  328   2.940   1.865   3.020  0.1520  0.2915  0.3123
  110SOL    HW1  329   3.036   1.881   2.977  3.6517  1.5539  0.2705
  110SOL    HW2  330   2.945   1.808   0.002 -0.4868 -0.7913  2.1234
  111SOL     OW  331   2.400   0.228   2.438 -0.4196 -0.1029  0.5296
  111SOL    HW1  332   2.302   0.209   2.426  0.7784 -1.2237  1.9919
  111SOL    HW2  333   2.438   0.179   2.521  0.1204  0.5821 -0.7915
  112SOL     OW  334   2.524   2.789   1.214 -0.0483 -0.4758  0.8620
  112SOL    HW1  335   2.604   2.806   1.155 -3.9788 -0.3464  2.4306
  112SOL    HW2  336   2.512   2.865   1.284  2.6590 -0.2675  3.8053
  113SOL     OW  337   2.464   2.358   1.980 -0.1639  0.2392  0.5290
  113SOL    HW1  338   2.533   2.358   1.907  2.8632  0.5856 -2.2423
  113SOL    HW2  339   2.371   2.328   1.949  0.3143  1.3233  2.7034
  114SOL     OW  340   2.691   0.065   0.547  0.1993  0.1028 -0.4968
  114SOL    HW1  341   2.648   0.002   0.616 -0.1701  1.9904  1.1634
  114SOL    HW2  342   2.771   0.107   0.589  0.0314  0.7384 -0.4211
  115SOL     OW  343   2.860   1.798   0.169 -0.2036  0.0122  0.1398
  115SOL    HW1  344   2.877   1.809   0.271 -0.5230  1.1233  2.3723
  115SOL    HW2  345   2.806   1.713   0.153  0.9038  0.2701  0.5012
  116SOL     OW  346   0.144   1.369   1.984 -0.2158 -0.3181  0.2420
  116SOL    HW1  347   0.232   1.420   2.004  3.2023  0.3403  0.5482
  116SOL    HW2  348   0.078   1.421   1.923  0.0766  1.2577 -2.6877
  117SOL     OW  349   2.120   0.089   1.033  0.1771 -0.6179  0.0139
  117SOL    HW1  350   2.174   0.028   0.973 -2.1058  1.8497  0.6042
  117SOL    HW2  351   2.132   0.064   1.132  0.0813 -0.1999 -0.5667
  118SOL     OW  352   0.230   2.108   1.718 -0.0365  0.0240 -0.2838
  118SOL    HW1  353   0.205   2.011   1.700 -0.3262 -0.0436  1.2551
  118SOL    HW2  354   0.274   2.165   1.646  1.2851  2.6357 -0.9773
  119SOL     OW  355   1.273   2.259   1.404 -0.1034  0.6833  0.2420
  119SOL    HW1  356   1.210   2.183   1.393  2.9467  0.7155  2.7419
  119SOL    HW2  357   1.229   2.346   1.372 -1.9606 -1.4252 -1.1216
  120SOL     OW  358   0.235   1.982   1.426  0.0692  0.0530  0.1370
  120SOL    HW1  359   0.210   1.932   1.512 -1.9322 -0.3498  0.0331
  120SOL    HW2  360   0.333   2.003   1.426  1.1654 -1.7158  0.3361
  121SOL     OW  361   2.248   1.333   1.013 -0.4572 -0.0005  0.2250
  121SOL    HW1  362   2.327   1.342   1.075  0.5005  0.4464  1.9825
  121SOL    HW2  363   2.267   1.399   0.937  1.5239  3.0180 -1.1160
  122SOL     OW  364   2.206   1.796   2.702 -0.1034  0.1744  0.1625
  122SOL    HW1  365   2.147   1.779   2.784 -0.7800 -1.3057 -1.0251
  122SOL    HW2  366   2.177   1.881   2.657  2.3902 -1.3851  1.1366
  123SOL     OW  367   2.804   2.772   0.500 -0.6014 -0.7564  0.0847
  123SOL    HW1  368   2.786   2.846   0.568  2.6898 -1.7437  0.1579
  123SOL    HW2  369   2.899   2.739   0.514  1.1297  0.0412  0.3826
  124SOL     OW  370   1.192   1.175   0.047 -0.0648 -0.2417 -0.4209
  124SOL    HW1  371   1.138   1.260   0.032  0.4796 -1.0516  0.4885
  124SOL    HW2  372   1.170   1.104   3.080 -0.3834  2.5555  0.8898
  125SOL     OW  373   0.191   1.414   2.833 -0.6998  0.0856  0.0795
  125SOL    HW1  374   0.210   1.457   2.744 -1.4339 -0.5522 -0.6433
  125SOL    HW2  375   0.277   1.388   2.879  3.2072 -0.3214  0.1759
  126SOL     OW  376   0.090   2.303   0.304 -0.0531  0.1703 -0.0598
  126SOL    HW1  377   0.188   2.286   0.311 -0.7115 -0.8086  0.7212
  126SOL    HW2  378   0.043   2.271   0.388  0.0502 -2.2978  3.7535
  127SOL     OW  379   0.127   1.680   0.700 -0.0805 -0.3698 -0.0683
  127SOL    HW1  380   0.038   1.638   0.684 -0.0960 -0.3975 -0.0535
  127SOL    HW2  381   0.159   1.732   0.622  1.7683 -2.0695  2.1899
  128SOL     OW  382   1.180   1.259   0.315  0.0620 -0.1937 -0.1142
  128SOL    HW1  383   1.221   1.199   0.388  2.3914  2.6096  0.5834
  128SOL    HW2  384   1.174   1.218   0.226 -0.2269  1.3086  1.5874
  129SOL     OW  385   2.029   1.935   1.301 -0.0296 -0.2381  0.2042
  129SOL    HW1  386   2.004   2.033   1.283  2.6099 -0.1138 -1.4211
  129SOL    HW2  387   2.133   1.946   1.302  3.8918  2.7286 -0.1127
  130SOL     OW  388   1.928   1.081   0.438  0.7731 -0.0456  0.6689
  130SOL    HW1  389   1.958   0.985   0.454 -3.1870  1.2797  2.9438
  130SOL    HW2  390   1.849   1.107   0.499  1.6117  1.9126 -2.0039
  131SOL     OW  391   2.807   1.023   2.662 -0.0288  0.0410  0.7506
  131SOL    HW1  392   2.805   0.946   2.733 -1.5688  2.1343  0.2276
  131SOL    HW2  393   2.725   1.018   2.603  0.8199  1.4378 -0.3984
  132SOL     OW  394   1.683   1.577   2.014  0.5742  0.1423  0.4758
  132SOL    HW1  395   1.745   1.658   2.004  1.8914 -1.9859  2.2358
  132SOL    HW2  396   1.598   1.595   2.070  2.2862 -0.5269 -0.4184
  133SOL     OW  397   0.046   1.321   0.076  0.2641 -0.8424 -0.2298
  133SOL    HW1  398   3.082   1.292   0.004 -2.1294  0.7539  0.6478
  133SOL    HW2  399   0.021   1.297   0.172  0.8701  1.6857  1.5401
  134SOL     OW  400   2.748   0.800   0.666  0.2921  0.0422 -0.0003
  134SOL    HW1  401   2.691   0.820   0.585  1.5162 -2.8800 -0.1360
  134SOL    HW2  402   2.839   0.757   0.643  2.6012 -0.6300 -2.2109
  135SOL     OW  403   2.406   0.815   0.105  0.2543 -0.0405  0.0915
  135SOL    HW1  404   2.309   0.799   0.073 -2.7718  0.7396  0.5404
  135SOL    HW2  405   2.435   0.908   0.071  3.6533  1.0125 -0.9983
  136SOL     OW  406   1.897   1.934   1.586 -0.5465  0.1220  0.2368
  136SOL    HW1  407   1.954   1.902   1.660 -1.1591 -0.4032  0.6992
  136SOL    HW2  408   1.931   1.905   1.496 -0.5954  1.6308  0.4738
  137SOL     OW  409   2.422   2.569   0.613  0.3583  0.3068 -0.1247
  137SOL    HW1  410   2.522   2.549   0.611 -1.2273 -0.7785 -0.8552
  137SOL    HW2  411   2.365   2.489   0.649  1.8118  2.4710  0.1822
  138SOL     OW  412   2.166   0.406   1.378 -0.3946 -0.3248 -0.0037
  138SOL    HW1  413   2.116   0.485   1.424 -3.7957  0.7140  1.1418
  138SOL    HW2  414   2.205   0.429   1.286 -1.9503 -0.2644 -0.8430
  139SOL     OW  415   2.664   0.063   2.796 -0.0520 -0.3954  0.2341
  139SOL    HW1  416   2.642   3.100   2.870 -0.4887  1.0241 -0.0455
  139SOL    HW2  417   2.697   0.155   2.833  0.2534  0.5630  3.0732
  140SOL     OW  418   1.206   1.429   2.468 -0.1047 -0.4835 -0.0430
  140SOL    HW1  419   1.220   1.363   2.389 -0.4338 -3.5560  1.7735
  140SOL    HW2  420   1.282   1.428   2.536 -1.5786 -1.4065  0.5494
  141SOL     OW  421   0.702   0.580   2.314 -0.9028 -0.3128  0.1466
  141SOL    HW1  422   0.633   0.627   2.260  0.5290 -2.7696  0.1301
  141SOL    HW2  423   0.743   0.500   2.264 -0.9374  0.3578 -2.2571
  142SOL     OW  424   2.533   2.691   2.943 -0.4540 -0.3023  0.3981
  142SOL    HW1  425   2.544   2.725   3.039  2.8965 -1.2621 -0.2003
  142SOL    HW2  426   2.555   2.764   2.876 -1.5406  1.0098  1.6413
  143SOL     OW  427   0.935   2.195   0.482  0.2249 -0.0654 -0.2651
  143SOL    HW1  428   0.848   2.232   0.441 -1.8077  2.6039 -0.9883
  143SOL    HW2  429   0.934   2.095   0.499  3.1654  0.2423 -1.2553
  144SOL     OW  430   1.279   2.560   0.023 -0.1639 -0.0028 -0.4277
  144SOL    HW1  431   1.184   2.571   3.086 -2.4630 -0.8922 -1.4612
  144SOL    HW2  432   1.286   2.589   0.119 -1.2882 -0.8082 -3.4863
  145SOL     OW  433   1.748   2.208   2.517 -0.2063 -0.3481  0.0464
  145SOL    HW1  434   1.784   2.122   2.554  3.6227  3.4375 -0.1585
  145SOL    HW2  435   1.765   2.219   2.419 -1.2119  3.1213  3.6058
  146SOL     OW  436   2.860   2.869   2.925 -0.3775 -0.3602 -0.5805
  146SOL    HW1  437   2.836   2.866   3.023 -0.6273  0.2155  1.6407
  146SOL    HW2  438   2.780   2.845   2.861  1.0572 -1.0415 -2.1712
  147SOL     OW  439   3.054   1.531   1.354  0.5055 -0.0625  0.0743
  147SOL    HW1  440   0.037   1.585   1.364 -0.5054 -0.3591  2.1346
  147SOL    HW2  441   2.995   1.555   1.275 -2.3931  0.6033 -1.6252
  148SOL     OW  442   1.887   2.873   0.041  0.2934 -0.0314 -0.1867
  148SOL    HW1  443   1.801   2.911   0.075 -1.0658  0.5053 -1.9975
  148SOL    HW2  444   1.912   2.909   3.055 -2.1872 -1.1946 -1.5876
  149SOL     OW  445   0.598   1.883   2.741  0.0429 -0.6645 -0.7282
  149SOL    HW1  446   0.514   1.829   2.760  2.7218 -1.6931 -0.3965
  149SOL    HW2  447   0.578   1.983   2.758 -3.6731 -1.1474 -0.4215
  150SOL     OW  448   0.365   2.277   0.318  0.1081  0.1106  0.1155
  150SOL    HW1  449   0.367   2.197   0.254  0.8153 -0.2711  0.5753
  150SOL    HW2  450   0.459   2.295   0.347  0.3939 -0.6734  0.9547
  151SOL     OW  451   0.423   1.218   0.301  0.5287 -0.6759  0.2659
  151SOL    HW1  452   0.395   1.123   0.338  1.8968  0.6723  2.6019
  151SOL    HW2  453   0.368   1.240   0.213 -4.5279  0.6705 -2.2735
  152SOL     OW  454   2.657   1.658   0.644  0.3796  0.7956 -0.3320
  152SOL    HW1  455   2.627   1.617   0.560  0.9997  2.4392 -2.3265
  152SOL    HW2  456   2.677   1.754   0.635  0.5351  0.7036  0.6927
  153SOL     OW  457   1.842   2.239   0.394  0.3846 -0.5831  0.3146
  153SOL    HW1  458   1.902   2.310   0.342  4.7045  0.0907  0.6516
  153SOL    HW2  459   1.790   2.283   0.469  1.8359  0.7074  0.1590
  154SOL     OW  460   0.860   2.601   0.948  0.2335 -0.2243 -0.3172
  154SOL    HW1  461   0.848   2.673   0.875 -0.3217  0.0273 -3.6793
  154SOL    HW2  462   0.767   2.576   0.987 -0.4399  0.3300 -1.1284
  155SOL     OW  463   2.952   1.685   0.893  0.1481 -0.1409  0.1962
  155SOL    HW1  464   2.960   1.648   0.796 -0.0129  1.6039 -0.5023
  155SOL    HW2  465   3.037   1.732   0.928  0.4909 -0.9633  3.7464
  156SOL     OW  466   2.655   2.269   0.322  0.6861  0.8547  0.1426
  156SOL    HW1  467   2.614   2.171   0.330 -1.9278  3.2386  0.2037
  156SOL    HW2  468   2.756   2.276   0.325  2.1283 -0.2472 -0.3636
  157SOL     OW  469   0.507   2.041   1.446  0.2142 -0.3543 -0.0295
  157SOL    HW1  470   0.596   2.050   1.497  0.9320  0.0418  2.2755
  157SOL    HW2  471   0.523   1.985   1.365  1.0159  0.8674  0.3829
  158SOL     OW  472   1.692   0.821   0.232  0.3374  0.1663  0.0645
  158SOL    HW1  473   1.622   0.746   0.241  0.2723 -1.0612 -0.3343
  158SOL    HW2  474   1.778   0.783   0.189 -0.9081  0.0576 -2.2779
  159SOL     OW  475   1.146   0.831   0.138  0.1212  0.2125 -0.3412
  159SOL    HW1  476   1.063   0.868   0.187  0.6040  0.7765  1.4577
  159SOL    HW2  477   1.125   0.733   0.119 -0.4878  0.6792 -2.7417
  160SOL     OW  478   0.797   1.235   0.507  0.3964  0.3952 -0.5432
  160SOL    HW1  479   0.722   1.264   0.567  0.1959 -0.7063  1.4392
  160SOL    HW2  480   0.881   1.272   0.552  0.2095  0.9304  2.1171
  161SOL     OW  481   0.209   2.151   2.585 -0.3822 -0.1093  0.2184
  161SOL    HW1  482   0.168   2.061   2.616  0.7743 -0.5613  0.5157
  161SOL    HW2  483   0.231   2.213   2.665  0.6489 -1.7058 -0.0212
  162SOL     OW  484   0.068   2.461   0.998  0.2489 -0.0784  0.2602
  162SOL    HW1  485   0.106   2.398   1.063 -2.1704  3.4660 -1.9031
  162SOL    HW2  486   0.003   2.414   0.934 -1.9569  1.0063 -4.6374
  163SOL     OW  487   2.951   0.465   2.718 -0.1232  0.0678  0.0147
  163SOL    HW1  488   2.942   0.546   2.655 -2.2396  2.8310 -1.6412
  163SOL    HW2  489   3.016   0.488   2.795  0.3586  0.8340 -0.8676
  164SOL     OW  490   0.430   0.072   2.778  0.1599 -0.4502 -0.2444
  164SOL    HW1  491   0.367   0.058   2.859  1.0166  2.0097 -0.8285
  164SOL    HW2  492   0.450   3.099   2.725 -0.9330 -0.3114  0.6160
  165SOL     OW  493   2.148   0.707   1.770 -0.0651 -0.7006 -0.0183
  165SOL    HW1  494   2.056   0.667   1.803  0.6082  0.9820 -0.0547
  165SOL    HW2  495   2.221   0.677   1.836  1.3119 -1.5184  1.7806
  166SOL     OW  496   2.068   2.364   1.674 -0.5931  0.5768 -0.5414
  166SOL    HW1  497   1.986   2.306   1.694 -2.0512 -1.2693  0.2200
  166SOL    HW2  498   2.063   2.456   1.714  0.1396  0.3133  0.6809
  167SOL     OW  499   1.022   1.043   2.296 -0.1511  0.0833 -0.2861
  167SOL    HW1  500   1.021   1.081   2.388 -0.7696 -0.5914 -1.3740
  167SOL    HW2  501   0.971   0.953   2.294 -1.7636 -2.4588 -0.9161
  168SOL     OW  502   2.361   0.016   2.067 -0.1164  0.0764  0.0469
  168SOL    HW1  503   2.283   0.088   2.055 -2.7495  2.0575  1.2444
  168SOL    HW2  504   2.432   0.051   2.137 -0.2518  0.2604  1.9040
  169SOL     OW  505   0.358   0.966   0.335  0.2707 -0.4447 -0.1105
  169SOL    HW1  506   0.311   0.916   0.412 -1.4755 -2.2306 -0.2136
  169SOL    HW2  507   0.298   0.969   0.250 -1.6102  0.4084 -0.0257
  170SOL     OW  508   3.086   1.545   1.819 -0.0321  0.1688 -0.1583
  170SOL    HW1  509   3.043   1.542   1.731 -0.3782  0.1540  1.4452
  170SOL    HW2  510   3.013   1.553   1.893  0.2697  3.0159  1.8497
  171SOL     OW  511   1.120   2.207   2.022  0.3758 -0.2097  0.1376
  171SOL    HW1  512   1.034   2.257   2.007  0.4623  0.0397 -0.2988
  171SOL    HW2  513   1.171   2.240   2.103 -0.0838  2.0664  1.0889
  172SOL     OW  514   0.915   2.403   2.008  0.1567 -0.0686 -0.0901
  172SOL    HW1  515   0.839   2.441   1.947 -0.9524  0.1138 -1.1587
  172SOL    HW2  516   0.961   2.476   2.061  2.4600  0.8255 -0.5964
  173SOL     OW  517   1.436   2.590   0.783  0.3126  0.0630  0.1200
  173SOL    HW1  518   1.533   2.614   0.775 -1.2210 -2.5417 -0.1856
  173SOL    HW2  519   1.371   2.668   0.767 -0.3517 -0.8243  0.8080
  174SOL     OW  520   2.263   0.083   0.348 -0.8861 -0.3098 -0.3276
  174SOL    HW1  521   2.269   0.075   0.450  0.2349  2.2789  1.8362
  174SOL    HW2  522   2.337   0.150   0.322  1.5514  0.2044 -1.1318
  175SOL     OW  523   1.056   1.758   0.301  0.1868  0.1324  0.0793
  175SOL    HW1  524   1.137   1.802   0.344 -1.4681  0.0338 -0.5690
  175SOL    HW2  525   1.054   1.660   0.316 -0.2453  4.0426 -1.5959
  176SOL     OW  526   0.728   1.475   0.641  0.1951 -0.5444 -0.1868
  176SOL    HW1  527   0.777   1.437   0.722 -2.2125  0.3825 -2.2447
  176SOL    HW2  528   0.633   1.513   0.667 -0.4389 -1.4249  4.0321
  177SOL     OW  529   1.268   1.323   1.335 -0.6429  0.1129  0.0109
  177SOL    HW1  530   1.296   1.271   1.250 -2.5309 -1.2732  0.0427
  177SOL    HW2  531   1.326   1.406   1.354 -1.0662  2.8079 -0.0806
  178SOL     OW  532   2.588   1.576   0.378 -0.1062  0.2363  0.3425
  178SOL    HW1  533   2.689   1.579   0.380  2.2720  3.4033  1.2829
  178SOL    HW2  534   2.555   1.496   0.326 -1.0273  0.5624  1.3059
  179SOL     OW  535   1.019   2.490   3.027 -0.2732  0.4996  0.0560
  179SOL    HW1  536   0.965   2.476   0.008  2.6255 -0.2655 -1.7398
  179SOL    HW2  537   1.011   2.405   2.963 -1.0845 -2.0114  1.3534
  180SOL     OW  538   1.963   1.646   1.841 -0.2930 -1.0409 -0.0776
  180SOL    HW1  539   1.989   1.572   1.907 -0.2646  0.5839 -1.9801
  180SOL    HW2  540   2.045   1.689   1.792  1.6778  0.2460 -1.8472
  181SOL     OW  541   0.712   1.001   2.332 -0.0033 -0.0249 -0.2634
  181SOL    HW1  542   0.639   1.010   2.266  0.7898  1.6110  1.6765
  181SOL    HW2  543   0.774   0.921   2.317  2.5735 -0.6970  3.2834
  182SOL     OW  544   2.792   0.898   2.285  0.6053  0.5249  0.1655
  182SOL    HW1  545   2.715   0.897   2.351 -3.1934 -0.3429 -3.5766
  182SOL    HW2  546   2.833   0.803   2.274 -1.0307 -1.5974 -0.4028
  183SOL     OW  547   1.489   0.602   2.371 -0.1309  0.1123  0.5869
  183SOL    HW1  548   1.578   0.648   2.350  0.2278  0.3505  0.9061
  183SOL    HW2  549   1.418   0.620   2.301  1.7722  1.6321 -0.8528
  184SOL     OW  550   0.353   0.757   1.731 -0.2843 -0.2295  0.2307
  184SOL    HW1  551   0.365   0.742   1.832 -1.0954 -2.0332 -1.6152
  184SOL    HW2  552   0.437   0.810   1.699 -0.5360  1.7155 -0.4642
  185SOL     OW  553   2.197   1.893   0.607  0.3156 -0.1617  0.3258
  185SOL    HW1  554   2.214   1.836   0.527  0.4384 -1.0410  0.4568
  185SOL    HW2  555   2.165   1.837   0.683  1.6624  0.4891 -1.5922
  186SOL     OW  556   0.461   1.809   0.009  0.1371  0.2964  0.2283
  186SOL    HW1  557   0.564   1.811   0.019  0.9993  2.0022 -1.1768
  186SOL    HW2  558   0.412   1.724   0.039  1.3773 -0.6062  0.0515
  187SOL     OW  559   2.367   1.763   0.012 -0.5062  0.6011  0.0265
  187SOL    HW1  560   2.464   1.756   0.053 -0.4056  2.1264  2.9146
  187SOL    HW2  561   2.362   1.751   3.016 -1.7265 -0.5873  0.4307
  188SOL     OW  562   1.000   2.396   1.000  0.1108 -0.0123 -0.5492
  188SOL    HW1  563   1.094   2.412   0.966 -0.5820 -1.4217  0.4217
  188SOL    HW2  564   0.941   2.473   0.972  1.7445  2.4888  0.2066
  189SOL     OW  565   1.815   1.178   2.563 -0.5768 -0.1757  0.1755
  189SOL    HW1  566   1.823   1.090   2.505 -0.7367 -3.1766 -1.4184
  189SOL    HW2  567   1.911   1.195   2.605  4.1990  0.5160  1.5430
  190SOL     OW  568   0.876   2.016   2.242 -0.2681 -0.5790 -0.1680
  190SOL    HW1  569   0.843   1.924   2.265 -2.0912  0.8871  1.9338
  190SOL    HW2  570   0.944   2.038   2.316  3.3723 -1.3400  1.0325
  191SOL     OW  571   2.339   0.750   1.421 -0.2551 -0.3892  0.1641
  191SOL    HW1  572   2.280   0.806   1.486  0.4252 -0.3403  0.0788
  191SOL    HW2  573   2.387   0.680   1.476  0.1946 -0.0530 -0.8150
  192SOL     OW  574   2.354   0.480   2.331 -0.5559  0.0879  0.2377
  192SOL    HW1  575   2.336   0.548   2.407  1.8753  0.9520 -1.3294
  192SOL    HW2  576   2.399   0.392   2.371  0.5539 -2.3945 -1.0281
  193SOL     OW  577   0.934   0.295   0.633  0.8540  0.4252  0.2403
  193SOL    HW1  578   0.922   0.231   0.550 -1.2840 -2.6546 -1.1101
  193SOL    HW2  579   0.974   0.241   0.709 -0.6254  2.2674 -4.0768
  194SOL     OW  580   1.366   2.431   1.780  0.2118  0.4666 -0.2769
  194SOL    HW1  581   1.338   2.346   1.737  3.4141  2.1575  2.0606
  194SOL    HW2  582   1.329   2.513   1.732  0.2890 -1.9174 -1.1172
  195SOL     OW  583   2.749   0.891   0.948  0.0161  0.6648  0.3934
  195SOL    HW1  584   2.659   0.911   1.000 -2.5991  1.2874  0.5656
  195SOL    HW2  585   2.730   0.858   0.852 -0.9314  0.1023 -4.2837
  196SOL     OW  586   1.087   1.778   1.636 -0.6324  0.3314  0.0038
  196SOL    HW1  587   1.087   1.866   1.586  0.9574  0.5847 -1.0247
  196SOL    HW2  588   1.055   1.771   1.730  1.0912  0.4665 -0.3120
  197SOL     OW  589   0.287   0.886   2.379  0.0100 -0.2240 -0.1911
  197SOL    HW1  590   0.288   0.925   2.287  0.0250 -1.5579  0.3016
  197SOL    HW2  591   0.239   0.796   2.380 -0.4133 -0.8065 -1.0625
  198SOL     OW  592   1.611   1.066   0.125 -0.0040 -0.3449  0.0724
  198SOL    HW1  593   1.650   0.981   0.166  0.8874  2.2665  2.9290
  198SOL    HW2  594   1.661   1.143   0.166  0.4150 -0.8239 -1.7084
  199SOL     OW  595   2.707   0.628   2.036 -0.6721 -0.6313 -0.1791
  199SOL    HW1  596   2.771   0.615   2.114  0.7456 -0.1403 -1.8375
  199SOL    HW2  597   2.627   0.683   2.051  2.5254 -3.2523  1.0452
  200SOL     OW  598   2.306   2.509   2.527  0.0103  0.0030 -0.4034
  200SOL    HW1  599   2.401   2.541   2.506  0.8841 -0.9512  2.3061
  200SOL    HW2  600   2.292   2.484   2.625  1.7533  3.1352  0.6725
  201SOL     OW  601   2.318   0.163   1.433  0.3509 -0.0527  0.4409
  201SOL    HW1  602   2.257   0.242   1.418 -0.3354  1.3348 -1.4710
  201SOL    HW2  603   2.315   0.138   1.531 -2.2166  0.5623  1.5143
  202SOL     OW  604   2.483   2.775   0.076 -0.5597 -0.3570  0.0991
  202SOL    HW1  605   2.487   2.858   0.138  1.8385  1.9550  1.5159
  202SOL    HW2  606   2.383   2.752   0.066  0.0036  3.0282 -1.9850
  203SOL     OW  607   0.944   2.033   2.532  0.3609 -0.6955  0.2453
  203SOL    HW1  608   0.850   2.075   2.526  0.4072 -0.9651  0.7836
  203SOL    HW2  609   0.971   2.015   2.624  0.2616  1.5931 -2.0672
  204SOL     OW  610   0.718   1.480   2.624  0.2552 -0.2097 -0.2481
  204SOL    HW1  611   0.690   1.463   2.725  3.7097  0.3425  0.4897
  204SOL    HW2  612   0.811   1.442   2.604  0.9442  0.4812 -1.8194
  205SOL     OW  613   0.970   1.096   1.211 -0.4880 -0.2902 -0.1837
  205SOL    HW1  614   1.054   1.070   1.255 -1.6755 -0.4298 -2.0432
  205SOL    HW2  615   0.985   1.173   1.151 -4.3052 -2.1591  1.2935
  206SOL     OW  616   0.142   0.818   2.695 -0.2384 -0.0451 -0.0563
  206SOL    HW1  617   0.211   0.889   2.665  1.0849 -2.5961 -2.0997
  206SOL    HW2  618   0.090   0.782   2.614 -0.3629 -1.9981  0.4375
  207SOL     OW  619   1.916   2.356   2.015 -0.4124 -0.2799  0.0803
  207SOL    HW1  620   2.010   2.393   2.043  1.8041 -0.8929  2.8010
  207SOL    HW2  621   1.920   2.316   1.921 -0.7627 -0.9991 -0.3304
  208SOL     OW  622   1.066   2.757   1.433  0.4707 -0.3793  0.4575
  208SOL    HW1  623   0.996   2.687   1.398 -0.2734 -1.9240  0.2507
  208SOL    HW2  624   1.117   2.794   1.356 -0.3888 -1.6353  2.2966
  209SOL     OW  625   1.431   1.550   2.960  0.2913  0.2289  0.3613
  209SOL    HW1  626   1.434   1.460   3.004 -1.1750  2.4361 -1.0815
  209SOL    HW2  627   1.515   1.567   2.905  0.7213  0.8541  0.6786
  210SOL     OW  628   2.237   0.683   0.985  0.3473 -0.3355  0.0986
  210SOL    HW1  629   2.317   0.743   0.954 -0.5706  2.1324 -0.3176
  210SOL    HW2  630   2.179   0.664   0.904  1.3908  0.6580 -0.3352
  211SOL     OW  631   1.297   2.607   0.293 -0.3709  0.7013 -0.3952
  211SOL    HW1  632   1.309   2.556   0.385  0.1657 -2.8384  2.8109
  211SOL    HW2  633   1.390   2.640   0.277 -3.3075 -3.5142 -0.0345
  212SOL     OW  634   2.306   2.128   0.541  0.0021 -0.2281 -0.1572
  212SOL    HW1  635   2.300   2.055   0.608  2.5900  1.6940 -1.7869
  212SOL    HW2  636   2.236   2.120   0.468 -0.3045 -1.4378  0.4216
  213SOL     OW  637   1.766   0.705   2.889 -0.0974  0.4254 -0.3925
  213SOL    HW1  638   1.769   0.632   2.959 -2.0941  0.7532 -0.8031
  213SOL    HW2  639   1.771   0.793   2.939 -0.8661 -2.9420  1.3883
  214SOL     OW  640   0.960   1.838   1.893 -0.3632 -0.5320  0.0810
  214SOL    HW1  641   0.862   1.863   1.889 -1.2786  1.6746  1.3522
  214SOL    HW2  642   0.980   1.752   1.945  3.4560 -0.5879 -1.9000
  215SOL     OW  643   0.395   1.328   0.532 -0.6023  0.8421 -0.6475
  215SOL    HW1  644   0.404   1.272   0.449 -1.2961  1.9767  1.1244
  215SOL    HW2  645   0.380   1.425   0.513 -1.4024 -2.6654  2.1014
  216SOL     OW  646   0.083   2.995   2.373 -0.0581 -0.0633 -0.5963
  216SOL    HW1  647   0.160   2.961   2.429 -0.1588  1.5082 -1.7371
  216SOL    HW2  648   0.056   2.933   2.298  0.6993  0.0075  0.6790
  217SOL     OW  649   2.518   0.942   1.296 -0.4208 -0.2478  0.3892
  217SOL    HW1  650   2.445   0.870   1.298 -0.8082 -0.3961  0.9724
  217SOL    HW2  651   2.611   0.910   1.334 -0.3907  2.5155  0.7262
  218SOL     OW  652   1.297   1.748   2.147  0.3298 -0.5524  0.3531
  218SOL    HW1  653   1.323   1.823   2.080  2.6838 -1.5250 -1.0980
  218SOL    HW2  654   1.242   1.781   2.226  0.2143 -0.8330  2.6985
  219SOL     OW  655   1.951   1.478   0.168  0.8234  0.2608 -0.2290
  219SOL    HW1  656   2.000   1.496   0.253 -0.7176  2.1514 -3.8591
  219SOL    HW2  657   1.886   1.552   0.146  0.3504  1.1336  0.8108
  220SOL     OW  658   2.028   0.853   0.370  0.6801 -0.3658 -0.2751
  220SOL    HW1  659   2.114   0.904   0.353  0.3043 -1.2186  2.0397
  220SOL    HW2  660   1.990   0.817   0.286  0.6202 -0.0148  2.8557
  221SOL     OW  661   0.071   0.269   0.114  0.4921 -0.0072 -0.5351
  221SOL    HW1  662   0.173   0.271   0.114  0.8638  1.7177  1.3621
  221SOL    HW2  663   0.035   0.229   0.026 -0.9663 -1.0746  0.7811
  222SOL     OW  664   1.450   1.998   0.650  0.3041 -0.3495 -0.4003
  222SOL    HW1  665   1.503   1.919   0.691 -0.4844 -0.6925 -0.1617
  222SOL    HW2  666   1.350   2.011   0.679 -2.0834  1.7194 -2.7831
  223SOL     OW  667   0.910   0.029   0.040 -0.1940 -0.4374 -0.3607
  223SOL    HW1  668   1.010   0.034   0.065  0.7045 -1.9891 -0.5467
  223SOL    HW2  669   0.887   0.044   3.045 -1.9343  1.7754  0.2437
  224SOL     OW  670   1.755   0.071   1.128 -0.2359  0.2614  0.0537
  224SOL    HW1  671   1.812   0.075   1.213 -2.2044 -0.2979 -3.0525
  224SOL    HW2  672   1.800   0.010   1.062  2.8326  0.9381 -2.0460
  225SOL     OW  673   0.595   2.498   1.127  0.0413 -0.3261 -0.3794
  225SOL    HW1  674   0.551   2.513   1.032  1.4694 -1.5716 -1.2090
  225SOL    HW2  675   0.554   2.566   1.194  1.4982  3.1026  2.0633
  226SOL     OW  676   1.071   1.859   0.022  0.5479  0.2784 -0.0735
  226SOL    HW1  677   1.019   1.817   0.098  0.4196  0.8756 -1.1694
  226SOL    HW2  678   1.093   1.951   0.046 -0.1805  0.6188 -1.4194
  227SOL     OW  679   0.771   1.715   0.967  0.1499  0.9258  0.1002
  227SOL    HW1  680   0.686   1.655   0.969 -0.5545 -1.8019 -0.4585
  227SOL    HW2  681   0.805   1.738   1.057  0.6698  1.9272 -2.0504
  228SOL     OW  682   0.350   1.578   0.468  0.0352 -0.0137 -0.3810
  228SOL    HW1  683   0.396   1.575   0.376 -0.3470 -0.3892 -2.4664
  228SOL    HW2  684   0.301   1.671   0.479 -0.4366  0.7339  3.1510
  229SOL     OW  685   2.136   0.207   2.445  0.3246 -0.3582 -0.4778
  229SOL    HW1  686   2.067   0.204   2.368  2.0596 -1.6265  1.2439
  229SOL    HW2  687   2.099   0.237   2.533  0.4649  0.8308 -0.8667
  230SOL     OW  688   2.003   1.091   3.051 -0.1182  0.0452 -0.0982
  230SOL    HW1  689   1.980   1.162   2.981  0.8745 -1.5127  0.0230
  230SOL    HW2  690   1.992   1.125   0.041 -0.1173  0.7416  1.7493
  231SOL     OW  691   1.405   1.496   2.629 -0.3933 -0.7453 -0.4273
  231SOL    HW1  692   1.369   1.563   2.697 -0.0752  1.8198 -1.1930
  231SOL    HW2  693   1.446   1.551   2.547  3.1203  0.3606 -0.4611
  232SOL     OW  694   2.636   2.161   0.621  0.0155  0.2539  0.2264
  232SOL    HW1  695   2.639   2.226   0.545  1.7682  1.4229  0.4098
  232SOL    HW2  696   2.628   2.064   0.590  0.7680  1.7903 -1.2524
  233SOL     OW  697   0.284   2.491   0.475  0.4568  0.0685 -0.0408
  233SOL    HW1  698   0.367   2.522   0.526 -1.4150 -1.7341 -4.3404
  233SOL    HW2  699   0.301   2.410   0.415 -0.9605  1.1719  1.4904
  234SOL     OW  700   0.686   0.708   2.714  0.5025  0.2711 -0.0025
  234SOL    HW1  701   0.619   0.750   2.648 -1.2575  0.0753 -1.4046
  234SOL    HW2  702   0.746   0.782   2.743 -0.7047 -0.2629 -2.9446
  235SOL     OW  703   2.616   0.416   2.462  0.4726 -0.1767 -0.2156
  235SOL    HW1  704   2.556   0.349   2.419 -0.8255 -2.2619 -2.0882
  235SOL    HW2  705   2.711   0.416   2.429  2.0233 -2.4774 -0.7491
  236SOL     OW  706   1.900   2.600   1.207  0.2079  0.2662  0.3559
  236SOL    HW1  707   1.971   2.601   1.281 -0.1081 -1.0419  1.3039
  236SOL    HW2  708   1.867   2.504   1.188 -2.3914 -1.0108  0.9172
  237SOL     OW  709   0.840   1.767   2.339  0.6735 -0.2555 -0.7573
  237SOL    HW1  710   0.910   1.701   2.309 -2.2778  2.3505 -0.9641
  237SOL    HW2  711   0.842   1.782   2.445  0.3552 -1.2107  3.2168
  238SOL     OW  712   1.035   0.331   2.392  0.0689  0.5187  0.4604
  238SOL    HW1  713   0.995   0.245   2.436 -0.1095  2.1290 -0.6464
  238SOL    HW2  714   1.101   0.311   2.315  2.2442 -3.8122 -1.3338
  239SOL     OW  715   0.341   2.061   1.962  0.2514 -0.7069 -0.2843
  239SOL    HW1  716   0.416   2.123   1.992 -1.6466  1.4426 -0.5525
  239SOL    HW2  717   0.301   2.089   1.875 -1.9981  1.4527  2.6187
  240SOL     OW  718   2.648   2.688   0.291 -0.1179 -0.0696 -0.1229
  240SOL    HW1  719   2.546   2.673   0.287 -1.6101 -1.5569  0.8220
  240SOL    HW2  720   2.681   2.738   0.376  0.9337 -0.6210  1.1695
  241SOL     OW  721   2.467   0.893   1.009  0.2235  0.1184  0.1717
  241SOL    HW1  722   2.489   0.914   1.107  1.6684  0.7401 -2.3595
  241SOL    HW2  723   2.394   0.958   0.976  1.3297  1.4460  0.3848
  242SOL     OW  724   2.170   2.426   2.068  0.5918 -0.2882 -0.0768
  242SOL    HW1  725   2.186   2.413   2.167 -0.0953  1.8297 -1.2451
  242SOL    HW2  726   2.219   2.512   2.038 -2.0221 -3.0485 -0.4013
  243SOL     OW  727   0.771   2.701   1.729  0.3136  0.0313  0.4587
  243SOL    HW1  728   0.730   2.731   1.640  0.2171 -1.4380  0.4429
  243SOL    HW2  729   0.846   2.763   1.761  2.2973 -1.9153  0.5779
  244SOL     OW  730   2.110   0.565   2.756  0.2339 -0.0675  0.8074
  244SOL    HW1  731   2.048   0.642   2.738  1.6012  1.6385  0.8379
  244SOL    HW2  732   2.178   0.602   2.825  1.7811 -0.2558  1.6383
  245SOL     OW  733   1.400   0.672   1.100 -0.0922 -0.0059 -1.0398
  245SOL    HW1  734   1.389   0.751   1.156 -0.9876  2.5353 -1.3842
  245SOL    HW2  735   1.317   0.613   1.106 -0.3892  0.0214 -1.3826
  246SOL     OW  736   1.794   2.438   3.047  0.0868 -0.3780  0.2221
  246SOL    HW1  737   1.833   2.443   2.958 -1.8027 -2.4712 -0.2581
  246SOL    HW2  738   1.701   2.477   3.046  1.9960 -0.6161  1.1457
  247SOL     OW  739   1.103   0.664   2.281 -0.3174 -0.2500 -0.5174
  247SOL    HW1  740   1.073   0.612   2.365  1.4804  0.8691  2.1089
  247SOL    HW2  741   1.188   0.627   2.232  0.4283  1.0130 -2.9719
  248SOL     OW  742   0.463   1.806   1.985 -0.0934  0.3266 -0.2894
  248SOL    HW1  743   0.511   1.781   2.075 -0.2099 -3.9060  1.4287
  248SOL    HW2  744   0.402   1.889   1.995 -0.8511  0.6258 -1.4342
  249SOL     OW  745   2.542   0.293   0.554  0.1615  0.5301  0.4586
  249SOL    HW1  746   2.502   0.312   0.464  2.6920  0.0909  1.9051
  249SOL    HW2  747   2.593   0.204   0.555  0.0161 -2.4256  3.2441
  250SOL     OW  748   2.770   0.317   2.863  0.3179  0.2757 -0.1782
  250SOL    HW1  749   2.822   0.342   2.944  0.8638 -0.8024  1.4285
  250SOL    HW2  750   2.814   0.364   2.781 -0.2862 -0.4942  0.7337
  251SOL     OW  751   1.341   0.731   3.053 -0.1331 -0.4597  0.2852
  251SOL    HW1  752   1.322   0.818   3.007  0.5866 -2.2549  1.8040
  251SOL    HW2  753   1.258   0.687   3.090 -1.7807  0.0548  0.2879
  252SOL     OW  754   1.621   1.943   1.782 -0.0508  0.0588 -0.0631
  252SOL    HW1  755   1.611   2.036   1.745 -1.3691 -0.6446  0.0211
  252SOL    HW2  756   1.696   1.938   1.852  0.4315  1.1727  1.1464
  253SOL     OW  757   2.222   2.434   1.147 -0.1685  0.0162  0.3963
  253SOL    HW1  758   2.284   2.512   1.119  3.5164  2.5337 -1.7717
  253SOL    HW2  759   2.196   2.440   1.244  1.0943 -0.5630  0.0844
  254SOL     OW  760   2.368   1.111   0.655  0.1926  0.2182  0.0736
  254SOL    HW1  761   2.294   1.135   0.591  0.4545  0.6341  0.7477
  254SOL    HW2  762   2.343   1.111   0.753  0.6484 -1.2624 -0.4268
  255SOL     OW  763   1.448   0.216   1.196 -0.1010  0.1395 -0.1167
  255SOL    HW1  764   1.537   0.224   1.146  0.8542  2.4234  0.7822
  255SOL    HW2  765   1.406   0.128   1.178  1.5635 -0.0027  1.3180
  256SOL     OW  766   1.459   2.441   1.500 -0.1436 -0.5146 -0.1602
  256SOL    HW1  767   1.392   2.480   1.567  3.3788  0.7031  0.1202
  256SOL    HW2  768   1.415   2.369   1.448  1.9851  2.5844 -2.6944
  257SOL     OW  769   0.530   2.949   2.659 -0.2982 -0.4666 -0.2191
  257SOL    HW1  770   0.596   3.006   2.605  1.9307 -1.5751 -1.9146
  257SOL    HW2  771   0.575   2.856   2.669  1.4319 -1.1018 -1.9663
  258SOL     OW  772   1.060   2.592   0.564  0.4889  0.1651 -0.4849
  258SOL    HW1  773   1.009   2.566   0.484  1.0157  1.0131  1.6382
  258SOL    HW2  774   1.116   2.511   0.599  1.1835  1.7941  2.6744
  259SOL     OW  775   1.506   0.121   2.719 -0.0996 -0.1279 -0.0018
  259SOL    HW1  776   1.531   0.198   2.655  0.9637  2.3993 -1.8313
  259SOL    HW2  777   1.468   0.039   2.667 -1.1197 -2.2064 -0.2846
  260SOL     OW  778   2.612   0.378   1.461  0.0818  0.2188  0.7532
  260SOL    HW1  779   2.571   0.461   1.502 -1.9296 -2.2311 -2.2823
  260SOL    HW2  780   2.600   0.302   1.522  1.4524  1.4938 -1.2660
  261SOL     OW  781   0.805   0.518   2.556 -0.3196  0.1536  0.7394
  261SOL    HW1  782   0.744   0.575   2.618  2.3817  0.1581 -0.5373
  261SOL    HW2  783   0.797   0.549   2.460 -0.5364 -1.0126  2.6085
  262SOL     OW  784   0.726   2.491   2.276  0.4964  0.4579 -0.2403
  262SOL    HW1  785   0.653   2.499   2.348 -0.4092 -2.0569  1.1229
  262SOL    HW2  786   0.693   2.506   2.181 -1.2590  0.4244  2.2039
  263SOL     OW  787   0.283   1.508   2.592  0.6331  0.0439 -0.5044
  263SOL    HW1  788   0.223   1.504   2.510  1.9370 -0.2643 -1.5119
  263SOL    HW2  789   0.345   1.430   2.593 -0.8887  0.4758  2.2674
  264SOL     OW  790   1.100   1.571   0.658 -0.2150 -0.0044 -0.6809
  264SOL    HW1  791   1.090   1.599   0.757 -0.2277 -1.3614  0.7747
  264SOL    HW2  792   1.015   1.585   0.605 -1.8845  3.4571 -2.0619
  265SOL     OW  793   1.374   2.432   0.491 -0.1065 -0.4881 -0.2140
  265SOL    HW1  794   1.395   2.367   0.417 -0.8425 -2.1063 -2.3727
  265SOL    HW2  795   1.444   2.430   0.566 -1.8611  0.2148  0.3416
  266SOL     OW  796   1.869   0.810   1.115  0.1740  0.0346  0.0592
  266SOL    HW1  797   1.793   0.738   1.118 -1.1628 -0.2732  0.7191
  266SOL    HW2  798   1.954   0.778   1.162  1.6244 -2.3371  0.8952
  267SOL     OW  799   2.679   1.263   2.836 -0.2946 -0.3637  0.2019
  267SOL    HW1  800   2.766   1.224   2.798  0.9442 -0.2544  2.2630
  267SOL    HW2  801   2.600   1.211   2.803  0.4870  0.4268 -0.8274
  268SOL     OW  802   1.543   0.168   0.072 -0.2632  0.1560 -0.1272
  268SOL    HW1  803   1.552   0.147   0.171 -0.0672  1.1709  1.2233
  268SOL    HW2  804   1.454   0.213   0.063  3.6738  0.1754  1.8891
  269SOL     OW  805   2.646   0.678   2.574 -0.3729  0.1343 -0.3798
  269SOL    HW1  806   2.742   0.698   2.591 -2.5891  1.1300 -1.0846
  269SOL    HW2  807   2.630   0.587   2.538  0.5694  2.4840  1.2714
  270SOL     OW  808   3.093   1.593   0.254 -0.3208  0.0244 -0.5987
  270SOL    HW1  809   0.014   1.492   0.250 -0.8864 -2.1013  0.6415
  270SOL    HW2  810   0.055   1.649   0.196  0.4043 -0.0277  0.1594
  271SOL     OW  811   2.568   0.932   2.931 -0.0217 -0.1946 -0.5373
  271SOL    HW1  812   2.523   1.023   2.909  4.6757 -0.5010 -1.7259
  271SOL    HW2  813   2.508   0.855   2.916 -0.5340  2.8088  0.0383
  272SOL     OW  814   3.065   2.462   2.319 -0.0297  0.1752  1.0139
  272SOL    HW1  815   0.019   2.387   2.291 -2.2173 -0.7351  0.7038
  272SOL    HW2  816   3.005   2.440   2.398 -0.5831  0.4805  2.3797
  273SOL     OW  817   0.111   2.840   0.741 -0.1299  0.3625 -0.3061
  273SOL    HW1  818   0.139   2.938   0.765 -1.4876  0.9220 -0.4289
  273SOL    HW2  819   0.154   2.827   0.650 -0.5639 -1.7707  1.8479
  274SOL     OW  820   0.644   2.354   0.725  0.2891 -0.3160  0.3625
  274SOL    HW1  821   0.564   2.315   0.775 -0.4420  2.2625  0.3559
  274SOL    HW2  822   0.728   2.322   0.771  0.5054  0.0393 -1.4548
  275SOL     OW  823   2.549   0.976   0.513  0.6833  0.0586 -0.4111
  275SOL    HW1  824   2.476   1.028   0.564  1.1250 -0.5002 -1.4904
  275SOL    HW2  825   2.603   1.044   0.460 -0.6729  0.9258 -0.6307
  276SOL     OW  826   2.420   1.698   1.299  0.2153 -0.6445  0.3484
  276SOL    HW1  827   2.405   1.597   1.277 -2.4600  0.2985 -1.1892
  276SOL    HW2  828   2.519   1.712   1.307 -0.1511 -2.7162  1.3630
  277SOL     OW  829   2.602   2.978   0.715  0.1295  0.0992 -0.0492
  277SOL    HW1  830   2.545   3.032   0.783 -1.6344  1.2113  2.3966
  277SOL    HW2  831   2.686   2.948   0.767  0.0989  0.1757 -1.0506
  278SOL     OW  832   1.487   0.225   2.330  0.1821  0.1088  0.3357
  278SOL    HW1  833   1.458   0.135   2.367 -2.4649 -1.2976  0.9766
  278SOL    HW2  834   1.538   0.284   2.395 -3.5996 -2.0790 -1.5731
  279SOL     OW  835   1.680   2.696   0.801  0.3497  0.1262 -0.3705
  279SOL    HW1  836   1.666   2.765   0.727  2.0757 -1.9065  0.3514
  279SOL    HW2  837   1.763   2.654   0.770  0.2624  3.8313 -1.7154
  280SOL     OW  838   0.780   1.116   0.826  0.0791  0.4021  0.3321
  280SOL    HW1  839   0.822   1.201   0.869 -1.5985  0.1697  0.5866
  280SOL    HW2  840   0.692   1.140   0.784  1.0056 -1.2151  2.1742
  281SOL     OW  841   2.569   1.500   2.951 -1.0066 -0.3015  0.1589
  281SOL    HW1  842   2.619   1.432   2.894 -1.2829  0.6010 -1.4009
  281SOL    HW2  843   2.503   1.559   2.901 -0.4008  1.3782 -0.7707
  282SOL     OW  844   3.091   1.297   0.343  0.2104 -0.1458 -0.2075
  282SOL    HW1  845   3.017   1.228   0.369  2.0316 -1.8565  0.2781
  282SOL    HW2  846   0.051   1.321   0.421 -1.1357 -0.6785 -1.2704
  283SOL     OW  847   1.833   2.854   2.761  0.2685 -0.0390  0.5947
  283SOL    HW1  848   1.887   2.902   2.686 -2.1407 -0.3280 -0.3089
  283SOL    HW2  849   1.821   2.759   2.732 -0.3826  0.3364 -1.4677
  284SOL     OW  850   1.181   0.070   0.096 -0.2284  0.0646  0.0087
  284SOL    HW1  851   1.198   0.060   0.196  1.7448  1.6608 -1.0654
  284SOL    HW2  852   1.198   0.168   0.074 -0.6705  1.9442  0.4141
  285SOL     OW  853   2.424   1.534   2.370 -0.4336  0.1651 -0.0515
  285SOL    HW1  854   2.382   1.459   2.312 -0.6743  0.4554 -0.4714
  285SOL    HW2  855   2.365   1.552   2.452  0.8200  0.4006 -0.9873
  286SOL     OW  856   1.660   2.408   0.623  0.0117  0.5334  0.0966
  286SOL    HW1  857   1.724   2.475   0.663  0.6069 -1.0902  0.9401
  286SOL    HW2  858   1.638   2.332   0.692  0.6754 -0.6517  0.7638
  287SOL     OW  859   1.482   0.810   0.888  0.5788  0.6835 -0.2604
  287SOL    HW1  860   1.457   0.770   0.798  0.4257  0.3573 -0.8966
  287SOL    HW2  861   1.444   0.747   0.964 -0.7950  1.0083  0.1284
  288SOL     OW  862   0.931   2.763   2.357 -0.0353  0.2728 -0.5054
  288SOL    HW1  863   0.915   2.719   2.450  2.5845  0.2319  0.3307
  288SOL    HW2  864   0.842   2.796   2.312 -3.7745 -0.4264 -0.4790
  289SOL     OW  865   3.060   1.332   0.791  0.4906  0.2454  0.1823
  289SOL    HW1  866   0.018   1.329   0.873  1.2900  0.3694 -1.3019
  289SOL    HW2  867   3.007   1.243   0.787  1.5125  0.2065  0.1880
  290SOL     OW  868   1.248   2.395   0.882 -0.6183 -0.3308  0.5678
  290SOL    HW1  869   1.328   2.455   0.858  1.0873 -2.3137  0.5689
  290SOL    HW2  870   1.209   2.352   0.801  1.3628  2.7528 -0.1301
  291SOL     OW  871   1.502   3.048   0.412 -0.2868 -0.8416  0.2572
  291SOL    HW1  872   1.404   3.034   0.393 -3.1350  2.5068  0.6160
  291SOL    HW2  873   1.535   2.973   0.474  3.0434  1.8759  0.0191
  292SOL     OW  874   0.444   0.323   2.388  0.0127 -0.1651 -0.1820
  292SOL    HW1  875   0.519   0.331   2.453 -3.2257  1.0480 -1.0743
  292SOL    HW2  876   0.351   0.331   2.436 -2.0831 -0.1579 -0.2126
  293SOL     OW  877   2.582   1.566   0.887 -0.1547 -0.0527 -0.0997
  293SOL    HW1  878   2.635   1.581   0.797  1.3835  1.6374 -0.7544
  293SOL    HW2  879   2.530   1.647   0.913  0.8812 -1.0241 -0.5038
  294SOL     OW  880   0.665   0.007   2.118  0.1555 -0.1321  0.1951
  294SOL    HW1  881   0.600   0.021   2.198  0.5778 -0.3370 -0.1914
  294SOL    HW2  882   0.614   3.075   2.035 -1.6517 -0.8099 -1.8518
  295SOL     OW  883   1.017   1.673   0.910 -0.7368 -0.3482  0.4205
  295SOL    HW1  884   1.061   1.655   1.000 -0.1887  0.1628  0.2203
  295SOL    HW2  885   0.919   1.694   0.913  0.6772 -1.0690 -2.8357
  296SOL     OW  886   2.430   1.791   0.375 -0.4567  0.1102  0.2755
  296SOL    HW1  887   2.449   1.870   0.313 -1.2323  2.3982  0.4474
  296SOL    HW2  888   2.498   1.718   0.380  0.5185  1.5476  1.8917
  297SOL     OW  889   2.558   2.988   2.977 -0.3579  0.0831  0.0569
  297SOL    HW1  890   2.458   2.997   2.999  0.0855  0.0039 -0.7969
  297SOL    HW2  891   2.602   2.935   3.048 -2.0216 -0.4220  1.1789
  298SOL     OW  892   1.078   0.152   2.708  0.3716  0.3886 -0.0867
  298SOL    HW1  893   1.017   0.238   2.718 -1.0222  1.1999 -2.0156
  298SOL    HW2  894   1.153   0.143   2.780  0.4349  1.2401  0.5471
  299SOL     OW  895   1.105   2.686   1.906 -0.1451  0.4976  0.0217
  299SOL    HW1  896   1.055   2.775   1.895  1.8544 -1.5039  1.5991
  299SOL    HW2  897   1.081   2.642   1.996 -2.8239 -0.8514 -1.1466
  300SOL     OW  898   2.766   3.018   2.021  0.1751 -0.4660 -0.0750
  300SOL    HW1  899   2.728   3.015   2.116 -1.4005  0.5237 -2.1416
  300SOL    HW2  900   2.832   3.093   2.008 -1.8270 -0.9391 -2.1379
  301SOL     OW  901   1.684   0.419   1.797 -0.2747 -0.5376 -0.0136
  301SOL    HW1  902   1.643   0.379   1.880 -0.9501 -0.0448 -2.6171
  301SOL    HW2  903   1.694   0.352   1.724 -1.1141  1.4902 -0.3513
  302SOL     OW  904   0.181   2.208   3.063 -0.8491  0.1972 -0.3437
  302SOL    HW1  905   0.242   2.157   0.023 -1.0462  0.4035  0.6416
  302SOL    HW2  906   0.161   2.296   0.006 -1.3276  0.7318 -1.8026
  303SOL     OW  907   1.973   2.584   1.467 -0.0542  0.2396 -0.0405
  303SOL    HW1  908   1.877   2.540   1.469 -1.6416  1.5358  2.5186
  303SOL    HW2  909   2.038   2.512   1.501 -0.5962  0.6528 -1.2620
  304SOL     OW  910   2.765   0.846   1.338  0.0226 -0.1726  0.4256
  304SOL    HW1  911   2.783   0.769   1.276  1.8385 -2.0141 -1.8949
  304SOL    HW2  912   2.853   0.904   1.345  1.9539  1.1280  1.6168
  305SOL     OW  913   0.516   1.199   0.747  0.3403  0.3462  0.0096
  305SOL    HW1  914   0.470   1.218   0.834 -2.8599 -1.3497  1.3534
  305SOL    HW2  915   0.470   1.240   0.665  0.2889 -0.4143 -1.0007
  306SOL     OW  916   0.433   1.279   2.886 -0.4591 -0.2056  0.1851
  306SOL    HW1  917   0.498   1.207   2.918 -3.2681 -0.5422 -0.4101
  306SOL    HW2  918   0.414   1.258   2.786  1.9039  1.5374 -1.8643
  307SOL     OW  919   1.110   3.097   1.731  0.1567  0.1681  0.0145
  307SOL    HW1  920   1.200   0.006   1.684 -0.4422 -0.3227 -1.7259
  307SOL    HW2  921   1.080   0.083   1.764  0.0687  1.2128 -0.2291
  308SOL     OW  922   0.278   0.773   0.994  0.3462  0.2551 -0.1920
  308SOL    HW1  923   0.350   0.733   1.054 -1.2237 -0.4814 -0.9074
  308SOL    HW2  924   0.321   0.821   0.916  0.0719  1.5713 -0.5496
  309SOL     OW  925   2.284   1.081   0.905  0.1684  0.5712 -0.3239
  309SOL    HW1  926   2.214   1.010   0.882 -0.9465 -0.6826  2.3156
  309SOL    HW2  927   2.251   1.157   0.968 -0.1190  0.1195 -2.0771
  310SOL     OW  928   0.394   1.678   2.737 -0.0843 -0.3153 -0.2324
  310SOL    HW1  929   0.344   1.616   2.673  0.8666 -0.4126  0.5226
  310SOL    HW2  930   0.333   1.757   2.776 -2.8484  2.1296  2.0211
  311SOL     OW  931   2.545   2.646   2.430  0.5189  0.3842 -0.3295
  311SOL    HW1  932   2.530   2.685   2.341 -0.0961 -1.5211  2.0347
  311SOL    HW2  933   2.529   2.712   2.507  1.4926  1.9894  3.3636
  312SOL     OW  934   2.071   2.088   3.042 -0.3723 -0.5394  0.3684
  312SOL    HW1  935   2.017   2.010   3.080 -0.4574  3.1562 -2.4850
  312SOL    HW2  936   2.163   2.064   2.997  1.9956  1.4174 -0.9634
  313SOL     OW  937   0.537   0.124   0.424 -0.2088  0.2096 -0.4656
  313SOL    HW1  938   0.588   0.095   0.342  0.7117 -1.5005  2.1443
  313SOL    HW2  939   0.568   0.068   0.506 -0.0313 -1.7402 -1.3678
  314SOL     OW  940   2.392   1.370   2.670  0.1988 -0.0519 -0.4760
  314SOL    HW1  941   2.484   1.383   2.621 -2.4483 -2.1630 -2.4740
  314SOL    HW2  942   2.329   1.441   2.646  0.0638 -3.6252  0.2852
  315SOL     OW  943   1.594   0.343   2.553 -0.9070  0.3437 -0.4071
  315SOL    HW1  944   1.677   0.404   2.559  1.0740  0.8679  0.5554
  315SOL    HW2  945   1.508   0.393   2.581 -1.8395  3.5643 -1.9821
  316SOL     OW  946   3.086   0.854   0.763 -0.3484  0.3941 -0.1216
  316SOL    HW1  947   3.012   0.865   0.695  2.1867 -1.6246  0.5090
  316SOL    HW2  948   3.055   0.878   0.855  0.8214 -2.2642 -0.8257
  317SOL     OW  949   0.337   2.774   2.977  0.2213 -0.4134  0.1498
  317SOL    HW1  950   0.256   2.808   2.920 -0.5954  0.0138 -3.7074
  317SOL    HW2  951   0.419   2.834   2.956 -2.9208 -0.4450  2.5019
  318SOL     OW  952   2.359   2.640   1.062 -0.3883 -0.0364 -0.2845
  318SOL    HW1  953   2.364   2.687   0.974 -0.7394 -1.6685  1.4014
  318SOL    HW2  954   2.414   2.687   1.133 -1.5306 -2.0840 -0.7485
  319SOL     OW  955   1.032   1.603   3.013 -0.4812 -0.9193 -0.5517
  319SOL    HW1  956   1.070   1.672   3.077  0.0454  1.1669 -2.5467
  319SOL    HW2  957   1.045   1.632   2.916 -0.0064  0.6347  0.4067
  320SOL     OW  958   0.557   1.859   1.243  0.4067  0.2915  0.1189
  320SOL    HW1  959   0.543   1.766   1.282  0.2413  0.6755 -1.9674
  320SOL    HW2  960   0.525   1.865   1.146  0.2076 -0.6170 -0.0710
  321SOL     OW  961   1.375   2.752   2.004 -0.6539  0.3250 -0.2451
  321SOL    HW1  962   1.288   2.737   1.951 -0.2878  0.0778  1.0247
  321SOL    HW2  963   1.392   2.850   2.008  2.0995 -3.3525 -1.0434
  322SOL     OW  964   2.336   1.936   2.351 -0.4393 -0.5036  0.5501
  322SOL    HW1  965   2.422   1.962   2.312 -4.8342  0.7297  0.0545
  322SOL    HW2  966   2.304   2.015   2.404 -1.6702 -0.3092  1.9687
  323SOL     OW  967   2.732   0.226   0.806 -0.3918 -0.4861 -0.4144
  323SOL    HW1  968   2.701   0.321   0.816  2.3219 -0.4988 -0.4822
  323SOL    HW2  969   2.681   0.154   0.857  0.7614 -1.0316 -1.5946
  324SOL     OW  970   2.909   2.675   2.465 -0.3480 -0.6092 -0.0604
  324SOL    HW1  971   2.991   2.652   2.516 -1.8689 -0.2407 -0.7059
  324SOL    HW2  972   2.923   2.651   2.370 -0.1385  0.5512  2.0099
  325SOL     OW  973   1.124   0.543   2.530 -0.4931 -0.0514 -0.0678
  325SOL    HW1  974   1.072   0.459   2.496 -3.2304  2.6266 -0.9669
  325SOL    HW2  975   1.224   0.528   2.542 -0.7062 -1.1237 -2.5025
  326SOL     OW  976   2.236   2.743   1.614 -0.2265  0.0582  0.6456
  326SOL    HW1  977   2.317   2.724   1.669 -1.3141 -3.1994  1.5336
  326SOL    HW2  978   2.156   2.720   1.675  2.4163  1.2422  2.4415
  327SOL     OW  979   2.438   2.964   0.275 -0.1798 -0.2890 -0.0468
  327SOL    HW1  980   2.381   3.047   0.292  2.0719 -1.2867  0.7391
  327SOL    HW2  981   2.405   2.879   0.323 -3.3713  0.6535 -0.0878
  328SOL     OW  982   0.154   1.236   1.584  0.2172 -0.2524 -0.5392
  328SOL    HW1  983   0.209   1.165   1.624 -1.8261 -0.5643  0.3194
  328SOL    HW2  984   0.168   1.324   1.634 -1.3139  0.2247  0.0004
  329SOL     OW  985   2.034   0.587   1.526  0.6096  0.1947  0.6313
  329SOL    HW1  986   1.950   0.635   1.496 -1.1458  1.5800  2.0539
  329SOL    HW2  987   2.046   0.591   1.624 -0.0489 -2.6737 -3.2432
  330SOL     OW  988   0.052   0.737   1.157 -0.1468 -0.3225 -0.6196
  330SOL    HW1  989   3.088   0.797   1.109 -0.1284  2.8353 -2.1075
  330SOL    HW2  990   0.135   0.752   1.104  2.8406 -0.8208 -0.6400
  331SOL     OW  991   0.638   1.426   2.026 -0.5780 -0.3060  0.0124
  331SOL    HW1  992   0.712   1.439   1.956  0.2971  1.2937  0.2982
  331SOL    HW2  993   0.686   1.404   2.113 -0.4628  1.2252  0.2074
  332SOL     OW  994   0.183   2.507   1.379 -0.1410  0.2734 -0.0342
  332SOL    HW1  995   0.101   2.548   1.426  1.8793 -2.8465  0.9884
  332SOL    HW2  996   0.161   2.415   1.341 -0.4035 -0.9543 -0.0861
  333SOL     OW  997   2.843   2.901   0.812  0.2672  0.6291 -0.4874
  333SOL    HW1  998   2.903   2.950   0.748 -1.4301  0.4480  0.9518
  333SOL    HW2  999   2.890   2.810   0.835  0.7805 -2.3355 -1.0518
  334SOL     OW 1000   0.135   1.250   0.586 -0.2590  0.1328 -0.3956
  334SOL    HW1 1001   0.230   1.282   0.568  2.1864  2.0225  3.5560
  334SOL    HW2 1002   0.100   1.285   0.673  0.9164  5.1432 -1.9730
  335SOL     OW 1003   0.317   2.518   2.980  0.0621  0.1926  0.1902
  335SOL    HW1 1004   0.245   2.482   3.041 -1.5731 -1.2281 -1.0183
  335SOL    HW2 1005   0.316   2.623   2.974  0.0387 -0.6153 -0.0767
  336SOL     OW 1006   2.938   2.647   2.130  0.1151 -0.0409 -0.4135
  336SOL    HW1 1007   2.984   2.565   2.168 -1.2171 -0.8044 -2.0493
  336SOL    HW2 1008   2.840   2.630   2.101  0.1163 -1.2360  1.7117
  337SOL     OW 1009   1.880   2.198   1.789  0.2407 -0.0636 -0.1627
  337SOL    HW1 1010   1.784   2.211   1.813  2.3430 -0.4676  1.1075
  337SOL    HW2 1011   1.885   2.131   1.714 -0.3083 -0.7236 -1.4126
  338SOL     OW 1012   0.885   0.338   2.749 -0.3082 -0.0370  0.3774
  338SOL    HW1 1013   0.807   0.283   2.784 -0.7652  0.7972  0.5856
  338SOL    HW2 1014   0.857   0.418   2.694  1.5186 -2.2471  1.3098
  339SOL     OW 1015   0.312   1.059   2.131  0.5315 -0.2255  0.4078
  339SOL    HW1 1016   0.259   1.079   2.044  0.5915  2.6123  0.1314
  339SOL    HW2 1017   0.330   1.142   2.190 -0.8570 -1.0363  0.2636
  340SOL     OW 1018   2.127   2.974   0.633  0.1802  0.2412  0.0860
  340SOL    HW1 1019   2.156   2.957   0.727  3.2189 -0.5872 -2.7791
  340SOL    HW2 1020   2.026   2.992   0.623  2.8137  0.5483  0.8674
  341SOL     OW 1021   2.029   1.353   0.758 -0.1875  0.0302  1.0585
  341SOL    HW1 1022   1.947   1.400   0.786  1.1001  0.2001  0.4747
  341SOL    HW2 1023   2.110   1.407   0.792 -1.0904  2.1857  0.0392
  342SOL     OW 1024   2.210   2.702   0.001 -0.0111  0.0297 -0.2460
  342SOL    HW1 1025   2.252   2.627   3.051  1.2916  1.6679  0.2505
  342SOL    HW2 1026   2.121   2.662   0.048 -0.1680 -0.8145  2.1691
  343SOL     OW 1027   0.921   2.191   1.506 -0.1054  0.1634 -0.1562
  343SOL    HW1 1028   0.943   2.259   1.582  1.6815  1.7816  1.3964
  343SOL    HW2 1029   0.947   2.231   1.415  1.6699  0.2104  1.4205
  344SOL     OW 1030   2.253   2.540   1.406 -0.0491  1.0856 -0.0624
  344SOL    HW1 1031   2.213   2.618   1.461 -0.5701 -0.8739 -0.5907
  344SOL    HW2 1032   2.353   2.551   1.399 -1.5754 -0.9246  0.0434
  345SOL     OW 1033   2.638   1.934   0.026 -0.4064  0.0177  0.2480
  345SOL    HW1 1034   2.682   1.982   3.052  1.2266  1.1436 -2.2460
  345SOL    HW2 1035   2.691   1.860   0.069  0.6851  0.3732  0.3930
  346SOL     OW 1036   1.883   2.347   1.070 -0.3485 -0.1652 -0.3909
  346SOL    HW1 1037   1.930   2.407   0.999  3.5807  3.2377  0.4696
  346SOL    HW2 1038   1.786   2.319   1.049  1.9163 -3.1167  2.7466
  347SOL     OW 1039   1.400   1.993   1.100 -0.8775  0.2393 -0.3681
  347SOL    HW1 1040   1.337   1.941   1.038 -2.7683  0.7597 -1.2692
  347SOL    HW2 1041   1.373   2.091   1.110  0.8225 -0.4335  1.2843
  348SOL     OW 1042   0.563   1.767   2.239 -0.3969  0.3844 -0.2730
  348SOL    HW1 1043   0.498   1.784   2.316 -1.2625 -0.1806  2.2296
  348SOL    HW2 1044   0.662   1.777   2.265  0.9384  1.2151  0.6679
  349SOL     OW 1045   1.895   1.718   0.992  0.2548  0.4287  0.5908
  349SOL    HW1 1046   1.873   1.818   1.007 -0.4796 -0.1660  2.8487
  349SOL    HW2 1047   1.883   1.673   1.081  1.2164  0.9108 -0.3296
  350SOL     OW 1048   2.686   2.511   0.689 -0.1328 -0.3848 -0.4979
  350SOL    HW1 1049   2.766   2.502   0.629  0.7156  0.5061 -0.3182
  350SOL    HW2 1050   2.703   2.482   0.787 -0.2807  2.3476 -0.5850
  351SOL     OW 1051   0.727   2.828   1.482 -0.3235  0.0577  0.2984
  351SOL    HW1 1052   0.815   2.871   1.458 -1.0183  0.5539 -1.3850
  351SOL    HW2 1053   0.674   2.816   1.397  0.1520  0.1565 -0.8621
  352SOL     OW 1054   0.275   1.609   1.146  0.4003  0.4832  0.4686
  352SOL    HW1 1055   0.323   1.518   1.133  1.4883 -1.5665  2.5249
  352SOL    HW2 1056   0.249   1.617   1.243  1.4057  0.0574 -1.1999
  353SOL     OW 1057   0.977   1.505   2.293 -0.4532  0.2698 -0.1032
  353SOL    HW1 1058   0.896   1.445   2.303  2.8246  2.5937 -0.2591
  353SOL    HW2 1059   1.056   1.452   2.322 -1.1243 -1.5272 -2.1176
  354SOL     OW 1060   1.460   0.071   1.849  0.4328 -0.5564  0.2224
  354SOL    HW1 1061   1.405   0.159   1.831 -1.4509  0.2333 -1.7175
  354SOL    HW2 1062   1.554   0.092   1.851 -2.9884 -2.3498 -1.5743
  355SOL     OW 1063   2.664   1.224   0.447  0.5224 -0.9017  0.1008
  355SOL    HW1 1064   2.645   1.289   0.522 -0.0896 -0.1477  0.1688
  355SOL    HW2 1065   2.626   1.257   0.360 -1.5683 -1.6630  0.0414
  356SOL     OW 1066   2.959   1.823   1.571  0.1886 -0.3184 -0.0641
  356SOL    HW1 1067   2.868   1.822   1.624 -2.2248 -1.0611  0.6039
  356SOL    HW2 1068   2.953   1.891   1.494 -1.4277 -0.1272 -1.4564
  357SOL     OW 1069   0.427   2.649   1.292 -0.2189 -0.4484  0.1642
  357SOL    HW1 1070   0.342   2.592   1.310 -0.8631  2.5424  0.9544
  357SOL    HW2 1071   0.411   2.750   1.329 -3.6435  2.4135 -0.0162
  358SOL     OW 1072   2.624   1.432   1.945 -0.1330  0.9329 -0.1460
  358SOL    HW1 1073   2.569   1.346   1.942  0.4995 -0.1004 -2.3519
  358SOL    HW2 1074   2.573   1.518   1.951 -0.4081  0.4830 -0.3201
  359SOL     OW 1075   2.298   2.872   2.778 -0.3967 -0.2388  0.3398
  359SOL    HW1 1076   2.304   2.918   2.867 -3.0739 -3.6207  0.0029
  359SOL    HW2 1077   2.203   2.838   2.766 -1.0550  2.9835 -0.4362
  360SOL     OW 1078   1.026   0.146   0.832  0.0392 -0.0729  0.1637
  360SOL    HW1 1079   1.110   0.208   0.844  1.0155 -2.7615 -0.2799
  360SOL    HW2 1080   1.064   0.048   0.819 -0.6157 -3.2784 -0.8400
  361SOL     OW 1081   2.055   0.354   0.829  0.4007  1.1148  0.1571
  361SOL    HW1 1082   2.039   0.450   0.844  0.2872 -2.9463 -1.2087
  361SOL    HW2 1083   2.040   0.314   0.921  1.7940  1.5929  1.0417
  362SOL     OW 1084   2.024   1.274   1.157  0.5688  0.8442  0.2675
  362SOL    HW1 1085   2.105   1.309   1.110 -3.0262  2.7737 -2.5519
  362SOL    HW2 1086   2.049   1.179   1.200  0.7159 -0.0222  1.1790
  363SOL     OW 1087   2.206   1.211   2.442  0.4398 -0.0167 -0.7447
  363SOL    HW1 1088   2.135   1.284   2.415 -1.4226  0.0832  0.1704
  363SOL    HW2 1089   2.269   1.188   2.368 -0.6489  0.7114  3.8167
  364SOL     OW 1090   0.256   0.261   1.184 -0.3381  0.0876  0.1473
  364SOL    HW1 1091   0.190   0.339   1.165  1.1078 -2.7226  0.9538
  364SOL    HW2 1092   0.208   0.173   1.213 -1.2663 -1.1376 -1.2047
  365SOL     OW 1093   0.673   0.180   2.797  0.1828  0.3194  0.3566
  365SOL    HW1 1094   0.586   0.125   2.774 -0.3128  0.2304 -0.4827
  365SOL    HW2 1095   0.744   0.115   2.831 -0.3959  1.5219 -4.4419
  366SOL     OW 1096   1.913   2.438   2.807 -0.4140  0.0903 -0.2230
  366SOL    HW1 1097   1.867   2.506   2.745 -0.1760 -0.2857  0.3864
  366SOL    HW2 1098   2.013   2.460   2.817  1.0755  0.8924 -0.1709
  367SOL     OW 1099   2.930   2.299   0.080  0.0509 -0.6298  0.3715
  367SOL    HW1 1100   2.882   2.374   0.130  2.0407  1.5637  1.2840
  367SOL    HW2 1101   3.031   2.313   0.079  4.0019 -0.0494  0.9211
  368SOL     OW 1102   0.006   1.267   1.358  0.1115  0.1664  0.6484
  368SOL    HW1 1103   3.085   1.364   1.351 -0.1773 -0.1733 -0.5102
  368SOL    HW2 1104   0.061   1.256   1.444 -0.0827  1.3292 -4.4342
  369SOL     OW 1105   0.909   0.023   2.876 -0.0145 -0.1485  0.6092
  369SOL    HW1 1106   0.913   3.023   2.882  0.4656 -1.2719 -4.5083
  369SOL    HW2 1107   0.978   0.066   2.816 -0.3914 -0.1881  2.0110
  370SOL     OW 1108   2.752   0.451   0.483  0.2349  0.1300 -0.0926
  370SOL    HW1 1109   2.676   0.403   0.531  0.4341  1.4263 -1.2246
  370SOL    HW2 1110   2.834   0.396   0.465 -1.6811  1.0181  1.6526
  371SOL     OW 1111   1.621   2.180   0.758  0.5647  0.4996  0.0484
  371SOL    HW1 1112   1.550   2.117   0.717  0.6468 -0.9339  2.3016
  371SOL    HW2 1113   1.709   2.132   0.776  1.9809 -1.0315  0.2644
  372SOL     OW 1114   2.911   0.732   2.595 -0.0028  0.1147 -0.1958
  372SOL    HW1 1115   2.930   0.813   2.537  0.9541  0.9543  0.9270
  372SOL    HW2 1116   2.922   0.756   2.692  1.1162 -1.2898 -3.8776
  373SOL     OW 1117   2.877   1.609   1.165 -0.1681  0.5072  0.4182
  373SOL    HW1 1118   2.915   1.647   1.075 -1.5408 -2.0050  0.4111
  373SOL    HW2 1119   2.788   1.563   1.157 -1.2085 -2.1917  0.5917
  374SOL     OW 1120   0.561   2.928   2.946  0.1070  0.2232 -0.8291
  374SOL    HW1 1121   0.548   2.986   3.025  1.4224  1.9163 -0.3754
  374SOL    HW2 1122   0.559   2.976   2.858  0.8920 -0.2804 -1.1128
  375SOL     OW 1123   0.158   3.050   0.110 -0.5352 -0.3702  0.1689
  375SOL    HW1 1124   0.188   3.048   0.208 -0.1774 -2.1028 -0.3617
  375SOL    HW2 1125   0.062   3.079   0.099 -0.3379 -3.1240  1.4191
  376SOL     OW 1126   2.992   2.182   1.556 -0.1256 -0.1320 -0.2895
  376SOL    HW1 1127   2.950   2.156   1.648 -1.2421  1.7249  1.1220
  376SOL    HW2 1128   2.996   2.108   1.486  1.5813  0.3660 -0.3723
  377SOL     OW 1129   1.596   2.415   2.585 -0.3453  0.0734  0.2555
  377SOL    HW1 1130   1.557   2.387   2.676  1.4259 -0.2486  0.7331
  377SOL    HW2 1131   1.648   2.338   2.546  0.9677  2.5691 -0.5419
  378SOL     OW 1132   0.523   0.342   3.006  0.2941 -0.1849  0.5215
  378SOL    HW1 1133   0.530   0.437   2.971 -0.6982 -0.8939 -3.5240
  378SOL    HW2 1134   0.525   0.280   2.928 -0.1955  0.6425 -0.1028
  379SOL     OW 1135   0.561   0.808   0.315  0.5102  0.1821 -0.2496
  379SOL    HW1 1136   0.635   0.869   0.293  0.0253 -0.0094 -1.5264
  379SOL    HW2 1137   0.474   0.862   0.325 -1.4154 -0.1171 -0.3525
  380SOL     OW 1138   2.938   1.882   1.931 -0.2306 -0.0378  0.5319
  380SOL    HW1 1139   2.909   1.796   1.976  0.7500  3.3033 -0.2509
  380SOL    HW2 1140   3.040   1.887   1.938  0.7182  0.5444  2.3088
  381SOL     OW 1141   0.363   1.087   1.719  0.1616  0.2692  0.3015
  381SOL    HW1 1142   0.406   1.173   1.755 -1.0154  2.3615  3.1938
  381SOL    HW2 1143   0.431   1.022   1.676  0.2679 -0.4150 -1.6601
  382SOL     OW 1144   2.509   2.045   0.339  0.4519  0.2347  0.4344
  382SOL    HW1 1145   2.453   2.065   0.423 -1.4900  1.7498  2.4243
  382SOL    HW2 1146   2.476   2.092   0.255 -2.6590  0.9659 -0.3221
  383SOL     OW 1147   2.759   2.050   2.914  0.0475 -0.3186  0.0134
  383SOL    HW1 1148   2.833   1.994   2.959  2.8611 -0.4459  0.0889
  383SOL    HW2 1149   2.804   2.137   2.885  3.8642 -0.2105 -0.3096
  384SOL     OW 1150   0.692   2.147   2.521 -0.6819 -0.2220 -0.0864
  384SOL    HW1 1151   0.660   2.136   2.620  0.2507  4.1029  2.4580
  384SOL    HW2 1152   0.622   2.143   2.451  2.4668  0.4139 -0.0363
  385SOL     OW 1153   0.012   1.219   1.097 -0.5157 -0.2862  0.0812
  385SOL    HW1 1154   0.010   1.231   1.198 -2.1021 -1.8775  0.9454
  385SOL    HW2 1155   3.018   1.216   1.065 -1.5916  1.3492  2.8955
  386SOL     OW 1156   2.238   1.641   1.505 -0.4026  0.6036  0.3623
  386SOL    HW1 1157   2.310   1.675   1.436  2.4886  0.7159 -2.0762
  386SOL    HW2 1158   2.183   1.568   1.460 -1.5414 -0.8341  0.7910
  387SOL     OW 1159   2.819   1.233   1.960  0.1620 -0.1287  0.1102
  387SOL    HW1 1160   2.898   1.233   1.899 -1.3136  0.6286  1.3084
  387SOL    HW2 1161   2.762   1.319   1.953 -0.0220  1.8497 -1.2731
  388SOL     OW 1162   2.828   1.315   2.237 -0.5331  0.2321 -0.6347
  388SOL    HW1 1163   2.752   1.265   2.279 -2.7035  2.4371 -0.8237
  388SOL    HW2 1164   2.828   1.295   2.140  0.9312  1.7885  1.4289
  389SOL     OW 1165   2.025   1.271   1.976  0.2551  0.0334 -0.4160
  389SOL    HW1 1166   1.948   1.302   2.037 -1.8056  1.7719  2.4098
  389SOL    HW2 1167   2.043   1.171   1.971  1.8172  0.2794 -2.8826
  390SOL     OW 1168   1.789   2.669   0.455 -0.2232 -0.3495 -0.3247
  390SOL    HW1 1169   1.884   2.641   0.482  0.2291 -1.5814 -0.0530
  390SOL    HW2 1170   1.746   2.604   0.391 -1.3180 -0.2582  1.7778
  391SOL     OW 1171   2.115   1.803   0.866  0.2941 -0.5167 -0.1472
  391SOL    HW1 1172   2.159   1.879   0.923  1.6109  1.7801 -0.7239
  391SOL    HW2 1173   2.042   1.762   0.918  2.0644  1.4075  2.6700
  392SOL     OW 1174   2.746   2.414   0.944 -0.6287  0.1592 -0.1253
  392SOL    HW1 1175   2.821   2.351   0.919 -1.5273 -0.5094 -0.9273
  392SOL    HW2 1176   2.781   2.484   1.009  0.7399 -0.7561 -0.8949
  393SOL     OW 1177   1.657   1.853   2.798 -0.2580  0.1869  0.3109
  393SOL    HW1 1178   1.682   1.754   2.804 -0.5971 -0.1933  3.4440
  393SOL    HW2 1179   1.601   1.870   2.717 -1.3728 -0.1197  1.3452
  394SOL     OW 1180   0.067   0.184   2.927  0.5151  0.1038  0.3428
  394SOL    HW1 1181   3.097   0.111   2.906 -2.0529 -1.7585 -1.5846
  394SOL    HW2 1182   0.155   0.136   2.940 -1.9662 -0.3629 -1.0159
  395SOL     OW 1183   0.845   0.818   0.916 -0.0528 -0.6762  0.4101
  395SOL    HW1 1184   0.947   0.807   0.908  1.2136  0.0591 -1.0593
  395SOL    HW2 1185   0.823   0.906   0.868 -1.1781 -0.1555  1.8173
  396SOL     OW 1186   1.185   1.106   0.719 -0.6600 -0.1148  0.7871
  396SOL    HW1 1187   1.227   1.052   0.794 -0.5398 -0.9921 -1.9415
  396SOL    HW2 1188   1.241   1.095   0.633  0.7959 -0.4968 -2.8353
  397SOL     OW 1189   0.520   0.693   2.132 -0.1265 -0.3090 -0.6158
  397SOL    HW1 1190   0.426   0.659   2.115  0.4986  0.5346  0.9771
  397SOL    HW2 1191   0.515   0.794   2.136 -1.1755 -1.7390 -0.5252
  398SOL     OW 1192   1.227   0.132   0.373  0.0829  0.1362  0.2092
  398SOL    HW1 1193   1.282   0.219   0.392  1.2012  1.9330 -0.5469
  398SOL    HW2 1194   1.211   0.073   0.453 -1.7397  0.2124 -0.4221
  399SOL     OW 1195   2.068   3.082   1.720  0.3888  0.7906  0.1620
  399SOL    HW1 1196   2.003   3.005   1.711  1.2125  0.0273  1.5501
  399SOL    HW2 1197   2.023   0.070   1.723  1.9982  0.6806 -0.5057
  400SOL     OW 1198   1.038   1.612   2.025 -0.6266  0.6798  0.1382
  400SOL    HW1 1199   1.125   1.660   2.044 -0.1339 -4.8453  0.3539
  400SOL    HW2 1200   1.008   1.575   2.115 -0.4346  1.0775 -1.2239
  401SOL     OW 1201   0.740   1.060   2.797  0.4275  0.0815  0.2878
  401SOL    HW1 1202   0.809   0.996   2.830  1.6924  1.3084  0.1650
  401SOL    HW2 1203   0.675   1.082   2.875 -0.1105  2.8743  1.4692
  402SOL     OW 1204   2.760   1.874   0.905 -0.1633 -0.1473  0.1762
  402SOL    HW1 1205   2.830   1.799   0.898 -0.2336  0.1489 -1.5306
  402SOL    HW2 1206   2.668   1.837   0.932  1.1955  0.0943 -1.2070
  403SOL     OW 1207   0.011   0.943   2.083  0.6528  0.1101 -0.2630
  403SOL    HW1 1208   3.077   0.997   2.158  2.1252  0.2654 -0.8902
  403SOL    HW2 1209   0.071   1.003   2.029 -2.0503  0.0060  2.7735
  404SOL     OW 1210   0.112   2.625   1.737 -0.1864 -0.0487 -0.5719
  404SOL    HW1 1211   0.190   2.634   1.669  0.3037  0.5222 -0.1904
  404SOL    HW2 1212   0.034   2.574   1.684 -0.8171 -0.1290  0.5757
  405SOL     OW 1213   0.366   0.357   2.125 -0.6012 -0.3712  0.0149
  405SOL    HW1 1214   0.405   0.341   2.222 -0.5176  0.9646  3.6860
  405SOL    HW2 1215   0.287   0.292   2.113  2.2619  1.6436  1.0662
  406SOL     OW 1216   1.650   1.894   2.338 -0.0872  0.3227  0.5462
  406SOL    HW1 1217   1.612   1.955   2.269  0.9636  0.7990 -1.5929
  406SOL    HW2 1218   1.742   1.862   2.298 -0.5238 -0.4092  0.7487
  407SOL     OW 1219   1.217   1.258   2.260 -0.3007  0.5964 -0.1622
  407SOL    HW1 1220   1.289   1.257   2.188  0.9816 -0.5751 -0.6359
  407SOL    HW2 1221   1.137   1.195   2.238 -1.5750  0.3290 -0.0127
  408SOL     OW 1222   0.688   3.097   2.501  0.0703  0.0853 -0.9780
  408SOL    HW1 1223   0.623   0.030   2.433 -1.2784  3.4190  0.6176
  408SOL    HW2 1224   0.784   0.011   2.478 -2.3932 -1.3381 -1.3686
  409SOL     OW 1225   0.473   2.015   0.544 -0.4176 -0.2053  0.0718
  409SOL    HW1 1226   0.513   1.937   0.597  1.4254 -0.9379  1.7272
  409SOL    HW2 1227   0.530   2.033   0.462 -2.3377 -2.1344  1.7689
  410SOL     OW 1228   2.904   1.120   0.433 -0.9517  0.5890  0.2947
  410SOL    HW1 1229   2.903   1.037   0.377  1.7445  0.1486  1.5315
  410SOL    HW2 1230   2.810   1.164   0.441 -1.1607 -2.1276  1.7878
  411SOL     OW 1231   0.064   0.005   1.268 -0.0327  0.0895  0.0882
  411SOL    HW1 1232   0.033   0.026   1.173 -1.7486 -3.0325  0.1938
  411SOL    HW2 1233   3.098   0.020   1.342 -0.2507 -0.8501 -1.2387
  412SOL     OW 1234   1.547   1.090   1.405  0.1934  0.3514 -0.3798
  412SOL    HW1 1235   1.627   1.070   1.345 -0.2250  2.5634 -1.4802
  412SOL    HW2 1236   1.500   1.003   1.440 -1.6204  0.8683  1.0434
  413SOL     OW 1237   0.565   3.014   1.615  0.2701 -0.0856  0.1296
  413SOL    HW1 1238   0.587   0.009   1.614 -0.4250  0.6035  2.9526
  413SOL    HW2 1239   0.620   2.956   1.550 -1.3914 -1.7084 -0.8644
  414SOL     OW 1240   2.803   1.566   2.717 -0.2848  0.1327 -0.0522
  414SOL    HW1 1241   2.768   1.660   2.741 -0.0514  0.3163 -0.7401
  414SOL    HW2 1242   2.846   1.530   2.802  4.1318 -0.7508 -0.0257
  415SOL     OW 1243   0.578   2.485   3.071 -0.3297 -0.4317 -0.7731
  415SOL    HW1 1244   0.475   2.497   3.058 -1.9445 -2.0166 -2.0185
  415SOL    HW2 1245   0.632   2.558   3.027  2.3559  1.3673  0.0645
  416SOL     OW 1246   2.003   2.942   0.258 -0.8938 -0.1886 -0.1309
  416SOL    HW1 1247   1.979   2.887   0.170  0.8634  0.4139  0.6718
  416SOL    HW2 1248   2.009   3.035   0.224 -2.1608 -1.1973  1.3463
  417SOL     OW 1249   0.389   0.621   0.680 -0.2327 -0.1009 -0.1500
  417SOL    HW1 1250   0.474   0.588   0.716  0.2506  0.6453 -3.5953
  417SOL    HW2 1251   0.307   0.593   0.736  1.8301  0.9091 -0.5665
  418SOL     OW 1252   2.495   0.327   1.187 -0.0126 -0.1246 -0.2411
  418SOL    HW1 1253   2.417   0.391   1.176  0.3147 -0.1386  1.3728
  418SOL    HW2 1254   2.517   0.332   1.288 -3.1813  2.0674  0.6734
  419SOL     OW 1255   0.021   3.072   0.501 -0.6213  0.1898  0.3542
  419SOL    HW1 1256   3.089   0.021   0.577 -2.6735  1.9693 -0.9710
  419SOL    HW2 1257   3.054   3.061   0.430 -4.6418  2.2774  0.3132
  420SOL     OW 1258   0.236   1.467   1.734  0.1232  0.1485  0.0419
  420SOL    HW1 1259   0.286   1.543   1.691  0.1696 -4.0383 -0.9362
  420SOL    HW2 1260   0.151   1.504   1.771  4.4155 -1.5721 -1.2786
  421SOL     OW 1261   1.146   3.023   0.543 -0.1972  0.0808 -0.2784
  421SOL    HW1 1262   1.045   3.013   0.562 -0.7164 -0.4328  0.0826
  421SOL    HW2 1263   1.174   2.984   0.449 -0.0635  1.9664  0.6135
  422SOL     OW 1264   0.350   0.537   1.553 -0.2122  0.2357  0.1379
  422SOL    HW1 1265   0.337   0.621   1.608  0.2052  2.8356  0.5054
  422SOL    HW2 1266   0.258   0.494   1.523 -0.3868  1.8768 -2.4749
  423SOL     OW 1267   1.042   1.418   1.466  0.3011  0.0931  0.3344
  423SOL    HW1 1268   1.055   1.398   1.566 -0.4072  1.6185 -0.6280
  423SOL    HW2 1269   1.127   1.416   1.410 -2.4944  2.4127  3.7728
  424SOL     OW 1270   2.160   1.407   3.095  0.0469 -0.2490 -0.5269
  424SOL    HW1 1271   2.083   1.417   0.057 -0.1986  1.1359  1.1362
  424SOL    HW2 1272   2.136   1.422   2.999 -0.5889 -1.4478 -0.3028
  425SOL     OW 1273   0.169   0.187   2.092 -0.0327  0.4365  0.2855
  425SOL    HW1 1274   0.141   0.203   2.189  2.0411 -0.1700  0.0295
  425SOL    HW2 1275   0.125   0.107   2.057  1.3421  1.5302  2.8112
  426SOL     OW 1276   0.260   3.096   2.957 -0.0273 -0.6574  0.5114
  426SOL    HW1 1277   0.245   3.094   3.055  0.6513 -3.3089  1.9122
  426SOL    HW2 1278   0.217   3.021   2.903  2.5460 -0.9811 -0.7771
  427SOL     OW 1279   1.214   1.049   2.741  0.0289 -0.6039  0.2863
  427SOL    HW1 1280   1.284   1.127   2.718  0.3897  3.9479  0.6914
  427SOL    HW2 1281   1.223   1.025   2.835 -2.2648 -1.8156 -0.7296
  428SOL     OW 1282   2.520   1.275   1.560 -0.0391 -0.7421 -0.8648
  428SOL    HW1 1283   2.440   1.316   1.608 -0.3744  3.0470  1.3165
  428SOL    HW2 1284   2.482   1.221   1.483 -0.5445 -0.0397  3.0376
  429SOL     OW 1285   2.205   2.914   0.896  0.2423  0.3392  0.6065
  429SOL    HW1 1286   2.281   2.867   0.847 -1.0696  0.1614 -1.4055
  429SOL    HW2 1287   2.186   2.864   0.984 -1.9079 -1.7456 -0.7876
  430SOL     OW 1288   0.755   1.346   2.253  0.1413 -0.0040 -0.7261
  430SOL    HW1 1289   0.730   1.250   2.250 -3.2537  2.8093  1.4916
  430SOL    HW2 1290   0.678   1.389   2.310 -0.1409 -0.0578  0.5423
  431SOL     OW 1291   2.627   1.556   1.554 -0.2131  0.2305  0.0710
  431SOL    HW1 1292   2.723   1.527   1.552  0.8595  1.1688  1.7823
  431SOL    HW2 1293   2.570   1.474   1.562  1.4220  3.1583 -0.0762
  432SOL     OW 1294   1.070   2.595   2.179  0.0145  0.2369 -0.3105
  432SOL    HW1 1295   0.997   2.640   2.237  0.3045 -0.4896  1.0729
  432SOL    HW2 1296   1.111   2.517   2.226 -0.0006  1.1854 -0.7124
  433SOL     OW 1297   1.853   0.147   2.295 -0.1321 -0.2152 -0.1447
  433SOL    HW1 1298   1.890   0.094   2.221 -3.3172  0.4832  2.4543
  433SOL    HW2 1299   1.798   0.226   2.263 -0.2083 -0.4478 -2.7383
  434SOL     OW 1300   0.546   2.553   2.477  0.5328 -0.8495 -0.2675
  434SOL    HW1 1301   0.477   2.482   2.493  1.9170  2.1445 -0.9382
  434SOL    HW2 1302   0.580   2.600   2.563 -1.0158 -0.0670 -1.6273
  435SOL     OW 1303   0.388   2.857   0.352 -0.2040 -0.2889 -0.2503
  435SOL    HW1 1304   0.364   2.955   0.318 -0.6874  3.5975 -0.6303
  435SOL    HW2 1305   0.308   2.824   0.408 -0.2941 -1.3529  1.9241
  436SOL     OW 1306   0.670   0.577   1.926  0.1952  0.0236  0.3534
  436SOL    HW1 1307   0.603   0.622   1.991 -1.1518  3.5707  0.3590
  436SOL    HW2 1308   0.674   0.478   1.933  0.2907  3.4873 -1.0311
  437SOL     OW 1309   0.355   2.362   2.467  0.3531  0.2089  0.1250
  437SOL    HW1 1310   0.382   2.350   2.367 -0.3862 -1.6071 -1.4823
  437SOL    HW2 1311   0.279   2.297   2.493 -0.5803  1.7908  1.1564
  438SOL     OW 1312   0.516   1.346   1.795  0.0173  0.8986 -0.2204
  438SOL    HW1 1313   0.423   1.384   1.788  1.4955  2.5738  0.3289
  438SOL    HW2 1314   0.563   1.375   1.885  2.9857  0.0699  1.6962
  439SOL     OW 1315   2.277   0.885   2.223  0.3333 -0.1527  0.1664
  439SOL    HW1 1316   2.222   0.863   2.306 -0.0513  1.5180 -0.8620
  439SOL    HW2 1317   2.299   0.986   2.229  0.6512  3.8488  0.7633
  440SOL     OW 1318   0.445   0.583   0.227  0.2627  0.3572 -0.1078
  440SOL    HW1 1319   0.470   0.519   0.301  1.3405 -0.5964 -1.4233
  440SOL    HW2 1320   0.484   0.674   0.252 -1.1397 -0.8926 -0.0913
  441SOL     OW 1321   1.156   2.485   1.281  0.2377 -0.5451 -0.5269
  441SOL    HW1 1322   1.060   2.519   1.287 -1.3396  3.1263  1.5087
  441SOL    HW2 1323   1.212   2.525   1.199  3.1350  1.4653 -1.8987
  442SOL     OW 1324   2.319   1.555   0.547  0.1025  0.5654  0.1152
  442SOL    HW1 1325   2.365   1.631   0.499 -1.1472 -1.5545 -1.3143
  442SOL    HW2 1326   2.385   1.477   0.559  0.0241  0.8640  0.2120
  443SOL     OW 1327   2.676   1.947   2.484  0.5623 -0.1843 -0.0671
  443SOL    HW1 1328   2.601   2.011   2.500  0.7913  1.0130 -3.4395
  443SOL    HW2 1329   2.647   1.878   2.413 -0.2301 -1.3539 -0.8897
  444SOL     OW 1330   1.810   1.357   2.951 -0.9298  0.3159  0.8713
  444SOL    HW1 1331   1.754   1.408   3.014  0.3835 -1.8941 -1.3783
  444SOL    HW2 1332   1.760   1.286   2.897 -0.4917 -1.1943 -0.8284
  445SOL     OW 1333   2.573   2.758   2.182  0.1658 -0.0116 -0.6235
  445SOL    HW1 1334   2.625   2.701   2.116 -2.3503  1.2243  1.0246
  445SOL    HW2 1335   2.632   2.835   2.221  1.2836  0.2316  1.4424
  446SOL     OW 1336   0.572   1.069   1.353  0.1117 -0.0263  0.0043
  446SOL    HW1 1337   0.604   0.977   1.382 -1.2919 -1.9116  0.8379
  446SOL    HW2 1338   0.581   1.138   1.429 -0.6333 -0.6132 -3.5217
  447SOL     OW 1339   0.815   1.366   0.907 -0.1745 -0.0091  0.0428
  447SOL    HW1 1340   0.911   1.367   0.944  0.2326 -1.4385 -2.0786
  447SOL    HW2 1341   0.755   1.430   0.957  1.3223 -0.5186  1.5547
  448SOL     OW 1342   1.140   1.121   1.875 -0.1328  0.4790  0.1146
  448SOL    HW1 1343   1.228   1.148   1.832 -1.2811  2.1521  0.9372
  448SOL    HW2 1344   1.120   1.018   1.865 -2.7370 -0.9135 -0.8304
  449SOL     OW 1345   3.045   1.941   2.306  0.2535  0.3845 -0.2885
  449SOL    HW1 1346   3.022   1.990   2.222  1.4768  1.7278 -1.8164
  449SOL    HW2 1347   3.095   1.856   2.293  1.1939  2.6547  1.5512
  450SOL     OW 1348   2.724   2.104   2.039  0.4396  0.3337  0.1921
  450SOL    HW1 1349   2.739   2.204   2.049 -0.2649 -3.2425 -2.3775
  450SOL    HW2 1350   2.808   2.046   2.043 -1.5844  1.9679  0.4581
  451SOL     OW 1351   2.382   1.171   1.351  0.4082  0.2860  0.0506
  451SOL    HW1 1352   2.281   1.156   1.348  0.1303  0.1410  0.4913
  451SOL    HW2 1353   2.434   1.084   1.341 -0.7696  3.2442  0.9740
  452SOL     OW 1354   0.417   1.368   1.461  0.6272 -0.5535 -0.2460
  452SOL    HW1 1355   0.476   1.326   1.532  0.3345 -0.5920 -2.5235
  452SOL    HW2 1356   0.366   1.301   1.401  0.3633  0.4386 -1.2084
  453SOL     OW 1357   0.383   1.351   1.052  0.0406 -0.2967 -0.2973
  453SOL    HW1 1358   0.299   1.331   0.993 -3.9094 -0.3729 -1.4979
  453SOL    HW2 1359   0.377   1.301   1.140 -0.1791 -2.2348 -0.4527
  454SOL     OW 1360   0.362   1.588   0.135 -0.3008 -0.3283  0.3081
  454SOL    HW1 1361   0.465   1.579   0.160  3.2049  1.0565  0.7149
  454SOL    HW2 1362   0.325   1.495   0.108 -2.0556 -0.1809  1.2709
  455SOL     OW 1363   1.841   0.966   0.901  0.2895 -0.4066  0.1198
  455SOL    HW1 1364   1.829   1.060   0.934 -0.4505 -1.0530 -0.8556
  455SOL    HW2 1365   1.856   0.910   0.986  1.8061 -0.2313  0.6087
  456SOL     OW 1366   1.897   2.569   0.742 -0.3752 -0.5139 -0.1245
  456SOL    HW1 1367   1.936   2.582   0.653 -2.7510  1.1636  2.9035
  456SOL    HW2 1368   1.963   2.527   0.804 -2.5975  0.0016 -2.1716
  457SOL     OW 1369   2.001   2.982   2.609 -0.1790 -0.6004 -0.6033
  457SOL    HW1 1370   1.942   3.044   2.553  0.5657 -0.3711  0.1167
  457SOL    HW2 1371   2.042   2.903   2.554  0.8982  1.5870 -0.0074
  458SOL     OW 1372   2.413   0.303   0.309  0.0794  0.0462 -0.2743
  458SOL    HW1 1373   2.472   0.356   0.240 -2.5501  0.0339  0.6156
  458SOL    HW2 1374   2.322   0.339   0.323  1.3167  0.0988  3.1862
  459SOL     OW 1375   2.980   1.071   2.276 -0.4102 -0.1701 -0.0383
  459SOL    HW1 1376   2.905   1.003   2.266  0.5812 -0.2487  1.4268
  459SOL    HW2 1377   2.958   1.171   2.266  0.0132  1.7456 -0.0114
  460SOL     OW 1378   0.269   0.681   0.044 -0.2221 -0.4854 -0.4866
  460SOL    HW1 1379   0.283   0.650   3.054  0.7153  3.2031  2.6391
  460SOL    HW2 1380   0.322   0.635   0.117  0.2981 -1.7494  1.9824
  461SOL     OW 1381   2.995   2.349   0.821 -0.1265 -0.3958 -0.7712
  461SOL    HW1 1382   2.941   2.267   0.819 -0.9537  2.2858  2.2292
  461SOL    HW2 1383   3.076   2.343   0.762  1.8599 -3.0835  1.7947
  462SOL     OW 1384   0.282   3.000   1.545 -0.0006 -0.4659 -0.7197
  462SOL    HW1 1385   0.366   3.023   1.592 -1.1376  1.4436 -0.0197
  462SOL    HW2 1386   0.305   2.978   1.449 -0.2387  1.6272  3.6540
  463SOL     OW 1387   2.065   2.047   1.977  0.4508 -0.5657  0.1100
  463SOL    HW1 1388   1.986   2.090   1.942  1.4971  0.9532  0.4830
  463SOL    HW2 1389   2.144   2.094   1.929  2.7763  1.3101 -3.6031
  464SOL     OW 1390   0.400   2.910   1.334 -0.5786  0.0300  0.3551
  464SOL    HW1 1391   0.450   2.994   1.314 -1.2291  0.7263 -0.8027
  464SOL    HW2 1392   0.323   2.911   1.261  0.8095 -0.2110 -1.3688
  465SOL     OW 1393   0.612   0.173   1.595  0.2694  0.0857  0.2742
  465SOL    HW1 1394   0.694   0.174   1.654  1.9457  1.2708  1.5415
  465SOL    HW2 1395   0.539   0.235   1.624  1.9047 -1.4820  1.0300
  466SOL     OW 1396   1.370   1.930   1.941  0.1119  0.4136 -0.0887
  466SOL    HW1 1397   1.445   1.927   1.873 -1.3429 -2.1644 -1.5729
  466SOL    HW2 1398   1.286   1.977   1.905 -1.6557  1.0837  0.9301
  467SOL     OW 1399   0.117   1.742   0.951 -0.0152 -0.0672  0.4020
  467SOL    HW1 1400   0.154   1.678   1.021  0.4925 -0.0693  4.0194
  467SOL    HW2 1401   0.138   1.711   0.855  2.3396  0.3166 -2.6159
  468SOL     OW 1402   2.290   2.166   2.674 -0.0668  0.0319 -0.2803
  468SOL    HW1 1403   2.372   2.178   2.613 -1.0335 -1.3530  0.3949
  468SOL    HW2 1404   2.209   2.120   2.629  1.3575 -1.1453  0.2329
  469SOL     OW 1405   1.165   2.328   0.614 -0.2806 -0.7698 -0.4000
  469SOL    HW1 1406   1.082   2.292   0.559 -0.5351  0.4992  1.4199
  469SOL    HW2 1407   1.242   2.374   0.563  1.1356 -1.6827 -1.5233
  470SOL     OW 1408   1.930   1.689   1.268  0.1989  0.1172  0.2281
  470SOL    HW1 1409   1.962   1.783   1.283 -0.6825 -1.4305 -2.0301
  470SOL    HW2 1410   1.836   1.676   1.303  2.2719 -1.2386 -0.2955
  471SOL     OW 1411   0.629   2.463   0.226 -0.2484  0.0169 -0.2030
  471SOL    HW1 1412   0.613   2.552   0.278 -0.9722 -0.3935 -0.1198
  471SOL    HW2 1413   0.598   2.472   0.128  0.8921  2.2748  0.6113
  472SOL     OW 1414   2.553   1.983   2.214 -0.6710  0.1823 -0.2289
  472SOL    HW1 1415   2.591   1.889   2.230  0.5509 -2.7974  4.9559
  472SOL    HW2 1416   2.612   2.042   2.151 -1.8527  0.5467 -0.5276
  473SOL     OW 1417   1.235   2.812   0.700  0.1473  0.0599 -0.5065
  473SOL    HW1 1418   1.197   2.734   0.660  1.7085  2.6512  1.3305
  473SOL    HW2 1419   1.216   2.892   0.642 -0.1953 -0.8558 -1.2476
  474SOL     OW 1420   2.918   3.093   1.413  0.4823 -0.1906 -0.2577
  474SOL    HW1 1421   2.871   0.048   1.346 -0.5499  3.3238  3.2590
  474SOL    HW2 1422   2.947   0.044   1.493  0.6049 -2.8382  0.3670
  475SOL     OW 1423   1.842   2.669   1.926 -0.1554  0.0040  0.5681
  475SOL    HW1 1424   1.836   2.641   2.023 -2.3078  1.9998  0.5927
  475SOL    HW2 1425   1.757   2.645   1.870  0.6629 -0.8727 -2.7946
  476SOL     OW 1426   0.403   0.266   0.965  0.4186  0.3276 -0.7417
  476SOL    HW1 1427   0.467   0.345   0.967  0.4751  0.4628 -2.1860
  476SOL    HW2 1428   0.340   0.262   1.044 -0.2558  0.0755  0.7252
  477SOL     OW 1429   0.792   2.200   0.922 -0.3663 -0.4054 -0.2119
  477SOL    HW1 1430   0.730   2.198   1.002 -0.1493  1.1803 -0.9095
  477SOL    HW2 1431   0.877   2.251   0.948  0.5331  1.2860  0.8834
  478SOL     OW 1432   0.662   2.716   2.669  0.0263  0.3861 -0.5268
  478SOL    HW1 1433   0.755   2.683   2.644 -0.6484 -3.1240  0.6605
  478SOL    HW2 1434   0.651   2.712   2.772  0.2899 -0.3939  1.2557
  479SOL     OW 1435   0.288   0.585   2.000 -0.1240 -0.1322  0.4785
  479SOL    HW1 1436   0.239   0.579   1.909  0.8610  0.4137 -3.6037
  479SOL    HW2 1437   0.299   0.494   2.041 -1.1489  1.3092 -0.5099
  480SOL     OW 1438   0.053   2.010   2.929  0.0944 -0.1903  0.2573
  480SOL    HW1 1439   0.085   2.087   2.987  2.5978  0.7726 -0.4804
  480SOL    HW2 1440   3.091   2.046   2.858 -2.0529  1.7686  1.2128
  481SOL     OW 1441   1.623   3.043   2.183  0.3077 -0.0287 -0.6684
  481SOL    HW1 1442   1.626   3.023   2.281  0.0692  1.9505 -2.2894
  481SOL    HW2 1443   1.712   3.079   2.148 -0.8921 -2.3349  3.1084
  482SOL     OW 1444   1.647   2.084   2.949  0.0631  0.1255  0.0676
  482SOL    HW1 1445   1.648   1.991   2.908  1.5776  0.2450 -2.6440
  482SOL    HW2 1446   1.738   2.124   2.929 -1.3099 -1.4208  0.4526
  483SOL     OW 1447   0.930   2.617   2.607  0.0072 -0.2467 -0.6007
  483SOL    HW1 1448   0.953   2.526   2.574 -0.6768 -0.3287  1.7673
  483SOL    HW2 1449   0.993   2.650   2.680 -2.2265  0.6523  2.7972
  484SOL     OW 1450   0.539   2.878   1.011 -0.3424 -0.1916 -0.2344
  484SOL    HW1 1451   0.567   2.974   1.029  0.6070 -1.0222  0.6153
  484SOL    HW2 1452   0.437   2.864   1.020  1.2238 -0.5947 -1.9187
  485SOL     OW 1453   2.026   0.619   0.807 -0.3800 -0.2388  0.2499
  485SOL    HW1 1454   1.931   0.647   0.804  1.4217 -2.6864  0.9445
  485SOL    HW2 1455   2.076   0.639   0.716  0.3109 -0.2045 -0.5952
  486SOL     OW 1456   2.068   2.619   1.792  0.3386  0.0869  0.1671
  486SOL    HW1 1457   2.148   2.627   1.850  0.2818 -1.7956 -1.6275
  486SOL    HW2 1458   1.979   2.646   1.844  1.2571  1.2997  1.3708
  487SOL     OW 1459   1.184   2.066   0.679 -0.2671 -1.0203  0.1225
  487SOL    HW1 1460   1.181   2.167   0.676  0.5237  0.5357 -2.9911
  487SOL    HW2 1461   1.108   2.028   0.620 -0.0592 -0.8192 -1.0235
  488SOL     OW 1462   1.916   0.481   0.355  0.3221  0.0187 -0.0913
  488SOL    HW1 1463   1.855   0.524   0.428 -1.0107  2.1653 -1.2409
  488SOL    HW2 1464   2.016   0.502   0.368  2.4837 -0.5616 -1.9269
  489SOL     OW 1465   2.172   2.806   0.427  0.2305 -0.5238  0.6274
  489SOL    HW1 1466   2.174   2.862   0.512  0.6515  0.0518 -0.7567
  489SOL    HW2 1467   2.116   2.857   0.357 -0.0606  1.7896 -0.0288
  490SOL     OW 1468   1.565   2.742   2.850  0.3546  0.1219  0.6084
  490SOL    HW1 1469   1.649   2.777   2.802 -0.7888 -2.6948 -2.2376
  490SOL    HW2 1470   1.487   2.813   2.847 -2.2958  1.3975  0.5099
  491SOL     OW 1471   0.747   0.355   1.147 -0.2732 -0.0872 -0.5131
  491SOL    HW1 1472   0.789   0.271   1.105  2.1788 -0.9610  2.0925
  491SOL    HW2 1473   0.691   0.317   1.224  0.2566 -1.2615  1.4391
  492SOL     OW 1474   1.873   0.223   0.407 -0.3840 -0.1825 -0.5198
  492SOL    HW1 1475   1.779   0.185   0.383 -2.9454 -2.0685 -0.9276
  492SOL    HW2 1476   1.887   0.319   0.374 -0.1191 -1.6493  1.7897
  493SOL     OW 1477   1.891   2.169   2.865 -0.1079 -0.0587  0.7655
  493SOL    HW1 1478   1.899   2.264   2.826 -0.7584  1.1753 -1.0041
  493SOL    HW2 1479   1.976   2.147   2.923  1.8482 -0.9994  2.1284
  494SOL     OW 1480   0.186   1.211   0.891 -0.6897  0.4482 -0.2581
  494SOL    HW1 1481   0.237   1.120   0.881  2.1084 -2.1005  0.3230
  494SOL    HW2 1482   0.132   1.208   0.977 -2.8564  0.9312  1.6743
  495SOL     OW 1483   2.969   0.122   1.672  0.4596 -0.2714 -0.0756
  495SOL    HW1 1484   2.941   0.221   1.672 -1.2162  2.8899  1.9144
  495SOL    HW2 1485   3.074   0.116   1.661  2.6166 -0.5933  1.7875
  496SOL     OW 1486   2.682   2.575   2.020 -0.1404  0.1924  0.1728
  496SOL    HW1 1487   2.728   2.595   1.930  1.3089 -2.4188  1.1252
  496SOL    HW2 1488   2.604   2.510   2.006 -0.5084 -0.8955 -0.8980
  497SOL     OW 1489   1.499   1.613   2.401 -0.1586 -0.4602  0.7011
  497SOL    HW1 1490   1.469   1.565   2.318 -0.6542  0.8275  3.7955
  497SOL    HW2 1491   1.560   1.689   2.386 -3.6175  1.6777  0.7342
  498SOL     OW 1492   0.494   1.590   0.710  0.0297  0.2444  0.2817
  498SOL    HW1 1493   0.419   1.542   0.659  2.4867  2.8826  5.3385
  498SOL    HW2 1494   0.529   1.678   0.672 -0.4658  0.1798 -1.9126
  499SOL     OW 1495   0.216   1.663   1.432 -0.1239 -0.2179  0.5108
  499SOL    HW1 1496   0.322   1.660   1.433  2.5510  0.1039  2.4282
  499SOL    HW2 1497   0.183   1.696   1.524 -0.0014 -3.0985  0.7393
  500SOL     OW 1498   1.274   2.264   0.054 -0.0843  0.2126 -0.1987
  500SOL    HW1 1499   1.344   2.264   0.129 -1.1694  0.6850  0.6045
  500SOL    HW2 1500   1.274   2.340   3.089 -1.1023  1.1801  0.3379
  501SOL     OW 1501   2.109   2.411   0.903  0.3407  0.4469  0.5129
  501SOL    HW1 1502   2.158   2.432   0.990  0.4682  0.4080  1.6130
  501SOL    HW2 1503   2.172   2.393   0.827 -0.5861 -1.5537  1.7425
  502SOL     OW 1504   0.100   0.767   1.669 -0.1663  0.6542 -0.3028
  502SOL    HW1 1505   0.073   0.787   1.571 -1.5895  0.7653  0.0706
  502SOL    HW2 1506   0.199   0.782   1.680 -0.4869 -0.0462 -1.2680
  503SOL     OW 1507   2.177   0.347   1.681  0.2614  0.1813  0.0116
  503SOL    HW1 1508   2.213   0.417   1.741  1.0821 -5.2812 -1.4559
  503SOL    HW2 1509   2.172   0.373   1.583 -2.2275 -2.6485  1.3793
  504SOL     OW 1510   1.886   0.851   1.902  0.4275  0.4509  0.0515
  504SOL    HW1 1511   1.813   0.881   1.972 -1.9582 -0.5447  1.2045
  504SOL    HW2 1512   1.978   0.888   1.930 -0.6326 -0.2058  0.4094
  505SOL     OW 1513   1.104   2.958   2.393  0.9173  0.2045  0.0594
  505SOL    HW1 1514   1.176   2.940   2.461 -1.4338 -1.1416 -1.5237
  505SOL    HW2 1515   1.052   2.870   2.378  1.9205 -0.8056  1.2208
  506SOL     OW 1516   0.540   0.313   1.916  0.4642 -0.0519  0.3041
  506SOL    HW1 1517   0.470   0.330   1.991  1.9278 -0.0258  0.7285
  506SOL    HW2 1518   0.499   0.308   1.820 -0.0327 -1.0465  1.0066
  507SOL     OW 1519   1.611   0.245   2.933 -0.1511 -0.5801 -0.0640
  507SOL    HW1 1520   1.551   0.192   2.868 -1.9212 -1.0608  0.0784
  507SOL    HW2 1521   1.591   0.218   3.031 -0.3712 -0.4494  0.1200
  508SOL     OW 1522   2.321   0.608   2.565  0.4520 -0.0858  0.2266
  508SOL    HW1 1523   2.273   0.564   2.646 -2.2886 -4.8823  0.4351
  508SOL    HW2 1524   2.418   0.626   2.587 -1.2541  1.5869 -0.3851
  509SOL     OW 1525   0.881   1.423   1.901 -0.1018  0.4766 -0.4973
  509SOL    HW1 1526   0.897   1.336   1.954 -1.7930  1.1519  2.2590
  509SOL    HW2 1527   0.944   1.490   1.946 -0.5400  0.5469  1.2290
  510SOL     OW 1528   3.086   0.422   0.719 -0.1632  0.1788 -0.0874
  510SOL    HW1 1529   0.049   0.487   0.754  1.6064  0.5992  2.5671
  510SOL    HW2 1530   3.024   0.473   0.657  2.8447  0.9577 -0.5492
  511SOL     OW 1531   1.492   1.473   0.761  0.0909 -0.4402  0.0700
  511SOL    HW1 1532   1.451   1.502   0.672 -0.8203 -2.4867  2.0130
  511SOL    HW2 1533   1.471   1.539   0.840  0.0427 -0.2143  4.6099
  512SOL     OW 1534   0.677   1.297   0.267 -0.5985  0.3585 -0.5055
  512SOL    HW1 1535   0.588   1.243   0.271 -1.1085  0.3171 -0.2084
  512SOL    HW2 1536   0.729   1.275   0.348 -0.3845  0.8006 -2.4166
  513SOL     OW 1537   0.112   2.371   0.646  0.8603 -0.1726 -0.3473
  513SOL    HW1 1538   0.155   2.279   0.659 -3.2718  2.5112  1.9407
  513SOL    HW2 1539   0.153   2.426   0.573 -2.1807 -0.6111  2.1907
  514SOL     OW 1540   0.336   2.057   0.153  0.1310 -0.2717  0.0102
  514SOL    HW1 1541   0.281   1.996   0.204 -0.6668  3.1641  0.3694
  514SOL    HW2 1542   0.401   1.995   0.107  0.7293 -0.6576 -0.5926
  515SOL     OW 1543   2.770   0.244   0.218  0.1695  0.1997  0.3048
  515SOL    HW1 1544   2.726   0.148   0.238  1.9626 -1.2849  1.5580
  515SOL    HW2 1545   2.850   0.256   0.280 -1.3441  1.1335 -2.3207
  516SOL     OW 1546   2.146   2.849   1.159  0.0881  0.2050 -0.1125
  516SOL    HW1 1547   2.153   2.879   1.255 -1.1127  0.4088 -0.3821
  516SOL    HW2 1548   2.204   2.768   1.133 -2.0218 -0.1920 -3.3331
  517SOL     OW 1549   1.434   1.646   0.124  0.6988  0.3179 -0.0475
  517SOL    HW1 1550   1.392   1.576   0.179 -0.6593  1.7546 -1.1036
  517SOL    HW2 1551   1.433   1.607   0.028 -1.6536 -0.7831 -1.4028
  518SOL     OW 1552   1.450   0.837   1.495  0.2015 -0.3384  0.6713
  518SOL    HW1 1553   1.436   0.839   1.396 -1.7978 -0.0186  2.7897
  518SOL    HW2 1554   1.358   0.824   1.545 -0.1210 -1.6268  1.1343
  519SOL     OW 1555   3.046   1.917   0.647  0.5767 -0.0777  0.1737
  519SOL    HW1 1556   0.028   1.919   0.704 -2.0596  0.0444  0.0819
  519SOL    HW2 1557   2.969   1.959   0.698  1.3234 -1.7620 -1.2404
  520SOL     OW 1558   2.223   2.251   1.864  0.2228  0.6533 -0.3680
  520SOL    HW1 1559   2.181   2.277   1.776  0.8514  1.4366 -0.8208
  520SOL    HW2 1560   2.207   2.327   1.935  0.4938  2.8039  0.5279
  521SOL     OW 1561   1.314   2.881   2.596 -0.1658  0.0218 -0.0910
  521SOL    HW1 1562   1.336   2.784   2.586  0.7346 -1.4961 -4.2689
  521SOL    HW2 1563   1.326   2.913   2.692 -0.8832  0.1241  0.1473
  522SOL     OW 1564   2.962   0.129   1.979 -0.2489  0.1484 -0.1743
  522SOL    HW1 1565   3.040   0.063   1.987 -0.7974 -0.1665  0.0548
  522SOL    HW2 1566   2.937   0.139   1.879  1.2821 -1.3655 -1.0469
  523SOL     OW 1567   1.328   2.193   1.665 -0.2370 -0.3203  0.1821
  523SOL    HW1 1568   1.259   2.124   1.696  1.8973 -0.5146  1.4682
  523SOL    HW2 1569   1.312   2.211   1.565 -1.1968 -2.3790 -1.4694
  524SOL     OW 1570   2.177   2.224   0.144 -0.3488  0.0697  0.2332
  524SOL    HW1 1571   2.280   2.219   0.147  2.3079 -0.7133  0.6227
  524SOL    HW2 1572   2.140   2.200   0.051 -1.8734  0.1278  2.1844
  525SOL     OW 1573   2.865   0.909   0.270 -0.2655  0.1719 -0.1624
  525SOL    HW1 1574   2.962   0.876   0.283  1.4398 -1.0011 -0.7089
  525SOL    HW2 1575   2.797   0.834   0.273 -0.5414 -0.6846 -1.7231
  526SOL     OW 1576   1.085   2.996   0.857  0.0572  0.1936 -0.4218
  526SOL    HW1 1577   1.164   2.949   0.819  0.9518  0.4769  0.0798
  526SOL    HW2 1578   1.048   2.940   0.933 -0.4983  0.3586  0.9402
  527SOL     OW 1579   2.485   1.350   0.644  0.4584 -0.4144  0.0198
  527SOL    HW1 1580   2.449   1.250   0.634 -2.6034 -1.2820  0.1966
  527SOL    HW2 1581   2.498   1.378   0.744  2.0105 -0.8269  1.8180
  528SOL     OW 1582   0.480   0.879   2.566  0.0311 -0.0466 -0.0553
  528SOL    HW1 1583   0.542   0.958   2.558 -1.7799 -2.0171 -1.4393
  528SOL    HW2 1584   0.414   0.878   2.488 -0.4070  0.6709 -1.4599
  529SOL     OW 1585   0.767   1.560   3.063 -0.0454 -0.8344  0.9205
  529SOL    HW1 1586   0.864   1.577   3.044  1.5836  0.4275 -0.6666
  529SOL    HW2 1587   0.714   1.546   2.975  1.8030  1.8187 -0.1575
  530SOL     OW 1588   1.664   1.140   2.015 -0.1513 -0.2922 -0.6507
  530SOL    HW1 1589   1.668   1.161   1.918  0.5640 -0.7585  0.6486
  530SOL    HW2 1590   1.666   1.042   2.023 -0.2286  1.4857  0.7190
  531SOL     OW 1591   0.968   2.277   2.872 -0.1656 -0.2751  0.8498
  531SOL    HW1 1592   0.878   2.296   2.911  3.3900  1.5960  1.3938
  531SOL    HW2 1593   0.980   2.177   2.848  3.6274 -0.8876 -0.5704
  532SOL     OW 1594   2.465   0.615   0.281 -0.6935  0.0449 -0.6756
  532SOL    HW1 1595   2.442   0.702   0.228 -0.8919 -0.1050 -0.7526
  532SOL    HW2 1596   2.529   0.557   0.225  3.8092 -3.3154  0.3537
  533SOL     OW 1597   0.091   0.524   1.814  0.0104 -0.0810 -0.1232
  533SOL    HW1 1598   0.095   0.581   1.728 -2.1369  0.0392  1.8988
  533SOL    HW2 1599   3.103   0.522   1.853  0.6496 -0.3355 -0.3362
  534SOL     OW 1600   1.705   0.474   3.032 -0.0713  0.6572 -0.3351
  534SOL    HW1 1601   1.667   0.382   3.002  1.6958  2.2524  0.4672
  534SOL    HW2 1602   1.785   0.463   3.099  0.2078  0.7145  1.0328
  535SOL     OW 1603   0.724   0.069   0.217 -0.2040  0.8121 -0.3415
  535SOL    HW1 1604   0.794   0.036   0.148 -0.4985  1.6588 -0.8437
  535SOL    HW2 1605   0.702   0.166   0.192 -1.0200  0.8144 -0.4795
  536SOL     OW 1606   0.372   1.505   2.066 -0.5751 -0.1435  0.2069
  536SOL    HW1 1607   0.347   1.605   2.080  1.5405  1.6533  1.1932
  536SOL    HW2 1608   0.475   1.494   2.047  2.3483 -0.4839  1.1250
  537SOL     OW 1609   0.453   2.369   1.832  0.4084  0.8207 -0.1524
  537SOL    HW1 1610   0.426   2.340   1.738  0.2670  1.8376 -1.8414
  537SOL    HW2 1611   0.413   2.459   1.856 -0.0318 -0.8620 -0.4865
  538SOL     OW 1612   0.122   1.922   0.268  0.5109  0.1058  0.0124
  538SOL    HW1 1613   0.130   1.854   0.195  0.2411  2.6016 -0.7682
  538SOL    HW2 1614   0.041   1.980   0.249 -0.3846  0.1479  0.5380
  539SOL     OW 1615   2.531   0.401   2.954  0.1612  0.3446  0.4239
  539SOL    HW1 1616   2.454   0.333   2.960 -1.7763 -0.9159 -1.4458
  539SOL    HW2 1617   2.616   0.361   2.912  0.3915 -0.7556 -0.5661
  540SOL     OW 1618   1.435   1.006   2.976 -0.4097 -0.1577  0.2838
  540SOL    HW1 1619   1.438   1.094   2.925 -0.6883 -0.2216 -3.6270
  540SOL    HW2 1620   1.434   1.025   3.073  0.6554  1.7359  0.7222
  541SOL     OW 1621   0.793   0.563   1.679  0.4055 -0.2423  0.0792
  541SOL    HW1 1622   0.756   0.581   1.770  1.0287  1.2077 -1.7406
  541SOL    HW2 1623   0.715   0.557   1.614  0.3965  1.3715  2.1879
  542SOL     OW 1624   1.951   2.460   2.386 -0.0233 -0.3488  0.1439
  542SOL    HW1 1625   1.886   2.384   2.399  3.6022  1.2500 -1.8787
  542SOL    HW2 1626   2.045   2.419   2.405  0.3164 -0.6231  0.3242
  543SOL     OW 1627   0.742   2.818   1.206 -0.3906 -0.0545 -0.6797
  543SOL    HW1 1628   0.661   2.804   1.146 -0.0194  1.5219  0.0805
  543SOL    HW2 1629   0.825   2.864   1.162  2.7403  1.4653 -0.8058
  544SOL     OW 1630   2.822   1.586   2.311 -0.0230 -0.2062 -0.9155
  544SOL    HW1 1631   2.808   1.485   2.284 -1.5866 -1.6558 -1.5135
  544SOL    HW2 1632   2.884   1.589   2.393 -1.4180 -0.1992  0.0566
  545SOL     OW 1633   1.735   2.120   1.411  0.4830 -0.6924 -0.1882
  545SOL    HW1 1634   1.779   2.053   1.475 -2.1651  3.4763 -0.4433
  545SOL    HW2 1635   1.689   2.071   1.335 -0.4009 -1.8833 -2.3525
  546SOL     OW 1636   0.192   0.399   2.505  0.5795  0.0828 -0.1185
  546SOL    HW1 1637   0.124   0.341   2.456 -1.0802 -0.7986 -0.5694
  546SOL    HW2 1638   0.205   0.373   2.605  1.7613  2.3746 -0.7139
  547SOL     OW 1639   1.451   0.419   0.718  0.2197 -0.1488 -0.6014
  547SOL    HW1 1640   1.533   0.369   0.755 -1.2370  0.7307 -0.5053
  547SOL    HW2 1641   1.370   0.399   0.774  1.6326 -0.3327 -0.6513
  548SOL     OW 1642   1.340   2.095   2.565 -0.2098  0.1212  0.4528
  548SOL    HW1 1643   1.301   2.068   2.654  0.6981 -0.1225  1.1096
  548SOL    HW2 1644   1.358   2.197   2.567 -0.7750  2.3719 -1.0359
  549SOL     OW 1645   2.137   0.832   3.095 -0.1066 -0.5211 -0.3622
  549SOL    HW1 1646   2.174   0.808   3.001  0.4204 -0.6622 -1.2964
  549SOL    HW2 1647   2.100   0.929   3.097 -1.2062  2.3190 -0.4910
  550SOL     OW 1648   2.705   1.938   0.507 -0.2088  0.7727  0.3805
  550SOL    HW1 1649   2.649   1.936   0.424  1.2706 -0.6441 -1.7682
  550SOL    HW2 1650   2.807   1.946   0.490  1.2870 -1.4143  1.3049
  551SOL     OW 1651   1.150   3.059   2.143  0.1822  0.2104  0.1880
  551SOL    HW1 1652   1.235   3.020   2.100 -0.9969 -0.3632 -0.8083
  551SOL    HW2 1653   1.136   3.022   2.238  2.3429  0.7452  1.0422
  552SOL     OW 1654   3.019   2.120   2.734  0.3615 -0.0223  0.4521
  552SOL    HW1 1655   2.973   2.102   2.645  0.1257 -1.5258  0.1795
  552SOL    HW2 1656   2.989   2.209   2.774 -2.2333 -1.6043 -1.3232
  553SOL     OW 1657   2.872   2.609   1.167 -0.0010  0.3265  0.3884
  553SOL    HW1 1658   2.965   2.639   1.193  2.0630 -1.8768  0.0557
  553SOL    HW2 1659   2.854   2.521   1.211 -2.3880 -0.2160  1.9830
  554SOL     OW 1660   2.314   1.887   1.953 -0.1405 -0.5431  0.1565
  554SOL    HW1 1661   2.244   1.943   2.007  0.3113  0.2460  0.3552
  554SOL    HW2 1662   2.282   1.829   1.879  0.3032  0.6294  0.9023
  555SOL     OW 1663   1.572   2.105   2.085  0.2778 -0.0420 -0.5944
  555SOL    HW1 1664   1.498   2.046   2.046 -0.4686  3.3473  0.6045
  555SOL    HW2 1665   1.550   2.203   2.058 -0.5098  1.1342 -0.9934
  556SOL     OW 1666   1.313   1.730   1.212  0.6024 -0.3813  0.0025
  556SOL    HW1 1667   1.362   1.665   1.273  1.0866  1.9778  1.9776
  556SOL    HW2 1668   1.326   1.830   1.242  0.0025  0.6478 -0.6890
  557SOL     OW 1669   1.356   0.003   1.612 -0.2486 -0.2538 -0.0316
  557SOL    HW1 1670   1.401   0.008   1.703  0.0023 -1.7843 -0.3279
  557SOL    HW2 1671   1.402   3.034   1.554  0.6101 -1.6654 -1.2422
  558SOL     OW 1672   0.552   3.001   1.887  0.0108  0.0949  0.7092
  558SOL    HW1 1673   0.567   2.910   1.916 -0.5907  2.3829 -0.6708
  558SOL    HW2 1674   0.549   3.003   1.783 -0.6056  0.0407 -0.5737
  559SOL     OW 1675   2.371   2.653   0.357  0.1604 -0.2853  0.0751
  559SOL    HW1 1676   2.287   2.710   0.370 -0.9110 -0.9416  1.0227
  559SOL    HW2 1677   2.387   2.596   0.442 -0.8149 -2.6055  2.2211
  560SOL     OW 1678   1.706   2.453   0.224  0.0881  0.2557  0.5576
  560SOL    HW1 1679   1.752   2.427   0.141 -0.5685 -0.3047  0.9401
  560SOL    HW2 1680   1.698   2.371   0.285 -0.4808 -1.2751  0.5536
  561SOL     OW 1681   1.337   0.380   2.926  0.4878  0.1691  0.6129
  561SOL    HW1 1682   1.253   0.437   2.906  0.0107 -0.6235  0.7100
  561SOL    HW2 1683   1.418   0.407   2.875  0.4232  0.3779 -0.7660
  562SOL     OW 1684   0.392   1.278   2.234 -0.1184  0.3536 -0.2265
  562SOL    HW1 1685   0.445   1.309   2.315  0.3671 -3.2601  1.7695
  562SOL    HW2 1686   0.375   1.354   2.167 -0.7584  1.9894  0.8041
  563SOL     OW 1687   1.491   1.888   2.601 -0.1783  0.0512  0.3897
  563SOL    HW1 1688   1.430   1.971   2.588  0.2742  2.7598  0.1169
  563SOL    HW2 1689   1.545   1.879   2.519 -2.6676  4.3868 -0.2921
  564SOL     OW 1690   3.011   0.935   1.037 -0.1220 -0.5363  0.2743
  564SOL    HW1 1691   2.915   0.915   1.015  1.9934 -1.8356 -0.9925
  564SOL    HW2 1692   3.021   1.032   1.066  0.1348  0.8908 -1.9638
  565SOL     OW 1693   0.504   0.829   3.047 -0.1158 -0.1307  0.4389
  565SOL    HW1 1694   0.554   0.742   3.024 -0.2558 -0.2607  0.4122
  565SOL    HW2 1695   0.425   0.802   3.102  3.5576  1.9518 -2.8753
  566SOL     OW 1696   2.525   2.853   2.628 -0.1714 -0.4162  0.5224
  566SOL    HW1 1697   2.535   2.952   2.606  0.0363  1.7836  2.5317
  566SOL    HW2 1698   2.439   2.842   2.682  0.8018  3.8565 -0.9952
  567SOL     OW 1699   1.512   1.281   0.963  0.8778  0.6640 -0.2382
  567SOL    HW1 1700   1.507   1.351   0.888 -0.3181  0.3676  1.0106
  567SOL    HW2 1701   1.606   1.269   0.995  0.5518  1.0368  0.4032
  568SOL     OW 1702   1.683   1.571   2.809  0.0501 -0.1165 -0.6954
  568SOL    HW1 1703   1.736   1.517   2.879  1.6969 -0.0250  0.2282
  568SOL    HW2 1704   1.692   1.521   2.718  0.7899 -0.3576 -1.0227
  569SOL     OW 1705   2.410   1.316   3.078 -0.2424 -0.3723  0.6315
  569SOL    HW1 1706   2.460   1.389   3.035 -0.0794  0.0320  1.1937
  569SOL    HW2 1707   2.307   1.339   3.072 -2.5618  1.8302  0.7206
  570SOL     OW 1708   0.012   2.208   1.862  0.4987  0.4862  0.4347
  570SOL    HW1 1709   0.012   2.307   1.880 -0.7320 -2.7638  0.6262
  570SOL    HW2 1710   0.103   2.183   1.826 -1.5967  0.9476  0.8937
  571SOL     OW 1711   2.709   1.792   1.660 -0.5235 -0.0634  0.3899
  571SOL    HW1 1712   2.675   1.823   1.747  1.7940 -3.2965 -0.9769
  571SOL    HW2 1713   2.663   1.713   1.627  2.4952  3.3405  0.2145
  572SOL     OW 1714   2.014   2.427   0.277 -0.4875  0.0613 -0.5750
  572SOL    HW1 1715   1.976   2.495   0.210 -1.5832  0.6639  0.3384
  572SOL    HW2 1716   2.083   2.360   0.237  3.4255 -3.6843  1.3475
  573SOL     OW 1717   1.474   2.022   0.393  0.5848 -0.2791  0.3394
  573SOL    HW1 1718   1.569   2.020   0.355 -2.3336  0.6884 -0.8115
  573SOL    HW2 1719   1.469   2.007   0.497  1.1741 -1.0265  0.7868
  574SOL     OW 1720   1.361   0.241   1.470  0.1429  0.9058  0.3249
  574SOL    HW1 1721   1.372   0.143   1.497 -0.4403 -0.9261  1.6247
  574SOL    HW2 1722   1.398   0.258   1.378 -1.2439 -0.1661  0.6194
  575SOL     OW 1723   0.619   1.235   1.575 -0.1521 -0.2076  0.4355
  575SOL    HW1 1724   0.590   1.285   1.657 -0.3592  0.9468 -0.0245
  575SOL    HW2 1725   0.717   1.237   1.554 -0.8927  0.2823  0.7305
  576SOL     OW 1726   2.513   0.601   1.586 -0.2283 -0.1064  0.4934
  576SOL    HW1 1727   2.515   0.586   1.688 -3.0277  0.5798  0.8940
  576SOL    HW2 1728   2.584   0.669   1.557 -1.3475  0.4105 -0.5335
  577SOL     OW 1729   1.527   0.955   2.312 -0.5421  0.3446  0.0567
  577SOL    HW1 1730   1.507   1.028   2.377  1.2601 -1.6325 -1.9591
  577SOL    HW2 1731   1.450   0.927   2.261  3.5086  3.2907 -0.7336
  578SOL     OW 1732   2.071   1.206   2.688  0.3107 -0.6475  0.2738
  578SOL    HW1 1733   2.153   1.187   2.745 -2.2410 -1.2996 -0.0911
  578SOL    HW2 1734   2.095   1.195   2.589 -2.1859 -0.0644 -2.1630
  579SOL     OW 1735   1.116   1.992   1.459  0.4334  0.1486  0.8688
  579SOL    HW1 1736   1.064   2.065   1.504  3.9768  1.0527 -0.8975
  579SOL    HW2 1737   1.085   1.965   1.363  2.3525 -1.1290  0.7623
  580SOL     OW 1738   1.472   2.263   0.243 -0.6144  0.1961  0.2730
  580SOL    HW1 1739   1.542   2.251   0.167 -0.0852  1.7420  0.9183
  580SOL    HW2 1740   1.440   2.179   0.284  2.3975 -2.1592 -2.2926
  581SOL     OW 1741   0.888   0.730   1.985 -0.3468 -0.4009  0.3005
  581SOL    HW1 1742   0.814   0.668   1.960  0.0399  0.6797 -1.6820
  581SOL    HW2 1743   0.873   0.759   2.083 -0.4970 -3.1228 -1.9017
  582SOL     OW 1744   0.862   1.195   1.461 -0.3268 -0.3178  0.0023
  582SOL    HW1 1745   0.880   1.154   1.368  0.2833 -2.9442  0.3870
  582SOL    HW2 1746   0.911   1.289   1.467  1.5157  3.1250 -0.0207
  583SOL     OW 1747   0.700   1.086   1.852  0.6089  0.1561  0.7344
  583SOL    HW1 1748   0.707   1.190   1.837  2.7956  0.7753 -2.7888
  583SOL    HW2 1749   0.793   1.052   1.853  0.1936 -0.7804  0.2130
  584SOL     OW 1750   2.299   2.338   0.712  0.1186 -0.0165 -0.7207
  584SOL    HW1 1751   2.379   2.309   0.769  1.1587  1.6666 -0.0576
  584SOL    HW2 1752   2.279   2.262   0.647 -0.4938 -3.0186 -0.0931
  585SOL     OW 1753   1.833   0.198   2.790  0.0526 -0.2439 -0.0559
  585SOL    HW1 1754   1.744   0.224   2.824  2.4534 -3.2853 -0.1007
  585SOL    HW2 1755   1.826   0.144   2.706 -1.9759  2.2540  0.1744
  586SOL     OW 1756   0.114   1.999   0.845 -0.1268  0.4369 -0.2086
  586SOL    HW1 1757   0.134   1.910   0.889 -0.6496 -0.3089  0.4473
  586SOL    HW2 1758   0.051   2.051   0.905 -0.5201  0.7213  1.6897
  587SOL     OW 1759   1.743   2.024   0.280  0.6332 -0.2575  0.0720
  587SOL    HW1 1760   1.790   2.054   0.362  1.8300  1.0766 -0.4561
  587SOL    HW2 1761   1.733   2.103   0.217 -2.7672 -3.3877 -0.0104
  588SOL     OW 1762   0.160   3.083   0.850  0.7290 -0.3082 -0.3639
  588SOL    HW1 1763   0.082   0.011   0.912 -3.0997  1.3943 -1.0658
  588SOL    HW2 1764   0.216   0.060   0.829 -1.0237  1.3138  2.3080
  589SOL     OW 1765   1.263   1.215   1.051  0.0597 -0.4726 -0.0149
  589SOL    HW1 1766   1.230   1.125   1.022  2.5109 -0.3725  0.8689
  589SOL    HW2 1767   1.342   1.242   0.994 -0.4056 -0.8805  0.0220
  590SOL     OW 1768   1.431   1.304   3.059 -0.5470 -0.3129  0.0350
  590SOL    HW1 1769   1.488   1.307   0.035 -2.1411 -0.0029  1.0571
  590SOL    HW2 1770   1.344   1.257   3.074  1.9903  0.7676  0.2009
  591SOL     OW 1771   2.613   2.390   2.540 -0.3436 -0.0292  0.0284
  591SOL    HW1 1772   2.619   2.415   2.638  1.7956 -1.1407 -1.5778
  591SOL    HW2 1773   2.603   2.472   2.481  0.7544 -0.2170  1.9493
  592SOL     OW 1774   1.741   2.399   1.467 -0.2303  0.4217 -0.0236
  592SOL    HW1 1775   1.644   2.422   1.493  2.1932  0.6970  1.1279
  592SOL    HW2 1776   1.758   2.300   1.454 -2.3372  0.2738 -0.6955
  593SOL     OW 1777   0.851   0.120   1.028 -0.0846  0.5598  0.3647
  593SOL    HW1 1778   0.894   0.110   1.122 -0.4007  3.7824 -1.0392
  593SOL    HW2 1779   0.924   0.127   0.957 -1.4413  1.6059 -0.5870
  594SOL     OW 1780   2.899   0.657   2.226 -0.2125  0.4071  0.0750
  594SOL    HW1 1781   2.980   0.653   2.168  0.2230 -1.1977 -2.1233
  594SOL    HW2 1782   2.905   0.583   2.295  0.7913 -2.0500  1.1702
  595SOL     OW 1783   0.898   2.577   1.305 -0.3065 -0.3978 -0.0539
  595SOL    HW1 1784   0.829   2.652   1.299  0.2286 -1.1188  0.0390
  595SOL    HW2 1785   0.866   2.489   1.268  1.8232  1.3803 -0.4067
  596SOL     OW 1786   0.007   0.832   1.411 -0.0996  0.0796  0.5955
  596SOL    HW1 1787   3.057   0.920   1.404 -0.9962  5.3494 -4.6528
  596SOL    HW2 1788   0.017   0.784   1.319 -3.6318  1.9656 -1.5215
  597SOL     OW 1789   1.704   1.755   0.172 -0.1161  0.2025 -0.0126
  597SOL    HW1 1790   1.611   1.718   0.185  2.2955 -2.2405 -1.7293
  597SOL    HW2 1791   1.715   1.848   0.211 -0.7708 -1.7189 -0.5929
  598SOL     OW 1792   0.320   2.707   1.580 -0.2276  0.0927 -0.0092
  598SOL    HW1 1793   0.324   2.675   1.485 -2.4456  1.9549  0.4867
  598SOL    HW2 1794   0.340   2.804   1.582  1.9768 -0.7607 -0.5228
  599SOL     OW 1795   2.427   1.743   2.851 -0.1905 -0.0925 -0.6970
  599SOL    HW1 1796   2.367   1.777   2.778  0.4318  1.4924 -1.5285
  599SOL    HW2 1797   2.523   1.768   2.837 -0.5469 -0.2467 -1.1324
  600SOL     OW 1798   0.833   0.926   0.169  0.6974  0.1975 -0.0484
  600SOL    HW1 1799   0.821   0.939   0.270  0.9790 -1.5257 -3.2141
  600SOL    HW2 1800   0.810   1.015   0.119  2.0990  0.7372  1.7413
  601SOL     OW 1801   0.724   0.596   0.849 -0.1902  0.4314 -0.7036
  601SOL    HW1 1802   0.787   0.669   0.886 -0.2168  3.4061 -0.6748
  601SOL    HW2 1803   0.663   0.555   0.918  1.3211 -1.2978 -1.4552
  602SOL     OW 1804   1.417   0.098   0.889  0.1373  0.1131  0.0545
  602SOL    HW1 1805   1.329   0.135   0.854  1.6931  2.0173 -0.1529
  602SOL    HW2 1806   1.495   0.162   0.863  0.5534  3.0512  0.5948
  603SOL     OW 1807   0.700   2.835   2.193 -0.6664  0.2867 -0.1208
  603SOL    HW1 1808   0.701   2.935   2.188 -0.5957 -0.2017  0.2437
  603SOL    HW2 1809   0.672   2.802   2.104 -0.1676 -0.3050  1.4584
  604SOL     OW 1810   2.919   2.962   2.430 -0.2605 -0.2437  0.6086
  604SOL    HW1 1811   3.016   2.984   2.412  0.9800 -1.4313 -0.1111
  604SOL    HW2 1812   2.903   2.864   2.445  0.4736  0.7579 -1.6126
  605SOL     OW 1813   2.667   1.780   1.300 -0.2618 -0.5425  0.6661
  605SOL    HW1 1814   2.661   1.876   1.336 -1.4145 -2.5365 -0.6447
  605SOL    HW2 1815   2.764   1.755   1.289  2.0819 -2.0615  0.4114
  606SOL     OW 1816   0.587   1.527   2.866  0.1673  0.4777  0.1158
  606SOL    HW1 1817   0.527   1.599   2.828  0.3936 -3.0218 -0.0260
  606SOL    HW2 1818   0.540   1.440   2.892 -1.4219 -1.7574  1.1004
  607SOL     OW 1819   0.932   0.119   0.420 -0.3529  0.0536 -0.5000
  607SOL    HW1 1820   0.865   0.125   0.343  0.9611 -0.9472 -1.5675
  607SOL    HW2 1821   1.026   0.153   0.394  0.8424  0.1878 -1.8343
  608SOL     OW 1822   1.826   1.365   2.115 -0.4672  1.2169 -0.2837
  608SOL    HW1 1823   1.755   1.292   2.118 -1.9568  1.7068  0.8988
  608SOL    HW2 1824   1.788   1.453   2.071 -1.6101  2.7902 -1.2561
  609SOL     OW 1825   3.052   0.075   1.026  0.9640 -0.5207  0.1894
  609SOL    HW1 1826   2.959   0.051   1.058  1.0468  3.0654 -0.4361
  609SOL    HW2 1827   3.046   0.175   1.003  1.7184 -1.0057 -0.6626
  610SOL     OW 1828   0.623   2.797   0.737  0.4711  0.3711  0.0371
  610SOL    HW1 1829   0.720   2.774   0.715  3.7563  0.2031  1.6836
  610SOL    HW2 1830   0.602   2.790   0.836  0.1532  1.1053  3.5972
  611SOL     OW 1831   1.770   0.967   3.013  0.4047  0.3743  0.7528
  611SOL    HW1 1832   1.863   1.000   3.040 -2.8816  1.1611 -0.5475
  611SOL    HW2 1833   1.707   0.987   3.092  0.7320  3.6290 -0.0415
  612SOL     OW 1834   0.782   2.162   2.037 -0.4376 -0.0509  0.1968
  612SOL    HW1 1835   0.818   2.119   2.119  1.7916  1.6553 -1.0187
  612SOL    HW2 1836   0.820   2.254   2.034 -1.1059  0.4922  2.6741
  613SOL     OW 1837   1.013   2.622   0.234  0.0130  0.1760  0.0752
  613SOL    HW1 1838   1.112   2.613   0.243 -0.1845  0.3413 -0.2324
  613SOL    HW2 1839   0.967   2.530   0.210 -0.0772  0.6093  3.2037
  614SOL     OW 1840   2.714   2.946   1.527  0.4192  0.2659  0.1170
  614SOL    HW1 1841   2.800   2.974   1.481 -2.0392 -1.7385 -1.5610
  614SOL    HW2 1842   2.723   2.847   1.547  1.5854 -2.8617 -1.3502
  615SOL     OW 1843   2.269   1.277   0.316  0.0961 -0.8361 -0.1628
  615SOL    HW1 1844   2.236   1.257   0.412 -2.1370  2.7145 -0.4786
  615SOL    HW2 1845   2.192   1.318   0.263 -0.0669  0.2896  0.9065
  616SOL     OW 1846   1.775   0.527   0.592  0.0672  0.2315 -0.0064
  616SOL    HW1 1847   1.775   0.426   0.610  0.5432 -1.0242 -1.3030
  616SOL    HW2 1848   1.756   0.581   0.677  0.6446  2.0878  2.2688
  617SOL     OW 1849   1.100   0.961   2.996  0.0237 -0.2912 -0.5790
  617SOL    HW1 1850   1.108   0.909   3.086 -2.0613 -3.0431 -0.5216
  617SOL    HW2 1851   1.006   0.946   2.948 -1.8100  0.8598 -3.6705
  618SOL     OW 1852   0.778   0.149   1.807 -0.1514  0.2237  0.6819
  618SOL    HW1 1853   0.853   0.102   1.855  1.0325  3.7967  2.0445
  618SOL    HW2 1854   0.703   0.172   1.869  0.8951  0.2373  0.8034
  619SOL     OW 1855   2.935   1.050   1.377 -0.5857 -0.3967  0.3363
  619SOL    HW1 1856   2.983   1.132   1.342 -1.9104 -0.0834  2.0179
  619SOL    HW2 1857   2.877   1.085   1.454 -0.4873  1.5485  0.7344
  620SOL     OW 1858   2.440   1.135   2.776  0.0553  0.4072 -0.2478
  620SOL    HW1 1859   2.402   1.059   2.719  0.7456  2.3411 -1.4782
  620SOL    HW2 1860   2.413   1.229   2.750 -0.3520 -1.2963  2.2038
  621SOL     OW 1861   2.515   2.551   1.352  0.3255  0.4261 -0.3932
  621SOL    HW1 1862   2.541   2.629   1.294  0.3730 -1.2357  0.3714
  621SOL    HW2 1863   2.560   2.461   1.327 -0.3633 -1.2038  0.1598
  622SOL     OW 1864   1.148   0.740   2.759  0.0448 -0.2593 -0.5340
  622SOL    HW1 1865   1.147   0.689   2.676  0.5075  3.5615 -0.0351
  622SOL    HW2 1866   1.177   0.836   2.744  0.8072  0.5868 -0.6139
  623SOL     OW 1867   1.092   0.494   2.883 -0.2040 -0.0029  0.4995
  623SOL    HW1 1868   1.024   0.444   2.824 -1.6929  0.2991 -3.2506
  623SOL    HW2 1869   1.103   0.594   2.851  0.0521 -1.2430 -0.2505
  624SOL     OW 1870   1.929   0.715   0.128 -0.3132 -0.2337  0.7766
  624SOL    HW1 1871   2.011   0.753   0.084 -0.3368  0.2053  0.0712
  624SOL    HW2 1872   1.935   0.612   0.139  0.9287 -1.4212 -2.0316
  625SOL     OW 1873   1.056   1.391   1.021 -0.1099 -0.2132  0.6211
  625SOL    HW1 1874   1.142   1.340   1.024  0.3721  0.8685 -0.8914
  625SOL    HW2 1875   1.069   1.479   1.069 -2.2644  0.3517  1.7547
  626SOL     OW 1876   1.702   1.156   2.812  0.5329  0.3877 -0.2808
  626SOL    HW1 1877   1.754   1.151   2.726 -1.4523 -1.4132  0.4666
  626SOL    HW2 1878   1.682   1.066   2.849  0.3566  1.4528 -1.3085
  627SOL     OW 1879   0.961   0.073   2.480 -0.3752  0.1170  0.1526
  627SOL    HW1 1880   1.014   3.092   2.457 -0.4278 -1.2478 -2.5788
  627SOL    HW2 1881   1.009   0.111   2.563  2.0457 -0.6815  1.4045
  628SOL     OW 1882   2.555   0.106   2.244  0.0430 -0.5080  0.2585
  628SOL    HW1 1883   2.586   0.190   2.189 -0.9656  0.2648 -0.1493
  628SOL    HW2 1884   2.499   0.140   2.324 -1.4880 -1.9705  0.7082
  629SOL     OW 1885   0.911   0.832   2.859  0.4406 -0.1562  0.1008
  629SOL    HW1 1886   1.005   0.802   2.823  2.5137  0.7881 -0.4198
  629SOL    HW2 1887   0.870   0.769   2.930 -0.3855  1.9613  2.6664
  630SOL     OW 1888   1.052   0.378   2.048  0.0346 -0.2571  0.1242
  630SOL    HW1 1889   0.957   0.395   2.083 -1.9798  0.3192  0.5283
  630SOL    HW2 1890   1.118   0.343   2.117  3.6175  2.1044  0.6921
  631SOL     OW 1891   2.971   0.704   0.534 -0.5098 -0.0481  0.8934
  631SOL    HW1 1892   2.926   0.677   0.448  1.0704  0.0270 -0.6747
  631SOL    HW2 1893   3.076   0.695   0.526  2.1795  1.3957  0.0052
  632SOL     OW 1894   2.110   1.054   1.280  0.0653  0.7086 -0.5452
  632SOL    HW1 1895   2.086   1.053   1.382 -0.6513 -0.8131  2.5251
  632SOL    HW2 1896   2.127   0.957   1.248 -0.1909 -2.3069 -1.4565
  633SOL     OW 1897   1.247   0.921   0.933  0.2125  0.0644  0.0707
  633SOL    HW1 1898   1.185   0.838   0.923  0.2692 -0.5776 -0.0883
  633SOL    HW2 1899   1.343   0.892   0.949 -0.5732  1.2941 -1.3396
  634SOL     OW 1900   1.885   2.983   0.975  0.0688 -0.0573  0.0161
  634SOL    HW1 1901   1.989   2.982   0.959  1.9457  0.6346 -1.2437
  634SOL    HW2 1902   1.851   2.900   1.018 -3.0204  0.9296 -1.6442
  635SOL     OW 1903   1.522   1.015   1.045 -0.4785 -0.4112 -0.1648
  635SOL    HW1 1904   1.507   0.940   0.978  0.2575 -0.6200 -1.8713
  635SOL    HW2 1905   1.500   1.105   1.002  0.3535  1.8875 -1.5569
  636SOL     OW 1906   0.956   0.972   0.701 -0.8573 -0.3789 -0.9534
  636SOL    HW1 1907   0.887   1.034   0.744  1.3643 -2.2307 -0.1025
  636SOL    HW2 1908   1.047   1.015   0.706  2.1526 -0.3213 -0.1054
  637SOL     OW 1909   2.440   2.119   0.073 -0.3665  0.2348 -0.1765
  637SOL    HW1 1910   2.512   2.050   0.051 -0.4476  0.0235  0.2984
  637SOL    HW2 1911   2.389   2.139   3.096 -1.4458  0.0865  0.6635
  638SOL     OW 1912   1.359   2.623   2.714  0.4355  0.2457 -0.2867
  638SOL    HW1 1913   1.401   2.571   2.639 -2.6804  0.3258  0.2722
  638SOL    HW2 1914   1.429   2.666   2.776 -0.1553  0.0619 -1.7308
  639SOL     OW 1915   0.971   2.271   1.256 -0.3856  0.2316  0.1960
  639SOL    HW1 1916   0.994   2.332   1.178 -1.4362 -0.7091 -1.2612
  639SOL    HW2 1917   1.015   2.177   1.244  1.6405 -2.1388  0.3588
  640SOL     OW 1918   3.035   2.639   0.575  0.0453  0.7427  0.6406
  640SOL    HW1 1919   3.038   2.638   0.676  2.0034  2.9514  1.0915
  640SOL    HW2 1920   2.997   2.547   0.550  0.7270 -1.7371 -0.7683
  641SOL     OW 1921   0.649   0.309   0.134  0.7390  0.3907 -0.0734
  641SOL    HW1 1922   0.613   0.360   0.216  0.8772  1.9950  0.6653
  641SOL    HW2 1923   0.594   0.324   0.051 -0.4809 -0.7282 -1.9658
  642SOL     OW 1924   2.780   0.668   1.153 -0.0589 -0.3501 -0.4847
  642SOL    HW1 1925   2.764   0.576   1.110  0.8145  0.5889  0.3311
  642SOL    HW2 1926   2.736   0.746   1.103  2.4386  0.2731  0.4050
  643SOL     OW 1927   0.672   1.947   1.894  0.1105 -0.5541  0.2174
  643SOL    HW1 1928   0.599   1.888   1.921  0.8174  1.5158 -1.5147
  643SOL    HW2 1929   0.694   2.026   1.953 -2.1922  0.9098  0.7503
  644SOL     OW 1930   1.549   2.684   0.253  0.1962 -0.0593  0.0466
  644SOL    HW1 1931   1.608   2.601   0.266  2.0653 -1.3414 -1.5418
  644SOL    HW2 1932   1.598   2.768   0.277  1.0252 -0.1349 -3.6908
  645SOL     OW 1933   1.880   2.154   0.846 -0.8256 -1.2114 -0.3376
  645SOL    HW1 1934   1.923   2.117   0.763 -3.0682 -2.3657  1.3832
  645SOL    HW2 1935   1.926   2.240   0.881 -0.3589 -0.6189  0.2286
  646SOL     OW 1936   1.420   2.870   0.105 -0.3059 -0.3695 -0.0265
  646SOL    HW1 1937   1.466   2.923   0.039  0.7163 -1.8268 -0.4880
  646SOL    HW2 1938   1.475   2.787   0.116 -0.4625  0.7062 -1.3336
  647SOL     OW 1939   0.388   2.618   1.911  0.2698 -0.0400  0.0883
  647SOL    HW1 1940   0.360   2.655   2.000 -2.8041 -3.0595  0.8504
  647SOL    HW2 1941   0.308   2.615   1.850  0.8157 -0.7283 -0.1458
  648SOL     OW 1942   1.790   1.064   1.277 -0.1961 -0.5002 -0.3383
  648SOL    HW1 1943   1.879   1.097   1.319  0.4074  1.5277 -0.6009
  648SOL    HW2 1944   1.802   0.989   1.205  0.3335  0.6861 -0.0119
  649SOL     OW 1945   1.504   2.329   2.822  0.1726  0.3847  0.2192
  649SOL    HW1 1946   1.543   2.242   2.861  2.0375  0.4090  0.6959
  649SOL    HW2 1947   1.505   2.396   2.899  2.1811  2.2060  0.7673
  650SOL     OW 1948   2.309   1.495   1.952  0.0675 -0.0035  0.3207
  650SOL    HW1 1949   2.371   1.567   1.992 -0.9230  1.4769  1.2492
  650SOL    HW2 1950   2.219   1.504   1.999 -1.3545 -0.5191 -0.1727
  651SOL     OW 1951   1.409   1.920   3.046  0.0403 -0.1840  0.2925
  651SOL    HW1 1952   1.416   1.835   3.093 -1.2042  2.6372 -0.0768
  651SOL    HW2 1953   1.501   1.957   3.025 -2.7556 -1.7298 -0.5687
  652SOL     OW 1954   0.719   2.718   2.925  0.4777  0.8665  0.4550
  652SOL    HW1 1955   0.813   2.751   2.941  0.1500 -0.2117 -0.6735
  652SOL    HW2 1956   0.647   2.786   2.938 -0.0273  0.3296  2.2076
  653SOL     OW 1957   2.243   1.958   1.037  0.1658  0.1392 -0.3279
  653SOL    HW1 1958   2.266   2.057   1.035 -0.4153  2.0243 -1.7633
  653SOL    HW2 1959   2.236   1.928   1.134 -1.7050 -1.0985  3.1620
  654SOL     OW 1960   2.886   2.549   1.825 -0.2479  0.1674  0.1728
  654SOL    HW1 1961   2.896   2.648   1.836  1.1706 -0.0065 -0.7393
  654SOL    HW2 1962   2.960   2.506   1.879  0.7690  0.7467 -1.8329
  655SOL     OW 1963   2.768   2.057   1.124  0.5074  0.0216  0.0080
  655SOL    HW1 1964   2.736   1.985   1.057 -1.8075  1.3618  1.5585
  655SOL    HW2 1965   2.719   2.046   1.217 -0.4407  0.8763  2.9840
  656SOL     OW 1966   0.174   2.896   2.787  0.9109  0.6768 -0.5960
  656SOL    HW1 1967   0.184   2.923   2.688  1.4033  0.4199  0.3533
  656SOL    HW2 1968   0.103   2.820   2.800 -1.8270  1.2902  2.9686
  657SOL     OW 1969   0.009   0.781   0.274  0.0761 -0.2713  0.1180
  657SOL    HW1 1970   0.052   0.735   0.355 -0.1352  0.7002 -0.3044
  657SOL    HW2 1971   0.069   0.842   0.215  3.3527 -0.0511  0.6504
  658SOL     OW 1972   1.830   1.962   1.034  0.5239  0.2312 -0.1163
  658SOL    HW1 1973   1.733   1.975   1.068 -2.5309  4.0284  1.9666
  658SOL    HW2 1974   1.852   2.038   0.967 -0.8126  0.0412  1.0508
  659SOL     OW 1975   1.654   0.615   1.132 -0.5373  0.2555 -0.4879
  659SOL    HW1 1976   1.668   0.517   1.106  1.3324  1.0207 -2.3302
  659SOL    HW2 1977   1.554   0.641   1.113 -1.9206  1.2538  0.2511
  660SOL     OW 1978   1.374   1.466   0.302 -0.3074 -0.1577  0.4089
  660SOL    HW1 1979   1.319   1.375   0.302 -0.4773 -3.5140  1.0715
  660SOL    HW2 1980   1.371   1.511   0.399  2.1831 -0.5758  3.6300
  661SOL     OW 1981   0.248   1.833   0.484 -0.2752 -0.4318 -0.1920
  661SOL    HW1 1982   0.309   1.907   0.507 -4.4184 -1.1488 -0.8944
  661SOL    HW2 1983   0.196   1.865   0.404  2.2514  0.4065  0.6403
  662SOL     OW 1984   0.048   0.672   2.109 -0.0859  0.2939 -0.0492
  662SOL    HW1 1985   0.142   0.640   2.089 -0.9040 -1.7440 -0.7572
  662SOL    HW2 1986   0.034   0.770   2.083 -0.7197  0.3699 -2.4944
  663SOL     OW 1987   2.087   1.478   1.371 -0.5625  0.4041  0.2332
  663SOL    HW1 1988   2.030   1.393   1.383 -1.2127 -3.0102 -0.4311
  663SOL    HW2 1989   2.042   1.557   1.319 -0.7662  2.2475 -1.1576
  664SOL     OW 1990   0.552   0.492   1.050  0.0250  0.0803  0.4312
  664SOL    HW1 1991   0.480   0.525   1.112 -0.7975 -0.6792  3.2962
  664SOL    HW2 1992   0.631   0.438   1.103  2.0967 -0.7058  0.9530
  665SOL     OW 1993   1.411   2.960   2.836 -0.0751 -0.0056  0.3744
  665SOL    HW1 1994   1.479   2.961   2.908 -1.8375 -0.3546  0.2238
  665SOL    HW2 1995   1.364   3.052   2.846 -1.4465  0.0669  0.3049
  666SOL     OW 1996   0.106   0.673   2.408  0.0806  0.0943 -0.1113
  666SOL    HW1 1997   0.150   0.582   2.433  0.8299  1.0261 -1.1023
  666SOL    HW2 1998   0.055   0.666   2.321 -2.4987 -0.4262 -1.7802
  667SOL     OW 1999   2.023   1.379   2.357  0.0334  0.2436 -0.3736
  667SOL    HW1 2000   1.993   1.433   2.436 -3.4193 -0.9906 -0.1277
  667SOL    HW2 2001   1.949   1.337   2.300  0.3652 -0.0540 -0.4802
  668SOL     OW 2002   0.021   1.641   2.932  0.1450  0.1041  0.0798
  668SOL    HW1 2003   0.073   1.554   2.907  2.4395 -3.2038 -1.0294
  668SOL    HW2 2004   3.036   1.616   2.967  2.3126 -1.9859  1.1081
  669SOL     OW 2005   2.053   2.744   2.511 -0.4865 -0.5434  0.5557
  669SOL    HW1 2006   2.026   2.751   2.416  1.1988 -1.1477  1.6220
  669SOL    HW2 2007   2.148   2.716   2.521  1.9310  2.6386  1.9635
  670SOL     OW 2008   2.612   0.930   2.483  0.1836  0.1215  0.2688
  670SOL    HW1 2009   2.627   0.834   2.511 -1.5780  3.3054 -1.8147
  670SOL    HW2 2010   2.517   0.962   2.490  1.0232  1.0359  0.4169
  671SOL     OW 2011   2.499   1.328   0.225  0.0261  0.5223 -0.2240
  671SOL    HW1 2012   2.472   1.351   0.131  0.2531 -1.1270  3.4902
  671SOL    HW2 2013   2.406   1.310   0.268 -2.3299  0.4109  2.2529
  672SOL     OW 2014   2.631   1.181   2.372 -0.2161  0.4805 -0.0388
  672SOL    HW1 2015   2.640   1.247   2.451 -0.1364 -1.9587 -3.0791
  672SOL    HW2 2016   2.640   1.084   2.400 -0.1454  0.3110  0.5063
  673SOL     OW 2017   2.912   1.545   1.576  0.1560 -0.2941 -0.3606
  673SOL    HW1 2018   2.900   1.645   1.598 -2.6327  1.4291  1.1909
  673SOL    HW2 2019   2.966   1.524   1.496 -2.6732  0.3585  1.9537
  674SOL     OW 2020   1.759   1.666   1.647 -0.2412 -0.5758 -0.2824
  674SOL    HW1 2021   1.676   1.725   1.649  2.3292 -0.7499 -0.8771
  674SOL    HW2 2022   1.809   1.670   1.737 -0.8785  3.0908  0.1109
  675SOL     OW 2023   3.017   0.347   0.975  0.4315 -0.1800 -0.3186
  675SOL    HW1 2024   3.043   0.413   0.904 -0.5344  0.0586 -3.5108
  675SOL    HW2 2025   2.927   0.372   1.003 -0.5297  2.6743 -1.3498
  676SOL     OW 2026   2.099   0.915   0.838  0.0086  0.6971 -0.0953
  676SOL    HW1 2027   1.997   0.925   0.840  1.1855  0.3287  0.8912
  676SOL    HW2 2028   2.134   0.844   0.774  1.2890 -1.4292  1.3582
  677SOL     OW 2029   1.454   1.537   2.157  0.3511  0.1265  0.2797
  677SOL    HW1 2030   1.382   1.614   2.138  0.1171 -0.3298 -1.1388
  677SOL    HW2 2031   1.419   1.441   2.139 -2.3482  2.1578 -1.3513
  678SOL     OW 2032   2.643   1.380   1.101 -0.1754  0.1814  0.0388
  678SOL    HW1 2033   2.627   1.424   1.010  0.0994 -0.7113 -1.3998
  678SOL    HW2 2034   2.586   1.414   1.171  0.2379 -0.2386 -0.1439
  679SOL     OW 2035   0.210   2.671   0.943  0.1081  0.0690  0.0469
  679SOL    HW1 2036   0.169   2.717   0.858 -0.2831  1.3440 -3.0769
  679SOL    HW2 2037   0.159   2.582   0.955 -3.0818 -1.3376 -1.4737
  680SOL     OW 2038   3.044   2.079   1.039 -0.1208  1.1116 -0.1320
  680SOL    HW1 2039   3.072   2.014   1.119 -0.4966  0.8639  0.4210
  680SOL    HW2 2040   2.942   2.083   1.039  0.3829 -2.3013  0.0527
  681SOL     OW 2041   0.850   0.824   1.224  0.1518 -0.0592  0.3920
  681SOL    HW1 2042   0.906   0.904   1.188  1.5000 -0.4714 -1.5090
  681SOL    HW2 2043   0.798   0.785   1.146 -1.2838  2.2741  2.6205
  682SOL     OW 2044   1.649   2.864   0.564  0.7256  0.1067  0.1526
  682SOL    HW1 2045   1.730   2.915   0.602 -1.5035  0.8644  2.0039
  682SOL    HW2 2046   1.682   2.781   0.517  2.2488 -0.8844 -2.8226
  683SOL     OW 2047   2.315   1.414   1.679 -0.4699 -0.1475  0.2081
  683SOL    HW1 2048   2.312   1.450   1.776  2.6388 -3.2297  0.8039
  683SOL    HW2 2049   2.301   1.482   1.613  2.6991 -3.3833  3.7255
  684SOL     OW 2050   0.139   1.838   1.635 -0.1885  0.0750  0.6146
  684SOL    HW1 2051   0.037   1.846   1.614 -0.7267 -1.7574 -0.2889
  684SOL    HW2 2052   0.153   1.810   1.735  2.0412 -2.1828  0.5881
  685SOL     OW 2053   2.145   1.803   0.169 -0.7875  0.4020 -0.0972
  685SOL    HW1 2054   2.146   1.730   0.237  0.0202  0.3256 -1.3488
  685SOL    HW2 2055   2.232   1.818   0.114  0.5245 -0.2996 -1.1966
  686SOL     OW 2056   2.940   0.183   0.671 -0.2868 -0.9544  0.1618
  686SOL    HW1 2057   3.015   0.238   0.713  2.2617  1.1789 -1.2762
  686SOL    HW2 2058   2.848   0.200   0.720 -1.8988 -1.5894 -0.7744
  687SOL     OW 2059   1.589   3.014   3.033 -0.4700  0.1292 -0.2651
  687SOL    HW1 2060   1.575   3.093   3.093  0.8045 -1.5604 -3.0027
  687SOL    HW2 2061   1.686   3.021   2.999 -0.5794  1.5874  0.7437
  688SOL     OW 2062   1.911   1.847   2.250  0.3383 -0.1575 -0.7661
  688SOL    HW1 2063   1.979   1.781   2.283  0.4883  0.7539 -0.4304
  688SOL    HW2 2064   1.937   1.944   2.270 -0.5802  1.1939 -3.5490
  689SOL     OW 2065   2.680   1.023   2.061 -0.1328 -0.5164  0.0000
  689SOL    HW1 2066   2.720   1.111   2.026  0.1710  1.4640  1.6194
  689SOL    HW2 2067   2.742   0.993   2.135 -0.2518  2.5435  1.5476
  690SOL     OW 2068   1.793   1.510   0.830 -0.2305  0.1006  0.0540
  690SOL    HW1 2069   1.821   1.578   0.901 -0.2401 -0.8750 -1.8318
  690SOL    HW2 2070   1.692   1.501   0.821  1.9820  0.4863 -0.0484
  691SOL     OW 2071   0.894   1.706   1.401 -0.2647 -0.3802  0.0484
  691SOL    HW1 2072   0.953   1.704   1.487 -1.7384  0.8256 -1.0461
  691SOL    HW2 2073   0.866   1.611   1.374 -1.2329 -1.5243  0.4784
  692SOL     OW 2074   1.974   3.079   2.097  0.5979 -0.2743  0.5095
  692SOL    HW1 2075   2.031   0.040   2.040 -1.4827  1.2055  0.9502
  692SOL    HW2 2076   1.920   3.018   2.037 -2.2552  0.4642 -2.3494
  693SOL     OW 2077   0.023   1.189   2.786  0.1339 -0.2703  0.5021
  693SOL    HW1 2078   0.074   1.273   2.811 -0.5804  0.7034 -2.3890
  693SOL    HW2 2079   0.024   1.185   2.685 -2.9903  0.7448 -3.5961
  694SOL     OW 2080   2.010   0.308   1.116 -0.5414 -0.7988 -0.0375
  694SOL    HW1 2081   2.040   0.215   1.094  0.2365 -0.2656  2.0200
  694SOL    HW2 2082   2.019   0.325   1.212 -1.1788 -0.2921 -4.1696
  695SOL     OW 2083   1.444   1.247   2.707  0.4085 -0.0126  0.9985
  695SOL    HW1 2084   1.534   1.255   2.754  1.1892  0.6598 -0.5852
  695SOL    HW2 2085   1.419   1.346   2.683  1.5105 -0.6839  0.6381
  696SOL     OW 2086   1.947   0.201   1.728  0.1448 -0.0469 -0.2208
  696SOL    HW1 2087   1.881   0.223   1.655 -1.0295 -2.1281  1.4530
  696SOL    HW2 2088   2.032   0.261   1.717 -0.4096 -0.9583  0.8566
  697SOL     OW 2089   1.618   0.597   2.105  0.6970 -0.1411  0.1854
  697SOL    HW1 2090   1.615   0.493   2.094 -1.9052 -0.9264 -0.6563
  697SOL    HW2 2091   1.522   0.628   2.092 -1.8102 -0.0925  1.1186
  698SOL     OW 2092   1.975   1.516   2.583  0.1408  0.1697 -0.1157
  698SOL    HW1 2093   2.023   1.531   2.672 -0.4597 -0.3260  0.3639
  698SOL    HW2 2094   1.873   1.510   2.590 -1.8394 -0.3469  0.5490
  699SOL     OW 2095   1.564   1.250   0.593 -0.1884  0.5294  0.1098
  699SOL    HW1 2096   1.538   1.314   0.668 -2.6376 -2.0292 -3.4946
  699SOL    HW2 2097   1.626   1.181   0.635 -1.3019 -1.8272 -0.8707
  700SOL     OW 2098   1.701   2.909   0.264 -0.4199  0.1931 -0.2803
  700SOL    HW1 2099   1.786   2.892   0.317 -1.4855  1.7322 -3.1942
  700SOL    HW2 2100   1.636   2.964   0.318 -0.3010  1.8029 -1.2534
  701SOL     OW 2101   0.127   0.398   1.467 -0.3629 -0.3344  0.6855
  701SOL    HW1 2102   0.057   0.437   1.404 -1.3898  0.0914 -0.4550
  701SOL    HW2 2103   0.102   0.304   1.493 -0.3482 -0.8489 -0.2152
  702SOL     OW 2104   1.851   0.096   1.392  0.6178 -0.2234  0.4518
  702SOL    HW1 2105   1.942   0.061   1.374 -0.7007 -0.8505 -0.4261
  702SOL    HW2 2106   1.784   0.022   1.410  1.6816  1.3296  0.8532
  703SOL     OW 2107   2.580   0.511   1.820  0.4113  0.1404  0.5285
  703SOL    HW1 2108   2.567   0.411   1.819  2.1757  1.2715  0.2030
  703SOL    HW2 2109   2.644   0.534   1.895  0.0360  1.2828  0.5863
  704SOL     OW 2110   1.349   2.267   1.119  0.4263  0.2588  0.0215
  704SOL    HW1 2111   1.302   2.294   1.204  0.7951 -2.6628 -1.0904
  704SOL    HW2 2112   1.324   2.328   1.043  1.7641 -0.9375  0.1488
  705SOL     OW 2113   0.188   1.775   2.185  0.2265 -0.3641 -0.1140
  705SOL    HW1 2114   0.247   1.837   2.239 -0.6988  1.4942 -1.9086
  705SOL    HW2 2115   0.161   1.694   2.237  0.1487  1.5583  0.1538
  706SOL     OW 2116   2.058   0.292   2.700  0.2823 -0.1166 -0.2084
  706SOL    HW1 2117   2.073   0.391   2.728 -0.4435 -0.5545  1.3211
  706SOL    HW2 2118   1.975   0.258   2.750 -1.3452 -1.1890  1.6121
  707SOL     OW 2119   1.676   2.828   2.391 -0.4793  0.0428  0.4433
  707SOL    HW1 2120   1.759   2.796   2.343 -1.2056  1.7521  0.3845
  707SOL    HW2 2121   1.610   2.750   2.420  0.1127  0.4028  0.4573
  708SOL     OW 2122   0.654   2.235   1.176 -0.1606  0.0882 -0.2652
  708SOL    HW1 2123   0.635   2.330   1.152  0.2037 -1.0237  1.2756
  708SOL    HW2 2124   0.741   2.229   1.227  1.1607  2.3577 -0.3372
  709SOL     OW 2125   2.633   0.965   1.751  0.3692 -0.4457  0.5609
  709SOL    HW1 2126   2.691   0.976   1.832  0.0899  2.1544 -0.6035
  709SOL    HW2 2127   2.669   0.888   1.692  1.9534  2.8687  0.4373
  710SOL     OW 2128   2.895   0.394   1.706  0.1496 -0.3709  0.3711
  710SOL    HW1 2129   2.847   0.452   1.636  1.2213  2.1678 -1.6400
  710SOL    HW2 2130   2.914   0.446   1.795 -0.5501 -0.9322  3.2025
  711SOL     OW 2131   3.033   2.714   0.889  0.0656 -0.3055  0.0655
  711SOL    HW1 2132   3.073   2.646   0.955  2.3689  0.5246 -0.2439
  711SOL    HW2 2133   3.101   2.781   0.850 -0.6890  1.8498  1.3336
  712SOL     OW 2134   0.293   2.911   2.523  0.1547  0.1663  0.2779
  712SOL    HW1 2135   0.368   2.926   2.590  0.5495 -2.4492  2.1296
  712SOL    HW2 2136   0.335   2.868   2.438 -0.7930 -0.0005  0.0799
  713SOL     OW 2137   2.209   0.541   0.369 -0.0055 -0.0654 -0.5768
  713SOL    HW1 2138   2.218   0.483   0.455 -0.5085 -1.2445  0.8128
  713SOL    HW2 2139   2.291   0.602   0.353  0.1522 -1.4360 -0.6887
  714SOL     OW 2140   1.694   1.539   0.009 -0.1785  0.4740 -0.7491
  714SOL    HW1 2141   1.697   1.631   0.051  1.4285 -1.2150 -0.3218
  714SOL    HW2 2142   1.658   1.473   0.077  2.7759  0.5902 -0.8616
  715SOL     OW 2143   0.107   0.382   0.381  0.3151 -0.2546  0.5062
  715SOL    HW1 2144   0.111   0.344   0.285 -2.8873  0.9001  4.7917
  715SOL    HW2 2145   0.188   0.349   0.427 -2.3552  0.6813 -2.6820
  716SOL     OW 2146   0.906   3.085   1.999  0.1544  0.3291 -0.3862
  716SOL    HW1 2147   0.993   3.085   2.054 -2.8362 -1.6943 -1.8389
  716SOL    HW2 2148   0.822   3.102   2.052  0.9976 -1.0591 -0.9591
  717SOL     OW 2149   0.278   0.628   2.866 -0.4778 -0.0073  0.3240
  717SOL    HW1 2150   0.241   0.722   2.854 -1.1496  1.9873 -1.1262
  717SOL    HW2 2151   0.238   0.557   2.807 -0.5675  3.3940 -0.9095
  718SOL     OW 2152   1.349   0.534   0.290 -0.0646 -0.4070  0.1114
  718SOL    HW1 2153   1.418   0.568   0.219 -1.0532 -1.5371 -2.3561
  718SOL    HW2 2154   1.292   0.610   0.328 -1.8605  0.3800 -0.1248
  719SOL     OW 2155   2.326   2.088   2.925  0.8107  0.2336  0.4177
  719SOL    HW1 2156   2.312   2.100   2.827  0.7298 -0.0849  3.4346
  719SOL    HW2 2157   2.401   2.028   2.940 -0.8133 -0.7691 -0.7407
  720SOL     OW 2158   1.213   1.072   1.386 -0.6682  0.1831 -0.3033
  720SOL    HW1 2159   1.245   1.172   1.387 -1.9586  2.5567  0.4716
  720SOL    HW2 2160   1.156   1.034   1.466  0.8456 -2.0289 -0.3359
  721SOL     OW 2161   0.024   2.727   1.185 -0.2860  0.7331 -0.0927
  721SOL    HW1 2162   0.076   2.802   1.145 -1.2779 -1.8006  1.1488
  721SOL    HW2 2163   0.090   2.656   1.219  2.2137  1.5476 -2.1796
  722SOL     OW 2164   1.041   1.697   2.757  0.3487  0.0817  0.3243
  722SOL    HW1 2165   1.130   1.741   2.743 -1.4072 -0.8722 -1.9126
  722SOL    HW2 2166   0.962   1.743   2.709 -1.4397 -0.9735  0.4176
  723SOL     OW 2167   1.846   0.233   0.667 -0.0858 -0.2241 -0.1843
  723SOL    HW1 2168   1.867   0.204   0.569  1.1699  1.2400 -1.0414
  723SOL    HW2 2169   1.934   0.243   0.720  4.3603 -0.2751  0.8968
  724SOL     OW 2170   0.548   2.140   2.790 -0.4719  0.5280 -0.1713
  724SOL    HW1 2171   0.620   2.168   2.855 -1.7012 -0.8912 -2.2356
  724SOL    HW2 2172   0.474   2.202   2.781  2.8621 -4.1129 -0.2265
  725SOL     OW 2173   0.093   0.471   1.144  0.4513  0.2525  0.1652
  725SOL    HW1 2174   0.074   0.564   1.169  1.6144 -5.1147  2.5693
  725SOL    HW2 2175   0.020   0.426   1.084 -2.9081  0.0504 -0.6038
  726SOL     OW 2176   2.226   0.376   0.599  0.0472  0.0584 -0.2148
  726SOL    HW1 2177   2.241   0.275   0.599 -2.4579  3.4210 -2.6016
  726SOL    HW2 2178   2.148   0.398   0.660 -1.4033  0.5755 -0.8771
  727SOL     OW 2179   1.977   1.075   2.244  0.2210  0.1841 -0.2270
  727SOL    HW1 2180   1.990   1.042   2.152  0.4358  1.0965  2.2305
  727SOL    HW2 2181   1.920   1.015   2.300  0.4614  1.2078 -0.0701
  728SOL     OW 2182   1.674   2.936   1.428  0.2691 -0.0496  0.1596
  728SOL    HW1 2183   1.609   2.874   1.480  0.8197  0.6921  1.6268
  728SOL    HW2 2184   1.642   2.946   1.333  1.8054  2.5152 -0.5158
  729SOL     OW 2185   1.904   0.611   1.773 -0.1972 -0.1620 -0.6121
  729SOL    HW1 2186   1.886   0.707   1.801 -1.2576 -0.6663  0.6485
  729SOL    HW2 2187   1.819   0.550   1.763 -1.9440  0.2276 -0.6723
  730SOL     OW 2188   0.665   0.825   1.428 -0.2520  0.1108 -0.4564
  730SOL    HW1 2189   0.642   0.723   1.432 -0.9618 -3.5703  1.4655
  730SOL    HW2 2190   0.730   0.835   1.349  0.6112  2.1600  0.3181
  731SOL     OW 2191   0.282   0.012   0.355 -0.5139  0.0381 -0.2088
  731SOL    HW1 2192   0.195   0.025   0.408 -1.1530 -2.0394 -1.8868
  731SOL    HW2 2193   0.361   0.056   0.400 -1.4768  0.9014  1.4561
  732SOL     OW 2194   0.802   0.657   0.405 -0.5543 -0.1520 -0.8246
  732SOL    HW1 2195   0.773   0.580   0.461 -0.4822  2.0415 -0.3130
  732SOL    HW2 2196   0.722   0.700   0.361  3.9235 -0.3912  0.1634
  733SOL     OW 2197   1.716   1.425   2.598  0.5258  0.3322 -0.2539
  733SOL    HW1 2198   1.634   1.446   2.538  1.6022 -2.1953  0.5233
  733SOL    HW2 2199   1.741   1.326   2.585  2.2761  1.2495 -0.4680
  734SOL     OW 2200   3.004   2.132   2.120  0.3308  0.2698 -0.3479
  734SOL    HW1 2201   3.056   2.134   2.037 -3.3732 -0.0011  1.2484
  734SOL    HW2 2202   2.939   2.204   2.135 -1.5083 -1.0510  0.2187
  735SOL     OW 2203   1.743   0.347   1.098  0.4177 -0.0934  0.0553
  735SOL    HW1 2204   1.840   0.355   1.088 -1.3324  0.9185 -1.4754
  735SOL    HW2 2205   1.712   0.257   1.138 -1.2167 -0.9544  1.2803
  736SOL     OW 2206   1.027   1.372   0.038 -0.0694 -0.3501  0.5814
  736SOL    HW1 2207   1.033   1.449   3.075 -0.3843  2.1257 -0.3551
  736SOL    HW2 2208   1.014   1.409   0.133  3.0300 -0.6357  3.0226
  737SOL     OW 2209   2.974   0.264   0.384  0.1267  0.4782 -0.1864
  737SOL    HW1 2210   3.051   0.329   0.364 -1.1841  3.0170  0.6826
  737SOL    HW2 2211   2.988   0.203   0.467 -2.5164 -4.1220  1.1072
  738SOL     OW 2212   0.394   2.285   1.561  0.0526 -0.6153  0.4443
  738SOL    HW1 2213   0.372   2.369   1.513 -1.0062 -0.9895 -1.8583
  738SOL    HW2 2214   0.439   2.219   1.501 -1.0415  1.1543 -1.3114
  739SOL     OW 2215   0.965   2.861   2.952  0.2447 -0.2488 -0.0743
  739SOL    HW1 2216   0.976   2.835   3.048  1.8514 -1.4547 -1.0888
  739SOL    HW2 2217   1.022   2.802   2.890  0.8497 -2.0206 -0.8484
  740SOL     OW 2218   1.830   2.891   1.671  0.3308  0.1164 -0.2237
  740SOL    HW1 2219   1.788   2.922   1.582 -2.2082 -0.6109 -0.2846
  740SOL    HW2 2220   1.798   2.797   1.696 -0.1539 -1.5386 -0.5572
  741SOL     OW 2221   2.157   0.752   0.604  0.0475 -0.2424 -0.1617
  741SOL    HW1 2222   2.256   0.751   0.581 -0.3417 -1.9121 -0.5907
  741SOL    HW2 2223   2.101   0.782   0.520  1.9748  0.2771 -1.4832
  742SOL     OW 2224   1.189   2.404   2.338  0.0660  0.2765  0.1956
  742SOL    HW1 2225   1.221   2.310   2.321 -2.0208 -1.3813 -0.0991
  742SOL    HW2 2226   1.111   2.403   2.401  1.3593  0.6521 -0.9786
  743SOL     OW 2227   2.325   1.040   1.816 -0.7888  0.0719 -0.7138
  743SOL    HW1 2228   2.285   1.000   1.732 -2.8489 -0.8580  1.6068
  743SOL    HW2 2229   2.428   1.040   1.810  0.2332  0.1318  0.4434
  744SOL     OW 2230   2.451   0.325   0.913 -0.1275  0.3885  0.3577
  744SOL    HW1 2231   2.437   0.414   0.860 -0.5878  0.7303  0.1382
  744SOL    HW2 2232   2.433   0.339   1.012 -2.7193  1.8469  1.9696
  745SOL     OW 2233   2.413   1.246   2.005  0.0220 -0.5786  0.1729
  745SOL    HW1 2234   2.375   1.335   1.976 -0.2687  1.7419 -1.1889
  745SOL    HW2 2235   2.378   1.171   1.947  1.3450  0.2309 -1.9576
  746SOL     OW 2236   1.369   1.594   0.542 -0.0031  0.0142 -0.0888
  746SOL    HW1 2237   1.377   1.682   0.489  0.0219 -2.1710 -1.7974
  746SOL    HW2 2238   1.274   1.585   0.576  0.6757 -2.1500 -1.8749
  747SOL     OW 2239   1.607   1.942   1.244 -0.0280  0.0014  0.5308
  747SOL    HW1 2240   1.532   1.971   1.186  0.8550 -1.9233  1.2199
  747SOL    HW2 2241   1.580   1.848   1.267 -2.0843  0.7652 -1.2226
  748SOL     OW 2242   0.080   2.714   0.017  0.1957 -0.1046  0.4394
  748SOL    HW1 2243   0.025   2.733   0.101  0.5876 -0.3815 -0.3713
  748SOL    HW2 2244   0.162   2.773   0.020 -0.8554  0.1978 -1.6106
  749SOL     OW 2245   0.204   1.122   2.486  0.0324  0.2016 -0.2700
  749SOL    HW1 2246   0.245   1.041   2.441 -2.3577 -0.1632 -0.9036
  749SOL    HW2 2247   0.103   1.111   2.511 -0.1476 -0.6019 -1.2718
  750SOL     OW 2248   1.392   3.011   2.050 -0.0046 -0.4358  0.1950
  750SOL    HW1 2249   1.471   2.999   2.112 -1.5354  0.0090  0.3953
  750SOL    HW2 2250   1.413   3.076   1.975 -0.5090 -0.4589 -0.9079
  751SOL     OW 2251   2.766   0.647   0.306  0.2109 -0.0246  0.0529
  751SOL    HW1 2252   2.709   0.615   0.229 -1.6254  1.9483  1.6230
  751SOL    HW2 2253   2.767   0.571   0.374  0.6353 -1.7755  0.1857
  752SOL     OW 2254   0.276   2.158   0.695  0.0222 -0.1890  0.9165
  752SOL    HW1 2255   0.330   2.112   0.626 -0.7476  2.6417  1.5726
  752SOL    HW2 2256   0.225   2.093   0.751  2.6083  1.5548 -1.6874
  753SOL     OW 2257   1.006   2.823   1.053 -0.1666 -0.2655  0.0906
  753SOL    HW1 2258   1.097   2.821   1.109  1.8202  1.9301  1.9603
  753SOL    HW2 2259   0.984   2.730   1.033  1.6863  1.5917  0.6624
  754SOL     OW 2260   0.505   0.079   2.335  0.1339 -0.0444 -0.1676
  754SOL    HW1 2261   0.425   0.019   2.316 -1.0252 -0.8266  2.5958
  754SOL    HW2 2262   0.481   0.177   2.361  1.4742  0.9588  1.4485
  755SOL     OW 2263   1.913   1.197   0.199  0.4333  0.1869 -0.2645
  755SOL    HW1 2264   1.921   1.300   0.195 -1.3857  1.0533  0.9211
  755SOL    HW2 2265   1.925   1.158   0.291  1.0897  0.2441  1.9478
  756SOL     OW 2266   2.215   2.408   2.799  0.2130 -0.2975 -0.1853
  756SOL    HW1 2267   2.246   2.325   2.747 -0.5761 -2.7351  1.3577
  756SOL    HW2 2268   2.264   2.432   2.887 -2.6050 -1.0566 -0.2153
  757SOL     OW 2269   1.602   0.887   0.486  0.2147  0.1883  0.7212
  757SOL    HW1 2270   1.647   0.894   0.391  2.3067  1.9791 -3.9563
  757SOL    HW2 2271   1.576   0.793   0.507  1.9128 -0.4849 -1.5571
  758SOL     OW 2272   2.259   0.451   1.134  0.3874 -0.0792 -0.2007
  758SOL    HW1 2273   2.165   0.423   1.111  1.0363  0.0296 -1.5694
  758SOL    HW2 2274   2.282   0.535   1.085 -0.1065  0.0001 -1.6315
  759SOL     OW 2275   2.741   0.424   1.039 -0.1378  0.0719  0.6412
  759SOL    HW1 2276   2.661   0.362   1.063 -0.1910 -0.4204  0.0208
  759SOL    HW2 2277   2.707   0.493   0.975  0.7617 -0.6488  0.5497
  760SOL     OW 2278   2.364   1.428   1.266  0.1470  0.0651 -0.1546
  760SOL    HW1 2279   2.266   1.455   1.276  2.3037  0.2401  0.2311
  760SOL    HW2 2280   2.390   1.335   1.297  0.4250  1.1171 -1.2106
  761SOL     OW 2281   0.531   0.400   0.421  0.3366  0.2651  0.1428
  761SOL    HW1 2282   0.610   0.427   0.479  0.4882  2.0052 -0.9630
  761SOL    HW2 2283   0.515   0.301   0.426  0.4141  0.7620  1.0180
  762SOL     OW 2284   1.062   2.031   1.165 -0.4131 -0.0826 -0.5254
  762SOL    HW1 2285   1.127   1.982   1.105 -0.4534 -0.4278 -2.6021
  762SOL    HW2 2286   0.975   1.979   1.164  0.3729 -1.7344  2.1016
  763SOL     OW 2287   1.389   1.169   1.764  0.3544  0.0746  0.2011
  763SOL    HW1 2288   1.406   1.270   1.754  2.1289  1.0137  0.4703
  763SOL    HW2 2289   1.474   1.126   1.750 -0.0164 -0.5013 -1.0596
  764SOL     OW 2290   0.034   1.785   2.693 -0.2815  0.3052  0.5450
  764SOL    HW1 2291   0.048   1.744   2.784  0.6313  5.3237 -5.6492
  764SOL    HW2 2292   0.018   1.883   2.693  1.7914 -1.7205 -2.0550
  765SOL     OW 2293   1.354   2.581   1.105 -0.2570 -0.4871 -0.1596
  765SOL    HW1 2294   1.437   2.596   1.167  0.6025 -0.5796  1.7742
  765SOL    HW2 2295   1.389   2.581   1.007 -0.0266 -0.3019 -1.6061
  766SOL     OW 2296   2.842   2.318   2.441 -0.1057 -0.0354 -0.2570
  766SOL    HW1 2297   2.755   2.324   2.493 -0.5738  0.8275  2.3752
  766SOL    HW2 2298   2.884   2.228   2.458 -0.9327  1.6094  0.8870
  767SOL     OW 2299   1.039   1.154   2.545  0.4828 -0.6838  0.2437
  767SOL    HW1 2300   0.991   1.227   2.599 -1.2664  1.0945  1.6245
  767SOL    HW2 2301   1.090   1.103   2.616 -1.2608  0.6397 -1.2427
  768SOL     OW 2302   1.298   2.073   2.852 -0.3559  0.0979 -0.1855
  768SOL    HW1 2303   1.329   2.009   2.920  2.4012  0.8874  1.4445
  768SOL    HW2 2304   1.318   2.170   2.879  1.0059  1.2330 -1.4354
  769SOL     OW 2305   0.444   2.253   0.876 -0.7348 -0.2594  0.3722
  769SOL    HW1 2306   0.424   2.187   0.952 -0.3989  0.7786 -1.0176
  769SOL    HW2 2307   0.388   2.231   0.795  1.7727  1.0910  2.6953
  770SOL     OW 2308   1.452   1.147   2.451 -0.4293  0.1034 -0.3789
  770SOL    HW1 2309   1.444   1.186   2.549 -0.9353  0.5622  1.0013
  770SOL    HW2 2310   1.367   1.172   2.401 -0.9286 -1.5270 -2.1228
  771SOL     OW 2311   0.020   2.818   2.180  0.1655  0.5279 -0.3237
  771SOL    HW1 2312   0.105   2.765   2.154  0.6546 -1.0134  0.8727
  771SOL    HW2 2313   3.047   2.761   2.141 -2.6042 -0.0992  0.3437
  772SOL     OW 2314   2.273   2.654   1.963  0.0086  0.1361 -0.5728
  772SOL    HW1 2315   2.271   2.734   2.022 -1.3700  1.5770  0.1644
  772SOL    HW2 2316   2.355   2.664   1.902 -1.6331  0.4612 -2.6748
  773SOL     OW 2317   0.751   1.986   1.609 -0.5219 -0.9420 -0.0377
  773SOL    HW1 2318   0.823   2.056   1.577  1.0658 -1.1113  0.5194
  773SOL    HW2 2319   0.760   1.977   1.709  2.5405  0.4741 -0.3502
  774SOL     OW 2320   1.050   0.264   1.803  0.2483  0.0158 -0.1063
  774SOL    HW1 2321   1.052   0.285   1.904  2.0048  1.7388 -4.7679
  774SOL    HW2 2322   0.957   0.292   1.766 -0.3073 -0.6116 -0.6321
  775SOL     OW 2323   1.851   3.072   2.932  0.7720  0.3303 -0.2567
  775SOL    HW1 2324   1.845   0.051   2.873 -1.9082 -1.8497 -3.2872
  775SOL    HW2 2325   1.840   2.988   2.874 -0.8783 -1.6624  1.2447
  776SOL     OW 2326   2.881   0.373   2.086  0.0629  0.4711 -0.5168
  776SOL    HW1 2327   2.928   0.451   2.040  0.3042 -2.2303  2.7728
  776SOL    HW2 2328   2.907   0.284   2.034  1.2562 -2.0701 -0.8701
  777SOL     OW 2329   2.417   2.214   2.223  0.0955 -0.0692 -0.1568
  777SOL    HW1 2330   2.421   2.113   2.193 -0.9921 -1.1042 -3.0446
  777SOL    HW2 2331   2.467   2.275   2.158 -1.4346  1.3260 -3.2380
  778SOL     OW 2332   1.672   0.873   2.094  0.0104  0.3976  0.1533
  778SOL    HW1 2333   1.665   0.769   2.102  1.3992  0.5409 -3.5674
  778SOL    HW2 2334   1.619   0.912   2.166  1.0666 -3.0616 -2.5861
  779SOL     OW 2335   2.441   0.541   0.714 -0.0248  0.8110 -0.2867
  779SOL    HW1 2336   2.383   0.472   0.662  1.3772  0.1250 -1.1189
  779SOL    HW2 2337   2.454   0.622   0.654  2.0234 -1.3101  0.7297
  780SOL     OW 2338   2.308   0.225   2.985  0.1029  0.2376  0.2927
  780SOL    HW1 2339   2.208   0.226   3.009 -1.5612  0.5986 -1.3505
  780SOL    HW2 2340   2.325   0.174   2.901  0.6284  2.6750 -0.0499
  781SOL     OW 2341   0.096   2.261   1.402 -0.1570  0.1847 -0.5149
  781SOL    HW1 2342   0.165   2.185   1.405  0.0534 -1.7197  0.4261
  781SOL    HW2 2343   0.028   2.242   1.478 -0.4318 -1.3390  1.6177
  782SOL     OW 2344   2.366   2.486   3.023  0.4176  0.5199  0.0875
  782SOL    HW1 2345   2.424   2.553   2.974  0.8121  0.0374  1.0104
  782SOL    HW2 2346   2.422   2.455   3.104  1.7796 -0.4125 -0.3109
  783SOL     OW 2347   0.478   1.625   1.399  0.2227  0.1396  0.1458
  783SOL    HW1 2348   0.454   1.526   1.414 -0.3447 -0.9757  1.5859
  783SOL    HW2 2349   0.560   1.649   1.458  0.4764 -1.4473 -1.6677
  784SOL     OW 2350   1.481   0.628   2.832 -0.5207  0.0959 -0.4061
  784SOL    HW1 2351   1.576   0.653   2.858  0.5517 -2.3416  0.3491
  784SOL    HW2 2352   1.416   0.658   2.902  1.1361 -1.6278 -0.2960
  785SOL     OW 2353   2.481   0.038   0.891 -0.0049  0.0930  0.2449
  785SOL    HW1 2354   2.448   0.010   0.986  0.6044 -2.0199 -1.0412
  785SOL    HW2 2355   2.491   0.139   0.891  1.2013 -2.4753  1.9552
  786SOL     OW 2356   1.150   2.042   1.827  0.2391  0.3502  0.3300
  786SOL    HW1 2357   1.081   1.968   1.840 -0.0380  0.5393  1.1950
  786SOL    HW2 2358   1.140   2.107   1.906  0.7699 -2.3661 -3.6511
  787SOL     OW 2359   1.381   0.895   1.251  0.7349  0.2162  0.3280
  787SOL    HW1 2360   1.322   0.970   1.290  1.1335  2.0158  3.3103
  787SOL    HW2 2361   1.443   0.934   1.180  1.6358 -0.2274  1.2895
  788SOL     OW 2362   0.125   0.645   0.472  0.1939  0.4932 -0.2832
  788SOL    HW1 2363   0.209   0.662   0.529  1.1781 -1.4710 -1.9260
  788SOL    HW2 2364   0.114   0.549   0.442  0.8145  0.6087  1.1111
  789SOL     OW 2365   0.090   1.912   1.211  0.1558 -0.0752  0.1164
  789SOL    HW1 2366   0.152   1.883   1.136  2.2221  2.0287 -0.0422
  789SOL    HW2 2367   0.148   1.929   1.297  0.3457  0.5833  1.0924
  790SOL     OW 2368   0.867   0.787   2.272  0.1253  0.2972  0.5596
  790SOL    HW1 2369   0.959   0.740   2.255  1.1146 -0.5716 -0.4820
  790SOL    HW2 2370   0.801   0.716   2.309 -1.5809  0.0244  3.4729
  791SOL     OW 2371   1.730   0.658   0.864  0.0702 -0.2286  0.4720
  791SOL    HW1 2372   1.679   0.743   0.832  1.1215  0.0192 -1.9157
  791SOL    HW2 2373   1.738   0.657   0.964  1.4429  1.7287 -1.0013
  792SOL     OW 2374   1.410   2.564   2.183 -0.0649 -0.1511  0.2981
  792SOL    HW1 2375   1.395   2.653   2.131  2.1995  1.4756 -2.6823
  792SOL    HW2 2376   1.329   2.525   2.228  1.3922  0.8170 -2.1740
  793SOL     OW 2377   1.233   0.732   0.444 -0.0204  0.5806  0.2572
  793SOL    HW1 2378   1.247   0.815   0.379  0.3314  1.9332 -1.9257
  793SOL    HW2 2379   1.143   0.738   0.494 -0.4178  2.9153  0.1618
  794SOL     OW 2380   0.565   0.985   2.116  0.2112 -0.1085 -0.7617
  794SOL    HW1 2381   0.465   1.019   2.126 -0.4926  0.6376  1.5759
  794SOL    HW2 2382   0.609   1.042   2.040  3.0283  0.8475  0.5803
  795SOL     OW 2383   0.371   1.952   2.365 -0.0087  0.0129  0.3569
  795SOL    HW1 2384   0.459   1.997   2.353 -1.8636 -2.2990 -0.5029
  795SOL    HW2 2385   0.309   1.993   2.435 -1.8310  0.3966  1.0508
  796SOL     OW 2386   2.496   0.805   2.090  1.0348  0.1434 -0.3689
  796SOL    HW1 2387   2.414   0.821   2.156 -1.9859 -1.4507  0.8110
  796SOL    HW2 2388   2.550   0.891   2.089 -1.6720  2.4023  0.6220
  797SOL     OW 2389   2.855   2.310   2.888  0.1329 -0.0206 -0.3266
  797SOL    HW1 2390   2.788   2.385   2.866  0.5364 -1.7053 -1.3399
  797SOL    HW2 2391   2.891   2.317   2.984  0.9887  1.6446  2.1419
  798SOL     OW 2392   0.321   2.363   2.196  0.2399  0.7550  0.3238
  798SOL    HW1 2393   0.397   2.311   2.153 -1.9744  0.5572  1.9409
  798SOL    HW2 2394   0.243   2.299   2.212  3.9586 -1.7320 -1.2637
  799SOL     OW 2395   0.304   2.279   2.797  0.5230  0.6374 -0.2780
  799SOL    HW1 2396   0.351   2.362   2.829  0.2896  1.0356 -0.3382
  799SOL    HW2 2397   0.277   2.230   2.881  0.1690 -0.7074  0.1777
  800SOL     OW 2398   0.713   2.234   2.975 -0.7161  0.1793  0.2161
  800SOL    HW1 2399   0.665   2.318   3.005 -1.5013  0.3360  0.4362
  800SOL    HW2 2400   0.741   2.168   3.046 -3.6532  0.2566 -0.4221
  801SOL     OW 2401   1.687   1.525   1.148  0.2755  0.3315 -0.6238
  801SOL    HW1 2402   1.729   1.439   1.114  1.0576  0.2318 -0.2758
  801SOL    HW2 2403   1.670   1.524   1.250  2.2367  0.9807 -0.2901
  802SOL     OW 2404   2.901   1.116   0.742  0.5397  0.3949 -0.5534
  802SOL    HW1 2405   2.914   1.160   0.654  0.2734 -1.4277  3.4322
  802SOL    HW2 2406   2.841   1.035   0.740  1.7949  1.1908 -0.5760
  803SOL     OW 2407   1.122   1.848   2.395 -0.9750  0.1654 -0.2088
  803SOL    HW1 2408   1.073   1.929   2.433  0.0281  0.3790 -0.0403
  803SOL    HW2 2409   1.152   1.787   2.466  1.5885  1.0153  1.4744
  804SOL     OW 2410   1.609   1.363   0.204  0.6153  0.0214 -0.6318
  804SOL    HW1 2411   1.524   1.402   0.248 -2.3040  0.3187  1.2657
  804SOL    HW2 2412   1.684   1.358   0.277 -0.1849  2.0010 -0.1415
  805SOL     OW 2413   2.692   1.595   0.060  0.2700 -0.0126 -0.1291
  805SOL    HW1 2414   2.714   1.504   0.107  0.9604 -1.5230  1.2263
  805SOL    HW2 2415   2.639   1.578   3.077  0.5781 -0.5789 -0.8910
  806SOL     OW 2416   0.622   3.087   0.643 -0.4445 -0.2846  0.1013
  806SOL    HW1 2417   0.714   3.069   0.606 -1.3044 -1.6851  0.1752
  806SOL    HW2 2418   0.594   2.998   0.688 -4.0835 -1.7637 -1.6026
  807SOL     OW 2419   2.026   1.735   2.885 -0.3651  0.5227 -0.0470
  807SOL    HW1 2420   1.978   1.766   2.969 -0.5699 -1.1449  0.9099
  807SOL    HW2 2421   2.056   1.638   2.887 -0.9797 -0.1183  0.6326
  808SOL     OW 2422   0.580   1.514   0.972 -0.1354 -0.2661  0.0058
  808SOL    HW1 2423   0.517   1.448   1.027 -1.3161 -2.2895 -0.3797
  808SOL    HW2 2424   0.545   1.506   0.876 -1.5463  0.3514 -2.8501
  809SOL     OW 2425   2.440   0.730   0.523  0.2998 -0.0440 -0.4909
  809SOL    HW1 2426   2.457   0.829   0.506 -1.4737 -1.8386 -1.5400
  809SOL    HW2 2427   2.454   0.678   0.439  0.0712 -0.2583 -0.1476
  810SOL     OW 2428   0.842   0.985   0.421 -0.4841  0.0030 -0.4899
  810SOL    HW1 2429   0.802   1.077   0.434  4.0891 -1.5841 -1.0970
  810SOL    HW2 2430   0.897   0.957   0.503 -1.6822 -2.3035 -0.2147
  811SOL     OW 2431   1.535   2.604   1.294  0.1476 -0.3617  0.1382
  811SOL    HW1 2432   1.641   2.620   1.291  3.1982 -0.2404  0.1211
  811SOL    HW2 2433   1.514   2.526   1.361 -0.3721 -2.5132  0.8894
  812SOL     OW 2434   1.216   2.627   1.645 -0.4159  0.5892 -0.1965
  812SOL    HW1 2435   1.179   2.659   1.737  0.8683  0.1930 -1.3835
  812SOL    HW2 2436   1.144   2.643   1.571 -0.2400  1.0902 -1.4672
  813SOL     OW 2437   0.960   2.894   1.828  0.0412 -0.1143  0.0038
  813SOL    HW1 2438   0.931   2.959   1.898  2.8100 -2.4220  0.7924
  813SOL    HW2 2439   1.043   2.940   1.786 -1.9343  0.1084  3.2055
  814SOL     OW 2440   0.934   2.384   2.430  0.0051  0.5352  0.2307
  814SOL    HW1 2441   0.862   2.442   2.382  1.5178  0.9540 -1.2367
  814SOL    HW2 2442   0.894   2.292   2.446 -1.7523  1.0360 -1.8367
  815SOL     OW 2443   0.614   0.339   2.583 -0.7994 -0.0302  0.1335
  815SOL    HW1 2444   0.634   0.270   2.655  5.1185  0.1609 -2.9976
  815SOL    HW2 2445   0.705   0.367   2.541  0.2493 -1.3404  1.4546
  816SOL     OW 2446   2.193   0.060   2.751  0.0602 -0.3652  0.0414
  816SOL    HW1 2447   2.156   3.089   2.695  0.0309  2.5739  2.3996
  816SOL    HW2 2448   2.141   0.144   2.729 -1.4728 -0.1638 -0.0444
  817SOL     OW 2449   2.150   0.175   2.018  0.4797  0.0400 -0.2023
  817SOL    HW1 2450   2.068   0.205   1.960 -2.2721  0.2778  1.6976
  817SOL    HW2 2451   2.189   0.258   2.065 -2.5740 -0.1260  0.6225
  818SOL     OW 2452   1.514   0.606   0.111 -0.0061  0.1768 -0.7922
  818SOL    HW1 2453   1.447   0.651   0.049  2.2493 -2.1119  1.8897
  818SOL    HW2 2454   1.591   0.564   0.069 -0.8873  2.4272  1.9057
  819SOL     OW 2455   2.229   1.582   2.549  0.5975  0.1523 -0.2635
  819SOL    HW1 2456   2.128   1.550   2.542 -2.9215  1.0832  2.3436
  819SOL    HW2 2457   2.233   1.663   2.610 -0.6164 -3.2973  3.0990
  820SOL     OW 2458   0.152   1.741   0.075 -0.4109  0.3644 -0.7848
  820SOL    HW1 2459   0.099   1.730   3.094  1.4487 -0.2970  0.6868
  820SOL    HW2 2460   0.231   1.679   0.083  0.7989 -1.2208  1.8632
  821SOL     OW 2461   0.230   2.885   1.100  0.0141  0.3358  0.5068
  821SOL    HW1 2462   0.213   2.970   1.052  2.9059 -0.2733 -1.0418
  821SOL    HW2 2463   0.224   2.803   1.036  0.4252 -1.4752 -0.9294
  822SOL     OW 2464   2.692   2.509   2.819 -0.1204  0.2314  0.1138
  822SOL    HW1 2465   2.638   2.551   2.891  1.1300 -0.0949 -3.1018
  822SOL    HW2 2466   2.756   2.579   2.778 -3.4550  0.1769  0.5014
  823SOL     OW 2467   1.223   0.235   2.215  0.2211 -0.7281 -0.2460
  823SOL    HW1 2468   1.226   0.141   2.165  3.2200 -3.9383 -0.9829
  823SOL    HW2 2469   1.312   0.253   2.258 -3.6779 -2.3584 -3.1775
  824SOL     OW 2470   2.787   2.319   2.169  0.3611 -0.0576  0.3613
  824SOL    HW1 2471   2.791   2.303   2.270  1.7905  0.1659  0.9972
  824SOL    HW2 2472   2.760   2.415   2.147  0.2016  2.0126 -0.9739
  825SOL     OW 2473   2.906   2.059   2.498 -0.1930 -0.1120 -0.8669
  825SOL    HW1 2474   2.814   2.004   2.508 -3.2514 -2.1171 -0.2965
  825SOL    HW2 2475   2.966   2.016   2.426 -3.2035 -0.4201  0.7596
  826SOL     OW 2476   2.355   0.981   2.523 -0.2793  0.0071  0.6081
  826SOL    HW1 2477   2.302   0.901   2.486 -0.5976  0.7070 -1.1982
  826SOL    HW2 2478   2.299   1.064   2.501 -3.7360  1.7579  0.0289
  827SOL     OW 2479   2.449   2.195   1.293 -0.2401 -0.4388 -0.1638
  827SOL    HW1 2480   2.417   2.215   1.195 -0.7639 -2.2883 -0.2159
  827SOL    HW2 2481   2.370   2.214   1.360 -0.3717 -1.2370  6.3952
  828SOL     OW 2482   0.128   0.100   1.595  0.0074 -0.5577 -0.1483
  828SOL    HW1 2483   0.198   0.035   1.567 -0.3391  2.4678  0.9009
  828SOL    HW2 2484   0.137   0.136   1.687  1.9928 -0.5964 -1.8931
  829SOL     OW 2485   1.248   2.136   2.297 -0.1113 -0.3566  0.0804
  829SOL    HW1 2486   1.338   2.108   2.333  1.3282 -3.1106  0.4969
  829SOL    HW2 2487   1.187   2.053   2.297 -2.2409  0.8339 -0.0845
  830SOL     OW 2488   1.058   0.514   0.710  0.2773  0.0724  0.6548
  830SOL    HW1 2489   0.998   0.439   0.679  1.9635 -1.3573 -0.2242
  830SOL    HW2 2490   1.050   0.597   0.650 -0.5213  0.3534 -0.6761
  831SOL     OW 2491   2.896   1.489   2.970 -0.3727  0.3706  0.1425
  831SOL    HW1 2492   2.825   1.526   3.034 -2.2981 -1.5117  1.6799
  831SOL    HW2 2493   2.909   1.391   2.994 -1.5588  0.0709  0.3198
  832SOL     OW 2494   1.765   2.274   2.233 -0.1267 -0.2762 -0.0645
  832SOL    HW1 2495   1.696   2.208   2.190  1.6226 -2.6979  0.2199
  832SOL    HW2 2496   1.802   2.329   2.154 -1.6409  0.7343 -1.8714
  833SOL     OW 2497   0.814   0.367   2.196  0.0927 -0.1323  0.1495
  833SOL    HW1 2498   0.881   0.343   2.266 -1.1645 -1.3582  1.7255
  833SOL    HW2 2499   0.749   0.296   2.172 -0.0096 -0.0435  1.7476
  834SOL     OW 2500   0.366   0.592   1.246  0.1474 -0.3243 -0.8055
  834SOL    HW1 2501   0.373   0.596   1.345  1.0029  1.0075 -2.2984
  834SOL    HW2 2502   0.278   0.542   1.224 -0.3137 -2.5503 -0.0717
  835SOL     OW 2503   2.600   0.448   0.134 -0.1052 -0.2983  1.0482
  835SOL    HW1 2504   2.584   0.441   0.030 -0.1779 -3.3936 -3.2061
  835SOL    HW2 2505   2.661   0.374   0.171 -0.6898 -0.0639 -1.4901
  836SOL     OW 2506   1.315   1.818   0.365  0.3891 -0.0596 -0.1906
  836SOL    HW1 2507   1.375   1.901   0.367  0.9259 -0.4454 -0.6296
  836SOL    HW2 2508   1.329   1.762   0.281  0.2021  2.9237  0.5196
  837SOL     OW 2509   1.583   1.803   0.792  0.2910 -0.0649  0.2681
  837SOL    HW1 2510   1.682   1.822   0.766  1.9510 -0.2197 -1.2881
  837SOL    HW2 2511   1.576   1.746   0.871 -1.2706  0.2309 -0.8803
  838SOL     OW 2512   1.264   0.925   2.150  0.0393  0.3934  0.1464
  838SOL    HW1 2513   1.292   0.950   2.057  0.8951 -3.6340  2.9427
  838SOL    HW2 2514   1.177   0.968   2.174  3.3031  0.1941 -1.6514
  839SOL     OW 2515   0.805   1.759   2.622 -0.5080  0.1221  0.5945
  839SOL    HW1 2516   0.727   1.811   2.661  0.2389 -1.5751  0.4656
  839SOL    HW2 2517   0.770   1.658   2.605 -1.4685 -0.8072  0.0925
  840SOL     OW 2518   0.649   2.295   0.437 -0.2885 -0.2329 -0.0047
  840SOL    HW1 2519   0.647   2.360   0.367  1.4465 -0.7665  3.1571
  840SOL    HW2 2520   0.649   2.337   0.529  1.8131  0.1143  0.4915
  841SOL     OW 2521   1.965   2.622   0.069  0.1752  0.1715 -0.1996
  841SOL    HW1 2522   1.929   2.718   0.052 -2.5822  0.8121 -0.2207
  841SOL    HW2 2523   1.896   2.558   0.023 -1.3224  2.2078 -1.7554
  842SOL     OW 2524   0.538   0.603   2.908 -0.4148  0.3650  0.1048
  842SOL    HW1 2525   0.606   0.644   2.843 -1.5169  1.6875 -4.0472
  842SOL    HW2 2526   0.444   0.631   2.889 -1.6488  1.0570 -0.1564
  843SOL     OW 2527   1.244   0.337   0.849  0.1639 -0.3133  0.0465
  843SOL    HW1 2528   1.176   0.401   0.804 -0.1492 -2.2153 -2.5674
  843SOL    HW2 2529   1.236   0.338   0.950 -0.4230 -0.2319  2.2595
  844SOL     OW 2530   2.879   0.029   2.634  0.2271 -0.0863 -0.4136
  844SOL    HW1 2531   2.790   0.027   2.685  0.1622  2.4978  0.7041
  844SOL    HW2 2532   2.877   3.070   2.554 -1.6597 -1.5450 -0.5295
  845SOL     OW 2533   2.658   2.026   1.359 -0.1052  0.1959  0.1131
  845SOL    HW1 2534   2.581   2.085   1.325 -1.1542  1.6303 -1.7759
  845SOL    HW2 2535   2.655   2.020   1.462  0.1344 -0.2934  0.2102
  846SOL     OW 2536   2.606   1.738   2.305  0.4680  0.1305 -0.1186
  846SOL    HW1 2537   2.527   1.684   2.324 -0.8146 -0.9299  3.5449
  846SOL    HW2 2538   2.691   1.679   2.303  2.7212 -2.7193  0.7044
  847SOL     OW 2539   1.204   0.817   1.597  0.7564 -0.0699  0.3964
  847SOL    HW1 2540   1.171   0.863   1.680 -1.1808 -0.6568 -3.8713
  847SOL    HW2 2541   1.163   0.728   1.573  0.1184 -1.1106 -1.2944
  848SOL     OW 2542   2.765   2.847   0.089 -0.2174 -0.1394  0.2119
  848SOL    HW1 2543   2.710   2.765   0.112  1.1947 -0.3491  1.5302
  848SOL    HW2 2544   2.812   2.883   0.174  0.7509  0.5649  0.9732
  849SOL     OW 2545   0.514   3.056   0.079  0.0994  0.6291  0.3570
  849SOL    HW1 2546   0.424   3.053   0.128 -2.9305  0.9377  0.9317
  849SOL    HW2 2547   0.594   3.085   0.138  2.4772 -0.9247  1.7961
  850SOL     OW 2548   1.602   2.941   1.175  0.4034 -0.5383 -0.2020
  850SOL    HW1 2549   1.624   3.036   1.151 -1.5111 -1.0394 -2.4623
  850SOL    HW2 2550   1.666   2.866   1.141 -0.9917 -1.2353 -0.1766
  851SOL     OW 2551   2.593   0.341   2.106  0.2094 -0.3967 -0.4619
  851SOL    HW1 2552   2.686   0.337   2.060  0.0357 -0.6768 -1.6881
  851SOL    HW2 2553   2.563   0.432   2.133  0.4331 -1.6323 -0.2159
  852SOL     OW 2554   1.852   0.643   2.435 -0.5934 -0.1003 -0.4250
  852SOL    HW1 2555   1.901   0.584   2.363  0.6418 -1.1208 -0.3341
  852SOL    HW2 2556   1.821   0.580   2.508  1.2326 -0.8187 -1.0733
  853SOL     OW 2557   2.937   2.994   0.264  0.1273 -0.1672 -0.4098
  853SOL    HW1 2558   2.845   3.038   0.290 -1.4006  1.1194  1.3866
  853SOL    HW2 2559   2.977   3.036   0.179 -1.0965  0.2066 -0.8348
  854SOL     OW 2560   2.384   1.138   2.261  0.0487 -0.6546 -0.5033
  854SOL    HW1 2561   2.476   1.151   2.300  0.3612  1.2607  0.1087
  854SOL    HW2 2562   2.395   1.171   2.164  3.6324  0.8515  2.5436
  855SOL     OW 2563   0.824   2.825   0.351  0.1555 -0.4175  0.0873
  855SOL    HW1 2564   0.739   2.773   0.353 -1.1804 -1.6328  2.0700
  855SOL    HW2 2565   0.904   2.781   0.306  1.1906 -1.2061 -3.0865
  856SOL     OW 2566   3.003   3.095   2.885  0.5548 -0.1935  0.0120
  856SOL    HW1 2567   2.962   0.018   2.795  1.3202  3.1436 -1.9167
  856SOL    HW2 2568   2.981   2.999   2.905  1.0514  0.3772  0.4869
  857SOL     OW 2569   1.415   2.773   1.516  0.0756  0.1345  0.2115
  857SOL    HW1 2570   1.442   2.687   1.467 -0.0056  0.6631 -0.0007
  857SOL    HW2 2571   1.319   2.769   1.550 -2.4663  0.1958  1.7015
  858SOL     OW 2572   2.647   2.337   1.787 -0.5988 -0.2561 -0.1118
  858SOL    HW1 2573   2.725   2.388   1.751  0.1281 -1.8390 -0.8236
  858SOL    HW2 2574   2.648   2.240   1.748  0.1034  1.0936 -1.6307
  859SOL     OW 2575   1.580   2.215   1.762 -0.0161  0.2895  0.1126
  859SOL    HW1 2576   1.492   2.211   1.712 -0.1479  1.1898  0.4225
  859SOL    HW2 2577   1.564   2.269   1.847 -1.1847  0.0879  0.5863
  860SOL     OW 2578   2.302   3.002   3.080  0.0088 -0.0673 -0.5771
  860SOL    HW1 2579   2.239   2.931   0.011 -1.0424 -1.7443  0.3175
  860SOL    HW2 2580   2.288   3.093   0.018  2.7911 -2.1772 -0.7730
  861SOL     OW 2581   2.424   2.772   0.805 -0.1452  0.1518 -0.3300
  861SOL    HW1 2582   2.418   2.702   0.734 -0.3090  1.9968  0.5727
  861SOL    HW2 2583   2.512   2.821   0.790 -0.6738 -0.4156  1.8895
  862SOL     OW 2584   1.797   0.052   2.544  0.1807 -0.3225 -0.4982
  862SOL    HW1 2585   1.707   0.002   2.536  1.0440  1.9503 -2.7963
  862SOL    HW2 2586   1.827   0.099   2.458  2.5553  0.8862  0.4927
  863SOL     OW 2587   0.138   0.637   0.818 -0.5735 -0.1786  0.3857
  863SOL    HW1 2588   0.185   0.661   0.903  0.8525 -0.8783  1.8487
  863SOL    HW2 2589   0.066   0.707   0.799 -0.8489 -1.3728 -0.2827
  864SOL     OW 2590   0.274   2.636   2.152  0.5201  0.1971  0.1496
  864SOL    HW1 2591   0.324   2.700   2.221  0.3612 -1.2934 -0.6929
  864SOL    HW2 2592   0.268   2.543   2.191  1.5083 -1.5549 -1.6649
  865SOL     OW 2593   0.592   1.104   3.017 -0.7018  0.1358 -0.2857
  865SOL    HW1 2594   0.647   1.134   3.097  0.8822  0.9369  0.2039
  865SOL    HW2 2595   0.556   1.008   3.035 -0.4411 -1.5417  0.9318
  866SOL     OW 2596   3.064   0.620   0.064  0.0126  0.0210 -0.1014
  866SOL    HW1 2597   0.059   0.606   0.077  2.7206 -0.0151 -0.6582
  866SOL    HW2 2598   3.021   0.689   0.126 -0.6998  0.5486 -0.6104
  867SOL     OW 2599   3.085   2.712   2.858 -0.1329  0.0827 -0.3891
  867SOL    HW1 2600   0.007   2.700   2.951  1.9543 -0.3632 -1.5349
  867SOL    HW2 2601   2.990   2.749   2.857  1.4336 -3.9553  1.8501
  868SOL     OW 2602   1.606   0.184   0.362 -0.1199  0.3863 -0.0650
  868SOL    HW1 2603   1.551   0.258   0.406  2.3481  1.3809  2.4797
  868SOL    HW2 2604   1.568   0.088   0.373 -1.2933  0.1080 -1.8282
  869SOL     OW 2605   1.863   1.573   0.571  0.4996  0.2044 -0.0549
  869SOL    HW1 2606   1.844   1.535   0.669  1.0001  2.7871 -0.6679
  869SOL    HW2 2607   1.841   1.675   0.564  1.0326  1.7226  1.4011
  870SOL     OW 2608   1.835   1.865   0.746 -0.3405 -0.0856  0.1359
  870SOL    HW1 2609   1.899   1.818   0.810  1.3882 -1.2452  1.5645
  870SOL    HW2 2610   1.892   1.929   0.690  1.2070  0.8193 -1.3461
  871SOL     OW 2611   1.076   1.621   1.167  0.2841  0.4143  0.0805
  871SOL    HW1 2612   1.007   1.632   1.239  0.9586 -4.6483  1.2601
  871SOL    HW2 2613   1.167   1.650   1.194 -1.0739  0.3477 -3.0641
  872SOL     OW 2614   1.272   1.577   1.655  0.1131  0.4874  0.5434
  872SOL    HW1 2615   1.220   1.498   1.694  2.7463  2.1259  1.1374
  872SOL    HW2 2616   1.212   1.658   1.657  0.6819 -1.7865  0.4154
  873SOL     OW 2617   0.532   1.440   2.407 -0.1898 -0.0118  0.2346
  873SOL    HW1 2618   0.582   1.441   2.495  0.6058  1.0939 -0.7571
  873SOL    HW2 2619   0.498   1.531   2.380 -1.4549  0.8594  3.4370
  874SOL     OW 2620   0.731   1.505   1.298 -0.5724 -0.1883 -0.7800
  874SOL    HW1 2621   0.643   1.547   1.283  0.4309  1.2193 -0.1783
  874SOL    HW2 2622   0.729   1.406   1.267  0.2856  1.3705  0.5190
  875SOL     OW 2623   2.509   0.045   1.214 -0.0853 -0.5122  0.3578
  875SOL    HW1 2624   2.472   0.141   1.227 -1.7843 -2.0697  1.4897
  875SOL    HW2 2625   2.491   3.083   1.289  0.6519 -1.9733  0.5855
  876SOL     OW 2626   0.841   0.710   3.092 -0.2822  0.0613 -0.5232
  876SOL    HW1 2627   0.851   0.615   0.023 -1.1158 -0.5492  0.7926
  876SOL    HW2 2628   0.837   0.776   0.068 -1.2628  1.3976  0.7835
  877SOL     OW 2629   2.846   0.299   1.349  0.3871 -0.0336 -0.7347
  877SOL    HW1 2630   2.838   0.331   1.252  0.7252 -1.6460  1.1178
  877SOL    HW2 2631   2.765   0.324   1.398  0.6387  2.0354 -0.9931
  878SOL     OW 2632   1.683   2.198   0.081  0.2960 -0.1964 -0.1633
  878SOL    HW1 2633   1.769   2.242   0.066  0.1499 -0.2608  0.3973
  878SOL    HW2 2634   1.657   2.140   3.104  0.8605  2.7196 -0.8731
  879SOL     OW 2635   2.302   2.026   1.614 -0.1908 -0.1070  0.2870
  879SOL    HW1 2636   2.269   2.106   1.552 -1.1687  5.4070  0.4753
  879SOL    HW2 2637   2.361   2.063   1.689  1.6597 -1.3870  1.9398
  880SOL     OW 2638   0.982   3.006   1.496  0.6285 -0.0603 -0.3143
  880SOL    HW1 2639   1.010   3.072   1.568  2.0105  3.8209  1.8061
  880SOL    HW2 2640   1.028   2.919   1.509  1.2583  0.9381 -0.7499
  881SOL     OW 2641   1.019   2.020   2.793  0.2915 -0.0531 -0.1999
  881SOL    HW1 2642   0.975   1.953   2.855  1.6326  0.2888 -1.2084
  881SOL    HW2 2643   1.119   2.027   2.808  1.0678 -0.6465  0.0725
  882SOL     OW 2644   2.140   0.960   2.007  0.4805 -0.2660 -0.0744
  882SOL    HW1 2645   2.201   0.900   2.064 -2.8363 -1.2409 -1.5187
  882SOL    HW2 2646   2.198   1.011   1.948  0.4559 -0.3893  0.6935
  883SOL     OW 2647   1.112   0.587   1.882  0.8317  0.6228  0.1391
  883SOL    HW1 2648   1.064   0.664   1.927  0.0479  1.9677 -1.9947
  883SOL    HW2 2649   1.106   0.503   1.934  1.0490  1.2509 -2.3082
  884SOL     OW 2650   2.872   0.394   3.101 -0.1434  0.1359 -0.5761
  884SOL    HW1 2651   2.840   0.337   0.073 -1.1335 -0.0486  1.4422
  884SOL    HW2 2652   2.935   0.468   0.026 -0.2678  1.0225 -0.5038
  885SOL     OW 2653   0.624   2.060   0.324 -0.6337 -0.5702 -0.1201
  885SOL    HW1 2654   0.621   2.151   0.368  1.1930 -1.6857 -0.5981
  885SOL    HW2 2655   0.664   2.067   0.232  0.5446  2.4462 -0.3772
  886SOL     OW 2656   2.067   1.430   2.851 -0.3638 -0.2749  0.3673
  886SOL    HW1 2657   2.062   1.354   2.780 -0.5317 -2.6286 -1.9137
  886SOL    HW2 2658   1.988   1.419   2.910 -0.7007 -1.4217  0.8689
  887SOL     OW 2659   1.761   0.566   1.403  0.2565  0.0509  0.1882
  887SOL    HW1 2660   1.712   0.606   1.486 -0.3246 -0.6441 -0.7259
  887SOL    HW2 2661   1.722   0.603   1.319 -0.3142  0.2561  2.8779
  888SOL     OW 2662   2.751   1.143   1.565 -0.1982 -0.4165  0.0433
  888SOL    HW1 2663   2.675   1.212   1.557 -0.4701  3.3314  3.0415
  888SOL    HW2 2664   2.709   1.066   1.622 -2.5652  0.2644  1.3371
  889SOL     OW 2665   2.762   2.847   1.096  0.4251  0.1947 -0.5135
  889SOL    HW1 2666   2.805   2.867   1.005  0.3479  3.3916 -2.3390
  889SOL    HW2 2667   2.802   2.760   1.136 -0.8811 -3.0005  0.4746
  890SOL     OW 2668   0.045   2.623   2.611  0.5310 -0.4812 -0.1383
  890SOL    HW1 2669   0.143   2.601   2.604 -0.9969  1.4176  0.2411
  890SOL    HW2 2670   0.002   2.634   2.701  0.0682  0.0017 -2.8662
  891SOL     OW 2671   0.727   1.877   2.986 -0.0566  0.1078 -0.4309
  891SOL    HW1 2672   0.685   1.883   2.890 -0.4910 -0.6190  0.1824
  891SOL    HW2 2673   0.759   1.783   2.991 -1.5755  1.4430 -2.1947
  892SOL     OW 2674   0.258   2.330   1.158 -0.5204  0.2430 -0.2572
  892SOL    HW1 2675   0.301   2.242   1.136  1.0676  0.8384  1.9861
  892SOL    HW2 2676   0.302   2.406   1.111  0.1831 -0.3869 -2.9203
  893SOL     OW 2677   0.578   0.021   1.310  0.5561 -0.1915 -0.4158
  893SOL    HW1 2678   0.667   0.041   1.352 -0.1182 -0.0254 -0.1583
  893SOL    HW2 2679   0.584   3.102   1.213 -2.1192  0.9706  0.4718
  894SOL     OW 2680   2.860   1.190   1.047 -0.2788  0.0524 -0.2997
  894SOL    HW1 2681   2.825   1.175   0.955 -0.6262  2.1993 -0.7910
  894SOL    HW2 2682   2.799   1.251   1.103 -1.3476 -1.1125  2.1376
  895SOL     OW 2683   2.652   2.650   1.592  0.3287 -0.0596  0.0386
  895SOL    HW1 2684   2.731   2.590   1.620  0.4382 -0.1374 -0.6030
  895SOL    HW2 2685   2.604   2.612   1.512  2.6997 -0.1794  1.4231
  896SOL     OW 2686   1.039   0.572   1.584  0.0592  0.0720 -0.2548
  896SOL    HW1 2687   1.084   0.574   1.675 -1.2906 -0.0655  0.0434
  896SOL    HW2 2688   0.939   0.570   1.596 -2.1510 -1.4013 -0.7428
  897SOL     OW 2689   0.655   1.746   1.570 -0.0869 -0.2105  0.0828
  897SOL    HW1 2690   0.744   1.696   1.563  0.1851  2.6002  1.4644
  897SOL    HW2 2691   0.668   1.845   1.545 -0.2241 -1.5805  1.0962
  898SOL     OW 2692   1.595   2.650   1.824 -0.4167 -0.7682 -0.1843
  898SOL    HW1 2693   1.565   2.558   1.795  0.6891  3.3218 -1.1020
  898SOL    HW2 2694   1.527   2.688   1.889  1.3877  0.6233  1.2721
  899SOL     OW 2695   0.890   0.483   0.173  0.3133  0.7419  0.1699
  899SOL    HW1 2696   0.876   0.518   0.264 -0.0965  2.1587 -0.5183
  899SOL    HW2 2697   0.822   0.412   0.144  1.3324  0.7105 -0.2399
  900SOL     OW 2698   1.502   2.360   2.006 -0.5434  0.0611  0.3172
  900SOL    HW1 2699   1.479   2.419   2.082  2.1459 -0.7401 -2.3087
  900SOL    HW2 2700   1.435   2.377   1.930 -1.2512 -3.6643  2.5014
  901SOL     OW 2701   0.886   2.396   0.140  0.2654  0.3700  0.6016
  901SOL    HW1 2702   0.792   2.411   0.181 -2.5170 -0.9133 -0.9261
  901SOL    HW2 2703   0.889   2.295   0.121  1.2677 -3.8509 -0.2207
  902SOL     OW 2704   1.764   1.367   0.431  0.2483 -0.4141  0.0632
  902SOL    HW1 2705   1.696   1.310   0.484 -3.5546  0.3677 -2.1307
  902SOL    HW2 2706   1.793   1.445   0.487 -0.5499 -1.0135 -0.1092
  903SOL     OW 2707   2.254   0.994   0.319  0.2389 -0.2157  0.6461
  903SOL    HW1 2708   2.265   1.096   0.326 -1.1661 -1.0301  0.0249
  903SOL    HW2 2709   2.276   0.965   0.225 -0.2935  0.0419 -0.3279
  904SOL     OW 2710   0.795   1.179   0.061  0.2499 -0.0272 -0.5757
  904SOL    HW1 2711   0.869   1.242   0.020 -0.0847  1.4849 -0.0913
  904SOL    HW2 2712   0.780   1.215   0.159  0.6327 -2.9685 -1.0228
  905SOL     OW 2713   2.098   0.024   1.302 -0.4811  0.8069 -1.0660
  905SOL    HW1 2714   2.158   0.079   1.365 -0.2008 -0.2919  0.2145
  905SOL    HW2 2715   2.089   3.031   1.337 -2.6738  0.6415 -0.0740
  906SOL     OW 2716   2.667   2.338   1.257  0.3415 -0.8047 -0.5286
  906SOL    HW1 2717   2.688   2.352   1.159  2.4078  1.7908  0.4972
  906SOL    HW2 2718   2.581   2.282   1.267  0.5855  1.6521  0.8462
  907SOL     OW 2719   1.330   0.938   0.290  0.0702 -0.3088 -0.0965
  907SOL    HW1 2720   1.262   0.897   0.222 -2.2842 -0.3264  1.4661
  907SOL    HW2 2721   1.415   0.963   0.242 -1.7378  1.3289  1.3400
  908SOL     OW 2722   1.822   3.010   0.681  0.3111  0.0950 -0.2955
  908SOL    HW1 2723   1.824   2.973   0.779  2.3472  0.7104  0.0581
  908SOL    HW2 2724   1.790   0.003   0.673 -1.8026  3.1841 -0.9390
  909SOL     OW 2725   2.078   1.293   1.716  0.0130  0.2804 -0.1024
  909SOL    HW1 2726   2.052   1.296   1.816 -2.8654 -0.6733  0.2082
  909SOL    HW2 2727   2.176   1.330   1.701 -0.9233  1.6909  0.4871
  910SOL     OW 2728   1.627   0.302   2.067 -0.1474  0.2427  0.3219
  910SOL    HW1 2729   1.553   0.277   2.130 -0.2799 -1.1680 -0.3732
  910SOL    HW2 2730   1.671   0.222   2.021  1.3410 -1.9845  1.3517
  911SOL     OW 2731   2.489   0.645   2.842  0.0675 -0.0565  0.5333
  911SOL    HW1 2732   2.571   0.636   2.781 -0.8563 -2.5882  0.5356
  911SOL    HW2 2733   2.484   0.560   2.897 -0.4834 -0.1012 -1.9972
  912SOL     OW 2734   2.974   1.192   1.718  0.6674  0.3486 -0.1603
  912SOL    HW1 2735   3.064   1.191   1.672  0.3026 -1.2814 -1.8033
  912SOL    HW2 2736   2.897   1.203   1.652  1.5881 -0.1563 -1.1571
  913SOL     OW 2737   2.855   2.403   1.472  0.4408 -1.0710 -0.4592
  913SOL    HW1 2738   2.912   2.333   1.522 -2.0644 -2.6425  2.9477
  913SOL    HW2 2739   2.792   2.359   1.404 -0.5990  0.8119 -1.6225
  914SOL     OW 2740   1.680   1.166   1.726 -0.3533  0.3509 -0.3403
  914SOL    HW1 2741   1.721   1.076   1.702 -0.4608  0.7008  0.7805
  914SOL    HW2 2742   1.728   1.245   1.678  1.3068  1.1147 -0.4510
  915SOL     OW 2743   2.129   0.776   1.234  0.1874 -0.1376 -0.2831
  915SOL    HW1 2744   2.196   0.749   1.307 -0.4231  0.9310 -1.8948
  915SOL    HW2 2745   2.151   0.728   1.148  1.0502 -0.8397  0.1544
  916SOL     OW 2746   2.335   2.212   1.057  0.0668 -0.4593  0.3419
  916SOL    HW1 2747   2.281   2.289   1.097 -0.3502  0.1363  0.4032
  916SOL    HW2 2748   2.369   2.245   0.960 -2.5914  0.1203 -2.9705
  917SOL     OW 2749   1.860   1.996   2.669  0.2621 -0.1877 -0.1837
  917SOL    HW1 2750   1.873   2.076   2.735 -0.0224 -2.2559  4.1299
  917SOL    HW2 2751   1.805   1.926   2.717  0.7379  1.2315  1.2684
  918SOL     OW 2752   1.866   2.668   2.224 -0.3021  0.2427 -0.3199
  918SOL    HW1 2753   1.936   2.742   2.227  0.1059 -4.9695  0.4640
  918SOL    HW2 2754   1.897   2.590   2.281 -3.6007 -0.5315 -0.7150
  919SOL     OW 2755   1.215   2.811   1.202 -0.7279 -0.3501 -0.5477
  919SOL    HW1 2756   1.263   2.897   1.187 -1.6214 -0.6345  3.0341
  919SOL    HW2 2757   1.275   2.732   1.186 -0.6332  3.3859 -0.7276
  920SOL     OW 2758   0.050   0.175   2.350  0.6037 -0.1365 -0.5159
  920SOL    HW1 2759   0.087   0.082   2.364 -0.0444 -0.1184  0.3211
  920SOL    HW2 2760   3.081   0.193   2.421  0.3928  2.7196  0.6647
  921SOL     OW 2761   2.962   0.885   1.739 -0.3048 -0.0337  0.2100
  921SOL    HW1 2762   2.959   0.985   1.721 -0.4697  0.6609 -2.9885
  921SOL    HW2 2763   3.054   0.846   1.734  0.0750  3.9457 -0.5313
  922SOL     OW 2764   2.147   2.034   0.335 -0.4513  0.0122  0.0314
  922SOL    HW1 2765   2.149   2.107   0.261  0.4763 -0.0069 -2.2415
  922SOL    HW2 2766   2.128   1.944   0.297 -1.2208  2.2613 -1.4282
  923SOL     OW 2767   0.631   1.759   0.354  0.4515  0.1623 -0.0186
  923SOL    HW1 2768   0.657   1.680   0.291  1.4204 -1.5209  1.4672
  923SOL    HW2 2769   0.594   1.840   0.308  0.6665 -1.5564 -1.1980
  924SOL     OW 2770   1.137   0.573   0.044  0.0191  0.6981  0.1913
  924SOL    HW1 2771   1.060   0.545   0.114 -2.5912 -2.3574  1.0328
  924SOL    HW2 2772   1.118   0.518   3.061 -0.7077 -0.1176  1.8544
  925SOL     OW 2773   2.670   0.569   0.840 -0.0992 -0.4092  0.2084
  925SOL    HW1 2774   2.716   0.637   0.783 -2.6830 -1.0128  0.6432
  925SOL    HW2 2775   2.578   0.546   0.799 -0.4628 -1.0849  1.3387
  926SOL     OW 2776   0.528   0.312   1.328  0.0459 -0.4991  0.3082
  926SOL    HW1 2777   0.449   0.318   1.264  2.4940  0.2812 -0.2489
  926SOL    HW2 2778   0.531   0.232   1.388 -1.9266  0.5268  2.9090
  927SOL     OW 2779   0.100   1.562   2.365 -0.2893 -0.8126  0.3087
  927SOL    HW1 2780   0.027   1.589   2.436 -1.2143  1.7321  1.4214
  927SOL    HW2 2781   0.069   1.482   2.316 -0.1569  1.0249  1.1243
  928SOL     OW 2782   2.979   0.256   2.537 -1.0111 -0.3209  0.0711
  928SOL    HW1 2783   2.934   0.171   2.569  2.8620  1.1906 -1.0817
  928SOL    HW2 2784   2.971   0.334   2.604  0.6513  1.0224 -2.1035
  929SOL     OW 2785   2.766   0.045   1.123 -0.3829 -0.0311  0.4365
  929SOL    HW1 2786   2.776   3.049   1.139  1.8365  1.8238  2.4894
  929SOL    HW2 2787   2.668   0.069   1.144 -0.9572  3.1341 -0.4055
  930SOL     OW 2788   1.804   0.921   1.656  0.4128 -0.0708 -0.3148
  930SOL    HW1 2789   1.724   0.866   1.619 -0.6633  0.0486 -1.9186
  930SOL    HW2 2790   1.829   0.887   1.749  0.1770 -0.0854 -0.9642
  931SOL     OW 2791   2.295   1.071   0.033  0.0677  0.2295  0.3320
  931SOL    HW1 2792   2.359   1.150   0.021 -0.0778  1.8274 -0.5552
  931SOL    HW2 2793   2.209   1.081   3.086  3.0624 -2.0909  0.9520
  932SOL     OW 2794   2.157   1.221   0.541 -0.0797 -0.5879 -0.1715
  932SOL    HW1 2795   2.120   1.278   0.618 -0.4000  1.6844 -1.0098
  932SOL    HW2 2796   2.081   1.165   0.506  3.0509 -0.1266 -2.3093
  933SOL     OW 2797   2.258   1.561   0.835  0.4313  0.0124  0.7839
  933SOL    HW1 2798   2.278   1.573   0.738 -0.2979 -0.9600 -0.6113
  933SOL    HW2 2799   2.240   1.650   0.877  0.0571 -0.4688  0.1197
  934SOL     OW 2800   2.173   0.798   2.471  0.3520  0.3526 -0.0558
  934SOL    HW1 2801   2.229   0.717   2.495 -0.3106  0.3447 -0.6328
  934SOL    HW2 2802   2.083   0.793   2.519  0.8693  0.6506  1.4845
  935SOL     OW 2803   0.181   0.976   0.617  0.0429  0.0609  0.2313
  935SOL    HW1 2804   0.151   1.069   0.592  1.2765  1.8367 -1.3844
  935SOL    HW2 2805   0.116   0.929   0.681 -0.4555 -2.5025 -0.0271
  936SOL     OW 2806   0.396   0.133   0.729  0.1734 -0.0138  0.7366
  936SOL    HW1 2807   0.477   0.073   0.707  0.9378 -2.1421 -1.5832
  936SOL    HW2 2808   0.416   0.199   0.805  0.6239  1.3857 -0.3707
  937SOL     OW 2809   0.053   3.062   2.017  0.0336 -0.0705  0.0312
  937SOL    HW1 2810   0.012   3.005   2.090 -1.7546 -0.5676 -2.2152
  937SOL    HW2 2811   0.096   3.005   1.946  0.1779 -1.2155  0.1998
  938SOL     OW 2812   0.134   2.462   0.055 -0.0821  0.2076 -0.2280
  938SOL    HW1 2813   0.132   2.434   0.152 -0.2122  0.1305  0.6342
  938SOL    HW2 2814   0.116   2.560   0.044  3.0541 -1.5149  1.1541
  939SOL     OW 2815   0.801   1.935   0.782 -0.3202  0.4616  0.3102
  939SOL    HW1 2816   0.808   2.029   0.817 -2.0054 -1.8044  0.7600
  939SOL    HW2 2817   0.779   1.866   0.858 -0.6304 -0.2771  1.0482
  940SOL     OW 2818   0.007   0.480   2.927 -0.1588 -0.1694 -0.0336
  940SOL    HW1 2819   3.072   0.527   3.013 -1.6632  2.1768  2.1474
  940SOL    HW2 2820   0.043   0.389   2.942 -1.9149 -0.6952 -1.6879
  941SOL     OW 2821   1.785   0.496   2.674  0.4483 -0.1521  0.0393
  941SOL    HW1 2822   1.790   0.569   2.745 -0.7663 -3.7997  0.0691
  941SOL    HW2 2823   1.793   0.401   2.711 -0.4386  0.6980  1.9785
  942SOL     OW 2824   1.221   0.450   1.090  0.2259  0.5548  0.0048
  942SOL    HW1 2825   1.284   0.400   1.159 -0.7145  0.1733  0.3739
  942SOL    HW2 2826   1.132   0.487   1.135 -0.1183 -1.3950 -0.0577
  943SOL     OW 2827   1.047   0.876   1.809 -0.5769 -0.3479  0.2445
  943SOL    HW1 2828   0.984   0.822   1.868 -0.5257  1.0916  0.9303
  943SOL    HW2 2829   1.009   0.902   1.721 -0.2010 -2.9849  0.5384
  944SOL     OW 2830   1.993   1.088   1.528  0.3004  0.5749 -0.7220
  944SOL    HW1 2831   1.905   1.051   1.559 -0.5237 -0.7828  1.4771
  944SOL    HW2 2832   2.014   1.172   1.579  1.1533  0.8491 -6.2152
  945SOL     OW 2833   2.677   3.093   0.299 -0.3879 -0.4343  0.0594
  945SOL    HW1 2834   2.704   0.038   0.388 -1.1533  0.7599  0.8275
  945SOL    HW2 2835   2.589   3.051   0.310  1.4515 -1.6385  2.4830
  946SOL     OW 2836   2.935   0.587   1.887  0.1144  0.0905 -0.3796
  946SOL    HW1 2837   2.844   0.604   1.938  0.2200  0.1354  0.1753
  946SOL    HW2 2838   2.978   0.677   1.873  0.9728  1.8064  0.0971
  947SOL     OW 2839   1.186   2.908   0.314  0.2025 -0.4717 -0.0429
  947SOL    HW1 2840   1.245   2.907   0.230  3.8327  0.1115  0.1831
  947SOL    HW2 2841   1.097   2.864   0.290  0.2719 -1.1349  0.7819
  948SOL     OW 2842   2.300   1.930   1.300 -0.0950 -0.0953 -0.1977
  948SOL    HW1 2843   2.328   1.992   1.376 -2.3918  1.9773 -0.7003
  948SOL    HW2 2844   2.339   1.835   1.305  0.8456 -3.6697  1.1905
  949SOL     OW 2845   0.315   1.303   0.069 -0.4355 -0.2655  0.7794
  949SOL    HW1 2846   0.211   1.312   0.072  1.8653  0.2967  0.0216
  949SOL    HW2 2847   0.343   1.258   3.089  0.3484  3.6834  1.9667
  950SOL     OW 2848   0.468   2.543   0.898  0.0148  0.0654 -0.1311
  950SOL    HW1 2849   0.375   2.584   0.921  1.2631  0.0940 -1.8614
  950SOL    HW2 2850   0.461   2.443   0.876 -1.6132 -2.6063  0.0421
  951SOL     OW 2851   0.624   1.117   2.550 -0.6056  0.4563 -0.0479
  951SOL    HW1 2852   0.679   1.119   2.637  0.4035 -0.1593  1.2120
  951SOL    HW2 2853   0.669   1.072   2.469  0.5164 -2.0215  0.3221
  952SOL     OW 2854   0.352   0.979   0.823 -0.0525  0.2591  0.2740
  952SOL    HW1 2855   0.442   0.980   0.789 -2.9089  0.6618  2.6106
  952SOL    HW2 2856   0.290   0.970   0.741 -1.7296 -0.1995 -0.3591
  953SOL     OW 2857   2.707   3.001   2.275  0.0356 -0.5738  0.0565
  953SOL    HW1 2858   2.647   3.084   2.275  2.3008  2.0676  0.2847
  953SOL    HW2 2859   2.781   3.010   2.347 -0.5698  0.8837  0.2288
  954SOL     OW 2860   1.332   1.126   0.491  0.2617  0.5712 -0.1426
  954SOL    HW1 2861   1.359   1.041   0.440 -1.5160 -0.2145 -1.2060
  954SOL    HW2 2862   1.416   1.173   0.526  0.2456 -0.8241 -0.9037
  955SOL     OW 2863   0.802   2.055   0.072 -0.5532 -0.4348  0.1060
  955SOL    HW1 2864   0.901   2.052   0.090  2.9318  1.0877  0.8939
  955SOL    HW2 2865   0.767   1.987   0.002  1.7497 -0.9608  1.3159
  956SOL     OW 2866   2.258   0.412   2.105  0.4082  0.2411  0.6503
  956SOL    HW1 2867   2.302   0.449   2.191  1.4909 -0.4627  5.9871
  956SOL    HW2 2868   2.299   0.461   2.023  0.9994  0.2068  1.0732
  957SOL     OW 2869   2.202   2.351   2.342  0.0153 -0.0515 -0.1871
  957SOL    HW1 2870   2.274   2.285   2.322 -2.1713  1.3547  1.1005
  957SOL    HW2 2871   2.234   2.425   2.406 -0.9246  0.6946 -1.6256
  958SOL     OW 2872   1.762   1.238   1.075 -0.2194 -0.1125 -0.5544
  958SOL    HW1 2873   1.851   1.275   1.112 -0.2356 -0.4462 -0.5512
  958SOL    HW2 2874   1.721   1.164   1.140  0.7451 -0.4534  2.4226
  959SOL     OW 2875   1.991   2.115   2.301  0.5665 -0.2660 -0.0596
  959SOL    HW1 2876   2.053   2.104   2.221  0.0126  1.2146 -0.2370
  959SOL    HW2 2877   1.928   2.198   2.285 -3.7320 -0.1014 -0.7828
  960SOL     OW 2878   0.394   0.933   2.825 -0.0396  0.6247  0.1003
  960SOL    HW1 2879   0.440   0.913   2.740 -0.5012 -1.5106  2.6821
  960SOL    HW2 2880   0.451   0.903   2.900 -2.1931 -3.1758 -2.2605
  961SOL     OW 2881   0.208   1.070   2.963 -0.5213  0.4248  0.1457
  961SOL    HW1 2882   0.275   1.024   2.900  1.6028 -2.6679 -3.0234
  961SOL    HW2 2883   0.124   1.104   2.911 -0.9246 -0.5559  0.3901
  962SOL     OW 2884   0.401   1.240   2.641 -0.4722 -0.5131  0.6787
  962SOL    HW1 2885   0.317   1.201   2.591 -2.9050 -0.0243 -0.4701
  962SOL    HW2 2886   0.483   1.188   2.601  0.6374 -0.1842 -0.7587
  963SOL     OW 2887   2.933   2.046   0.216  0.2563 -0.4445  0.4085
  963SOL    HW1 2888   2.913   2.118   0.141 -2.0275  0.7454 -1.7085
  963SOL    HW2 2889   2.903   1.958   0.174 -0.5641 -0.4973 -3.1739
  964SOL     OW 2890   1.015   2.351   1.714  0.0770 -0.0142  0.1292
  964SOL    HW1 2891   1.025   2.310   1.808 -0.0894 -0.9509 -0.4960
  964SOL    HW2 2892   0.970   2.442   1.713 -1.3320  2.2212  0.1211
  965SOL     OW 2893   1.979   2.075   0.610 -0.1213  0.5779  0.4362
  965SOL    HW1 2894   1.958   2.132   0.531  0.5724  0.6335  1.6637
  965SOL    HW2 2895   2.060   2.015   0.588 -1.5374 -1.9630 -1.0418
  966SOL     OW 2896   2.844   1.521   0.322  0.1114  0.2464 -0.4580
  966SOL    HW1 2897   2.932   1.554   0.284 -0.5548 -1.2169 -2.0032
  966SOL    HW2 2898   2.821   1.429   0.285  1.0698 -0.1015  0.4440
  967SOL     OW 2899   1.797   2.954   1.923  0.2676  0.0937  0.1602
  967SOL    HW1 2900   1.838   2.930   1.832  0.0534 -0.5132  0.3625
  967SOL    HW2 2901   1.780   2.863   1.972 -1.1673 -1.9780 -1.9702
  968SOL     OW 2902   1.316   0.308   0.078  0.0082  0.3173 -0.0800
  968SOL    HW1 2903   1.317   0.365   0.161  1.7998  2.9726 -1.7981
  968SOL    HW2 2904   1.304   0.360   3.097 -2.4228 -0.6220  1.8109
  969SOL     OW 2905   0.072   1.317   2.246 -0.4889 -0.3293 -0.2568
  969SOL    HW1 2906   0.150   1.267   2.290  1.3217 -0.0462 -2.4188
  969SOL    HW2 2907   0.099   1.326   2.147 -1.1966  0.4481  1.6742
  970SOL     OW 2908   1.987   2.194   1.284 -0.0682 -0.0018  0.5419
  970SOL    HW1 2909   1.899   2.176   1.336  0.9602  0.7559 -0.0865
  970SOL    HW2 2910   1.964   2.246   1.196 -0.8468  1.4797 -3.0559
  971SOL     OW 2911   2.522   2.260   0.845 -0.2740 -0.0570  0.3654
  971SOL    HW1 2912   2.591   2.317   0.892 -1.2125  1.6276  1.3799
  971SOL    HW2 2913   2.558   2.234   0.754 -0.0743  0.0969  0.4159
  972SOL     OW 2914   3.061   1.067   2.545  0.0626  0.4094 -0.3457
  972SOL    HW1 2915   3.007   1.061   2.458  1.1048 -0.8648  0.2207
  972SOL    HW2 2916   2.993   1.068   2.627 -2.5233 -0.6858  1.7711
  973SOL     OW 2917   0.723   0.486   0.601  0.3669  0.1299 -0.3767
  973SOL    HW1 2918   0.712   0.543   0.680  0.3295  0.1292 -0.0467
  973SOL    HW2 2919   0.783   0.407   0.622  0.5786  2.3147  1.3469
  974SOL     OW 2920   2.198   0.900   1.595 -0.6356 -0.1343 -0.3285
  974SOL    HW1 2921   2.108   0.950   1.596  0.1625  2.5351 -0.4503
  974SOL    HW2 2922   2.191   0.813   1.646 -1.6620  0.7891  0.7327
  975SOL     OW 2923   3.075   2.773   0.250 -0.5277  0.3560  0.6442
  975SOL    HW1 2924   3.036   2.867   0.239  0.1307 -2.6470 -0.7556
  975SOL    HW2 2925   0.044   2.773   0.318  0.3929 -0.3170  0.2030
  976SOL     OW 2926   0.407   1.835   1.013  0.1948  0.6923  0.8896
  976SOL    HW1 2927   0.341   1.776   1.060 -0.2566  0.9682 -2.6537
  976SOL    HW2 2928   0.393   1.818   0.911  1.7526  0.3157 -1.3936
  977SOL     OW 2929   0.985   1.929   0.573  0.0607 -0.0462 -0.7378
  977SOL    HW1 2930   1.004   1.844   0.524  0.1334  1.9211  2.1405
  977SOL    HW2 2931   0.920   1.916   0.649 -1.1057  0.1974  0.2124
  978SOL     OW 2932   0.217   0.924   0.093  0.3164 -0.1254 -0.1546
  978SOL    HW1 2933   0.251   0.827   0.076 -0.5964 -1.4222  0.1115
  978SOL    HW2 2934   0.229   0.984   0.011 -0.3467  0.2120  0.5590
  979SOL     OW 2935   2.079   1.540   0.401 -0.0776 -0.6248  0.5957
  979SOL    HW1 2936   2.165   1.557   0.455 -1.2059 -0.1125  1.2635
  979SOL    HW2 2937   2.001   1.527   0.463 -0.1346  1.2669 -2.8741
  980SOL     OW 2938   0.531   2.236   2.044  0.1716 -1.1407 -0.1226
  980SOL    HW1 2939   0.507   2.295   1.962  0.0245 -2.2389  1.7400
  980SOL    HW2 2940   0.621   2.191   2.024 -0.4188 -0.2618  2.6703
  981SOL     OW 2941   2.771   1.073   0.060  0.2621  0.0126  0.2299
  981SOL    HW1 2942   2.798   1.036   0.148 -0.0019  0.8271 -1.8837
  981SOL    HW2 2943   2.688   1.030   0.019  0.5828 -2.2523 -2.6724
  982SOL     OW 2944   0.064   2.468   1.941 -0.0081  0.2066 -0.1883
  982SOL    HW1 2945   0.102   2.505   2.031  0.5931 -2.9810 -0.4720
  982SOL    HW2 2946   0.072   2.536   1.862  0.6794  0.3221 -1.8950
  983SOL     OW 2947   1.777   0.324   1.528 -0.0927 -0.8132 -0.0336
  983SOL    HW1 2948   1.787   0.241   1.467  2.1508  1.8903 -0.9561
  983SOL    HW2 2949   1.780   0.410   1.476 -1.5045  3.5199  1.2463
  984SOL     OW 2950   1.526   3.033   2.517 -0.2687  0.4847 -0.1570
  984SOL    HW1 2951   1.581   2.957   2.471 -0.3893 -0.2072  0.3326
  984SOL    HW2 2952   1.437   2.994   2.547 -2.0688  2.8194  1.3990
  985SOL     OW 2953   1.419   1.545   1.399  0.3148  0.2794  0.0105
  985SOL    HW1 2954   1.471   1.463   1.429  3.2711  0.7287  0.5746
  985SOL    HW2 2955   1.370   1.590   1.481 -0.9732 -1.4008 -0.9688
  986SOL     OW 2956   2.057   2.848   2.245 -0.2898 -0.5151  0.4310
  986SOL    HW1 2957   2.150   2.823   2.208 -3.4484  1.4731  1.9591
  986SOL    HW2 2958   2.025   2.934   2.197  0.3626  1.5422  0.5688
  987SOL     OW 2959   2.673   1.833   2.737 -0.0866 -0.2332 -0.3617
  987SOL    HW1 2960   2.713   1.903   2.797 -0.5589  0.8620  2.2789
  987SOL    HW2 2961   2.662   1.867   2.644  1.3765 -0.6712  0.2404
  988SOL     OW 2962   2.740   0.776   1.605 -0.2641  0.4520 -0.1516
  988SOL    HW1 2963   2.768   0.791   1.506 -0.4204  0.6816  0.7552
  988SOL    HW2 2964   2.825   0.795   1.662  0.9105  2.2425 -1.1183
  989SOL     OW 2965   1.821   1.385   1.624  0.2458  0.0172 -0.3974
  989SOL    HW1 2966   1.816   1.489   1.630  0.0925  2.9007  1.0497
  989SOL    HW2 2967   1.917   1.358   1.651  1.2889 -0.7853 -0.5359
  990SOL     OW 2968   3.019   0.920   3.021  0.0848 -0.2362  0.4501
  990SOL    HW1 2969   3.039   0.827   3.058 -0.6538 -2.5507  2.6834
  990SOL    HW2 2970   3.099   0.978   3.015  0.4490 -0.4568  0.3647
  991SOL     OW 2971   0.289   1.891   2.877  0.3928  0.0047 -0.1586
  991SOL    HW1 2972   0.187   1.910   2.892  0.1785 -2.1152 -1.0188
  991SOL    HW2 2973   0.345   1.904   2.964  0.1578 -0.6122  0.3638
  992SOL     OW 2974   2.570   1.937   1.868  0.1412 -0.4402 -0.4382
  992SOL    HW1 2975   2.472   1.940   1.908 -2.4905  0.2429 -0.0842
  992SOL    HW2 2976   2.631   2.002   1.913  2.6092  0.2828 -0.0044
  993SOL     OW 2977   0.589   0.048   1.027  0.2266 -0.2694  0.2391
  993SOL    HW1 2978   0.533   0.121   0.985  3.7990  2.7283 -0.7668
  993SOL    HW2 2979   0.687   0.075   1.006 -2.4718  0.5195  1.6790
  994SOL     OW 2980   2.653   2.088   1.644  0.0638 -0.2889 -0.2021
  994SOL    HW1 2981   2.748   2.091   1.681 -0.8192  0.6900  2.6799
  994SOL    HW2 2982   2.602   2.012   1.692  1.5990 -1.0349  2.1931
  995SOL     OW 2983   2.100   2.036   2.549 -0.1460 -0.3870  0.6589
  995SOL    HW1 2984   2.017   1.992   2.579  0.7384  1.7720 -1.8239
  995SOL    HW2 2985   2.084   2.063   2.451  1.3307 -3.5178  1.7721
  996SOL     OW 2986   1.910   1.865   0.026  0.4732  0.2236  0.7347
  996SOL    HW1 2987   1.829   1.820   0.072 -1.1752 -0.8210 -1.2363
  996SOL    HW2 2988   1.996   1.842   0.075 -0.5713 -2.0914 -0.0935
  997SOL     OW 2989   1.091   1.379   1.731 -0.1598 -0.7575  0.2815
  997SOL    HW1 2990   1.021   1.420   1.791  0.9113 -0.6978  0.2833
  997SOL    HW2 2991   1.096   1.281   1.746  0.8768 -1.2966 -0.0280
  998SOL     OW 2992   2.833   2.137   0.812  0.2936 -0.0053 -0.4604
  998SOL    HW1 2993   2.769   2.164   0.741  2.7644  1.6153 -1.0243
  998SOL    HW2 2994   2.802   2.048   0.850  0.0958  0.7138 -0.5946
  999SOL     OW 2995   0.146   2.742   0.454  0.4263 -0.1661  0.3128
  999SOL    HW1 2996   0.202   2.655   0.444 -0.7258 -0.9921 -1.3513
  999SOL    HW2 2997   0.058   2.716   0.501 -0.7441 -0.8084 -1.2611
 1000SOL     OW 2998   1.257   0.102   2.919 -0.2792 -0.9474 -0.1011
 1000SOL    HW1 2999   1.225   0.077   3.011  0.6416 -1.1533 -0.4610
 1000SOL    HW2 3000   1.299   0.191   2.919  1.1636  0.2872  0.4325
   3.10449   3.10449   3.10449
