1000 SPC/Fw water molecules t= 435.00000 step= 435000
 3000
    1SOL     OW    1   0.076   0.163   1.396  0.6637  0.1912 -0.0897
    1SOL    HW1    2   0.121   0.222   1.327 -0.0286  0.3382  2.0855
    1SOL    HW2    3   0.133   0.073   1.403 -0.0794 -2.1824 -2.1628
    2SOL     OW    4   2.798   2.942   0.164  0.3754 -0.7123  0.2378
    2SOL    HW1    5   2.876   2.916   0.108 -1.0764  3.8022  3.2120
    2SOL    HW2    6   2.740   2.862   0.190  2.5841 -1.9079 -0.4411
    3SOL     OW    7   1.205   2.710   0.072  0.5738 -0.1168  0.0552
    3SOL    HW1    8   1.245   2.634   0.018  2.3556  1.8270  3.2830
    3SOL    HW2    9   1.214   2.703   0.173  0.0014  2.9624 -1.5766
    4SOL     OW   10   1.343   2.768   2.415 -0.1751  0.3377  0.2244
    4SOL    HW1   11   1.348   2.669   2.438  0.0592 -0.2427  0.5893
    4SOL    HW2   12   1.251   2.801   2.388 -1.2859 -0.1978  0.5055
    5SOL     OW   13   2.246   0.164   2.021 -0.2215  0.5281 -0.4650
    5SOL    HW1   14   2.238   0.203   2.116  1.3109  1.9016 -0.4570
    5SOL    HW2   15   2.164   0.198   1.969 -0.2781 -0.8884  1.1102
    6SOL     OW   16   2.704   2.251   0.832 -0.1070  0.5958 -0.4622
    6SOL    HW1   17   2.784   2.186   0.820 -1.4596  0.3250 -2.0740
    6SOL    HW2   18   2.683   2.278   0.927  1.4020  1.8575  0.5127
    7SOL     OW   19   1.531   1.835   0.659 -0.3166  0.3223  0.4470
    7SOL    HW1   20   1.478   1.826   0.575  0.3069 -3.0511  0.5023
    7SOL    HW2   21   1.466   1.832   0.735 -1.9060  1.1041  1.1249
    8SOL     OW   22   0.407   1.515   0.993  0.1792 -0.2440  0.2212
    8SOL    HW1   23   0.390   1.610   0.967  1.8370 -1.1984 -2.0626
    8SOL    HW2   24   0.505   1.488   0.989 -1.7325  0.1044  0.8344
    9SOL     OW   25   0.040   2.869   1.346  0.1000 -0.1191  0.1056
    9SOL    HW1   26   3.056   2.906   1.377 -0.1324 -0.6617 -1.4037
    9SOL    HW2   27   0.032   2.842   1.249 -0.0219 -2.3065  0.4612
   10SOL     OW   28   1.108   2.422   0.507  0.0976 -0.5446  0.1713
   10SOL    HW1   29   1.140   2.367   0.587 -2.2028 -2.0268 -2.4496
   10SOL    HW2   30   1.029   2.481   0.532 -1.1022  0.7779 -0.0229
   11SOL     OW   31   1.803   1.702   1.139 -0.1908  0.5611 -0.1778
   11SOL    HW1   32   1.722   1.734   1.078 -3.5264 -0.9330  2.0572
   11SOL    HW2   33   1.767   1.641   1.209  3.0434 -0.4124 -0.8903
   12SOL     OW   34   3.052   1.033   1.948  0.1387 -0.5076  0.0185
   12SOL    HW1   35   0.001   1.021   1.861  2.2391 -0.3451 -0.5102
   12SOL    HW2   36   3.066   0.959   2.018 -3.2813 -0.4318 -2.9994
   13SOL     OW   37   2.367   2.997   0.063  0.7908  0.0771  0.3447
   13SOL    HW1   38   2.327   2.912   0.019  2.0739  1.5616 -1.3851
   13SOL    HW2   39   2.294   3.065   0.068 -0.7141 -1.0839  1.7829
   14SOL     OW   40   1.487   1.923   0.212 -0.1693  0.4618  0.4909
   14SOL    HW1   41   1.459   1.870   0.294 -0.5453  3.5533  0.2184
   14SOL    HW2   42   1.458   2.019   0.225  0.5443 -0.6696 -2.7926
   15SOL     OW   43   0.033   2.833   1.913 -0.5199  0.7188  0.0618
   15SOL    HW1   44   0.104   2.770   1.877  0.9746  1.4676  0.8292
   15SOL    HW2   45   3.100   2.893   1.837 -1.7265 -1.4500  1.6463
   16SOL     OW   46   2.850   0.667   0.737  0.0176  0.0335  0.0262
   16SOL    HW1   47   2.874   0.658   0.640 -0.6643 -0.0974  0.6724
   16SOL    HW2   48   2.809   0.581   0.775  1.4071 -1.1141 -0.3732
   17SOL     OW   49   0.852   0.514   0.666 -0.2743 -0.2542 -0.2734
   17SOL    HW1   50   0.888   0.610   0.669  0.7921  1.0056  3.0097
   17SOL    HW2   51   0.791   0.486   0.589 -1.1846  1.5345 -2.6931
   18SOL     OW   52   0.985   0.105   0.723 -0.0646  0.3078  0.2100
   18SOL    HW1   53   0.940   0.064   0.641  1.5897 -1.7936 -0.8691
   18SOL    HW2   54   1.047   0.182   0.698  0.1748  0.6294 -0.9084
   19SOL     OW   55   1.896   1.086   0.855  0.7567  0.2367 -0.1919
   19SOL    HW1   56   1.991   1.123   0.859 -1.7982  1.5477 -3.6690
   19SOL    HW2   57   1.850   1.128   0.775  1.1574  0.0072 -0.7031
   20SOL     OW   58   2.242   1.824   2.877 -0.0726  0.1675 -0.4607
   20SOL    HW1   59   2.167   1.824   2.809 -2.9999 -2.6921  0.4529
   20SOL    HW2   60   2.259   1.920   2.911  0.5024 -0.2461 -1.6248
   21SOL     OW   61   1.493   3.030   0.323 -0.0133 -0.1224  0.0320
   21SOL    HW1   62   1.439   3.053   0.240  2.2250 -0.9382 -0.0746
   21SOL    HW2   63   1.572   3.091   0.317 -3.0149 -0.6503  0.4695
   22SOL     OW   64   2.890   1.057   0.506 -0.2867 -0.2411  0.3590
   22SOL    HW1   65   2.872   1.110   0.595 -1.1667  0.0744  0.9647
   22SOL    HW2   66   2.805   1.010   0.479 -0.8534  0.6725  2.1233
   23SOL     OW   67   0.715   0.187   1.785 -0.7402  0.1923 -0.5132
   23SOL    HW1   68   0.763   0.197   1.697 -1.0264  0.9304 -0.2831
   23SOL    HW2   69   0.666   0.272   1.802 -2.1635  0.4103 -2.8221
   24SOL     OW   70   1.800   2.349   0.713 -0.3716 -0.2565  0.3493
   24SOL    HW1   71   1.890   2.305   0.729 -1.3316  0.0469 -2.7559
   24SOL    HW2   72   1.730   2.289   0.762  0.2125 -0.3249  0.0892
   25SOL     OW   73   1.773   0.005   2.380 -0.2150 -0.1594 -0.0032
   25SOL    HW1   74   1.789   3.032   2.447 -0.1621 -1.2239 -0.9084
   25SOL    HW2   75   1.807   3.085   2.286  2.7489  1.6466  0.7114
   26SOL     OW   76   1.712   2.500   2.786 -0.1561 -0.2577  0.2911
   26SOL    HW1   77   1.790   2.563   2.807  0.9870  0.0470  1.4062
   26SOL    HW2   78   1.619   2.545   2.803 -0.9547 -1.1450 -1.1479
   27SOL     OW   79   1.289   0.391   1.234 -0.1545  0.1070  0.4700
   27SOL    HW1   80   1.238   0.322   1.178  1.2423  1.4803 -0.7949
   27SOL    HW2   81   1.349   0.340   1.296 -0.8289 -0.9621 -1.9879
   28SOL     OW   82   0.779   1.746   0.906 -0.2012 -0.1685 -0.1248
   28SOL    HW1   83   0.871   1.704   0.913 -2.7287  2.6206 -1.7776
   28SOL    HW2   84   0.776   1.824   0.970  0.0529 -1.5278  1.3544
   29SOL     OW   85   2.417   0.497   1.454  0.5146  0.2648  0.7902
   29SOL    HW1   86   2.324   0.501   1.411  0.7083  1.6969 -1.8394
   29SOL    HW2   87   2.440   0.405   1.495 -0.6923 -0.6911 -3.2877
   30SOL     OW   88   1.630   2.284   1.412 -0.7102  0.2918 -0.0965
   30SOL    HW1   89   1.720   2.327   1.426 -0.2990  0.5119  1.5580
   30SOL    HW2   90   1.620   2.281   1.310 -0.6008 -1.9534 -1.5727
   31SOL     OW   91   1.866   2.757   1.485  0.1668  0.2499 -0.6541
   31SOL    HW1   92   1.829   2.677   1.435 -1.8566  0.7516 -1.3531
   31SOL    HW2   93   1.968   2.759   1.484  1.8542  0.4299 -0.6095
   32SOL     OW   94   1.970   1.477   2.077 -0.3075 -0.0603  0.0903
   32SOL    HW1   95   1.985   1.419   1.996 -0.6064 -0.7841 -1.1145
   32SOL    HW2   96   2.023   1.568   2.073  2.8949  2.6021  2.7742
   33SOL     OW   97   2.421   0.006   2.535 -0.2579 -0.3504 -0.5015
   33SOL    HW1   98   2.361   0.063   2.595  0.3215 -1.6132  0.5564
   33SOL    HW2   99   2.371   3.032   2.498  3.0440  2.9619 -0.8471
   34SOL     OW  100   1.854   0.246   0.477 -0.0506 -0.2512  0.9304
   34SOL    HW1  101   1.924   0.306   0.428  4.0430  1.8490 -2.8228
   34SOL    HW2  102   1.802   0.298   0.548  1.3825 -1.5399 -1.0032
   35SOL     OW  103   0.264   2.000   2.008  0.3377 -0.2071 -0.4344
   35SOL    HW1  104   0.268   2.051   2.097  1.3797 -3.0858  0.8091
   35SOL    HW2  105   0.190   1.932   1.997  2.6461 -0.2018  3.2413
   36SOL     OW  106   2.400   1.988   3.033  0.1512  0.1100  0.5472
   36SOL    HW1  107   2.450   2.000   0.014  0.7151 -0.7430 -3.6352
   36SOL    HW2  108   2.457   1.951   2.958  0.2410 -0.7258 -2.3272
   37SOL     OW  109   1.377   3.009   1.687  0.1452  0.5028  0.0660
   37SOL    HW1  110   1.445   3.081   1.703  2.0795  0.7013  1.3636
   37SOL    HW2  111   1.414   2.916   1.714 -0.4857 -2.1773 -1.1307
   38SOL     OW  112   0.915   0.721   2.589 -0.7454  0.5160  0.1173
   38SOL    HW1  113   0.946   0.724   2.688  1.6108  2.9912  3.5243
   38SOL    HW2  114   0.993   0.696   2.527 -1.0377 -1.6108 -0.1660
   39SOL     OW  115   1.873   0.742   1.448  0.2970  0.5525 -0.1452
   39SOL    HW1  116   1.804   0.792   1.396  0.0703 -2.3325  0.6693
   39SOL    HW2  117   1.962   0.792   1.459  1.7117  0.6775 -1.0889
   40SOL     OW  118   0.983   2.379   0.840 -0.0695 -0.0092  0.5394
   40SOL    HW1  119   0.915   2.430   0.789  3.8036 -2.9757 -2.2693
   40SOL    HW2  120   1.058   2.346   0.779 -0.1041 -1.2672 -0.7093
   41SOL     OW  121   2.332   2.237   1.302 -0.4114 -0.8181 -0.4368
   41SOL    HW1  122   2.269   2.311   1.321  0.6575 -0.0846  0.5137
   41SOL    HW2  123   2.337   2.215   1.200  0.3805 -3.1334 -0.3936
   42SOL     OW  124   2.459   0.476   0.509  0.1999  0.1551 -0.0358
   42SOL    HW1  125   2.386   0.548   0.519 -1.5911 -0.2611  3.7587
   42SOL    HW2  126   2.459   0.428   0.418  1.1656 -1.3194  0.1471
   43SOL     OW  127   1.002   1.265   2.519 -0.7102  0.0421  0.1602
   43SOL    HW1  128   0.941   1.244   2.593 -2.2524  2.0533  0.9703
   43SOL    HW2  129   0.960   1.331   2.451 -1.0246  1.8772 -0.4884
   44SOL     OW  130   1.757   2.581   1.335  0.6610 -0.1264 -0.6145
   44SOL    HW1  131   1.699   2.592   1.252 -2.3608 -0.9933 -0.4258
   44SOL    HW2  132   1.791   2.487   1.343  0.4654 -2.3046 -0.2788
   45SOL     OW  133   0.938   2.700   2.739  0.4381 -0.1437 -0.0089
   45SOL    HW1  134   0.874   2.779   2.760 -1.0959  1.9461 -0.1104
   45SOL    HW2  135   1.034   2.730   2.749  0.8968 -1.3066  0.9652
   46SOL     OW  136   0.624   2.690   1.949 -0.2245 -0.0678 -0.4657
   46SOL    HW1  137   0.613   2.781   1.995 -0.5715 -2.8525  0.0392
   46SOL    HW2  138   0.691   2.698   1.869 -0.5586  0.4323 -1.5467
   47SOL     OW  139   0.692   1.859   0.572  0.4721  0.5502 -0.2655
   47SOL    HW1  140   0.719   1.763   0.600  1.6175 -2.3460 -1.1479
   47SOL    HW2  141   0.602   1.884   0.608 -1.1515 -0.7944  1.1964
   48SOL     OW  142   0.988   2.671   1.355 -0.0928 -0.1030 -0.1561
   48SOL    HW1  143   0.969   2.754   1.407  0.2788 -3.2756  2.2022
   48SOL    HW2  144   0.903   2.642   1.306 -1.3447 -0.2558  0.1792
   49SOL     OW  145   3.072   2.951   2.740  0.0528 -0.6301 -0.4072
   49SOL    HW1  146   3.031   2.939   2.648 -0.0725  0.1464 -1.9641
   49SOL    HW2  147   3.005   2.979   2.812  0.9051 -1.8941  1.6253
   50SOL     OW  148   1.384   1.127   0.448 -0.5336 -0.4538 -0.4832
   50SOL    HW1  149   1.292   1.086   0.442 -1.1304  1.0690  1.6517
   50SOL    HW2  150   1.435   1.130   0.362 -2.0224 -1.7794  0.0309
   51SOL     OW  151   2.200   2.993   0.517  0.2353  0.6537  0.9798
   51SOL    HW1  152   2.190   2.958   0.418 -2.0087  2.1930 -2.4366
   51SOL    HW2  153   2.114   3.041   0.549  1.7658 -3.2863 -0.0175
   52SOL     OW  154   0.823   1.606   0.590 -0.4793 -0.2024  0.0791
   52SOL    HW1  155   0.822   1.555   0.499 -0.1426 -2.1910 -1.8716
   52SOL    HW2  156   0.923   1.624   0.609  0.9448  0.9475  0.6088
   53SOL     OW  157   0.204   1.506   2.699 -0.0439 -0.5156 -0.2639
   53SOL    HW1  158   0.233   1.439   2.771 -3.1922 -0.4086  2.7081
   53SOL    HW2  159   0.277   1.578   2.683  1.1575  2.8867 -1.6781
   54SOL     OW  160   2.539   2.049   0.177 -0.0598  0.3882 -0.5331
   54SOL    HW1  161   2.596   2.055   0.263  1.3700 -3.1465 -0.1724
   54SOL    HW2  162   2.453   1.997   0.205 -3.2845 -1.5335  2.5096
   55SOL     OW  163   2.574   2.286   1.407 -0.1376  0.1600 -0.1952
   55SOL    HW1  164   2.583   2.375   1.454  1.5312 -4.9763 -2.0065
   55SOL    HW2  165   2.483   2.253   1.392  0.7763  1.5551  0.2829
   56SOL     OW  166   1.473   3.051   1.386  0.7320  0.2001 -0.4027
   56SOL    HW1  167   1.404   2.991   1.433 -0.5745  1.2689 -0.3951
   56SOL    HW2  168   1.568   3.028   1.409 -2.1935  3.6534  0.0897
   57SOL     OW  169   1.625   1.835   1.004 -0.1097  0.3910 -0.0557
   57SOL    HW1  170   1.584   1.888   1.084  0.7807 -0.0023 -0.0868
   57SOL    HW2  171   1.552   1.833   0.932 -1.8498  0.3575 -0.5003
   58SOL     OW  172   2.459   0.234   1.827 -0.0586  0.1426  0.0274
   58SOL    HW1  173   2.478   0.322   1.882 -0.9544  2.4196  0.3141
   58SOL    HW2  174   2.375   0.193   1.873 -2.1224 -0.2326  1.1727
   59SOL     OW  175   1.183   2.476   2.299 -0.8588  0.0426 -0.5187
   59SOL    HW1  176   1.250   2.500   2.372 -2.6163 -1.6097 -4.0121
   59SOL    HW2  177   1.116   2.548   2.291  1.0485 -0.3454 -0.3923
   60SOL     OW  178   0.776   0.137   2.464  0.2940 -0.8147 -0.1627
   60SOL    HW1  179   0.722   0.171   2.383  0.7041 -0.0199 -0.7234
   60SOL    HW2  180   0.740   0.164   2.558  0.9070 -1.4102  0.1801
   61SOL     OW  181   0.748   2.101   0.663 -0.5158 -0.2097  0.3696
   61SOL    HW1  182   0.804   2.158   0.600  0.1586 -1.7146 -0.3688
   61SOL    HW2  183   0.750   2.003   0.633  0.7296 -2.3289  0.7067
   62SOL     OW  184   1.230   1.719   2.170  0.0007  0.6352 -0.8663
   62SOL    HW1  185   1.202   1.816   2.186 -0.7275 -2.1570  0.2982
   62SOL    HW2  186   1.203   1.665   2.252 -0.3007  0.4721  0.8813
   63SOL     OW  187   1.032   1.647   0.933  0.2726  0.1526  0.1482
   63SOL    HW1  188   1.055   1.709   1.010 -2.0982 -0.1780 -0.5042
   63SOL    HW2  189   1.065   1.677   0.842 -0.4107 -0.0321 -2.2014
   64SOL     OW  190   1.523   1.415   2.954 -0.1099  0.0906  0.0798
   64SOL    HW1  191   1.484   1.509   2.942  0.6164  2.1811  2.0641
   64SOL    HW2  192   1.458   1.342   2.925 -1.2732  1.7104 -0.2639
   65SOL     OW  193   1.590   2.158   2.461  0.0504 -0.2638 -0.4327
   65SOL    HW1  194   1.564   2.082   2.398 -0.6942 -1.2021 -0.2818
   65SOL    HW2  195   1.681   2.135   2.503 -2.4549  0.3378  0.2419
   66SOL     OW  196   0.089   0.942   0.895 -0.1225  0.1876 -0.4409
   66SOL    HW1  197   0.153   0.870   0.932  0.5134  1.7018  0.0608
   66SOL    HW2  198   0.076   0.933   0.793  2.3482  0.4835  2.2588
   67SOL     OW  199   2.123   2.610   0.384  0.1081 -0.0238  0.3561
   67SOL    HW1  200   2.063   2.598   0.462 -0.7513 -1.1214 -1.5010
   67SOL    HW2  201   2.191   2.531   0.383  0.8727 -2.8909  3.0907
   68SOL     OW  202   2.593   2.514   1.539  0.5400 -0.3158 -0.2096
   68SOL    HW1  203   2.664   2.561   1.477  1.5529  0.7200  0.5283
   68SOL    HW2  204   2.612   2.522   1.642  0.9806 -0.3605  2.7285
   69SOL     OW  205   2.630   2.523   2.777 -0.1320 -0.1120 -0.7688
   69SOL    HW1  206   2.626   2.518   2.676 -0.9733  0.3031  1.0627
   69SOL    HW2  207   2.723   2.551   2.811 -0.2707 -1.1199  0.8070
   70SOL     OW  208   0.564   1.382   2.618  0.1370 -0.1589 -0.1600
   70SOL    HW1  209   0.605   1.342   2.534  2.7258 -1.4472 -0.3555
   70SOL    HW2  210   0.490   1.320   2.650  0.6308 -2.0948  0.7957
   71SOL     OW  211   1.040   1.240   1.984 -0.2225  0.5286 -0.3790
   71SOL    HW1  212   0.939   1.250   1.990 -2.4750 -0.7333  0.2206
   71SOL    HW2  213   1.075   1.315   1.928  0.6123  0.0785 -0.3272
   72SOL     OW  214   2.470   1.340   1.922  0.3300  0.2746 -0.2903
   72SOL    HW1  215   2.431   1.296   2.004  0.2346  0.8571  0.0146
   72SOL    HW2  216   2.560   1.382   1.941  0.4569  0.7466 -1.0487
   73SOL     OW  217   0.608   2.072   2.925  0.1022  0.9617  0.1330
   73SOL    HW1  218   0.577   2.076   2.825  0.0110  0.5391 -1.4813
   73SOL    HW2  219   0.567   1.985   2.967 -0.1141 -3.3927  1.7858
   74SOL     OW  220   1.525   2.781   1.804  0.9351 -0.1866  0.2768
   74SOL    HW1  221   1.456   2.727   1.855 -0.5187  0.8873  3.6797
   74SOL    HW2  222   1.612   2.734   1.796  0.2110  1.1864  0.3278
   75SOL     OW  223   0.988   2.839   0.627 -0.5040  0.0895  0.0071
   75SOL    HW1  224   1.073   2.788   0.651  0.5936 -2.8166 -0.2573
   75SOL    HW2  225   0.995   2.895   0.544 -2.1452  0.4756 -2.6234
   76SOL     OW  226   0.156   1.855   2.580  0.6325 -0.5595  0.2896
   76SOL    HW1  227   0.198   1.844   2.669 -0.7173 -0.8115 -2.7734
   76SOL    HW2  228   0.079   1.798   2.565 -0.3454  1.0414  1.3713
   77SOL     OW  229   0.378   2.597   1.336 -0.6854 -0.8816  0.2815
   77SOL    HW1  230   0.410   2.658   1.259 -0.7764  1.1939 -0.3342
   77SOL    HW2  231   0.375   2.652   1.429 -0.5553  2.1727  1.9249
   78SOL     OW  232   2.557   1.134   0.352  0.0560 -0.2348  0.1168
   78SOL    HW1  233   2.577   1.176   0.261 -0.6541  0.1359  1.4248
   78SOL    HW2  234   2.587   1.198   0.427 -2.4791  1.9436  3.1270
   79SOL     OW  235   0.550   1.812   3.018 -0.3989 -0.8823  0.1240
   79SOL    HW1  236   0.460   1.765   3.044  0.2206 -0.7906  0.4028
   79SOL    HW2  237   0.606   1.754   2.958 -0.6251  3.5844 -0.2778
   80SOL     OW  238   1.647   1.715   1.468 -0.4070  0.9098  0.2132
   80SOL    HW1  239   1.660   1.711   1.569  2.0394 -0.1030 -0.2528
   80SOL    HW2  240   1.665   1.626   1.424 -3.0604  0.7047 -1.0047
   81SOL     OW  241   2.026   0.884   2.192  0.2981  0.1125 -0.1452
   81SOL    HW1  242   2.071   0.803   2.143  0.8037  0.9364 -1.5855
   81SOL    HW2  243   1.930   0.865   2.219  4.2148  0.7413 -0.0670
   82SOL     OW  244   1.570   1.345   1.438 -0.0416 -0.1323 -0.0619
   82SOL    HW1  245   1.489   1.372   1.385  0.1014 -1.5577  1.4931
   82SOL    HW2  246   1.557   1.367   1.537  0.7238  0.6347 -0.7359
   83SOL     OW  247   0.055   0.375   0.004  0.2952 -0.4039  0.5579
   83SOL    HW1  248   0.047   0.293   3.048  0.0981 -1.4475  0.4833
   83SOL    HW2  249   0.125   0.356   0.074 -0.6283 -0.1679 -1.9413
   84SOL     OW  250   0.647   1.310   0.238 -0.7870  0.1206  0.4657
   84SOL    HW1  251   0.638   1.242   0.166 -0.0385  0.7425 -0.1209
   84SOL    HW2  252   0.598   1.395   0.214 -0.8450  0.2454 -1.1049
   85SOL     OW  253   2.260   1.722   1.869  0.0099 -0.9192 -0.5684
   85SOL    HW1  254   2.315   1.656   1.813  1.2057 -0.5265 -0.1696
   85SOL    HW2  255   2.296   1.815   1.854 -0.9700 -1.1275 -1.0503
   86SOL     OW  256   0.505   0.770   1.053 -0.0521  0.0950  0.5907
   86SOL    HW1  257   0.603   0.767   1.037 -0.0122  2.8431  1.4748
   86SOL    HW2  258   0.475   0.676   1.076 -0.5516 -0.7244  1.0969
   87SOL     OW  259   2.733   2.113   2.681  0.4097 -0.3536 -0.3328
   87SOL    HW1  260   2.810   2.111   2.621 -1.8509  1.2332  1.0845
   87SOL    HW2  261   2.650   2.111   2.627 -1.0269 -0.3384  0.8687
   88SOL     OW  262   0.226   2.863   0.016  0.0497 -0.0641 -0.0589
   88SOL    HW1  263   0.285   2.910   0.083  2.8610  0.2148  0.8776
   88SOL    HW2  264   0.212   2.923   3.035  2.1820  0.9541  1.6586
   89SOL     OW  265   1.379   0.459   0.152  0.0975 -0.7193 -0.3048
   89SOL    HW1  266   1.332   0.444   0.065  0.8902 -0.0091  1.3646
   89SOL    HW2  267   1.353   0.550   0.196 -0.9002 -0.1159 -0.3341
   90SOL     OW  268   3.035   1.707   2.384 -0.0283  0.0765 -0.6805
   90SOL    HW1  269   2.942   1.670   2.382  0.8720 -3.2493 -0.0121
   90SOL    HW2  270   3.099   1.629   2.396  1.1036 -2.1314 -1.2989
   91SOL     OW  271   2.181   2.861   1.173 -0.0385 -0.2481  0.0584
   91SOL    HW1  272   2.225   2.954   1.162 -0.0739 -0.6870  0.5041
   91SOL    HW2  273   2.082   2.864   1.153  1.5904  1.2225  1.4254
   92SOL     OW  274   2.063   1.363   1.074 -0.0221  0.1085 -0.5761
   92SOL    HW1  275   2.078   1.290   1.008  1.0719 -1.8855 -2.3333
   92SOL    HW2  276   2.145   1.422   1.091 -1.3371 -1.3529  1.2093
   93SOL     OW  277   0.395   1.181   0.381 -0.1454 -0.7362 -0.2533
   93SOL    HW1  278   0.493   1.158   0.359 -1.0383  2.5471 -0.4763
   93SOL    HW2  279   0.337   1.171   0.300  2.2083 -2.9034  3.7459
   94SOL     OW  280   1.140   2.390   1.589 -0.7566 -0.0330 -0.0030
   94SOL    HW1  281   1.220   2.418   1.645  2.5391  3.2676  1.4525
   94SOL    HW2  282   1.066   2.449   1.624  1.3413 -1.8659 -4.2476
   95SOL     OW  283   0.153   0.675   0.481 -0.3864 -0.4129 -0.0637
   95SOL    HW1  284   0.218   0.758   0.485 -0.6400  2.5294  1.9412
   95SOL    HW2  285   0.107   0.654   0.572 -2.4115 -1.7919  0.8269
   96SOL     OW  286   0.222   0.037   1.677 -0.1051  0.3213 -0.2836
   96SOL    HW1  287   0.126   3.104   1.699 -0.8067 -3.4866  1.7512
   96SOL    HW2  288   0.239   0.027   1.577 -3.4653 -0.2223  1.9942
   97SOL     OW  289   2.144   0.427   0.948 -0.3562  0.1880 -0.3911
   97SOL    HW1  290   2.078   0.416   1.023  3.4953 -0.5278 -3.6834
   97SOL    HW2  291   2.235   0.463   0.974  2.6597 -0.2332  2.6586
   98SOL     OW  292   2.888   2.355   1.581  0.5996  0.1604 -0.4537
   98SOL    HW1  293   2.865   2.410   1.666  0.5586  0.3830  1.5475
   98SOL    HW2  294   2.976   2.301   1.584  2.3959 -1.4561  0.0436
   99SOL     OW  295   2.985   0.334   1.496 -0.2044 -0.6680  0.9880
   99SOL    HW1  296   3.052   0.260   1.475  0.8754  2.7949 -0.6190
   99SOL    HW2  297   2.997   0.369   1.591 -0.1239 -1.4004 -0.6516
  100SOL     OW  298   2.001   0.390   2.617 -1.3675  0.3118 -0.0796
  100SOL    HW1  299   2.049   0.440   2.540 -0.0178  1.9351 -3.5063
  100SOL    HW2  300   1.903   0.415   2.621  2.0476  2.1795  0.4011
  101SOL     OW  301   0.846   2.997   2.126  0.3584 -0.5726 -0.0318
  101SOL    HW1  302   0.891   2.909   2.090  0.1361 -1.3533 -1.3854
  101SOL    HW2  303   0.858   3.000   2.227  0.5237 -2.2531 -2.2785
  102SOL     OW  304   0.593   0.448   1.511  0.2296 -0.3483  0.2252
  102SOL    HW1  305   0.629   0.373   1.450 -0.4648 -0.0329 -0.2507
  102SOL    HW2  306   0.655   0.528   1.503  2.4904 -1.0770  0.3737
  103SOL     OW  307   1.188   0.863   2.565  0.3322 -0.3473 -0.1250
  103SOL    HW1  308   1.177   0.774   2.523  1.5435  0.0274 -0.7774
  103SOL    HW2  309   1.166   0.935   2.498  1.0973  0.9287 -0.1886
  104SOL     OW  310   0.356   0.448   1.926  0.3743 -0.2158  0.5750
  104SOL    HW1  311   0.355   0.541   1.972  0.0186  0.6341  2.7055
  104SOL    HW2  312   0.366   0.373   1.995  1.1002  1.4865  0.2536
  105SOL     OW  313   2.463   2.046   1.643 -0.1362  0.0863  0.1523
  105SOL    HW1  314   2.555   2.089   1.648 -0.2252  0.2659 -0.5073
  105SOL    HW2  315   2.447   1.987   1.722 -1.1181 -1.5596 -2.7321
  106SOL     OW  316   1.042   2.993   0.420 -0.1134  0.0469 -0.2844
  106SOL    HW1  317   1.031   3.000   0.319 -1.2154  0.9147  2.3853
  106SOL    HW2  318   1.136   3.033   0.444 -0.2618 -0.4858  0.1244
  107SOL     OW  319   2.702   1.999   1.210 -0.1695  0.1548 -0.0767
  107SOL    HW1  320   2.751   2.085   1.234 -1.3371 -2.2911  1.4238
  107SOL    HW2  321   2.648   1.997   1.126  1.9245 -1.9738 -0.0942
  108SOL     OW  322   0.055   2.186   0.563 -0.1701 -0.4805 -0.2698
  108SOL    HW1  323   0.127   2.139   0.510 -0.6414  0.9917 -0.7887
  108SOL    HW2  324   0.101   2.219   0.649  1.3508  0.1540 -0.5982
  109SOL     OW  325   1.535   2.954   0.617  0.3584  0.4170  0.3895
  109SOL    HW1  326   1.527   2.924   0.521  0.2778 -0.1672 -1.4591
  109SOL    HW2  327   1.631   2.998   0.629  2.0192  0.3131 -1.3051
  110SOL     OW  328   1.785   1.362   1.071 -0.4939  0.1514 -0.1440
  110SOL    HW1  329   1.884   1.380   1.084 -0.7404 -2.2869  0.4804
  110SOL    HW2  330   1.745   1.429   1.009  1.9507 -0.6363  2.3590
  111SOL     OW  331   1.610   2.397   1.854  0.2887 -0.1644  0.2505
  111SOL    HW1  332   1.512   2.380   1.829  2.4309  1.3205 -1.1889
  111SOL    HW2  333   1.679   2.326   1.820  0.5883  0.2589  0.7385
  112SOL     OW  334   2.009   2.247   2.983 -0.2675 -0.3037 -0.4413
  112SOL    HW1  335   2.064   2.328   2.950  2.4676 -0.4476 -1.4170
  112SOL    HW2  336   2.059   2.205   3.064  1.0013 -1.2985  0.7487
  113SOL     OW  337   1.977   1.824   1.772 -0.2682 -0.0752 -0.2792
  113SOL    HW1  338   2.049   1.758   1.810 -0.5954  0.4181  1.8969
  113SOL    HW2  339   2.007   1.852   1.683  1.4755 -1.6141  1.8503
  114SOL     OW  340   0.160   1.041   1.480 -0.4065 -1.1183 -0.0462
  114SOL    HW1  341   0.098   1.057   1.407  2.8878 -0.7736 -1.6572
  114SOL    HW2  342   0.218   1.126   1.489  0.9171  0.8992 -3.6170
  115SOL     OW  343   2.776   0.892   2.821  0.2012  0.7490  0.2943
  115SOL    HW1  344   2.856   0.950   2.845  0.2070 -1.2814 -0.1389
  115SOL    HW2  345   2.699   0.956   2.814 -1.0481 -0.7757 -0.6933
  116SOL     OW  346   2.730   0.393   2.758 -0.5300  0.3160 -0.2205
  116SOL    HW1  347   2.739   0.488   2.798 -3.1825  1.8056  1.7186
  116SOL    HW2  348   2.712   0.405   2.658 -0.6791  2.1108 -0.3613
  117SOL     OW  349   2.656   2.707   0.185 -0.0791  0.7236  0.2617
  117SOL    HW1  350   2.578   2.713   0.247  2.4138 -0.7818 -2.7096
  117SOL    HW2  351   2.620   2.655   0.102  0.7218 -0.2308 -3.0668
  118SOL     OW  352   0.515   2.197   2.338 -0.1420 -0.2542 -0.5724
  118SOL    HW1  353   0.484   2.244   2.424  0.9802  1.4431 -0.7433
  118SOL    HW2  354   0.436   2.186   2.272  2.8796  0.5543 -0.3186
  119SOL     OW  355   0.715   2.838   0.412 -0.5416 -0.0318  0.4818
  119SOL    HW1  356   0.684   2.744   0.434 -1.8808  0.9674 -3.7603
  119SOL    HW2  357   0.668   2.900   0.479 -2.0862  0.1088  1.6823
  120SOL     OW  358   1.356   0.808   0.368  0.6246  0.1856 -0.3807
  120SOL    HW1  359   1.279   0.852   0.412 -1.3818 -1.2653 -2.2357
  120SOL    HW2  360   1.439   0.865   0.364 -2.6251  0.7521  1.5792
  121SOL     OW  361   1.705   0.316   0.736  0.2414 -0.0508  0.5734
  121SOL    HW1  362   1.719   0.260   0.824  0.9051 -4.3375  1.5452
  121SOL    HW2  363   1.628   0.284   0.681  1.5126 -0.6318  0.3399
  122SOL     OW  364   2.159   1.415   2.266 -0.3684 -0.2944 -0.7630
  122SOL    HW1  365   2.078   1.421   2.205 -2.1962 -1.1383 -0.1951
  122SOL    HW2  366   2.217   1.344   2.224 -1.5459  0.0380 -0.7362
  123SOL     OW  367   1.138   1.021   0.981  0.1932 -0.0435  0.4297
  123SOL    HW1  368   1.230   1.022   0.937 -0.4209  2.1164 -0.9151
  123SOL    HW2  369   1.135   0.951   1.053  1.0958 -1.3231  0.1061
  124SOL     OW  370   0.630   0.653   2.900 -0.5183  0.0187 -0.7257
  124SOL    HW1  371   0.654   0.559   2.869 -0.9440 -1.1947  1.8516
  124SOL    HW2  372   0.719   0.696   2.915  0.2388 -2.7327  0.4667
  125SOL     OW  373   0.725   0.408   0.152  0.8692 -0.3779  0.3338
  125SOL    HW1  374   0.787   0.451   0.218 -1.1108 -1.5669  0.1607
  125SOL    HW2  375   0.674   0.341   0.206  1.0497  1.2133 -0.4166
  126SOL     OW  376   0.360   1.538   0.431 -0.8976  0.1214  0.2844
  126SOL    HW1  377   0.340   1.630   0.471  1.3014  1.0235  0.7103
  126SOL    HW2  378   0.393   1.478   0.508 -2.9173 -0.3557  1.2739
  127SOL     OW  379   0.982   2.609   1.728 -0.1686 -0.1286 -0.0436
  127SOL    HW1  380   0.909   2.682   1.729 -1.2270  1.0769  0.1725
  127SOL    HW2  381   1.079   2.638   1.701  0.7320 -2.5824 -0.6493
  128SOL     OW  382   1.131   1.789   0.376  0.2122 -0.2209  0.0759
  128SOL    HW1  383   1.055   1.733   0.340  3.1423  0.8450  1.8054
  128SOL    HW2  384   1.100   1.885   0.365  0.0826 -1.2575  2.3485
  129SOL     OW  385   1.604   1.420   1.687  0.2097 -0.2737  0.0182
  129SOL    HW1  386   1.632   1.519   1.703 -1.3275 -2.1695 -1.0531
  129SOL    HW2  387   1.687   1.360   1.702 -1.6763 -0.8898 -1.4044
  130SOL     OW  388   2.058   1.922   1.529  0.0207 -0.2962  0.0210
  130SOL    HW1  389   2.151   1.940   1.484 -0.4385  1.7104  0.0697
  130SOL    HW2  390   1.989   1.906   1.460  4.6635  0.8994 -0.6148
  131SOL     OW  391   0.135   2.424   2.104 -0.1264 -0.0782  0.1419
  131SOL    HW1  392   0.151   2.528   2.107 -0.5717  4.8158  0.4780
  131SOL    HW2  393   0.090   2.388   2.023  0.4601  0.0181  0.0190
  132SOL     OW  394   2.676   1.855   0.795  0.3823 -0.2006  0.3279
  132SOL    HW1  395   2.644   1.763   0.828 -2.1650 -1.8789 -0.0382
  132SOL    HW2  396   2.775   1.858   0.771 -0.8100  1.0542  0.0617
  133SOL     OW  397   0.557   0.959   1.733  0.2916  0.1560 -0.5047
  133SOL    HW1  398   0.624   1.033   1.719 -0.0934  0.0693 -1.4445
  133SOL    HW2  399   0.570   0.912   1.826  4.2635 -1.6381  0.2556
  134SOL     OW  400   2.644   1.289   0.546 -0.3173  0.5014  0.2738
  134SOL    HW1  401   2.673   1.236   0.628  1.6769  0.4265 -1.8746
  134SOL    HW2  402   2.724   1.340   0.508 -1.3572 -2.2077 -0.2835
  135SOL     OW  403   1.889   1.011   2.555 -0.4824 -0.5446 -0.3982
  135SOL    HW1  404   1.793   1.039   2.554  0.5166 -0.2769 -3.0987
  135SOL    HW2  405   1.916   0.975   2.646 -1.2161  1.1242 -2.8225
  136SOL     OW  406   2.900   1.609   1.342 -0.8411  0.0609  0.3413
  136SOL    HW1  407   2.874   1.550   1.420 -2.8982 -2.9487 -1.1345
  136SOL    HW2  408   2.901   1.705   1.363  1.2376 -1.8466 -0.8028
  137SOL     OW  409   2.317   1.839   0.541 -0.4159 -0.0287  0.0161
  137SOL    HW1  410   2.286   1.767   0.599 -0.8150  1.6432  0.3006
  137SOL    HW2  411   2.414   1.851   0.561 -0.3076 -0.4050  1.0288
  138SOL     OW  412   2.732   0.859   0.434  0.0304 -0.3118  0.1105
  138SOL    HW1  413   2.767   0.765   0.434 -1.1764  0.9804 -1.4035
  138SOL    HW2  414   2.630   0.862   0.419  0.9764 -0.2986 -0.7892
  139SOL     OW  415   2.845   3.022   2.928 -0.4412  0.6128 -0.0196
  139SOL    HW1  416   2.777   3.016   3.002  0.7939 -1.4944 -2.0031
  139SOL    HW2  417   2.820   3.100   2.866 -0.7892  1.9541 -2.2200
  140SOL     OW  418   0.831   1.094   1.722 -0.4199  0.6495 -0.1613
  140SOL    HW1  419   0.800   1.098   1.818  2.7282  1.0587 -2.5247
  140SOL    HW2  420   0.819   1.188   1.688  0.5549 -1.3612  0.8270
  141SOL     OW  421   1.386   1.505   1.002  0.2431 -0.1367  0.4931
  141SOL    HW1  422   1.345   1.423   1.037  1.2572  0.5505  0.7396
  141SOL    HW2  423   1.339   1.583   1.051  1.2651 -0.5730 -0.7731
  142SOL     OW  424   1.543   0.894   1.060  0.1619  0.1901  0.0766
  142SOL    HW1  425   1.628   0.880   1.009 -1.8713  4.8009 -0.1468
  142SOL    HW2  426   1.526   0.818   1.125 -0.9612 -0.6059  0.0418
  143SOL     OW  427   0.836   1.100   2.708  0.8047 -0.2997  0.3205
  143SOL    HW1  428   0.804   1.171   2.773 -2.1882  0.1609 -0.5618
  143SOL    HW2  429   0.757   1.068   2.655 -1.4621 -0.5604  0.9354
  144SOL     OW  430   2.478   0.060   0.272  0.1283 -0.0648 -0.4177
  144SOL    HW1  431   2.573   0.043   0.241  1.3540 -2.0687 -0.1625
  144SOL    HW2  432   2.418   0.012   0.206  1.1854 -2.3019  0.1570
  145SOL     OW  433   2.298   0.365   2.862  0.3516  0.2219 -0.2776
  145SOL    HW1  434   2.249   0.344   2.947 -0.4028 -1.2331  0.0138
  145SOL    HW2  435   2.294   0.465   2.837 -2.6755  0.1911 -0.8779
  146SOL     OW  436   3.066   3.073   0.335 -0.2886 -0.1508 -0.4123
  146SOL    HW1  437   3.065   3.004   0.259  0.3179  0.8228 -2.8684
  146SOL    HW2  438   3.000   0.049   0.332 -1.7547  2.4442  2.5648
  147SOL     OW  439   1.346   1.215   2.882 -0.1011  0.2678  0.3010
  147SOL    HW1  440   1.361   1.136   2.817 -0.2457  1.4714  0.5971
  147SOL    HW2  441   1.277   1.279   2.847  0.9071 -1.7232  0.1884
  148SOL     OW  442   1.364   3.088   0.103  0.6572  0.3763  0.0619
  148SOL    HW1  443   1.295   0.059   0.112 -1.9048  2.9960 -0.2647
  148SOL    HW2  444   1.333   3.023   0.030 -1.7832  0.9904  1.1754
  149SOL     OW  445   1.633   0.458   1.879 -0.3399  0.0236  0.0680
  149SOL    HW1  446   1.646   0.389   1.955 -0.3771 -2.1887 -1.7830
  149SOL    HW2  447   1.614   0.551   1.908 -2.0175 -1.3472  2.0882
  150SOL     OW  448   1.972   2.897   2.939  0.5641 -0.3200 -0.0307
  150SOL    HW1  449   1.905   2.956   2.998 -0.9075  3.2636  3.3192
  150SOL    HW2  450   2.052   2.952   2.901  1.3134  0.9101  0.7468
  151SOL     OW  451   0.490   1.547   0.184 -0.0526 -0.2954  0.6649
  151SOL    HW1  452   0.413   1.554   0.119 -1.5219 -1.3066 -1.7398
  151SOL    HW2  453   0.456   1.541   0.279 -1.5569  1.7918 -0.9235
  152SOL     OW  454   0.391   0.520   1.121 -0.0634 -0.3561 -0.1129
  152SOL    HW1  455   0.363   0.565   1.208 -0.4128  0.0744 -0.0846
  152SOL    HW2  456   0.335   0.436   1.115  0.9393  3.2345  1.2106
  153SOL     OW  457   2.600   2.834   2.275 -0.6661  0.5311 -0.3377
  153SOL    HW1  458   2.652   2.891   2.344 -1.7177 -0.1932  0.7103
  153SOL    HW2  459   2.510   2.800   2.307 -1.8044  1.2784 -0.0702
  154SOL     OW  460   2.003   2.908   2.199 -0.0889 -0.3656 -0.0018
  154SOL    HW1  461   1.936   2.977   2.158 -0.4211  0.1660  1.2304
  154SOL    HW2  462   2.064   2.861   2.131  1.1452  0.8032  0.1213
  155SOL     OW  463   0.529   1.050   0.654 -0.2800 -0.3293  0.0653
  155SOL    HW1  464   0.427   1.047   0.665 -2.0990  0.1904 -1.0158
  155SOL    HW2  465   0.561   1.074   0.749 -2.3892  1.1201 -0.3934
  156SOL     OW  466   2.231   1.599   0.656  0.2817  0.2404 -0.3424
  156SOL    HW1  467   2.280   1.517   0.626 -0.4804  1.1405  1.4846
  156SOL    HW2  468   2.131   1.576   0.662 -0.3136  0.7834  0.5531
  157SOL     OW  469   0.829   0.350   3.013 -0.6683 -0.2089  0.0869
  157SOL    HW1  470   0.805   0.263   2.967 -1.0338 -1.6545 -0.3837
  157SOL    HW2  471   0.781   0.361   3.101 -2.4459 -0.6559 -0.7426
  158SOL     OW  472   1.703   0.935   1.337  0.1454 -0.1447 -0.4258
  158SOL    HW1  473   1.739   1.002   1.407 -1.5923 -0.0307  1.7392
  158SOL    HW2  474   1.704   0.975   1.247 -2.4290 -1.0025  0.8303
  159SOL     OW  475   3.002   0.419   0.203 -0.5886 -0.4707 -0.2144
  159SOL    HW1  476   2.971   0.513   0.208  0.5417 -2.5318  0.1263
  159SOL    HW2  477   3.043   0.385   0.117 -1.2476  0.0546  0.3149
  160SOL     OW  478   2.464   2.010   1.925 -0.0449 -0.2052  0.4156
  160SOL    HW1  479   2.490   1.964   2.014 -0.5589  0.5008 -1.8484
  160SOL    HW2  480   2.412   2.091   1.940 -1.3915 -0.2657 -2.4635
  161SOL     OW  481   0.432   0.844   2.860  0.7174  0.0884 -0.0933
  161SOL    HW1  482   0.489   0.762   2.866 -1.4418  0.7504 -0.3263
  161SOL    HW2  483   0.330   0.826   2.868  0.5785 -0.2598 -0.0398
  162SOL     OW  484   0.601   0.424   1.827 -0.0377 -0.8637 -0.0887
  162SOL    HW1  485   0.618   0.480   1.741 -2.1242  4.1568 -0.5815
  162SOL    HW2  486   0.499   0.417   1.850  0.5007 -1.2145 -1.3240
  163SOL     OW  487   2.540   0.189   2.343  0.0352  0.2061  0.5415
  163SOL    HW1  488   2.518   0.115   2.409  2.5897 -0.3238 -0.6670
  163SOL    HW2  489   2.638   0.218   2.346  2.7584 -2.1488 -1.7375
  164SOL     OW  490   2.288   1.943   0.296 -0.2371  1.1800 -0.5689
  164SOL    HW1  491   2.249   1.880   0.225  1.2652 -1.0691 -1.0323
  164SOL    HW2  492   2.288   1.896   0.386 -3.9373  1.9907 -0.1945
  165SOL     OW  493   0.407   0.162   1.047 -0.0265  0.4504  0.2042
  165SOL    HW1  494   0.446   0.202   0.963  0.3578  1.4679  0.5197
  165SOL    HW2  495   0.470   0.171   1.127  1.2036  2.0770  0.5402
  166SOL     OW  496   2.651   0.295   0.018 -0.1223  0.5698  0.0803
  166SOL    HW1  497   2.603   0.270   3.036 -1.1635 -0.1532  1.5554
  166SOL    HW2  498   2.708   0.223   0.066 -2.1340  2.5790  0.9240
  167SOL     OW  499   2.301   0.789   0.257  0.2740  0.0786 -0.4686
  167SOL    HW1  500   2.237   0.864   0.233  0.2780  0.4032 -5.4265
  167SOL    HW2  501   2.367   0.769   0.179  1.5880  0.1684 -1.7131
  168SOL     OW  502   1.539   2.872   2.221 -0.3035  0.1223 -0.4439
  168SOL    HW1  503   1.506   2.848   2.315  0.8089  1.1252  0.2999
  168SOL    HW2  504   1.540   2.970   2.214  1.6528 -2.7594 -0.8551
  169SOL     OW  505   0.297   1.801   0.519  0.8908  0.4412 -0.5537
  169SOL    HW1  506   0.194   1.798   0.522 -0.5277  1.8069  2.2446
  169SOL    HW2  507   0.334   1.830   0.607  0.9431  0.0693 -1.2096
  170SOL     OW  508   3.051   0.521   1.311 -0.0438 -0.2006 -0.3327
  170SOL    HW1  509   3.052   0.466   1.226 -0.2368 -0.8612 -0.2598
  170SOL    HW2  510   3.037   0.456   1.395 -0.0051 -2.0952  3.8264
  171SOL     OW  511   2.632   1.398   2.532  0.1324 -0.5031  0.6274
  171SOL    HW1  512   2.612   1.309   2.486  0.1867  2.4939  0.9844
  171SOL    HW2  513   2.542   1.444   2.552  0.3482  1.8851  0.1363
  172SOL     OW  514   0.624   1.527   1.245 -0.0358 -0.2574  0.5293
  172SOL    HW1  515   0.632   1.500   1.148  0.3184  0.0367  1.3374
  172SOL    HW2  516   0.720   1.534   1.285  0.3588 -0.2285  0.4138
  173SOL     OW  517   2.067   2.095   0.085 -0.0991 -0.4427 -0.3004
  173SOL    HW1  518   2.064   2.000   0.049  0.9921  0.8184  0.8629
  173SOL    HW2  519   2.017   2.093   0.171  3.9099  0.5420  1.0972
  174SOL     OW  520   1.739   0.589   2.953  0.1920  0.4885  0.2200
  174SOL    HW1  521   1.669   0.561   2.884 -1.7079  0.5502 -2.0404
  174SOL    HW2  522   1.719   0.563   3.048 -2.1760  1.9650 -1.0216
  175SOL     OW  523   0.608   1.788   1.820 -0.3274  0.1071 -0.2176
  175SOL    HW1  524   0.686   1.851   1.829  1.1013 -0.5825 -0.4765
  175SOL    HW2  525   0.548   1.797   1.902  2.1867 -2.2105  0.6528
  176SOL     OW  526   0.569   0.232   0.247 -0.8580 -0.1767 -0.5000
  176SOL    HW1  527   0.569   0.189   0.338  0.7175  2.9226 -2.3422
  176SOL    HW2  528   0.502   0.191   0.186  1.0639  0.6130  1.2636
  177SOL     OW  529   0.159   1.526   0.257 -0.0211  0.1367  0.1960
  177SOL    HW1  530   0.220   1.510   0.337 -0.1626  1.1680 -0.3636
  177SOL    HW2  531   0.133   1.443   0.206  0.7553  2.2081  1.5516
  178SOL     OW  532   2.866   2.292   2.457  0.3848  0.3168 -0.4751
  178SOL    HW1  533   2.924   2.250   2.527 -2.6599  0.0188  1.9643
  178SOL    HW2  534   2.909   2.270   2.369  0.9152 -0.9625  1.5973
  179SOL     OW  535   2.544   3.074   2.968  0.0876  0.3372  0.3168
  179SOL    HW1  536   2.534   0.062   2.929  1.2034 -0.3987  2.7307
  179SOL    HW2  537   2.483   3.054   3.046  0.1085  1.8771  1.1826
  180SOL     OW  538   2.447   0.586   0.763 -0.2182  0.1287  0.0369
  180SOL    HW1  539   2.363   0.642   0.770  1.4500 -0.0704 -0.1411
  180SOL    HW2  540   2.480   0.574   0.668 -0.6176  2.1922  2.7054
  181SOL     OW  541   2.982   0.104   2.509  0.2995  0.1170 -0.0915
  181SOL    HW1  542   3.005   0.137   2.418  0.0486 -1.1505 -0.3277
  181SOL    HW2  543   3.006   0.006   2.523  0.1587 -1.8669 -0.8392
  182SOL     OW  544   2.451   2.195   2.635  0.9628  0.3462  0.5119
  182SOL    HW1  545   2.408   2.193   2.725  3.2413 -0.2237 -1.8813
  182SOL    HW2  546   2.430   2.287   2.598  0.3146 -1.2467  0.8865
  183SOL     OW  547   2.693   1.014   1.738 -0.0749 -0.1270  0.2253
  183SOL    HW1  548   2.605   0.965   1.744  3.0875 -0.1463  0.4481
  183SOL    HW2  549   2.758   0.961   1.676 -1.0049 -0.0207  2.6184
  184SOL     OW  550   2.973   1.419   0.752  0.3582 -0.3090 -0.4011
  184SOL    HW1  551   2.952   1.508   0.800  0.0772 -0.1217  2.7384
  184SOL    HW2  552   2.919   1.411   0.664 -0.9818 -0.6005 -1.1092
  185SOL     OW  553   2.965   0.362   0.592 -0.1307 -0.1302  0.0388
  185SOL    HW1  554   3.063   0.375   0.568 -0.1444 -1.3542  1.5425
  185SOL    HW2  555   2.962   0.357   0.694 -0.0271 -4.1651  1.9790
  186SOL     OW  556   2.354   2.432   2.568  0.5768  0.1938 -0.2573
  186SOL    HW1  557   2.342   2.529   2.593  1.2772 -2.7836 -0.1494
  186SOL    HW2  558   2.285   2.408   2.495 -0.1878 -0.2667 -1.3435
  187SOL     OW  559   0.548   1.651   0.780  0.2175  0.7143 -0.4037
  187SOL    HW1  560   0.577   1.557   0.755  0.2911  0.4292  0.4490
  187SOL    HW2  561   0.629   1.704   0.813  1.3484  0.3180  1.0368
  188SOL     OW  562   1.758   1.690   0.634 -0.7051  0.1725 -0.0646
  188SOL    HW1  563   1.760   1.593   0.667  0.2157 -1.7282 -1.0545
  188SOL    HW2  564   1.665   1.736   0.652  0.0067  1.3276  1.8701
  189SOL     OW  565   2.957   1.623   2.872  0.5741 -0.4584  0.4030
  189SOL    HW1  566   3.001   1.548   2.815 -0.0813 -1.5934 -2.2990
  189SOL    HW2  567   2.928   1.575   2.957  1.3634  1.1390 -1.1915
  190SOL     OW  568   2.371   0.353   2.218 -0.0586  0.5307  0.1604
  190SOL    HW1  569   2.287   0.382   2.266  2.7453 -1.4221 -1.9392
  190SOL    HW2  570   2.437   0.295   2.272  1.2697 -1.5638  2.0953
  191SOL     OW  571   1.017   0.933   2.198  0.1494  0.4198 -0.4705
  191SOL    HW1  572   1.079   0.976   2.268  3.3974  2.7811  1.5040
  191SOL    HW2  573   1.039   0.958   2.101 -1.0845 -0.0910 -0.8472
  192SOL     OW  574   1.444   1.453   2.024  0.1198 -0.9732  0.0922
  192SOL    HW1  575   1.446   1.381   1.953  1.4596  1.0563 -0.8308
  192SOL    HW2  576   1.374   1.524   1.992 -0.3998  0.5919 -0.0058
  193SOL     OW  577   1.427   2.682   1.042  0.6605 -0.3390  0.6980
  193SOL    HW1  578   1.354   2.701   1.113  0.3684  2.6016  3.2875
  193SOL    HW2  579   1.419   2.754   0.966  0.0979 -0.3867 -1.3699
  194SOL     OW  580   1.469   1.717   2.093 -0.1743 -0.5005  0.3343
  194SOL    HW1  581   1.514   1.623   2.096  0.3324  0.7886  0.9093
  194SOL    HW2  582   1.368   1.715   2.116 -0.7630  0.5978  0.1413
  195SOL     OW  583   2.022   0.065   0.604  0.8283 -0.0630 -0.0221
  195SOL    HW1  584   2.060   0.102   0.689 -1.9305 -2.5817 -2.2058
  195SOL    HW2  585   1.968   0.131   0.550  2.6590  1.3374  0.5825
  196SOL     OW  586   1.483   1.460   2.482  0.2218 -0.5081 -0.1696
  196SOL    HW1  587   1.396   1.435   2.519  0.8935  0.1503 -1.2598
  196SOL    HW2  588   1.531   1.531   2.541 -0.5361 -0.6101  1.3175
  197SOL     OW  589   0.393   0.241   2.111 -0.2886  0.6439  0.3139
  197SOL    HW1  590   0.491   0.229   2.144  1.8320 -2.6039 -0.2219
  197SOL    HW2  591   0.364   0.165   2.050  2.5457  0.5041  0.5874
  198SOL     OW  592   0.163   1.205   0.959 -0.3005  0.1069 -0.3386
  198SOL    HW1  593   0.158   1.110   0.929  1.7156 -1.8036  1.5584
  198SOL    HW2  594   0.150   1.268   0.878 -0.9044  3.3198 -1.3109
  199SOL     OW  595   0.354   2.231   1.015 -0.1215  0.4560  0.1299
  199SOL    HW1  596   0.438   2.241   0.956 -0.4951 -1.5262 -0.4358
  199SOL    HW2  597   0.372   2.272   1.109 -1.1242 -2.2263 -2.3878
  200SOL     OW  598   2.008   1.459   0.006  0.4912 -0.3491  0.5069
  200SOL    HW1  599   1.988   1.486   0.100  0.8224 -2.1351 -2.5547
  200SOL    HW2  600   2.056   1.372   0.007 -0.0111 -1.1318 -0.6795
  201SOL     OW  601   0.493   2.170   1.470  0.5593  0.6714 -0.0589
  201SOL    HW1  602   0.585   2.128   1.498  2.6754 -0.9947 -1.1240
  201SOL    HW2  603   0.409   2.112   1.493 -1.4559 -2.2922  0.3188
  202SOL     OW  604   1.039   2.424   0.087 -0.2363 -0.3551 -0.3081
  202SOL    HW1  605   0.953   2.465   0.111  2.3866 -2.3900 -0.9125
  202SOL    HW2  606   1.077   2.466   0.006 -1.8519  0.2991  0.8135
  203SOL     OW  607   1.678   0.272   2.114 -0.0227  0.2856  0.7182
  203SOL    HW1  608   1.680   0.282   2.216  1.4891 -0.6345 -1.2923
  203SOL    HW2  609   1.610   0.197   2.082 -0.8794  2.5505 -0.6598
  204SOL     OW  610   0.320   1.277   1.439  0.2279  1.1100 -0.0746
  204SOL    HW1  611   0.303   1.324   1.352  1.1521  0.2928 -1.2851
  204SOL    HW2  612   0.416   1.241   1.434  0.5553  0.2012 -2.8688
  205SOL     OW  613   2.331   1.186   2.454 -0.2251  0.3520  0.1668
  205SOL    HW1  614   2.301   1.285   2.466 -0.6928  1.6829 -2.4900
  205SOL    HW2  615   2.251   1.132   2.423  1.4340  3.4096  1.4773
  206SOL     OW  616   0.035   2.089   2.336  0.3843  0.2844 -0.1396
  206SOL    HW1  617   3.103   2.098   2.432 -1.8522 -1.0196 -2.8441
  206SOL    HW2  618   0.018   1.995   2.298  0.6165 -2.3853  1.6346
  207SOL     OW  619   0.832   3.040   1.681 -0.2848 -0.4413 -0.5349
  207SOL    HW1  620   0.929   3.021   1.715  0.6904 -3.3099  0.3632
  207SOL    HW2  621   0.805   0.032   1.681  2.3017 -0.2177 -1.7289
  208SOL     OW  622   0.555   2.390   1.613  0.0847 -0.3138  0.6850
  208SOL    HW1  623   0.489   2.363   1.688 -1.6013  1.6071 -2.7207
  208SOL    HW2  624   0.549   2.315   1.547  0.4885  0.0406 -0.0616
  209SOL     OW  625   1.230   2.777   2.719 -0.3139 -0.1660  0.3243
  209SOL    HW1  626   1.289   2.811   2.643 -1.4239 -2.1208  1.6342
  209SOL    HW2  627   1.211   2.851   2.784  0.0714 -1.5524  1.2399
  210SOL     OW  628   2.709   1.439   1.993  0.1081  0.0961 -0.3619
  210SOL    HW1  629   2.728   1.415   1.900  1.9117 -1.8181  1.4438
  210SOL    HW2  630   2.764   1.521   2.016  0.9170 -0.4142 -1.6848
  211SOL     OW  631   1.248   3.082   2.001 -0.6581 -0.1583 -0.4287
  211SOL    HW1  632   1.222   0.074   2.019 -2.7477 -0.0260 -0.1618
  211SOL    HW2  633   1.202   3.050   1.914  0.6203  1.2790  1.0504
  212SOL     OW  634   1.364   2.325   1.762 -0.0228 -0.0377  0.4062
  212SOL    HW1  635   1.280   2.295   1.817 -1.3202  0.4716 -3.3477
  212SOL    HW2  636   1.413   2.247   1.721 -0.4209 -0.1263 -1.4117
  213SOL     OW  637   2.443   0.901   1.742 -0.6897 -0.0575 -0.5229
  213SOL    HW1  638   2.392   0.990   1.747  1.3171 -0.6874 -0.2990
  213SOL    HW2  639   2.395   0.832   1.678 -0.6512 -0.1334 -1.3769
  214SOL     OW  640   0.856   1.771   1.586  0.3207  0.2987 -0.5912
  214SOL    HW1  641   0.950   1.809   1.588 -3.2608 -1.1308  0.0037
  214SOL    HW2  642   0.815   1.776   1.681 -0.6525 -1.1164  1.0687
  215SOL     OW  643   2.554   2.356   1.100  0.0956 -0.1392  0.1913
  215SOL    HW1  644   2.483   2.285   1.075  0.0750  0.4883 -1.0594
  215SOL    HW2  645   2.568   2.354   1.202 -0.3424 -0.9649  0.3510
  216SOL     OW  646   3.033   0.859   1.088 -0.1668  0.4204  0.3060
  216SOL    HW1  647   3.090   0.792   1.138 -2.2821 -0.2252  1.7142
  216SOL    HW2  648   3.075   0.909   1.010  1.7467  2.2021  1.3641
  217SOL     OW  649   2.115   0.080   1.480 -0.1504 -0.0526 -0.2051
  217SOL    HW1  650   2.198   0.094   1.427  0.7077 -0.0214  1.1477
  217SOL    HW2  651   2.041   0.050   1.417 -0.4715 -1.5129 -1.7073
  218SOL     OW  652   1.620   2.517   1.095  0.4139 -0.0808 -0.4130
  218SOL    HW1  653   1.706   2.506   1.036 -1.3845  0.7365  3.2145
  218SOL    HW2  654   1.560   2.591   1.059 -0.6725 -1.6476 -0.6168
  219SOL     OW  655   1.423   2.187   0.231  0.2696 -0.3594 -0.4808
  219SOL    HW1  656   1.463   2.240   0.153 -0.7030  0.8873  0.4310
  219SOL    HW2  657   1.344   2.240   0.264  1.3240  2.7446 -0.5025
  220SOL     OW  658   1.742   2.339   2.998  0.2529  0.4586  0.3838
  220SOL    HW1  659   1.718   2.361   2.901  1.5903 -0.2264  0.1866
  220SOL    HW2  660   1.837   2.297   3.000  3.6847 -2.2863 -0.1516
  221SOL     OW  661   0.138   2.511   1.234  0.4863  0.6979  0.0312
  221SOL    HW1  662   0.122   2.415   1.268  2.3026  2.2664  1.9043
  221SOL    HW2  663   0.225   2.540   1.282 -0.8447  1.3467 -1.4124
  222SOL     OW  664   2.028   2.689   0.810 -0.5097 -0.0303 -0.9668
  222SOL    HW1  665   1.942   2.739   0.815 -2.9476  2.8396  0.5121
  222SOL    HW2  666   2.109   2.755   0.800  0.8280  0.6560 -0.0833
  223SOL     OW  667   0.676   2.552   2.180 -0.1263 -0.1505  0.2470
  223SOL    HW1  668   0.726   2.464   2.163  0.1877 -1.3298  1.0568
  223SOL    HW2  669   0.669   2.600   2.093  1.8161  0.3029 -0.3546
  224SOL     OW  670   3.004   2.497   1.092 -0.4540 -0.1752 -0.1071
  224SOL    HW1  671   3.077   2.533   1.156  2.4920 -0.0901  1.9633
  224SOL    HW2  672   3.003   2.557   1.008 -1.6032  0.1348 -0.2501
  225SOL     OW  673   2.021   2.245   0.815 -0.3404 -0.5443  0.4453
  225SOL    HW1  674   2.090   2.314   0.845 -0.5267 -1.9534 -0.2755
  225SOL    HW2  675   2.070   2.177   0.754  0.0903 -0.4395 -2.0076
  226SOL     OW  676   1.181   2.652   0.363  0.0300 -0.0642 -0.4629
  226SOL    HW1  677   1.184   2.556   0.395 -0.5567  2.5364 -0.8656
  226SOL    HW2  678   1.270   2.700   0.377 -0.0448 -0.8018  0.3550
  227SOL     OW  679   1.793   0.846   0.939  0.5873  0.3221  0.2397
  227SOL    HW1  680   1.833   0.938   0.911 -0.4149  0.4416 -0.9649
  227SOL    HW2  681   1.856   0.767   0.907 -0.7111 -1.8647 -0.7376
  228SOL     OW  682   1.038   0.672   2.213 -1.4606 -0.5270  0.5193
  228SOL    HW1  683   1.027   0.773   2.211 -0.3691 -1.5507 -1.2306
  228SOL    HW2  684   1.011   0.632   2.126  2.4317  0.1790  4.2967
  229SOL     OW  685   3.040   1.021   2.873  0.0572  0.2122 -0.4256
  229SOL    HW1  686   3.013   1.067   2.785  1.0524  2.1346 -1.4838
  229SOL    HW2  687   3.074   1.087   2.939 -0.3628  1.2783 -0.4485
  230SOL     OW  688   0.793   1.280   1.171  0.0224 -0.3666 -0.0314
  230SOL    HW1  689   0.820   1.180   1.165 -0.7754 -2.7003  0.6202
  230SOL    HW2  690   0.873   1.338   1.202  0.9533  0.6173  1.1935
  231SOL     OW  691   2.664   3.050   2.610  0.0577  0.2097 -0.0281
  231SOL    HW1  692   2.706   0.024   2.663 -1.4666  2.3486 -0.8759
  231SOL    HW2  693   2.565   3.073   2.586 -0.1137 -1.4905 -1.0543
  232SOL     OW  694   0.226   2.492   0.194 -0.1914  0.1171  0.0156
  232SOL    HW1  695   0.244   2.460   0.288  2.0792 -0.3720 -0.2561
  232SOL    HW2  696   0.139   2.446   0.157  1.6666 -2.3206 -0.2638
  233SOL     OW  697   1.106   2.259   2.443 -0.0230  0.1293 -0.4874
  233SOL    HW1  698   1.131   2.336   2.383  1.4710 -1.0218 -3.2496
  233SOL    HW2  699   1.194   2.230   2.489  1.2110 -1.1329 -3.0460
  234SOL     OW  700   1.237   1.615   1.910 -0.2086  0.2136  0.1313
  234SOL    HW1  701   1.185   1.584   1.826 -0.4601 -1.4263 -1.6299
  234SOL    HW2  702   1.175   1.619   1.990  0.1731 -0.7897 -0.6623
  235SOL     OW  703   0.836   1.934   1.823 -0.3794  0.3217  0.7431
  235SOL    HW1  704   0.906   1.993   1.776  1.3739 -2.1215 -0.4838
  235SOL    HW2  705   0.864   1.919   1.920  0.3972 -1.5304 -1.4093
  236SOL     OW  706   1.562   2.822   2.749  0.6087  0.2427 -0.3992
  236SOL    HW1  707   1.576   2.834   2.850  0.4998  1.0256  0.1277
  236SOL    HW2  708   1.516   2.731   2.726 -0.4106 -4.4085 -3.9083
  237SOL     OW  709   1.470   0.210   0.940  0.0222 -0.4813  0.1634
  237SOL    HW1  710   1.465   0.138   1.012 -1.0882 -0.9994 -2.1288
  237SOL    HW2  711   1.540   0.279   0.968 -0.4729 -1.4588  0.6074
  238SOL     OW  712   1.268   0.602   2.730  0.1115 -0.1526  0.6936
  238SOL    HW1  713   1.236   0.539   2.657 -0.2906  0.1136  0.4312
  238SOL    HW2  714   1.211   0.596   2.814 -0.2987 -1.7207  2.0693
  239SOL     OW  715   2.981   0.776   2.423  0.0463  0.5995 -0.7437
  239SOL    HW1  716   2.937   0.833   2.495  1.4378  1.6589 -0.1236
  239SOL    HW2  717   2.909   0.727   2.366  1.2952  1.6492 -1.6757
  240SOL     OW  718   2.247   2.846   0.747 -0.3359  0.0200 -0.1991
  240SOL    HW1  719   2.248   2.901   0.661  0.4352  0.4544  3.1967
  240SOL    HW2  720   2.273   2.749   0.728 -2.1791  4.6612  0.7228
  241SOL     OW  721   1.479   1.146   1.161 -0.2433 -0.1063 -0.3422
  241SOL    HW1  722   1.477   1.048   1.132 -1.2010  0.0242 -2.6044
  241SOL    HW2  723   1.555   1.197   1.111 -1.9859 -0.7904  0.7627
  242SOL     OW  724   0.684   0.823   0.825  0.1038 -0.3136  0.4930
  242SOL    HW1  725   0.677   0.927   0.836  0.9881 -0.2594  1.9812
  242SOL    HW2  726   0.633   0.784   0.744  2.8648 -2.1054 -1.5980
  243SOL     OW  727   0.237   0.736   0.966 -0.5348 -0.6723  0.5724
  243SOL    HW1  728   0.206   0.682   1.048 -2.8034  0.8066 -0.8934
  243SOL    HW2  729   0.338   0.758   0.976  0.5181  2.1758 -0.3763
  244SOL     OW  730   1.165   0.177   0.086 -0.6479 -0.3017  0.6493
  244SOL    HW1  731   1.098   0.102   0.082  0.2486  1.4403 -0.2159
  244SOL    HW2  732   1.167   0.226   0.173  2.2520  0.1656 -1.5024
  245SOL     OW  733   2.119   0.984   0.232  0.7473 -0.1253  0.0574
  245SOL    HW1  734   2.033   0.993   0.179 -1.1392 -0.2272 -1.3771
  245SOL    HW2  735   2.166   1.072   0.239  1.3163  0.6466 -2.0001
  246SOL     OW  736   3.002   0.696   1.708 -0.2233  0.4237 -0.5964
  246SOL    HW1  737   3.018   0.721   1.805 -0.2936 -0.7106  0.5425
  246SOL    HW2  738   3.061   0.623   1.671  0.1917 -0.4780 -2.1569
  247SOL     OW  739   0.598   2.953   2.027  0.0858  0.1314  0.1375
  247SOL    HW1  740   0.554   3.029   1.975 -1.2816  1.5533  1.7242
  247SOL    HW2  741   0.691   2.982   2.052 -2.3319  0.4861  0.5258
  248SOL     OW  742   0.642   1.327   2.346  0.3123 -0.1445 -0.6318
  248SOL    HW1  743   0.739   1.342   2.318  0.0335  2.2830 -0.9642
  248SOL    HW2  744   0.618   1.228   2.329 -1.2570  1.4453  1.8388
  249SOL     OW  745   0.549   2.981   2.756 -0.0071  0.6998  0.2537
  249SOL    HW1  746   0.524   2.934   2.840  1.5155  1.1854 -3.9825
  249SOL    HW2  747   0.595   2.917   2.689  0.8535 -0.2069  0.2836
  250SOL     OW  748   0.259   0.269   2.536  0.3252 -0.4873 -0.5728
  250SOL    HW1  749   0.312   0.194   2.491 -1.8111 -0.3315 -1.1014
  250SOL    HW2  750   0.175   0.289   2.479  1.9449  2.4080 -1.1294
  251SOL     OW  751   3.091   1.637   1.154 -0.1396  0.2617 -0.6976
  251SOL    HW1  752   0.006   1.539   1.122  0.2956 -0.9537 -1.2136
  251SOL    HW2  753   3.022   1.636   1.232 -2.1309 -1.1773  3.3006
  252SOL     OW  754   1.894   2.747   1.975  0.5086 -0.6254 -0.1829
  252SOL    HW1  755   1.852   2.684   1.902 -1.2249  1.0883 -1.4679
  252SOL    HW2  756   1.995   2.762   1.959 -1.0500  3.4566  2.1118
  253SOL     OW  757   1.971   1.606   2.889 -0.1941  0.0374 -0.3520
  253SOL    HW1  758   1.895   1.668   2.929  0.7003  2.9720  1.0078
  253SOL    HW2  759   1.992   1.531   2.954 -0.7774 -0.2397 -1.7948
  254SOL     OW  760   0.686   1.517   1.790  0.0971 -0.2922  0.7023
  254SOL    HW1  761   0.643   1.605   1.773  2.2417 -1.8944 -0.1764
  254SOL    HW2  762   0.662   1.491   1.885 -1.5248 -0.6738 -0.6219
  255SOL     OW  763   0.852   2.920   1.430 -0.3570  0.0838 -0.4067
  255SOL    HW1  764   0.937   2.954   1.385 -2.0827  1.4332  2.3713
  255SOL    HW2  765   0.848   2.953   1.524  1.3696 -2.3576 -1.3947
  256SOL     OW  766   0.148   2.234   0.846  0.0019 -0.2152 -0.1109
  256SOL    HW1  767   0.237   2.216   0.898 -2.3186  1.3304 -0.9465
  256SOL    HW2  768   0.066   2.215   0.901 -0.5763  0.1983 -2.4882
  257SOL     OW  769   0.301   2.534   2.419 -0.2854  0.4627  0.4474
  257SOL    HW1  770   0.204   2.518   2.453 -0.8735 -0.2887  1.2222
  257SOL    HW2  771   0.360   2.454   2.447 -0.7911 -1.8455  2.4241
  258SOL     OW  772   1.348   2.050   2.060 -0.1088  0.1468  0.2938
  258SOL    HW1  773   1.405   1.997   1.995  0.0423 -0.0203 -2.2620
  258SOL    HW2  774   1.272   2.104   2.019  0.3623 -0.3401 -0.5637
  259SOL     OW  775   1.185   1.611   2.421 -0.2937  0.2599 -0.0134
  259SOL    HW1  776   1.217   1.527   2.465  1.4309  1.4691  0.0458
  259SOL    HW2  777   1.104   1.648   2.467  1.8107 -2.1090 -0.3365
  260SOL     OW  778   2.252   0.996   2.076 -0.4238 -0.2347 -0.1880
  260SOL    HW1  779   2.155   0.966   2.100  0.2033 -0.3003  2.1044
  260SOL    HW2  780   2.254   1.050   1.993 -0.2256  0.4283 -0.0494
  261SOL     OW  781   1.393   0.969   0.853 -0.0075  0.1467  0.0343
  261SOL    HW1  782   1.459   0.932   0.925 -0.0690  1.4394 -1.4779
  261SOL    HW2  783   1.445   1.027   0.790 -1.9139 -0.1033  0.5950
  262SOL     OW  784   2.144   2.125   2.544  0.1057 -0.2600 -0.0969
  262SOL    HW1  785   2.111   2.222   2.528  1.3303 -0.3117  0.6755
  262SOL    HW2  786   2.205   2.124   2.624 -1.3022 -0.7757 -1.7806
  263SOL     OW  787   0.913   2.080   0.901  0.5785 -0.1421 -0.2775
  263SOL    HW1  788   0.916   2.180   0.884  0.9950  2.5643 -0.3854
  263SOL    HW2  789   0.880   2.025   0.825  0.5829 -1.8200  2.6335
  264SOL     OW  790   0.343   2.369   0.407 -0.0508  0.0805  0.1249
  264SOL    HW1  791   0.318   2.401   0.499  0.9316 -1.1331 -1.9079
  264SOL    HW2  792   0.367   2.271   0.395  1.2563 -1.2918 -0.1164
  265SOL     OW  793   1.257   1.388   0.170 -0.4741  0.0167  0.2541
  265SOL    HW1  794   1.284   1.329   0.092 -1.6910  2.4037  0.7567
  265SOL    HW2  795   1.169   1.350   0.201  2.9415 -0.7511 -0.7812
  266SOL     OW  796   0.700   1.991   2.454 -0.0221 -0.6829 -0.7419
  266SOL    HW1  797   0.798   2.006   2.433  0.2342 -0.3364  1.2057
  266SOL    HW2  798   0.647   2.047   2.387 -0.7452  0.9704 -0.9402
  267SOL     OW  799   1.761   0.882   2.267  0.1556 -0.2460  0.3023
  267SOL    HW1  800   1.717   0.825   2.339  2.6707 -0.1439 -0.7141
  267SOL    HW2  801   1.715   0.975   2.271 -1.7113  1.9640 -1.0134
  268SOL     OW  802   0.829   1.486   0.357 -0.0718  0.1227  0.0108
  268SOL    HW1  803   0.777   1.416   0.311  3.2415 -1.9846  2.1503
  268SOL    HW2  804   0.880   1.541   0.293  1.1962 -2.6435 -1.3340
  269SOL     OW  805   2.442   1.845   2.602 -0.2027  0.1346 -0.3652
  269SOL    HW1  806   2.474   1.869   2.698  0.2296  2.7467  0.9510
  269SOL    HW2  807   2.514   1.871   2.538 -2.1984 -3.0300 -2.3887
  270SOL     OW  808   0.875   2.158   2.996 -0.0318 -0.0227  0.0055
  270SOL    HW1  809   0.782   2.117   2.998 -0.8212  2.4940 -0.1312
  270SOL    HW2  810   0.858   2.258   2.981 -0.8268 -1.6375  0.0388
  271SOL     OW  811   0.313   0.384   0.142 -0.1916  0.2111  0.2703
  271SOL    HW1  812   0.381   0.425   0.075 -0.3183 -0.9865 -0.9474
  271SOL    HW2  813   0.317   0.279   0.137  1.5816 -2.3603 -3.2161
  272SOL     OW  814   2.906   0.221   0.361 -0.3961  0.4969 -0.0282
  272SOL    HW1  815   2.875   0.248   0.458 -0.4930 -0.5576  2.1619
  272SOL    HW2  816   2.958   0.292   0.308  0.3648 -1.5767 -1.5419
  273SOL     OW  817   0.352   0.021   1.917 -0.3144  0.2393 -0.0283
  273SOL    HW1  818   0.296   0.046   1.835 -1.7683  0.9615  2.4587
  273SOL    HW2  819   0.288   3.072   1.982 -3.1403 -0.4203 -0.3491
  274SOL     OW  820   2.766   0.526   1.279  0.3190  0.6786  0.0898
  274SOL    HW1  821   2.740   0.459   1.208 -0.5511  0.3753  0.2338
  274SOL    HW2  822   2.867   0.542   1.279 -1.1115  0.9015  0.3878
  275SOL     OW  823   0.647   1.410   0.993 -0.7261 -0.2929  0.1652
  275SOL    HW1  824   0.681   1.414   0.898 -0.4324 -0.2876  0.6156
  275SOL    HW2  825   0.715   1.382   1.064  0.8873  2.4700 -1.6184
  276SOL     OW  826   0.758   1.191   1.994 -0.6849  0.3976 -0.3074
  276SOL    HW1  827   0.715   1.283   2.012 -1.6496 -0.7433  2.1757
  276SOL    HW2  828   0.691   1.123   2.022 -1.1186  0.6145  0.4734
  277SOL     OW  829   1.186   2.242   1.950 -0.0632  0.6877 -0.3607
  277SOL    HW1  830   1.218   2.323   2.006 -1.0130 -1.2177  2.0671
  277SOL    HW2  831   1.085   2.225   1.969  0.0872  0.3686 -0.0031
  278SOL     OW  832   2.350   2.730   2.372 -0.2950  0.3984 -0.2736
  278SOL    HW1  833   2.340   2.737   2.471 -0.8320 -0.2440 -2.1280
  278SOL    HW2  834   2.276   2.671   2.330  0.3497 -1.6816 -1.4517
  279SOL     OW  835   1.383   1.780   0.025 -0.4323 -0.0418 -0.9572
  279SOL    HW1  836   1.457   1.818   0.087 -1.0453  2.3193  3.3775
  279SOL    HW2  837   1.324   1.851   3.100  3.0462 -2.7495  0.3052
  280SOL     OW  838   1.171   0.341   0.340  0.1069 -0.2113  0.2855
  280SOL    HW1  839   1.218   0.258   0.370  1.2720  1.6074  0.9863
  280SOL    HW2  840   1.240   0.415   0.355  1.2607 -2.8706 -0.2954
  281SOL     OW  841   0.299   0.403   1.448  0.3921  0.5637 -0.2424
  281SOL    HW1  842   0.392   0.436   1.461  0.7479  1.3532  0.3692
  281SOL    HW2  843   0.257   0.371   1.538 -2.3699 -0.2627  2.7367
  282SOL     OW  844   0.240   2.465   0.690  0.4747  0.0357  0.3601
  282SOL    HW1  845   0.204   2.393   0.754  1.0144  0.3462  0.9946
  282SOL    HW2  846   0.169   2.522   0.640 -0.5386 -0.0746 -1.5456
  283SOL     OW  847   1.497   1.885   1.885  0.1506 -0.4332 -0.0812
  283SOL    HW1  848   1.478   1.801   1.937  0.3314 -2.0168 -1.9430
  283SOL    HW2  849   1.575   1.937   1.923 -1.9817 -0.3245 -1.3269
  284SOL     OW  850   2.888   2.904   1.529  0.4290  0.1968  0.4136
  284SOL    HW1  851   2.808   2.950   1.566 -0.5458  2.6031 -0.5493
  284SOL    HW2  852   2.863   2.829   1.462  1.6766  2.1504  2.5107
  285SOL     OW  853   0.257   2.794   0.332  0.6486 -0.2910 -0.9679
  285SOL    HW1  854   0.168   2.828   0.297  3.5712 -3.0668  0.2433
  285SOL    HW2  855   0.260   2.702   0.293 -0.1444  0.7479 -2.0933
  286SOL     OW  856   0.494   2.758   1.172 -0.6278 -0.4428 -0.4830
  286SOL    HW1  857   0.547   2.838   1.210  1.8330  0.7015  2.6480
  286SOL    HW2  858   0.431   2.790   1.097  1.6366  0.4201  0.2888
  287SOL     OW  859   0.751   1.395   0.743 -0.0080  0.1367 -0.7658
  287SOL    HW1  860   0.848   1.374   0.759  0.9486  2.0219  0.6210
  287SOL    HW2  861   0.753   1.469   0.673  0.9018 -0.3517  0.2352
  288SOL     OW  862   1.888   2.021   2.863 -0.3070  0.2022  0.0782
  288SOL    HW1  863   1.933   1.968   2.788  1.2125 -0.6517  1.8782
  288SOL    HW2  864   1.951   2.086   2.903  0.6369 -2.5986 -0.8737
  289SOL     OW  865   2.614   1.633   0.434 -0.5062  0.1394 -0.1633
  289SOL    HW1  866   2.613   1.718   0.490 -0.0690  0.1659  1.6019
  289SOL    HW2  867   2.522   1.610   0.403  0.4781  1.8618  0.3883
  290SOL     OW  868   1.343   1.420   1.307  0.3167  0.2935  0.2802
  290SOL    HW1  869   1.282   1.479   1.362 -0.4758  0.3091  0.3999
  290SOL    HW2  870   1.299   1.380   1.221  1.1543 -1.1908 -0.5834
  291SOL     OW  871   1.369   1.124   0.034  0.1923  0.5476  0.3123
  291SOL    HW1  872   1.320   1.036   0.050  1.4191 -1.6668  0.7037
  291SOL    HW2  873   1.369   1.146   3.038  0.1198  0.6247 -1.5381
  292SOL     OW  874   1.435   1.513   0.333 -0.4336  0.3963 -0.1235
  292SOL    HW1  875   1.368   1.462   0.276 -1.7250 -1.5038 -0.2981
  292SOL    HW2  876   1.520   1.532   0.278  3.6370  1.9738 -2.6900
  293SOL     OW  877   1.133   3.009   0.893  0.3992  0.2225  0.1223
  293SOL    HW1  878   1.092   2.921   0.919  0.7998  0.0070  0.8763
  293SOL    HW2  879   1.078   3.069   0.834  2.7778  0.6240 -1.4275
  294SOL     OW  880   2.100   1.047   2.388 -0.6841  0.1247  0.1955
  294SOL    HW1  881   2.077   1.000   2.301  0.5114  0.1481  0.7486
  294SOL    HW2  882   2.015   1.053   2.446 -1.0541  1.3170  1.0749
  295SOL     OW  883   1.814   1.772   3.034  0.2070 -0.4681  0.2326
  295SOL    HW1  884   1.770   1.764   0.021 -0.2939  0.0417 -1.5825
  295SOL    HW2  885   1.791   1.852   2.978  2.3819  1.8257 -1.5773
  296SOL     OW  886   1.255   0.680   1.620  0.5384 -0.0275 -0.1181
  296SOL    HW1  887   1.155   0.704   1.633 -2.4746  1.3286  1.3303
  296SOL    HW2  888   1.283   0.684   1.525  0.0125  1.7833  1.8076
  297SOL     OW  889   0.061   0.570   2.029 -0.0575  0.3772  0.2714
  297SOL    HW1  890   3.087   0.504   2.010  0.4298 -2.5233 -2.7904
  297SOL    HW2  891   0.135   0.516   2.076  3.5411 -0.2122  3.0918
  298SOL     OW  892   1.428   1.865   1.396  0.0605 -0.4175  0.1700
  298SOL    HW1  893   1.375   1.882   1.479  2.5312  0.3930 -2.8674
  298SOL    HW2  894   1.493   1.788   1.415  0.4621 -1.7957  0.0016
  299SOL     OW  895   1.120   3.063   2.590 -0.2953  0.1904 -0.1933
  299SOL    HW1  896   1.219   3.050   2.592 -2.7316  0.6632 -0.0518
  299SOL    HW2  897   1.077   3.057   2.499 -0.8349  0.6082 -0.2166
  300SOL     OW  898   2.673   2.120   0.431 -0.3285  0.3240  0.3038
  300SOL    HW1  899   2.773   2.096   0.426  0.6297 -0.8881  0.0944
  300SOL    HW2  900   2.670   2.218   0.448  1.3453 -2.0300 -2.7897
  301SOL     OW  901   2.077   0.691   2.607 -0.2824 -0.1277  0.7340
  301SOL    HW1  902   2.153   0.743   2.564  2.8816 -3.3579  0.7514
  301SOL    HW2  903   2.002   0.749   2.640  1.1606 -4.1401 -2.5617
  302SOL     OW  904   2.498   2.275   0.021  0.1136  0.0684 -0.4856
  302SOL    HW1  905   2.517   2.197   0.088 -2.3814 -1.9509 -0.9012
  302SOL    HW2  906   2.543   2.250   3.041  0.8843 -3.2676 -1.8948
  303SOL     OW  907   3.098   2.356   0.077  0.2187  0.3855 -0.2126
  303SOL    HW1  908   3.028   2.380   0.150 -0.2437  1.4865  0.1205
  303SOL    HW2  909   3.099   2.417   3.102  1.8079 -1.7972 -0.0336
  304SOL     OW  910   0.207   1.734   1.004  0.4882  0.7733 -0.0279
  304SOL    HW1  911   0.125   1.717   1.066 -1.2137 -0.5239  2.0105
  304SOL    HW2  912   0.241   1.824   1.029 -0.3872  1.8055 -2.4153
  305SOL     OW  913   2.709   0.670   1.742 -0.3334  0.4817  0.0288
  305SOL    HW1  914   2.807   0.702   1.725  1.6160  0.8616  0.9751
  305SOL    HW2  915   2.669   0.654   1.650 -0.3280 -0.9329  0.5566
  306SOL     OW  916   1.661   1.548   0.907  0.2513  0.2660 -0.4258
  306SOL    HW1  917   1.556   1.545   0.902  0.8859  1.0977 -2.2260
  306SOL    HW2  918   1.702   1.638   0.922 -1.2161 -4.7365 -0.0008
  307SOL     OW  919   0.206   0.418   0.822 -0.1456 -0.1229  0.2199
  307SOL    HW1  920   0.162   0.402   0.731 -0.8766  0.6214 -0.0906
  307SOL    HW2  921   0.294   0.459   0.812 -0.1976 -1.5459 -0.6095
  308SOL     OW  922   3.016   1.293   1.936 -0.1990  0.0902  0.0856
  308SOL    HW1  923   3.017   1.194   1.962 -0.8520 -1.9264 -0.2434
  308SOL    HW2  924   3.022   1.302   1.833  0.8630 -0.9984  2.0209
  309SOL     OW  925   2.738   1.861   2.431 -0.1260  0.0501 -0.3472
  309SOL    HW1  926   2.732   1.937   2.370  1.8941 -2.5720  0.1918
  309SOL    HW2  927   2.815   1.882   2.497  2.5357  1.6792  2.2630
  310SOL     OW  928   2.459   1.067   2.935 -0.1516  0.6577  0.2557
  310SOL    HW1  929   2.541   1.115   2.905  1.9092 -0.4783  1.9622
  310SOL    HW2  930   2.419   1.008   2.867 -2.9734  1.2248  1.5412
  311SOL     OW  931   1.885   0.832   2.773 -0.7139 -0.8500  0.2241
  311SOL    HW1  932   1.959   0.893   2.804  1.9413 -0.1839 -1.2451
  311SOL    HW2  933   1.856   0.769   2.844  2.9348 -0.2501 -1.7736
  312SOL     OW  934   1.376   2.321   2.743  0.1919 -0.0484 -0.0389
  312SOL    HW1  935   1.362   2.246   2.675  1.5586 -1.8213 -1.2775
  312SOL    HW2  936   1.382   2.273   2.835  1.0609 -0.6423 -0.3965
  313SOL     OW  937   0.391   0.479   0.382 -0.2061 -0.0083  0.3487
  313SOL    HW1  938   0.351   0.425   0.305 -0.5418  0.7849  0.6879
  313SOL    HW2  939   0.440   0.556   0.341  0.7008 -0.5840  0.2888
  314SOL     OW  940   0.711   2.021   1.517  0.2460 -0.2910 -0.6745
  314SOL    HW1  941   0.766   2.024   1.608  1.0059 -0.2112  3.0138
  314SOL    HW2  942   0.751   1.940   1.467 -1.0889 -3.0852 -1.6115
  315SOL     OW  943   0.685   1.742   2.176 -0.1340  0.4110  0.1679
  315SOL    HW1  944   0.607   1.772   2.112  0.8047  1.8278 -3.0624
  315SOL    HW2  945   0.648   1.697   2.258  1.1476 -1.9311  0.1609
  316SOL     OW  946   0.475   2.581   0.689 -0.7630 -0.1368 -0.0230
  316SOL    HW1  947   0.380   2.543   0.706 -2.8764  0.1444  1.6571
  316SOL    HW2  948   0.538   2.578   0.769  4.8874 -0.9153 -0.2845
  317SOL     OW  949   2.340   0.190   1.309 -0.5691 -0.0031 -0.0620
  317SOL    HW1  950   2.386   0.223   1.390  0.0400 -2.3428 -1.1182
  317SOL    HW2  951   2.337   0.254   1.230 -0.4815 -0.0105 -0.4092
  318SOL     OW  952   1.819   2.887   0.383  0.0924  0.0570 -0.2007
  318SOL    HW1  953   1.813   2.938   0.474 -1.4438 -1.8802  0.3025
  318SOL    HW2  954   1.856   2.947   0.315 -1.7187  1.4556  0.4994
  319SOL     OW  955   1.542   0.500   2.779  0.1867 -0.0778  0.0987
  319SOL    HW1  956   1.464   0.566   2.791 -2.2472 -0.1345 -0.4643
  319SOL    HW2  957   1.507   0.404   2.769 -2.7758  4.0498 -1.7010
  320SOL     OW  958   2.941   2.132   1.891  0.2582 -0.3358  0.1378
  320SOL    HW1  959   2.897   2.093   1.808 -1.3625  0.5792  0.2554
  320SOL    HW2  960   2.923   2.076   1.973 -0.0711  1.9122 -0.0934
  321SOL     OW  961   0.540   2.478   2.937 -0.5097  0.1439  0.2168
  321SOL    HW1  962   0.631   2.443   2.956 -3.1698  1.8162  1.0154
  321SOL    HW2  963   0.516   2.558   3.003 -1.4193  1.5223  0.5552
  322SOL     OW  964   2.310   0.630   2.332  0.0442 -0.0265 -0.1797
  322SOL    HW1  965   2.333   0.628   2.237  0.6942 -1.2890 -1.2170
  322SOL    HW2  966   2.226   0.566   2.344  0.7928 -1.9720  1.0960
  323SOL     OW  967   2.297   1.143   0.599  0.0055 -0.6241  0.0587
  323SOL    HW1  968   2.360   1.080   0.642 -1.4611  1.8636 -2.3856
  323SOL    HW2  969   2.217   1.099   0.555 -0.2137  0.3119 -1.6855
  324SOL     OW  970   2.857   0.408   1.027 -0.1374 -0.6338 -0.2546
  324SOL    HW1  971   2.954   0.402   1.013 -0.5979 -0.1947 -2.8166
  324SOL    HW2  972   2.808   0.393   0.938 -1.4793 -2.9032  0.9624
  325SOL     OW  973   2.674   3.085   1.571 -0.3198 -0.1663 -0.1930
  325SOL    HW1  974   2.656   3.095   1.669 -1.7838 -2.5646 -0.3069
  325SOL    HW2  975   2.693   0.072   1.529  1.9464  2.5633 -0.9569
  326SOL     OW  976   1.720   2.783   0.134  0.3712  0.0752  0.2960
  326SOL    HW1  977   1.763   2.696   0.104  1.6387  0.1986  1.1351
  326SOL    HW2  978   1.738   2.805   0.232 -0.4902  1.0555 -0.6958
  327SOL     OW  979   1.833   1.806   0.402  0.1334 -0.0343  0.4921
  327SOL    HW1  980   1.829   1.907   0.389  1.7043 -3.1240 -0.1762
  327SOL    HW2  981   1.807   1.780   0.499 -0.0066 -0.0293 -0.0708
  328SOL     OW  982   2.946   2.224   2.175  0.2827  0.2088  0.6638
  328SOL    HW1  983   2.928   2.321   2.141  1.4995  2.3613 -1.4006
  328SOL    HW2  984   3.041   2.201   2.209  1.9714 -1.8414  0.1591
  329SOL     OW  985   0.128   2.280   1.348 -0.6801 -0.0254  0.3785
  329SOL    HW1  986   0.114   2.189   1.303  0.4839  0.5196 -0.4635
  329SOL    HW2  987   0.120   2.269   1.449 -0.5077 -0.0568 -2.3461
  330SOL     OW  988   2.553   0.799   2.441 -0.7057 -0.2047 -1.1101
  330SOL    HW1  989   2.515   0.743   2.515 -0.6691 -0.3789 -0.9552
  330SOL    HW2  990   2.499   0.789   2.353  0.8960 -2.4836  1.4322
  331SOL     OW  991   2.341   2.194   1.016 -0.1161 -0.1758  0.7829
  331SOL    HW1  992   2.267   2.130   1.044  1.4878  1.0309 -0.1411
  331SOL    HW2  993   2.298   2.270   0.958  3.5778 -0.5725  1.1102
  332SOL     OW  994   0.588   2.879   0.822 -0.5395 -0.1353  0.3690
  332SOL    HW1  995   0.615   2.976   0.843  2.3412 -0.4072  3.4288
  332SOL    HW2  996   0.506   2.857   0.878 -0.1791  1.9773  1.6950
  333SOL     OW  997   2.217   1.881   2.485 -0.5168  0.0598 -0.3030
  333SOL    HW1  998   2.183   1.972   2.506 -0.2423 -4.6814 -2.0878
  333SOL    HW2  999   2.280   1.856   2.560  1.1410  1.6572  2.3559
  334SOL     OW 1000   0.663   1.076   0.899 -0.3254  0.1419  0.2380
  334SOL    HW1 1001   0.755   1.119   0.909 -2.5737 -0.5454  0.0210
  334SOL    HW2 1002   0.586   1.112   0.956  0.3712 -1.8497  1.5908
  335SOL     OW 1003   0.069   1.859   2.201  0.0315  0.5445 -0.0264
  335SOL    HW1 1004   0.017   1.796   2.261  1.9236 -1.0989 -0.9695
  335SOL    HW2 1005   0.038   1.836   2.107 -1.4971 -0.5105 -0.8115
  336SOL     OW 1006   2.259   2.980   2.350  0.0136 -0.4375  0.0184
  336SOL    HW1 1007   2.260   2.880   2.332 -1.7902  1.8923  1.6518
  336SOL    HW2 1008   2.168   3.016   2.331  1.7199  1.9794 -1.0579
  337SOL     OW 1009   0.970   0.750   0.750 -0.0887  0.3004  0.0981
  337SOL    HW1 1010   0.939   0.847   0.758  0.4721  1.0745  1.8408
  337SOL    HW2 1011   0.967   0.696   0.837  1.3532 -0.6405  0.4376
  338SOL     OW 1012   1.552   2.026   1.218  0.4217  0.2830 -0.0969
  338SOL    HW1 1013   1.496   1.985   1.294 -1.1189 -0.2164  2.3875
  338SOL    HW2 1014   1.516   2.126   1.207  0.8178  1.4310 -1.6125
  339SOL     OW 1015   0.530   1.751   1.330  0.2179 -0.0268  0.1456
  339SOL    HW1 1016   0.552   1.651   1.308  3.1128 -2.8427  0.0573
  339SOL    HW2 1017   0.548   1.813   1.256 -2.5098 -1.5350  3.5967
  340SOL     OW 1018   1.072   2.967   1.798  0.2284 -0.2761  0.1337
  340SOL    HW1 1019   1.140   2.902   1.766  1.1784 -0.2314 -0.1896
  340SOL    HW2 1020   1.022   2.924   1.872  1.0951  0.7679 -1.2956
  341SOL     OW 1021   2.246   1.708   0.926 -0.1000  0.1123 -0.3918
  341SOL    HW1 1022   2.336   1.706   0.974 -0.0084 -1.3515 -2.2574
  341SOL    HW2 1023   2.246   1.658   0.839  0.5014  1.3762  4.1926
  342SOL     OW 1024   2.399   1.405   0.572  1.0899  0.9566 -0.6032
  342SOL    HW1 1025   2.360   1.311   0.563 -1.9570  0.2848 -1.1472
  342SOL    HW2 1026   2.500   1.393   0.581 -0.7688  0.0033  0.6909
  343SOL     OW 1027   2.075   0.159   0.852  0.2782 -0.1313  0.4992
  343SOL    HW1 1028   2.106   0.258   0.860 -0.3348  1.5314 -2.2552
  343SOL    HW2 1029   2.124   0.089   0.910  0.0983  0.4938 -0.2985
  344SOL     OW 1030   2.503   0.356   0.273 -0.2597 -0.0877  0.1166
  344SOL    HW1 1031   2.557   0.334   0.184  0.5411  0.0105  0.2621
  344SOL    HW2 1032   2.445   0.275   0.296 -0.4486  2.6103 -0.7681
  345SOL     OW 1033   0.959   2.526   1.991 -0.0688  0.3649  0.6951
  345SOL    HW1 1034   0.976   2.554   1.891  1.6734 -1.2068 -0.5768
  345SOL    HW2 1035   0.928   2.420   1.993  0.4193 -4.0169  0.2129
  346SOL     OW 1036   2.235   2.422   0.914  0.0205 -0.6538 -0.5558
  346SOL    HW1 1037   2.163   2.450   0.982  0.9555 -0.7685  1.3155
  346SOL    HW2 1038   2.267   2.506   0.864  3.3159  0.5453 -0.8105
  347SOL     OW 1039   2.375   3.056   1.221 -0.0436  0.2604  0.5655
  347SOL    HW1 1040   2.466   3.012   1.223 -0.6802 -1.9838 -1.5406
  347SOL    HW2 1041   2.371   0.050   1.245 -2.4852 -0.0836 -3.0919
  348SOL     OW 1042   0.796   0.614   1.466 -0.2648  0.3203  0.3454
  348SOL    HW1 1043   0.779   0.696   1.408  1.5763  1.3170 -1.3533
  348SOL    HW2 1044   0.815   0.529   1.413  0.7911  1.5905  0.3404
  349SOL     OW 1045   2.308   0.616   2.754  0.1654  0.3149 -0.0263
  349SOL    HW1 1046   2.222   0.630   2.697  0.6999 -1.6603 -1.0823
  349SOL    HW2 1047   2.378   0.567   2.698  0.4800 -0.1920 -0.2346
  350SOL     OW 1048   2.238   2.290   0.101  0.1722 -0.7081 -0.0414
  350SOL    HW1 1049   2.176   2.208   0.100 -2.2858  1.8796  0.7695
  350SOL    HW2 1050   2.331   2.265   0.063  1.8801 -0.5820  0.4550
  351SOL     OW 1051   0.915   0.477   0.328  0.2117  0.1014  0.0582
  351SOL    HW1 1052   0.942   0.552   0.387  1.0627 -0.7920  2.1826
  351SOL    HW2 1053   0.996   0.418   0.304 -0.3587 -1.8266  1.2906
  352SOL     OW 1054   1.593   2.047   2.880  0.0989 -0.0900  0.1542
  352SOL    HW1 1055   1.584   1.983   2.798  0.9633 -0.6191 -0.6262
  352SOL    HW2 1056   1.687   2.079   2.895  0.3582 -0.5289  0.9660
  353SOL     OW 1057   0.684   1.319   2.870  0.5384 -0.1980 -0.1931
  353SOL    HW1 1058   0.633   1.329   2.785  0.3542 -1.6519  1.4828
  353SOL    HW2 1059   0.749   1.396   2.878 -1.3949 -0.6187  0.9241
  354SOL     OW 1060   0.656   2.647   2.745  0.3030 -0.0342  0.1210
  354SOL    HW1 1061   0.590   2.578   2.789 -1.5589  0.7848  0.4435
  354SOL    HW2 1062   0.751   2.630   2.773 -2.8628  1.3008 -0.9479
  355SOL     OW 1063   2.367   2.689   1.588  0.1149 -0.4596 -0.4110
  355SOL    HW1 1064   2.399   2.783   1.571 -2.5824 -2.2347  0.3903
  355SOL    HW2 1065   2.445   2.624   1.581 -1.0834  3.7148  0.1597
  356SOL     OW 1066   2.707   1.089   0.974  0.0684 -0.3169 -0.5086
  356SOL    HW1 1067   2.625   1.105   1.036 -0.6644  0.7319  1.6748
  356SOL    HW2 1068   2.716   0.989   0.956 -2.0299  2.6860  0.5083
  357SOL     OW 1069   2.765   0.191   1.437  0.4475  0.2028  0.3324
  357SOL    HW1 1070   2.848   0.253   1.448  1.3917  0.1093  0.2014
  357SOL    HW2 1071   2.712   0.212   1.351 -0.4548  0.8736 -2.3923
  358SOL     OW 1072   0.295   1.646   1.716  0.3702  0.0284 -0.2071
  358SOL    HW1 1073   0.365   1.703   1.670  1.1360 -2.8467  0.3512
  358SOL    HW2 1074   0.320   1.641   1.816  0.9260  3.3237 -0.3591
  359SOL     OW 1075   2.876   2.890   2.528  0.3838 -0.1416  0.4954
  359SOL    HW1 1076   2.789   2.936   2.552  1.3780 -2.5590 -1.5148
  359SOL    HW2 1077   2.910   2.916   2.433 -0.0553  1.6702  0.1689
  360SOL     OW 1078   1.111   0.344   1.452  0.8885  0.0520 -0.3274
  360SOL    HW1 1079   1.131   0.413   1.382 -0.6529  0.8424  0.5787
  360SOL    HW2 1080   1.175   0.361   1.530 -1.7015  1.0699  0.8063
  361SOL     OW 1081   2.340   2.643   1.113 -0.1149 -0.4807  0.0003
  361SOL    HW1 1082   2.302   2.736   1.126  1.2179 -2.2177 -0.1403
  361SOL    HW2 1083   2.426   2.642   1.068 -1.7690  2.6006 -0.2326
  362SOL     OW 1084   0.818   0.055   0.500 -0.1447  0.7548  0.2723
  362SOL    HW1 1085   0.746   3.097   0.536 -1.5416  0.7555 -0.4351
  362SOL    HW2 1086   0.903   0.012   0.464  1.7057  0.0327  0.0158
  363SOL     OW 1087   1.270   1.455   0.739 -0.0871  0.4285  0.2374
  363SOL    HW1 1088   1.329   1.410   0.672  2.0460  0.6900  0.1322
  363SOL    HW2 1089   1.321   1.464   0.829 -0.0769  0.9277  0.6972
  364SOL     OW 1090   0.334   0.793   1.714  0.2791 -0.2753 -0.3778
  364SOL    HW1 1091   0.408   0.869   1.715 -0.1040  0.3101 -1.9405
  364SOL    HW2 1092   0.369   0.709   1.668 -1.2025  0.7970 -0.8876
  365SOL     OW 1093   2.812   0.839   0.922 -0.5512 -0.0910 -0.2424
  365SOL    HW1 1094   2.890   0.823   0.992 -0.5434 -1.6783 -0.5225
  365SOL    HW2 1095   2.828   0.773   0.846 -1.0597  0.9783  0.9880
  366SOL     OW 1096   2.621   1.573   0.888 -0.5106  0.2730 -0.3380
  366SOL    HW1 1097   2.580   1.487   0.927 -0.7645  0.9944 -1.4219
  366SOL    HW2 1098   2.720   1.561   0.888 -0.1031 -1.3259  1.7926
  367SOL     OW 1099   2.060   1.969   2.120 -0.9414 -0.0614 -0.7068
  367SOL    HW1 1100   2.158   1.968   2.154  2.1833 -0.6277  0.6503
  367SOL    HW2 1101   2.003   1.990   2.199  1.1988  0.2160 -1.3956
  368SOL     OW 1102   2.524   2.000   0.980 -0.0167 -0.0667  0.0187
  368SOL    HW1 1103   2.552   1.976   0.888 -1.9699 -0.4446  1.5471
  368SOL    HW2 1104   2.475   2.090   0.989 -2.1321  3.3750  1.7183
  369SOL     OW 1105   2.301   2.699   2.648  0.0939  0.3387  0.2346
  369SOL    HW1 1106   2.200   2.684   2.637  2.2287 -1.0252  2.2568
  369SOL    HW2 1107   2.320   2.776   2.712  0.4590 -0.5394 -1.3312
  370SOL     OW 1108   0.241   0.307   1.201 -0.3624  0.3814  0.1015
  370SOL    HW1 1109   0.275   0.322   1.298  1.0059 -0.1205  1.1259
  370SOL    HW2 1110   0.300   0.238   1.148  1.4891  1.2031 -1.9582
  371SOL     OW 1111   0.741   1.933   0.295  0.0955  0.0966 -0.3727
  371SOL    HW1 1112   0.718   1.861   0.228  1.0690 -2.5955  1.8768
  371SOL    HW2 1113   0.721   1.891   0.385  1.0178  1.0028 -2.2612
  372SOL     OW 1114   0.924   1.056   3.056 -0.5593 -0.2432 -0.3266
  372SOL    HW1 1115   0.965   1.021   0.043  0.2322 -1.8827  3.3859
  372SOL    HW2 1116   0.940   0.990   2.984 -0.5533  0.8918  1.5346
  373SOL     OW 1117   1.395   2.501   2.468 -0.1589 -0.3903 -0.3850
  373SOL    HW1 1118   1.419   2.506   2.568  0.2140  0.1168  1.1970
  373SOL    HW2 1119   1.471   2.461   2.412 -0.9292  1.6347  0.7998
  374SOL     OW 1120   0.537   2.126   0.283  0.4780 -0.3291  0.0200
  374SOL    HW1 1121   0.463   2.101   0.348 -0.5826 -0.1951  1.7012
  374SOL    HW2 1122   0.613   2.062   0.294 -0.7626  0.5757 -0.4270
  375SOL     OW 1123   0.615   0.849   1.975  0.2716 -0.1523  0.1386
  375SOL    HW1 1124   0.557   0.766   1.998 -1.8979 -0.0923  0.6855
  375SOL    HW2 1125   0.708   0.822   1.974 -1.4878  0.6748 -1.6046
  376SOL     OW 1126   0.383   2.310   1.793 -0.0007  0.1721 -0.1287
  376SOL    HW1 1127   0.291   2.272   1.777  0.5976 -1.1286  0.8992
  376SOL    HW2 1128   0.370   2.406   1.834 -2.2675  1.1255  1.3284
  377SOL     OW 1129   2.879   1.475   2.477 -0.0116 -0.0366  0.2555
  377SOL    HW1 1130   2.782   1.462   2.505 -2.5176  4.5817 -1.5259
  377SOL    HW2 1131   2.943   1.480   2.551 -1.1865 -2.5421 -0.7977
  378SOL     OW 1132   1.580   2.886   3.038 -0.1706  0.6374 -0.6569
  378SOL    HW1 1133   1.635   2.861   0.016 -1.7193  0.8803 -0.0504
  378SOL    HW2 1134   1.490   2.927   3.065 -0.0844  1.5150  0.0653
  379SOL     OW 1135   1.581   0.765   0.681 -0.5447  0.5576  0.6368
  379SOL    HW1 1136   1.526   0.738   0.762  2.6306  4.4026  1.2108
  379SOL    HW2 1137   1.563   0.862   0.647 -2.0327  2.8905 -0.3340
  380SOL     OW 1138   0.294   2.027   1.580 -0.2287  0.4675 -0.4310
  380SOL    HW1 1139   0.336   1.939   1.602  2.0931  0.2353  1.2660
  380SOL    HW2 1140   0.243   2.052   1.662  0.7449  0.0221 -0.1552
  381SOL     OW 1141   2.434   1.572   2.601 -0.3502  0.0033  0.2011
  381SOL    HW1 1142   2.414   1.671   2.581 -1.8401  1.8641 -1.7833
  381SOL    HW2 1143   2.350   1.517   2.574 -2.1017 -2.1148 -1.4316
  382SOL     OW 1144   0.059   0.172   2.708 -0.4321  0.5892  0.2386
  382SOL    HW1 1145   3.090   0.121   2.660  0.3957  0.0330  1.9817
  382SOL    HW2 1146   0.134   0.191   2.647 -0.7660 -0.6315  1.1724
  383SOL     OW 1147   1.855   1.238   3.017  0.1032 -0.6895  0.1097
  383SOL    HW1 1148   1.942   1.291   2.999  0.7830  2.6724  0.8480
  383SOL    HW2 1149   1.777   1.298   2.993 -0.5521  0.9841  1.2979
  384SOL     OW 1150   1.034   2.029   1.397 -0.9326  0.3487 -0.8141
  384SOL    HW1 1151   0.980   2.080   1.334  0.2116 -1.0865 -0.0525
  384SOL    HW2 1152   1.124   2.080   1.412  1.3581  2.5908  0.9093
  385SOL     OW 1153   1.767   2.797   0.820  0.0317  0.0224 -0.1437
  385SOL    HW1 1154   1.725   2.862   0.888  0.9769  2.8054  3.0982
  385SOL    HW2 1155   1.695   2.730   0.794  1.3878  3.0908  0.9529
  386SOL     OW 1156   1.567   2.239   0.874  0.6247 -0.4461  0.0583
  386SOL    HW1 1157   1.629   2.188   0.933 -1.0133 -0.1462 -2.3589
  386SOL    HW2 1158   1.537   2.330   0.914  0.3967  0.3283  3.0696
  387SOL     OW 1159   2.821   2.232   1.326 -0.0558  0.0608 -0.4090
  387SOL    HW1 1160   2.728   2.254   1.369 -0.6965 -0.6784  2.3936
  387SOL    HW2 1161   2.889   2.290   1.375  0.9490  2.2543  0.6249
  388SOL     OW 1162   2.692   0.891   1.412  0.0458 -0.1643 -0.1394
  388SOL    HW1 1163   2.666   0.800   1.442  1.9890  1.9954 -1.9870
  388SOL    HW2 1164   2.782   0.920   1.445 -2.7948  2.4711 -0.3806
  389SOL     OW 1165   1.813   0.833   0.313 -0.2415 -0.6854  0.1112
  389SOL    HW1 1166   1.815   0.868   0.215  1.5931 -0.9766 -1.6182
  389SOL    HW2 1167   1.798   0.731   0.311  0.7071 -0.8076  1.6191
  390SOL     OW 1168   1.500   1.841   2.697  0.4015  0.1253 -0.4908
  390SOL    HW1 1169   1.428   1.854   2.624  0.1836  0.2917 -0.0039
  390SOL    HW2 1170   1.582   1.785   2.657  3.2604 -2.7575 -0.3409
  391SOL     OW 1171   1.126   2.095   0.118  0.1832  0.1471 -0.2057
  391SOL    HW1 1172   1.173   2.168   0.169 -3.1260  0.6480 -2.7771
  391SOL    HW2 1173   1.058   2.136   0.051  1.5571  0.8718 -0.6893
  392SOL     OW 1174   0.237   2.686   1.804  0.0985 -1.0937 -0.0054
  392SOL    HW1 1175   0.308   2.725   1.741 -0.3731 -2.1561 -0.0196
  392SOL    HW2 1176   0.280   2.643   1.881 -1.9581 -1.7591 -2.3651
  393SOL     OW 1177   1.515   2.562   0.168 -0.5980  0.3120  0.8152
  393SOL    HW1 1178   1.604   2.528   0.210  2.0532 -1.2350  0.5718
  393SOL    HW2 1179   1.471   2.635   0.221  0.4131 -3.2930 -0.6062
  394SOL     OW 1180   0.388   0.610   2.291  0.4616 -0.2159  0.1557
  394SOL    HW1 1181   0.342   0.686   2.347  0.5996  2.4859  0.4201
  394SOL    HW2 1182   0.316   0.551   2.255  0.8459  2.6232 -1.1585
  395SOL     OW 1183   0.437   1.215   1.049  0.0615 -0.7917 -0.2241
  395SOL    HW1 1184   0.501   1.292   1.045  1.4599 -0.1835  0.8027
  395SOL    HW2 1185   0.341   1.239   1.039  1.2992 -1.2748  4.8932
  396SOL     OW 1186   1.627   1.116   2.279  0.3105  0.5582  1.3656
  396SOL    HW1 1187   1.609   1.216   2.269 -0.3794 -0.5226 -2.4494
  396SOL    HW2 1188   1.595   1.066   2.195 -1.0772 -0.4908 -2.2326
  397SOL     OW 1189   0.763   0.105   0.079 -0.2335  0.0382  0.2203
  397SOL    HW1 1190   0.756   0.097   3.081  2.0398  0.8362  0.7312
  397SOL    HW2 1191   0.707   0.185   0.118  0.6215  3.8347  0.6670
  398SOL     OW 1192   0.756   2.228   2.704  0.3373 -0.6075 -0.1086
  398SOL    HW1 1193   0.823   2.221   2.779  0.3526  2.0459 -1.0144
  398SOL    HW2 1194   0.673   2.175   2.729  0.8718 -1.1251  0.5712
  399SOL     OW 1195   2.213   1.433   2.534  0.2924 -0.1304 -0.2898
  399SOL    HW1 1196   2.127   1.432   2.588  0.5803  2.9734 -1.4567
  399SOL    HW2 1197   2.192   1.439   2.434  0.1547 -1.0858  2.2571
  400SOL     OW 1198   2.155   1.360   1.434  0.1724 -0.0239 -0.6802
  400SOL    HW1 1199   2.120   1.284   1.377  2.4972 -1.8195 -1.5853
  400SOL    HW2 1200   2.122   1.455   1.404 -0.2376  2.4398 -0.5762
  401SOL     OW 1201   1.207   1.298   1.094 -0.2285  0.2795 -0.1493
  401SOL    HW1 1202   1.183   1.210   1.048 -0.2262 -3.6230  0.5372
  401SOL    HW2 1203   1.128   1.329   1.153  0.8792  1.0867  1.4797
  402SOL     OW 1204   0.014   2.571   1.727 -0.5248 -0.2084 -0.2945
  402SOL    HW1 1205   0.001   2.580   1.625 -1.0256  0.7853 -1.9685
  402SOL    HW2 1206   0.102   2.622   1.752  1.7490  1.2745 -1.6066
  403SOL     OW 1207   0.110   1.310   2.263 -0.0390  0.6083  0.2651
  403SOL    HW1 1208   0.103   1.371   2.346 -1.6316  1.7105  0.8782
  403SOL    HW2 1209   0.015   1.315   2.230  0.9086 -1.0753  1.1198
  404SOL     OW 1210   2.343   1.746   1.313 -0.3811  0.3183  0.0216
  404SOL    HW1 1211   2.330   1.839   1.352 -0.2505 -0.9776 -1.3550
  404SOL    HW2 1212   2.390   1.756   1.222 -0.2478  0.4600  0.3611
  405SOL     OW 1213   2.712   0.442   2.495 -0.5489 -0.3730 -0.0681
  405SOL    HW1 1214   2.745   0.535   2.467 -1.0732 -2.6565  0.1014
  405SOL    HW2 1215   2.760   0.368   2.438  2.7546 -3.8245  0.9749
  406SOL     OW 1216   0.992   1.334   3.088 -0.6400  0.1761 -0.2707
  406SOL    HW1 1217   1.004   1.316   0.086 -0.8498  0.7464  2.0467
  406SOL    HW2 1218   0.969   1.244   3.041  1.9352 -1.0126  0.4158
  407SOL     OW 1219   1.866   2.585   0.015  0.2316  0.3265  0.8632
  407SOL    HW1 1220   1.815   2.495   0.024 -2.6914  0.5571 -0.4087
  407SOL    HW2 1221   1.880   2.605   3.019  0.8871 -0.8743  1.4249
  408SOL     OW 1222   0.393   0.112   0.053 -0.1140 -0.1004  0.1644
  408SOL    HW1 1223   0.363   0.028   0.099  2.4136  1.1439  0.3421
  408SOL    HW2 1224   0.389   0.101   3.054  0.9078  0.6883 -1.0465
  409SOL     OW 1225   2.495   1.750   1.079  0.1675  0.1145  0.2279
  409SOL    HW1 1226   2.560   1.690   1.020  2.2524 -2.1365 -2.1970
  409SOL    HW2 1227   2.510   1.849   1.064 -1.2973  0.4412 -1.4983
  410SOL     OW 1228   2.281   2.147   2.832 -0.4081  0.8607 -0.4264
  410SOL    HW1 1229   2.316   2.105   2.917  0.7340  0.3835  0.7472
  410SOL    HW2 1230   2.241   2.238   2.853  1.1866  0.7767  3.6342
  411SOL     OW 1231   0.254   1.092   0.656  0.2418  0.2636  0.1591
  411SOL    HW1 1232   0.157   1.064   0.643 -1.3689 -2.6287  0.1692
  411SOL    HW2 1233   0.255   1.194   0.654  3.2120 -0.9162 -1.8390
  412SOL     OW 1234   1.421   2.774   0.347 -0.2331 -0.1006  0.1051
  412SOL    HW1 1235   1.505   2.729   0.393  0.3162 -1.1686  1.9043
  412SOL    HW2 1236   1.432   2.876   0.348 -0.7027  0.6332  0.3796
  413SOL     OW 1237   1.670   0.271   2.420 -0.1198 -0.1545 -0.0594
  413SOL    HW1 1238   1.566   0.273   2.436  0.7003  1.8828 -4.6064
  413SOL    HW2 1239   1.711   0.181   2.448 -0.0079  1.6989  0.5049
  414SOL     OW 1240   2.918   0.594   0.480 -0.0870 -0.3624 -0.1272
  414SOL    HW1 1241   2.985   0.623   0.410  3.0310  0.4498  2.8418
  414SOL    HW2 1242   2.925   0.498   0.511  0.3420 -2.3721  2.4892
  415SOL     OW 1243   0.825   1.579   1.411  0.4254  0.2657  0.1110
  415SOL    HW1 1244   0.849   1.651   1.485 -1.0962  0.4643  1.7534
  415SOL    HW2 1245   0.843   1.482   1.444  0.1161 -0.8396  3.9982
  416SOL     OW 1246   0.397   0.058   2.878  0.1837  0.4141  0.1295
  416SOL    HW1 1247   0.416   0.160   2.869  2.6493  4.0042  1.3576
  416SOL    HW2 1248   0.465   0.006   2.816  0.0577 -0.9463 -4.3437
  417SOL     OW 1249   2.586   2.899   1.158  0.3569 -0.3347  0.6960
  417SOL    HW1 1250   2.589   2.851   1.068  1.6288 -0.2919 -2.5569
  417SOL    HW2 1251   2.675   2.889   1.207 -1.7596 -0.0169 -1.4665
  418SOL     OW 1252   0.741   0.511   2.642  0.0888 -0.2704 -0.1912
  418SOL    HW1 1253   0.678   0.487   2.564 -0.0225 -2.1146  0.1797
  418SOL    HW2 1254   0.782   0.603   2.624 -1.9197 -0.8162 -0.3375
  419SOL     OW 1255   0.241   1.413   1.202  0.0783  0.1373  0.4597
  419SOL    HW1 1256   0.287   1.461   1.120  3.7278 -1.6386  2.8175
  419SOL    HW2 1257   0.141   1.393   1.196 -2.7604 -0.4935 -1.6297
  420SOL     OW 1258   0.793   1.923   1.117  0.1027 -0.2946 -0.0489
  420SOL    HW1 1259   0.833   2.016   1.112 -2.1967 -1.6944 -1.9022
  420SOL    HW2 1260   0.694   1.929   1.141 -1.6129  0.9212 -1.0341
  421SOL     OW 1261   2.033   2.205   1.982  0.3264 -0.2478  0.1831
  421SOL    HW1 1262   2.002   2.202   1.886  0.0545  0.1475  0.8326
  421SOL    HW2 1263   2.034   2.111   2.019  3.0792  2.7943 -0.3865
  422SOL     OW 1264   3.023   0.446   2.752 -0.0587  0.1343 -0.0591
  422SOL    HW1 1265   3.068   0.355   2.745  0.1060  3.7351  0.1327
  422SOL    HW2 1266   2.924   0.440   2.776  0.0052  1.7972 -0.4850
  423SOL     OW 1267   1.128   2.002   1.067 -0.3163 -0.1851  0.6356
  423SOL    HW1 1268   1.057   2.027   0.997  2.0369 -2.2775  1.3246
  423SOL    HW2 1269   1.091   1.935   1.131 -1.7716 -0.8295  0.0040
  424SOL     OW 1270   0.768   1.345   1.608  0.1081  0.0971 -0.4425
  424SOL    HW1 1271   0.695   1.298   1.552  1.9166  0.5247  0.6715
  424SOL    HW2 1272   0.722   1.409   1.675  0.2403  0.7759 -1.6964
  425SOL     OW 1273   2.996   2.722   2.135 -0.2183 -0.3426 -0.4370
  425SOL    HW1 1274   3.084   2.696   2.181 -1.1468  0.6993  0.2303
  425SOL    HW2 1275   3.012   2.770   2.050  0.4427  1.3876  0.5275
  426SOL     OW 1276   1.816   2.991   0.619  0.3764  0.0802 -0.3115
  426SOL    HW1 1277   1.832   2.924   0.692 -0.5950  3.4126  2.9305
  426SOL    HW2 1278   1.894   3.056   0.615  0.8059 -1.7420 -1.1444
  427SOL     OW 1279   0.920   0.725   2.885  0.1870  0.5896  0.1570
  427SOL    HW1 1280   0.948   0.669   2.970 -1.6694 -1.8345  3.3706
  427SOL    HW2 1281   0.954   0.821   2.890  1.7581  1.0349  0.5155
  428SOL     OW 1282   1.810   1.192   0.313  0.7721  0.5656 -0.4128
  428SOL    HW1 1283   1.715   1.204   0.275  0.4412 -0.5266  0.7062
  428SOL    HW2 1284   1.867   1.134   0.250 -1.1935 -0.1577 -2.0771
  429SOL     OW 1285   0.007   2.881   0.541 -0.2503 -0.0453 -0.2287
  429SOL    HW1 1286   0.073   2.931   0.603  1.8681  2.1165 -2.3878
  429SOL    HW2 1287   3.087   2.951   0.468  1.4748  3.5720  0.7342
  430SOL     OW 1288   0.378   2.877   2.196 -0.1561  0.0241  0.0745
  430SOL    HW1 1289   0.424   2.801   2.251 -2.6061  1.5190  1.1785
  430SOL    HW2 1290   0.446   2.918   2.134 -2.4235  0.2181  1.3840
  431SOL     OW 1291   2.444   0.950   1.312  0.2319  0.3020  0.6979
  431SOL    HW1 1292   2.468   0.987   1.220 -0.8297 -0.0124 -0.1609
  431SOL    HW2 1293   2.530   0.941   1.366  0.1087  1.0656 -0.6165
  432SOL     OW 1294   1.961   2.378   2.197 -0.1125 -0.1541 -0.2485
  432SOL    HW1 1295   1.864   2.413   2.188 -0.9479  0.0311  1.9012
  432SOL    HW2 1296   1.972   2.301   2.127 -0.4840 -3.5428 -1.5250
  433SOL     OW 1297   1.212   2.293   0.711  0.2775 -0.5755 -0.5049
  433SOL    HW1 1298   1.233   2.195   0.710 -1.3455  2.0592 -0.5329
  433SOL    HW2 1299   1.290   2.343   0.753 -0.9663  3.2718  0.5244
  434SOL     OW 1300   0.273   2.182   2.221 -0.0670 -0.0733  0.4625
  434SOL    HW1 1301   0.192   2.145   2.274 -1.8131  1.0200 -1.5663
  434SOL    HW2 1302   0.256   2.283   2.199  0.2485  0.8340 -1.5308
  435SOL     OW 1303   0.381   0.851   0.220 -0.1391 -0.1310 -0.2700
  435SOL    HW1 1304   0.309   0.780   0.201  1.2800 -0.9007  0.5097
  435SOL    HW2 1305   0.435   0.867   0.134 -0.4614 -2.0637  0.3896
  436SOL     OW 1306   0.419   2.760   1.582 -0.0659  0.2228  0.1092
  436SOL    HW1 1307   0.508   2.729   1.543 -1.8965 -1.3592  0.8993
  436SOL    HW2 1308   0.415   2.858   1.562 -1.1832 -2.0303  1.6307
  437SOL     OW 1309   1.535   2.166   1.650  0.6141 -0.8504 -0.1811
  437SOL    HW1 1310   1.622   2.136   1.696  1.8186 -1.0430 -2.0852
  437SOL    HW2 1311   1.552   2.185   1.550  1.6954 -0.8561 -2.4524
  438SOL     OW 1312   0.028   1.768   0.618 -0.2200  0.0715  0.3587
  438SOL    HW1 1313   0.073   1.715   0.693 -0.5886  1.0656  1.4572
  438SOL    HW2 1314   3.096   1.706   0.547  0.1573  3.2854  1.2973
  439SOL     OW 1315   0.069   0.693   0.736 -0.1814 -0.5580 -0.6610
  439SOL    HW1 1316   0.133   0.708   0.816  2.9329  2.1046  0.1402
  439SOL    HW2 1317   0.010   0.616   0.756 -0.5877  3.1043 -1.6590
  440SOL     OW 1318   0.306   2.926   2.554  0.4958 -0.0164  0.4400
  440SOL    HW1 1319   0.348   2.984   2.624 -0.4347  1.0914 -1.5758
  440SOL    HW2 1320   0.365   2.848   2.525 -1.7579  2.3570 -1.4832
  441SOL     OW 1321   3.044   0.279   0.843  0.2596 -0.2589 -0.3637
  441SOL    HW1 1322   0.038   0.274   0.871  2.1475 -0.0612  2.0323
  441SOL    HW2 1323   2.993   0.188   0.854  1.4874 -1.4060 -3.8471
  442SOL     OW 1324   1.329   2.129   2.545 -0.5120 -0.1337 -0.4226
  442SOL    HW1 1325   1.315   2.034   2.514 -0.6781  2.5589 -0.1745
  442SOL    HW2 1326   1.416   2.158   2.505 -0.6586  0.9951  1.0864
  443SOL     OW 1327   0.676   1.169   3.103  0.2194  0.2873  0.4249
  443SOL    HW1 1328   0.673   1.229   3.021  1.4900 -0.2627  0.4615
  443SOL    HW2 1329   0.760   1.109   3.103 -1.2743 -1.4438 -0.2000
  444SOL     OW 1330   1.594   1.388   2.260 -0.8844  0.0982  0.4328
  444SOL    HW1 1331   1.555   1.426   2.170 -0.4859  3.3919 -1.9269
  444SOL    HW2 1332   1.551   1.423   2.344  1.2454  2.3210 -0.7841
  445SOL     OW 1333   0.206   3.082   0.955  0.2009  0.3575 -0.1185
  445SOL    HW1 1334   0.283   0.046   0.983  2.4352  2.2559  1.8739
  445SOL    HW2 1335   0.115   0.003   0.992  0.4589  0.0164 -0.8855
  446SOL     OW 1336   2.168   0.504   1.329  0.2652  0.0596 -0.6466
  446SOL    HW1 1337   2.130   0.596   1.300  1.1306 -0.2166 -3.0621
  446SOL    HW2 1338   2.159   0.443   1.249  2.5922 -0.9963 -1.1912
  447SOL     OW 1339   0.143   0.823   2.862 -0.4764  0.5110 -0.1877
  447SOL    HW1 1340   0.120   0.727   2.885  3.2962 -1.3167 -2.2432
  447SOL    HW2 1341   0.069   0.892   2.888  0.0178  1.3568 -2.0227
  448SOL     OW 1342   1.357   1.958   1.652  0.4029  0.1362 -0.2496
  448SOL    HW1 1343   1.408   2.045   1.636 -1.0033  0.3180  2.0974
  448SOL    HW2 1344   1.400   1.916   1.736  1.6158 -1.9962  1.7633
  449SOL     OW 1345   1.005   1.381   0.828 -0.2014 -0.0017  0.2012
  449SOL    HW1 1346   1.090   1.361   0.784 -0.2545  0.2819  0.1616
  449SOL    HW2 1347   1.004   1.479   0.857 -1.3436  1.4515 -1.1526
  450SOL     OW 1348   2.862   1.914   2.040  0.1670 -0.1401 -0.0478
  450SOL    HW1 1349   2.826   1.955   2.129 -0.9080  2.1614  1.7160
  450SOL    HW2 1350   2.801   1.925   1.961  1.1349  0.6122  3.7959
  451SOL     OW 1351   2.290   1.545   2.950  0.1805 -0.0834 -0.5402
  451SOL    HW1 1352   2.302   1.526   3.051 -1.7224  3.1259 -0.8120
  451SOL    HW2 1353   2.298   1.641   2.930  0.9391 -3.3896 -1.0548
  452SOL     OW 1354   1.552   0.719   1.277  0.0670 -0.0715  0.2667
  452SOL    HW1 1355   1.465   0.694   1.320 -0.3761  0.6334 -2.6850
  452SOL    HW2 1356   1.603   0.795   1.328  0.2863  0.1675  1.0250
  453SOL     OW 1357   2.033   0.982   1.548  0.3833 -0.8990 -0.0795
  453SOL    HW1 1358   1.979   1.039   1.485  1.0714  0.4208 -0.5548
  453SOL    HW2 1359   2.119   0.946   1.502 -0.5208  1.4670 -0.4716
  454SOL     OW 1360   2.812   0.992   0.082  0.5786  0.2084 -0.0070
  454SOL    HW1 1361   2.896   0.932   0.076  0.9262 -0.0188 -2.0122
  454SOL    HW2 1362   2.762   0.971   0.167 -1.7792 -3.0722 -1.2796
  455SOL     OW 1363   2.718   1.464   1.199 -0.2268 -0.2728  0.4556
  455SOL    HW1 1364   2.624   1.500   1.193 -1.0362  0.9035  0.2311
  455SOL    HW2 1365   2.779   1.542   1.231 -3.4248 -0.3157  0.0822
  456SOL     OW 1366   0.888   0.074   1.242  0.5911  0.0697 -0.0597
  456SOL    HW1 1367   0.826   0.007   1.193 -2.3763 -3.8881  0.6966
  456SOL    HW2 1368   0.955   0.018   1.288 -1.0558  1.8354 -2.6308
  457SOL     OW 1369   1.695   3.013   0.951  0.2561  0.4365 -0.5356
  457SOL    HW1 1370   1.614   3.036   1.009 -1.0105 -1.3051  1.4166
  457SOL    HW2 1371   1.737   3.103   0.915  0.2446 -1.7435  2.2307
  458SOL     OW 1372   2.554   0.238   0.621 -0.0521 -0.2903 -0.4031
  458SOL    HW1 1373   2.524   0.324   0.573 -0.9113  0.1583 -0.2888
  458SOL    HW2 1374   2.495   0.159   0.631  1.9396 -2.9793 -0.0211
  459SOL     OW 1375   1.608   0.886   0.016  0.4176  0.3223 -0.0806
  459SOL    HW1 1376   1.546   0.949   0.057  1.8348 -2.3342 -0.7254
  459SOL    HW2 1377   1.562   0.842   3.041 -2.4556  0.5361 -0.5130
  460SOL     OW 1378   0.057   2.513   2.582 -0.1293 -0.0616 -0.2629
  460SOL    HW1 1379   3.072   2.547   2.548  0.0423  3.1841  1.3147
  460SOL    HW2 1380   0.093   2.582   2.647  0.7372 -0.9378  2.8707
  461SOL     OW 1381   0.699   1.735   0.121  0.4245  0.1251 -0.3284
  461SOL    HW1 1382   0.645   1.654   0.146 -1.6787 -1.1964  1.5825
  461SOL    HW2 1383   0.651   1.783   0.045 -1.1124  2.5287  1.2874
  462SOL     OW 1384   1.978   2.537   0.602  0.1486  0.2253  0.2072
  462SOL    HW1 1385   1.903   2.468   0.606 -0.8019  0.0392 -0.4927
  462SOL    HW2 1386   1.978   2.589   0.688 -2.1151  0.4390 -0.7608
  463SOL     OW 1387   2.982   0.735   0.231 -0.1583  0.2553 -0.5502
  463SOL    HW1 1388   2.999   0.813   0.295  0.0685  1.2099  2.8457
  463SOL    HW2 1389   3.007   0.760   0.137 -0.7119  0.7065  0.8053
  464SOL     OW 1390   0.636   2.562   0.448  0.2111  0.3946  0.2760
  464SOL    HW1 1391   0.570   2.561   0.523 -0.2785 -0.2524  0.1568
  464SOL    HW2 1392   0.600   2.504   0.367 -1.0772 -2.8561 -1.4601
  465SOL     OW 1393   2.230   0.644   0.485  0.3788 -0.5463  0.2922
  465SOL    HW1 1394   2.161   0.572   0.475  1.2963  1.2508  3.6432
  465SOL    HW2 1395   2.234   0.709   0.405 -0.0004  0.2080  0.9303
  466SOL     OW 1396   1.917   0.190   0.162 -0.2404 -0.1725  0.0906
  466SOL    HW1 1397   1.966   0.262   0.210 -1.8749 -1.8402  2.2417
  466SOL    HW2 1398   1.962   0.099   0.170  1.6975  1.9374  1.6105
  467SOL     OW 1399   1.200   0.429   1.843  0.6430  0.3179  0.0820
  467SOL    HW1 1400   1.189   0.349   1.906  0.8791 -1.7081  1.0185
  467SOL    HW2 1401   1.279   0.487   1.876 -1.2179  4.0533  0.1950
  468SOL     OW 1402   2.800   0.707   2.097  0.8908  0.2719  0.0304
  468SOL    HW1 1403   2.884   0.763   2.078  1.2125 -1.3587 -3.3259
  468SOL    HW2 1404   2.727   0.739   2.034  2.8351  0.9159 -2.8036
  469SOL     OW 1405   0.940   2.608   2.352  0.0136 -0.2628 -0.2017
  469SOL    HW1 1406   0.914   2.531   2.414 -0.3049  1.5041 -0.6862
  469SOL    HW2 1407   0.869   2.634   2.283  0.1178 -1.8548  0.6252
  470SOL     OW 1408   1.857   1.260   1.704  0.4948  0.2631 -0.5131
  470SOL    HW1 1409   1.952   1.303   1.686  3.2374 -0.1789 -1.3178
  470SOL    HW2 1410   1.861   1.243   1.806 -0.5058  0.4317 -0.5023
  471SOL     OW 1411   2.578   1.164   0.066 -0.5167  0.0660  0.5013
  471SOL    HW1 1412   2.498   1.112   0.030 -0.7944 -1.2143 -0.3733
  471SOL    HW2 1413   2.656   1.104   0.048 -0.6314  1.8522  3.3417
  472SOL     OW 1414   0.338   2.815   0.611 -0.4488 -0.0527  0.4800
  472SOL    HW1 1415   0.431   2.767   0.620  2.7732 -1.4727 -2.8172
  472SOL    HW2 1416   0.301   2.810   0.512 -0.3488 -0.3307  0.4796
  473SOL     OW 1417   1.087   2.833   2.374  0.1499  0.2086  0.0614
  473SOL    HW1 1418   1.040   2.744   2.368  0.8953  1.6967 -2.5543
  473SOL    HW2 1419   1.017   2.904   2.357 -1.4443 -0.4845  0.2705
  474SOL     OW 1420   1.500   0.065   2.046 -0.5392 -0.0383  1.0252
  474SOL    HW1 1421   1.499   0.066   2.145 -0.9220  1.1869 -3.3372
  474SOL    HW2 1422   1.413   0.022   2.017 -1.4978 -0.8777 -3.1329
  475SOL     OW 1423   0.790   2.547   0.109  0.0608 -0.4795 -0.1092
  475SOL    HW1 1424   0.800   2.621   0.179  1.6078  2.5990 -0.2526
  475SOL    HW2 1425   0.729   2.469   0.133  0.6203  1.4292 -0.2231
  476SOL     OW 1426   0.653   0.510   0.869  0.1499  0.1836  0.3474
  476SOL    HW1 1427   0.720   0.517   0.791  2.1571 -0.8136 -0.2466
  476SOL    HW2 1428   0.616   0.598   0.904 -0.2800 -2.0219  0.2320
  477SOL     OW 1429   1.852   1.869   1.357  0.4399 -0.1288 -0.0953
  477SOL    HW1 1430   1.764   1.849   1.404  1.3930  2.6737 -2.1584
  477SOL    HW2 1431   1.851   1.813   1.270  0.1338  0.8774 -1.9799
  478SOL     OW 1432   0.352   1.086   2.789  0.1528 -0.0631  0.1614
  478SOL    HW1 1433   0.391   0.997   2.819 -0.1319  0.9196  1.3217
  478SOL    HW2 1434   0.255   1.077   2.770 -1.7240 -1.3762  0.1069
  479SOL     OW 1435   0.725   0.018   0.829 -0.6796 -0.1176  0.0272
  479SOL    HW1 1436   0.802   0.045   0.775 -2.5837 -2.8043  0.1054
  479SOL    HW2 1437   0.668   0.102   0.853 -1.2258  0.0668  0.3779
  480SOL     OW 1438   2.531   2.560   3.052 -0.0727  0.0093  0.3719
  480SOL    HW1 1439   2.551   2.553   2.953  0.7674  0.8117 -0.2301
  480SOL    HW2 1440   2.516   2.462   3.088  0.5712  0.1497 -1.3831
  481SOL     OW 1441   2.613   0.645   1.063 -0.1125  0.3959  0.4620
  481SOL    HW1 1442   2.679   0.694   1.008 -2.4584  1.2704  1.5669
  481SOL    HW2 1443   2.654   0.615   1.153  2.2333  0.3309  1.1427
  482SOL     OW 1444   1.467   2.508   1.521  0.0605  0.7964  0.2473
  482SOL    HW1 1445   1.518   2.438   1.469 -2.0666 -1.4326  0.1937
  482SOL    HW2 1446   1.458   2.469   1.614  0.9435  2.4853  0.4463
  483SOL     OW 1447   0.346   1.611   3.038  0.2630  0.6078 -0.5748
  483SOL    HW1 1448   0.276   1.671   2.998  1.0904  0.7484  0.3925
  483SOL    HW2 1449   0.319   1.510   3.026 -1.3631 -1.3524  1.9849
  484SOL     OW 1450   1.307   1.848   2.500  0.0190 -0.2972  0.0231
  484SOL    HW1 1451   1.255   1.760   2.487 -2.7738 -2.2662 -1.9101
  484SOL    HW2 1452   1.352   1.878   2.407  1.4434  0.6184 -3.9958
  485SOL     OW 1453   0.203   0.418   2.199  0.2121  0.0986  0.3418
  485SOL    HW1 1454   0.124   0.384   2.255  0.3805  0.9877  0.3830
  485SOL    HW2 1455   0.268   0.342   2.173 -2.2838  1.3852 -0.4236
  486SOL     OW 1456   1.274   0.029   0.480  0.2300 -0.2989  0.1791
  486SOL    HW1 1457   1.304   0.034   0.576  0.0506  0.1242 -0.1145
  486SOL    HW2 1458   1.361   3.104   0.429  2.2865 -3.6918  2.1171
  487SOL     OW 1459   1.409   2.879   0.847 -0.4486 -0.1652 -0.2906
  487SOL    HW1 1460   1.312   2.895   0.832  1.5172  0.5482 -0.1317
  487SOL    HW2 1461   1.476   2.908   0.770  2.6598 -0.7826  0.2469
  488SOL     OW 1462   2.014   0.670   0.871 -0.6357 -0.0839 -0.0183
  488SOL    HW1 1463   2.094   0.727   0.837 -2.1723  1.4098 -1.5230
  488SOL    HW2 1464   2.038   0.579   0.904  0.1720  0.5310  1.6154
  489SOL     OW 1465   1.235   2.764   1.255 -0.4180  0.6032  0.4762
  489SOL    HW1 1466   1.294   2.750   1.337  0.6946 -0.2991  0.4561
  489SOL    HW2 1467   1.141   2.728   1.272  0.0181 -1.1912  0.0919
  490SOL     OW 1468   0.840   0.858   0.362  0.2648 -0.0263  0.5412
  490SOL    HW1 1469   0.810   0.943   0.409 -0.3644  0.6843  0.5320
  490SOL    HW2 1470   0.918   0.810   0.408  2.1126 -3.3736 -0.1253
  491SOL     OW 1471   0.975   2.840   0.036  0.2193  0.0266 -0.5806
  491SOL    HW1 1472   0.914   2.796   0.108  0.2006 -0.5774 -1.4315
  491SOL    HW2 1473   1.064   2.788   0.044  2.0994  0.5968 -0.0548
  492SOL     OW 1474   1.290   1.181   2.130 -0.1018 -0.0777  1.0027
  492SOL    HW1 1475   1.349   1.266   2.140  1.5567 -2.1455  2.0715
  492SOL    HW2 1476   1.200   1.207   2.091  1.3732 -2.7486  0.6429
  493SOL     OW 1477   3.012   1.919   0.223  0.1566  0.0307  0.1020
  493SOL    HW1 1478   3.095   1.878   0.179 -1.8900 -4.5088 -0.2381
  493SOL    HW2 1479   2.949   1.970   0.162 -0.4633  0.5897  0.0903
  494SOL     OW 1480   1.989   1.396   0.651  0.2928  0.0004  0.1300
  494SOL    HW1 1481   1.892   1.412   0.647 -0.2155  0.1239 -1.7837
  494SOL    HW2 1482   2.013   1.359   0.561 -0.5124  0.3896  1.3251
  495SOL     OW 1483   0.096   0.995   2.327 -0.5639 -0.3578  0.0522
  495SOL    HW1 1484   3.099   1.011   2.346 -1.9554  0.9479  1.8515
  495SOL    HW2 1485   0.143   1.080   2.294  1.8852 -0.3340 -0.9666
  496SOL     OW 1486   2.828   0.049   2.162 -0.8068 -0.0704  0.4675
  496SOL    HW1 1487   2.732   0.042   2.130  1.6618 -0.7804 -1.5355
  496SOL    HW2 1488   2.864   3.065   2.198  0.6927  1.4546  1.4112
  497SOL     OW 1489   2.107   0.960   0.532  0.0447 -0.2369 -0.1149
  497SOL    HW1 1490   2.091   0.949   0.429  2.1484  1.0859  0.7300
  497SOL    HW2 1491   2.027   0.914   0.581  0.8335  2.1057  0.5172
  498SOL     OW 1492   3.035   2.452   2.937  0.5504  0.1325 -0.0145
  498SOL    HW1 1493   2.968   2.506   2.887  0.7562 -3.4147  0.2844
  498SOL    HW2 1494   3.092   2.392   2.880 -1.3520  0.1778 -1.5619
  499SOL     OW 1495   1.614   2.557   0.710 -0.1571  0.1701 -0.1053
  499SOL    HW1 1496   1.618   2.590   0.614  1.7213 -1.4149  3.5606
  499SOL    HW2 1497   1.673   2.474   0.713  0.7245  1.1627  0.0801
  500SOL     OW 1498   1.153   0.609   2.460 -0.1891 -0.5056  0.0029
  500SOL    HW1 1499   1.090   0.593   2.378 -1.1763  2.3170 -3.5007
  500SOL    HW2 1500   1.252   0.594   2.441  0.7979 -0.2599  1.0070
  501SOL     OW 1501   1.137   0.186   1.131  0.9609  0.2790  0.2456
  501SOL    HW1 1502   1.207   0.112   1.140  0.3268  0.1501 -1.8919
  501SOL    HW2 1503   1.051   0.167   1.186 -0.2985  1.7106  0.9128
  502SOL     OW 1504   3.079   0.117   2.192 -0.4750  0.1816 -0.4703
  502SOL    HW1 1505   2.995   0.093   2.149  2.3264  0.8347  1.9064
  502SOL    HW2 1506   0.049   0.056   2.153  0.2263 -1.6287 -0.8929
  503SOL     OW 1507   1.647   2.402   2.392  0.0469 -0.4306  0.5795
  503SOL    HW1 1508   1.658   2.431   2.297  0.0881  1.8973  2.0366
  503SOL    HW2 1509   1.621   2.307   2.401  0.9856  3.4157  0.2459
  504SOL     OW 1510   2.001   0.009   1.802  0.4138  0.8807 -0.0927
  504SOL    HW1 1511   2.079   3.070   1.764 -2.1946  1.8117 -0.4706
  504SOL    HW2 1512   1.923   3.044   1.800  0.2327 -2.2723  3.0901
  505SOL     OW 1513   2.595   1.175   1.491 -0.4340 -0.4437  0.1036
  505SOL    HW1 1514   2.648   1.156   1.408  0.1696  2.6441 -1.3807
  505SOL    HW2 1515   2.644   1.127   1.564 -0.9990 -1.1823 -0.5537
  506SOL     OW 1516   0.374   1.381   2.154  0.4289  0.2935  0.2764
  506SOL    HW1 1517   0.279   1.386   2.197 -0.8097  1.1772  1.0745
  506SOL    HW2 1518   0.411   1.286   2.170 -1.8131  0.8462 -0.2288
  507SOL     OW 1519   0.222   3.054   1.430  0.2773 -0.0927 -0.3081
  507SOL    HW1 1520   0.323   3.039   1.438 -1.3631 -0.5007  1.5108
  507SOL    HW2 1521   0.172   2.964   1.411  4.2652 -1.6677  3.0149
  508SOL     OW 1522   1.286   0.667   1.349  0.2291  0.1969 -0.6930
  508SOL    HW1 1523   1.239   0.752   1.312  1.8180  2.4924  0.1858
  508SOL    HW2 1524   1.271   0.587   1.290 -2.2940  2.3943  1.7188
  509SOL     OW 1525   1.259   2.190   1.441  0.7746  0.0299  0.1926
  509SOL    HW1 1526   1.344   2.218   1.396 -0.0645 -1.4405 -0.7067
  509SOL    HW2 1527   1.226   2.249   1.521  1.3483 -1.5918 -0.2384
  510SOL     OW 1528   2.860   1.496   3.082  0.3733  0.7030  0.7436
  510SOL    HW1 1529   2.755   1.508   3.091  0.2402  1.3749  1.0430
  510SOL    HW2 1530   2.891   1.400   3.098  2.3041 -0.7059 -2.1613
  511SOL     OW 1531   0.606   1.238   1.434 -0.2348  0.2799 -0.0748
  511SOL    HW1 1532   0.630   1.146   1.400 -0.3830 -1.1086 -1.8408
  511SOL    HW2 1533   0.651   1.299   1.362 -0.5312 -1.7920 -2.9571
  512SOL     OW 1534   3.000   2.441   0.478 -0.0962  0.3961 -0.2043
  512SOL    HW1 1535   3.028   2.349   0.509 -0.7479  0.5446  2.0461
  512SOL    HW2 1536   2.946   2.439   0.388  0.8540 -2.1303 -2.2908
  513SOL     OW 1537   0.691   1.678   2.818 -0.0003  0.5243  0.2776
  513SOL    HW1 1538   0.781   1.647   2.858  0.9493  2.4911 -0.7903
  513SOL    HW2 1539   0.699   1.712   2.721 -1.7665 -1.7943 -2.7966
  514SOL     OW 1540   0.116   2.321   2.744 -0.5140  0.0821  0.1080
  514SOL    HW1 1541   0.216   2.322   2.772  1.5073 -1.9234 -0.3830
  514SOL    HW2 1542   0.101   2.388   2.671 -1.2157 -4.4791  0.3676
  515SOL     OW 1543   1.570   1.095   1.758 -0.1624 -0.0985 -0.1068
  515SOL    HW1 1544   1.627   1.103   1.671 -0.8789  1.0826  2.5160
  515SOL    HW2 1545   1.476   1.063   1.744  0.2436  2.4315 -0.5208
  516SOL     OW 1546   1.996   2.329   0.423 -0.4167  0.2384 -0.4374
  516SOL    HW1 1547   2.084   2.279   0.423  0.1311  1.1819  1.6327
  516SOL    HW2 1548   2.003   2.418   0.471 -0.8608  0.5169 -1.4436
  517SOL     OW 1549   1.077   1.651   0.638  0.1340  0.1339 -0.1278
  517SOL    HW1 1550   1.101   1.724   0.570  1.2199 -0.9177 -1.3602
  517SOL    HW2 1551   1.146   1.581   0.648  0.6307  3.3605 -0.8199
  518SOL     OW 1552   2.317   2.240   1.981 -0.4525 -0.0063 -0.1123
  518SOL    HW1 1553   2.326   2.310   1.906  1.2810 -0.1032  0.6296
  518SOL    HW2 1554   2.221   2.215   1.993 -1.8501 -0.2353 -1.1354
  519SOL     OW 1555   1.850   2.483   0.972  0.2714  0.7755 -0.3150
  519SOL    HW1 1556   1.935   2.496   1.023  0.3817 -0.2996  2.1247
  519SOL    HW2 1557   1.862   2.484   0.871  1.6112  1.5106 -1.8708
  520SOL     OW 1558   2.668   2.477   2.504 -0.4401  0.0463 -0.1925
  520SOL    HW1 1559   2.630   2.515   2.415  0.7183  0.4397 -2.8554
  520SOL    HW2 1560   2.714   2.386   2.492 -0.5806 -1.7068  0.0779
  521SOL     OW 1561   2.946   1.150   2.374  0.0660  0.6505  0.5959
  521SOL    HW1 1562   2.937   1.243   2.335 -3.5232  0.2076  0.2839
  521SOL    HW2 1563   2.870   1.097   2.324 -0.3644 -1.8338  0.0374
  522SOL     OW 1564   0.728   0.407   2.059  0.1489 -0.3875  0.0919
  522SOL    HW1 1565   0.680   0.413   1.968 -0.6006  2.2871  0.6111
  522SOL    HW2 1566   0.733   0.492   2.114  2.2971 -1.0225  0.9213
  523SOL     OW 1567   0.540   1.983   1.183  0.3012  0.1214 -0.3504
  523SOL    HW1 1568   0.537   2.047   1.263  4.4718  3.4323  0.5393
  523SOL    HW2 1569   0.448   1.982   1.136 -3.1601 -0.3631 -1.3365
  524SOL     OW 1570   1.648   2.671   0.462 -0.0984 -0.7202 -0.3295
  524SOL    HW1 1571   1.714   2.748   0.479 -0.5706  1.1283  1.2174
  524SOL    HW2 1572   1.679   2.596   0.400  2.4369  2.5840  1.1926
  525SOL     OW 1573   2.203   0.842   1.379 -0.0264 -0.0384 -0.0130
  525SOL    HW1 1574   2.178   0.810   1.282 -0.0644  0.8719 -0.5507
  525SOL    HW2 1575   2.295   0.888   1.370 -1.8776  1.9239  0.0916
  526SOL     OW 1576   0.860   2.592   0.605  0.6157 -0.2266  0.7194
  526SOL    HW1 1577   0.902   2.684   0.590 -0.0784 -0.6784  0.4177
  526SOL    HW2 1578   0.782   2.580   0.541  1.6624  0.9406 -1.6711
  527SOL     OW 1579   2.352   2.607   0.687 -0.3886 -0.0870  0.5589
  527SOL    HW1 1580   2.448   2.642   0.668  2.0996 -1.8170 -4.0652
  527SOL    HW2 1581   2.344   2.519   0.635 -0.4488 -3.0600  0.3732
  528SOL     OW 1582   1.785   0.579   0.306 -0.7728 -0.4761  0.2783
  528SOL    HW1 1583   1.737   0.566   0.395  2.7004  0.5848 -1.3820
  528SOL    HW2 1584   1.741   0.526   0.231 -0.2496 -3.4578 -1.3511
  529SOL     OW 1585   1.665   1.677   2.582 -0.3189  0.5301  0.2297
  529SOL    HW1 1586   1.704   1.600   2.635  1.5255 -1.0351 -0.2476
  529SOL    HW2 1587   1.734   1.703   2.512  0.6314  0.8179 -2.3394
  530SOL     OW 1588   2.249   0.486   0.242  0.3848  0.1186  0.4964
  530SOL    HW1 1589   2.240   0.586   0.212 -3.1435  1.4823  3.2561
  530SOL    HW2 1590   2.343   0.453   0.238  0.1848  0.5249 -2.9289
  531SOL     OW 1591   1.619   0.852   2.713 -0.2535 -0.1150  0.2505
  531SOL    HW1 1592   1.720   0.859   2.728  1.2701 -2.6842 -0.4093
  531SOL    HW2 1593   1.574   0.835   2.804  0.1581  3.0651  2.5879
  532SOL     OW 1594   1.711   0.558   0.559  0.1117  0.1457  0.0334
  532SOL    HW1 1595   1.728   0.494   0.635  1.5759 -1.7588 -0.2898
  532SOL    HW2 1596   1.646   0.630   0.591 -0.5838 -2.8877 -0.0987
  533SOL     OW 1597   0.586   1.048   2.292  0.0032  0.4421 -0.5853
  533SOL    HW1 1598   0.539   1.066   2.201  0.0980  2.1168 -0.7996
  533SOL    HW2 1599   0.639   0.970   2.291 -3.6805  3.5355 -0.1194
  534SOL     OW 1600   1.474   0.038   2.311  0.2475  0.2064  0.3984
  534SOL    HW1 1601   1.426   0.115   2.360  0.4305  3.2331 -0.8388
  534SOL    HW2 1602   1.561   0.017   2.361 -0.8876  2.7044  1.2188
  535SOL     OW 1603   0.170   3.001   2.914  0.3080 -0.4486 -0.1180
  535SOL    HW1 1604   0.102   2.980   2.840 -0.8479 -1.0711 -1.9109
  535SOL    HW2 1605   0.238   3.073   2.884  0.1446 -2.4785  1.0661
  536SOL     OW 1606   0.538   0.252   0.832  0.3626 -0.2600  0.5738
  536SOL    HW1 1607   0.500   0.256   0.738 -1.3424 -1.5392 -1.1079
  536SOL    HW2 1608   0.597   0.334   0.850 -0.3948 -0.8170 -0.4522
  537SOL     OW 1609   1.309   0.550   0.418  0.6123 -0.4518 -0.5856
  537SOL    HW1 1610   1.335   0.516   0.508 -3.3600  1.5400 -1.0886
  537SOL    HW2 1611   1.330   0.650   0.421 -0.1528 -0.2064  0.2862
  538SOL     OW 1612   2.823   2.341   3.079 -0.0192 -0.1479 -0.4630
  538SOL    HW1 1613   2.912   2.365   3.034  0.3979  2.9827 -0.7350
  538SOL    HW2 1614   2.750   2.333   3.011  2.5574  1.6174  2.1677
  539SOL     OW 1615   2.072   1.727   0.310 -0.1438  0.2886  0.3151
  539SOL    HW1 1616   1.980   1.752   0.347 -0.1856 -0.2783 -1.5960
  539SOL    HW2 1617   2.089   1.756   0.213  0.0894  0.6674 -3.2741
  540SOL     OW 1618   0.637   2.628   1.533  0.0176  0.1389  0.4407
  540SOL    HW1 1619   0.599   2.537   1.553  0.0805 -0.6566 -1.5518
  540SOL    HW2 1620   0.671   2.635   1.438 -2.3953 -0.7091  2.3131
  541SOL     OW 1621   1.810   3.069   2.111 -0.1041  0.0949 -0.1772
  541SOL    HW1 1622   1.766   3.026   2.031  1.0547 -0.3265  3.2757
  541SOL    HW2 1623   1.830   0.062   2.096 -0.0089  2.6180  0.3723
  542SOL     OW 1624   0.257   0.785   2.442  0.5180 -0.0419 -0.1632
  542SOL    HW1 1625   0.206   0.745   2.519 -0.4421  0.0027 -1.2539
  542SOL    HW2 1626   0.204   0.860   2.400 -0.9411  0.3177 -1.1704
  543SOL     OW 1627   0.314   0.836   1.340  0.5418 -0.5416  0.3638
  543SOL    HW1 1628   0.362   0.899   1.276 -0.8997 -1.7308  0.7775
  543SOL    HW2 1629   0.238   0.881   1.396 -2.6415 -0.7286 -0.3051
  544SOL     OW 1630   2.422   0.458   0.995 -0.6203  0.5095 -0.2926
  544SOL    HW1 1631   2.474   0.523   1.058  0.3998  1.1861  2.8546
  544SOL    HW2 1632   2.440   0.476   0.899 -2.5355 -0.9748  1.4242
  545SOL     OW 1633   1.613   2.089   0.636 -0.8037 -0.4370 -0.0449
  545SOL    HW1 1634   1.602   1.985   0.648  2.5302 -2.6095  2.1775
  545SOL    HW2 1635   1.574   2.139   0.717  0.4316 -0.3257 -2.4634
  546SOL     OW 1636   2.209   2.764   1.793 -0.6510 -0.1453 -0.1711
  546SOL    HW1 1637   2.279   2.721   1.730  1.5547 -1.6549  1.2041
  546SOL    HW2 1638   2.180   2.857   1.771 -2.4692 -0.1380 -0.1945
  547SOL     OW 1639   0.356   0.071   2.394 -0.1007  0.7385  0.5069
  547SOL    HW1 1640   0.391   0.097   2.308 -3.8019 -0.4415  2.7317
  547SOL    HW2 1641   0.391   3.080   2.414  0.0901 -1.5679  0.1398
  548SOL     OW 1642   1.850   1.021   0.080  0.0268  0.0618 -0.5162
  548SOL    HW1 1643   1.865   1.088   0.008  2.0639 -1.2532  2.1401
  548SOL    HW2 1644   1.768   0.960   0.064 -1.2775  1.0333  0.8751
  549SOL     OW 1645   3.074   0.944   0.354  0.2381 -0.6750 -0.2047
  549SOL    HW1 1646   0.016   0.882   0.419 -0.6886 -2.4167  2.4536
  549SOL    HW2 1647   3.001   0.999   0.403 -3.1586  1.4370 -0.9632
  550SOL     OW 1648   1.883   1.935   0.726  0.3380  0.1075 -0.4271
  550SOL    HW1 1649   1.838   1.854   0.679 -0.6293  1.1433 -0.4322
  550SOL    HW2 1650   1.944   1.905   0.803 -1.4829 -2.0336 -0.8637
  551SOL     OW 1651   1.316   0.080   0.737  0.4353 -0.0339  0.0662
  551SOL    HW1 1652   1.353   0.141   0.814  0.2886 -2.0377  1.0667
  551SOL    HW2 1653   1.277   3.100   0.773  1.6349  0.5999  0.8143
  552SOL     OW 1654   2.963   2.938   2.290  0.0831  0.4494 -0.3927
  552SOL    HW1 1655   3.053   2.974   2.316  2.3297  1.2496  0.1991
  552SOL    HW2 1656   2.974   2.848   2.245  1.8167  0.4520  2.3754
  553SOL     OW 1657   0.086   3.030   2.406  0.2900 -0.3068 -0.3024
  553SOL    HW1 1658   0.172   2.998   2.460 -0.6306 -2.5015  2.2201
  553SOL    HW2 1659   0.102   0.020   2.362  0.4248  1.3952  0.0821
  554SOL     OW 1660   0.643   2.967   1.279 -0.0715  0.0824 -0.2654
  554SOL    HW1 1661   0.661   2.973   1.182 -0.2090  2.3217  2.4567
  554SOL    HW2 1662   0.732   2.950   1.328  0.7280  0.5363  0.0568
  555SOL     OW 1663   2.584   2.517   2.233 -0.2392  0.3810  0.3257
  555SOL    HW1 1664   2.557   2.613   2.248 -0.4890 -0.3182 -1.3643
  555SOL    HW2 1665   2.507   2.451   2.215 -1.0494 -0.1289 -0.6521
  556SOL     OW 1666   1.182   0.255   2.688 -0.2092 -0.2213  0.6100
  556SOL    HW1 1667   1.098   0.305   2.719 -3.1615  0.1073  0.1678
  556SOL    HW2 1668   1.150   0.162   2.662  0.8621  0.9849  0.8064
  557SOL     OW 1669   0.580   1.608   2.371  0.0176 -0.2039 -0.1948
  557SOL    HW1 1670   0.483   1.638   2.382 -0.1421  1.6352  0.8693
  557SOL    HW2 1671   0.591   1.509   2.357 -1.2302  0.1424  2.1379
  558SOL     OW 1672   2.257   0.859   2.489 -0.3421  0.3489 -0.4724
  558SOL    HW1 1673   2.255   0.784   2.421 -1.3204  3.1793  2.0554
  558SOL    HW2 1674   2.208   0.939   2.459 -2.4972 -1.9746  1.5848
  559SOL     OW 1675   2.513   2.117   2.360 -0.2215 -0.2228  0.0974
  559SOL    HW1 1676   2.459   2.043   2.315 -2.6386  0.2688 -1.7422
  559SOL    HW2 1677   2.493   2.126   2.460 -0.2600  1.6903  0.0498
  560SOL     OW 1678   2.500   0.848   2.175 -0.0324 -0.2104 -0.5159
  560SOL    HW1 1679   2.411   0.892   2.164  0.6198  1.7264  1.9513
  560SOL    HW2 1680   2.519   0.803   2.088 -2.4796  4.4168  0.1427
  561SOL     OW 1681   0.028   0.143   2.974  0.1128 -0.4579  0.6806
  561SOL    HW1 1682   0.048   0.148   2.875  0.2174  1.4395  1.6182
  561SOL    HW2 1683   0.031   0.043   2.998 -1.1869 -2.4129  0.8927
  562SOL     OW 1684   1.041   0.996   1.584  0.0480  0.8966  0.0883
  562SOL    HW1 1685   1.034   0.891   1.575  1.0528 -0.7700 -0.3860
  562SOL    HW2 1686   0.971   1.022   1.657 -0.0753  0.8834 -1.0724
  563SOL     OW 1687   1.541   0.003   2.838  0.3478 -0.0266  0.1287
  563SOL    HW1 1688   1.500   3.021   2.877 -0.8191 -1.3287 -0.1946
  563SOL    HW2 1689   1.630   0.033   2.879  0.0111  0.0759  0.5099
  564SOL     OW 1690   3.051   2.228   1.008 -0.2820 -0.0321  0.2763
  564SOL    HW1 1691   3.028   2.317   1.053 -3.5980 -2.2161  3.0254
  564SOL    HW2 1692   3.046   2.153   1.075  0.4215  0.6804 -1.8797
  565SOL     OW 1693   0.677   2.143   1.886  0.1115  0.3251  0.2205
  565SOL    HW1 1694   0.593   2.179   1.839 -0.0224 -0.0019  0.4677
  565SOL    HW2 1695   0.712   2.062   1.836  0.9793 -2.6331 -1.5077
  566SOL     OW 1696   1.380   2.403   2.104 -0.8399  0.3362  0.6787
  566SOL    HW1 1697   1.319   2.406   2.187  0.5012 -0.6998  0.3098
  566SOL    HW2 1698   1.479   2.379   2.118 -0.2944 -1.0072 -0.2975
  567SOL     OW 1699   2.094   2.511   1.124  0.5884 -0.1248  0.0290
  567SOL    HW1 1700   2.071   2.485   1.224  0.2375 -1.7223  5.2018
  567SOL    HW2 1701   2.186   2.563   1.114  2.2247  1.9404 -0.9355
  568SOL     OW 1702   1.873   0.858   0.597 -0.1131  1.0303 -0.1453
  568SOL    HW1 1703   1.814   0.799   0.658 -1.2079 -1.0417  0.4952
  568SOL    HW2 1704   1.856   0.821   0.500 -2.4215 -1.5464 -3.3471
  569SOL     OW 1705   2.930   1.896   2.659 -0.2005 -0.4339 -0.2997
  569SOL    HW1 1706   2.950   1.932   2.754 -4.2823 -1.1880  3.0525
  569SOL    HW2 1707   2.898   1.803   2.670 -0.1163  1.8232  1.1653
  570SOL     OW 1708   2.955   0.021   1.308 -0.5191  0.6589 -0.0572
  570SOL    HW1 1709   3.037   0.061   1.347  0.7171 -0.4322  1.4379
  570SOL    HW2 1710   2.885   0.042   1.374  2.8707  0.3850 -1.3684
  571SOL     OW 1711   2.897   0.383   1.788  0.2649  0.4568 -0.4961
  571SOL    HW1 1712   2.917   0.370   1.889  1.1027 -0.5222  1.4480
  571SOL    HW2 1713   2.839   0.465   1.770 -1.8205  0.7038 -2.7822
  572SOL     OW 1714   0.131   2.668   0.926 -0.1605  0.1749 -0.6475
  572SOL    HW1 1715   0.101   2.657   0.828  0.0960  0.9497 -2.5509
  572SOL    HW2 1716   0.168   2.584   0.961  2.2979  2.7757  0.4842
  573SOL     OW 1717   0.929   0.582   3.101  0.4776  0.3511  0.3225
  573SOL    HW1 1718   0.870   0.635   0.060  2.2578  0.5408  0.2539
  573SOL    HW2 1719   0.902   0.488   3.087 -2.2768  1.2181 -1.5021
  574SOL     OW 1720   2.869   2.649   2.830 -0.6578 -0.3795 -0.4940
  574SOL    HW1 1721   2.813   2.735   2.831 -0.6084  1.4192 -3.4655
  574SOL    HW2 1722   2.897   2.629   2.736  2.8504 -1.9195  1.7746
  575SOL     OW 1723   1.458   2.300   1.162 -0.0172  0.2240 -0.2428
  575SOL    HW1 1724   1.374   2.295   1.105  0.4642 -3.3612  0.7553
  575SOL    HW2 1725   1.512   2.383   1.148 -1.7146 -0.2441  0.7297
  576SOL     OW 1726   1.105   2.568   1.021 -0.6537  0.4116 -0.3594
  576SOL    HW1 1727   1.047   2.523   0.951 -3.1794  0.4897  1.0413
  576SOL    HW2 1728   1.133   2.501   1.088  1.4940 -0.6623 -1.4262
  577SOL     OW 1729   2.440   1.382   0.955  0.7375  0.2770  0.4921
  577SOL    HW1 1730   2.388   1.429   1.030  0.0011 -0.6091  0.5422
  577SOL    HW2 1731   2.387   1.356   0.877  1.8820  1.4776  0.3138
  578SOL     OW 1732   1.493   0.217   0.584  0.1867 -0.0051  0.3631
  578SOL    HW1 1733   1.474   0.205   0.485 -0.5751 -0.7250 -1.2880
  578SOL    HW2 1734   1.443   0.152   0.645 -0.1270  0.5017 -0.0280
  579SOL     OW 1735   2.346   0.888   2.736 -0.1950 -0.1087  0.5158
  579SOL    HW1 1736   2.360   0.790   2.764 -1.0226  2.3030 -0.9298
  579SOL    HW2 1737   2.327   0.897   2.638 -1.5400  0.7015  0.4208
  580SOL     OW 1738   1.830   0.747   1.833 -0.0311 -0.2996  0.3507
  580SOL    HW1 1739   1.897   0.827   1.829  0.0878  3.8520 -0.8505
  580SOL    HW2 1740   1.800   0.723   1.931  0.2205  1.1734 -0.8701
  581SOL     OW 1741   0.457   1.011   1.193 -0.1784 -0.3287 -1.1645
  581SOL    HW1 1742   0.430   1.101   1.148  1.7374 -0.5663  0.4999
  581SOL    HW2 1743   0.508   0.950   1.131 -0.8027  1.0759 -0.9478
  582SOL     OW 1744   2.640   0.030   1.835  0.3737  0.1049  0.3940
  582SOL    HW1 1745   2.618   3.101   1.928 -2.5899 -1.9771 -0.3061
  582SOL    HW2 1746   2.586   0.115   1.815 -2.5439 -0.0224 -2.3823
  583SOL     OW 1747   2.984   0.367   2.042 -0.0701 -0.2400 -0.1450
  583SOL    HW1 1748   2.890   0.386   2.072 -0.5984  0.4143 -0.4857
  583SOL    HW2 1749   3.028   0.290   2.095  0.9140 -1.0544  2.9920
  584SOL     OW 1750   1.360   2.168   2.948  0.3990  0.0135 -0.6927
  584SOL    HW1 1751   1.395   2.237   3.018 -1.5452 -0.8692  0.0898
  584SOL    HW2 1752   1.436   2.105   2.923  1.6006 -0.3467  1.7113
  585SOL     OW 1753   0.124   2.693   2.756 -0.1224 -0.1337  0.0699
  585SOL    HW1 1754   0.216   2.719   2.792  1.5402 -2.4054  0.8978
  585SOL    HW2 1755   0.048   2.750   2.793 -1.5296  1.1604 -1.2012
  586SOL     OW 1756   1.978   1.739   2.443  0.4914 -0.7253  0.2124
  586SOL    HW1 1757   1.936   1.655   2.398 -1.8341 -1.7572  0.0991
  586SOL    HW2 1758   2.078   1.725   2.445 -2.0539 -0.6378 -1.4177
  587SOL     OW 1759   2.322   2.431   0.382 -0.1426  0.2273 -0.0485
  587SOL    HW1 1760   2.308   2.441   0.282  1.1764  1.3731 -3.1816
  587SOL    HW2 1761   2.288   2.339   0.410  1.4968 -0.7938 -0.6807
  588SOL     OW 1762   2.700   0.443   0.801  0.2859 -0.1246  0.2927
  588SOL    HW1 1763   2.604   0.485   0.800 -4.0659 -0.8163  0.5560
  588SOL    HW2 1764   2.697   0.357   0.747 -0.0546  0.8949  1.9029
  589SOL     OW 1765   0.612   0.766   0.560 -0.0231  0.4756  0.4315
  589SOL    HW1 1766   0.659   0.767   0.468  3.5097 -0.6314 -1.7016
  589SOL    HW2 1767   0.516   0.807   0.561 -0.4971 -0.8042  0.6872
  590SOL     OW 1768   2.237   2.189   0.433  0.0972  0.2544  0.1436
  590SOL    HW1 1769   2.188   2.140   0.507  1.1096 -0.0911  0.7920
  590SOL    HW2 1770   2.285   2.118   0.379  0.9439  1.8813 -0.1699
  591SOL     OW 1771   0.447   2.333   1.245  0.3441 -0.4202 -0.5386
  591SOL    HW1 1772   0.465   2.263   1.318  2.7109  0.0640  1.2751
  591SOL    HW2 1773   0.421   2.428   1.283  1.4925  1.4214  1.7511
  592SOL     OW 1774   0.847   0.378   1.324  0.8706 -0.4457 -0.1667
  592SOL    HW1 1775   0.916   0.304   1.352  1.6571 -1.0295 -0.1031
  592SOL    HW2 1776   0.827   0.362   1.223  0.6318  0.4778 -3.4608
  593SOL     OW 1777   1.019   1.391   1.257  0.1904  0.1181 -0.2059
  593SOL    HW1 1778   1.062   1.346   1.341 -0.4307  0.6913 -0.6159
  593SOL    HW2 1779   1.019   1.489   1.265 -1.4733 -5.4539  0.3399
  594SOL     OW 1780   0.928   2.219   0.511  0.3042  0.3802  0.4999
  594SOL    HW1 1781   0.952   2.142   0.449 -2.4395 -0.1524  0.7231
  594SOL    HW2 1782   0.970   2.307   0.477  0.4290 -0.7770 -2.1301
  595SOL     OW 1783   1.653   0.344   1.300  0.2202 -0.1618  0.3307
  595SOL    HW1 1784   1.700   0.411   1.359 -1.3951 -0.8207  0.1419
  595SOL    HW2 1785   1.570   0.303   1.341  2.1178  0.6405 -0.8894
  596SOL     OW 1786   3.048   1.057   1.300 -0.4865  0.0563 -0.2609
  596SOL    HW1 1787   3.053   0.992   1.226  3.3783  2.1106  3.1812
  596SOL    HW2 1788   3.003   1.143   1.274  0.1525 -2.5481 -0.6679
  597SOL     OW 1789   0.525   2.693   2.349 -0.0422 -0.0002 -0.6070
  597SOL    HW1 1790   0.456   2.633   2.394 -2.0173 -0.2390 -1.8756
  597SOL    HW2 1791   0.590   2.635   2.292  0.7933 -1.7993 -1.5410
  598SOL     OW 1792   2.717   1.961   1.827 -0.1918 -0.2522  0.1060
  598SOL    HW1 1793   2.737   2.014   1.738  0.3405  4.0736 -2.1033
  598SOL    HW2 1794   2.618   1.972   1.849  1.3932  2.7289 -1.3527
  599SOL     OW 1795   0.798   0.072   2.919  0.2902 -1.0977 -0.2376
  599SOL    HW1 1796   0.765   0.109   2.832 -0.6095  0.3211 -1.5792
  599SOL    HW2 1797   0.798   3.076   2.920  2.4184  0.7490 -1.2663
  600SOL     OW 1798   3.036   2.158   2.606 -0.6113  0.1027 -0.6041
  600SOL    HW1 1799   3.093   2.215   2.669 -1.8093  0.8389  3.7955
  600SOL    HW2 1800   3.030   2.063   2.642  0.0488  1.1848 -1.2181
  601SOL     OW 1801   0.670   0.973   1.398  0.0346  0.5727 -0.0421
  601SOL    HW1 1802   0.585   0.949   1.350  1.0506 -0.5551 -0.3427
  601SOL    HW2 1803   0.659   0.966   1.496 -2.5655  0.1764 -2.0782
  602SOL     OW 1804   0.982   2.808   0.981  0.2512 -0.1529 -0.5682
  602SOL    HW1 1805   0.914   2.765   0.921  0.9633  0.2504 -1.0749
  602SOL    HW2 1806   1.044   2.735   1.014  1.9238 -0.9299 -0.2330
  603SOL     OW 1807   0.323   0.485   2.721 -0.1584  0.2829  0.5013
  603SOL    HW1 1808   0.298   0.403   2.670  1.7929  1.8694  2.3281
  603SOL    HW2 1809   0.249   0.556   2.706  0.6196 -0.4796 -1.3296
  604SOL     OW 1810   0.777   2.779   1.740  0.5077 -0.3340 -0.0958
  604SOL    HW1 1811   0.774   2.884   1.729  1.1955  2.7484  0.0693
  604SOL    HW2 1812   0.716   2.735   1.672 -0.0058 -1.1064 -0.2945
  605SOL     OW 1813   1.450   0.754   2.058  0.1234 -0.2440  0.5854
  605SOL    HW1 1814   1.411   0.702   1.980 -0.6691 -2.1762  0.1360
  605SOL    HW2 1815   1.412   0.846   2.052  1.9892 -0.8843 -0.1900
  606SOL     OW 1816   2.379   2.882   2.822  0.0103 -0.8574 -0.2505
  606SOL    HW1 1817   2.374   2.841   2.918 -0.1941  1.1144 -1.6417
  606SOL    HW2 1818   2.439   2.967   2.829  1.3309  1.8602 -0.7671
  607SOL     OW 1819   0.753   0.336   1.057  0.4174  0.6953  0.8612
  607SOL    HW1 1820   0.703   0.417   1.023  1.6941  1.8534 -0.3761
  607SOL    HW2 1821   0.831   0.315   0.993 -0.8761  2.9337  1.5956
  608SOL     OW 1822   0.293   1.748   2.365 -0.5283 -0.2339  0.4555
  608SOL    HW1 1823   0.276   1.800   2.447 -0.8190  0.8222 -2.1759
  608SOL    HW2 1824   0.261   1.799   2.282 -0.5343  1.3701 -0.6405
  609SOL     OW 1825   1.453   1.357   0.563 -0.1880  0.2757 -0.4391
  609SOL    HW1 1826   1.438   1.424   0.490 -2.6742 -1.4930  2.1639
  609SOL    HW2 1827   1.401   1.274   0.536 -0.6129 -0.0487  0.7161
  610SOL     OW 1828   0.043   0.441   1.065  0.2528 -0.3239 -0.2395
  610SOL    HW1 1829   0.092   0.460   0.980  0.8450 -1.7061  2.2371
  610SOL    HW2 1830   0.102   0.379   1.121 -0.3938  1.6058 -1.2781
  611SOL     OW 1831   1.557   1.088   0.682  0.0273 -0.7629 -0.0980
  611SOL    HW1 1832   1.657   1.102   0.673 -1.6723 -0.8699  1.9590
  611SOL    HW2 1833   1.502   1.138   0.613 -2.6354 -1.2107 -0.0774
  612SOL     OW 1834   1.929   1.500   0.296 -0.0690 -0.3553  0.0430
  612SOL    HW1 1835   1.840   1.506   0.341  1.8928  0.5807 -3.3292
  612SOL    HW2 1836   1.983   1.584   0.305 -0.9360 -2.8322  0.0360
  613SOL     OW 1837   1.580   0.947   0.363 -0.6918  0.7660  0.6550
  613SOL    HW1 1838   1.673   0.912   0.363  0.7636  0.5682 -0.5784
  613SOL    HW2 1839   1.586   1.047   0.376  1.1123 -0.4211 -2.4224
  614SOL     OW 1840   2.806   0.281   2.304  0.0839 -0.6173 -0.4800
  614SOL    HW1 1841   2.835   0.191   2.262 -2.1226 -1.6066 -0.7743
  614SOL    HW2 1842   2.759   0.337   2.233  3.2094 -2.2327  0.3408
  615SOL     OW 1843   0.446   1.891   0.737  0.2718  0.4120 -0.4852
  615SOL    HW1 1844   0.473   1.798   0.768 -1.3572  0.7646 -0.2257
  615SOL    HW2 1845   0.451   1.955   0.813 -2.5482 -0.4150  0.3199
  616SOL     OW 1846   1.707   1.404   2.683  0.1992  0.2886 -0.3202
  616SOL    HW1 1847   1.681   1.320   2.632 -0.3765 -0.8999 -1.3334
  616SOL    HW2 1848   1.654   1.413   2.768 -1.0985 -1.3212  0.2810
  617SOL     OW 1849   1.296   0.342   3.028 -0.4650 -0.7379  0.5002
  617SOL    HW1 1850   1.258   0.264   3.084 -2.0665 -0.5966  0.9590
  617SOL    HW2 1851   1.341   0.307   2.942  0.1451  2.5275  0.5539
  618SOL     OW 1852   2.075   2.393   2.444  0.2447 -0.4109 -0.1125
  618SOL    HW1 1853   2.066   2.384   2.339 -0.1926  0.2795  0.3001
  618SOL    HW2 1854   1.981   2.405   2.474  1.9797  0.5529 -0.3307
  619SOL     OW 1855   2.122   2.068   1.126 -0.7032 -0.4400 -0.3856
  619SOL    HW1 1856   2.054   2.110   1.188 -0.4292  0.5520 -0.4883
  619SOL    HW2 1857   2.074   1.998   1.067 -0.1417 -1.4952  0.0178
  620SOL     OW 1858   2.177   2.770   2.052 -0.3460  0.2769  0.0306
  620SOL    HW1 1859   2.191   2.765   1.949  2.5291  1.5656 -0.7981
  620SOL    HW2 1860   2.228   2.688   2.094  1.3555 -0.3332 -0.5498
  621SOL     OW 1861   0.138   1.351   0.709  0.1991 -0.0546  0.3208
  621SOL    HW1 1862   0.193   1.434   0.737 -0.1010 -1.5712 -1.4551
  621SOL    HW2 1863   0.037   1.366   0.713 -1.3754 -2.5138  1.1945
  622SOL     OW 1864   1.437   1.671   2.903 -0.0578  0.4535 -0.7819
  622SOL    HW1 1865   1.463   1.747   2.841  0.1805  3.8489 -0.4580
  622SOL    HW2 1866   1.413   1.719   2.991  1.6965  0.0522 -2.1499
  623SOL     OW 1867   2.871   2.486   2.100 -0.1045  0.0002 -0.3816
  623SOL    HW1 1868   2.777   2.481   2.146 -2.6785 -2.3930  0.3441
  623SOL    HW2 1869   2.916   2.580   2.117 -3.3798 -1.6253  0.3388
  624SOL     OW 1870   0.557   2.391   0.228 -0.1615 -0.2228  0.1678
  624SOL    HW1 1871   0.568   2.290   0.230  1.4046  1.7660  1.0860
  624SOL    HW2 1872   0.459   2.413   0.237  0.4760 -2.5439  2.6583
  625SOL     OW 1873   0.442   1.799   2.024 -0.0654  0.1031  0.6343
  625SOL    HW1 1874   0.391   1.887   2.030  0.4245 -3.0680 -1.0926
  625SOL    HW2 1875   0.379   1.717   2.029 -1.4615 -2.5488  0.3869
  626SOL     OW 1876   0.823   2.899   2.934 -0.3826 -0.2751 -0.3162
  626SOL    HW1 1877   0.897   2.865   3.002  2.8254  1.8977  2.4292
  626SOL    HW2 1878   0.728   2.871   2.960  0.4344  1.1423 -2.6599
  627SOL     OW 1879   1.609   1.502   0.121 -0.0375  0.0937  0.0595
  627SOL    HW1 1880   1.575   1.479   0.029 -1.2463  0.4500  0.6442
  627SOL    HW2 1881   1.652   1.592   0.121 -1.8936 -0.8253 -1.2178
  628SOL     OW 1882   1.341   2.083   0.880  0.0204  0.1636  0.3964
  628SOL    HW1 1883   1.275   2.097   0.959 -3.4740 -0.9824  1.0147
  628SOL    HW2 1884   1.422   2.146   0.880 -0.6701  1.2707  1.7843
  629SOL     OW 1885   0.231   0.333   1.696 -0.6216 -0.0944  0.6786
  629SOL    HW1 1886   0.188   0.250   1.733 -0.5538  2.1349  0.4939
  629SOL    HW2 1887   0.265   0.383   1.780  1.7887  0.0546  0.0914
  630SOL     OW 1888   2.306   0.725   1.604 -0.7785  0.3662 -0.3708
  630SOL    HW1 1889   2.252   0.770   1.532  1.7561  0.2724  1.0684
  630SOL    HW2 1890   2.364   0.650   1.564  0.9123 -3.4147 -0.3639
  631SOL     OW 1891   1.222   0.589   1.038 -0.2812  0.1064  0.0826
  631SOL    HW1 1892   1.291   0.602   0.966 -0.5905 -0.0317  2.2960
  631SOL    HW2 1893   1.257   0.516   1.105  0.6818  0.9407  1.5188
  632SOL     OW 1894   2.800   1.018   1.981  0.7950 -0.2396 -0.4772
  632SOL    HW1 1895   2.743   1.015   1.895  0.3160  0.9406  1.1512
  632SOL    HW2 1896   2.897   1.036   1.955 -1.8154 -3.2305  2.1805
  633SOL     OW 1897   1.410   0.809   2.908  0.1013  0.1941 -0.2223
  633SOL    HW1 1898   1.364   0.875   2.849  2.8720 -3.0937  1.6639
  633SOL    HW2 1899   1.343   0.749   2.955 -0.1143  4.5467  0.1531
  634SOL     OW 1900   0.605   2.836   3.065 -0.0417 -0.3113  0.0957
  634SOL    HW1 1901   0.643   2.875   0.048 -0.4425 -0.0055 -0.2797
  634SOL    HW2 1902   0.541   2.765   3.095  2.2686 -0.0350  1.9576
  635SOL     OW 1903   0.053   1.397   1.490  0.4434 -0.5243  0.3049
  635SOL    HW1 1904   0.037   1.493   1.530 -0.4928 -0.3225  3.7675
  635SOL    HW2 1905   0.148   1.379   1.460 -1.5179  2.9622  0.2769
  636SOL     OW 1906   0.138   1.763   0.119 -0.3762 -0.3242 -0.0761
  636SOL    HW1 1907   0.152   1.670   0.161 -1.4187  0.4856 -0.5701
  636SOL    HW2 1908   0.124   1.765   0.018 -0.8154  4.1382 -0.8579
  637SOL     OW 1909   0.022   2.620   0.654 -0.0312  0.5672  0.7479
  637SOL    HW1 1910   0.009   2.717   0.627  2.3685 -0.4040  1.7552
  637SOL    HW2 1911   3.070   2.560   0.594 -0.5532 -3.6860 -3.7782
  638SOL     OW 1912   0.005   2.814   0.189  0.3587  0.5381  0.5875
  638SOL    HW1 1913   3.058   2.727   0.169 -0.2145 -0.2584  0.0797
  638SOL    HW2 1914   0.077   2.833   0.120 -2.0984  1.8143  1.6044
  639SOL     OW 1915   1.437   0.257   2.808  0.0723 -0.0385  1.1133
  639SOL    HW1 1916   1.350   0.256   2.757 -1.6707  0.2941 -0.0499
  639SOL    HW2 1917   1.487   0.166   2.819  2.6605 -0.9149 -1.0481
  640SOL     OW 1918   2.318   1.995   1.429  0.5146  0.0130 -0.3795
  640SOL    HW1 1919   2.303   2.079   1.371  0.5590 -2.3399 -0.2137
  640SOL    HW2 1920   2.378   2.010   1.510  0.4182 -3.4411  0.7336
  641SOL     OW 1921   3.068   0.016   1.050 -0.3648  0.3228  0.2401
  641SOL    HW1 1922   3.018   0.021   1.138  1.2425 -1.4073  0.4880
  641SOL    HW2 1923   3.009   0.028   0.968  2.2247  0.7606 -0.1630
  642SOL     OW 1924   1.306   1.034   1.705 -0.6469  0.1166  0.1478
  642SOL    HW1 1925   1.225   1.057   1.653  1.0680 -0.5005  1.1735
  642SOL    HW2 1926   1.354   0.954   1.654  0.6500 -0.6347 -0.9648
  643SOL     OW 1927   0.715   1.751   2.562  0.3947  0.0591 -1.2550
  643SOL    HW1 1928   0.663   1.677   2.513  1.1837  0.4316 -6.1775
  643SOL    HW2 1929   0.720   1.834   2.507 -0.3185 -1.5840  0.9933
  644SOL     OW 1930   1.887   2.741   2.374 -0.6092  0.6098 -0.2929
  644SOL    HW1 1931   1.951   2.800   2.321 -0.0787  0.1077 -0.5313
  644SOL    HW2 1932   1.808   2.713   2.320  4.8589  1.2610  0.0249
  645SOL     OW 1933   1.409   0.627   1.824  0.0897  0.9782  0.6565
  645SOL    HW1 1934   1.503   0.651   1.793 -0.7434  0.2591  2.5039
  645SOL    HW2 1935   1.345   0.648   1.748 -0.0821 -2.2390 -0.9552
  646SOL     OW 1936   1.269   2.490   3.044  0.5509 -1.3547 -0.2352
  646SOL    HW1 1937   1.210   2.449   2.976  3.1727  1.6933 -1.0230
  646SOL    HW2 1938   1.347   2.436   3.077 -0.8556  1.3842 -0.6367
  647SOL     OW 1939   1.208   2.679   0.700  0.1058 -0.1084  0.0156
  647SOL    HW1 1940   1.224   2.601   0.759  0.3759 -2.8322 -0.0491
  647SOL    HW2 1941   1.292   2.723   0.663 -1.4991 -1.6088  0.1594
  648SOL     OW 1942   2.808   2.600   1.386 -0.0660 -0.5311  0.4621
  648SOL    HW1 1943   2.805   2.612   1.283  1.9524 -2.7650 -1.3472
  648SOL    HW2 1944   2.878   2.530   1.419  1.1610 -0.8683  2.3871
  649SOL     OW 1945   0.854   2.358   2.501 -0.3815 -0.1844  0.0207
  649SOL    HW1 1946   0.950   2.329   2.512 -2.3058  0.1370  3.0942
  649SOL    HW2 1947   0.788   2.320   2.569 -2.7076  0.9178 -1.5611
  650SOL     OW 1948   2.633   1.959   2.879 -0.1250 -0.1087 -0.1946
  650SOL    HW1 1949   2.654   1.859   2.866  1.4361 -0.1138 -2.2702
  650SOL    HW2 1950   2.662   2.020   2.806 -2.3839  0.9530  0.9415
  651SOL     OW 1951   2.378   2.320   2.220  0.0015 -0.1157  0.2416
  651SOL    HW1 1952   2.435   2.259   2.277  0.1471 -2.4629  2.2704
  651SOL    HW2 1953   2.353   2.283   2.127 -2.1251 -1.3314  1.9289
  652SOL     OW 1954   2.736   2.537   1.045  0.2485  0.5776 -0.1605
  652SOL    HW1 1955   2.811   2.494   1.092 -4.3095  2.4806  0.1394
  652SOL    HW2 1956   2.653   2.475   1.046 -3.6518 -1.2620  0.9365
  653SOL     OW 1957   2.842   1.233   1.171 -0.4066 -0.0977 -0.1758
  653SOL    HW1 1958   2.791   1.318   1.183 -1.7428  1.4925  0.9695
  653SOL    HW2 1959   2.804   1.180   1.094 -3.0392  1.2260  2.3655
  654SOL     OW 1960   0.952   0.376   2.751  0.0519  0.5832 -0.7502
  654SOL    HW1 1961   0.889   0.427   2.692  0.9054 -1.0943  1.3198
  654SOL    HW2 1962   0.935   0.396   2.851 -1.6540  0.7646  3.5773
  655SOL     OW 1963   0.977   0.300   0.931  0.2699 -0.4936  0.0050
  655SOL    HW1 1964   0.977   0.225   0.862  0.1912  0.8304  2.0191
  655SOL    HW2 1965   1.052   0.291   0.999  0.9970  0.1018  0.7204
  656SOL     OW 1966   0.412   2.515   1.949  0.3060  0.1739 -0.5560
  656SOL    HW1 1967   0.378   2.496   2.042  3.5764 -0.3232 -0.1053
  656SOL    HW2 1968   0.497   2.573   1.951  0.9165 -0.8986 -0.7646
  657SOL     OW 1969   2.464   0.895   0.468  0.1362 -0.0934 -0.3020
  657SOL    HW1 1970   2.399   0.854   0.402  3.1003 -1.1549  0.2378
  657SOL    HW2 1971   2.489   0.987   0.441 -1.6696 -2.6379  0.4164
  658SOL     OW 1972   1.878   2.135   1.217  0.3035 -0.0044  0.3409
  658SOL    HW1 1973   1.824   2.123   1.132  0.8503 -2.9878 -2.3114
  658SOL    HW2 1974   1.841   2.066   1.291  1.7035 -2.7594  3.3750
  659SOL     OW 1975   2.678   1.686   2.813  0.0761  0.3289  0.2812
  659SOL    HW1 1976   2.620   1.603   2.805 -0.1956  1.7330 -1.6660
  659SOL    HW2 1977   2.770   1.658   2.853  0.6205  0.1750  1.0274
  660SOL     OW 1978   0.753   0.325   0.482 -0.7823  0.0324  0.0506
  660SOL    HW1 1979   0.785   0.229   0.495  2.2121  1.9845  1.1059
  660SOL    HW2 1980   0.814   0.369   0.412  1.0045 -0.2653  1.0003
  661SOL     OW 1981   1.705   0.091   0.301 -0.1512  0.0095  0.2203
  661SOL    HW1 1982   1.716   0.126   0.394  0.6654 -2.0269 -1.6005
  661SOL    HW2 1983   1.787   0.116   0.249 -0.3180 -0.8623  0.0856
  662SOL     OW 1984   0.596   3.007   0.579  0.4670  0.2960  0.1205
  662SOL    HW1 1985   0.518   3.061   0.546  1.7838 -0.2216 -0.5655
  662SOL    HW2 1986   0.588   2.959   0.669  0.6559 -1.1383  0.3888
  663SOL     OW 1987   1.302   2.815   2.077  0.3605 -0.8612  0.0368
  663SOL    HW1 1988   1.276   2.907   2.033 -2.4519  1.4659  0.7601
  663SOL    HW2 1989   1.373   2.819   2.151  0.1149  0.7588 -0.5390
  664SOL     OW 1990   0.835   2.379   1.685  0.0031 -0.2176  0.3918
  664SOL    HW1 1991   0.749   2.425   1.657  0.7376  0.0178  1.9249
  664SOL    HW2 1992   0.898   2.444   1.738  2.3866  1.0042  0.7191
  665SOL     OW 1993   0.950   2.125   1.688  0.2999 -0.1449  0.1605
  665SOL    HW1 1994   1.034   2.141   1.629 -2.9361  0.4591 -0.5589
  665SOL    HW2 1995   0.896   2.211   1.685 -0.9529  0.0007  1.7488
  666SOL     OW 1996   0.854   2.995   2.405  0.2043 -0.1453  0.0629
  666SOL    HW1 1997   0.836   3.093   2.431 -1.6745 -1.3273  0.8242
  666SOL    HW2 1998   0.810   2.929   2.467 -0.6680  0.6460  1.1849
  667SOL     OW 1999   2.123   1.397   1.711 -0.1149  0.1396 -0.3736
  667SOL    HW1 2000   2.120   1.401   1.610 -0.3425  0.3523  0.6849
  667SOL    HW2 2001   2.206   1.446   1.750  1.9359 -1.1110  0.3046
  668SOL     OW 2002   1.755   3.016   1.784  0.0437 -0.1445  0.7935
  668SOL    HW1 2003   1.705   2.930   1.792  1.5416 -0.1604 -1.2737
  668SOL    HW2 2004   1.702   3.100   1.814  1.4239  3.1690  2.2291
  669SOL     OW 2005   2.665   2.771   0.922 -0.2323 -0.0327  1.0635
  669SOL    HW1 2006   2.700   2.683   0.958 -1.1226  1.8031  1.7457
  669SOL    HW2 2007   2.718   2.791   0.835  2.2172 -0.4452 -1.2274
  670SOL     OW 2008   1.432   2.575   2.747 -0.3130  0.0303 -0.0781
  670SOL    HW1 2009   1.358   2.641   2.767 -1.6136  1.0387  1.6189
  670SOL    HW2 2010   1.406   2.480   2.767  0.5232  1.0033  0.0099
  671SOL     OW 2011   0.786   1.167   0.482  0.3198  0.3904 -1.2053
  671SOL    HW1 2012   0.746   1.222   0.406  0.8084  0.5601  0.4007
  671SOL    HW2 2013   0.710   1.139   0.540  0.0633 -2.0513  0.4514
  672SOL     OW 2014   2.670   1.174   2.789  0.2627  0.1403 -0.5002
  672SOL    HW1 2015   2.655   1.275   2.812  0.9256  3.1519  0.0469
  672SOL    HW2 2016   2.623   1.156   2.698 -0.1351  1.1731 -2.2230
  673SOL     OW 2017   0.008   2.193   1.579  0.1048 -0.5163  0.1084
  673SOL    HW1 2018   0.065   2.172   1.663  1.7284 -3.1215 -0.3675
  673SOL    HW2 2019   3.073   2.102   1.551  0.2376  2.1419  2.3885
  674SOL     OW 2020   0.780   2.273   2.246 -0.5708 -0.2637 -0.3292
  674SOL    HW1 2021   0.834   2.312   2.324  1.0041  1.7850  0.6193
  674SOL    HW2 2022   0.694   2.234   2.284  0.6302  2.9517  0.7678
  675SOL     OW 2023   0.997   0.728   1.626  0.5225 -0.1283  0.3165
  675SOL    HW1 2024   0.961   0.756   1.718 -2.7682  1.5792 -0.0189
  675SOL    HW2 2025   0.929   0.672   1.581  0.3120  0.8605  1.7285
  676SOL     OW 2026   1.912   3.061   1.344 -0.4442 -0.1127  0.1425
  676SOL    HW1 2027   1.931   2.986   1.277  0.9624 -3.9019  2.1290
  676SOL    HW2 2028   1.840   3.030   1.404 -1.4988  0.7473 -3.1248
  677SOL     OW 2029   2.608   1.430   3.099 -0.5165  0.1578  0.1561
  677SOL    HW1 2030   2.580   1.441   3.001 -0.7887  0.6662  0.3906
  677SOL    HW2 2031   2.598   1.332   0.021 -0.8986 -0.0564  0.0833
  678SOL     OW 2032   2.500   1.165   1.122  0.4152 -0.0916  0.6682
  678SOL    HW1 2033   2.433   1.176   1.199 -0.1312 -0.4482 -2.6928
  678SOL    HW2 2034   2.474   1.233   1.052  1.7186 -0.4073 -1.5586
  679SOL     OW 2035   2.745   0.633   2.859 -0.3479 -0.8778  0.4761
  679SOL    HW1 2036   2.749   0.730   2.828  1.8498  1.1096  0.6560
  679SOL    HW2 2037   2.738   0.623   2.962 -0.3329  2.3640  1.3112
  680SOL     OW 2038   0.632   1.431   2.040  0.6463  0.5938 -0.3800
  680SOL    HW1 2039   0.707   1.472   2.095  0.6232  1.5087  0.3229
  680SOL    HW2 2040   0.550   1.412   2.105 -1.6986 -0.7719  0.2769
  681SOL     OW 2041   2.741   2.110   1.601  0.1036  0.1929  0.5331
  681SOL    HW1 2042   2.794   2.195   1.583 -2.3981  0.6684 -0.0787
  681SOL    HW2 2043   2.719   2.061   1.511  0.9182 -0.3995  1.4410
  682SOL     OW 2044   0.111   2.148   3.067  0.0890 -0.4663  0.4018
  682SOL    HW1 2045   0.172   2.105   0.035  2.8995 -0.3588 -0.6497
  682SOL    HW2 2046   0.049   2.215   0.004  0.5583 -2.1199 -1.1437
  683SOL     OW 2047   3.037   2.086   1.250  0.1211 -0.8446 -0.4303
  683SOL    HW1 2048   3.055   1.993   1.290  2.7894 -1.0388 -1.5080
  683SOL    HW2 2049   2.954   2.130   1.292  2.5489 -0.2952  0.6467
  684SOL     OW 2050   2.979   1.370   2.191  0.2600  0.6700  0.0577
  684SOL    HW1 2051   2.980   1.334   2.098 -0.1990 -1.5325  1.1649
  684SOL    HW2 2052   2.946   1.465   2.193  1.1229 -0.8232 -1.0552
  685SOL     OW 2053   1.336   0.432   0.660 -0.0163  0.4415  0.1918
  685SOL    HW1 2054   1.240   0.403   0.671  1.9559  0.5458 -0.2219
  685SOL    HW2 2055   1.390   0.349   0.639 -0.6546 -1.3780  0.5100
  686SOL     OW 2056   0.488   0.314   0.581 -0.3956  0.2632 -0.2740
  686SOL    HW1 2057   0.584   0.307   0.545  5.2773  1.0422  1.0731
  686SOL    HW2 2058   0.437   0.381   0.525  1.0429 -2.0741  1.1042
  687SOL     OW 2059   0.533   2.059   2.665 -0.4797 -0.5418 -0.1952
  687SOL    HW1 2060   0.571   1.993   2.598  1.3393 -0.3854 -1.1225
  687SOL    HW2 2061   0.433   2.080   2.648 -3.2412 -2.0216  2.6439
  688SOL     OW 2062   2.028   0.376   1.530 -0.5514 -0.0185  0.2931
  688SOL    HW1 2063   2.052   0.278   1.540 -0.0384  1.1389 -2.2018
  688SOL    HW2 2064   2.089   0.412   1.457 -1.0929 -3.0520  0.8262
  689SOL     OW 2065   1.455   0.582   0.883 -0.6554 -0.7864 -1.0538
  689SOL    HW1 2066   1.518   0.518   0.928  0.1428  0.2896  0.7202
  689SOL    HW2 2067   1.402   0.521   0.816 -1.0820 -0.0722  0.8415
  690SOL     OW 2068   3.097   1.363   1.102  0.2451  0.3712 -0.5972
  690SOL    HW1 2069   3.002   1.334   1.100 -1.2687 -0.8291  2.0987
  690SOL    HW2 2070   0.051   1.290   1.058  0.3953 -1.5251  0.8537
  691SOL     OW 2071   0.194   1.928   1.322  0.3321  0.5701 -0.4681
  691SOL    HW1 2072   0.226   1.829   1.330  2.3038  0.0929 -1.4796
  691SOL    HW2 2073   0.217   1.972   1.415  1.2467  2.7786  1.3010
  692SOL     OW 2074   1.187   0.053   1.567  0.3861 -0.6723 -0.6250
  692SOL    HW1 2075   1.246   3.095   1.619 -0.3086 -0.0044 -0.7585
  692SOL    HW2 2076   1.219   0.153   1.579 -0.8846  3.2779  0.9037
  693SOL     OW 2077   0.914   1.572   2.098 -0.0481 -0.2802  0.0227
  693SOL    HW1 2078   0.929   1.674   2.082 -2.6878  2.2405 -1.4856
  693SOL    HW2 2079   0.919   1.530   2.005  0.4429 -1.1730  1.2176
  694SOL     OW 2080   1.706   1.427   0.653  0.0081  0.2484 -0.3026
  694SOL    HW1 2081   1.702   1.456   0.752 -1.1155  0.9729  1.1211
  694SOL    HW2 2082   1.610   1.415   0.613 -0.5430 -0.4773 -2.7382
  695SOL     OW 2083   0.873   0.998   1.224  0.5312 -0.2640  0.1600
  695SOL    HW1 2084   0.846   0.922   1.157  3.0285 -0.4235 -1.5529
  695SOL    HW2 2085   0.827   0.986   1.314  0.9969  2.1763  0.0186
  696SOL     OW 2086   0.143   0.106   0.477 -0.6109  0.9637  0.2368
  696SOL    HW1 2087   0.069   0.061   0.423  2.5017  0.1705 -0.6153
  696SOL    HW2 2088   0.145   0.070   0.575 -0.3333  0.6626  3.3705
  697SOL     OW 2089   1.969   0.424   1.151  0.5361  0.0855  0.1207
  697SOL    HW1 2090   1.896   0.491   1.185 -0.8266  1.1054  1.0252
  697SOL    HW2 2091   1.928   0.328   1.155 -0.8791 -0.5929  0.1766
  698SOL     OW 2092   1.381   1.315   1.806 -0.6998 -0.4413  0.0342
  698SOL    HW1 2093   1.457   1.349   1.754  0.4456 -0.7101  1.0188
  698SOL    HW2 2094   1.363   1.215   1.800 -0.4401 -0.8179 -2.3881
  699SOL     OW 2095   0.035   0.351   2.418  0.0557  0.4354  0.1070
  699SOL    HW1 2096   3.040   0.330   2.415  1.1442 -1.6036 -1.8648
  699SOL    HW2 2097   0.063   0.445   2.450  3.7760  2.0795  1.5328
  700SOL     OW 2098   1.386   2.456   0.856  0.5882 -0.1575  0.1854
  700SOL    HW1 2099   1.457   2.505   0.801  1.8544  2.4023  1.6781
  700SOL    HW2 2100   1.375   2.509   0.940 -0.5742  0.9730 -0.9839
  701SOL     OW 2101   0.158   1.529   2.433  0.1906 -0.3495  0.6901
  701SOL    HW1 2102   0.206   1.612   2.393 -0.6823 -0.7299 -0.8794
  701SOL    HW2 2103   0.178   1.510   2.532  0.3407  1.9032  1.8528
  702SOL     OW 2104   0.410   0.017   0.447  0.0167  0.3741 -0.1910
  702SOL    HW1 2105   0.330   0.077   0.467  1.2299  2.3140  2.1017
  702SOL    HW2 2106   0.390   3.058   0.370  1.5382  1.1635  1.3993
  703SOL     OW 2107   1.793   2.959   2.715 -0.5068  0.2422  0.2336
  703SOL    HW1 2108   1.860   2.936   2.788  0.3686  0.0590 -1.7286
  703SOL    HW2 2109   1.699   2.916   2.723 -3.1640  0.6785 -0.6621
  704SOL     OW 2110   2.579   1.898   0.561 -0.0296 -0.8320 -0.2518
  704SOL    HW1 2111   2.614   1.978   0.512  2.8797 -1.2451 -1.3953
  704SOL    HW2 2112   2.622   1.879   0.652  0.7945 -0.3257 -1.2025
  705SOL     OW 2113   2.739   2.058   2.236 -0.2001  0.2720  0.0205
  705SOL    HW1 2114   2.647   2.098   2.258 -2.3324 -1.3065  0.2921
  705SOL    HW2 2115   2.807   2.129   2.203  0.0547 -0.0415 -0.9881
  706SOL     OW 2116   2.811   2.861   0.589 -0.5376  0.3853  0.0426
  706SOL    HW1 2117   2.777   2.958   0.602 -0.0750 -1.6177  1.4930
  706SOL    HW2 2118   2.901   2.855   0.539 -2.9173  1.1178  1.6147
  707SOL     OW 2119   0.987   3.080   0.153  0.0083  0.0690 -0.1569
  707SOL    HW1 2120   1.020   2.989   0.115 -1.3788  0.6557  0.6701
  707SOL    HW2 2121   0.900   3.104   0.108  1.0038 -0.2988  2.5644
  708SOL     OW 2122   0.161   2.130   1.794 -0.0574 -0.5458  0.0383
  708SOL    HW1 2123   0.115   2.211   1.835 -1.9342  0.9601 -0.9506
  708SOL    HW2 2124   0.196   2.062   1.862  2.1541  0.7518 -0.1602
  709SOL     OW 2125   1.324   2.613   1.913 -0.2149  0.0503  0.2675
  709SOL    HW1 2126   1.340   2.526   1.969  0.6516 -2.6897  2.4795
  709SOL    HW2 2127   1.322   2.688   1.981  2.7057  2.2727 -0.1162
  710SOL     OW 2128   1.842   2.400   2.568 -0.1429 -0.5378  0.2612
  710SOL    HW1 2129   1.797   2.422   2.658 -1.5625 -1.8363  1.0306
  710SOL    HW2 2130   1.772   2.414   2.495  4.3883 -0.5503  2.8405
  711SOL     OW 2131   1.054   2.466   2.849  0.2331 -0.3630 -0.1050
  711SOL    HW1 2132   1.073   2.389   2.783  1.3047 -2.9154 -1.1801
  711SOL    HW2 2133   0.989   2.530   2.811 -1.8006 -1.2347  0.3577
  712SOL     OW 2134   1.103   2.088   2.887 -0.1971  0.1450 -0.1099
  712SOL    HW1 2135   1.190   2.128   2.921 -1.1067 -2.9020  1.5641
  712SOL    HW2 2136   1.024   2.117   2.943 -1.8373 -1.3080 -0.4081
  713SOL     OW 2137   1.498   0.896   1.551 -0.0606 -0.3504  0.0812
  713SOL    HW1 2138   1.540   0.816   1.600 -0.0475 -2.7165 -0.2689
  713SOL    HW2 2139   1.558   0.936   1.480 -0.3480 -1.8687  1.3015
  714SOL     OW 2140   1.156   1.439   1.686 -0.6125 -0.1780  0.2784
  714SOL    HW1 2141   1.242   1.391   1.720  3.1567 -2.5593 -0.4343
  714SOL    HW2 2142   1.121   1.381   1.610  0.6829  0.5702  0.0471
  715SOL     OW 2143   2.767   0.094   0.178 -0.4993  0.5060 -0.1418
  715SOL    HW1 2144   2.814   0.137   0.257 -1.5138 -1.0402 -2.5290
  715SOL    HW2 2145   2.776   3.100   0.170 -2.5716  2.7702 -0.2237
  716SOL     OW 2146   0.724   2.609   1.229 -0.0569 -0.5469  0.5834
  716SOL    HW1 2147   0.731   2.518   1.181  0.6175 -1.3333  2.1041
  716SOL    HW2 2148   0.655   2.667   1.181 -2.2059  1.3314  0.0521
  717SOL     OW 2149   2.710   0.558   0.011  0.6815 -0.6261 -0.1118
  717SOL    HW1 2150   2.687   0.457   0.008 -0.8785  0.9200 -1.5886
  717SOL    HW2 2151   2.800   0.583   0.053 -1.7465 -2.4075 -0.6296
  718SOL     OW 2152   1.725   1.511   1.313 -0.5267 -0.0280  0.1586
  718SOL    HW1 2153   1.774   1.459   1.243 -1.4882  1.8319  2.7277
  718SOL    HW2 2154   1.664   1.446   1.367  0.6345  0.4762 -0.9207
  719SOL     OW 2155   2.922   2.646   0.082 -0.8580 -0.5082  0.5098
  719SOL    HW1 2156   2.914   2.625   3.084 -1.8444 -0.7764 -1.7043
  719SOL    HW2 2157   2.830   2.655   0.126  1.2983  1.5300 -1.4493
  720SOL     OW 2158   0.968   0.587   0.968  0.5069  0.2703  0.6448
  720SOL    HW1 2159   1.065   0.601   0.992 -1.8676 -0.1444  0.6908
  720SOL    HW2 2160   0.954   0.489   0.951 -3.5793  2.7610  1.9584
  721SOL     OW 2161   1.815   0.166   0.927 -0.5406 -0.1573 -0.0185
  721SOL    HW1 2162   1.904   0.149   0.882  0.6091  0.9720  0.4103
  721SOL    HW2 2163   1.821   0.184   1.028 -2.2472 -0.2204 -2.5330
  722SOL     OW 2164   0.917   1.865   2.094  0.4340  0.7015  0.0773
  722SOL    HW1 2165   0.840   1.823   2.149 -0.4019  0.4068 -0.9042
  722SOL    HW2 2166   0.994   1.899   2.150  0.3344  1.6223  1.6390
  723SOL     OW 2167   1.077   3.041   1.350 -0.0979 -0.1007 -0.3759
  723SOL    HW1 2168   1.148   3.027   1.282 -1.8909  2.1901  2.2743
  723SOL    HW2 2169   1.113   3.094   1.426 -1.4809 -0.9680  1.3399
  724SOL     OW 2170   1.788   1.926   1.942  0.1583  0.2559 -0.0280
  724SOL    HW1 2171   1.868   1.893   1.887 -1.1345 -0.7033 -1.3401
  724SOL    HW2 2172   1.785   1.885   2.036  0.7382  0.7662  1.2075
  725SOL     OW 2173   1.392   2.752   1.476 -0.1285 -0.4507  0.1883
  725SOL    HW1 2174   1.471   2.810   1.450 -0.5829 -0.7152 -0.3811
  725SOL    HW2 2175   1.429   2.658   1.504 -1.1127 -1.4712  2.5423
  726SOL     OW 2176   1.452   0.242   0.310 -0.3070 -0.3256  0.3809
  726SOL    HW1 2177   1.542   0.201   0.281  1.8807  1.8932  1.0903
  726SOL    HW2 2178   1.421   0.317   0.249  0.3802 -2.6060 -0.9343
  727SOL     OW 2179   1.373   1.825   0.868  0.5485 -0.2981  0.0817
  727SOL    HW1 2180   1.331   1.784   0.954 -0.1134 -3.0861 -0.0012
  727SOL    HW2 2181   1.346   1.925   0.865  0.1331  0.6580 -0.7085
  728SOL     OW 2182   2.057   2.636   2.575  0.2120 -0.2112  0.2546
  728SOL    HW1 2183   2.004   2.688   2.502 -2.5331  0.5161 -3.3086
  728SOL    HW2 2184   2.073   2.542   2.539 -0.3413  2.7241 -0.3583
  729SOL     OW 2185   2.246   2.244   1.630  0.3255 -0.0853 -0.5356
  729SOL    HW1 2186   2.294   2.316   1.685  1.9783 -0.5580 -0.0177
  729SOL    HW2 2187   2.315   2.173   1.598 -0.0213 -0.7713 -1.7108
  730SOL     OW 2188   1.747   0.480   2.590 -0.4212 -0.0108  0.7609
  730SOL    HW1 2189   1.677   0.502   2.659  0.9555 -3.2083 -0.5634
  730SOL    HW2 2190   1.720   0.403   2.524  3.3362 -2.2835 -2.5275
  731SOL     OW 2191   0.607   0.195   1.221  0.3775 -0.5276 -0.0817
  731SOL    HW1 2192   0.644   0.261   1.155  2.3773 -1.2188  2.5159
  731SOL    HW2 2193   0.687   0.137   1.253  3.2994 -1.2031  1.5639
  732SOL     OW 2194   1.909   2.822   1.176  0.0497  0.0806  0.2915
  732SOL    HW1 2195   1.834   2.844   1.113  1.4259 -1.5269 -1.1470
  732SOL    HW2 2196   1.880   2.764   1.256  1.0344 -0.8766 -1.8647
  733SOL     OW 2197   1.152   0.928   1.260  0.5105 -0.4887  0.4644
  733SOL    HW1 2198   1.055   0.964   1.247  1.3702  0.3058 -0.4221
  733SOL    HW2 2199   1.204   0.997   1.318  0.5903  2.6760  1.4505
  734SOL     OW 2200   2.584   2.382   0.425 -0.6232 -0.3775 -0.2706
  734SOL    HW1 2201   2.486   2.410   0.423  2.1006  0.7941 -0.7116
  734SOL    HW2 2202   2.625   2.407   0.516  0.2352 -1.8157  1.1856
  735SOL     OW 2203   0.519   0.489   3.092  0.3504 -0.1178 -0.5971
  735SOL    HW1 2204   0.549   0.571   3.035 -0.1528  1.2012  1.6223
  735SOL    HW2 2205   0.577   0.476   0.070 -0.1339  1.1467  0.2030
  736SOL     OW 2206   1.828   2.139   2.589 -0.2663  0.3907  0.4652
  736SOL    HW1 2207   1.839   2.242   2.600 -2.8037 -0.6047  1.0531
  736SOL    HW2 2208   1.855   2.087   2.673 -0.8411  0.2778  0.7305
  737SOL     OW 2209   1.177   2.277   1.126  0.2156 -0.0115  0.2885
  737SOL    HW1 2210   1.131   2.315   1.207  0.3599  1.2679 -1.8469
  737SOL    HW2 2211   1.175   2.172   1.131  0.6745 -2.4254  0.6575
  738SOL     OW 2212   1.713   2.694   2.150 -0.3559 -0.3942  0.3381
  738SOL    HW1 2213   1.639   2.764   2.162 -0.7663 -1.0533 -0.2331
  738SOL    HW2 2214   1.786   2.725   2.083  2.0302  1.4356 -3.6495
  739SOL     OW 2215   1.125   1.950   2.245  0.2073  0.1633 -0.3563
  739SOL    HW1 2216   1.187   2.028   2.236 -0.0509 -1.7465 -0.4875
  739SOL    HW2 2217   1.057   1.961   2.327 -0.7967 -1.5167  1.0873
  740SOL     OW 2218   2.000   2.151   1.689 -0.4423 -0.5132 -0.0050
  740SOL    HW1 2219   2.020   2.058   1.647  2.3977  0.4241  2.4787
  740SOL    HW2 2220   2.082   2.208   1.681 -1.7150 -0.0256  1.3735
  741SOL     OW 2221   2.082   1.800   0.030 -0.0909  0.0974 -0.4896
  741SOL    HW1 2222   1.984   1.787   3.101 -2.7424 -1.3727 -1.6588
  741SOL    HW2 2223   2.144   1.801   3.055  1.9463  1.6860  1.1949
  742SOL     OW 2224   1.050   0.954   2.794 -0.0640  0.4839 -0.3334
  742SOL    HW1 2225   0.972   1.011   2.759  0.9808 -3.8174 -0.8733
  742SOL    HW2 2226   1.087   0.896   2.722  1.2229  1.3977  3.0463
  743SOL     OW 2227   2.551   1.055   2.570  0.1755 -0.2617  0.1284
  743SOL    HW1 2228   2.583   0.963   2.532  0.0371 -3.9044 -0.4041
  743SOL    HW2 2229   2.468   1.090   2.523  2.4142 -2.4552  0.7918
  744SOL     OW 2230   2.353   2.452   1.810 -0.4062 -0.0692 -0.1849
  744SOL    HW1 2231   2.291   2.533   1.811  0.5104  1.8868 -1.6730
  744SOL    HW2 2232   2.450   2.477   1.843 -0.7899 -1.0588  2.2844
  745SOL     OW 2233   2.759   1.839   1.426 -0.0424 -0.4245  0.7688
  745SOL    HW1 2234   2.732   1.888   1.340 -0.3955  0.6454  1.3530
  745SOL    HW2 2235   2.692   1.763   1.445 -0.2886 -1.2648 -0.5511
  746SOL     OW 2236   2.894   1.658   0.889 -0.2174  0.0414 -0.0095
  746SOL    HW1 2237   2.962   1.650   0.964  1.0501 -0.2079  2.6848
  746SOL    HW2 2238   2.899   1.744   0.834  0.1424  0.3565 -0.1992
  747SOL     OW 2239   1.727   2.441   0.304 -0.0376 -0.2850  0.2958
  747SOL    HW1 2240   1.824   2.432   0.336  2.2030 -0.4425 -1.2342
  747SOL    HW2 2241   1.679   2.354   0.336 -1.0287  2.2662 -1.6929
  748SOL     OW 2242   1.002   2.014   0.342  0.0118  0.0502  0.2929
  748SOL    HW1 2243   1.054   2.054   0.265  0.9143  0.7646  2.9314
  748SOL    HW2 2244   0.901   2.011   0.316 -0.6063  2.3154  0.1679
  749SOL     OW 2245   2.729   0.424   2.101 -0.7070  0.2968  0.0900
  749SOL    HW1 2246   2.747   0.524   2.099  0.7534  1.4864  1.4543
  749SOL    HW2 2247   2.633   0.420   2.067  0.5454  0.3088  0.6852
  750SOL     OW 2248   1.426   0.217   1.407  0.9271  0.5448 -0.4595
  750SOL    HW1 2249   1.381   0.248   1.498 -2.2317 -0.6669  0.0197
  750SOL    HW2 2250   1.457   0.119   1.419  0.7553 -1.0019 -0.7172
  751SOL     OW 2251   2.196   2.546   2.228  0.2518 -0.9959  0.2050
  751SOL    HW1 2252   2.097   2.517   2.217 -0.6964 -1.6870  2.4373
  751SOL    HW2 2253   2.253   2.461   2.238 -0.0708 -3.4450  2.4843
  752SOL     OW 2254   2.022   1.855   0.961  0.4879  0.1779  0.2003
  752SOL    HW1 2255   1.961   1.804   1.023  1.3958  0.8129  0.3376
  752SOL    HW2 2256   2.107   1.796   0.944  1.9505  0.2945 -3.2605
  753SOL     OW 2257   1.405   0.647   2.324 -0.4010 -0.1094 -0.2171
  753SOL    HW1 2258   1.484   0.658   2.391  1.0579  0.5156  0.0442
  753SOL    HW2 2259   1.413   0.709   2.245 -1.9850  0.3385  0.6055
  754SOL     OW 2260   0.355   2.845   0.949  0.4260  0.1620 -0.8149
  754SOL    HW1 2261   0.303   2.931   0.977 -1.3699  2.3969 -1.4682
  754SOL    HW2 2262   0.287   2.773   0.927  0.5490  0.4770 -0.4280
  755SOL     OW 2263   2.203   3.017   1.648 -0.5164  0.2571 -0.5384
  755SOL    HW1 2264   2.301   2.994   1.621  2.6496 -1.6588  2.2613
  755SOL    HW2 2265   2.157   3.088   1.584  0.8538  3.1812 -2.7993
  756SOL     OW 2266   1.618   1.155   2.576 -0.3596  0.2947 -0.0746
  756SOL    HW1 2267   1.533   1.125   2.628  0.4633  2.6284 -1.8323
  756SOL    HW2 2268   1.607   1.134   2.478  0.3074  0.6139  1.6535
  757SOL     OW 2269   3.055   2.980   1.729 -0.0017 -0.3373  0.6928
  757SOL    HW1 2270   3.000   3.067   1.756 -0.2058  0.7701  0.6879
  757SOL    HW2 2271   2.998   2.927   1.660 -0.4940 -1.5556  0.8029
  758SOL     OW 2272   0.497   3.029   1.515 -0.0213 -0.3313 -0.9332
  758SOL    HW1 2273   0.553   3.091   1.576 -0.7051 -0.9165 -0.5866
  758SOL    HW2 2274   0.536   3.009   1.421 -0.6571  0.4305  2.2849
  759SOL     OW 2275   2.173   1.263   0.822  0.0413  0.2315  0.0356
  759SOL    HW1 2276   2.210   1.196   0.751  0.8919  1.1757 -1.2016
  759SOL    HW2 2277   2.118   1.327   0.768  0.8473 -1.3472  2.3734
  760SOL     OW 2278   1.540   0.102   1.766 -0.0574 -0.6750 -0.4034
  760SOL    HW1 2279   1.538   0.192   1.717  1.4876  1.2003 -1.9573
  760SOL    HW2 2280   1.541   0.120   1.866  1.5129  3.3000  0.1969
  761SOL     OW 2281   2.002   0.403   0.336  0.0611 -0.4289  0.4575
  761SOL    HW1 2282   2.093   0.433   0.303 -0.2294 -1.2341  0.7667
  761SOL    HW2 2283   1.934   0.475   0.312  2.8515 -2.3773  2.1020
  762SOL     OW 2284   2.329   2.742   3.062  0.1367 -0.1710  0.4030
  762SOL    HW1 2285   2.412   2.681   3.056  2.0732 -3.6362 -0.0945
  762SOL    HW2 2286   2.248   2.679   3.081  0.6899 -2.3175  1.3977
  763SOL     OW 2287   0.801   0.783   1.064 -0.1379 -0.1525  0.2709
  763SOL    HW1 2288   0.852   0.695   1.044 -0.4784  0.2763 -0.3430
  763SOL    HW2 2289   0.787   0.831   0.973  0.7033 -0.0565 -1.7397
  764SOL     OW 2290   2.231   2.436   2.871 -0.0435  0.3232 -0.6538
  764SOL    HW1 2291   2.241   2.483   2.961 -0.4469 -0.5202 -1.8369
  764SOL    HW2 2292   2.264   2.486   2.792  0.7837  0.9057 -0.9029
  765SOL     OW 2293   3.055   0.816   2.097  0.3844  0.0163  0.1065
  765SOL    HW1 2294   3.092   0.723   2.063  0.0022  0.0067 -0.9224
  765SOL    HW2 2295   0.010   0.843   2.180 -0.1040 -0.6964  0.4396
  766SOL     OW 2296   2.529   1.432   2.845 -0.0046 -0.6545 -0.2149
  766SOL    HW1 2297   2.444   1.449   2.901 -2.0802 -1.1814 -1.1927
  766SOL    HW2 2298   2.513   1.472   2.753  4.5484  2.4516  0.1687
  767SOL     OW 2299   3.091   1.562   1.965  0.7338 -0.5450 -0.3696
  767SOL    HW1 2300   3.000   1.588   2.005 -1.0020 -1.8527  2.2009
  767SOL    HW2 2301   3.104   1.461   1.958 -1.2383  0.2950 -1.8792
  768SOL     OW 2302   1.040   1.006   0.197 -0.0827  0.1057  0.0883
  768SOL    HW1 2303   0.995   0.957   0.271  3.0644  1.3291 -0.7997
  768SOL    HW2 2304   1.111   0.954   0.148 -0.0185  1.0416 -0.5480
  769SOL     OW 2305   1.929   2.648   2.846  0.0045 -0.2540  0.3926
  769SOL    HW1 2306   1.979   2.634   2.755 -0.9596  0.1435 -3.3430
  769SOL    HW2 2307   1.948   2.746   2.885  2.5266  1.4021  2.4937
  770SOL     OW 2308   0.648   0.237   2.261 -0.2986  0.6054 -0.8205
  770SOL    HW1 2309   0.605   0.294   2.332 -1.9356 -1.8254  0.0001
  770SOL    HW2 2310   0.680   0.298   2.184 -1.6761  0.8569 -4.1640
  771SOL     OW 2311   0.687   2.372   1.113 -0.0033  0.6041  0.1445
  771SOL    HW1 2312   0.605   2.365   1.172  1.7234  2.2025 -0.7764
  771SOL    HW2 2313   0.679   2.316   1.027  2.0065 -0.8610 -1.6271
  772SOL     OW 2314   0.205   0.659   0.218 -0.5290  0.3602  0.2159
  772SOL    HW1 2315   0.228   0.561   0.202  2.3238 -1.9077 -1.0604
  772SOL    HW2 2316   0.168   0.669   0.314 -1.4685  0.1369  2.2183
  773SOL     OW 2317   2.055   0.914   1.810 -0.3789 -0.1848  0.1742
  773SOL    HW1 2318   2.118   0.833   1.822  0.1517  1.1893  1.4787
  773SOL    HW2 2319   2.044   0.946   1.715 -4.1398 -1.0372  0.8989
  774SOL     OW 2320   0.973   1.058   0.645 -0.1174  0.5874 -0.6247
  774SOL    HW1 2321   0.931   1.097   0.559 -1.0915 -0.7614  1.8704
  774SOL    HW2 2322   0.931   1.090   0.732  1.4631 -1.8216  1.8864
  775SOL     OW 2323   1.797   3.063   3.062  0.4555 -0.0180 -0.0302
  775SOL    HW1 2324   1.703   3.027   3.086 -0.6003 -1.3708 -4.2031
  775SOL    HW2 2325   1.802   0.060   3.075 -1.5494  0.1540  1.2335
  776SOL     OW 2326   2.168   0.167   2.404 -0.6882  0.0630  0.2017
  776SOL    HW1 2327   2.088   0.115   2.442  1.5724  0.6289 -0.6506
  776SOL    HW2 2328   2.250   0.113   2.381 -1.4228 -1.3538  0.9021
  777SOL     OW 2329   0.934   1.677   0.193  0.0134  0.1062 -0.3892
  777SOL    HW1 2330   1.013   1.703   0.132 -2.9159  0.8541  1.6086
  777SOL    HW2 2331   0.846   1.684   0.148 -0.0373  1.1019  1.6762
  778SOL     OW 2332   0.403   2.979   0.199 -0.4871 -0.1548 -0.1056
  778SOL    HW1 2333   0.370   2.900   0.254 -0.3161 -1.3207  0.5368
  778SOL    HW2 2334   0.507   2.984   0.191 -0.7368  2.9053 -1.3304
  779SOL     OW 2335   0.262   1.338   2.921  0.8807 -0.1923 -0.2889
  779SOL    HW1 2336   0.179   1.287   2.955  3.0075 -0.5501 -0.0804
  779SOL    HW2 2337   0.338   1.275   2.895 -0.3377 -0.4267  0.1601
  780SOL     OW 2338   2.130   0.428   2.331  0.6286  0.0331 -0.1455
  780SOL    HW1 2339   2.043   0.453   2.285  3.2549  2.3742  0.4717
  780SOL    HW2 2340   2.136   0.328   2.353 -2.6274  0.4578 -0.9737
  781SOL     OW 2341   1.637   0.679   1.644  0.3106 -0.0186 -0.0380
  781SOL    HW1 2342   1.722   0.719   1.683  2.7829 -2.0408  2.9903
  781SOL    HW2 2343   1.652   0.595   1.587  1.0380 -1.5039 -1.4145
  782SOL     OW 2344   1.705   1.835   2.307  0.1831 -0.4076  0.3886
  782SOL    HW1 2345   1.784   1.902   2.300 -2.3664  1.1966 -0.6803
  782SOL    HW2 2346   1.732   1.735   2.318  0.1682 -1.3132  0.1905
  783SOL     OW 2347   1.234   3.025   1.130 -0.6155  0.4359  0.3283
  783SOL    HW1 2348   1.219   2.929   1.163 -0.4503 -1.2684  1.4125
  783SOL    HW2 2349   1.209   3.029   1.031 -0.1544 -2.4752 -0.1234
  784SOL     OW 2350   1.642   0.719   2.457  0.0900  0.1872 -0.2242
  784SOL    HW1 2351   1.692   0.633   2.473  2.2616 -0.6963  0.0929
  784SOL    HW2 2352   1.632   0.768   2.547  1.1726  0.6523 -0.3079
  785SOL     OW 2353   1.770   0.224   3.048  0.0372  0.3347  0.1429
  785SOL    HW1 2354   1.813   0.231   0.039  0.7525 -0.2299  1.0416
  785SOL    HW2 2355   1.831   0.271   2.979  0.7827 -0.7047 -3.1172
  786SOL     OW 2356   2.935   1.873   0.750 -0.7074 -0.0841 -0.0537
  786SOL    HW1 2357   3.012   1.854   0.680  0.8886  1.0576  1.4320
  786SOL    HW2 2358   2.921   1.972   0.763  0.7678 -0.4129 -0.1412
  787SOL     OW 2359   1.633   2.212   0.396 -0.2700  0.4689  0.3844
  787SOL    HW1 2360   1.633   2.176   0.494  0.4345 -2.1363  0.7661
  787SOL    HW2 2361   1.540   2.206   0.354 -2.5690  1.2618 -2.3888
  788SOL     OW 2362   2.075   1.594   1.344  0.1995 -0.3013 -0.0629
  788SOL    HW1 2363   2.126   1.680   1.365  0.5390 -0.4928 -0.9687
  788SOL    HW2 2364   1.996   1.606   1.280 -0.8950  0.6466 -0.8644
  789SOL     OW 2365   3.047   1.405   2.712  0.3489 -0.0024 -0.1424
  789SOL    HW1 2366   0.038   1.421   2.691 -2.4527  0.2581 -0.7238
  789SOL    HW2 2367   3.018   1.309   2.683 -3.5673 -2.4981  0.6012
  790SOL     OW 2368   0.475   0.329   2.863  0.2614  0.5853  0.7526
  790SOL    HW1 2369   0.476   0.374   2.954  0.6674 -3.0859 -1.4995
  790SOL    HW2 2370   0.427   0.396   2.805 -2.3292  0.0920 -0.0187
  791SOL     OW 2371   0.935   0.296   2.253  0.1868 -0.1907 -0.0510
  791SOL    HW1 2372   0.887   0.219   2.300  1.9357 -0.9478 -0.1945
  791SOL    HW2 2373   0.907   0.293   2.152  1.0648  0.5220 -1.1212
  792SOL     OW 2374   1.709   0.660   2.075  0.3532 -0.3931  0.2187
  792SOL    HW1 2375   1.763   0.730   2.131  2.3239 -1.6207  0.5111
  792SOL    HW2 2376   1.608   0.671   2.088 -0.7277 -0.8987  0.8000
  793SOL     OW 2377   2.635   0.641   1.485  0.4398  0.6333 -0.3844
  793SOL    HW1 2378   2.692   0.620   1.403  0.0422  0.5259  0.8721
  793SOL    HW2 2379   2.547   0.591   1.470 -0.1612 -0.6011  1.7263
  794SOL     OW 2380   0.372   0.707   2.000 -0.0662 -0.1608  0.3378
  794SOL    HW1 2381   0.344   0.749   1.908  0.2488  2.3464 -2.5819
  794SOL    HW2 2382   0.295   0.697   2.059  3.4608 -1.7231 -1.0764
  795SOL     OW 2383   2.919   1.273   0.330 -0.1053  0.0726  0.2239
  795SOL    HW1 2384   2.886   1.351   0.382  0.2732 -0.0360  1.1197
  795SOL    HW2 2385   2.922   1.195   0.398  0.6436  0.8144  1.6768
  796SOL     OW 2386   0.405   2.652   0.018 -0.1392  0.1328 -0.3218
  796SOL    HW1 2387   0.352   2.738   0.020 -2.8147 -0.7059 -1.1977
  796SOL    HW2 2388   0.362   2.586   0.078  1.8342  1.2294  0.3246
  797SOL     OW 2389   2.133   2.570   0.028  0.3494  0.4319  0.0982
  797SOL    HW1 2390   2.156   2.481   0.064  0.6351  3.3885 -0.9886
  797SOL    HW2 2391   2.033   2.585   0.010 -0.9749  1.9429 -1.0211
  798SOL     OW 2392   0.078   0.963   1.721  0.1914  0.1540  0.1411
  798SOL    HW1 2393   0.147   0.892   1.751  0.7365 -0.6991  0.8434
  798SOL    HW2 2394   0.107   1.012   1.637 -0.2387  1.6747  1.2870
  799SOL     OW 2395   2.767   0.664   2.354  0.1885 -0.3553 -0.2463
  799SOL    HW1 2396   2.780   0.666   2.255  0.9308  1.8972  0.3832
  799SOL    HW2 2397   2.689   0.719   2.385  0.5002 -3.1837  0.5506
  800SOL     OW 2398   2.951   2.152   0.768 -0.8415  0.1001  0.0855
  800SOL    HW1 2399   3.025   2.158   0.701 -2.9613 -2.8913  1.3918
  800SOL    HW2 2400   2.987   2.169   0.863 -0.2567 -0.2274  1.0845
  801SOL     OW 2401   1.812   1.098   1.120  0.1728 -0.3242  0.6590
  801SOL    HW1 2402   1.827   1.047   1.033 -0.9226 -2.1088 -0.5283
  801SOL    HW2 2403   1.784   1.193   1.102  0.8355 -1.1007  1.4356
  802SOL     OW 2404   1.128   1.844   1.551 -0.0870 -0.1003 -0.2280
  802SOL    HW1 2405   1.197   1.904   1.600 -0.2784  1.8468  0.5467
  802SOL    HW2 2406   1.084   1.897   1.478  0.4672 -0.3948  0.3502
  803SOL     OW 2407   3.026   1.656   0.354 -0.4852 -0.1197 -0.7426
  803SOL    HW1 2408   3.097   1.619   0.292  1.2019  0.0026 -0.2068
  803SOL    HW2 2409   2.994   1.747   0.323  2.1816 -1.3374 -2.2216
  804SOL     OW 2410   1.061   2.403   1.336 -0.0295 -0.3293 -0.1903
  804SOL    HW1 2411   1.093   2.399   1.430  2.1382 -0.8847  1.4010
  804SOL    HW2 2412   1.048   2.499   1.305  1.3466  0.3789 -1.1556
  805SOL     OW 2413   1.539   1.210   0.230  0.6908 -0.4465  0.1137
  805SOL    HW1 2414   1.561   1.310   0.205 -1.1395 -0.2032  2.5345
  805SOL    HW2 2415   1.479   1.180   0.153  2.8978 -0.9339 -1.2211
  806SOL     OW 2416   1.486   0.004   1.117  0.6647  0.0915  0.3615
  806SOL    HW1 2417   1.399   3.052   1.106  1.9495 -0.7711  1.2034
  806SOL    HW2 2418   1.498   0.019   1.219 -1.2829  0.6980  0.6323
  807SOL     OW 2419   2.167   3.060   2.842 -0.0746  0.2566  0.4554
  807SOL    HW1 2420   2.179   0.035   2.777  0.2813  0.9786 -1.6938
  807SOL    HW2 2421   2.243   2.993   2.827  0.5294  1.5851 -2.2489
  808SOL     OW 2422   0.064   1.195   3.042 -0.0373 -0.1231 -0.5019
  808SOL    HW1 2423   3.070   1.205   3.067 -0.1660 -1.0234  1.6927
  808SOL    HW2 2424   0.113   1.168   0.022  1.2111  1.1031 -0.4812
  809SOL     OW 2425   2.751   1.021   2.247 -0.2455  1.0194 -0.5915
  809SOL    HW1 2426   2.778   1.024   2.151  0.3833  0.1853  0.7953
  809SOL    HW2 2427   2.663   0.973   2.261  0.9593 -0.1719  1.3500
  810SOL     OW 2428   2.329   3.015   2.035  0.3247  0.5607  0.2214
  810SOL    HW1 2429   2.288   3.103   2.008 -1.3000 -3.8851  0.9318
  810SOL    HW2 2430   2.255   2.948   2.062  0.5957 -1.2286  1.2002
  811SOL     OW 2431   2.599   2.577   1.803  0.1932 -0.4447 -0.5270
  811SOL    HW1 2432   2.598   2.661   1.861  2.5973  0.6804  0.7053
  811SOL    HW2 2433   2.691   2.534   1.788  0.8808 -0.2929 -0.4297
  812SOL     OW 2434   1.660   0.445   0.064 -0.5110 -0.2259  0.3765
  812SOL    HW1 2435   1.562   0.464   0.097 -0.0929  1.1486  0.1177
  812SOL    HW2 2436   1.675   0.354   0.024  3.0564 -0.0070  1.3111
  813SOL     OW 2437   2.022   0.263   1.901  0.0645  0.6411  0.0214
  813SOL    HW1 2438   2.012   0.182   1.844  0.9603 -0.2609 -0.5253
  813SOL    HW2 2439   2.005   0.353   1.854  0.1992 -0.3905 -0.9978
  814SOL     OW 2440   1.739   1.124   1.508  0.1421  0.6673  0.5088
  814SOL    HW1 2441   1.794   1.169   1.582  0.6468  2.3395 -1.1746
  814SOL    HW2 2442   1.681   1.195   1.463  0.1914  1.4625  1.7097
  815SOL     OW 2443   0.344   0.867   0.481 -0.3698 -0.4778 -0.0604
  815SOL    HW1 2444   0.359   0.869   0.381 -0.8148 -2.9202  1.4512
  815SOL    HW2 2445   0.344   0.962   0.516  0.7749 -1.9900 -0.3750
  816SOL     OW 2446   2.031   1.842   2.707 -0.2125  1.2276 -0.8377
  816SOL    HW1 2447   2.036   1.827   2.608  0.1599  0.2486  1.6833
  816SOL    HW2 2448   2.017   1.751   2.756  1.9946  0.5700  1.2685
  817SOL     OW 2449   0.186   3.050   0.687 -0.1789  0.1510  0.3511
  817SOL    HW1 2450   0.268   2.997   0.660 -0.3661 -1.4806 -0.6235
  817SOL    HW2 2451   0.181   3.060   0.793  0.2799 -0.5423  3.5320
  818SOL     OW 2452   2.006   0.019   2.562 -0.0911  0.4117 -0.2860
  818SOL    HW1 2453   1.980   3.032   2.606 -0.4622 -1.8678  3.8858
  818SOL    HW2 2454   1.979   0.094   2.621 -0.1551 -2.3438  1.3930
  819SOL     OW 2455   1.185   0.947   0.519 -0.7613  0.6076  0.4368
  819SOL    HW1 2456   1.222   0.887   0.591 -0.1935  2.1635  1.2731
  819SOL    HW2 2457   1.107   0.996   0.562  0.1526 -1.7412  2.4675
  820SOL     OW 2458   2.242   0.786   0.725 -0.1402  0.0939  0.4521
  820SOL    HW1 2459   2.282   0.877   0.721  1.7847 -3.7808  1.5471
  820SOL    HW2 2460   2.224   0.745   0.634 -1.2717 -1.4364  1.9246
  821SOL     OW 2461   2.424   0.017   0.561 -0.4637  0.1570 -0.0111
  821SOL    HW1 2462   2.471   0.026   0.468  0.5750  0.3008 -2.9312
  821SOL    HW2 2463   2.329   3.082   0.549  3.3289 -0.8912 -2.7759
  822SOL     OW 2464   0.645   2.823   2.544 -0.3115 -0.3436 -0.0199
  822SOL    HW1 2465   0.654   2.747   2.610 -2.0263 -1.0268 -0.3093
  822SOL    HW2 2466   0.602   2.795   2.456  0.6279  0.0473  0.5618
  823SOL     OW 2467   0.014   2.325   1.890  0.3553 -0.3067 -0.7073
  823SOL    HW1 2468   3.039   2.264   1.903  0.8109 -0.8368 -0.0238
  823SOL    HW2 2469   3.087   2.403   1.827 -1.8956 -0.8489 -2.3702
  824SOL     OW 2470   1.001   2.773   2.060 -0.5374  0.5358 -0.2523
  824SOL    HW1 2471   1.104   2.760   2.076  0.7053 -0.6842 -0.6002
  824SOL    HW2 2472   0.971   2.685   2.025  0.6666  1.8846  0.8496
  825SOL     OW 2473   1.394   1.786   0.434  0.2026 -0.6326 -0.1163
  825SOL    HW1 2474   1.403   1.683   0.420 -2.6983 -1.7917  0.4504
  825SOL    HW2 2475   1.296   1.816   0.415 -1.5458 -1.6123 -2.1518
  826SOL     OW 2476   1.283   2.918   3.021  0.1989 -0.3074  0.3757
  826SOL    HW1 2477   1.216   2.965   2.953  0.0840  2.0667  1.4848
  826SOL    HW2 2478   1.252   2.822   3.044  1.3233 -2.5550 -1.7414
  827SOL     OW 2479   0.269   1.653   1.374  0.4805 -0.2063  0.3603
  827SOL    HW1 2480   0.358   1.695   1.344 -1.2628  0.2417 -1.3510
  827SOL    HW2 2481   0.252   1.568   1.320 -0.2188  2.1010 -3.2944
  828SOL     OW 2482   2.437   1.352   1.388 -0.5194  0.0454 -0.6506
  828SOL    HW1 2483   2.346   1.336   1.425  0.0906 -0.0688  2.7398
  828SOL    HW2 2484   2.509   1.288   1.433  3.3052 -1.6758  0.9935
  829SOL     OW 2485   2.958   2.108   0.418 -0.3862  0.0162  0.2226
  829SOL    HW1 2486   3.021   2.152   0.486 -0.4942  0.2567  2.0876
  829SOL    HW2 2487   3.003   2.047   0.350 -0.4988 -2.6369 -0.4160
  830SOL     OW 2488   1.053   0.635   0.491  0.4974  0.0984 -0.0440
  830SOL    HW1 2489   1.145   0.592   0.475  2.9574  2.8934 -1.7022
  830SOL    HW2 2490   1.049   0.673   0.583  0.0577  0.6947 -1.7734
  831SOL     OW 2491   2.853   2.072   0.049 -0.5466  0.2794 -0.3726
  831SOL    HW1 2492   2.754   2.041   0.039 -1.7725 -0.5384 -0.6650
  831SOL    HW2 2493   2.861   2.174   0.056  2.2431 -1.3006 -1.3988
  832SOL     OW 2494   0.912   2.726   0.277 -0.3871  0.0850  0.0213
  832SOL    HW1 2495   0.859   2.767   0.349 -1.5349  0.4028 -1.1179
  832SOL    HW2 2496   1.000   2.684   0.309 -1.2136 -1.3113  2.9345
  833SOL     OW 2497   1.190   0.385   2.227 -0.6794 -0.2404 -0.2194
  833SOL    HW1 2498   1.090   0.359   2.244 -2.6350  1.0862 -2.4675
  833SOL    HW2 2499   1.201   0.485   2.210 -0.8899 -0.7311 -1.0404
  834SOL     OW 2500   0.020   0.949   0.621  0.2676  0.6946 -0.3105
  834SOL    HW1 2501   3.042   0.989   0.576  0.2860 -0.7244  2.7205
  834SOL    HW2 2502   0.020   0.846   0.632  0.5993 -0.9748 -1.7316
  835SOL     OW 2503   2.482   0.449   1.999  0.0015 -0.7027  0.4377
  835SOL    HW1 2504   2.475   0.543   1.969  0.9844  0.3355  0.6315
  835SOL    HW2 2505   2.424   0.419   2.083 -0.3842 -0.6349  0.6292
  836SOL     OW 2506   0.613   2.236   0.871  0.3129 -0.0108 -0.1406
  836SOL    HW1 2507   0.664   2.320   0.833 -1.2632  1.9620 -3.7116
  836SOL    HW2 2508   0.619   2.157   0.808 -0.8259  2.5012 -1.0746
  837SOL     OW 2509   2.312   1.945   2.242  0.5191  0.2810 -0.1820
  837SOL    HW1 2510   2.364   1.858   2.210  1.2045  0.4617 -0.7880
  837SOL    HW2 2511   2.258   1.916   2.329 -3.2236 -0.6750  1.5207
  838SOL     OW 2512   0.272   1.343   1.709  0.0077  0.2254 -0.5487
  838SOL    HW1 2513   0.284   1.307   1.618  1.4612 -1.1480  3.4025
  838SOL    HW2 2514   0.269   1.443   1.717 -0.6522 -0.1242  2.6034
  839SOL     OW 2515   0.126   0.381   0.555  0.3316  0.2938 -0.1240
  839SOL    HW1 2516   0.181   0.449   0.505 -0.3164 -1.4690 -2.2050
  839SOL    HW2 2517   0.151   0.294   0.512 -0.4552  2.1040 -1.1263
  840SOL     OW 2518   0.064   0.621   2.566 -0.6663  0.2463  0.5051
  840SOL    HW1 2519   0.015   0.696   2.519  0.8615  0.3754  0.3198
  840SOL    HW2 2520   0.005   0.568   2.634  3.0573 -1.0669 -1.0063
  841SOL     OW 2521   0.367   2.298   2.849 -0.5455 -0.1855  0.7611
  841SOL    HW1 2522   0.379   2.214   2.897 -0.0097  4.5769 -0.7352
  841SOL    HW2 2523   0.429   2.368   2.892  0.5293 -0.6820 -1.3465
  842SOL     OW 2524   0.787   2.987   1.071  0.3674 -0.2775  0.3804
  842SOL    HW1 2525   0.857   2.916   1.055 -1.3941  1.7342  0.0088
  842SOL    HW2 2526   0.773   3.043   0.988  1.8279  2.0813 -0.8542
  843SOL     OW 2527   0.434   1.662   2.694 -0.3134 -0.1618  0.3615
  843SOL    HW1 2528   0.511   1.700   2.750  0.1262 -1.7529 -0.9953
  843SOL    HW2 2529   0.471   1.572   2.658  0.4299  1.1563  1.8093
  844SOL     OW 2530   0.970   2.038   2.444  0.2277 -0.3438 -0.4515
  844SOL    HW1 2531   1.006   2.130   2.424 -0.7300 -3.8559  0.2060
  844SOL    HW2 2532   1.013   1.996   2.531  3.3909 -2.3039 -0.3505
  845SOL     OW 2533   2.659   2.814   2.766  0.2021  0.4267  0.2776
  845SOL    HW1 2534   2.666   2.904   2.725  2.1849 -1.4927  0.2447
  845SOL    HW2 2535   2.562   2.788   2.784  3.0119  1.2772 -1.0136
  846SOL     OW 2536   2.121   1.308   2.883  0.3802  0.0185  0.5075
  846SOL    HW1 2537   2.097   1.319   2.784  0.0486 -0.3788 -3.9828
  846SOL    HW2 2538   2.196   1.370   2.906 -0.7220 -1.2062 -0.9373
  847SOL     OW 2539   2.527   0.212   2.888  0.2027 -0.1314 -0.0400
  847SOL    HW1 2540   2.609   0.242   2.833  0.3468 -1.0261  1.4926
  847SOL    HW2 2541   2.450   0.278   2.883  0.7750  1.0370 -0.7554
  848SOL     OW 2542   2.967   0.783   3.061  0.1077  0.1278  0.3823
  848SOL    HW1 2543   2.897   0.795   2.988 -0.1353  2.2257  2.3346
  848SOL    HW2 2544   3.031   0.724   3.017 -4.0925 -1.0887 -1.9321
  849SOL     OW 2545   1.379   0.251   2.458  0.4593  0.1578  0.1630
  849SOL    HW1 2546   1.325   0.249   2.545  0.0421 -1.4574 -2.9610
  849SOL    HW2 2547   1.322   0.296   2.387  1.8542  2.9570  1.1764
  850SOL     OW 2548   0.181   1.073   0.178  0.2560  0.5808  0.0734
  850SOL    HW1 2549   0.231   0.985   0.164 -0.2799  1.5062  0.0647
  850SOL    HW2 2550   0.105   1.061   0.242  3.5924  1.6950 -2.9589
  851SOL     OW 2551   0.465   1.371   0.610 -0.7882  0.0690 -0.1544
  851SOL    HW1 2552   0.531   1.345   0.684 -0.3098  1.7809 -2.0272
  851SOL    HW2 2553   0.442   1.293   0.550  1.1891 -0.3196  3.5564
  852SOL     OW 2554   1.127   1.265   1.472 -0.2957  0.3009  0.2728
  852SOL    HW1 2555   1.058   1.192   1.490  0.7901  1.8916 -0.0094
  852SOL    HW2 2556   1.216   1.221   1.435  0.7496  0.5431  0.7999
  853SOL     OW 2557   2.330   1.581   0.350  0.0296 -0.4382 -0.7067
  853SOL    HW1 2558   2.354   1.519   0.430 -1.3896  0.9051  1.1503
  853SOL    HW2 2559   2.244   1.631   0.359 -0.4281  2.7940  1.2794
  854SOL     OW 2560   1.461   1.018   2.004  0.3553 -0.1066 -0.0579
  854SOL    HW1 2561   1.515   1.063   1.930 -0.4682  1.4949  0.4482
  854SOL    HW2 2562   1.397   1.088   2.043 -0.5641 -1.2752 -1.5781
  855SOL     OW 2563   0.468   2.349   2.569  0.0869 -0.5155  0.2562
  855SOL    HW1 2564   0.423   2.342   2.659  1.8953 -1.2463 -1.2759
  855SOL    HW2 2565   0.566   2.333   2.574 -2.4879 -0.2729 -0.3510
  856SOL     OW 2566   1.105   0.974   1.916 -0.7341 -0.4317  0.0701
  856SOL    HW1 2567   1.196   0.968   1.869  1.3940  0.1765  1.0769
  856SOL    HW2 2568   1.091   1.073   1.943 -0.1852 -0.6449  1.3476
  857SOL     OW 2569   1.152   1.072   2.378  0.0464  0.5137  0.0894
  857SOL    HW1 2570   1.109   1.142   2.438 -0.2729  0.3212 -2.0023
  857SOL    HW2 2571   1.208   1.118   2.309  1.7183 -1.0110  0.3738
  858SOL     OW 2572   2.913   0.960   1.579 -0.1280  0.2822  0.6118
  858SOL    HW1 2573   2.953   0.985   1.488 -1.5256  0.1608 -0.8865
  858SOL    HW2 2574   2.976   0.893   1.624  0.4936 -2.3521  0.1526
  859SOL     OW 2575   2.652   0.028   1.013 -0.1853  0.1785 -0.5488
  859SOL    HW1 2576   2.612   3.102   0.923  1.0365  1.2722 -1.9687
  859SOL    HW2 2577   2.622   3.061   1.079 -0.9500  0.5014 -3.2450
  860SOL     OW 2578   1.617   0.429   1.051 -0.2527 -0.4435 -0.4590
  860SOL    HW1 2579   1.685   0.505   1.036  0.9061 -1.4633 -0.2036
  860SOL    HW2 2580   1.623   0.389   1.148  0.9438  1.2709  3.4715
  861SOL     OW 2581   1.763   0.636   1.138 -0.2532 -0.0308  0.2758
  861SOL    HW1 2582   1.676   0.654   1.190  0.4918 -0.8890  0.7974
  861SOL    HW2 2583   1.782   0.716   1.078 -1.3221  1.5505  0.0322
  862SOL     OW 2584   1.392   2.990   2.588  0.0895 -0.1807  0.3394
  862SOL    HW1 2585   1.393   2.926   2.506  1.2352 -3.3358 -1.8949
  862SOL    HW2 2586   1.473   2.966   2.647  0.9657  1.0838 -2.2198
  863SOL     OW 2587   2.861   2.872   1.238  0.0624  0.0608  0.0315
  863SOL    HW1 2588   2.867   2.968   1.268 -3.0211 -0.1094  0.3863
  863SOL    HW2 2589   2.936   2.843   1.174  2.0901  1.1190  1.2394
  864SOL     OW 2590   2.544   0.010   2.136  0.9380  1.2095 -0.2189
  864SOL    HW1 2591   2.519   0.070   2.212 -0.5956 -0.3995 -0.0027
  864SOL    HW2 2592   2.461   3.061   2.108  1.5116  1.3229 -0.9280
  865SOL     OW 2593   1.233   1.396   2.580  0.0958  0.4756 -0.1457
  865SOL    HW1 2594   1.150   1.341   2.555 -0.5113 -0.9168 -0.1016
  865SOL    HW2 2595   1.223   1.440   2.671  2.0963 -1.2494  1.5770
  866SOL     OW 2596   2.222   3.059   0.966  0.4232 -1.0163  0.1869
  866SOL    HW1 2597   2.253   3.004   0.885 -2.3510  0.2990 -0.2866
  866SOL    HW2 2598   2.289   3.069   1.038 -0.1200 -0.2951 -3.2726
  867SOL     OW 2599   3.094   2.828   1.081  0.0212  0.2935 -0.3134
  867SOL    HW1 2600   0.012   2.916   1.033 -0.5222 -0.4995 -1.5741
  867SOL    HW2 2601   0.018   2.748   1.023 -0.7309  0.7396 -0.8251
  868SOL     OW 2602   0.073   1.709   1.573  0.0286 -0.3048 -0.1372
  868SOL    HW1 2603   0.097   1.692   1.474  0.3235 -1.5627  0.8837
  868SOL    HW2 2604   0.161   1.687   1.627  3.6379  0.0279 -0.8080
  869SOL     OW 2605   1.908   2.006   2.364  0.6199  0.2021  0.2854
  869SOL    HW1 2606   1.903   2.078   2.434 -0.8110  0.5158  0.3246
  869SOL    HW2 2607   1.931   1.917   2.410 -1.8752  3.3013 -1.2206
  870SOL     OW 2608   1.241   0.795   0.726  0.5737  0.3134 -0.7696
  870SOL    HW1 2609   1.303   0.837   0.792 -1.1660 -1.8481 -2.7603
  870SOL    HW2 2610   1.149   0.798   0.768  0.3349  0.4250 -2.6668
  871SOL     OW 2611   2.871   1.634   2.091  0.1123  0.0218  0.1987
  871SOL    HW1 2612   2.880   1.735   2.066 -2.0172  0.7115 -0.9148
  871SOL    HW2 2613   2.802   1.616   2.163  3.1192 -0.8688 -0.1833
  872SOL     OW 2614   0.914   1.561   2.958 -0.2242 -0.6045  0.1073
  872SOL    HW1 2615   0.992   1.623   2.976  1.9713 -0.7971  0.6066
  872SOL    HW2 2616   0.929   1.472   3.009  0.8478  2.5100  0.6689
  873SOL     OW 2617   0.941   1.475   1.852  0.0341 -0.1163 -0.7176
  873SOL    HW1 2618   0.846   1.490   1.817  0.1963  1.0759 -0.1808
  873SOL    HW2 2619   0.991   1.455   1.766 -0.6393  0.2977  0.4706
  874SOL     OW 2620   1.331   1.105   1.378  0.1065 -0.2836  0.6493
  874SOL    HW1 2621   1.396   1.065   1.449  1.1521  0.6134 -0.2853
  874SOL    HW2 2622   1.391   1.146   1.309  0.4325  1.1997  0.3650
  875SOL     OW 2623   2.814   0.139   2.730 -0.1804  0.2085 -0.3839
  875SOL    HW1 2624   2.778   0.237   2.738  1.4840  3.3866  1.7310
  875SOL    HW2 2625   2.884   0.131   2.658 -1.1986 -0.8268  3.0798
  876SOL     OW 2626   1.017   1.289   0.261 -0.3529  0.4033 -0.4011
  876SOL    HW1 2627   1.000   1.355   0.337 -0.1024  2.1035  1.8806
  876SOL    HW2 2628   1.005   1.193   0.290  1.8522  0.8363  0.4737
  877SOL     OW 2629   2.205   2.874   0.279  0.0700 -0.7219 -0.3218
  877SOL    HW1 2630   2.173   2.782   0.301 -1.5561  2.8486  1.2149
  877SOL    HW2 2631   2.283   2.875   0.213  0.8635  1.2073 -1.8322
  878SOL     OW 2632   1.894   2.075   0.371 -0.1636 -0.0240  0.0199
  878SOL    HW1 2633   1.948   2.160   0.403  1.1901  2.8493 -0.1918
  878SOL    HW2 2634   1.795   2.101   0.366 -0.1618 -2.7574  1.7796
  879SOL     OW 2635   0.031   1.837   1.914 -0.0308  0.7081 -0.4170
  879SOL    HW1 2636   0.020   1.734   1.917 -1.5392  0.6730 -0.9815
  879SOL    HW2 2637   3.076   1.874   1.844 -0.5381 -1.1393 -1.0069
  880SOL     OW 2638   0.276   1.983   1.076  0.0542  0.3061 -0.1910
  880SOL    HW1 2639   0.241   1.968   1.170 -1.2386 -0.8310 -1.1855
  880SOL    HW2 2640   0.293   2.083   1.051  1.1133  1.3332  2.3504
  881SOL     OW 2641   1.156   0.214   2.017  0.1124 -0.6987  0.6540
  881SOL    HW1 2642   1.160   0.272   2.098 -1.0288  0.1730 -1.6745
  881SOL    HW2 2643   1.059   0.191   1.998  1.2029 -1.6959 -0.2331
  882SOL     OW 2644   2.475   0.942   0.727  0.2280 -0.0509 -0.1012
  882SOL    HW1 2645   2.491   0.909   0.630  0.8718 -1.1118  1.6013
  882SOL    HW2 2646   2.514   0.878   0.793  0.1988 -1.3760  1.6073
  883SOL     OW 2647   1.573   0.395   1.626  0.2850  0.1290 -0.2306
  883SOL    HW1 2648   1.592   0.406   1.725  0.9279  2.1639  2.9857
  883SOL    HW2 2649   1.653   0.414   1.566 -0.2942 -1.7835 -1.1126
  884SOL     OW 2650   2.899   0.101   1.759  0.0260 -0.0067  0.4115
  884SOL    HW1 2651   2.811   0.068   1.800 -0.7599 -0.8960  3.1730
  884SOL    HW2 2652   2.891   0.203   1.754 -0.6130  1.0945  1.4356
  885SOL     OW 2653   1.980   1.436   2.675  0.6951  0.1292  0.4378
  885SOL    HW1 2654   1.992   1.495   2.756  0.3609  2.7456 -0.0568
  885SOL    HW2 2655   1.888   1.393   2.668  0.2413 -1.6421  0.8010
  886SOL     OW 2656   2.159   0.328   0.006  0.5008 -0.4485 -0.0068
  886SOL    HW1 2657   2.191   0.384   0.080 -0.1667  0.8120 -1.6163
  886SOL    HW2 2658   2.073   0.367   3.068 -1.5903 -0.5369  1.5982
  887SOL     OW 2659   1.218   2.716   1.696  0.2059 -0.3816 -0.8109
  887SOL    HW1 2660   1.267   2.675   1.778 -0.6002  0.0321  0.7788
  887SOL    HW2 2661   1.273   2.723   1.611  0.1624 -2.0506 -2.7825
  888SOL     OW 2662   2.099   1.709   2.064  0.1067 -0.0380  0.2251
  888SOL    HW1 2663   2.069   1.803   2.083 -0.3315 -0.1602 -0.4038
  888SOL    HW2 2664   2.163   1.715   1.986 -0.3118  2.1239  1.5127
  889SOL     OW 2665   1.889   2.332   1.369  0.2442 -0.9246 -0.0495
  889SOL    HW1 2666   1.981   2.359   1.402 -0.8343  0.5313  0.9201
  889SOL    HW2 2667   1.888   2.251   1.303  0.1658  2.4935  0.7100
  890SOL     OW 2668   1.286   1.736   1.129 -0.0501 -0.1575  0.5300
  890SOL    HW1 2669   1.343   1.746   1.216 -1.8857 -1.4229  2.7929
  890SOL    HW2 2670   1.196   1.778   1.135  1.8146 -0.0112 -1.7211
  891SOL     OW 2671   2.932   1.234   0.056  0.1125  0.1817  0.4752
  891SOL    HW1 2672   2.873   1.152   0.058  2.3120  0.9881  1.4294
  891SOL    HW2 2673   2.942   1.260   0.155  0.8052 -3.2220 -1.8971
  892SOL     OW 2674   2.380   1.461   0.107 -0.2141  0.0283  0.0806
  892SOL    HW1 2675   2.476   1.453   0.076 -1.3248 -0.4062 -2.0291
  892SOL    HW2 2676   2.370   1.542   0.167  1.9512 -0.6643  2.5338
  893SOL     OW 2677   2.157   2.426   1.426  0.2516 -0.5857  0.3434
  893SOL    HW1 2678   2.176   2.524   1.442  1.6051  0.2263 -2.9543
  893SOL    HW2 2679   2.190   2.359   1.491  2.4287  0.2828 -0.8209
  894SOL     OW 2680   2.721   0.010   0.652 -0.3976  0.0889 -0.7956
  894SOL    HW1 2681   2.688   0.096   0.611  1.1912 -0.7681  1.6463
  894SOL    HW2 2682   2.647   3.082   0.719 -1.9970 -0.4263 -0.4520
  895SOL     OW 2683   2.905   2.615   2.550 -0.2585 -0.3983  0.5055
  895SOL    HW1 2684   2.885   2.716   2.544 -2.9904  0.8647  1.2251
  895SOL    HW2 2685   2.822   2.559   2.531  0.0090 -0.7756  1.6026
  896SOL     OW 2686   2.254   0.174   2.670 -0.1272  0.3962 -0.5367
  896SOL    HW1 2687   2.197   0.202   2.593  0.2320 -2.9669  3.4963
  896SOL    HW2 2688   2.286   0.259   2.721  0.8859  2.3741  2.7042
  897SOL     OW 2689   0.284   1.584   1.992 -0.2091 -0.0579 -0.1509
  897SOL    HW1 2690   0.184   1.567   1.981  0.9656 -0.3378  1.2674
  897SOL    HW2 2691   0.318   1.509   2.046 -2.6421  0.9223 -2.3609
  898SOL     OW 2692   3.010   1.938   1.516 -0.4432  0.0162  0.3425
  898SOL    HW1 2693   3.067   1.857   1.540  1.5913  0.9313  2.2647
  898SOL    HW2 2694   2.911   1.912   1.513 -0.1320 -0.0410 -0.0044
  899SOL     OW 2695   1.720   2.979   1.511  0.3346  0.7394  0.0530
  899SOL    HW1 2696   1.710   3.010   1.609  1.5833 -1.7914 -0.7705
  899SOL    HW2 2697   1.777   2.895   1.510 -0.5888 -0.7527 -0.7580
  900SOL     OW 2698   1.259   0.866   0.125  0.4845 -0.0345 -0.0094
  900SOL    HW1 2699   1.260   0.795   0.052  0.6375 -1.1832 -2.2387
  900SOL    HW2 2700   1.309   0.843   0.212  0.9638 -0.7827 -3.0135
  901SOL     OW 2701   1.422   1.030   2.695 -0.1449  0.4116  0.4313
  901SOL    HW1 2702   1.489   0.956   2.687 -0.6159  3.3221  0.4688
  901SOL    HW2 2703   1.339   1.009   2.645 -0.5671 -1.3421  1.2890
  902SOL     OW 2704   2.737   2.436   0.637 -0.7567 -0.0829  0.6054
  902SOL    HW1 2705   2.831   2.426   0.591  1.0367 -0.5712  1.6096
  902SOL    HW2 2706   2.727   2.365   0.710 -0.6899 -0.6286  0.0133
  903SOL     OW 2707   2.740   1.325   1.732  0.0251  0.0402  0.5082
  903SOL    HW1 2708   2.708   1.229   1.736  0.4492 -0.3599  0.9076
  903SOL    HW2 2709   2.832   1.329   1.691  0.3303 -0.7498 -1.6173
  904SOL     OW 2710   1.796   1.122   0.607  0.4902 -0.4640  0.0211
  904SOL    HW1 2711   1.841   1.027   0.604  0.1192  2.5304 -0.0361
  904SOL    HW2 2712   1.805   1.171   0.520  1.6221 -0.6256  3.6672
  905SOL     OW 2713   2.132   2.719   1.425 -0.1887 -0.0932 -0.6367
  905SOL    HW1 2714   2.155   2.754   1.332  2.6449  1.3345  0.0383
  905SOL    HW2 2715   2.209   2.740   1.484  0.3185 -1.1065  0.2268
  906SOL     OW 2716   1.492   2.339   0.012 -0.4771 -0.4908  0.0699
  906SOL    HW1 2717   1.495   2.424   0.070 -1.3495  3.1998 -0.1750
  906SOL    HW2 2718   1.584   2.326   3.071  2.5059  0.1797 -1.2281
  907SOL     OW 2719   0.753   2.663   0.859 -0.6999 -0.5419 -0.0136
  907SOL    HW1 2720   0.809   2.639   0.776  1.8932 -0.8174  1.0501
  907SOL    HW2 2721   0.695   2.749   0.850 -1.3021  2.1320  0.3249
  908SOL     OW 2722   0.891   0.139   2.020 -0.0039 -0.0439 -0.5960
  908SOL    HW1 2723   0.847   0.062   2.065  2.1572  0.0836 -2.3308
  908SOL    HW2 2724   0.851   0.148   1.929 -1.0651  1.5805  2.1001
  909SOL     OW 2725   1.963   0.513   1.778  0.1997 -0.1275  0.3001
  909SOL    HW1 2726   1.969   0.503   1.677 -0.3080 -0.0202 -2.2451
  909SOL    HW2 2727   1.907   0.596   1.810 -0.0311  2.0066 -0.6021
  910SOL     OW 2728   1.195   0.598   3.049 -0.4731 -0.5458 -0.0864
  910SOL    HW1 2729   1.097   0.576   3.064  0.4810  0.1969 -0.6065
  910SOL    HW2 2730   1.246   0.514   3.032 -1.7436 -0.8587  0.9598
  911SOL     OW 2731   0.010   0.589   2.950  0.0816 -0.0715 -0.1875
  911SOL    HW1 2732   3.086   0.533   2.872  0.4831  0.9201  0.9255
  911SOL    HW2 2733   0.022   0.527   3.031 -1.9065  0.2425 -0.3948
  912SOL     OW 2734   2.810   2.423   0.274 -0.8095  0.2155  0.3420
  912SOL    HW1 2735   2.730   2.439   0.330  0.4208  1.2166  0.2788
  912SOL    HW2 2736   2.797   2.422   0.175  2.3493 -0.8033 -1.6227
  913SOL     OW 2737   2.644   2.278   2.897  0.2210  0.2661  0.1941
  913SOL    HW1 2738   2.678   2.216   2.826  0.7472  0.2589 -0.4069
  913SOL    HW2 2739   2.616   2.365   2.852  0.4892  0.9522  1.6532
  914SOL     OW 2740   1.684   1.681   1.736 -0.0678 -0.1278  0.4807
  914SOL    HW1 2741   1.622   1.739   1.787 -0.0800  1.1847  1.2381
  914SOL    HW2 2742   1.774   1.716   1.719 -2.3424 -0.6535 -1.1791
  915SOL     OW 2743   0.169   2.714   2.245 -0.2246  0.3750 -0.3421
  915SOL    HW1 2744   0.233   2.794   2.237  0.8641  2.2346  0.2528
  915SOL    HW2 2745   0.205   2.633   2.299  0.0513 -1.9418  2.3517
  916SOL     OW 2746   3.009   1.267   1.673 -0.2653  0.2108 -0.5950
  916SOL    HW1 2747   2.989   1.174   1.639  2.5651  1.8759  2.9529
  916SOL    HW2 2748   3.059   1.315   1.599 -3.4778  1.8335 -0.4200
  917SOL     OW 2749   2.169   0.062   0.017 -0.0895 -0.1629  0.1083
  917SOL    HW1 2750   2.159   0.035   3.025  2.8405  0.8724  1.7440
  917SOL    HW2 2751   2.160   0.166   0.012 -1.8086 -1.0971  1.7633
  918SOL     OW 2752   1.671   2.444   2.109  0.2837 -0.0598  0.5389
  918SOL    HW1 2753   1.638   2.428   2.009  3.9318 -0.2220 -2.6917
  918SOL    HW2 2754   1.683   2.542   2.132  0.4610 -3.3458 -3.3177
  919SOL     OW 2755   1.748   2.149   1.792  0.3018 -0.5892  0.0145
  919SOL    HW1 2756   1.827   2.165   1.731 -1.9451 -0.3530 -1.0937
  919SOL    HW2 2757   1.766   2.066   1.850 -0.7412  1.1451 -2.2825
  920SOL     OW 2758   0.548   0.923   0.007 -0.0607  0.1125  0.2176
  920SOL    HW1 2759   0.597   1.013   0.006 -0.3414 -0.2404  1.2904
  920SOL    HW2 2760   0.520   0.900   3.016  0.4146 -2.5178  0.6946
  921SOL     OW 2761   2.924   1.163   2.663 -0.0703  0.3503  0.0318
  921SOL    HW1 2762   2.829   1.178   2.703  0.3521 -0.7241  2.3618
  921SOL    HW2 2763   2.925   1.173   2.561  0.1755 -0.5369 -1.2286
  922SOL     OW 2764   0.296   2.006   0.148  0.0201 -0.1502 -0.2006
  922SOL    HW1 2765   0.274   1.911   0.122  2.1289 -1.1838 -0.6025
  922SOL    HW2 2766   0.390   2.039   0.118  2.7284  0.3167 -2.3349
  923SOL     OW 2767   0.494   1.111   2.034  0.1423  0.3490  0.0723
  923SOL    HW1 2768   0.406   1.148   1.989  0.7782 -2.5632 -0.4907
  923SOL    HW2 2769   0.513   1.015   1.999  0.6905 -2.0638 -1.3462
  924SOL     OW 2770   1.082   2.959   2.854 -0.1033 -0.3244  0.3311
  924SOL    HW1 2771   1.086   3.013   2.768  1.3672  0.8174  0.7456
  924SOL    HW2 2772   0.989   2.943   2.885 -0.1809 -0.2848  0.9636
  925SOL     OW 2773   2.315   1.476   1.169 -0.3984 -0.1237  0.1121
  925SOL    HW1 2774   2.258   1.542   1.221  0.9559 -0.5249 -2.5161
  925SOL    HW2 2775   2.391   1.451   1.233 -1.0968 -0.6117  0.5741
  926SOL     OW 2776   1.926   0.489   2.115  0.3226  0.0513  0.3026
  926SOL    HW1 2777   1.921   0.392   2.076 -0.9590  0.5352  1.7317
  926SOL    HW2 2778   1.840   0.544   2.094 -1.2711 -0.6397 -1.0365
  927SOL     OW 2779   2.858   2.489   1.825  0.3015  0.0963  0.5057
  927SOL    HW1 2780   2.938   2.542   1.793 -2.1107 -1.4459 -1.2537
  927SOL    HW2 2781   2.855   2.487   1.924  0.3557  0.5531 -2.2229
  928SOL     OW 2782   0.567   1.069   2.592 -0.3687 -0.2560 -0.3982
  928SOL    HW1 2783   0.489   1.031   2.644  0.3129  3.9016 -3.0203
  928SOL    HW2 2784   0.546   1.055   2.490  1.2970  1.7449  2.1387
  929SOL     OW 2785   2.875   0.076   0.872 -0.3072  0.3966  0.3566
  929SOL    HW1 2786   2.799   0.063   0.938 -0.3988 -0.6204 -2.8832
  929SOL    HW2 2787   2.846   0.066   0.773 -1.2454 -0.6403 -1.2120
  930SOL     OW 2788   2.502   0.251   1.540  0.1723  0.1716  0.0739
  930SOL    HW1 2789   2.490   0.265   1.641  1.0388  0.6003  0.4372
  930SOL    HW2 2790   2.602   0.238   1.522 -0.4344 -0.7437  0.6768
  931SOL     OW 2791   2.282   1.224   0.234  0.0754  0.4537  0.4198
  931SOL    HW1 2792   2.301   1.305   0.179  0.7515  0.2997  2.2787
  931SOL    HW2 2793   2.361   1.208   0.299 -0.3442  0.8280 -0.0607
  932SOL     OW 2794   2.504   1.596   1.461 -0.1487  0.0229  0.1381
  932SOL    HW1 2795   2.493   1.494   1.433  0.8596 -0.7955  0.0531
  932SOL    HW2 2796   2.434   1.656   1.420  1.9014 -1.6731  2.1786
  933SOL     OW 2797   0.044   2.602   1.449 -0.3719 -0.0741 -0.5573
  933SOL    HW1 2798   0.078   2.564   1.364 -1.6353 -0.9639  0.2955
  933SOL    HW2 2799   0.064   2.704   1.446  0.8781  2.2947 -0.5106
  934SOL     OW 2800   0.893   2.202   1.217 -0.8957 -0.0831  0.2609
  934SOL    HW1 2801   0.812   2.250   1.182  2.0132 -0.0340  1.6384
  934SOL    HW2 2802   0.949   2.271   1.269 -1.4935  0.5741  0.7416
  935SOL     OW 2803   2.471   1.716   2.124 -0.1638 -0.6155  0.5831
  935SOL    HW1 2804   2.427   1.656   2.056 -0.7806  0.9523  3.4546
  935SOL    HW2 2805   2.551   1.672   2.172  2.1224 -0.1606 -3.9669
  936SOL     OW 2806   2.388   1.537   1.745 -0.4192 -0.1171 -0.2359
  936SOL    HW1 2807   2.435   1.554   1.655  1.5655  1.3636  0.9264
  936SOL    HW2 2808   2.411   1.451   1.796  0.6540  0.8843  0.4082
  937SOL     OW 2809   1.951   1.153   1.957  0.1612 -0.0760  0.1942
  937SOL    HW1 2810   2.005   1.083   1.903 -0.4517 -1.5548  0.2274
  937SOL    HW2 2811   1.956   1.128   2.054  0.7774  1.1787 -0.5878
  938SOL     OW 2812   0.829   2.420   2.978  0.4828 -0.1607 -0.4984
  938SOL    HW1 2813   0.811   2.486   3.052 -0.5138 -0.5699 -1.4734
  938SOL    HW2 2814   0.924   2.414   2.940 -0.9308 -2.0803 -2.3962
  939SOL     OW 2815   2.442   0.510   2.546 -0.3951  0.0202  0.6512
  939SOL    HW1 2816   2.395   0.534   2.459 -0.0474  1.3651 -0.0683
  939SOL    HW2 2817   2.529   0.462   2.525  1.9528  0.3272 -0.2958
  940SOL     OW 2818   1.003   1.783   1.191  0.0876 -0.0851  0.4479
  940SOL    HW1 2819   0.975   1.732   1.273 -1.3354 -0.4632 -1.5805
  940SOL    HW2 2820   0.917   1.822   1.151  0.4067  0.0459  0.2187
  941SOL     OW 2821   0.904   2.269   1.997  0.4210 -0.6247 -0.1459
  941SOL    HW1 2822   0.867   2.267   2.092 -0.1408  0.8642  0.0255
  941SOL    HW2 2823   0.833   2.244   1.929  1.8206  1.5077  0.7009
  942SOL     OW 2824   0.145   2.012   2.843  0.5333 -0.2960 -0.2494
  942SOL    HW1 2825   0.135   2.066   2.929  1.6874  1.5242  0.2005
  942SOL    HW2 2826   0.188   2.066   2.769 -2.3608 -0.2209 -0.3407
  943SOL     OW 2827   1.762   2.644   1.774 -0.8244 -0.2611  0.6330
  943SOL    HW1 2828   1.709   2.558   1.788 -0.5676 -0.9433  1.2921
  943SOL    HW2 2829   1.808   2.644   1.683 -3.3918 -3.4812  0.0841
  944SOL     OW 2830   1.151   1.624   0.024  0.7021 -0.8319 -0.3752
  944SOL    HW1 2831   1.245   1.670   0.036  0.3256  1.5486  1.3597
  944SOL    HW2 2832   1.148   1.533   0.065  0.2683  2.6289 -2.4357
  945SOL     OW 2833   2.606   2.672   0.646  0.7310  0.2404 -0.1791
  945SOL    HW1 2834   2.659   2.589   0.651  0.6547 -0.3099  2.4262
  945SOL    HW2 2835   2.665   2.748   0.637 -1.2647 -2.2986  0.9654
  946SOL     OW 2836   1.193   1.472   2.835  0.0567 -0.1579 -0.0286
  946SOL    HW1 2837   1.243   1.533   2.900 -0.3266 -0.1896  3.0929
  946SOL    HW2 2838   1.094   1.475   2.844 -0.0771  0.4059  0.1576
  947SOL     OW 2839   2.528   0.724   1.937 -0.3647 -0.1066 -0.2948
  947SOL    HW1 2840   2.462   0.796   1.905 -2.5503  2.5772 -0.0592
  947SOL    HW2 2841   2.589   0.699   1.863 -1.4576  1.6474 -0.7065
  948SOL     OW 2842   0.197   1.605   0.770 -0.3643  0.2883  0.1925
  948SOL    HW1 2843   0.291   1.627   0.736 -0.8624 -2.8822  1.7855
  948SOL    HW2 2844   0.201   1.635   0.869 -0.5892 -1.6295  0.7445
  949SOL     OW 2845   0.776   0.844   2.322  0.1170 -0.1990  0.2151
  949SOL    HW1 2846   0.858   0.869   2.269  0.3068 -2.0503  0.0042
  949SOL    HW2 2847   0.796   0.803   2.409  0.2422  1.4492 -3.0779
  950SOL     OW 2848   0.107   0.696   1.201  0.3934  0.0504  0.1248
  950SOL    HW1 2849   0.172   0.744   1.261  0.6475  1.3340  2.1223
  950SOL    HW2 2850   0.044   0.637   1.250 -3.9441  3.5206  0.3315
  951SOL     OW 2851   0.905   1.475   2.355 -0.6522 -0.6015 -0.4054
  951SOL    HW1 2852   0.930   1.547   2.422  0.6508  0.0321 -0.7848
  951SOL    HW2 2853   0.905   1.508   2.257  0.7607 -0.4302  0.4940
  952SOL     OW 2854   1.802   2.106   0.947  0.4117 -0.0890 -0.1606
  952SOL    HW1 2855   1.808   2.007   0.924 -2.2807 -3.2591 -1.7782
  952SOL    HW2 2856   1.884   2.155   0.911  1.7810 -2.9592  1.1772
  953SOL     OW 2857   0.744   0.769   0.110 -0.0178  0.1616  0.0133
  953SOL    HW1 2858   0.780   0.823   0.189  0.2542  1.8443  2.3318
  953SOL    HW2 2859   0.657   0.810   0.076 -2.4531 -0.1164  1.9461
  954SOL     OW 2860   2.140   0.757   1.128 -0.4047  0.1019 -0.2005
  954SOL    HW1 2861   2.226   0.749   1.077  0.9365 -0.7420  2.1419
  954SOL    HW2 2862   2.062   0.726   1.069  2.3573  0.2413 -0.3731
  955SOL     OW 2863   2.060   1.286   0.429 -0.0402 -0.2161  0.4331
  955SOL    HW1 2864   2.147   1.290   0.378 -0.7416  0.4761  1.2766
  955SOL    HW2 2865   1.981   1.307   0.370 -0.4073 -2.1584  0.3639
  956SOL     OW 2866   0.883   0.798   1.863  0.4067  0.9891 -0.0240
  956SOL    HW1 2867   0.923   0.715   1.897 -0.6533 -0.4083  0.2959
  956SOL    HW2 2868   0.944   0.878   1.877 -0.4181 -3.3573 -0.4400
  957SOL     OW 2869   1.840   0.190   1.197  0.1251  0.0386 -1.1288
  957SOL    HW1 2870   1.772   0.249   1.246  3.4634 -2.8254  0.4259
  957SOL    HW2 2871   1.846   0.108   1.263 -0.3169 -0.9978 -0.5873
  958SOL     OW 2872   0.321   2.045   0.420 -0.3053  0.3671  0.1380
  958SOL    HW1 2873   0.298   2.039   0.323 -0.6095 -0.3357  2.4247
  958SOL    HW2 2874   0.325   1.950   0.453 -0.8595  1.2311 -0.3880
  959SOL     OW 2875   2.307   1.148   1.766 -0.3458 -0.1696 -0.0456
  959SOL    HW1 2876   2.223   1.186   1.727 -0.2066  0.8630  0.0386
  959SOL    HW2 2877   2.382   1.211   1.799 -0.0782  0.8163 -1.8179
  960SOL     OW 2878   2.973   2.020   2.893  0.2341  0.9496 -0.2452
  960SOL    HW1 2879   3.074   2.023   2.908 -0.5462 -0.7965 -0.5368
  960SOL    HW2 2880   2.922   2.019   2.981  1.1721  0.8336  0.7436
  961SOL     OW 2881   0.471   1.804   1.589  0.2242  0.4819 -0.4871
  961SOL    HW1 2882   0.504   1.770   1.498 -0.7338  1.4034 -3.1348
  961SOL    HW2 2883   0.539   1.803   1.663  1.0334 -0.4672  0.5792
  962SOL     OW 2884   0.920   1.138   0.900 -0.1283 -0.0298  0.3641
  962SOL    HW1 2885   1.003   1.083   0.933 -3.6602  0.0610  1.1446
  962SOL    HW2 2886   0.949   1.238   0.891  0.1603  0.5867  1.5492
  963SOL     OW 2887   1.111   1.907   2.681 -0.0984 -0.0321 -0.5625
  963SOL    HW1 2888   1.212   1.891   2.669 -0.7341  1.3523  0.3434
  963SOL    HW2 2889   1.106   1.980   2.746  0.2734 -3.2380 -0.4100
  964SOL     OW 2890   0.153   3.012   2.076  0.3939 -0.0911  0.3427
  964SOL    HW1 2891   0.087   2.959   2.016 -2.1032 -0.4890 -0.3281
  964SOL    HW2 2892   0.204   2.953   2.142 -2.1502 -2.6841  2.6228
  965SOL     OW 2893   0.269   2.107   2.599  0.1159 -0.0570  0.2918
  965SOL    HW1 2894   0.226   2.015   2.592  0.0760  0.4235  0.0045
  965SOL    HW2 2895   0.253   2.155   2.513 -0.0924  0.4378  1.0246
  966SOL     OW 2896   0.081   1.757   2.954 -0.5977 -0.2451 -0.3398
  966SOL    HW1 2897   3.099   1.706   2.931 -0.9956 -0.8609 -2.7916
  966SOL    HW2 2898   0.094   1.853   2.914  1.5878  3.1326 -3.5729
  967SOL     OW 2899   1.967   3.027   0.210  0.3199 -0.8315 -0.3624
  967SOL    HW1 2900   2.050   2.981   0.237 -2.2612  0.0697 -1.2976
  967SOL    HW2 2901   1.923   2.986   0.123  0.2043  1.6690  0.1539
  968SOL     OW 2902   2.499   3.026   0.797 -0.2586  0.3229 -0.4770
  968SOL    HW1 2903   2.464   2.933   0.824  1.3443 -2.2255  1.3458
  968SOL    HW2 2904   2.455   3.056   0.710 -0.6932 -1.5330 -0.1580
  969SOL     OW 2905   0.257   1.144   1.906 -0.4836 -0.4702  0.0813
  969SOL    HW1 2906   0.271   1.209   1.825 -0.2577  2.9973 -1.6303
  969SOL    HW2 2907   0.170   1.172   1.948  1.5295 -1.6345 -1.8616
  970SOL     OW 2908   1.709   1.760   0.175  0.0308 -0.1101  0.0483
  970SOL    HW1 2909   1.758   1.764   0.264 -1.2780  0.4499 -1.1833
  970SOL    HW2 2910   1.643   1.834   0.180  0.6018 -1.7075 -0.9350
  971SOL     OW 2911   2.439   2.936   1.521  0.7613  0.7182 -0.0515
  971SOL    HW1 2912   2.528   2.978   1.527 -1.8834 -0.1150 -3.0157
  971SOL    HW2 2913   2.394   2.974   1.437  2.3176  2.1824 -1.0554
  972SOL     OW 2914   2.699   0.246   1.177  0.0548 -0.4514  0.3686
  972SOL    HW1 2915   2.663   0.162   1.125 -1.9543  1.5748 -2.5727
  972SOL    HW2 2916   2.762   0.301   1.117  0.1317 -0.1118 -0.6405
  973SOL     OW 2917   0.539   0.431   2.463  0.3209 -0.0783 -0.5224
  973SOL    HW1 2918   0.478   0.396   2.540  1.8175 -2.2234 -0.1179
  973SOL    HW2 2919   0.494   0.514   2.417 -1.6121  2.3956  0.6404
  974SOL     OW 2920   2.675   1.310   2.256 -0.7214 -0.5839  0.2449
  974SOL    HW1 2921   2.688   1.209   2.243  0.3308 -0.1668 -0.5535
  974SOL    HW2 2922   2.697   1.365   2.168  1.9480  0.4785 -2.9278
  975SOL     OW 2923   0.912   0.182   1.569 -0.2070 -0.0219  0.7957
  975SOL    HW1 2924   0.963   0.266   1.534  0.9545  0.3909  1.2359
  975SOL    HW2 2925   0.969   0.095   1.574  1.0798 -0.2935 -0.1643
  976SOL     OW 2926   1.191   1.593   1.447  0.2129 -0.1143 -0.4582
  976SOL    HW1 2927   1.189   1.693   1.466  1.7991  0.7292  0.7790
  976SOL    HW2 2928   1.175   1.547   1.538  0.4554  0.8299 -0.1329
  977SOL     OW 2929   0.674   2.979   0.180  0.3681  0.4926  0.3284
  977SOL    HW1 2930   0.703   2.959   0.275  0.8307  1.2783 -1.7630
  977SOL    HW2 2931   0.718   3.068   0.154 -1.1272 -2.0400  0.6827
  978SOL     OW 2932   2.344   1.233   2.175 -0.1475  0.3510  0.7156
  978SOL    HW1 2933   2.308   1.141   2.189  0.1047  0.5003 -2.3642
  978SOL    HW2 2934   2.403   1.264   2.250  1.2190  0.9321  2.3719
  979SOL     OW 2935   1.317   0.324   1.636  0.1008  0.0061 -0.2584
  979SOL    HW1 2936   1.273   0.359   1.723  0.1314 -1.7510 -0.2778
  979SOL    HW2 2937   1.407   0.368   1.635  2.9274 -0.5429 -1.7174
  980SOL     OW 2938   1.832   1.563   2.280  0.2918  0.2319 -0.3173
  980SOL    HW1 2939   1.891   1.527   2.204 -3.2663  0.8894  0.4861
  980SOL    HW2 2940   1.752   1.498   2.289  0.3769  1.4560  0.7032
  981SOL     OW 2941   1.774   0.492   1.475 -0.1811  0.1580  0.8668
  981SOL    HW1 2942   1.794   0.585   1.440 -1.5766  1.5406 -0.8781
  981SOL    HW2 2943   1.860   0.433   1.491  0.1312 -0.6330 -0.2239
  982SOL     OW 2944   0.695   0.227   2.703  0.5359 -0.0092 -0.4473
  982SOL    HW1 2945   0.773   0.296   2.701  0.8994  1.9378  3.2144
  982SOL    HW2 2946   0.624   0.268   2.768 -0.1689 -0.9965  0.0637
  983SOL     OW 2947   2.518   0.767   0.063 -0.0021  0.5219  1.0773
  983SOL    HW1 2948   2.566   0.840   0.011  0.5843 -0.6638  3.6075
  983SOL    HW2 2949   2.569   0.678   0.061 -1.9754  0.4309  3.2417
  984SOL     OW 2950   0.983   0.564   1.960  0.0120  0.9755 -0.0715
  984SOL    HW1 2951   1.055   0.536   1.894  1.1514  2.4946 -0.6600
  984SOL    HW2 2952   0.905   0.498   1.957  0.7031 -1.1038  0.5865
  985SOL     OW 2953   1.442   1.954   2.287 -0.5166  0.0911 -0.6671
  985SOL    HW1 2954   1.416   1.980   2.190 -2.3439  0.4980 -2.0017
  985SOL    HW2 2955   1.500   1.870   2.277  2.0859 -0.7611 -0.0929
  986SOL     OW 2956   2.537   2.798   2.000  0.0996  0.2353 -0.4149
  986SOL    HW1 2957   2.590   2.815   2.082 -0.6685 -1.6329  0.0376
  986SOL    HW2 2958   2.465   2.872   1.990 -1.0919  1.4336  1.2876
  987SOL     OW 2959   2.008   1.188   1.291 -0.5201  0.0126 -0.3075
  987SOL    HW1 2960   2.038   1.250   1.216  0.6155  0.2926  0.7446
  987SOL    HW2 2961   1.929   1.133   1.257  1.0420  0.8579  1.4111
  988SOL     OW 2962   2.690   1.638   2.283 -0.0629  0.1817 -0.4565
  988SOL    HW1 2963   2.700   1.714   2.353 -0.4946 -1.9833  1.4533
  988SOL    HW2 2964   2.711   1.549   2.332 -0.5104 -0.4252 -0.9869
  989SOL     OW 2965   1.194   2.304   0.276  0.3454  0.0404  0.4741
  989SOL    HW1 2966   1.121   2.338   0.214 -0.5295 -3.0033  1.8080
  989SOL    HW2 2967   1.175   2.336   0.374  0.9906  0.2689 -2.7849
  990SOL     OW 2968   1.945   0.394   2.914 -0.1310  0.1961 -0.1986
  990SOL    HW1 2969   1.870   0.459   2.937  1.9038 -3.1497 -0.8997
  990SOL    HW2 2970   1.971   0.400   2.813 -0.6115  1.2426 -5.6094
  991SOL     OW 2971   1.055   0.364   0.608  0.0868 -0.2316  0.3412
  991SOL    HW1 2972   0.980   0.425   0.634  3.7540  1.3576 -1.6616
  991SOL    HW2 2973   1.081   0.369   0.510  0.2709  0.8968 -0.0507
  992SOL     OW 2974   2.407   0.818   1.068  0.2339  0.0203  0.5765
  992SOL    HW1 2975   2.420   0.839   1.164  1.1502  4.6272 -2.5281
  992SOL    HW2 2976   2.494   0.779   1.032 -3.0717 -0.6790 -1.0349
  993SOL     OW 2977   2.185   0.671   1.823 -0.1725 -0.4191 -0.3750
  993SOL    HW1 2978   2.243   0.692   1.739 -0.2794  1.5881  0.6692
  993SOL    HW2 2979   2.124   0.594   1.803  3.7473 -0.5244  0.8558
  994SOL     OW 2980   0.975   1.709   2.548  0.5824  0.1875 -0.1455
  994SOL    HW1 2981   1.009   1.776   2.617 -1.3853 -0.4668  2.5891
  994SOL    HW2 2982   0.873   1.702   2.559 -0.3526  1.0015  0.7682
  995SOL     OW 2983   2.096   1.008   2.823  0.3771  0.7383  0.5765
  995SOL    HW1 2984   2.125   1.100   2.852  0.3426 -2.6408  1.2934
  995SOL    HW2 2985   2.179   0.949   2.841 -0.0938  2.8536  1.3882
  996SOL     OW 2986   2.135   2.050   0.645 -0.4211 -0.1432  0.2845
  996SOL    HW1 2987   2.040   2.015   0.638 -0.0585  1.5901 -0.3107
  996SOL    HW2 2988   2.197   1.969   0.635 -0.8693  1.9477 -1.1047
  997SOL     OW 2989   2.129   0.675   2.081  0.3950  0.0951 -0.2703
  997SOL    HW1 2990   2.051   0.615   2.106  1.6179  0.2151  1.2599
  997SOL    HW2 2991   2.155   0.662   1.981  1.9915  0.6631 -3.3111
  998SOL     OW 2992   2.835   1.192   0.727  0.2277  0.4391  1.3729
  998SOL    HW1 2993   2.886   1.278   0.733 -2.0827 -1.6142 -0.5926
  998SOL    HW2 2994   2.800   1.158   0.815  1.8918 -0.6415 -0.6107
  999SOL     OW 2995   2.837   1.481   0.467  0.2510 -0.4818  0.0633
  999SOL    HW1 2996   2.749   1.523   0.438  2.6488  0.5814 -1.3876
  999SOL    HW2 2997   2.915   1.544   0.450  1.1695 -0.2773 -1.9912
 1000SOL     OW 2998   0.671   0.628   2.193 -0.3752  0.7330 -0.4482
 1000SOL    HW1 2999   0.713   0.709   2.236 -1.9133 -2.3913 -1.3393
 1000SOL    HW2 3000   0.577   0.619   2.220  1.1852  0.4762 -1.9711
   3.10484   3.10484   3.10484
