1000 SPC/Fw water molecules t= 103.00000 step= 103000
 3000
    1SOL     OW    1   1.990   2.450   0.695 -0.0986 -0.2266 -0.3798
    1SOL    HW1    2   1.895   2.441   0.671  2.2517 -0.1074  1.2316
    1SOL    HW2    3   2.007   2.519   0.771  0.2567  0.5155  0.4006
    2SOL     OW    4   1.183   1.274   2.172  0.5547 -0.0752  0.0057
    2SOL    HW1    5   1.087   1.274   2.213 -2.3237  1.0793  0.2738
    2SOL    HW2    6   1.179   1.327   2.086 -1.4932  1.5980  2.2818
    3SOL     OW    7   1.507   2.390   2.383 -0.6170 -0.2230  0.0526
    3SOL    HW1    8   1.526   2.369   2.285  0.5987 -1.1165 -1.1812
    3SOL    HW2    9   1.421   2.437   2.396 -1.0513 -0.4362  0.4196
    4SOL     OW   10   1.280   2.165   2.146 -0.1910  0.1933 -0.1450
    4SOL    HW1   11   1.347   2.183   2.220  1.9675 -2.8334  1.4881
    4SOL    HW2   12   1.225   2.246   2.147  1.6675  0.6425 -0.0529
    5SOL     OW   13   0.613   0.791   1.526 -0.0932 -0.0904 -0.6431
    5SOL    HW1   14   0.630   0.886   1.561  0.0468  0.4338  0.3987
    5SOL    HW2   15   0.575   0.730   1.596 -0.5888  0.2284 -0.1730
    6SOL     OW   16   2.158   0.895   2.842  0.0833  0.0310 -0.1094
    6SOL    HW1   17   2.069   0.947   2.838  2.1461  3.3897 -1.6140
    6SOL    HW2   18   2.161   0.805   2.795  0.4611 -4.6376  2.9958
    7SOL     OW   19   0.640   0.222   1.539 -0.3824  0.5678 -0.1217
    7SOL    HW1   20   0.682   0.202   1.630  0.7940  0.7636  0.2051
    7SOL    HW2   21   0.659   0.317   1.504 -0.8735  0.1185  1.9815
    8SOL     OW   22   1.854   3.026   1.945 -0.4708  0.2710 -0.0107
    8SOL    HW1   23   1.944   3.058   1.915  0.8761 -0.8207 -0.0687
    8SOL    HW2   24   1.845   2.926   1.925  2.0323  1.7092 -2.1158
    9SOL     OW   25   0.104   0.521   0.469  1.0623  0.0712 -0.5460
    9SOL    HW1   26   0.100   0.426   0.506  1.9000 -0.3694 -4.2409
    9SOL    HW2   27   0.170   0.578   0.520 -0.3168 -0.0925 -0.8909
   10SOL     OW   28   0.712   2.138   2.442 -0.1847  0.8655 -0.1324
   10SOL    HW1   29   0.625   2.185   2.409  0.6285  0.8737  0.6382
   10SOL    HW2   30   0.759   2.188   2.519 -0.5795  0.2462  2.5178
   11SOL     OW   31   0.847   1.685   0.123 -0.1175 -0.4071  0.0426
   11SOL    HW1   32   0.940   1.650   0.096  0.3051  0.8130 -0.7787
   11SOL    HW2   33   0.810   1.626   0.193 -1.7671 -0.3239 -3.9794
   12SOL     OW   34   0.138   2.922   1.462 -0.5694 -0.4817 -0.2047
   12SOL    HW1   35   0.061   2.967   1.510  2.8444 -0.8098 -2.2162
   12SOL    HW2   36   0.120   2.909   1.362  0.1798  0.9000 -1.9116
   13SOL     OW   37   0.826   2.907   0.209 -0.2690 -0.3722  0.0745
   13SOL    HW1   38   0.839   2.901   0.308  1.9122  3.0085  0.3010
   13SOL    HW2   39   0.906   2.963   0.172  1.3415  1.3188 -2.0029
   14SOL     OW   40   1.759   1.943   0.787 -0.1680  0.0134  0.2584
   14SOL    HW1   41   1.749   2.043   0.817 -0.5002  2.2607  3.4926
   14SOL    HW2   42   1.841   1.930   0.730 -0.1696  2.0268  0.9450
   15SOL     OW   43   2.967   1.527   2.475 -0.3300 -0.4464  0.9270
   15SOL    HW1   44   2.945   1.464   2.555  0.5052 -2.6640 -1.0626
   15SOL    HW2   45   2.945   1.627   2.491  3.2413  3.1888 -0.8181
   16SOL     OW   46   1.334   0.280   2.692  0.0683 -0.4883 -0.0008
   16SOL    HW1   47   1.337   0.367   2.634 -1.3774 -0.8874 -1.7886
   16SOL    HW2   48   1.260   0.218   2.666 -1.7926  0.4289  1.7236
   17SOL     OW   49   0.349   2.310   2.147 -0.6064 -0.4213 -0.8016
   17SOL    HW1   50   0.400   2.282   2.234  0.3059 -2.0391  1.3563
   17SOL    HW2   51   0.253   2.280   2.146 -0.0079  0.0785  1.1757
   18SOL     OW   52   1.335   1.257   0.342  0.0423  0.1698  0.4548
   18SOL    HW1   53   1.420   1.282   0.389  2.1762 -1.4975 -1.9061
   18SOL    HW2   54   1.313   1.159   0.356  0.6311 -1.6388 -3.0041
   19SOL     OW   55   2.443   1.653   2.327 -0.7720  0.1068 -0.0734
   19SOL    HW1   56   2.416   1.651   2.423 -0.7279  0.0864  0.1513
   19SOL    HW2   57   2.531   1.701   2.312 -0.7942 -5.0187  0.8463
   20SOL     OW   58   2.595   2.096   2.274  0.1546  0.4086  0.4340
   20SOL    HW1   59   2.537   2.133   2.193 -1.9019  2.9502 -1.5965
   20SOL    HW2   60   2.662   2.173   2.294 -0.2131  1.7339  1.8823
   21SOL     OW   61   1.031   2.360   0.081  0.3774 -0.3164 -0.1798
   21SOL    HW1   62   0.950   2.416   0.060 -2.9885  1.5074 -1.2958
   21SOL    HW2   63   1.066   2.309   0.007 -1.4157  0.6506  1.9601
   22SOL     OW   64   2.180   2.356   1.428  0.2064 -0.7847 -0.0296
   22SOL    HW1   65   2.209   2.420   1.356  0.7931 -1.4872 -1.6078
   22SOL    HW2   66   2.256   2.349   1.494 -2.1328  0.6670 -1.7295
   23SOL     OW   67   0.295   0.987   1.673  0.0980 -0.6305 -0.5965
   23SOL    HW1   68   0.311   1.083   1.658 -1.1901 -1.5759  0.4799
   23SOL    HW2   69   0.340   0.954   1.757 -3.3256 -0.4447  0.9464
   24SOL     OW   70   2.201   1.780   1.842  0.0862  0.5093 -0.0238
   24SOL    HW1   71   2.117   1.761   1.899 -2.3663 -0.5683  3.7396
   24SOL    HW2   72   2.281   1.738   1.889 -0.3707  0.6512 -0.1782
   25SOL     OW   73   1.770   0.538   2.529  0.3768  0.5366  0.9318
   25SOL    HW1   74   1.763   0.492   2.439 -0.9505  1.0903  1.0177
   25SOL    HW2   75   1.729   0.482   2.604 -1.6609 -1.5421  0.4120
   26SOL     OW   76   1.179   0.195   0.506 -0.4229 -0.4126  0.5904
   26SOL    HW1   77   1.264   0.139   0.497 -0.0999  1.4804  0.8496
   26SOL    HW2   78   1.194   0.290   0.465 -2.7602  2.4780 -1.2020
   27SOL     OW   79   0.958   1.757   0.427 -0.4498  0.0574  0.2086
   27SOL    HW1   80   0.938   1.832   0.493 -0.3955 -1.5555 -1.7418
   27SOL    HW2   81   0.880   1.696   0.424 -3.2116 -0.9065 -0.3394
   28SOL     OW   82   2.605   1.739   1.249  0.1479 -0.8673 -0.3200
   28SOL    HW1   83   2.543   1.715   1.323  3.3725  1.0248 -1.5939
   28SOL    HW2   84   2.564   1.799   1.181  4.2054 -3.1671  2.5763
   29SOL     OW   85   2.252   2.694   1.716 -0.3485 -0.2060 -0.5210
   29SOL    HW1   86   2.213   2.745   1.794  0.3475 -0.0797 -0.8855
   29SOL    HW2   87   2.351   2.697   1.709 -0.1415 -0.5557 -2.0589
   30SOL     OW   88   0.777   2.861   1.263 -0.2553  0.1721 -0.6611
   30SOL    HW1   89   0.864   2.833   1.208 -0.3430  1.9197 -0.5972
   30SOL    HW2   90   0.795   2.944   1.326  1.8001  1.4772  3.5538
   31SOL     OW   91   2.896   2.148   1.960 -0.1407  0.0421 -0.3337
   31SOL    HW1   92   2.981   2.204   1.947  1.7583  1.9122  1.0119
   31SOL    HW2   93   2.853   2.170   2.049 -0.0373  3.7939  3.2801
   32SOL     OW   94   1.499   1.260   1.742  0.5891 -0.3357  0.3135
   32SOL    HW1   95   1.529   1.356   1.719  1.0479 -0.9981  0.8836
   32SOL    HW2   96   1.559   1.187   1.704 -2.7305 -1.4992  1.2781
   33SOL     OW   97   0.157   0.022   2.731 -0.0250  0.1697  0.4640
   33SOL    HW1   98   0.218   3.031   2.671  1.0245 -1.2347 -0.9721
   33SOL    HW2   99   0.174   0.001   2.828 -0.1866  1.2908 -1.3771
   34SOL     OW  100   2.068   0.064   1.132  0.3875  0.6922  0.0330
   34SOL    HW1  101   2.124   0.150   1.112  2.7538  2.2021  3.6663
   34SOL    HW2  102   2.127   3.057   1.167 -0.3819 -1.2460  0.4320
   35SOL     OW  103   2.278   0.066   1.568  0.6240  0.3939  0.3816
   35SOL    HW1  104   2.326   0.006   1.633 -1.8263 -0.3615 -1.2785
   35SOL    HW2  105   2.177   0.050   1.562  0.2258  0.4744 -0.5613
   36SOL     OW  106   2.498   2.872   2.507 -0.0481  0.1874 -0.8900
   36SOL    HW1  107   2.431   2.816   2.555  0.8957  1.9001  0.1165
   36SOL    HW2  108   2.593   2.845   2.524 -0.5863  0.1674 -4.2443
   37SOL     OW  109   1.017   2.791   2.988  0.0265  0.3890  0.6179
   37SOL    HW1  110   1.044   2.868   2.928  0.3624 -1.5798 -0.7424
   37SOL    HW2  111   1.095   2.728   2.981  1.9576  1.2781 -1.7631
   38SOL     OW  112   2.623   1.143   2.827  0.8167 -0.4323 -0.1600
   38SOL    HW1  113   2.642   1.084   2.907  0.6641 -0.3383 -0.9406
   38SOL    HW2  114   2.525   1.174   2.829  1.5461 -1.7369  0.4903
   39SOL     OW  115   2.287   2.029   1.959  0.3743 -0.2147  0.1134
   39SOL    HW1  116   2.275   1.940   1.908  1.6904 -0.0111  4.3511
   39SOL    HW2  117   2.193   2.063   1.981 -1.1916 -0.5188 -1.4278
   40SOL     OW  118   0.582   0.277   2.718  0.4740 -0.1096 -0.2427
   40SOL    HW1  119   0.520   0.204   2.749  1.1038 -0.7499  1.1213
   40SOL    HW2  120   0.616   0.250   2.623  2.5221 -0.4697 -1.1191
   41SOL     OW  121   1.524   1.105   1.397  0.2738 -0.5847 -0.2442
   41SOL    HW1  122   1.604   1.146   1.448  0.9427  1.0320  0.7535
   41SOL    HW2  123   1.442   1.113   1.449  1.5091  1.4177 -0.1216
   42SOL     OW  124   0.178   0.207   1.975 -0.2110  0.3505  0.1486
   42SOL    HW1  125   0.225   0.243   1.892  3.4841  0.4632 -0.0928
   42SOL    HW2  126   0.133   0.284   2.027  2.2160  0.9169 -0.0698
   43SOL     OW  127   1.662   1.296   2.013 -0.7722  0.6464  0.5163
   43SOL    HW1  128   1.576   1.310   2.076 -2.5809  2.6482  0.1605
   43SOL    HW2  129   1.629   1.283   1.918  1.2502  0.6873 -0.9315
   44SOL     OW  130   0.182   0.010   3.005 -0.9726  0.3345  0.0469
   44SOL    HW1  131   0.150   0.084   3.065  1.3299 -0.3862  1.7016
   44SOL    HW2  132   0.158   2.990   3.047 -0.1250  2.0781 -0.9366
   45SOL     OW  133   0.738   1.937   1.102  0.0035  0.2655 -0.0326
   45SOL    HW1  134   0.751   2.031   1.143 -0.2851  0.5269 -2.9075
   45SOL    HW2  135   0.659   1.890   1.138 -0.1440  0.5262 -1.3522
   46SOL     OW  136   2.535   2.589   1.756  0.3767  0.0172 -0.2155
   46SOL    HW1  137   2.612   2.653   1.766  0.6941  0.0352 -0.3384
   46SOL    HW2  138   2.577   2.504   1.718 -1.0252  1.5816  1.9973
   47SOL     OW  139   1.011   1.617   1.292  0.1664  0.3445 -0.1202
   47SOL    HW1  140   1.020   1.718   1.266  0.0768 -0.6892  0.2425
   47SOL    HW2  141   0.918   1.590   1.334 -2.0935 -0.0634  0.4248
   48SOL     OW  142   0.249   2.720   0.266  0.3894  0.1101  0.2385
   48SOL    HW1  143   0.157   2.722   0.311  0.0579 -1.2836  2.5318
   48SOL    HW2  144   0.289   2.815   0.265 -2.5933 -1.5744 -1.1715
   49SOL     OW  145   2.962   1.459   1.941 -0.5646 -0.1700 -0.3166
   49SOL    HW1  146   2.923   1.461   2.035  1.5569 -0.9476  3.2513
   49SOL    HW2  147   2.895   1.433   1.865  2.8825 -0.2866 -0.5890
   50SOL     OW  148   2.004   0.892   0.620  0.4694 -0.0337 -0.8571
   50SOL    HW1  149   2.056   0.858   0.543  0.9780  0.7303  2.0300
   50SOL    HW2  150   1.947   0.817   0.667 -3.2679 -2.1574  2.4332
   51SOL     OW  151   1.212   0.759   1.031 -0.2188  0.7230 -0.5244
   51SOL    HW1  152   1.232   0.683   1.100 -0.8822  0.8215  1.2800
   51SOL    HW2  153   1.121   0.797   1.058 -0.0775 -1.9806  1.3312
   52SOL     OW  154   1.303   1.404   0.071  0.2515 -0.7765  0.9098
   52SOL    HW1  155   1.282   1.332   0.139  2.5136 -0.1081 -0.7033
   52SOL    HW2  156   1.224   1.464   0.046 -3.1401  0.9934  0.3865
   53SOL     OW  157   0.999   2.432   2.553  0.3195 -0.6638  0.1160
   53SOL    HW1  158   0.947   2.354   2.589  0.2604  2.0769 -0.4536
   53SOL    HW2  159   1.043   2.485   2.626  0.2434  0.6799  1.9088
   54SOL     OW  160   1.512   0.519   1.639 -0.2038  0.0501 -0.0113
   54SOL    HW1  161   1.552   0.450   1.575  0.0275  1.2855  2.0174
   54SOL    HW2  162   1.411   0.510   1.633  0.0324  0.2842  2.2459
   55SOL     OW  163   2.606   2.730   0.375  0.2765 -0.2683  0.1188
   55SOL    HW1  164   2.618   2.648   0.433  0.6596 -1.0293  0.6066
   55SOL    HW2  165   2.537   2.794   0.405 -1.2261 -3.9793  0.4666
   56SOL     OW  166   0.637   2.444   1.892 -0.4715  0.5010  0.1159
   56SOL    HW1  167   0.533   2.454   1.887 -2.5926 -0.4794  0.3581
   56SOL    HW2  168   0.668   2.346   1.882  0.2746 -1.4924 -0.5407
   57SOL     OW  169   1.731   0.813   2.504  0.0365  0.0909  0.2060
   57SOL    HW1  170   1.754   0.719   2.521 -0.7886  1.0196  0.0124
   57SOL    HW2  171   1.633   0.826   2.524 -0.5258  0.4377 -1.1570
   58SOL     OW  172   2.919   1.026   1.673  0.2293  0.3511 -0.6787
   58SOL    HW1  173   2.999   1.092   1.695  0.6423  0.4210 -0.6469
   58SOL    HW2  174   2.837   1.077   1.635 -1.8101  1.6358 -1.6040
   59SOL     OW  175   0.545   2.867   2.275 -0.3632  0.1290  0.1267
   59SOL    HW1  176   0.625   2.817   2.238  1.8096  0.9969 -0.0797
   59SOL    HW2  177   0.463   2.806   2.274 -2.1417 -0.1183  1.5143
   60SOL     OW  178   2.719   2.001   0.657 -0.7558  0.0656  0.3600
   60SOL    HW1  179   2.726   1.927   0.585  1.9532 -1.8422  2.1411
   60SOL    HW2  180   2.817   2.025   0.681  0.7456  1.0051  2.4405
   61SOL     OW  181   0.686   2.313   0.397  0.1660  0.4479  0.6660
   61SOL    HW1  182   0.658   2.399   0.352  0.9270 -1.7764  1.6372
   61SOL    HW2  183   0.769   2.319   0.457 -3.9092 -3.4566 -0.8404
   62SOL     OW  184   2.193   2.507   2.729 -0.2138 -0.2364 -0.2199
   62SOL    HW1  185   2.128   2.505   2.648  1.3192  0.5470 -0.3975
   62SOL    HW2  186   2.242   2.596   2.731 -0.9664  0.0093  0.2474
   63SOL     OW  187   1.935   0.448   0.013  0.3543  0.1018  0.0087
   63SOL    HW1  188   1.987   0.487   3.003 -0.9400 -1.0714  1.1593
   63SOL    HW2  189   1.844   0.414   3.049 -0.0803  2.2726 -2.3716
   64SOL     OW  190   0.692   1.027   2.600  0.5139 -0.4175 -0.6605
   64SOL    HW1  191   0.736   1.064   2.681 -0.3564 -0.8267 -2.1222
   64SOL    HW2  192   0.651   0.936   2.612  3.3943  2.5173  1.1166
   65SOL     OW  193   1.361   3.025   0.469  0.2470  1.0035 -0.1327
   65SOL    HW1  194   1.404   2.955   0.528  0.2083  1.5269 -0.5674
   65SOL    HW2  195   1.287   2.978   0.408 -1.1241  0.4494  1.7651
   66SOL     OW  196   0.388   1.347   1.610 -0.2949 -0.1841 -0.0354
   66SOL    HW1  197   0.372   1.349   1.712 -1.3317  1.1651 -2.1994
   66SOL    HW2  198   0.486   1.356   1.585  0.2734 -1.0702 -0.7715
   67SOL     OW  199   2.214   2.938   2.278 -0.3860  0.6380  0.0750
   67SOL    HW1  200   2.174   2.853   2.241  0.5921 -0.6661 -1.3286
   67SOL    HW2  201   2.315   2.936   2.280  0.1034 -0.6729  0.3380
   68SOL     OW  202   0.845   0.645   1.452 -0.5739 -0.9613  0.6869
   68SOL    HW1  203   0.917   0.706   1.413  2.1125 -2.3964  0.4679
   68SOL    HW2  204   0.761   0.696   1.471 -4.1365 -1.2981  0.7088
   69SOL     OW  205   2.189   2.741   0.474  0.1594 -0.0785 -0.2572
   69SOL    HW1  206   2.125   2.773   0.548 -1.2625 -1.3994 -1.8791
   69SOL    HW2  207   2.217   2.812   0.407 -0.9894 -1.7434  2.1607
   70SOL     OW  208   2.480   0.593   2.683  0.0388 -0.3452 -0.7142
   70SOL    HW1  209   2.510   0.685   2.649 -0.5255  0.7479 -0.4147
   70SOL    HW2  210   2.547   0.553   2.752  0.0048 -0.5344  0.5119
   71SOL     OW  211   2.869   1.948   0.215  0.5730 -0.5436  0.0900
   71SOL    HW1  212   2.924   1.863   0.237  2.5069 -3.3839 -1.1803
   71SOL    HW2  213   2.899   1.978   0.121 -1.2617 -0.7602  0.1404
   72SOL     OW  214   2.976   1.636   0.514  0.5064 -0.0064  0.0854
   72SOL    HW1  215   2.903   1.657   0.575  2.0520 -1.3365 -1.6136
   72SOL    HW2  216   3.064   1.670   0.553 -2.4378 -0.8091 -0.3703
   73SOL     OW  217   0.837   0.915   0.652 -0.4834  0.2755  0.2982
   73SOL    HW1  218   0.830   0.969   0.737  0.1713 -1.0319  0.6073
   73SOL    HW2  219   0.809   0.818   0.669 -1.4254 -2.7810  1.7375
   74SOL     OW  220   0.206   1.906   2.034  0.3141  0.2289 -0.2927
   74SOL    HW1  221   0.243   1.814   2.071 -0.9035 -0.0877  0.5472
   74SOL    HW2  222   0.276   1.978   2.037  1.3304 -1.0452 -0.1345
   75SOL     OW  223   1.781   1.499   1.223  0.2313 -0.2402  0.7113
   75SOL    HW1  224   1.797   1.501   1.125 -0.9852 -3.0158  2.2868
   75SOL    HW2  225   1.724   1.416   1.239  1.2951  0.4581  0.3983
   76SOL     OW  226   1.963   2.161   0.931  0.0933 -0.1461 -0.0605
   76SOL    HW1  227   1.998   2.212   1.013  1.6650 -0.3729  3.0496
   76SOL    HW2  228   1.962   2.060   0.945 -0.8043 -1.0673  0.8788
   77SOL     OW  229   2.546   1.584   1.687  0.1181 -0.0889  0.7695
   77SOL    HW1  230   2.478   1.589   1.764  0.8556 -0.6715 -1.1387
   77SOL    HW2  231   2.598   1.674   1.694 -1.7010  3.1694  2.2269
   78SOL     OW  232   1.468   1.013   0.610 -0.1345 -0.4995  0.1121
   78SOL    HW1  233   1.382   1.021   0.554 -1.4070 -0.4100 -1.7348
   78SOL    HW2  234   1.509   0.917   0.610  0.5009 -3.3490  0.1715
   79SOL     OW  235   2.036   1.563   1.609 -0.4326 -0.1351  0.2165
   79SOL    HW1  236   2.002   1.529   1.516 -0.2137 -2.2611 -0.7154
   79SOL    HW2  237   2.083   1.654   1.593  1.0139  1.8336 -1.5801
   80SOL     OW  238   1.091   0.395   1.350  0.3588 -0.0083  0.6851
   80SOL    HW1  239   1.026   0.355   1.425  2.5846  1.3389  0.9889
   80SOL    HW2  240   1.129   0.316   1.298  0.6842  1.0759  0.2351
   81SOL     OW  241   0.573   2.275   0.645  0.3303 -0.0747 -1.0275
   81SOL    HW1  242   0.557   2.181   0.682 -1.1842 -0.2903  1.0172
   81SOL    HW2  243   0.604   2.272   0.549 -0.3878  1.0242  1.2956
   82SOL     OW  244   1.120   0.089   1.658 -0.5626 -0.3057 -0.7344
   82SOL    HW1  245   1.087   0.091   1.754 -1.0630  1.4745  2.0690
   82SOL    HW2  246   1.219   0.095   1.659 -1.6307  0.9606  0.5791
   83SOL     OW  247   0.749   1.701   0.807 -0.0605 -0.0109 -0.5929
   83SOL    HW1  248   0.760   1.802   0.827  1.8298 -0.2551 -0.4617
   83SOL    HW2  249   0.706   1.686   0.714 -0.7512 -0.5764 -0.4890
   84SOL     OW  250   2.718   1.334   0.113  0.2071  0.1956  0.0075
   84SOL    HW1  251   2.646   1.290   0.056  0.0918  0.1190  0.3177
   84SOL    HW2  252   2.813   1.328   0.070 -0.5118  2.3576 -1.6295
   85SOL     OW  253   0.174   2.400   1.010 -0.0053 -0.0913  0.4838
   85SOL    HW1  254   0.109   2.373   0.933 -1.0719  0.4195  0.6012
   85SOL    HW2  255   0.258   2.359   0.983 -2.9224  1.8685  3.0209
   86SOL     OW  256   1.979   2.703   1.160 -0.1669  0.0973 -0.0595
   86SOL    HW1  257   1.904   2.663   1.210  0.9424  1.7614  0.2781
   86SOL    HW2  258   2.001   2.646   1.082  0.6137  1.8876  3.1102
   87SOL     OW  259   0.147   1.759   0.637 -0.1850  0.3858  0.1459
   87SOL    HW1  260   0.095   1.761   0.725  0.6792 -0.5714  1.6143
   87SOL    HW2  261   0.191   1.667   0.626 -1.8487  1.1045  2.8266
   88SOL     OW  262   0.659   0.466   1.440 -0.4612  0.2743 -0.4826
   88SOL    HW1  263   0.631   0.459   1.345 -1.0450  0.5629  3.3106
   88SOL    HW2  264   0.745   0.516   1.444 -1.4762  0.9184 -2.7628
   89SOL     OW  265   0.695   2.693   1.961 -0.5098 -0.2634  0.1270
   89SOL    HW1  266   0.677   2.743   1.875  0.8942 -1.6259  1.3062
   89SOL    HW2  267   0.678   2.593   1.944  1.7189  1.2846 -0.7450
   90SOL     OW  268   0.125   1.966   1.088  0.4022  0.0850  0.2242
   90SOL    HW1  269   0.128   1.906   1.172  1.0049 -2.2481  0.7139
   90SOL    HW2  270   0.107   2.061   1.124 -2.3873 -1.4451  0.9462
   91SOL     OW  271   1.166   2.103   1.194 -0.0240 -0.2652  0.2450
   91SOL    HW1  272   1.174   2.107   1.089 -1.1338 -0.7818 -0.9821
   91SOL    HW2  273   1.118   2.186   1.235 -1.0262 -0.4583 -1.0421
   92SOL     OW  274   2.837   2.831   1.507 -0.0706  0.1565 -0.3482
   92SOL    HW1  275   2.754   2.850   1.449 -5.9819 -0.9953  0.3408
   92SOL    HW2  276   2.905   2.906   1.516  0.5900  1.0902 -0.0168
   93SOL     OW  277   3.045   1.462   2.886  0.5055 -0.1879  0.0970
   93SOL    HW1  278   0.039   1.395   2.841 -0.8198 -2.2796  1.7939
   93SOL    HW2  279   3.018   1.432   2.979 -4.2159  2.4294 -4.1535
   94SOL     OW  280   2.823   2.689   2.141  0.0564  0.0462 -0.5195
   94SOL    HW1  281   2.881   2.732   2.065  1.3999  2.2225 -1.3646
   94SOL    HW2  282   2.817   2.755   2.219 -1.1314 -2.7845  2.1072
   95SOL     OW  283   1.541   0.539   1.912 -0.5975 -0.2912  0.4658
   95SOL    HW1  284   1.522   0.446   1.948  0.0890 -0.2420  1.2210
   95SOL    HW2  285   1.556   0.533   1.813  0.4568  0.4806 -0.4256
   96SOL     OW  286   2.560   0.107   2.031  0.0545  0.4477 -0.6367
   96SOL    HW1  287   2.560   0.172   1.956  1.4274 -3.1111 -0.2517
   96SOL    HW2  288   2.559   0.151   2.122 -0.7806 -1.8129  1.1777
   97SOL     OW  289   2.131   2.851   1.522 -0.1293  0.2689  0.1844
   97SOL    HW1  290   2.208   2.814   1.568 -1.6296  1.2173 -0.7407
   97SOL    HW2  291   2.051   2.817   1.568  1.3427  0.3374  0.7204
   98SOL     OW  292   2.169   2.872   1.263 -0.1166  0.0943 -0.2537
   98SOL    HW1  293   2.152   2.868   1.365 -0.9318 -0.0158  0.5688
   98SOL    HW2  294   2.100   2.821   1.211 -0.9014  1.1010  1.9748
   99SOL     OW  295   2.923   0.191   2.154  0.6468  0.1638  0.1841
   99SOL    HW1  296   2.998   0.131   2.124 -1.5488  1.2268  0.2446
   99SOL    HW2  297   2.898   0.247   2.074 -0.9727  0.3493 -1.6713
  100SOL     OW  298   2.211   1.381   1.690 -0.1904 -0.2566 -0.4654
  100SOL    HW1  299   2.152   1.456   1.665  1.3259 -2.1086 -0.7143
  100SOL    HW2  300   2.189   1.343   1.781  2.6949 -1.0639 -3.8379
  101SOL     OW  301   1.538   0.202   0.490 -0.7254  0.3051 -0.5005
  101SOL    HW1  302   1.614   0.273   0.485 -0.6368  2.7746 -2.2211
  101SOL    HW2  303   1.454   0.238   0.450  2.7442  0.2372  0.5371
  102SOL     OW  304   0.511   0.775   1.224 -0.3154 -0.4437 -0.1681
  102SOL    HW1  305   0.423   0.722   1.230  0.2317  0.2141  1.4860
  102SOL    HW2  306   0.532   0.802   1.320 -1.3289 -0.8112  0.4823
  103SOL     OW  307   2.179   0.155   2.817  0.1237 -0.0692 -0.2286
  103SOL    HW1  308   2.264   0.186   2.774 -1.8839 -2.1459  0.4612
  103SOL    HW2  309   2.166   0.198   2.908  0.7541 -0.1606 -1.4724
  104SOL     OW  310   2.778   3.021   1.916  0.0833  0.4683 -0.4122
  104SOL    HW1  311   2.858   0.018   1.906  1.4616  1.4095 -0.1299
  104SOL    HW2  312   2.710   3.064   1.978 -3.7643  3.5037 -1.8857
  105SOL     OW  313   1.475   0.987   2.083  0.4267 -0.6542 -0.1154
  105SOL    HW1  314   1.509   0.980   1.987 -3.0483  0.8737 -0.7451
  105SOL    HW2  315   1.553   0.978   2.148 -0.0145 -1.5729 -0.2402
  106SOL     OW  316   1.599   0.350   0.803  0.0904 -0.0893 -0.0189
  106SOL    HW1  317   1.697   0.342   0.774  1.0275 -0.0160  0.9611
  106SOL    HW2  318   1.568   0.278   0.867  2.0011  3.0946 -0.7920
  107SOL     OW  319   0.806   1.194   0.806 -0.6184  0.0574 -0.1095
  107SOL    HW1  320   0.705   1.192   0.814  1.8812 -0.0466  0.7812
  107SOL    HW2  321   0.845   1.288   0.832  1.0696 -0.5110 -0.3330
  108SOL     OW  322   3.011   0.693   2.493  0.1189  0.4471  0.3117
  108SOL    HW1  323   3.064   0.614   2.451  1.2203  0.1855 -2.1790
  108SOL    HW2  324   2.965   0.743   2.417  0.9911 -0.3199  1.4020
  109SOL     OW  325   1.747   0.139   0.156 -0.1011  0.2001 -0.2086
  109SOL    HW1  326   1.735   0.049   0.101  1.7122 -0.0850 -1.3547
  109SOL    HW2  327   1.838   0.138   0.205  0.5999 -2.8132  0.8295
  110SOL     OW  328   2.996   1.837   2.855 -0.5636 -0.7847  0.4564
  110SOL    HW1  329   3.032   1.922   2.898  0.5206  3.7539  1.5148
  110SOL    HW2  330   0.002   1.763   2.861  3.3200 -0.9153  0.0872
  111SOL     OW  331   2.159   0.133   2.294  0.0761 -0.2107 -0.1414
  111SOL    HW1  332   2.179   0.043   2.253  0.4118 -1.3939  0.7344
  111SOL    HW2  333   2.180   0.130   2.392  0.3831  2.7257  0.2393
  112SOL     OW  334   2.415   2.991   1.221 -0.3552 -0.5163 -0.0871
  112SOL    HW1  335   2.444   2.924   1.145  0.4473 -3.3173 -0.2947
  112SOL    HW2  336   2.322   2.964   1.265 -4.1103 -0.3810  2.6366
  113SOL     OW  337   2.442   2.414   1.943 -0.0162  0.2829 -0.3207
  113SOL    HW1  338   2.437   2.466   1.856 -1.3780 -0.6640 -0.6510
  113SOL    HW2  339   2.357   2.418   1.998 -1.8835  1.2242 -0.7142
  114SOL     OW  340   2.762   0.143   0.673  0.2526  0.3085  0.4265
  114SOL    HW1  341   2.741   0.231   0.627  0.1325 -1.7188 -0.4786
  114SOL    HW2  342   2.737   0.063   0.613  1.2171  1.9111  1.2057
  115SOL     OW  343   2.804   1.689   0.055 -0.1231  0.1908 -0.3653
  115SOL    HW1  344   2.875   1.715   0.121 -0.8064  0.6999 -0.9952
  115SOL    HW2  345   2.749   1.609   0.085 -0.9187 -0.2914 -0.6369
  116SOL     OW  346   0.154   1.503   2.019  0.5078  0.4991  0.1265
  116SOL    HW1  347   0.174   1.594   2.053  2.6844 -3.6889 -0.9917
  116SOL    HW2  348   0.058   1.494   1.985 -2.0818 -1.2536 -1.6447
  117SOL     OW  349   2.531   2.833   0.994 -0.0127  0.3021 -0.1940
  117SOL    HW1  350   2.631   2.823   0.963  0.0665  0.2406 -3.0853
  117SOL    HW2  351   2.465   2.769   0.945 -1.2670  0.9065  0.1914
  118SOL     OW  352   0.291   2.266   1.731  0.3389  0.7892 -0.1391
  118SOL    HW1  353   0.239   2.187   1.690 -2.7925 -3.2945 -1.3356
  118SOL    HW2  354   0.359   2.296   1.659 -0.3980 -0.9387 -0.3303
  119SOL     OW  355   1.417   2.077   1.155  0.4279  0.1359 -0.5838
  119SOL    HW1  356   1.310   2.076   1.169 -2.5078 -0.6050  2.8338
  119SOL    HW2  357   1.456   1.984   1.172 -1.0753  3.4300  0.0320
  120SOL     OW  358   0.579   1.853   1.865 -0.2180 -0.0818 -0.2764
  120SOL    HW1  359   0.553   1.760   1.898  0.3375 -0.1250  1.2862
  120SOL    HW2  360   0.502   1.918   1.881  1.9980 -1.1290  1.5949
  121SOL     OW  361   2.562   1.509   0.982  0.2062 -0.4760  0.3054
  121SOL    HW1  362   2.612   1.492   1.068 -2.2780  1.3034 -1.1248
  121SOL    HW2  363   2.593   1.596   0.936  1.4918  0.8923  0.9552
  122SOL     OW  364   2.157   1.663   2.306 -0.0423  0.1882 -0.2673
  122SOL    HW1  365   2.081   1.602   2.292 -2.4457 -2.3304 -0.2180
  122SOL    HW2  366   2.204   1.685   2.218 -0.2894 -0.6051 -2.1363
  123SOL     OW  367   2.704   2.781   0.709  0.5306  0.0431 -0.0683
  123SOL    HW1  368   2.763   2.698   0.693  0.2260 -1.7148  0.0101
  123SOL    HW2  369   2.722   2.829   0.797 -0.1897  0.4638  0.3073
  124SOL     OW  370   1.397   1.349   2.664  0.3103  0.2857 -0.2872
  124SOL    HW1  371   1.412   1.323   2.762  0.7771 -0.7794  2.6074
  124SOL    HW2  372   1.485   1.378   2.627 -0.5152  3.0295  0.0829
  125SOL     OW  373   0.307   1.465   2.794 -0.2687 -0.4417 -0.2402
  125SOL    HW1  374   0.283   1.522   2.714  1.9006 -1.3233 -0.4083
  125SOL    HW2  375   0.256   1.377   2.780  1.3540  1.6586 -0.3836
  126SOL     OW  376   3.024   2.193   0.520  0.1590 -0.1967 -0.2577
  126SOL    HW1  377   0.004   2.282   0.521  1.0964 -0.5004  1.5610
  126SOL    HW2  378   2.951   2.205   0.448 -0.9363  0.6696 -0.8418
  127SOL     OW  379   0.340   1.673   0.872  0.3107 -0.3874  0.3822
  127SOL    HW1  380   0.259   1.629   0.920 -2.2169 -1.4344  0.1943
  127SOL    HW2  381   0.340   1.774   0.876 -2.4154  0.0041 -0.1986
  128SOL     OW  382   1.476   1.034   3.062 -0.1627  0.1447  0.0273
  128SOL    HW1  383   1.522   1.069   0.075  1.4041 -0.5774 -0.7993
  128SOL    HW2  384   1.444   0.944   0.019  0.6414  3.4288 -1.3148
  129SOL     OW  385   2.206   1.683   1.291 -0.2903 -0.2811  0.2062
  129SOL    HW1  386   2.151   1.751   1.343 -3.7223  3.3716  0.7562
  129SOL    HW2  387   2.292   1.652   1.338 -4.7327 -0.9889 -0.4797
  130SOL     OW  388   1.871   1.205   0.300 -0.1762  0.1477 -0.3682
  130SOL    HW1  389   1.966   1.235   0.275  1.8617  2.7901  0.0437
  130SOL    HW2  390   1.861   1.173   0.396  0.1483  0.4749  0.0688
  131SOL     OW  391   2.776   1.310   2.638  0.5009  0.2614 -0.4001
  131SOL    HW1  392   2.726   1.260   2.712  2.0687  0.9765  0.2469
  131SOL    HW2  393   2.733   1.400   2.632  1.0456 -0.8478 -1.4870
  132SOL     OW  394   1.805   1.649   1.779  0.2507  0.3020 -0.8372
  132SOL    HW1  395   1.782   1.746   1.802 -1.2788 -2.0637  0.5077
  132SOL    HW2  396   1.882   1.646   1.714 -0.2124 -0.1626  3.1035
  133SOL     OW  397   0.320   1.087   2.918  0.2315 -0.1330  0.3562
  133SOL    HW1  398   0.269   1.126   3.000 -0.5658  0.2682 -1.4584
  133SOL    HW2  399   0.407   1.128   2.917 -3.4108 -1.0877 -1.1548
  134SOL     OW  400   2.607   1.147   0.521  0.0778 -0.1635  0.2590
  134SOL    HW1  401   2.517   1.176   0.566  1.6743 -1.0897  0.9815
  134SOL    HW2  402   2.660   1.225   0.483  1.6167 -0.8331 -2.5201
  135SOL     OW  403   2.627   0.930   0.366  0.3059  0.3769  0.3434
  135SOL    HW1  404   2.630   1.000   0.432  1.5457 -2.4559 -0.8927
  135SOL    HW2  405   2.533   0.931   0.321 -3.8958  0.4563 -0.1640
  136SOL     OW  406   1.812   1.690   1.465  0.5860 -0.0947  0.1208
  136SOL    HW1  407   1.885   1.748   1.423 -1.5000  0.4907 -0.5014
  136SOL    HW2  408   1.778   1.613   1.404 -2.5280 -1.1959  0.4557
  137SOL     OW  409   2.568   2.105   0.877 -0.5531 -0.1102 -0.0982
  137SOL    HW1  410   2.560   2.060   0.788  1.1945  1.3270  1.6420
  137SOL    HW2  411   2.667   2.124   0.897 -0.7394  2.1297  2.2154
  138SOL     OW  412   2.092   0.034   1.844  0.3048  0.1837 -0.1230
  138SOL    HW1  413   2.064   0.038   1.749  2.4144 -2.1085  2.2647
  138SOL    HW2  414   2.122   0.122   1.879 -3.8301 -1.6057  1.6004
  139SOL     OW  415   2.479   0.400   0.081  0.0871  0.1878  0.2649
  139SOL    HW1  416   2.511   0.304   0.102  0.0234 -1.1081  0.4947
  139SOL    HW2  417   2.513   0.426   3.056  0.4465 -0.9070 -0.0179
  140SOL     OW  418   1.119   1.794   2.420  0.3002  0.1188  0.2862
  140SOL    HW1  419   1.156   1.703   2.386  2.5182 -1.3231  0.1059
  140SOL    HW2  420   1.038   1.778   2.476 -1.2233  1.4256  0.2286
  141SOL     OW  421   0.746   0.758   1.976  0.2317  0.7612  0.3223
  141SOL    HW1  422   0.679   0.778   2.049  0.0927 -0.1584 -1.8440
  141SOL    HW2  423   0.814   0.835   1.975  0.3698  1.5542  0.6014
  142SOL     OW  424   2.053   2.718   0.041 -0.0028  0.3602  0.2201
  142SOL    HW1  425   2.146   2.736   0.015  0.0040 -1.3382  0.9116
  142SOL    HW2  426   2.034   2.633   0.090 -1.0272  1.3074 -0.5874
  143SOL     OW  427   1.206   2.051   0.031 -0.1807  0.7066 -0.2667
  143SOL    HW1  428   1.173   2.114   3.028  0.5500 -0.9765  0.5953
  143SOL    HW2  429   1.146   2.051   0.111 -1.4250  2.1779 -1.1277
  144SOL     OW  430   1.118   2.620   0.205 -0.0577  0.5273 -0.2860
  144SOL    HW1  431   1.051   2.579   0.137 -2.2235 -0.4831 -1.3344
  144SOL    HW2  432   1.213   2.584   0.195  0.4900 -0.2353  0.4112
  145SOL     OW  433   2.123   1.916   2.646 -0.0712 -0.3654  0.5284
  145SOL    HW1  434   2.074   1.936   2.733 -0.4971  0.4862 -1.4774
  145SOL    HW2  435   2.225   1.931   2.657  0.7509 -0.6350 -0.3335
  146SOL     OW  436   2.467   2.567   3.018 -0.5321 -0.3841  0.1902
  146SOL    HW1  437   2.409   2.652   3.005 -1.9603  1.3785 -0.2636
  146SOL    HW2  438   2.464   2.526   0.044  0.9510 -1.0909  2.3349
  147SOL     OW  439   2.917   1.308   1.229  0.4417  0.0959 -0.0251
  147SOL    HW1  440   2.825   1.351   1.235 -0.7880 -1.4585  2.7267
  147SOL    HW2  441   2.914   1.209   1.256  0.0742  0.7666  0.4214
  148SOL     OW  442   1.686   2.986   0.020  0.7862 -0.6102 -0.0158
  148SOL    HW1  443   1.736   2.903   3.068 -2.0798  1.5974  0.4634
  148SOL    HW2  444   1.584   2.964   0.036 -1.6034 -0.7892 -1.1768
  149SOL     OW  445   0.575   1.735   2.750 -0.3406 -0.1743  0.0571
  149SOL    HW1  446   0.657   1.723   2.811 -2.3131  0.4191 -1.4802
  149SOL    HW2  447   0.601   1.721   2.654  1.1742 -1.2824 -0.5574
  150SOL     OW  448   0.346   2.420   0.524 -0.1830 -0.2149 -0.0054
  150SOL    HW1  449   0.376   2.447   0.428 -0.2233 -0.9358  1.4010
  150SOL    HW2  450   0.408   2.350   0.566  4.1041  0.2785 -1.9076
  151SOL     OW  451   0.498   1.519   0.347 -0.0470  0.0919 -0.3621
  151SOL    HW1  452   0.462   1.423   0.333 -0.9108  1.4942  0.3908
  151SOL    HW2  453   0.449   1.586   0.289  3.4193 -0.7593  2.0058
  152SOL     OW  454   2.762   1.707   0.656  0.3115  0.3187 -0.1700
  152SOL    HW1  455   2.726   1.760   0.580  1.6376 -1.3568  3.3389
  152SOL    HW2  456   2.716   1.730   0.747 -1.9603  0.7010  1.6188
  153SOL     OW  457   2.167   2.486   0.384 -0.0630  0.3822 -0.7854
  153SOL    HW1  458   2.176   2.576   0.428  0.5959 -1.8797 -0.3059
  153SOL    HW2  459   2.082   2.442   0.416  1.3954 -0.2341 -1.3590
  154SOL     OW  460   0.845   2.761   0.858  0.0594  0.5631 -0.2359
  154SOL    HW1  461   0.870   2.861   0.847 -0.9377  0.0463  2.6797
  154SOL    HW2  462   0.745   2.751   0.854  0.7568 -0.6051 -0.4165
  155SOL     OW  463   0.310   1.948   0.901 -0.1720 -0.1948  0.1215
  155SOL    HW1  464   0.257   1.947   0.982  2.2167 -3.6542 -5.0748
  155SOL    HW2  465   0.265   2.004   0.829  2.0219 -0.3733 -2.4013
  156SOL     OW  466   2.534   2.372   0.157  0.0715  0.1611 -0.3995
  156SOL    HW1  467   2.512   2.275   0.121 -2.1496 -3.7619 -1.6589
  156SOL    HW2  468   2.629   2.391   0.133 -2.1674 -1.0784 -0.2102
  157SOL     OW  469   0.772   1.581   1.405 -0.1292  0.4024 -0.2205
  157SOL    HW1  470   0.731   1.660   1.457 -0.7552  2.4364  0.8613
  157SOL    HW2  471   0.716   1.569   1.321 -0.8071  1.3615  0.2122
  158SOL     OW  472   1.391   0.776   0.055 -0.0229  0.2478 -0.4099
  158SOL    HW1  473   1.340   0.757   3.033 -2.4010 -1.6160 -1.1901
  158SOL    HW2  474   1.461   0.707   0.074 -0.3328  0.8599  2.9571
  159SOL     OW  475   1.245   0.994   2.798  0.4211  0.0064  0.4002
  159SOL    HW1  476   1.261   1.036   2.706  1.1002  0.7936  0.4625
  159SOL    HW2  477   1.328   0.989   2.853 -1.3128  0.2854 -0.7081
  160SOL     OW  478   1.146   1.420   0.444  0.2552  0.3332 -0.1631
  160SOL    HW1  479   1.158   1.512   0.398 -0.4822 -3.6610  0.9828
  160SOL    HW2  480   1.206   1.354   0.387 -0.0714  0.5733 -3.0164
  161SOL     OW  481   0.170   2.227   2.637 -0.7804  0.5435  0.1197
  161SOL    HW1  482   0.072   2.264   2.621 -2.5121  0.9159 -1.7136
  161SOL    HW2  483   0.173   2.152   2.705 -1.0281  0.0213  0.4693
  162SOL     OW  484   0.398   2.261   0.945 -0.3512 -0.5722  0.1784
  162SOL    HW1  485   0.362   2.213   0.864 -0.2658 -0.9320  0.2627
  162SOL    HW2  486   0.403   2.195   1.025  0.4662  0.5774  1.5328
  163SOL     OW  487   3.049   0.723   2.932  0.0437  0.3402  0.0192
  163SOL    HW1  488   0.026   0.637   2.898 -0.8103 -0.1593 -2.2344
  163SOL    HW2  489   3.000   0.706   3.021 -3.4323 -0.0075  0.6224
  164SOL     OW  490   0.412   2.939   2.687 -0.3054  0.4217 -0.2608
  164SOL    HW1  491   0.428   2.972   2.779 -0.0342 -0.5953  1.1152
  164SOL    HW2  492   0.500   2.916   2.640 -2.3366 -1.1570 -1.9826
  165SOL     OW  493   2.225   0.260   1.908  0.0570 -0.3603  0.0124
  165SOL    HW1  494   2.240   0.293   2.004 -0.4063 -0.7135 -0.6258
  165SOL    HW2  495   2.181   0.342   1.859 -3.4918  3.0082 -1.4420
  166SOL     OW  496   1.913   2.507   1.536 -0.7874  0.4690 -0.0318
  166SOL    HW1  497   2.010   2.469   1.537 -1.3807 -0.7827  0.0995
  166SOL    HW2  498   1.910   2.599   1.582 -0.0886  4.4976  1.3751
  167SOL     OW  499   1.153   0.444   2.046  0.5300  0.1798 -0.1474
  167SOL    HW1  500   1.210   0.357   2.063 -0.7809 -2.3160  1.3516
  167SOL    HW2  501   1.141   0.489   2.137  0.8019  1.6880 -0.1337
  168SOL     OW  502   2.423   2.919   1.994 -0.1654 -0.3887  0.2381
  168SOL    HW1  503   2.470   3.004   1.998 -1.9000 -6.6102  1.6453
  168SOL    HW2  504   2.453   2.859   2.071 -1.5679  0.2492 -0.8632
  169SOL     OW  505   3.006   1.339   0.089 -0.3343 -0.0770  0.1882
  169SOL    HW1  506   3.031   1.379   0.181 -0.4742  0.2639 -0.3758
  169SOL    HW2  507   3.021   1.235   0.083  0.7809  1.1128  1.4684
  170SOL     OW  508   0.013   1.454   1.680 -0.5392  0.3455 -0.0182
  170SOL    HW1  509   3.017   1.483   1.609  0.8315 -1.8613  1.4885
  170SOL    HW2  510   3.044   1.473   1.772  1.9463 -0.1702  2.0583
  171SOL     OW  511   0.904   2.249   2.087  0.0939  0.0201 -0.2233
  171SOL    HW1  512   0.825   2.305   2.117 -0.3907 -1.7755 -1.5209
  171SOL    HW2  513   0.909   2.158   2.133 -1.0130  3.5982 -3.2178
  172SOL     OW  514   0.665   2.391   2.171 -0.2752  0.0759 -0.3558
  172SOL    HW1  515   0.626   2.445   2.091 -0.7534  1.5699  1.9103
  172SOL    HW2  516   0.622   2.412   2.263  0.7037  0.1966  2.4481
  173SOL     OW  517   1.224   2.537   0.868  0.4087 -0.6790 -0.3490
  173SOL    HW1  518   1.152   2.554   0.943 -1.8846  2.0759  0.0401
  173SOL    HW2  519   1.319   2.555   0.897  0.0703 -0.7547 -1.1169
  174SOL     OW  520   1.792   0.319   0.485 -0.0405 -0.6041  0.4324
  174SOL    HW1  521   1.813   0.327   0.583 -1.1980  1.0683  0.8932
  174SOL    HW2  522   1.864   0.269   0.432  2.4508 -0.2220 -2.6507
  175SOL     OW  523   1.188   1.638   0.308 -0.0089  0.1797  0.2521
  175SOL    HW1  524   1.272   1.695   0.286  0.6579  1.9333  0.0529
  175SOL    HW2  525   1.115   1.692   0.358 -0.1162 -0.2857  0.9130
  176SOL     OW  526   1.310   1.424   0.706  0.1750  0.1841 -0.0993
  176SOL    HW1  527   1.380   1.494   0.688  1.1142 -1.9123  1.3921
  176SOL    HW2  528   1.263   1.400   0.619 -0.2371 -0.5494  1.2629
  177SOL     OW  529   1.255   0.545   1.189 -0.0634 -0.2582  0.1144
  177SOL    HW1  530   1.199   0.494   1.255  1.4889 -1.4401  1.0776
  177SOL    HW2  531   1.339   0.579   1.230  1.3019 -1.3754 -2.5619
  178SOL     OW  532   2.653   1.556   0.252 -0.5811 -1.0334 -0.0266
  178SOL    HW1  533   2.693   1.550   0.348  0.8007 -1.5424 -0.0042
  178SOL    HW2  534   2.662   1.463   0.213  0.8202  0.7405  0.2098
  179SOL     OW  535   0.494   2.331   3.062  0.5550 -0.9551 -0.2046
  179SOL    HW1  536   0.483   2.236   0.033 -0.2010 -1.0333  0.4864
  179SOL    HW2  537   0.543   2.396   0.058  0.3185 -1.2035 -2.6271
  180SOL     OW  538   1.652   1.469   1.640  0.1751  0.3034  0.0180
  180SOL    HW1  539   1.718   1.534   1.684  2.8020  0.6246 -0.8918
  180SOL    HW2  540   1.583   1.519   1.587 -1.8960  0.0045 -0.8214
  181SOL     OW  541   0.981   0.994   2.216  0.2980 -0.4794  0.0248
  181SOL    HW1  542   0.962   0.983   2.117 -0.1164 -1.3020 -1.0447
  181SOL    HW2  543   1.080   0.973   2.238  1.3173  0.7952  1.5030
  182SOL     OW  544   2.876   1.074   2.242  0.4278  0.4758  0.0381
  182SOL    HW1  545   2.806   1.097   2.313  1.6737  1.5032 -0.4841
  182SOL    HW2  546   2.847   1.106   2.149 -1.2997  1.0613 -1.4567
  183SOL     OW  547   1.612   0.673   2.136 -0.5868 -0.6263  0.0207
  183SOL    HW1  548   1.696   0.719   2.107  0.3461  0.1471 -1.0150
  183SOL    HW2  549   1.564   0.628   2.059  0.2137  1.0352 -1.5797
  184SOL     OW  550   0.220   0.491   1.640 -0.0304 -0.5711  0.1183
  184SOL    HW1  551   0.318   0.518   1.632 -3.1885  1.1164 -2.2641
  184SOL    HW2  552   0.176   0.481   1.547  2.0870 -1.2658  1.8375
  185SOL     OW  553   2.401   1.803   0.648  0.5026 -0.8997 -0.2364
  185SOL    HW1  554   2.356   1.894   0.651  2.5951  2.3327  0.3628
  185SOL    HW2  555   2.345   1.750   0.582 -4.2045  1.1033 -1.0230
  186SOL     OW  556   0.593   1.884   3.061 -0.2952 -0.2002 -0.7179
  186SOL    HW1  557   0.583   1.816   2.987 -0.9532  2.0310  3.4072
  186SOL    HW2  558   0.680   1.932   3.050 -2.2275  0.8310  0.2896
  187SOL     OW  559   2.375   1.750   3.012  0.4081 -0.1482  0.1855
  187SOL    HW1  560   2.401   1.684   2.938 -1.8731  2.0190  1.2537
  187SOL    HW2  561   2.459   1.810   3.021 -3.1761  0.1502  1.0985
  188SOL     OW  562   0.967   2.562   0.698 -0.7009  0.3928 -0.4091
  188SOL    HW1  563   1.067   2.558   0.714 -0.5978 -0.8657  1.1229
  188SOL    HW2  564   0.930   2.621   0.768 -1.0375 -1.6412  0.4378
  189SOL     OW  565   1.958   0.971   2.533  0.4360 -0.0847  0.1621
  189SOL    HW1  566   1.883   0.903   2.539 -2.5574  0.1536  1.8560
  189SOL    HW2  567   1.957   1.012   2.626 -1.9057 -2.6452 -0.5844
  190SOL     OW  568   0.916   2.039   2.264 -0.8776  0.2220  0.1180
  190SOL    HW1  569   0.845   2.067   2.328 -1.6690  0.3264 -1.9337
  190SOL    HW2  570   1.002   2.039   2.311  3.0159 -0.1743  3.8435
  191SOL     OW  571   2.443   0.843   1.779 -0.0842 -0.0835  0.5504
  191SOL    HW1  572   2.531   0.792   1.789 -1.3297  0.7049 -0.4277
  191SOL    HW2  573   2.455   0.897   1.691 -0.3431  1.8997 -0.5789
  192SOL     OW  574   2.240   0.368   2.155  0.0105 -0.2622 -0.3387
  192SOL    HW1  575   2.327   0.418   2.170  1.3899 -0.6783 -1.5438
  192SOL    HW2  576   2.235   0.293   2.225 -1.5511 -1.2670 -1.9139
  193SOL     OW  577   0.458   0.354   0.695 -0.0445 -0.0348 -0.5452
  193SOL    HW1  578   0.404   0.322   0.620 -0.2626 -0.3028  1.0803
  193SOL    HW2  579   0.409   0.375   0.780 -0.6807 -1.0567 -1.8788
  194SOL     OW  580   1.230   2.352   1.536 -0.0723 -0.0476  0.0178
  194SOL    HW1  581   1.182   2.411   1.604  1.4817 -0.0480  1.0724
  194SOL    HW2  582   1.294   2.289   1.582 -0.9158  0.1069 -0.3565
  195SOL     OW  583   2.452   0.617   0.801 -0.6069 -0.2869  0.6232
  195SOL    HW1  584   2.417   0.524   0.816 -2.0242  1.0701 -2.0649
  195SOL    HW2  585   2.413   0.685   0.868 -0.4697  0.2852  2.5838
  196SOL     OW  586   1.165   1.738   1.718  0.6666  0.4903 -0.4241
  196SOL    HW1  587   1.114   1.787   1.643 -1.6185 -2.8234  0.4201
  196SOL    HW2  588   1.137   1.759   1.814 -1.9771  1.5589 -0.3155
  197SOL     OW  589   0.356   0.695   2.316 -0.0951  0.1627  0.1200
  197SOL    HW1  590   0.296   0.772   2.333 -0.5675 -1.7822 -0.0828
  197SOL    HW2  591   0.312   0.607   2.352  0.7511 -1.9587  1.3176
  198SOL     OW  592   1.664   1.262   0.849 -0.2249 -0.4381 -0.2640
  198SOL    HW1  593   1.564   1.262   0.872  0.4605  1.9036 -1.0903
  198SOL    HW2  594   1.728   1.324   0.896 -0.4303 -0.8847 -2.4344
  199SOL     OW  595   2.444   0.547   2.196  0.0569  0.0449  0.2636
  199SOL    HW1  596   2.500   0.494   2.259 -0.1072 -2.1420 -2.9876
  199SOL    HW2  597   2.414   0.637   2.235  3.5553  0.2880 -0.2675
  200SOL     OW  598   2.348   2.397   2.361 -0.4412  0.2764  0.6141
  200SOL    HW1  599   2.440   2.388   2.409 -1.9733 -2.1846 -1.6763
  200SOL    HW2  600   2.285   2.326   2.397  0.4430 -1.1250 -1.9445
  201SOL     OW  601   2.010   0.117   1.585 -0.3495  0.0796  0.3929
  201SOL    HW1  602   1.949   0.184   1.626 -1.4173  0.1403 -4.1817
  201SOL    HW2  603   1.983   0.095   1.490 -1.9949 -0.0828  0.2424
  202SOL     OW  604   2.245   2.931   0.270 -1.0727  0.4790  0.1914
  202SOL    HW1  605   2.282   3.016   0.314  1.7189 -0.1068  0.3647
  202SOL    HW2  606   2.175   2.950   0.197  0.6366  0.9318 -1.2592
  203SOL     OW  607   0.665   1.893   2.538 -0.6605 -0.1630 -0.3715
  203SOL    HW1  608   0.677   1.979   2.483  2.1091  3.3678 -1.8010
  203SOL    HW2  609   0.625   1.920   2.628 -2.7071  0.6016  0.1739
  204SOL     OW  610   0.971   1.229   2.597  0.5300 -0.0087  0.2706
  204SOL    HW1  611   0.925   1.322   2.617  0.0214  0.7541  1.6073
  204SOL    HW2  612   0.949   1.169   2.677 -0.0947  1.1752  1.8075
  205SOL     OW  613   0.979   0.887   1.388 -0.1142  0.2474  0.1351
  205SOL    HW1  614   1.067   0.849   1.426  1.5359 -0.5816  0.7479
  205SOL    HW2  615   1.004   0.943   1.303  0.6076  1.4348 -0.9254
  206SOL     OW  616   0.499   0.520   2.612  0.0047 -0.7773 -0.0916
  206SOL    HW1  617   0.542   0.549   2.524  1.6983  0.0353  0.4465
  206SOL    HW2  618   0.528   0.426   2.634 -0.3143 -0.5252  0.5583
  207SOL     OW  619   1.813   2.454   2.012 -0.1137  0.2852 -0.4905
  207SOL    HW1  620   1.823   2.499   2.101 -1.2583 -1.8309  0.7775
  207SOL    HW2  621   1.771   2.517   1.945  1.3565  0.5152  0.5300
  208SOL     OW  622   1.038   2.555   1.119  0.2797  0.3066  0.1219
  208SOL    HW1  623   1.027   2.660   1.124  0.3178  2.3788  0.3637
  208SOL    HW2  624   0.957   2.509   1.079  1.1399  0.4049  1.9618
  209SOL     OW  625   1.246   1.623   2.701 -0.4162  0.1343 -0.1491
  209SOL    HW1  626   1.324   1.614   2.764 -2.4217  1.5130 -1.7767
  209SOL    HW2  627   1.227   1.525   2.669 -1.9017 -2.2773 -1.5714
  210SOL     OW  628   2.125   0.676   0.836 -0.1085 -0.2149  0.3351
  210SOL    HW1  629   2.179   0.751   0.877 -0.5868  0.0383 -0.0531
  210SOL    HW2  630   2.151   0.674   0.738 -1.4527  1.0903  2.4123
  211SOL     OW  631   0.939   2.653   0.396  0.4302 -0.9865  0.2649
  211SOL    HW1  632   0.997   2.672   0.479  2.9395  3.1621  2.6261
  211SOL    HW2  633   1.003   2.628   0.321 -0.9285 -1.2622 -0.6390
  212SOL     OW  634   2.206   2.005   0.343  0.1152 -0.6406 -0.1547
  212SOL    HW1  635   2.188   1.932   0.272  0.7985 -3.2511  0.6906
  212SOL    HW2  636   2.295   2.049   0.320 -0.2823 -0.8529 -0.0438
  213SOL     OW  637   1.741   0.622   2.883 -0.1125  0.1293  0.2280
  213SOL    HW1  638   1.743   0.700   2.946 -1.0723  1.1937 -1.1563
  213SOL    HW2  639   1.835   0.588   2.859  0.5161 -0.4578 -0.9363
  214SOL     OW  640   1.093   1.834   1.959  0.1323  0.3698  0.1579
  214SOL    HW1  641   1.007   1.886   1.943  0.1624  0.5105 -0.8571
  214SOL    HW2  642   1.139   1.862   2.043  1.1684 -0.8921  0.9504
  215SOL     OW  643   0.614   1.703   0.547 -0.2591 -0.2163  0.0300
  215SOL    HW1  644   0.578   1.634   0.486 -1.1328  1.4790  2.9447
  215SOL    HW2  645   0.546   1.781   0.549  0.4114  0.4532 -0.3668
  216SOL     OW  646   0.073   0.084   2.446 -0.3636  0.2682  0.1994
  216SOL    HW1  647   0.089   3.053   2.464 -0.7861 -2.5743  0.7927
  216SOL    HW2  648   0.053   0.101   2.347  1.4623  0.0961  0.4644
  217SOL     OW  649   2.350   0.629   1.314  0.0276 -0.5987 -0.1346
  217SOL    HW1  650   2.266   0.573   1.302 -0.4748 -0.0480 -1.2311
  217SOL    HW2  651   2.397   0.611   1.401 -0.2665  1.0849 -1.4743
  218SOL     OW  652   1.446   1.752   2.009 -0.1380  0.2613 -0.3619
  218SOL    HW1  653   1.415   1.744   1.913 -1.4648 -2.5593  3.0041
  218SOL    HW2  654   1.391   1.818   2.061  0.7161 -2.0284 -1.5099
  219SOL     OW  655   1.915   1.556   3.052 -0.1061  0.2997  0.7560
  219SOL    HW1  656   1.990   1.495   3.018  0.2293 -0.6045 -2.1122
  219SOL    HW2  657   1.916   1.641   2.995  0.0484 -1.3345  1.1042
  220SOL     OW  658   2.004   0.742   0.343 -0.1650  0.5542  0.3869
  220SOL    HW1  659   1.909   0.776   0.342  2.2894 -1.2052 -1.6075
  220SOL    HW2  660   2.005   0.650   0.300 -0.0721  1.7212  2.6500
  221SOL     OW  661   0.061   0.480   2.826  0.4134 -0.3014 -0.0592
  221SOL    HW1  662   0.121   0.522   2.758  0.3649  1.4870  0.6672
  221SOL    HW2  663   0.028   0.386   2.799 -0.1036 -2.6025 -0.8500
  222SOL     OW  664   1.556   1.807   0.469  0.3513 -0.4925  0.0871
  222SOL    HW1  665   1.631   1.741   0.457 -1.8892 -1.4418  0.7468
  222SOL    HW2  666   1.590   1.907   0.458 -0.0773  1.6686 -0.5612
  223SOL     OW  667   1.014   0.037   0.155  0.3721  0.0541 -0.0076
  223SOL    HW1  668   1.105   0.086   0.158  0.6744 -0.0976  0.3177
  223SOL    HW2  669   0.940   0.109   0.175 -1.0500  4.7106  0.0897
  224SOL     OW  670   1.756   3.007   1.459 -0.1011 -0.1560  0.9421
  224SOL    HW1  671   1.709   2.963   1.384  2.2599  0.1861  0.4838
  224SOL    HW2  672   1.810   0.019   1.428  2.4518 -0.7579  0.8509
  225SOL     OW  673   0.753   2.209   1.198  0.1258  0.1539 -0.3130
  225SOL    HW1  674   0.745   2.281   1.269  0.2642 -0.0425 -1.2084
  225SOL    HW2  675   0.803   2.249   1.121 -0.6828 -0.8811  0.7201
  226SOL     OW  676   1.099   1.581   0.084  0.1004 -0.6230 -0.1564
  226SOL    HW1  677   1.137   1.654   0.022 -0.6498 -1.3608  2.8445
  226SOL    HW2  678   1.137   1.596   0.175  1.4552 -1.5458 -0.0893
  227SOL     OW  679   1.249   1.457   1.330 -0.1633 -0.5029  0.7303
  227SOL    HW1  680   1.225   1.400   1.251 -0.4773  1.8414 -0.0193
  227SOL    HW2  681   1.177   1.532   1.353 -0.5005  3.3510  0.5290
  228SOL     OW  682   0.378   1.873   0.535 -0.1626  0.4337 -0.5916
  228SOL    HW1  683   0.314   1.808   0.583 -3.3541 -3.5912  0.9771
  228SOL    HW2  684   0.329   1.955   0.502  1.2859 -1.3890 -2.0322
  229SOL     OW  685   1.894   0.294   2.677  0.0495  0.1698 -0.0549
  229SOL    HW1  686   1.919   0.266   2.580 -1.0922 -1.4953 -0.1543
  229SOL    HW2  687   1.796   0.291   2.698 -0.8768  0.4568 -0.2848
  230SOL     OW  688   1.670   1.223   2.682 -0.9473  0.0755 -0.2336
  230SOL    HW1  689   1.761   1.236   2.725  1.0986  0.4065 -2.6237
  230SOL    HW2  690   1.638   1.311   2.647 -1.7994  0.0399 -1.9492
  231SOL     OW  691   0.886   1.762   2.549  0.4754 -0.5870 -0.0093
  231SOL    HW1  692   0.874   1.660   2.555  1.2492 -0.3724  0.5745
  231SOL    HW2  693   0.787   1.803   2.544 -4.6482  0.3234 -0.1440
  232SOL     OW  694   2.496   2.177   0.551  0.2551  0.4776  0.0152
  232SOL    HW1  695   2.575   2.126   0.602  1.0163 -0.4059 -0.4266
  232SOL    HW2  696   2.493   2.141   0.456 -2.5291  0.6842  0.8337
  233SOL     OW  697   2.723   2.421   0.487 -0.3000 -0.1078  0.1797
  233SOL    HW1  698   2.769   2.339   0.438 -0.6803  0.7787  0.8898
  233SOL    HW2  699   2.622   2.417   0.479  0.4473 -2.0515 -0.6337
  234SOL     OW  700   0.642   0.466   2.905 -0.4467 -0.0153 -0.2349
  234SOL    HW1  701   0.618   0.391   2.843 -2.5492  1.9245 -0.1350
  234SOL    HW2  702   0.726   0.514   2.882 -0.4774 -1.6392  0.3599
  235SOL     OW  703   2.493   0.216   2.758  0.0732 -0.2270  0.9898
  235SOL    HW1  704   2.537   0.149   2.825 -2.0293  1.9017 -1.8010
  235SOL    HW2  705   2.509   0.182   2.664  2.1533 -0.3646 -1.5567
  236SOL     OW  706   1.994   2.296   1.176  0.1753 -0.1146  0.6150
  236SOL    HW1  707   1.988   2.227   1.255  2.2848 -1.5165  0.1115
  236SOL    HW2  708   2.093   2.316   1.161  2.0086  0.5951  0.6195
  237SOL     OW  709   0.789   1.820   2.146  0.5755  0.3920  0.3145
  237SOL    HW1  710   0.795   1.843   2.047  0.8542  2.3069 -2.6847
  237SOL    HW2  711   0.848   1.882   2.200 -1.6033  2.8616  1.0390
  238SOL     OW  712   1.191   0.095   2.558 -0.1822 -0.1955 -0.2179
  238SOL    HW1  713   1.238   0.025   2.618 -1.1625 -2.2050 -0.2318
  238SOL    HW2  714   1.142   0.062   2.477 -1.9981  0.3973 -3.4235
  239SOL     OW  715   0.404   2.063   1.918 -0.6017 -0.3993 -0.1700
  239SOL    HW1  716   0.481   2.108   1.962 -2.0364 -0.9374 -0.9511
  239SOL    HW2  717   0.376   2.111   1.834  0.1413  0.7341  0.8452
  240SOL     OW  718   2.425   2.423   0.478 -0.0040  0.0357  0.0056
  240SOL    HW1  719   2.345   2.439   0.419  1.4425 -4.4152  0.9617
  240SOL    HW2  720   2.428   2.325   0.504  0.9381 -2.3753  3.2764
  241SOL     OW  721   2.360   0.796   0.993  0.1244 -0.0856  0.1446
  241SOL    HW1  722   2.430   0.733   1.035  0.2678  1.2107  2.6529
  241SOL    HW2  723   2.391   0.891   1.010 -0.9819 -2.5613  1.4412
  242SOL     OW  724   2.246   2.441   2.106  0.1538 -0.0726  0.5182
  242SOL    HW1  725   2.180   2.363   2.085 -1.2200 -0.3527  0.6404
  242SOL    HW2  726   2.290   2.433   2.198 -2.1068 -1.5786 -1.0744
  243SOL     OW  727   0.805   2.374   1.410 -0.5102 -0.1084 -0.4428
  243SOL    HW1  728   0.907   2.366   1.405 -1.3371 -0.1012 -0.5784
  243SOL    HW2  729   0.776   2.471   1.417 -2.9183  0.0312  1.0787
  244SOL     OW  730   1.984   0.515   2.816 -0.2228 -0.0040 -0.0945
  244SOL    HW1  731   1.963   0.443   2.751  2.2873 -1.2433 -1.6575
  244SOL    HW2  732   2.076   0.544   2.811 -4.2409  0.4714 -1.1830
  245SOL     OW  733   1.477   0.086   1.345 -0.5066  0.0088 -0.0183
  245SOL    HW1  734   1.407   0.131   1.285  1.1081 -0.4695  4.0307
  245SOL    HW2  735   1.513   0.003   1.299 -0.1939  1.5604  1.2213
  246SOL     OW  736   1.829   2.783   2.999 -0.3744 -0.2346 -0.6486
  246SOL    HW1  737   1.899   2.727   3.048 -0.3686 -2.5231  1.7306
  246SOL    HW2  738   1.823   2.752   2.908  0.3791 -1.0524  0.9292
  247SOL     OW  739   1.141   0.596   2.267  0.1861 -0.3919  0.1718
  247SOL    HW1  740   1.091   0.556   2.348  0.8627 -0.0386  4.0792
  247SOL    HW2  741   1.234   0.624   2.292  0.1978  1.1733 -1.4892
  248SOL     OW  742   0.556   1.743   1.612 -0.3825 -0.4918 -0.2107
  248SOL    HW1  743   0.583   1.822   1.671  0.8855 -0.5820  0.4852
  248SOL    HW2  744   0.550   1.653   1.659  0.5561 -0.3025  0.6634
  249SOL     OW  745   2.199   0.228   0.714  0.1416  0.0085 -0.6378
  249SOL    HW1  746   2.106   0.189   0.712 -0.0149  2.2655 -0.2922
  249SOL    HW2  747   2.188   0.316   0.763 -0.6084 -0.8245 -1.2083
  250SOL     OW  748   2.852   0.403   2.993  1.0704  0.0949  0.3262
  250SOL    HW1  749   2.854   0.297   2.989 -3.3859 -4.0494  1.3393
  250SOL    HW2  750   2.939   0.443   2.961 -3.2628  0.1236  2.1611
  251SOL     OW  751   1.266   0.695   2.902  0.2039  0.2210  0.4166
  251SOL    HW1  752   1.350   0.689   2.842  1.8773  0.1080  0.0498
  251SOL    HW2  753   1.196   0.752   2.856  1.1300  0.0553 -0.6659
  252SOL     OW  754   1.823   1.929   1.863 -0.0195  0.1387 -0.5078
  252SOL    HW1  755   1.732   1.953   1.901 -2.2698  0.1243 -1.0017
  252SOL    HW2  756   1.896   1.935   1.935 -0.5009  1.3371 -0.0452
  253SOL     OW  757   2.678   2.175   1.152 -0.4646 -0.4498  0.2101
  253SOL    HW1  758   2.759   2.150   1.099 -0.8216  2.6201  2.3098
  253SOL    HW2  759   2.676   2.277   1.163  0.1750  0.9976  1.0300
  254SOL     OW  760   2.684   1.177   1.024  0.2197 -0.2691 -0.2691
  254SOL    HW1  761   2.690   1.255   1.090 -0.2670  0.0979  2.7249
  254SOL    HW2  762   2.747   1.191   0.944  0.5650  1.0007 -3.6828
  255SOL     OW  763   1.304   0.171   0.947 -0.1185 -0.0731 -0.0878
  255SOL    HW1  764   1.222   0.117   0.924 -1.5870 -1.0327  0.2458
  255SOL    HW2  765   1.292   0.271   0.928 -0.8765  4.7299  0.5436
  256SOL     OW  766   1.565   2.238   1.310 -0.0209 -0.0460 -0.0652
  256SOL    HW1  767   1.515   2.322   1.331 -1.9555 -0.9589 -0.0186
  256SOL    HW2  768   1.504   2.164   1.272 -1.8549 -1.5143 -2.5595
  257SOL     OW  769   0.632   2.854   2.537 -0.3416  0.0364 -0.4811
  257SOL    HW1  770   0.701   2.919   2.575  1.1626 -0.3963 -1.5473
  257SOL    HW2  771   0.612   2.877   2.436 -0.1004  1.6692 -0.9807
  258SOL     OW  772   0.922   2.323   0.540 -0.5161  0.0055 -0.1502
  258SOL    HW1  773   0.930   2.407   0.604 -0.8814  1.0637  0.8108
  258SOL    HW2  774   0.927   2.234   0.592  0.9063 -3.2684  0.1171
  259SOL     OW  775   1.572   2.942   2.720  0.4516  0.4451  0.4486
  259SOL    HW1  776   1.625   3.028   2.723  0.1718 -2.9468  0.8451
  259SOL    HW2  777   1.592   2.888   2.642 -0.2360  0.8706  2.4731
  260SOL     OW  778   2.300   0.401   1.555 -0.0684  0.1680 -0.1257
  260SOL    HW1  779   2.232   0.458   1.508  0.7139 -3.5995 -0.2932
  260SOL    HW2  780   2.262   0.305   1.576 -0.6077 -1.6819  0.3699
  261SOL     OW  781   0.666   0.482   2.353  0.2388 -0.1204  0.3528
  261SOL    HW1  782   0.600   0.466   2.280 -2.6242 -1.3073  1.7755
  261SOL    HW2  783   0.717   0.572   2.339  2.2056  2.7277 -0.8087
  262SOL     OW  784   0.410   2.258   2.420  0.0949  0.6521  0.2935
  262SOL    HW1  785   0.314   2.278   2.439  0.1540 -2.8221 -1.5895
  262SOL    HW2  786   0.476   2.331   2.434 -1.7369 -4.4066 -0.6504
  263SOL     OW  787   0.185   1.635   2.631 -0.1430  0.0015 -0.3566
  263SOL    HW1  788   0.096   1.690   2.643 -1.2276 -0.1794  0.6039
  263SOL    HW2  789   0.185   1.611   2.529  0.8806  1.4869 -4.3032
  264SOL     OW  790   1.400   1.139   0.833  0.4176 -0.2709 -0.1918
  264SOL    HW1  791   1.408   1.075   0.754 -1.2210 -1.5475  1.0155
  264SOL    HW2  792   1.337   1.215   0.804  0.7089  0.3891 -3.2964
  265SOL     OW  793   1.434   2.770   0.627 -0.2175  0.5099  0.4674
  265SOL    HW1  794   1.375   2.702   0.579 -2.6505  2.7776 -0.4946
  265SOL    HW2  795   1.513   2.727   0.669 -2.2474  2.5206 -0.2355
  266SOL     OW  796   1.593   0.860   1.373  0.1753  0.3313  0.0371
  266SOL    HW1  797   1.570   0.958   1.385  1.0632 -0.6764 -0.7238
  266SOL    HW2  798   1.684   0.848   1.326  1.1367  1.0752  1.4796
  267SOL     OW  799   2.300   1.265   2.635 -0.0615 -0.1267  0.7219
  267SOL    HW1  800   2.358   1.203   2.579 -1.1746  2.1759 -0.0430
  267SOL    HW2  801   2.251   1.334   2.577 -0.4310  0.6510 -1.2765
  268SOL     OW  802   1.223   0.192   0.066 -0.0443 -0.7878 -0.0186
  268SOL    HW1  803   1.296   0.181   0.135 -2.7805  2.6643  0.1985
  268SOL    HW2  804   1.211   0.297   0.050 -0.5289  3.4328  0.4495
  269SOL     OW  805   2.865   0.734   2.716 -0.4099 -0.7865  0.1483
  269SOL    HW1  806   2.925   0.715   2.627  3.4193  1.3088 -1.8744
  269SOL    HW2  807   2.930   0.719   2.792  2.8416 -1.8293 -2.1437
  270SOL     OW  808   0.237   1.293   0.039 -0.3155  0.4709  0.1045
  270SOL    HW1  809   0.153   1.334   0.074  2.5786 -0.0790 -0.7263
  270SOL    HW2  810   0.292   1.364   3.067 -1.2899 -1.9946  0.8586
  271SOL     OW  811   2.459   0.962   3.029 -0.1728 -0.5004 -0.3779
  271SOL    HW1  812   2.421   0.979   2.935 -1.6161 -1.8536  2.5190
  271SOL    HW2  813   2.482   0.861   3.041  0.6658 -3.0828  2.2473
  272SOL     OW  814   2.939   2.487   2.257 -0.1147 -0.0844 -0.0518
  272SOL    HW1  815   2.890   2.561   2.209 -3.1127 -0.7141 -0.9507
  272SOL    HW2  816   2.933   2.491   2.358 -1.2223 -0.5552 -1.2337
  273SOL     OW  817   0.113   0.195   0.122  0.4744 -0.0571 -0.3685
  273SOL    HW1  818   0.066   0.281   0.131  1.7381  1.8003  0.2417
  273SOL    HW2  819   0.107   0.148   0.213 -3.3517 -1.2216 -0.1420
  274SOL     OW  820   0.954   2.166   0.781 -0.1847  0.1039  0.5926
  274SOL    HW1  821   0.879   2.105   0.816  2.5422  2.4452  2.2247
  274SOL    HW2  822   1.038   2.145   0.837  1.2310 -3.6897  0.6645
  275SOL     OW  823   2.272   0.653   0.590 -0.1812 -0.0121  0.3759
  275SOL    HW1  824   2.355   0.652   0.651 -1.2782  1.3653 -0.1685
  275SOL    HW2  825   2.294   0.632   0.488 -1.2613 -2.5231 -2.3106
  276SOL     OW  826   2.509   1.250   1.364 -0.1920  0.4870 -0.2044
  276SOL    HW1  827   2.432   1.190   1.346  1.5124  0.3534  1.4154
  276SOL    HW2  828   2.489   1.307   1.446  0.7397 -0.9936 -0.7608
  277SOL     OW  829   2.490   0.020   0.890 -0.1956  0.6651  0.0801
  277SOL    HW1  830   2.522   2.996   0.929  0.5322 -0.4744  0.7157
  277SOL    HW2  831   2.548   0.094   0.936  4.3977  3.7831  0.5870
  278SOL     OW  832   1.546   2.801   2.168  0.4049 -0.0034  0.0285
  278SOL    HW1  833   1.532   2.734   2.095  1.8911  1.5185 -3.2514
  278SOL    HW2  834   1.505   2.768   2.257 -2.9827  0.3253  0.9230
  279SOL     OW  835   1.451   2.548   1.034 -0.1985 -0.4477  0.4628
  279SOL    HW1  836   1.551   2.573   1.027  0.5595  1.7416 -0.5124
  279SOL    HW2  837   1.436   2.447   1.015 -1.8486 -0.5462 -1.6571
  280SOL     OW  838   0.509   1.018   0.784  0.3856  0.1502  0.9051
  280SOL    HW1  839   0.440   1.086   0.751 -2.0366 -1.6683  1.3633
  280SOL    HW2  840   0.535   1.044   0.874 -1.4414  0.9521 -2.9351
  281SOL     OW  841   2.372   1.365   2.878  0.2769  0.0245  0.2020
  281SOL    HW1  842   2.359   1.308   2.797  0.6154 -0.6521  0.0005
  281SOL    HW2  843   2.406   1.456   2.851 -2.7613 -0.5652 -3.1098
  282SOL     OW  844   0.438   1.229   0.245 -0.6454  0.2174  0.1355
  282SOL    HW1  845   0.380   1.252   0.167  0.0262 -0.3089  1.4889
  282SOL    HW2  846   0.512   1.166   0.208  2.1990 -2.6157 -1.5007
  283SOL     OW  847   1.797   2.644   2.768  0.1538 -0.1035 -0.5479
  283SOL    HW1  848   1.869   2.684   2.706  1.0479  0.6549 -1.5174
  283SOL    HW2  849   1.748   2.569   2.727  2.3963  2.8828  1.3564
  284SOL     OW  850   0.818   0.190   0.485  0.2230  0.3024 -0.1173
  284SOL    HW1  851   0.840   0.093   0.508 -1.2539 -0.3038 -0.4258
  284SOL    HW2  852   0.903   0.248   0.472 -1.3340 -1.6084  0.8778
  285SOL     OW  853   2.090   1.371   2.507  0.3015 -1.0081  0.2472
  285SOL    HW1  854   2.045   1.387   2.413  1.6515  0.7178 -1.9711
  285SOL    HW2  855   2.025   1.369   2.585 -1.2537  1.1321 -0.9845
  286SOL     OW  856   1.747   2.505   0.896  0.0737 -0.0234  0.0565
  286SOL    HW1  857   1.765   2.451   0.981  1.0699  1.5149  0.8863
  286SOL    HW2  858   1.746   2.448   0.810  0.3615 -1.6911 -1.3564
  287SOL     OW  859   1.485   0.757   1.091 -0.3534 -0.2961  0.3304
  287SOL    HW1  860   1.396   0.791   1.086  4.1685 -1.0317  0.8047
  287SOL    HW2  861   1.543   0.828   1.054 -1.3625 -1.0674 -1.3505
  288SOL     OW  862   0.614   2.611   2.633  0.0894  0.0298  0.1162
  288SOL    HW1  863   0.536   2.593   2.694  2.2592  0.4373  0.0162
  288SOL    HW2  864   0.611   2.708   2.599  1.3653 -0.1435 -0.1127
  289SOL     OW  865   0.158   1.526   0.989 -0.7307  0.5338  0.0299
  289SOL    HW1  866   0.166   1.429   1.022 -0.1890 -0.3413  0.4230
  289SOL    HW2  867   0.065   1.531   0.950  1.3887  0.7257 -0.9252
  290SOL     OW  868   1.268   2.291   0.766 -0.3820  0.2217  0.3388
  290SOL    HW1  869   1.263   2.388   0.793  1.1015  0.2093 -0.3610
  290SOL    HW2  870   1.277   2.289   0.663 -0.5425  3.1947  1.3714
  291SOL     OW  871   1.489   0.032   0.207  0.0669 -0.0085 -0.1384
  291SOL    HW1  872   1.445   0.030   0.297  0.9538 -1.4274 -0.4168
  291SOL    HW2  873   1.584   0.077   0.208  2.3649  1.0813 -1.3987
  292SOL     OW  874   0.473   0.439   2.171 -0.5245  0.0361 -0.3056
  292SOL    HW1  875   0.400   0.392   2.226  1.7948  3.0464  0.6235
  292SOL    HW2  876   0.432   0.504   2.098 -0.9995  2.6035 -3.1926
  293SOL     OW  877   2.846   1.719   0.972  0.1738  1.0217 -0.0863
  293SOL    HW1  878   2.756   1.754   0.933 -1.4374  3.3057 -1.9928
  293SOL    HW2  879   2.834   1.717   1.073  0.1493  0.3665 -1.1374
  294SOL     OW  880   0.827   0.165   2.204 -0.2713 -0.2776 -0.4309
  294SOL    HW1  881   0.733   0.143   2.233 -0.5842 -0.4444 -1.4991
  294SOL    HW2  882   0.862   0.089   2.142  0.6906  1.0318  0.6546
  295SOL     OW  883   1.259   1.781   0.903  0.1298  0.1689 -0.2709
  295SOL    HW1  884   1.321   1.730   0.962 -1.1788  2.9339 -2.3513
  295SOL    HW2  885   1.164   1.758   0.924 -1.3405  0.0024 -1.2468
  296SOL     OW  886   2.465   1.795   0.326  0.8185  0.7407 -0.5405
  296SOL    HW1  887   2.362   1.788   0.322 -2.1586 -1.3235  2.2093
  296SOL    HW2  888   2.512   1.724   0.270 -2.1730 -2.0486  2.6278
  297SOL     OW  889   2.562   0.142   0.152  0.2671 -0.1877  0.1289
  297SOL    HW1  890   2.632   0.099   0.212 -0.4590 -1.5651 -0.9892
  297SOL    HW2  891   2.561   0.097   0.058 -0.9024 -0.7001  2.6985
  298SOL     OW  892   0.967   0.400   2.843  0.1203 -0.2212 -0.0532
  298SOL    HW1  893   0.948   0.348   2.752 -1.8276  0.9882 -2.4683
  298SOL    HW2  894   0.939   0.495   2.825 -0.8872 -2.0393  0.0684
  299SOL     OW  895   0.567   2.490   2.405  0.0963  0.3412 -0.2109
  299SOL    HW1  896   0.519   2.560   2.356  1.1677  0.3589 -1.9776
  299SOL    HW2  897   0.583   2.523   2.502 -0.1842  0.6923  3.2162
  300SOL     OW  898   2.775   0.006   2.277  0.2709  0.3644  0.4019
  300SOL    HW1  899   2.680   3.059   2.238 -1.8213  2.1294 -0.4169
  300SOL    HW2  900   2.839   0.068   2.226  0.3294 -1.7407 -0.1765
  301SOL     OW  901   1.368   0.212   1.679  0.0256 -0.0910  0.0649
  301SOL    HW1  902   1.327   0.301   1.653 -0.8974 -0.4713  2.0081
  301SOL    HW2  903   1.455   0.188   1.630  0.6380 -0.1443 -1.5706
  302SOL     OW  904   0.015   2.318   0.063 -0.2250 -0.0693 -0.1395
  302SOL    HW1  905   0.058   2.261   0.137 -0.6856 -1.8588 -0.9639
  302SOL    HW2  906   0.079   2.365   0.003 -1.3032  1.9061 -2.1554
  303SOL     OW  907   2.004   2.139   1.433 -0.8178 -0.7521  0.1455
  303SOL    HW1  908   1.945   2.136   1.514  0.3333 -1.5656 -1.6277
  303SOL    HW2  909   2.073   2.214   1.442  1.0010  3.4008 -1.1433
  304SOL     OW  910   2.710   0.871   1.412 -0.2181 -0.2172  0.2771
  304SOL    HW1  911   2.712   0.809   1.331 -0.3926  2.0216 -0.1783
  304SOL    HW2  912   2.751   0.830   1.494 -0.2271  0.9814 -0.4387
  305SOL     OW  913   0.494   1.489   0.742  0.7759  0.5967 -0.3133
  305SOL    HW1  914   0.584   1.477   0.782 -0.0855 -0.9733  0.7105
  305SOL    HW2  915   0.440   1.574   0.772 -0.4825  0.6645  1.2974
  306SOL     OW  916   0.545   1.431   2.608 -0.1337  0.2443  0.6202
  306SOL    HW1  917   0.461   1.464   2.650 -1.0294  0.2140 -1.0127
  306SOL    HW2  918   0.532   1.344   2.560 -2.9693 -0.3837 -0.2945
  307SOL     OW  919   1.073   0.028   1.390 -0.4932  0.2788  0.2489
  307SOL    HW1  920   1.112   0.047   1.482 -0.6562 -0.0238 -3.2240
  307SOL    HW2  921   1.101   2.999   1.356 -0.1067 -1.2819  1.3867
  308SOL     OW  922   0.179   0.863   1.047  0.1508  0.3054  0.0705
  308SOL    HW1  923   0.100   0.876   0.989 -1.4984  1.8792  2.7536
  308SOL    HW2  924   0.230   0.778   1.016  0.1319 -0.7193 -1.0173
  309SOL     OW  925   2.428   1.075   0.982 -0.0452  0.0602  0.0291
  309SOL    HW1  926   2.403   1.066   0.885 -2.1773 -0.0919 -0.4408
  309SOL    HW2  927   2.523   1.108   1.007  2.8575 -2.5323  1.7010
  310SOL     OW  928   0.344   1.900   2.721 -0.4978  0.8424  0.0395
  310SOL    HW1  929   0.403   1.818   2.732 -0.3631  2.1435  0.0230
  310SOL    HW2  930   0.308   1.905   2.623 -2.4190  3.3171 -1.8317
  311SOL     OW  931   2.618   2.496   2.435  0.0993  0.4790 -0.0535
  311SOL    HW1  932   2.585   2.530   2.341 -2.9268  1.2887 -0.7631
  311SOL    HW2  933   2.658   2.584   2.477  0.7408  1.7318  0.6720
  312SOL     OW  934   2.157   1.907   2.933  0.1102  0.5471  0.1100
  312SOL    HW1  935   2.228   1.848   2.970  0.1833  2.7488  0.0696
  312SOL    HW2  936   2.199   1.997   2.935  0.9807  0.8756 -0.9389
  313SOL     OW  937   0.330   0.222   0.392  0.7451 -0.2737  0.6858
  313SOL    HW1  938   0.382   0.136   0.402 -1.0242 -1.6917  0.8247
  313SOL    HW2  939   0.243   0.227   0.450 -1.7634  1.2657  3.6079
  314SOL     OW  940   1.952   1.069   2.783 -0.3151 -0.0200 -0.0936
  314SOL    HW1  941   1.906   1.058   2.871 -2.2194  0.4867 -2.2888
  314SOL    HW2  942   1.976   1.167   2.767  1.0940  2.8288  1.4318
  315SOL     OW  943   1.482   0.079   2.515  0.3457 -0.1364  0.0449
  315SOL    HW1  944   1.411   0.142   2.556 -0.8668 -0.8156 -1.9555
  315SOL    HW2  945   1.532   0.132   2.443  3.4644  0.8373 -0.9072
  316SOL     OW  946   2.973   1.069   0.621  0.3830  0.1451 -0.4242
  316SOL    HW1  947   2.883   1.021   0.642 -0.3055 -1.7449  0.4856
  316SOL    HW2  948   3.051   1.017   0.666  0.1904 -0.4713 -2.5592
  317SOL     OW  949   0.533   2.686   2.924 -0.0732 -0.4675  0.0291
  317SOL    HW1  950   0.513   2.708   3.023  0.8125  1.0791  0.1365
  317SOL    HW2  951   0.619   2.735   2.902 -0.9516 -0.5609  2.9350
  318SOL     OW  952   2.518   2.441   0.933  0.3451 -0.3717 -0.1620
  318SOL    HW1  953   2.508   2.512   0.861 -2.5762 -2.2132  0.5083
  318SOL    HW2  954   2.466   2.356   0.899  1.1602 -0.9114 -1.7180
  319SOL     OW  955   1.069   2.071   2.716  0.1090 -0.1074 -0.0662
  319SOL    HW1  956   1.138   2.065   2.644  0.7714  1.1998  1.1595
  319SOL    HW2  957   1.037   1.975   2.748  0.3315 -0.4461 -0.4813
  320SOL     OW  958   0.524   1.841   1.304  0.6509  0.2179 -0.1826
  320SOL    HW1  959   0.498   1.757   1.254  0.3347 -3.0987  1.8137
  320SOL    HW2  960   0.481   1.848   1.397 -1.0319  0.0077 -0.9757
  321SOL     OW  961   1.013   2.654   2.027 -0.1357 -0.0559 -0.1353
  321SOL    HW1  962   0.915   2.625   2.033  1.5346 -2.6330  2.0808
  321SOL    HW2  963   1.030   2.734   1.965  2.4713 -1.3351  0.0764
  322SOL     OW  964   2.430   1.691   1.949  0.0282 -0.0159  0.0726
  322SOL    HW1  965   2.434   1.615   2.018  0.4527 -1.5219  1.0331
  322SOL    HW2  966   2.493   1.768   1.977 -1.6134  0.5283 -0.9185
  323SOL     OW  967   2.786   0.504   0.982  0.2119 -0.5094  0.3557
  323SOL    HW1  968   2.741   0.570   0.917 -1.6323  1.5315 -1.4265
  323SOL    HW2  969   2.887   0.530   0.992 -1.3085 -0.1818 -1.6650
  324SOL     OW  970   2.730   2.721   2.545  0.2378 -0.1719 -0.2811
  324SOL    HW1  971   2.748   2.772   2.628 -0.8470  0.5888  0.0697
  324SOL    HW2  972   2.781   2.765   2.466  1.2859 -1.0431 -0.3773
  325SOL     OW  973   0.946   0.274   2.617  0.2635 -0.3020 -0.4514
  325SOL    HW1  974   1.034   0.233   2.589 -0.4920  1.2526  0.6368
  325SOL    HW2  975   0.875   0.223   2.576  4.0138 -1.4021 -0.7341
  326SOL     OW  976   2.234   2.410   1.715  0.2151 -0.0472 -0.4192
  326SOL    HW1  977   2.255   2.509   1.712  0.8952 -1.4755  0.7623
  326SOL    HW2  978   2.149   2.384   1.760 -1.2740 -2.3684 -1.1285
  327SOL     OW  979   1.985   0.089   0.315  0.3045  0.0116 -0.2007
  327SOL    HW1  980   2.048   0.165   0.344 -0.9852  2.1536  1.0872
  327SOL    HW2  981   2.001   0.039   0.229 -1.6532 -0.3718 -0.3323
  328SOL     OW  982   0.338   1.330   1.887  0.6217  0.4674 -0.3057
  328SOL    HW1  983   0.411   1.359   1.953 -2.7708 -0.6368 -3.0069
  328SOL    HW2  984   0.248   1.373   1.897 -1.8827  0.0237 -2.2001
  329SOL     OW  985   2.113   0.485   1.823 -0.0949 -0.2177 -0.5757
  329SOL    HW1  986   2.021   0.494   1.870  0.6237 -0.6077  1.9985
  329SOL    HW2  987   2.167   0.573   1.812  0.3099  0.5380 -0.0613
  330SOL     OW  988   0.088   1.142   0.861 -0.0862  0.6158 -0.0575
  330SOL    HW1  989   0.033   1.055   0.863 -0.2739  0.8664 -1.2713
  330SOL    HW2  990   0.093   1.182   0.952 -1.0838 -1.4333 -3.0790
  331SOL     OW  991   0.638   1.364   1.986 -0.2252  0.2734 -0.6355
  331SOL    HW1  992   0.726   1.396   1.951 -0.8396  0.7434  2.7029
  331SOL    HW2  993   0.641   1.373   2.087 -0.8063 -1.7584  0.4373
  332SOL     OW  994   0.144   2.637   1.540 -0.4923  0.2421 -0.0887
  332SOL    HW1  995   0.149   2.729   1.499  2.0427 -1.3063  0.5660
  332SOL    HW2  996   0.173   2.563   1.477  0.9305  0.8304 -1.6519
  333SOL     OW  997   2.433   0.203   1.144  0.6233 -0.0805  0.1082
  333SOL    HW1  998   2.493   0.255   1.209 -0.8411  0.6917  1.2374
  333SOL    HW2  999   2.418   0.109   1.186  1.1428 -2.4693  0.0861
  334SOL     OW 1000   0.230   1.490   0.611 -0.1183 -0.1459 -0.3588
  334SOL    HW1 1001   0.230   1.410   0.552  1.5946  1.6032  1.4286
  334SOL    HW2 1002   0.294   1.476   0.688  0.8600 -1.7437  0.8669
  335SOL     OW 1003   0.107   2.600   2.908  0.0031 -0.4055  0.4297
  335SOL    HW1 1004   0.076   2.645   2.822 -1.6174 -1.8121 -1.4297
  335SOL    HW2 1005   0.174   2.526   2.883 -1.7184 -2.9051  1.0629
  336SOL     OW 1006   2.874   2.848   2.365  0.7580  0.7604 -0.3502
  336SOL    HW1 1007   2.972   2.855   2.386 -2.6293  0.7329 -0.9089
  336SOL    HW2 1008   2.844   2.940   2.340 -0.4342 -1.0939  0.7223
  337SOL     OW 1009   1.984   2.342   1.814  0.4643 -0.4212  0.1601
  337SOL    HW1 1010   1.956   2.266   1.755  1.7779  1.0585  0.5330
  337SOL    HW2 1011   1.909   2.408   1.823  1.9909  1.1728 -1.0142
  338SOL     OW 1012   0.774   0.051   2.885  0.2321 -0.3644  0.0007
  338SOL    HW1 1013   0.710   0.083   2.956 -0.0640  0.1470 -0.9337
  338SOL    HW2 1014   0.862   0.095   2.903 -0.9791 -0.9547 -0.0589
  339SOL     OW 1015   0.592   1.091   1.988 -0.1005 -0.0598 -0.1638
  339SOL    HW1 1016   0.544   1.118   2.075 -0.6711 -1.3991 -0.1193
  339SOL    HW2 1017   0.610   1.175   1.930  1.5407 -0.2956 -0.0123
  340SOL     OW 1018   1.681   2.962   0.912 -0.2903 -0.3512  0.2648
  340SOL    HW1 1019   1.775   2.939   0.941  0.6512  0.0369  0.9784
  340SOL    HW2 1020   1.674   3.005   0.819 -0.8989 -0.5780 -0.7375
  341SOL     OW 1021   1.818   1.036   0.836 -0.4532 -0.0470  0.2099
  341SOL    HW1 1022   1.916   1.059   0.820  2.2052 -0.4267  0.2982
  341SOL    HW2 1023   1.756   1.119   0.829 -1.1387  1.8833 -0.2500
  342SOL     OW 1024   2.480   2.884   0.164  0.1536  0.2004 -0.7083
  342SOL    HW1 1025   2.397   2.893   0.229 -1.0349  0.4120  3.9200
  342SOL    HW2 1026   2.550   2.820   0.202  0.4426 -0.4789  0.7719
  343SOL     OW 1027   0.834   2.186   1.606 -0.0711  0.1547 -0.3660
  343SOL    HW1 1028   0.884   2.217   1.690  0.3078  3.6213  1.0258
  343SOL    HW2 1029   0.834   2.258   1.531 -1.5691  1.9831  0.5420
  344SOL     OW 1030   2.469   2.582   1.352 -0.0939 -0.1457  0.0472
  344SOL    HW1 1031   2.456   2.664   1.413 -0.3375  0.1189 -0.3267
  344SOL    HW2 1032   2.479   2.501   1.409 -3.2096 -1.2577  0.2284
  345SOL     OW 1033   2.653   1.871   3.026 -0.0600  0.1624 -0.1203
  345SOL    HW1 1034   2.684   1.903   2.934  1.7701 -1.3750 -2.6528
  345SOL    HW2 1035   2.718   1.809   0.005 -2.2362 -0.0592 -0.6234
  346SOL     OW 1036   2.254   2.015   0.653  0.3443  0.3127 -0.5687
  346SOL    HW1 1037   2.172   2.075   0.675  0.5702 -1.8863  2.6633
  346SOL    HW2 1038   2.261   2.017   0.548  0.9106  1.2786 -3.3978
  347SOL     OW 1039   1.677   1.829   1.018 -0.2118  0.0598  0.0838
  347SOL    HW1 1040   1.684   1.878   0.927 -0.1469 -3.3579 -1.0220
  347SOL    HW2 1041   1.597   1.858   1.076 -1.4074  0.8821 -1.0035
  348SOL     OW 1042   0.559   1.701   2.217 -0.0180 -0.8027 -0.8786
  348SOL    HW1 1043   0.553   1.607   2.259  1.3119 -0.8213  0.5915
  348SOL    HW2 1044   0.659   1.727   2.218  0.7152  0.4660  1.2786
  349SOL     OW 1045   2.055   1.578   0.717 -0.1623  0.8114 -0.2346
  349SOL    HW1 1046   2.102   1.652   0.767  0.7628 -1.8553 -1.7614
  349SOL    HW2 1047   2.047   1.496   0.778 -0.0271  0.6361  0.2707
  350SOL     OW 1048   2.860   2.558   0.672  0.5786  0.3608  0.0668
  350SOL    HW1 1049   2.862   2.505   0.764  0.4291  0.0439  1.2803
  350SOL    HW2 1050   2.805   2.510   0.604  0.3104  1.4147 -0.3345
  351SOL     OW 1051   0.388   2.901   1.549 -0.2437 -0.4093  0.1382
  351SOL    HW1 1052   0.412   2.816   1.499  0.0013  0.1412 -0.1012
  351SOL    HW2 1053   0.292   2.917   1.517  1.2188 -0.5970  0.2218
  352SOL     OW 1054   0.412   1.363   1.209 -0.1145  0.3055 -0.1492
  352SOL    HW1 1055   0.328   1.375   1.259  0.5522 -2.2990 -1.3132
  352SOL    HW2 1056   0.464   1.288   1.254  0.0099  4.6205  0.1694
  353SOL     OW 1057   1.163   1.387   2.503  0.2101 -0.3229 -0.2385
  353SOL    HW1 1058   1.094   1.323   2.537  2.3691  0.4688 -1.8394
  353SOL    HW2 1059   1.256   1.361   2.526 -2.4186  3.6612  1.0364
  354SOL     OW 1060   1.605   3.040   1.837 -0.4665 -0.0705  0.1358
  354SOL    HW1 1061   1.605   0.028   1.749 -0.0280  1.7424 -1.0314
  354SOL    HW2 1062   1.698   3.035   1.878  2.4017  1.7994  0.4991
  355SOL     OW 1063   2.339   1.223   0.602 -0.9535  0.0274  0.2334
  355SOL    HW1 1064   2.393   1.279   0.673  0.8433  0.2057  0.6268
  355SOL    HW2 1065   2.318   1.281   0.519  1.6731  0.1473 -1.4258
  356SOL     OW 1066   2.847   1.611   1.561  0.2373  0.1864  0.3382
  356SOL    HW1 1067   2.774   1.677   1.588 -0.2332  1.8688 -2.0350
  356SOL    HW2 1068   2.934   1.663   1.555 -0.3466  1.3042  0.1169
  357SOL     OW 1069   0.413   2.673   1.367 -0.1908  0.1005 -0.2085
  357SOL    HW1 1070   0.330   2.610   1.369  1.5309  1.9179 -0.2996
  357SOL    HW2 1071   0.423   2.726   1.277 -0.1065  1.7417 -0.3658
  358SOL     OW 1072   2.787   1.375   1.743  1.0223  0.1865 -0.0746
  358SOL    HW1 1073   2.803   1.284   1.696 -2.2914 -2.9827 -1.4660
  358SOL    HW2 1074   2.743   1.446   1.683 -1.3167 -1.2149  1.9017
  359SOL     OW 1075   2.244   2.773   2.626  0.0494 -0.5546 -0.2616
  359SOL    HW1 1076   2.249   2.745   2.527  1.2087 -1.7656 -2.8303
  359SOL    HW2 1077   2.148   2.783   2.663  3.1408 -0.2431  0.3971
  360SOL     OW 1078   0.682   0.412   0.933 -0.1367  0.3104 -0.0301
  360SOL    HW1 1079   0.756   0.421   1.005  0.4345  2.3097 -0.1629
  360SOL    HW2 1080   0.727   0.426   0.842  0.7778 -0.2850 -1.2517
  361SOL     OW 1081   1.883   0.314   0.743 -0.2211 -0.9075  0.0550
  361SOL    HW1 1082   1.894   0.217   0.765 -0.5273  1.1865  2.3744
  361SOL    HW2 1083   1.951   0.370   0.796  0.8572  0.0867  0.4287
  362SOL     OW 1084   1.853   1.183   1.104  0.7307 -0.0764 -1.0647
  362SOL    HW1 1085   1.913   1.182   1.020 -0.0493  0.4082  0.3137
  362SOL    HW2 1086   1.913   1.189   1.187 -1.9636  3.3966  1.6148
  363SOL     OW 1087   2.193   1.473   2.014  0.5674  0.1970  0.1739
  363SOL    HW1 1088   2.280   1.488   2.062 -1.2578  0.1942 -0.5443
  363SOL    HW2 1089   2.197   1.384   1.973 -1.2618  2.9414  2.1855
  364SOL     OW 1090   0.337   0.036   1.224  0.1541 -0.7836 -0.0377
  364SOL    HW1 1091   0.298   0.073   1.308  2.2451 -0.8427 -0.7241
  364SOL    HW2 1092   0.276   0.038   1.141  0.3175 -1.3209 -3.2495
  365SOL     OW 1093   0.438   0.023   2.926  0.8094 -0.4979 -0.2681
  365SOL    HW1 1094   0.336   0.026   2.940 -0.3109  0.0790  1.8140
  365SOL    HW2 1095   0.493   0.094   2.977  0.6080  0.8491  2.1525
  366SOL     OW 1096   2.106   2.358   2.992 -0.0711 -0.0003  0.2709
  366SOL    HW1 1097   2.120   2.423   2.914 -1.0205  0.7329  0.2486
  366SOL    HW2 1098   2.157   2.391   0.004 -2.6958 -0.6316 -1.0938
  367SOL     OW 1099   2.734   2.418   2.948 -0.4592  0.5157  0.9803
  367SOL    HW1 1100   2.639   2.443   2.975  0.5717  0.3088 -1.1819
  367SOL    HW2 1101   2.790   2.401   3.031  1.6716 -0.9338 -0.5394
  368SOL     OW 1102   0.086   1.266   1.115  0.0593 -0.0337 -0.0899
  368SOL    HW1 1103   3.063   1.316   1.142 -2.9253  0.1461 -0.5686
  368SOL    HW2 1104   0.133   1.234   1.200 -1.7848  2.1115  1.1797
  369SOL     OW 1105   0.731   2.856   2.942 -0.2879 -0.6936  0.3743
  369SOL    HW1 1106   0.815   2.814   2.985 -2.1830 -0.0845  1.2671
  369SOL    HW2 1107   0.737   2.954   2.915 -0.8232  1.9192  0.3697
  370SOL     OW 1108   2.761   0.717   0.480 -0.0956 -0.4601 -0.7517
  370SOL    HW1 1109   2.853   0.704   0.440 -2.6607 -0.0553  0.8748
  370SOL    HW2 1110   2.706   0.782   0.420 -0.4379 -0.6197 -0.3584
  371SOL     OW 1111   1.729   2.354   0.654 -0.1658 -0.1671 -0.6536
  371SOL    HW1 1112   1.698   2.284   0.721  1.2657  0.6113 -0.3190
  371SOL    HW2 1113   1.670   2.350   0.575 -0.4087 -1.1661  3.6693
  372SOL     OW 1114   3.036   0.996   2.822 -0.0467  0.5013  0.3581
  372SOL    HW1 1115   3.045   0.898   2.854 -0.3497 -0.4309 -1.6127
  372SOL    HW2 1116   3.006   1.002   2.721  0.2219  0.0311 -1.7591
  373SOL     OW 1117   2.867   1.720   1.250  0.8009 -0.6743  0.0140
  373SOL    HW1 1118   2.914   1.686   1.330  0.4418  1.5412 -1.2416
  373SOL    HW2 1119   2.762   1.712   1.265 -1.6600 -0.0211  1.4827
  374SOL     OW 1120   0.598   2.768   0.213 -0.3297  0.2152 -0.4028
  374SOL    HW1 1121   0.534   2.807   0.145  1.1069  0.2875  3.8205
  374SOL    HW2 1122   0.691   2.811   0.212 -0.0373 -1.0602  0.5092
  375SOL     OW 1123   0.380   0.345   0.088 -0.5404 -0.6400  0.2821
  375SOL    HW1 1124   0.348   0.431   0.131  1.0203  0.9212  1.8869
  375SOL    HW2 1125   0.309   0.271   0.089  1.8652 -1.6557 -1.1853
  376SOL     OW 1126   0.162   2.087   1.553  0.0948  0.2601  0.5822
  376SOL    HW1 1127   0.062   2.095   1.578 -1.4291  0.1038  0.7762
  376SOL    HW2 1128   0.173   2.147   1.469  1.0681 -0.0422 -0.8165
  377SOL     OW 1129   1.721   2.427   2.592  0.3440 -0.1553 -0.3735
  377SOL    HW1 1130   1.781   2.345   2.605  0.8950 -0.9306 -0.3451
  377SOL    HW2 1131   1.636   2.410   2.533  0.5791 -1.5381 -0.6403
  378SOL     OW 1132   0.696   0.449   0.109  0.3980  0.6852 -0.5057
  378SOL    HW1 1133   0.657   0.433   0.011 -0.0802 -2.7470 -1.7553
  378SOL    HW2 1134   0.738   0.540   0.120  0.4512 -1.1749  0.6316
  379SOL     OW 1135   0.563   1.046   0.511 -0.0212  0.4085  0.1373
  379SOL    HW1 1136   0.557   1.031   0.613 -0.6561  2.6046 -3.3175
  379SOL    HW2 1137   0.593   1.147   0.497  1.7899 -1.1733 -0.7227
  380SOL     OW 1138   0.112   1.809   1.795  0.0583  0.0427  0.1084
  380SOL    HW1 1139   0.181   1.750   1.747  1.9651 -0.0487 -2.4197
  380SOL    HW2 1140   0.157   1.842   1.880  0.9043 -1.0559  4.6402
  381SOL     OW 1141   0.415   0.895   1.894 -0.8490 -0.4984 -0.1496
  381SOL    HW1 1142   0.473   0.975   1.927  0.1113 -2.1446 -1.2366
  381SOL    HW2 1143   0.466   0.804   1.896  2.2465  1.2374 -0.7952
  382SOL     OW 1144   2.484   2.053   0.310  0.7439 -0.1229  0.5472
  382SOL    HW1 1145   2.461   1.954   0.309 -0.7884  0.2513 -2.3947
  382SOL    HW2 1146   2.525   2.072   0.216  0.4867  2.8794 -1.6712
  383SOL     OW 1147   2.749   1.943   2.800 -0.2711  0.1185  0.5411
  383SOL    HW1 1148   2.835   1.897   2.829 -1.1166 -0.2772  0.8337
  383SOL    HW2 1149   2.769   2.043   2.808  0.6491 -1.3739 -0.8673
  384SOL     OW 1150   0.437   2.315   2.711 -0.4737  0.2735  0.0809
  384SOL    HW1 1151   0.353   2.284   2.665  4.1428 -1.0789 -0.4012
  384SOL    HW2 1152   0.505   2.237   2.729  0.7898  0.2166  1.0464
  385SOL     OW 1153   2.983   1.496   0.868  0.0203  0.1764 -0.4825
  385SOL    HW1 1154   2.929   1.577   0.895  0.1327  1.3115  2.1014
  385SOL    HW2 1155   2.935   1.407   0.862 -0.6117 -1.7481 -1.7933
  386SOL     OW 1156   2.017   1.495   1.348  0.7068  0.0469 -0.1417
  386SOL    HW1 1157   1.926   1.516   1.304  0.3226  0.4017 -0.3320
  386SOL    HW2 1158   2.086   1.565   1.315 -1.5296  1.5668 -0.0813
  387SOL     OW 1159   2.782   1.204   2.010  0.0358  0.2610 -0.1716
  387SOL    HW1 1160   2.719   1.133   1.975 -3.1750 -0.4520  1.0905
  387SOL    HW2 1161   2.810   1.273   1.941  0.2620  0.0542  3.0353
  388SOL     OW 1162   2.657   1.340   2.191 -0.3406 -0.0522 -0.1652
  388SOL    HW1 1163   2.650   1.285   2.273 -1.2591  3.3928  0.5642
  388SOL    HW2 1164   2.683   1.282   2.113 -2.3318  1.5960  1.3189
  389SOL     OW 1165   2.148   1.224   1.907 -0.0500  0.9233 -0.0572
  389SOL    HW1 1166   2.046   1.207   1.918  0.1172 -2.1130  1.4321
  389SOL    HW2 1167   2.201   1.146   1.949 -0.0880  0.3750  2.4627
  390SOL     OW 1168   1.873   2.723   0.549  0.1906 -0.3883 -0.8210
  390SOL    HW1 1169   1.934   2.645   0.578  0.5143  3.3541 -0.7993
  390SOL    HW2 1170   1.794   2.736   0.618  0.1069  0.3310  0.3171
  391SOL     OW 1171   2.482   1.924   1.083  0.1173 -0.0797 -0.1396
  391SOL    HW1 1172   2.384   1.937   1.109 -0.2774 -0.0837 -1.6346
  391SOL    HW2 1173   2.518   2.009   1.039  0.1527 -0.7109  1.5980
  392SOL     OW 1174   3.027   2.680   1.126  0.5119  0.2040  0.4963
  392SOL    HW1 1175   0.044   2.663   1.073  0.5006  1.2683 -1.0201
  392SOL    HW2 1176   3.037   2.768   1.173  1.2759  1.6986  0.5498
  393SOL     OW 1177   1.853   2.178   2.681 -0.0939  0.1726  0.8826
  393SOL    HW1 1178   1.951   2.191   2.698  0.7001 -0.9011 -0.4799
  393SOL    HW2 1179   1.823   2.078   2.670 -0.5329 -1.7466  1.8513
  394SOL     OW 1180   0.233   0.308   2.512  0.2158 -0.2240  0.0493
  394SOL    HW1 1181   0.174   0.231   2.534  0.8921  0.6523 -2.5325
  394SOL    HW2 1182   0.305   0.338   2.581  2.5649  0.8175 -1.5378
  395SOL     OW 1183   0.783   0.683   0.815 -0.1408  0.2085 -0.4752
  395SOL    HW1 1184   0.864   0.622   0.808 -0.4509 -0.8848  0.2794
  395SOL    HW2 1185   0.752   0.699   0.912 -0.4919  0.9981  3.7869
  396SOL     OW 1186   1.245   1.021   0.456  0.5249 -0.2722  0.3148
  396SOL    HW1 1187   1.156   1.068   0.480 -1.4860  1.4357 -2.8008
  396SOL    HW2 1188   1.231   0.942   0.393 -0.0796 -0.2728  0.9262
  397SOL     OW 1189   0.216   0.874   2.065 -0.1089 -0.0354  1.1186
  397SOL    HW1 1190   0.306   0.876   2.010  0.5462  2.5272 -1.2762
  397SOL    HW2 1191   0.139   0.858   2.001  2.7021  1.7388 -0.4765
  398SOL     OW 1192   0.733   0.406   0.650 -0.4160  0.3845  0.5069
  398SOL    HW1 1193   0.634   0.416   0.675  3.2206 -1.9601  0.0229
  398SOL    HW2 1194   0.749   0.323   0.591  0.5841  0.1031  0.6247
  399SOL     OW 1195   1.847   2.788   1.627  0.1177  0.6478 -0.3138
  399SOL    HW1 1196   1.815   2.774   1.724  0.4912 -1.3179  0.8588
  399SOL    HW2 1197   1.812   2.869   1.579 -0.8373 -0.3523  1.7438
  400SOL     OW 1198   0.993   1.591   2.107 -0.7986  0.4480  0.1805
  400SOL    HW1 1199   0.968   1.686   2.128  0.4113 -2.6875 -1.7570
  400SOL    HW2 1200   1.089   1.582   2.082 -1.2234  1.1067  0.6498
  401SOL     OW 1201   0.563   0.779   2.637  0.3194 -0.4577  0.2970
  401SOL    HW1 1202   0.542   0.678   2.645 -1.8916 -1.3041 -0.6136
  401SOL    HW2 1203   0.485   0.831   2.680 -0.0568  0.8335  1.0923
  402SOL     OW 1204   2.900   1.992   1.215 -0.3590  0.4362  0.5482
  402SOL    HW1 1205   2.832   2.033   1.283 -2.1398  0.1637  0.2235
  402SOL    HW2 1206   2.918   1.894   1.222 -0.8587  3.1807 -0.7187
  403SOL     OW 1207   0.011   0.843   1.894 -0.9094  0.3971  0.4314
  403SOL    HW1 1208   0.039   0.815   1.800  0.8974 -0.6528  1.9573
  403SOL    HW2 1209   3.018   0.925   1.889 -0.8710  1.3900  1.0482
  404SOL     OW 1210   3.063   2.568   1.768  0.4865 -0.1481 -0.2415
  404SOL    HW1 1211   0.062   2.589   1.690  2.5841  0.2734 -2.1823
  404SOL    HW2 1212   2.971   2.547   1.736 -0.0144 -0.3121  0.8316
  405SOL     OW 1213   0.589   0.431   1.862 -0.3690  0.0269  0.1351
  405SOL    HW1 1214   0.689   0.407   1.852  1.6055  1.1667  1.7898
  405SOL    HW2 1215   0.567   0.440   1.963 -1.1099  1.1861 -0.2820
  406SOL     OW 1216   1.685   2.000   2.318  0.0002  0.3967 -0.5622
  406SOL    HW1 1217   1.745   2.053   2.259 -0.2713 -1.2262  0.1578
  406SOL    HW2 1218   1.687   1.901   2.283 -0.2449 -1.7540 -0.5905
  407SOL     OW 1219   1.248   1.585   2.310  0.0329  0.6190 -0.2289
  407SOL    HW1 1220   1.232   1.562   2.211 -0.5171 -1.7769  1.6099
  407SOL    HW2 1221   1.225   1.506   2.370  0.0403  2.1361 -2.5402
  408SOL     OW 1222   1.103   0.110   2.271  0.0399 -0.4820  0.4555
  408SOL    HW1 1223   1.007   0.139   2.285 -2.1759  1.2064 -1.0497
  408SOL    HW2 1224   1.120   0.012   2.292 -0.4382 -0.0777 -0.0030
  409SOL     OW 1225   0.489   2.100   0.181 -0.5469 -0.3100  0.1846
  409SOL    HW1 1226   0.512   2.022   0.121 -1.7645  1.0024  1.2353
  409SOL    HW2 1227   0.567   2.101   0.253  1.0573  3.0376  2.1482
  410SOL     OW 1228   2.805   1.308   0.407  0.2083  0.1031  0.2412
  410SOL    HW1 1229   2.901   1.287   0.439  0.6021 -1.5577  1.5337
  410SOL    HW2 1230   2.791   1.305   0.308 -0.9005 -0.3481 -2.4744
  411SOL     OW 1231   2.667   0.207   0.951  0.0245  0.1814 -0.6763
  411SOL    HW1 1232   2.695   0.306   0.968 -0.0685  0.3706 -0.1113
  411SOL    HW2 1233   2.694   0.179   0.859 -1.3324 -0.9132  1.2556
  412SOL     OW 1234   1.357   1.024   1.162 -0.3447  0.2145 -0.4178
  412SOL    HW1 1235   1.422   1.008   1.085 -0.6403 -0.1073 -2.9661
  412SOL    HW2 1236   1.403   1.057   1.241  1.1986  0.3766 -1.0614
  413SOL     OW 1237   0.701   2.651   1.413  0.2458 -0.0964  0.1022
  413SOL    HW1 1238   0.740   2.727   1.353  2.5944  1.1513 -0.1700
  413SOL    HW2 1239   0.600   2.647   1.398 -0.6733  0.3635 -0.0320
  414SOL     OW 1240   2.668   1.588   2.644 -0.1252  0.3210  0.2616
  414SOL    HW1 1241   2.667   1.685   2.604  2.1687  0.9714 -2.9174
  414SOL    HW2 1242   2.708   1.574   2.739 -0.4489  1.1717 -1.8160
  415SOL     OW 1243   0.241   2.330   2.960  0.2789  0.0291  0.0279
  415SOL    HW1 1244   0.227   2.238   2.912  2.3972 -1.3345 -1.4255
  415SOL    HW2 1245   0.333   2.330   3.007  0.5495 -1.1496  2.6205
  416SOL     OW 1246   1.894   3.016   0.530 -0.0261  0.7029 -0.6720
  416SOL    HW1 1247   1.918   3.060   0.443  0.8871  0.2389 -1.1501
  416SOL    HW2 1248   1.891   2.912   0.519 -0.2053 -1.9758 -0.2621
  417SOL     OW 1249   0.334   0.678   0.942 -0.1044  0.1471  0.4316
  417SOL    HW1 1250   0.404   0.735   0.897 -2.7140 -1.8947 -1.9043
  417SOL    HW2 1251   0.326   0.586   0.894 -1.3714  1.3075  0.2475
  418SOL     OW 1252   2.516   0.540   1.511  0.0107 -0.2517 -0.5059
  418SOL    HW1 1253   2.574   0.580   1.588  2.0622 -0.3536 -0.8072
  418SOL    HW2 1254   2.443   0.481   1.550 -1.1190 -0.1224  2.2229
  419SOL     OW 1255   2.966   0.275   0.359  0.2263  0.4055 -0.4860
  419SOL    HW1 1256   2.983   0.336   0.280 -0.4104  1.1596  0.1826
  419SOL    HW2 1257   2.917   0.328   0.435 -1.1739  2.5499  2.4729
  420SOL     OW 1258   0.206   1.337   1.423  0.1949 -0.0305 -0.0506
  420SOL    HW1 1259   0.284   1.368   1.482 -0.2573  1.6597  1.8447
  420SOL    HW2 1260   0.166   1.256   1.463 -3.6206 -1.7050 -1.6140
  421SOL     OW 1261   1.225   2.938   0.742  0.2109 -0.2534  0.6548
  421SOL    HW1 1262   1.322   2.911   0.731 -0.2177  0.0514  1.0050
  421SOL    HW2 1263   1.167   2.897   0.665 -0.0184  0.1594  0.8929
  422SOL     OW 1264   0.120   0.474   1.385  0.2394 -0.1590  0.4662
  422SOL    HW1 1265   0.029   0.512   1.359  2.3415 -4.5503 -1.5958
  422SOL    HW2 1266   0.194   0.512   1.324 -1.4522 -0.2948  3.1863
  423SOL     OW 1267   1.092   1.017   1.181  0.0534  0.2796  0.3511
  423SOL    HW1 1268   1.189   1.010   1.154 -3.6723  2.8462  1.9121
  423SOL    HW2 1269   1.030   1.018   1.096 -1.4326 -3.4719 -0.8612
  424SOL     OW 1270   1.942   1.361   2.758 -0.1453 -0.5900  0.3414
  424SOL    HW1 1271   2.008   1.358   2.839 -0.1680 -0.8590 -0.5998
  424SOL    HW2 1272   1.898   1.453   2.760 -2.4972  1.3212  2.1441
  425SOL     OW 1273   0.071   0.399   2.096 -0.3652  0.1676  0.6144
  425SOL    HW1 1274   0.058   0.502   2.109 -2.1071  2.7300 -0.8113
  425SOL    HW2 1275   3.059   0.351   2.131 -0.8089  1.8192  0.2498
  426SOL     OW 1276   0.141   2.824   0.026  0.6264 -0.0417  0.0963
  426SOL    HW1 1277   0.114   2.754   3.020 -1.7426 -3.2206 -1.6641
  426SOL    HW2 1278   0.173   2.777   0.108  0.8327  0.3199 -3.0539
  427SOL     OW 1279   1.062   0.933   2.498  0.0768  0.0130 -0.3255
  427SOL    HW1 1280   1.147   0.987   2.522 -1.6891 -0.1622 -0.1150
  427SOL    HW2 1281   1.013   0.969   2.415  0.2070  0.4501 -1.0121
  428SOL     OW 1282   2.501   1.120   1.763  0.4301  0.7027  0.4656
  428SOL    HW1 1283   2.471   1.081   1.673 -2.4808  1.5269 -4.5165
  428SOL    HW2 1284   2.567   1.197   1.750  1.7700  0.9300  0.9840
  429SOL     OW 1285   2.481   2.610   0.700  0.0816  0.0986  0.2383
  429SOL    HW1 1286   2.535   2.692   0.680 -0.3578  0.9067 -0.1433
  429SOL    HW2 1287   2.454   2.564   0.614 -1.3385  0.4607  1.8719
  430SOL     OW 1288   0.943   1.244   2.332  0.3341  0.1841 -0.4460
  430SOL    HW1 1289   0.948   1.152   2.294 -0.0086  0.8534 -1.1599
  430SOL    HW2 1290   0.944   1.247   2.437 -2.2804  1.7819  0.0821
  431SOL     OW 1291   2.750   1.193   1.512  0.0774  0.2559 -0.0895
  431SOL    HW1 1292   2.660   1.209   1.468  0.9103 -0.2772  0.3465
  431SOL    HW2 1293   2.820   1.170   1.444  1.1724 -0.0802 -1.1047
  432SOL     OW 1294   1.282   2.702   2.163 -0.3265  0.0117 -0.0333
  432SOL    HW1 1295   1.210   2.692   2.093  1.2055  3.0224 -0.3563
  432SOL    HW2 1296   1.270   2.634   2.238 -1.1367  2.0632 -1.1388
  433SOL     OW 1297   1.909   0.197   2.426 -0.2129  0.2244 -0.2650
  433SOL    HW1 1298   1.974   0.195   2.347  0.2458  1.5476  2.3147
  433SOL    HW2 1299   1.812   0.204   2.393  2.1469 -0.9309 -1.5509
  434SOL     OW 1300   0.401   2.645   2.254 -0.4430 -0.1637  0.6930
  434SOL    HW1 1301   0.330   2.593   2.303  0.8443  3.4198 -1.2308
  434SOL    HW2 1302   0.379   2.674   2.156 -1.3801 -1.8691 -0.4779
  435SOL     OW 1303   0.014   2.682   0.407 -0.0383  0.4039  0.3855
  435SOL    HW1 1304   3.059   2.728   0.494 -1.3415  1.1576 -0.7904
  435SOL    HW2 1305   3.015   2.701   0.338  1.5472 -1.7379  0.5010
  436SOL     OW 1306   0.858   0.583   1.768  0.3840 -1.0041 -0.6043
  436SOL    HW1 1307   0.807   0.634   1.845 -4.9532  1.8442  2.5020
  436SOL    HW2 1308   0.841   0.632   1.682  2.7058 -0.7185 -1.6158
  437SOL     OW 1309   0.070   2.836   2.387  0.2198  0.3947 -0.6950
  437SOL    HW1 1310   0.130   2.790   2.450 -1.7175  0.0462  0.4006
  437SOL    HW2 1311   0.081   2.804   2.292  1.1609 -0.1136  0.6399
  438SOL     OW 1312   0.646   1.321   1.534  0.2073 -0.0475  0.0723
  438SOL    HW1 1313   0.654   1.286   1.434  0.2731 -1.0596 -1.7369
  438SOL    HW2 1314   0.736   1.307   1.579 -2.0872 -0.8346  0.2856
  439SOL     OW 1315   2.086   1.065   2.262 -0.1779  0.7659  0.1120
  439SOL    HW1 1316   2.164   1.125   2.246 -2.4446  0.0063 -1.2811
  439SOL    HW2 1317   2.032   1.097   2.336  1.1964 -1.7504 -2.7357
  440SOL     OW 1318   0.299   0.796   0.176 -0.1597 -0.6027 -0.0515
  440SOL    HW1 1319   0.349   0.822   0.090  2.1740 -0.5382 -0.1591
  440SOL    HW2 1320   0.345   0.846   0.256  2.0884  1.0884  1.4240
  441SOL     OW 1321   1.077   2.332   1.312  0.2247 -0.0074  0.1954
  441SOL    HW1 1322   1.141   2.354   1.387  1.6140 -0.1568  0.7045
  441SOL    HW2 1323   1.045   2.422   1.266  0.4897  0.9203 -2.1868
  442SOL     OW 1324   2.503   1.335   0.766  0.8928  0.1948  0.4163
  442SOL    HW1 1325   2.518   1.370   0.860 -0.1557 -0.4740  0.2462
  442SOL    HW2 1326   2.564   1.385   0.701 -2.1828 -0.9746  4.8605
  443SOL     OW 1327   2.714   1.859   2.325 -0.4966 -0.7713 -0.9154
  443SOL    HW1 1328   2.687   1.950   2.284  2.4254  1.0707  1.0153
  443SOL    HW2 1329   2.766   1.799   2.262  0.3839 -0.0458  1.1873
  444SOL     OW 1330   1.679   1.260   3.024 -0.0470 -0.0733 -0.3905
  444SOL    HW1 1331   1.683   1.317   0.042 -0.2328 -1.4676  0.9757
  444SOL    HW2 1332   1.594   1.265   2.971  0.3180 -0.5266 -0.3336
  445SOL     OW 1333   2.557   2.583   2.179 -0.0099  0.9101 -0.4556
  445SOL    HW1 1334   2.494   2.536   2.111  0.7446 -0.0418 -1.9469
  445SOL    HW2 1335   2.643   2.620   2.138  1.3476 -1.3054 -0.6764
  446SOL     OW 1336   0.176   1.046   1.392 -0.3969 -0.0404  0.2272
  446SOL    HW1 1337   0.221   0.994   1.471  1.1053 -1.7733 -0.1181
  446SOL    HW2 1338   0.100   0.993   1.354  1.3029  0.9061  0.4604
  447SOL     OW 1339   0.900   1.449   0.805 -0.2289  0.0198  0.5330
  447SOL    HW1 1340   0.981   1.424   0.857 -0.8850  0.9292 -4.8747
  447SOL    HW2 1341   0.881   1.550   0.819 -0.7774  0.9306 -0.7025
  448SOL     OW 1342   1.288   1.064   1.518  0.5528  0.1609 -0.2323
  448SOL    HW1 1343   1.299   1.054   1.619 -2.1197 -0.5263 -0.9423
  448SOL    HW2 1344   1.246   0.979   1.482 -0.3575 -1.5794 -0.4074
  449SOL     OW 1345   0.070   2.085   2.274 -0.3484  0.0007  0.2925
  449SOL    HW1 1346   0.075   2.184   2.239 -0.5152  1.9903 -1.2973
  449SOL    HW2 1347   0.095   2.023   2.199 -1.3653 -0.6574  0.0272
  450SOL     OW 1348   2.933   1.865   1.921 -0.1577  0.0295 -0.5125
  450SOL    HW1 1349   2.925   1.965   1.943  1.4333  0.8088  3.0782
  450SOL    HW2 1350   3.022   1.848   1.868 -1.7470  0.5286 -1.3420
  451SOL     OW 1351   2.215   0.858   1.309  0.5314 -0.3969  0.3117
  451SOL    HW1 1352   2.132   0.820   1.356  1.9779  2.8819 -2.9829
  451SOL    HW2 1353   2.290   0.788   1.312  0.8498 -1.8920  0.3139
  452SOL     OW 1354   0.547   1.266   0.925 -0.2840 -0.0157 -0.4324
  452SOL    HW1 1355   0.505   1.260   1.017  0.4287 -1.4759 -0.4122
  452SOL    HW2 1356   0.492   1.325   0.863  0.9046 -3.2396  0.0404
  453SOL     OW 1357   0.739   1.556   1.078  0.2077 -0.3773 -0.4049
  453SOL    HW1 1358   0.639   1.582   1.076 -2.3596 -1.9808 -1.3444
  453SOL    HW2 1359   0.795   1.607   1.009  1.7330 -2.2435 -1.5974
  454SOL     OW 1360   0.406   1.703   0.156 -0.1596 -0.3941  0.8446
  454SOL    HW1 1361   0.474   1.774   0.124  1.6391  2.8059 -0.0828
  454SOL    HW2 1362   0.392   1.629   0.085 -0.3789  1.2984  1.2154
  455SOL     OW 1363   1.777   0.783   0.743 -0.0471  0.8200  0.0638
  455SOL    HW1 1364   1.742   0.712   0.809  0.2140 -2.3656  2.5383
  455SOL    HW2 1365   1.787   0.867   0.795 -2.2991  0.4148 -1.7384
  456SOL     OW 1366   2.097   2.548   0.970 -0.2206 -0.0749  0.0365
  456SOL    HW1 1367   2.178   2.597   0.928  2.9776  1.8239  1.8157
  456SOL    HW2 1368   2.129   2.474   1.029 -1.1168  0.3638 -2.4462
  457SOL     OW 1369   1.998   2.862   2.718 -0.2423  0.3153 -0.2987
  457SOL    HW1 1370   1.965   2.919   2.796  1.9398 -0.2284 -0.6836
  457SOL    HW2 1371   2.010   2.915   2.632  3.6448 -1.2230 -0.5873
  458SOL     OW 1372   2.189   0.313   0.337 -0.1903  0.2698 -0.1843
  458SOL    HW1 1373   2.265   0.372   0.370 -1.5942 -1.4433  1.4534
  458SOL    HW2 1374   2.104   0.365   0.318  2.9363 -0.0693  0.5982
  459SOL     OW 1375   0.059   1.160   2.354  0.3390  0.1162 -0.2904
  459SOL    HW1 1376   3.049   1.118   2.301  0.2905 -0.1740  0.4849
  459SOL    HW2 1377   0.117   1.228   2.300  0.4426 -2.8315  0.2435
  460SOL     OW 1378   0.416   0.844   3.009  0.1337  0.1422  0.1054
  460SOL    HW1 1379   0.378   0.926   2.964  1.3507 -2.5016 -0.3138
  460SOL    HW2 1380   0.396   0.762   2.957  1.4595  0.8988  3.1653
  461SOL     OW 1381   2.811   2.364   0.859 -0.1622 -0.1055  0.0324
  461SOL    HW1 1382   2.715   2.381   0.886 -1.5683  0.1486  0.8794
  461SOL    HW2 1383   2.855   2.290   0.912  1.7103  4.5892  0.8738
  462SOL     OW 1384   0.371   0.252   1.783  1.0690  0.3273 -0.1272
  462SOL    HW1 1385   0.409   0.345   1.778 -2.6642 -0.2181 -1.3909
  462SOL    HW2 1386   0.347   0.215   1.687  1.5528 -1.0889 -0.4707
  463SOL     OW 1387   2.082   2.220   2.042  0.6145 -0.2164 -0.4338
  463SOL    HW1 1388   2.039   2.140   2.083 -1.2911 -0.3380 -0.6516
  463SOL    HW2 1389   2.035   2.250   1.956 -2.3530 -0.1918 -0.3372
  464SOL     OW 1390   0.401   0.116   1.537  0.2680  0.3021  0.2959
  464SOL    HW1 1391   0.499   0.146   1.536  0.5021 -0.9702 -3.2964
  464SOL    HW2 1392   0.400   0.017   1.523 -1.3026  0.8426  2.2691
  465SOL     OW 1393   0.785   0.036   1.394 -0.1464  0.7060  0.0423
  465SOL    HW1 1394   0.886   0.049   1.394 -1.5037 -1.9985  0.9492
  465SOL    HW2 1395   0.744   0.096   1.465  2.0119  1.4167  3.6533
  466SOL     OW 1396   1.401   1.854   1.744 -0.1619 -0.1691 -0.1919
  466SOL    HW1 1397   1.458   1.853   1.662 -4.0962  0.2323  2.2334
  466SOL    HW2 1398   1.310   1.819   1.716  2.3622  2.0581  0.6825
  467SOL     OW 1399   0.114   1.787   1.299 -0.4097 -0.3850 -0.7911
  467SOL    HW1 1400   0.105   1.688   1.278 -2.3557  1.9999  1.4528
  467SOL    HW2 1401   0.187   1.820   1.357  3.5186  2.3308  0.7791
  468SOL     OW 1402   2.390   1.976   2.626 -0.3605  0.4531 -0.1726
  468SOL    HW1 1403   2.466   1.908   2.629 -0.0248  1.1826  0.4880
  468SOL    HW2 1404   2.384   2.011   2.527 -0.8885  1.2594  1.0427
  469SOL     OW 1405   1.298   2.299   0.474  0.1666 -0.5074  0.0015
  469SOL    HW1 1406   1.378   2.237   0.458 -1.0066  0.7090  0.5509
  469SOL    HW2 1407   1.220   2.276   0.413 -2.2017  2.4076  0.0177
  470SOL     OW 1408   2.285   1.587   1.037 -0.3047 -0.5450 -0.2652
  470SOL    HW1 1409   2.261   1.605   1.137 -1.5440  0.5198  0.4747
  470SOL    HW2 1410   2.379   1.545   1.024 -1.6852  0.5515 -1.2652
  471SOL     OW 1411   0.380   2.481   0.248 -0.2107  0.2836  0.0950
  471SOL    HW1 1412   0.335   2.567   0.262  0.9613 -0.7268  0.1553
  471SOL    HW2 1413   0.481   2.487   0.221  2.7325 -0.5272 -1.7407
  472SOL     OW 1414   2.878   1.734   2.155 -0.8647  0.0027  0.2071
  472SOL    HW1 1415   2.898   1.636   2.161 -1.6236  0.0044  0.3634
  472SOL    HW2 1416   2.919   1.778   2.072 -1.4077 -1.7955 -1.5001
  473SOL     OW 1417   1.094   0.095   0.757 -0.4764 -0.4672  0.0884
  473SOL    HW1 1418   1.105   0.133   0.664 -1.6859 -2.3899 -1.6382
  473SOL    HW2 1419   1.151   0.007   0.760  0.0663  0.1262  0.9079
  474SOL     OW 1420   2.788   0.007   1.114  0.2482  0.1477  0.0197
  474SOL    HW1 1421   2.745   0.098   1.079 -0.3157  1.2275  2.4505
  474SOL    HW2 1422   2.872   0.026   1.167  2.1030  0.6389  1.2100
  475SOL     OW 1423   1.729   2.473   1.735 -0.3899  0.4102 -0.3149
  475SOL    HW1 1424   1.775   2.467   1.643  0.5933  1.8772  0.8514
  475SOL    HW2 1425   1.642   2.521   1.724 -0.3740 -1.1168 -0.7493
  476SOL     OW 1426   0.297   0.384   0.928 -0.0942  0.4337 -0.1735
  476SOL    HW1 1427   0.348   0.374   1.014  1.0009  2.2055  1.4594
  476SOL    HW2 1428   0.206   0.330   0.936 -2.7968 -2.1179 -0.3132
  477SOL     OW 1429   0.861   2.374   1.000 -0.5214 -0.0969 -0.3974
  477SOL    HW1 1430   0.773   2.414   0.990  1.9728 -0.3097  1.2418
  477SOL    HW2 1431   0.896   2.354   0.904  2.4588  1.0857 -3.5988
  478SOL     OW 1432   0.341   2.562   2.768 -0.4226 -0.6672 -0.1186
  478SOL    HW1 1433   0.347   2.461   2.746  0.6507 -2.8095 -0.5088
  478SOL    HW2 1434   0.409   2.586   2.843  2.8871  3.0148 -0.1920
  479SOL     OW 1435   0.336   0.619   2.019 -0.4918  0.3776 -0.2568
  479SOL    HW1 1436   0.270   0.608   1.938 -0.0569  0.2793 -2.9156
  479SOL    HW2 1437   0.310   0.692   2.080  0.9417 -2.1879  2.2793
  480SOL     OW 1438   2.970   2.073   3.055 -0.2987  0.6283  0.2477
  480SOL    HW1 1439   2.963   2.173   3.040  0.5509  0.3322  0.9985
  480SOL    HW2 1440   3.050   2.042   0.045  1.9908 -1.7811  1.0759
  481SOL     OW 1441   1.547   2.355   2.114  0.1812 -0.2342  0.0618
  481SOL    HW1 1442   1.642   2.318   2.113  1.8433  1.4756  0.3444
  481SOL    HW2 1443   1.482   2.293   2.070 -0.1596  0.0400  1.2019
  482SOL     OW 1444   1.419   2.070   2.730 -0.5587  0.0629 -0.3790
  482SOL    HW1 1445   1.485   2.007   2.777  1.9572  0.9376 -0.8519
  482SOL    HW2 1446   1.434   2.061   2.632 -0.1595  1.4932  3.2214
  483SOL     OW 1447   0.805   2.524   2.801  0.7744 -0.3084  0.5529
  483SOL    HW1 1448   0.749   2.573   2.728 -0.7272  2.1196 -2.2431
  483SOL    HW2 1449   0.901   2.529   2.770 -1.5962  1.9691  0.9699
  484SOL     OW 1450   3.016   0.146   0.742 -0.6221 -0.2121 -0.1941
  484SOL    HW1 1451   2.916   0.152   0.712 -0.7723  2.1477 -1.1925
  484SOL    HW2 1452   3.041   0.054   0.773 -0.6933  3.4097 -2.4971
  485SOL     OW 1453   1.610   0.718   0.554  0.3266  0.6689  0.2982
  485SOL    HW1 1454   1.676   0.753   0.625 -1.0101  3.2148 -0.8407
  485SOL    HW2 1455   1.552   0.640   0.582  0.8099 -1.0549  1.2345
  486SOL     OW 1456   1.860   2.640   2.199 -0.2531  0.0053 -0.2578
  486SOL    HW1 1457   1.960   2.636   2.192  0.3828  0.3905  0.8321
  486SOL    HW2 1458   1.828   2.694   2.282 -1.3703  0.9832  0.1048
  487SOL     OW 1459   1.690   2.197   0.857  0.7387  0.2147  0.4222
  487SOL    HW1 1460   1.613   2.224   0.918  3.3605  2.0175  1.3477
  487SOL    HW2 1461   1.775   2.218   0.908 -0.4132 -0.5432 -1.9184
  488SOL     OW 1462   1.804   0.782   0.036 -0.0453 -0.1703 -0.1867
  488SOL    HW1 1463   1.784   0.808   0.131  0.7145  0.1092 -1.2318
  488SOL    HW2 1464   1.902   0.755   0.029 -0.6509  1.1311  2.8982
  489SOL     OW 1465   2.483   0.195   0.640 -0.3482  0.0555  0.1035
  489SOL    HW1 1466   2.522   0.126   0.699 -1.1592  0.7982 -0.4171
  489SOL    HW2 1467   2.382   0.194   0.639  0.6363 -2.2791 -1.8667
  490SOL     OW 1468   1.541   2.666   2.867  0.2067  0.6616 -0.1156
  490SOL    HW1 1469   1.516   2.762   2.855  3.6294  0.6423 -2.5168
  490SOL    HW2 1470   1.635   2.649   2.829 -0.5193 -0.9773 -0.5286
  491SOL     OW 1471   0.903   0.449   1.088 -0.3938  0.4091 -0.2152
  491SOL    HW1 1472   0.951   0.468   1.002 -2.8687 -1.2230 -0.3731
  491SOL    HW2 1473   0.955   0.466   1.170 -0.4332 -1.6222 -2.9465
  492SOL     OW 1474   1.567   0.588   0.137 -0.1278 -0.2502  0.1662
  492SOL    HW1 1475   1.584   0.509   0.066  1.5714 -0.2137 -1.2523
  492SOL    HW2 1476   1.631   0.581   0.221  1.1749  3.0621  1.5053
  493SOL     OW 1477   2.127   2.237   2.716 -0.1096  0.5031 -0.6628
  493SOL    HW1 1478   2.133   2.338   2.730  0.4406 -0.6474 -2.3533
  493SOL    HW2 1479   2.189   2.185   2.779 -2.5535 -2.8321 -0.9782
  494SOL     OW 1480   0.339   1.196   0.697 -0.7448  0.4212 -0.0616
  494SOL    HW1 1481   0.328   1.211   0.596  1.7486 -0.0856  2.0175
  494SOL    HW2 1482   0.250   1.171   0.735 -1.2259  2.0285  0.4301
  495SOL     OW 1483   2.989   3.045   1.585  0.9520  0.0332  0.1295
  495SOL    HW1 1484   2.950   0.072   1.574 -0.6759  3.5837 -0.7702
  495SOL    HW2 1485   3.060   3.040   1.658 -1.0135  0.3529  0.7939
  496SOL     OW 1486   2.731   2.794   1.752 -0.3309  0.0569  0.0624
  496SOL    HW1 1487   2.763   2.798   1.656  1.4451 -3.4329 -0.8210
  496SOL    HW2 1488   2.727   2.890   1.798  3.2501  1.6556 -1.0753
  497SOL     OW 1489   1.469   1.700   2.523  0.0153 -0.4232  0.1629
  497SOL    HW1 1490   1.471   1.762   2.604  0.4616 -1.2009 -0.9830
  497SOL    HW2 1491   1.374   1.672   2.497  2.9316 -1.5773 -0.7807
  498SOL     OW 1492   0.517   2.019   0.727  0.1974 -0.0019 -0.1094
  498SOL    HW1 1493   0.487   1.956   0.656  2.5295  0.9763  1.1307
  498SOL    HW2 1494   0.467   2.008   0.812  2.4073  1.2779 -0.5537
  499SOL     OW 1495   0.043   1.529   1.344  0.3367 -0.0210 -0.4439
  499SOL    HW1 1496   0.125   1.479   1.362  2.0967  1.0913  2.7463
  499SOL    HW2 1497   3.040   1.466   1.312 -1.4486 -2.4199  0.2735
  500SOL     OW 1498   1.378   2.531   0.167 -0.2110 -0.7834  0.0314
  500SOL    HW1 1499   1.404   2.431   0.151  2.1498  0.6816 -0.4322
  500SOL    HW2 1500   1.460   2.596   0.161  3.1087  0.4492 -0.9145
  501SOL     OW 1501   2.236   2.309   1.079  0.6690 -0.0389 -0.4020
  501SOL    HW1 1502   2.280   2.388   1.120 -0.9715 -2.5199 -0.0648
  501SOL    HW2 1503   2.269   2.278   0.986 -1.0818  0.3424  2.8881
  502SOL     OW 1504   0.149   0.758   1.653  0.6174  0.1382  0.2464
  502SOL    HW1 1505   0.232   0.813   1.664 -2.1207  1.5484  0.4174
  502SOL    HW2 1506   0.172   0.658   1.649  1.3911  0.1980  2.7676
  503SOL     OW 1507   2.458   2.991   1.726 -0.1665  0.4438 -0.1664
  503SOL    HW1 1508   2.415   2.961   1.813 -2.1104  1.8231 -3.9816
  503SOL    HW2 1509   2.538   3.051   1.744  1.4518  0.4968  4.0674
  504SOL     OW 1510   1.843   0.722   2.001  0.6161 -0.7249  0.2920
  504SOL    HW1 1511   1.860   0.789   1.921  0.6732  2.3321 -1.8887
  504SOL    HW2 1512   1.910   0.753   2.073  0.9121  0.6410 -1.1626
  505SOL     OW 1513   1.155   2.927   2.325 -0.1566  0.0545  0.0631
  505SOL    HW1 1514   1.112   2.870   2.401  0.3784 -0.3828 -0.0856
  505SOL    HW2 1515   1.217   2.869   2.267  3.1993  0.5029  0.7011
  506SOL     OW 1516   0.503   0.543   1.645 -0.5516 -0.1678 -0.1263
  506SOL    HW1 1517   0.554   0.513   1.563 -1.4918 -1.3390 -1.5186
  506SOL    HW2 1518   0.539   0.507   1.734 -0.8015  1.9439  0.5151
  507SOL     OW 1519   1.714   0.082   2.849  0.2808 -0.3727 -0.1202
  507SOL    HW1 1520   1.658   0.167   2.863 -0.8042 -0.6785  2.5292
  507SOL    HW2 1521   1.679   0.020   2.922 -1.1828 -0.4919 -0.9159
  508SOL     OW 1522   2.331   0.449   2.511 -0.3000 -0.0764 -0.3453
  508SOL    HW1 1523   2.396   0.500   2.574  2.7376  3.1943  1.8115
  508SOL    HW2 1524   2.249   0.508   2.493 -2.4457  0.6411 -0.6555
  509SOL     OW 1525   0.855   1.463   1.887  0.4521  0.0529  1.0541
  509SOL    HW1 1526   0.918   1.508   1.948 -2.1041  0.2402 -1.6325
  509SOL    HW2 1527   0.885   1.473   1.788  3.3570  1.7332 -0.6858
  510SOL     OW 1528   3.010   0.931   0.907 -0.5121 -0.8663  0.1940
  510SOL    HW1 1529   3.017   0.843   0.853  1.5806 -1.1597 -1.0699
  510SOL    HW2 1530   2.916   0.951   0.950 -0.9798 -0.5441  0.7202
  511SOL     OW 1531   1.707   1.651   0.745 -0.0534 -0.2976 -0.3164
  511SOL    HW1 1532   1.605   1.642   0.727 -2.6088 -2.1598 -0.6226
  511SOL    HW2 1533   1.731   1.752   0.751 -0.0926  2.1490 -1.7939
  512SOL     OW 1534   0.759   1.476   0.330  0.6203  0.3104  0.0007
  512SOL    HW1 1535   0.657   1.487   0.339 -1.1036 -0.8718 -1.0955
  512SOL    HW2 1536   0.799   1.410   0.394 -1.1492 -0.9617 -0.7652
  513SOL     OW 1537   0.256   2.709   0.664  0.6851 -0.3192 -0.0277
  513SOL    HW1 1538   0.302   2.802   0.650 -1.3973  1.3370  2.1004
  513SOL    HW2 1539   0.286   2.640   0.602 -1.4449  1.4517 -0.1863
  514SOL     OW 1540   0.142   1.987   0.088 -0.4300 -0.3548 -0.0694
  514SOL    HW1 1541   0.209   2.037   0.145  1.0122  0.1507 -0.8449
  514SOL    HW2 1542   0.142   1.886   0.107  0.7935 -2.6091  0.8754
  515SOL     OW 1543   2.258   0.762   0.273  0.2995  0.1717  0.7334
  515SOL    HW1 1544   2.169   0.776   0.315  1.1114  1.4349 -0.6123
  515SOL    HW2 1545   2.309   0.850   0.265  1.6895 -1.9886  1.0095
  516SOL     OW 1546   2.227   2.552   1.251  0.0756 -0.3922  0.0510
  516SOL    HW1 1547   2.322   2.573   1.285 -0.5086 -1.1451 -0.6973
  516SOL    HW2 1548   2.166   2.632   1.265 -1.6548  2.3187  0.3344
  517SOL     OW 1549   1.436   1.640   2.924  0.0157 -0.1128 -0.5163
  517SOL    HW1 1550   1.482   1.605   3.006 -2.3741  0.7003 -1.0633
  517SOL    HW2 1551   1.366   1.710   2.947 -2.2496 -2.5372  0.4791
  518SOL     OW 1552   1.246   0.467   1.595 -0.1020  0.2759 -0.2884
  518SOL    HW1 1553   1.197   0.460   1.502  0.5362 -1.7027  1.2119
  518SOL    HW2 1554   1.172   0.454   1.672 -0.5065 -1.2450  0.4400
  519SOL     OW 1555   2.966   2.046   0.736 -0.4061 -0.1506 -0.3576
  519SOL    HW1 1556   3.034   1.985   0.787  1.8440  0.7451  1.8294
  519SOL    HW2 1557   3.001   2.067   0.639  1.5993 -1.5457  0.6112
  520SOL     OW 1558   2.348   2.189   1.757 -0.3122  0.3672 -0.6374
  520SOL    HW1 1559   2.305   2.160   1.845 -0.8645 -0.8260  0.0344
  520SOL    HW2 1560   2.309   2.282   1.734  0.9357  0.3262 -0.2702
  521SOL     OW 1561   1.010   2.808   2.528 -0.0793  0.6262 -0.7463
  521SOL    HW1 1562   0.952   2.881   2.561  0.5543 -0.7272 -2.5281
  521SOL    HW2 1563   0.955   2.751   2.467 -0.5220  3.8645  1.3067
  522SOL     OW 1564   2.576   0.258   2.285 -0.1591 -0.1430 -0.1107
  522SOL    HW1 1565   2.623   0.347   2.313 -0.0385 -0.2459 -0.2918
  522SOL    HW2 1566   2.555   0.206   2.373  3.5074 -0.8339  0.8663
  523SOL     OW 1567   1.445   2.170   1.590 -0.4045  0.0411 -0.2432
  523SOL    HW1 1568   1.543   2.151   1.588  1.8759  0.0141  0.9941
  523SOL    HW2 1569   1.393   2.111   1.532  0.1078  1.4465  1.9520
  524SOL     OW 1570   1.781   1.987   2.988 -0.3593  0.2439 -0.2136
  524SOL    HW1 1571   1.799   1.977   0.018 -1.8223 -0.3258  0.0319
  524SOL    HW2 1572   1.822   2.072   2.960 -1.7571 -4.9787  2.9263
  525SOL     OW 1573   2.997   0.707   0.366 -0.0577 -0.2768  0.1297
  525SOL    HW1 1574   3.036   0.799   0.336  0.3120 -1.0200  3.2107
  525SOL    HW2 1575   0.001   0.649   0.401 -0.0998  3.4951  0.9902
  526SOL     OW 1576   0.976   2.796   1.091 -0.0396  0.3135  0.3311
  526SOL    HW1 1577   1.042   2.873   1.076 -1.1541 -2.3808 -0.3684
  526SOL    HW2 1578   0.917   2.781   1.006 -0.9338  0.3814  1.0568
  527SOL     OW 1579   2.665   1.476   0.581 -0.0866  0.4088 -0.6212
  527SOL    HW1 1580   2.699   1.572   0.587  0.9266  1.0486 -1.9585
  527SOL    HW2 1581   2.722   1.420   0.519  0.3159  1.2575  1.4875
  528SOL     OW 1582   0.571   0.823   2.163  0.0016  0.5447  0.3680
  528SOL    HW1 1583   0.598   0.904   2.219  0.9160  0.4025  0.4489
  528SOL    HW2 1584   0.482   0.780   2.186  0.2692 -0.2250  0.5716
  529SOL     OW 1585   1.040   1.785   2.782  0.2168 -0.4265 -0.0249
  529SOL    HW1 1586   1.126   1.730   2.761 -0.3426 -0.3445 -1.1672
  529SOL    HW2 1587   0.974   1.771   2.709  1.4300 -2.6445  0.9192
  530SOL     OW 1588   1.511   1.294   2.236 -0.0341  0.5114 -0.2980
  530SOL    HW1 1589   1.409   1.316   2.242 -3.0481  0.3141 -0.2446
  530SOL    HW2 1590   1.529   1.220   2.301  0.5387 -1.2448  1.0211
  531SOL     OW 1591   0.735   2.288   2.935  0.0536  0.1047 -0.2284
  531SOL    HW1 1592   0.636   2.297   2.966 -1.5761 -1.2352 -0.1718
  531SOL    HW2 1593   0.765   2.361   2.874  0.5424  1.3336  3.2515
  532SOL     OW 1594   2.394   1.004   0.229 -0.5352  0.3687 -0.0470
  532SOL    HW1 1595   2.410   1.001   0.127  2.8691  0.6641 -0.1056
  532SOL    HW2 1596   2.391   1.101   0.262  0.4970  0.5017  0.7690
  533SOL     OW 1597   3.040   0.392   1.748 -0.4698  0.0364 -0.4844
  533SOL    HW1 1598   0.049   0.454   1.737 -0.4668 -1.0611 -0.5411
  533SOL    HW2 1599   2.978   0.414   1.823  1.8646 -2.0349 -0.8567
  534SOL     OW 1600   1.430   0.224   2.938 -0.1325 -0.1386 -0.1550
  534SOL    HW1 1601   1.354   0.206   3.005  3.7743  1.1028 -0.4782
  534SOL    HW2 1602   1.391   0.242   2.844  0.0315 -1.1277  1.3071
  535SOL     OW 1603   0.774   0.204   0.216 -0.2187 -0.2781  0.2646
  535SOL    HW1 1604   0.780   0.216   0.318  0.4634  1.7662  1.8217
  535SOL    HW2 1605   0.732   0.288   0.181  2.8520 -1.4563 -1.9263
  536SOL     OW 1606   0.529   1.603   1.947  0.1031 -0.0819  0.4299
  536SOL    HW1 1607   0.532   1.631   2.045 -0.3669 -2.4903  0.5823
  536SOL    HW2 1608   0.543   1.504   1.941 -0.5264 -1.0174  0.3591
  537SOL     OW 1609   0.365   2.449   1.900 -0.4344 -0.2504  0.0134
  537SOL    HW1 1610   0.333   2.380   1.828 -1.1733  0.8172 -0.1387
  537SOL    HW2 1611   0.386   2.408   1.994 -0.0383  1.0926  2.1427
  538SOL     OW 1612   2.992   1.734   0.262  0.1944  0.4403 -1.1270
  538SOL    HW1 1613   0.019   1.728   0.223 -0.0655 -0.7602 -1.6006
  538SOL    HW2 1614   2.984   1.684   0.349 -1.6606  1.3258 -0.2453
  539SOL     OW 1615   2.601   0.440   2.885 -0.6516 -0.3810  0.5774
  539SOL    HW1 1616   2.568   0.352   2.841  0.5264 -0.1064  2.9392
  539SOL    HW2 1617   2.698   0.429   2.916  2.6258  0.3034 -2.2210
  540SOL     OW 1618   1.441   0.804   2.536 -0.8531 -0.0875  0.3371
  540SOL    HW1 1619   1.447   0.768   2.630  0.2408 -0.8516 -0.6296
  540SOL    HW2 1620   1.390   0.891   2.528  1.4993  2.3812  0.4589
  541SOL     OW 1621   0.805   0.182   1.773  0.7156 -0.0185  0.0772
  541SOL    HW1 1622   0.769   0.096   1.807 -0.4057  0.9931 -1.1630
  541SOL    HW2 1623   0.857   0.234   1.843 -1.8023  1.1632  2.7815
  542SOL     OW 1624   1.958   2.556   2.508  0.1229 -0.0782  0.0250
  542SOL    HW1 1625   1.861   2.530   2.537  2.2166 -1.4265  1.1367
  542SOL    HW2 1626   1.956   2.614   2.424 -1.8940 -1.0365 -2.7546
  543SOL     OW 1627   0.475   2.979   0.871  0.0980  0.1084 -0.0305
  543SOL    HW1 1628   0.508   2.887   0.900 -0.4382  1.0252 -2.0730
  543SOL    HW2 1629   0.549   3.042   0.885 -2.5671 -2.2848 -1.8736
  544SOL     OW 1630   2.887   1.482   2.215 -0.4540  0.3337  0.4483
  544SOL    HW1 1631   2.800   1.434   2.213  1.0415  2.7979 -1.3553
  544SOL    HW2 1632   2.913   1.499   2.310 -1.6499 -0.1139 -3.2549
  545SOL     OW 1633   2.014   1.866   1.356  0.1548 -0.1533 -0.5466
  545SOL    HW1 1634   2.018   1.956   1.404  0.5026 -0.4929 -0.0103
  545SOL    HW2 1635   1.986   1.885   1.262  2.7309  2.7717  3.4872
  546SOL     OW 1636   0.309   0.246   2.266 -0.4976 -0.2815  0.0334
  546SOL    HW1 1637   0.227   0.219   2.217  1.7051 -0.9172  1.1782
  546SOL    HW2 1638   0.286   0.290   2.356 -1.9935  1.1962  1.6718
  547SOL     OW 1639   1.257   0.460   0.925 -0.1590  0.6517 -0.0366
  547SOL    HW1 1640   1.273   0.473   1.026  0.1666  1.8851  1.1322
  547SOL    HW2 1641   1.282   0.551   0.884  0.4384 -0.7647  2.1718
  548SOL     OW 1642   1.115   2.614   2.728  0.5584 -0.1046 -0.6358
  548SOL    HW1 1643   1.156   2.627   2.822 -1.6744 -1.6841 -1.1870
  548SOL    HW2 1644   1.081   2.703   2.686 -0.2913  1.3406  0.0520
  549SOL     OW 1645   2.211   0.674   2.700 -0.3272 -0.2788 -0.6301
  549SOL    HW1 1646   2.291   0.620   2.713 -2.3051 -0.8582 -0.6935
  549SOL    HW2 1647   2.152   0.634   2.633  0.6786  0.2108 -0.5900
  550SOL     OW 1648   2.715   1.840   0.431  0.2969  0.0629 -0.5238
  550SOL    HW1 1649   2.621   1.814   0.403 -0.0856  1.0055  0.0034
  550SOL    HW2 1650   2.768   1.866   0.350  0.1945  1.4274  2.8027
  551SOL     OW 1651   1.023   2.864   1.854 -0.2793  0.1445 -0.0672
  551SOL    HW1 1652   0.986   2.819   1.770 -0.8311  4.1623  4.2393
  551SOL    HW2 1653   1.075   2.946   1.826 -0.6904 -0.6424 -2.2631
  552SOL     OW 1654   2.951   2.258   2.579 -0.2570 -0.4041  0.1856
  552SOL    HW1 1655   2.935   2.184   2.513 -1.2055 -1.2145  0.7807
  552SOL    HW2 1656   2.898   2.234   2.662 -3.1185 -0.6345  1.2053
  553SOL     OW 1657   0.184   2.656   0.983  0.0738  0.2553 -0.0252
  553SOL    HW1 1658   0.175   2.666   0.878  0.1752  0.2966 -2.1860
  553SOL    HW2 1659   0.180   2.556   1.010 -2.4857  3.7046  1.7301
  554SOL     OW 1660   2.224   1.818   1.572 -0.4868  0.1278 -0.1637
  554SOL    HW1 1661   2.223   1.809   1.672 -3.4105  1.1871 -2.1542
  554SOL    HW2 1662   2.223   1.915   1.539  0.6515 -0.0876 -3.0769
  555SOL     OW 1663   1.578   2.018   1.944  0.3469 -0.2457  0.2378
  555SOL    HW1 1664   1.512   1.943   1.928  0.4755  0.5771  0.2013
  555SOL    HW2 1665   1.541   2.105   1.902  0.4203 -2.7770  1.8658
  556SOL     OW 1666   1.475   1.608   1.027 -0.3761 -0.3249 -0.0865
  556SOL    HW1 1667   1.444   1.511   1.019  0.0840  0.8082  2.0087
  556SOL    HW2 1668   1.567   1.623   0.987 -0.3427 -1.8849 -1.1036
  557SOL     OW 1669   1.374   2.866   1.604  0.8866  0.4706 -0.0067
  557SOL    HW1 1670   1.357   2.924   1.686 -2.5118 -4.1106  0.1216
  557SOL    HW2 1671   1.290   2.858   1.551  2.4439 -0.4217 -1.6782
  558SOL     OW 1672   0.491   0.064   1.957 -0.3779  0.0524 -0.2152
  558SOL    HW1 1673   0.461   0.102   2.049  0.2361  2.3262  3.6138
  558SOL    HW2 1674   0.466   0.129   1.883  0.6846 -0.4544 -2.5626
  559SOL     OW 1675   2.291   2.992   0.752  0.4050  0.4643 -0.5888
  559SOL    HW1 1676   2.363   3.041   0.805 -0.6634 -1.8319  0.0955
  559SOL    HW2 1677   2.203   3.039   0.749 -1.4175  0.5960 -1.1439
  560SOL     OW 1678   1.329   2.555   0.450  0.2042  0.1343  0.4914
  560SOL    HW1 1679   1.331   2.568   0.350  1.3126  2.2731 -0.4433
  560SOL    HW2 1680   1.319   2.456   0.472  0.5633 -0.5969  0.0771
  561SOL     OW 1681   1.076   0.586   0.212  0.1654  0.3917  0.0673
  561SOL    HW1 1682   1.102   0.523   0.136  2.2045  0.0643  1.2665
  561SOL    HW2 1683   0.979   0.608   0.209  1.3275  2.2921  0.0454
  562SOL     OW 1684   0.453   1.149   2.221 -0.0856 -0.1629  1.1696
  562SOL    HW1 1685   0.382   1.106   2.277  1.1700  0.5648 -3.0949
  562SOL    HW2 1686   0.545   1.145   2.265  0.5209  0.4596  1.2932
  563SOL     OW 1687   1.459   2.109   2.433  0.2798 -0.6145 -0.9066
  563SOL    HW1 1688   1.463   2.210   2.438  0.3070 -1.7302  0.8773
  563SOL    HW2 1689   1.553   2.076   2.409 -1.5140 -1.5745 -1.3846
  564SOL     OW 1690   2.749   0.922   0.991  0.1384  0.1890  0.2228
  564SOL    HW1 1691   2.724   1.008   1.034  3.0385 -1.1083  0.5910
  564SOL    HW2 1692   2.732   0.924   0.889  1.5675 -0.0527 -2.7166
  565SOL     OW 1693   0.697   0.887   2.996  0.3901  0.2823 -0.9093
  565SOL    HW1 1694   0.724   0.853   2.904  0.2062 -1.6151 -2.7670
  565SOL    HW2 1695   0.594   0.883   3.005  0.1131  1.8728 -0.6210
  566SOL     OW 1696   2.318   2.975   2.815  0.3290  0.0121 -0.4610
  566SOL    HW1 1697   2.263   3.057   2.808  1.3521  0.7455  0.1513
  566SOL    HW2 1698   2.317   2.914   2.733 -1.7199  2.1996  0.7762
  567SOL     OW 1699   1.576   0.992   0.977 -0.2976  0.4048  0.0381
  567SOL    HW1 1700   1.515   0.999   0.895 -0.8031 -2.2078  0.8840
  567SOL    HW2 1701   1.669   1.015   0.949 -3.6312 -2.8650 -0.6524
  568SOL     OW 1702   1.738   1.918   2.637  0.0537  0.7385  0.7383
  568SOL    HW1 1703   1.754   1.839   2.574 -2.0769 -0.8084  0.7065
  568SOL    HW2 1704   1.645   1.913   2.681 -2.4933  0.3344 -1.0854
  569SOL     OW 1705   2.107   1.385   2.979  0.2276 -0.5041 -0.4120
  569SOL    HW1 1706   2.117   1.289   3.013 -0.5688  3.4923  0.3283
  569SOL    HW2 1707   2.199   1.416   2.957 -1.1075  0.5035 -0.9494
  570SOL     OW 1708   0.037   2.305   1.869  0.0575 -0.1724  0.3393
  570SOL    HW1 1709   0.028   2.399   1.832 -0.3518 -2.4098 -0.3569
  570SOL    HW2 1710   0.111   2.253   1.825 -0.7284  2.3953  2.8711
  571SOL     OW 1711   2.681   1.825   1.669  0.2894  0.3409 -0.4420
  571SOL    HW1 1712   2.619   1.901   1.644  3.8657  1.2872 -0.6765
  571SOL    HW2 1713   2.737   1.848   1.752  0.6895 -0.0112 -1.9150
  572SOL     OW 1714   1.727   1.971   0.179  0.4348  0.0773  0.0609
  572SOL    HW1 1715   1.628   1.982   0.149  0.3672  0.8854  0.9860
  572SOL    HW2 1716   1.733   2.022   0.268 -0.4184  0.2090 -0.3189
  573SOL     OW 1717   1.597   2.358   0.417  0.4067 -0.8015  0.0044
  573SOL    HW1 1718   1.574   2.322   0.322 -1.9092 -2.1702 -0.7442
  573SOL    HW2 1719   1.667   2.430   0.406  0.0555  0.4792  3.6004
  574SOL     OW 1720   1.242   0.205   1.230 -0.1533 -0.4442  0.1570
  574SOL    HW1 1721   1.180   0.137   1.275 -0.9563 -1.1350 -1.0149
  574SOL    HW2 1722   1.240   0.204   1.130 -2.3488  0.0547 -1.6764
  575SOL     OW 1723   0.708   1.029   1.632  0.3237 -0.6360  0.2101
  575SOL    HW1 1724   0.794   1.074   1.602 -2.5430  1.5206 -1.2383
  575SOL    HW2 1725   0.633   1.095   1.636  0.3757  0.5287 -0.3665
  576SOL     OW 1726   2.507   0.331   1.837 -0.1411  0.2169  0.1027
  576SOL    HW1 1727   2.407   0.306   1.842 -1.0337 -1.5061  0.2366
  576SOL    HW2 1728   2.562   0.267   1.782 -2.0996  1.6310  3.8043
  577SOL     OW 1729   1.296   1.056   2.530  0.0939 -0.2415 -0.1611
  577SOL    HW1 1730   1.382   1.105   2.554  1.3376 -1.0666  0.2657
  577SOL    HW2 1731   1.285   1.052   2.432  0.8443  0.7687  0.4947
  578SOL     OW 1732   2.013   1.418   2.242 -0.0379 -0.0843  0.0110
  578SOL    HW1 1733   1.913   1.437   2.243 -2.9001  1.7122 -1.1238
  578SOL    HW2 1734   2.051   1.433   2.148 -0.8007  0.7947  1.0445
  579SOL     OW 1735   1.301   1.969   1.452  0.2228  0.0169  0.0650
  579SOL    HW1 1736   1.209   1.970   1.499 -0.0671  1.0500  1.5253
  579SOL    HW2 1737   1.287   1.937   1.356 -0.2839 -0.6080 -2.9533
  580SOL     OW 1738   1.528   2.277   0.174 -0.4221 -0.0852  0.2176
  580SOL    HW1 1739   1.604   2.290   0.105  4.5482 -1.7099 -0.2172
  580SOL    HW2 1740   1.483   2.186   0.154  1.0940  1.1778  0.9932
  581SOL     OW 1741   1.128   0.761   1.773 -0.2982  0.4118 -0.3859
  581SOL    HW1 1742   1.048   0.705   1.741  0.0059 -0.3532  1.2410
  581SOL    HW2 1743   1.135   0.777   1.874 -1.6555 -1.6523  0.9152
  582SOL     OW 1744   0.890   1.146   1.449 -0.3376  0.2419 -0.3777
  582SOL    HW1 1745   0.981   1.180   1.479 -0.4530  1.6148  1.7515
  582SOL    HW2 1746   0.910   1.054   1.414 -0.2560 -1.0551  1.5154
  583SOL     OW 1747   0.987   1.222   1.878 -0.2431  0.1073  0.0654
  583SOL    HW1 1748   1.085   1.235   1.881 -3.5100  0.6151  0.5471
  583SOL    HW2 1749   0.935   1.313   1.893 -1.1832  1.3347 -0.4408
  584SOL     OW 1750   2.327   2.240   0.829  0.2579  0.2453  0.3472
  584SOL    HW1 1751   2.408   2.184   0.813 -0.2008  0.4583 -2.9576
  584SOL    HW2 1752   2.265   2.229   0.751  2.0702 -0.6088  1.2571
  585SOL     OW 1753   1.976   0.004   2.903  0.3047  0.2902  0.0928
  585SOL    HW1 1754   1.880   0.040   2.895 -0.2333  0.1359  1.2703
  585SOL    HW2 1755   2.039   0.067   2.856 -1.5362 -2.8588 -0.5148
  586SOL     OW 1756   0.033   2.353   0.794  0.5718  0.1551 -0.2980
  586SOL    HW1 1757   0.058   2.392   0.702  0.2507  2.3601  0.5721
  586SOL    HW2 1758   3.012   2.310   0.786  0.7407  2.3204  0.8857
  587SOL     OW 1759   1.558   1.858   2.837  0.2431  0.7128  0.5332
  587SOL    HW1 1760   1.622   1.891   2.905  2.1774  0.3318 -3.0540
  587SOL    HW2 1761   1.517   1.770   2.872  1.8637  1.4689 -0.5430
  588SOL     OW 1762   0.050   0.288   0.949  0.1896  0.3654  0.5135
  588SOL    HW1 1763   0.034   0.218   1.021 -1.3692 -0.6296  2.2398
  588SOL    HW2 1764   0.015   0.246   0.863  0.8595  0.8171  2.1503
  589SOL     OW 1765   1.296   0.690   0.782 -0.0717  0.5192 -0.3274
  589SOL    HW1 1766   1.280   0.732   0.871  2.5833  0.0592 -2.3018
  589SOL    HW2 1767   1.237   0.728   0.709  2.4396  0.2724  2.2624
  590SOL     OW 1768   1.421   1.274   2.939  0.0058 -0.2950 -0.4116
  590SOL    HW1 1769   1.377   1.338   3.005  1.4551 -0.1219  0.0301
  590SOL    HW2 1770   1.405   1.181   2.983 -0.8833 -1.9368  2.8220
  591SOL     OW 1771   2.549   2.305   2.625 -0.1271 -0.7130 -0.3886
  591SOL    HW1 1772   2.510   2.366   2.695  0.6184 -0.5762 -0.1147
  591SOL    HW2 1773   2.594   2.361   2.552  1.2813  2.1261 -1.8861
  592SOL     OW 1774   1.692   2.065   1.464 -0.2470 -0.0667 -0.6498
  592SOL    HW1 1775   1.652   2.133   1.397  2.0427  0.5656 -3.3157
  592SOL    HW2 1776   1.661   1.972   1.448  2.3935  1.6960 -0.1235
  593SOL     OW 1777   0.677   0.120   0.929 -0.7211 -0.3170  0.0239
  593SOL    HW1 1778   0.651   0.103   1.024 -1.2013  0.5232  1.3339
  593SOL    HW2 1779   0.657   0.215   0.895 -0.5110 -2.3825 -0.2114
  594SOL     OW 1780   2.625   0.797   2.396 -0.5773 -0.0193 -0.4523
  594SOL    HW1 1781   2.638   0.860   2.475  1.1235 -0.8881 -1.4977
  594SOL    HW2 1782   2.539   0.821   2.349  0.8691  1.1085  0.1702
  595SOL     OW 1783   0.581   2.737   0.949 -0.1663 -0.4664 -0.1655
  595SOL    HW1 1784   0.558   2.636   0.952 -1.4483 -0.9923  0.7640
  595SOL    HW2 1785   0.557   2.782   1.036  2.5966  0.9337  2.9882
  596SOL     OW 1786   3.060   0.867   1.252 -0.3163  0.9094 -0.1793
  596SOL    HW1 1787   3.041   0.765   1.251  0.9732 -3.1277  1.4159
  596SOL    HW2 1788   0.054   0.901   1.173 -0.3811  2.0876 -2.0980
  597SOL     OW 1789   1.433   1.747   0.239  0.0724  0.0606  0.6238
  597SOL    HW1 1790   1.482   1.678   0.185 -1.3761  0.5225  2.3538
  597SOL    HW2 1791   1.472   1.761   0.333  4.8146 -0.7468  0.8739
  598SOL     OW 1792   0.362   2.940   1.839  0.1477 -0.3613  0.5218
  598SOL    HW1 1793   0.418   2.924   1.757  1.2318  1.1891  1.1101
  598SOL    HW2 1794   0.402   3.006   1.910 -0.2613  1.0674  0.6008
  599SOL     OW 1795   2.431   1.607   2.785  0.0923  0.0108  0.2394
  599SOL    HW1 1796   2.358   1.634   2.722  2.5173 -2.4290  0.0324
  599SOL    HW2 1797   2.522   1.614   2.740  0.7079  0.9400 -0.4456
  600SOL     OW 1798   0.896   1.148   0.208  0.2908  0.1111 -0.3252
  600SOL    HW1 1799   0.795   1.121   0.201 -0.3847  0.9485 -0.6180
  600SOL    HW2 1800   0.945   1.139   0.296 -1.8098 -1.6486 -2.2963
  601SOL     OW 1801   0.537   0.729   0.740  0.4579  0.2693  0.2052
  601SOL    HW1 1802   0.533   0.828   0.742 -2.4705 -1.4501  1.5269
  601SOL    HW2 1803   0.626   0.700   0.778  3.6074 -0.8695 -0.2398
  602SOL     OW 1804   1.712   0.068   0.673  0.5498 -1.0897 -0.0296
  602SOL    HW1 1805   1.787   0.032   0.614 -1.4385 -0.3194 -0.8082
  602SOL    HW2 1806   1.650   0.123   0.614 -2.0494  0.5871 -1.8145
  603SOL     OW 1807   0.781   2.773   2.200 -0.2316  0.2125 -0.3020
  603SOL    HW1 1808   0.842   2.708   2.256  2.4265 -0.5133  0.9765
  603SOL    HW2 1809   0.746   2.734   2.116 -1.0835 -1.8897  0.4852
  604SOL     OW 1810   2.829   0.139   2.524  0.4255  0.4966  0.4407
  604SOL    HW1 1811   2.930   0.118   2.522  0.5649  0.3027 -0.7571
  604SOL    HW2 1812   2.783   0.124   2.439  0.9927  2.7212  1.3390
  605SOL     OW 1813   2.668   1.399   1.224 -0.3258 -0.2147 -0.0462
  605SOL    HW1 1814   2.603   1.331   1.263 -0.8157  4.4605  0.6121
  605SOL    HW2 1815   2.665   1.482   1.286 -0.5280 -0.0647  1.8688
  606SOL     OW 1816   0.826   1.461   2.671 -0.5826  0.6202 -0.6977
  606SOL    HW1 1817   0.837   1.512   2.759 -0.0755  0.0999  1.2794
  606SOL    HW2 1818   0.730   1.458   2.644  1.7258  1.0410 -3.2008
  607SOL     OW 1819   0.557   0.017   0.348  0.0907 -0.4970 -0.0161
  607SOL    HW1 1820   0.605   3.053   0.266 -2.7393 -2.2221  2.2742
  607SOL    HW2 1821   0.607   0.094   0.395  0.3169 -1.6797 -0.1729
  608SOL     OW 1822   1.795   1.544   2.038  0.2364 -0.1849 -0.0111
  608SOL    HW1 1823   1.764   1.449   2.036 -0.1349  0.4278  3.5105
  608SOL    HW2 1824   1.793   1.590   1.947  0.6332 -1.6264  0.4508
  609SOL     OW 1825   2.594   0.354   1.326 -0.5402  0.1226 -0.3211
  609SOL    HW1 1826   2.563   0.265   1.375  2.5741  0.3925 -1.1913
  609SOL    HW2 1827   2.575   0.438   1.378 -0.8616 -0.2324  1.4238
  610SOL     OW 1828   0.433   2.954   0.595  0.2543  0.3571  0.3669
  610SOL    HW1 1829   0.519   2.935   0.546  0.4566 -0.4646 -0.0444
  610SOL    HW2 1830   0.448   2.974   0.697  0.5177 -0.7550 -0.9737
  611SOL     OW 1831   1.566   0.992   2.807  0.1793  0.8244  0.0033
  611SOL    HW1 1832   1.595   1.075   2.758 -0.4161 -0.9707  0.4992
  611SOL    HW2 1833   1.540   0.999   2.902  0.1172  0.2673 -4.1043
  612SOL     OW 1834   0.620   2.160   2.049  0.0591 -0.4754  0.0211
  612SOL    HW1 1835   0.575   2.078   2.101  1.1407 -0.8580  1.0553
  612SOL    HW2 1836   0.638   2.233   2.113 -0.2078  1.4670  0.8065
  613SOL     OW 1837   0.603   2.554   0.682 -0.0325 -0.7457 -0.3086
  613SOL    HW1 1838   0.609   2.456   0.657 -1.3558  0.1767 -0.4722
  613SOL    HW2 1839   0.649   2.611   0.609 -0.1316 -4.3235 -0.9920
  614SOL     OW 1840   2.483   2.773   1.535 -0.5837  0.1732  0.6255
  614SOL    HW1 1841   2.510   2.708   1.610  0.2880  1.2472  1.8113
  614SOL    HW2 1842   2.488   2.870   1.567  0.7879  1.7931 -1.6032
  615SOL     OW 1843   1.632   1.107   0.217 -0.2749 -0.2015 -0.3511
  615SOL    HW1 1844   1.577   1.160   0.276  2.8140 -1.7349 -0.2343
  615SOL    HW2 1845   1.730   1.141   0.232  0.1240 -2.2673 -1.2620
  616SOL     OW 1846   1.728   0.836   0.292 -0.0978 -0.2220 -0.3131
  616SOL    HW1 1847   1.676   0.799   0.368  1.9866 -0.0265 -0.2992
  616SOL    HW2 1848   1.714   0.937   0.283  0.9478 -0.7111  1.8630
  617SOL     OW 1849   0.824   1.154   2.860 -0.3997  0.0778 -0.3503
  617SOL    HW1 1850   0.856   1.070   2.903  1.9530  1.3912  1.4276
  617SOL    HW2 1851   0.851   1.232   2.919 -0.8377  0.0789  0.6151
  618SOL     OW 1852   0.694   2.996   1.859 -0.3672  0.4912 -0.9390
  618SOL    HW1 1853   0.769   2.958   1.922  2.1083  0.0674 -2.2128
  618SOL    HW2 1854   0.615   3.043   1.907 -3.9586 -2.4246  0.4246
  619SOL     OW 1855   2.877   1.063   1.313 -0.4881  0.5117  0.8584
  619SOL    HW1 1856   2.960   1.009   1.291 -0.1969  1.0098  1.0184
  619SOL    HW2 1857   2.807   0.995   1.334 -1.4079  1.1994  1.2027
  620SOL     OW 1858   2.339   1.077   2.819 -0.6051  0.5161  0.5615
  620SOL    HW1 1859   2.313   1.150   2.756 -3.4946 -2.6145  0.3568
  620SOL    HW2 1860   2.261   1.015   2.822 -0.3215  0.6815 -0.7507
  621SOL     OW 1861   2.462   2.358   1.488 -0.5030 -0.3846 -0.1383
  621SOL    HW1 1862   2.465   2.276   1.425  0.2612 -0.9163  1.4196
  621SOL    HW2 1863   2.538   2.360   1.557 -2.4889  0.2717  1.1434
  622SOL     OW 1864   0.889   0.730   2.548 -0.3916 -0.3580  0.0811
  622SOL    HW1 1865   0.842   0.732   2.456 -3.3301 -1.4895 -1.5637
  622SOL    HW2 1866   0.957   0.811   2.540  3.1311  1.2440  0.0182
  623SOL     OW 1867   1.043   0.501   2.494 -0.4132  0.3011 -0.3209
  623SOL    HW1 1868   0.973   0.436   2.523 -1.8253  0.9808 -0.0587
  623SOL    HW2 1869   1.005   0.596   2.517  1.3687 -1.3466 -2.1165
  624SOL     OW 1870   2.102   0.740   0.034  0.4799  0.3621 -0.2904
  624SOL    HW1 1871   2.172   0.747   3.027  1.8631 -0.9736 -0.3933
  624SOL    HW2 1872   2.147   0.736   0.126  0.6691 -1.4274  1.4284
  625SOL     OW 1873   1.149   1.420   0.926 -0.2453 -0.1405 -0.3909
  625SOL    HW1 1874   1.218   1.417   0.848  0.4430  2.7139 -2.3094
  625SOL    HW2 1875   1.184   1.370   1.007  1.4409  2.2616 -0.3268
  626SOL     OW 1876   1.584   1.109   2.434  0.3437 -0.7280 -0.2675
  626SOL    HW1 1877   1.636   1.055   2.362  1.7652 -0.0735 -0.3106
  626SOL    HW2 1878   1.643   1.158   2.505  3.3564  0.8428  1.8070
  627SOL     OW 1879   0.825   2.991   2.660 -0.0667 -0.2859  0.1688
  627SOL    HW1 1880   0.910   2.993   2.715  0.9502  0.3095 -2.1486
  627SOL    HW2 1881   0.757   3.054   2.704  2.8274  1.5109 -1.8455
  628SOL     OW 1882   2.230   0.201   2.550  0.1668  0.1028  0.0995
  628SOL    HW1 1883   2.160   0.183   2.619  1.8917  0.3961  0.6345
  628SOL    HW2 1884   2.259   0.298   2.535 -0.7176 -0.4639  0.7838
  629SOL     OW 1885   0.881   0.670   2.813 -0.1473 -0.4217  0.2905
  629SOL    HW1 1886   0.865   0.690   2.714 -1.4808  1.4947 -0.0429
  629SOL    HW2 1887   0.940   0.737   2.857 -1.7908 -0.7600 -0.8980
  630SOL     OW 1888   1.297   0.213   2.140 -0.1644 -0.2504  0.4077
  630SOL    HW1 1889   1.214   0.191   2.197  2.8575  0.5169  0.8525
  630SOL    HW2 1890   1.356   0.137   2.150 -3.5709  4.9337 -2.0979
  631SOL     OW 1891   2.761   0.920   0.700 -0.3136  0.3594  0.6019
  631SOL    HW1 1892   2.672   0.967   0.676  0.9484  0.4319  2.2148
  631SOL    HW2 1893   2.759   0.820   0.690 -1.1346  2.9037 -0.7513
  632SOL     OW 1894   1.997   0.752   1.464 -0.1803 -1.1353  0.4027
  632SOL    HW1 1895   1.992   0.812   1.545  0.4088  0.0484  1.3330
  632SOL    HW2 1896   2.001   0.659   1.493 -4.1245  6.5331 -1.3151
  633SOL     OW 1897   0.902   1.363   0.548  0.0138 -0.5651 -0.1377
  633SOL    HW1 1898   0.876   1.398   0.643 -1.0175 -1.0377 -0.0285
  633SOL    HW2 1899   0.999   1.397   0.518  2.2140 -2.8907  0.3397
  634SOL     OW 1900   1.941   2.920   0.978  0.1490 -0.2017  0.1747
  634SOL    HW1 1901   1.983   2.995   1.031 -1.4682 -1.4326 -0.8870
  634SOL    HW2 1902   1.939   2.837   1.032 -1.7404  0.7747 -1.5036
  635SOL     OW 1903   1.701   0.576   1.189 -0.1550  0.5525 -0.1754
  635SOL    HW1 1904   1.606   0.611   1.183  1.3573  1.8287 -2.2916
  635SOL    HW2 1905   1.763   0.643   1.236  1.6707 -1.0222 -0.0909
  636SOL     OW 1906   0.986   1.100   0.470 -0.2727 -0.3581  0.2323
  636SOL    HW1 1907   0.968   1.200   0.494  0.3944 -1.0496  0.6481
  636SOL    HW2 1908   0.927   1.046   0.536 -1.1585 -2.7386  2.6920
  637SOL     OW 1909   2.519   2.105   0.033 -0.2313  0.0405  0.7180
  637SOL    HW1 1910   2.593   2.037   0.004  0.5204 -1.8590 -3.2579
  637SOL    HW2 1911   2.448   2.113   3.031 -1.5232 -1.2947  0.2728
  638SOL     OW 1912   1.374   2.684   2.532 -0.1856 -0.1365  1.1016
  638SOL    HW1 1913   1.290   2.651   2.484 -2.0094  0.7479 -0.8625
  638SOL    HW2 1914   1.417   2.604   2.575  0.8490 -0.1343  2.1501
  639SOL     OW 1915   0.979   1.872   1.237 -0.3559  0.1659 -0.2451
  639SOL    HW1 1916   0.902   1.892   1.175  1.1273  2.8599 -1.0448
  639SOL    HW2 1917   1.053   1.939   1.213 -0.2470 -0.3387 -1.3920
  640SOL     OW 1918   2.424   2.956   0.524  0.1115 -0.3215  0.2785
  640SOL    HW1 1919   2.387   3.035   0.474 -0.1179 -2.1979  2.0600
  640SOL    HW2 1920   2.378   2.949   0.617 -1.4472 -1.2587 -0.5869
  641SOL     OW 1921   0.554   0.360   0.365 -0.5712 -0.3427  0.4506
  641SOL    HW1 1922   0.455   0.338   0.377  1.4282  1.2028 -0.6754
  641SOL    HW2 1923   0.563   0.403   0.276 -1.2236 -0.9328  0.2217
  642SOL     OW 1924   2.741   0.721   1.178  0.3752 -0.0044 -0.3371
  642SOL    HW1 1925   2.680   0.645   1.145  1.0984 -2.4976  0.3036
  642SOL    HW2 1926   2.747   0.797   1.111  1.9921  0.6617  2.6847
  643SOL     OW 1927   0.839   1.920   1.884  0.3671  0.5018  0.3387
  643SOL    HW1 1928   0.749   1.885   1.856 -1.6890 -0.6225 -0.9287
  643SOL    HW2 1929   0.846   2.018   1.863  1.6241  1.6217 -2.5212
  644SOL     OW 1930   1.633   2.652   0.126  0.4562 -0.2139  0.1736
  644SOL    HW1 1931   1.672   2.706   0.055  0.3193 -0.3611  3.1512
  644SOL    HW2 1932   1.594   2.710   0.203  0.3829 -0.6010  0.1781
  645SOL     OW 1933   2.054   2.187   0.687  0.4295  0.7056 -0.1488
  645SOL    HW1 1934   2.040   2.284   0.659 -1.7631  2.7167  3.2417
  645SOL    HW2 1935   2.006   2.180   0.779 -1.8032 -3.3642  1.4016
  646SOL     OW 1936   1.201   2.900   0.275  0.0415  0.3724  0.4856
  646SOL    HW1 1937   1.179   2.801   0.266 -2.1613  2.0875  0.2373
  646SOL    HW2 1938   1.148   2.956   0.206  0.9518  3.1026 -3.5849
  647SOL     OW 1939   0.313   2.719   2.008  0.0050  0.4350 -0.4892
  647SOL    HW1 1940   0.320   2.799   1.945  1.2547  3.5018 -0.4396
  647SOL    HW2 1941   0.324   2.635   1.956  0.4618  2.4807  2.7221
  648SOL     OW 1942   1.827   0.806   1.254 -0.2313 -0.0330 -0.3349
  648SOL    HW1 1943   1.876   0.860   1.180 -0.5290 -0.0627 -1.8520
  648SOL    HW2 1944   1.884   0.786   1.337 -1.6652 -0.7926  0.1920
  649SOL     OW 1945   1.440   2.458   2.674 -0.4054  0.4255 -0.0249
  649SOL    HW1 1946   1.382   2.445   2.754 -0.3918 -1.3683 -3.9469
  649SOL    HW2 1947   1.538   2.442   2.694 -1.8560 -1.1054  1.6960
  650SOL     OW 1948   2.465   1.346   1.607 -0.1326  0.2723  0.3382
  650SOL    HW1 1949   2.511   1.427   1.647  1.0954  0.1753 -2.0505
  650SOL    HW2 1950   2.366   1.344   1.634 -0.5860  2.2210 -1.3390
  651SOL     OW 1951   1.385   2.289   2.876  0.1882  0.3148  0.3631
  651SOL    HW1 1952   1.454   2.307   2.947 -0.4254 -2.0321  0.4129
  651SOL    HW2 1953   1.405   2.209   2.816 -2.0266  0.3563 -2.3638
  652SOL     OW 1954   0.867   2.572   3.062 -0.4862  0.3911  0.2161
  652SOL    HW1 1955   0.912   2.658   3.051 -2.3634 -0.6409 -0.6027
  652SOL    HW2 1956   0.828   2.544   2.973 -0.0206  0.5308 -0.3334
  653SOL     OW 1957   2.483   2.142   1.332 -0.0457  0.3567 -0.0009
  653SOL    HW1 1958   2.553   2.125   1.262 -0.1754 -1.7419 -0.1880
  653SOL    HW2 1959   2.391   2.114   1.297  1.7831  0.1284  0.4848
  654SOL     OW 1960   2.865   2.549   1.560  0.1128 -0.4162  0.1695
  654SOL    HW1 1961   2.905   2.642   1.544  0.8862 -2.7306  0.7007
  654SOL    HW2 1962   2.893   2.485   1.487  1.8667 -0.0940 -1.2372
  655SOL     OW 1963   3.066   2.186   1.179 -0.1687  0.3284  0.1336
  655SOL    HW1 1964   2.993   2.117   1.195  0.4572 -0.4969 -1.1060
  655SOL    HW2 1965   3.026   2.273   1.154  2.0934 -1.2181 -0.0736
  656SOL     OW 1966   3.041   2.766   2.711  0.2398 -0.0617 -0.0091
  656SOL    HW1 1967   0.060   2.779   2.667  2.6742 -1.0214  2.1250
  656SOL    HW2 1968   2.967   2.833   2.686  0.4488 -0.0395  0.7178
  657SOL     OW 1969   0.041   0.913   0.211 -0.3053  0.0095  1.0386
  657SOL    HW1 1970   3.067   0.953   0.125  0.9720  2.2300  0.1771
  657SOL    HW2 1971   0.128   0.865   0.186 -0.1749  1.8155 -1.3012
  658SOL     OW 1972   2.133   1.804   0.887  0.0537 -0.4102  0.3072
  658SOL    HW1 1973   2.203   1.756   0.939  0.8525  0.5037 -2.9760
  658SOL    HW2 1974   2.155   1.855   0.800  0.3933  1.2463  0.5992
  659SOL     OW 1975   1.433   0.642   1.375  0.1641  0.1551  0.0228
  659SOL    HW1 1976   1.493   0.720   1.361 -1.2086 -1.0429 -1.5278
  659SOL    HW2 1977   1.482   0.564   1.423 -0.3408  1.0788  2.1986
  660SOL     OW 1978   1.526   1.541   0.105  0.2474 -0.0351 -0.5761
  660SOL    HW1 1979   1.606   1.482   0.136  2.0218  1.8968 -0.7366
  660SOL    HW2 1980   1.441   1.489   0.098 -0.2099 -0.1093  0.4866
  661SOL     OW 1981   0.219   2.079   0.463 -0.3236  0.2597  0.1866
  661SOL    HW1 1982   0.247   2.130   0.380 -1.4894 -1.1760 -0.5855
  661SOL    HW2 1983   0.117   2.090   0.466 -1.3025  0.5118 -0.1050
  662SOL     OW 1984   3.021   0.666   2.089  0.6231  0.4054 -0.5668
  662SOL    HW1 1985   2.988   0.695   2.180 -2.6556 -1.0265 -2.9401
  662SOL    HW2 1986   3.053   0.738   2.022  0.5231 -1.0253 -0.7164
  663SOL     OW 1987   2.086   1.402   0.934  0.2698  0.3334  0.0232
  663SOL    HW1 1988   2.079   1.305   0.964 -0.3188 -0.1870  0.6051
  663SOL    HW2 1989   2.174   1.446   0.968  1.5005  0.7001  1.7649
  664SOL     OW 1990   0.498   0.362   1.130 -0.7212  0.0006 -0.0836
  664SOL    HW1 1991   0.552   0.408   1.060 -2.6707 -3.2823 -1.2960
  664SOL    HW2 1992   0.543   0.271   1.146  0.5142  0.8688  1.1744
  665SOL     OW 1993   1.070   2.990   2.803  0.0363  0.2266  0.0778
  665SOL    HW1 1994   1.157   2.979   2.755 -0.5809 -0.9744  0.7944
  665SOL    HW2 1995   1.064   0.011   2.853 -1.4431 -5.1665 -3.1805
  666SOL     OW 1996   0.109   0.517   2.356 -0.1607 -0.2244  0.0517
  666SOL    HW1 1997   0.151   0.440   2.411 -1.6649  3.2214  0.4733
  666SOL    HW2 1998   0.020   0.490   2.321  1.7423  0.1849 -0.4366
  667SOL     OW 1999   2.028   1.681   2.040  0.3686 -0.2407 -0.1445
  667SOL    HW1 2000   2.099   1.608   2.042 -0.8643 -1.9891 -0.4686
  667SOL    HW2 2001   1.935   1.633   2.029 -3.3038 -0.5182 -0.8766
  668SOL     OW 2002   0.126   1.677   2.919  0.1858 -0.1581  0.0728
  668SOL    HW1 2003   0.212   1.681   2.865 -2.2963 -0.0505 -0.3249
  668SOL    HW2 2004   0.084   1.586   2.933  0.1569 -1.0278  0.2522
  669SOL     OW 2005   2.243   2.658   2.386  0.4305 -0.6249 -0.7232
  669SOL    HW1 2006   2.270   2.557   2.390  0.1298 -1.4283  0.5721
  669SOL    HW2 2007   2.181   2.677   2.306 -0.1329 -1.0321 -1.7553
  670SOL     OW 2008   2.415   1.085   2.464  0.1545  0.1609  0.5556
  670SOL    HW1 2009   2.381   1.138   2.387  0.8236 -1.0204  1.0061
  670SOL    HW2 2010   2.358   1.000   2.475  1.0611 -0.5736 -0.2292
  671SOL     OW 2011   2.381   1.273   0.251 -0.2013  0.1247 -0.2314
  671SOL    HW1 2012   2.436   1.270   0.169 -0.0930 -0.3743 -0.7192
  671SOL    HW2 2013   2.426   1.331   0.318 -0.5058  1.6231  1.6305
  672SOL     OW 2014   2.670   1.168   2.410 -0.4040 -0.1211  0.1859
  672SOL    HW1 2015   2.697   1.208   2.495 -0.0812  0.0588 -2.6796
  672SOL    HW2 2016   2.579   1.127   2.411  0.2266  2.6271  1.4448
  673SOL     OW 2017   2.473   0.959   1.541  0.5152 -0.0359 -0.0916
  673SOL    HW1 2018   2.392   0.958   1.478 -0.5609  2.5599 -1.8105
  673SOL    HW2 2019   2.553   0.923   1.493  0.1786  1.6596  0.7625
  674SOL     OW 2020   1.566   1.789   1.487 -0.2012 -0.6183  0.7667
  674SOL    HW1 2021   1.666   1.758   1.490  1.9616 -1.3110 -0.3222
  674SOL    HW2 2022   1.515   1.704   1.484 -0.6959 -0.1188  2.2357
  675SOL     OW 2023   3.040   0.554   0.953 -0.0916 -0.0532  0.4766
  675SOL    HW1 2024   0.033   0.605   0.892 -2.5205  0.5836  0.1323
  675SOL    HW2 2025   3.066   0.459   0.953  1.4486  1.1828  1.2813
  676SOL     OW 2026   2.054   0.880   1.066 -0.3728  0.5729 -0.4832
  676SOL    HW1 2027   2.145   0.876   1.111 -0.4828 -0.4488  0.8035
  676SOL    HW2 2028   2.026   0.791   1.022 -2.4765  0.0125  2.2940
  677SOL     OW 2029   1.702   1.752   2.192  0.1798 -0.1971 -0.1413
  677SOL    HW1 2030   1.633   1.755   2.119  0.6281 -0.8457  0.5484
  677SOL    HW2 2031   1.751   1.662   2.186 -1.6211 -0.0155 -0.3644
  678SOL     OW 2032   0.009   1.830   0.870 -0.3588  0.1481 -0.2435
  678SOL    HW1 2033   0.038   1.861   0.964 -0.3636  1.4862 -1.5109
  678SOL    HW2 2034   2.989   1.782   0.888 -0.0312  0.6197  0.6677
  679SOL     OW 2035   2.965   2.987   0.507 -0.3672  0.0393  0.5937
  679SOL    HW1 2036   2.875   2.940   0.514  1.3384  0.0800  1.8449
  679SOL    HW2 2037   3.028   2.969   0.592  2.0365 -2.2966 -1.1264
  680SOL     OW 2038   0.216   2.220   1.323  0.1958 -0.1141 -0.1981
  680SOL    HW1 2039   0.304   2.193   1.277  2.5938  1.6815 -1.0674
  680SOL    HW2 2040   0.141   2.210   1.260 -0.7919  1.9805  0.8069
  681SOL     OW 2041   0.714   0.696   1.072  0.0062  0.0208  0.8493
  681SOL    HW1 2042   0.631   0.728   1.124  0.3370 -3.4735  1.7685
  681SOL    HW2 2043   0.754   0.617   1.122 -0.4170 -0.2269 -1.0402
  682SOL     OW 2044   1.676   2.699   0.748 -0.2586 -0.2968  0.2567
  682SOL    HW1 2045   1.671   2.777   0.815  0.1892 -0.7765 -2.4679
  682SOL    HW2 2046   1.695   2.619   0.808 -0.5279 -0.5947 -1.9684
  683SOL     OW 2047   2.019   1.236   1.301  0.2341  0.3431  0.3836
  683SOL    HW1 2048   2.016   1.338   1.304 -3.1176 -1.8237  1.1219
  683SOL    HW2 2049   2.111   1.196   1.286  0.0439  1.0806 -2.2904
  684SOL     OW 2050   0.246   1.615   1.647  0.2771  0.2082  0.0966
  684SOL    HW1 2051   0.301   1.530   1.636  2.1065 -0.9990 -0.2321
  684SOL    HW2 2052   0.149   1.594   1.621  0.7087 -3.0498 -2.4881
  685SOL     OW 2053   2.230   1.764   0.200 -0.3093 -0.1775 -0.0976
  685SOL    HW1 2054   2.174   1.684   0.222  1.7199  2.2865  0.1083
  685SOL    HW2 2055   2.275   1.744   0.112  0.4761 -0.6645  0.6281
  686SOL     OW 2056   2.845   0.401   0.571  0.2324 -0.2216 -0.0695
  686SOL    HW1 2057   2.754   0.391   0.524  0.0781  0.3167 -1.6696
  686SOL    HW2 2058   2.838   0.475   0.640 -0.2764  0.9900  0.0467
  687SOL     OW 2059   1.413   2.924   0.007  0.1459 -0.0128  0.4250
  687SOL    HW1 2060   1.422   2.990   0.088  1.6731 -0.4911  2.9404
  687SOL    HW2 2061   1.326   2.927   3.029  3.3597 -1.8429 -0.7045
  688SOL     OW 2062   2.003   1.961   2.109 -0.0079  0.0483  0.2242
  688SOL    HW1 2063   1.998   1.863   2.110 -0.2569  2.8635  0.1254
  688SOL    HW2 2064   1.975   1.996   2.199  1.7487 -1.8550 -0.6398
  689SOL     OW 2065   2.650   0.982   1.951  0.2831  0.3007 -0.1685
  689SOL    HW1 2066   2.630   0.882   1.971  0.0848  0.3894 -3.5683
  689SOL    HW2 2067   2.586   1.018   1.882 -0.4480  1.8099  1.8580
  690SOL     OW 2068   2.094   1.130   0.962  0.2776 -0.2434 -0.8509
  690SOL    HW1 2069   2.162   1.115   0.890 -1.3651  0.9696 -2.2089
  690SOL    HW2 2070   2.071   1.043   1.012 -0.5522 -1.2367  0.8615
  691SOL     OW 2071   1.139   1.289   1.156 -0.3680  0.5520  0.3330
  691SOL    HW1 2072   1.140   1.190   1.181 -0.2096  0.9294 -0.1407
  691SOL    HW2 2073   1.039   1.305   1.131 -0.1699 -1.3033 -1.3948
  692SOL     OW 2074   1.655   0.241   2.314 -0.1918 -0.1438 -0.5680
  692SOL    HW1 2075   1.675   0.155   2.261  2.1475  0.8988  0.5806
  692SOL    HW2 2076   1.686   0.322   2.263 -1.5369 -1.7688  0.7864
  693SOL     OW 2077   0.146   1.250   2.746  0.0341  0.0878  0.4034
  693SOL    HW1 2078   0.183   1.165   2.793  0.2562 -2.7405  0.4062
  693SOL    HW2 2079   0.067   1.223   2.688 -1.0576 -0.5702 -0.6204
  694SOL     OW 2080   2.313   2.703   0.868  0.1578  0.9341  0.2969
  694SOL    HW1 2081   2.362   2.654   0.796  1.1209 -0.3541 -0.0286
  694SOL    HW2 2082   2.304   2.805   0.855 -0.0289 -0.6794 -1.6610
  695SOL     OW 2083   1.624   1.482   2.578  0.7521 -0.5211 -0.3638
  695SOL    HW1 2084   1.708   1.510   2.628  2.3916 -1.8159 -1.4939
  695SOL    HW2 2085   1.567   1.567   2.566 -1.4502 -0.9192  1.6920
  696SOL     OW 2086   1.784   0.315   1.645  0.0398 -0.5164  0.5693
  696SOL    HW1 2087   1.768   0.384   1.720 -1.6132 -2.6431 -1.3381
  696SOL    HW2 2088   1.726   0.229   1.664 -1.8777 -3.2545  1.7486
  697SOL     OW 2089   1.730   0.243   2.014  0.5507 -0.3188  0.3007
  697SOL    HW1 2090   1.746   0.158   2.068 -2.0745 -0.3396  0.0402
  697SOL    HW2 2091   1.633   0.246   1.976  0.6258  0.2840 -0.9423
  698SOL     OW 2092   1.720   1.436   2.337 -0.4532  0.5040  0.0581
  698SOL    HW1 2093   1.690   1.469   2.431 -0.9101  0.7534  1.5511
  698SOL    HW2 2094   1.642   1.392   2.288  2.2682 -2.3213  0.9364
  699SOL     OW 2095   1.835   1.143   0.557  0.1653  0.3618 -0.5027
  699SOL    HW1 2096   1.763   1.185   0.616 -1.7928 -2.0442  1.9951
  699SOL    HW2 2097   1.876   1.056   0.595  0.3276  0.6050  2.2148
  700SOL     OW 2098   1.495   2.753   0.323 -0.0068  0.1599 -0.2630
  700SOL    HW1 2099   1.479   2.719   0.420 -2.9835 -1.4742  2.4492
  700SOL    HW2 2100   1.453   2.850   0.309 -2.5532  0.4176 -1.6442
  701SOL     OW 2101   0.161   0.175   1.413  0.0348 -0.8017  0.3517
  701SOL    HW1 2102   0.156   0.282   1.410  0.4673  3.3637 -1.4602
  701SOL    HW2 2103   0.235   0.144   1.471 -1.9892  1.9020 -3.2929
  702SOL     OW 2104   1.605   2.794   1.358 -0.4367  0.2605  0.4805
  702SOL    HW1 2105   1.659   2.716   1.321 -1.4155 -2.2701  1.1655
  702SOL    HW2 2106   1.592   2.782   1.456  2.9480 -0.5709 -2.3479
  703SOL     OW 2107   2.482   2.836   2.237  0.1048  0.3346  0.3712
  703SOL    HW1 2108   2.501   2.848   2.337 -2.5698 -3.3144 -0.3873
  703SOL    HW2 2109   2.446   2.739   2.223 -1.0019 -1.7173  1.2503
  704SOL     OW 2110   1.448   2.283   0.973  0.0099 -0.1002  0.0042
  704SOL    HW1 2111   1.423   2.228   1.055  0.5786  3.0114 -1.3528
  704SOL    HW2 2112   1.381   2.277   0.891 -1.5275  2.3511  1.0058
  705SOL     OW 2113   0.288   1.686   2.175 -0.0661  0.1156 -0.2389
  705SOL    HW1 2114   0.386   1.687   2.206 -0.7313  0.6478  1.0871
  705SOL    HW2 2115   0.234   1.651   2.251 -0.7023  1.3224  2.3032
  706SOL     OW 2116   1.654   0.342   0.011  0.5324 -0.0087  0.4309
  706SOL    HW1 2117   1.586   0.299   3.017  0.7640  0.5694  0.0181
  706SOL    HW2 2118   1.696   0.270   0.073 -0.0906 -1.2441 -1.0460
  707SOL     OW 2119   1.550   2.595   1.997 -0.9599 -0.5579 -0.3914
  707SOL    HW1 2120   1.544   2.500   2.034 -3.0190 -0.5520 -1.6565
  707SOL    HW2 2121   1.467   2.621   1.940 -0.4483  0.7775 -2.7807
  708SOL     OW 2122   0.618   2.070   1.479  0.1201  0.0426  0.0583
  708SOL    HW1 2123   0.632   1.971   1.464  3.0898  0.6925  1.0124
  708SOL    HW2 2124   0.702   2.102   1.519 -1.4557  0.4666 -0.2158
  709SOL     OW 2125   2.617   0.551   1.973  0.4573  0.4597  0.1281
  709SOL    HW1 2126   2.560   0.569   2.056 -2.1632  0.6959  1.8457
  709SOL    HW2 2127   2.564   0.476   1.924  1.1275 -0.7748 -1.0641
  710SOL     OW 2128   2.886   0.237   1.577 -0.2837 -0.1829  0.0696
  710SOL    HW1 2129   2.868   0.269   1.481  2.7192 -0.5711 -2.1049
  710SOL    HW2 2130   2.946   0.304   1.626  1.0657  0.5224  2.0371
  711SOL     OW 2131   0.080   2.447   0.528 -0.2495  0.1933 -0.4589
  711SOL    HW1 2132   0.181   2.447   0.525  0.5345  2.6392  2.4285
  711SOL    HW2 2133   0.062   2.526   0.471  2.4643  0.6798  1.6644
  712SOL     OW 2134   0.238   2.762   2.593 -0.4707 -0.3586 -0.1079
  712SOL    HW1 2135   0.300   2.841   2.616 -0.0335  0.2021 -0.4378
  712SOL    HW2 2136   0.273   2.675   2.641  1.7787 -2.8311 -0.5821
  713SOL     OW 2137   1.965   0.476   0.279  0.2385 -0.3944  0.0148
  713SOL    HW1 2138   1.947   0.465   0.178 -0.8088 -1.5508 -2.1258
  713SOL    HW2 2139   1.880   0.507   0.326  1.2395 -0.4062  0.0767
  714SOL     OW 2140   1.681   2.056   0.464 -0.3619  0.6532 -0.1673
  714SOL    HW1 2141   1.635   2.143   0.463 -2.5163  0.7977  1.1100
  714SOL    HW2 2142   1.784   2.080   0.459  1.8704  0.9759 -0.3912
  715SOL     OW 2143   3.036   0.414   0.145 -0.1170 -0.1564  0.3843
  715SOL    HW1 2144   2.989   0.465   0.072  0.9322 -0.8997 -1.9625
  715SOL    HW2 2145   0.063   0.450   0.167  2.3658  0.0918 -3.1304
  716SOL     OW 2146   0.896   2.989   2.085  0.7285  0.1788 -0.0855
  716SOL    HW1 2147   0.975   2.998   2.018  0.3775  1.2459 -2.6085
  716SOL    HW2 2148   0.881   2.901   2.127  0.1992  0.7314 -0.1563
  717SOL     OW 2149   0.236   0.575   2.649  0.1474 -0.0499 -0.4839
  717SOL    HW1 2150   0.332   0.544   2.633  1.9892  1.6405  1.2456
  717SOL    HW2 2151   0.221   0.667   2.607  1.9566 -2.4958  1.3945
  718SOL     OW 2152   1.127   0.770   0.584  0.0209  0.2459  0.1600
  718SOL    HW1 2153   1.126   0.856   0.531  0.6750 -0.4127  0.9087
  718SOL    HW2 2154   1.057   0.701   0.558 -0.8268  1.6428 -0.4085
  719SOL     OW 2155   2.362   2.107   2.869 -0.4006 -0.6513 -0.0931
  719SOL    HW1 2156   2.399   2.064   2.782  3.7908 -2.1101  0.5056
  719SOL    HW2 2157   2.396   2.207   2.874  0.3513  2.2551  0.7375
  720SOL     OW 2158   1.544   0.857   1.855  0.1255 -0.0249  0.1712
  720SOL    HW1 2159   1.591   0.808   1.783 -0.1021  0.3669 -2.3135
  720SOL    HW2 2160   1.530   0.790   1.929  2.4564  1.5153 -0.3643
  721SOL     OW 2161   0.045   2.940   1.194 -0.0927 -0.4585 -0.2209
  721SOL    HW1 2162   0.010   3.035   1.184  0.4421  1.7349  1.6472
  721SOL    HW2 2163   0.143   2.932   1.157  3.4939  1.5642 -0.9210
  722SOL     OW 2164   1.177   2.071   2.454  0.0468  0.1708  0.2516
  722SOL    HW1 2165   1.278   2.079   2.452  2.3339 -1.3761  1.9472
  722SOL    HW2 2166   1.147   1.978   2.441 -1.8459  3.2301 -1.7130
  723SOL     OW 2167   1.441   0.516   0.640 -0.0046 -0.0898  0.3413
  723SOL    HW1 2168   1.395   0.586   0.698 -0.3291 -1.3997 -0.5736
  723SOL    HW2 2169   1.493   0.449   0.700 -0.3161  0.1429 -1.2607
  724SOL     OW 2170   0.586   2.056   2.753 -0.2594  0.0017 -0.1159
  724SOL    HW1 2171   0.496   2.008   2.758 -0.9815 -0.3579 -0.9583
  724SOL    HW2 2172   0.647   2.034   2.830  1.4588  0.0875  3.8599
  725SOL     OW 2173   2.980   0.599   1.220  0.4086 -0.1811  0.4131
  725SOL    HW1 2174   2.876   0.624   1.222 -3.0148  0.3637  0.9560
  725SOL    HW2 2175   3.019   0.605   1.127  1.2236  1.4325  2.2960
  726SOL     OW 2176   1.999   0.048   0.750  0.7053  0.7293 -0.1639
  726SOL    HW1 2177   1.961   0.015   0.662  1.2578 -0.9744  2.7540
  726SOL    HW2 2178   1.963   3.065   0.831 -1.2930  2.5378 -0.1995
  727SOL     OW 2179   1.912   1.227   2.038  0.9225  0.3085  0.1236
  727SOL    HW1 2180   1.814   1.251   2.049  2.3062  1.8139  1.4956
  727SOL    HW2 2181   1.948   1.230   2.129 -3.4181 -2.8634 -2.9309
  728SOL     OW 2182   1.489   2.618   1.644 -0.3316  0.2555  0.1127
  728SOL    HW1 2183   1.472   2.719   1.628  1.0602  0.3033 -0.2189
  728SOL    HW2 2184   1.479   2.564   1.559  0.1916 -1.1590  3.2049
  729SOL     OW 2185   1.774   0.468   2.252  0.0096 -0.1340  0.0203
  729SOL    HW1 2186   1.876   0.469   2.240  3.0015  2.1975  1.5938
  729SOL    HW2 2187   1.739   0.564   2.246  0.9682 -1.1249  0.7554
  730SOL     OW 2188   0.483   1.022   1.106 -0.4867 -0.4366 -0.5311
  730SOL    HW1 2189   0.505   0.933   1.142 -1.3147  2.6675 -1.0921
  730SOL    HW2 2190   0.381   1.047   1.098 -1.5478 -0.2330 -0.2893
  731SOL     OW 2191   0.584   0.178   0.021 -0.2236  0.1081  0.2667
  731SOL    HW1 2192   0.660   0.170   0.087  0.4923  0.5778  1.0154
  731SOL    HW2 2193   0.518   0.254   0.032  3.3953 -2.9333  1.6055
  732SOL     OW 2194   0.591   0.839   0.315  0.5319  0.5314  0.3441
  732SOL    HW1 2195   0.575   0.749   0.358 -1.0088 -0.5734 -0.6729
  732SOL    HW2 2196   0.567   0.915   0.382  0.2962  3.0414 -1.1551
  733SOL     OW 2197   1.251   1.543   2.040  0.2794  0.0182 -0.6821
  733SOL    HW1 2198   1.312   1.623   2.031  0.1608 -1.2620  0.3576
  733SOL    HW2 2199   1.270   1.478   1.966  0.0574  1.4661 -0.4724
  734SOL     OW 2200   0.060   2.327   2.172  0.6440  0.4089 -0.5547
  734SOL    HW1 2201   0.072   2.352   2.076 -0.7927  1.5224  0.3005
  734SOL    HW2 2202   3.059   2.392   2.217  0.9445 -0.5135  0.8808
  735SOL     OW 2203   1.579   0.163   1.035  0.4773 -0.1052 -0.8361
  735SOL    HW1 2204   1.628   0.079   1.010 -2.0917  1.5227  3.2073
  735SOL    HW2 2205   1.478   0.155   1.013 -2.1851 -0.7252  1.0074
  736SOL     OW 2206   0.910   1.335   0.021  0.4237  0.4207 -0.0585
  736SOL    HW1 2207   0.917   1.253   0.084  0.8656 -2.5907 -1.5556
  736SOL    HW2 2208   0.979   1.408   0.040 -0.8372  0.7216 -1.7502
  737SOL     OW 2209   0.037   0.736   0.723 -0.5127 -1.0077  0.3239
  737SOL    HW1 2210   0.131   0.743   0.680 -1.3650 -0.3421 -0.3414
  737SOL    HW2 2211   3.044   0.723   0.642 -0.6432  0.2805 -1.6504
  738SOL     OW 2212   0.516   2.290   1.572 -0.2810  0.2983  0.0697
  738SOL    HW1 2213   0.557   2.367   1.521 -1.2752 -0.7771  1.3692
  738SOL    HW2 2214   0.552   2.200   1.538 -1.1061 -0.9802 -0.9780
  739SOL     OW 2215   1.237   2.639   2.965 -0.0056  0.1156  0.6626
  739SOL    HW1 2216   1.256   2.608   3.060  2.5310  1.2117  0.8554
  739SOL    HW2 2217   1.329   2.648   2.923 -0.2263 -0.8123 -0.2501
  740SOL     OW 2218   1.776   2.595   1.302  0.2566  0.0405  0.0727
  740SOL    HW1 2219   1.821   2.544   1.379 -2.3250  1.7892 -1.3719
  740SOL    HW2 2220   1.736   2.531   1.241  0.3254  2.2540  1.5366
  741SOL     OW 2221   2.115   0.419   0.868 -0.0363 -0.6938  0.1335
  741SOL    HW1 2222   2.123   0.520   0.856 -0.8940  1.6745  1.6976
  741SOL    HW2 2223   2.176   0.386   0.943 -1.8951  0.5937 -0.9679
  742SOL     OW 2224   1.209   2.524   2.370 -0.4798  0.5456 -0.6112
  742SOL    HW1 2225   1.183   2.470   2.287  0.5343  2.7040 -1.5234
  742SOL    HW2 2226   1.145   2.511   2.445  2.1918  0.0978 -4.8599
  743SOL     OW 2227   2.257   0.710   2.031 -0.0567 -0.0653 -0.0021
  743SOL    HW1 2228   2.248   0.708   1.931  3.6079  0.2858  1.4788
  743SOL    HW2 2229   2.317   0.636   2.067 -0.1664 -1.1895 -0.3615
  744SOL     OW 2230   1.941   0.582   1.079  0.4622 -0.8614  0.3073
  744SOL    HW1 2231   1.972   0.555   0.989 -1.1001  1.6628  2.0491
  744SOL    HW2 2232   1.842   0.575   1.083  2.8622  0.2467  1.7258
  745SOL     OW 2233   2.333   1.036   1.965  0.2576  0.1021 -0.2284
  745SOL    HW1 2234   2.384   1.090   1.891  1.1058 -0.4879 -1.8817
  745SOL    HW2 2235   2.336   0.940   1.931 -2.3870  0.1787 -1.3070
  746SOL     OW 2236   1.447   1.684   0.691 -0.2291  0.6914  0.2292
  746SOL    HW1 2237   1.456   1.748   0.617 -2.5113  1.6353  0.3848
  746SOL    HW2 2238   1.374   1.706   0.760 -0.8723 -2.0465  2.6306
  747SOL     OW 2239   1.936   1.866   1.069  0.0073  0.2075 -0.5396
  747SOL    HW1 2240   1.836   1.857   1.050 -1.4426  0.6664  1.4455
  747SOL    HW2 2241   1.987   1.817   0.991  1.0192 -1.9863 -2.7216
  748SOL     OW 2242   0.298   2.985   0.333 -0.7039  0.4654 -0.6577
  748SOL    HW1 2243   0.300   2.986   0.433 -0.6398 -1.6335  1.2543
  748SOL    HW2 2244   0.393   3.011   0.306  0.8650 -2.0764  3.2444
  749SOL     OW 2245   0.251   0.964   2.334  0.0240  0.4132 -0.1000
  749SOL    HW1 2246   0.246   0.941   2.236 -0.8164  0.1444  0.3666
  749SOL    HW2 2247   0.178   1.032   2.354  1.7280  0.9423 -1.3200
  750SOL     OW 2248   1.332   2.978   1.862 -0.0097  0.3452  0.7505
  750SOL    HW1 2249   1.426   3.012   1.842  0.5061 -2.3224  2.1705
  750SOL    HW2 2250   1.319   3.001   1.962 -0.9666 -1.1461  2.2255
  751SOL     OW 2251   2.666   0.589   0.185  0.7547 -0.1513  0.1337
  751SOL    HW1 2252   2.668   0.596   0.284  0.1165 -0.0339 -1.8245
  751SOL    HW2 2253   2.614   0.505   0.157  2.4693 -0.5626 -3.1792
  752SOL     OW 2254   0.214   2.164   0.749 -0.2464 -0.2723 -0.6331
  752SOL    HW1 2255   0.203   2.137   0.653  0.2193 -0.0993  2.8738
  752SOL    HW2 2256   0.136   2.229   0.774 -2.1655  1.2289 -0.9539
  753SOL     OW 2257   0.868   3.033   0.837 -0.1370 -0.2266  0.3192
  753SOL    HW1 2258   0.951   0.010   0.804 -1.3150  0.6729  1.3890
  753SOL    HW2 2259   0.800   0.034   0.867  1.6784  1.2693 -0.9121
  754SOL     OW 2260   0.556   0.068   2.276  0.3220 -0.9531 -0.0766
  754SOL    HW1 2261   0.465   0.116   2.267 -2.3261 -1.0625 -1.6964
  754SOL    HW2 2262   0.545   3.031   2.268  1.2232 -2.2434  0.4546
  755SOL     OW 2263   1.862   1.026   3.028 -0.2020 -0.7617  0.0509
  755SOL    HW1 2264   1.785   1.091   3.053  0.7725  1.6178  1.1735
  755SOL    HW2 2265   1.840   0.932   3.060  1.7365  2.8695  0.4288
  756SOL     OW 2266   2.212   2.199   2.462 -0.4688  0.4475 -0.0690
  756SOL    HW1 2267   2.255   2.114   2.436  0.4611  3.1162  0.2078
  756SOL    HW2 2268   2.172   2.192   2.557  0.3148 -0.8670  0.3958
  757SOL     OW 2269   1.705   0.536   0.363  0.1385 -1.2403  0.0211
  757SOL    HW1 2270   1.671   0.610   0.424  1.3792 -0.5519 -1.9319
  757SOL    HW2 2271   1.723   0.455   0.421 -1.0704  2.1128  2.2904
  758SOL     OW 2272   1.720   0.315   1.228  0.2056 -0.4236 -0.3362
  758SOL    HW1 2273   1.672   0.245   1.169  1.1266  0.3275  1.8075
  758SOL    HW2 2274   1.721   0.406   1.183 -1.1250 -0.0659 -1.5658
  759SOL     OW 2275   2.514   0.576   1.106  0.0878  0.0609 -0.4005
  759SOL    HW1 2276   2.471   0.571   1.196  1.0659 -0.4968 -2.6120
  759SOL    HW2 2277   2.530   0.486   1.059  1.3511  0.2521 -0.4234
  760SOL     OW 2278   2.296   1.107   1.238  0.1571 -0.1731 -0.0214
  760SOL    HW1 2279   2.338   1.103   1.146 -1.2344  1.2167  1.9076
  760SOL    HW2 2280   2.264   1.016   1.271 -0.4577 -0.0994 -2.4860
  761SOL     OW 2281   0.210   0.535   0.215 -0.4423 -0.4854  0.0905
  761SOL    HW1 2282   0.253   0.626   0.188 -0.7942  3.3278  0.6020
  761SOL    HW2 2283   0.180   0.535   0.316 -1.4621 -2.4892  0.9950
  762SOL     OW 2284   1.488   1.814   1.211  0.1036  0.1638 -0.4037
  762SOL    HW1 2285   1.515   1.791   1.306 -0.1430 -0.1364 -4.9151
  762SOL    HW2 2286   1.468   1.726   1.158 -0.1393 -1.1951 -0.1007
  763SOL     OW 2287   1.255   1.217   1.868  0.3872  0.0365 -0.3711
  763SOL    HW1 2288   1.339   1.249   1.820 -0.9744  0.0448  1.3175
  763SOL    HW2 2289   1.250   1.116   1.853  0.4921 -1.6210  2.9978
  764SOL     OW 2290   2.993   1.780   2.590  0.5653 -0.6691  1.0560
  764SOL    HW1 2291   2.997   1.871   2.542 -0.8177 -0.9239 -0.7525
  764SOL    HW2 2292   2.984   1.794   2.691  0.2995 -2.5135  1.6875
  765SOL     OW 2293   1.278   2.670   1.194 -0.6180 -0.4128  0.4424
  765SOL    HW1 2294   1.358   2.648   1.131 -0.2739 -0.1766 -2.1888
  765SOL    HW2 2295   1.189   2.636   1.163  1.2471  0.9480  1.4897
  766SOL     OW 2296   2.980   2.513   2.514  0.3186  0.3630 -0.7376
  766SOL    HW1 2297   2.911   2.568   2.565  1.9148 -1.0814  1.1965
  766SOL    HW2 2298   2.975   2.415   2.549  2.2190  0.8708  0.9567
  767SOL     OW 2299   1.215   0.780   2.037  0.6454  0.1562  0.2072
  767SOL    HW1 2300   1.302   0.827   2.069 -0.0913 -0.2174  0.5571
  767SOL    HW2 2301   1.194   0.694   2.086 -0.7608 -1.6598  0.7876
  768SOL     OW 2302   1.132   2.247   2.924  0.1859 -0.4193  0.1300
  768SOL    HW1 2303   1.218   2.297   2.906 -1.6686 -0.9471 -1.2283
  768SOL    HW2 2304   1.108   2.193   2.843  0.1031 -1.2307 -0.8963
  769SOL     OW 2305   0.474   2.115   1.195 -0.4430 -0.3327 -0.7411
  769SOL    HW1 2306   0.478   2.021   1.240  2.1338  0.3374 -0.4634
  769SOL    HW2 2307   0.563   2.163   1.207 -2.1009 -0.1012 -0.3977
  770SOL     OW 2308   1.503   0.729   2.791 -0.0813 -0.0591 -0.5951
  770SOL    HW1 2309   1.585   0.668   2.812 -0.5377  0.3371  1.3269
  770SOL    HW2 2310   1.529   0.826   2.790 -0.1340 -0.6614  1.2317
  771SOL     OW 2311   0.064   0.023   2.145  0.1695  0.5820  0.2876
  771SOL    HW1 2312   0.068   2.990   2.140 -1.1142 -1.0686 -1.5734
  771SOL    HW2 2313   0.103   0.070   2.063 -1.1353  1.2521 -0.8604
  772SOL     OW 2314   2.128   2.694   2.158 -0.2009 -0.1299 -0.3937
  772SOL    HW1 2315   2.165   2.597   2.150 -1.4831 -0.3682 -0.3270
  772SOL    HW2 2316   2.139   2.737   2.065  0.2708  1.2550 -1.0044
  773SOL     OW 2317   1.025   1.914   1.520  0.3317 -0.2380  0.4602
  773SOL    HW1 2318   1.003   1.877   1.426 -1.4001 -0.7824 -1.2575
  773SOL    HW2 2319   0.956   1.981   1.550  1.8375 -0.1192  0.3213
  774SOL     OW 2320   1.091   0.089   1.931  0.0688 -0.2375 -0.0431
  774SOL    HW1 2321   1.165   0.125   1.989  0.6559 -0.6975 -2.2520
  774SOL    HW2 2322   1.002   0.132   1.944  0.6002 -0.6143  0.6456
  775SOL     OW 2323   2.036   2.986   0.085  0.1807 -0.4120  0.5773
  775SOL    HW1 2324   2.025   3.030   3.062  2.0783  0.6519  2.3031
  775SOL    HW2 2325   2.046   2.885   0.075 -1.6027  1.1777 -0.5988
  776SOL     OW 2326   2.897   0.825   2.288  0.0362  0.4161  0.1949
  776SOL    HW1 2327   2.801   0.806   2.314 -1.1628 -1.1229 -0.5485
  776SOL    HW2 2328   2.909   0.926   2.261 -2.2890  0.6884 -1.4217
  777SOL     OW 2329   2.504   2.173   2.033 -0.5740 -0.0317  0.2798
  777SOL    HW1 2330   2.422   2.116   2.017 -0.8375 -3.6941 -0.8266
  777SOL    HW2 2331   2.487   2.270   2.002 -3.3724  0.4170  2.2591
  778SOL     OW 2332   1.744   0.949   2.277  0.2656  0.3685 -0.5218
  778SOL    HW1 2333   1.723   0.909   2.371 -1.0081 -0.6343  1.8848
  778SOL    HW2 2334   1.828   0.912   2.233  1.6033 -2.1299 -0.9562
  779SOL     OW 2335   2.589   0.389   0.468  0.3406  0.1843  0.1064
  779SOL    HW1 2336   2.538   0.328   0.538 -3.0695 -3.7480  3.4015
  779SOL    HW2 2337   2.525   0.444   0.415 -0.2200 -3.9899  0.6873
  780SOL     OW 2338   2.394   0.517   0.309 -0.5351 -0.3083 -0.0670
  780SOL    HW1 2339   2.417   0.460   0.230 -1.7504 -0.5698  0.4155
  780SOL    HW2 2340   2.358   0.607   0.272 -1.0853  1.0309 -3.1961
  781SOL     OW 2341   0.226   2.491   1.325  0.0823  0.1280  0.3435
  781SOL    HW1 2342   0.228   2.391   1.334 -0.0500  0.6147 -1.6584
  781SOL    HW2 2343   0.206   2.519   1.229  0.7938  0.8525  1.3467
  782SOL     OW 2344   2.251   2.436   0.123  0.6725 -0.2180 -0.2709
  782SOL    HW1 2345   2.207   2.471   0.208  1.5978  0.2551 -3.0051
  782SOL    HW2 2346   2.340   2.397   0.138 -1.0547 -0.2984 -1.9672
  783SOL     OW 2347   0.651   1.181   1.266 -0.1099  0.0151 -0.0376
  783SOL    HW1 2348   0.631   1.125   1.185 -2.0660 -0.3657  4.0394
  783SOL    HW2 2349   0.737   1.139   1.309  3.5987 -3.3942  1.6766
  784SOL     OW 2350   1.340   0.493   2.546  0.2057 -0.0050  0.4160
  784SOL    HW1 2351   1.239   0.491   2.530  2.2110 -2.8904  0.5831
  784SOL    HW2 2352   1.384   0.561   2.485  0.0863 -1.1858  1.2600
  785SOL     OW 2353   2.189   0.312   1.140  0.7881  0.1402 -0.3559
  785SOL    HW1 2354   2.287   0.298   1.160  0.4795  1.7266  4.0363
  785SOL    HW2 2355   2.143   0.369   1.212 -2.5679 -0.0161 -0.7560
  786SOL     OW 2356   1.223   2.128   1.809 -0.0218  0.5851  0.5301
  786SOL    HW1 2357   1.258   2.159   1.898  0.6152  3.3879 -2.0517
  786SOL    HW2 2358   1.269   2.040   1.782 -0.5318 -2.8752  0.4232
  787SOL     OW 2359   1.515   0.370   1.409  0.1087  0.4007  0.6034
  787SOL    HW1 2360   1.603   0.328   1.372  2.2708 -0.5562  0.2718
  787SOL    HW2 2361   1.437   0.303   1.377 -4.5549  0.3558 -0.8750
  788SOL     OW 2362   0.273   0.710   0.582 -0.0192  0.5017 -0.1539
  788SOL    HW1 2363   0.366   0.691   0.621 -1.5716  0.6368 -0.7696
  788SOL    HW2 2364   0.279   0.764   0.495 -1.7080 -1.2441  3.6686
  789SOL     OW 2365   0.309   1.863   1.481  0.0425 -0.2963 -0.3138
  789SOL    HW1 2366   0.250   1.937   1.522  0.6614  0.2345 -0.8800
  789SOL    HW2 2367   0.360   1.808   1.551  1.3344 -2.8807  1.3549
  790SOL     OW 2368   0.794   0.741   2.305 -0.0948 -0.5862 -0.0719
  790SOL    HW1 2369   0.708   0.778   2.267 -2.8551  0.0859  0.6939
  790SOL    HW2 2370   0.868   0.766   2.245 -0.7219  0.6062  1.0110
  791SOL     OW 2371   1.653   0.593   0.886  0.0172 -0.3939 -0.1739
  791SOL    HW1 2372   1.587   0.619   0.962 -2.2861 -2.9852 -1.6124
  791SOL    HW2 2373   1.630   0.498   0.854 -0.2133 -3.9412  0.6430
  792SOL     OW 2374   1.120   2.385   2.164 -0.4594  0.0803 -0.4656
  792SOL    HW1 2375   1.129   2.461   2.094  1.2293 -1.3779  0.5798
  792SOL    HW2 2376   1.037   2.328   2.145 -4.1419 -1.3872  0.8950
  793SOL     OW 2377   0.904   0.584   0.522  0.0698  0.0232  0.1145
  793SOL    HW1 2378   0.874   0.623   0.436  1.6945 -1.1890  0.5089
  793SOL    HW2 2379   0.827   0.533   0.568 -0.5944 -1.8892  0.3200
  794SOL     OW 2380   0.862   1.004   1.982  0.7690 -0.1542  0.1247
  794SOL    HW1 2381   0.763   1.032   1.999 -2.2171  2.0852  1.1115
  794SOL    HW2 2382   0.905   1.077   1.924 -0.9134  0.4794  2.5550
  795SOL     OW 2383   0.324   1.982   2.410 -1.0106 -0.0233 -0.2022
  795SOL    HW1 2384   0.231   2.001   2.383  2.7436 -0.7467  0.4556
  795SOL    HW2 2385   0.373   2.071   2.431  0.9986  1.7313 -0.2532
  796SOL     OW 2386   2.377   0.796   2.267  0.3465  0.5320  0.2095
  796SOL    HW1 2387   2.306   0.828   2.333  1.9261  1.0721 -0.5116
  796SOL    HW2 2388   2.352   0.804   2.170 -0.2948  2.1004  3.0780
  797SOL     OW 2389   2.746   2.210   2.786 -0.4655  0.6324 -0.0020
  797SOL    HW1 2390   2.663   2.215   2.728 -1.2776  1.4961  1.7185
  797SOL    HW2 2391   2.727   2.277   2.861 -0.1571 -1.1701  2.0424
  798SOL     OW 2392   0.092   2.812   2.123  0.3849 -0.1638 -0.4052
  798SOL    HW1 2393   0.013   2.795   2.060  0.2564 -3.1068 -0.1727
  798SOL    HW2 2394   0.174   2.779   2.076 -1.7937 -1.0355  2.1199
  799SOL     OW 2395   0.202   2.491   2.355  0.1581  0.3952  0.2316
  799SOL    HW1 2396   0.161   2.530   2.440 -0.2590 -1.0626 -0.6036
  799SOL    HW2 2397   0.135   2.436   2.304 -0.9009  0.7932 -1.6270
  800SOL     OW 2398   0.266   2.200   0.225  0.5417 -0.1564  0.1800
  800SOL    HW1 2399   0.272   2.303   0.236  0.4590  2.1623  0.8953
  800SOL    HW2 2400   0.356   2.158   0.207 -2.8008 -1.6181  1.6899
  801SOL     OW 2401   1.832   1.469   0.966  0.1725 -0.0941  0.2646
  801SOL    HW1 2402   1.807   1.538   0.893  0.4457 -1.6598 -3.9935
  801SOL    HW2 2403   1.929   1.439   0.965  0.4250  1.0924  0.3253
  802SOL     OW 2404   0.085   1.063   0.429 -0.6002 -0.4509 -0.7036
  802SOL    HW1 2405   0.064   1.040   0.332 -0.7049  1.2026  0.3952
  802SOL    HW2 2406   3.065   1.055   0.485 -1.0103 -1.7914  2.2984
  803SOL     OW 2407   1.266   1.892   2.170  0.7461 -0.1291 -0.2718
  803SOL    HW1 2408   1.262   1.994   2.171  0.2420 -0.2265  0.0202
  803SOL    HW2 2409   1.241   1.849   2.261  0.6793 -2.7378  1.6917
  804SOL     OW 2410   1.764   1.449   0.545  0.1962  0.1174  0.0931
  804SOL    HW1 2411   1.864   1.467   0.556 -0.1335  1.5589 -1.2006
  804SOL    HW2 2412   1.700   1.508   0.605 -0.2706  1.0801  1.6616
  805SOL     OW 2413   2.501   1.224   0.011  0.5766 -0.1610  0.4023
  805SOL    HW1 2414   2.453   1.278   3.009  0.3280 -2.6358  0.0651
  805SOL    HW2 2415   2.505   1.126   3.051  0.5321 -0.4247  0.5809
  806SOL     OW 2416   0.702   2.731   0.469 -0.2366  0.7594  0.2623
  806SOL    HW1 2417   0.786   2.678   0.446  0.6927  3.6174 -0.9351
  806SOL    HW2 2418   0.665   2.768   0.376  0.6841  0.1882 -2.5127
  807SOL     OW 2419   2.265   1.686   2.577 -0.1833  0.0493 -0.2567
  807SOL    HW1 2420   2.209   1.774   2.596 -4.1016  2.8363  0.4347
  807SOL    HW2 2421   2.222   1.639   2.499 -0.5889  2.9034  0.8544
  808SOL     OW 2422   1.021   1.650   1.017 -0.2773 -0.0691  0.1127
  808SOL    HW1 2423   1.070   1.572   0.973 -0.2135  1.5313 -0.5284
  808SOL    HW2 2424   1.000   1.629   1.114 -0.7712 -0.1063  1.8705
  809SOL     OW 2425   2.718   0.636   0.715  0.8468 -0.7156  1.0043
  809SOL    HW1 2426   2.620   0.616   0.736 -1.1617  1.3387  0.0704
  809SOL    HW2 2427   2.737   0.660   0.617 -0.4550 -2.7906  1.9066
  810SOL     OW 2428   0.614   1.303   0.566  0.4425 -0.0788  0.3418
  810SOL    HW1 2429   0.576   1.386   0.616 -0.4933 -2.5559  1.6762
  810SOL    HW2 2430   0.716   1.311   0.546  1.7083  3.1245 -0.4335
  811SOL     OW 2431   1.730   2.356   1.114  0.5040  0.7722 -0.0311
  811SOL    HW1 2432   1.824   2.317   1.138 -0.0675  0.0381  1.3720
  811SOL    HW2 2433   1.663   2.295   1.161  2.3052 -0.4781  1.5466
  812SOL     OW 2434   1.118   2.526   1.692 -0.2710 -0.0521 -0.5896
  812SOL    HW1 2435   1.166   2.583   1.763  0.3836  0.5340 -1.6094
  812SOL    HW2 2436   1.053   2.459   1.732  2.6016  0.2309 -1.0302
  813SOL     OW 2437   0.715   2.804   1.667  0.2541 -0.0417 -0.3156
  813SOL    HW1 2438   0.701   2.897   1.706 -0.5494 -0.1815  0.5974
  813SOL    HW2 2439   0.681   2.804   1.574  1.8569  0.8966  1.5900
  814SOL     OW 2440   0.873   2.612   2.405 -0.1339 -0.6420  0.0828
  814SOL    HW1 2441   0.944   2.543   2.426  0.3971  1.0429  1.2214
  814SOL    HW2 2442   0.784   2.574   2.425  0.4852  0.1653  0.0278
  815SOL     OW 2443   0.690   0.227   2.466  0.7611  0.3831  0.3406
  815SOL    HW1 2444   0.631   0.164   2.412 -1.1496 -1.0337 -1.4815
  815SOL    HW2 2445   0.698   0.320   2.419 -0.9328  2.6060 -0.8060
  816SOL     OW 2446   2.148   0.296   3.056 -0.0904 -0.4555  0.5396
  816SOL    HW1 2447   2.060   0.336   0.016  3.5671 -0.8097 -1.1540
  816SOL    HW2 2448   2.226   0.356   0.014  0.4401  0.3064  1.3086
  817SOL     OW 2449   2.167   2.857   1.916 -0.1271  0.0335 -0.5008
  817SOL    HW1 2450   2.267   2.877   1.943 -1.3110  0.8219  0.5535
  817SOL    HW2 2451   2.121   2.944   1.892 -2.4804  0.9760  0.9400
  818SOL     OW 2452   1.220   0.808   0.266 -0.3709  0.2455 -0.8389
  818SOL    HW1 2453   1.293   0.803   0.194 -1.2448  0.0152 -1.8532
  818SOL    HW2 2454   1.171   0.720   0.252 -3.4163  1.8409  0.1199
  819SOL     OW 2455   1.863   1.723   2.443 -0.3687  0.2952 -0.5324
  819SOL    HW1 2456   1.825   1.731   2.351 -0.0925  0.4790  1.0832
  819SOL    HW2 2457   1.933   1.797   2.449  1.1518  4.2413  1.9923
  820SOL     OW 2458   0.154   1.730   0.117  0.7920  0.1256  0.3289
  820SOL    HW1 2459   0.130   1.711   0.020 -1.1661  0.6295  1.1799
  820SOL    HW2 2460   0.253   1.716   0.138  1.9536 -0.2525  0.4694
  821SOL     OW 2461   0.044   2.980   0.811  0.4044 -0.5579 -0.5674
  821SOL    HW1 2462   0.028   2.890   0.764 -0.3431 -1.5554 -2.4249
  821SOL    HW2 2463   0.104   2.966   0.892  0.9978 -0.1764 -1.0647
  822SOL     OW 2464   2.403   2.380   2.840  0.2529 -0.1571  0.1000
  822SOL    HW1 2465   2.338   2.425   2.781  0.3204 -3.5383  3.4803
  822SOL    HW2 2466   2.446   2.444   2.904 -2.5523 -0.9286 -2.4507
  823SOL     OW 2467   1.376   3.021   2.155 -0.2322  0.2583 -0.3106
  823SOL    HW1 2468   1.442   2.940   2.141  0.8785 -1.2169  1.0593
  823SOL    HW2 2469   1.311   2.992   2.226  2.5508 -1.7055 -2.2626
  824SOL     OW 2470   2.778   2.287   2.167  0.8300 -0.1918  0.3436
  824SOL    HW1 2471   2.832   2.355   2.219 -0.3214 -0.5785  1.3437
  824SOL    HW2 2472   2.685   2.325   2.140 -0.8331  0.5530 -0.6045
  825SOL     OW 2473   2.922   2.021   2.428  0.0575 -0.0303 -0.4412
  825SOL    HW1 2474   2.854   1.948   2.407  0.8538  1.5784  1.6309
  825SOL    HW2 2475   2.977   2.050   2.348 -0.6006 -0.9873 -0.9986
  826SOL     OW 2476   2.220   0.863   2.495 -0.2998 -0.1912  0.4383
  826SOL    HW1 2477   2.241   0.811   2.580 -3.2415  0.3629  0.6144
  826SOL    HW2 2478   2.126   0.903   2.497 -1.6079  0.8374  0.4298
  827SOL     OW 2479   2.744   2.044   1.451  0.3754  0.0441 -0.0820
  827SOL    HW1 2480   2.721   1.957   1.499 -0.5546 -0.0961  1.1297
  827SOL    HW2 2481   2.656   2.092   1.426 -1.7151 -2.7719  0.5916
  828SOL     OW 2482   2.963   0.134   1.859  0.0394  0.3163  0.1747
  828SOL    HW1 2483   3.050   0.086   1.836 -0.6753  2.5410 -0.3227
  828SOL    HW2 2484   2.976   0.233   1.844  2.8949 -3.3411  1.3315
  829SOL     OW 2485   0.853   2.218   2.645  0.1471 -0.0318  0.3126
  829SOL    HW1 2486   0.939   2.159   2.652 -1.8793 -0.4239 -1.0214
  829SOL    HW2 2487   0.802   2.212   2.727  0.7521 -0.6167 -2.9094
  830SOL     OW 2488   0.927   0.971   0.979 -0.0014 -0.1542 -0.0461
  830SOL    HW1 2489   0.846   0.906   0.986  0.9468 -1.1434  0.3362
  830SOL    HW2 2490   0.902   1.049   0.918  0.3931  1.1266 -1.2346
  831SOL     OW 2491   2.793   1.556   2.866  0.3433  0.2578 -0.0087
  831SOL    HW1 2492   2.798   1.619   2.948  1.3429  2.1033  0.9915
  831SOL    HW2 2493   2.885   1.510   2.860 -0.7355  2.2084  1.1036
  832SOL     OW 2494   1.809   2.241   2.185 -0.2623  0.1664  0.1103
  832SOL    HW1 2495   1.869   2.258   2.263 -2.7559  0.6269 -2.7403
  832SOL    HW2 2496   1.824   2.311   2.112 -0.2834  2.2102 -1.0871
  833SOL     OW 2497   0.918   0.310   1.993 -0.3981  0.1460 -0.6973
  833SOL    HW1 2498   0.987   0.379   2.008  1.1730  1.1255 -2.3996
  833SOL    HW2 2499   0.889   0.269   2.081  1.6438  2.0841 -2.6756
  834SOL     OW 2500   3.023   0.138   1.200 -0.1038  0.2988  0.5105
  834SOL    HW1 2501   2.963   0.217   1.201  1.0987  1.7835 -2.3032
  834SOL    HW2 2502   0.009   0.141   1.290  0.7366 -0.0804  1.8366
  835SOL     OW 2503   2.537   0.703   3.039 -0.1183  0.0183  0.3952
  835SOL    HW1 2504   2.569   0.660   0.063 -0.3334 -1.9343 -0.0730
  835SOL    HW2 2505   2.589   0.664   2.960  4.1368 -0.5539 -2.4804
  836SOL     OW 2506   1.459   1.996   0.124 -0.1189 -0.0226 -0.0745
  836SOL    HW1 2507   1.448   1.909   0.177  0.9494 -1.2633  1.2358
  836SOL    HW2 2508   1.380   2.009   0.059 -2.3357  2.0062 -3.1640
  837SOL     OW 2509   1.947   1.825   0.618  0.3917  0.2803 -0.0398
  837SOL    HW1 2510   1.967   1.730   0.645  1.9495  2.3666 -2.4648
  837SOL    HW2 2511   1.966   1.841   0.519  1.1665  1.0241 -1.0090
  838SOL     OW 2512   1.266   1.029   2.260  0.0670 -0.2127  0.7472
  838SOL    HW1 2513   1.325   0.988   2.186 -0.7675  0.1880 -0.0540
  838SOL    HW2 2514   1.234   1.121   2.230 -1.2550  2.3028 -0.2299
  839SOL     OW 2515   0.823   1.489   2.299  0.3911  0.4585  0.1209
  839SOL    HW1 2516   0.875   1.416   2.345 -2.4583 -0.2749 -0.4223
  839SOL    HW2 2517   0.869   1.518   2.213 -1.2323  0.0522  1.6953
  840SOL     OW 2518   0.935   2.024   0.514 -0.6972 -0.6425 -0.0513
  840SOL    HW1 2519   0.971   2.032   0.610 -3.4219  1.4117  0.0752
  840SOL    HW2 2520   0.990   2.075   0.441  2.4488  2.8505  0.9052
  841SOL     OW 2521   1.771   2.550   0.342 -0.3584  0.1201 -0.2513
  841SOL    HW1 2522   1.792   2.623   0.411  1.7996 -1.8196  1.7019
  841SOL    HW2 2523   1.740   2.580   0.254  1.5253 -1.3142  2.7863
  842SOL     OW 2524   0.386   0.596   2.895  0.2540  0.1166  0.0967
  842SOL    HW1 2525   0.481   0.557   2.900  2.6546 -1.4070 -1.8737
  842SOL    HW2 2526   0.317   0.533   2.857  1.3577  0.2499 -1.4205
  843SOL     OW 2527   0.990   0.481   0.839  0.4031 -0.1589  0.6577
  843SOL    HW1 2528   0.962   0.418   0.764  1.7029 -1.3222 -0.5734
  843SOL    HW2 2529   1.090   0.497   0.846 -1.5334 -2.6253 -0.1374
  844SOL     OW 2530   2.527   0.012   2.979 -0.3064  0.1623 -0.0944
  844SOL    HW1 2531   2.441   3.033   2.947 -1.3504 -2.0366  0.1315
  844SOL    HW2 2532   2.604   3.017   2.984  0.4707  0.1696 -1.1367
  845SOL     OW 2533   2.965   2.125   1.598  0.0635  0.1886 -0.2048
  845SOL    HW1 2534   2.955   2.095   1.694 -0.0571 -0.4821 -0.7298
  845SOL    HW2 2535   2.886   2.096   1.545  1.6295 -0.2084 -1.7219
  846SOL     OW 2536   2.428   1.465   2.142  0.2370  0.1976 -0.3138
  846SOL    HW1 2537   2.415   1.525   2.223 -2.3438  0.4727 -2.5807
  846SOL    HW2 2538   2.514   1.413   2.155  0.5773  0.1962 -1.5442
  847SOL     OW 2539   1.079   0.438   1.794 -0.0007 -0.1629  0.1324
  847SOL    HW1 2540   1.126   0.468   1.879 -0.2994  1.7021 -1.4236
  847SOL    HW2 2541   0.985   0.477   1.791  0.4963 -0.3444 -3.0132
  848SOL     OW 2542   2.318   2.794   3.027  0.3659 -0.0543 -0.3937
  848SOL    HW1 2543   2.368   2.821   0.040 -1.7531  1.9267  2.8266
  848SOL    HW2 2544   2.321   2.865   2.953 -0.9238 -2.4499 -0.6482
  849SOL     OW 2545   0.437   2.883   0.036 -0.3462 -0.3711 -0.6313
  849SOL    HW1 2546   0.482   2.946   3.037 -1.1671 -0.5716  1.9118
  849SOL    HW2 2547   0.333   2.882   0.033 -0.1664  1.7126 -1.2087
  850SOL     OW 2548   1.207   2.976   1.044 -0.0195 -0.1147  0.0379
  850SOL    HW1 2549   1.302   2.965   1.080  1.0499  0.8659 -0.0825
  850SOL    HW2 2550   1.206   2.975   0.940  0.1106 -0.6611  1.4939
  851SOL     OW 2551   2.661   0.504   2.373 -0.8252 -0.0639 -0.2718
  851SOL    HW1 2552   2.643   0.602   2.385 -0.1922  0.4982  0.8718
  851SOL    HW2 2553   2.681   0.461   2.465 -0.1570 -2.7811  2.1352
  852SOL     OW 2554   1.398   0.675   2.300  0.3441  0.2865  0.3916
  852SOL    HW1 2555   1.417   0.735   2.379  2.1562 -1.5735 -0.4107
  852SOL    HW2 2556   1.483   0.659   2.247 -0.5371  2.8306  2.4459
  853SOL     OW 2557   0.032   2.977   0.259  0.1238  0.2235  0.7705
  853SOL    HW1 2558   3.039   3.000   0.342  0.3660  0.3007  0.8088
  853SOL    HW2 2559   0.128   2.980   0.285 -2.6762  1.1526  1.4332
  854SOL     OW 2560   2.313   1.212   2.202  0.4152 -0.4057  0.3547
  854SOL    HW1 2561   2.353   1.303   2.179  0.6390 -1.2452  0.2206
  854SOL    HW2 2562   2.322   1.151   2.123  1.3266 -0.1155 -0.2434
  855SOL     OW 2563   0.642   2.509   0.176  0.4201 -0.9024 -0.4777
  855SOL    HW1 2564   0.623   2.609   0.186 -3.6629 -1.5618  0.5410
  855SOL    HW2 2565   0.721   2.507   0.111  1.5116  0.8369 -1.6335
  856SOL     OW 2566   2.836   2.966   2.675  0.2577 -0.3565  0.7409
  856SOL    HW1 2567   2.815   3.039   2.608 -1.8596 -2.7178  0.1032
  856SOL    HW2 2568   2.814   2.981   2.772 -1.2061 -1.8406 -0.4213
  857SOL     OW 2569   0.996   2.704   1.531 -0.1462  0.1310  0.2969
  857SOL    HW1 2570   0.893   2.704   1.526 -1.7415  2.0551  2.0690
  857SOL    HW2 2571   1.039   2.631   1.583  2.0730  1.1609  0.0996
  858SOL     OW 2572   2.656   2.128   1.802 -0.4572 -0.2561 -0.1961
  858SOL    HW1 2573   2.726   2.148   1.870 -2.1209  0.6643  1.4650
  858SOL    HW2 2574   2.561   2.128   1.838 -1.1416  1.3340 -2.0179
  859SOL     OW 2575   1.839   2.132   1.676 -0.3863  0.0954 -0.0522
  859SOL    HW1 2576   1.767   2.124   1.607  5.8416  4.8859  2.5815
  859SOL    HW2 2577   1.828   2.065   1.747  0.5276  0.3783 -0.1869
  860SOL     OW 2578   2.357   0.105   0.352 -0.3609 -0.5025  0.0469
  860SOL    HW1 2579   2.422   0.112   0.272 -0.0340  0.7582  0.6513
  860SOL    HW2 2580   2.281   0.177   0.353 -1.6330  1.4047 -0.5661
  861SOL     OW 2581   2.690   2.993   0.552  0.6213  0.4399 -0.3880
  861SOL    HW1 2582   2.711   2.917   0.614 -1.1978 -0.0098 -1.2438
  861SOL    HW2 2583   2.589   2.990   0.542 -0.3056 -1.0835  1.4496
  862SOL     OW 2584   1.555   2.863   2.454  0.0046  0.3156 -0.5952
  862SOL    HW1 2585   1.492   2.793   2.492  0.0842 -0.9395  0.1187
  862SOL    HW2 2586   1.532   2.958   2.471  3.8416 -2.2974 -0.7107
  863SOL     OW 2587   0.319   0.565   1.204  0.2551 -0.1854  0.8516
  863SOL    HW1 2588   0.320   0.609   1.110  2.9360 -0.5065 -2.5581
  863SOL    HW2 2589   0.369   0.474   1.201 -0.9819  0.3671  0.9068
  864SOL     OW 2590   0.089   3.017   1.806 -0.3643  0.0983 -0.2378
  864SOL    HW1 2591   0.193   3.029   1.809  1.2251 -0.8255 -0.3599
  864SOL    HW2 2592   0.056   2.926   1.847  1.5842 -0.9713 -1.9309
  865SOL     OW 2593   0.553   1.189   2.913 -0.5600  0.1971  0.1064
  865SOL    HW1 2594   0.580   1.274   2.961 -2.5846  0.1183 -0.6079
  865SOL    HW2 2595   0.630   1.135   2.867  0.6114 -1.0251 -0.5377
  866SOL     OW 2596   2.891   0.670   0.098 -0.0416 -0.8450  0.1878
  866SOL    HW1 2597   2.963   0.686   0.171  0.5964 -3.9585  2.4104
  866SOL    HW2 2598   2.802   0.632   0.136 -3.5622  0.4159  0.9496
  867SOL     OW 2599   2.770   2.928   2.960  0.3676  0.3542  0.6953
  867SOL    HW1 2600   2.815   2.916   3.051  2.8151 -3.8975  0.8308
  867SOL    HW2 2601   2.767   2.839   2.919 -1.2341 -0.9782  1.1802
  868SOL     OW 2602   1.406   0.327   0.241 -0.0839 -0.2989  0.1218
  868SOL    HW1 2603   1.357   0.414   0.258 -0.9802  0.1965 -2.5413
  868SOL    HW2 2604   1.499   0.350   0.206  0.1896 -0.5675  2.5394
  869SOL     OW 2605   2.422   1.469   0.456 -0.3029  0.2473  0.0704
  869SOL    HW1 2606   2.347   1.542   0.472 -0.6267  0.1444 -1.0693
  869SOL    HW2 2607   2.504   1.488   0.509 -0.1157  1.6690 -1.9328
  870SOL     OW 2608   2.205   1.619   0.494  0.0532  0.6002  0.1224
  870SOL    HW1 2609   2.153   1.583   0.576 -2.0792 -4.5776  1.8047
  870SOL    HW2 2610   2.156   1.582   0.412 -0.9124  0.1407 -1.3208
  871SOL     OW 2611   1.415   1.359   1.032  0.6014 -0.3031  0.1221
  871SOL    HW1 2612   1.366   1.275   1.006  0.1060 -0.3392 -0.5859
  871SOL    HW2 2613   1.494   1.339   1.096  1.5594 -0.7218  0.7831
  872SOL     OW 2614   1.298   1.511   1.753 -0.1401  0.2986 -0.2297
  872SOL    HW1 2615   1.234   1.434   1.749 -0.1810  1.2664 -0.0033
  872SOL    HW2 2616   1.241   1.595   1.733 -0.5071  0.2072 -0.3042
  873SOL     OW 2617   0.569   1.437   2.259 -0.1597 -0.3032 -0.0849
  873SOL    HW1 2618   0.506   1.399   2.329 -1.5731 -1.2478 -3.1307
  873SOL    HW2 2619   0.666   1.446   2.285 -2.0271 -1.7897 -0.8832
  874SOL     OW 2620   0.888   1.330   1.108 -0.0467 -0.5156 -0.0316
  874SOL    HW1 2621   0.836   1.417   1.081 -0.7861  2.4707  0.6721
  874SOL    HW2 2622   0.831   1.262   1.157  0.8369 -1.7990 -1.6677
  875SOL     OW 2623   2.081   0.514   1.294 -0.4017 -0.8521 -0.1495
  875SOL    HW1 2624   2.037   0.561   1.218  1.7278  3.7803 -1.5048
  875SOL    HW2 2625   2.019   0.476   1.363 -1.7964 -2.9032  1.0008
  876SOL     OW 2626   1.021   0.878   2.907  0.0075 -0.1097  0.1428
  876SOL    HW1 2627   1.006   0.895   3.003 -0.1955  1.2232 -1.3129
  876SOL    HW2 2628   1.103   0.928   2.866  2.5278  1.7863  0.6620
  877SOL     OW 2629   2.871   0.350   1.296 -0.1945  0.0300 -0.0309
  877SOL    HW1 2630   2.772   0.367   1.310  1.5320  0.1407 -0.0207
  877SOL    HW2 2631   2.914   0.437   1.267 -1.1667 -0.6159 -0.5873
  878SOL     OW 2632   1.600   2.381   3.007 -0.3090 -0.2789 -0.3779
  878SOL    HW1 2633   1.600   2.485   2.992 -1.4023  3.2766  0.4104
  878SOL    HW2 2634   1.685   2.338   2.977 -1.3179 -0.3208 -0.3673
  879SOL     OW 2635   2.456   2.025   1.587  0.2709  0.2586 -0.2317
  879SOL    HW1 2636   2.475   2.063   1.492  1.6720  1.4283 -2.6302
  879SOL    HW2 2637   2.425   2.094   1.653 -1.9742 -1.9116 -0.7468
  880SOL     OW 2638   1.170   2.836   1.392  0.0450 -0.1559 -0.2574
  880SOL    HW1 2639   1.099   2.776   1.432  0.8545  2.3328 -1.5472
  880SOL    HW2 2640   1.236   2.788   1.325 -1.3129  2.2295 -2.0311
  881SOL     OW 2641   1.222   1.800   2.989 -0.3886 -0.4041  0.1565
  881SOL    HW1 2642   1.207   1.893   3.033  2.9621  0.4019 -0.5369
  881SOL    HW2 2643   1.179   1.804   2.898  1.3986 -1.1227  1.2031
  882SOL     OW 2644   2.038   0.816   2.159 -0.2099  1.2757 -0.2115
  882SOL    HW1 2645   2.061   0.901   2.209 -0.2740 -0.7538 -0.6649
  882SOL    HW2 2646   2.106   0.790   2.087 -2.1341 -1.5657 -0.9853
  883SOL     OW 2647   1.488   0.267   1.919  0.3386 -0.3112  0.3157
  883SOL    HW1 2648   1.439   0.244   1.830  1.2129 -1.4436 -2.1495
  883SOL    HW2 2649   1.428   0.242   1.997 -2.5270 -0.2964 -2.0607
  884SOL     OW 2650   2.876   0.132   3.016 -0.1145 -0.3156 -0.3297
  884SOL    HW1 2651   2.946   0.129   0.022 -0.3288 -3.0246  0.2483
  884SOL    HW2 2652   2.812   0.050   3.025 -0.2283 -0.3278  1.6798
  885SOL     OW 2653   0.759   2.076   0.272  0.1551 -0.0219  0.0276
  885SOL    HW1 2654   0.791   2.032   0.357  0.6542 -1.7959 -0.4661
  885SOL    HW2 2655   0.743   2.173   0.295  0.2319  1.9384 -0.1742
  886SOL     OW 2656   1.827   1.609   2.690  0.0406  0.1201  0.4333
  886SOL    HW1 2657   1.885   1.640   2.614 -0.6381  1.7062 -0.5083
  886SOL    HW2 2658   1.852   1.679   2.764  2.7550  2.4166 -0.1620
  887SOL     OW 2659   1.823   0.473   1.862  0.0274  0.0862  0.0205
  887SOL    HW1 2660   1.811   0.567   1.900  1.4759 -1.1999  0.9897
  887SOL    HW2 2661   1.785   0.400   1.920  2.5689  1.6748 -1.1274
  888SOL     OW 2662   2.666   0.692   1.737  0.1713  0.1446  0.3778
  888SOL    HW1 2663   2.666   0.625   1.816  0.2082 -2.8081  2.0305
  888SOL    HW2 2664   2.762   0.724   1.709  2.2887 -0.0296  0.3683
  889SOL     OW 2665   0.003   2.753   0.667 -0.1850 -0.6175 -0.3004
  889SOL    HW1 2666   3.030   2.659   0.659  0.2632  0.4663 -3.2281
  889SOL    HW2 2667   0.105   2.738   0.656  1.8594  0.2765 -0.4127
  890SOL     OW 2668   2.823   2.679   2.853  0.0384  0.4548  0.2412
  890SOL    HW1 2669   2.810   2.583   2.880  0.4563 -0.1436 -1.5516
  890SOL    HW2 2670   2.920   2.689   2.824  0.3613  1.5829  0.1456
  891SOL     OW 2671   0.779   1.687   2.901  0.5557 -0.0311 -0.1376
  891SOL    HW1 2672   0.781   1.676   3.005  0.9230 -2.3859  0.2008
  891SOL    HW2 2673   0.861   1.746   2.873 -0.4648 -0.1989  0.1274
  892SOL     OW 2674   0.240   2.940   1.013  0.5609  0.8545  0.2899
  892SOL    HW1 2675   0.301   2.974   0.946 -0.6696  0.7992 -1.2697
  892SOL    HW2 2676   0.248   2.837   1.017 -1.3962 -0.0157  2.5186
  893SOL     OW 2677   0.500   2.855   1.186 -0.0122  0.4383  0.1814
  893SOL    HW1 2678   0.467   2.950   1.172  1.6740  1.2523  0.4672
  893SOL    HW2 2679   0.602   2.859   1.209  1.0970 -0.8055  1.1315
  894SOL     OW 2680   2.884   1.222   0.838  0.0718  0.4724  0.1128
  894SOL    HW1 2681   2.975   1.171   0.833  1.0014 -0.0063  1.5245
  894SOL    HW2 2682   2.833   1.199   0.751  2.1631  1.3945 -2.2984
  895SOL     OW 2683   2.670   2.377   1.644  0.2896 -0.0200  0.4025
  895SOL    HW1 2684   2.692   2.287   1.692 -1.0372 -1.5437  2.6687
  895SOL    HW2 2685   2.750   2.430   1.618  3.5472 -1.7989  1.1544
  896SOL     OW 2686   0.953   0.288   1.563  0.4701 -0.1782  0.7814
  896SOL    HW1 2687   0.885   0.232   1.615 -2.0877  1.1442  0.9460
  896SOL    HW2 2688   1.034   0.292   1.621 -0.8510  1.1123 -2.8078
  897SOL     OW 2689   0.909   1.435   1.612  0.1439  0.0457 -0.3116
  897SOL    HW1 2690   0.989   1.391   1.580 -3.6139  0.0353  1.0575
  897SOL    HW2 2691   0.848   1.472   1.536 -1.4554 -2.7359 -0.7582
  898SOL     OW 2692   1.333   2.690   1.865  0.5952 -0.3805  0.8180
  898SOL    HW1 2693   1.400   2.658   1.795 -1.6122  0.3703 -0.7744
  898SOL    HW2 2694   1.314   2.792   1.861  0.8601  1.3731 -2.1726
  899SOL     OW 2695   0.815   0.680   0.215  0.0563  0.0389 -0.0444
  899SOL    HW1 2696   0.729   0.716   0.257 -1.4878 -0.3527 -1.7001
  899SOL    HW2 2697   0.853   0.753   0.153 -0.9751 -1.4978  0.6517
  900SOL     OW 2698   1.523   2.270   1.825  0.1619 -0.5781  0.2147
  900SOL    HW1 2699   1.483   2.250   1.730  0.2308 -0.1702 -1.4958
  900SOL    HW2 2700   1.611   2.318   1.824  1.2623 -2.3105 -1.5989
  901SOL     OW 2701   1.076   2.236   0.338 -0.1741 -0.0249 -0.8259
  901SOL    HW1 2702   1.007   2.283   0.403  1.2944  0.3827  2.0465
  901SOL    HW2 2703   1.067   2.265   0.240  2.6459 -3.2171 -1.6996
  902SOL     OW 2704   1.766   1.422   0.176  0.2486 -0.3549  0.2314
  902SOL    HW1 2705   1.839   1.457   0.114  0.6201 -2.6838 -0.0145
  902SOL    HW2 2706   1.804   1.349   0.230 -1.7460  2.3426 -0.8002
  903SOL     OW 2707   2.117   1.266   0.228  0.1507  0.0992  0.0922
  903SOL    HW1 2708   2.214   1.247   0.264  3.5603 -2.2024 -0.0817
  903SOL    HW2 2709   2.098   1.211   0.144  1.4886 -0.3718 -0.4515
  904SOL     OW 2710   0.659   1.385   0.046  0.7625  0.1120  0.4147
  904SOL    HW1 2711   0.757   1.371   0.016  1.4251  3.7927 -0.1293
  904SOL    HW2 2712   0.653   1.391   0.145  2.0110  4.2304 -2.2467
  905SOL     OW 2713   1.882   0.123   1.321 -0.0365 -0.1359 -0.2372
  905SOL    HW1 2714   1.940   0.080   1.249 -0.4488  0.9340  0.4664
  905SOL    HW2 2715   1.852   0.216   1.282  2.4080  0.9713 -0.9569
  906SOL     OW 2716   2.939   2.419   1.193  0.1399 -0.2211  0.1663
  906SOL    HW1 2717   2.975   2.504   1.145  0.0887 -0.2205 -0.6576
  906SOL    HW2 2718   2.837   2.418   1.186  0.3249 -0.7163 -2.2645
  907SOL     OW 2719   0.979   0.890   0.132 -0.0249 -0.5916 -0.0970
  907SOL    HW1 2720   0.948   0.986   0.154 -0.9006 -0.6102  0.1893
  907SOL    HW2 2721   1.069   0.876   0.178 -1.3003 -1.3704 -0.7730
  908SOL     OW 2722   1.495   2.936   1.147  0.0644  0.0661 -0.0096
  908SOL    HW1 2723   1.547   2.931   1.062 -0.9379 -2.7678  0.3352
  908SOL    HW2 2724   1.514   2.863   1.216 -0.4306 -0.8028 -0.7401
  909SOL     OW 2725   2.022   1.186   1.581 -0.4046 -0.8565 -0.3160
  909SOL    HW1 2726   2.094   1.244   1.622 -1.3163 -0.6517 -2.3394
  909SOL    HW2 2727   2.017   1.203   1.484  1.9842 -0.5306 -0.3851
  910SOL     OW 2728   1.733   3.045   2.204 -0.5583 -0.1923  0.9992
  910SOL    HW1 2729   1.671   2.965   2.187  0.0170  0.6671 -0.6223
  910SOL    HW2 2730   1.813   3.046   2.141  2.2989  0.4859  0.9664
  911SOL     OW 2731   2.653   0.895   2.647 -0.2227 -0.4056 -0.1190
  911SOL    HW1 2732   2.653   0.990   2.686 -1.5594  3.3504 -1.1770
  911SOL    HW2 2733   2.732   0.841   2.675 -2.2541  1.0935 -0.6240
  912SOL     OW 2734   0.058   1.188   1.731  0.4271  0.4739 -0.3320
  912SOL    HW1 2735   0.042   1.281   1.696  0.2847 -1.7594  1.3899
  912SOL    HW2 2736   0.113   1.197   1.815 -0.0220  0.9519  3.2746
  913SOL     OW 2737   3.016   2.336   1.443  0.8372 -0.1707 -0.2619
  913SOL    HW1 2738   2.987   2.250   1.485  0.4169  2.5848 -0.7992
  913SOL    HW2 2739   3.009   2.334   1.335 -0.8639  1.0974 -3.1743
  914SOL     OW 2740   1.646   0.756   1.624  0.7884  0.0377  0.5767
  914SOL    HW1 2741   1.587   0.670   1.633 -0.6772  0.7642  2.4423
  914SOL    HW2 2742   1.622   0.799   1.531  0.1214 -1.5595 -1.9136
  915SOL     OW 2743   1.994   0.492   1.552  0.3972 -0.0320  0.1388
  915SOL    HW1 2744   2.038   0.495   1.644 -0.3139 -1.3154  0.1128
  915SOL    HW2 2745   1.906   0.445   1.558  0.9722 -0.2290  4.3163
  916SOL     OW 2746   2.633   2.440   1.186 -0.6381  0.0756 -0.1014
  916SOL    HW1 2747   2.577   2.499   1.244 -0.1733  0.9927  0.6501
  916SOL    HW2 2748   2.592   2.432   1.093  0.6437 -1.4864 -1.3284
  917SOL     OW 2749   1.851   2.274   2.933  0.3395  0.2391 -0.0035
  917SOL    HW1 2750   1.944   2.307   2.961 -1.1175  0.8550 -1.0269
  917SOL    HW2 2751   1.842   2.253   2.838  0.8970 -1.9155  1.6071
  918SOL     OW 2752   1.829   2.805   2.423 -0.2881  0.4968  0.4209
  918SOL    HW1 2753   1.898   2.875   2.459  0.5280  2.9638  0.9036
  918SOL    HW2 2754   1.733   2.834   2.432  1.0433 -0.1578  1.1317
  919SOL     OW 2755   1.419   2.484   1.400 -0.6395  0.0335 -0.0018
  919SOL    HW1 2756   1.386   2.535   1.319 -1.2838 -3.1016  0.5814
  919SOL    HW2 2757   1.341   2.436   1.443  1.1665 -0.7721 -1.0989
  920SOL     OW 2758   2.921   0.421   2.311  0.0358 -0.3219 -0.1770
  920SOL    HW1 2759   2.908   0.321   2.289 -0.9651 -1.9820 -0.7312
  920SOL    HW2 2760   2.833   0.468   2.304  1.6172  0.5393 -0.4119
  921SOL     OW 2761   2.902   0.750   1.619  0.3333 -0.4600 -0.2953
  921SOL    HW1 2762   2.900   0.851   1.636 -1.7980 -1.1900 -4.1261
  921SOL    HW2 2763   2.988   0.718   1.578 -1.2022  0.3691 -0.3574
  922SOL     OW 2764   1.944   2.102   0.420 -0.2555 -0.0866  0.1061
  922SOL    HW1 2765   2.031   2.073   0.377 -0.0999  2.8112  0.8458
  922SOL    HW2 2766   1.961   2.121   0.516 -3.5499 -0.6792 -0.7772
  923SOL     OW 2767   0.936   1.940   0.138  0.3491  0.1983 -0.2144
  923SOL    HW1 2768   0.919   1.838   0.148  0.0381 -0.8229  0.6832
  923SOL    HW2 2769   0.861   1.998   0.182  0.9477  0.2976 -1.1771
  924SOL     OW 2770   1.170   0.461   3.020  0.4553 -0.5069  0.0404
  924SOL    HW1 2771   1.111   0.417   2.945  3.3763  1.1682 -3.9522
  924SOL    HW2 2772   1.203   0.552   2.991  1.8664 -1.0691  1.8568
  925SOL     OW 2773   2.439   0.355   0.909 -0.0241 -0.2251  0.2511
  925SOL    HW1 2774   2.431   0.294   0.831  3.3588 -0.0836  0.8378
  925SOL    HW2 2775   2.467   0.300   0.988 -0.0889 -0.3236 -0.5246
  926SOL     OW 2776   0.608   0.088   1.191 -0.3598  0.2234  0.8408
  926SOL    HW1 2777   0.518   0.083   1.238  0.5954 -1.6953  0.9407
  926SOL    HW2 2778   0.683   0.080   1.256  1.8280  1.2944  0.1504
  927SOL     OW 2779   0.167   1.550   2.374  0.3883 -0.1942 -0.6033
  927SOL    HW1 2780   0.066   1.533   2.389 -1.2633  0.5557  1.7818
  927SOL    HW2 2781   0.215   1.466   2.352 -2.0754  0.7110  0.5886
  928SOL     OW 2782   2.735   0.384   2.603  0.3534  0.2938  0.5137
  928SOL    HW1 2783   2.788   0.435   2.673 -0.1943 -2.1349  0.7673
  928SOL    HW2 2784   2.768   0.290   2.588  0.6779  1.4630 -1.2226
  929SOL     OW 2785   2.533   0.109   1.435 -0.0602 -0.6104  0.4466
  929SOL    HW1 2786   2.576   0.030   1.377  0.2128  0.2341 -2.0260
  929SOL    HW2 2787   2.442   0.082   1.478 -1.5107  1.0789 -1.6153
  930SOL     OW 2788   1.812   0.958   1.855  0.9418 -0.2788 -0.6282
  930SOL    HW1 2789   1.710   0.940   1.863 -0.7440 -3.4595  2.0455
  930SOL    HW2 2790   1.843   1.043   1.901  0.4247 -0.0554  0.8004
  931SOL     OW 2791   2.117   1.116   3.060  0.1913  0.1809 -0.1409
  931SOL    HW1 2792   2.178   1.057   2.999  2.0527 -1.5771 -2.5472
  931SOL    HW2 2793   2.025   1.067   0.004 -3.3665 -0.7765  3.5808
  932SOL     OW 2794   2.230   1.024   0.755  0.5669 -0.1791  0.3396
  932SOL    HW1 2795   2.259   1.099   0.689  0.5852  1.1023 -2.2657
  932SOL    HW2 2796   2.152   0.977   0.711  1.4326  1.5194  0.1604
  933SOL     OW 2797   2.575   1.765   0.875 -0.1571 -0.2529 -0.0182
  933SOL    HW1 2798   2.528   1.797   0.792 -2.1523  2.7277 -0.7911
  933SOL    HW2 2799   2.528   1.813   0.951 -3.0166 -0.5201 -0.8853
  934SOL     OW 2800   2.052   0.567   2.506  0.0318 -0.2513 -0.7343
  934SOL    HW1 2801   2.056   0.549   2.412 -1.8779 -1.5677  3.9886
  934SOL    HW2 2802   1.949   0.565   2.532 -1.4501 -0.5970 -1.1994
  935SOL     OW 2803   0.238   1.294   0.431 -0.3304  0.4458 -0.7801
  935SOL    HW1 2804   0.180   1.205   0.425 -2.2827 -0.2831 -1.2852
  935SOL    HW2 2805   0.317   1.293   0.368 -2.3837  0.9205  0.3317
  936SOL     OW 2806   0.093   0.247   0.529 -0.1143  0.6934  0.3820
  936SOL    HW1 2807   0.022   0.230   0.455 -0.4363  1.6790  0.9132
  936SOL    HW2 2808   0.051   0.229   0.621  1.6132 -1.2291  1.8115
  937SOL     OW 2809   2.666   2.965   1.324  0.7523  0.3257 -0.2418
  937SOL    HW1 2810   2.573   2.943   1.289  1.9959  1.7943  1.0699
  937SOL    HW2 2811   2.728   2.995   1.248 -2.3899  1.3310 -1.3110
  938SOL     OW 2812   2.835   2.419   0.120  0.0324 -0.6849 -0.1394
  938SOL    HW1 2813   2.830   2.505   0.169 -3.4156 -0.4534 -2.5454
  938SOL    HW2 2814   2.929   2.384   0.108 -1.2214 -0.1443  1.1991
  939SOL     OW 2815   0.775   1.968   0.841  0.5176  0.3079  0.2478
  939SOL    HW1 2816   0.767   1.940   0.942  0.8846  1.1305 -0.9877
  939SOL    HW2 2817   0.687   1.997   0.799 -0.6474 -0.4080  0.7999
  940SOL     OW 2818   3.045   0.215   2.780  0.5373 -0.5057 -0.0410
  940SOL    HW1 2819   2.986   0.169   2.844 -0.6264 -2.6423  2.5012
  940SOL    HW2 2820   0.032   0.147   2.730 -1.1996  0.0651  1.0382
  941SOL     OW 2821   1.654   0.385   2.771 -0.1911 -0.2342  0.7655
  941SOL    HW1 2822   1.559   0.384   2.749  1.3955 -0.1839 -2.7228
  941SOL    HW2 2823   1.676   0.464   2.829 -0.8981  0.5520 -1.0783
  942SOL     OW 2824   1.206   0.778   1.486 -0.1311 -0.1266  0.3169
  942SOL    HW1 2825   1.213   0.745   1.584  0.1943 -1.6481  0.0090
  942SOL    HW2 2826   1.287   0.739   1.435 -0.7698  0.2798 -1.6683
  943SOL     OW 2827   1.309   0.971   1.766  0.4914  0.0068  0.0024
  943SOL    HW1 2828   1.395   0.935   1.798 -1.4238  2.6269  0.4089
  943SOL    HW2 2829   1.243   0.895   1.755  1.8177  0.4976 -0.2914
  944SOL     OW 2830   2.017   0.938   1.682  0.4279 -0.3930 -0.4039
  944SOL    HW1 2831   1.926   0.932   1.733 -0.1253  0.7398  3.5955
  944SOL    HW2 2832   2.028   1.033   1.638  0.1212  1.5998  1.4888
  945SOL     OW 2833   2.753   0.048   0.322 -0.1576  0.3084  0.0716
  945SOL    HW1 2834   2.730   3.067   0.407  0.3701 -1.3107 -1.2157
  945SOL    HW2 2835   2.826   0.116   0.333 -1.5179 -0.6396  0.9051
  946SOL     OW 2836   2.869   0.450   1.985 -0.3016 -0.3529 -0.5701
  946SOL    HW1 2837   2.910   0.523   2.043  2.2323  1.2066 -1.9924
  946SOL    HW2 2838   2.769   0.464   1.986 -1.8375 -0.5430  1.0156
  947SOL     OW 2839   1.092   2.884   0.524 -0.5410  0.5095  0.1754
  947SOL    HW1 2840   1.126   2.891   0.428 -2.0525  0.9120 -1.8844
  947SOL    HW2 2841   1.003   2.934   0.532  1.0693 -0.3516  0.2259
  948SOL     OW 2842   2.407   1.633   1.461  0.4150 -0.0842  0.5243
  948SOL    HW1 2843   2.330   1.696   1.489 -2.8029  0.2143 -2.0812
  948SOL    HW2 2844   2.454   1.587   1.537 -1.3004 -1.0018  0.1113
  949SOL     OW 2845   0.413   1.504   3.049 -0.4344 -0.3845 -0.0961
  949SOL    HW1 2846   0.387   1.506   2.948 -0.7443 -1.5233  2.6854
  949SOL    HW2 2847   0.503   1.458   3.064 -2.4218  1.3878 -1.5950
  950SOL     OW 2848   0.590   2.456   0.935  0.6838  0.3721  0.7524
  950SOL    HW1 2849   0.566   2.480   0.843 -2.7780 -1.0747  0.2678
  950SOL    HW2 2850   0.535   2.372   0.961  1.6941 -0.1948  0.3655
  951SOL     OW 2851   0.704   1.039   2.303 -0.4995  0.0342 -0.1082
  951SOL    HW1 2852   0.785   1.073   2.262 -1.7724 -1.1032 -0.1309
  951SOL    HW2 2853   0.721   1.026   2.404 -0.0327  0.1014 -0.3430
  952SOL     OW 2854   0.318   0.925   0.436 -0.1952  0.2342  0.8417
  952SOL    HW1 2855   0.392   0.984   0.474 -0.1995  1.0823 -0.6334
  952SOL    HW2 2856   0.228   0.977   0.441  1.6045  1.6517  1.1019
  953SOL     OW 2857   2.480   0.092   2.511 -0.1693 -0.3284 -0.0218
  953SOL    HW1 2858   2.381   0.114   2.524 -0.9733 -0.4240  1.6158
  953SOL    HW2 2859   2.492   3.057   2.504  0.9905 -4.0079 -0.2576
  954SOL     OW 2860   1.585   1.266   0.475  0.1135  0.5480  0.3162
  954SOL    HW1 2861   1.667   1.321   0.505 -1.3334 -0.8870 -2.0039
  954SOL    HW2 2862   1.586   1.177   0.525  0.5939  0.4722  2.8205
  955SOL     OW 2863   0.817   2.025   2.964 -0.5404 -0.4726 -0.0098
  955SOL    HW1 2864   0.900   2.004   3.010 -0.1706  1.7322  0.7242
  955SOL    HW2 2865   0.794   2.121   2.952 -0.7861 -1.4008  1.6270
  956SOL     OW 2866   2.037   0.538   2.239 -0.3008  0.4060 -0.2028
  956SOL    HW1 2867   2.097   0.487   2.175 -0.5280 -1.7736  2.7324
  956SOL    HW2 2868   2.046   0.641   2.228  2.3167  3.3714 -0.1934
  957SOL     OW 2869   1.979   2.304   2.382 -0.2205  0.0843 -0.0939
  957SOL    HW1 2870   1.943   2.388   2.426 -1.3839  1.1537  0.2179
  957SOL    HW2 2871   2.079   2.290   2.403  2.2045  0.7354 -0.3966
  958SOL     OW 2872   1.614   1.254   1.177  0.3761  0.3931  0.3220
  958SOL    HW1 2873   1.707   1.230   1.138 -3.4098 -0.0550  0.2357
  958SOL    HW2 2874   1.573   1.185   1.240 -0.1406  0.0589  2.7376
  959SOL     OW 2875   2.020   1.945   2.412  0.2282 -0.3436  0.1858
  959SOL    HW1 2876   2.068   1.934   2.501  0.5441  0.2717 -3.5811
  959SOL    HW2 2877   1.947   2.014   2.422 -1.9237 -0.0529 -2.9646
  960SOL     OW 2878   0.174   0.825   2.568  0.3617 -0.2787 -0.5675
  960SOL    HW1 2879   0.219   0.871   2.486  0.2896  0.2320 -0.0373
  960SOL    HW2 2880   0.077   0.810   2.561  2.5055 -0.1595 -2.3420
  961SOL     OW 2881   0.370   0.956   2.696  0.2865 -0.2005  0.0372
  961SOL    HW1 2882   0.290   0.897   2.668 -2.4584  0.6100  1.9053
  961SOL    HW2 2883   0.349   1.014   2.781 -0.7315  2.5943  1.7580
  962SOL     OW 2884   0.482   1.178   2.501 -0.1333 -0.6085  0.2245
  962SOL    HW1 2885   0.415   1.115   2.534  0.9673  2.3310  0.4198
  962SOL    HW2 2886   0.574   1.143   2.531  0.0430  0.5483  0.6588
  963SOL     OW 2887   2.850   2.221   0.312  0.0334  0.2084  0.3326
  963SOL    HW1 2888   2.844   2.289   0.241  4.0201 -2.0064  3.0755
  963SOL    HW2 2889   2.829   2.126   0.284 -1.3107 -0.0676  0.7220
  964SOL     OW 2890   1.000   2.296   1.820 -0.0291 -0.5588 -0.1185
  964SOL    HW1 2891   1.081   2.237   1.799  0.4197  0.7195 -1.9379
  964SOL    HW2 2892   0.969   2.293   1.920 -0.3889 -1.2592  4.9051
  965SOL     OW 2893   1.834   1.736   0.329 -0.2759 -0.4344 -0.2642
  965SOL    HW1 2894   1.817   1.806   0.256  1.1163 -4.1051  2.1314
  965SOL    HW2 2895   1.811   1.640   0.295  1.2805 -2.3716  1.0775
  966SOL     OW 2896   3.062   1.398   0.355 -0.6038 -0.4804  0.1532
  966SOL    HW1 2897   0.074   1.371   0.410  0.3761  0.2877  1.6805
  966SOL    HW2 2898   3.014   1.462   0.419  0.8397 -1.2102  0.2901
  967SOL     OW 2899   1.784   2.746   1.933 -0.6020  0.2959  0.0007
  967SOL    HW1 2900   1.682   2.738   1.932  0.0342  1.3537  3.1735
  967SOL    HW2 2901   1.826   2.689   2.011 -0.5622  0.4003  1.7652
  968SOL     OW 2902   1.265   0.493   0.418  0.8446  0.0185 -0.8142
  968SOL    HW1 2903   1.186   0.553   0.441 -1.4407  0.6111  0.7235
  968SOL    HW2 2904   1.325   0.496   0.499 -0.0532  3.5796  0.6107
  969SOL     OW 2905   0.227   1.326   2.221 -0.2833  0.0365  0.1030
  969SOL    HW1 2906   0.322   1.286   2.209  2.1215 -2.4262  0.1453
  969SOL    HW2 2907   0.203   1.389   2.145  1.2546 -1.8332  1.5861
  970SOL     OW 2908   2.267   2.058   1.193  0.3938  0.3492 -0.2146
  970SOL    HW1 2909   2.188   2.000   1.216 -1.5234  0.9934  0.5231
  970SOL    HW2 2910   2.240   2.151   1.156 -1.4272  1.6255  0.0936
  971SOL     OW 2911   2.807   2.827   0.990  0.0275  0.2891  0.0130
  971SOL    HW1 2912   2.870   2.764   1.040 -0.2080  5.4413 -0.3968
  971SOL    HW2 2913   2.824   2.923   1.022 -1.5920  1.3832 -0.5937
  972SOL     OW 2914   3.012   1.158   2.590 -0.1572  0.1509  0.6246
  972SOL    HW1 2915   3.053   1.164   2.497 -3.7199 -1.2181 -1.4670
  972SOL    HW2 2916   2.918   1.198   2.599 -1.3034 -0.6594 -0.6021
  973SOL     OW 2917   0.536   0.621   0.459 -0.0634 -0.2328 -0.2039
  973SOL    HW1 2918   0.543   0.626   0.558  2.3154  2.0705 -4.7561
  973SOL    HW2 2919   0.565   0.527   0.436 -0.9606 -0.6747  1.1106
  974SOL     OW 2920   2.188   0.763   1.778  0.5625  0.2475  0.5756
  974SOL    HW1 2921   2.132   0.833   1.737 -0.9194 -0.1245 -0.6294
  974SOL    HW2 2922   2.286   0.788   1.769  1.7753  1.0433 -2.1239
  975SOL     OW 2923   2.878   2.956   0.140  0.0900  0.1598 -0.0018
  975SOL    HW1 2924   2.833   3.025   0.197 -0.0857 -1.2196 -0.5325
  975SOL    HW2 2925   2.979   2.956   0.156 -1.9091  0.1572  0.2610
  976SOL     OW 2926   0.427   1.637   1.163 -0.0735  0.1036 -0.0730
  976SOL    HW1 2927   0.422   1.536   1.170  0.0997  2.7232 -1.0748
  976SOL    HW2 2928   0.371   1.670   1.086  0.3391 -0.0854  1.0774
  977SOL     OW 2929   1.171   2.095   0.916 -0.2099  0.6116  0.1161
  977SOL    HW1 2930   1.206   1.996   0.908  2.6860 -2.3055  1.7417
  977SOL    HW2 2931   1.212   2.150   0.843  2.4231 -1.1423  0.0234
  978SOL     OW 2932   0.633   1.064   0.145  0.2708 -0.4737 -0.0062
  978SOL    HW1 2933   0.601   0.990   0.213 -0.1441 -2.2433  3.8973
  978SOL    HW2 2934   0.650   1.029   0.048 -1.9875 -0.6210  0.3179
  979SOL     OW 2935   2.092   1.554   0.268 -0.2726  0.3316 -0.3939
  979SOL    HW1 2936   2.113   1.456   0.258 -3.6737 -1.9440 -0.4056
  979SOL    HW2 2937   1.998   1.579   0.249  2.2204 -1.0264 -0.1602
  980SOL     OW 2938   0.486   1.974   2.203 -0.6993 -0.3780  0.2959
  980SOL    HW1 2939   0.513   1.877   2.181 -1.4065 -1.1911  0.9619
  980SOL    HW2 2940   0.429   1.976   2.288 -2.9268  1.4825 -1.2315
  981SOL     OW 2941   2.773   0.946   0.021 -0.3544  0.2589  0.3024
  981SOL    HW1 2942   2.711   0.956   0.102 -0.3521 -1.1050  0.6348
  981SOL    HW2 2943   2.792   0.846   0.013  0.0582  1.5085  0.3703
  982SOL     OW 2944   2.976   2.786   1.944 -0.1345  0.4785  0.4171
  982SOL    HW1 2945   2.917   2.846   1.894  3.2769  2.1458  1.9349
  982SOL    HW2 2946   3.005   2.703   1.887  1.5396  1.0918  1.9546
  983SOL     OW 2947   1.609   0.095   1.613 -0.5295  0.4296  0.3510
  983SOL    HW1 2948   1.552   0.112   1.530  1.4154  1.8703 -0.4227
  983SOL    HW2 2949   1.695   0.039   1.591  1.3090  0.9715  1.6654
  984SOL     OW 2950   1.299   2.917   2.633  0.4974  0.2403  0.3055
  984SOL    HW1 2951   1.385   2.958   2.664  0.5334 -1.3472  1.9229
  984SOL    HW2 2952   1.319   2.824   2.589 -1.1331 -1.5346  1.4402
  985SOL     OW 2953   1.418   1.554   1.502 -0.3145 -0.1035  0.3560
  985SOL    HW1 2954   1.351   1.519   1.430  1.8073 -0.6614 -2.2358
  985SOL    HW2 2955   1.371   1.550   1.588  0.9774  0.9499 -3.1552
  986SOL     OW 2956   2.021   2.995   2.479  0.3986 -0.3500  0.3489
  986SOL    HW1 2957   2.109   2.986   2.427  0.6920 -1.2311  1.3501
  986SOL    HW2 2958   1.982   0.021   2.456  1.1516 -1.3837  0.5088
  987SOL     OW 2959   2.618   1.846   2.584  0.6648  0.6366  0.2284
  987SOL    HW1 2960   2.683   1.878   2.656  0.5137 -1.2487  2.8988
  987SOL    HW2 2961   2.660   1.855   2.494  3.2332  0.3353  2.0820
  988SOL     OW 2962   2.645   0.160   1.681  0.4188 -0.2268  0.0383
  988SOL    HW1 2963   2.743   0.173   1.690 -3.0916  0.5892 -1.2680
  988SOL    HW2 2964   2.628   0.135   1.583  0.5447  2.4348 -1.1464
  989SOL     OW 2965   1.719   1.215   1.548  0.1619  0.8206 -0.2908
  989SOL    HW1 2966   1.712   1.313   1.556  1.4085 -3.1678 -0.6504
  989SOL    HW2 2967   1.809   1.176   1.576 -2.6322  1.3614 -1.5148
  990SOL     OW 2968   3.015   1.069   0.017  0.5527  0.2117  0.2199
  990SOL    HW1 2969   2.926   1.018   0.032 -1.7118 -0.2796 -0.3963
  990SOL    HW2 2970   3.034   1.064   2.981  1.7996  1.2292  1.7218
  991SOL     OW 2971   0.207   2.075   2.883  0.1539 -0.1337  0.0685
  991SOL    HW1 2972   0.184   2.030   2.969 -1.7718 -0.4622 -2.3825
  991SOL    HW2 2973   0.258   2.015   2.820 -1.6306 -0.1736 -0.2425
  992SOL     OW 2974   2.624   1.874   2.017  0.0247  0.3180  0.0384
  992SOL    HW1 2975   2.625   1.971   2.051 -0.1275  0.7900 -0.6471
  992SOL    HW2 2976   2.712   1.828   2.027 -0.3873  0.9875 -1.2418
  993SOL     OW 2977   0.820   2.993   0.561 -0.1005  0.0252 -0.2543
  993SOL    HW1 2978   0.803   2.892   0.549  1.7881 -0.4101  3.0005
  993SOL    HW2 2979   0.783   3.024   0.653 -0.2401  0.5215  0.8111
  994SOL     OW 2980   3.042   1.790   1.537 -0.0191 -0.6031  0.5826
  994SOL    HW1 2981   0.028   1.824   1.613  0.3103  0.7398 -1.7917
  994SOL    HW2 2982   0.025   1.796   1.448 -0.2064 -0.4790 -0.8280
  995SOL     OW 2983   2.358   1.996   2.358  0.0028 -0.4549  0.1141
  995SOL    HW1 2984   2.457   2.016   2.329  0.6796  1.4602 -0.4642
  995SOL    HW2 2985   2.303   1.957   2.283  0.7737 -0.6567 -2.7344
  996SOL     OW 2986   1.923   1.779   2.895 -0.3540 -0.8534  0.0459
  996SOL    HW1 2987   1.858   1.855   2.918  0.2460 -2.2334 -0.2277
  996SOL    HW2 2988   2.023   1.809   2.913  2.8585  0.1326  0.9698
  997SOL     OW 2989   1.140   1.292   1.531  0.0826 -0.6887  0.1265
  997SOL    HW1 2990   1.198   1.213   1.550  0.3748 -1.8039  0.6971
  997SOL    HW2 2991   1.166   1.331   1.439 -0.7600  0.1661 -2.1557
  998SOL     OW 2992   2.842   2.087   0.964  0.2294  0.4229 -0.3828
  998SOL    HW1 2993   2.875   2.060   0.873  0.2336  1.2045  1.3208
  998SOL    HW2 2994   2.867   2.019   1.038 -0.1247 -2.1786  1.0793
  999SOL     OW 2995   2.853   2.713   0.248  0.2397  0.0992 -0.5200
  999SOL    HW1 2996   2.761   2.697   0.291 -1.7834 -1.8471  2.5241
  999SOL    HW2 2997   2.853   2.803   0.201 -0.5443  1.2976 -0.4753
 1000SOL     OW 2998   1.028   0.155   2.935 -0.3120 -0.3565 -0.2288
 1000SOL    HW1 2999   1.063   0.159   3.033 -0.0869  0.2443  1.4591
 1000SOL    HW2 3000   1.004   0.251   2.902 -0.7991  0.8942  1.6661
   3.06798   3.06798   3.06798
