1000 SPC/Fw water molecules t=  53.00000 step= 53000
 3000
    1SOL     OW    1   2.102   2.769   0.767  0.0286 -0.1086 -0.4127
    1SOL    HW1    2   2.051   2.791   0.682  1.3275 -0.3016  2.0994
    1SOL    HW2    3   2.141   2.851   0.819 -0.2661  2.0852  0.9258
    2SOL     OW    4   1.211   0.948   2.468 -0.2770 -0.4091 -0.2593
    2SOL    HW1    5   1.232   1.019   2.401  0.4988 -3.0363  1.3167
    2SOL    HW2    6   1.192   0.982   2.565  0.0505 -0.9378 -0.2969
    3SOL     OW    7   0.978   2.748   2.707  0.1341 -0.1951  0.6078
    3SOL    HW1    8   1.075   2.782   2.729  0.3024  0.1605 -0.7163
    3SOL    HW2    9   0.976   2.651   2.729 -1.0138  0.1047  1.5077
    4SOL     OW   10   1.452   1.497   2.993 -0.0031  0.3132 -0.2201
    4SOL    HW1   11   1.486   1.399   2.997  1.4502 -2.7268  0.6679
    4SOL    HW2   12   1.502   1.555   2.928 -2.4954 -3.2771  0.1382
    5SOL     OW   13   0.949   0.790   1.896 -0.1508 -0.5089  0.6494
    5SOL    HW1   14   0.996   0.699   1.894  1.1466 -2.2066  2.4021
    5SOL    HW2   15   0.861   0.785   1.944 -1.2999 -1.5810 -0.7658
    6SOL     OW   16   2.038   0.699   2.374 -0.5058  0.1175  0.8951
    6SOL    HW1   17   2.073   0.631   2.301  1.4021 -0.8500 -3.7499
    6SOL    HW2   18   2.096   0.696   2.457  1.2021  2.4939 -1.3219
    7SOL     OW   19   0.331   0.843   1.587  0.4698 -0.3065 -0.1189
    7SOL    HW1   20   0.387   0.767   1.551  0.6163  0.5610  1.0380
    7SOL    HW2   21   0.292   0.815   1.679  0.5274 -3.7014  2.1196
    8SOL     OW   22   1.923   2.997   1.886  0.6923  0.2350  0.3022
    8SOL    HW1   23   1.905   2.912   1.939  0.1916 -1.2764 -0.4834
    8SOL    HW2   24   1.843   3.057   1.875 -1.6578  0.0264 -0.5989
    9SOL     OW   25   0.367   3.017   0.525  0.4842 -0.1469  0.3385
    9SOL    HW1   26   0.378   3.049   0.425  0.4107 -1.8605 -0.9594
    9SOL    HW2   27   0.286   2.954   0.525  0.0126 -0.9818 -1.2720
   10SOL     OW   28   0.390   2.252   2.229 -0.1563  0.3539  0.2448
   10SOL    HW1   29   0.429   2.179   2.290  0.4860  0.9461 -0.9729
   10SOL    HW2   30   0.444   2.261   2.147 -1.9663 -0.2171  0.6559
   11SOL     OW   31   0.981   1.615   3.095  0.2798 -0.5668  0.7013
   11SOL    HW1   32   0.917   1.593   0.071 -0.9740 -1.1527  0.8433
   11SOL    HW2   33   1.063   1.564   3.094 -0.7148  2.5132  0.7990
   12SOL     OW   34   2.565   2.278   1.452  0.0677 -0.0640 -0.3281
   12SOL    HW1   35   2.468   2.273   1.425  1.4939 -1.1777  0.7300
   12SOL    HW2   36   2.567   2.327   1.540  1.8558  2.7194  1.6501
   13SOL     OW   37   0.439   2.921   3.011  0.1116 -0.3219 -0.3199
   13SOL    HW1   38   0.485   3.009   3.009 -0.6494 -2.2052 -0.1620
   13SOL    HW2   39   0.455   2.879   0.006 -1.0033 -0.0234  0.3511
   14SOL     OW   40   1.387   1.678   1.405 -0.4092  0.2048  0.1721
   14SOL    HW1   41   1.308   1.678   1.470 -0.3096 -1.5634  0.9178
   14SOL    HW2   42   1.475   1.701   1.448  2.0188 -1.0846  0.1966
   15SOL     OW   43   0.439   1.657   2.433 -0.0392  0.4959  0.6645
   15SOL    HW1   44   0.496   1.616   2.357  1.4200 -0.0578 -1.4336
   15SOL    HW2   45   0.382   1.736   2.406  1.1134 -0.7854  1.4646
   16SOL     OW   46   1.676   0.576   2.829  0.2127 -0.1330  0.0826
   16SOL    HW1   47   1.585   0.526   2.829  0.2019 -1.8262 -0.0529
   16SOL    HW2   48   1.651   0.677   2.843 -2.0124  0.5482 -0.6150
   17SOL     OW   49   2.948   2.860   2.540 -0.3807  0.4870  0.1359
   17SOL    HW1   50   2.965   2.780   2.473  1.8312 -0.1601 -3.2544
   17SOL    HW2   51   3.024   2.867   2.612 -0.2810  0.5833  1.0098
   18SOL     OW   52   1.218   1.146   0.834 -0.2522 -0.1162  0.4907
   18SOL    HW1   53   1.204   1.234   0.777 -0.3900  2.1528 -3.1669
   18SOL    HW2   54   1.131   1.103   0.861  1.5344 -0.4581 -0.0570
   19SOL     OW   55   2.740   1.749   2.461 -0.8601  0.2054 -0.2240
   19SOL    HW1   56   2.788   1.715   2.544  1.1209 -0.3101  1.8085
   19SOL    HW2   57   2.727   1.848   2.470  0.8777 -3.2479  1.1101
   20SOL     OW   58   2.394   2.335   2.454 -0.6235  0.5066 -0.1354
   20SOL    HW1   59   2.361   2.342   2.358  1.6704  1.1799  2.0125
   20SOL    HW2   60   2.334   2.385   2.514  0.3970 -0.4261 -3.7091
   21SOL     OW   61   1.735   1.954   0.496  0.1977 -0.2372 -0.1612
   21SOL    HW1   62   1.717   2.036   0.553  1.7206 -1.9989 -1.3399
   21SOL    HW2   63   1.754   1.874   0.552 -1.4970  0.9294 -1.7237
   22SOL     OW   64   2.233   2.029   1.277  0.5138  0.1015 -0.0357
   22SOL    HW1   65   2.307   1.960   1.281 -0.1137 -1.9862  0.5319
   22SOL    HW2   66   2.148   1.996   1.236  0.4432 -2.3447  1.8655
   23SOL     OW   67   0.112   1.196   1.477 -0.3544 -0.8583 -0.0618
   23SOL    HW1   68   0.127   1.292   1.515 -1.5008  0.7099  1.6596
   23SOL    HW2   69   0.013   1.168   1.485  1.9410 -1.4910 -1.3543
   24SOL     OW   70   2.246   1.224   2.116  0.4104 -0.3273 -0.3872
   24SOL    HW1   71   2.330   1.284   2.121  0.2028  1.0135 -0.2996
   24SOL    HW2   72   2.243   1.159   2.190 -0.0477  0.3437 -1.3077
   25SOL     OW   73   1.946   0.203   2.399 -0.3742  0.0815 -0.3530
   25SOL    HW1   74   1.865   0.180   2.456  0.6324  2.9655  0.6895
   25SOL    HW2   75   1.969   0.126   2.336  0.5815 -0.9671  1.6374
   26SOL     OW   76   0.784   0.266   0.193 -0.3048 -0.5859  0.0681
   26SOL    HW1   77   0.684   0.273   0.197 -0.5399 -2.1695 -1.0489
   26SOL    HW2   78   0.820   0.330   0.119 -3.1977  1.6242  0.9464
   27SOL     OW   79   0.750   1.645   0.862 -0.0191  0.0214 -0.7096
   27SOL    HW1   80   0.709   1.655   0.769 -1.0491  3.3782  2.1010
   27SOL    HW2   81   0.715   1.719   0.919 -0.1408 -0.1358 -2.1703
   28SOL     OW   82   2.223   2.261   1.093 -0.0534  0.0520  0.0158
   28SOL    HW1   83   2.218   2.203   1.177 -1.6121  0.6607 -0.2075
   28SOL    HW2   84   2.180   2.353   1.102  1.0878 -1.2131 -0.1132
   29SOL     OW   85   2.169   0.021   1.936  0.3234  0.2613  0.3606
   29SOL    HW1   86   2.078   3.076   1.939  1.0879  1.6200  1.1285
   29SOL    HW2   87   2.230   3.076   1.871 -2.3076  0.0334  1.8274
   30SOL     OW   88   0.461   3.039   1.375 -0.3252  0.4520 -0.0813
   30SOL    HW1   89   0.411   3.067   1.462 -3.3563  0.9904  1.6051
   30SOL    HW2   90   0.472   0.015   1.311  0.8486 -3.0905  1.1205
   31SOL     OW   91   3.037   1.931   2.257 -0.0935  0.4278 -0.2736
   31SOL    HW1   92   0.001   1.860   2.221  0.5885  0.2196  2.6768
   31SOL    HW2   93   2.942   1.913   2.229  2.5748  2.0414  0.8834
   32SOL     OW   94   1.511   1.955   2.278  0.4228  0.1348 -0.4519
   32SOL    HW1   95   1.588   1.911   2.230 -0.9380 -1.4298 -0.4108
   32SOL    HW2   96   1.438   1.886   2.291  1.8814 -1.0373  0.5584
   33SOL     OW   97   0.290   0.100   2.800  0.6660 -0.5933  0.6790
   33SOL    HW1   98   0.299   0.022   2.860  0.6261  0.2779 -1.6885
   33SOL    HW2   99   0.276   0.067   2.703  1.7260  0.2261 -0.2089
   34SOL     OW  100   2.514   3.064   0.442 -0.5219 -1.2675  0.5958
   34SOL    HW1  101   2.497   0.060   0.473 -0.1685 -1.9395 -0.0724
   34SOL    HW2  102   2.560   3.008   0.516 -0.1571  1.2970  1.2502
   35SOL     OW  103   2.809   0.233   1.643  0.0093 -0.3335 -0.0097
   35SOL    HW1  104   2.784   0.323   1.673  1.8276 -0.7202 -0.7874
   35SOL    HW2  105   2.886   0.229   1.578 -1.0830 -0.6942  2.7809
   36SOL     OW  106   2.541   2.991   2.357 -0.3549  0.8701 -0.5672
   36SOL    HW1  107   2.540   2.892   2.387 -1.1807 -0.7736  0.0835
   36SOL    HW2  108   2.599   3.050   2.418  2.3442  2.4466 -1.1321
   37SOL     OW  109   1.379   2.819   3.093  0.0147  0.2171 -0.5216
   37SOL    HW1  110   1.376   2.922   3.076 -0.9449  1.1443  1.0020
   37SOL    HW2  111   1.291   2.767   3.079  0.4840  1.1878  1.8790
   38SOL     OW  112   0.038   0.758   3.053  0.6060 -0.9159  0.0389
   38SOL    HW1  113   0.059   0.661   3.030  2.0968 -0.6605  0.6273
   38SOL    HW2  114   0.109   0.822   3.012  0.7473  0.7416 -0.8902
   39SOL     OW  115   1.446   1.791   1.977 -0.1246  0.2195  0.6434
   39SOL    HW1  116   1.471   1.884   1.946 -2.9200 -1.5338  1.4165
   39SOL    HW2  117   1.348   1.787   1.999  4.2815  0.4028 -0.2483
   40SOL     OW  118   0.304   0.435   2.554  0.0695 -0.1965  0.3219
   40SOL    HW1  119   0.385   0.495   2.550 -1.8158 -0.5088  0.1808
   40SOL    HW2  120   0.291   0.382   2.467 -0.6741 -0.9848 -1.9664
   41SOL     OW  121   1.539   0.964   2.179 -0.1973 -0.2291 -0.1369
   41SOL    HW1  122   1.566   0.863   2.157 -0.2396 -0.4774 -0.7480
   41SOL    HW2  123   1.556   0.983   2.271 -3.5512  1.2000 -1.2167
   42SOL     OW  124   3.062   0.328   1.478  0.5521  0.3438 -0.6995
   42SOL    HW1  125   3.060   0.429   1.485  0.1821 -1.6136  0.0789
   42SOL    HW2  126   0.041   0.290   1.527 -1.2265 -0.3739 -2.8196
   43SOL     OW  127   1.421   1.343   1.761 -0.1455 -0.0355 -0.2808
   43SOL    HW1  128   1.517   1.360   1.785  0.0487  3.8944  1.9513
   43SOL    HW2  129   1.387   1.266   1.819  1.9748 -2.1573 -0.8196
   44SOL     OW  130   3.023   0.181   2.862  0.0746  0.4341 -0.3797
   44SOL    HW1  131   0.002   0.167   2.930  1.7962 -0.6085 -2.0053
   44SOL    HW2  132   2.971   0.094   2.866  1.1393 -1.1141 -2.1645
   45SOL     OW  133   0.362   2.127   1.473  0.0746 -0.4965  0.0765
   45SOL    HW1  134   0.263   2.152   1.447 -3.4906  0.8718 -0.6299
   45SOL    HW2  135   0.414   2.130   1.385 -3.3962 -1.1989 -0.1508
   46SOL     OW  136   2.383   2.951   1.855  0.3644  0.0237 -0.1446
   46SOL    HW1  137   2.458   2.990   1.913  0.0484 -0.3711 -1.1619
   46SOL    HW2  138   2.416   2.896   1.777 -0.5998  2.2954  1.0019
   47SOL     OW  139   0.278   2.012   1.045  0.1088  0.1440  0.3053
   47SOL    HW1  140   0.250   2.006   0.943 -0.2412  1.5667 -1.5627
   47SOL    HW2  141   0.291   1.920   1.087 -1.6853  2.2928  1.0436
   48SOL     OW  142   0.459   2.828   0.171  0.1224  0.6839  0.3062
   48SOL    HW1  143   0.504   2.829   0.263  2.6370  1.7823  0.5958
   48SOL    HW2  144   0.432   2.732   0.145  0.9270  1.7016 -0.3459
   49SOL     OW  145   0.004   1.684   1.862  0.1341  0.0620 -0.3544
   49SOL    HW1  146   0.081   1.687   1.923  0.5996 -0.3668  1.8628
   49SOL    HW2  147   3.055   1.596   1.878  0.6934 -0.1015 -2.5314
   50SOL     OW  148   1.531   0.075   0.724 -0.3087  0.5370  0.1934
   50SOL    HW1  149   1.599   0.109   0.647  2.1032 -0.6182 -3.2953
   50SOL    HW2  150   1.561   0.123   0.809 -1.2418  1.2197  0.2291
   51SOL     OW  151   1.095   0.138   1.217 -0.0200  0.1799  0.4621
   51SOL    HW1  152   1.015   0.137   1.280 -1.1817 -0.7218  1.6443
   51SOL    HW2  153   1.111   0.229   1.173 -2.1479  2.9376 -0.4661
   52SOL     OW  154   0.674   1.327   0.469  0.5060  0.0850 -0.5390
   52SOL    HW1  155   0.621   1.302   0.390  0.9773  1.7603  0.7130
   52SOL    HW2  156   0.748   1.260   0.488  0.5644  0.1055 -2.0190
   53SOL     OW  157   1.397   2.942   2.442  0.4537 -0.2219  0.1925
   53SOL    HW1  158   1.453   2.960   2.357 -0.2625  1.7524  0.3464
   53SOL    HW2  159   1.443   2.872   2.502  0.6505 -0.4702  1.7085
   54SOL     OW  160   1.739   0.565   1.684  0.0083 -0.0470  0.0094
   54SOL    HW1  161   1.785   0.640   1.630 -0.3490  0.3824 -0.0778
   54SOL    HW2  162   1.798   0.486   1.713  1.9023  0.2685 -0.5608
   55SOL     OW  163   2.945   2.581   0.644  0.2468  0.3441 -0.1796
   55SOL    HW1  164   3.004   2.629   0.709  0.4599 -1.2669  0.8652
   55SOL    HW2  165   2.993   2.506   0.587  1.2071 -2.8182 -0.9189
   56SOL     OW  166   1.010   2.902   1.809 -0.3108  0.3346  0.0160
   56SOL    HW1  167   1.028   2.972   1.880 -2.1153 -1.1082 -2.6340
   56SOL    HW2  168   0.911   2.908   1.793  0.0095 -1.4040  0.3496
   57SOL     OW  169   1.784   0.697   2.351 -0.8878  0.2276 -0.0771
   57SOL    HW1  170   1.886   0.714   2.350  1.4663  0.1534  1.2942
   57SOL    HW2  171   1.737   0.727   2.267  0.6859 -1.7928  2.8120
   58SOL     OW  172   0.439   1.289   2.146 -0.0552  0.0692 -0.4144
   58SOL    HW1  173   0.429   1.230   2.062  0.3790  1.3403 -0.1265
   58SOL    HW2  174   0.343   1.327   2.167 -3.3834 -1.3401  0.7599
   59SOL     OW  175   0.591   2.641   2.008 -0.3171 -0.2101  1.0559
   59SOL    HW1  176   0.583   2.538   2.010  1.0823 -2.6557  2.2110
   59SOL    HW2  177   0.643   2.671   1.926 -1.2820 -1.6452 -0.1192
   60SOL     OW  178   2.474   2.455   0.256 -0.1792  0.2511 -0.3624
   60SOL    HW1  179   2.576   2.455   0.282  1.3733 -0.3884 -0.5651
   60SOL    HW2  180   2.453   2.528   0.191  1.2901  1.4720 -1.4768
   61SOL     OW  181   1.028   2.586   0.719 -0.1684  0.0822 -0.2077
   61SOL    HW1  182   1.042   2.602   0.818 -1.6460  2.2116  1.8880
   61SOL    HW2  183   1.112   2.611   0.663  0.0909  1.4544 -0.8659
   62SOL     OW  184   1.480   2.689   2.884  0.1351 -0.1976  0.1152
   62SOL    HW1  185   1.530   2.607   2.922 -1.4455 -0.1004  0.2976
   62SOL    HW2  186   1.447   2.752   2.958  1.0709 -0.2719  1.4322
   63SOL     OW  187   2.227   0.640   2.925  0.3218  0.4107 -0.3369
   63SOL    HW1  188   2.212   0.722   2.988 -2.4119 -0.1963 -0.3559
   63SOL    HW2  189   2.323   0.604   2.941  1.8544  3.3089  3.8030
   64SOL     OW  190   1.242   1.242   0.151  0.7244  0.2639 -0.1390
   64SOL    HW1  191   1.181   1.290   0.216  0.3547  1.5716 -0.3844
   64SOL    HW2  192   1.312   1.198   0.202 -0.1004  1.5342 -1.9404
   65SOL     OW  193   0.721   2.972   1.401  0.0834  0.2333 -0.5852
   65SOL    HW1  194   0.768   2.897   1.351  0.9693  0.6385 -0.9776
   65SOL    HW2  195   0.627   2.993   1.373  3.1706  2.4723 -0.9309
   66SOL     OW  196   0.828   1.167   1.389  0.3763 -0.3797  0.4102
   66SOL    HW1  197   0.768   1.092   1.355 -0.9093 -0.7380 -0.5244
   66SOL    HW2  198   0.909   1.164   1.336 -3.1027  0.6725  1.0255
   67SOL     OW  199   2.517   2.070   1.927 -0.1018 -0.0313 -0.0141
   67SOL    HW1  200   2.573   2.153   1.954  2.8154  2.0002 -0.3593
   67SOL    HW2  201   2.450   2.091   1.853 -1.2546 -1.4160 -1.2494
   68SOL     OW  202   0.889   1.340   2.045  0.0849  0.0427  0.2055
   68SOL    HW1  203   0.796   1.357   2.073  1.9644  0.1750  1.2187
   68SOL    HW2  204   0.909   1.361   1.946 -0.1789 -1.1064 -2.1219
   69SOL     OW  205   2.690   2.785   0.126  0.2797 -0.1933 -0.6475
   69SOL    HW1  206   2.713   2.774   0.228 -1.4545 -2.4219  3.0434
   69SOL    HW2  207   2.602   2.837   0.116 -1.3581 -1.0806  2.0971
   70SOL     OW  208   2.680   0.885   2.429 -0.5516 -0.0235 -0.1100
   70SOL    HW1  209   2.609   0.916   2.498  0.8390  3.1151 -0.8576
   70SOL    HW2  210   2.664   0.790   2.392  0.9613 -0.1185  1.1196
   71SOL     OW  211   0.235   2.006   0.764 -0.7640 -0.1052  0.3945
   71SOL    HW1  212   0.212   1.921   0.713 -0.7620  0.4830  2.0964
   71SOL    HW2  213   0.153   2.064   0.792  0.7085 -1.6864 -0.7202
   72SOL     OW  214   2.643   1.864   0.499  0.0098 -0.0119 -0.6256
   72SOL    HW1  215   2.558   1.915   0.494 -1.0631  1.0389 -0.4754
   72SOL    HW2  216   2.622   1.763   0.480 -1.2486 -1.0955  0.9813
   73SOL     OW  217   1.122   0.508   0.382 -0.3943 -0.2918 -0.2578
   73SOL    HW1  218   1.107   0.580   0.309 -4.1770  1.2838  1.8264
   73SOL    HW2  219   1.067   0.528   0.469 -1.9096 -1.5641  3.0342
   74SOL     OW  220   2.596   2.363   1.971 -0.6071  1.2414 -0.5777
   74SOL    HW1  221   2.679   2.374   2.034  1.2646  0.3919  1.0125
   74SOL    HW2  222   2.532   2.435   1.999  1.1198 -3.4769 -1.0819
   75SOL     OW  223   1.626   1.634   1.829  0.1558  0.2790  0.2127
   75SOL    HW1  224   1.540   1.671   1.867  1.6076 -0.9375  2.8619
   75SOL    HW2  225   1.644   1.539   1.866  0.4788 -1.1062 -0.1270
   76SOL     OW  226   1.086   1.790   1.053 -0.0683 -0.5415 -0.0651
   76SOL    HW1  227   1.179   1.813   1.090  0.4062 -1.5603  0.8270
   76SOL    HW2  228   1.020   1.782   1.129  0.4207  1.3484 -0.5422
   77SOL     OW  229   2.786   1.531   1.983  0.1783  0.3913 -0.1961
   77SOL    HW1  230   2.764   1.567   2.076 -2.6964 -0.4122  1.3055
   77SOL    HW2  231   2.838   1.442   1.991 -0.6074  2.8023 -0.1861
   78SOL     OW  232   1.923   0.639   0.384 -0.3803 -0.2599 -0.1228
   78SOL    HW1  233   1.926   0.600   0.482 -0.9150 -2.1297 -0.0209
   78SOL    HW2  234   1.895   0.735   0.393 -0.5278 -1.2150 -1.3545
   79SOL     OW  235   1.568   1.228   2.080  0.1268 -0.1896 -0.5952
   79SOL    HW1  236   1.655   1.259   2.122 -2.4135  0.8991  0.7761
   79SOL    HW2  237   1.564   1.126   2.074 -1.5072  0.7929 -0.0945
   80SOL     OW  238   0.926   0.555   1.626 -0.1334 -0.1248 -0.0427
   80SOL    HW1  239   0.999   0.516   1.559  2.8456 -1.1590 -0.2901
   80SOL    HW2  240   0.969   0.558   1.717 -0.3275  2.1582 -1.4476
   81SOL     OW  241   0.766   2.612   0.833  0.2100  0.0365 -0.0231
   81SOL    HW1  242   0.761   2.712   0.823 -0.6938 -0.3632 -0.0332
   81SOL    HW2  243   0.845   2.569   0.782 -0.1664 -0.2165  0.4417
   82SOL     OW  244   1.256   0.354   1.873 -0.0116  0.0349  0.0504
   82SOL    HW1  245   1.335   0.409   1.836  0.6779 -3.1307 -0.2428
   82SOL    HW2  246   1.293   0.295   1.946  0.1302  0.5079 -0.2228
   83SOL     OW  247   0.242   2.276   0.670 -0.1943  0.0282 -0.2376
   83SOL    HW1  248   0.332   2.310   0.638 -2.3427  1.5895  1.1076
   83SOL    HW2  249   0.248   2.174   0.687 -0.3571 -0.4447 -0.0635
   84SOL     OW  250   2.614   1.449   3.028  0.1346 -0.0785 -0.5743
   84SOL    HW1  251   2.672   1.384   2.982 -0.1745  2.3452 -0.0834
   84SOL    HW2  252   2.663   1.537   3.042  0.9578 -2.9205 -0.7190
   85SOL     OW  253   2.589   1.873   1.516  0.5222 -0.4478 -0.0233
   85SOL    HW1  254   2.626   1.969   1.497  2.5543  3.9908 -0.2238
   85SOL    HW2  255   2.615   1.835   1.611 -0.7830 -0.6951  2.2833
   86SOL     OW  256   1.573   2.599   1.186 -0.1917  0.0438 -0.2910
   86SOL    HW1  257   1.614   2.570   1.096  0.9445  2.0377 -2.4102
   86SOL    HW2  258   1.640   2.652   1.242 -1.8279  0.4598 -0.8691
   87SOL     OW  259   2.576   1.610   0.465 -0.7722  0.0475  0.4130
   87SOL    HW1  260   2.479   1.584   0.477  2.5822 -0.3595 -1.6147
   87SOL    HW2  261   2.621   1.568   0.385  0.5804  1.1740  1.9150
   88SOL     OW  262   0.841   0.199   0.886  0.1231  0.1017 -0.0762
   88SOL    HW1  263   0.926   0.167   0.838 -2.5797 -0.8141  1.3886
   88SOL    HW2  264   0.852   0.299   0.898  3.0526 -2.3965  1.8343
   89SOL     OW  265   0.601   0.149   1.756  0.0612  0.1233  0.5540
   89SOL    HW1  266   0.673   0.216   1.788 -1.7009  0.8331  0.9000
   89SOL    HW2  267   0.544   0.115   1.842 -0.8690 -0.7184  0.8463
   90SOL     OW  268   3.009   1.895   0.817  0.0939  0.5184 -0.0997
   90SOL    HW1  269   2.909   1.915   0.786 -0.7430 -1.8742 -1.2513
   90SOL    HW2  270   3.029   1.802   0.775 -0.7058 -0.9473 -2.0223
   91SOL     OW  271   0.893   1.745   1.291 -0.8412  0.7311 -0.1422
   91SOL    HW1  272   0.799   1.755   1.249 -1.9202  2.6846  1.7409
   91SOL    HW2  273   0.910   1.646   1.318 -0.0980 -1.0155 -0.2378
   92SOL     OW  274   2.501   2.890   1.618 -0.0874  0.2713  0.7886
   92SOL    HW1  275   2.494   2.989   1.586 -1.4978  0.4287  0.0353
   92SOL    HW2  276   2.590   2.853   1.583  1.7247 -0.5582  0.4967
   93SOL     OW  277   0.398   0.990   2.718  1.1886  0.7027 -0.3801
   93SOL    HW1  278   0.457   1.026   2.794  0.1468 -0.3856 -0.5254
   93SOL    HW2  279   0.364   1.054   2.649  1.7895 -0.5040  0.2387
   94SOL     OW  280   2.600   3.090   1.992  0.7960  0.2167  0.1819
   94SOL    HW1  281   2.576   0.086   2.023 -2.3859  1.4997 -2.7579
   94SOL    HW2  282   2.680   3.090   1.928  1.3141  0.6073  0.5599
   95SOL     OW  283   1.654   0.732   2.117 -0.2481 -0.5611  0.0815
   95SOL    HW1  284   1.598   0.647   2.105  0.4855  0.6103  0.1245
   95SOL    HW2  285   1.677   0.775   2.027  1.3940 -1.2775  1.0431
   96SOL     OW  286   2.910   0.620   1.717  0.2120  0.1427 -0.4025
   96SOL    HW1  287   2.820   0.574   1.720 -2.5104 -1.5317  2.4140
   96SOL    HW2  288   2.903   0.724   1.705 -0.1854  2.0912  0.4323
   97SOL     OW  289   2.037   2.771   1.688 -0.2971 -0.4492 -0.6344
   97SOL    HW1  290   2.128   2.752   1.652 -1.2998 -3.1254  0.8800
   97SOL    HW2  291   2.042   2.843   1.762  1.6403  0.8365  0.6352
   98SOL     OW  292   2.145   2.394   1.857  0.7562  0.3958 -0.3917
   98SOL    HW1  293   2.086   2.310   1.869  1.6465 -0.5942  0.6108
   98SOL    HW2  294   2.099   2.482   1.892  1.8671  0.7488 -0.0016
   99SOL     OW  295   2.851   0.656   1.241  0.1872 -0.0843  0.4479
   99SOL    HW1  296   2.863   0.583   1.173 -1.2085  0.7891  0.1535
   99SOL    HW2  297   2.919   0.647   1.314  1.1233  0.0694  0.8117
  100SOL     OW  298   2.356   1.824   1.773  0.5371 -0.0136 -0.2971
  100SOL    HW1  299   2.296   1.882   1.829  1.0499  0.8406 -3.1115
  100SOL    HW2  300   2.457   1.837   1.789 -1.1234 -2.4114  3.5041
  101SOL     OW  301   2.247   0.037   0.128  0.6060 -0.3244  0.0329
  101SOL    HW1  302   2.266   3.064   0.063  1.8981 -1.5933 -1.3234
  101SOL    HW2  303   2.280   0.129   0.101 -0.7653 -0.9978  2.6108
  102SOL     OW  304   0.699   0.489   1.179 -0.3336  0.0711  0.3157
  102SOL    HW1  305   0.757   0.443   1.247 -0.8733  0.0743 -0.3283
  102SOL    HW2  306   0.602   0.469   1.188  3.7104  0.2666 -2.0121
  103SOL     OW  307   2.934   0.025   2.418 -0.3377  0.2764 -0.3696
  103SOL    HW1  308   2.932   3.039   2.471 -2.5748 -0.8432 -0.8610
  103SOL    HW2  309   2.965   0.008   2.323  1.0122 -0.4930 -1.2009
  104SOL     OW  310   0.375   2.409   1.271 -0.1288 -0.4661 -0.7049
  104SOL    HW1  311   0.389   2.313   1.247 -0.9830  1.1500  1.5952
  104SOL    HW2  312   0.450   2.469   1.239  0.8775  1.8245 -0.8983
  105SOL     OW  313   0.938   1.647   1.994 -0.0271 -0.2548  0.1990
  105SOL    HW1  314   0.968   1.551   1.974  2.5459  0.4863 -0.2245
  105SOL    HW2  315   0.879   1.675   1.913  1.4189 -1.4870  0.4397
  106SOL     OW  316   1.889   0.562   0.653  0.1970 -0.4626 -0.1178
  106SOL    HW1  317   1.927   0.603   0.743  3.2961  2.2334  0.8735
  106SOL    HW2  318   1.788   0.582   0.655  0.0377  0.6709  1.7024
  107SOL     OW  319   0.722   0.949   1.230  0.7171 -0.4317  0.2582
  107SOL    HW1  320   0.714   0.859   1.185  0.6069  1.0216 -2.4861
  107SOL    HW2  321   0.717   1.020   1.155 -0.4783 -0.4443 -0.3866
  108SOL     OW  322   3.060   0.702   2.050 -0.2239 -0.6312  0.0909
  108SOL    HW1  323   3.089   0.680   1.951 -2.1797  1.1940  1.7290
  108SOL    HW2  324   2.965   0.667   2.066  0.5013  3.1200 -1.1328
  109SOL     OW  325   1.746   2.889   2.795  0.4300 -0.0260 -0.3912
  109SOL    HW1  326   1.800   2.867   2.877 -1.8803 -0.5102 -0.6953
  109SOL    HW2  327   1.656   2.854   2.803  0.1002 -2.4086 -0.7983
  110SOL     OW  328   0.197   1.920   3.097  0.7167 -0.4385  0.2386
  110SOL    HW1  329   0.121   1.876   0.058 -2.7464 -0.7881 -0.8172
  110SOL    HW2  330   0.292   1.888   0.027 -0.9044  4.3313  1.9180
  111SOL     OW  331   2.824   0.586   2.163 -0.7951  0.0531 -0.1067
  111SOL    HW1  332   2.761   0.613   2.236 -2.5987  0.2467  0.8603
  111SOL    HW2  333   2.832   0.484   2.166 -1.3612  2.1932  0.9486
  112SOL     OW  334   2.642   2.549   1.353 -0.4073 -0.0467 -0.0127
  112SOL    HW1  335   2.605   2.460   1.383  1.4214  1.1367  0.2500
  112SOL    HW2  336   2.614   2.574   1.259  0.5445  1.8458 -1.3856
  113SOL     OW  337   2.200   2.085   2.145 -0.2083 -0.2736  0.3875
  113SOL    HW1  338   2.257   2.170   2.166  0.5870  3.9389  1.6915
  113SOL    HW2  339   2.102   2.105   2.145  0.7365 -2.6290 -1.0318
  114SOL     OW  340   0.121   0.348   0.130  0.3326 -0.1089  0.0310
  114SOL    HW1  341   0.059   0.350   0.214 -0.5138 -0.8928 -0.4059
  114SOL    HW2  342   0.208   0.402   0.138  1.2865 -1.1871 -0.5279
  115SOL     OW  343   2.766   1.656   3.082  0.5770 -0.1686 -0.4675
  115SOL    HW1  344   2.840   1.594   0.012 -1.4518 -1.3886  1.6738
  115SOL    HW2  345   2.785   1.699   2.991 -2.4014 -0.4180 -2.5360
  116SOL     OW  346   0.054   1.287   1.761 -0.5558  0.2650 -0.1346
  116SOL    HW1  347   0.141   1.334   1.785 -1.6477  1.0873  1.6200
  116SOL    HW2  348   3.092   1.353   1.723  1.2435 -0.0859  0.8289
  117SOL     OW  349   2.194   0.066   1.297  0.4271  0.6877 -0.5613
  117SOL    HW1  350   2.099   0.066   1.257 -0.2982  1.4973  1.1130
  117SOL    HW2  351   2.184   0.100   1.394 -1.7582 -1.3782  0.6731
  118SOL     OW  352   2.814   2.384   2.100  0.6673 -0.2449 -0.0250
  118SOL    HW1  353   2.860   2.454   2.043 -1.0380  0.9182 -1.2679
  118SOL    HW2  354   2.874   2.331   2.168 -2.3613 -0.0896  1.5800
  119SOL     OW  355   0.613   1.779   1.065 -0.2549  0.3917 -0.1678
  119SOL    HW1  356   0.621   1.855   1.128 -1.6097 -0.0979  0.5767
  119SOL    HW2  357   0.519   1.773   1.029  0.2382  0.5371  1.5065
  120SOL     OW  358   0.232   1.771   1.404  0.7882 -0.2735  0.0554
  120SOL    HW1  359   0.221   1.763   1.501 -1.7497 -1.8463 -2.6636
  120SOL    HW2  360   0.158   1.830   1.367 -2.7174  0.9582 -2.5314
  121SOL     OW  361   1.908   1.336   1.019 -0.0616 -0.8149 -0.0273
  121SOL    HW1  362   1.812   1.322   1.053  0.5737  1.9119  0.6239
  121SOL    HW2  363   1.975   1.313   1.092  3.4946 -0.0330  4.8769
  122SOL     OW  364   1.926   2.193   2.479 -0.1135 -0.2503  0.1587
  122SOL    HW1  365   1.925   2.142   2.564  0.5430 -0.1320  0.7800
  122SOL    HW2  366   1.899   2.288   2.494  1.7148 -3.2931  1.7240
  123SOL     OW  367   2.939   0.050   0.233  0.5126 -0.2139 -0.1558
  123SOL    HW1  368   3.039   0.038   0.218 -3.0143 -1.4746  0.6856
  123SOL    HW2  369   2.917   0.009   0.320  1.8598  2.3508 -1.0934
  124SOL     OW  370   0.995   1.302   0.514  0.6389  0.6749 -0.0954
  124SOL    HW1  371   0.963   1.264   0.605  0.2153  2.3388 -1.7216
  124SOL    HW2  372   1.030   1.224   0.456 -1.6820  0.6477  0.1892
  125SOL     OW  373   0.150   1.344   2.159  0.2251 -0.3337  0.1918
  125SOL    HW1  374   0.153   1.401   2.076 -4.6559 -1.0317  3.3258
  125SOL    HW2  375   0.125   1.401   2.238 -1.9930 -0.4376 -3.4681
  126SOL     OW  376   0.001   2.437   0.257  0.3917  0.0732 -0.0797
  126SOL    HW1  377   0.002   2.404   0.356  2.1879 -0.2439  1.4272
  126SOL    HW2  378   3.074   2.534   0.252  0.8878 -1.9855  1.9004
  127SOL     OW  379   2.877   1.814   0.381 -0.2286 -0.2549  0.1706
  127SOL    HW1  380   2.887   1.873   0.301 -1.7261  2.0392 -0.6588
  127SOL    HW2  381   2.798   1.846   0.436 -0.0431  0.7528 -1.9118
  128SOL     OW  382   1.364   0.887   0.809  0.4524  0.2019 -0.2390
  128SOL    HW1  383   1.308   0.971   0.797 -2.6626 -0.0411  1.2086
  128SOL    HW2  384   1.403   0.879   0.900 -1.2879 -0.1452 -1.8849
  129SOL     OW  385   2.595   1.913   1.089  0.3618 -0.2875  0.8400
  129SOL    HW1  386   2.669   1.980   1.116  0.4889 -2.0042  1.5216
  129SOL    HW2  387   2.543   1.878   1.169 -1.1741 -0.2679 -0.9252
  130SOL     OW  388   2.360   0.885   0.818 -0.0807  0.0437 -0.0595
  130SOL    HW1  389   2.417   0.931   0.888  0.0720 -1.7333 -0.2542
  130SOL    HW2  390   2.288   0.952   0.786 -0.3264  3.0875  0.0683
  131SOL     OW  391   3.003   1.217   2.457  0.2437 -0.2395 -0.2451
  131SOL    HW1  392   2.921   1.166   2.414  1.9065  0.6906  2.1725
  131SOL    HW2  393   3.059   1.164   2.519 -1.7155  2.7276 -0.9043
  132SOL     OW  394   1.408   1.387   2.220 -0.1242 -0.0617 -0.3158
  132SOL    HW1  395   1.311   1.353   2.230 -1.4371  1.2549 -1.1041
  132SOL    HW2  396   1.460   1.338   2.149  2.2209  0.3326 -0.4754
  133SOL     OW  397   0.205   1.229   0.302 -0.0276  0.2258  0.2364
  133SOL    HW1  398   0.132   1.273   0.255  3.1400  0.4540  1.2096
  133SOL    HW2  399   0.265   1.175   0.242  0.2647 -1.7983  1.6325
  134SOL     OW  400   2.812   1.039   0.208 -0.0547 -0.8573  0.1912
  134SOL    HW1  401   2.843   0.996   0.120  0.9417  2.1498  3.3684
  134SOL    HW2  402   2.722   1.079   0.188  1.0819  0.9374 -1.2150
  135SOL     OW  403   1.560   0.768   0.137  0.1521  0.4543  0.3241
  135SOL    HW1  404   1.483   0.779   0.070 -0.5511 -0.5605  0.2685
  135SOL    HW2  405   1.530   0.799   0.228 -0.7660  0.9817 -2.5985
  136SOL     OW  406   1.884   1.721   1.757  0.8685  0.5090 -0.1693
  136SOL    HW1  407   1.801   1.666   1.770 -0.4022  1.1478  1.2204
  136SOL    HW2  408   1.855   1.817   1.749 -0.2938  1.4634 -1.6120
  137SOL     OW  409   2.411   2.526   0.597 -0.4011 -0.0940  0.1303
  137SOL    HW1  410   2.487   2.463   0.571 -0.3592  1.1864  0.6517
  137SOL    HW2  411   2.325   2.483   0.575  0.1972 -0.8504  1.0230
  138SOL     OW  412   2.437   0.403   1.223  0.5213 -0.1768 -0.2786
  138SOL    HW1  413   2.512   0.339   1.242  0.8919 -0.9300 -1.5908
  138SOL    HW2  414   2.479   0.471   1.160  1.0649  0.7343  0.0879
  139SOL     OW  415   2.697   0.088   2.732 -0.2311 -0.4215 -0.2350
  139SOL    HW1  416   2.728   0.181   2.750  2.3378 -0.9028  0.0660
  139SOL    HW2  417   2.634   0.060   2.806 -0.9111  2.1643 -0.0398
  140SOL     OW  418   1.306   1.777   2.307 -0.4473 -0.2065  0.2844
  140SOL    HW1  419   1.321   1.678   2.337 -0.3574 -0.7511 -0.5485
  140SOL    HW2  420   1.253   1.835   2.373 -1.8743  1.9931 -1.2492
  141SOL     OW  421   0.903   0.787   2.334  0.3985 -0.3172  0.1780
  141SOL    HW1  422   0.967   0.751   2.404 -0.8371 -0.3635 -0.9519
  141SOL    HW2  423   0.803   0.775   2.357  2.3372 -2.2339 -0.6452
  142SOL     OW  424   2.482   2.642   2.784 -0.2534  0.4594  0.3517
  142SOL    HW1  425   2.390   2.670   2.742  0.5365  0.7458 -1.2495
  142SOL    HW2  426   2.523   2.563   2.734  1.6398  0.6823  1.4024
  143SOL     OW  427   1.101   1.960   0.429 -0.5032 -0.0163 -1.0548
  143SOL    HW1  428   1.201   1.989   0.423  0.5141  0.4280  1.0008
  143SOL    HW2  429   1.043   2.031   0.469  0.9425 -2.1181 -2.8756
  144SOL     OW  430   1.190   2.603   0.020 -0.2328 -0.2000 -0.7281
  144SOL    HW1  431   1.246   2.524   3.084  0.1880  0.9271 -0.5368
  144SOL    HW2  432   1.095   2.603   3.085  1.1378 -1.9537 -0.2593
  145SOL     OW  433   1.409   2.416   2.524  0.2373 -0.0321  0.6343
  145SOL    HW1  434   1.312   2.394   2.493 -1.3389 -1.8009 -0.2741
  145SOL    HW2  435   1.459   2.334   2.505 -2.1025 -1.3211  0.3477
  146SOL     OW  436   2.318   3.024   2.865  0.2867  0.0525 -0.0289
  146SOL    HW1  437   2.418   3.019   2.882  0.8696 -0.6157  1.3749
  146SOL    HW2  438   2.294   0.018   2.827 -0.0857  3.3514  1.8778
  147SOL     OW  439   2.858   1.113   1.117 -0.5507 -0.0789 -0.0378
  147SOL    HW1  440   2.806   1.170   1.185 -0.7235  1.0131  0.9907
  147SOL    HW2  441   2.950   1.152   1.117 -1.2152 -0.6457 -1.9122
  148SOL     OW  442   2.038   2.777   0.121 -0.2084 -0.1828  0.0437
  148SOL    HW1  443   2.046   2.765   0.221 -1.2220 -1.6959 -0.8503
  148SOL    HW2  444   2.108   2.837   0.085 -1.3666  1.5701  0.2215
  149SOL     OW  445   0.664   1.828   2.965  0.1764 -0.3204 -0.5681
  149SOL    HW1  446   0.750   1.775   2.962 -0.7353 -2.9374  1.3614
  149SOL    HW2  447   0.597   1.789   2.902 -2.5156 -0.0527  0.1946
  150SOL     OW  448   0.465   2.432   0.645  0.0292  0.1042 -0.0679
  150SOL    HW1  449   0.551   2.414   0.593  2.0587  2.8134  1.4829
  150SOL    HW2  450   0.492   2.462   0.739  0.5860 -1.5391 -1.2205
  151SOL     OW  451   0.346   1.001   0.159  0.0935  0.2788  0.2231
  151SOL    HW1  452   0.420   0.947   0.207  0.7019 -2.1557  4.6988
  151SOL    HW2  453   0.342   0.976   0.057  3.5311  0.2470 -1.5689
  152SOL     OW  454   2.605   2.147   0.802 -0.0888 -0.4584  0.1616
  152SOL    HW1  455   2.671   2.180   0.875 -2.2809  0.1624 -0.9190
  152SOL    HW2  456   2.606   2.206   0.715  1.1311 -2.6067  1.3021
  153SOL     OW  457   1.667   2.412   0.933  0.1090  0.4210  0.2270
  153SOL    HW1  458   1.702   2.335   0.986  0.4281 -0.0717 -2.3449
  153SOL    HW2  459   1.579   2.386   0.886 -1.0503 -1.4456 -0.4750
  154SOL     OW  460   0.743   2.932   1.028 -0.2890 -0.6320 -0.4288
  154SOL    HW1  461   0.716   3.029   1.047 -0.6581  3.4272 -0.0638
  154SOL    HW2  462   0.822   2.906   1.086 -0.5692  1.0143  2.5107
  155SOL     OW  463   2.788   1.967   0.692  0.0198 -0.4046  0.3393
  155SOL    HW1  464   2.731   2.021   0.753 -0.3412 -1.4047 -0.2662
  155SOL    HW2  465   2.729   1.932   0.614  0.5343  0.1371 -0.0062
  156SOL     OW  466   2.590   2.336   2.949 -0.1648  0.6060  0.1530
  156SOL    HW1  467   2.641   2.403   3.010  1.3259 -0.8772  1.7581
  156SOL    HW2  468   2.609   2.239   2.988  2.8557 -3.3540  3.2335
  157SOL     OW  469   0.467   2.261   1.711  0.0659 -0.0037 -0.5301
  157SOL    HW1  470   0.434   2.351   1.737  1.9141 -1.1838  1.0275
  157SOL    HW2  471   0.417   2.213   1.634 -0.0952 -0.4095 -1.7615
  158SOL     OW  472   1.456   0.433   0.876  0.3783  0.1337  0.4807
  158SOL    HW1  473   1.419   0.368   0.943  2.2798  2.4314 -1.1891
  158SOL    HW2  474   1.538   0.477   0.921 -0.0174 -0.4494 -2.5415
  159SOL     OW  475   1.869   0.718   0.046  0.1739 -0.1714 -0.3367
  159SOL    HW1  476   1.884   0.665   0.132  0.7526 -1.6084  0.3183
  159SOL    HW2  477   1.776   0.755   0.055  0.2579 -0.1204  2.0577
  160SOL     OW  478   0.909   1.556   0.586 -0.1348 -0.4050  0.2556
  160SOL    HW1  479   0.963   1.469   0.555  1.0372 -1.5430  2.6424
  160SOL    HW2  480   0.971   1.632   0.607 -0.3549 -1.4933  1.3436
  161SOL     OW  481   2.854   2.422   2.610  0.2268  0.0093  0.2459
  161SOL    HW1  482   2.753   2.433   2.625 -0.2583 -0.2493 -1.8646
  161SOL    HW2  483   2.876   2.324   2.624 -1.5252  1.8722 -1.3124
  162SOL     OW  484   0.110   2.178   1.363  0.1117 -0.0848 -0.2077
  162SOL    HW1  485   0.083   2.249   1.424  1.5413 -1.8105 -2.0140
  162SOL    HW2  486   0.123   2.204   1.267 -2.0661  0.8060  2.4101
  163SOL     OW  487   0.295   0.363   2.821 -0.2535 -0.4475  0.1082
  163SOL    HW1  488   0.287   0.260   2.813 -0.7169 -0.7757  1.6121
  163SOL    HW2  489   0.305   0.399   2.728 -0.5863  2.1335  0.8645
  164SOL     OW  490   0.212   2.757   2.398  0.3617 -0.1664 -0.7661
  164SOL    HW1  491   0.274   2.820   2.451 -2.5072  0.0846  1.6670
  164SOL    HW2  492   0.168   2.691   2.467 -0.3892  0.0093 -0.1358
  165SOL     OW  493   2.514   0.755   1.713 -0.0680  0.1961 -0.2440
  165SOL    HW1  494   2.533   0.722   1.619 -0.4657 -0.6395 -1.0616
  165SOL    HW2  495   2.560   0.700   1.788  0.6160 -0.6606  2.6627
  166SOL     OW  496   1.919   2.034   1.396  0.2614  0.1135 -0.3594
  166SOL    HW1  497   1.935   2.046   1.295 -1.0632 -0.0794  0.0225
  166SOL    HW2  498   1.854   1.952   1.410 -1.9120 -3.5301 -0.5935
  167SOL     OW  499   0.643   0.570   2.218 -0.0342 -0.2826 -0.3428
  167SOL    HW1  500   0.552   0.535   2.187  1.3035 -1.0216 -0.4989
  167SOL    HW2  501   0.676   0.534   2.307 -0.7099  0.1036 -2.1938
  168SOL     OW  502   2.206   0.234   2.113  0.2719  0.3930  0.4365
  168SOL    HW1  503   2.281   0.196   2.169 -0.1289  0.0743 -0.6024
  168SOL    HW2  504   2.203   0.174   2.028 -2.2334  1.8565  0.3018
  169SOL     OW  505   0.551   0.909   0.300 -0.5120 -0.4159 -0.4763
  169SOL    HW1  506   0.631   0.959   0.270  0.7601 -3.3308  0.3448
  169SOL    HW2  507   0.578   0.840   0.374  0.9733 -3.7919  0.6822
  170SOL     OW  508   0.837   1.544   1.599 -0.6657  0.4034 -0.4296
  170SOL    HW1  509   0.894   1.515   1.679 -0.9649  0.3687 -1.4819
  170SOL    HW2  510   0.883   1.529   1.510  1.2690 -0.7097 -0.9192
  171SOL     OW  511   0.866   2.438   1.815 -0.4254 -0.5223  0.1144
  171SOL    HW1  512   0.875   2.369   1.746 -1.3757 -0.0288  2.6655
  171SOL    HW2  513   0.817   2.521   1.789  0.8850 -0.2370  1.9691
  172SOL     OW  514   1.325   2.934   2.056 -0.0783 -0.4216  0.5350
  172SOL    HW1  515   1.287   2.989   2.130  4.3413  2.4197  1.0639
  172SOL    HW2  516   1.323   2.837   2.075  0.4849  1.2262  0.9112
  173SOL     OW  517   1.412   2.341   0.796  0.1483 -0.4492 -0.3137
  173SOL    HW1  518   1.367   2.263   0.755 -0.2761  0.6981  0.3880
  173SOL    HW2  519   1.357   2.362   0.880 -2.8053  1.7475  1.7176
  174SOL     OW  520   2.254   2.992   0.342 -0.0887  0.0336  0.2222
  174SOL    HW1  521   2.334   3.009   0.400 -1.8624 -0.1828 -1.3078
  174SOL    HW2  522   2.258   3.062   0.267  1.8724 -1.1594  1.4498
  175SOL     OW  523   1.220   1.404   0.721 -0.4833  0.4006 -0.0274
  175SOL    HW1  524   1.211   1.425   0.623  0.1967 -1.7560  0.2362
  175SOL    HW2  525   1.139   1.436   0.779  1.4315  0.1073  0.1657
  176SOL     OW  526   0.660   1.659   0.606 -0.3112  0.7073  0.1499
  176SOL    HW1  527   0.672   1.743   0.554  0.3132 -1.9447 -1.5990
  176SOL    HW2  528   0.742   1.597   0.600  1.2655  0.3602  0.0997
  177SOL     OW  529   1.281   1.129   1.147 -0.4266  0.0745  0.0959
  177SOL    HW1  530   1.343   1.175   1.079  0.6362 -1.4094 -0.6425
  177SOL    HW2  531   1.295   1.026   1.135 -2.0052 -1.3561  1.7730
  178SOL     OW  532   2.405   1.827   0.220  0.3402  0.0437 -0.2745
  178SOL    HW1  533   2.340   1.872   0.284 -0.0843  0.1609 -0.3243
  178SOL    HW2  534   2.443   1.740   0.260 -3.2162  0.7345 -2.1459
  179SOL     OW  535   0.928   2.615   3.025  0.3910 -0.4839 -0.4015
  179SOL    HW1  536   0.926   2.568   2.936  0.4269  1.6214  1.3070
  179SOL    HW2  537   0.931   2.715   3.011 -0.7751  3.0190  0.5990
  180SOL     OW  538   2.029   1.303   1.991  0.0377 -0.0610  0.3144
  180SOL    HW1  539   2.110   1.255   2.032 -2.1579  2.0375 -0.6844
  180SOL    HW2  540   2.052   1.397   1.969 -1.2938 -1.8288  0.6349
  181SOL     OW  541   1.087   0.697   2.499 -1.0092 -0.1302 -0.6148
  181SOL    HW1  542   1.127   0.788   2.482  0.8828 -1.3187 -1.6669
  181SOL    HW2  543   1.100   0.665   2.597 -0.9351  0.6253 -0.4374
  182SOL     OW  544   2.978   1.402   2.270  0.1419 -0.0176  0.3727
  182SOL    HW1  545   2.997   1.342   2.350  0.6357  0.0944 -3.6570
  182SOL    HW2  546   3.001   1.358   2.178  1.2816 -2.5001 -3.2170
  183SOL     OW  547   1.477   0.655   2.428  0.2047 -0.6883 -0.0448
  183SOL    HW1  548   1.429   0.576   2.476  0.6335  0.3426 -1.2470
  183SOL    HW2  549   1.476   0.649   2.325  1.4117  1.3170 -2.6681
  184SOL     OW  550   0.475   0.692   1.411  0.5606 -0.2858  0.0044
  184SOL    HW1  551   0.568   0.690   1.455  1.4330 -1.8321 -0.2559
  184SOL    HW2  552   0.478   0.650   1.317  0.6011  2.6030  1.9576
  185SOL     OW  553   2.322   1.594   0.506  0.5618  0.2246 -0.3734
  185SOL    HW1  554   2.259   1.673   0.477  0.0287  1.6013  0.7672
  185SOL    HW2  555   2.272   1.505   0.496 -1.1682  1.6487  0.6895
  186SOL     OW  556   0.064   1.994   0.401  0.0919 -0.3808 -0.4202
  186SOL    HW1  557   0.095   2.072   0.343 -1.2336 -2.0338 -2.0742
  186SOL    HW2  558   0.131   1.958   0.464  1.4637 -1.3947  0.2665
  187SOL     OW  559   1.991   2.271   0.050  0.0644 -0.2689 -0.0562
  187SOL    HW1  560   1.921   2.307   0.118 -1.4875 -1.0617  0.1555
  187SOL    HW2  561   2.059   2.221   0.101 -0.3409 -0.8270 -0.3042
  188SOL     OW  562   0.889   2.030   1.001  0.0505 -0.1962 -0.2264
  188SOL    HW1  563   0.853   2.027   1.095 -0.4167 -1.0265 -1.1983
  188SOL    HW2  564   0.908   1.935   0.974 -2.1487 -2.8401 -0.4325
  189SOL     OW  565   2.192   1.439   2.489  0.2696  0.1429  0.6576
  189SOL    HW1  566   2.109   1.475   2.436 -1.8806 -0.0717 -2.3437
  189SOL    HW2  567   2.255   1.521   2.502  3.4036  1.2417 -0.3124
  190SOL     OW  568   0.855   2.619   2.196  0.0826  0.2110 -0.0220
  190SOL    HW1  569   0.777   2.680   2.170 -0.7909 -1.5618  0.8970
  190SOL    HW2  570   0.834   2.572   2.286  0.4638 -1.7520  1.0466
  191SOL     OW  571   2.546   0.760   1.401 -0.0051 -0.4885 -0.2015
  191SOL    HW1  572   2.476   0.831   1.378 -0.3447 -0.3282 -2.0755
  191SOL    HW2  573   2.640   0.802   1.419 -0.6097 -0.3822  1.0458
  192SOL     OW  574   2.487   0.508   1.483 -0.3325 -0.6406  0.3505
  192SOL    HW1  575   2.456   0.454   1.402 -0.3454  0.3463 -2.7939
  192SOL    HW2  576   2.525   0.599   1.450  2.3339  0.7675 -0.3896
  193SOL     OW  577   0.500   0.400   0.434  0.0883 -0.3632 -0.0399
  193SOL    HW1  578   0.420   0.373   0.486  1.7934  1.9574 -1.5199
  193SOL    HW2  579   0.580   0.392   0.490 -5.4211 -2.6546 -1.0061
  194SOL     OW  580   1.128   2.414   1.424  0.2967  0.3687  0.0497
  194SOL    HW1  581   1.147   2.318   1.391  2.6746 -0.0825 -1.0907
  194SOL    HW2  582   1.217   2.449   1.455 -0.9748  0.3093 -0.6028
  195SOL     OW  583   2.449   1.019   0.378 -1.0836  0.2154 -0.1769
  195SOL    HW1  584   2.509   0.936   0.400  0.2952 -3.1762 -0.0921
  195SOL    HW2  585   2.487   1.068   0.306 -2.1456 -2.4682  1.6185
  196SOL     OW  586   0.682   2.368   1.555  0.0279 -0.1453  0.4530
  196SOL    HW1  587   0.651   2.451   1.503 -0.4238 -1.4190 -1.1192
  196SOL    HW2  588   0.605   2.329   1.613 -1.6265  0.1563  0.2159
  197SOL     OW  589   0.376   0.800   2.366  0.2139  0.4899  0.0224
  197SOL    HW1  590   0.335   0.834   2.453  1.3840 -0.9463  1.5968
  197SOL    HW2  591   0.310   0.740   2.313 -1.0613  1.2067 -2.1235
  198SOL     OW  592   1.802   0.877   0.469  0.7404  0.4537 -0.0757
  198SOL    HW1  593   1.715   0.834   0.502  0.0524  1.0821  2.2906
  198SOL    HW2  594   1.789   0.978   0.463  0.3769 -2.1648  1.8529
  199SOL     OW  595   2.685   0.466   1.721 -0.0247 -0.2703  0.3677
  199SOL    HW1  596   2.621   0.433   1.794 -1.3626  0.1535 -0.8672
  199SOL    HW2  597   2.634   0.491   1.637  0.1524 -1.8893 -1.4003
  200SOL     OW  598   2.277   0.176   2.799  0.2264  0.3578  0.1471
  200SOL    HW1  599   2.332   0.224   2.726 -0.9127  0.0547 -0.1563
  200SOL    HW2  600   2.227   0.239   2.859 -1.2201 -1.0844 -2.0154
  201SOL     OW  601   2.478   0.109   1.309 -0.1915 -0.0162 -0.9114
  201SOL    HW1  602   2.478   0.083   1.409 -2.6969 -2.5646 -0.2260
  201SOL    HW2  603   2.394   0.084   1.263  1.3010  0.0081 -0.7278
  202SOL     OW  604   3.014   2.694   0.302 -0.1558  0.0549  0.4823
  202SOL    HW1  605   3.081   2.734   0.372 -0.6640  1.2120  0.8310
  202SOL    HW2  606   2.920   2.726   0.320  1.6236 -2.2752  0.0801
  203SOL     OW  607   1.354   1.901   2.881  0.3842  0.0669  0.0795
  203SOL    HW1  608   1.359   1.845   2.967 -0.0834 -2.4318  0.7648
  203SOL    HW2  609   1.412   1.864   2.803  1.0757  1.5008 -1.0566
  204SOL     OW  610   0.530   2.021   2.391  0.3242  0.5753 -0.0038
  204SOL    HW1  611   0.578   1.945   2.343 -1.7452  0.0814  1.2651
  204SOL    HW2  612   0.437   1.989   2.421 -3.0989  0.4137 -0.0655
  205SOL     OW  613   1.134   0.715   1.044  0.3516 -0.1603  0.2020
  205SOL    HW1  614   1.104   0.643   1.102 -2.5098  2.2830 -2.4689
  205SOL    HW2  615   1.214   0.761   1.090  0.2326  0.3273  0.9791
  206SOL     OW  616   0.334   0.738   2.755 -0.2711  0.2476  0.1160
  206SOL    HW1  617   0.357   0.833   2.725  0.4228 -3.6968  0.4326
  206SOL    HW2  618   0.236   0.712   2.725  0.9796  1.3024 -1.8207
  207SOL     OW  619   1.538   2.475   1.817  0.3815 -0.2832 -0.3910
  207SOL    HW1  620   1.619   2.446   1.877  0.4781 -2.1441  1.3063
  207SOL    HW2  621   1.447   2.450   1.855 -1.1341 -0.6979  1.1427
  208SOL     OW  622   0.363   0.026   0.937 -0.0623  0.0196  0.1837
  208SOL    HW1  623   0.386   3.033   0.896  0.2142 -0.2102  0.0688
  208SOL    HW2  624   0.353   0.095   0.860 -1.9106 -1.5512 -0.1210
  209SOL     OW  625   1.759   1.138   0.740 -0.1926 -0.0735  0.3598
  209SOL    HW1  626   1.800   1.056   0.787  0.1528 -0.2507 -2.4799
  209SOL    HW2  627   1.792   1.146   0.646  2.0107 -0.5333  3.4337
  210SOL     OW  628   2.631   0.530   0.813  0.2359  0.7160 -0.2041
  210SOL    HW1  629   2.561   0.584   0.762 -1.3195  2.4815  1.2263
  210SOL    HW2  630   2.684   0.474   0.750 -2.2750  3.3804  1.4589
  211SOL     OW  631   1.230   0.132   0.189  0.0235 -0.5894  0.0193
  211SOL    HW1  632   1.143   0.093   0.156 -0.6186  0.9242  1.0332
  211SOL    HW2  633   1.310   0.078   0.152  1.0861  0.7547 -0.2511
  212SOL     OW  634   1.708   2.184   0.662 -0.2413  0.1756 -0.0767
  212SOL    HW1  635   1.792   2.235   0.673 -2.9166 -1.8527 -0.3914
  212SOL    HW2  636   1.634   2.244   0.694  0.5404 -0.2153 -0.2592
  213SOL     OW  637   2.195   0.615   2.600 -0.3852 -0.1943 -0.3419
  213SOL    HW1  638   2.270   0.597   2.669 -0.4370 -0.0030  0.4472
  213SOL    HW2  639   2.143   0.528   2.587 -1.1631 -0.0536 -0.1030
  214SOL     OW  640   1.165   1.778   2.074 -0.0932 -0.2252 -0.3555
  214SOL    HW1  641   1.211   1.763   2.163 -2.1072  1.8050  1.4120
  214SOL    HW2  642   1.099   1.705   2.057 -0.0691 -1.2204 -0.7139
  215SOL     OW  643   0.236   1.250   1.019 -0.3526  0.1005 -0.0163
  215SOL    HW1  644   0.150   1.236   1.072 -1.4320  1.8994  1.0192
  215SOL    HW2  645   0.315   1.225   1.076 -1.8826  0.7430 -0.9809
  216SOL     OW  646   0.390   2.216   2.835  0.0675  0.2266 -0.1065
  216SOL    HW1  647   0.340   2.283   2.778  0.2630  1.4075  2.8976
  216SOL    HW2  648   0.433   2.251   2.922  0.2803 -0.6312 -0.2350
  217SOL     OW  649   2.586   1.101   1.468 -0.5492 -0.5446  0.6422
  217SOL    HW1  650   2.509   1.067   1.411  1.0772  1.8052 -1.5841
  217SOL    HW2  651   2.552   1.122   1.562 -1.7991 -1.3531  1.2756
  218SOL     OW  652   0.544   2.322   2.020  0.1574  0.1760  0.7378
  218SOL    HW1  653   0.536   2.276   1.928 -1.6240  0.5572  1.1973
  218SOL    HW2  654   0.645   2.310   2.048  0.6386 -0.0819  1.6087
  219SOL     OW  655   2.016   1.425   0.289  0.5487  0.5573 -0.4628
  219SOL    HW1  656   2.089   1.428   0.220  0.8556 -3.2843  2.0644
  219SOL    HW2  657   2.052   1.395   0.376 -0.7896  0.3717 -1.9082
  220SOL     OW  658   2.462   0.682   0.670  0.4958  0.4867 -0.2906
  220SOL    HW1  659   2.431   0.759   0.728  2.1479  0.7448 -2.1262
  220SOL    HW2  660   2.394   0.610   0.651  1.9928  0.4224 -0.5998
  221SOL     OW  661   2.764   0.667   0.076  0.2071 -0.0417  0.1848
  221SOL    HW1  662   2.813   0.754   0.061 -2.6931 -2.0768  1.9456
  221SOL    HW2  663   2.829   0.593   0.049  0.8341  0.1307 -1.6120
  222SOL     OW  664   1.512   1.234   0.700 -0.0646 -0.1178  0.0231
  222SOL    HW1  665   1.603   1.195   0.727  0.5872  2.0779 -0.1553
  222SOL    HW2  666   1.468   1.280   0.778 -1.4414 -2.9710 -3.2211
  223SOL     OW  667   0.857   0.056   2.801 -0.2191  0.1102  0.1862
  223SOL    HW1  668   0.811   0.141   2.836  1.9456 -0.2572  0.4067
  223SOL    HW2  669   0.913   0.081   2.722 -0.0726 -0.3197  3.0875
  224SOL     OW  670   1.052   2.982   1.278  0.2662 -0.0799  0.1057
  224SOL    HW1  671   1.067   3.081   1.254  1.4690 -0.1701 -0.2955
  224SOL    HW2  672   1.107   2.965   1.360 -1.2408 -1.6298 -2.0676
  225SOL     OW  673   0.187   2.498   1.858  0.8543  0.2241  0.3605
  225SOL    HW1  674   0.140   2.407   1.866 -0.2243 -3.3325  2.4499
  225SOL    HW2  675   0.204   2.534   1.956 -0.1879  0.8596  0.5689
  226SOL     OW  676   1.328   1.219   0.517 -0.2268 -0.2856  0.5718
  226SOL    HW1  677   1.402   1.225   0.589  0.9384 -0.4762 -0.4811
  226SOL    HW2  678   1.301   1.311   0.487 -1.9160  0.0979 -0.1126
  227SOL     OW  679   0.511   1.399   0.682  0.4358 -0.0876 -0.3240
  227SOL    HW1  680   0.575   1.397   0.603  2.0908  0.2858  1.8304
  227SOL    HW2  681   0.415   1.387   0.658  1.0383 -1.2706 -0.1935
  228SOL     OW  682   0.079   1.560   0.753 -0.1146 -0.3518  0.1312
  228SOL    HW1  683   0.030   1.477   0.780 -0.7438 -0.3334 -2.5993
  228SOL    HW2  684   0.064   1.592   0.652  1.1066  0.6690 -3.5335
  229SOL     OW  685   2.765   0.314   2.867  0.3391 -0.1643 -0.0517
  229SOL    HW1  686   2.739   0.357   2.955 -2.0641 -0.0234  0.0898
  229SOL    HW2  687   2.865   0.292   2.869 -1.5409 -1.9736 -0.0942
  230SOL     OW  688   2.071   1.025   1.085 -0.4076 -0.5003 -0.1075
  230SOL    HW1  689   2.146   1.090   1.073 -0.3238 -1.8117  2.6444
  230SOL    HW2  690   2.015   1.039   1.169  2.1432 -1.7424  0.8245
  231SOL     OW  691   1.565   1.255   3.002 -0.3157 -0.0625  0.3537
  231SOL    HW1  692   1.620   1.217   2.925 -1.6995 -1.5726  1.1072
  231SOL    HW2  693   1.610   1.231   3.088 -0.8064 -0.3906 -0.6134
  232SOL     OW  694   2.287   2.155   0.826  0.6003  0.0367  0.4218
  232SOL    HW1  695   2.373   2.205   0.804  0.1048 -1.0345  1.3136
  232SOL    HW2  696   2.244   2.186   0.909 -0.3116  0.0596  1.2458
  233SOL     OW  697   0.489   2.512   0.914  0.1843  0.6048  1.0103
  233SOL    HW1  698   0.448   2.589   0.960  0.0654 -1.5926 -0.7392
  233SOL    HW2  699   0.583   2.539   0.887  1.6899 -2.3079 -1.0423
  234SOL     OW  700   0.569   0.567   2.578  0.1176 -0.0933  0.1026
  234SOL    HW1  701   0.618   0.646   2.540 -1.7891 -2.0661  1.4190
  234SOL    HW2  702   0.557   0.581   2.677  2.2000  0.3147 -3.4273
  235SOL     OW  703   3.038   0.928   2.203  0.4658  0.1312 -0.1350
  235SOL    HW1  704   3.054   0.849   2.139  0.7020 -2.3459 -2.0590
  235SOL    HW2  705   0.021   0.984   2.210  1.0603  2.1902 -1.4774
  236SOL     OW  706   1.434   2.938   1.505 -0.3002 -0.1430  0.3298
  236SOL    HW1  707   1.369   2.947   1.425  0.6740  1.1703 -0.8053
  236SOL    HW2  708   1.433   2.848   1.552 -1.1936  4.1323 -0.6069
  237SOL     OW  709   0.999   1.302   2.695  0.5072  0.4592  0.2452
  237SOL    HW1  710   0.917   1.357   2.670 -2.3291  0.6789  0.0423
  237SOL    HW2  711   1.066   1.298   2.616  1.1080  0.2130 -0.1489
  238SOL     OW  712   1.014   0.411   2.360  0.6694 -0.0596  0.2707
  238SOL    HW1  713   1.072   0.493   2.384  4.1817  1.5847  2.6236
  238SOL    HW2  714   0.914   0.437   2.381 -0.0819  3.0522  0.6932
  239SOL     OW  715   0.116   2.238   2.197 -0.4734 -0.1447  0.2172
  239SOL    HW1  716   0.212   2.258   2.213 -2.5392 -3.0490 -0.1502
  239SOL    HW2  717   0.111   2.171   2.118 -2.0007 -0.1424 -3.3647
  240SOL     OW  718   2.544   2.765   0.577 -0.0396  0.4188  0.1548
  240SOL    HW1  719   2.506   2.670   0.575 -0.8863  0.1264 -0.3073
  240SOL    HW2  720   2.488   2.833   0.634  0.8799  1.5499 -0.1696
  241SOL     OW  721   2.859   1.258   0.368 -0.0705 -0.4593  0.2753
  241SOL    HW1  722   2.766   1.275   0.408  0.2443  0.7200 -0.5229
  241SOL    HW2  723   2.849   1.174   0.312  0.0459  0.8690 -0.6634
  242SOL     OW  724   1.785   2.383   1.949  0.2501 -0.7172 -0.2104
  242SOL    HW1  725   1.839   2.306   1.900  0.9564  1.8353 -1.3451
  242SOL    HW2  726   1.825   2.475   1.930 -3.1815 -1.5432 -1.8233
  243SOL     OW  727   0.319   2.545   2.121 -0.0878  0.2973  0.7431
  243SOL    HW1  728   0.366   2.463   2.094 -1.0915  3.3595  0.3527
  243SOL    HW2  729   0.358   2.577   2.210  1.9074 -1.2582 -0.1592
  244SOL     OW  730   2.658   0.571   2.377  0.0926  0.0431  0.2247
  244SOL    HW1  731   2.692   0.495   2.443 -2.7417 -1.3891 -1.3483
  244SOL    HW2  732   2.559   0.545   2.350 -0.5809 -0.4723 -0.6608
  245SOL     OW  733   1.329   0.012   1.160  0.4466 -0.1570  0.0447
  245SOL    HW1  734   1.242   0.052   1.202 -2.7783 -0.5696  1.5481
  245SOL    HW2  735   1.349   0.055   1.072 -0.8042  2.0726  0.8183
  246SOL     OW  736   1.584   2.741   0.143 -0.0875 -0.2348 -0.2693
  246SOL    HW1  737   1.643   2.725   0.064 -1.1367 -0.5122  1.4659
  246SOL    HW2  738   1.499   2.779   0.105  1.8301  1.7958  3.1200
  247SOL     OW  739   1.357   0.730   2.014  0.1029  0.5535  0.2242
  247SOL    HW1  740   1.411   0.641   2.021 -0.4557 -3.4496 -1.0710
  247SOL    HW2  741   1.276   0.729   2.077  0.7424  1.7917 -0.4042
  248SOL     OW  742   0.102   2.225   1.801 -0.1657  0.0347 -0.5757
  248SOL    HW1  743   0.169   2.164   1.758  0.0790 -0.6650  1.7837
  248SOL    HW2  744   0.037   2.168   1.857 -0.7626  1.1162 -0.7797
  249SOL     OW  745   2.928   0.477   3.083  0.2101  0.0767  0.5590
  249SOL    HW1  746   3.026   0.484   3.054  0.1308 -1.0555  0.2682
  249SOL    HW2  747   2.890   0.390   0.017  4.2300  1.1177 -1.7672
  250SOL     OW  748   2.684   0.091   2.469 -0.4955 -0.0815  0.4794
  250SOL    HW1  749   2.781   0.074   2.433  0.9380 -1.1798 -1.1550
  250SOL    HW2  750   2.687   0.074   2.570  0.3874 -0.0714  2.0618
  251SOL     OW  751   1.497   0.498   0.183  0.3081  0.3411  0.1107
  251SOL    HW1  752   1.544   0.479   0.269 -1.6839  0.5290  0.4114
  251SOL    HW2  753   1.516   0.596   0.160  1.6954  0.8884  0.2528
  252SOL     OW  754   1.470   2.262   2.012 -0.6041 -0.2313 -0.4590
  252SOL    HW1  755   1.394   2.237   2.076 -1.0710  0.2476  0.7888
  252SOL    HW2  756   1.532   2.340   2.047 -1.1658  2.6057  1.6644
  253SOL     OW  757   2.116   2.553   1.109 -0.4894 -0.0030 -0.2239
  253SOL    HW1  758   2.171   2.573   1.024 -0.1315 -1.8819 -0.2379
  253SOL    HW2  759   2.153   2.603   1.188 -0.2831  0.1876 -1.2393
  254SOL     OW  760   2.394   1.203   0.582  0.0656  0.3236  0.3497
  254SOL    HW1  761   2.398   1.114   0.533 -0.0305 -2.8744 -2.2837
  254SOL    HW2  762   2.375   1.181   0.679 -2.5244 -0.1573 -0.3981
  255SOL     OW  763   0.872   2.790   1.274 -0.5927 -0.7795 -0.7220
  255SOL    HW1  764   0.934   2.870   1.289  1.3733 -0.0849  2.1745
  255SOL    HW2  765   0.920   2.707   1.250 -0.4936 -0.9259 -0.1687
  256SOL     OW  766   1.883   2.244   1.550  0.1478  0.0372 -0.2117
  256SOL    HW1  767   1.894   2.149   1.515  0.7416 -2.0717 -0.3940
  256SOL    HW2  768   1.789   2.283   1.546 -1.3954  3.4247  1.6443
  257SOL     OW  769   0.691   2.484   2.402  0.7064  0.1331  0.3724
  257SOL    HW1  770   0.598   2.515   2.372  0.7189 -1.2439  2.7598
  257SOL    HW2  771   0.695   2.474   2.506 -0.5891 -0.3136 -1.2245
  258SOL     OW  772   0.788   2.727   0.531  0.2027 -0.2955 -0.4596
  258SOL    HW1  773   0.886   2.737   0.500  1.9192  1.6607 -0.0362
  258SOL    HW2  774   0.765   2.782   0.612  0.7453  0.5448  0.6399
  259SOL     OW  775   1.440   0.455   2.816  0.6714  0.0051  0.4020
  259SOL    HW1  776   1.460   0.354   2.847 -0.1644 -3.9096  0.0096
  259SOL    HW2  777   1.351   0.492   2.851  0.3897  1.1081 -1.8104
  260SOL     OW  778   2.739   0.871   1.085  0.2764 -0.1532 -0.6176
  260SOL    HW1  779   2.792   0.956   1.066  1.2695 -2.9660 -0.1446
  260SOL    HW2  780   2.785   0.804   1.144  0.8824  1.3395 -1.3532
  261SOL     OW  781   0.746   0.416   2.413 -0.0721  0.5656  0.3530
  261SOL    HW1  782   0.699   0.468   2.486  1.8322  1.9732  0.1667
  261SOL    HW2  783   0.714   0.319   2.409 -1.5949  2.7821 -1.8308
  262SOL     OW  784   0.892   2.342   2.058 -0.1354 -0.3277  1.0049
  262SOL    HW1  785   0.901   2.397   2.143  0.9190 -2.3718  0.4412
  262SOL    HW2  786   0.890   2.394   1.973 -0.0836  1.5370  1.0898
  263SOL     OW  787   0.431   2.115   0.153  0.5864 -0.3364  0.2400
  263SOL    HW1  788   0.514   2.130   0.211 -1.7672  2.0881  0.2651
  263SOL    HW2  789   0.444   2.038   0.085 -0.8872 -0.2173  0.6523
  264SOL     OW  790   1.035   1.429   1.104  0.5055  0.2919  0.0640
  264SOL    HW1  791   1.033   1.489   1.020  0.3757  0.9560  1.9417
  264SOL    HW2  792   1.130   1.422   1.148  0.9941 -0.9924  3.2659
  265SOL     OW  793   1.048   2.315   0.678  0.3062  0.8433 -0.1468
  265SOL    HW1  794   1.137   2.273   0.653  0.5742  0.7016  0.2976
  265SOL    HW2  795   1.042   2.418   0.673 -0.6074 -1.4256 -0.8449
  266SOL     OW  796   2.044   0.557   0.885  0.6211  0.2436 -0.0939
  266SOL    HW1  797   2.016   0.476   0.942  0.6555 -0.4849  0.2351
  266SOL    HW2  798   2.068   0.638   0.943  0.6178 -0.4064  0.8854
  267SOL     OW  799   3.020   1.406   2.631 -0.1646 -0.0468 -0.0620
  267SOL    HW1  800   3.027   1.348   2.717  0.8085  1.9063  1.1631
  267SOL    HW2  801   3.014   1.350   2.550  0.9966 -0.3723  2.2142
  268SOL     OW  802   1.428   0.005   0.074 -0.2015  0.0894  0.3731
  268SOL    HW1  803   1.502   3.053   0.122 -1.2185 -0.8064  0.4768
  268SOL    HW2  804   1.452   0.101   0.048 -0.7753 -3.1433 -2.6033
  269SOL     OW  805   2.980   0.742   2.409 -0.2646  0.3720  0.0764
  269SOL    HW1  806   2.989   0.819   2.342  2.5947 -0.1375  1.0094
  269SOL    HW2  807   3.061   0.747   2.471  0.9960  3.8297 -1.0603
  270SOL     OW  808   0.074   1.213   3.064 -0.7957 -0.5818 -0.4588
  270SOL    HW1  809   0.014   1.253   0.032 -0.2634  1.1605 -1.1402
  270SOL    HW2  810   0.103   1.120   3.080 -0.6971 -1.7549 -0.1325
  271SOL     OW  811   2.595   1.410   2.613 -0.3320 -0.0537 -0.2679
  271SOL    HW1  812   2.535   1.487   2.634  1.4434  0.5553  1.4629
  271SOL    HW2  813   2.544   1.336   2.568 -1.5221 -0.7833 -0.6468
  272SOL     OW  814   2.428   2.565   2.048 -0.3128  0.3214 -0.7978
  272SOL    HW1  815   2.359   2.620   2.002  2.6751 -2.2613  2.5022
  272SOL    HW2  816   2.514   2.619   2.050 -1.2724  1.3159 -0.5952
  273SOL     OW  817   0.396   2.570   0.116  0.1090  0.0854 -0.0247
  273SOL    HW1  818   0.403   2.527   0.210 -1.3138  0.3488 -0.5835
  273SOL    HW2  819   0.302   2.574   0.083 -2.6814  2.6564 -0.6784
  274SOL     OW  820   0.974   2.288   0.947 -0.0227 -0.5458 -0.0448
  274SOL    HW1  821   0.975   2.302   0.848  0.7259 -0.0364  1.1164
  274SOL    HW2  822   0.951   2.195   0.962  0.5467  1.3832 -0.3817
  275SOL     OW  823   2.207   1.489   0.101 -0.5826  0.0319  0.2615
  275SOL    HW1  824   2.154   1.572   0.104  1.0238 -1.9032 -2.0047
  275SOL    HW2  825   2.255   1.474   0.010  0.6216 -1.6201  0.6548
  276SOL     OW  826   2.549   1.582   1.223 -0.7030 -0.1961 -0.2811
  276SOL    HW1  827   2.585   1.534   1.306  0.3365  0.9336  1.7147
  276SOL    HW2  828   2.604   1.572   1.140  1.6394  2.0214 -0.1191
  277SOL     OW  829   2.432   2.959   0.753 -0.3745 -0.1008 -0.0567
  277SOL    HW1  830   2.331   2.947   0.761  1.0278 -1.4440 -2.1674
  277SOL    HW2  831   2.482   2.923   0.836  0.4566  3.7085  2.2782
  278SOL     OW  832   1.608   0.306   2.458 -0.3831  0.4863  0.1920
  278SOL    HW1  833   1.671   0.372   2.504  1.4617  1.7209  1.1670
  278SOL    HW2  834   1.604   0.216   2.505 -1.1964 -1.8655 -0.2498
  279SOL     OW  835   1.338   2.723   1.279 -0.6331  0.2508  0.4158
  279SOL    HW1  836   1.414   2.670   1.233  1.6350 -0.7991 -0.1135
  279SOL    HW2  837   1.300   2.774   1.208  3.7776 -0.9528  2.7884
  280SOL     OW  838   1.229   0.936   0.535 -0.1318 -0.5598  0.2280
  280SOL    HW1  839   1.247   0.877   0.613  0.3847  1.7463 -2.1159
  280SOL    HW2  840   1.240   1.032   0.563  1.7324  1.7716 -0.7857
  281SOL     OW  841   2.266   1.624   2.749  0.0868  0.7083 -0.1661
  281SOL    HW1  842   2.327   1.631   2.670  1.0076 -0.8523  1.8749
  281SOL    HW2  843   2.245   1.717   2.788 -1.8359  0.2195  1.4746
  282SOL     OW  844   3.042   1.239   2.840  0.1835 -0.6174 -0.3461
  282SOL    HW1  845   3.050   1.146   2.791 -1.5795 -1.4230  1.3687
  282SOL    HW2  846   0.005   1.244   2.918 -0.7082 -0.4308  0.2332
  283SOL     OW  847   1.529   2.724   2.600  0.3723 -0.1396  0.1825
  283SOL    HW1  848   1.578   2.652   2.554  0.2572  1.9654  1.5534
  283SOL    HW2  849   1.493   2.695   2.688  0.1528  1.5250 -2.7453
  284SOL     OW  850   0.761   0.296   2.877  0.3003  0.6262 -0.2690
  284SOL    HW1  851   0.679   0.350   2.845 -0.9269 -0.4803 -0.8367
  284SOL    HW2  852   0.811   0.346   2.957  0.0830  1.8755  1.2561
  285SOL     OW  853   2.016   1.879   2.520 -0.5653 -0.1559  0.2732
  285SOL    HW1  854   2.106   1.897   2.470  2.2116  0.8881  0.3874
  285SOL    HW2  855   2.025   1.933   2.605 -0.2359  0.8706 -2.6248
  286SOL     OW  856   1.182   1.874   0.778  0.1447 -0.7048  0.1221
  286SOL    HW1  857   1.086   1.880   0.746  0.4867 -1.9786  1.0677
  286SOL    HW2  858   1.194   1.831   0.870  1.4524 -0.5294 -0.8372
  287SOL     OW  859   1.567   0.361   1.317 -0.4941  0.0256 -0.2151
  287SOL    HW1  860   1.554   0.338   1.417  0.0041 -0.6461  1.7599
  287SOL    HW2  861   1.661   0.403   1.305  0.3902  1.3555  0.0508
  288SOL     OW  862   0.641   2.819   2.386 -0.0740 -0.5128 -0.4587
  288SOL    HW1  863   0.737   2.818   2.422 -2.3362  1.7703 -0.7357
  288SOL    HW2  864   0.636   2.849   2.288 -0.4731 -2.1369 -1.9133
  289SOL     OW  865   0.173   1.230   0.761  0.1301  0.2849  0.3575
  289SOL    HW1  866   0.190   1.228   0.860 -1.4705  0.1967  3.1797
  289SOL    HW2  867   0.186   1.140   0.719 -1.2809  1.8672  2.0124
  290SOL     OW  868   1.190   2.159   1.334 -0.2807  0.0276  0.1746
  290SOL    HW1  869   1.256   2.144   1.254  0.4632 -0.6064 -1.3416
  290SOL    HW2  870   1.136   2.075   1.347  0.1646  0.9251 -2.0577
  291SOL     OW  871   1.891   2.815   0.564 -0.1235 -0.0098 -0.1102
  291SOL    HW1  872   1.851   2.881   0.630  1.5646 -2.4058 -1.4097
  291SOL    HW2  873   1.828   2.737   0.546  0.2056 -1.7626 -3.0353
  292SOL     OW  874   0.503   0.355   1.623 -0.0222 -0.1438 -0.2350
  292SOL    HW1  875   0.403   0.381   1.639 -2.8678  1.2843  1.2932
  292SOL    HW2  876   0.525   0.266   1.664 -0.1268  0.9918 -0.4297
  293SOL     OW  877   2.311   1.731   0.785 -0.0022  0.0524 -0.1749
  293SOL    HW1  878   2.394   1.789   0.803  1.0935  0.5009 -0.4149
  293SOL    HW2  879   2.328   1.653   0.721 -1.5977  2.0268  2.0112
  294SOL     OW  880   0.732   0.262   2.092 -0.0193 -0.0518 -0.2331
  294SOL    HW1  881   0.730   0.321   2.171 -1.3172  0.4681 -1.1036
  294SOL    HW2  882   0.712   0.167   2.119  1.8943  0.9114  1.1262
  295SOL     OW  883   0.878   1.225   0.746 -0.1797 -0.3239  0.2229
  295SOL    HW1  884   0.815   1.296   0.778 -1.0100 -1.3030 -0.5834
  295SOL    HW2  885   0.844   1.133   0.767  0.0385  0.0323 -2.8834
  296SOL     OW  886   2.135   1.919   0.880  0.4931 -0.0108 -0.3047
  296SOL    HW1  887   2.179   1.827   0.876  0.0642 -0.0440 -0.5473
  296SOL    HW2  888   2.201   1.989   0.848  4.5890 -0.1319 -1.4734
  297SOL     OW  889   2.022   0.171   2.732  0.1705  0.2046  0.0364
  297SOL    HW1  890   2.032   0.267   2.701  0.9261  0.9620 -0.4045
  297SOL    HW2  891   2.106   0.142   2.786 -0.0161 -0.8971 -3.7385
  298SOL     OW  892   1.278   0.046   2.575  0.5385 -0.0087  0.0332
  298SOL    HW1  893   1.338   3.078   2.538 -2.5044  2.0263 -0.0939
  298SOL    HW2  894   1.289   0.048   2.678 -3.0694 -0.4331 -1.6682
  299SOL     OW  895   1.136   3.085   2.196  0.2378  0.3997 -0.1488
  299SOL    HW1  896   1.160   0.072   2.246  0.2642  0.4451  0.5376
  299SOL    HW2  897   1.138   3.007   2.266 -0.7714 -2.1961  2.1274
  300SOL     OW  898   2.515   0.059   1.576 -0.3494 -0.1937  0.0379
  300SOL    HW1  899   2.613   0.069   1.585 -4.3074 -0.1980  0.5928
  300SOL    HW2  900   2.464   0.100   1.655  0.6475  2.3480  2.0437
  301SOL     OW  901   2.373   0.322   1.708  0.2300  0.2575 -0.4268
  301SOL    HW1  902   2.399   0.374   1.789 -1.5126  0.9237  0.3383
  301SOL    HW2  903   2.419   0.360   1.625  0.6673  0.2024 -0.0776
  302SOL     OW  904   0.755   2.638   0.163 -0.2910  0.3729 -0.3770
  302SOL    HW1  905   0.811   2.645   0.079 -0.0391  0.2127  2.1580
  302SOL    HW2  906   0.663   2.601   0.141  1.2470  0.6055 -1.9414
  303SOL     OW  907   1.616   1.993   1.503  0.7900 -0.1653 -0.3845
  303SOL    HW1  908   1.536   2.057   1.527 -0.2960  0.7655  0.6345
  303SOL    HW2  909   1.620   1.980   1.400 -0.8055  0.5614 -1.0598
  304SOL     OW  910   0.850   0.480   0.935  0.1211  0.8336  0.3887
  304SOL    HW1  911   0.814   0.476   1.029  1.4053 -1.4512 -0.0836
  304SOL    HW2  912   0.804   0.551   0.880 -0.6768 -2.4788  1.7443
  305SOL     OW  913   1.081   0.699   0.788 -1.0751  0.1289  0.3138
  305SOL    HW1  914   1.105   0.713   0.883 -2.2407  2.6740  1.6461
  305SOL    HW2  915   1.159   0.655   0.733  0.8426  0.0832  1.2761
  306SOL     OW  916   0.562   1.140   2.876  0.1253  0.6218 -0.3754
  306SOL    HW1  917   0.654   1.102   2.845 -1.0288  0.8188 -1.8448
  306SOL    HW2  918   0.562   1.160   2.975 -0.6968 -2.1148 -0.4384
  307SOL     OW  919   0.984   0.219   1.794 -0.2801 -0.1969 -0.0741
  307SOL    HW1  920   1.044   0.301   1.797  2.3914  0.7710 -1.1853
  307SOL    HW2  921   0.890   0.253   1.780  1.4637 -0.3036 -0.6847
  308SOL     OW  922   1.080   0.389   0.839 -0.4952 -0.2563 -0.1676
  308SOL    HW1  923   0.988   0.431   0.834  0.0197 -0.7818 -2.4645
  308SOL    HW2  924   1.146   0.438   0.781  2.0943  0.2798 -0.9529
  309SOL     OW  925   2.601   0.804   0.481  0.2034  0.5835  0.5608
  309SOL    HW1  926   2.547   0.752   0.553 -1.5269 -0.6266  0.1046
  309SOL    HW2  927   2.679   0.848   0.526 -1.0113  0.5833  0.0189
  310SOL     OW  928   1.195   1.423   3.052  0.1440 -0.5631 -0.2783
  310SOL    HW1  929   1.269   1.460   2.987  0.4238  2.6288 -1.3824
  310SOL    HW2  930   1.230   1.355   0.017 -1.0099  3.2483 -2.4260
  311SOL     OW  931   2.001   2.504   2.225 -0.3386  0.0190 -0.0237
  311SOL    HW1  932   1.995   2.539   2.127  2.3728  0.7629 -2.0734
  311SOL    HW2  933   1.997   2.569   2.299  0.7125 -0.6850 -3.3269
  312SOL     OW  934   2.154   2.485   3.042  0.0274  0.2284  0.5522
  312SOL    HW1  935   2.084   2.413   3.068 -1.3827 -0.3561  1.3684
  312SOL    HW2  936   2.112   2.559   2.984  0.3533 -0.1148 -0.4221
  313SOL     OW  937   0.405   0.377   3.072 -0.3316 -0.5798 -0.1723
  313SOL    HW1  938   0.453   0.466   3.093  0.3699  0.5098 -0.0922
  313SOL    HW2  939   0.376   0.378   2.973  1.0218 -0.5162  0.1100
  314SOL     OW  940   2.342   1.444   2.928 -0.4072 -0.4811  0.5334
  314SOL    HW1  941   2.440   1.472   2.935 -3.2983  1.9452 -2.1941
  314SOL    HW2  942   2.290   1.517   2.876 -0.8742  0.6300 -0.1008
  315SOL     OW  943   1.726   0.441   2.244 -0.0340 -0.5102  0.3972
  315SOL    HW1  944   1.675   0.375   2.303  0.5682 -1.2538 -0.9043
  315SOL    HW2  945   1.746   0.527   2.289 -0.9737  0.4325  1.8407
  316SOL     OW  946   0.032   0.907   0.623 -0.4892 -0.1969  0.6085
  316SOL    HW1  947   3.088   0.958   0.698  0.6157 -0.2145 -2.8983
  316SOL    HW2  948   3.076   0.902   0.538  0.5885  3.1337 -0.0293
  317SOL     OW  949   0.811   2.927   0.244  0.4930 -0.5292  0.4257
  317SOL    HW1  950   0.788   2.995   0.317  0.3322  0.1720  1.2810
  317SOL    HW2  951   0.759   2.840   0.265 -1.0128  2.6278 -0.5274
  318SOL     OW  952   1.799   2.676   1.579 -0.2671  0.2063  0.7098
  318SOL    HW1  953   1.887   2.691   1.631  1.7794 -1.4428  1.1140
  318SOL    HW2  954   1.813   2.643   1.482  1.2075 -0.2544  1.9841
  319SOL     OW  955   1.350   1.726   0.000  1.0185  0.1275 -0.2930
  319SOL    HW1  956   1.348   1.725   0.101  0.1402 -0.2186  0.8508
  319SOL    HW2  957   1.359   1.633   3.060 -1.6926  0.3359  0.0017
  320SOL     OW  958   0.480   1.895   0.830  0.1410 -0.3186 -0.1034
  320SOL    HW1  959   0.405   1.959   0.813 -0.0329  0.1938 -3.0308
  320SOL    HW2  960   0.462   1.800   0.801  0.3298  1.8012 -0.5736
  321SOL     OW  961   2.014   2.614   1.981  0.3402  0.5890 -0.3459
  321SOL    HW1  962   2.105   2.665   2.001 -0.0324  0.6948  1.0661
  321SOL    HW2  963   1.930   2.676   1.973  0.9632 -1.0306  2.2143
  322SOL     OW  964   2.238   1.924   2.358 -0.3215  0.1228 -0.1586
  322SOL    HW1  965   2.214   1.987   2.282  1.3295 -1.3121 -0.7178
  322SOL    HW2  966   2.320   1.866   2.326 -0.9975  1.3650 -0.7072
  323SOL     OW  967   2.441   0.133   0.769  0.1292  0.3326 -0.2633
  323SOL    HW1  968   2.449   0.030   0.762 -0.0206 -1.4003  1.7413
  323SOL    HW2  969   2.438   0.168   0.671 -0.2233  3.1860 -2.5385
  324SOL     OW  970   2.746   2.572   2.290 -0.3051 -0.0858 -0.2654
  324SOL    HW1  971   2.817   2.642   2.271  2.5203 -0.5925 -0.1648
  324SOL    HW2  972   2.750   2.511   2.207  2.7105  0.5643 -0.2484
  325SOL     OW  973   1.075   0.631   2.757 -0.2578 -0.5836 -0.2990
  325SOL    HW1  974   1.146   0.635   2.831  0.8219 -0.4431 -0.9245
  325SOL    HW2  975   1.059   0.534   2.730  0.7709 -1.3744 -0.0995
  326SOL     OW  976   2.522   2.324   1.098  0.3793  0.5704 -0.0719
  326SOL    HW1  977   2.442   2.267   1.130 -0.7166 -0.8711  0.0539
  326SOL    HW2  978   2.498   2.418   1.076  2.2501 -1.6550 -1.5320
  327SOL     OW  979   2.525   3.002   0.135 -0.3152  0.6443 -0.8305
  327SOL    HW1  980   2.543   3.002   0.234 -2.5071 -1.9736 -0.2337
  327SOL    HW2  981   2.424   3.008   0.122  1.5766  1.4884 -1.1086
  328SOL     OW  982   0.660   0.758   1.038 -0.0164  0.0647  0.3302
  328SOL    HW1  983   0.642   0.663   1.085  1.7817 -2.8457  0.3285
  328SOL    HW2  984   0.638   0.761   0.935 -3.0782  0.9226  2.0047
  329SOL     OW  985   1.934   0.442   1.451  0.3390  0.1497 -0.1147
  329SOL    HW1  986   2.017   0.386   1.461 -2.3437 -0.1454  1.3428
  329SOL    HW2  987   1.931   0.530   1.501  2.8443 -1.6655  1.3574
  330SOL     OW  988   0.754   0.377   0.587 -0.5230  0.2030 -0.4190
  330SOL    HW1  989   0.783   0.447   0.518 -1.0220 -2.6980 -0.1652
  330SOL    HW2  990   0.820   0.297   0.588  0.5344 -2.2709  0.2456
  331SOL     OW  991   0.876   2.070   1.864 -0.1008 -0.1866  0.4963
  331SOL    HW1  992   0.772   2.067   1.861 -1.6929 -2.2897  3.3084
  331SOL    HW2  993   0.920   2.138   1.801  1.5542 -0.8248  1.2658
  332SOL     OW  994   2.644   2.389   1.715 -0.2584 -0.0418  0.5984
  332SOL    HW1  995   2.715   2.321   1.698 -0.7044  1.9111 -1.9683
  332SOL    HW2  996   2.630   2.400   1.816  0.1380 -0.0490  0.0083
  333SOL     OW  997   2.950   3.044   0.893  0.2458  0.2333 -0.3776
  333SOL    HW1  998   2.974   0.045   0.876  0.5374  3.1064 -0.7092
  333SOL    HW2  999   2.884   3.009   0.824  3.1024 -0.4863  3.5479
  334SOL     OW 1000   2.984   1.413   0.548 -0.2314 -0.4376  0.3451
  334SOL    HW1 1001   2.936   1.356   0.475 -0.6849 -0.6321 -0.4834
  334SOL    HW2 1002   2.994   1.366   0.640 -1.5472  0.4292  2.3594
  335SOL     OW 1003   0.639   2.515   2.749 -0.3631 -0.1635  0.3903
  335SOL    HW1 1004   0.632   2.613   2.778  0.7108 -3.8580 -3.2340
  335SOL    HW2 1005   0.548   2.488   2.714  0.9072 -0.9697  0.2763
  336SOL     OW 1006   2.928   2.845   2.066 -0.0096  0.2181  0.8283
  336SOL    HW1 1007   2.875   2.895   2.138 -1.2515  1.2399 -0.2057
  336SOL    HW2 1008   3.031   2.833   2.082  1.9158  0.3757  0.1349
  337SOL     OW 1009   1.304   1.987   1.753 -0.3833  0.5414  0.0470
  337SOL    HW1 1010   1.242   2.007   1.832 -2.0424  1.0303  1.3482
  337SOL    HW2 1011   1.404   1.995   1.790  2.3456 -1.2008  1.1487
  338SOL     OW 1012   0.993   0.131   2.594  0.6251  0.1034  0.1605
  338SOL    HW1 1013   0.931   0.088   2.525 -2.8114  1.3277  1.1307
  338SOL    HW2 1014   1.082   0.083   2.594  3.1797  0.3638 -0.7794
  339SOL     OW 1015   0.476   1.087   2.322  0.2892  0.2453 -0.3283
  339SOL    HW1 1016   0.458   1.164   2.260 -0.9647  0.1520  1.3398
  339SOL    HW2 1017   0.406   1.010   2.319  1.0221 -2.1976 -0.6906
  340SOL     OW 1018   2.056   0.362   1.069  0.1570 -0.4422  0.4886
  340SOL    HW1 1019   2.128   0.345   0.997 -1.4776 -4.0650 -0.1599
  340SOL    HW2 1020   2.101   0.387   1.153 -1.3761 -1.6627  1.1390
  341SOL     OW 1021   2.220   1.189   0.829  0.1016  0.1321  0.5652
  341SOL    HW1 1022   2.133   1.195   0.781  1.8552  0.0944 -0.7663
  341SOL    HW2 1023   2.219   1.218   0.929 -2.4525 -2.4606  0.8452
  342SOL     OW 1024   2.026   2.699   2.860 -0.1941  0.0614 -0.2372
  342SOL    HW1 1025   1.968   2.624   2.850  5.2351 -0.3730  2.3484
  342SOL    HW2 1026   1.985   2.778   2.912  0.7825  1.0102  0.0644
  343SOL     OW 1027   0.218   2.569   1.422 -0.4851  0.4476  0.4598
  343SOL    HW1 1028   0.162   2.490   1.450  0.7987 -2.2521 -0.8007
  343SOL    HW2 1029   0.291   2.535   1.352  2.8183  1.0383 -3.5810
  344SOL     OW 1030   2.297   2.698   1.293  0.2855 -0.6683  0.3015
  344SOL    HW1 1031   2.385   2.657   1.261 -1.5965  0.2736 -0.4865
  344SOL    HW2 1032   2.287   2.698   1.395 -0.4892 -1.4054 -1.1095
  345SOL     OW 1033   2.434   2.170   0.215  0.1306  0.7677 -0.7419
  345SOL    HW1 1034   2.488   2.129   0.138  0.1605  2.9171  3.2097
  345SOL    HW2 1035   2.449   2.271   0.208  2.1283  1.5534 -1.9153
  346SOL     OW 1036   1.533   2.360   1.572  0.5523  0.0053  0.0742
  346SOL    HW1 1037   1.457   2.294   1.570 -1.1157  1.8181  2.1533
  346SOL    HW2 1038   1.544   2.408   1.661  1.2505 -0.9485  0.8830
  347SOL     OW 1039   1.083   1.898   1.430  0.1065 -0.2824  0.4098
  347SOL    HW1 1040   1.119   1.840   1.504 -2.5242  2.9925 -1.8275
  347SOL    HW2 1041   1.024   1.839   1.372  1.8456  2.5533  2.1183
  348SOL     OW 1042   0.226   2.036   2.012  0.2956 -0.4921  0.3284
  348SOL    HW1 1043   0.221   2.014   1.912 -0.5882 -2.6140 -0.2823
  348SOL    HW2 1044   0.312   1.999   2.053  1.0689  1.4960 -2.4095
  349SOL     OW 1045   1.604   1.707   1.571  0.0614  0.6409  0.2721
  349SOL    HW1 1046   1.617   1.675   1.670  0.4625  1.9269  0.6306
  349SOL    HW2 1047   1.628   1.803   1.575  0.4372 -0.2936  0.7066
  350SOL     OW 1048   2.059   2.275   0.446  0.1315  0.2746 -0.0002
  350SOL    HW1 1049   1.970   2.259   0.394 -1.9156 -1.0947 -2.5575
  350SOL    HW2 1050   2.105   2.359   0.408 -1.8340  1.9301  1.0088
  351SOL     OW 1051   0.652   2.959   1.671  0.5578  0.5088  0.3186
  351SOL    HW1 1052   0.646   3.054   1.701 -0.4522 -1.4479 -2.0696
  351SOL    HW2 1053   0.680   2.951   1.572  2.1065  1.1759  1.9774
  352SOL     OW 1054   0.786   0.985   0.828  0.2598 -0.3165 -0.3384
  352SOL    HW1 1055   0.845   0.984   0.914  3.5180  1.6777 -0.2857
  352SOL    HW2 1056   0.834   0.925   0.762 -3.1123  0.8017  1.5519
  353SOL     OW 1057   1.268   1.930   2.560  0.0325 -0.0757 -0.3597
  353SOL    HW1 1058   1.282   1.987   2.480 -0.2201 -1.5709  1.5207
  353SOL    HW2 1059   1.176   1.943   2.603 -0.2077 -0.4926  1.5432
  354SOL     OW 1060   1.812   2.792   2.024  0.2477 -0.2710  0.2920
  354SOL    HW1 1061   1.801   2.806   2.126  1.4932  0.5628  0.0465
  354SOL    HW2 1062   1.714   2.796   1.986 -4.4203  0.0811 -1.1769
  355SOL     OW 1063   1.986   1.138   0.248  0.1858 -0.5185  0.1151
  355SOL    HW1 1064   1.990   1.237   0.265  0.7874  0.2846  0.2374
  355SOL    HW2 1065   1.957   1.124   0.150  1.2071  0.3740 -0.5248
  356SOL     OW 1066   3.006   1.608   1.298 -0.0440  0.6646  0.0829
  356SOL    HW1 1067   3.048   1.665   1.221  1.3847 -1.0276 -1.6774
  356SOL    HW2 1068   2.957   1.666   1.364  2.0306  0.6874 -0.1223
  357SOL     OW 1069   0.300   2.883   1.187 -0.3445 -0.7840  0.5775
  357SOL    HW1 1070   0.353   2.936   1.252  2.1989  0.4048 -1.2718
  357SOL    HW2 1071   0.205   2.913   1.161 -1.0834 -1.8210  0.6136
  358SOL     OW 1072   2.437   1.840   1.294  0.0240 -0.0936  0.5666
  358SOL    HW1 1073   2.494   1.866   1.372 -1.9888  0.2340 -1.9010
  358SOL    HW2 1074   2.460   1.745   1.267 -1.3849  2.8139 -1.3142
  359SOL     OW 1075   2.106   3.052   2.526 -0.6986 -0.0260 -0.4614
  359SOL    HW1 1076   2.085   0.027   2.589 -0.2048 -2.1517 -3.0380
  359SOL    HW2 1077   2.142   3.093   2.440 -0.0939  0.8536  0.6438
  360SOL     OW 1078   1.080   2.883   0.668  0.2008  0.0559  0.0044
  360SOL    HW1 1079   1.171   2.876   0.713 -0.9956  0.8150  1.7758
  360SOL    HW2 1080   1.074   2.824   0.587 -1.5282 -1.5691  0.5226
  361SOL     OW 1081   2.076   0.160   0.340 -0.3519  0.5579 -0.1679
  361SOL    HW1 1082   2.133   0.116   0.265  2.1258  1.4509  1.2490
  361SOL    HW2 1083   2.128   0.235   0.384  0.7785  0.0743 -1.1871
  362SOL     OW 1084   1.564   0.948   1.055 -0.0238 -0.2877 -0.3110
  362SOL    HW1 1085   1.633   0.875   1.037  0.4184  1.3206 -0.4023
  362SOL    HW2 1086   1.613   1.036   1.041 -2.9108  0.6243 -2.6733
  363SOL     OW 1087   2.408   1.257   2.458  0.0033  0.2443  0.1744
  363SOL    HW1 1088   2.335   1.330   2.471 -1.9797  0.7913 -2.4390
  363SOL    HW2 1089   2.362   1.163   2.441 -1.5729 -1.4581  0.6242
  364SOL     OW 1090   0.236   0.760   1.090  0.2324 -0.1595  0.1983
  364SOL    HW1 1091   0.292   0.733   1.008  0.4269  1.4058  2.6688
  364SOL    HW2 1092   0.281   0.828   1.150  1.3575  3.3634 -0.5046
  365SOL     OW 1093   0.617   0.171   2.427 -0.0773  0.8174 -0.2193
  365SOL    HW1 1094   0.567   0.128   2.507  0.3766  0.5898  0.1253
  365SOL    HW2 1095   0.697   0.107   2.406  0.3630  1.5419 -1.4675
  366SOL     OW 1096   2.310   2.094   2.544  0.2640 -0.3411 -0.0455
  366SOL    HW1 1097   2.291   2.021   2.476 -1.9152 -0.6999  0.3425
  366SOL    HW2 1098   2.340   2.183   2.498 -0.1576 -0.5993 -0.1175
  367SOL     OW 1099   2.763   2.545   3.086  0.0275 -0.0103  0.1729
  367SOL    HW1 1100   2.737   2.638   0.020  0.5669 -3.5378 -1.0220
  367SOL    HW2 1101   2.832   2.543   3.009  0.8467  0.1809  0.8028
  368SOL     OW 1102   2.513   1.255   1.071 -0.0665 -0.5469  0.5664
  368SOL    HW1 1103   2.588   1.266   1.134 -2.6063  0.5030 -1.1206
  368SOL    HW2 1104   2.543   1.262   0.970  0.3776 -1.4110 -0.4945
  369SOL     OW 1105   0.896   2.863   2.469 -0.0092  0.1984 -0.1604
  369SOL    HW1 1106   0.977   2.879   2.403 -0.0392  1.0909 -0.2804
  369SOL    HW2 1107   0.926   2.806   2.546 -1.0403 -1.0322 -1.9230
  370SOL     OW 1108   2.835   0.264   0.422 -1.0095 -0.4443  0.0536
  370SOL    HW1 1109   2.924   0.299   0.381 -0.7173 -1.8902 -1.2621
  370SOL    HW2 1110   2.759   0.302   0.369  1.3325  0.6937  2.7936
  371SOL     OW 1111   1.400   2.204   1.126  0.2924  0.1901  0.0502
  371SOL    HW1 1112   1.468   2.249   1.195  0.1877  1.1021 -0.5354
  371SOL    HW2 1113   1.340   2.275   1.092  3.1626 -2.2371 -0.4954
  372SOL     OW 1114   0.113   0.629   2.658 -0.7023 -0.2564 -0.2106
  372SOL    HW1 1115   0.029   0.588   2.695 -0.9161 -2.5724 -2.4718
  372SOL    HW2 1116   0.167   0.561   2.607  1.2255  2.8900  1.7521
  373SOL     OW 1117   2.522   1.884   0.846  0.2374  0.3514 -0.0496
  373SOL    HW1 1118   2.531   1.977   0.804 -0.8886 -2.5499  2.1220
  373SOL    HW2 1119   2.547   1.892   0.944  1.4208 -1.7425 -0.2056
  374SOL     OW 1120   0.430   2.852   2.569  0.0845 -0.3877  0.1859
  374SOL    HW1 1121   0.467   2.813   2.657 -0.8346  1.7173  0.5567
  374SOL    HW2 1122   0.498   2.850   2.491  1.6865 -0.3262  0.4230
  375SOL     OW 1123   0.529   0.027   2.665 -0.1403  0.5264 -0.0426
  375SOL    HW1 1124   0.555   3.029   2.659 -1.1284 -2.1456 -1.6085
  375SOL    HW2 1125   0.533   0.063   2.763  1.4856  3.1601 -3.8361
  376SOL     OW 1126   2.985   2.093   1.925  0.1007  0.0668 -0.3048
  376SOL    HW1 1127   2.943   1.998   1.907  1.7107 -1.1385 -2.0325
  376SOL    HW2 1128   2.973   2.125   2.023 -2.2523 -0.5455 -0.2601
  377SOL     OW 1129   1.840   2.483   2.811 -0.7454  0.0245  0.5259
  377SOL    HW1 1130   1.836   2.492   2.708 -0.8682 -0.7699 -1.3303
  377SOL    HW2 1131   1.751   2.496   2.847  3.5377  3.3504 -0.1939
  378SOL     OW 1132   0.151   0.388   2.244  0.0044 -0.7309 -0.0924
  378SOL    HW1 1133   0.176   0.286   2.258  1.2398 -2.6492 -0.9784
  378SOL    HW2 1134   0.068   0.410   2.299  0.0140 -0.0244  0.1624
  379SOL     OW 1135   0.586   0.759   0.556 -0.1283 -0.1219 -0.2335
  379SOL    HW1 1136   0.587   0.683   0.621 -0.0889  0.9030 -2.0995
  379SOL    HW2 1137   0.581   0.850   0.592  0.0573  0.7990  0.5914
  380SOL     OW 1138   0.426   1.629   1.794  0.0520 -0.1665  0.0175
  380SOL    HW1 1139   0.506   1.572   1.768 -1.3040  1.0783 -2.6307
  380SOL    HW2 1140   0.418   1.633   1.897 -1.7244  0.2722 -0.1442
  381SOL     OW 1141   0.708   1.076   2.065  0.0829 -0.1920  0.0869
  381SOL    HW1 1142   0.636   1.118   2.121  1.7219  0.7658 -3.2479
  381SOL    HW2 1143   0.708   1.126   1.974 -0.6454 -1.6106  1.8475
  382SOL     OW 1144   2.453   2.073   0.479 -0.3745 -0.1204  0.3158
  382SOL    HW1 1145   2.462   2.060   0.376  1.4296 -1.9493 -1.0421
  382SOL    HW2 1146   2.356   2.081   0.506  0.0564  1.0032 -1.0745
  383SOL     OW 1147   0.453   1.847   0.059 -0.3378 -0.2657 -0.4194
  383SOL    HW1 1148   0.464   1.820   0.161 -3.2964 -0.0962  0.4478
  383SOL    HW2 1149   0.532   1.807   0.006  3.0171 -1.5386  0.0721
  384SOL     OW 1150   0.704   2.067   2.833  0.1017  0.5652 -0.3575
  384SOL    HW1 1151   0.696   2.159   2.873  0.8550  1.0632 -2.6090
  384SOL    HW2 1152   0.693   1.989   2.895  1.7135  0.3149 -1.2536
  385SOL     OW 1153   2.200   2.076   0.553 -0.4414  0.2930  0.3460
  385SOL    HW1 1154   2.212   2.088   0.654 -0.8248  1.4953  1.7814
  385SOL    HW2 1155   2.126   2.134   0.513 -0.1740 -2.1306 -0.2562
  386SOL     OW 1156   2.245   0.839   1.736  0.1727  0.5816  0.7293
  386SOL    HW1 1157   2.347   0.810   1.736 -0.3503  0.5569  1.0505
  386SOL    HW2 1158   2.240   0.924   1.793 -1.1473  1.2516 -0.4242
  387SOL     OW 1159   2.788   1.622   2.231 -0.4700  0.1637  0.3120
  387SOL    HW1 1160   2.850   1.542   2.244  2.2758 -0.4895 -2.4039
  387SOL    HW2 1161   2.765   1.664   2.323  1.0719 -0.8092 -1.4267
  388SOL     OW 1162   0.390   1.700   2.088 -0.2841  0.0338 -0.2253
  388SOL    HW1 1163   0.457   1.638   2.133 -0.4495  0.7206 -0.5100
  388SOL    HW2 1164   0.423   1.797   2.088  0.0701  0.5165 -0.0441
  389SOL     OW 1165   1.317   1.094   1.845 -0.4861  0.0577 -0.4947
  389SOL    HW1 1166   1.238   1.071   1.789  2.9987 -1.1587  0.0347
  389SOL    HW2 1167   1.301   1.064   1.940  0.0372  0.9651 -0.9981
  390SOL     OW 1168   1.897   0.053   0.954  0.5190  0.0388  0.2167
  390SOL    HW1 1169   1.924   0.035   1.053  0.2336  1.8953 -2.4589
  390SOL    HW2 1170   1.804   0.100   0.947 -1.4429  2.8971 -0.3065
  391SOL     OW 1171   1.856   1.745   1.219  0.3147 -0.6386 -0.3039
  391SOL    HW1 1172   1.890   1.683   1.143  1.1571  3.1366 -0.9304
  391SOL    HW2 1173   1.863   1.697   1.308 -0.3036 -1.1143 -0.6564
  392SOL     OW 1174   2.750   2.804   0.393 -0.1177 -0.3409 -0.1812
  392SOL    HW1 1175   2.691   2.756   0.461 -3.9509  1.0000  0.8049
  392SOL    HW2 1176   2.763   2.903   0.414  0.8483  0.3427  1.1806
  393SOL     OW 1177   2.063   2.067   2.708  0.3238  0.4478 -0.1165
  393SOL    HW1 1178   2.025   2.150   2.751  0.7761 -0.6672 -0.3047
  393SOL    HW2 1179   2.144   2.091   2.653  1.4486  3.0371  2.1844
  394SOL     OW 1180   0.128   2.594   2.596 -0.1681  0.4313 -0.0643
  394SOL    HW1 1181   0.109   2.591   2.695 -0.9638 -1.0826 -0.5355
  394SOL    HW2 1182   0.038   2.561   2.552  0.4080  1.0910  0.3861
  395SOL     OW 1183   0.409   0.129   0.691 -0.2528 -0.1116  0.0273
  395SOL    HW1 1184   0.380   0.051   0.632 -0.6348  2.3738 -0.7861
  395SOL    HW2 1185   0.390   0.213   0.645 -1.5899  2.0413 -2.4036
  396SOL     OW 1186   2.015   0.991   0.627  0.0990  0.1369  0.4190
  396SOL    HW1 1187   1.914   0.993   0.598 -2.3483 -0.8502 -1.0278
  396SOL    HW2 1188   2.071   0.991   0.543 -0.3324  0.3307  0.1421
  397SOL     OW 1189   0.406   0.475   2.081 -0.2025  0.3504  0.0470
  397SOL    HW1 1190   0.466   0.509   2.005  2.4763  0.4496 -0.0349
  397SOL    HW2 1191   0.340   0.545   2.116  2.0377 -1.2020  0.6924
  398SOL     OW 1192   1.069   3.077   0.475  0.4743 -0.5877  0.3305
  398SOL    HW1 1193   1.012   0.062   0.481  0.1472  0.7092  0.1559
  398SOL    HW2 1194   1.088   3.031   0.563 -0.2846 -0.8715 -0.7536
  399SOL     OW 1195   2.292   2.725   1.578  0.3955 -0.2253  0.2685
  399SOL    HW1 1196   2.318   2.636   1.625  0.2175 -1.4711 -0.4491
  399SOL    HW2 1197   2.367   2.797   1.591 -0.6011 -0.6054 -0.0109
  400SOL     OW 1198   1.013   1.913   2.336 -0.3379 -0.4129 -0.3693
  400SOL    HW1 1199   0.983   1.947   2.245  2.0915 -1.1702  1.6491
  400SOL    HW2 1200   0.982   1.973   2.412  0.4297  0.1819 -0.8490
  401SOL     OW 1201   0.724   1.029   2.476  0.5315  0.5947 -0.2237
  401SOL    HW1 1202   0.803   1.057   2.419 -2.4193 -0.8503  1.0550
  401SOL    HW2 1203   0.642   1.064   2.437  2.7981 -1.1765  0.9563
  402SOL     OW 1204   0.029   2.144   0.855  0.4229 -0.3796 -0.3262
  402SOL    HW1 1205   3.058   2.223   0.861  0.1363  1.4257 -0.3621
  402SOL    HW2 1206   3.080   2.057   0.841  2.4927  1.8358 -1.8508
  403SOL     OW 1207   0.173   1.087   2.184  0.0934  0.3748  0.0643
  403SOL    HW1 1208   0.183   1.033   2.094  0.8651 -0.8446  0.7040
  403SOL    HW2 1209   0.162   1.192   2.171 -2.4111  2.1926  0.8388
  404SOL     OW 1210   2.985   2.599   2.450  0.0927  0.8175 -0.0857
  404SOL    HW1 1211   2.925   2.541   2.507 -0.7205  1.3834 -1.5816
  404SOL    HW2 1212   3.002   2.558   2.356  0.3589  0.3111  0.3173
  405SOL     OW 1213   0.290   0.330   1.831 -0.3178  1.0636  0.2493
  405SOL    HW1 1214   0.346   0.253   1.873 -0.1341 -0.1537  2.9435
  405SOL    HW2 1215   0.202   0.341   1.882  1.4049 -1.9485 -0.5919
  406SOL     OW 1216   1.584   1.459   2.619 -0.5677  0.5456 -0.3361
  406SOL    HW1 1217   1.575   1.521   2.694 -0.4415 -1.1712 -0.3866
  406SOL    HW2 1218   1.566   1.507   2.533  3.9416 -0.8897 -0.8666
  407SOL     OW 1219   1.578   0.832   2.826 -0.1058 -0.2241 -0.2700
  407SOL    HW1 1220   1.605   0.925   2.838  1.0591  2.2198 -0.8094
  407SOL    HW2 1221   1.512   0.832   2.751 -1.7860 -0.8572 -0.9155
  408SOL     OW 1222   0.844   0.018   2.385  0.1329  0.1708  0.1709
  408SOL    HW1 1223   0.853   3.031   2.436 -0.3297  1.6021  0.2859
  408SOL    HW2 1224   0.811   0.002   2.288 -0.7280 -0.0418 -2.8032
  409SOL     OW 1225   0.175   2.247   1.074  0.2595 -0.4629 -0.1126
  409SOL    HW1 1226   0.109   2.218   1.002  2.5097 -0.6148 -0.5889
  409SOL    HW2 1227   0.246   2.173   1.063 -0.8699  0.4301 -1.1176
  410SOL     OW 1228   2.486   1.459   0.176  0.3398 -0.3803 -0.2342
  410SOL    HW1 1229   2.386   1.465   0.169  0.2954 -2.9400 -1.2358
  410SOL    HW2 1230   2.516   1.439   0.081  2.5012 -0.7820  1.0803
  411SOL     OW 1231   0.052   0.007   1.112  0.1882 -0.9184 -0.2604
  411SOL    HW1 1232   3.080   3.079   1.054  1.4135  1.1532 -0.3477
  411SOL    HW2 1233   0.134   0.045   1.061  2.4741  1.3828  0.3839
  412SOL     OW 1234   1.896   0.732   1.549 -0.1447  0.5889  0.1617
  412SOL    HW1 1235   1.980   0.791   1.558  0.4569  0.8280  0.9726
  412SOL    HW2 1236   1.818   0.782   1.502  1.4705 -0.6461 -2.7135
  413SOL     OW 1237   0.731   0.358   1.851  0.2045 -0.4115  0.6623
  413SOL    HW1 1238   0.727   0.314   1.946 -0.5584  0.1398  1.7392
  413SOL    HW2 1239   0.761   0.453   1.861  1.1047 -1.0439  0.3787
  414SOL     OW 1240   2.818   1.572   2.645  0.0616 -0.4230  0.3052
  414SOL    HW1 1241   2.912   1.532   2.627 -0.5256 -1.6045  1.7080
  414SOL    HW2 1242   2.741   1.510   2.616 -2.2758  2.2610  1.1714
  415SOL     OW 1243   0.908   2.381   0.296  0.3041  0.5317 -0.0507
  415SOL    HW1 1244   0.972   2.342   0.228 -0.6824 -2.7849  1.3358
  415SOL    HW2 1245   0.910   2.483   0.291  0.2978 -0.0194 -1.7962
  416SOL     OW 1246   1.775   0.090   2.823 -0.5747 -0.0035 -0.3050
  416SOL    HW1 1247   1.780   0.042   2.913 -0.8734  0.5525  0.6645
  416SOL    HW2 1248   1.862   0.135   2.794 -3.4361 -0.1487  0.9267
  417SOL     OW 1249   0.289   0.352   0.616 -0.0075 -0.2789  0.3982
  417SOL    HW1 1250   0.302   0.443   0.661  1.3975  2.3124 -1.3372
  417SOL    HW2 1251   0.196   0.308   0.624  0.4892  0.2620  0.3655
  418SOL     OW 1252   2.536   2.896   1.003  0.0572 -0.1002  0.1478
  418SOL    HW1 1253   2.454   2.926   1.058  0.7747  0.0881  3.1872
  418SOL    HW2 1254   2.627   2.937   1.029 -1.3035 -0.2992  0.5281
  419SOL     OW 1255   0.072   2.789   0.527 -0.5735  0.6005  0.4113
  419SOL    HW1 1256   0.041   2.771   0.622 -0.4935  0.4532  0.5861
  419SOL    HW2 1257   0.152   2.729   0.502  0.8912 -0.8323  0.2278
  420SOL     OW 1258   0.250   1.425   1.896 -0.2399  0.1935 -0.7681
  420SOL    HW1 1259   0.284   1.493   1.827 -2.6148 -1.8397  1.8343
  420SOL    HW2 1260   0.293   1.333   1.894  2.7422  0.2003 -1.4240
  421SOL     OW 1261   1.503   2.599   0.717 -0.1410 -0.6187 -0.1232
  421SOL    HW1 1262   1.516   2.672   0.786 -1.6540 -0.4450  0.4754
  421SOL    HW2 1263   1.475   2.515   0.753  0.0513  0.9481  1.8930
  422SOL     OW 1264   0.771   0.368   1.513 -0.2142  0.3295 -0.4026
  422SOL    HW1 1265   0.833   0.446   1.533 -0.5883  0.3137 -1.7184
  422SOL    HW2 1266   0.677   0.398   1.529  2.5173 -1.2225 -0.6638
  423SOL     OW 1267   0.982   1.417   1.801 -0.1309 -0.1705 -0.1041
  423SOL    HW1 1268   1.079   1.442   1.786 -2.1794  0.7994  0.9379
  423SOL    HW2 1269   0.969   1.321   1.768 -1.0540 -0.4092  0.9860
  424SOL     OW 1270   1.961   1.928   0.309  0.4239 -0.1696  0.2456
  424SOL    HW1 1271   1.882   1.928   0.375  0.9655 -0.7102 -2.5922
  424SOL    HW2 1272   1.980   2.020   0.264  0.5213  3.2399 -2.3041
  425SOL     OW 1273   2.989   0.135   2.044  0.3910 -0.5709  0.3320
  425SOL    HW1 1274   3.037   0.070   2.107 -0.1396 -1.3639  1.9917
  425SOL    HW2 1275   2.950   0.093   1.957 -1.2625  0.6002 -1.2240
  426SOL     OW 1276   0.089   2.603   2.865 -0.1067 -0.3304  0.1249
  426SOL    HW1 1277   0.122   2.703   2.877 -0.9725 -1.7538  0.8330
  426SOL    HW2 1278   0.100   2.550   2.952 -1.0456 -1.0048 -1.1320
  427SOL     OW 1279   1.239   0.447   0.097  0.7597  0.3448 -0.4531
  427SOL    HW1 1280   1.336   0.441   0.131 -3.8495  1.6829  1.5138
  427SOL    HW2 1281   1.203   0.357   0.070 -2.2409 -1.7535  1.0988
  428SOL     OW 1282   2.868   0.896   1.723  0.1722  0.6300  0.2333
  428SOL    HW1 1283   2.809   0.942   1.787 -0.0242  1.0942 -1.4821
  428SOL    HW2 1284   2.833   0.896   1.625  0.9092 -1.1226  0.1552
  429SOL     OW 1285   1.948   2.866   1.385 -0.1671 -0.0990  0.4388
  429SOL    HW1 1286   2.012   2.863   1.461 -0.8347 -1.7536  0.9423
  429SOL    HW2 1287   1.929   2.777   1.344  0.9883  1.5973 -0.1165
  430SOL     OW 1288   1.270   1.561   2.500  0.3533 -0.3051 -0.3712
  430SOL    HW1 1289   1.254   1.609   2.589 -0.9842  2.0125 -0.8576
  430SOL    HW2 1290   1.366   1.556   2.464  4.1672  2.2475 -1.6402
  431SOL     OW 1291   2.760   1.496   1.389 -0.2387  0.6575 -0.0628
  431SOL    HW1 1292   2.784   1.511   1.484  0.6864 -0.5104 -0.8626
  431SOL    HW2 1293   2.831   1.524   1.321 -2.5982  2.5959  0.5154
  432SOL     OW 1294   1.109   2.612   2.295 -0.1141 -0.2160 -0.0435
  432SOL    HW1 1295   1.117   2.527   2.350 -1.5828 -2.0566  1.5178
  432SOL    HW2 1296   1.027   2.619   2.235  2.0662  1.8830  2.1527
  433SOL     OW 1297   1.925   0.368   2.046  0.0679 -0.4952 -0.0765
  433SOL    HW1 1298   2.010   0.318   2.079 -0.6350  0.4769 -0.1288
  433SOL    HW2 1299   1.867   0.417   2.116 -2.4022 -0.3463  0.2611
  434SOL     OW 1300   0.437   2.604   2.346  0.4693 -0.9343  0.3106
  434SOL    HW1 1301   0.347   2.632   2.381 -0.4662  0.0139 -0.0445
  434SOL    HW2 1302   0.503   2.677   2.370  1.5311  1.0350  0.3437
  435SOL     OW 1303   0.116   3.090   0.173  0.6675  0.4544 -0.0234
  435SOL    HW1 1304   0.100   0.057   0.098 -1.4258  2.7926  2.5451
  435SOL    HW2 1305   0.209   3.095   0.213 -2.8405 -1.6905 -1.9632
  436SOL     OW 1306   0.702   0.798   2.032  0.6463 -0.9787  0.7014
  436SOL    HW1 1307   0.708   0.898   2.056  0.6454  2.2076 -0.2048
  436SOL    HW2 1308   0.647   0.752   2.102 -3.0515  2.6078 -2.8886
  437SOL     OW 1309   0.699   2.315   2.942 -0.5282 -0.3081  0.0671
  437SOL    HW1 1310   0.694   2.380   2.859 -1.2628  3.0719 -2.6730
  437SOL    HW2 1311   0.622   2.329   3.010  3.2191 -2.5323 -0.1994
  438SOL     OW 1312   1.007   1.167   1.173 -0.3472 -0.2105  0.0586
  438SOL    HW1 1313   0.979   1.260   1.139  0.1496  0.0155  0.2537
  438SOL    HW2 1314   1.109   1.159   1.169 -0.6516 -0.5562  2.0804
  439SOL     OW 1315   2.632   1.267   2.280 -0.4421  0.0789 -0.5767
  439SOL    HW1 1316   2.708   1.200   2.275  1.0875  2.7620  0.5423
  439SOL    HW2 1317   2.573   1.253   2.365 -1.9707 -0.8421  2.4865
  440SOL     OW 1318   0.095   0.491   2.999  0.4019  0.2724  0.1467
  440SOL    HW1 1319   0.098   0.425   3.078 -1.6586 -4.3346  0.4927
  440SOL    HW2 1320   0.159   0.469   2.918 -1.3231  1.2568  1.9213
  441SOL     OW 1321   0.840   2.027   1.490  0.2370 -0.2108  0.2509
  441SOL    HW1 1322   0.839   2.125   1.528  0.3459  1.1635  0.5502
  441SOL    HW2 1323   0.934   1.986   1.491  0.8580  0.4403 -1.2593
  442SOL     OW 1324   1.752   1.571   0.877 -0.4967 -0.2481 -0.1672
  442SOL    HW1 1325   1.680   1.549   0.946 -0.4514 -0.1975  0.6048
  442SOL    HW2 1326   1.834   1.618   0.918 -0.3243  1.6321  2.3466
  443SOL     OW 1327   2.555   1.901   2.725 -0.4561  0.1040 -0.0210
  443SOL    HW1 1328   2.596   1.946   2.651  1.5459 -3.2990  3.8006
  443SOL    HW2 1329   2.500   1.966   2.783  0.7953 -1.6255 -0.6618
  444SOL     OW 1330   1.959   1.623   2.753 -0.0523  0.2989 -0.1296
  444SOL    HW1 1331   1.926   1.674   2.837  3.8834  0.2752  0.3337
  444SOL    HW2 1332   2.053   1.654   2.726  1.0664  1.3463  0.0807
  445SOL     OW 1333   2.649   2.717   1.965 -0.0980 -0.1839  0.1367
  445SOL    HW1 1334   2.646   2.816   1.996  0.6612  2.2276  2.4852
  445SOL    HW2 1335   2.746   2.683   1.965  1.3428 -0.9746 -1.6689
  446SOL     OW 1336   1.072   0.975   1.731  0.1442 -0.0422 -0.0598
  446SOL    HW1 1337   1.095   0.929   1.642 -0.3685  2.0733  0.0176
  446SOL    HW2 1338   1.015   0.916   1.791  0.1629  0.2776 -0.2739
  447SOL     OW 1339   1.006   0.969   0.985 -0.2032  0.7135 -0.7949
  447SOL    HW1 1340   1.047   0.885   1.029  1.7070 -1.3432 -0.4856
  447SOL    HW2 1341   1.005   1.045   1.054  1.0445  0.2385  1.4714
  448SOL     OW 1342   1.219   1.289   2.495 -0.6012 -0.0952 -0.4253
  448SOL    HW1 1343   1.182   1.292   2.399  0.3068  1.0064 -0.4854
  448SOL    HW2 1344   1.262   1.380   2.517  1.1960  3.0601 -2.0995
  449SOL     OW 1345   3.073   1.984   2.524  0.4756 -0.2631 -0.9618
  449SOL    HW1 1346   0.070   1.972   2.557  1.0188  2.5313  1.3009
  449SOL    HW2 1347   3.061   1.962   2.426  0.3248 -0.3121 -1.1315
  450SOL     OW 1348   2.050   1.567   1.911  0.0686 -0.5747 -0.1944
  450SOL    HW1 1349   2.074   1.618   2.001  0.3416 -0.8727  0.8278
  450SOL    HW2 1350   1.975   1.613   1.862  0.8385 -1.6769  3.0093
  451SOL     OW 1351   2.701   1.264   1.283 -0.1677 -0.4787 -0.4700
  451SOL    HW1 1352   2.722   1.360   1.319 -0.8662 -2.1143 -0.4875
  451SOL    HW2 1353   2.654   1.200   1.348 -2.3710 -0.4839  0.0882
  452SOL     OW 1354   0.482   1.314   1.641 -0.1942  0.2911  0.1387
  452SOL    HW1 1355   0.447   1.229   1.593  0.7082 -0.3484 -5.4458
  452SOL    HW2 1356   0.499   1.387   1.575 -1.3137 -0.9406  0.3005
  453SOL     OW 1357   0.549   1.030   0.633 -0.0823 -0.1110 -0.1723
  453SOL    HW1 1358   0.466   1.000   0.584  2.5138 -0.5107 -0.2199
  453SOL    HW2 1359   0.528   1.047   0.728 -0.7146 -0.6610 -1.2437
  454SOL     OW 1360   0.837   1.583   0.217 -0.2881  0.3344  0.7554
  454SOL    HW1 1361   0.804   1.509   0.280 -0.8214 -2.4452 -1.7528
  454SOL    HW2 1362   0.798   1.676   0.237  0.7133  1.4866  0.6781
  455SOL     OW 1363   1.905   0.740   1.219  0.3163  0.3843  0.1399
  455SOL    HW1 1364   1.839   0.742   1.299  0.4046 -0.6043  1.6845
  455SOL    HW2 1365   1.992   0.700   1.248 -1.2997  2.9305  0.5852
  456SOL     OW 1366   1.563   2.813   0.871  0.5989 -0.2060 -0.4839
  456SOL    HW1 1367   1.638   2.840   0.810  0.6606 -1.0242 -0.8588
  456SOL    HW2 1368   1.574   2.846   0.972  0.4935 -0.8157  2.1262
  457SOL     OW 1369   2.031   0.411   2.570  0.1150  0.2644 -0.2045
  457SOL    HW1 1370   1.941   0.461   2.573 -0.7281 -2.5464 -0.1769
  457SOL    HW2 1371   2.029   0.345   2.490  0.7306 -0.6861  0.4944
  458SOL     OW 1372   2.547   0.673   2.727  0.4405  0.0935  0.2452
  458SOL    HW1 1373   2.517   0.759   2.678 -2.4115  1.3432  0.1926
  458SOL    HW2 1374   2.642   0.648   2.711  0.4650  0.1009  1.6275
  459SOL     OW 1375   0.116   1.727   2.160  0.4890 -0.1805 -0.1825
  459SOL    HW1 1376   0.215   1.740   2.131 -0.1935  3.7176 -1.6411
  459SOL    HW2 1377   0.113   1.668   2.242  0.0067  2.6397  0.1388
  460SOL     OW 1378   0.421   0.840   2.998  0.1294  0.3879 -0.2126
  460SOL    HW1 1379   0.389   0.785   2.920 -0.0110  3.4998  0.8885
  460SOL    HW2 1380   0.522   0.842   2.997 -0.8318  0.1282 -0.0898
  461SOL     OW 1381   3.091   2.380   0.531 -0.2218 -0.4924 -0.6856
  461SOL    HW1 1382   3.043   2.289   0.537 -1.3472  1.8837 -0.2059
  461SOL    HW2 1383   0.083   2.375   0.578  1.8572  0.1136 -0.3155
  462SOL     OW 1384   0.028   2.739   1.523 -0.0963  0.6101  0.1951
  462SOL    HW1 1385   3.070   2.787   1.452 -3.6189 -0.5151 -2.4411
  462SOL    HW2 1386   0.112   2.699   1.483 -1.1775 -0.2366 -1.2837
  463SOL     OW 1387   1.769   1.988   1.718  0.1461  0.2717 -0.4289
  463SOL    HW1 1388   1.705   2.002   1.640  0.7732 -3.1570  0.2225
  463SOL    HW2 1389   1.862   2.029   1.699  0.3122 -0.7411 -0.9591
  464SOL     OW 1390   3.097   2.790   0.792 -0.1597  0.1361  0.5423
  464SOL    HW1 1391   3.055   2.876   0.822 -2.2406  0.1582 -1.0712
  464SOL    HW2 1392   0.084   2.769   0.840 -1.0565 -0.1548 -1.2666
  465SOL     OW 1393   0.180   0.253   1.601  0.1343 -0.0431 -0.3985
  465SOL    HW1 1394   0.211   0.164   1.565 -2.5335  0.9559 -0.9398
  465SOL    HW2 1395   0.239   0.290   1.679  1.6432  0.9274  0.2537
  466SOL     OW 1396   1.152   2.357   2.421  0.3676 -0.4511  0.1714
  466SOL    HW1 1397   1.182   2.266   2.384  0.6811  0.1383 -1.7967
  466SOL    HW2 1398   1.068   2.346   2.478 -0.0347 -1.7609 -0.6747
  467SOL     OW 1399   2.951   1.388   1.053  0.6574  0.1963 -0.2049
  467SOL    HW1 1400   2.890   1.469   1.054  1.0743 -1.7036  1.1584
  467SOL    HW2 1401   2.976   1.353   0.960 -2.2026  0.3636  0.9060
  468SOL     OW 1402   2.356   2.088   2.814 -0.3877 -0.5758 -0.0789
  468SOL    HW1 1403   2.280   2.048   2.760  0.1935 -1.1827 -1.8868
  468SOL    HW2 1404   2.354   2.194   2.810 -3.1190  1.9720  0.2537
  469SOL     OW 1405   1.270   2.157   0.636  1.0368  0.6969  0.0879
  469SOL    HW1 1406   1.304   2.145   0.540 -0.2614  1.4175 -0.4829
  469SOL    HW2 1407   1.258   2.072   0.688 -1.2466 -1.7250 -0.2488
  470SOL     OW 1408   1.946   1.651   1.462  0.0866  0.1190  0.1269
  470SOL    HW1 1409   2.044   1.665   1.435  3.2407 -0.0549 -1.5754
  470SOL    HW2 1410   1.937   1.647   1.567 -2.3733 -1.3168  3.8520
  471SOL     OW 1411   0.453   2.474   0.349 -0.2744 -0.0364 -0.1923
  471SOL    HW1 1412   0.532   2.427   0.391 -2.1013  1.6460  0.4578
  471SOL    HW2 1413   0.383   2.491   0.425 -0.1234  1.5866 -0.0707
  472SOL     OW 1414   2.410   1.773   2.231 -0.0911 -0.0496 -0.1154
  472SOL    HW1 1415   2.446   1.862   2.202 -2.6717 -2.5522  0.5229
  472SOL    HW2 1416   2.476   1.698   2.253 -2.2013  0.3875  0.3063
  473SOL     OW 1417   1.230   2.378   0.986  0.0957 -0.3685 -0.0995
  473SOL    HW1 1418   1.137   2.335   0.986  0.9590  1.6144  0.4899
  473SOL    HW2 1419   1.214   2.478   0.969 -1.2917  0.8368 -3.2838
  474SOL     OW 1420   2.936   0.354   1.211  0.5263  0.1988  0.6124
  474SOL    HW1 1421   2.976   0.333   1.301 -0.9208 -2.1992 -1.5669
  474SOL    HW2 1422   2.847   0.303   1.191  1.0512 -1.4761 -1.5998
  475SOL     OW 1423   2.241   2.759   2.005  0.0199 -0.0675  0.4524
  475SOL    HW1 1424   2.240   2.814   2.090  2.4588 -1.1207 -3.0086
  475SOL    HW2 1425   2.270   2.811   1.926 -2.1046 -1.2779  2.0871
  476SOL     OW 1426   0.678   0.592   0.758 -0.4724 -0.4177  0.0365
  476SOL    HW1 1427   0.704   0.520   0.695  0.3843  0.4611  1.9075
  476SOL    HW2 1428   0.627   0.556   0.839 -0.7948 -1.8081 -1.7907
  477SOL     OW 1429   0.675   2.071   0.820  0.1515  0.0893 -0.1418
  477SOL    HW1 1430   0.753   2.056   0.888  0.2538 -0.1430 -0.7348
  477SOL    HW2 1431   0.619   1.986   0.815  2.3729  1.2151  0.8625
  478SOL     OW 1432   0.968   2.298   2.956 -0.4368  0.3703  0.0455
  478SOL    HW1 1433   0.972   2.195   2.922  1.5040 -1.2708 -2.1210
  478SOL    HW2 1434   0.870   2.325   2.958  0.6283 -1.8035 -1.7526
  479SOL     OW 1435   2.959   1.293   2.006  0.4054  0.9470 -0.1716
  479SOL    HW1 1436   2.899   1.207   2.001 -0.8216 -0.3018  1.7444
  479SOL    HW2 1437   3.036   1.277   1.945  1.3540  1.6319  1.6323
  480SOL     OW 1438   0.095   2.452   3.099  0.3210  0.1387  0.2235
  480SOL    HW1 1439   0.071   2.457   0.098  1.3563 -0.9385  1.3955
  480SOL    HW2 1440   0.120   2.357   3.061 -1.5049 -1.2412 -1.5241
  481SOL     OW 1441   1.588   3.015   2.243  0.3188 -0.5428 -0.8281
  481SOL    HW1 1442   1.683   3.000   2.273 -1.2441 -2.1773 -1.9123
  481SOL    HW2 1443   1.578   0.007   2.195 -0.7488 -1.4027  1.0112
  482SOL     OW 1444   1.756   2.055   2.920  0.1241 -0.4299  0.0792
  482SOL    HW1 1445   1.850   2.093   2.915 -1.2245  2.2778 -1.1206
  482SOL    HW2 1446   1.699   2.075   2.838 -1.4941  0.0835 -3.0591
  483SOL     OW 1447   1.006   2.501   2.771 -0.0376 -0.1306 -0.2424
  483SOL    HW1 1448   1.096   2.536   2.737  0.1647  1.6253 -0.2886
  483SOL    HW2 1449   1.021   2.427   2.834  0.9588  3.1493  0.3781
  484SOL     OW 1450   0.527   2.797   1.076  0.6410  0.0349 -0.0389
  484SOL    HW1 1451   0.441   2.835   1.113 -0.0458 -0.6880  0.1011
  484SOL    HW2 1452   0.600   2.868   1.078 -2.9839  0.0494 -1.6688
  485SOL     OW 1453   2.247   0.488   0.703  0.2485 -0.4396  0.4937
  485SOL    HW1 1454   2.160   0.534   0.730  0.1715  2.4357 -0.3361
  485SOL    HW2 1455   2.293   0.439   0.781 -1.8685 -1.0394 -0.4405
  486SOL     OW 1456   2.017   2.663   2.474  0.6277  0.0082  0.3943
  486SOL    HW1 1457   1.945   2.736   2.502 -0.6809  1.8024 -1.0055
  486SOL    HW2 1458   2.115   2.691   2.469 -1.1254 -1.7309  1.5456
  487SOL     OW 1459   1.009   1.576   0.888 -0.5435 -0.2009 -0.2872
  487SOL    HW1 1460   0.906   1.586   0.874 -0.5087  0.9894 -0.2001
  487SOL    HW2 1461   1.051   1.661   0.926 -1.2008  1.0088 -2.1887
  488SOL     OW 1462   2.305   0.296   0.076 -0.7973  0.0438  0.3492
  488SOL    HW1 1463   2.317   0.374   0.145  2.1776  3.4113  2.6413
  488SOL    HW2 1464   2.233   0.324   0.012  0.2664 -0.8426 -0.1175
  489SOL     OW 1465   1.867   3.087   0.401  0.0736  0.0262  0.0016
  489SOL    HW1 1466   1.891   2.990   0.414 -2.7770  1.8811  0.8767
  489SOL    HW2 1467   1.943   0.050   0.388  0.9608 -1.0782 -1.2143
  490SOL     OW 1468   1.544   0.210   2.879 -0.0557 -0.0222  0.0487
  490SOL    HW1 1469   1.575   0.244   2.969  0.7236  1.5649 -1.4219
  490SOL    HW2 1470   1.618   0.160   2.826  1.3214  1.6330 -1.1803
  491SOL     OW 1471   0.718   0.103   1.106  0.8231 -0.0732 -0.3559
  491SOL    HW1 1472   0.768   0.126   1.190  1.9946  1.9442  2.5709
  491SOL    HW2 1473   0.765   0.135   1.027 -0.0408 -1.5673  3.8943
  492SOL     OW 1474   1.652   3.012   0.228 -0.2862 -0.2409 -0.4417
  492SOL    HW1 1475   1.724   3.040   0.290 -0.9859 -1.3818  0.0646
  492SOL    HW2 1476   1.656   2.916   0.196 -0.7970 -0.1896 -0.3572
  493SOL     OW 1477   1.411   2.172   2.867  0.4181  0.0741  0.1088
  493SOL    HW1 1478   1.382   2.076   2.856  0.8189 -0.5773  0.2828
  493SOL    HW2 1479   1.503   2.186   2.830  0.4490  0.6171  2.1300
  494SOL     OW 1480   0.424   1.163   1.206  0.2196 -0.1790 -0.3322
  494SOL    HW1 1481   0.448   1.224   1.282 -2.2088 -0.4115 -0.7590
  494SOL    HW2 1482   0.499   1.140   1.146  0.4175  1.4348  1.2374
  495SOL     OW 1483   3.038   0.615   1.459 -0.6135  0.2566  0.5718
  495SOL    HW1 1484   3.091   0.698   1.475 -3.4056  0.7223  0.7230
  495SOL    HW2 1485   2.960   0.607   1.524  0.2899  0.0953 -0.0019
  496SOL     OW 1486   2.282   2.359   2.195 -0.5738 -0.3107 -0.3288
  496SOL    HW1 1487   2.335   2.427   2.142 -2.7117  0.6596 -0.7339
  496SOL    HW2 1488   2.193   2.390   2.224  2.6582  0.0890  0.2325
  497SOL     OW 1489   1.649   1.109   2.785 -0.7767  0.1136  0.3316
  497SOL    HW1 1490   1.736   1.098   2.729  1.0921 -1.1639 -1.6347
  497SOL    HW2 1491   1.585   1.129   2.710  3.4529 -0.5554  0.7105
  498SOL     OW 1492   0.918   2.117   0.554  0.1559 -0.1529  0.0635
  498SOL    HW1 1493   0.953   2.195   0.614  0.3695 -1.2947 -0.3649
  498SOL    HW2 1494   0.817   2.113   0.553 -0.4474 -0.5946  0.0332
  499SOL     OW 1495   0.240   1.545   0.979  0.1750  0.3894  0.2835
  499SOL    HW1 1496   0.173   1.532   0.903 -0.7485 -3.6475 -0.1068
  499SOL    HW2 1497   0.265   1.456   1.020  0.4935  1.6707 -0.4339
  500SOL     OW 1498   1.236   2.654   0.567  0.4243  0.0873  0.1696
  500SOL    HW1 1499   1.248   2.650   0.468 -0.8627 -2.4542  1.6182
  500SOL    HW2 1500   1.320   2.644   0.625 -1.0029 -0.6248  0.3038
  501SOL     OW 1501   1.843   2.598   1.047 -0.7557  0.2522 -0.3563
  501SOL    HW1 1502   1.943   2.585   1.044 -0.5857 -0.5893  1.2422
  501SOL    HW2 1503   1.792   2.542   0.984 -0.2011 -0.1832 -1.4374
  502SOL     OW 1504   0.159   0.502   1.234 -0.1809 -0.9194 -0.3977
  502SOL    HW1 1505   0.099   0.514   1.310  2.0036 -1.2053 -0.9479
  502SOL    HW2 1506   0.193   0.595   1.210  0.9489 -1.1007  0.6027
  503SOL     OW 1507   1.989   0.092   1.653  0.6754 -0.5700  0.0518
  503SOL    HW1 1508   1.905   0.108   1.600  1.6450  2.6261 -0.8212
  503SOL    HW2 1509   1.978   0.033   1.731  0.1344 -0.1229  1.1004
  504SOL     OW 1510   2.146   0.590   1.836 -0.3368 -0.3722  0.0001
  504SOL    HW1 1511   2.055   0.550   1.835  2.3211  3.2365 -3.4432
  504SOL    HW2 1512   2.159   0.661   1.765 -1.3258  1.5431 -0.1847
  505SOL     OW 1513   1.151   2.879   2.354  0.3862  0.7431 -0.9271
  505SOL    HW1 1514   1.142   2.780   2.329  0.6161  1.6186  1.1113
  505SOL    HW2 1515   1.248   2.902   2.394  0.3151  2.7310 -0.5076
  506SOL     OW 1516   0.528   0.570   1.853  0.1756  0.1903  0.3626
  506SOL    HW1 1517   0.527   0.488   1.791  0.9493 -1.5820  1.5886
  506SOL    HW2 1518   0.600   0.634   1.826 -0.1526 -0.8963 -0.1679
  507SOL     OW 1519   1.582   0.255   0.068 -0.1835 -0.2259  0.4392
  507SOL    HW1 1520   1.546   0.349   0.087 -0.2919 -0.8511 -0.0890
  507SOL    HW2 1521   1.684   0.257   0.067 -1.4103  3.8411  2.4230
  508SOL     OW 1522   2.148   0.512   2.174  0.2075 -0.3662  0.1841
  508SOL    HW1 1523   2.146   0.561   2.086  0.9450 -2.2311  0.6798
  508SOL    HW2 1524   2.159   0.412   2.152 -0.0211 -1.4823 -0.0995
  509SOL     OW 1525   0.844   1.525   2.612 -0.1847  0.0398 -0.0583
  509SOL    HW1 1526   0.777   1.471   2.557 -1.7444 -1.8363 -0.5414
  509SOL    HW2 1527   0.910   1.571   2.548 -2.1773 -0.3618 -0.3517
  510SOL     OW 1528   3.016   0.539   0.764 -0.5936  0.5999 -0.1923
  510SOL    HW1 1529   3.094   0.577   0.716  0.7301 -0.1281 -3.3333
  510SOL    HW2 1530   2.961   0.604   0.820  1.1372 -0.8546 -0.9990
  511SOL     OW 1531   1.639   1.490   1.381  0.3974  0.0187 -0.2323
  511SOL    HW1 1532   1.622   1.570   1.444 -1.7782  0.3127  2.0880
  511SOL    HW2 1533   1.736   1.459   1.391  1.9397  0.0896  0.9710
  512SOL     OW 1534   0.395   1.609   0.488  0.2734  0.0747 -0.3087
  512SOL    HW1 1535   0.480   1.607   0.540 -0.7600 -0.2729  0.1051
  512SOL    HW2 1536   0.337   1.527   0.507 -0.4778 -1.8871  0.3561
  513SOL     OW 1537   0.456   2.151   1.212  0.0312  0.6218 -0.0902
  513SOL    HW1 1538   0.391   2.085   1.174  0.5904  2.6564  0.4895
  513SOL    HW2 1539   0.487   2.209   1.129  1.2160 -0.6092  0.8940
  514SOL     OW 1540   0.181   2.201   0.257 -0.0112 -0.3697  0.0335
  514SOL    HW1 1541   0.144   2.292   0.219  0.6146  1.7410 -2.2068
  514SOL    HW2 1542   0.267   2.177   0.214  1.3170  1.2828 -0.6941
  515SOL     OW 1543   2.854   2.973   0.034  0.6383 -0.0703 -0.1707
  515SOL    HW1 1544   2.883   3.025   0.117 -0.2299  1.7954  1.7915
  515SOL    HW2 1545   2.794   2.890   0.057  0.4403  1.4598  1.4904
  516SOL     OW 1546   1.950   0.004   1.212  0.3561 -0.0249 -0.1791
  516SOL    HW1 1547   1.871   0.064   1.242 -3.0541  1.9016 -1.6193
  516SOL    HW2 1548   1.951   3.015   1.263 -0.7409 -0.3023 -0.0292
  517SOL     OW 1549   1.660   1.400   0.499 -0.6659  0.1071 -0.2269
  517SOL    HW1 1550   1.648   1.496   0.528  0.0710 -0.4137  1.1279
  517SOL    HW2 1551   1.615   1.339   0.571 -0.9384  0.4321  0.6139
  518SOL     OW 1552   1.316   0.174   0.946  0.1035 -0.1749 -0.1985
  518SOL    HW1 1553   1.216   0.192   0.949  0.8997  4.7393 -0.2757
  518SOL    HW2 1554   1.347   0.168   0.849  0.7502  3.0769 -0.3196
  519SOL     OW 1555   2.738   2.428   0.348 -0.2872  0.2478  0.3854
  519SOL    HW1 1556   2.789   2.491   0.406 -1.1937  0.3527 -0.1883
  519SOL    HW2 1557   2.792   2.370   0.283 -1.0135  1.0184  0.0540
  520SOL     OW 1558   1.876   2.019   2.073  0.0724 -0.0623  0.0330
  520SOL    HW1 1559   1.875   2.083   2.152  0.0690  2.0649  0.0825
  520SOL    HW2 1560   1.799   1.951   2.083  0.7205  1.0117 -0.0205
  521SOL     OW 1561   1.530   2.685   2.193  0.3146 -0.1636 -0.5551
  521SOL    HW1 1562   1.445   2.654   2.147  1.1673 -2.2186  2.3312
  521SOL    HW2 1563   1.515   2.777   2.234 -2.0551 -0.1431  2.7325
  522SOL     OW 1564   2.831   0.033   1.839 -0.2971 -0.2993  0.2545
  522SOL    HW1 1565   2.850   0.115   1.775 -0.3948  1.8946 -0.2845
  522SOL    HW2 1566   2.868   3.046   1.797  2.3138 -1.7490  2.8845
  523SOL     OW 1567   0.924   2.280   1.607  0.1543  0.0065 -0.0216
  523SOL    HW1 1568   0.848   2.329   1.561 -1.4946  1.2562  1.2226
  523SOL    HW2 1569   1.013   2.318   1.576  1.4126 -2.4230  2.1572
  524SOL     OW 1570   2.177   2.126   0.154  0.0753 -0.1059 -0.1347
  524SOL    HW1 1571   2.190   2.061   0.079  1.3820  1.3536 -1.1703
  524SOL    HW2 1572   2.263   2.142   0.207  0.1389 -1.8168 -0.6675
  525SOL     OW 1573   2.893   0.895   3.088  0.1836  0.5958  0.3122
  525SOL    HW1 1574   2.981   0.844   3.095 -1.4102  3.4440  1.2647
  525SOL    HW2 1575   2.876   0.923   2.989 -1.5766 -0.5595 -1.0053
  526SOL     OW 1576   0.753   0.022   0.410  0.1227  0.0635  0.0176
  526SOL    HW1 1577   0.764   0.117   0.367  0.5651  0.6576  0.4761
  526SOL    HW2 1578   0.738   0.027   0.509 -0.0149 -0.9205 -0.6931
  527SOL     OW 1579   2.629   1.321   0.516  0.1909 -0.1350 -0.1048
  527SOL    HW1 1580   2.537   1.279   0.512  1.0632 -0.2254  1.3826
  527SOL    HW2 1581   2.630   1.423   0.513 -0.5795 -1.3020  0.0004
  528SOL     OW 1582   0.639   0.776   2.430 -0.5757 -0.0723 -0.0167
  528SOL    HW1 1583   0.681   0.865   2.453  2.5786  0.6279  0.4919
  528SOL    HW2 1584   0.542   0.782   2.393 -1.5056  0.3653 -0.5544
  529SOL     OW 1585   0.549   1.480   0.009 -0.3348  1.0950 -0.2565
  529SOL    HW1 1586   0.497   1.494   0.095  2.0597  1.1477 -1.1808
  529SOL    HW2 1587   0.508   1.520   3.026  1.3517 -0.0876  0.6504
  530SOL     OW 1588   1.257   1.042   2.159  0.3814  0.3049 -0.3565
  530SOL    HW1 1589   1.358   1.022   2.152 -0.2103  0.9219 -0.4234
  530SOL    HW2 1590   1.198   0.956   2.163 -0.5990  0.1972 -1.5325
  531SOL     OW 1591   1.252   2.056   0.128 -0.4352 -0.1673 -0.4608
  531SOL    HW1 1592   1.337   2.061   0.067  0.0546  0.1129 -1.9339
  531SOL    HW2 1593   1.188   1.986   0.094 -0.1108  0.7673 -1.6339
  532SOL     OW 1594   2.232   0.975   2.624 -0.0313 -0.4166 -0.0957
  532SOL    HW1 1595   2.170   0.905   2.655  2.9693  1.6395 -0.2540
  532SOL    HW2 1596   2.194   1.070   2.645 -2.0216 -1.3867  0.2413
  533SOL     OW 1597   0.051   0.582   1.802 -0.5031 -0.3175  0.5464
  533SOL    HW1 1598   0.041   0.491   1.841  0.4370 -0.0869 -1.5398
  533SOL    HW2 1599   3.067   0.619   1.765  1.8192 -0.2054  2.8414
  534SOL     OW 1600   1.790   0.013   0.006  0.0560  0.5830 -0.6398
  534SOL    HW1 1601   1.837   0.104   0.006 -0.1511 -2.5284 -1.1731
  534SOL    HW2 1602   1.728   0.007   0.088 -1.6160  2.0512  1.0744
  535SOL     OW 1603   0.557   0.069   2.996  0.0375  0.6166 -0.2051
  535SOL    HW1 1604   0.657   0.079   2.976 -1.1869  2.5170 -2.2021
  535SOL    HW2 1605   0.529   0.160   3.038  0.7336  0.7330 -0.7187
  536SOL     OW 1606   0.641   1.888   1.618 -0.0437 -0.0671  0.4150
  536SOL    HW1 1607   0.608   1.804   1.571  1.9931 -1.5101  0.6227
  536SOL    HW2 1608   0.713   1.933   1.561 -3.8858  1.2023  1.2899
  537SOL     OW 1609   2.945   2.542   1.652  0.4219 -0.1019  0.1065
  537SOL    HW1 1610   2.997   2.620   1.610  0.0522  2.3075 -2.0340
  537SOL    HW2 1611   2.848   2.553   1.630  0.5976 -0.3371 -0.0066
  538SOL     OW 1612   2.970   2.120   0.530  0.8698 -0.5730 -0.1881
  538SOL    HW1 1613   3.033   2.057   0.483 -3.7459  3.4094  1.7754
  538SOL    HW2 1614   2.917   2.081   0.610  0.3218  0.4815 -0.9210
  539SOL     OW 1615   2.500   0.942   2.620  0.0876  0.3130  0.3759
  539SOL    HW1 1616   2.397   0.949   2.624  0.1819 -0.8802  0.1804
  539SOL    HW2 1617   2.554   0.998   2.689 -2.1670 -1.2871  2.4472
  540SOL     OW 1618   2.023   0.912   3.021 -0.0557 -0.0629  0.1658
  540SOL    HW1 1619   1.986   1.011   3.026  1.1204  0.8855 -0.6942
  540SOL    HW2 1620   1.960   0.842   3.060 -0.9482  2.0447  2.0208
  541SOL     OW 1621   0.900   0.578   2.079  0.0786  0.4053  0.0600
  541SOL    HW1 1622   0.947   0.559   2.164  2.0966  2.9188 -0.2069
  541SOL    HW2 1623   0.809   0.615   2.098  2.2881 -0.4531 -1.2167
  542SOL     OW 1624   1.630   2.424   2.155 -0.4213 -0.0149  0.2469
  542SOL    HW1 1625   1.624   2.519   2.193 -1.6231  2.7106  4.3731
  542SOL    HW2 1626   1.702   2.407   2.085  1.6397 -3.0713 -4.8349
  543SOL     OW 1627   1.030   2.837   0.360 -0.0591  0.4762  0.1351
  543SOL    HW1 1628   1.071   2.922   0.399  0.5452 -0.5524 -2.0765
  543SOL    HW2 1629   0.942   2.864   0.314  2.1719  0.7914  2.2420
  544SOL     OW 1630   2.796   1.895   2.140  0.5076 -0.4690 -0.5543
  544SOL    HW1 1631   2.797   1.795   2.153  1.2790  1.7393  1.9377
  544SOL    HW2 1632   2.704   1.930   2.173 -3.1065  0.7533  1.4442
  545SOL     OW 1633   1.388   2.143   1.525 -0.3450 -0.0764  0.2183
  545SOL    HW1 1634   1.350   2.098   1.608 -0.0980 -0.9531 -0.1278
  545SOL    HW2 1635   1.314   2.144   1.455  3.0748 -1.1580  2.4171
  546SOL     OW 1636   0.216   0.124   2.351 -0.7775  0.0093 -0.1111
  546SOL    HW1 1637   0.310   0.132   2.308  2.5368 -0.0507 -1.0155
  546SOL    HW2 1638   0.225   0.094   2.450 -0.2871  1.3579  0.2752
  547SOL     OW 1639   0.985   0.237   0.437  0.7977 -0.0196 -0.2371
  547SOL    HW1 1640   0.932   0.248   0.351  1.3137  0.0826 -0.4727
  547SOL    HW2 1641   1.080   0.278   0.425  1.1730 -1.1609  0.3232
  548SOL     OW 1642   1.636   2.112   0.070  0.5199 -0.2548 -0.5051
  548SOL    HW1 1643   1.595   2.205   0.061 -3.3865  3.3637 -0.4391
  548SOL    HW2 1644   1.674   2.071   3.088  0.0783 -2.7018  5.0163
  549SOL     OW 1645   2.171   0.985   0.391 -0.2480  0.1189 -0.1690
  549SOL    HW1 1646   2.122   1.058   0.345  0.7622 -0.0064  0.0674
  549SOL    HW2 1647   2.270   0.994   0.369  2.2032  0.2639 -0.0127
  550SOL     OW 1648   2.582   2.299   0.565 -0.4020 -0.2277  0.1392
  550SOL    HW1 1649   2.530   2.225   0.516 -1.3057 -0.4684  1.7841
  550SOL    HW2 1650   2.661   2.323   0.509 -0.9180 -1.6575  2.3841
  551SOL     OW 1651   1.120   0.461   1.474 -0.0333  0.2750 -0.0244
  551SOL    HW1 1652   1.215   0.487   1.443 -0.3840  0.9330 -0.3562
  551SOL    HW2 1653   1.123   0.358   1.488  1.3695  0.6323 -0.1150
  552SOL     OW 1654   2.863   2.030   2.927 -0.4852  0.1832 -0.0508
  552SOL    HW1 1655   2.877   1.939   2.886 -0.3787  1.1225 -2.0738
  552SOL    HW2 1656   2.880   2.028   3.029 -1.6779  1.0800 -1.3245
  553SOL     OW 1657   2.745   2.710   0.756 -0.3771  0.0772 -0.2734
  553SOL    HW1 1658   2.673   2.719   0.689  1.2693  0.4819 -0.6702
  553SOL    HW2 1659   2.817   2.649   0.717  0.5855  2.0949  0.1558
  554SOL     OW 1660   1.884   1.161   1.804 -0.0651  0.7425  0.6432
  554SOL    HW1 1661   1.945   1.143   1.723  1.7029  0.5665 -1.5336
  554SOL    HW2 1662   1.940   1.208   1.878 -0.7481  0.6221  1.4093
  555SOL     OW 1663   1.153   2.206   2.124 -0.4674  0.1129 -0.1199
  555SOL    HW1 1664   1.073   2.270   2.128 -3.6104  2.9420 -3.8518
  555SOL    HW2 1665   1.131   2.139   2.050 -2.2876 -0.8159 -0.4251
  556SOL     OW 1666   1.236   1.536   1.796  0.1654  0.0720 -0.0219
  556SOL    HW1 1667   1.294   1.576   1.866 -0.8188 -1.4954  1.2885
  556SOL    HW2 1668   1.279   1.453   1.743 -0.2594  0.0392 -1.6996
  557SOL     OW 1669   1.481   0.040   1.705 -0.0410 -0.6327 -0.0526
  557SOL    HW1 1670   1.395   0.030   1.758  3.3385  0.9825 -0.8039
  557SOL    HW2 1671   1.493   3.069   1.637  0.4654  2.9799  0.9771
  558SOL     OW 1672   0.568   2.881   2.109  0.3284  0.3289  0.0389
  558SOL    HW1 1673   0.480   2.924   2.101  0.2913 -0.8091  1.2650
  558SOL    HW2 1674   0.572   2.794   2.052  0.7985  1.4262 -1.1534
  559SOL     OW 1675   1.680   2.529   0.295  0.0720 -0.5601  0.3377
  559SOL    HW1 1676   1.633   2.612   0.251 -1.2174  1.0255 -2.3052
  559SOL    HW2 1677   1.677   2.523   0.394 -2.5331 -0.6683 -0.3358
  560SOL     OW 1678   1.313   2.149   0.368 -0.5753 -0.2654  0.0744
  560SOL    HW1 1679   1.294   2.107   0.280 -0.1041  0.7630  4.1013
  560SOL    HW2 1680   1.320   2.246   0.352 -2.4460 -2.4951  1.9864
  561SOL     OW 1681   1.520   0.395   0.477 -0.2844 -0.0813 -0.3640
  561SOL    HW1 1682   1.591   0.328   0.501  0.0468  1.8315 -0.7013
  561SOL    HW2 1683   1.435   0.348   0.444 -3.6049  2.8814  1.3486
  562SOL     OW 1684   0.623   1.443   1.942 -0.4337 -0.9751 -0.1803
  562SOL    HW1 1685   0.673   1.528   1.907  1.7041  0.3567 -1.3465
  562SOL    HW2 1686   0.631   1.365   1.876  0.3217  1.2036 -0.7107
  563SOL     OW 1687   1.639   2.113   2.687  0.2640  0.3995 -0.2735
  563SOL    HW1 1688   1.629   2.011   2.676  0.4331 -0.9367 -1.1015
  563SOL    HW2 1689   1.638   2.162   2.596  2.2229  0.3590  0.3173
  564SOL     OW 1690   3.021   1.003   0.835 -0.0717 -0.2438  0.2396
  564SOL    HW1 1691   2.919   1.004   0.834  0.7379  1.9394 -1.0420
  564SOL    HW2 1692   3.049   0.964   0.925  0.9626 -0.6239 -1.7041
  565SOL     OW 1693   0.623   1.232   0.020  0.1113 -0.2397  0.0318
  565SOL    HW1 1694   0.589   1.330   0.033 -2.1580  0.9345 -0.4949
  565SOL    HW2 1695   0.721   1.225   0.049 -0.1928 -0.3783  0.1256
  566SOL     OW 1696   2.234   2.800   2.725  0.1569 -0.0868 -0.4973
  566SOL    HW1 1697   2.258   2.884   2.775 -0.9248 -1.1553  0.8908
  566SOL    HW2 1698   2.159   2.753   2.769  2.5730  2.8235 -0.9577
  567SOL     OW 1699   1.446   1.294   1.465 -0.3302  0.0552  0.1559
  567SOL    HW1 1700   1.507   1.373   1.427  3.5605  2.7424 -1.4664
  567SOL    HW2 1701   1.447   1.294   1.565  2.5742  1.3691  0.0879
  568SOL     OW 1702   1.340   1.097   2.996  1.0744 -0.0131  0.5595
  568SOL    HW1 1703   1.294   1.154   3.064  2.1963  0.4571 -2.0811
  568SOL    HW2 1704   1.434   1.125   2.993 -3.5194 -1.6608 -2.5575
  569SOL     OW 1705   2.177   1.829   0.427 -0.1468 -0.2386 -0.0778
  569SOL    HW1 1706   2.081   1.831   0.396  0.5251 -0.4854 -1.8000
  569SOL    HW2 1707   2.203   1.904   0.488  2.7235 -0.0325  2.0518
  570SOL     OW 1708   2.642   2.215   2.322  0.1209  0.1831  0.5734
  570SOL    HW1 1709   2.581   2.285   2.356 -0.0341 -2.7212  2.7355
  570SOL    HW2 1710   2.732   2.260   2.300 -0.0769 -1.1440  1.5697
  571SOL     OW 1711   2.886   1.843   1.881  0.3337 -0.5810 -0.2967
  571SOL    HW1 1712   2.972   1.790   1.865 -1.2131 -2.3543 -2.3960
  571SOL    HW2 1713   2.855   1.846   1.979  1.9710 -1.0036  0.3535
  572SOL     OW 1714   1.527   2.352   0.130  0.1772 -0.0789 -0.3047
  572SOL    HW1 1715   1.434   2.381   0.165 -1.4926  0.3063  1.6495
  572SOL    HW2 1716   1.604   2.399   0.182  0.8271  0.6545  0.8247
  573SOL     OW 1717   1.419   1.763   0.687 -0.0968 -0.5264 -0.4095
  573SOL    HW1 1718   1.464   1.844   0.728  0.1961  0.0958  0.5245
  573SOL    HW2 1719   1.319   1.781   0.673 -1.8908  1.8179 -2.2560
  574SOL     OW 1720   1.144   2.981   1.527  0.5042  0.7223  0.0025
  574SOL    HW1 1721   1.239   2.971   1.566  1.6125  1.0581 -1.6583
  574SOL    HW2 1722   1.080   2.929   1.582  0.1791  2.4680 -1.4263
  575SOL     OW 1723   0.886   0.778   1.354  0.3200 -0.5747  0.0187
  575SOL    HW1 1724   0.847   0.849   1.292 -0.5544  2.9679 -0.7628
  575SOL    HW2 1725   0.817   0.749   1.422 -1.5772  1.9932 -1.5751
  576SOL     OW 1726   2.703   0.217   1.180 -0.1219 -0.2785 -0.5903
  576SOL    HW1 1727   2.677   0.235   1.080  0.3697  0.3845 -0.6275
  576SOL    HW2 1728   2.630   0.162   1.225  2.2713 -0.2077 -3.5906
  577SOL     OW 1729   1.754   0.516   2.573  0.2056 -0.7696 -0.3006
  577SOL    HW1 1730   1.726   0.538   2.670  0.0836 -1.1835 -2.2599
  577SOL    HW2 1731   1.745   0.593   2.504 -0.9902  2.1847 -0.2295
  578SOL     OW 1732   1.969   1.651   2.397  0.0451 -0.1614 -0.0889
  578SOL    HW1 1733   1.927   1.581   2.455  1.4284  3.1122 -0.4305
  578SOL    HW2 1734   1.973   1.746   2.442  1.9645  0.5351 -0.0290
  579SOL     OW 1735   0.426   1.642   0.802 -0.0829  0.5587  0.1122
  579SOL    HW1 1736   0.369   1.614   0.883  1.1967  4.8080  1.2658
  579SOL    HW2 1737   0.464   1.561   0.756 -1.9019  1.5664  1.2551
  580SOL     OW 1738   1.295   2.390   2.982  0.0834  0.4680  0.5188
  580SOL    HW1 1739   1.353   2.327   2.926  1.1291  0.4485  1.6685
  580SOL    HW2 1740   1.218   2.338   3.020  1.2987 -0.6393  1.2084
  581SOL     OW 1741   1.113   0.793   2.137 -0.2030  0.5668  0.0750
  581SOL    HW1 1742   1.045   0.785   2.213  0.6662 -0.6707 -1.3049
  581SOL    HW2 1743   1.068   0.772   2.051 -1.0865  6.0778 -1.8492
  582SOL     OW 1744   0.637   1.116   1.011 -0.1552 -0.5984 -0.1540
  582SOL    HW1 1745   0.689   1.048   0.958  0.7518  0.1603 -2.6057
  582SOL    HW2 1746   0.649   1.211   0.973  2.3576  1.4501 -1.8507
  583SOL     OW 1747   0.847   1.581   2.230  0.0137 -0.2876  0.2580
  583SOL    HW1 1748   0.882   1.605   2.133 -0.0192 -0.6004 -0.0147
  583SOL    HW2 1749   0.915   1.580   2.303 -0.5386 -3.1421 -0.8227
  584SOL     OW 1750   2.094   2.763   0.382 -0.0535  0.0995 -0.3750
  584SOL    HW1 1751   2.034   2.778   0.463 -0.4610 -1.9481 -0.3270
  584SOL    HW2 1752   2.151   2.849   0.364  0.9686 -3.4973  0.7979
  585SOL     OW 1753   1.890   0.479   2.984  0.0691 -0.2170 -0.0974
  585SOL    HW1 1754   1.904   0.572   3.029  2.6870  1.3435 -0.3686
  585SOL    HW2 1755   1.809   0.484   2.917  0.3432  2.4141 -2.1147
  586SOL     OW 1756   0.216   1.814   0.563  0.3058  0.0119 -0.5097
  586SOL    HW1 1757   0.137   1.773   0.511 -0.1709 -1.5101 -1.3139
  586SOL    HW2 1758   0.280   1.741   0.573 -3.3610  1.7312  1.3099
  587SOL     OW 1759   1.611   1.945   0.794 -0.0679  0.2677  0.6662
  587SOL    HW1 1760   1.657   2.026   0.762 -2.2066  0.0110  0.5828
  587SOL    HW2 1761   1.676   1.865   0.785  1.5068 -1.8288 -1.2250
  588SOL     OW 1762   0.453   0.466   0.915 -0.0540 -0.0939  0.3132
  588SOL    HW1 1763   0.354   0.475   0.893 -0.6131  0.0655  0.4855
  588SOL    HW2 1764   0.459   0.421   1.000 -0.3161  2.8189 -1.2521
  589SOL     OW 1765   1.133   0.383   1.097  0.0726  0.5196 -0.3821
  589SOL    HW1 1766   1.113   0.382   0.994  1.1268 -1.0599  0.3366
  589SOL    HW2 1767   1.076   0.451   1.146  2.7857  1.5397 -0.5061
  590SOL     OW 1768   1.434   0.834   0.373  0.1899  0.2174  0.0561
  590SOL    HW1 1769   1.340   0.835   0.413 -1.5687 -0.9074 -0.6571
  590SOL    HW2 1770   1.496   0.847   0.452 -0.8766 -1.2539  2.7675
  591SOL     OW 1771   2.540   2.700   2.445  0.2423  0.4180 -0.2086
  591SOL    HW1 1772   2.604   2.749   2.507 -0.0537 -0.2161 -0.2545
  591SOL    HW2 1773   2.580   2.623   2.393  1.9600 -0.9526  0.0506
  592SOL     OW 1774   1.481   1.969   1.037  0.6663 -0.2231 -0.5658
  592SOL    HW1 1775   1.511   1.965   0.941  0.7949  0.0016 -0.9948
  592SOL    HW2 1776   1.454   2.063   1.071 -0.0964 -2.5685  1.7281
  593SOL     OW 1777   1.048   0.059   0.783  0.0547 -0.2932  0.0830
  593SOL    HW1 1778   1.026   3.064   0.776  1.6439  2.3889  0.7906
  593SOL    HW2 1779   1.139   0.078   0.732 -1.7183 -2.2732  0.1791
  594SOL     OW 1780   0.374   1.169   1.917 -0.1055  0.7018  0.2031
  594SOL    HW1 1781   0.452   1.149   1.851 -1.8682  1.9655  2.0452
  594SOL    HW2 1782   0.296   1.099   1.927 -2.7870 -2.4435  0.2112
  595SOL     OW 1783   0.231   2.794   0.891  0.0602  0.2289  0.1011
  595SOL    HW1 1784   0.251   2.735   0.968 -0.0710  3.1844  0.1601
  595SOL    HW2 1785   0.315   2.835   0.849 -0.9916  0.8687  0.0222
  596SOL     OW 1786   0.058   0.845   1.523  0.1317 -0.2040 -1.0581
  596SOL    HW1 1787   0.155   0.833   1.496 -1.0112  1.6719  0.5144
  596SOL    HW2 1788   0.042   0.886   1.618 -0.2223 -0.0032  2.1723
  597SOL     OW 1789   1.930   1.591   0.548 -0.0244  0.1522 -0.3038
  597SOL    HW1 1790   1.945   1.537   0.462  2.7221 -0.1976 -2.0767
  597SOL    HW2 1791   1.832   1.611   0.571  0.4161 -1.7284  0.1347
  598SOL     OW 1792   0.309   2.794   1.978  0.4684 -0.3467  0.3242
  598SOL    HW1 1793   0.357   2.776   1.883  1.8432 -2.0196 -1.5311
  598SOL    HW2 1794   0.329   2.714   2.040  4.6211 -1.4508  2.7414
  599SOL     OW 1795   2.546   2.082   3.038 -0.2620 -0.1353 -0.1275
  599SOL    HW1 1796   2.465   2.073   2.981  1.4568  0.4696  1.2750
  599SOL    HW2 1797   2.605   2.002   3.025  0.9272  1.4431 -3.1616
  600SOL     OW 1798   0.808   0.984   0.247 -0.2966  0.2967  0.3766
  600SOL    HW1 1799   0.839   1.050   0.180 -3.0305 -1.0376 -0.1605
  600SOL    HW2 1800   0.815   1.026   0.343  0.3198 -2.3564  0.9735
  601SOL     OW 1801   1.055   1.054   0.369  0.2313 -0.2602  0.4110
  601SOL    HW1 1802   1.118   1.007   0.435 -0.2892  0.2400  2.6445
  601SOL    HW2 1803   1.041   0.997   0.287  1.2890  0.6855  0.0821
  602SOL     OW 1804   1.185   2.890   1.031  0.0373 -0.2303  0.4165
  602SOL    HW1 1805   1.214   2.925   0.937  0.0038  1.8972 -0.2998
  602SOL    HW2 1806   1.177   2.960   1.104  1.5719 -1.7230  1.4950
  603SOL     OW 1807   0.734   3.084   2.150 -0.6143  0.0736 -0.2781
  603SOL    HW1 1808   0.657   3.015   2.130 -2.4074  0.2461 -3.9399
  603SOL    HW2 1809   0.805   3.081   2.080 -0.8020 -0.3790  1.1023
  604SOL     OW 1810   0.024   3.093   2.222  0.0633 -0.0821  0.4694
  604SOL    HW1 1811   0.051   2.997   2.193  1.7697 -1.0200  2.3792
  604SOL    HW2 1812   0.097   0.036   2.278 -1.6951  0.0450  0.3979
  605SOL     OW 1813   2.794   2.130   1.451 -0.2486  0.1788 -0.2068
  605SOL    HW1 1814   2.700   2.169   1.459  2.3675 -1.1801  1.1343
  605SOL    HW2 1815   2.842   2.151   1.539  2.5236 -0.2799  0.8676
  606SOL     OW 1816   0.387   1.571   2.912 -0.4442 -0.3477 -0.1055
  606SOL    HW1 1817   0.294   1.585   2.955 -1.8766  0.8602 -2.3853
  606SOL    HW2 1818   0.417   1.660   2.866 -0.0472  0.0147 -2.4684
  607SOL     OW 1819   0.894   0.399   3.090 -0.2264 -0.4349 -0.0010
  607SOL    HW1 1820   0.909   0.498   3.076 -1.0941 -0.9930  0.1723
  607SOL    HW2 1821   0.976   0.344   3.063  0.6014  0.2716 -0.3111
  608SOL     OW 1822   1.833   1.177   2.374  0.4682 -0.1277 -0.0939
  608SOL    HW1 1823   1.764   1.105   2.380 -2.2456  0.1479  1.8673
  608SOL    HW2 1824   1.845   1.219   2.465 -1.3631 -0.8368  0.1518
  609SOL     OW 1825   2.993   0.221   0.813  0.1570 -0.3198 -0.5319
  609SOL    HW1 1826   3.048   0.270   0.885  0.5049  0.2949 -2.2920
  609SOL    HW2 1827   2.930   0.283   0.761  1.1447  0.6457  0.4443
  610SOL     OW 1828   0.474   2.359   3.091  0.2558 -0.3354  0.5326
  610SOL    HW1 1829   0.437   2.280   0.043 -0.0705 -2.0585 -0.7744
  610SOL    HW2 1830   0.444   2.448   0.038 -0.2644  0.9351 -1.9474
  611SOL     OW 1831   1.801   1.148   0.465 -0.0469 -0.3777 -0.5230
  611SOL    HW1 1832   1.868   1.153   0.385 -2.1680  2.6653 -1.3309
  611SOL    HW2 1833   1.747   1.233   0.470  1.5533 -3.1703 -0.8330
  612SOL     OW 1834   0.906   2.295   2.592 -0.0947  0.0574  0.0386
  612SOL    HW1 1835   0.854   2.212   2.615  1.2332  3.3634 -0.0689
  612SOL    HW2 1836   0.905   2.361   2.672 -0.9872  0.9491  0.4385
  613SOL     OW 1837   1.088   2.026   2.891 -0.1900  0.8323 -0.1061
  613SOL    HW1 1838   1.180   1.986   2.911 -1.9955 -3.1921  2.2773
  613SOL    HW2 1839   1.066   2.022   2.789  0.5935 -0.3353 -1.8785
  614SOL     OW 1840   2.785   2.728   1.541 -0.4996  0.6338  0.1149
  614SOL    HW1 1841   2.851   2.767   1.473 -2.2494 -0.1026  1.1242
  614SOL    HW2 1842   2.731   2.660   1.490 -0.1390 -0.3195 -0.0962
  615SOL     OW 1843   2.162   1.235   2.949 -0.0253 -0.4730  0.2113
  615SOL    HW1 1844   2.114   1.229   3.039  1.0933  2.0005 -0.2523
  615SOL    HW2 1845   2.226   1.315   2.947  2.7358  0.7158  2.0495
  616SOL     OW 1846   1.710   0.188   0.554 -0.0818  0.1467 -0.2639
  616SOL    HW1 1847   1.756   0.107   0.511 -0.7941 -3.3114  0.1720
  616SOL    HW2 1848   1.769   0.232   0.623 -0.6661  0.9658  2.0702
  617SOL     OW 1849   0.896   1.188   0.092 -0.1889  0.6084 -0.3013
  617SOL    HW1 1850   0.929   1.203   3.096 -0.0495  0.8004  1.0490
  617SOL    HW2 1851   0.943   1.250   0.158  1.4219  3.2601  1.7115
  618SOL     OW 1852   0.611   0.861   1.767 -0.4359 -0.1610  0.2278
  618SOL    HW1 1853   0.511   0.877   1.776 -0.4103  1.1226 -0.6308
  618SOL    HW2 1854   0.660   0.859   1.856 -1.1997  1.9064 -3.0170
  619SOL     OW 1855   0.375   1.122   1.506 -0.1973  0.0848 -0.3563
  619SOL    HW1 1856   0.285   1.149   1.464  1.7404  2.3808  0.0473
  619SOL    HW2 1857   0.376   1.019   1.527  1.1543 -0.9609  0.1387
  620SOL     OW 1858   1.906   1.163   3.088 -0.2577 -0.1923  0.0934
  620SOL    HW1 1859   1.816   1.179   0.031 -2.1083 -2.5602  0.5004
  620SOL    HW2 1860   1.911   1.212   2.997  0.2389  0.3463 -0.2891
  621SOL     OW 1861   2.273   2.942   1.137 -0.3049 -0.0677 -0.3922
  621SOL    HW1 1862   2.229   3.024   1.183 -0.8267 -0.1295  1.2947
  621SOL    HW2 1863   2.262   2.861   1.200 -0.3035 -0.5807 -0.9042
  622SOL     OW 1864   1.436   0.837   2.598  0.4898  0.6929 -0.0509
  622SOL    HW1 1865   1.363   0.903   2.572  0.2019 -1.9018 -0.1085
  622SOL    HW2 1866   1.440   0.762   2.532  0.1967 -0.8454  1.3051
  623SOL     OW 1867   1.112   0.278   2.980  0.5776  0.3703 -0.2524
  623SOL    HW1 1868   1.130   0.308   2.884  0.8619 -2.1320 -0.4611
  623SOL    HW2 1869   1.102   0.179   2.985  0.6052  1.9853 -0.6700
  624SOL     OW 1870   1.869   0.382   0.288  0.5825 -0.0288  0.7162
  624SOL    HW1 1871   1.861   0.476   0.327 -0.5872  1.2432  1.3065
  624SOL    HW2 1872   1.920   0.318   0.342 -1.0482 -1.5185 -1.9550
  625SOL     OW 1873   0.672   1.365   0.891 -0.1394  0.5348  0.0295
  625SOL    HW1 1874   0.709   1.460   0.900  0.2947 -1.8197 -0.3527
  625SOL    HW2 1875   0.609   1.358   0.812  2.9835  0.8065  1.0778
  626SOL     OW 1876   1.459   1.102   0.280  0.8755  0.3869  0.2270
  626SOL    HW1 1877   1.444   1.134   0.377  0.6351  1.9355  1.4807
  626SOL    HW2 1878   1.459   1.003   0.279 -1.0843  2.7014  0.2769
  627SOL     OW 1879   0.964   0.011   1.980  0.4971 -0.3823  0.1303
  627SOL    HW1 1880   1.046   0.001   2.043 -1.1820  0.5592  1.5745
  627SOL    HW2 1881   0.963   0.100   1.930  1.1897 -2.5995 -1.4582
  628SOL     OW 1882   2.575   0.247   2.097  0.4826  0.1628 -0.1392
  628SOL    HW1 1883   2.664   0.277   2.115 -2.8559  0.7193 -2.4539
  628SOL    HW2 1884   2.513   0.235   2.181 -0.1485  1.1687 -0.5177
  629SOL     OW 1885   0.998   1.264   2.962  0.0042  0.2020 -0.2682
  629SOL    HW1 1886   1.067   1.334   2.983  0.1060  1.6635  3.5036
  629SOL    HW2 1887   0.967   1.261   2.863 -1.4444  1.0988 -1.0610
  630SOL     OW 1888   1.214   0.213   2.346 -0.3729  0.5004 -0.2560
  630SOL    HW1 1889   1.133   0.269   2.373  1.5245 -1.9229 -1.1243
  630SOL    HW2 1890   1.254   0.176   2.428 -1.5938  0.6986 -1.0528
  631SOL     OW 1891   2.814   0.860   0.628 -0.1316  0.4553 -0.3350
  631SOL    HW1 1892   2.821   0.799   0.712 -0.7564  0.6059 -0.2295
  631SOL    HW2 1893   2.901   0.871   0.579  1.2157  2.6809  0.7350
  632SOL     OW 1894   2.378   0.988   1.323 -0.3994  0.1967  0.1951
  632SOL    HW1 1895   2.282   1.015   1.332  0.9297 -1.1993 -0.8158
  632SOL    HW2 1896   2.403   0.981   1.221 -0.4994 -0.6583 -0.8170
  633SOL     OW 1897   1.762   0.791   1.006 -0.0047 -0.0560  0.2385
  633SOL    HW1 1898   1.824   0.826   0.936 -1.9535 -2.5104  1.3573
  633SOL    HW2 1899   1.819   0.762   1.085  0.0938 -2.0856 -0.6416
  634SOL     OW 1900   1.752   2.999   0.742  0.1219 -0.0788  0.3465
  634SOL    HW1 1901   1.834   3.035   0.795  1.4907  0.0812 -0.4732
  634SOL    HW2 1902   1.681   3.067   0.741  0.8190 -0.9853 -0.7242
  635SOL     OW 1903   1.685   0.845   1.390  0.0685  0.3652 -1.0786
  635SOL    HW1 1904   1.597   0.791   1.363 -1.2417 -4.1668 -2.3076
  635SOL    HW2 1905   1.683   0.938   1.343 -2.3380  1.7410 -1.3631
  636SOL     OW 1906   0.894   0.818   0.632  0.2174 -0.3669  0.1124
  636SOL    HW1 1907   0.826   0.759   0.588  2.6953  1.1346 -2.1241
  636SOL    HW2 1908   0.967   0.766   0.685 -0.3664  1.7334  2.4067
  637SOL     OW 1909   1.820   2.282   0.245  0.0509 -0.0975  0.2977
  637SOL    HW1 1910   1.757   2.360   0.263 -1.1850  1.2311  0.2384
  637SOL    HW2 1911   1.773   2.201   0.208  1.5638  0.9147  3.0447
  638SOL     OW 1912   1.235   2.864   2.753 -0.1844  0.1491 -0.1895
  638SOL    HW1 1913   1.305   2.934   2.765 -1.1150  0.0353  1.2949
  638SOL    HW2 1914   1.267   2.771   2.745 -1.0000  4.7380  1.5621
  639SOL     OW 1915   0.694   2.004   1.202 -0.1072 -0.4565  0.2693
  639SOL    HW1 1916   0.610   2.059   1.207  0.8410  1.7542 -0.5939
  639SOL    HW2 1917   0.736   1.996   1.297 -2.3110  2.2404  3.5223
  640SOL     OW 1918   0.098   2.824   0.096 -0.1077 -0.5324  0.1045
  640SOL    HW1 1919   0.025   2.759   0.134 -1.6481 -2.2141  0.7749
  640SOL    HW2 1920   0.092   2.915   0.138  0.5559 -0.9000  2.7478
  641SOL     OW 1921   0.116   0.142   3.038  0.4196 -0.1852 -0.3833
  641SOL    HW1 1922   0.117   0.213   0.009 -2.9326 -1.9487 -0.4366
  641SOL    HW2 1923   0.191   0.153   2.968  0.1413 -0.2797 -0.9653
  642SOL     OW 1924   0.025   1.242   1.211  0.0546 -0.1413 -0.1256
  642SOL    HW1 1925   3.060   1.310   1.169 -2.1725  0.3109  0.3173
  642SOL    HW2 1926   0.049   1.257   1.311 -0.6346 -0.4461  2.3224
  643SOL     OW 1927   0.670   1.840   2.245 -0.5921 -0.0119  0.1619
  643SOL    HW1 1928   0.707   1.749   2.238 -2.9313  1.1670  1.4285
  643SOL    HW2 1929   0.726   1.913   2.202 -0.3940  0.6215  0.6610
  644SOL     OW 1930   1.725   2.562   0.574  0.1167  0.1658 -0.1852
  644SOL    HW1 1931   1.771   2.487   0.624  0.4622  2.4884 -1.6338
  644SOL    HW2 1932   1.637   2.588   0.620  3.0158 -1.6058 -1.1289
  645SOL     OW 1933   1.543   2.346   1.298 -0.2706 -0.1173 -0.1966
  645SOL    HW1 1934   1.530   2.346   1.400  3.4516  0.4573 -2.0231
  645SOL    HW2 1935   1.550   2.443   1.262 -0.5455 -0.9079  0.2324
  646SOL     OW 1936   1.202   2.654   0.288 -0.3823  0.6742 -0.2137
  646SOL    HW1 1937   1.224   2.655   0.191  1.3798 -0.1392  0.5201
  646SOL    HW2 1938   1.115   2.706   0.303 -1.3010 -1.4891 -0.3855
  647SOL     OW 1939   0.211   3.036   1.897 -0.3706  0.4690 -0.5695
  647SOL    HW1 1940   0.136   3.030   1.830  0.4830 -1.7619 -0.1281
  647SOL    HW2 1941   0.247   2.943   1.922 -0.2330  2.8378  0.5353
  648SOL     OW 1942   2.166   0.764   1.024  0.5125  0.3918  0.0507
  648SOL    HW1 1943   2.117   0.848   1.045 -0.4433  0.6186  0.2170
  648SOL    HW2 1944   2.237   0.788   0.954  0.2632  1.1968 -1.8635
  649SOL     OW 1945   1.970   2.267   2.877 -0.4018 -0.1931 -0.2276
  649SOL    HW1 1946   1.982   2.263   2.978  3.4207 -1.5554  3.9951
  649SOL    HW2 1947   1.933   2.357   2.841  1.0322  2.9396  0.2718
  650SOL     OW 1948   2.792   1.633   1.670 -0.4602 -0.0290  0.4690
  650SOL    HW1 1949   2.823   1.699   1.594 -0.8972  2.4968  0.1982
  650SOL    HW2 1950   2.705   1.666   1.710  0.7843 -0.0287 -0.2041
  651SOL     OW 1951   1.611   1.633   2.821 -0.2171 -0.2358  0.4600
  651SOL    HW1 1952   1.688   1.686   2.868  0.0603  1.6889  0.5400
  651SOL    HW2 1953   1.566   1.697   2.754 -0.7239  0.4659  0.7712
  652SOL     OW 1954   0.792   2.878   2.843 -0.1827 -0.2573  0.0111
  652SOL    HW1 1955   0.866   2.830   2.796  1.5854 -2.7876  1.5775
  652SOL    HW2 1956   0.809   2.980   2.830  1.9686  0.1109  0.4147
  653SOL     OW 1957   1.970   2.238   0.941 -0.7526 -0.0250  0.3625
  653SOL    HW1 1958   1.894   2.223   1.008 -0.8516 -1.0022  0.8144
  653SOL    HW2 1959   2.054   2.223   0.998  0.0964  1.0192  0.9870
  654SOL     OW 1960   2.762   3.012   2.200  0.8792  0.5507  0.4900
  654SOL    HW1 1961   2.667   3.014   2.240  2.1723 -1.9557  0.3646
  654SOL    HW2 1962   2.759   3.064   2.113  0.5975  0.6047 -0.9144
  655SOL     OW 1963   2.807   2.064   1.182  0.1847 -0.4323 -0.5011
  655SOL    HW1 1964   2.808   2.145   1.118  0.4437  2.8909 -0.2113
  655SOL    HW2 1965   2.809   2.098   1.275  2.6048 -0.1721  0.9135
  656SOL     OW 1966   2.881   2.134   2.677 -0.4403  0.7510  0.2815
  656SOL    HW1 1967   2.962   2.095   2.624  0.7745  2.8199  2.1564
  656SOL    HW2 1968   2.871   2.106   2.775 -0.2919  2.7086 -2.0815
  657SOL     OW 1969   2.998   0.894   0.386 -0.2417  0.3398 -0.4796
  657SOL    HW1 1970   2.916   0.932   0.343  0.4778 -2.0311  1.9228
  657SOL    HW2 1971   3.071   0.872   0.313 -0.9974 -0.7556 -0.3195
  658SOL     OW 1972   1.355   1.772   1.152 -0.1361  0.0561 -0.4151
  658SOL    HW1 1973   1.375   1.752   1.249  1.0102 -0.0273  0.0861
  658SOL    HW2 1974   1.420   1.844   1.115 -0.0250  1.4578 -0.9080
  659SOL     OW 1975   1.334   0.500   1.245  0.1003 -0.4356  0.1677
  659SOL    HW1 1976   1.423   0.455   1.262 -0.1447  2.7750 -2.8634
  659SOL    HW2 1977   1.287   0.447   1.174  1.7752 -2.0316 -0.3240
  660SOL     OW 1978   1.985   1.390   0.728 -0.3515  0.1897  0.0974
  660SOL    HW1 1979   1.948   1.388   0.824  0.6936 -0.8084 -2.4052
  660SOL    HW2 1980   1.956   1.472   0.674  1.2643  0.3220  1.8922
  661SOL     OW 1981   0.373   1.470   0.231 -0.1850 -0.1233  0.2076
  661SOL    HW1 1982   0.395   1.374   0.257  0.2676 -0.1378  0.4835
  661SOL    HW2 1983   0.370   1.537   0.307  0.8800 -0.3966 -1.5533
  662SOL     OW 1984   2.774   1.084   1.952 -0.2142 -0.0352  0.5398
  662SOL    HW1 1985   2.833   1.027   2.009  1.0701  0.9260  1.2379
  662SOL    HW2 1986   2.671   1.064   1.962  0.2949  1.5977  1.1648
  663SOL     OW 1987   2.228   1.363   1.339  0.5503  0.1198  0.0888
  663SOL    HW1 1988   2.244   1.452   1.289  1.7307  2.3216  0.6511
  663SOL    HW2 1989   2.255   1.364   1.438  0.1248  0.6284 -0.2796
  664SOL     OW 1990   0.472   0.142   1.162 -0.1115  0.2381  0.2643
  664SOL    HW1 1991   0.421   0.093   1.085 -0.5058 -2.3528 -1.4058
  664SOL    HW2 1992   0.576   0.128   1.148  2.1559 -0.0638  0.7628
  665SOL     OW 1993   1.319   0.014   2.845  0.2004  0.1232  0.1987
  665SOL    HW1 1994   1.398   0.060   2.886 -0.1886  0.9687 -2.0240
  665SOL    HW2 1995   1.241   0.012   2.909  0.8604 -0.7904 -0.7702
  666SOL     OW 1996   0.458   0.211   2.197 -0.3386 -0.2536  0.3023
  666SOL    HW1 1997   0.458   0.304   2.154 -0.2125  0.9305  0.0266
  666SOL    HW2 1998   0.531   0.208   2.273  3.5855 -0.7360  2.6702
  667SOL     OW 1999   1.811   1.313   2.155 -0.3320  0.1891 -0.0828
  667SOL    HW1 2000   1.898   1.311   2.098  2.9970 -1.3646 -2.6574
  667SOL    HW2 2001   1.826   1.268   2.246  0.9985  1.6397  2.8926
  668SOL     OW 2002   0.102   1.603   2.636 -0.1003 -0.0950 -0.3815
  668SOL    HW1 2003   0.026   1.536   2.647 -1.6502 -0.1503 -3.2412
  668SOL    HW2 2004   0.186   1.548   2.643  3.4378  0.5184  3.5701
  669SOL     OW 2005   2.409   0.111   2.292 -0.3287 -0.1257 -0.1417
  669SOL    HW1 2006   2.460   0.026   2.311 -1.6332  1.9108 -2.6194
  669SOL    HW2 2007   2.386   0.159   2.375 -1.2096 -0.3331 -0.6188
  670SOL     OW 2008   2.826   1.079   2.285  1.1235 -0.3385  0.2874
  670SOL    HW1 2009   2.908   1.036   2.245  0.1324  1.6091  3.7581
  670SOL    HW2 2010   2.767   1.012   2.338  0.8689 -0.1387 -0.0039
  671SOL     OW 2011   2.663   1.871   0.140  0.1650 -0.4894 -0.7210
  671SOL    HW1 2012   2.700   1.782   0.109  0.5676  0.9704 -0.9250
  671SOL    HW2 2013   2.564   1.869   0.158 -0.3945  1.3964  0.7735
  672SOL     OW 2014   2.135   1.684   2.147 -0.4728  0.5798 -0.2488
  672SOL    HW1 2015   2.230   1.724   2.139  0.5772  2.3967 -0.2493
  672SOL    HW2 2016   2.099   1.684   2.240  0.8083 -1.5657 -1.2006
  673SOL     OW 2017   2.762   1.621   1.027  0.0832  0.1110 -0.7509
  673SOL    HW1 2018   2.714   1.636   0.938  1.7371  1.4655  0.7617
  673SOL    HW2 2019   2.789   1.708   1.074  0.5948 -1.3752  3.1945
  674SOL     OW 2020   1.122   1.999   1.944  0.1333  0.2066 -0.3274
  674SOL    HW1 2021   1.128   1.920   2.008  1.3166  0.3572  1.7226
  674SOL    HW2 2022   1.034   2.020   1.902  0.6634  2.7531  0.7528
  675SOL     OW 2023   2.826   0.707   0.873 -0.2086 -0.4680 -0.1586
  675SOL    HW1 2024   2.800   0.756   0.958 -0.3849  0.7777  3.3217
  675SOL    HW2 2025   2.754   0.643   0.854  0.0797  3.4799  1.3557
  676SOL     OW 2026   3.015   1.295   0.808  0.2884  0.0241  0.4350
  676SOL    HW1 2027   2.940   1.231   0.823 -0.8786  0.2302 -0.4124
  676SOL    HW2 2028   0.003   1.246   0.810  0.4085 -1.5561 -2.0069
  677SOL     OW 2029   1.523   1.565   2.375  0.0494  0.1506 -0.3337
  677SOL    HW1 2030   1.595   1.587   2.303  2.7785  0.7981 -1.4835
  677SOL    HW2 2031   1.471   1.488   2.326 -0.5521 -0.5246  1.1937
  678SOL     OW 2032   2.596   1.327   0.813  0.2378 -0.2259  0.5797
  678SOL    HW1 2033   2.629   1.313   0.720  3.9515 -0.6209 -0.0041
  678SOL    HW2 2034   2.581   1.427   0.835  1.8652  0.2349 -1.0592
  679SOL     OW 2035   0.536   2.239   0.976  0.2285  0.0608 -0.3584
  679SOL    HW1 2036   0.502   2.329   0.939  2.1590  1.5113 -0.6727
  679SOL    HW2 2037   0.576   2.182   0.904  2.9115  1.0378 -0.4110
  680SOL     OW 2038   2.958   1.859   1.090 -0.7068 -0.0298  0.1324
  680SOL    HW1 2039   3.004   1.867   1.000 -1.1378  0.1017 -2.4584
  680SOL    HW2 2040   2.893   1.938   1.108 -1.9582 -1.2082  0.4305
  681SOL     OW 2041   1.004   0.552   1.243  0.1012 -0.2159 -0.3566
  681SOL    HW1 2042   0.958   0.640   1.257  0.0023 -2.0427 -1.6757
  681SOL    HW2 2043   1.042   0.507   1.326 -1.4897 -0.7414  1.6463
  682SOL     OW 2044   1.533   2.920   1.119 -1.0818  0.2742 -0.1283
  682SOL    HW1 2045   1.596   2.943   1.191 -2.0482 -0.9250 -0.8971
  682SOL    HW2 2046   1.445   2.976   1.126 -0.2486  0.2598 -1.6920
  683SOL     OW 2047   2.278   1.324   1.617 -0.4991 -0.2760 -0.4004
  683SOL    HW1 2048   2.277   1.406   1.685 -0.4105  2.4809  3.6354
  683SOL    HW2 2049   2.353   1.258   1.642  0.2781 -0.7456  0.6288
  684SOL     OW 2050   0.223   1.716   1.666  0.1553  0.0008  0.2941
  684SOL    HW1 2051   0.147   1.690   1.729 -3.8676 -0.5960  3.0451
  684SOL    HW2 2052   0.317   1.685   1.706  1.1651 -2.1326 -1.0112
  685SOL     OW 2053   2.024   1.716   0.144  0.5307 -0.0936  0.4290
  685SOL    HW1 2054   2.018   1.775   0.223  0.7656 -2.8233 -0.5266
  685SOL    HW2 2055   1.930   1.688   0.112  3.1385 -0.3981 -1.1246
  686SOL     OW 2056   2.619   0.294   0.935 -0.1009 -0.0509 -0.2849
  686SOL    HW1 2057   2.628   0.395   0.919 -0.0293 -0.7647 -1.3684
  686SOL    HW2 2058   2.562   0.260   0.857  0.8813 -0.5054  2.8098
  687SOL     OW 2059   1.641   0.031   2.565  0.2182  0.3895 -0.6712
  687SOL    HW1 2060   1.635   3.050   2.504 -0.9993  1.7719 -1.1095
  687SOL    HW2 2061   1.689   0.013   2.653 -0.4456 -0.4818  1.3791
  688SOL     OW 2062   1.282   2.130   2.341  0.2007 -0.2986 -0.1470
  688SOL    HW1 2063   1.376   2.094   2.323 -1.0585  0.8331  0.4775
  688SOL    HW2 2064   1.242   2.158   2.248 -0.0101 -0.4425 -1.9059
  689SOL     OW 2065   2.575   1.421   1.801  0.5836  0.0997 -0.0887
  689SOL    HW1 2066   2.487   1.472   1.775 -1.9920  0.8044 -0.2726
  689SOL    HW2 2067   2.646   1.468   1.859 -1.5041 -1.1399 -1.1301
  690SOL     OW 2068   1.657   1.931   1.234  0.0987 -0.0533 -0.1226
  690SOL    HW1 2069   1.577   1.945   1.175  1.3813  2.2190  1.3489
  690SOL    HW2 2070   1.709   1.850   1.219  0.9493  3.7542  1.1706
  691SOL     OW 2071   0.274   1.380   0.569  0.2739  0.2616  0.3059
  691SOL    HW1 2072   0.232   1.359   0.479  0.3312  2.1807  0.2289
  691SOL    HW2 2073   0.223   1.324   0.639  1.1956  0.0489 -0.3931
  692SOL     OW 2074   2.263   2.908   2.234  0.1763 -0.3953  0.3635
  692SOL    HW1 2075   2.252   2.849   2.315  2.5749  0.4008 -0.3588
  692SOL    HW2 2076   2.358   2.951   2.241  3.2995  1.4358 -1.2937
  693SOL     OW 2077   0.087   1.530   2.356  0.6349  0.0321  0.3046
  693SOL    HW1 2078   3.085   1.515   2.346 -2.0387 -0.3042 -0.2502
  693SOL    HW2 2079   0.109   1.587   2.436  0.4917  1.9451 -0.8378
  694SOL     OW 2080   2.169   0.260   1.548  0.5826 -0.3381  0.7092
  694SOL    HW1 2081   2.115   0.173   1.574  0.0735 -1.5429  0.6247
  694SOL    HW2 2082   2.236   0.283   1.618 -0.5578  1.3638 -1.5086
  695SOL     OW 2083   1.026   0.935   2.760  0.4979  0.0014 -0.2253
  695SOL    HW1 2084   1.042   0.837   2.757  1.1959 -1.0756 -1.8681
  695SOL    HW2 2085   1.110   0.995   2.767  0.8109 -0.0340  2.4581
  696SOL     OW 2086   1.741   0.120   1.855 -0.0343  1.0239 -0.5878
  696SOL    HW1 2087   1.777   0.211   1.835  0.1644 -2.8479  0.9619
  696SOL    HW2 2088   1.645   0.118   1.815 -0.8691  0.1707  0.5169
  697SOL     OW 2089   1.615   0.167   2.125 -0.4723 -0.4580 -0.1094
  697SOL    HW1 2090   1.670   0.223   2.192  0.3374  0.9028  4.6382
  697SOL    HW2 2091   1.675   0.146   2.043  3.8572 -1.1870  0.3083
  698SOL     OW 2092   1.775   1.582   2.193 -0.3353  0.3820 -0.3590
  698SOL    HW1 2093   1.851   1.624   2.250  0.5832  1.3433 -0.1476
  698SOL    HW2 2094   1.787   1.483   2.179 -1.9915  1.4934 -0.9148
  699SOL     OW 2095   2.156   0.744   0.285  0.0860  0.1804  0.6807
  699SOL    HW1 2096   2.077   0.696   0.323  3.8193  0.8663 -0.1388
  699SOL    HW2 2097   2.181   0.818   0.345 -1.7924  0.4654 -2.0564
  700SOL     OW 2098   1.282   0.305   0.393 -0.2446  0.2811 -0.2166
  700SOL    HW1 2099   1.228   0.393   0.394  0.0590 -1.7584  1.7650
  700SOL    HW2 2100   1.268   0.244   0.311  1.2646  0.9985  0.5807
  701SOL     OW 2101   0.203   0.494   0.849 -0.1538 -0.2646  0.2504
  701SOL    HW1 2102   0.130   0.461   0.907 -0.3183  1.4774 -1.1245
  701SOL    HW2 2103   0.174   0.569   0.790 -1.2880 -0.6528  0.4660
  702SOL     OW 2104   1.754   0.098   1.544 -0.1405  0.7320  0.0293
  702SOL    HW1 2105   1.717   0.030   1.479  1.4445  0.0371  1.8524
  702SOL    HW2 2106   1.685   0.173   1.558 -0.3485 -0.2724  1.5838
  703SOL     OW 2107   2.758   0.894   1.485 -0.2646 -0.2121  0.4756
  703SOL    HW1 2108   2.841   0.917   1.428  1.3535  1.4718 -0.2075
  703SOL    HW2 2109   2.694   0.974   1.472  0.2445  1.3282  0.1950
  704SOL     OW 2110   0.717   2.618   1.448 -0.4140  0.0848 -0.0663
  704SOL    HW1 2111   0.780   2.692   1.414  1.9274  0.6522 -1.4192
  704SOL    HW2 2112   0.655   2.591   1.373  2.8365  0.4754  0.3831
  705SOL     OW 2113   0.324   1.470   2.591  0.4037  0.0581 -0.3681
  705SOL    HW1 2114   0.363   1.537   2.526 -0.0539  1.3702  0.2670
  705SOL    HW2 2115   0.396   1.443   2.657 -0.9375  1.5733 -0.9587
  706SOL     OW 2116   2.833   0.244   0.072 -0.0697  0.1643 -0.1769
  706SOL    HW1 2117   2.737   0.211   0.085 -0.6700 -1.7660 -1.5721
  706SOL    HW2 2118   2.896   0.182   0.120  0.2354 -2.2301 -0.5494
  707SOL     OW 2119   1.625   2.568   2.411  0.3038 -0.0632  0.2326
  707SOL    HW1 2120   1.596   2.619   2.328 -2.5451  1.9368 -0.7217
  707SOL    HW2 2121   1.549   2.508   2.450  1.1519  0.4660 -0.4794
  708SOL     OW 2122   0.355   2.570   1.661 -0.5945  0.2277 -0.3435
  708SOL    HW1 2123   0.279   2.561   1.734 -1.9847  1.0667  1.2130
  708SOL    HW2 2124   0.321   2.549   1.569  0.1563  0.8373 -0.4564
  709SOL     OW 2125   0.211   0.944   1.953 -0.1913 -0.0840 -0.1724
  709SOL    HW1 2126   0.126   0.971   1.901 -0.7677 -0.9741 -0.1913
  709SOL    HW2 2127   0.250   0.859   1.905  1.1242  0.3787 -3.3714
  710SOL     OW 2128   3.071   0.887   1.074 -0.7982  0.1225 -0.0843
  710SOL    HW1 2129   0.068   0.855   1.087 -2.1781 -2.5921  0.1432
  710SOL    HW2 2130   3.032   0.898   1.169  0.2825 -0.5981 -1.0640
  711SOL     OW 2131   0.049   2.709   1.208 -0.3133  0.0124  0.0920
  711SOL    HW1 2132   0.139   2.676   1.223 -4.9075 -0.6570  2.8243
  711SOL    HW2 2133   0.001   2.660   1.127 -0.9967 -0.9559  0.0437
  712SOL     OW 2134   0.228   3.052   2.583  0.1667 -0.1812  0.2679
  712SOL    HW1 2135   0.141   3.006   2.608  2.8208 -0.6167 -1.8980
  712SOL    HW2 2136   0.304   2.984   2.586  1.0103  3.5737 -0.5541
  713SOL     OW 2137   2.442   0.240   0.530 -0.3141 -0.3446  0.0891
  713SOL    HW1 2138   2.349   0.274   0.505  1.4879 -0.7358 -3.4192
  713SOL    HW2 2139   2.514   0.268   0.461  0.5436 -0.2571  0.5164
  714SOL     OW 2140   1.733   1.694   0.100 -0.5850  0.3729  0.1601
  714SOL    HW1 2141   1.677   1.752   0.157  2.2362  0.6856  1.7885
  714SOL    HW2 2142   1.697   1.598   0.096 -1.2822 -1.5016  0.4036
  715SOL     OW 2143   0.060   0.215   0.604  0.0209 -0.2734  0.1572
  715SOL    HW1 2144   0.048   0.123   0.555 -1.5733 -1.5585  0.2553
  715SOL    HW2 2145   3.096   0.208   0.687  1.0013 -2.1234  0.2242
  716SOL     OW 2146   1.052   0.524   1.861  0.1840 -0.0060 -0.2320
  716SOL    HW1 2147   1.120   0.453   1.887 -0.9220  0.2226 -0.3249
  716SOL    HW2 2148   0.980   0.532   1.934 -1.6097 -0.1947  1.1451
  717SOL     OW 2149   0.543   0.590   2.852  0.4818  0.3443 -0.1412
  717SOL    HW1 2150   0.454   0.626   2.820  0.4894  1.4018  2.2238
  717SOL    HW2 2151   0.601   0.659   2.902 -1.1105  3.0678  0.0951
  718SOL     OW 2152   1.093   0.667   0.151 -0.1807  0.0969 -0.2867
  718SOL    HW1 2153   1.122   0.763   0.140 -1.1197 -3.2176 -1.8246
  718SOL    HW2 2154   1.174   0.601   0.135  3.8174 -0.7438 -1.5518
  719SOL     OW 2155   2.584   2.407   2.663 -0.1014  0.0733  0.4248
  719SOL    HW1 2156   2.580   2.366   2.755  0.7188 -0.6774 -0.1051
  719SOL    HW2 2157   2.511   2.368   2.607  0.7364  0.0006  0.6739
  720SOL     OW 2158   1.458   0.716   1.345  0.2027  0.0026 -0.2948
  720SOL    HW1 2159   1.424   0.712   1.444  1.3442  1.2854  1.4341
  720SOL    HW2 2160   1.418   0.632   1.295 -0.0179  1.1254  0.2089
  721SOL     OW 2161   2.751   3.039   1.059 -0.2336 -0.3300  0.2783
  721SOL    HW1 2162   2.760   3.082   1.150 -1.2058  0.0665  3.1033
  721SOL    HW2 2163   2.845   3.028   1.018 -3.1243 -2.3068  2.5139
  722SOL     OW 2164   1.196   1.679   2.726 -0.2221 -0.6054 -0.5592
  722SOL    HW1 2165   1.098   1.654   2.754  2.3390  0.3179  1.3006
  722SOL    HW2 2166   1.244   1.751   2.779  1.9883 -1.2071 -2.4103
  723SOL     OW 2167   2.312   0.307   0.918 -0.0983 -0.0721 -0.0424
  723SOL    HW1 2168   2.341   0.234   0.854  2.6788  0.0475 -1.1545
  723SOL    HW2 2169   2.382   0.319   0.989 -0.6158  0.2300  0.5362
  724SOL     OW 2170   0.687   2.120   0.222 -0.6067 -0.5011  0.3399
  724SOL    HW1 2171   0.745   2.035   0.201 -0.2828  1.8056 -2.7534
  724SOL    HW2 2172   0.749   2.189   0.260  0.6319  0.3189 -0.7668
  725SOL     OW 2173   0.296   0.919   1.292  0.4320 -0.0060 -0.0920
  725SOL    HW1 2174   0.360   0.884   1.362 -0.7953 -1.9938  2.1439
  725SOL    HW2 2175   0.335   1.007   1.243  1.1042  0.9775 -1.2931
  726SOL     OW 2176   2.575   0.627   0.261  0.1985  0.2812  0.3094
  726SOL    HW1 2177   2.576   0.693   0.337 -2.3468 -2.4247 -0.0883
  726SOL    HW2 2178   2.644   0.654   0.194 -0.9113 -1.1567  0.7268
  727SOL     OW 2179   1.850   1.163   2.627 -0.4249 -0.2132  0.0454
  727SOL    HW1 2180   1.943   1.186   2.649 -0.9143  1.3965  0.0255
  727SOL    HW2 2181   1.843   1.070   2.590  0.4999  1.9446 -0.0501
  728SOL     OW 2182   1.665   2.991   1.349 -0.2223 -0.3934 -0.6074
  728SOL    HW1 2183   1.760   2.962   1.378  1.0212 -1.3888  0.2512
  728SOL    HW2 2184   1.594   2.941   1.402 -0.6200  0.0140  0.4878
  729SOL     OW 2185   2.347   0.801   2.188 -0.0856 -0.1745 -0.2518
  729SOL    HW1 2186   2.409   0.880   2.189 -0.5895  0.7052 -0.0205
  729SOL    HW2 2187   2.256   0.831   2.217  3.9893 -0.5406 -0.2213
  730SOL     OW 2188   1.121   0.861   1.479 -0.0707 -0.4713  0.4929
  730SOL    HW1 2189   1.038   0.835   1.424 -0.7693 -0.7186  0.9297
  730SOL    HW2 2190   1.140   0.955   1.462 -0.4216 -2.2635  1.1008
  731SOL     OW 2191   0.590   0.616   0.087 -0.3000  0.3319 -0.5379
  731SOL    HW1 2192   0.676   0.645   0.133 -0.6816  1.4595 -0.2823
  731SOL    HW2 2193   0.566   0.677   0.010 -2.0252  0.6290 -1.4197
  732SOL     OW 2194   0.390   0.595   0.291 -0.6872  0.2428  0.2161
  732SOL    HW1 2195   0.451   0.633   0.213  0.2264  1.2454  2.0553
  732SOL    HW2 2196   0.433   0.522   0.342  0.0831  3.0118 -0.9991
  733SOL     OW 2197   1.871   1.463   2.575  0.3399 -0.0035  0.1241
  733SOL    HW1 2198   1.787   1.420   2.609 -2.5189 -0.9153 -1.2221
  733SOL    HW2 2199   1.906   1.530   2.645 -0.7511  0.1023  3.7466
  734SOL     OW 2200   0.318   1.949   2.854  0.0545 -0.2918  0.0910
  734SOL    HW1 2201   0.277   1.932   2.943  1.6346  1.9447  1.3007
  734SOL    HW2 2202   0.356   2.045   2.841 -2.9454 -0.3594  0.6835
  735SOL     OW 2203   1.826   0.443   1.215  0.6350  0.6661  0.0827
  735SOL    HW1 2204   1.901   0.422   1.152 -0.7397  1.0833  2.1812
  735SOL    HW2 2205   1.867   0.428   1.305  0.0581  1.1859 -0.2214
  736SOL     OW 2206   1.782   1.782   2.948  0.5163 -0.1199  0.0658
  736SOL    HW1 2207   1.765   1.739   3.041 -1.2336 -0.1027 -1.1308
  736SOL    HW2 2208   1.766   1.883   2.960 -2.7436  0.9086  1.1568
  737SOL     OW 2209   0.007   0.364   0.388  0.8886  0.1897  0.1969
  737SOL    HW1 2210   0.039   0.461   0.389 -0.9592  1.1764  1.5149
  737SOL    HW2 2211   0.051   0.312   0.466  0.4064  1.1092 -0.3633
  738SOL     OW 2212   0.604   2.050   1.826  0.1132 -0.1820 -0.0205
  738SOL    HW1 2213   0.560   2.137   1.795  2.7226  1.8870 -0.5831
  738SOL    HW2 2214   0.611   1.981   1.750 -1.6647 -0.2002 -0.0806
  739SOL     OW 2215   1.269   2.657   2.069  0.2792 -0.0055 -0.0839
  739SOL    HW1 2216   1.194   2.679   2.004 -2.3350 -0.0832 -0.9397
  739SOL    HW2 2217   1.225   2.651   2.160  0.3833 -1.1585  0.4997
  740SOL     OW 2218   2.058   2.409   1.476 -0.1608  0.1483  0.3759
  740SOL    HW1 2219   1.980   2.349   1.506 -0.3701  2.3395  0.6260
  740SOL    HW2 2220   2.111   2.454   1.554  0.0711  2.1073 -0.4822
  741SOL     OW 2221   2.319   0.534   0.255 -0.4899  0.1838 -0.4847
  741SOL    HW1 2222   2.415   0.572   0.254  0.8738 -0.4294 -0.0579
  741SOL    HW2 2223   2.253   0.606   0.277  1.0944 -1.2533 -0.6594
  742SOL     OW 2224   1.084   2.272   0.113 -0.4492 -0.0042 -0.0540
  742SOL    HW1 2225   1.128   2.181   0.118 -0.8912 -0.0115 -0.1664
  742SOL    HW2 2226   1.052   2.287   0.017  0.8670 -1.6803 -0.7874
  743SOL     OW 2227   2.522   0.999   1.953 -0.2398 -0.2314  0.1128
  743SOL    HW1 2228   2.419   0.998   1.968 -1.8192  0.2971  1.7098
  743SOL    HW2 2229   2.559   0.903   1.940  2.3108 -1.6252 -0.3260
  744SOL     OW 2230   2.800   0.388   0.660 -0.5161 -0.5141 -0.5015
  744SOL    HW1 2231   2.806   0.324   0.584  0.9793  2.1997  1.5369
  744SOL    HW2 2232   2.887   0.439   0.678 -0.5198  0.6183 -1.9745
  745SOL     OW 2233   2.512   1.174   1.729 -0.1778 -0.4708  0.4785
  745SOL    HW1 2234   2.507   1.109   1.808  0.8424 -1.0192 -1.7149
  745SOL    HW2 2235   2.549   1.267   1.755 -0.4475 -0.0598  1.2090
  746SOL     OW 2236   1.382   1.308   0.973  0.1835  0.2922  0.0564
  746SOL    HW1 2237   1.352   1.402   0.950  0.2172 -0.4619  0.5695
  746SOL    HW2 2238   1.304   1.250   0.946 -0.3739  2.2169  0.7744
  747SOL     OW 2239   1.204   1.769   1.624 -0.0433  0.4232 -0.0647
  747SOL    HW1 2240   1.222   1.858   1.666 -0.0161 -0.9225 -3.5326
  747SOL    HW2 2241   1.213   1.700   1.697 -0.6994  0.3403  3.2296
  748SOL     OW 2242   0.178   2.854   2.935  0.1937  0.2278  0.0351
  748SOL    HW1 2243   0.277   2.860   2.951 -1.8101 -0.1734 -2.1073
  748SOL    HW2 2244   0.136   2.842   3.028 -4.0959 -1.4161  1.5983
  749SOL     OW 2245   0.303   1.170   2.534 -0.4530  0.1145  0.3860
  749SOL    HW1 2246   0.390   1.166   2.482 -3.6602 -3.2919  1.6016
  749SOL    HW2 2247   0.282   1.268   2.558  0.3816 -0.2857 -0.3324
  750SOL     OW 2248   1.946   0.903   2.003  0.1611  0.0837  0.1913
  750SOL    HW1 2249   1.927   0.810   2.034  0.6823 -2.2518  2.0438
  750SOL    HW2 2250   1.900   0.920   1.914  1.5223 -1.5652 -1.0378
  751SOL     OW 2251   2.605   0.338   0.317  0.2215 -0.5366  0.0594
  751SOL    HW1 2252   2.577   0.290   0.228 -0.0274  1.5119 -0.5153
  751SOL    HW2 2253   2.586   0.439   0.309 -1.6084  1.1883  0.4251
  752SOL     OW 2254   0.217   2.496   1.028  0.0719 -0.4814 -0.1995
  752SOL    HW1 2255   0.206   2.408   1.073  0.7474  1.8540  1.2494
  752SOL    HW2 2256   0.285   2.497   0.953  0.9368  0.1206 -1.1901
  753SOL     OW 2257   0.767   2.383   1.110  0.1312  0.1533  0.0111
  753SOL    HW1 2258   0.841   2.385   1.037 -1.5113 -1.7928 -3.5108
  753SOL    HW2 2259   0.719   2.293   1.096  2.5354 -1.5828  0.1105
  754SOL     OW 2260   0.008   2.972   1.704  0.3309 -0.2268  0.1071
  754SOL    HW1 2261   3.012   2.947   1.720 -1.1115  0.6835  2.5753
  754SOL    HW2 2262   0.059   2.900   1.656  1.3971 -1.5459  0.6628
  755SOL     OW 2263   2.230   0.383   0.450  0.5314 -0.0704  0.2887
  755SOL    HW1 2264   2.269   0.446   0.378 -0.5798 -0.7666  2.2079
  755SOL    HW2 2265   2.235   0.430   0.544  1.0244  2.8709  0.9477
  756SOL     OW 2266   2.245   2.465   2.631  0.6122 -0.4814 -0.4301
  756SOL    HW1 2267   2.286   2.434   2.721  1.7419  1.3360 -0.8333
  756SOL    HW2 2268   2.167   2.526   2.644  0.8765 -2.0711 -0.6097
  757SOL     OW 2269   1.872   0.289   0.741  0.3021 -0.1165  0.3825
  757SOL    HW1 2270   1.924   0.245   0.815 -0.9276 -0.8491 -1.8373
  757SOL    HW2 2271   1.894   0.389   0.713  2.0111  1.8840  0.3841
  758SOL     OW 2272   2.189   0.382   1.326 -0.2725 -0.1171  0.4187
  758SOL    HW1 2273   2.283   0.391   1.275  1.3550  0.7189 -2.6979
  758SOL    HW2 2274   2.204   0.323   1.411  1.3693 -1.8940 -0.7190
  759SOL     OW 2275   2.550   0.591   1.080  0.1908  1.1819  0.3583
  759SOL    HW1 2276   2.611   0.649   1.137 -0.2317 -1.2435 -0.5458
  759SOL    HW2 2277   2.573   0.591   0.981 -1.0255 -2.4030  0.0247
  760SOL     OW 2278   2.255   1.245   1.095  0.0186 -0.6434  1.0670
  760SOL    HW1 2279   2.246   1.273   1.190 -0.8424  0.3331 -2.1079
  760SOL    HW2 2280   2.354   1.240   1.068 -1.1211  0.0640 -0.2010
  761SOL     OW 2281   0.783   0.598   0.445  0.0374  0.3194 -0.3443
  761SOL    HW1 2282   0.814   0.620   0.353 -1.8559  0.4510  0.2906
  761SOL    HW2 2283   0.698   0.646   0.469  1.5320 -3.6498  0.0943
  762SOL     OW 2284   0.935   1.847   0.695  0.1305  0.7170  0.1704
  762SOL    HW1 2285   0.868   1.776   0.729 -0.8178 -0.2568  0.2440
  762SOL    HW2 2286   0.901   1.890   0.611 -0.3584 -0.2902 -0.1403
  763SOL     OW 2287   1.207   1.160   1.412 -0.7055  0.4479 -0.1095
  763SOL    HW1 2288   1.242   1.132   1.321 -0.2347  2.1450  1.0600
  763SOL    HW2 2289   1.284   1.208   1.457 -2.5346  0.5188  0.1428
  764SOL     OW 2290   0.477   1.764   2.745  0.0765  0.4215  0.2661
  764SOL    HW1 2291   0.492   1.728   2.648 -0.2301  0.1328 -0.6910
  764SOL    HW2 2292   0.442   1.858   2.744  1.5469  3.1524  0.9382
  765SOL     OW 2293   0.404   2.838   1.729 -0.3794  0.0498  0.3904
  765SOL    HW1 2294   0.397   2.748   1.680  0.0648 -0.6896 -0.2950
  765SOL    HW2 2295   0.498   2.878   1.722 -0.1668 -1.8185  2.2889
  766SOL     OW 2296   2.537   2.004   2.211  0.6559  0.2492 -0.3344
  766SOL    HW1 2297   2.584   2.081   2.256 -2.8549 -2.2202  0.8691
  766SOL    HW2 2298   2.492   2.025   2.121  1.2284  1.6769  0.8629
  767SOL     OW 2299   1.612   1.014   2.433 -0.4698 -0.3015  0.6894
  767SOL    HW1 2300   1.609   0.930   2.485  0.5998  1.2249 -0.5078
  767SOL    HW2 2301   1.567   1.090   2.480  1.5839 -0.2702  0.2439
  768SOL     OW 2302   1.604   1.898   0.252  0.3545  0.0540  0.4090
  768SOL    HW1 2303   1.652   1.916   0.338 -2.5477 -1.1137  1.2086
  768SOL    HW2 2304   1.605   1.975   0.185 -1.5018 -0.1156  2.4117
  769SOL     OW 2305   0.350   1.529   1.408  0.2080  0.1912  0.3069
  769SOL    HW1 2306   0.405   1.474   1.339  0.9050 -0.4917 -3.0961
  769SOL    HW2 2307   0.326   1.628   1.381  0.6042  1.9416 -0.2173
  770SOL     OW 2308   1.366   0.825   3.046  0.4084 -0.3190  0.0751
  770SOL    HW1 2309   1.324   0.917   3.052  1.1189 -0.7004 -0.2503
  770SOL    HW2 2310   1.423   0.816   2.961 -1.5516 -0.9718  0.4312
  771SOL     OW 2311   0.078   2.819   2.142 -0.0726 -1.2235  0.5005
  771SOL    HW1 2312   0.093   2.797   2.242 -2.7406 -0.7879  0.2898
  771SOL    HW2 2313   0.163   2.822   2.083  2.3112  2.9511  1.2097
  772SOL     OW 2314   2.057   2.028   1.674 -0.0164 -0.2198 -0.0620
  772SOL    HW1 2315   2.104   2.006   1.762  1.3769 -0.4496 -0.7032
  772SOL    HW2 2316   2.116   1.995   1.599  0.4659 -0.1042  1.6973
  773SOL     OW 2317   0.609   1.659   1.461  0.3732  0.3794  0.6170
  773SOL    HW1 2318   0.697   1.608   1.472  3.0194 -0.0609 -0.4423
  773SOL    HW2 2319   0.533   1.600   1.438  1.5362 -2.6269  0.8041
  774SOL     OW 2320   1.253   0.598   2.961 -0.2108  0.0264  0.8439
  774SOL    HW1 2321   1.304   0.685   2.984  0.1348  1.4492  0.1598
  774SOL    HW2 2322   1.226   0.541   3.043 -2.1947 -0.5654 -0.9267
  775SOL     OW 2323   1.878   2.875   3.039  0.3554 -0.1244  0.1181
  775SOL    HW1 2324   1.841   2.964   3.066 -1.3729 -0.3394 -0.5527
  775SOL    HW2 2325   1.948   2.846   0.007 -1.5137  0.2713  0.8018
  776SOL     OW 2326   0.284   0.708   1.836 -0.0848  0.1353  0.4722
  776SOL    HW1 2327   0.196   0.658   1.815 -1.8632 -0.9885 -2.4272
  776SOL    HW2 2328   0.359   0.653   1.872 -1.7048 -0.5535  0.8093
  777SOL     OW 2329   2.168   1.952   1.917 -0.7056  0.7389  0.4183
  777SOL    HW1 2330   2.088   1.890   1.939  0.0384 -1.8640  0.4791
  777SOL    HW2 2331   2.202   2.004   2.002  2.0682  1.9471  1.0072
  778SOL     OW 2332   2.031   1.007   2.245  0.0171 -0.1158 -0.0624
  778SOL    HW1 2333   1.967   1.052   2.313 -0.9465 -0.3028  1.2397
  778SOL    HW2 2334   1.975   0.977   2.167 -1.9276 -1.2913 -0.3746
  779SOL     OW 2335   2.564   1.158   0.153 -0.1066  0.1773 -0.6398
  779SOL    HW1 2336   2.587   1.258   0.152  1.6541  1.5385  0.4001
  779SOL    HW2 2337   2.522   1.117   0.068  1.3778 -3.3316 -0.0146
  780SOL     OW 2338   2.743   0.410   2.604 -0.5158  0.3606 -0.2500
  780SOL    HW1 2339   2.721   0.400   2.702  1.6378 -1.1881  1.2707
  780SOL    HW2 2340   2.811   0.340   2.571 -1.0408 -0.7827  1.9220
  781SOL     OW 2341   0.251   1.990   1.721  0.3644  0.2041 -0.1756
  781SOL    HW1 2342   0.317   2.024   1.653 -1.2487  0.3785  0.7547
  781SOL    HW2 2343   0.241   1.888   1.708 -1.4202  0.9128 -0.5394
  782SOL     OW 2344   2.339   2.360   2.882  0.3179  0.0649  0.2181
  782SOL    HW1 2345   2.275   2.399   2.957 -0.7668  1.8850  3.1887
  782SOL    HW2 2346   2.439   2.356   2.913 -1.4316 -2.0055 -0.5995
  783SOL     OW 2347   0.593   1.345   1.364  0.8079 -0.0383 -0.3645
  783SOL    HW1 2348   0.675   1.302   1.403 -1.1080  0.9132 -0.3778
  783SOL    HW2 2349   0.610   1.396   1.276 -0.0393  0.3520 -0.6060
  784SOL     OW 2350   2.034   0.823   2.757  0.0128  0.4412  0.1546
  784SOL    HW1 2351   2.083   0.731   2.758  0.6916 -3.8130 -0.5421
  784SOL    HW2 2352   2.027   0.853   2.854 -0.2313  0.1992  2.1496
  785SOL     OW 2353   2.295   2.603   0.890  0.2777  0.1510 -0.3570
  785SOL    HW1 2354   2.346   2.562   0.810  1.0388 -1.6640 -2.8240
  785SOL    HW2 2355   2.222   2.670   0.859  0.1381  0.0432  0.9674
  786SOL     OW 2356   0.727   2.220   2.284 -0.1995 -0.4137  0.0552
  786SOL    HW1 2357   0.663   2.158   2.331  0.0306  0.9930  1.3020
  786SOL    HW2 2358   0.724   2.317   2.325 -0.6491  3.5350  0.9832
  787SOL     OW 2359   1.331   0.862   1.149  0.1664 -0.0283 -0.3379
  787SOL    HW1 2360   1.355   0.804   1.231  1.7384 -2.4665  2.9734
  787SOL    HW2 2361   1.416   0.913   1.117 -2.1810  0.7687 -1.8176
  788SOL     OW 2362   0.129   0.614   0.332  0.0280  0.0384 -0.2808
  788SOL    HW1 2363   0.232   0.603   0.325  1.9544 -1.2448  2.5484
  788SOL    HW2 2364   0.098   0.700   0.287 -0.0227 -0.0590  0.3164
  789SOL     OW 2365   0.002   1.908   1.350  0.1347  0.2182  0.4599
  789SOL    HW1 2366   3.068   1.890   1.257 -1.0174 -2.6615 -1.4266
  789SOL    HW2 2367   0.044   2.000   1.362 -0.0675  4.1399 -1.2206
  790SOL     OW 2368   1.432   0.868   1.783  0.1293 -0.0038  0.0002
  790SOL    HW1 2369   1.400   0.810   1.858  1.7939 -1.4913 -0.9600
  790SOL    HW2 2370   1.413   0.967   1.794  1.5174 -1.8868  4.6048
  791SOL     OW 2371   1.607   0.564   0.658  0.1090  0.2551  0.5175
  791SOL    HW1 2372   1.582   0.501   0.579  0.5785 -0.7549 -1.2616
  791SOL    HW2 2373   1.576   0.521   0.742  0.1489 -0.3232 -0.5187
  792SOL     OW 2374   1.562   2.857   1.930 -0.5107 -0.3039 -0.2522
  792SOL    HW1 2375   1.505   2.900   2.004  1.9350  0.6554 -0.7295
  792SOL    HW2 2376   1.506   2.821   1.854 -0.8996  0.3134 -1.6357
  793SOL     OW 2377   0.680   0.059   0.704  0.1674  0.3152  0.4920
  793SOL    HW1 2378   0.738   0.092   0.780 -1.1280  0.7899 -2.0334
  793SOL    HW2 2379   0.585   0.076   0.717  5.4863 -1.5422 -1.5950
  794SOL     OW 2380   0.920   1.068   2.259  0.4813 -0.2312 -0.0412
  794SOL    HW1 2381   0.921   0.968   2.276 -0.8347  0.8676  2.2813
  794SOL    HW2 2382   0.865   1.086   2.172 -1.6180 -0.5680  1.3870
  795SOL     OW 2383   0.291   1.891   2.410 -0.1482  0.3242  0.3278
  795SOL    HW1 2384   0.227   1.934   2.348  0.3300 -2.1309  0.1099
  795SOL    HW2 2385   0.243   1.878   2.499  2.4059  1.2652  0.6508
  796SOL     OW 2386   2.488   1.369   2.071 -0.5270  1.0111 -0.0430
  796SOL    HW1 2387   2.568   1.343   2.128 -1.9663  0.4250 -2.1365
  796SOL    HW2 2388   2.517   1.364   1.974 -0.3810  3.1916 -0.0271
  797SOL     OW 2389   2.917   2.563   2.857 -0.3494 -0.3524  0.4253
  797SOL    HW1 2390   3.013   2.582   2.884 -1.0884  1.6097  0.9476
  797SOL    HW2 2391   2.914   2.510   2.768  0.5530 -0.8250  0.7741
  798SOL     OW 2392   2.956   2.233   2.297  0.0744  0.6199 -0.3656
  798SOL    HW1 2393   3.050   2.215   2.263 -0.1258 -1.3709  0.7641
  798SOL    HW2 2394   2.922   2.150   2.346 -0.9161  1.9942 -1.2037
  799SOL     OW 2395   0.087   2.183   3.006 -0.0886  0.4613  0.4720
  799SOL    HW1 2396   0.004   2.187   2.949  0.7566  2.0176  0.7326
  799SOL    HW2 2397   0.116   2.085   3.025  0.4091 -3.6007  0.2090
  800SOL     OW 2398   1.392   1.724   0.291  0.6142 -0.0270  0.0269
  800SOL    HW1 2399   1.324   1.727   0.364 -4.7524  0.6570 -1.3937
  800SOL    HW2 2400   1.465   1.795   0.296 -1.2690 -3.1390  0.6261
  801SOL     OW 2401   1.889   1.381   1.347  0.5648  0.4381  0.4751
  801SOL    HW1 2402   1.947   1.451   1.388 -0.3877  0.9833 -0.6368
  801SOL    HW2 2403   1.925   1.285   1.343  0.7074 -0.4510  0.1774
  802SOL     OW 2404   3.078   1.345   0.197  0.3775 -0.3587  0.1708
  802SOL    HW1 2405   3.050   1.437   0.167  1.7656  1.2382 -1.2715
  802SOL    HW2 2406   3.031   1.324   0.286  4.7183  2.9096  0.4780
  803SOL     OW 2407   1.514   1.833   2.655 -0.3588  0.0923  0.2850
  803SOL    HW1 2408   1.591   1.830   2.589 -2.9497  2.1987  1.7073
  803SOL    HW2 2409   1.424   1.853   2.614 -2.2679  1.4022 -2.1838
  804SOL     OW 2410   1.729   1.440   0.251 -0.4679  0.4575 -0.4919
  804SOL    HW1 2411   1.708   1.432   0.353 -0.4157 -3.3024  0.3229
  804SOL    HW2 2412   1.832   1.464   0.248  1.7823  1.4553 -1.2248
  805SOL     OW 2413   2.450   1.657   2.564 -0.1548  0.4055 -0.4703
  805SOL    HW1 2414   2.485   1.622   2.477 -1.3341 -0.0020  0.2917
  805SOL    HW2 2415   2.497   1.737   2.596 -3.2243 -1.7875 -2.6432
  806SOL     OW 2416   0.386   3.093   0.266  0.0732  0.3154  0.2563
  806SOL    HW1 2417   0.462   0.056   0.255  2.0425 -0.1675 -1.0938
  806SOL    HW2 2418   0.395   3.005   0.213 -1.3184 -2.3782 -0.3795
  807SOL     OW 2419   1.853   1.323   2.858  0.7266  0.0051  0.1822
  807SOL    HW1 2420   1.903   1.404   2.824 -0.2121 -1.7513 -0.9926
  807SOL    HW2 2421   1.821   1.270   2.778 -0.7479 -0.5300  2.4969
  808SOL     OW 2422   0.004   1.664   0.474  0.7223  0.1097 -0.5505
  808SOL    HW1 2423   3.066   1.571   0.494  1.6188 -0.7316  3.8323
  808SOL    HW2 2424   3.031   1.724   0.435  0.2271  1.9014  1.9456
  809SOL     OW 2425   2.423   1.042   3.054 -0.5915  0.1647 -0.1161
  809SOL    HW1 2426   2.386   0.973   0.021  1.3148  0.5307  0.1805
  809SOL    HW2 2427   2.352   1.070   2.991  0.3656  0.2169  0.5975
  810SOL     OW 2428   0.495   1.217   0.263  0.2104 -0.8727 -0.0818
  810SOL    HW1 2429   0.529   1.209   0.167 -1.7761  1.6550 -1.3504
  810SOL    HW2 2430   0.421   1.150   0.283 -0.5465 -2.0188  2.4300
  811SOL     OW 2431   1.323   2.579   1.510  0.0766 -0.1542 -0.0292
  811SOL    HW1 2432   1.304   2.615   1.418  1.8281 -2.3619 -0.1686
  811SOL    HW2 2433   1.408   2.616   1.548 -1.1487 -1.3987 -3.6941
  812SOL     OW 2434   0.728   2.682   1.743 -0.2477  0.0725  0.1449
  812SOL    HW1 2435   0.736   2.634   1.654 -2.7727 -0.1451 -2.4621
  812SOL    HW2 2436   0.698   2.779   1.728 -2.9497 -1.6640  2.4220
  813SOL     OW 2437   1.349   0.271   2.114  0.3759 -0.4420  0.3360
  813SOL    HW1 2438   1.434   0.220   2.132 -0.5846  2.1332 -2.3548
  813SOL    HW2 2439   1.296   0.257   2.198 -1.1697 -1.6431 -0.2295
  814SOL     OW 2440   1.262   2.562   2.733  0.5866  0.2939 -0.3403
  814SOL    HW1 2441   1.300   2.527   2.643  0.2380 -0.5075 -0.0838
  814SOL    HW2 2442   1.306   2.519   2.813 -1.1646 -0.4124  1.6587
  815SOL     OW 2443   0.421   0.100   1.949  0.2258 -0.8949 -0.6877
  815SOL    HW1 2444   0.427   0.139   2.046 -1.6256  2.5748  1.5617
  815SOL    HW2 2445   0.342   0.037   1.936 -2.4874 -0.8692  2.5040
  816SOL     OW 2446   2.119   0.390   2.909 -0.3585 -0.0645  0.1996
  816SOL    HW1 2447   2.167   0.477   2.916  0.4377  0.9733  4.8719
  816SOL    HW2 2448   2.024   0.406   2.940  4.2567 -2.0297 -0.4737
  817SOL     OW 2449   2.408   0.421   2.332  0.5175 -0.4403 -0.3799
  817SOL    HW1 2450   2.409   0.377   2.420 -0.5600  3.3067  2.0563
  817SOL    HW2 2451   2.311   0.450   2.320 -1.9746 -1.9783 -0.3626
  818SOL     OW 2452   1.851   0.270   0.049 -0.0264  0.2620  0.4711
  818SOL    HW1 2453   1.858   0.309   0.144  1.0543  1.4272 -0.1894
  818SOL    HW2 2454   1.875   0.339   3.081 -2.0030  1.1085 -0.4658
  819SOL     OW 2455   2.177   1.855   2.842 -0.0397 -0.0692  0.3902
  819SOL    HW1 2456   2.119   1.925   2.790 -0.0565  1.4734 -1.4975
  819SOL    HW2 2457   2.198   1.876   2.937  1.8091 -3.0282 -3.8298
  820SOL     OW 2458   3.089   1.830   0.163  0.5125 -0.3352  0.2053
  820SOL    HW1 2459   3.020   1.900   0.133  0.3669  0.4727  0.0020
  820SOL    HW2 2460   0.042   1.849   0.255  1.2066 -1.0575  1.9563
  821SOL     OW 2461   0.441   2.897   0.770 -0.5818 -0.0443 -0.4010
  821SOL    HW1 2462   0.544   2.877   0.763  1.8974 -0.8324  0.3095
  821SOL    HW2 2463   0.408   2.938   0.686  1.5404 -0.8033  2.6756
  822SOL     OW 2464   2.708   2.786   2.856 -0.2542  0.0919 -0.1377
  822SOL    HW1 2465   2.613   2.750   2.853  1.4004  1.4356  1.4452
  822SOL    HW2 2466   2.781   2.714   2.856 -0.3240  2.7212  0.1968
  823SOL     OW 2467   1.378   0.418   2.565 -0.3062  0.0309 -0.2376
  823SOL    HW1 2468   1.452   0.380   2.505  0.9181 -2.3500  1.9316
  823SOL    HW2 2469   1.413   0.442   2.658 -2.2131 -0.6582 -1.1036
  824SOL     OW 2470   2.617   1.864   1.799 -0.0314 -0.4637 -0.1624
  824SOL    HW1 2471   2.710   1.835   1.827 -0.2923  1.0323  2.1157
  824SOL    HW2 2472   2.590   1.946   1.854  0.2589  0.6262  1.4106
  825SOL     OW 2473   2.698   2.024   2.517 -0.0784 -0.5750  0.7268
  825SOL    HW1 2474   2.770   2.071   2.569 -0.4826 -0.5161 -0.6567
  825SOL    HW2 2475   2.663   2.080   2.443 -0.6009  1.7201  3.2169
  826SOL     OW 2476   2.513   1.520   2.300 -0.5696 -0.0539  0.0378
  826SOL    HW1 2477   2.605   1.491   2.330  3.8524 -2.9966  1.7810
  826SOL    HW2 2478   2.479   1.471   2.216  0.0709  1.0870  1.0463
  827SOL     OW 2479   2.283   2.249   1.425  0.1640 -0.2157 -0.0912
  827SOL    HW1 2480   2.197   2.301   1.431  2.0245  1.5000 -0.4088
  827SOL    HW2 2481   2.269   2.166   1.365 -1.6936 -1.2743 -0.8540
  828SOL     OW 2482   3.042   3.097   1.362 -0.2099  0.2923  0.6360
  828SOL    HW1 2483   3.098   0.004   1.278 -1.0814  0.0078  0.8375
  828SOL    HW2 2484   3.066   0.074   1.416 -1.5018 -3.5318 -4.3256
  829SOL     OW 2485   1.574   2.217   2.382 -0.1132  0.9406  0.2919
  829SOL    HW1 2486   1.573   2.122   2.344 -2.3384  2.2920  0.5908
  829SOL    HW2 2487   1.599   2.290   2.318  0.1165  3.0084  0.6867
  830SOL     OW 2488   1.267   0.514   0.668  0.4272 -0.2874  1.3445
  830SOL    HW1 2489   1.326   0.476   0.743 -1.2598  0.4684  0.5208
  830SOL    HW2 2490   1.316   0.512   0.582 -0.1516  1.0343  2.0991
  831SOL     OW 2491   2.779   1.303   2.876  0.4265 -0.0347 -0.2137
  831SOL    HW1 2492   2.880   1.306   2.897 -0.6353 -2.4385 -2.4171
  831SOL    HW2 2493   2.777   1.328   2.778  1.0659  2.4271 -1.1402
  832SOL     OW 2494   1.540   2.027   1.862 -0.2570  0.7596  0.4222
  832SOL    HW1 2495   1.520   2.125   1.883 -2.4469 -1.9296  2.1102
  832SOL    HW2 2496   1.633   2.017   1.817  0.1251  0.7373  1.3040
  833SOL     OW 2497   0.064   0.358   1.985  0.8100 -1.0091  0.7684
  833SOL    HW1 2498   0.011   0.273   1.985  0.9486 -2.8476 -0.3768
  833SOL    HW2 2499   0.098   0.389   2.074  1.5944  0.9564 -2.3455
  834SOL     OW 2500   0.880   1.162   1.657 -0.2050 -0.2336  0.0821
  834SOL    HW1 2501   0.860   1.154   1.558 -1.7310 -0.3002  1.8315
  834SOL    HW2 2502   0.957   1.100   1.677 -1.5298  1.2497 -2.6146
  835SOL     OW 2503   2.847   0.944   2.816  0.3907 -0.3645 -0.6572
  835SOL    HW1 2504   2.753   0.983   2.844 -0.8956  1.3084  0.2975
  835SOL    HW2 2505   2.829   0.857   2.767  0.0379 -2.3620 -0.4395
  836SOL     OW 2506   1.249   1.482   0.458  0.2593  0.2127 -0.0285
  836SOL    HW1 2507   1.173   1.549   0.444 -3.1775  2.3724  1.0192
  836SOL    HW2 2508   1.332   1.503   0.404 -2.3136 -1.1219  1.8754
  837SOL     OW 2509   1.589   1.488   1.111  0.8159 -0.1246  0.0435
  837SOL    HW1 2510   1.604   1.496   1.210  1.6874  0.9343 -1.4338
  837SOL    HW2 2511   1.488   1.486   1.089  0.6151  1.8774  0.2662
  838SOL     OW 2512   1.031   1.651   2.423  0.4137  0.4593 -0.4431
  838SOL    HW1 2513   1.128   1.613   2.434  1.5082  1.8821  0.7474
  838SOL    HW2 2514   1.033   1.748   2.387 -0.9396 -0.6665  1.6300
  839SOL     OW 2515   0.748   2.081   2.585 -0.2186 -0.0419  0.6078
  839SOL    HW1 2516   0.732   2.059   2.685 -1.0657 -0.8681  2.9175
  839SOL    HW2 2517   0.662   2.069   2.531  0.0334  0.0488  0.4804
  840SOL     OW 2518   0.679   2.430   0.481  0.2652  0.5723 -0.6596
  840SOL    HW1 2519   0.707   2.529   0.484  2.1852  0.4211  0.7040
  840SOL    HW2 2520   0.750   2.381   0.426 -0.6886  1.0194  1.5399
  841SOL     OW 2521   1.838   2.562   0.070 -0.3690  0.3605 -0.3388
  841SOL    HW1 2522   1.796   2.535   0.159 -2.8061  1.4438  1.7383
  841SOL    HW2 2523   1.913   2.633   0.084 -0.8326 -2.3702 -3.7302
  842SOL     OW 2524   0.686   0.819   2.971  0.1435 -0.5381  0.2021
  842SOL    HW1 2525   0.702   0.917   2.939  0.2522  2.2356 -0.1261
  842SOL    HW2 2526   0.776   0.774   2.984 -0.2841 -2.3468  0.8858
  843SOL     OW 2527   1.268   0.117   0.643 -0.1677 -0.1036 -0.2687
  843SOL    HW1 2528   1.370   0.115   0.659 -2.1241 -1.7665  2.5810
  843SOL    HW2 2529   1.242   0.161   0.555  1.6314  0.1059  0.0919
  844SOL     OW 2530   2.680   2.873   2.603  0.3695  0.1231 -0.4353
  844SOL    HW1 2531   2.777   2.867   2.580 -2.2957  2.5731 -3.2906
  844SOL    HW2 2532   2.677   2.837   2.700  0.0414 -1.1931  2.2068
  845SOL     OW 2533   2.757   2.246   0.997 -0.1335  0.0539 -0.4089
  845SOL    HW1 2534   2.823   2.311   0.961 -1.9431  0.6202 -1.7596
  845SOL    HW2 2535   2.668   2.287   1.029  0.1011  0.0913 -1.0953
  846SOL     OW 2536   0.174   1.863   2.652  0.2817 -0.1086  0.2526
  846SOL    HW1 2537   0.139   1.767   2.636 -1.0498 -1.7137  0.1243
  846SOL    HW2 2538   0.216   1.877   2.742  0.8378  0.0182  0.7617
  847SOL     OW 2539   1.327   0.722   1.565  0.1930 -0.3492 -0.6254
  847SOL    HW1 2540   1.231   0.732   1.537  0.7924 -2.2049 -0.6404
  847SOL    HW2 2541   1.348   0.781   1.645 -2.9148 -0.6713  0.8063
  848SOL     OW 2542   2.581   3.016   2.945 -0.6605  0.2567  0.1303
  848SOL    HW1 2543   2.581   3.013   3.045  1.9318 -0.8344 -2.3998
  848SOL    HW2 2544   2.640   2.943   2.903  2.1342  0.9750  0.1248
  849SOL     OW 2545   0.546   2.761   2.816 -0.6551 -0.2110 -0.0551
  849SOL    HW1 2546   0.491   2.805   2.893  0.3281 -2.4382  0.0559
  849SOL    HW2 2547   0.640   2.804   2.820  0.3805  2.8055  1.4366
  850SOL     OW 2548   1.144   2.623   0.983 -0.2312  0.7294  0.3573
  850SOL    HW1 2549   1.120   2.568   1.067  1.4802 -0.2555  0.0132
  850SOL    HW2 2550   1.158   2.722   1.007  0.9833  2.4901  0.5332
  851SOL     OW 2551   2.847   0.317   2.182  0.1213  0.3495  0.2831
  851SOL    HW1 2552   2.873   0.257   2.258  2.7675 -2.3615 -1.1177
  851SOL    HW2 2553   2.883   0.275   2.099  0.4988  2.5467 -0.1516
  852SOL     OW 2554   2.261   1.036   2.357 -0.3755 -0.1238  0.0925
  852SOL    HW1 2555   2.173   1.013   2.314 -0.0187  0.5407  3.4105
  852SOL    HW2 2556   2.263   1.021   2.457 -0.4768 -1.4372  2.1303
  853SOL     OW 2557   2.840   3.072   0.486 -0.2535  0.0445 -0.1919
  853SOL    HW1 2558   2.833   0.076   0.474  0.5598 -0.6387  1.0310
  853SOL    HW2 2559   2.796   3.054   0.577  0.6915 -1.8663 -0.8800
  854SOL     OW 2560   2.236   0.982   1.969 -1.1639 -0.6749 -0.0952
  854SOL    HW1 2561   2.152   0.926   1.985 -0.0291 -1.6054 -1.2905
  854SOL    HW2 2562   2.220   1.082   1.979 -1.1893 -1.0803 -0.9626
  855SOL     OW 2563   1.289   2.396   0.251  1.5701 -0.0278  0.9537
  855SOL    HW1 2564   1.217   2.357   0.187  0.1233  0.5595 -0.0819
  855SOL    HW2 2565   1.262   2.487   0.285 -1.2663 -0.3464  1.8172
  856SOL     OW 2566   2.971   0.249   2.582 -0.5128  0.2933 -0.5908
  856SOL    HW1 2567   2.963   0.188   2.505 -1.3084  0.3915  0.7876
  856SOL    HW2 2568   3.001   0.205   2.670 -2.0558  0.0635 -2.5784
  857SOL     OW 2569   1.264   0.030   1.847  0.1746 -0.6828 -0.1683
  857SOL    HW1 2570   1.181   0.090   1.862 -0.2074  1.5054 -0.0431
  857SOL    HW2 2571   1.289   3.084   1.933 -0.3571  0.1324  0.8891
  858SOL     OW 2572   2.365   2.170   1.725  0.2327 -0.0638 -0.3587
  858SOL    HW1 2573   2.362   2.180   1.629  0.7852 -2.8822  3.4390
  858SOL    HW2 2574   2.328   2.245   1.782  3.1892  1.1635  0.3086
  859SOL     OW 2575   0.993   2.532   1.231 -0.9922 -0.6644  0.0825
  859SOL    HW1 2576   0.920   2.469   1.206  2.9851  1.7705 -0.1739
  859SOL    HW2 2577   1.055   2.492   1.300 -0.5072  0.2705  0.6053
  860SOL     OW 2578   2.398   2.612   0.013  0.2528  0.6127 -0.5366
  860SOL    HW1 2579   2.479   2.578   3.064 -1.6950  0.8753  4.5235
  860SOL    HW2 2580   2.319   2.554   3.093  1.6268 -0.0979 -0.5983
  861SOL     OW 2581   2.179   3.014   0.878 -0.2938 -0.4695 -0.0058
  861SOL    HW1 2582   2.098   3.073   0.895  0.6501  2.0243 -0.3393
  861SOL    HW2 2583   2.232   3.001   0.960 -0.6011 -1.0988 -0.8450
  862SOL     OW 2584   1.847   2.937   2.288 -0.1866  0.3313  0.1197
  862SOL    HW1 2585   1.863   2.903   2.383  0.9073 -0.5277  0.6956
  862SOL    HW2 2586   1.932   2.978   2.248 -0.7235  0.0326  2.1372
  863SOL     OW 2587   0.112   0.640   0.612 -0.1035 -0.2102 -0.2846
  863SOL    HW1 2588   0.072   0.731   0.625  2.7973 -1.9193 -2.4048
  863SOL    HW2 2589   0.125   0.623   0.512  2.1134 -1.6413 -2.6616
  864SOL     OW 2590   3.073   2.501   2.194  0.1769 -0.9087 -0.3537
  864SOL    HW1 2591   0.010   2.412   2.224 -1.7275 -0.9948 -3.0044
  864SOL    HW2 2592   0.052   2.556   2.156 -0.5285 -2.3682 -1.6109
  865SOL     OW 2593   0.522   1.381   2.743 -0.5204  0.4281 -0.2403
  865SOL    HW1 2594   0.516   1.456   2.814  1.4910 -0.1272  0.5055
  865SOL    HW2 2595   0.528   1.287   2.785 -0.4583 -1.9900  0.6352
  866SOL     OW 2596   2.835   0.716   2.663 -0.5839  0.0461  0.0628
  866SOL    HW1 2597   2.855   0.728   2.565  1.9269 -0.3199  2.1173
  866SOL    HW2 2598   2.902   0.648   2.696 -2.4938  1.2532 -1.9542
  867SOL     OW 2599   0.026   2.932   2.737 -0.3589 -0.1013 -0.3717
  867SOL    HW1 2600   0.097   2.905   2.806 -1.1653  1.1920  1.3125
  867SOL    HW2 2601   3.047   2.972   2.787  0.2546  0.1160 -0.2865
  868SOL     OW 2602   1.336   2.935   0.784 -0.8128 -0.8252 -0.1526
  868SOL    HW1 2603   1.383   3.021   0.738  2.4671  1.6478  0.4490
  868SOL    HW2 2604   1.406   2.868   0.815 -0.5971  0.4713 -0.2208
  869SOL     OW 2605   1.376   1.570   0.978 -0.2134 -0.4849  0.0120
  869SOL    HW1 2606   1.404   1.607   0.888  0.1972  0.3643 -0.3773
  869SOL    HW2 2607   1.369   1.642   1.048  1.4421  0.0895 -2.3897
  870SOL     OW 2608   2.015   1.990   1.132 -0.7216 -0.5186 -0.2155
  870SOL    HW1 2609   2.069   1.970   1.046  2.7621 -3.9520 -3.5849
  870SOL    HW2 2610   1.948   1.918   1.156 -0.6106  1.2675  0.7513
  871SOL     OW 2611   0.717   1.678   1.810  0.3425  0.4447  0.1952
  871SOL    HW1 2612   0.647   1.744   1.787 -0.3980  0.3341 -0.5044
  871SOL    HW2 2613   0.757   1.645   1.722  2.5479  0.4765  0.7821
  872SOL     OW 2614   0.905   1.443   1.343 -0.2149 -0.4493  0.4223
  872SOL    HW1 2615   0.945   1.436   1.250  0.3422  0.0661 -3.9394
  872SOL    HW2 2616   0.894   1.353   1.386  0.2537 -0.7018 -1.8015
  873SOL     OW 2617   1.261   1.070   2.715  0.0332 -0.0929 -0.1801
  873SOL    HW1 2618   1.224   1.151   2.667  3.2590  1.0738 -2.3239
  873SOL    HW2 2619   1.302   1.094   2.806  2.4362  2.2327  3.1925
  874SOL     OW 2620   0.086   1.500   1.463 -0.6914  0.2177 -0.2719
  874SOL    HW1 2621   0.028   1.541   1.386 -0.1188  3.0378 -0.6385
  874SOL    HW2 2622   0.188   1.518   1.449  0.5929  1.0407  1.8756
  875SOL     OW 2623   2.741   2.979   0.751  0.3875 -0.2823 -0.8277
  875SOL    HW1 2624   2.689   3.035   0.820 -1.0490 -1.0260 -0.4838
  875SOL    HW2 2625   2.721   2.879   0.766 -1.3435  2.3951 -1.8384
  876SOL     OW 2626   0.929   0.688   3.026  0.3519  0.3632 -0.3116
  876SOL    HW1 2627   0.967   0.701   2.933  0.3099 -1.9621  2.6779
  876SOL    HW2 2628   0.997   0.697   3.097  1.3445 -1.0296 -2.0533
  877SOL     OW 2629   0.042   0.336   1.030  0.5593  0.2003  0.1763
  877SOL    HW1 2630   3.061   0.332   1.092 -1.4924  0.1528 -3.6874
  877SOL    HW2 2631   0.126   0.345   1.086  2.5505 -0.5997  1.9284
  878SOL     OW 2632   1.613   2.503   3.006 -0.1832  0.0944  0.0171
  878SOL    HW1 2633   1.701   2.514   3.050 -3.7637 -0.3508  0.1181
  878SOL    HW2 2634   1.561   2.437   3.067  1.1110 -0.3258  2.0305
  879SOL     OW 2635   2.222   1.682   1.455  0.1901  0.3182 -0.2345
  879SOL    HW1 2636   2.243   1.629   1.541 -0.3962  0.2094 -2.1418
  879SOL    HW2 2637   2.250   1.780   1.459  2.5101 -0.5196 -0.0820
  880SOL     OW 2638   0.718   0.697   1.561  0.5277 -0.0760 -0.3633
  880SOL    HW1 2639   0.809   0.655   1.593  3.5041 -3.1778 -0.5088
  880SOL    HW2 2640   0.679   0.757   1.635 -1.0133 -1.7890  1.3104
  881SOL     OW 2641   1.034   1.894   0.017 -0.2935 -0.1153  0.4722
  881SOL    HW1 2642   1.035   1.795   3.097 -0.2513  0.3815 -0.7733
  881SOL    HW2 2643   1.045   1.949   3.032 -1.2039  0.5428  0.8956
  882SOL     OW 2644   2.146   0.870   1.478 -0.8511 -0.1298  0.0416
  882SOL    HW1 2645   2.184   0.855   1.574  0.1956 -0.7523 -0.9967
  882SOL    HW2 2646   2.167   0.794   1.415  0.8827  2.2897  2.0262
  883SOL     OW 2647   1.511   0.505   2.076 -0.1131 -0.2768 -0.0305
  883SOL    HW1 2648   1.595   0.458   2.111  0.6277  0.6495  1.2563
  883SOL    HW2 2649   1.439   0.433   2.069  0.9283  1.0000 -2.7953
  884SOL     OW 2650   2.574   0.187   0.091  0.2305  0.2623 -0.5224
  884SOL    HW1 2651   2.497   0.241   0.050 -0.5785  0.1180 -0.6502
  884SOL    HW2 2652   2.559   0.090   0.095 -2.4345  1.5960  0.4367
  885SOL     OW 2653   0.357   2.070   0.451 -0.2423  0.2824 -0.0715
  885SOL    HW1 2654   0.300   2.112   0.380  0.9903 -0.1885  0.6894
  885SOL    HW2 2655   0.312   1.983   0.487 -0.8213  1.2053  1.0496
  886SOL     OW 2656   1.688   1.193   0.143 -0.4471  0.0968 -0.1557
  886SOL    HW1 2657   1.620   1.145   0.200  0.7551 -0.6258  2.1616
  886SOL    HW2 2658   1.709   1.285   0.182  0.8248 -3.7694 -2.8163
  887SOL     OW 2659   1.457   0.493   1.706 -0.1691 -0.0484 -0.2353
  887SOL    HW1 2660   1.553   0.525   1.728  0.6526  1.1183  2.8205
  887SOL    HW2 2661   1.399   0.562   1.658  2.2564  0.3036 -0.0942
  888SOL     OW 2662   2.939   1.234   1.517  0.0628  0.5877  0.8037
  888SOL    HW1 2663   2.953   1.311   1.583  3.6530 -0.1865 -1.7751
  888SOL    HW2 2664   2.843   1.227   1.490  1.4456  2.0122  2.0134
  889SOL     OW 2665   3.066   2.563   0.969 -0.7006  0.4886 -0.0428
  889SOL    HW1 2666   3.042   2.644   0.914 -2.6569  1.6706 -2.8074
  889SOL    HW2 2667   0.069   2.545   0.980  0.0271  1.7324  0.3093
  890SOL     OW 2668   0.389   2.445   2.637 -0.3962 -0.7724 -0.2370
  890SOL    HW1 2669   0.430   2.422   2.549  0.8862  1.2825  1.5661
  890SOL    HW2 2670   0.306   2.503   2.621 -0.8090  0.6588 -0.7595
  891SOL     OW 2671   0.489   1.807   0.301  0.5928  0.2767 -0.3211
  891SOL    HW1 2672   0.492   1.905   0.338 -2.5663  1.5096  1.2588
  891SOL    HW2 2673   0.465   1.748   0.386 -2.3889  0.7394  2.9427
  892SOL     OW 2674   0.033   2.383   1.561  0.0421 -0.4252 -0.2105
  892SOL    HW1 2675   0.063   2.340   1.647 -2.4621  1.0704  0.2136
  892SOL    HW2 2676   3.047   2.434   1.574 -0.5440  2.3568 -1.9589
  893SOL     OW 2677   0.251   3.059   1.599  0.0461 -0.2941 -0.5153
  893SOL    HW1 2678   0.149   3.060   1.595 -0.9034 -1.1446  0.6885
  893SOL    HW2 2679   0.284   3.013   1.677 -0.9885  1.7929 -3.3177
  894SOL     OW 2680   2.602   1.630   0.781 -0.1955  0.1288 -0.1820
  894SOL    HW1 2681   2.554   1.713   0.813  0.1409  0.7048  0.1284
  894SOL    HW2 2682   2.626   1.638   0.682 -0.4596 -0.1413 -0.8036
  895SOL     OW 2683   2.353   2.492   1.684 -0.2522  0.2550 -0.0884
  895SOL    HW1 2684   2.289   2.467   1.763  0.8026  0.3335  0.9348
  895SOL    HW2 2685   2.447   2.469   1.716  1.9386  0.2659 -0.7176
  896SOL     OW 2686   0.842   0.146   1.344 -0.0107 -0.1956  0.5363
  896SOL    HW1 2687   0.806   0.219   1.410 -1.2483 -0.8221 -0.0390
  896SOL    HW2 2688   0.825   0.055   1.391 -3.3474  0.7302 -2.3547
  897SOL     OW 2689   0.589   1.510   1.143 -0.4153 -0.0556 -0.4389
  897SOL    HW1 2690   0.614   1.459   1.058 -3.1471  0.5110  1.7119
  897SOL    HW2 2691   0.589   1.612   1.124 -1.1216 -0.4496 -2.1086
  898SOL     OW 2692   1.533   2.707   1.622 -1.0402  0.0293 -0.3301
  898SOL    HW1 2693   1.512   2.649   1.700 -0.3580 -1.2745  0.5759
  898SOL    HW2 2694   1.637   2.708   1.607  3.4643 -1.4818  2.2189
  899SOL     OW 2695   1.137   0.366   2.703 -0.3427  0.2537  0.2123
  899SOL    HW1 2696   1.199   0.387   2.629 -1.6405 -0.3241  1.6037
  899SOL    HW2 2697   1.071   0.297   2.671  0.7903  0.1321 -2.8388
  900SOL     OW 2698   1.071   2.658   1.893 -0.4002 -0.4431  0.1739
  900SOL    HW1 2699   1.023   2.582   1.851 -0.0338  2.6640  3.6572
  900SOL    HW2 2700   1.044   2.746   1.843 -1.8621  0.5695  0.5292
  901SOL     OW 2701   0.878   1.893   0.238  0.5882 -0.2128  0.3361
  901SOL    HW1 2702   0.943   1.918   0.314  1.4607 -0.0214  2.5468
  901SOL    HW2 2703   0.919   1.885   0.146  1.6065  1.1589  2.1467
  902SOL     OW 2704   1.650   1.208   1.022  0.5493  0.2664 -0.1690
  902SOL    HW1 2705   1.672   1.199   0.923 -0.9816 -0.0799  0.2155
  902SOL    HW2 2706   1.574   1.276   1.032  0.4633 -1.2050  1.3609
  903SOL     OW 2707   2.607   1.080   2.862  0.4579 -0.1625  0.5200
  903SOL    HW1 2708   2.652   1.169   2.878 -2.6333  1.0415 -0.2173
  903SOL    HW2 2709   2.540   1.064   2.934  0.9576  0.4793 -0.9579
  904SOL     OW 2710   1.028   1.388   0.252  0.6073 -0.7146 -0.1952
  904SOL    HW1 2711   0.964   1.454   0.216 -1.7770 -0.3511  1.4999
  904SOL    HW2 2712   1.020   1.379   0.351 -1.7942  1.7519 -3.0856
  905SOL     OW 2713   1.635   0.129   1.189  0.1149 -0.2021 -0.1019
  905SOL    HW1 2714   1.576   0.186   1.251  0.5510  0.3568 -0.8822
  905SOL    HW2 2715   1.620   0.031   1.205  0.2361 -0.1936  1.8727
  906SOL     OW 2716   2.513   2.643   1.068  0.8540 -0.5997 -0.2283
  906SOL    HW1 2717   2.550   2.739   1.054 -2.2112 -0.5699 -0.8776
  906SOL    HW2 2718   2.425   2.636   1.016 -1.0983  0.0258 -1.8834
  907SOL     OW 2719   1.550   0.821   0.616 -0.2761  0.4639 -0.3685
  907SOL    HW1 2720   1.563   0.721   0.637  1.4864 -0.9087 -0.9073
  907SOL    HW2 2721   1.486   0.868   0.683 -3.7161  0.4106  3.5105
  908SOL     OW 2722   1.636   0.186   0.933  0.3497 -0.0737  0.6144
  908SOL    HW1 2723   1.658   0.285   0.929  2.2735 -0.1574 -0.9074
  908SOL    HW2 2724   1.619   0.159   1.032 -4.1690  0.8641 -3.2696
  909SOL     OW 2725   2.202   0.646   1.292 -0.1233 -0.1080  0.9180
  909SOL    HW1 2726   2.237   0.664   1.199 -1.0719 -1.3522  0.3388
  909SOL    HW2 2727   2.190   0.545   1.312  1.1792 -3.4478  2.9729
  910SOL     OW 2728   2.375   0.633   1.986 -0.3201 -0.3895  0.0214
  910SOL    HW1 2729   2.291   0.613   1.928  3.5664 -1.1568 -0.2391
  910SOL    HW2 2730   2.353   0.699   2.064  1.1299 -0.3373  2.8799
  911SOL     OW 2731   2.436   0.426   2.723  0.1205  0.0272  0.3456
  911SOL    HW1 2732   2.452   0.521   2.693  0.8706 -0.6182 -0.9574
  911SOL    HW2 2733   2.432   0.416   2.822 -1.2520 -0.9268 -2.0909
  912SOL     OW 2734   0.636   1.186   1.819  0.5020 -0.4226 -0.0147
  912SOL    HW1 2735   0.719   1.149   1.773 -0.9357  0.3299 -0.3364
  912SOL    HW2 2736   0.577   1.230   1.747  1.1853 -1.3627  2.2357
  913SOL     OW 2737   2.867   2.210   1.723 -0.0390 -0.2416  0.1644
  913SOL    HW1 2738   2.913   2.161   1.799  1.1336 -0.4656 -0.1379
  913SOL    HW2 2739   2.905   2.303   1.715 -1.1217 -0.4306  1.4509
  914SOL     OW 2740   1.703   0.783   1.862 -0.2134  0.0629 -0.3796
  914SOL    HW1 2741   1.628   0.846   1.832 -0.3020  0.8161  1.3812
  914SOL    HW2 2742   1.703   0.699   1.806 -1.2424  2.4420  0.9932
  915SOL     OW 2743   2.491   0.990   1.069  0.0721 -0.4433 -0.6356
  915SOL    HW1 2744   2.581   0.943   1.086 -0.0915  0.9084  0.1799
  915SOL    HW2 2745   2.509   1.093   1.067 -1.4294  1.8368  0.5114
  916SOL     OW 2746   1.749   2.224   1.122 -0.2581  0.3481  0.3149
  916SOL    HW1 2747   1.687   2.276   1.187 -0.0701  2.9761  0.1640
  916SOL    HW2 2748   1.758   2.128   1.155 -3.0539 -1.4518  0.5680
  917SOL     OW 2749   1.966   2.237   2.211  0.2021 -0.3206  0.1914
  917SOL    HW1 2750   1.949   2.206   2.306  0.1651  0.4780 -1.1755
  917SOL    HW2 2751   1.957   2.339   2.206 -0.4066  4.1786  0.1285
  918SOL     OW 2752   1.848   2.452   2.526 -0.8752  0.6246  0.5468
  918SOL    HW1 2753   1.771   2.487   2.469 -2.1870 -0.9454  0.2605
  918SOL    HW2 2754   1.925   2.519   2.518  0.5944  2.2312 -2.8488
  919SOL     OW 2755   1.096   0.187   1.522  0.0802 -0.0220  0.0798
  919SOL    HW1 2756   1.166   0.113   1.515 -1.6833 -2.6318 -1.1020
  919SOL    HW2 2757   1.048   0.174   1.608 -1.3212  1.4286 -0.6063
  920SOL     OW 2758   3.051   0.473   2.402 -0.2614 -0.0745 -0.0469
  920SOL    HW1 2759   2.996   0.421   2.472 -1.4604 -1.0983  0.9101
  920SOL    HW2 2760   3.025   0.565   2.376  1.3617 -2.3020 -1.0850
  921SOL     OW 2761   0.017   1.007   1.788  0.2357 -0.1751 -0.0665
  921SOL    HW1 2762   0.038   1.110   1.792  0.6934  0.4214  1.5761
  921SOL    HW2 2763   3.015   0.994   1.777 -0.4416 -0.1693 -0.8093
  922SOL     OW 2764   2.199   2.492   0.370 -0.0026  0.0143  0.1975
  922SOL    HW1 2765   2.155   2.583   0.344 -0.1681  0.5600 -0.1843
  922SOL    HW2 2766   2.286   2.477   0.320 -2.1920  1.0234 -1.4323
  923SOL     OW 2767   0.609   2.085   0.548 -0.5298 -0.1525  0.3164
  923SOL    HW1 2768   0.619   2.070   0.645  2.1198  0.4103  1.1303
  923SOL    HW2 2769   0.515   2.069   0.528  3.0088  0.6351  1.1021
  924SOL     OW 2770   1.122   0.952   0.068  0.6861 -0.1466  0.1588
  924SOL    HW1 2771   1.057   0.963   3.089 -2.7606 -0.2361 -0.0007
  924SOL    HW2 2772   1.167   1.042   0.094 -2.5806  1.4522  0.6692
  925SOL     OW 2773   2.779   1.117   0.814 -0.0897  0.6929 -0.0859
  925SOL    HW1 2774   2.738   1.051   0.749 -0.9786 -2.7040 -2.2927
  925SOL    HW2 2775   2.709   1.178   0.857  0.4665  3.4291 -0.5661
  926SOL     OW 2776   0.424   0.419   1.185  0.1331  0.1734  0.1097
  926SOL    HW1 2777   0.439   0.319   1.188 -0.0843 -0.6031 -0.0917
  926SOL    HW2 2778   0.320   0.443   1.185 -1.1349  1.3726 -2.9664
  927SOL     OW 2779   0.640   1.392   2.486 -0.0572 -0.6887 -0.3907
  927SOL    HW1 2780   0.582   1.381   2.571 -0.7692  0.9705  2.8369
  927SOL    HW2 2781   0.605   1.461   2.423  0.8261 -3.3223  0.3481
  928SOL     OW 2782   0.203   0.644   2.186  0.6906 -0.2868  0.9939
  928SOL    HW1 2783   0.116   0.675   2.138 -3.0884  0.3262 -1.6553
  928SOL    HW2 2784   0.188   0.555   2.229 -2.5474 -1.3008 -0.9369
  929SOL     OW 2785   2.964   2.848   1.349  0.4711 -0.0137  0.0695
  929SOL    HW1 2786   3.027   2.792   1.297 -1.5900 -1.2438 -0.8690
  929SOL    HW2 2787   2.991   2.948   1.361  2.4655 -1.3985  0.2635
  930SOL     OW 2788   1.881   0.348   1.783 -0.3758  0.1998 -0.6469
  930SOL    HW1 2789   1.956   0.306   1.732  0.8965  0.2292 -0.3981
  930SOL    HW2 2790   1.903   0.348   1.884  0.8036 -0.2670 -0.2455
  931SOL     OW 2791   2.241   0.861   0.050  0.2203  0.2443  0.2479
  931SOL    HW1 2792   2.158   0.880   3.095  2.5414 -0.1412  0.6557
  931SOL    HW2 2793   2.212   0.811   0.134 -0.2726 -0.5483 -1.4214
  932SOL     OW 2794   2.155   1.328   0.522 -0.0261 -0.2271  0.8064
  932SOL    HW1 2795   2.238   1.275   0.547  0.9364  0.9853 -0.3201
  932SOL    HW2 2796   2.094   1.348   0.601  1.2889  1.8846 -0.8695
  933SOL     OW 2797   2.001   1.595   1.039 -0.3901 -0.1053 -0.7619
  933SOL    HW1 2798   2.093   1.585   1.087  3.0039  0.6113  0.5380
  933SOL    HW2 2799   1.973   1.500   1.008 -3.0494 -0.9675  0.3324
  934SOL     OW 2800   1.899   0.914   2.540  0.4043 -0.0044  0.3364
  934SOL    HW1 2801   1.943   0.862   2.613 -1.2238 -0.2612 -1.3274
  934SOL    HW2 2802   1.862   0.851   2.466  2.0641 -0.9910  1.0089
  935SOL     OW 2803   0.275   1.027   0.546 -0.9547 -0.1511  0.1938
  935SOL    HW1 2804   0.251   1.093   0.473 -1.0698  0.0505  0.6934
  935SOL    HW2 2805   0.198   0.971   0.581 -2.3589 -0.2152  1.4978
  936SOL     OW 2806   0.708   2.890   0.753 -0.1065 -0.1088  0.2522
  936SOL    HW1 2807   0.712   2.905   0.851 -1.1001  1.2833 -0.8347
  936SOL    HW2 2808   0.749   2.972   0.710 -1.5866 -3.4331 -0.0264
  937SOL     OW 2809   2.865   2.864   1.769  0.3844  0.2324 -0.2264
  937SOL    HW1 2810   2.826   2.799   1.697  1.5664 -1.6388 -0.1596
  937SOL    HW2 2811   2.870   2.816   1.862 -1.0689 -0.1642  2.7178
  938SOL     OW 2812   2.867   2.319   0.118  0.0245  0.6741 -0.2966
  938SOL    HW1 2813   2.825   2.405   0.079  1.9195 -0.0788 -1.2351
  938SOL    HW2 2814   2.966   2.333   0.130 -1.0148  2.5558 -3.0439
  939SOL     OW 2815   1.298   1.451   1.246  0.0897  0.1737 -0.5354
  939SOL    HW1 2816   1.339   1.370   1.295  2.1120 -1.2287 -0.9365
  939SOL    HW2 2817   1.323   1.541   1.286 -0.5765  0.7193  0.7713
  940SOL     OW 2818   2.988   0.519   2.760 -0.1298 -0.4342  0.5396
  940SOL    HW1 2819   2.997   0.432   2.717  0.7180  0.7358  2.2122
  940SOL    HW2 2820   2.967   0.506   2.860 -2.5246  1.3651  0.4520
  941SOL     OW 2821   2.446   0.209   2.553  0.5900  0.0303 -0.2647
  941SOL    HW1 2822   2.536   0.166   2.521  2.3968 -0.9829 -3.2618
  941SOL    HW2 2823   2.460   0.298   2.603  0.2729  1.5441  0.0335
  942SOL     OW 2824   1.715   0.526   0.984  0.4784  0.1647 -0.2047
  942SOL    HW1 2825   1.743   0.507   1.081  0.6064 -0.6010  0.4098
  942SOL    HW2 2826   1.726   0.622   0.970  1.4344 -2.0342 -2.0644
  943SOL     OW 2827   1.155   1.283   2.231 -0.8649 -0.1973  0.5205
  943SOL    HW1 2828   1.189   1.189   2.211  0.2415  1.4471  1.5967
  943SOL    HW2 2829   1.060   1.292   2.198  2.4890  2.0131  0.8501
  944SOL     OW 2830   2.076   1.108   1.601  0.4832 -0.5877  0.1863
  944SOL    HW1 2831   2.111   1.024   1.555  0.2519  1.2768  3.2227
  944SOL    HW2 2832   2.147   1.187   1.606  0.4481  0.8021  2.2639
  945SOL     OW 2833   2.901   3.054   2.857  0.2461  0.3014 -0.0587
  945SOL    HW1 2834   2.823   3.089   2.799 -0.3498 -0.6506  0.1352
  945SOL    HW2 2835   2.865   2.994   2.939  0.7709 -2.5643  1.8970
  946SOL     OW 2836   2.990   1.464   1.656  0.3476 -0.3727 -0.2755
  946SOL    HW1 2837   3.056   1.491   1.585  0.5459 -3.3956  0.0062
  946SOL    HW2 2838   2.914   1.529   1.671 -0.4766 -0.4478  0.6448
  947SOL     OW 2839   0.947   0.039   0.116 -0.0882 -0.0331  0.0739
  947SOL    HW1 2840   0.932   3.057   0.171  1.5070  0.0948 -3.4927
  947SOL    HW2 2841   0.878   0.110   0.127  0.0759  1.0891  1.2334
  948SOL     OW 2842   2.262   1.582   1.166 -0.6717 -0.0366  0.4072
  948SOL    HW1 2843   2.253   1.671   1.212 -0.1715 -1.4762  1.3666
  948SOL    HW2 2844   2.350   1.561   1.129 -0.7984  0.4127 -0.4520
  949SOL     OW 2845   0.175   1.001   2.890 -1.2436 -0.0550 -0.0504
  949SOL    HW1 2846   0.108   1.024   2.820 -0.4288 -1.3251  0.0272
  949SOL    HW2 2847   0.269   0.990   2.852  2.3801  0.1525  0.4214
  950SOL     OW 2848   0.586   2.557   1.209 -0.3889  0.1155 -0.8949
  950SOL    HW1 2849   0.577   2.639   1.148 -0.4512 -3.0085  0.3593
  950SOL    HW2 2850   0.657   2.498   1.176  0.6025 -0.6547 -0.1959
  951SOL     OW 2851   0.925   1.695   2.825 -0.4289  0.2685 -0.1709
  951SOL    HW1 2852   0.940   1.658   2.920 -2.1595 -0.7649  0.9428
  951SOL    HW2 2853   0.877   1.622   2.763  0.2322 -2.3097  1.0962
  952SOL     OW 2854   0.773   1.074   0.485  0.1881 -0.1691 -0.0885
  952SOL    HW1 2855   0.685   1.063   0.539  0.0296 -1.6978 -1.6265
  952SOL    HW2 2856   0.847   1.018   0.530 -1.5606 -0.7785  0.7066
  953SOL     OW 2857   2.273   2.777   2.452  0.2511 -0.3419 -0.0850
  953SOL    HW1 2858   2.363   2.725   2.453  0.2010  0.7047  0.0127
  953SOL    HW2 2859   2.250   2.813   2.546  0.0255  1.4745  1.6338
  954SOL     OW 2860   1.941   0.934   0.871 -0.2220  0.3888  0.1569
  954SOL    HW1 2861   1.987   0.967   0.951  0.5190 -0.8554 -2.9759
  954SOL    HW2 2862   1.992   0.961   0.783  1.0132 -0.0336 -1.1990
  955SOL     OW 2863   0.739   1.873   0.460  0.0607  0.8557  0.7851
  955SOL    HW1 2864   0.775   1.859   0.365  1.1703 -0.4600 -1.8233
  955SOL    HW2 2865   0.681   1.960   0.460 -4.4395  1.5926 -2.4576
  956SOL     OW 2866   2.514   0.417   1.923 -0.0018  0.2449 -0.5769
  956SOL    HW1 2867   2.467   0.496   1.963 -2.2757 -1.6687 -0.1327
  956SOL    HW2 2868   2.519   0.342   1.997  0.7585  0.7302 -0.1841
  957SOL     OW 2869   1.976   2.212   1.893 -0.5155  0.1745 -0.1005
  957SOL    HW1 2870   2.011   2.149   1.817 -0.3556  0.6316  0.2514
  957SOL    HW2 2871   1.936   2.156   1.968  0.4462 -0.1247  0.9651
  958SOL     OW 2872   1.666   1.100   1.291 -0.1002  0.4586 -0.2972
  958SOL    HW1 2873   1.658   1.148   1.202 -1.0131  0.1495  1.1766
  958SOL    HW2 2874   1.593   1.128   1.356  2.7186 -0.9489 -0.9266
  959SOL     OW 2875   1.693   1.817   2.131 -0.0939 -0.4211 -0.4395
  959SOL    HW1 2876   1.726   1.730   2.167 -0.6184  0.9240 -0.1927
  959SOL    HW2 2877   1.610   1.798   2.079  1.5079  1.6995  1.5509
  960SOL     OW 2878   0.775   1.021   2.765  0.0960  0.2235  0.5726
  960SOL    HW1 2879   0.746   1.024   2.668  0.0435 -0.1217 -0.8050
  960SOL    HW2 2880   0.868   0.980   2.775 -0.6399 -1.8452  1.0606
  961SOL     OW 2881   3.074   1.012   2.692 -0.1554 -0.0180  0.2574
  961SOL    HW1 2882   2.989   0.973   2.731 -0.5064 -2.6290 -2.7587
  961SOL    HW2 2883   3.090   0.971   2.599  1.9802 -2.2523  1.6408
  962SOL     OW 2884   0.984   1.933   2.647 -0.6375 -0.3198 -0.2700
  962SOL    HW1 2885   0.966   1.841   2.687 -0.5784  1.4465 -0.2940
  962SOL    HW2 2886   0.896   1.984   2.651 -1.7630  0.9826  1.4254
  963SOL     OW 2887   2.879   2.018   0.109 -0.0717 -0.3805 -0.0004
  963SOL    HW1 2888   2.792   1.958   0.126  0.1808  1.8628 -1.5550
  963SOL    HW2 2889   2.866   2.118   0.104 -0.3647  1.0770 -0.4692
  964SOL     OW 2890   0.825   2.021   2.122  0.0962  0.1736  0.0552
  964SOL    HW1 2891   0.811   2.106   2.174  0.7545  1.4810 -0.8560
  964SOL    HW2 2892   0.852   2.041   2.025  2.0988  1.5703  0.2666
  965SOL     OW 2893   1.900   1.845   0.755 -0.2755 -0.0047  0.0405
  965SOL    HW1 2894   1.969   1.896   0.811  1.2740 -1.1347 -0.2808
  965SOL    HW2 2895   1.952   1.767   0.725 -0.8354  2.1805  1.8170
  966SOL     OW 2896   3.025   1.571   0.050 -0.3721  0.1199 -0.2606
  966SOL    HW1 2897   3.030   1.652   0.115  0.5719  1.6530  1.6526
  966SOL    HW2 2898   0.017   1.543   0.021 -1.1526  0.8436 -2.1136
  967SOL     OW 2899   2.064   0.014   2.216  0.1259 -0.0487  0.6067
  967SOL    HW1 2900   2.126   3.035   2.227 -0.9679  1.6815 -2.2509
  967SOL    HW2 2901   2.107   0.089   2.158 -0.2786 -0.6158 -0.4315
  968SOL     OW 2902   0.826   0.721   0.193  0.3754  0.7331  0.0720
  968SOL    HW1 2903   0.820   0.815   0.227  1.3029 -1.0768 -0.8510
  968SOL    HW2 2904   0.922   0.684   0.187  1.7642 -2.4907  0.5692
  969SOL     OW 2905   0.570   1.528   2.233 -0.0028 -0.7222  0.1741
  969SOL    HW1 2906   0.672   1.539   2.222 -1.0426 -1.3633  0.6878
  969SOL    HW2 2907   0.537   1.450   2.172  0.0647 -0.4417 -2.1362
  970SOL     OW 2908   1.846   2.587   1.330 -0.3731  0.3356 -0.1105
  970SOL    HW1 2909   1.830   2.582   1.232  1.1053 -0.8693  1.0197
  970SOL    HW2 2910   1.908   2.513   1.361 -0.8883  2.4620 -1.5122
  971SOL     OW 2911   1.923   2.343   0.686 -0.2646 -0.1383  0.0178
  971SOL    HW1 2912   1.957   2.312   0.780 -2.2125  3.4674 -0.4059
  971SOL    HW2 2913   1.997   2.339   0.615 -0.3385 -2.1916 -0.2508
  972SOL     OW 2914   0.126   0.988   2.449 -0.1834  0.2890 -0.3256
  972SOL    HW1 2915   0.133   1.018   2.349  2.7027 -2.4268 -2.3147
  972SOL    HW2 2916   0.182   1.045   2.510  0.5064 -0.5435 -0.0517
  973SOL     OW 2917   0.518   0.256   0.200  0.0347 -0.4843  0.1960
  973SOL    HW1 2918   0.518   0.331   0.266  2.1987  0.9387 -0.3223
  973SOL    HW2 2919   0.456   0.271   0.121  0.8051  2.6134 -0.1560
  974SOL     OW 2920   2.648   0.758   1.996 -0.2991  0.1703 -0.5742
  974SOL    HW1 2921   2.711   0.704   2.056  0.4611 -0.4202 -0.2746
  974SOL    HW2 2922   2.556   0.715   1.991  1.0996  1.5631  1.5913
  975SOL     OW 2923   0.012   3.050   0.510 -0.1713  0.0627 -0.3465
  975SOL    HW1 2924   3.012   3.049   0.504  2.6805 -1.2346 -0.4852
  975SOL    HW2 2925   0.042   2.952   0.494  2.9403 -3.1155 -1.6475
  976SOL     OW 2926   0.321   1.763   1.133  0.0902 -0.5211 -0.1413
  976SOL    HW1 2927   0.298   1.746   1.232  1.2365 -0.0710 -0.9130
  976SOL    HW2 2928   0.284   1.688   1.077 -1.1493  0.7669 -2.0774
  977SOL     OW 2929   1.101   1.700   0.412 -0.1041 -0.1604  0.2580
  977SOL    HW1 2930   1.039   1.684   0.330 -1.5798 -0.8984 -0.8490
  977SOL    HW2 2931   1.096   1.801   0.441 -0.4202  3.9567  0.5018
  978SOL     OW 2932   0.090   0.856   0.215 -0.1195 -0.0221 -0.1312
  978SOL    HW1 2933   0.064   0.823   0.121 -1.7860  0.0510  1.6633
  978SOL    HW2 2934   0.181   0.899   0.215 -1.5765  0.6584 -0.5693
  979SOL     OW 2935   1.661   1.642   0.625  0.1235 -0.6202  0.1544
  979SOL    HW1 2936   1.698   1.634   0.720 -0.3573  1.7272 -3.1596
  979SOL    HW2 2937   1.559   1.669   0.633 -2.5491  1.3104 -1.1566
  980SOL     OW 2938   0.499   1.946   2.070  0.0477  0.0932 -0.0778
  980SOL    HW1 2939   0.571   1.931   2.141  0.6078 -0.5089 -1.7411
  980SOL    HW2 2940   0.538   1.986   1.981 -1.5258  1.1415 -0.7384
  981SOL     OW 2941   2.119   1.232   2.680 -0.2093  0.0663  0.3802
  981SOL    HW1 2942   2.141   1.246   2.781  0.9514  2.8316  2.2081
  981SOL    HW2 2943   2.152   1.307   2.619  0.5128  2.1073 -1.5500
  982SOL     OW 2944   2.921   2.583   1.948 -0.3675  0.2868 -0.2442
  982SOL    HW1 2945   3.002   2.613   2.006  1.9676 -1.5276  1.5298
  982SOL    HW2 2946   2.941   2.584   1.846 -3.1738 -1.5395 -1.7108
  983SOL     OW 2947   1.554   0.279   1.580 -0.3457 -0.3595 -0.3264
  983SOL    HW1 2948   1.532   0.352   1.651 -1.3227 -0.4487  2.2017
  983SOL    HW2 2949   1.531   0.189   1.618 -1.7527  0.0608  0.4938
  984SOL     OW 2950   2.295   2.888   0.007 -0.2318 -0.5162 -0.1201
  984SOL    HW1 2951   2.332   2.792   3.099 -4.2671 -0.1509  2.5053
  984SOL    HW2 2952   2.274   2.924   3.016  1.1249  1.4768  0.5763
  985SOL     OW 2953   1.666   1.347   1.849 -0.0262 -0.2444 -0.4752
  985SOL    HW1 2954   1.748   1.301   1.804  3.4020  1.0798 -0.1888
  985SOL    HW2 2955   1.637   1.299   1.937  0.0075 -2.2712 -0.0052
  986SOL     OW 2956   1.877   2.866   2.550  0.0681  0.2376 -0.0320
  986SOL    HW1 2957   1.967   2.912   2.552  1.8341 -1.2391  1.3048
  986SOL    HW2 2958   1.836   2.881   2.643 -0.8831 -0.6716  0.3036
  987SOL     OW 2959   2.784   1.765   2.835 -0.4054  0.3844  0.2213
  987SOL    HW1 2960   2.808   1.691   2.764 -0.6587 -2.4094 -2.1013
  987SOL    HW2 2961   2.699   1.808   2.805  0.5915  0.1387  1.9035
  988SOL     OW 2962   2.992   0.960   1.341  0.0205 -0.3982  0.2915
  988SOL    HW1 2963   3.072   0.934   1.396 -0.9091  0.9107 -0.9192
  988SOL    HW2 2964   3.013   1.048   1.286 -0.7388  1.7841 -0.8185
  989SOL     OW 2965   1.945   1.102   1.310  0.1862  0.1579 -0.8098
  989SOL    HW1 2966   1.967   1.083   1.407 -3.2397  0.1124 -0.7517
  989SOL    HW2 2967   1.841   1.098   1.297 -2.0870 -1.0177 -1.7100
  990SOL     OW 2968   2.484   0.560   2.968  0.0584 -0.0812 -0.2075
  990SOL    HW1 2969   2.532   0.600   2.884  0.8774  0.9422 -0.7434
  990SOL    HW2 2970   2.543   0.574   3.050 -1.0127  4.2232  0.4807
  991SOL     OW 2971   0.202   1.512   0.015  0.1578  0.1064  0.5405
  991SOL    HW1 2972   0.159   1.415   0.010 -0.8245  0.6818  2.8724
  991SOL    HW2 2973   0.259   1.524   0.098 -0.5804 -1.8470  0.0154
  992SOL     OW 2974   2.285   1.573   1.750 -0.8610  0.2237 -0.2095
  992SOL    HW1 2975   2.210   1.554   1.813  0.8532 -5.0628 -0.0529
  992SOL    HW2 2976   2.311   1.670   1.747 -1.7810 -1.3402  1.5709
  993SOL     OW 2977   0.552   2.851   0.423  0.2618 -0.2858  0.5762
  993SOL    HW1 2978   0.638   2.797   0.450  2.5425 -3.7377 -1.2392
  993SOL    HW2 2979   0.539   2.936   0.475  1.7961 -1.0703 -0.9121
  994SOL     OW 2980   2.870   1.789   1.448 -0.8459 -0.4351 -0.1171
  994SOL    HW1 2981   2.799   1.859   1.430  0.4333 -2.8048  2.7724
  994SOL    HW2 2982   2.964   1.833   1.441  0.6541  0.4069  0.3020
  995SOL     OW 2983   1.731   1.874   2.495  0.2442  0.1726 -0.4216
  995SOL    HW1 2984   1.833   1.872   2.502  0.7175 -1.8829 -0.5215
  995SOL    HW2 2985   1.694   1.905   2.407 -0.4976  1.9947  1.4976
  996SOL     OW 2986   2.214   1.875   0.026  0.1981 -0.2303  0.6459
  996SOL    HW1 2987   2.136   1.824   0.055 -0.1903  2.0440  1.3317
  996SOL    HW2 2988   2.289   1.869   0.097  1.6006 -0.9044  1.8227
  997SOL     OW 2989   1.496   1.216   2.576  0.0831  0.7850  0.3530
  997SOL    HW1 2990   1.408   1.236   2.531 -1.3496 -0.8349 -1.4645
  997SOL    HW2 2991   1.548   1.300   2.608 -1.1989  0.2168 -1.0266
  998SOL     OW 2992   2.940   2.365   0.845 -0.0855 -0.5293 -0.0158
  998SOL    HW1 2993   2.902   2.418   0.763 -0.2452  0.2607  0.3002
  998SOL    HW2 2994   2.990   2.429   0.903  3.7247 -0.4808  0.0350
  999SOL     OW 2995   0.337   2.700   0.526 -0.0458  0.2996  0.2412
  999SOL    HW1 2996   0.364   2.641   0.607  0.4917 -1.5728  2.3123
  999SOL    HW2 2997   0.416   2.751   0.488  0.8735  0.9756 -0.6087
 1000SOL     OW 2998   1.069   0.009   2.982 -0.4823  0.2610  0.0834
 1000SOL    HW1 2999   1.014   0.010   3.067  1.8479 -1.1387 -0.1482
 1000SOL    HW2 3000   1.011   3.093   2.898  1.3991 -0.3311 -0.0686
   3.09977   3.09977   3.09977
