1000 SPC/Fw water molecules t= 289.00000 step= 289000
 3000
    1SOL     OW    1   2.610   2.842   0.936 -0.1153 -0.0945 -0.0093
    1SOL    HW1    2   2.561   2.843   0.852  2.4992 -0.5042 -0.0199
    1SOL    HW2    3   2.669   2.927   0.943  2.2388  2.3191  2.4584
    2SOL     OW    4   2.675   1.874   0.969  0.3605 -0.3732 -0.1806
    2SOL    HW1    5   2.666   1.820   0.884 -1.6841  0.3337  0.5494
    2SOL    HW2    6   2.762   1.860   1.020 -0.2279  1.5471  0.8608
    3SOL     OW    7   0.852   2.688   2.777 -0.1085 -0.6929 -0.3203
    3SOL    HW1    8   0.816   2.761   2.713 -0.3940  1.1180 -0.9473
    3SOL    HW2    9   0.798   2.602   2.767  0.9430 -1.3893  0.4698
    4SOL     OW   10   2.097   2.224   1.237 -0.0794 -0.1432 -0.1054
    4SOL    HW1   11   2.167   2.290   1.204 -0.5279 -2.4483  1.1304
    4SOL    HW2   12   2.129   2.164   1.313  0.9975 -0.2727  2.4211
    5SOL     OW   13   1.538   0.994   1.219  0.3842 -0.7261 -0.0928
    5SOL    HW1   14   1.514   0.968   1.122  1.7647 -1.8434  1.8170
    5SOL    HW2   15   1.605   1.070   1.221  1.2535 -0.7960 -1.4197
    6SOL     OW   16   2.204   2.980   0.018  0.4168 -0.0818 -0.4051
    6SOL    HW1   17   2.272   2.917   0.070  0.9805 -2.2162  0.1520
    6SOL    HW2   18   2.107   2.943   0.028  0.5604 -2.8051  1.6552
    7SOL     OW   19   2.786   1.184   1.398 -0.1535 -0.3749  0.7140
    7SOL    HW1   20   2.878   1.191   1.441  0.6482 -1.0883 -0.3369
    7SOL    HW2   21   2.797   1.170   1.298 -3.6162 -1.4949  0.4984
    8SOL     OW   22   1.451   2.561   1.240 -0.2944  0.3508  0.1548
    8SOL    HW1   23   1.489   2.529   1.329  0.5802  0.9790  0.2983
    8SOL    HW2   24   1.383   2.494   1.205 -0.7882 -1.2210  1.7369
    9SOL     OW   25   1.545   0.097   2.268 -0.0675 -0.1950 -0.4556
    9SOL    HW1   26   1.638   0.142   2.256  1.5020  0.8431 -2.4204
    9SOL    HW2   27   1.518   0.060   2.176 -0.4094 -2.6455  1.1343
   10SOL     OW   28   0.522   2.207   0.879  0.4040 -0.3084  0.3046
   10SOL    HW1   29   0.533   2.205   0.779  0.7727  0.6064 -0.5567
   10SOL    HW2   30   0.598   2.151   0.924  1.3035  3.0489  1.2939
   11SOL     OW   31   1.590   1.563   1.061 -0.2931 -0.5253  0.1418
   11SOL    HW1   32   1.683   1.601   1.082  0.0975  0.3970  2.1253
   11SOL    HW2   33   1.546   1.519   1.141  1.3002 -1.4534 -2.6903
   12SOL     OW   34   2.674   2.474   1.671 -0.3198 -0.4144 -0.0425
   12SOL    HW1   35   2.719   2.545   1.613  2.7162  0.6246  0.2026
   12SOL    HW2   36   2.741   2.445   1.741 -2.3919  0.6604  1.3129
   13SOL     OW   37   2.285   0.021   0.395  0.1468 -0.4350  0.1560
   13SOL    HW1   38   2.181   0.034   0.384 -5.1402  0.1408  1.2719
   13SOL    HW2   39   2.323   0.075   0.474 -0.3251  1.1122  0.1641
   14SOL     OW   40   1.983   2.462   0.751 -0.2247  0.2025  0.3170
   14SOL    HW1   41   2.066   2.436   0.700 -3.1573 -1.7860  0.2440
   14SOL    HW2   42   1.901   2.403   0.729  2.2214 -0.4528 -0.5200
   15SOL     OW   43   2.822   2.112   1.942 -0.4694  0.3822 -0.0034
   15SOL    HW1   44   2.729   2.078   1.947  0.0794 -0.2535  0.5900
   15SOL    HW2   45   2.862   2.124   2.034 -0.2834  0.2999 -0.4634
   16SOL     OW   46   2.265   2.458   0.658  0.5970 -0.1954 -0.2000
   16SOL    HW1   47   2.286   2.512   0.739  1.9539  0.0733  0.7832
   16SOL    HW2   48   2.344   2.401   0.634 -1.6982  0.9194  2.6672
   17SOL     OW   49   0.681   0.007   1.142 -0.2774 -0.5847 -0.2741
   17SOL    HW1   50   0.671   3.050   1.219  1.1649 -2.3689 -1.6926
   17SOL    HW2   51   0.782   0.023   1.129 -0.4683  2.8769 -1.9372
   18SOL     OW   52   1.314   1.100   0.025  0.1014  0.1322  0.0300
   18SOL    HW1   53   1.230   1.128   0.079 -0.6814 -0.6364  0.1701
   18SOL    HW2   54   1.344   1.003   0.044  1.4733 -0.6404 -1.8055
   19SOL     OW   55   1.763   1.895   0.320 -0.4062 -0.5210  0.2033
   19SOL    HW1   56   1.836   1.937   0.264 -0.8934 -1.0990 -2.6673
   19SOL    HW2   57   1.698   1.844   0.260  2.2187  0.2870  0.2632
   20SOL     OW   58   2.536   1.758   1.984  0.2073 -0.0272 -0.2899
   20SOL    HW1   59   2.566   1.856   2.000 -0.6767  4.0016  0.6869
   20SOL    HW2   60   2.444   1.743   2.020 -1.1244 -1.4630 -0.8621
   21SOL     OW   61   0.853   1.445   0.569  0.0793  0.2674 -0.1509
   21SOL    HW1   62   0.810   1.368   0.621  3.8307  0.1510  1.1837
   21SOL    HW2   63   0.788   1.489   0.503  1.4965 -1.2129  2.5123
   22SOL     OW   64   2.154   2.980   1.516  0.4576  0.6311 -0.0692
   22SOL    HW1   65   2.062   2.991   1.558  0.4377  1.8549 -0.5028
   22SOL    HW2   66   2.220   3.053   1.545  2.9104 -1.0233 -0.3751
   23SOL     OW   67   0.033   0.861   2.078 -0.2314 -0.0710  0.7151
   23SOL    HW1   68   3.064   0.834   2.145  0.2666  0.3115  1.1758
   23SOL    HW2   69   0.126   0.848   2.122 -0.3530 -2.1711  0.6219
   24SOL     OW   70   2.503   2.666   0.317 -0.3614 -0.4238  0.2455
   24SOL    HW1   71   2.482   2.754   0.269  0.0645 -0.7655 -2.1739
   24SOL    HW2   72   2.542   2.606   0.244 -0.3684 -0.4434 -0.3626
   25SOL     OW   73   1.234   3.070   2.368 -0.2865  0.1310 -0.1013
   25SOL    HW1   74   1.296   2.992   2.338  0.2883 -1.4291  0.9376
   25SOL    HW2   75   1.283   0.042   2.411 -0.8476  0.5998 -1.3028
   26SOL     OW   76   1.566   2.239   0.363 -0.0220  0.0791 -0.1549
   26SOL    HW1   77   1.535   2.238   0.263 -0.8339 -2.3808 -1.2150
   26SOL    HW2   78   1.610   2.145   0.377  3.0646 -0.9507 -2.0925
   27SOL     OW   79   2.452   1.588   0.033  0.2596  0.2321  0.2358
   27SOL    HW1   80   2.352   1.591   0.009  1.0165 -2.4675  0.8971
   27SOL    HW2   81   2.492   1.512   3.086 -1.9414 -0.6673 -1.0823
   28SOL     OW   82   0.263   1.312   1.618  0.3627 -0.0015 -0.2013
   28SOL    HW1   83   0.258   1.268   1.711  2.5082  0.8630 -1.3921
   28SOL    HW2   84   0.209   1.402   1.615 -0.9757  1.7828 -3.7916
   29SOL     OW   85   2.281   2.444   1.380 -0.1575 -0.1748 -0.5708
   29SOL    HW1   86   2.226   2.398   1.452 -1.6086 -1.9509  0.8043
   29SOL    HW2   87   2.375   2.460   1.415 -0.5943  3.3438  1.8325
   30SOL     OW   88   1.684   0.609   0.676  0.5852  0.1370  0.2708
   30SOL    HW1   89   1.700   0.606   0.773 -1.1729  2.9578 -1.9224
   30SOL    HW2   90   1.591   0.647   0.655 -3.9307  1.8203 -1.1623
   31SOL     OW   91   2.070   2.553   1.734 -0.2746  0.0660 -0.0073
   31SOL    HW1   92   2.010   2.623   1.686 -0.6940  0.8504 -0.8451
   31SOL    HW2   93   2.082   2.464   1.686 -0.8562 -1.6352  2.1368
   32SOL     OW   94   0.921   1.638   1.075  0.5738 -0.4547  0.3319
   32SOL    HW1   95   0.891   1.644   0.971 -2.3105 -0.2766 -3.9058
   32SOL    HW2   96   0.969   1.724   1.108  1.3398  1.3512  2.1682
   33SOL     OW   97   0.277   0.096   2.447  0.3769 -0.7355  0.3225
   33SOL    HW1   98   0.368   0.104   2.482 -0.2922 -0.1390 -1.7994
   33SOL    HW2   99   0.248   0.171   2.384 -2.2586 -1.2195  0.9094
   34SOL     OW  100   1.658   2.709   0.637 -0.0706 -0.4738 -0.0163
   34SOL    HW1  101   1.674   2.801   0.674  3.1606 -0.7232 -0.8388
   34SOL    HW2  102   1.633   2.640   0.711  1.3359 -0.5269 -0.9273
   35SOL     OW  103   2.121   2.806   1.314  0.1694  0.1407 -0.0843
   35SOL    HW1  104   2.212   2.763   1.299  1.8339 -2.6321  0.2974
   35SOL    HW2  105   2.138   2.884   1.371  1.5236 -0.5067 -5.7252
   36SOL     OW  106   1.772   2.455   2.204  0.0011 -0.2000 -0.1106
   36SOL    HW1  107   1.847   2.442   2.271 -1.6602  1.5245  3.4965
   36SOL    HW2  108   1.695   2.512   2.236  1.3235  2.0683  1.4998
   37SOL     OW  109   0.845   2.997   2.009  0.3766 -0.4284  0.2709
   37SOL    HW1  110   0.864   2.956   1.917 -0.1832 -2.7266 -1.8124
   37SOL    HW2  111   0.929   3.011   2.057 -4.9507 -0.2451 -1.8778
   38SOL     OW  112   3.079   0.159   2.511  0.9262  0.0678  0.3543
   38SOL    HW1  113   0.020   0.238   2.548 -2.9176 -1.4709  1.1914
   38SOL    HW2  114   0.035   0.079   2.491 -0.6555 -0.1338 -1.3949
   39SOL     OW  115   2.514   0.731   1.479 -0.0852  0.4697  0.2475
   39SOL    HW1  116   2.579   0.805   1.516  1.7831  1.3611  3.1164
   39SOL    HW2  117   2.420   0.771   1.479  1.8537  0.1562  1.0638
   40SOL     OW  118   1.303   2.724   0.039 -0.5375 -0.1379  0.1711
   40SOL    HW1  119   1.210   2.767   0.026 -1.3844 -0.7012  0.2754
   40SOL    HW2  120   1.381   2.789   0.047  0.1485  0.1282  1.3081
   41SOL     OW  121   2.314   1.133   1.051  0.3067 -0.7579  0.1037
   41SOL    HW1  122   2.414   1.142   1.066 -1.6784 -1.2964 -1.0952
   41SOL    HW2  123   2.297   1.125   0.947 -0.1900 -0.0330 -1.2044
   42SOL     OW  124   0.326   0.415   0.899  0.0217  0.6708 -0.1958
   42SOL    HW1  125   0.418   0.411   0.856 -2.6463 -2.9376 -0.9572
   42SOL    HW2  126   0.270   0.479   0.843  0.2086  0.2062  0.4560
   43SOL     OW  127   2.832   1.403   2.731 -0.5088  0.4164  0.0332
   43SOL    HW1  128   2.750   1.401   2.789  2.2124  0.9184 -1.1534
   43SOL    HW2  129   2.819   1.361   2.640 -1.4147  0.3583 -0.2457
   44SOL     OW  130   2.747   0.115   1.615 -0.1631 -0.2418 -0.6026
   44SOL    HW1  131   2.813   0.043   1.586 -0.7725 -0.4020  0.1322
   44SOL    HW2  132   2.702   0.093   1.708  0.9919  0.3082  1.0452
   45SOL     OW  133   0.578   0.188   1.835 -0.8407 -0.2921 -0.2085
   45SOL    HW1  134   0.596   0.086   1.843 -0.5014  1.3215 -0.7359
   45SOL    HW2  135   0.485   0.206   1.870  0.5036 -1.1941 -0.9086
   46SOL     OW  136   1.522   2.773   2.545  0.3103 -0.2039 -0.4038
   46SOL    HW1  137   1.451   2.751   2.472 -0.8842  2.2842 -1.3816
   46SOL    HW2  138   1.567   2.859   2.525  1.4361 -1.2185  2.0697
   47SOL     OW  139   1.771   1.736   0.774  0.4850  0.5469  0.4880
   47SOL    HW1  140   1.735   1.800   0.848  0.2585 -0.3758  1.5580
   47SOL    HW2  141   1.872   1.710   0.797 -1.1125  1.2693 -0.2983
   48SOL     OW  142   1.070   2.245   0.547 -0.2237 -0.0701  0.6185
   48SOL    HW1  143   1.086   2.328   0.494  0.8773 -2.2297 -0.5794
   48SOL    HW2  144   1.021   2.275   0.632 -2.0890  0.7784 -2.0082
   49SOL     OW  145   2.181   0.092   2.350  0.5104  0.8580  0.5918
   49SOL    HW1  146   2.272   0.049   2.378  1.4410 -2.1256 -0.1748
   49SOL    HW2  147   2.126   0.112   2.433  3.1222  0.5693 -3.1023
   50SOL     OW  148   2.083   0.279   0.313 -0.4589 -0.0950 -0.4569
   50SOL    HW1  149   2.058   0.281   0.412  2.3754 -0.2983  3.0884
   50SOL    HW2  150   2.047   0.358   0.259 -0.2817  0.4380 -2.6312
   51SOL     OW  151   1.979   0.896   0.686  0.0052  0.1886  0.5326
   51SOL    HW1  152   2.039   0.980   0.672 -1.1112  0.0090 -0.0276
   51SOL    HW2  153   1.946   0.880   0.785 -2.3754 -3.0957  3.5224
   52SOL     OW  154   1.089   1.564   1.373  0.5708  0.1107 -0.4789
   52SOL    HW1  155   1.065   1.523   1.464  1.2945 -2.3624  1.1101
   52SOL    HW2  156   1.037   1.525   1.295 -1.5604 -0.9448 -1.3483
   53SOL     OW  157   0.941   1.658   2.283 -0.5295  0.7549 -0.0675
   53SOL    HW1  158   0.836   1.658   2.283 -2.4612  0.6990  0.9748
   53SOL    HW2  159   0.984   1.739   2.233  0.4896 -0.9169 -1.6717
   54SOL     OW  160   2.620   0.273   1.439  0.0635  0.2604  0.1209
   54SOL    HW1  161   2.658   0.198   1.489 -0.3586  1.7603  0.6496
   54SOL    HW2  162   2.678   0.359   1.454  1.5123 -0.6728  0.4505
   55SOL     OW  163   2.629   1.725   0.751  0.1759  0.2830  0.4390
   55SOL    HW1  164   2.679   1.637   0.756  1.5914  0.1533  0.0078
   55SOL    HW2  165   2.613   1.745   0.652 -1.5572 -1.5954 -0.8617
   56SOL     OW  166   0.973   0.345   1.942  0.3922  0.7012 -0.4877
   56SOL    HW1  167   0.998   0.259   1.990 -1.2416  0.0593  2.6306
   56SOL    HW2  168   1.040   0.414   1.962 -3.4371  0.9716  1.1601
   57SOL     OW  169   1.481   1.424   0.040 -0.1827 -0.4195 -0.5632
   57SOL    HW1  170   1.538   1.396   0.116 -0.1715  0.5958 -1.6571
   57SOL    HW2  171   1.534   1.440   3.063 -1.9036  0.2002  0.4212
   58SOL     OW  172   0.262   1.218   1.866 -0.4148 -0.0379 -0.1208
   58SOL    HW1  173   0.181   1.157   1.888 -2.3165  1.7747 -0.1490
   58SOL    HW2  174   0.290   1.277   1.951  2.7348 -1.4926  3.4242
   59SOL     OW  175   1.474   2.950   3.020  0.4327  0.5819 -0.0236
   59SOL    HW1  176   1.436   2.899   2.942  1.8584 -0.9645  0.3407
   59SOL    HW2  177   1.419   3.033   3.047  1.3244 -0.4273  1.1234
   60SOL     OW  178   2.924   2.138   0.323 -0.0574  0.0389 -0.4933
   60SOL    HW1  179   2.833   2.095   0.340 -1.6967  1.4022  2.3749
   60SOL    HW2  180   2.913   2.238   0.304 -0.2163  2.0944 -0.3186
   61SOL     OW  181   1.220   2.821   0.447  0.1948  0.1136  0.2554
   61SOL    HW1  182   1.270   2.745   0.489 -1.8439 -0.0030 -0.5162
   61SOL    HW2  183   1.286   2.894   0.423 -3.5901 -0.8291 -0.0854
   62SOL     OW  184   2.194   2.135   2.654  0.0172  0.3185 -0.1515
   62SOL    HW1  185   2.197   2.052   2.596 -1.6470  0.1594 -1.0388
   62SOL    HW2  186   2.171   2.212   2.589  1.2634 -2.8104 -2.4780
   63SOL     OW  187   2.507   2.358   0.646  0.3367  0.5358  0.1471
   63SOL    HW1  188   2.546   2.424   0.716 -0.9721  0.6360 -1.2843
   63SOL    HW2  189   2.498   2.267   0.684  0.6008  3.3512 -2.4029
   64SOL     OW  190   1.843   1.138   2.833  0.7747 -0.1463 -0.2474
   64SOL    HW1  191   1.782   1.215   2.839  1.1462  1.4146  2.3086
   64SOL    HW2  192   1.819   1.069   2.903 -1.1778 -1.6139  0.7940
   65SOL     OW  193   1.478   1.791   2.776  0.3418  0.1955 -0.3211
   65SOL    HW1  194   1.472   1.819   2.871 -1.8186 -0.5135 -4.0890
   65SOL    HW2  195   1.391   1.766   2.736  2.5456 -0.0015  1.6222
   66SOL     OW  196   0.362   1.095   2.169 -0.1153  0.2644 -0.0770
   66SOL    HW1  197   0.452   1.077   2.215  0.0830  0.7027 -0.0481
   66SOL    HW2  198   0.352   1.190   2.136  1.7974 -3.3635 -1.4851
   67SOL     OW  199   2.384   2.995   2.902  0.0322 -0.1802  0.0597
   67SOL    HW1  200   2.296   2.966   2.947 -2.1749  1.6341  1.1221
   67SOL    HW2  201   2.421   3.075   2.954  0.3323  0.9336 -1.3093
   68SOL     OW  202   1.054   2.607   1.342 -0.1577  0.5377  0.2682
   68SOL    HW1  203   1.101   2.561   1.419 -1.6187  2.6218 -2.4867
   68SOL    HW2  204   1.084   2.555   1.255  1.4942 -2.5349 -1.3864
   69SOL     OW  205   0.818   2.653   0.349  0.0331  0.4618  0.7042
   69SOL    HW1  206   0.755   2.653   0.266  1.2844  3.4883 -0.5383
   69SOL    HW2  207   0.777   2.720   0.417  1.1596 -1.3564 -0.6269
   70SOL     OW  208   2.470   0.275   2.515 -0.9458  0.5274  0.7789
   70SOL    HW1  209   2.386   0.331   2.522  0.4476 -2.8071  1.1887
   70SOL    HW2  210   2.504   0.279   2.420  3.9003  0.4074  0.1890
   71SOL     OW  211   0.765   1.326   2.461 -0.2065 -0.4516  0.7914
   71SOL    HW1  212   0.835   1.384   2.502 -1.3277 -1.1682 -1.5958
   71SOL    HW2  213   0.697   1.298   2.531 -2.2588 -1.3686 -0.6820
   72SOL     OW  214   0.063   2.153   0.208 -0.6187 -0.1874  0.5270
   72SOL    HW1  215   0.074   2.209   0.124  1.1790  0.0792 -1.7043
   72SOL    HW2  216   3.072   2.146   0.231 -1.4342  0.1513 -0.3395
   73SOL     OW  217   1.059   1.374   0.403  0.0200 -0.2841  0.5308
   73SOL    HW1  218   1.041   1.407   0.308 -0.9571  0.7028  1.3966
   73SOL    HW2  219   0.984   1.406   0.464 -2.0498  1.3200  1.4794
   74SOL     OW  220   2.387   2.785   2.691  0.1476 -0.1522 -0.7680
   74SOL    HW1  221   2.286   2.784   2.678 -0.6557 -1.2163 -1.3423
   74SOL    HW2  222   2.407   2.863   2.757 -1.1143 -0.9455  2.6361
   75SOL     OW  223   2.243   1.773   0.992  0.1992 -0.1082  0.6983
   75SOL    HW1  224   2.238   1.806   1.088 -1.1524 -1.3132  0.6765
   75SOL    HW2  225   2.312   1.696   0.983  1.5644 -1.4065 -1.6301
   76SOL     OW  226   1.932   2.607   1.357  0.3002 -0.2981 -0.2696
   76SOL    HW1  227   2.022   2.642   1.316 -1.0579 -1.4201 -0.4939
   76SOL    HW2  228   1.927   2.636   1.458  0.1582  0.5148  1.2930
   77SOL     OW  229   2.362   0.200   1.896  0.0758  0.1907 -0.0969
   77SOL    HW1  230   2.358   0.301   1.918  0.8770  0.4909  0.4969
   77SOL    HW2  231   2.336   0.136   1.968  0.1117 -1.2547 -0.9022
   78SOL     OW  232   1.544   0.902   3.056  0.5812 -0.0986 -0.3690
   78SOL    HW1  233   1.593   0.830   0.003 -0.4498  2.1813 -1.0040
   78SOL    HW2  234   1.517   0.872   2.964  1.0201  1.0592  2.1084
   79SOL     OW  235   2.362   1.389   2.229 -0.0681  0.7241 -0.1269
   79SOL    HW1  236   2.378   1.484   2.265  0.6350  1.1690  3.7847
   79SOL    HW2  237   2.412   1.322   2.287  1.3780  1.1224 -1.8872
   80SOL     OW  238   1.957   1.600   1.755 -0.1637  0.3197 -0.4416
   80SOL    HW1  239   1.951   1.512   1.698  0.0934 -2.3067 -0.7960
   80SOL    HW2  240   1.872   1.655   1.751  0.7981 -1.0136  0.2619
   81SOL     OW  241   1.413   0.723   1.355 -0.1109 -1.0756  0.1420
   81SOL    HW1  242   1.333   0.669   1.380 -1.0281 -0.2978  0.2658
   81SOL    HW2  243   1.384   0.804   1.300  0.5291  1.5978 -0.5631
   82SOL     OW  244   1.579   2.732   1.602 -0.5962 -0.2013 -0.1701
   82SOL    HW1  245   1.571   2.672   1.521  3.3550  2.0465  0.6100
   82SOL    HW2  246   1.495   2.791   1.596  0.9405 -1.1729  0.6686
   83SOL     OW  247   0.245   0.004   0.514  0.1643 -0.0281 -0.2745
   83SOL    HW1  248   0.289   3.075   0.602  2.1425  0.1070  2.2459
   83SOL    HW2  249   0.160   3.062   0.488 -1.9462  0.4481 -2.5637
   84SOL     OW  250   0.535   1.263   3.086  1.0562  0.3066 -0.4353
   84SOL    HW1  251   0.460   1.275   3.017 -2.6427 -0.6279 -2.7784
   84SOL    HW2  252   0.499   1.259   0.074  0.5040  1.5989  0.8858
   85SOL     OW  253   2.569   2.020   1.677  0.2710 -0.3030  0.2842
   85SOL    HW1  254   2.573   1.932   1.627 -0.1060  2.9036  0.8169
   85SOL    HW2  255   2.564   2.003   1.778 -2.3013 -1.6531  2.3653
   86SOL     OW  256   3.075   2.629   1.543  0.5054 -0.3617 -0.5893
   86SOL    HW1  257   3.048   2.532   1.564 -0.7599  2.6467  1.5277
   86SOL    HW2  258   0.013   2.639   1.453 -0.2815 -0.7961  1.1514
   87SOL     OW  259   0.754   0.283   2.589 -0.0778  0.1946 -0.0314
   87SOL    HW1  260   0.779   0.296   2.493  1.1054  0.1632 -0.2826
   87SOL    HW2  261   0.662   0.236   2.597  0.1920 -0.8850  0.4948
   88SOL     OW  262   0.471   2.368   1.098 -0.3125  0.2483 -0.8016
   88SOL    HW1  263   0.479   2.316   1.014 -0.6912  1.7224 -0.3111
   88SOL    HW2  264   0.452   2.311   1.184 -2.2250 -0.2672  1.4922
   89SOL     OW  265   1.057   0.812   1.365  0.4631  0.1095  0.4713
   89SOL    HW1  266   1.114   0.755   1.427 -0.5083 -1.2685 -0.2590
   89SOL    HW2  267   0.966   0.831   1.402  0.8329 -0.0870  0.9178
   90SOL     OW  268   2.954   1.520   1.618  0.4080 -0.2589 -0.3049
   90SOL    HW1  269   2.919   1.614   1.593 -0.0664 -0.2551 -0.0322
   90SOL    HW2  270   3.008   1.521   1.706 -0.3492  0.6177  1.3687
   91SOL     OW  271   1.111   1.020   0.985 -0.1280 -0.3945 -0.5745
   91SOL    HW1  272   1.211   1.012   1.002 -2.6057 -0.2015  1.1609
   91SOL    HW2  273   1.076   0.940   0.930 -1.3199  1.7584  0.7263
   92SOL     OW  274   2.702   0.587   1.017 -0.2388 -0.1196 -0.5967
   92SOL    HW1  275   2.638   0.607   1.097 -0.0693  0.0821 -0.3998
   92SOL    HW2  276   2.641   0.582   0.933  3.6540  1.0704  0.7871
   93SOL     OW  277   1.842   0.794   2.910 -0.0570  0.3178 -0.1269
   93SOL    HW1  278   1.765   0.778   2.968 -0.3926 -0.6060  1.0898
   93SOL    HW2  279   1.819   0.744   2.826 -0.7562  1.2347 -2.3165
   94SOL     OW  280   2.419   1.651   2.307  0.1323  0.1644  0.0792
   94SOL    HW1  281   2.354   1.716   2.261 -0.2695  1.2748  0.5809
   94SOL    HW2  282   2.513   1.681   2.298 -0.4989 -0.9562  0.9313
   95SOL     OW  283   2.059   0.666   1.388 -0.0604  0.1482 -0.3713
   95SOL    HW1  284   1.965   0.703   1.368 -1.3755  0.7768  0.5393
   95SOL    HW2  285   2.099   0.657   1.292 -0.6571  1.7806 -2.9090
   96SOL     OW  286   2.442   3.081   2.236  0.0963 -0.0672  0.4239
   96SOL    HW1  287   2.415   3.094   2.136 -2.8577 -0.7776  1.0786
   96SOL    HW2  288   2.539   3.081   2.252 -1.8326 -0.2022  3.3233
   97SOL     OW  289   2.389   0.438   1.341 -0.5583  0.5479  0.0021
   97SOL    HW1  290   2.480   0.419   1.380  1.0718  0.7012  3.6359
   97SOL    HW2  291   2.315   0.433   1.412 -1.3825 -0.6524  1.9900
   98SOL     OW  292   1.550   2.471   1.473 -0.3736 -0.2022  0.5127
   98SOL    HW1  293   1.483   2.413   1.526  1.1343 -0.3768  1.5100
   98SOL    HW2  294   1.646   2.429   1.456  1.8535  1.3021 -0.6726
   99SOL     OW  295   2.318   2.088   1.615  0.2915 -0.3315 -0.1241
   99SOL    HW1  296   2.414   2.106   1.601  0.9523 -2.5381 -1.8033
   99SOL    HW2  297   2.287   2.027   1.537  0.2726 -2.0790  2.0161
  100SOL     OW  298   0.647   1.034   2.730 -0.2785  0.0697  0.8172
  100SOL    HW1  299   0.551   1.002   2.723  1.5302  1.1889  2.0652
  100SOL    HW2  300   0.686   1.022   2.825  0.9322  1.7089 -0.3438
  101SOL     OW  301   2.027   0.445   2.937  0.3372  0.1318  0.1146
  101SOL    HW1  302   2.100   0.385   2.973  1.2721  2.5499 -0.7542
  101SOL    HW2  303   2.056   0.543   2.948 -0.4160 -0.0198 -1.2300
  102SOL     OW  304   0.289   0.829   1.853  0.2917  0.2165 -0.5755
  102SOL    HW1  305   0.380   0.852   1.894  0.1493  0.6296 -0.7026
  102SOL    HW2  306   0.228   0.779   1.920  0.0579  2.0770 -1.6814
  103SOL     OW  307   2.987   0.498   2.756  0.1377  0.2159 -0.5269
  103SOL    HW1  308   3.043   0.482   2.836 -2.2398 -0.1921 -1.1656
  103SOL    HW2  309   3.029   0.580   2.708  0.6240 -1.0256  0.4943
  104SOL     OW  310   0.779   0.524   2.769 -0.6256  0.2821  0.6504
  104SOL    HW1  311   0.692   0.577   2.765 -0.2408 -0.8593  3.0340
  104SOL    HW2  312   0.769   0.447   2.701  0.5449 -2.0105 -1.5427
  105SOL     OW  313   2.219   1.718   1.681  0.1105 -0.4311  0.1184
  105SOL    HW1  314   2.147   1.646   1.670  0.2620  1.7350  0.1439
  105SOL    HW2  315   2.174   1.809   1.704 -2.9573 -1.5224  0.4405
  106SOL     OW  316   2.131   0.657   0.639  0.2893  0.2908  0.3199
  106SOL    HW1  317   2.050   0.597   0.618  3.4111 -0.7572  0.3415
  106SOL    HW2  318   2.113   0.755   0.629  0.0318 -1.2011 -2.0613
  107SOL     OW  319   2.988   1.741   0.689 -0.3450 -0.2036  0.2508
  107SOL    HW1  320   3.032   1.787   0.773  1.4992  1.1819  0.6478
  107SOL    HW2  321   3.000   1.797   0.606  0.0622  2.5419  2.7209
  108SOL     OW  322   2.790   2.679   1.528  0.2929  0.2925  0.3993
  108SOL    HW1  323   2.889   2.686   1.528 -1.6526 -0.7933  0.7380
  108SOL    HW2  324   2.758   2.730   1.444 -0.9091  2.0773 -1.8486
  109SOL     OW  325   1.899   0.038   0.913 -0.2691  0.1457 -0.1930
  109SOL    HW1  326   1.844   0.012   0.828  0.2834 -0.4048 -1.8344
  109SOL    HW2  327   1.990   3.098   0.911 -1.3293  0.3515  2.5042
  110SOL     OW  328   0.691   2.132   2.847  0.7056 -0.6129  0.1858
  110SOL    HW1  329   0.693   2.031   2.835  1.0740 -1.4904 -0.9380
  110SOL    HW2  330   0.749   2.168   2.773 -1.1967  0.8436 -0.7452
  111SOL     OW  331   1.366   2.475   2.173 -0.1381  0.3503 -0.2237
  111SOL    HW1  332   1.355   2.474   2.072 -0.2742  0.3838 -0.1921
  111SOL    HW2  333   1.433   2.547   2.188 -0.9543  0.8025 -0.5264
  112SOL     OW  334   2.087   2.332   3.100  0.3897  0.0398 -0.1811
  112SOL    HW1  335   2.125   2.424   3.085 -1.3673 -1.0487  1.2308
  112SOL    HW2  336   1.985   2.333   0.001 -0.1608  0.5601  0.2614
  113SOL     OW  337   1.394   2.219   1.273  0.0075 -0.0698  0.0151
  113SOL    HW1  338   1.475   2.247   1.216 -1.1351 -1.3928 -0.4629
  113SOL    HW2  339   1.404   2.130   1.318  0.9871  0.5953 -1.0094
  114SOL     OW  340   3.065   0.895   0.801  0.1412  0.0659  0.1986
  114SOL    HW1  341   2.997   0.935   0.867  0.7664 -2.4490 -5.0996
  114SOL    HW2  342   3.022   0.830   0.731 -0.3659 -2.3502 -1.3554
  115SOL     OW  343   0.697   1.040   3.016  0.0770  0.2650 -0.5209
  115SOL    HW1  344   0.641   1.123   3.035 -1.0788  0.7794  1.1234
  115SOL    HW2  345   0.674   0.967   3.083  0.4441 -1.2666 -0.7397
  116SOL     OW  346   2.525   1.251   2.378 -0.3623 -0.3529  0.0458
  116SOL    HW1  347   2.501   1.237   2.475 -1.5209  2.5331 -3.4301
  116SOL    HW2  348   2.567   1.165   2.335  2.3575  0.1761 -1.3506
  117SOL     OW  349   0.424   2.740   0.630 -0.1269  0.0298  0.0573
  117SOL    HW1  350   0.518   2.766   0.609  0.7963 -2.5122 -0.3514
  117SOL    HW2  351   0.367   2.706   0.549 -0.6857  1.5116 -0.4419
  118SOL     OW  352   0.798   1.932   2.438  0.4378 -0.0456 -0.3432
  118SOL    HW1  353   0.853   1.862   2.485 -1.5100 -1.5060  2.0142
  118SOL    HW2  354   0.831   2.022   2.456  1.3084  1.9645 -0.4380
  119SOL     OW  355   0.134   2.350   2.717 -0.0540 -0.0971  0.1722
  119SOL    HW1  356   0.173   2.254   2.718  0.0034  3.5001 -1.5482
  119SOL    HW2  357   0.151   2.397   2.803  0.2497  0.4132 -0.7104
  120SOL     OW  358   1.208   0.602   0.038  0.4264  0.2466 -0.1758
  120SOL    HW1  359   1.197   0.685   3.090 -0.8103  1.9276 -2.8281
  120SOL    HW2  360   1.112   0.570   0.056 -1.7008  0.2171 -2.6374
  121SOL     OW  361   1.284   2.910   1.042 -0.0614 -0.6168  0.3719
  121SOL    HW1  362   1.351   2.840   1.013  2.0203 -0.2396  1.5441
  121SOL    HW2  363   1.320   2.998   1.014 -0.7269 -3.2862  0.4017
  122SOL     OW  364   2.510   2.571   1.464 -0.8760  0.0238  0.4909
  122SOL    HW1  365   2.576   2.572   1.544 -0.0645  0.3498  0.3826
  122SOL    HW2  366   2.444   2.649   1.477  1.2931  0.9006  1.7669
  123SOL     OW  367   0.651   2.465   0.667 -0.4726 -0.3256  0.3884
  123SOL    HW1  368   0.624   2.542   0.602  1.1051  2.4191 -1.1941
  123SOL    HW2  369   0.601   2.474   0.756  1.4510 -1.2663  1.6930
  124SOL     OW  370   2.167   0.602   0.193 -0.2462 -0.1174 -0.1445
  124SOL    HW1  371   2.106   0.548   0.135  1.8875 -1.5432  0.7591
  124SOL    HW2  372   2.260   0.592   0.152  3.1670  0.0274 -0.3125
  125SOL     OW  373   0.564   1.041   0.364  0.4925  0.1142  0.1153
  125SOL    HW1  374   0.564   0.983   0.444 -1.9572  3.4099 -0.7488
  125SOL    HW2  375   0.649   1.093   0.362 -3.1778 -1.4093  0.7731
  126SOL     OW  376   3.096   1.492   0.609 -0.2697 -0.2973  0.3728
  126SOL    HW1  377   3.057   1.409   0.652  0.8631  1.9360 -1.4249
  126SOL    HW2  378   3.044   1.573   0.645  0.7668  0.0487 -0.5247
  127SOL     OW  379   0.566   1.941   2.254 -0.0840 -0.0834 -0.1919
  127SOL    HW1  380   0.550   1.881   2.174 -0.8274 -0.3921 -1.0217
  127SOL    HW2  381   0.657   1.920   2.299 -1.4576  1.3427  2.7173
  128SOL     OW  382   0.982   1.025   2.983 -0.3159 -0.2439 -0.1718
  128SOL    HW1  383   0.983   1.072   2.894 -0.3954  1.2405  0.5282
  128SOL    HW2  384   0.886   1.019   3.020 -0.3311  0.6612  3.0549
  129SOL     OW  385   2.545   1.280   0.639 -0.0095  0.8436  0.2095
  129SOL    HW1  386   2.476   1.236   0.699  1.4301  1.1544  0.8141
  129SOL    HW2  387   2.554   1.381   0.649 -0.2547 -0.3447  1.9013
  130SOL     OW  388   2.230   1.135   1.449  0.1035 -0.4511 -0.1601
  130SOL    HW1  389   2.243   1.075   1.528 -1.3069 -0.1997 -0.9248
  130SOL    HW2  390   2.253   1.229   1.472 -1.9205  0.5267  0.9190
  131SOL     OW  391   0.028   2.919   2.972  0.5490  0.1714 -0.0064
  131SOL    HW1  392   0.092   2.841   2.995  1.7351  0.4323  0.9850
  131SOL    HW2  393   0.005   2.975   3.054  1.9148 -0.1180 -0.4730
  132SOL     OW  394   0.266   1.740   1.026 -0.4549 -0.1930  0.0781
  132SOL    HW1  395   0.331   1.754   0.948  1.3415 -0.6396  0.1661
  132SOL    HW2  396   0.233   1.831   1.060 -1.0082  1.2924  4.5702
  133SOL     OW  397   0.949   0.489   1.355 -0.3857  0.3432 -0.5461
  133SOL    HW1  398   1.018   0.412   1.365  1.4705 -0.0271 -1.5715
  133SOL    HW2  399   0.947   0.544   1.438 -1.0522 -0.7614 -2.0200
  134SOL     OW  400   0.105   1.901   0.139 -0.2906  0.2652 -0.2970
  134SOL    HW1  401   0.068   1.894   0.045 -0.3752 -0.8295 -1.0523
  134SOL    HW2  402   0.098   1.996   0.175 -0.9107  0.6462  0.6316
  135SOL     OW  403   1.683   0.915   1.674 -0.2159  0.3076  0.3665
  135SOL    HW1  404   1.725   0.967   1.594  0.8910 -0.3768  0.4024
  135SOL    HW2  405   1.640   0.828   1.645 -1.3803  3.3651 -2.0393
  136SOL     OW  406   0.136   1.207   0.237  0.3079 -0.1096 -0.1910
  136SOL    HW1  407   0.125   1.299   0.286 -1.7944  3.0901  1.1921
  136SOL    HW2  408   0.070   1.136   0.270  0.4314 -1.4957  0.5991
  137SOL     OW  409   3.081   1.266   1.021  0.7227 -0.3175 -0.7581
  137SOL    HW1  410   0.045   1.190   1.013  0.4375  0.9395  1.3640
  137SOL    HW2  411   0.006   1.361   1.037  1.8938  3.1109 -0.9007
  138SOL     OW  412   1.843   0.849   0.911  0.1602  0.5673 -0.4157
  138SOL    HW1  413   1.807   0.754   0.938 -1.3387 -1.4192 -0.0431
  138SOL    HW2  414   1.893   0.893   0.987 -1.3034 -2.7585  1.6967
  139SOL     OW  415   1.668   2.703   0.256 -0.5179  0.2359  0.4170
  139SOL    HW1  416   1.656   2.795   0.223 -1.4779 -2.7499  1.0040
  139SOL    HW2  417   1.747   2.690   0.319 -0.3769  1.3667 -0.0623
  140SOL     OW  418   1.375   1.559   1.599  0.1305  0.2848  0.1655
  140SOL    HW1  419   1.421   1.475   1.576 -0.3012  1.1088 -1.3933
  140SOL    HW2  420   1.276   1.555   1.583  1.4039  1.1521  1.6577
  141SOL     OW  421   1.709   1.952   0.595  0.7258  0.2763 -0.0940
  141SOL    HW1  422   1.754   1.927   0.508 -0.6839  0.5320 -1.8169
  141SOL    HW2  423   1.717   1.878   0.666  2.8719 -0.9394 -0.2894
  142SOL     OW  424   0.941   0.486   0.092 -0.4914 -0.2783  0.9414
  142SOL    HW1  425   0.963   0.425   0.170 -3.5731 -0.1183 -1.5707
  142SOL    HW2  426   0.907   0.578   0.114  0.2997 -0.8941  0.1566
  143SOL     OW  427   0.290   2.388   3.004  0.1419 -0.2987  0.5441
  143SOL    HW1  428   0.363   2.334   2.953  0.7611  1.3853  0.0591
  143SOL    HW2  429   0.333   2.445   3.078 -1.6317 -1.1935 -2.2483
  144SOL     OW  430   1.455   0.032   1.030  0.1109 -0.9981  0.5239
  144SOL    HW1  431   1.428   0.132   1.021 -0.7567  0.2910 -1.4730
  144SOL    HW2  432   1.545   0.023   1.079  0.3122 -0.2982  3.3497
  145SOL     OW  433   2.106   1.339   0.163 -0.5737  0.1138 -0.4518
  145SOL    HW1  434   2.070   1.344   0.256  3.1516 -1.0469 -2.7427
  145SOL    HW2  435   2.042   1.369   0.090 -1.1635  1.8556 -0.2740
  146SOL     OW  436   0.013   2.240   0.934  0.5223  0.0313 -0.1997
  146SOL    HW1  437   3.046   2.241   0.866  0.1957  1.1274  0.0811
  146SOL    HW2  438   0.008   2.315   1.004 -0.2286 -0.2885  1.8165
  147SOL     OW  439   2.366   0.043   1.575 -0.0804 -0.0277  0.3720
  147SOL    HW1  440   2.408   3.081   1.634 -3.0851  1.4842  0.2955
  147SOL    HW2  441   2.431   0.065   1.498 -0.1589 -0.9848 -0.7273
  148SOL     OW  442   1.283   2.984   1.908  0.3727 -0.2935  1.0317
  148SOL    HW1  443   1.229   3.009   1.825 -2.3330  1.7510 -0.4652
  148SOL    HW2  444   1.242   2.914   1.969  0.3936  1.5145  0.3574
  149SOL     OW  445   1.789   0.211   2.192 -0.3276 -0.2273  0.0960
  149SOL    HW1  446   1.793   0.302   2.237  1.4659 -0.8729 -2.0875
  149SOL    HW2  447   1.760   0.221   2.096 -0.8476 -0.2141  1.5474
  150SOL     OW  448   0.095   2.798   0.245 -0.6918 -0.0880 -0.4296
  150SOL    HW1  449   0.094   2.891   0.210  2.4350 -1.8755 -0.1612
  150SOL    HW2  450   0.026   2.779   0.319 -0.4067  0.3413 -0.9122
  151SOL     OW  451   0.417   2.543   0.093  0.0885  0.2923  0.1318
  151SOL    HW1  452   0.333   2.561   0.145 -2.0401  0.8239  0.7059
  151SOL    HW2  453   0.496   2.598   0.126 -3.6666  1.4120  0.6309
  152SOL     OW  454   2.767   3.047   0.846 -0.1252 -0.2696  0.0363
  152SOL    HW1  455   2.846   2.987   0.843 -0.5659  0.5007 -0.5839
  152SOL    HW2  456   2.795   0.038   0.853 -0.8994  3.7512 -2.2501
  153SOL     OW  457   2.457   0.102   1.007 -0.3719  0.6444 -0.5652
  153SOL    HW1  458   2.430   0.018   0.965 -0.4752  0.2567  1.4261
  153SOL    HW2  459   2.512   0.157   0.946 -1.4567 -1.7735  1.0962
  154SOL     OW  460   0.686   0.571   2.102  0.2005  0.2836  0.3419
  154SOL    HW1  461   0.757   0.593   2.172  1.5971 -0.5228  0.7325
  154SOL    HW2  462   0.726   0.532   2.015  0.6642 -0.7056  0.9479
  155SOL     OW  463   0.050   1.251   1.306  0.0531  0.0669 -0.5179
  155SOL    HW1  464   0.008   1.240   1.215 -0.0037  1.9732 -1.1574
  155SOL    HW2  465   0.140   1.299   1.308 -0.0868  3.5692  2.8224
  156SOL     OW  466   2.626   2.035   3.022  0.0263 -0.1168 -0.2422
  156SOL    HW1  467   2.657   1.981   3.098 -1.6358  2.6151  1.2914
  156SOL    HW2  468   2.528   2.022   3.013 -0.4106 -2.0824  0.6955
  157SOL     OW  469   0.812   0.698   0.204 -0.2180  0.0627 -0.1841
  157SOL    HW1  470   0.768   0.638   0.278  1.8154  1.5592  2.8051
  157SOL    HW2  471   0.884   0.754   0.247  0.0660 -1.6125 -0.6166
  158SOL     OW  472   2.528   0.012   2.575 -0.1960  0.0539  0.1951
  158SOL    HW1  473   2.623   0.003   2.533 -1.3123 -2.1788 -0.5960
  158SOL    HW2  474   2.480   0.094   2.538  0.4560 -1.0366 -0.7539
  159SOL     OW  475   0.643   0.291   0.492  0.0462  0.0946  0.0927
  159SOL    HW1  476   0.581   0.232   0.544 -0.8965 -0.0953 -1.1494
  159SOL    HW2  477   0.733   0.293   0.537  1.9503  1.1747 -0.5273
  160SOL     OW  478   1.234   1.732   2.658  0.1748 -0.3202  0.2731
  160SOL    HW1  479   1.228   1.783   2.574 -0.4781 -0.6193  0.1095
  160SOL    HW2  480   1.215   1.635   2.636  0.8449  2.5969  1.3973
  161SOL     OW  481   0.022   1.087   2.600 -0.2714 -0.4367 -0.5428
  161SOL    HW1  482   0.014   1.157   2.527  0.5508  0.5484 -0.2735
  161SOL    HW2  483   0.000   1.133   2.688  0.0857 -3.2052 -2.7770
  162SOL     OW  484   0.526   2.456   1.462  0.2998 -0.2193 -0.2996
  162SOL    HW1  485   0.444   2.512   1.497 -1.8259  0.0182 -1.6801
  162SOL    HW2  486   0.494   2.370   1.423  3.9737  1.7286 -0.2359
  163SOL     OW  487   2.267   0.289   2.198  0.2044  0.0621 -0.4930
  163SOL    HW1  488   2.208   0.236   2.259  1.2017  0.3413  0.4935
  163SOL    HW2  489   2.230   0.381   2.183  2.4422 -2.5082  1.6543
  164SOL     OW  490   2.416   1.229   0.394  0.4177 -0.6546  0.1526
  164SOL    HW1  491   2.480   1.262   0.470  3.3466  1.2058  4.1336
  164SOL    HW2  492   2.364   1.314   0.357  0.6639  1.0670  1.6648
  165SOL     OW  493   0.280   0.397   1.569  0.8056  0.2475 -0.1062
  165SOL    HW1  494   0.282   0.428   1.669  2.8042  1.0934  2.8599
  165SOL    HW2  495   0.368   0.348   1.549 -1.0734 -3.6935 -0.0029
  166SOL     OW  496   2.074   1.087   0.370 -0.8243  0.0744 -0.4648
  166SOL    HW1  497   1.998   1.020   0.370  1.6054  0.6696 -0.6725
  166SOL    HW2  498   2.156   1.047   0.319  1.7968  0.3895  0.1155
  167SOL     OW  499   3.006   0.546   0.435 -0.0880  0.0535  0.0489
  167SOL    HW1  500   2.983   0.468   0.377  1.2244 -0.7747 -0.0951
  167SOL    HW2  501   3.075   0.507   0.502  3.4033 -1.8230  1.0699
  168SOL     OW  502   1.567   2.684   2.228  0.0418  0.4673 -0.0542
  168SOL    HW1  503   1.635   2.732   2.169  0.7918  0.2599  2.6467
  168SOL    HW2  504   1.497   2.744   2.265  2.2292 -1.8152  0.6407
  169SOL     OW  505   0.921   1.604   0.778  0.2464 -0.1789 -0.0250
  169SOL    HW1  506   1.025   1.618   0.774  0.2417  1.8598 -2.9408
  169SOL    HW2  507   0.895   1.559   0.689 -1.6669 -0.5370 -0.0363
  170SOL     OW  508   0.090   0.572   1.167  0.4146 -0.3792 -0.9564
  170SOL    HW1  509   0.113   0.589   1.071  2.6959  2.8485  0.9520
  170SOL    HW2  510   0.006   0.515   1.185  1.3566  0.6836  2.8929
  171SOL     OW  511   1.321   2.197   2.714  0.4090 -0.0057  0.2669
  171SOL    HW1  512   1.261   2.160   2.788 -2.8348 -0.1165  0.5651
  171SOL    HW2  513   1.404   2.247   2.743 -2.7010  1.0294 -1.0389
  172SOL     OW  514   0.143   2.939   1.229 -0.3697 -0.5642 -0.0113
  172SOL    HW1  515   0.212   2.931   1.158 -2.1846  1.0499  4.0232
  172SOL    HW2  516   0.177   3.007   1.297 -0.0425 -1.5021 -2.2925
  173SOL     OW  517   1.481   0.765   2.752  0.0099 -0.2606  0.4774
  173SOL    HW1  518   1.564   0.713   2.790 -0.1704  1.0658  0.5794
  173SOL    HW2  519   1.497   0.799   2.655 -1.7638  1.4942 -1.6744
  174SOL     OW  520   1.669   2.902   2.808 -0.1744  0.0785  0.1802
  174SOL    HW1  521   1.581   2.909   2.757 -1.0685  0.1722  0.2806
  174SOL    HW2  522   1.643   2.849   2.893 -2.1140 -1.3431 -0.1999
  175SOL     OW  523   2.061   2.379   0.469 -0.2778  0.5823 -0.3254
  175SOL    HW1  524   2.039   2.284   0.510  0.3511 -6.5303  1.8370
  175SOL    HW2  525   2.145   2.429   0.502 -0.1860 -1.3313  2.7265
  176SOL     OW  526   1.839   0.001   2.912  0.0508  1.0240 -0.2845
  176SOL    HW1  527   1.775   3.039   2.870 -1.9724  1.1670 -1.4920
  176SOL    HW2  528   1.910   0.025   2.845  0.0420 -2.5279 -0.1681
  177SOL     OW  529   1.055   1.886   0.656  0.4526  0.4154 -0.1808
  177SOL    HW1  530   0.965   1.929   0.639  0.8672  0.0215 -2.3657
  177SOL    HW2  531   1.122   1.938   0.599 -2.5356 -1.7416  1.3521
  178SOL     OW  532   2.730   2.251   0.067 -0.1020 -0.5448  0.1456
  178SOL    HW1  533   2.726   2.188   3.099  0.9342  3.5957 -0.4199
  178SOL    HW2  534   2.665   2.223   0.139 -0.4100  0.0884 -1.6376
  179SOL     OW  535   0.215   2.763   2.692 -0.2523  0.3516 -0.4345
  179SOL    HW1  536   0.119   2.751   2.655 -1.1162  0.1195 -3.2251
  179SOL    HW2  537   0.268   2.824   2.632 -0.8130 -0.2497  1.2208
  180SOL     OW  538   1.707   1.241   0.874 -0.2522  0.4637 -0.0520
  180SOL    HW1  539   1.655   1.308   0.820  2.0837  0.0524 -3.8324
  180SOL    HW2  540   1.669   1.145   0.875 -1.4781  0.4684  1.0882
  181SOL     OW  541   2.030   0.913   2.044  0.4668  0.0098 -0.0918
  181SOL    HW1  542   1.991   0.898   2.136  2.4780 -1.8936 -0.3095
  181SOL    HW2  543   1.968   0.884   1.968 -0.4524  0.2438  0.6939
  182SOL     OW  544   2.777   3.008   2.492 -0.1096 -0.0147  0.6525
  182SOL    HW1  545   2.841   3.042   2.570  2.7779  1.1811 -0.4951
  182SOL    HW2  546   2.792   2.910   2.466  0.5802 -0.8390  0.1027
  183SOL     OW  547   1.427   0.629   2.085 -0.2427 -0.1909  0.1258
  183SOL    HW1  548   1.495   0.690   2.041  0.5545  0.0612  1.9526
  183SOL    HW2  549   1.460   0.531   2.074  0.9155  1.4926 -1.8091
  184SOL     OW  550   0.277   1.097   1.476 -0.4671  0.0180 -0.0516
  184SOL    HW1  551   0.276   1.179   1.533 -0.8121 -0.5234  0.0812
  184SOL    HW2  552   0.262   1.010   1.532 -1.1261 -0.3112  0.6725
  185SOL     OW  553   1.917   0.487   0.563 -0.1180 -0.6128  0.2115
  185SOL    HW1  554   1.841   0.530   0.613 -1.3617  2.1545 -1.2506
  185SOL    HW2  555   1.887   0.474   0.468 -1.0901 -0.3588 -1.8331
  186SOL     OW  556   0.825   2.728   3.047 -0.4613 -0.0015 -0.0272
  186SOL    HW1  557   0.728   2.759   3.053  1.0933  0.7395 -0.2872
  186SOL    HW2  558   0.841   2.720   2.944 -1.5421 -1.0078  0.6102
  187SOL     OW  559   2.476   0.781   2.994 -0.4709  0.6662  0.1501
  187SOL    HW1  560   2.393   0.837   2.988  0.1188  1.7784  1.0296
  187SOL    HW2  561   2.501   0.745   2.904 -1.2484  1.4989 -1.9642
  188SOL     OW  562   3.020   1.639   1.335  0.0200  0.4140 -0.1856
  188SOL    HW1  563   3.096   1.708   1.344 -0.4178  1.4195 -0.1622
  188SOL    HW2  564   3.026   1.582   1.418 -2.2798 -0.5291  0.3665
  189SOL     OW  565   2.507   0.308   0.123 -0.1196 -0.7295  0.0252
  189SOL    HW1  566   2.606   0.274   0.114 -0.7064 -1.7790 -0.7831
  189SOL    HW2  567   2.493   0.358   0.210 -0.0617  1.9253  1.7223
  190SOL     OW  568   1.188   1.425   1.991 -0.5037 -0.1700 -0.6061
  190SOL    HW1  569   1.147   1.419   2.088 -0.5806 -0.4806  2.0502
  190SOL    HW2  570   1.288   1.403   1.981  0.6223  1.5370  1.8573
  191SOL     OW  571   2.994   0.574   1.698 -0.1601  0.9192  1.1344
  191SOL    HW1  572   2.993   0.491   1.638  0.5329 -1.5548 -1.0936
  191SOL    HW2  573   2.905   0.579   1.742 -0.2924 -1.4703  3.1500
  192SOL     OW  574   2.051   1.546   1.339 -0.1740 -0.3305 -0.4448
  192SOL    HW1  575   2.128   1.612   1.348 -0.6142 -0.7287  0.2645
  192SOL    HW2  576   2.084   1.456   1.312 -2.8838  0.9868  2.0570
  193SOL     OW  577   1.180   0.744   1.130  0.0118 -0.1544 -0.1941
  193SOL    HW1  578   1.155   0.793   1.216  0.5910 -1.3969  1.3186
  193SOL    HW2  579   1.113   0.673   1.109 -0.7448 -0.9255 -0.3804
  194SOL     OW  580   1.150   2.557   1.609 -0.1324 -0.1796  0.5873
  194SOL    HW1  581   1.224   2.628   1.608 -0.4604  0.9422  0.5637
  194SOL    HW2  582   1.075   2.586   1.671  4.6790  2.4668 -0.8344
  195SOL     OW  583   2.139   0.149   2.788 -0.3246 -0.3295  0.7160
  195SOL    HW1  584   2.172   0.057   2.774 -2.3907  1.7849 -1.1399
  195SOL    HW2  585   2.172   0.188   2.876  0.0374 -3.0401 -0.9160
  196SOL     OW  586   1.123   2.291   1.781  0.3605  0.0018 -0.6672
  196SOL    HW1  587   1.037   2.266   1.730 -4.0188 -0.3946 -1.9733
  196SOL    HW2  588   1.127   2.387   1.787  1.3040 -1.8771 -1.5700
  197SOL     OW  589   0.993   2.903   1.011 -0.1806  0.3786  0.1574
  197SOL    HW1  590   0.955   2.823   0.964  0.3304 -0.7627  1.7913
  197SOL    HW2  591   1.092   2.893   1.017  0.1120  0.9244  0.4532
  198SOL     OW  592   0.970   0.832   0.778  0.1882 -0.1598 -0.0499
  198SOL    HW1  593   0.910   0.830   0.862 -0.7137  1.7955  4.2155
  198SOL    HW2  594   0.921   0.861   0.692 -0.7090 -1.3273 -0.1539
  199SOL     OW  595   0.043   2.640   1.814  0.0934  0.1512 -0.5339
  199SOL    HW1  596   0.072   2.640   1.718  1.8867 -0.8872 -0.7351
  199SOL    HW2  597   0.116   2.602   1.871  0.0717  1.6426  2.2026
  200SOL     OW  598   2.012   1.987   2.294  0.1416  0.0337  0.7392
  200SOL    HW1  599   2.069   1.948   2.368 -1.7194 -1.3571 -1.2719
  200SOL    HW2  600   2.056   1.974   2.202  0.1618 -0.1943 -2.0959
  201SOL     OW  601   0.080   1.948   1.644 -0.3950 -0.3868  0.1705
  201SOL    HW1  602   0.121   2.012   1.578 -0.8485 -2.0958  0.8983
  201SOL    HW2  603   3.100   1.978   1.679 -1.9523 -1.9225 -2.2348
  202SOL     OW  604   2.541   0.153   0.643  0.1282 -0.3750  0.0919
  202SOL    HW1  605   2.531   0.209   0.554  0.4091  0.2555 -0.8844
  202SOL    HW2  606   2.594   0.073   0.614 -1.2309  0.3724 -0.4353
  203SOL     OW  607   1.126   2.275   2.229 -0.0313 -0.6636  0.1386
  203SOL    HW1  608   1.142   2.221   2.313  0.8385  1.4561 -0.4679
  203SOL    HW2  609   1.211   2.293   2.184 -0.4790  0.1845  1.4824
  204SOL     OW  610   1.344   2.128   1.742  0.2658  0.2139 -0.7183
  204SOL    HW1  611   1.397   2.175   1.670  0.1616 -0.1249 -0.3142
  204SOL    HW2  612   1.265   2.188   1.765  1.4487  2.8030  1.1621
  205SOL     OW  613   1.331   1.656   1.948  0.3433 -0.9580  0.5052
  205SOL    HW1  614   1.430   1.633   1.932 -0.6908  0.2997  1.2064
  205SOL    HW2  615   1.275   1.574   1.962  0.0962 -0.7851  1.5260
  206SOL     OW  616   0.213   0.911   2.484 -0.0737 -0.1934  0.2949
  206SOL    HW1  617   0.214   0.890   2.385  1.8178 -0.5472  0.7284
  206SOL    HW2  618   0.148   0.988   2.502  1.8115 -1.9121 -0.1908
  207SOL     OW  619   1.155   3.084   1.645  0.0200  0.6280 -0.0220
  207SOL    HW1  620   1.193   0.068   1.671 -1.5248  1.3999  0.3443
  207SOL    HW2  621   1.099   3.094   1.563  0.4837  1.7688  1.7966
  208SOL     OW  622   0.645   2.694   1.799 -0.2777  0.6561 -0.4814
  208SOL    HW1  623   0.631   2.763   1.725 -2.0872 -0.7746 -1.3079
  208SOL    HW2  624   0.575   2.705   1.869  0.4605 -0.3648 -3.1932
  209SOL     OW  625   1.403   0.743   0.171 -0.4850  0.4339 -0.4266
  209SOL    HW1  626   1.502   0.758   0.148  2.2667  2.2097  1.1650
  209SOL    HW2  627   1.350   0.675   0.109  0.6688 -0.0402 -0.6739
  210SOL     OW  628   2.897   0.181   0.610  0.1821 -0.0788 -0.2381
  210SOL    HW1  629   2.885   0.233   0.700 -0.3417  0.8944  1.3979
  210SOL    HW2  630   2.840   0.224   0.538  2.4376 -2.9505 -0.6572
  211SOL     OW  631   0.515   0.539   1.331  0.1763 -0.1939 -0.3955
  211SOL    HW1  632   0.475   0.625   1.293 -1.6882  0.3816 -2.1663
  211SOL    HW2  633   0.532   0.550   1.430 -2.3519 -1.8559 -0.8706
  212SOL     OW  634   1.023   1.844   1.220  0.0964  0.0438 -0.5190
  212SOL    HW1  635   1.080   1.825   1.300  1.2737  1.6877  1.4342
  212SOL    HW2  636   0.963   1.923   1.237  0.4810 -1.2398 -2.3043
  213SOL     OW  637   2.009   0.202   1.920  0.2481 -0.6407 -0.1340
  213SOL    HW1  638   2.037   0.182   1.825  2.2752 -0.9546  0.9633
  213SOL    HW2  639   2.025   0.116   1.975 -0.6457  0.3646  0.7018
  214SOL     OW  640   0.804   2.431   2.498  0.1968 -0.6499 -0.3773
  214SOL    HW1  641   0.897   2.456   2.457  2.0462  0.5230 -1.7149
  214SOL    HW2  642   0.734   2.408   2.429 -0.9703  1.2091  2.9178
  215SOL     OW  643   2.637   1.709   1.440 -0.0516  0.0661 -0.0870
  215SOL    HW1  644   2.579   1.730   1.525 -0.1008  0.4963  1.3504
  215SOL    HW2  645   2.644   1.613   1.411 -0.1190  0.4141  0.6997
  216SOL     OW  646   0.492   1.067   1.686 -0.3925 -0.2828 -0.6685
  216SOL    HW1  647   0.430   1.077   1.769 -0.8866 -0.0355  3.4150
  216SOL    HW2  648   0.441   1.096   1.604  1.1440 -1.0708 -2.0869
  217SOL     OW  649   3.018   0.030   0.317  0.4233 -0.0933 -0.3633
  217SOL    HW1  650   2.915   0.042   0.312  0.8954  1.5979 -2.3876
  217SOL    HW2  651   3.046   3.103   0.407  0.1302  1.3959 -0.3452
  218SOL     OW  652   1.713   1.790   1.341  0.5390 -0.0467  0.6146
  218SOL    HW1  653   1.631   1.819   1.289 -0.0271 -1.2585  1.0387
  218SOL    HW2  654   1.772   1.736   1.271  2.3816 -2.2700 -0.3440
  219SOL     OW  655   1.629   0.394   0.029 -0.8324  0.0927 -0.0578
  219SOL    HW1  656   1.527   0.393   0.022  0.3158  2.2418  1.1291
  219SOL    HW2  657   1.669   0.307   0.004 -0.8181  2.4596 -1.8596
  220SOL     OW  658   1.675   1.895   0.965 -0.3355  0.2166  0.0509
  220SOL    HW1  659   1.725   1.982   0.942  3.2982  1.4592 -0.7485
  220SOL    HW2  660   1.619   1.901   1.049  0.9943  2.2780  1.5053
  221SOL     OW  661   2.924   0.714   0.659  0.5930 -0.0937 -0.5265
  221SOL    HW1  662   2.928   0.661   0.570  0.7625 -3.0689 -0.3602
  221SOL    HW2  663   2.906   0.648   0.734 -0.4328 -2.2997  1.2002
  222SOL     OW  664   0.871   2.682   1.561 -0.2020 -0.0693 -0.1338
  222SOL    HW1  665   0.920   2.641   1.480 -1.3965 -0.2663 -4.0452
  222SOL    HW2  666   0.814   2.613   1.610  1.0279  0.9768 -0.8150
  223SOL     OW  667   1.379   0.432   3.000  0.5844  0.4204  0.0880
  223SOL    HW1  668   1.332   0.443   2.912  1.3561 -0.9788  0.4928
  223SOL    HW2  669   1.320   0.469   3.074  0.0810  0.5854 -0.7982
  224SOL     OW  670   2.917   0.537   1.185  0.7313 -0.7007 -0.3102
  224SOL    HW1  671   2.926   0.634   1.223 -1.4830  1.7048  1.5007
  224SOL    HW2  672   2.838   0.536   1.119  0.2884 -4.8989  0.2541
  225SOL     OW  673   0.681   1.540   1.657 -0.2630  0.2314  0.2750
  225SOL    HW1  674   0.728   1.590   1.581 -0.4114  0.9421  1.9677
  225SOL    HW2  675   0.641   1.451   1.620 -0.8985 -1.1175  0.3336
  226SOL     OW  676   1.095   3.015   0.652 -0.5754 -0.2137  0.2795
  226SOL    HW1  677   1.015   3.034   0.591  0.2323 -0.1650  2.8529
  226SOL    HW2  678   1.181   3.027   0.594  3.3695  1.6559  0.7408
  227SOL     OW  679   1.214   1.894   1.769 -0.2022  0.2202 -0.7717
  227SOL    HW1  680   1.256   1.826   1.830  1.9221 -1.2458  0.0472
  227SOL    HW2  681   1.283   1.964   1.734  2.3342 -1.7031 -2.4996
  228SOL     OW  682   0.442   0.116   2.180  0.4344 -0.4149  0.0105
  228SOL    HW1  683   0.536   0.159   2.187  1.3259 -0.7641 -2.2206
  228SOL    HW2  684   0.395   0.160   2.097 -0.4821 -0.5395 -1.8638
  229SOL     OW  685   2.621   0.674   0.241  0.5036 -0.3345 -0.8173
  229SOL    HW1  686   2.585   0.758   0.197 -0.0729 -0.2131  0.5703
  229SOL    HW2  687   2.673   0.622   0.173 -1.1340  2.3015  3.8509
  230SOL     OW  688   3.060   1.517   1.860  0.3038  0.4751 -0.1518
  230SOL    HW1  689   0.040   1.542   1.905  0.8333 -0.9058 -0.6028
  230SOL    HW2  690   3.009   1.444   1.914 -3.2619 -4.2184 -0.0826
  231SOL     OW  691   0.963   2.862   1.272 -0.1079 -0.2904  0.0073
  231SOL    HW1  692   1.014   2.775   1.284 -0.4571 -1.7279  2.1869
  231SOL    HW2  693   0.948   2.877   1.170 -1.6632 -1.3306 -2.7773
  232SOL     OW  694   2.645   2.535   0.116 -0.3954 -0.1173  0.6693
  232SOL    HW1  695   2.668   2.437   0.131  0.5061 -0.7147  0.3028
  232SOL    HW2  696   2.594   2.543   0.030  1.4664 -1.9004 -1.3368
  233SOL     OW  697   1.362   2.488   3.016 -0.8455  0.1453  0.0030
  233SOL    HW1  698   1.274   2.470   2.977  2.9058  2.1566  0.8913
  233SOL    HW2  699   1.356   2.580   3.060 -0.5730 -3.2766 -0.2670
  234SOL     OW  700   0.842   1.240   1.967 -0.0681 -0.3333  0.3305
  234SOL    HW1  701   0.810   1.332   1.934 -2.2202 -0.8674  0.2637
  234SOL    HW2  702   0.832   1.230   2.068  0.4027 -2.9791 -0.2758
  235SOL     OW  703   0.065   2.203   3.049  0.4809  0.1157 -0.1784
  235SOL    HW1  704   0.141   2.256   3.014  0.6350 -2.8635 -1.9540
  235SOL    HW2  705   3.089   2.222   2.994 -0.0365 -0.2864  1.1017
  236SOL     OW  706   2.054   2.492   2.428  0.0818 -0.4032  0.1938
  236SOL    HW1  707   2.092   2.530   2.510 -1.3985  0.9161 -1.9206
  236SOL    HW2  708   2.028   2.394   2.444  0.5730  0.2002  0.0401
  237SOL     OW  709   2.203   0.958   1.233  0.6910  0.1182  0.5420
  237SOL    HW1  710   2.203   0.999   1.328 -1.1662 -0.7488 -0.5965
  237SOL    HW2  711   2.257   1.009   1.164 -0.8390 -0.9264 -1.2863
  238SOL     OW  712   1.329   2.812   2.302 -0.2236 -0.3525  0.6648
  238SOL    HW1  713   1.287   2.764   2.377  0.9473  2.3986 -1.5020
  238SOL    HW2  714   1.283   2.787   2.216  2.3712 -2.8260  3.2559
  239SOL     OW  715   1.007   2.129   1.962 -0.3214 -0.0812 -0.0399
  239SOL    HW1  716   1.014   2.148   2.061  1.6026 -0.8887 -2.1894
  239SOL    HW2  717   1.078   2.183   1.913 -2.7199  0.7244  0.2788
  240SOL     OW  718   3.049   2.784   0.475  0.0904  0.4481  0.4545
  240SOL    HW1  719   3.069   2.718   0.547 -1.7593  2.0951  1.7453
  240SOL    HW2  720   3.039   2.880   0.507  0.7941  2.5907  0.5258
  241SOL     OW  721   1.210   1.816   3.100 -0.1089 -0.2645  0.1032
  241SOL    HW1  722   1.225   1.729   0.041 -0.3712  2.2718 -0.9391
  241SOL    HW2  723   1.303   1.858   3.073  0.2536 -0.5534 -1.2227
  242SOL     OW  724   2.281   0.951   3.030 -0.2023  0.4993  0.1830
  242SOL    HW1  725   2.282   1.051   3.033 -0.3653 -2.2121 -1.9627
  242SOL    HW2  726   2.270   0.917   0.017 -2.3360 -1.5038 -1.2442
  243SOL     OW  727   0.727   0.411   1.888  0.5257 -0.2417  0.5593
  243SOL    HW1  728   0.816   0.372   1.906  0.9939  2.0744 -0.3331
  243SOL    HW2  729   0.663   0.330   1.871 -0.2892  0.9833  2.4825
  244SOL     OW  730   1.503   2.379   2.824 -0.0124  0.4992  0.3632
  244SOL    HW1  731   1.523   2.431   2.740  0.0080 -0.3682 -1.1838
  244SOL    HW2  732   1.443   2.429   2.890  0.1152 -3.6746 -0.2863
  245SOL     OW  733   1.826   2.629   3.107 -0.2096 -0.1609  0.3493
  245SOL    HW1  734   1.814   2.530   3.079 -1.6427 -3.4605 -3.5791
  245SOL    HW2  735   1.757   2.661   0.067 -1.5089  2.5539  1.4887
  246SOL     OW  736   1.306   1.082   2.550 -0.3412  0.7072  0.1352
  246SOL    HW1  737   1.401   1.114   2.538 -1.1464 -0.3233 -0.9077
  246SOL    HW2  738   1.245   1.155   2.517  2.2697  0.0587  2.3133
  247SOL     OW  739   2.708   0.939   2.481  0.2006 -0.6593 -0.2914
  247SOL    HW1  740   2.669   0.942   2.576  0.3702 -2.3084  0.3046
  247SOL    HW2  741   2.811   0.948   2.481  2.0852  0.4443  2.4367
  248SOL     OW  742   3.043   1.274   2.079  0.4977 -0.2055  0.1706
  248SOL    HW1  743   3.096   1.218   2.015 -1.3090 -0.4795  2.3794
  248SOL    HW2  744   3.094   1.292   2.163 -2.1828 -2.0652 -0.5845
  249SOL     OW  745   2.784   0.318   0.145 -0.5123 -0.2261  0.0323
  249SOL    HW1  746   2.789   0.419   0.135 -0.1349 -1.2845  0.0564
  249SOL    HW2  747   2.867   0.276   0.102 -1.2820  3.2613  0.4395
  250SOL     OW  748   2.746   0.041   0.368 -0.4222 -0.8375  0.0014
  250SOL    HW1  749   2.738   0.140   0.387  1.1240  1.1874 -0.8721
  250SOL    HW2  750   2.723   3.092   0.448 -0.2933  0.7536 -3.2824
  251SOL     OW  751   0.755   1.497   1.904 -0.1757 -0.4186 -0.2843
  251SOL    HW1  752   0.846   1.539   1.890 -1.8413 -0.6879 -0.2646
  251SOL    HW2  753   0.697   1.505   1.820 -2.1197 -1.5081 -1.0061
  252SOL     OW  754   1.543   1.777   1.579  0.3367  0.2662 -0.6543
  252SOL    HW1  755   1.595   1.755   1.497 -2.0290  0.1601  1.8010
  252SOL    HW2  756   1.464   1.708   1.590 -0.9986  1.5598  1.0014
  253SOL     OW  757   1.716   2.231   1.815 -0.0948 -0.3458 -0.4697
  253SOL    HW1  758   1.700   2.137   1.857 -0.9172  2.5670  0.4801
  253SOL    HW2  759   1.785   2.287   1.866 -1.5551  1.4047  0.4930
  254SOL     OW  760   0.595   2.425   2.304  0.4605  1.0727  0.2358
  254SOL    HW1  761   0.546   2.338   2.278  2.2546  1.8484  0.7649
  254SOL    HW2  762   0.564   2.493   2.242  0.8288 -1.0058  3.1362
  255SOL     OW  763   1.588   0.313   0.659  0.5526 -0.6725 -0.3032
  255SOL    HW1  764   1.684   0.289   0.689  0.2955  0.7301  0.3234
  255SOL    HW2  765   1.564   0.406   0.692 -1.4911  0.7608  0.8598
  256SOL     OW  766   1.852   2.147   1.157 -0.3367  0.3816  0.2768
  256SOL    HW1  767   1.950   2.177   1.173  0.0709 -0.6067 -0.0453
  256SOL    HW2  768   1.848   2.128   1.055  2.1079  0.5326 -0.0546
  257SOL     OW  769   0.249   2.461   2.478 -0.5098  0.1308 -0.0159
  257SOL    HW1  770   0.342   2.501   2.499  1.6819 -1.5649  0.2498
  257SOL    HW2  771   0.203   2.422   2.561  2.5621  0.7634 -2.7776
  258SOL     OW  772   0.610   0.980   2.270  0.1334  0.1146 -0.1285
  258SOL    HW1  773   0.545   1.030   2.335 -0.4073 -0.2010 -3.3647
  258SOL    HW2  774   0.694   1.031   2.251 -0.2203  0.5645 -0.9724
  259SOL     OW  775   1.358   0.819   2.280 -0.3111  0.0005  0.3803
  259SOL    HW1  776   1.427   0.811   2.352 -1.4915 -1.7066 -2.6459
  259SOL    HW2  777   1.369   0.739   2.219 -0.1657  2.8166 -0.9770
  260SOL     OW  778   2.306   0.707   0.826 -0.0939  0.2730  0.2015
  260SOL    HW1  779   2.271   0.744   0.914  0.4201  2.5241  0.1208
  260SOL    HW2  780   2.240   0.704   0.748  0.1186 -0.0047  0.7151
  261SOL     OW  781   1.128   0.370   0.269  0.3274  0.6071 -0.2227
  261SOL    HW1  782   1.226   0.390   0.263 -0.0743  0.9960 -0.7680
  261SOL    HW2  783   1.116   0.313   0.353 -1.4364  0.4304 -1.8713
  262SOL     OW  784   1.904   2.718   2.460 -0.2567 -0.4844 -0.1336
  262SOL    HW1  785   1.947   2.639   2.411 -1.7420  2.0735 -1.4621
  262SOL    HW2  786   1.865   2.788   2.390 -2.3148  2.5072 -1.2349
  263SOL     OW  787   0.733   1.667   3.029 -0.2465 -0.4653 -0.3579
  263SOL    HW1  788   0.766   1.604   2.957  1.2271 -0.6766 -0.5189
  263SOL    HW2  789   0.632   1.684   3.021  0.1307  0.4019 -0.2905
  264SOL     OW  790   0.262   1.764   1.942 -0.0164 -0.3915 -0.3174
  264SOL    HW1  791   0.333   1.717   2.004  3.2152  0.0486  0.0616
  264SOL    HW2  792   0.290   1.762   1.841  2.6393  1.3246 -3.0376
  265SOL     OW  793   0.848   1.118   0.459 -0.1885 -0.4347  0.3677
  265SOL    HW1  794   0.811   1.164   0.545 -1.8993  0.4108  3.8070
  265SOL    HW2  795   0.942   1.157   0.442  0.9027  0.2408 -0.0095
  266SOL     OW  796   1.586   1.778   0.135  0.3188 -0.1127  0.1050
  266SOL    HW1  797   1.662   1.715   0.125  0.0885  1.3266  0.4947
  266SOL    HW2  798   1.515   1.743   0.202  2.4996 -0.3164  0.5611
  267SOL     OW  799   2.971   0.178   0.021 -0.7361  0.5994 -0.2427
  267SOL    HW1  800   2.925   0.144   3.048 -0.7834  2.2968  2.7717
  267SOL    HW2  801   3.073   0.173   0.001  0.7694 -0.5621  1.1023
  268SOL     OW  802   0.737   0.470   3.036  0.8438  0.1068 -0.1271
  268SOL    HW1  803   0.760   0.494   2.942 -1.7714  1.3024  0.6898
  268SOL    HW2  804   0.818   0.477   3.100  1.3120  0.1798  1.6118
  269SOL     OW  805   1.623   0.385   2.511 -0.2489 -0.0896 -0.5155
  269SOL    HW1  806   1.564   0.453   2.554  3.8115 -1.4461 -1.7166
  269SOL    HW2  807   1.607   0.293   2.544  0.9220  5.5035 -3.2752
  270SOL     OW  808   0.903   0.962   2.443  0.0881  0.1506  0.0086
  270SOL    HW1  809   0.925   1.021   2.523  1.0547 -0.6443  0.0185
  270SOL    HW2  810   0.823   0.899   2.460 -1.7743  0.5722 -0.1055
  271SOL     OW  811   0.058   0.861   0.148  0.1701  0.1424  0.0877
  271SOL    HW1  812   0.030   0.937   0.210 -0.4493 -0.6773 -1.5235
  271SOL    HW2  813   3.081   0.831   0.095 -0.0855  0.8897 -0.3720
  272SOL     OW  814   2.311   1.366   2.865  0.0915 -0.5589  0.0061
  272SOL    HW1  815   2.298   1.456   2.825  0.5313 -0.8463 -0.8478
  272SOL    HW2  816   2.230   1.306   2.842 -2.8341 -2.3387 -0.8339
  273SOL     OW  817   2.968   0.175   2.273  0.1876 -0.1237 -0.3171
  273SOL    HW1  818   2.952   0.270   2.248  0.9896 -3.9687 -0.0393
  273SOL    HW2  819   3.007   0.166   2.366  1.7646  1.0431  0.7520
  274SOL     OW  820   2.983   3.020   1.528  0.0359  0.4547  0.7224
  274SOL    HW1  821   2.980   2.982   1.430 -0.1289 -4.0172 -4.2860
  274SOL    HW2  822   3.080   3.033   1.548 -0.3640  1.7841  2.2554
  275SOL     OW  823   2.082   1.133   0.640  0.2431  0.1188  0.5190
  275SOL    HW1  824   2.096   1.122   0.540  0.1072 -2.3082  0.7768
  275SOL    HW2  825   2.000   1.196   0.657 -1.7738  1.5362 -1.2636
  276SOL     OW  826   0.360   1.336   2.834 -0.1261  0.0333  0.2664
  276SOL    HW1  827   0.281   1.365   2.776 -2.4814  0.0987 -1.5849
  276SOL    HW2  828   0.443   1.334   2.777  0.1025 -2.0085 -0.4495
  277SOL     OW  829   1.903   2.438   1.946 -0.4440 -0.0045 -0.8989
  277SOL    HW1  830   1.868   2.484   2.033 -0.4278  0.5024  2.4272
  277SOL    HW2  831   1.958   2.497   1.885  0.6230  0.6087  2.2300
  278SOL     OW  832   1.940   0.241   1.512 -0.4512  0.5260  0.1906
  278SOL    HW1  833   2.021   0.215   1.569  0.6207  1.0844 -0.1811
  278SOL    HW2  834   1.968   0.222   1.415  2.0313 -1.7353  1.4403
  279SOL     OW  835   1.403   1.138   2.888  0.3776 -0.1709 -0.2772
  279SOL    HW1  836   1.356   1.058   2.843  0.4913 -1.4698 -1.8498
  279SOL    HW2  837   1.364   1.140   2.985 -0.2879 -1.6840 -0.1787
  280SOL     OW  838   0.340   1.856   0.762  0.1516 -0.0647 -0.3906
  280SOL    HW1  839   0.284   1.929   0.799 -0.5239 -0.1432 -2.5888
  280SOL    HW2  840   0.433   1.891   0.752  0.4171  1.5219  0.3890
  281SOL     OW  841   0.220   0.286   2.268  0.3204  0.0052 -0.4454
  281SOL    HW1  842   0.307   0.249   2.235 -2.2278  0.5787 -3.7002
  281SOL    HW2  843   0.155   0.315   2.191 -0.4563  0.2472 -1.3827
  282SOL     OW  844   0.198   1.595   1.480 -0.0311 -0.1787 -0.3031
  282SOL    HW1  845   0.173   1.680   1.434  3.3978 -0.1079 -0.0444
  282SOL    HW2  846   0.235   1.526   1.414  1.5902 -0.3253  0.5624
  283SOL     OW  847   1.763   2.158   2.604  0.2852  0.0914 -0.0217
  283SOL    HW1  848   1.843   2.105   2.629  1.6535  1.9957 -3.1166
  283SOL    HW2  849   1.681   2.097   2.589 -1.1434  1.1431 -2.0578
  284SOL     OW  850   1.851   0.695   0.274 -0.1709  0.0205  0.0543
  284SOL    HW1  851   1.841   0.750   0.362  0.9245  0.3007 -0.8787
  284SOL    HW2  852   1.942   0.674   0.237  0.8094 -0.2149  0.7100
  285SOL     OW  853   3.051   2.772   2.613  0.4854 -0.5169  0.3352
  285SOL    HW1  854   3.034   2.807   2.520 -1.6186 -1.2410 -0.4791
  285SOL    HW2  855   2.992   2.816   2.685 -0.4956 -3.2770 -0.4503
  286SOL     OW  856   1.748   2.544   1.181  1.0271 -0.1069 -0.3514
  286SOL    HW1  857   1.814   2.554   1.256  1.4595  0.6991 -0.7459
  286SOL    HW2  858   1.695   2.630   1.170 -0.8413  1.5438 -1.9195
  287SOL     OW  859   0.617   0.748   1.104 -1.0874 -0.2251 -0.1096
  287SOL    HW1  860   0.532   0.716   1.148 -1.6925  0.8226  0.1702
  287SOL    HW2  861   0.629   0.842   1.136 -0.3187 -0.2921  1.1907
  288SOL     OW  862   1.526   2.347   0.106 -0.0175  0.0185 -0.2388
  288SOL    HW1  863   1.558   2.381   0.193  1.1672 -3.7013 -0.4346
  288SOL    HW2  864   1.461   2.416   0.062 -0.4596 -0.0009  0.2354
  289SOL     OW  865   0.002   1.953   2.989 -0.3362 -0.2513 -0.4636
  289SOL    HW1  866   3.105   2.049   3.025 -1.1636  1.5746 -0.2993
  289SOL    HW2  867   3.023   1.921   2.950  0.7778  0.4527 -1.4347
  290SOL     OW  868   1.091   2.539   0.605  0.0980 -0.2233 -0.1117
  290SOL    HW1  869   1.043   2.486   0.677 -0.6006  1.4347 -0.4075
  290SOL    HW2  870   1.043   2.534   0.513 -1.5806  2.3106  0.2495
  291SOL     OW  871   2.022   1.683   0.189 -0.0293  0.1129 -0.4576
  291SOL    HW1  872   2.093   1.661   0.120 -0.0636 -2.1119 -2.8769
  291SOL    HW2  873   2.009   1.787   0.186 -1.2593  2.1157 -1.3970
  292SOL     OW  874   1.012   1.410   1.599  0.1501  0.0391 -0.5277
  292SOL    HW1  875   1.084   1.350   1.629 -1.4699 -0.8764 -1.4908
  292SOL    HW2  876   0.938   1.361   1.547 -1.8313 -0.5617  0.1628
  293SOL     OW  877   2.203   2.752   0.957  0.0168  0.1706 -0.5437
  293SOL    HW1  878   2.281   2.702   0.926 -2.4362  0.6496 -1.8864
  293SOL    HW2  879   2.132   2.687   0.992  1.0523 -0.1183 -0.3428
  294SOL     OW  880   2.982   0.907   2.454  0.2293  0.2095  0.4838
  294SOL    HW1  881   3.038   0.961   2.522 -1.5214 -1.4259  2.4345
  294SOL    HW2  882   2.978   0.959   2.363 -0.4294  2.1458  0.8495
  295SOL     OW  883   1.024   1.919   0.177  0.0681 -0.1740 -0.0176
  295SOL    HW1  884   1.063   1.950   0.271 -0.1622 -0.4995  0.1328
  295SOL    HW2  885   1.099   1.897   0.110 -1.0057 -0.8663 -2.7500
  296SOL     OW  886   2.165   1.893   2.530  0.6327 -0.1341 -0.1072
  296SOL    HW1  887   2.216   1.803   2.527  0.8061 -0.2864 -1.0129
  296SOL    HW2  888   2.070   1.890   2.564  0.4507  2.6757  0.7904
  297SOL     OW  889   2.661   0.477   2.950  0.1092  0.5798  0.1025
  297SOL    HW1  890   2.615   0.414   2.884 -0.2754 -1.7474  0.2346
  297SOL    HW2  891   2.675   0.563   2.903  0.4429 -3.2104  0.8255
  298SOL     OW  892   0.783   2.206   0.005 -0.2565  0.5078 -0.2038
  298SOL    HW1  893   0.797   2.112   0.056 -0.5945 -1.3206 -0.1723
  298SOL    HW2  894   0.732   2.187   3.024  0.3128 -2.2125 -2.2567
  299SOL     OW  895   1.234   2.671   2.540 -0.2225  0.1830  0.2159
  299SOL    HW1  896   1.166   2.705   2.608 -1.0300  0.5814  0.8137
  299SOL    HW2  897   1.204   2.576   2.522 -0.2091 -0.9440 -0.3109
  300SOL     OW  898   2.751   0.308   0.406  0.3386 -0.1730  0.2793
  300SOL    HW1  899   2.702   0.383   0.451  1.5402 -1.3943  0.3790
  300SOL    HW2  900   2.763   0.319   0.305 -0.3637  0.4800  0.1740
  301SOL     OW  901   1.209   1.028   1.388  0.9446 -0.1588  0.1266
  301SOL    HW1  902   1.150   0.947   1.381 -0.5205  0.1202  0.1791
  301SOL    HW2  903   1.145   1.104   1.388 -0.1780 -3.1621 -0.2498
  302SOL     OW  904   3.016   2.481   2.563 -0.8419 -0.2714  0.0316
  302SOL    HW1  905   3.090   2.429   2.601 -0.3416  0.2258  0.9084
  302SOL    HW2  906   3.037   2.581   2.582 -2.6029  2.3643  5.1853
  303SOL     OW  907   3.082   3.052   2.182 -0.2342  0.6492 -0.2935
  303SOL    HW1  908   3.052   0.029   2.224  0.1026 -0.9159 -2.7296
  303SOL    HW2  909   3.050   2.974   2.241  0.2482  1.0060 -3.7080
  304SOL     OW  910   2.952   0.308   1.574  0.0291 -0.3284 -0.5028
  304SOL    HW1  911   2.896   0.231   1.613  0.3004  0.8426  2.0273
  304SOL    HW2  912   2.889   0.388   1.555  0.0036  0.2111 -2.9533
  305SOL     OW  913   0.416   2.960   2.136 -0.2082  0.1291  0.6718
  305SOL    HW1  914   0.499   2.911   2.163  2.2690 -0.9796 -1.8225
  305SOL    HW2  915   0.422   3.057   2.168 -1.3706 -1.3818 -1.9300
  306SOL     OW  916   2.642   1.017   1.565  0.3633  0.0927  0.6213
  306SOL    HW1  917   2.580   1.030   1.644  1.3478 -1.0776 -0.0311
  306SOL    HW2  918   2.716   1.088   1.566  4.8108  2.1715 -2.0551
  307SOL     OW  919   1.578   0.677   1.148 -0.5156 -0.3768  0.6240
  307SOL    HW1  920   1.519   0.671   1.230 -2.4646 -1.1837  1.1011
  307SOL    HW2  921   1.521   0.692   1.065 -2.8373 -3.4897  0.2962
  308SOL     OW  922   0.214   2.116   1.477 -0.3585  0.0272 -0.3179
  308SOL    HW1  923   0.249   2.201   1.518 -0.1542  3.4833 -0.6972
  308SOL    HW2  924   0.164   2.140   1.390  1.1037  0.5288  0.3854
  309SOL     OW  925   2.408   1.799   1.229  0.5618  0.4121  0.4448
  309SOL    HW1  926   2.448   1.886   1.190 -0.4270 -1.6576  2.0188
  309SOL    HW2  927   2.456   1.712   1.198  1.2886 -0.8320  0.0458
  310SOL     OW  928   2.850   1.650   3.092  0.0805 -0.1782 -0.2231
  310SOL    HW1  929   2.911   1.640   3.011  0.2368 -1.8323  1.6300
  310SOL    HW2  930   2.855   1.574   0.047 -1.7550  2.3166 -0.5726
  311SOL     OW  931   2.301   2.025   3.060  0.6857  0.1258 -0.2041
  311SOL    HW1  932   2.219   2.068   3.010  0.9436 -0.0596 -1.3395
  311SOL    HW2  933   2.342   1.946   3.008  3.5412 -0.0389 -1.1287
  312SOL     OW  934   2.425   1.586   0.904  0.4708 -0.2159  0.2668
  312SOL    HW1  935   2.473   1.655   0.848 -1.7443  0.7880 -0.6530
  312SOL    HW2  936   2.389   1.507   0.857  0.1298  2.1535  1.9462
  313SOL     OW  937   2.645   2.502   1.250  0.5063 -0.3808  0.0069
  313SOL    HW1  938   2.591   2.506   1.333  1.4212  1.6742 -3.2517
  313SOL    HW2  939   2.672   2.601   1.237  1.0801  2.8272  0.3885
  314SOL     OW  940   0.709   2.074   1.026  0.0284  0.3846  0.2121
  314SOL    HW1  941   0.772   2.155   1.025  0.4552 -1.9510  2.0662
  314SOL    HW2  942   0.764   1.992   0.997  3.3247 -0.6425 -1.2410
  315SOL     OW  943   0.463   2.796   2.539 -0.3799  1.0580 -0.8085
  315SOL    HW1  944   0.394   2.849   2.485  0.7836  2.6735 -0.7984
  315SOL    HW2  945   0.484   2.693   2.519 -3.3727  0.5377 -2.8853
  316SOL     OW  946   0.225   1.196   0.673 -0.2428 -0.2076  0.3219
  316SOL    HW1  947   0.314   1.187   0.623  0.2117 -1.5817  2.0037
  316SOL    HW2  948   0.232   1.284   0.723  4.0052 -1.6516 -0.5678
  317SOL     OW  949   2.050   0.219   0.589 -0.6627  0.0413 -0.4588
  317SOL    HW1  950   1.980   0.284   0.624  0.4875 -0.2656 -1.7785
  317SOL    HW2  951   2.124   0.197   0.654  0.0663 -1.5677 -0.3921
  318SOL     OW  952   2.920   2.421   0.649  0.0350 -0.3114 -0.1121
  318SOL    HW1  953   2.906   2.439   0.549  0.7948  0.4133 -0.1819
  318SOL    HW2  954   2.917   2.319   0.665 -0.1418  2.4846  3.9321
  319SOL     OW  955   0.755   1.498   0.129  0.3979 -0.0080  0.0149
  319SOL    HW1  956   0.754   1.559   0.049  0.3949 -0.4586 -0.8695
  319SOL    HW2  957   0.657   1.485   0.158  1.0659 -1.7401 -2.4670
  320SOL     OW  958   0.866   2.919   2.346  0.3641  0.1452  0.3868
  320SOL    HW1  959   0.908   3.011   2.334  0.6990  0.5482 -5.3811
  320SOL    HW2  960   0.824   2.915   2.438  0.8016  0.5382 -1.9534
  321SOL     OW  961   1.401   2.765   2.793  0.6067 -0.0989  0.1741
  321SOL    HW1  962   1.445   2.736   2.703 -1.3662  3.2529 -0.5147
  321SOL    HW2  963   1.301   2.763   2.782  1.8785 -0.8976 -2.6767
  322SOL     OW  964   2.266   1.351   1.982  0.2833  0.5803 -0.1459
  322SOL    HW1  965   2.338   1.357   1.909  2.8817  0.3387 -1.0053
  322SOL    HW2  966   2.300   1.366   2.075 -2.6721 -0.7427 -1.8795
  323SOL     OW  967   2.527   0.579   0.521  0.5284  0.1747 -0.0089
  323SOL    HW1  968   2.434   0.552   0.492  1.8788 -0.4373 -1.0977
  323SOL    HW2  969   2.559   0.648   0.458 -1.4307  1.5134  0.2191
  324SOL     OW  970   0.142   0.328   2.683  0.5848  0.1438 -0.1042
  324SOL    HW1  971   0.228   0.305   2.740  1.2815 -0.8323  1.2794
  324SOL    HW2  972   0.065   0.317   2.746  0.5817 -0.7974 -0.7950
  325SOL     OW  973   1.452   0.084   2.006 -0.5178  0.0478  0.2548
  325SOL    HW1  974   1.528   0.090   1.941 -2.7842 -0.5961  3.0761
  325SOL    HW2  975   1.391   0.009   1.976 -0.2580  1.4258 -1.5735
  326SOL     OW  976   2.559   2.926   1.337 -0.7900 -0.3959  0.8000
  326SOL    HW1  977   2.592   3.023   1.325  2.6044  1.3101 -2.5358
  326SOL    HW2  978   2.514   2.894   1.253  2.9924  3.1718  0.4711
  327SOL     OW  979   1.650   0.582   2.862  0.6835 -0.0751  0.3743
  327SOL    HW1  980   1.633   0.566   2.959 -3.6961 -0.4676 -0.3866
  327SOL    HW2  981   1.706   0.503   2.829 -1.5053  1.1853  2.6220
  328SOL     OW  982   2.946   1.268   2.470  0.4593  0.5828  0.0757
  328SOL    HW1  983   2.942   1.193   2.403  1.7255  1.7098 -0.3557
  328SOL    HW2  984   2.862   1.319   2.462  5.1558 -3.6922 -1.8886
  329SOL     OW  985   1.882   2.709   1.591 -0.0023 -0.4526 -0.0372
  329SOL    HW1  986   1.786   2.684   1.616 -1.0673  1.0154  0.4907
  329SOL    HW2  987   1.890   2.810   1.603 -1.5872  3.2065 -1.0300
  330SOL     OW  988   2.497   1.721   1.677  0.5216 -0.4064  0.5568
  330SOL    HW1  989   2.398   1.693   1.669 -0.7234  0.1816  0.1312
  330SOL    HW2  990   2.524   1.723   1.776  0.3391 -1.7509  2.8874
  331SOL     OW  991   0.128   1.820   1.358  0.1604 -0.2257 -0.0067
  331SOL    HW1  992   0.158   1.864   1.270 -0.5542 -1.7415 -0.3599
  331SOL    HW2  993   0.097   1.891   1.421  0.8157  1.2597 -2.3706
  332SOL     OW  994   0.742   0.373   1.232  0.0459  0.0664 -0.1665
  332SOL    HW1  995   0.657   0.421   1.255 -0.9938 -1.1936 -0.2468
  332SOL    HW2  996   0.821   0.423   1.278 -2.1683  1.4241  0.1468
  333SOL     OW  997   2.174   2.775   2.360  0.7028  0.0020 -0.2706
  333SOL    HW1  998   2.084   2.768   2.410 -0.5833 -1.3806  2.8139
  333SOL    HW2  999   2.220   2.856   2.400 -3.0966  1.8243 -3.5700
  334SOL     OW 1000   1.042   1.218   1.346  0.0450 -0.1506 -0.4826
  334SOL    HW1 1001   1.033   1.285   1.270 -1.1450 -1.3408 -2.8666
  334SOL    HW2 1002   0.959   1.217   1.405  1.2329 -0.4963 -4.1206
  335SOL     OW 1003   0.678   2.880   2.679 -0.3528  0.3072  0.6765
  335SOL    HW1 1004   0.655   2.957   2.742 -2.0817  2.9927 -0.8509
  335SOL    HW2 1005   0.598   2.862   2.620 -0.5223 -1.8495 -0.8609
  336SOL     OW 1006   2.467   2.410   1.873 -0.4356 -0.5736 -0.1211
  336SOL    HW1 1007   2.535   2.441   1.803  0.3885 -1.2313  1.5746
  336SOL    HW2 1008   2.424   2.317   1.858  2.5125 -3.1899  2.2711
  337SOL     OW 1009   2.398   1.489   0.304  0.2025 -0.0600  0.4030
  337SOL    HW1 1010   2.397   1.516   0.204 -2.3970  1.3799 -0.3298
  337SOL    HW2 1011   2.495   1.483   0.338  0.6503 -3.6661 -1.0908
  338SOL     OW 1012   1.110   1.886   1.500  0.3739  0.0506 -0.3651
  338SOL    HW1 1013   1.054   1.974   1.480  1.4146 -0.4463 -1.9875
  338SOL    HW2 1014   1.134   1.882   1.599 -1.8548  2.3535 -0.4745
  339SOL     OW 1015   0.256   0.844   2.205 -0.0965 -0.2976  0.1471
  339SOL    HW1 1016   0.324   0.765   2.209  3.5358  1.4123  1.5318
  339SOL    HW2 1017   0.301   0.932   2.189 -0.7742  2.6546  2.2628
  340SOL     OW 1018   1.560   2.967   1.351  0.0188 -0.2389 -0.7866
  340SOL    HW1 1019   1.645   2.952   1.293  2.6568 -1.0004  1.6008
  340SOL    HW2 1020   1.479   2.902   1.330  0.2424 -1.6083  0.0032
  341SOL     OW 1021   2.148   1.370   1.087 -0.4378 -0.0123  0.4806
  341SOL    HW1 1022   2.226   1.311   1.121  1.1060  0.6535  2.4538
  341SOL    HW2 1023   2.159   1.391   0.985  1.6157  0.5737 -1.9712
  342SOL     OW 1024   0.184   1.476   1.037 -0.5703 -0.3993 -0.0645
  342SOL    HW1 1025   0.213   1.454   0.943 -1.7572 -1.4187 -0.1313
  342SOL    HW2 1026   0.172   1.577   1.046 -0.1685 -1.8954  1.2506
  343SOL     OW 1027   2.183   0.462   1.539  0.1512  0.0140  0.1419
  343SOL    HW1 1028   2.141   0.374   1.570 -0.6023 -1.1568 -0.3982
  343SOL    HW2 1029   2.120   0.518   1.476 -2.3496 -0.1616 -1.8273
  344SOL     OW 1030   2.094   2.980   0.848 -0.4211 -0.4583  0.1346
  344SOL    HW1 1031   2.133   2.911   0.909 -2.0579  2.0318 -0.9891
  344SOL    HW2 1032   2.067   2.932   0.760 -1.2135  0.5562 -2.4984
  345SOL     OW 1033   2.929   3.035   2.706  0.1015  0.0242 -0.5552
  345SOL    HW1 1034   2.846   3.057   2.764 -0.3312  0.7216 -0.1506
  345SOL    HW2 1035   3.008   3.087   2.742 -0.3234  1.2508  0.1114
  346SOL     OW 1036   2.848   0.797   0.333  0.1308 -0.5254  0.0808
  346SOL    HW1 1037   2.769   0.740   0.316  2.3923  1.2216  0.5277
  346SOL    HW2 1038   2.930   0.736   0.329 -0.6780  1.1059 -2.0124
  347SOL     OW 1039   1.811   2.834   1.216 -0.0152  0.3418 -0.0228
  347SOL    HW1 1040   1.861   2.746   1.232  0.0877  0.5230  0.5202
  347SOL    HW2 1041   1.787   2.849   1.120 -0.6676 -1.2438  3.4300
  348SOL     OW 1042   1.471   1.046   1.980 -0.0504  0.2758 -0.3428
  348SOL    HW1 1043   1.510   1.139   1.977 -2.7041 -0.1163 -1.4139
  348SOL    HW2 1044   1.388   1.045   2.036  0.1672  0.6310  1.2806
  349SOL     OW 1045   2.089   1.360   2.257  0.1542  0.7211  0.4059
  349SOL    HW1 1046   2.128   1.265   2.236  0.7098 -0.7414 -3.2222
  349SOL    HW2 1047   2.170   1.417   2.278 -0.5524  0.3400 -0.6986
  350SOL     OW 1048   0.197   1.980   1.132 -0.0138 -0.6217  0.8268
  350SOL    HW1 1049   0.296   2.003   1.132 -0.9061 -1.7730 -1.4211
  350SOL    HW2 1050   0.134   2.054   1.167  0.0649 -0.6423  0.8421
  351SOL     OW 1051   0.899   0.625   2.299  0.8894 -0.1793  0.3184
  351SOL    HW1 1052   0.947   0.539   2.309 -2.9821 -0.0394 -2.0653
  351SOL    HW2 1053   0.964   0.700   2.302 -1.8671 -1.6551 -0.9747
  352SOL     OW 1054   0.940   2.936   1.745 -0.1344  0.3036 -0.3506
  352SOL    HW1 1055   1.002   3.007   1.711  0.5549  0.1024  0.5068
  352SOL    HW2 1056   0.917   2.867   1.677 -1.0000 -1.3609  1.2451
  353SOL     OW 1057   0.936   1.532   2.523 -0.1647 -0.2386 -0.8056
  353SOL    HW1 1058   0.916   1.618   2.579 -2.8245  1.1825  0.9540
  353SOL    HW2 1059   0.936   1.562   2.426  1.4189 -0.1453 -0.2669
  354SOL     OW 1060   1.878   1.306   0.657 -0.5353  0.5320 -0.7535
  354SOL    HW1 1061   1.820   1.288   0.573 -0.0440  1.0634  0.6975
  354SOL    HW2 1062   1.823   1.286   0.740  2.2644  0.8732 -2.2017
  355SOL     OW 1063   2.237   0.162   0.758  0.3034  0.0995  0.3673
  355SOL    HW1 1064   2.225   0.191   0.852  0.4267 -1.5898 -1.8742
  355SOL    HW2 1065   2.331   0.118   0.751  2.0256 -0.7511  2.9582
  356SOL     OW 1066   0.181   1.062   2.908  0.2179 -0.0496  0.1560
  356SOL    HW1 1067   0.225   1.007   2.984 -0.3791 -0.9904  0.9142
  356SOL    HW2 1068   0.135   1.142   2.948 -0.7771 -1.1281  1.7718
  357SOL     OW 1069   2.912   2.925   1.827 -0.6030  0.5644  0.6579
  357SOL    HW1 1070   2.931   2.878   1.741 -0.4403 -1.0268 -0.6173
  357SOL    HW2 1071   2.963   3.013   1.834 -1.0362  2.7956  2.2499
  358SOL     OW 1072   0.129   1.398   2.714 -0.2947 -0.4928  0.4691
  358SOL    HW1 1073   0.094   1.493   2.695 -1.1814  2.1655 -1.6666
  358SOL    HW2 1074   0.064   1.336   2.768 -0.8612 -0.5414  3.4139
  359SOL     OW 1075   2.542   2.414   2.392  0.2556 -0.1767 -0.4580
  359SOL    HW1 1076   2.553   2.487   2.463  2.3346 -2.8302  1.0168
  359SOL    HW2 1077   2.532   2.452   2.294  1.0065  0.4936  2.1592
  360SOL     OW 1078   1.339   1.302   0.970 -0.2489 -0.0322  0.4688
  360SOL    HW1 1079   1.258   1.339   0.911 -1.9298 -1.2771 -0.0868
  360SOL    HW2 1080   1.358   1.351   1.057 -1.2647 -0.9525 -0.3914
  361SOL     OW 1081   2.269   2.410   1.120 -0.2804  0.1068 -0.1311
  361SOL    HW1 1082   2.252   2.426   1.223 -0.1480  1.0373 -2.8704
  361SOL    HW2 1083   2.202   2.460   1.065 -1.2485 -0.9270  1.1796
  362SOL     OW 1084   1.925   1.231   1.042  0.1136 -0.7897 -0.2024
  362SOL    HW1 1085   1.993   1.304   1.060 -1.0007  1.2354 -1.9219
  362SOL    HW2 1086   1.855   1.256   0.964 -2.1644  2.6434 -2.8575
  363SOL     OW 1087   2.556   1.794   0.489  0.0425  0.2000  0.3015
  363SOL    HW1 1088   2.623   1.841   0.424  0.7664 -0.5274 -2.3264
  363SOL    HW2 1089   2.460   1.833   0.477 -0.1621  0.8173  0.1027
  364SOL     OW 1090   2.157   0.168   1.696  0.2801  0.3514 -0.8370
  364SOL    HW1 1091   2.220   0.144   1.621 -1.7823 -0.4344  0.2563
  364SOL    HW2 1092   2.207   0.190   1.783 -0.0098  0.0745  1.8005
  365SOL     OW 1093   0.233   2.659   0.901  0.4545 -0.1878 -0.4658
  365SOL    HW1 1094   0.236   2.570   0.850 -4.3631 -3.2676  1.2391
  365SOL    HW2 1095   0.136   2.682   0.915  0.8805  1.0478 -4.3904
  366SOL     OW 1096   3.061   1.031   0.322 -0.2828  0.1645 -0.1596
  366SOL    HW1 1097   2.976   0.981   0.301  1.6578 -1.4838  0.8974
  366SOL    HW2 1098   3.070   1.035   0.422  2.7725 -1.7021 -1.5815
  367SOL     OW 1099   2.479   2.397   2.767 -0.2867  0.6614 -0.3947
  367SOL    HW1 1100   2.453   2.305   2.727 -0.8899 -5.2246 -3.1760
  367SOL    HW2 1101   2.519   2.459   2.692 -0.3774  2.7784 -1.8569
  368SOL     OW 1102   2.915   1.814   1.141  0.1552 -0.3678  0.0432
  368SOL    HW1 1103   2.943   1.733   1.196 -0.0175 -1.2807 -1.5142
  368SOL    HW2 1104   2.922   1.895   1.206 -0.3032  1.2813 -2.3713
  369SOL     OW 1105   0.831   0.854   0.510  0.7128 -0.6429 -0.0203
  369SOL    HW1 1106   0.737   0.829   0.531 -1.5992  1.8894 -1.5144
  369SOL    HW2 1107   0.830   0.944   0.464 -1.0936  1.1829  1.2006
  370SOL     OW 1108   0.534   0.148   0.716 -0.0254 -0.5505 -0.0408
  370SOL    HW1 1109   0.516   0.086   0.799  0.3143  3.6748  0.6074
  370SOL    HW2 1110   0.568   0.235   0.749 -0.3518 -1.6174  0.4070
  371SOL     OW 1111   2.274   1.236   3.097 -0.2213 -0.4060  0.3004
  371SOL    HW1 1112   2.212   1.279   0.062  2.2282 -1.3209  0.4845
  371SOL    HW2 1113   2.300   1.306   3.023 -1.5192  1.1932 -2.1885
  372SOL     OW 1114   0.337   1.057   2.678  0.5708 -0.2205  0.0675
  372SOL    HW1 1115   0.280   1.079   2.759 -0.0674 -0.5555 -2.5819
  372SOL    HW2 1116   0.306   0.975   2.626  1.4244 -1.4347 -2.1158
  373SOL     OW 1117   0.075   0.510   2.956  0.0185  0.0199  0.5735
  373SOL    HW1 1118   0.036   0.582   3.017  2.7566  2.0215  2.0346
  373SOL    HW2 1119   0.179   0.526   2.945  2.6679 -0.4354 -0.0014
  374SOL     OW 1120   1.200   2.281   0.025  0.0509  0.3478  0.3256
  374SOL    HW1 1121   1.168   2.321   3.046  1.2634 -0.4156  2.4237
  374SOL    HW2 1122   1.206   2.355   0.093 -3.2192 -0.5042 -1.3439
  375SOL     OW 1123   1.069   0.175   0.468 -0.3568  0.2855  0.3799
  375SOL    HW1 1124   1.082   0.232   0.550  1.0397 -2.0290 -1.5082
  375SOL    HW2 1125   1.151   0.125   0.443 -2.3839 -0.5155  1.1898
  376SOL     OW 1126   0.173   2.416   1.999  0.6508 -0.5691  0.2362
  376SOL    HW1 1127   0.149   2.319   1.974  1.0808  0.0599  0.3861
  376SOL    HW2 1128   0.094   2.469   2.028  1.8782 -0.9283 -0.6710
  377SOL     OW 1129   2.840   1.974   2.863  0.1148 -0.2145 -0.1156
  377SOL    HW1 1130   2.759   1.963   2.920  0.2163  1.0812  0.2490
  377SOL    HW2 1131   2.830   1.944   2.764  0.6461  0.8991 -1.6179
  378SOL     OW 1132   1.602   0.964   0.506 -0.5944 -0.4163  0.0275
  378SOL    HW1 1133   1.576   0.998   0.410 -3.1072  2.7586 -0.6773
  378SOL    HW2 1134   1.557   0.878   0.525  1.3472  0.2700  2.0946
  379SOL     OW 1135   1.231   1.414   0.637  0.3287  0.0146  0.0100
  379SOL    HW1 1136   1.167   1.423   0.555 -1.7776  2.2438  0.2865
  379SOL    HW2 1137   1.204   1.488   0.709  0.2623 -1.0716  1.0190
  380SOL     OW 1138   2.116   2.301   1.588 -0.1904  0.5002 -0.4311
  380SOL    HW1 1139   2.192   2.232   1.584 -3.2438  1.3206  0.5433
  380SOL    HW2 1140   2.037   2.248   1.616 -1.5364 -1.5620 -0.4903
  381SOL     OW 1141   2.942   1.067   2.259 -0.2391 -0.1284  0.4604
  381SOL    HW1 1142   3.031   1.106   2.225 -1.0144 -0.1456 -0.5296
  381SOL    HW2 1143   2.874   1.063   2.181 -2.7750  0.0451 -1.2475
  382SOL     OW 1144   2.972   2.380   0.140  0.1128  0.0009  0.2158
  382SOL    HW1 1145   3.006   2.452   0.076 -3.3091  1.1095 -0.7052
  382SOL    HW2 1146   2.889   2.322   0.111 -2.0902 -1.9735  0.1433
  383SOL     OW 1147   1.629   1.224   2.228  0.2097 -0.1006  0.0482
  383SOL    HW1 1148   1.641   1.319   2.185 -1.2926  0.2074 -1.4338
  383SOL    HW2 1149   1.577   1.159   2.167 -1.4525 -1.5317  0.3847
  384SOL     OW 1150   0.866   2.185   2.632 -0.2011 -0.2875  0.6240
  384SOL    HW1 1151   0.881   2.282   2.599  0.7918  3.7085 -0.6169
  384SOL    HW2 1152   0.952   2.130   2.635  0.2286 -0.6836 -2.1404
  385SOL     OW 1153   2.565   2.413   0.387 -0.2880 -0.4006 -0.2908
  385SOL    HW1 1154   2.533   2.510   0.386 -1.4118  0.0905  1.7939
  385SOL    HW2 1155   2.529   2.368   0.471 -4.7684  2.6360 -0.5920
  386SOL     OW 1156   1.684   1.228   0.487  0.2986  0.0274 -0.0178
  386SOL    HW1 1157   1.634   1.320   0.487  0.1380  1.8471  2.5123
  386SOL    HW2 1158   1.630   1.149   0.521 -0.2544  1.5965  1.2249
  387SOL     OW 1159   2.880   0.756   1.335  0.0419 -0.0081  0.0767
  387SOL    HW1 1160   2.787   0.796   1.337  1.5590  1.6516 -1.9891
  387SOL    HW2 1161   2.949   0.829   1.356 -1.5751  0.8022  1.7295
  388SOL     OW 1162   0.017   0.871   1.118 -0.2457  0.1510 -0.6407
  388SOL    HW1 1163   3.095   0.818   1.201 -0.2898  2.6099 -1.0863
  388SOL    HW2 1164   0.046   0.806   1.045  0.0346 -0.1978 -1.3334
  389SOL     OW 1165   1.881   1.083   2.567  0.0283 -0.5843  0.1715
  389SOL    HW1 1166   1.890   1.098   2.669  1.1947 -0.2978  1.9814
  389SOL    HW2 1167   1.897   1.163   2.507 -0.1493  1.9468  2.2666
  390SOL     OW 1168   1.544   2.192   0.629  0.2245 -0.0555 -0.0894
  390SOL    HW1 1169   1.547   2.238   0.539  0.8959 -1.3682  3.4308
  390SOL    HW2 1170   1.607   2.114   0.625 -0.8593 -0.2743  0.1698
  391SOL     OW 1171   1.126   2.198   1.126 -0.3371  0.0831  0.2584
  391SOL    HW1 1172   1.191   2.203   1.200  0.2367 -0.2329  2.6840
  391SOL    HW2 1173   1.155   2.125   1.060  1.8742  0.2236 -1.0849
  392SOL     OW 1174   2.238   2.558   1.964 -0.3182 -0.1788  0.1663
  392SOL    HW1 1175   2.172   2.564   1.886  1.2734  1.1821 -1.9014
  392SOL    HW2 1176   2.319   2.500   1.937  0.7595 -4.0925 -2.5007
  393SOL     OW 1177   1.794   2.381   2.812  0.0374 -0.3464 -0.3790
  393SOL    HW1 1178   1.764   2.465   2.762  0.3436  3.0125 -0.0954
  393SOL    HW2 1179   1.746   2.301   2.773  0.2448 -0.7918 -0.2573
  394SOL     OW 1180   0.172   0.484   2.460 -0.0910 -0.0253  0.0869
  394SOL    HW1 1181   0.153   0.434   2.545 -1.5460  2.0312 -1.2555
  394SOL    HW2 1182   0.204   0.410   2.397 -1.0539  2.0746 -1.4686
  395SOL     OW 1183   0.443   1.266   0.998  0.0993  0.1888  0.1819
  395SOL    HW1 1184   0.348   1.240   1.018  0.5195  1.6761  0.0937
  395SOL    HW2 1185   0.466   1.346   1.062 -0.4383  3.1073  1.3057
  396SOL     OW 1186   2.256   0.649   2.684  0.0552 -0.7252 -0.1268
  396SOL    HW1 1187   2.188   0.662   2.759  1.9147  0.7383  0.3797
  396SOL    HW2 1188   2.229   0.709   2.606 -1.3598 -3.2458  2.0473
  397SOL     OW 1189   3.101   0.702   2.601 -0.6417 -0.3184 -0.0317
  397SOL    HW1 1190   0.094   0.682   2.583  0.1107  0.1964  1.0212
  397SOL    HW2 1191   3.057   0.761   2.530  1.8920  0.9549 -0.1887
  398SOL     OW 1192   1.654   2.913   0.093  0.1276  0.0767  0.4971
  398SOL    HW1 1193   1.655   2.999   0.151  2.2741  2.1512  0.1920
  398SOL    HW2 1194   1.588   2.931   0.014  0.5234 -1.4460 -1.0850
  399SOL     OW 1195   2.107   2.270   1.979  0.1506  0.4378  0.1319
  399SOL    HW1 1196   2.140   2.310   2.065 -1.0332 -0.3950 -0.2775
  399SOL    HW2 1197   2.023   2.319   1.959  1.0633 -1.1648  4.3580
  400SOL     OW 1198   3.045   1.868   2.235 -0.1166 -0.3954  0.3072
  400SOL    HW1 1199   0.006   1.879   2.162 -0.4499  0.8319  2.0343
  400SOL    HW2 1200   2.981   1.789   2.214  1.6896  0.5641 -2.0603
  401SOL     OW 1201   0.561   0.806   0.546  0.1896 -0.0982 -0.2990
  401SOL    HW1 1202   0.516   0.726   0.498 -2.0790  0.7485 -2.8627
  401SOL    HW2 1203   0.583   0.782   0.644 -0.1105  1.1361 -0.2528
  402SOL     OW 1204   0.674   2.858   2.168 -0.9084  0.2892 -0.3619
  402SOL    HW1 1205   0.728   2.870   2.252 -0.0461 -2.9054 -0.9201
  402SOL    HW2 1206   0.726   2.887   2.086 -2.2053 -1.2074  1.7486
  403SOL     OW 1207   2.875   1.635   2.230 -0.2500 -0.1915  0.2488
  403SOL    HW1 1208   2.792   1.686   2.266  0.1870 -1.1483 -2.0521
  403SOL    HW2 1209   2.898   1.570   2.299 -1.3646  1.2140  0.3938
  404SOL     OW 1210   2.657   2.216   2.195 -0.0549 -0.1356  0.3178
  404SOL    HW1 1211   2.636   2.315   2.191 -2.8031 -0.6043  1.2152
  404SOL    HW2 1212   2.753   2.200   2.213 -1.7723 -0.5510 -1.8336
  405SOL     OW 1213   2.008   0.179   2.556 -0.0490  0.3862  0.4150
  405SOL    HW1 1214   2.059   0.158   2.641 -0.7737 -0.5053  1.8450
  405SOL    HW2 1215   1.911   0.151   2.565 -1.0651  0.7435  1.0872
  406SOL     OW 1216   1.364   1.892   0.462 -0.0142  0.5046 -0.0890
  406SOL    HW1 1217   1.439   1.951   0.498 -3.3377  1.9687 -0.4060
  406SOL    HW2 1218   1.277   1.943   0.439 -0.0255  1.3913 -2.9497
  407SOL     OW 1219   1.663   1.328   0.222 -0.5376 -0.3199 -0.3259
  407SOL    HW1 1220   1.684   1.257   0.151  1.4651  1.9699  0.0182
  407SOL    HW2 1221   1.666   1.283   0.313  0.2895 -0.4083  3.6147
  408SOL     OW 1222   0.256   0.862   1.598 -0.1020  0.6545 -0.0422
  408SOL    HW1 1223   0.285   0.851   1.697  1.1232 -1.2714 -1.1511
  408SOL    HW2 1224   0.258   0.769   1.547 -1.8912 -2.0871  1.0764
  409SOL     OW 1225   3.050   1.239   2.847  0.3274  0.0517 -0.0964
  409SOL    HW1 1226   2.974   1.300   2.818  0.5133  0.0021 -2.1979
  409SOL    HW2 1227   3.062   1.256   2.949  1.9560 -0.5398  1.8312
  410SOL     OW 1228   2.428   2.102   0.682  0.2501  0.3933  0.1470
  410SOL    HW1 1229   2.351   2.130   0.739  2.1761  1.0324  0.8181
  410SOL    HW2 1230   2.393   2.034   0.617 -3.0806  1.4401  1.2239
  411SOL     OW 1231   3.076   0.357   0.245 -0.8555  0.1142  0.4333
  411SOL    HW1 1232   3.032   0.301   0.171 -1.7847 -2.2808 -0.2316
  411SOL    HW2 1233   0.001   0.295   0.316 -0.6987 -2.7183  0.6401
  412SOL     OW 1234   1.682   0.003   0.279  0.5314 -0.3664 -0.2424
  412SOL    HW1 1235   1.737   3.098   0.368 -0.6653 -2.5143  1.3604
  412SOL    HW2 1236   1.730   0.070   0.215  1.4845 -1.8712 -1.0782
  413SOL     OW 1237   1.127   0.313   1.452 -0.4309 -0.0260  0.3334
  413SOL    HW1 1238   1.163   0.283   1.542 -1.8323  0.7220 -0.4141
  413SOL    HW2 1239   1.154   0.244   1.377 -0.2641 -2.2533 -2.1607
  414SOL     OW 1240   0.407   1.205   0.214 -0.0707 -0.5146 -0.2235
  414SOL    HW1 1241   0.308   1.203   0.211  1.0697  2.3851  1.3455
  414SOL    HW2 1242   0.452   1.135   0.274  0.3301 -0.6906 -0.4981
  415SOL     OW 1243   2.885   1.364   0.125 -0.3557  0.0123 -0.0305
  415SOL    HW1 1244   2.988   1.360   0.106  1.6062  1.8940 -0.3794
  415SOL    HW2 1245   2.873   1.399   0.221  2.0947 -1.6848 -1.5927
  416SOL     OW 1246   2.423   0.537   0.009  0.2057 -0.1316 -0.0606
  416SOL    HW1 1247   2.515   0.494   3.103  0.9630  1.9221  0.8405
  416SOL    HW2 1248   2.432   0.631   3.091  1.9921 -1.8241  0.4228
  417SOL     OW 1249   2.710   2.774   0.470  0.1620 -1.0840  0.3568
  417SOL    HW1 1250   2.636   2.749   0.406  1.5635  0.0339  0.2187
  417SOL    HW2 1251   2.799   2.741   0.440  0.1093  2.8566  1.1736
  418SOL     OW 1252   0.124   0.249   0.005  0.3963 -0.4550  0.1775
  418SOL    HW1 1253   0.182   0.268   0.087 -1.5944 -1.7771  1.7964
  418SOL    HW2 1254   0.107   0.335   3.055 -1.4919  2.7704 -0.3236
  419SOL     OW 1255   0.733   1.055   0.937 -0.2122 -0.1856  0.3972
  419SOL    HW1 1256   0.800   1.048   1.013  0.9454  2.8075 -1.8556
  419SOL    HW2 1257   0.640   1.013   0.961 -1.8900 -0.6913 -1.1854
  420SOL     OW 1258   0.472   0.972   0.915  0.5197 -0.3973  0.4062
  420SOL    HW1 1259   0.472   1.069   0.951 -0.3451 -0.7366  2.1447
  420SOL    HW2 1260   0.379   0.954   0.875 -0.5616 -0.5921 -2.1172
  421SOL     OW 1261   0.528   2.143   0.333 -0.1173  0.3246  0.3686
  421SOL    HW1 1262   0.557   2.055   0.296  0.1114  2.6333 -2.0201
  421SOL    HW2 1263   0.605   2.209   0.314  2.0755 -0.0425 -1.3745
  422SOL     OW 1264   2.714   0.469   1.778  0.3947 -0.6978  0.3655
  422SOL    HW1 1265   2.730   0.400   1.843 -0.5707 -3.5673 -3.8582
  422SOL    HW2 1266   2.630   0.462   1.722  0.1565  3.3560  3.9858
  423SOL     OW 1267   1.973   1.976   0.194  0.6917  0.1837  0.0458
  423SOL    HW1 1268   1.946   1.975   0.097  1.0462 -0.0363  2.0543
  423SOL    HW2 1269   2.004   2.072   0.216  0.7537 -0.1146 -0.7439
  424SOL     OW 1270   1.731   1.506   2.526  0.0215 -0.5420 -0.8237
  424SOL    HW1 1271   1.756   1.425   2.470 -1.2320 -0.6048 -0.7487
  424SOL    HW2 1272   1.637   1.503   2.563  0.9144  0.0952  1.2074
  425SOL     OW 1273   3.017   2.826   2.326  0.5290  0.8027  0.2714
  425SOL    HW1 1274   2.939   2.767   2.306  0.5396 -0.8061 -0.3987
  425SOL    HW2 1275   3.100   2.768   2.340 -2.4149  3.3735 -0.0130
  426SOL     OW 1276   2.200   2.681   0.174 -0.2728  0.2748  0.2560
  426SOL    HW1 1277   2.132   2.611   0.208  0.0565 -0.0045 -0.3151
  426SOL    HW2 1278   2.295   2.659   0.207 -0.5412  0.5236 -1.0001
  427SOL     OW 1279   0.248   1.341   2.454 -0.0731 -0.0449  0.6528
  427SOL    HW1 1280   0.309   1.418   2.428 -0.2823 -0.5626  0.7170
  427SOL    HW2 1281   0.198   1.355   2.539 -0.2710 -0.6702 -1.0641
  428SOL     OW 1282   2.466   1.188   2.642  0.0707 -0.1221  0.2063
  428SOL    HW1 1283   2.502   1.108   2.693 -0.2563  2.0521 -0.7704
  428SOL    HW2 1284   2.368   1.178   2.614 -0.1245 -0.8936 -1.5769
  429SOL     OW 1285   2.337   2.905   0.547 -0.3677  0.8900  0.0613
  429SOL    HW1 1286   2.426   2.849   0.522  3.8631 -2.7474 -3.4122
  429SOL    HW2 1287   2.307   2.960   0.467  0.0842 -1.5120 -0.8485
  430SOL     OW 1288   1.518   1.878   2.366 -0.0920 -0.1973 -0.1036
  430SOL    HW1 1289   1.427   1.891   2.319  0.3295 -0.7614 -0.7032
  430SOL    HW2 1290   1.527   1.924   2.455 -1.0576 -3.1254  0.0142
  431SOL     OW 1291   2.930   2.059   1.702 -0.9625 -0.1817  0.1270
  431SOL    HW1 1292   2.887   2.085   1.789  4.8764 -0.0289 -0.9681
  431SOL    HW2 1293   2.870   2.006   1.648 -0.3544  2.7666  1.9960
  432SOL     OW 1294   1.197   2.116   2.458 -0.1356  0.6355  0.0749
  432SOL    HW1 1295   1.153   2.093   2.548 -2.6635  4.0499 -0.0213
  432SOL    HW2 1296   1.267   2.189   2.471 -0.2122  0.7940 -3.4880
  433SOL     OW 1297   0.939   2.773   0.714 -0.1498  0.4070  0.4042
  433SOL    HW1 1298   0.990   2.692   0.672  1.4422 -1.2957 -1.9876
  433SOL    HW2 1299   0.995   2.859   0.697 -2.8049 -0.4486  0.6363
  434SOL     OW 1300   0.197   2.026   2.513 -0.0109 -0.1997 -0.5019
  434SOL    HW1 1301   0.108   1.980   2.512 -0.4747  0.5552 -1.9756
  434SOL    HW2 1302   0.199   2.107   2.452  0.9130 -0.2702 -1.3279
  435SOL     OW 1303   0.225   1.450   0.767  0.2345  0.0930  0.5221
  435SOL    HW1 1304   0.310   1.504   0.736  1.6551  0.0208  2.6806
  435SOL    HW2 1305   0.138   1.473   0.717 -3.0440 -0.1683  1.6131
  436SOL     OW 1306   0.533   2.183   1.825 -0.0179 -0.3791  0.4380
  436SOL    HW1 1307   0.462   2.200   1.754 -1.9085 -0.1843 -3.5594
  436SOL    HW2 1308   0.623   2.141   1.785  2.5679 -2.3692 -0.4165
  437SOL     OW 1309   1.080   0.696   0.444 -0.5311 -0.0029 -0.4566
  437SOL    HW1 1310   0.993   0.744   0.469 -0.2865 -1.1883  0.9277
  437SOL    HW2 1311   1.151   0.763   0.424 -1.2487 -1.3837  1.8816
  438SOL     OW 1312   0.253   2.112   0.836 -0.6427 -0.0531  0.0959
  438SOL    HW1 1313   0.174   2.141   0.888  3.3256  0.9987 -0.6665
  438SOL    HW2 1314   0.338   2.167   0.860  3.1995 -0.0090 -1.0559
  439SOL     OW 1315   1.009   2.668   1.836 -0.2910  0.0073 -0.0318
  439SOL    HW1 1316   0.934   2.626   1.891 -1.1261  2.0657 -1.3975
  439SOL    HW2 1317   0.987   2.764   1.816  1.1326  0.7017  0.3639
  440SOL     OW 1318   1.562   0.199   1.625 -0.1470 -0.0809 -0.2811
  440SOL    HW1 1319   1.595   0.197   1.721 -0.1169  2.6982  2.3777
  440SOL    HW2 1320   1.589   0.288   1.588  2.4405  0.3182 -0.2237
  441SOL     OW 1321   0.517   0.268   1.520  0.3652  0.0086 -0.1709
  441SOL    HW1 1322   0.592   0.223   1.573  2.7063 -1.1593  0.9672
  441SOL    HW2 1323   0.504   0.209   1.437  3.1380  0.6285 -1.1734
  442SOL     OW 1324   2.063   1.828   0.496 -0.1654 -0.0285  0.1971
  442SOL    HW1 1325   2.070   1.728   0.496  0.9854 -1.7358  0.5306
  442SOL    HW2 1326   2.032   1.866   0.407 -1.0476  1.2137  0.9988
  443SOL     OW 1327   2.550   0.270   2.254 -0.1657  0.0434  0.0572
  443SOL    HW1 1328   2.598   0.178   2.247 -0.2953  0.1271 -0.3810
  443SOL    HW2 1329   2.459   0.266   2.203 -0.3135  1.9381 -1.5704
  444SOL     OW 1330   2.249   1.042   1.704  0.0396  0.2081 -0.2742
  444SOL    HW1 1331   2.260   0.993   1.787 -0.2552  2.9084 -1.1698
  444SOL    HW2 1332   2.252   1.145   1.714 -0.0246 -2.3003  0.5269
  445SOL     OW 1333   2.600   2.255   1.536 -0.7180  0.0165 -0.2441
  445SOL    HW1 1334   2.589   2.177   1.602 -0.8198 -0.9094  0.6553
  445SOL    HW2 1335   2.613   2.347   1.577 -1.3784  0.7392 -1.4634
  446SOL     OW 1336   2.961   1.306   0.752 -0.4368 -0.5788 -0.0092
  446SOL    HW1 1337   2.976   1.275   0.847 -0.6845 -1.0832  0.6328
  446SOL    HW2 1338   2.933   1.228   0.694  0.6160  1.3861  1.7443
  447SOL     OW 1339   1.185   1.673   0.761  0.3475  0.0266  0.3234
  447SOL    HW1 1340   1.245   1.696   0.841 -1.2293 -0.4123 -2.2466
  447SOL    HW2 1341   1.160   1.760   0.709 -1.4545  0.3665 -1.4171
  448SOL     OW 1342   1.464   1.344   1.955  0.1442 -0.0220 -0.6406
  448SOL    HW1 1343   1.528   1.424   1.941 -1.1687  0.4109 -1.1503
  448SOL    HW2 1344   1.455   1.289   1.875 -1.2371  1.0771  2.0031
  449SOL     OW 1345   0.515   1.497   0.244 -0.4363 -0.2001  0.1616
  449SOL    HW1 1346   0.447   1.570   0.228  0.1148 -0.4494 -2.0978
  449SOL    HW2 1347   0.469   1.410   0.240  0.8497  3.7026 -2.0217
  450SOL     OW 1348   2.325   2.199   1.848  0.1095  0.4332 -0.8128
  450SOL    HW1 1349   2.308   2.143   1.766 -1.9305  0.4983 -0.3326
  450SOL    HW2 1350   2.235   2.231   1.891 -1.5225  1.2191  3.1000
  451SOL     OW 1351   1.967   0.011   2.221 -0.2853  0.6382  0.5475
  451SOL    HW1 1352   2.056   0.035   2.269 -2.0564  1.4687 -0.2813
  451SOL    HW2 1353   1.896   0.084   2.234  1.9051  0.1394 -0.6761
  452SOL     OW 1354   1.057   3.089   1.397 -0.2259 -0.2287  0.0821
  452SOL    HW1 1355   1.037   3.007   1.341 -0.2213  2.4706  0.5564
  452SOL    HW2 1356   0.978   0.042   1.382 -0.6964 -2.7721  0.3763
  453SOL     OW 1357   1.031   1.277   0.885  0.3828  0.5144 -1.0880
  453SOL    HW1 1358   0.944   1.301   0.847 -0.5761  0.9366 -0.0889
  453SOL    HW2 1359   1.064   1.182   0.860  0.6980 -1.6950 -0.8171
  454SOL     OW 1360   0.508   1.332   0.714  0.4396 -0.3832  0.3704
  454SOL    HW1 1361   0.470   1.322   0.811 -0.4892  0.1651  1.7800
  454SOL    HW2 1362   0.484   1.426   0.675 -2.2129  1.8930 -1.0065
  455SOL     OW 1363   2.912   2.764   2.879  0.3866 -0.3412  0.6866
  455SOL    HW1 1364   2.874   2.750   2.971  0.9598  0.4906  0.8216
  455SOL    HW2 1365   2.996   2.824   2.886  0.7070  1.5304 -0.2674
  456SOL     OW 1366   2.344   2.207   0.960 -0.0629  0.4187 -0.2962
  456SOL    HW1 1367   2.322   2.284   1.027 -0.2562 -0.6191  1.6720
  456SOL    HW2 1368   2.411   2.144   1.002 -0.6286  1.7990 -0.7327
  457SOL     OW 1369   1.452   0.147   0.261 -0.1927  0.2443 -0.3115
  457SOL    HW1 1370   1.534   0.082   0.256  0.6383 -0.0925  0.2268
  457SOL    HW2 1371   1.464   0.231   0.317 -0.4104 -0.6714 -0.7408
  458SOL     OW 1372   2.686   3.015   0.588  0.3183 -0.1510 -0.1550
  458SOL    HW1 1373   2.700   3.021   0.692  0.0751  1.2735 -4.2509
  458SOL    HW2 1374   2.717   2.929   0.546 -0.6066  0.6043  0.7737
  459SOL     OW 1375   2.041   0.407   2.421  0.1488  0.5578  0.2642
  459SOL    HW1 1376   2.132   0.424   2.475  2.0752  1.1311  0.7044
  459SOL    HW2 1377   2.016   0.309   2.435  0.5998 -0.9488  0.8496
  460SOL     OW 1378   2.674   3.003   0.120 -0.3502 -0.4218  0.2405
  460SOL    HW1 1379   2.715   2.921   0.074 -0.6816 -0.6908  1.1270
  460SOL    HW2 1380   2.728   3.040   0.197 -0.7904 -0.3299  0.7615
  461SOL     OW 1381   0.709   1.594   1.256 -0.2065  0.3214 -0.5388
  461SOL    HW1 1382   0.749   1.636   1.343 -0.6846  0.2755  1.0959
  461SOL    HW2 1383   0.773   1.605   1.175 -0.7808 -0.3342 -0.9069
  462SOL     OW 1384   2.428   2.963   1.760 -0.0045  0.8111  0.0891
  462SOL    HW1 1385   2.507   2.959   1.823  0.6225 -0.2031  2.7396
  462SOL    HW2 1386   2.438   2.892   1.684 -0.6679 -2.3408  0.8322
  463SOL     OW 1387   2.847   0.984   0.091  0.4551 -0.1375  0.3428
  463SOL    HW1 1388   2.863   1.083   0.086 -0.3722 -2.5282  0.9245
  463SOL    HW2 1389   2.747   0.960   0.104 -0.7118  0.3677  1.1326
  464SOL     OW 1390   0.147   2.660   1.319 -0.8476 -0.2253  0.4686
  464SOL    HW1 1391   0.159   2.758   1.295  1.1470  0.7668 -3.5891
  464SOL    HW2 1392   0.126   2.612   1.231 -2.8463 -0.7788 -2.0259
  465SOL     OW 1393   0.439   1.590   0.643  0.4217 -0.1214 -0.0120
  465SOL    HW1 1394   0.380   1.628   0.570  0.8078  0.3565  0.9938
  465SOL    HW2 1395   0.490   1.666   0.690  4.6516  0.2778 -0.1189
  466SOL     OW 1396   1.068   0.415   2.246 -0.0687  0.0461 -0.3133
  466SOL    HW1 1397   1.153   0.392   2.296  1.5183 -1.2332 -0.0585
  466SOL    HW2 1398   1.087   0.479   2.174 -1.5542  2.4390  3.7303
  467SOL     OW 1399   1.077   0.849   2.279 -0.1154  0.0315  0.2214
  467SOL    HW1 1400   1.017   0.885   2.350  0.4622 -0.4065 -0.3594
  467SOL    HW2 1401   1.171   0.851   2.315 -2.0771 -0.4623 -1.5792
  468SOL     OW 1402   0.468   1.132   2.424 -0.0536 -0.1743  0.3168
  468SOL    HW1 1403   0.431   1.092   2.510  0.5807  1.3904 -0.2218
  468SOL    HW2 1404   0.446   1.234   2.417 -0.6795 -2.5518  1.4952
  469SOL     OW 1405   0.257   2.216   0.408 -0.2306  0.0640 -0.2146
  469SOL    HW1 1406   0.355   2.190   0.402 -1.5278  0.5007  0.6858
  469SOL    HW2 1407   0.206   2.201   0.324  0.6356  0.1928  1.3829
  470SOL     OW 1408   2.583   1.800   2.591  0.0416  0.7474  0.4048
  470SOL    HW1 1409   2.581   1.737   2.672  2.3432  0.7505 -2.6410
  470SOL    HW2 1410   2.552   1.895   2.606 -0.6838  0.6142  0.5085
  471SOL     OW 1411   1.726   0.759   2.278 -0.4385  0.5291 -0.3415
  471SOL    HW1 1412   1.676   0.769   2.190 -0.9424  0.7723 -1.1916
  471SOL    HW2 1413   1.752   0.660   2.292 -0.7158 -0.3920 -1.4691
  472SOL     OW 1414   0.552   2.722   1.221 -0.2272  0.6219 -0.1423
  472SOL    HW1 1415   0.557   2.627   1.254 -0.4545  0.0792  0.0629
  472SOL    HW2 1416   0.618   2.731   1.146 -0.2459 -1.1848 -0.1055
  473SOL     OW 1417   0.888   0.246   2.350  0.2340 -0.2840  0.4955
  473SOL    HW1 1418   0.930   0.163   2.399  1.4536 -0.6569  2.0119
  473SOL    HW2 1419   0.958   0.292   2.291 -0.4149 -0.7497  2.0319
  474SOL     OW 1420   1.690   3.053   1.554 -0.1395  0.5954  0.0261
  474SOL    HW1 1421   1.644   0.029   1.599 -1.5328  1.7590 -2.5404
  474SOL    HW2 1422   1.636   3.015   1.476 -2.1730 -2.3003 -0.6439
  475SOL     OW 1423   1.921   0.379   1.030 -0.0921 -0.1338  0.2099
  475SOL    HW1 1424   2.005   0.423   0.982  0.2751  1.5495  0.4374
  475SOL    HW2 1425   1.949   0.329   1.111 -1.7858  2.2962 -1.5761
  476SOL     OW 1426   0.583   0.696   0.808  0.4055 -0.2463 -0.1291
  476SOL    HW1 1427   0.550   0.791   0.807  2.8333 -1.1679 -1.1713
  476SOL    HW2 1428   0.616   0.672   0.901 -1.5932  0.9479  0.9216
  477SOL     OW 1429   1.340   2.613   0.552 -0.3412 -0.8234 -0.2905
  477SOL    HW1 1430   1.408   2.619   0.627 -2.4906  0.0802 -0.8076
  477SOL    HW2 1431   1.253   2.572   0.586 -1.3362  0.8686  2.7264
  478SOL     OW 1432   0.203   2.243   2.323 -0.3084  0.2357 -0.1948
  478SOL    HW1 1433   0.289   2.197   2.292 -1.2294 -1.0678  1.1285
  478SOL    HW2 1434   0.221   2.333   2.370 -1.1816  0.3918  2.0539
  479SOL     OW 1435   2.944   0.247   1.159 -0.4852  0.3262  0.0189
  479SOL    HW1 1436   2.930   0.347   1.179  1.2977 -1.4062  1.3036
  479SOL    HW2 1437   3.041   0.219   1.171  1.3507 -0.7473 -0.3347
  480SOL     OW 1438   0.307   2.679   0.350  0.3416 -0.1149  0.7656
  480SOL    HW1 1439   0.384   2.722   0.298  2.4816 -1.4826  2.7811
  480SOL    HW2 1440   0.214   2.719   0.332 -0.5126 -0.2781 -0.6872
  481SOL     OW 1441   2.210   1.962   1.395 -0.9635 -0.5114  0.2064
  481SOL    HW1 1442   2.278   1.929   1.327  2.6082 -1.0131 -0.6633
  481SOL    HW2 1443   2.146   1.891   1.417  1.4188 -0.7375  0.0093
  482SOL     OW 1444   1.115   2.441   2.919  0.2610  0.5036 -0.1135
  482SOL    HW1 1445   1.112   2.442   2.814 -0.1924  2.2928 -0.0900
  482SOL    HW2 1446   1.020   2.464   2.959 -1.9403  0.4215  0.4702
  483SOL     OW 1447   0.430   2.510   2.045  0.3172  0.1443 -0.0057
  483SOL    HW1 1448   0.341   2.473   2.025  1.0616  2.4722  1.3860
  483SOL    HW2 1449   0.502   2.458   1.999  0.2074 -1.5308 -2.1473
  484SOL     OW 1450   1.174   0.615   1.521 -0.3715 -0.2911  0.2452
  484SOL    HW1 1451   1.192   0.633   1.616  0.6294  2.9201 -0.9908
  484SOL    HW2 1452   1.168   0.519   1.501  0.8404  2.7361  0.0732
  485SOL     OW 1453   1.931   0.684   2.623  0.5351 -0.0484 -0.2367
  485SOL    HW1 1454   1.992   0.746   2.571 -0.5813 -1.2870  0.1849
  485SOL    HW2 1455   1.953   0.590   2.615  1.8937  1.7513 -1.4332
  486SOL     OW 1456   2.425   2.857   1.124  0.4134  0.2905 -0.4659
  486SOL    HW1 1457   2.334   2.838   1.089  3.3593 -1.8163  0.2137
  486SOL    HW2 1458   2.496   2.841   1.056 -0.8002  0.5152  1.1627
  487SOL     OW 1459   0.918   2.287   1.627 -0.2282  0.1117 -0.5099
  487SOL    HW1 1460   0.847   2.348   1.664 -1.9483  0.6803 -0.3584
  487SOL    HW2 1461   0.917   2.300   1.524 -3.8742 -3.3670  2.3568
  488SOL     OW 1462   2.593   1.430   2.866 -0.2881 -0.6629 -0.7933
  488SOL    HW1 1463   2.517   1.373   2.826  0.6379 -3.7355  0.2940
  488SOL    HW2 1464   2.622   1.391   2.955  0.2087  0.1058  0.8867
  489SOL     OW 1465   1.863   3.082   1.365 -0.0293 -0.3117  0.4605
  489SOL    HW1 1466   1.890   2.982   1.344  0.3198 -2.7596 -1.0046
  489SOL    HW2 1467   1.799   3.083   1.443 -0.0984 -0.6369 -1.8935
  490SOL     OW 1468   1.028   1.421   0.139  0.5431 -0.3633  0.3296
  490SOL    HW1 1469   1.110   1.479   0.126  1.6491  0.8045  0.4242
  490SOL    HW2 1470   0.943   1.472   0.149  1.3432 -0.3296  1.0810
  491SOL     OW 1471   0.419   2.197   1.307 -0.4779 -0.2593  0.0585
  491SOL    HW1 1472   0.349   2.159   1.368 -0.6816 -0.7606 -2.0147
  491SOL    HW2 1473   0.448   2.133   1.236  0.2887  1.3603  1.8596
  492SOL     OW 1474   0.963   1.822   1.862 -0.5043 -0.2119  0.0924
  492SOL    HW1 1475   0.994   1.726   1.848 -2.6185 -0.0935 -0.1470
  492SOL    HW2 1476   1.038   1.889   1.838 -0.6041 -0.8080  1.5663
  493SOL     OW 1477   2.704   2.188   0.948 -0.1750  0.0516 -0.9290
  493SOL    HW1 1478   2.751   2.185   0.861  0.2936  0.4955 -0.2763
  493SOL    HW2 1479   2.638   2.108   0.952 -3.3175 -3.0453 -1.5265
  494SOL     OW 1480   2.706   2.019   0.638  0.2164  0.7890 -0.3286
  494SOL    HW1 1481   2.607   2.025   0.678 -0.2742 -0.3088  0.0483
  494SOL    HW2 1482   2.700   2.006   0.537  0.2878 -0.3231  1.2828
  495SOL     OW 1483   2.788   2.751   0.049 -0.4160 -0.2541  0.4058
  495SOL    HW1 1484   2.731   2.671   0.078  1.0807 -0.9423 -3.2251
  495SOL    HW2 1485   2.893   2.737   0.061  1.4729  0.1789  0.0967
  496SOL     OW 1486   2.575   0.073   1.270 -0.0502  0.2039  0.1506
  496SOL    HW1 1487   2.549   0.077   1.174  0.7112  0.6414  1.3809
  496SOL    HW2 1488   2.594   0.162   1.313  1.6068 -0.6380 -1.8049
  497SOL     OW 1489   2.860   0.982   2.728  0.3524 -0.0607  0.6262
  497SOL    HW1 1490   2.915   0.897   2.749 -0.9182  0.6520  1.3227
  497SOL    HW2 1491   2.906   1.063   2.759 -1.4313 -1.6087 -0.0355
  498SOL     OW 1492   2.880   1.774   1.770 -0.2061 -0.1308 -0.3569
  498SOL    HW1 1493   2.816   1.694   1.790 -0.4910  0.2703  1.2387
  498SOL    HW2 1494   2.966   1.783   1.827 -0.0127 -0.5132  1.0935
  499SOL     OW 1495   0.676   2.453   2.761 -0.0014  0.0451 -0.2457
  499SOL    HW1 1496   0.720   2.389   2.833  1.7367  1.4713 -1.3836
  499SOL    HW2 1497   0.693   2.421   2.667  1.7078 -0.1232 -0.8730
  500SOL     OW 1498   1.774   0.428   0.341 -0.5557 -0.6886  0.2224
  500SOL    HW1 1499   1.786   0.511   0.287 -0.4796 -0.5590 -1.8201
  500SOL    HW2 1500   1.677   0.408   0.363 -0.1521  0.8238  0.1441
  501SOL     OW 1501   1.283   0.230   1.667 -0.5849  0.4302 -0.1230
  501SOL    HW1 1502   1.294   0.292   1.744  1.9774 -0.8416 -0.8530
  501SOL    HW2 1503   1.372   0.208   1.618  0.8588 -1.4524 -2.8812
  502SOL     OW 1504   2.435   0.510   1.663 -0.3676 -0.0730  0.4464
  502SOL    HW1 1505   2.468   0.581   1.599  2.0505  2.8258  0.6128
  502SOL    HW2 1506   2.341   0.484   1.639  3.5796  1.0976 -2.8078
  503SOL     OW 1507   2.271   1.782   2.090 -0.1038 -0.7592 -0.0210
  503SOL    HW1 1508   2.236   1.870   2.057  2.2717 -0.5547 -0.3729
  503SOL    HW2 1509   2.217   1.705   2.054  1.1352  0.3089  1.4328
  504SOL     OW 1510   1.538   1.238   1.669 -0.1910  0.0142 -0.2266
  504SOL    HW1 1511   1.586   1.204   1.752  1.5019 -1.5874  3.1937
  504SOL    HW2 1512   1.497   1.160   1.618  2.0471  0.2751 -2.8283
  505SOL     OW 1513   0.799   0.772   1.579  0.3200 -0.2699 -0.5016
  505SOL    HW1 1514   0.759   0.681   1.550 -0.0543 -0.0359  2.4549
  505SOL    HW2 1515   0.803   0.789   1.678 -0.5977  0.0088 -1.4457
  506SOL     OW 1516   0.331   0.291   2.852  0.3231 -0.1013 -0.5595
  506SOL    HW1 1517   0.376   0.230   2.919 -3.8149  1.3356  2.4924
  506SOL    HW2 1518   0.351   0.391   2.870  4.3640 -2.3788 -1.5102
  507SOL     OW 1519   0.389   0.037   0.283  1.1614  0.1037 -0.3665
  507SOL    HW1 1520   0.341   0.005   0.364 -4.4642  3.3207 -0.5872
  507SOL    HW2 1521   0.338   0.116   0.240 -3.4554  2.7510 -0.6473
  508SOL     OW 1522   0.829   0.825   1.854 -0.0439 -0.1584 -0.2296
  508SOL    HW1 1523   0.826   0.924   1.836 -0.9916 -3.3395  2.7305
  508SOL    HW2 1524   0.896   0.805   1.932  1.6515 -1.5099  4.3284
  509SOL     OW 1525   1.377   2.301   0.880  0.6101 -0.1659 -0.2238
  509SOL    HW1 1526   1.400   2.264   0.966 -3.4456  0.5516 -2.4060
  509SOL    HW2 1527   1.321   2.238   0.826 -1.1141  0.5614 -0.4834
  510SOL     OW 1528   2.709   1.462   1.740  0.3204 -0.2143 -0.5577
  510SOL    HW1 1529   2.804   1.470   1.704  3.4789 -0.4976 -0.8912
  510SOL    HW2 1530   2.700   1.520   1.822 -0.7909  3.3271 -0.5018
  511SOL     OW 1531   0.940   2.335   1.353  0.0618  0.4812  0.2956
  511SOL    HW1 1532   1.039   2.342   1.379  1.8983  0.9461 -1.4413
  511SOL    HW2 1533   0.920   2.236   1.326  1.3359 -2.3659 -2.1160
  512SOL     OW 1534   2.803   1.535   0.764  0.6974  0.4323  0.3789
  512SOL    HW1 1535   2.851   1.448   0.763 -2.5630  1.2561 -0.6343
  512SOL    HW2 1536   2.864   1.609   0.738  0.8499 -3.3845  2.1264
  513SOL     OW 1537   0.181   1.779   2.861  0.0971 -0.2804 -0.2994
  513SOL    HW1 1538   0.110   1.843   2.892 -0.9559  0.3945 -0.0703
  513SOL    HW2 1539   0.226   1.741   2.943 -1.7104 -1.0824 -0.8328
  514SOL     OW 1540   2.505   2.074   2.638 -0.2508  0.3349  0.0895
  514SOL    HW1 1541   2.412   2.096   2.601  0.2500  0.7159  2.2980
  514SOL    HW2 1542   2.579   2.122   2.589  1.7834 -1.6439  3.3530
  515SOL     OW 1543   2.485   0.907   0.692  0.0169  0.1697  0.2210
  515SOL    HW1 1544   2.454   0.832   0.756 -2.4805  0.2178 -0.3536
  515SOL    HW2 1545   2.585   0.920   0.680 -0.7159  3.1884 -1.3615
  516SOL     OW 1546   2.650   1.823   0.070  0.3707  0.4430  0.1065
  516SOL    HW1 1547   2.566   1.767   0.064 -0.2462 -1.5884 -0.3663
  516SOL    HW2 1548   2.728   1.768   0.031 -0.8530 -2.7617  0.3579
  517SOL     OW 1549   0.711   1.403   2.922 -0.1443 -0.0077 -0.4486
  517SOL    HW1 1550   0.811   1.412   2.936 -0.9536 -0.3337  1.4056
  517SOL    HW2 1551   0.663   1.357   3.002  0.9407 -1.1670  0.1977
  518SOL     OW 1552   2.712   0.038   2.275  0.2390  0.3304  0.4408
  518SOL    HW1 1553   2.781   0.099   2.228  1.1607 -3.7595  0.2771
  518SOL    HW2 1554   2.764   0.001   2.355  0.0698 -0.7465 -1.2850
  519SOL     OW 1555   1.623   1.291   2.829 -0.9473 -0.0879 -0.1827
  519SOL    HW1 1556   1.567   1.228   2.876  2.7476  1.9818 -0.7006
  519SOL    HW2 1557   1.659   1.358   2.898 -2.7846 -2.6600  0.6226
  520SOL     OW 1558   2.732   2.755   2.348  0.2041 -0.8037  0.4456
  520SOL    HW1 1559   2.700   2.764   2.251 -3.1677 -1.1481  0.8354
  520SOL    HW2 1560   2.654   2.716   2.403  2.3319 -1.2847  1.0805
  521SOL     OW 1561   0.370   1.590   2.370 -0.0572  0.2486  0.1056
  521SOL    HW1 1562   0.372   1.684   2.415 -2.0507 -0.8229 -0.4267
  521SOL    HW2 1563   0.302   1.604   2.294 -1.3026  3.6036  2.1008
  522SOL     OW 1564   1.197   2.766   2.047  0.5947 -0.4394  0.2765
  522SOL    HW1 1565   1.210   2.688   1.982 -2.7226 -1.0063  1.4523
  522SOL    HW2 1566   1.116   2.747   2.103 -1.7182  1.0441 -2.2606
  523SOL     OW 1567   2.653   2.226   1.283  0.1412 -0.3765  0.3030
  523SOL    HW1 1568   2.651   2.314   1.233 -0.7821  1.4522  0.7300
  523SOL    HW2 1569   2.648   2.242   1.382 -0.1112 -0.1060 -1.0003
  524SOL     OW 1570   1.711   2.348   0.769  0.4242  0.6706  0.2110
  524SOL    HW1 1571   1.666   2.425   0.820 -0.0236  2.3755  1.4669
  524SOL    HW2 1572   1.637   2.299   0.721  0.4945  1.2199  1.0856
  525SOL     OW 1573   2.890   0.504   0.832  0.2873 -0.3720  0.0022
  525SOL    HW1 1574   2.819   0.541   0.896 -0.4661  2.2835 -0.6179
  525SOL    HW2 1575   2.909   0.410   0.861  0.6773  1.4357  0.7860
  526SOL     OW 1576   1.491   2.715   0.993 -0.1549 -0.4741 -0.1254
  526SOL    HW1 1577   1.478   2.660   1.077  0.0605  0.9056 -3.6896
  526SOL    HW2 1578   1.578   2.768   0.988 -5.0816  2.5737  2.4003
  527SOL     OW 1579   2.132   2.059   0.834  0.1181 -0.4505 -0.5257
  527SOL    HW1 1580   2.182   2.121   0.896 -0.5406 -2.6514  1.5503
  527SOL    HW2 1581   2.146   1.958   0.864 -0.3133 -3.7519 -0.2817
  528SOL     OW 1582   2.147   3.017   2.661  0.1021  0.0546  0.3083
  528SOL    HW1 1583   2.086   2.934   2.669  0.0532  2.2234  0.0127
  528SOL    HW2 1584   2.206   3.016   2.580 -1.0426 -0.5726  2.8455
  529SOL     OW 1585   1.390   1.546   2.374  0.1320 -0.1829 -0.6958
  529SOL    HW1 1586   1.403   1.494   2.461 -0.2298  1.1359  1.2718
  529SOL    HW2 1587   1.453   1.631   2.367  0.8182  2.9093 -1.3740
  530SOL     OW 1588   2.161   1.092   2.291 -0.5364 -0.1060 -0.2273
  530SOL    HW1 1589   2.228   1.035   2.242 -2.7833  0.0104 -0.0500
  530SOL    HW2 1590   2.071   1.043   2.296  0.4276  0.7068  0.6269
  531SOL     OW 1591   0.280   0.901   3.092  0.2821 -0.5837 -0.1538
  531SOL    HW1 1592   0.367   0.865   0.012 -0.9674  0.5262  1.7224
  531SOL    HW2 1593   0.208   0.879   0.053  2.8381  0.7686  2.2118
  532SOL     OW 1594   1.498   1.425   0.547  0.3906  0.4469 -0.2345
  532SOL    HW1 1595   1.540   1.473   0.625  2.3126 -1.5431  0.3153
  532SOL    HW2 1596   1.404   1.405   0.572 -1.7512 -1.2917 -0.6786
  533SOL     OW 1597   0.436   0.626   2.213  0.6909 -0.5614 -0.4038
  533SOL    HW1 1598   0.524   0.607   2.169 -3.5326 -2.2839  0.1642
  533SOL    HW2 1599   0.412   0.565   2.292 -0.4731  0.6059 -1.7106
  534SOL     OW 1600   1.393   0.530   2.586  0.8495  0.7030  0.3090
  534SOL    HW1 1601   1.346   0.474   2.659  0.9402 -0.2844 -1.5064
  534SOL    HW2 1602   1.397   0.624   2.623 -1.8397 -2.1414 -0.7888
  535SOL     OW 1603   0.418   0.530   0.154 -0.1051 -0.1296  0.1433
  535SOL    HW1 1604   0.321   0.566   0.168  1.5714  2.5230 -0.6217
  535SOL    HW2 1605   0.450   0.572   0.067 -2.4408 -1.3034  1.3950
  536SOL     OW 1606   0.530   0.656   3.060 -0.1993 -0.0194 -0.3735
  536SOL    HW1 1607   0.555   0.744   0.001 -0.6088  0.8690  0.5720
  536SOL    HW2 1608   0.607   0.588   3.054  0.7858 -1.7315  1.3695
  537SOL     OW 1609   1.308   0.073   1.334  0.3289  0.8437 -0.1371
  537SOL    HW1 1610   1.214   0.035   1.356  0.8749  0.9228 -0.9169
  537SOL    HW2 1611   1.383   0.005   1.362  0.6110 -2.3007 -0.3158
  538SOL     OW 1612   0.572   2.804   3.040  0.2563 -0.3181 -0.0650
  538SOL    HW1 1613   0.516   2.892   3.046 -1.4828 -1.1101  0.7739
  538SOL    HW2 1614   0.525   2.736   2.978  1.7883  0.5822  0.1964
  539SOL     OW 1615   2.821   1.159   1.894 -0.5302 -0.1257  0.1793
  539SOL    HW1 1616   2.885   1.117   1.824 -0.5205 -1.0982 -3.3942
  539SOL    HW2 1617   2.858   1.235   1.944 -0.7919  2.6690 -1.3163
  540SOL     OW 1618   2.298   1.658   1.416 -0.0744 -0.5015 -0.0471
  540SOL    HW1 1619   2.347   1.715   1.349 -0.5657  1.2275 -2.2681
  540SOL    HW2 1620   2.293   1.705   1.507 -0.5801  1.4077 -0.5190
  541SOL     OW 1621   0.705   2.472   1.674  0.2935  0.0201 -0.0551
  541SOL    HW1 1622   0.632   2.482   1.600 -1.7293  0.7211 -0.0820
  541SOL    HW2 1623   0.690   2.533   1.752  0.4646  3.4763  0.6271
  542SOL     OW 1624   2.525   0.847   1.904  0.7967  0.3796 -0.2799
  542SOL    HW1 1625   2.593   0.784   1.946 -2.7024  0.7370 -1.1512
  542SOL    HW2 1626   2.437   0.795   1.883  0.3091 -0.5788 -0.0538
  543SOL     OW 1627   0.995   0.592   0.691 -0.5621  0.1235 -0.4159
  543SOL    HW1 1628   1.043   0.618   0.600  2.0664 -0.7150 -0.9860
  543SOL    HW2 1629   1.000   0.677   0.747  3.6623 -0.9933 -1.1833
  544SOL     OW 1630   2.007   1.800   1.435  0.4723 -0.1554  0.0382
  544SOL    HW1 1631   1.910   1.823   1.405 -1.6732 -0.9519 -1.7679
  544SOL    HW2 1632   2.022   1.701   1.428 -1.2090  0.1933  0.0488
  545SOL     OW 1633   1.525   1.460   1.308 -0.0412  0.6256 -0.1006
  545SOL    HW1 1634   1.473   1.372   1.304  1.7267  0.9589 -2.0963
  545SOL    HW2 1635   1.604   1.452   1.373 -0.5479  0.9321 -1.2766
  546SOL     OW 1636   0.203   0.017   2.923 -0.8066  0.2434 -0.0790
  546SOL    HW1 1637   0.126   3.062   2.921  2.0730  0.8275 -0.8383
  546SOL    HW2 1638   0.188   0.114   2.943  0.4998  0.8059  1.6357
  547SOL     OW 1639   2.237   0.388   2.581 -0.3094 -0.1444 -0.1644
  547SOL    HW1 1640   2.220   0.310   2.645  0.4819 -1.7875 -0.6682
  547SOL    HW2 1641   2.272   0.470   2.628 -0.9412 -1.7164 -1.8760
  548SOL     OW 1642   2.495   2.018   2.308  0.2497 -0.1031 -1.4358
  548SOL    HW1 1643   2.400   2.048   2.324 -1.9633  0.3607 -2.0249
  548SOL    HW2 1644   2.546   2.105   2.286  1.1920  3.1404 -1.6153
  549SOL     OW 1645   2.367   3.021   0.797 -0.1056 -0.0764 -0.4068
  549SOL    HW1 1646   2.380   2.978   0.708 -0.7769  2.1146  4.1839
  549SOL    HW2 1647   2.267   3.031   0.814  1.0299 -1.2229  1.6615
  550SOL     OW 1648   2.586   0.907   0.098 -0.2149 -0.3841  1.0780
  550SOL    HW1 1649   2.543   0.847   0.027 -1.5118 -0.4097 -2.0025
  550SOL    HW2 1650   2.535   0.997   0.110  1.3737  0.5598 -2.8500
  551SOL     OW 1651   1.330   2.815   1.316  0.5752 -0.1114 -0.0127
  551SOL    HW1 1652   1.353   2.720   1.285  1.1125 -2.2273  0.6666
  551SOL    HW2 1653   1.279   2.857   1.237  0.2079 -1.7317 -1.1332
  552SOL     OW 1654   2.701   2.598   2.799  0.1289  0.1464  0.1245
  552SOL    HW1 1655   2.770   2.669   2.819  0.9160  1.4782 -2.3915
  552SOL    HW2 1656   2.632   2.604   2.877 -2.6585 -0.7575  0.9605
  553SOL     OW 1657   0.663   3.018   0.581 -0.4175 -0.7636  0.4326
  553SOL    HW1 1658   0.600   3.099   0.613  1.0598  0.4958 -0.6809
  553SOL    HW2 1659   0.751   3.053   0.534 -0.0131 -1.3687 -1.8192
  554SOL     OW 1660   1.893   2.126   1.640 -0.3950  0.3224 -0.4955
  554SOL    HW1 1661   1.831   2.175   1.699 -0.7299  0.2470 -0.4952
  554SOL    HW2 1662   1.842   2.094   1.556 -0.9170  0.8326  1.4047
  555SOL     OW 1663   1.349   2.516   1.896 -0.2816 -0.5636  0.9119
  555SOL    HW1 1664   1.362   2.453   1.818  0.2031  0.2585 -2.1241
  555SOL    HW2 1665   1.415   2.596   1.898  0.0889  2.0889  1.2538
  556SOL     OW 1666   1.624   1.485   0.764 -0.3524 -0.2416  0.2046
  556SOL    HW1 1667   1.588   1.506   0.853 -0.5048  0.2392 -2.3649
  556SOL    HW2 1668   1.688   1.565   0.745  1.0306  3.9662  2.1595
  557SOL     OW 1669   1.389   2.094   2.038  0.2615  0.3689 -0.0248
  557SOL    HW1 1670   1.374   2.112   1.939  1.6147 -0.2872  3.3355
  557SOL    HW2 1671   1.444   2.168   2.085 -2.9691  1.6273  2.8674
  558SOL     OW 1672   0.024   0.615   2.227 -0.1356 -0.3206 -0.0412
  558SOL    HW1 1673   0.089   0.576   2.162 -1.9039  0.6701  1.0837
  558SOL    HW2 1674   0.042   0.581   2.319 -3.3618  0.3230  1.1303
  559SOL     OW 1675   2.182   2.802   2.093  0.4670  1.0629 -0.0376
  559SOL    HW1 1676   2.217   2.716   2.045 -2.0396  1.4437  0.2989
  559SOL    HW2 1677   2.191   2.797   2.191 -0.9642 -0.0310 -2.5178
  560SOL     OW 1678   0.453   3.040   3.011  0.0684  0.0392  0.2725
  560SOL    HW1 1679   0.450   0.011   3.078  1.0604 -1.1110  1.0784
  560SOL    HW2 1680   0.364   3.041   2.964  1.8287  0.9023  0.1771
  561SOL     OW 1681   1.472   1.116   0.288 -0.2577 -0.1584 -0.5146
  561SOL    HW1 1682   1.498   1.177   0.210  1.3148  0.0070  0.3521
  561SOL    HW2 1683   1.375   1.138   0.312 -0.1171 -0.0708 -0.0724
  562SOL     OW 1684   0.920   1.278   2.233  0.9520  0.4642 -0.3244
  562SOL    HW1 1685   0.862   1.287   2.317  2.7559 -0.9151 -0.4806
  562SOL    HW2 1686   0.995   1.342   2.238 -2.8227 -0.0015 -0.7854
  563SOL     OW 1687   1.815   2.362   3.071 -0.4878 -0.4590  0.6126
  563SOL    HW1 1688   1.748   2.286   3.089 -2.3299 -0.4308  3.1369
  563SOL    HW2 1689   1.805   2.388   2.974 -0.5362  0.1278  1.6436
  564SOL     OW 1690   3.024   1.932   0.486  0.2299  0.1206 -0.0386
  564SOL    HW1 1691   3.096   1.989   0.519 -1.4465 -1.9253  0.7029
  564SOL    HW2 1692   2.951   1.991   0.444 -1.1741  1.8424  0.3942
  565SOL     OW 1693   1.119   2.782   2.775  0.5097  0.2219 -0.3424
  565SOL    HW1 1694   1.132   2.863   2.832 -0.5270  0.5577 -1.6497
  565SOL    HW2 1695   1.020   2.750   2.765  2.4328  0.5310  1.0128
  566SOL     OW 1696   2.001   2.684   2.894 -0.2403 -0.3613  0.5640
  566SOL    HW1 1697   1.972   2.767   2.839  2.6013  1.8338 -2.3777
  566SOL    HW2 1698   1.936   2.675   2.972  1.2092 -2.0708 -0.3811
  567SOL     OW 1699   2.586   1.131   1.097  0.2783  0.4824  0.8958
  567SOL    HW1 1700   2.603   1.052   1.030  0.3447  0.3774  2.6743
  567SOL    HW2 1701   2.668   1.189   1.105  0.2405 -0.6212 -0.2781
  568SOL     OW 1702   2.085   1.228   2.811 -0.2459  0.1146 -0.0159
  568SOL    HW1 1703   2.114   1.216   2.714 -3.4684  1.5543  2.4221
  568SOL    HW2 1704   1.987   1.194   2.834  0.1098 -0.8303 -0.7206
  569SOL     OW 1705   2.257   1.609   2.515  0.6022  0.4320 -0.4487
  569SOL    HW1 1706   2.323   1.620   2.434  2.4050 -0.0824  1.4260
  569SOL    HW2 1707   2.155   1.616   2.488 -2.1433  0.1220 -1.7474
  570SOL     OW 1708   2.918   2.590   1.948  1.0224 -0.1436 -0.1173
  570SOL    HW1 1709   2.976   2.588   2.033  1.1650 -1.9575  0.0314
  570SOL    HW2 1710   2.970   2.609   1.865 -1.5129 -1.0113  4.1887
  571SOL     OW 1711   0.333   0.234   1.948  0.2238  0.1204 -0.0765
  571SOL    HW1 1712   0.297   0.324   1.922 -1.4606  0.1307 -1.9366
  571SOL    HW2 1713   0.285   0.150   1.912  2.5033 -0.9219 -1.2498
  572SOL     OW 1714   0.890   1.890   0.927 -0.2345 -0.1730  0.2543
  572SOL    HW1 1715   0.890   1.814   0.857  0.7613 -0.1643 -0.6060
  572SOL    HW2 1716   0.991   1.914   0.937 -1.5176 -1.8683 -0.1383
  573SOL     OW 1717   1.341   0.592   0.393  0.1894 -0.3664  0.8073
  573SOL    HW1 1718   1.253   0.620   0.431  1.2505  0.0852 -0.0562
  573SOL    HW2 1719   1.358   0.635   0.302  0.9862  1.7299 -0.3497
  574SOL     OW 1720   0.532   2.894   0.356 -0.4754  0.0031  0.0716
  574SOL    HW1 1721   0.475   2.965   0.300  1.4152  1.5843 -1.5161
  574SOL    HW2 1722   0.593   2.934   0.426 -1.4098 -1.5741 -1.7276
  575SOL     OW 1723   0.271   1.403   1.294  0.8551 -0.0873  0.1217
  575SOL    HW1 1724   0.219   1.405   1.206 -0.7769  1.0949 -3.4608
  575SOL    HW2 1725   0.370   1.404   1.274 -0.6585 -1.2947 -0.5357
  576SOL     OW 1726   2.614   0.111   1.843 -0.0759 -0.0988 -0.1364
  576SOL    HW1 1727   2.668   0.176   1.899  0.6588  1.0868 -0.3801
  576SOL    HW2 1728   2.521   0.144   1.828  0.0766 -0.1913  0.2730
  577SOL     OW 1729   2.745   1.592   1.977 -0.1495  0.5014 -0.0112
  577SOL    HW1 1730   2.658   1.639   2.010  1.9955 -3.7415 -3.2928
  577SOL    HW2 1731   2.822   1.618   2.042 -1.0874  2.2113  3.2513
  578SOL     OW 1732   1.097   0.039   2.099 -0.7606 -0.1489  0.7422
  578SOL    HW1 1733   1.133   0.057   2.189  0.1508  0.3284 -2.4494
  578SOL    HW2 1734   1.170   0.009   2.036  0.6818  0.6824 -0.4959
  579SOL     OW 1735   2.101   1.986   2.009  0.6059  0.1856  0.2979
  579SOL    HW1 1736   2.044   1.945   1.934  2.5791 -1.4234  0.8001
  579SOL    HW2 1737   2.100   2.087   2.003  0.9186  0.4540 -0.2014
  580SOL     OW 1738   2.014   1.207   2.017 -0.3808  0.2671  0.3385
  580SOL    HW1 1739   2.045   1.110   2.043  0.1058  0.4467 -0.3275
  580SOL    HW2 1740   2.094   1.271   2.001 -1.9054 -0.1291  0.7467
  581SOL     OW 1741   1.576   1.123   2.498  0.1727 -0.1852  0.1082
  581SOL    HW1 1742   1.577   1.165   2.402 -1.2392  1.8930 -1.6832
  581SOL    HW2 1743   1.660   1.142   2.549 -0.8720 -0.1921 -1.6309
  582SOL     OW 1744   2.984   2.366   1.567 -0.5078  0.1411  0.2916
  582SOL    HW1 1745   2.984   2.266   1.558  0.9078  1.5417 -0.5491
  582SOL    HW2 1746   2.929   2.382   1.645  0.2164 -3.3189 -1.2144
  583SOL     OW 1747   1.612   0.995   0.793  0.1809 -0.0410  0.2068
  583SOL    HW1 1748   1.684   0.924   0.831  1.4753 -2.3362  0.3474
  583SOL    HW2 1749   1.618   0.994   0.691  1.2567  3.0421 -0.3877
  584SOL     OW 1750   1.005   2.453   0.363  0.4211 -0.1464 -0.1470
  584SOL    HW1 1751   0.930   2.519   0.336 -1.8477 -1.4973  2.9472
  584SOL    HW2 1752   1.084   2.450   0.297 -2.1821 -1.0811 -0.0571
  585SOL     OW 1753   0.154   2.630   2.920 -0.3372  0.4752  0.0029
  585SOL    HW1 1754   0.189   2.695   2.849 -0.0006  2.6981  1.1093
  585SOL    HW2 1755   0.216   2.555   2.923 -2.9275  1.3928 -0.5427
  586SOL     OW 1756   2.358   0.981   0.432 -0.2747  0.0542 -0.0209
  586SOL    HW1 1757   2.419   0.943   0.503  3.1798  2.2380 -0.0058
  586SOL    HW2 1758   2.379   1.080   0.411  0.0769 -0.1153  0.1643
  587SOL     OW 1759   0.092   1.454   0.358  0.2998  0.1757  0.6355
  587SOL    HW1 1760   0.066   1.549   0.334 -0.6668  2.8278 -1.1002
  587SOL    HW2 1761   0.068   1.436   0.456 -1.0009 -0.6537 -0.3929
  588SOL     OW 1762   0.068   0.457   0.623 -0.2561 -0.1137  0.0832
  588SOL    HW1 1763   0.142   0.526   0.638  0.6588  1.7002 -2.1893
  588SOL    HW2 1764   0.043   0.399   0.701 -0.2805 -0.3294 -0.6355
  589SOL     OW 1765   1.496   0.076   0.760 -0.6873  0.1111  0.1491
  589SOL    HW1 1766   1.488   0.067   0.862 -0.2343  0.0993  0.9951
  589SOL    HW2 1767   1.499   0.175   0.727 -3.5413 -0.4585 -0.4361
  590SOL     OW 1768   2.526   2.174   0.247 -1.1995 -0.3884  0.4758
  590SOL    HW1 1769   2.437   2.125   0.223 -1.6072 -2.7399  0.4484
  590SOL    HW2 1770   2.506   2.264   0.293 -1.5910  0.9031  0.9526
  591SOL     OW 1771   0.175   2.163   1.856  0.1510  0.0208 -0.7620
  591SOL    HW1 1772   0.260   2.140   1.913  0.8288 -2.3879  1.2745
  591SOL    HW2 1773   0.154   2.082   1.794  0.5346 -1.5815  0.8441
  592SOL     OW 1774   0.102   1.505   2.211  0.7853  0.6771  0.0407
  592SOL    HW1 1775   0.062   1.487   2.302  1.6974  0.9098  1.0719
  592SOL    HW2 1776   0.046   1.576   2.166  1.3112 -0.4338 -1.8991
  593SOL     OW 1777   1.375   1.969   1.424  0.0279  0.2256 -0.4135
  593SOL    HW1 1778   1.276   1.936   1.437 -0.6689 -1.4110  1.4927
  593SOL    HW2 1779   1.439   1.913   1.481 -0.3393 -0.7464 -0.3965
  594SOL     OW 1780   0.601   1.304   2.691 -0.6762  0.7557 -0.2637
  594SOL    HW1 1781   0.610   1.201   2.688  0.8010  0.2100  2.3214
  594SOL    HW2 1782   0.634   1.333   2.784 -1.0135 -0.6116  1.3716
  595SOL     OW 1783   1.752   0.584   0.967  0.2596  0.3700  0.1330
  595SOL    HW1 1784   1.674   0.604   1.030  0.5339  1.1596 -0.4271
  595SOL    HW2 1785   1.817   0.511   0.999 -0.2002  1.6044  1.5176
  596SOL     OW 1786   0.380   1.033   1.234  0.7372 -0.8077 -0.0123
  596SOL    HW1 1787   0.472   1.069   1.253 -2.2614 -0.3452  3.4032
  596SOL    HW2 1788   0.317   1.056   1.313  0.9133 -0.0326  2.2221
  597SOL     OW 1789   0.151   2.680   2.346  0.2691  0.9609  0.4833
  597SOL    HW1 1790   0.195   2.766   2.378 -0.2491 -0.1645 -3.1391
  597SOL    HW2 1791   0.194   2.591   2.382  0.7033 -0.1847  0.8409
  598SOL     OW 1792   2.351   2.233   2.396 -0.1322  0.1140  0.3257
  598SOL    HW1 1793   2.277   2.268   2.333  0.1323 -0.2447  1.3586
  598SOL    HW2 1794   2.427   2.304   2.404 -1.6924  1.2437 -0.9475
  599SOL     OW 1795   1.252   1.165   0.404 -0.0886  0.1820 -0.2864
  599SOL    HW1 1796   1.192   1.247   0.393 -1.7089 -0.8276  1.7443
  599SOL    HW2 1797   1.264   1.140   0.503  1.2496 -1.0362  1.4878
  600SOL     OW 1798   1.514   0.371   0.405  0.0391  0.9319  0.1827
  600SOL    HW1 1799   1.442   0.441   0.417  2.7423  0.7780 -0.5643
  600SOL    HW2 1800   1.562   0.362   0.494 -1.8557  1.7994 -0.4152
  601SOL     OW 1801   0.667   0.534   1.574  0.1297 -0.2095 -0.5118
  601SOL    HW1 1802   0.609   0.536   1.657 -1.6283 -1.3723 -0.4387
  601SOL    HW2 1803   0.663   0.441   1.524  0.3371  0.7883 -0.2597
  602SOL     OW 1804   0.218   2.486   0.525  0.0009 -0.2529 -0.3878
  602SOL    HW1 1805   0.193   2.401   0.477 -4.1098  4.2975  0.2416
  602SOL    HW2 1806   0.259   2.552   0.459 -0.9603 -0.3464  1.1117
  603SOL     OW 1807   0.993   0.029   2.478  0.4754  0.0803 -0.4281
  603SOL    HW1 1808   0.974   0.037   2.578  0.5213  2.5856 -1.5761
  603SOL    HW2 1809   1.087   3.102   2.462  0.8055  1.5201  1.7893
  604SOL     OW 1810   1.230   2.483   0.205 -0.0144  0.4481  1.3918
  604SOL    HW1 1811   1.323   2.475   0.238  0.1473  0.9974 -0.5731
  604SOL    HW2 1812   1.217   2.566   0.155 -0.0459  3.4057  1.8564
  605SOL     OW 1813   1.724   1.229   1.871  0.4656 -0.0197  0.0058
  605SOL    HW1 1814   1.736   1.311   1.926  2.5580 -0.7512 -1.6206
  605SOL    HW2 1815   1.809   1.200   1.827 -0.9455  1.4922 -1.9811
  606SOL     OW 1816   1.034   1.127   2.716  0.0021 -0.2023  0.6325
  606SOL    HW1 1817   1.080   1.037   2.710  1.9393 -0.3721  1.2596
  606SOL    HW2 1818   1.037   1.181   2.631  2.0689 -1.0580  0.4590
  607SOL     OW 1819   0.655   1.124   1.254  0.3243  1.1087 -0.0628
  607SOL    HW1 1820   0.647   1.083   1.344  0.4642  0.7557 -1.9142
  607SOL    HW2 1821   0.749   1.119   1.214  0.7058 -0.1686 -1.1997
  608SOL     OW 1822   2.544   2.038   1.988  0.2850 -0.3107 -0.4646
  608SOL    HW1 1823   2.455   2.067   1.953  1.6022  2.3887  0.3598
  608SOL    HW2 1824   2.568   2.094   2.069 -0.8784  0.6801 -1.1317
  609SOL     OW 1825   2.073   0.131   0.089  0.0905  0.1702  0.2544
  609SOL    HW1 1826   2.055   0.163   0.185 -0.0243 -0.2881 -0.3795
  609SOL    HW2 1827   2.115   0.036   0.074  1.3261 -4.4022 -0.6010
  610SOL     OW 1828   0.339   2.796   1.698  0.1114  0.1846 -0.2554
  610SOL    HW1 1829   0.359   2.787   1.795  0.5131  2.4814  0.5383
  610SOL    HW2 1830   0.418   2.821   1.638  0.5632 -1.9174  1.6868
  611SOL     OW 1831   1.332   1.630   1.226 -0.6559 -0.4506 -0.1743
  611SOL    HW1 1832   1.251   1.602   1.285  1.7572 -1.5851  0.4984
  611SOL    HW2 1833   1.413   1.571   1.243  2.0027  1.6098  1.0270
  612SOL     OW 1834   0.671   0.259   2.192  0.0058  0.7973  0.4413
  612SOL    HW1 1835   0.680   0.336   2.124 -0.5033 -0.4369 -0.3451
  612SOL    HW2 1836   0.753   0.247   2.250 -1.9819 -0.4499  1.4934
  613SOL     OW 1837   2.867   1.420   0.403  0.5236  0.1746 -0.0584
  613SOL    HW1 1838   2.876   1.324   0.434  0.8498 -0.3630  0.7730
  613SOL    HW2 1839   2.951   1.467   0.426 -0.0379 -2.2793  0.4023
  614SOL     OW 1840   1.683   0.119   1.873 -0.7036  0.4444  0.2247
  614SOL    HW1 1841   1.778   0.092   1.857 -0.5133 -0.6917  0.8283
  614SOL    HW2 1842   1.678   0.221   1.899  1.5863  3.6014  0.4610
  615SOL     OW 1843   0.828   1.714   1.479  0.1373  0.2384  0.4626
  615SOL    HW1 1844   0.928   1.719   1.469  0.7455 -0.6333 -3.3943
  615SOL    HW2 1845   0.789   1.805   1.492 -1.8251 -2.9340 -0.2396
  616SOL     OW 1846   1.455   1.895   3.019  0.1744  0.3402  0.0661
  616SOL    HW1 1847   1.514   1.877   3.100  0.2175  3.1726 -1.4228
  616SOL    HW2 1848   1.463   1.990   2.990 -1.1033 -2.0906  3.1076
  617SOL     OW 1849   1.919   2.956   0.020  0.3479  0.4940  0.0167
  617SOL    HW1 1850   1.901   3.023   3.056  2.2975  0.2191  2.2440
  617SOL    HW2 1851   1.837   2.895   0.046 -1.1970 -1.3305  0.7102
  618SOL     OW 1852   0.553   0.688   2.692  0.0564 -0.5232 -0.5524
  618SOL    HW1 1853   0.462   0.672   2.657  1.7240  0.1187 -3.1080
  618SOL    HW2 1854   0.603   0.722   2.611 -0.8076 -2.0539 -1.9894
  619SOL     OW 1855   2.811   1.154   0.593  0.4875 -0.0983  0.3866
  619SOL    HW1 1856   2.772   1.061   0.584  0.7024  1.0844 -0.9328
  619SOL    HW2 1857   2.737   1.222   0.596 -0.2409  3.2094  0.3109
  620SOL     OW 1858   2.492   2.540   2.980 -0.5319  0.0903 -0.2130
  620SOL    HW1 1859   2.390   2.558   2.989  0.7801 -0.6710  0.6304
  620SOL    HW2 1860   2.494   2.478   2.901 -0.3212  2.6790  2.3863
  621SOL     OW 1861   2.473   1.155   0.139 -0.0252  0.2600  0.3038
  621SOL    HW1 1862   2.451   1.152   0.237  0.5670  2.2480 -0.1233
  621SOL    HW2 1863   2.398   1.204   0.085 -0.9769  1.5509 -2.9744
  622SOL     OW 1864   1.364   2.362   2.436 -0.1013  0.1241  0.0763
  622SOL    HW1 1865   1.336   2.395   2.348 -0.5336 -0.8614  2.5552
  622SOL    HW2 1866   1.462   2.378   2.454  4.5577  1.0238 -1.6049
  623SOL     OW 1867   0.777   1.852   0.332 -0.0222  0.3413 -0.5513
  623SOL    HW1 1868   0.864   1.894   0.309 -3.6963 -0.1805  2.8413
  623SOL    HW2 1869   0.715   1.855   0.252  1.5084  1.2324 -1.1666
  624SOL     OW 1870   0.434   0.206   3.082  0.1885 -0.1731  0.5076
  624SOL    HW1 1871   0.402   0.229   0.067  2.4365  1.1701  1.5293
  624SOL    HW2 1872   0.536   0.219   3.078 -0.9429 -0.6127  0.2695
  625SOL     OW 1873   0.799   1.960   0.593  0.0699  0.0621 -0.5387
  625SOL    HW1 1874   0.787   1.903   0.512  2.4479 -0.0255  0.5355
  625SOL    HW2 1875   0.736   2.042   0.582 -0.0446  0.5114 -0.7179
  626SOL     OW 1876   2.689   0.024   2.819 -0.1360 -0.0176 -0.3707
  626SOL    HW1 1877   2.623   0.011   2.740  0.1772  0.6907 -0.5085
  626SOL    HW2 1878   2.639   0.035   2.907  2.9907 -1.0066  0.9884
  627SOL     OW 1879   1.469   1.439   2.645 -0.5754  0.3186  0.3982
  627SOL    HW1 1880   1.520   1.373   2.704  1.3214  0.8261  0.8329
  627SOL    HW2 1881   1.379   1.449   2.682  2.3477 -0.4344  1.8812
  628SOL     OW 1882   0.463   0.450   2.416 -0.7434 -0.1002 -0.2001
  628SOL    HW1 1883   0.525   0.385   2.370  3.1928  1.5377  1.1273
  628SOL    HW2 1884   0.451   0.434   2.513  1.1143  0.0016 -1.4326
  629SOL     OW 1885   0.109   2.900   2.018 -0.4744 -0.5162 -1.2118
  629SOL    HW1 1886   0.039   2.837   1.987 -0.6813 -0.4521  0.0167
  629SOL    HW2 1887   0.082   2.957   2.100  2.0213  0.3018  0.6172
  630SOL     OW 1888   1.623   0.811   2.035  1.0183 -0.4112  0.3177
  630SOL    HW1 1889   1.694   0.820   1.967 -1.3185  0.4112  2.3219
  630SOL    HW2 1890   1.573   0.902   2.038  0.8924 -0.2616 -4.1596
  631SOL     OW 1891   2.223   0.871   0.201  0.2396 -0.1443 -0.7047
  631SOL    HW1 1892   2.194   0.773   0.200  0.6278 -1.7226  1.5297
  631SOL    HW2 1893   2.282   0.897   0.284  1.4345  0.4012  2.0608
  632SOL     OW 1894   1.985   0.462   1.949 -0.0867 -0.5636 -0.3948
  632SOL    HW1 1895   2.023   0.501   2.037 -1.9920  0.0646 -1.6933
  632SOL    HW2 1896   1.993   0.361   1.944 -0.1771 -0.9309  0.3485
  633SOL     OW 1897   1.044   2.855   0.041  0.4281  0.0267  0.0862
  633SOL    HW1 1898   1.039   2.852   0.142  1.2722  2.4865 -0.5033
  633SOL    HW2 1899   0.962   2.810   0.003  1.2972  2.1155  1.2738
  634SOL     OW 1900   1.130   2.397   2.645 -0.3565 -0.4758 -0.6817
  634SOL    HW1 1901   1.103   2.419   2.552 -0.0836  0.1988  1.6030
  634SOL    HW2 1902   1.201   2.323   2.643  3.4543  0.0499  0.1104
  635SOL     OW 1903   2.236   0.290   3.030  0.1503 -0.2828  0.2323
  635SOL    HW1 1904   2.315   0.349   3.051 -2.4280 -1.8599 -1.1170
  635SOL    HW2 1905   2.195   0.253   0.004 -0.7932 -1.8962 -0.2383
  636SOL     OW 1906   0.754   1.226   0.708 -0.0631 -0.9057 -0.0238
  636SOL    HW1 1907   0.657   1.250   0.719  1.4699 -2.3034  1.0790
  636SOL    HW2 1908   0.775   1.156   0.778 -1.0680  1.5480 -1.3315
  637SOL     OW 1909   0.104   2.081   0.583 -0.4926  0.1956 -0.2313
  637SOL    HW1 1910   0.147   2.081   0.676  0.9504 -1.3042 -1.0297
  637SOL    HW2 1911   0.156   2.131   0.516  1.0223 -0.9146 -0.3459
  638SOL     OW 1912   0.649   0.006   2.852 -0.1422  0.2596  0.0432
  638SOL    HW1 1913   0.569   3.092   2.913  3.3590 -0.4104 -2.5443
  638SOL    HW2 1914   0.707   0.076   2.891 -0.7033  1.1851 -2.3771
  639SOL     OW 1915   1.420   1.660   0.334 -0.1676  0.5776 -0.0237
  639SOL    HW1 1916   1.471   1.597   0.397  0.8357  0.2555  2.5337
  639SOL    HW2 1917   1.381   1.739   0.388  2.5770 -1.0730  0.7427
  640SOL     OW 1918   1.722   2.863   0.948  0.1728 -0.5050  0.0383
  640SOL    HW1 1919   1.788   2.800   0.908  1.4718 -0.0487 -0.1885
  640SOL    HW2 1920   1.729   2.954   0.901  0.2138  0.4400  2.1734
  641SOL     OW 1921   0.016   2.634   0.701  0.0810 -0.3643 -0.4772
  641SOL    HW1 1922   0.108   2.599   0.678  1.8501  0.1602  0.6379
  641SOL    HW2 1923   3.054   2.559   0.701 -2.0438 -3.3110  0.4372
  642SOL     OW 1924   0.760   0.193   1.621  0.3162 -0.0315 -0.6428
  642SOL    HW1 1925   0.722   0.179   1.714 -0.5260 -1.7519  0.3272
  642SOL    HW2 1926   0.848   0.242   1.636  2.1125  0.3983 -0.5627
  643SOL     OW 1927   0.388   1.847   2.437 -0.4744  0.2369  0.0180
  643SOL    HW1 1928   0.319   1.920   2.450 -0.6182 -0.7334  1.7217
  643SOL    HW2 1929   0.465   1.875   2.370  2.5121 -1.8431 -3.5606
  644SOL     OW 1930   0.887   3.083   0.446  0.5123 -0.1830 -0.3057
  644SOL    HW1 1931   0.932   3.013   0.387  2.2868  1.3673 -0.2706
  644SOL    HW2 1932   0.927   0.071   0.439 -0.7403 -0.1650  1.3436
  645SOL     OW 1933   1.090   1.723   2.883 -0.2613  0.3478 -0.0825
  645SOL    HW1 1934   1.162   1.735   2.810  0.2942  0.2480 -1.4152
  645SOL    HW2 1935   1.120   1.747   2.973 -2.9286  0.7984 -0.7145
  646SOL     OW 1936   0.196   1.538   0.120 -0.0636  0.6026 -0.6526
  646SOL    HW1 1937   0.199   1.634   0.147 -0.1658 -1.9721 -1.2624
  646SOL    HW2 1938   0.179   1.478   0.197  0.1521  1.4178 -0.5239
  647SOL     OW 1939   0.952   0.049   1.072 -0.3480 -0.5167 -0.6396
  647SOL    HW1 1940   1.042   0.087   1.104  3.6292 -2.2109  0.5249
  647SOL    HW2 1941   0.968   3.059   1.042  4.0141  0.5756  0.7745
  648SOL     OW 1942   2.662   2.953   1.907  0.0149  0.5287  0.2765
  648SOL    HW1 1943   2.651   3.053   1.920 -0.0154 -3.2353  0.7424
  648SOL    HW2 1944   2.755   2.924   1.894 -1.9516  0.8473  0.7836
  649SOL     OW 1945   0.870   2.454   3.023 -0.0862 -0.0355 -0.5641
  649SOL    HW1 1946   0.848   2.364   3.065  2.3252  1.5093  0.9638
  649SOL    HW2 1947   0.851   2.529   3.091 -0.5808  1.4373 -0.7571
  650SOL     OW 1948   0.520   1.804   1.515 -0.1057  0.0215 -0.2387
  650SOL    HW1 1949   0.497   1.791   1.420 -0.9907  0.3828 -0.0846
  650SOL    HW2 1950   0.463   1.745   1.572  1.1398 -0.5698 -1.5798
  651SOL     OW 1951   0.715   0.195   3.057 -0.0117 -0.4441 -0.4044
  651SOL    HW1 1952   0.708   0.179   0.049 -3.2146 -0.6338  0.0432
  651SOL    HW2 1953   0.742   0.290   3.036  2.5146 -3.2427  2.3995
  652SOL     OW 1954   2.695   1.988   0.338 -0.0376  0.4478 -0.5337
  652SOL    HW1 1955   2.692   1.939   0.254 -1.4863  1.7956  0.9838
  652SOL    HW2 1956   2.627   2.065   0.333  2.9446  2.8561  2.6723
  653SOL     OW 1957   3.060   3.066   0.566  0.1326  0.1508 -0.1157
  653SOL    HW1 1958   3.006   0.040   0.592 -0.0730  0.1790  1.2237
  653SOL    HW2 1959   3.100   3.026   0.651 -0.1156  1.7075 -3.9172
  654SOL     OW 1960   1.739   0.108   2.602 -0.6120  0.5387 -0.0047
  654SOL    HW1 1961   1.662   0.122   2.668 -1.3173 -0.7375  0.5159
  654SOL    HW2 1962   1.729   0.014   2.564  0.1972 -1.3848  0.2650
  655SOL     OW 1963   0.754   2.512   1.324 -0.0713  0.0044  0.2436
  655SOL    HW1 1964   0.816   2.437   1.347 -1.7792  3.5980  0.7104
  655SOL    HW2 1965   0.672   2.508   1.381  1.2276 -1.0128 -1.3763
  656SOL     OW 1966   0.259   0.468   1.828 -0.5519  0.8703  0.5906
  656SOL    HW1 1967   0.351   0.506   1.848 -0.7250 -0.3026 -2.2367
  656SOL    HW2 1968   0.185   0.534   1.846  1.7368 -0.0079 -2.1246
  657SOL     OW 1969   2.238   0.832   1.900  0.1823 -0.6229 -0.1653
  657SOL    HW1 1970   2.163   0.882   1.949  2.4600 -1.1278  0.9847
  657SOL    HW2 1971   2.206   0.749   1.854  1.1120 -0.8770  2.3426
  658SOL     OW 1972   2.446   1.328   1.268 -0.1249  0.7410 -0.5153
  658SOL    HW1 1973   2.473   1.245   1.220 -0.1464  1.2107  2.2340
  658SOL    HW2 1974   2.506   1.335   1.349 -0.6783  1.1062  1.5561
  659SOL     OW 1975   2.541   0.088   3.049  0.0153  0.1371  0.7030
  659SOL    HW1 1976   2.503   0.163   3.107  0.0132  2.8213  1.6764
  659SOL    HW2 1977   2.588   0.019   0.008  0.6671  0.3570  1.6277
  660SOL     OW 1978   1.334   1.399   2.914  0.0276  0.4577 -0.4378
  660SOL    HW1 1979   1.355   1.397   3.015  1.4249 -1.6245  0.7059
  660SOL    HW2 1980   1.343   1.303   2.883  1.6739  0.7324 -0.1850
  661SOL     OW 1981   2.648   2.440   0.993 -0.3366 -0.8285 -0.2929
  661SOL    HW1 1982   2.665   2.340   0.984 -1.0579  2.8527  1.7238
  661SOL    HW2 1983   2.641   2.475   1.087 -0.3642  0.1524 -2.5732
  662SOL     OW 1984   0.626   0.872   0.097  0.1721  0.2157 -0.6081
  662SOL    HW1 1985   0.711   0.821   0.128  2.2513 -0.4629 -0.2537
  662SOL    HW2 1986   0.605   0.930   0.176 -0.0408 -0.7252 -0.6868
  663SOL     OW 1987   1.325   2.112   0.191  0.1835 -0.3799 -0.3421
  663SOL    HW1 1988   1.405   2.086   0.136 -2.7773  2.1451  1.2868
  663SOL    HW2 1989   1.266   2.175   0.142  3.5055 -0.2373 -0.5307
  664SOL     OW 1990   0.582   2.890   1.627  0.1850  0.0372 -0.2103
  664SOL    HW1 1991   0.627   2.896   1.538 -2.1828  0.7735  0.0501
  664SOL    HW2 1992   0.606   2.970   1.687 -0.1028 -1.9303  3.3156
  665SOL     OW 1993   2.040   1.903   1.756  0.5675 -0.0526 -0.1279
  665SOL    HW1 1994   1.995   1.968   1.690  0.7295  1.1230  0.2656
  665SOL    HW2 1995   2.008   1.808   1.741  0.5428 -0.8733 -0.0686
  666SOL     OW 1996   0.604   2.701   0.180  0.1628 -0.2156 -0.7900
  666SOL    HW1 1997   0.601   2.772   0.248  0.9359 -3.1564 -4.4579
  666SOL    HW2 1998   0.596   2.748   0.086  1.8136  2.8206 -3.4218
  667SOL     OW 1999   1.736   1.776   1.782 -0.2997 -0.0904  0.2630
  667SOL    HW1 2000   1.679   1.784   1.703  1.7277 -0.5035  0.7667
  667SOL    HW2 2001   1.728   1.849   1.851  1.1298 -1.0340  2.4110
  668SOL     OW 2002   0.688   0.777   2.437 -0.0953  0.3185 -0.0878
  668SOL    HW1 2003   0.646   0.841   2.364 -2.7521  1.1256  0.9488
  668SOL    HW2 2004   0.749   0.703   2.401 -0.3144  0.0753 -0.9476
  669SOL     OW 2005   2.002   2.230   2.455 -0.5785  0.4294  0.2140
  669SOL    HW1 2006   2.001   2.157   2.380 -0.6264 -1.0618  0.3146
  669SOL    HW2 2007   1.926   2.214   2.518  0.4697 -1.5890 -0.0678
  670SOL     OW 2008   2.286   2.025   0.238  0.2001  0.2058  0.3414
  670SOL    HW1 2009   2.283   1.976   0.147  1.1188  0.1483 -3.5887
  670SOL    HW2 2010   2.214   2.099   0.244 -0.6534  2.2658  0.5503
  671SOL     OW 2011   0.530   1.381   1.255  0.0359  0.4634 -0.0721
  671SOL    HW1 2012   0.608   1.446   1.239 -0.8950  1.3222  1.3657
  671SOL    HW2 2013   0.561   1.284   1.244 -1.2262 -1.2675  0.4218
  672SOL     OW 2014   2.603   1.013   2.250  0.1731 -0.3315 -0.4611
  672SOL    HW1 2015   2.667   0.999   2.170  0.5730  0.7052 -2.1557
  672SOL    HW2 2016   2.637   0.965   2.332  2.5208 -1.2342 -1.7568
  673SOL     OW 2017   2.815   1.948   2.595 -0.1225 -0.4390  0.0847
  673SOL    HW1 2018   2.730   1.895   2.575 -0.8506  1.8676 -0.0523
  673SOL    HW2 2019   2.801   2.042   2.557 -0.9852 -1.7604 -0.8082
  674SOL     OW 2020   0.986   2.685   2.218  0.0043  0.1330  0.0666
  674SOL    HW1 2021   0.935   2.768   2.260  0.9320  2.1732 -0.2373
  674SOL    HW2 2022   0.922   2.634   2.158 -0.8025 -2.1838  1.9592
  675SOL     OW 2023   0.623   0.965   1.465  0.0688 -0.1499  0.7760
  675SOL    HW1 2024   0.695   0.891   1.484 -0.3181  0.4946  1.5167
  675SOL    HW2 2025   0.561   0.975   1.542 -0.0090 -1.1714 -0.7218
  676SOL     OW 2026   1.869   0.943   0.453  0.3260 -0.3925 -0.4010
  676SOL    HW1 2027   1.775   0.971   0.476  2.4795  0.7570  0.8667
  676SOL    HW2 2028   1.918   0.924   0.541 -0.6345 -0.5975 -0.2688
  677SOL     OW 2029   2.925   1.614   2.831 -0.4928  0.7342  0.0798
  677SOL    HW1 2030   2.883   1.534   2.784  1.2193  0.8121  0.5902
  677SOL    HW2 2031   3.013   1.637   2.786 -1.4127  1.5926 -0.0399
  678SOL     OW 2032   0.009   2.408   1.131 -0.1240 -0.0275  0.1040
  678SOL    HW1 2033   3.039   2.415   1.202 -0.2254 -2.0515  0.8384
  678SOL    HW2 2034   0.024   2.488   1.073  2.4522 -1.6344  3.3913
  679SOL     OW 2035   2.077   2.792   0.625 -0.2672 -0.3587  0.2457
  679SOL    HW1 2036   2.013   2.750   0.557 -0.1918  0.3739 -3.2444
  679SOL    HW2 2037   2.175   2.805   0.591 -2.3305 -1.5260  0.9318
  680SOL     OW 2038   0.006   2.569   2.141  0.2658 -0.1025  0.0900
  680SOL    HW1 2039   3.046   2.534   2.207 -0.1972  0.3950  1.2101
  680SOL    HW2 2040   0.073   2.619   2.196  0.1925  2.2581  1.4208
  681SOL     OW 2041   3.016   1.264   1.522  0.2995 -0.3339 -0.1007
  681SOL    HW1 2042   3.073   1.267   1.441 -0.3288  1.3449  1.6185
  681SOL    HW2 2043   3.020   1.359   1.562  1.9835  3.8489 -0.1352
  682SOL     OW 2044   0.483   1.759   1.251 -0.4564 -0.2768 -0.0992
  682SOL    HW1 2045   0.560   1.692   1.240  1.5174  0.3363 -1.0062
  682SOL    HW2 2046   0.404   1.729   1.192 -0.6158 -1.1001 -0.4431
  683SOL     OW 2047   2.821   1.875   1.539  0.2198  0.1789 -0.0644
  683SOL    HW1 2048   2.835   1.835   1.627 -2.9147 -0.8210 -0.4964
  683SOL    HW2 2049   2.764   1.810   1.479 -1.2434 -1.9399 -2.2851
  684SOL     OW 2050   0.033   1.294   0.004  0.2600  0.3044 -0.0137
  684SOL    HW1 2051   0.061   1.249   0.093 -1.8554  0.8865  1.0682
  684SOL    HW2 2052   0.083   1.377   3.084  1.0929 -0.1298 -0.7631
  685SOL     OW 2053   0.987   0.903   0.236 -0.6391 -0.2689 -0.2211
  685SOL    HW1 2054   0.982   0.997   0.213 -1.0034 -1.3994  1.7136
  685SOL    HW2 2055   1.084   0.862   0.235  1.5129 -3.2875 -1.4459
  686SOL     OW 2056   0.175   0.198   0.959  0.4642  0.7654 -0.2210
  686SOL    HW1 2057   0.134   0.210   1.050  0.1062 -0.5513  0.3762
  686SOL    HW2 2058   0.248   0.266   0.934  0.0818 -0.3460  2.2139
  687SOL     OW 2059   1.169   1.283   2.451 -0.6111  0.5531  0.0197
  687SOL    HW1 2060   1.164   1.329   2.360  1.2912  2.1232  1.7271
  687SOL    HW2 2061   1.173   1.352   2.526  1.3456  2.2072 -0.1988
  688SOL     OW 2062   0.843   2.085   1.291 -0.1708  0.6128 -0.2188
  688SOL    HW1 2063   0.777   2.071   1.215 -1.2711  1.6635 -2.8566
  688SOL    HW2 2064   0.793   2.059   1.376 -0.7600  1.0701 -2.1168
  689SOL     OW 2065   1.824   0.752   1.255  0.7442  0.2398 -0.5531
  689SOL    HW1 2066   1.733   0.728   1.211  0.5820 -2.2854 -0.4193
  689SOL    HW2 2067   1.869   0.827   1.204 -0.3575 -2.4797 -1.1115
  690SOL     OW 2068   2.910   1.011   1.009  0.3360 -0.1525 -0.0773
  690SOL    HW1 2069   2.885   1.100   1.052 -2.6823  2.0656 -1.5188
  690SOL    HW2 2070   2.990   0.965   1.051 -1.2652 -1.4181  2.1023
  691SOL     OW 2071   0.260   2.331   1.636 -0.0423 -0.5529 -0.2635
  691SOL    HW1 2072   0.220   2.319   1.724 -0.9928 -1.6832 -1.3207
  691SOL    HW2 2073   0.248   2.425   1.596  1.9613  0.3176 -1.5082
  692SOL     OW 2074   1.734   0.082   1.143  0.4961 -0.8769  0.5208
  692SOL    HW1 2075   1.798   0.062   1.064 -1.2582 -1.1291  1.5044
  692SOL    HW2 2076   1.780   0.055   1.231 -0.1571  0.7393 -1.0709
  693SOL     OW 2077   0.050   1.675   2.649  0.5346  0.2097  0.6426
  693SOL    HW1 2078   0.094   1.723   2.731 -1.2289 -0.2640  0.8016
  693SOL    HW2 2079   0.005   1.748   2.587 -1.2058  0.5962  1.3301
  694SOL     OW 2080   2.254   0.714   1.104  0.0121  0.1345 -0.0512
  694SOL    HW1 2081   2.340   0.685   1.145 -0.6157  0.1912 -0.8899
  694SOL    HW2 2082   2.224   0.805   1.141  0.0794  1.0669  0.4412
  695SOL     OW 2083   0.796   1.227   1.481  0.0129  0.0255  0.0188
  695SOL    HW1 2084   0.802   1.168   1.561 -2.1287  1.2657  1.5382
  695SOL    HW2 2085   0.706   1.278   1.493 -0.2211  2.9267 -0.0236
  696SOL     OW 2086   1.750   3.066   0.713 -0.5868 -0.5438 -0.3105
  696SOL    HW1 2087   1.660   0.006   0.731  1.5140  0.9859 -1.7200
  696SOL    HW2 2088   1.767   3.051   0.613  2.1311 -0.8072 -1.5527
  697SOL     OW 2089   0.830   0.282   0.976 -0.6704 -0.3151 -0.0168
  697SOL    HW1 2090   0.876   0.195   1.009 -0.0091 -1.0147  2.4004
  697SOL    HW2 2091   0.775   0.320   1.048  0.3099 -0.6099  0.8415
  698SOL     OW 2092   1.811   1.389   2.080 -0.0397 -0.2418  0.5758
  698SOL    HW1 2093   1.887   1.321   2.068  5.0014 -0.3388  1.6292
  698SOL    HW2 2094   1.844   1.484   2.100  1.3235  0.6427  0.7184
  699SOL     OW 2095   1.383   1.027   0.944  0.8197  0.0161  0.2572
  699SOL    HW1 2096   1.475   1.017   0.898  1.0332 -1.2523  0.6179
  699SOL    HW2 2097   1.374   1.116   0.991  0.4418 -1.0021 -0.1357
  700SOL     OW 2098   1.484   2.545   0.313  0.1176  0.2961  0.2927
  700SOL    HW1 2099   1.552   2.621   0.297 -1.7845  2.8771  0.6953
  700SOL    HW2 2100   1.451   2.549   0.411  0.0174  0.2132  1.1793
  701SOL     OW 2101   2.180   2.544   2.683 -0.0334  0.2131  0.4799
  701SOL    HW1 2102   2.111   2.565   2.757 -0.2152  0.8107  1.5225
  701SOL    HW2 2103   2.269   2.512   2.717 -0.2465 -0.0160 -0.4628
  702SOL     OW 2104   0.838   0.386   0.713 -0.3893  0.5681  0.4534
  702SOL    HW1 2105   0.916   0.452   0.691 -0.3840  1.8080  1.8525
  702SOL    HW2 2106   0.849   0.352   0.811  0.1431 -0.8666  0.9428
  703SOL     OW 2107   2.118   0.530   2.185  0.2205 -0.0130  0.0297
  703SOL    HW1 2108   2.078   0.492   2.273 -1.2594 -0.6863  2.1421
  703SOL    HW2 2109   2.185   0.607   2.201 -0.7448  0.2097  0.7865
  704SOL     OW 2110   2.941   2.162   0.699  0.4068  0.2983  0.1469
  704SOL    HW1 2111   2.857   2.110   0.675  1.0350  0.5796 -2.3475
  704SOL    HW2 2112   3.019   2.149   0.636 -3.1915 -1.0199  3.8386
  705SOL     OW 2113   2.680   2.708   2.051  0.0073 -0.0169  0.4072
  705SOL    HW1 2114   2.767   2.672   2.006  1.8022  0.8012 -1.8662
  705SOL    HW2 2115   2.656   2.803   2.014 -4.2984  0.0311  0.2372
  706SOL     OW 2116   2.396   2.587   0.867 -0.4119 -0.9283 -0.1152
  706SOL    HW1 2117   2.434   2.522   0.931  1.6619 -0.6270 -1.2804
  706SOL    HW2 2118   2.466   2.623   0.798  3.4372  0.9086 -2.7323
  707SOL     OW 2119   0.667   2.368   1.959  0.0311  0.2310 -0.0696
  707SOL    HW1 2120   0.673   2.302   2.036  0.7526  0.9689 -1.6116
  707SOL    HW2 2121   0.635   2.320   1.873  2.1414 -3.8851  1.9207
  708SOL     OW 2122   2.902   2.505   2.312 -0.0353  0.2762 -0.5394
  708SOL    HW1 2123   2.814   2.560   2.306 -1.6189  0.1278  0.8350
  708SOL    HW2 2124   2.921   2.496   2.414  1.7609 -0.8014  3.7915
  709SOL     OW 2125   1.971   2.970   1.983  0.1080 -0.0108 -0.3884
  709SOL    HW1 2126   2.037   2.892   1.991 -1.5383  0.5140  1.6038
  709SOL    HW2 2127   1.962   3.027   2.069 -0.5670 -0.2752  0.3325
  710SOL     OW 2128   1.552   0.838   2.483  0.1351  0.1567  0.1156
  710SOL    HW1 2129   1.635   0.813   2.426  0.9611  1.3625 -2.3341
  710SOL    HW2 2130   1.548   0.936   2.505  1.6542  0.4325  1.9449
  711SOL     OW 2131   0.813   1.901   0.034  0.4239 -0.0654  0.2950
  711SOL    HW1 2132   0.896   1.901   0.091  0.5333  0.1268 -2.3254
  711SOL    HW2 2133   0.806   1.817   3.084  1.0883  1.8441 -1.5533
  712SOL     OW 2134   0.500   2.514   2.543  0.5400 -0.6678  0.2747
  712SOL    HW1 2135   0.543   2.463   2.465 -0.1719 -0.9595  1.7021
  712SOL    HW2 2136   0.535   2.487   2.632  1.2566  0.2161  1.7837
  713SOL     OW 2137   1.714   1.478   2.995  0.5590 -0.5677 -0.0874
  713SOL    HW1 2138   1.745   1.543   2.920  2.1513  0.7634 -1.1943
  713SOL    HW2 2139   1.706   1.532   3.081  0.6393 -1.6835 -0.5697
  714SOL     OW 2140   1.033   1.570   1.820 -0.6928 -0.4043 -0.0252
  714SOL    HW1 2141   1.011   1.511   1.738 -0.3621 -0.2633 -3.1449
  714SOL    HW2 2142   1.076   1.517   1.893  0.7324  4.8049 -1.0827
  715SOL     OW 2143   1.815   0.379   2.791  0.3605 -0.0542  0.0414
  715SOL    HW1 2144   1.826   0.317   2.711  1.4529 -1.2879 -1.1777
  715SOL    HW2 2145   1.906   0.391   2.837  0.7691 -0.5915 -0.1875
  716SOL     OW 2146   2.844   2.365   1.827  0.2113 -0.6148  0.0080
  716SOL    HW1 2147   2.859   2.433   1.904 -0.2615 -0.9417  1.5369
  716SOL    HW2 2148   2.832   2.269   1.859  1.0129  0.2530  1.2032
  717SOL     OW 2149   2.644   0.898   0.979  0.6466  0.1690 -0.0775
  717SOL    HW1 2150   2.729   0.937   0.944 -1.8629 -2.1298  0.1625
  717SOL    HW2 2151   2.667   0.806   1.017  0.9700 -1.5676  1.8827
  718SOL     OW 2152   0.641   1.513   2.326  0.2372  0.3339 -0.0346
  718SOL    HW1 2153   0.553   1.548   2.366  0.0584  0.1893  2.2912
  718SOL    HW2 2154   0.676   1.429   2.381 -1.4615  1.6362  2.8093
  719SOL     OW 2155   1.922   0.990   0.015 -0.0760 -0.4133  0.0492
  719SOL    HW1 2156   1.969   0.940   3.049 -1.4093  2.8657 -0.9860
  719SOL    HW2 2157   1.974   1.003   0.101  0.3568  0.8102 -1.8991
  720SOL     OW 2158   0.591   0.433   0.772 -0.0725  0.0969 -0.1679
  720SOL    HW1 2159   0.577   0.532   0.786 -0.8577 -1.6707 -1.6457
  720SOL    HW2 2160   0.688   0.405   0.753 -2.9609 -0.2224  0.8903
  721SOL     OW 2161   2.588   0.277   0.871 -0.2456 -0.3273  0.6053
  721SOL    HW1 2162   2.557   0.369   0.879 -1.0315 -2.8407 -2.2404
  721SOL    HW2 2163   2.567   0.234   0.782  0.5746  0.1584  0.3021
  722SOL     OW 2164   2.637   0.678   2.390  0.2171 -0.4830  0.4093
  722SOL    HW1 2165   2.676   0.620   2.465 -1.3693  0.8070  1.9121
  722SOL    HW2 2166   2.675   0.770   2.391  0.4001 -0.1853 -1.2448
  723SOL     OW 2167   2.453   0.263   0.419  0.3886  0.0332 -0.3834
  723SOL    HW1 2168   2.426   0.199   0.346  0.1776 -0.9945 -0.0920
  723SOL    HW2 2169   2.394   0.345   0.419  0.1133  0.1376  0.2762
  724SOL     OW 2170   0.560   1.760   2.057 -0.2875 -0.0628  0.7049
  724SOL    HW1 2171   0.554   1.660   2.073  2.1008  0.0223  0.7336
  724SOL    HW2 2172   0.613   1.783   1.970 -0.3645  0.6884 -1.0075
  725SOL     OW 2173   1.659   0.345   1.170  0.1255 -0.4540  0.0995
  725SOL    HW1 2174   1.751   0.386   1.148 -0.6487 -1.4723  3.6093
  725SOL    HW2 2175   1.664   0.242   1.169 -1.5999 -0.9448 -3.0890
  726SOL     OW 2176   2.007   2.519   0.213  0.3995 -0.7305 -0.6826
  726SOL    HW1 2177   1.924   2.538   0.156  1.7793 -2.1465 -1.7313
  726SOL    HW2 2178   1.994   2.451   0.284  0.0902  0.9720 -1.6510
  727SOL     OW 2179   1.700   1.362   1.479 -0.2355  0.2079 -0.5395
  727SOL    HW1 2180   1.627   1.327   1.545 -1.2627 -0.9754  0.9614
  727SOL    HW2 2181   1.787   1.379   1.529  0.6228 -1.1456 -1.1771
  728SOL     OW 2182   2.399   2.806   1.510 -0.1723  0.0431  0.6206
  728SOL    HW1 2183   2.455   2.860   1.444  0.4977  2.0799 -0.8953
  728SOL    HW2 2184   2.305   2.849   1.524 -2.4849 -0.8291 -0.1746
  729SOL     OW 2185   2.030   1.644   0.880 -0.2567 -0.4012  0.3855
  729SOL    HW1 2186   2.044   1.608   0.788  1.9521 -0.4787 -0.5043
  729SOL    HW2 2187   2.116   1.694   0.905 -1.9832 -1.5217  0.9770
  730SOL     OW 2188   1.040   0.601   2.742 -0.5879 -1.2796 -0.2430
  730SOL    HW1 2189   0.943   0.566   2.741  0.5927 -0.9230 -0.6636
  730SOL    HW2 2190   1.050   0.704   2.764 -0.4970  1.2628 -1.0955
  731SOL     OW 2191   0.486   3.072   0.952 -0.4251 -0.1621  0.3409
  731SOL    HW1 2192   0.557   0.000   1.018 -1.0520 -1.4650 -0.4021
  731SOL    HW2 2193   0.456   2.982   0.984 -0.7000  2.2989 -0.0481
  732SOL     OW 2194   1.457   0.731   0.600  0.3870  0.5193  0.5922
  732SOL    HW1 2195   1.424   0.674   0.520 -2.0029  1.9181 -0.1131
  732SOL    HW2 2196   1.393   0.794   0.648 -1.2019 -0.1189  0.5962
  733SOL     OW 2197   0.464   2.003   1.138 -0.3870 -0.4212  0.3184
  733SOL    HW1 2198   0.536   2.026   1.069 -1.5770 -0.1558  0.6403
  733SOL    HW2 2199   0.479   1.913   1.185  2.9522  1.6977 -2.7168
  734SOL     OW 2200   3.062   2.659   0.037  0.1157 -0.2675  0.1012
  734SOL    HW1 2201   3.106   2.724   0.108 -1.5767  0.6269  3.4323
  734SOL    HW2 2202   0.020   2.608   3.085  1.2152 -0.8319  2.0588
  735SOL     OW 2203   1.193   0.198   1.118  0.3377 -0.1026 -0.1468
  735SOL    HW1 2204   1.256   0.141   1.178  3.2824 -1.6910  4.4878
  735SOL    HW2 2205   1.261   0.249   1.057  0.1691 -0.2313 -0.7838
  736SOL     OW 2206   2.112   2.230   0.239 -0.3007 -0.5934  0.6536
  736SOL    HW1 2207   2.107   2.293   0.317  3.4082  0.5447 -0.9875
  736SOL    HW2 2208   2.110   2.284   0.149  1.9057  3.1223 -1.2303
  737SOL     OW 2209   2.831   1.260   1.109 -0.1026  0.1899  0.0071
  737SOL    HW1 2210   2.924   1.286   1.072  2.6764 -3.0002 -0.0901
  737SOL    HW2 2211   2.799   1.345   1.151  2.8511 -0.2512 -0.5882
  738SOL     OW 2212   2.246   2.421   2.203 -0.6348  0.2808  0.4126
  738SOL    HW1 2213   2.270   2.494   2.135 -1.1143 -0.0879 -0.3759
  738SOL    HW2 2214   2.183   2.457   2.272  2.1858  1.6171  1.6095
  739SOL     OW 2215   1.152   2.068   2.969 -0.3771  0.0973  0.5568
  739SOL    HW1 2216   1.162   1.978   3.015  0.4770 -2.0550  1.2146
  739SOL    HW2 2217   1.147   2.143   3.034 -2.3652  0.4143  0.9117
  740SOL     OW 2218   1.427   0.303   1.021  0.4070  0.9275  0.1400
  740SOL    HW1 2219   1.506   0.338   1.078 -2.4905  1.2202 -0.4741
  740SOL    HW2 2220   1.420   0.356   0.935 -1.6963 -1.4969 -1.8840
  741SOL     OW 2221   0.184   1.082   1.062  0.1059 -0.1907  0.4227
  741SOL    HW1 2222   0.267   1.067   1.113 -0.8260  0.9066  1.2776
  741SOL    HW2 2223   0.125   1.003   1.085  1.2071  2.4525  0.5458
  742SOL     OW 2224   1.154   1.454   2.669  0.6524  0.1060 -0.3854
  742SOL    HW1 2225   1.180   1.438   2.765  1.6396  1.0934  4.1462
  742SOL    HW2 2226   1.051   1.459   2.653 -1.7550  0.0060  0.3957
  743SOL     OW 2227   1.065   1.073   1.937 -0.5787  0.7338 -0.4056
  743SOL    HW1 2228   1.140   1.089   2.004 -1.9756  1.8352 -2.8254
  743SOL    HW2 2229   0.982   1.128   1.957  3.8944 -0.6758 -1.2120
  744SOL     OW 2230   1.690   0.414   1.459  0.5280 -0.0730 -0.1866
  744SOL    HW1 2231   1.646   0.412   1.368 -1.3169 -0.8366  3.2504
  744SOL    HW2 2232   1.769   0.353   1.457 -3.7131 -0.9956  1.4507
  745SOL     OW 2233   1.733   1.196   1.281 -0.4082 -0.8978  0.7920
  745SOL    HW1 2234   1.793   1.249   1.209  0.0594  0.0846 -1.6772
  745SOL    HW2 2235   1.706   1.257   1.357 -1.6529 -1.3981 -1.4251
  746SOL     OW 2236   2.330   1.143   0.767 -0.7123  0.0674  0.4106
  746SOL    HW1 2237   2.240   1.128   0.725  2.1074  0.4890  1.3179
  746SOL    HW2 2238   2.384   1.064   0.737  2.6125 -2.0247  1.1844
  747SOL     OW 2239   2.530   1.566   1.151  0.1821 -0.5337  0.1117
  747SOL    HW1 2240   2.503   1.579   1.051  1.1387  0.9770 -1.9304
  747SOL    HW2 2241   2.480   1.485   1.191 -2.0910 -1.5140  0.1626
  748SOL     OW 2242   0.622   2.178   0.613  0.1552  0.7241  0.0822
  748SOL    HW1 2243   0.634   2.279   0.615  2.1581  1.4100  1.5056
  748SOL    HW2 2244   0.591   2.152   0.514  0.8889 -1.7552 -2.3237
  749SOL     OW 2245   2.568   2.616   2.565 -0.1123 -0.3555 -0.4084
  749SOL    HW1 2246   2.642   2.581   2.626 -0.4649  1.3062  2.0817
  749SOL    HW2 2247   2.501   2.669   2.619  2.9197  1.8364 -1.7173
  750SOL     OW 2248   2.538   0.559   0.790 -0.2918  0.3352 -0.0894
  750SOL    HW1 2249   2.554   0.554   0.686  2.7286  0.4370 -2.7604
  750SOL    HW2 2250   2.448   0.597   0.820  1.6486 -3.5670 -2.1431
  751SOL     OW 2251   2.436   2.908   0.223 -0.0958 -0.5643 -0.3849
  751SOL    HW1 2252   2.506   2.943   0.160 -3.8580  0.6146  0.0919
  751SOL    HW2 2253   2.395   2.982   0.277  0.7406 -1.1394  0.8334
  752SOL     OW 2254   3.010   2.902   0.791  0.1266  0.1157 -0.6258
  752SOL    HW1 2255   3.077   2.959   0.840 -0.5692 -0.1652 -2.2771
  752SOL    HW2 2256   3.041   2.804   0.798  1.1306  0.8225  0.1061
  753SOL     OW 2257   1.919   0.953   2.303  0.9022  0.6474  0.2476
  753SOL    HW1 2258   1.910   1.007   2.388 -1.8148  0.7881  0.0097
  753SOL    HW2 2259   1.827   0.898   2.298 -1.8481 -0.8177 -1.0321
  754SOL     OW 2260   1.749   2.058   1.408 -0.0361 -1.0685  0.0348
  754SOL    HW1 2261   1.780   2.090   1.318  1.3045  1.9318  0.6424
  754SOL    HW2 2262   1.728   1.957   1.395 -0.9200  1.3962  0.1821
  755SOL     OW 2263   2.743   0.886   0.566  0.5706  0.3149  0.4812
  755SOL    HW1 2264   2.823   0.849   0.611 -3.0351  1.0237 -1.3614
  755SOL    HW2 2265   2.753   0.856   0.471 -0.8494 -1.2954  3.1596
  756SOL     OW 2266   0.975   1.476   2.945 -0.4280  0.0085  0.0980
  756SOL    HW1 2267   1.013   1.446   3.031 -0.5425  2.8832 -2.7059
  756SOL    HW2 2268   1.008   1.569   2.926  1.8583 -0.4329  2.8253
  757SOL     OW 2269   1.489   2.534   0.804 -0.9313  0.4011 -0.0092
  757SOL    HW1 2270   1.472   2.594   0.882  1.1395 -3.0050 -0.1102
  757SOL    HW2 2271   1.431   2.452   0.816  1.7646  1.4591  1.4032
  758SOL     OW 2272   1.279   2.814   1.592  0.1791  0.1479  0.1615
  758SOL    HW1 2273   1.236   2.903   1.602 -0.2315  1.4635  0.2213
  758SOL    HW2 2274   1.314   2.786   1.497 -1.0337  1.4917  0.2402
  759SOL     OW 2275   0.233   0.940   0.771 -0.2693 -0.0018 -0.5073
  759SOL    HW1 2276   0.239   1.031   0.723 -2.4900  1.3064 -1.7290
  759SOL    HW2 2277   0.138   0.923   0.812 -0.2031 -3.4198  1.1793
  760SOL     OW 2278   2.639   0.934   1.308 -0.5927  0.5898 -0.0974
  760SOL    HW1 2279   2.594   0.993   1.240 -2.7396 -3.4970 -2.5259
  760SOL    HW2 2280   2.645   0.973   1.402  0.3020 -0.5030  0.3637
  761SOL     OW 2281   1.884   3.097   0.483  0.3307  0.2162  0.6106
  761SOL    HW1 2282   1.955   3.028   0.471 -1.8967  1.2279  1.8088
  761SOL    HW2 2283   1.933   0.074   0.489  3.6525 -0.5850 -0.6256
  762SOL     OW 2284   2.182   1.614   3.068 -0.5560 -0.2675 -0.2337
  762SOL    HW1 2285   2.111   1.540   3.079  0.9565 -1.1024 -2.3538
  762SOL    HW2 2286   2.209   1.624   2.971 -2.9835 -1.2512 -0.9793
  763SOL     OW 2287   0.724   1.977   1.494  0.0185 -0.1970  0.1184
  763SOL    HW1 2288   0.730   2.004   1.593 -0.3531 -0.8862  1.6879
  763SOL    HW2 2289   0.636   1.926   1.482 -0.2057 -0.2197 -0.9065
  764SOL     OW 2290   2.967   2.208   2.881  0.5299 -0.7043  0.4534
  764SOL    HW1 2291   2.918   2.118   2.874  0.8765  1.6925  1.0013
  764SOL    HW2 2292   2.915   2.284   2.833 -0.0050  1.7474 -0.5175
  765SOL     OW 2293   0.370   2.857   1.049 -0.0893  0.0825 -0.5990
  765SOL    HW1 2294   0.430   2.811   1.124  1.0713 -0.1154  0.9117
  765SOL    HW2 2295   0.332   2.790   0.980 -2.2666  0.1010 -1.0697
  766SOL     OW 2296   2.940   2.163   2.193 -0.7985  0.5953 -0.0160
  766SOL    HW1 2297   3.003   2.217   2.246 -3.0752 -2.2807 -2.8904
  766SOL    HW2 2298   2.943   2.066   2.215  0.2754 -1.7317  0.1409
  767SOL     OW 2299   2.314   0.720   2.282 -0.5532  0.0251 -0.5566
  767SOL    HW1 2300   2.306   0.808   2.231  0.2564  0.6665  0.5737
  767SOL    HW2 2301   2.416   0.704   2.303  1.5029 -0.5965 -1.5932
  768SOL     OW 2302   1.546   0.279   2.818 -0.3964  0.2284 -0.7435
  768SOL    HW1 2303   1.485   0.339   2.875 -2.1233  0.2311 -2.3883
  768SOL    HW2 2304   1.641   0.309   2.830 -0.2331  0.4220  3.0817
  769SOL     OW 2305   3.064   2.651   1.025  0.3363  0.0786  0.0266
  769SOL    HW1 2306   2.984   2.617   0.968  0.6798  0.1521  0.8941
  769SOL    HW2 2307   3.030   2.732   1.082  0.5689 -0.6160  0.7895
  770SOL     OW 2308   0.502   0.150   2.669  0.1392 -0.1656  0.2035
  770SOL    HW1 2309   0.567   0.108   2.738 -1.1664  1.4247  1.0950
  770SOL    HW2 2310   0.427   0.206   2.721  0.1502  0.0061  1.0339
  771SOL     OW 2311   1.295   1.856   2.131  0.2958  0.3659 -0.6503
  771SOL    HW1 2312   1.314   1.776   2.072 -1.3309 -0.1812 -0.0018
  771SOL    HW2 2313   1.321   1.947   2.091 -1.2454  0.3946  4.3843
  772SOL     OW 2314   1.720   2.613   2.667 -0.0065  0.1187  0.1508
  772SOL    HW1 2315   1.659   2.678   2.618  2.4088 -5.8592  1.8984
  772SOL    HW2 2316   1.812   2.653   2.693  1.8895  1.5473 -0.7321
  773SOL     OW 2317   1.795   0.977   1.438 -0.0696 -0.2993 -0.1238
  773SOL    HW1 2318   1.770   0.892   1.383  0.0468  0.4334 -1.0482
  773SOL    HW2 2319   1.801   1.058   1.380  3.6884  0.4138 -1.0891
  774SOL     OW 2320   0.852   0.722   0.979 -0.0050 -0.1160  0.0195
  774SOL    HW1 2321   0.914   0.647   1.016  1.2651 -1.5148 -0.7428
  774SOL    HW2 2322   0.771   0.733   1.034 -0.0290 -2.3585  0.3433
  775SOL     OW 2323   1.906   2.840   2.705  0.3155 -0.4135 -0.1966
  775SOL    HW1 2324   1.808   2.870   2.722 -1.3924  0.7542  1.4518
  775SOL    HW2 2325   1.921   2.798   2.614  0.9804  0.6967 -0.0372
  776SOL     OW 2326   2.269   0.795   1.529  0.3499 -0.2883 -0.1230
  776SOL    HW1 2327   2.242   0.834   1.620  0.0362  0.7327 -4.1067
  776SOL    HW2 2328   2.198   0.746   1.477  3.6794 -1.0271 -0.2396
  777SOL     OW 2329   0.117   1.169   2.295  0.0953  0.3801  0.0965
  777SOL    HW1 2330   0.194   1.123   2.244  0.6053  2.2539  1.5370
  777SOL    HW2 2331   0.152   1.249   2.346 -2.5386  0.0044 -2.0128
  778SOL     OW 2332   3.090   0.837   2.840 -0.0354  0.1114  0.2406
  778SOL    HW1 2333   0.001   0.772   2.760  0.4711  1.7575  0.4807
  778SOL    HW2 2334   0.043   0.916   2.821  1.7797 -2.0423  0.2481
  779SOL     OW 2335   0.332   0.558   2.904 -0.6075  0.0519 -0.4517
  779SOL    HW1 2336   0.396   0.602   2.972 -0.8666  1.4203 -1.3553
  779SOL    HW2 2337   0.347   0.589   2.810 -1.6575 -1.6739  3.5380
  780SOL     OW 2338   2.270   1.632   2.805  0.1981  0.0591 -0.0346
  780SOL    HW1 2339   2.282   1.592   2.711  1.0314  1.2254 -2.3702
  780SOL    HW2 2340   2.320   1.722   2.819 -0.3488  0.4328 -0.1522
  781SOL     OW 2341   2.794   0.910   2.041 -0.0244  0.1330 -0.3925
  781SOL    HW1 2342   2.800   0.962   1.955 -1.0664  0.6504  1.2659
  781SOL    HW2 2343   2.789   0.811   2.022 -0.8781  3.0292  0.9192
  782SOL     OW 2344   1.085   2.030   2.706 -0.3030 -0.0156 -0.0714
  782SOL    HW1 2345   1.063   1.929   2.686 -1.5505 -2.1856 -4.3374
  782SOL    HW2 2346   1.098   2.044   2.803 -3.0555 -2.3243 -1.7055
  783SOL     OW 2347   1.203   2.501   1.126 -0.5725  0.1777 -0.2385
  783SOL    HW1 2348   1.205   2.402   1.099  0.6335  0.5218  1.0292
  783SOL    HW2 2349   1.130   2.557   1.078 -2.1187 -1.0201  0.0550
  784SOL     OW 2350   1.789   0.466   2.308 -0.2695 -0.0616 -0.4650
  784SOL    HW1 2351   1.885   0.444   2.343  0.7015 -1.8179 -3.8518
  784SOL    HW2 2352   1.718   0.444   2.379  2.0744 -1.0047  2.7863
  785SOL     OW 2353   3.048   0.124   1.973  0.0895  0.3648 -0.2757
  785SOL    HW1 2354   3.051   0.059   2.053 -1.3468 -0.6505 -1.1001
  785SOL    HW2 2355   0.025   0.107   1.916  2.6417 -2.4696  0.7969
  786SOL     OW 2356   1.140   2.034   0.382 -0.6822 -0.0202  0.2318
  786SOL    HW1 2357   1.210   2.061   0.317 -0.1992 -0.0544  2.1172
  786SOL    HW2 2358   1.095   2.102   0.444 -3.9205 -0.0971 -1.7045
  787SOL     OW 2359   1.121   0.147   0.781 -0.0139  0.7162  0.0300
  787SOL    HW1 2360   1.124   0.045   0.756  1.9413 -3.3644 -0.1046
  787SOL    HW2 2361   1.103   0.157   0.878  1.8155 -1.5116  0.4124
  788SOL     OW 2362   2.805   1.484   1.264 -0.4094  0.3540  0.1651
  788SOL    HW1 2363   2.724   1.534   1.234  0.6077 -2.7679  0.1704
  788SOL    HW2 2364   2.884   1.543   1.284 -0.0056  2.2620 -3.6365
  789SOL     OW 2365   2.357   0.942   2.164  0.7512 -0.7162  0.4023
  789SOL    HW1 2366   2.359   0.914   2.066  0.4743  0.8045  1.3903
  789SOL    HW2 2367   2.448   0.982   2.197 -0.3902  2.4575 -0.2291
  790SOL     OW 2368   1.101   0.209   0.021  0.0382 -0.6216  0.1727
  790SOL    HW1 2369   1.094   0.245   0.118 -1.8877  0.3804 -2.0179
  790SOL    HW2 2370   1.044   0.267   3.066 -0.1122  1.4173 -0.2168
  791SOL     OW 2371   0.053   3.052   0.104  0.3199 -0.3113 -0.0175
  791SOL    HW1 2372   3.104   3.084   0.181  3.7108 -0.3047 -0.7774
  791SOL    HW2 2373   0.137   0.005   0.086  0.1623  2.3231 -1.7503
  792SOL     OW 2374   1.281   0.424   1.838 -0.1710 -0.1265 -0.8356
  792SOL    HW1 2375   1.308   0.386   1.929 -0.7601  0.5168  0.9093
  792SOL    HW2 2376   1.232   0.512   1.846 -1.8618 -0.8952  0.4256
  793SOL     OW 2377   0.099   0.269   1.216 -0.2890 -0.2582 -0.1057
  793SOL    HW1 2378   0.190   0.319   1.207 -1.4828  1.0949 -1.5378
  793SOL    HW2 2379   0.083   0.257   1.317  1.8085 -1.4015  1.8625
  794SOL     OW 2380   0.059   0.361   2.058 -0.4985  0.2485 -0.0842
  794SOL    HW1 2381   0.084   0.411   1.975  0.2797 -0.3954  4.9605
  794SOL    HW2 2382   3.107   0.277   2.041 -1.8835  2.4501  1.0583
  795SOL     OW 2383   0.689   1.601   0.433  0.2133 -0.1102 -0.6291
  795SOL    HW1 2384   0.627   1.562   0.365  2.8075 -0.4741  2.2833
  795SOL    HW2 2385   0.734   1.689   0.405 -0.6152  1.7978 -1.5438
  796SOL     OW 2386   2.966   0.764   3.097 -0.0933  0.3297  0.2378
  796SOL    HW1 2387   2.907   0.838   0.023  0.4247  1.0615 -1.6064
  796SOL    HW2 2388   3.015   0.791   3.012  0.8781 -1.3216 -0.3720
  797SOL     OW 2389   1.642   3.017   2.455 -0.4755  0.2288 -0.3793
  797SOL    HW1 2390   1.699   2.973   2.381  3.6236 -2.7285  0.0351
  797SOL    HW2 2391   1.598   3.107   2.423  0.3491  0.6081 -0.5304
  798SOL     OW 2392   0.223   3.106   1.405 -0.4254  0.0462  0.2604
  798SOL    HW1 2393   0.319   0.025   1.383 -0.7892 -0.8517 -0.1001
  798SOL    HW2 2394   0.169   0.079   1.447 -1.0548  2.9208  1.4427
  799SOL     OW 2395   0.053   1.079   1.908  0.3444  0.0286  0.0948
  799SOL    HW1 2396   3.104   1.077   1.825  2.4995 -4.5083  0.8308
  799SOL    HW2 2397   0.055   0.989   1.957 -0.7686 -0.9816  2.9104
  800SOL     OW 2398   0.029   1.729   0.348  0.0899 -0.2483 -0.0799
  800SOL    HW1 2399   3.085   1.786   0.413  0.0925 -0.8500  0.7909
  800SOL    HW2 2400   0.061   1.780   0.268  0.5297  1.7937  2.7177
  801SOL     OW 2401   2.065   1.520   0.646  0.2847 -0.3212 -0.3910
  801SOL    HW1 2402   2.092   1.512   0.548  0.3656  1.1381  0.9575
  801SOL    HW2 2403   1.992   1.450   0.661  1.3849  0.9107 -3.4663
  802SOL     OW 2404   1.264   0.900   2.711  0.2891 -0.2668  0.1048
  802SOL    HW1 2405   1.278   0.963   2.631 -0.9412 -0.0224 -2.1272
  802SOL    HW2 2406   1.341   0.838   2.719 -1.1639 -1.0651 -3.2518
  803SOL     OW 2407   0.767   2.050   1.763 -0.3503 -0.6110 -0.0203
  803SOL    HW1 2408   0.869   2.058   1.776  0.1142 -0.6550 -0.8091
  803SOL    HW2 2409   0.727   1.962   1.781 -3.2315  2.5769 -1.2322
  804SOL     OW 2410   1.221   2.011   0.960  0.2821 -0.0372 -0.7589
  804SOL    HW1 2411   1.251   1.916   0.988  0.3823  0.4965  0.1433
  804SOL    HW2 2412   1.203   2.017   0.861  0.8509  2.7449 -0.5545
  805SOL     OW 2413   2.725   2.196   2.485  0.6937  0.4796  0.0007
  805SOL    HW1 2414   2.743   2.233   2.579 -1.0193 -0.0988  1.9721
  805SOL    HW2 2415   2.692   2.271   2.424  3.1967  2.6437  0.3914
  806SOL     OW 2416   0.181   0.298   0.454 -0.0773 -1.0627  0.2144
  806SOL    HW1 2417   0.179   0.215   0.508  1.8386  2.4292 -1.6140
  806SOL    HW2 2418   0.144   0.372   0.517 -0.6611 -1.5439  1.1719
  807SOL     OW 2419   2.728   0.532   2.628  0.0056 -0.1340  0.4055
  807SOL    HW1 2420   2.828   0.511   2.649 -0.0663  1.0788 -1.9581
  807SOL    HW2 2421   2.663   0.455   2.655 -0.4181 -0.6787 -1.8379
  808SOL     OW 2422   0.899   2.379   0.719 -0.2048 -0.3979  0.5404
  808SOL    HW1 2423   0.906   2.340   0.811  0.4399  2.0564 -2.0066
  808SOL    HW2 2424   0.809   2.427   0.714 -0.9708  0.2014  1.6710
  809SOL     OW 2425   2.586   0.325   2.754  0.3071  0.1466  0.6424
  809SOL    HW1 2426   2.638   0.258   2.805  0.0253  0.4719  0.0442
  809SOL    HW2 2427   2.541   0.287   2.672  1.8153  0.0864 -0.6070
  810SOL     OW 2428   1.263   1.143   0.701 -0.1814  0.3859  0.1949
  810SOL    HW1 2429   1.252   1.244   0.685  1.4541  3.1577  0.1761
  810SOL    HW2 2430   1.296   1.118   0.791  0.0157  1.0475 -0.7996
  811SOL     OW 2431   1.934   2.981   1.671  0.3987  0.2951 -0.2868
  811SOL    HW1 2432   1.848   3.023   1.632 -0.2676 -0.1401 -0.6474
  811SOL    HW2 2433   1.938   2.972   1.770 -1.9862 -1.7005 -0.3912
  812SOL     OW 2434   1.843   2.629   0.447 -0.4636  0.2502 -0.1364
  812SOL    HW1 2435   1.891   2.541   0.462 -0.9574  2.3190  1.5268
  812SOL    HW2 2436   1.789   2.650   0.532 -1.4397  0.9482 -2.5148
  813SOL     OW 2437   1.078   0.834   2.006 -0.3281  0.6053 -0.2266
  813SOL    HW1 2438   1.060   0.838   2.108  2.7239 -2.1050 -0.3049
  813SOL    HW2 2439   1.075   0.924   1.968 -2.1125 -1.7787 -1.3943
  814SOL     OW 2440   0.471   0.129   1.294 -0.1971 -0.0688  0.7320
  814SOL    HW1 2441   0.432   0.214   1.260 -0.6673 -0.7847 -0.2695
  814SOL    HW2 2442   0.544   0.098   1.236  0.1946 -0.9174 -1.9012
  815SOL     OW 2443   0.346   2.983   0.737  0.0118  0.4306 -0.2571
  815SOL    HW1 2444   0.384   3.007   0.829  1.9656  2.9344 -0.4703
  815SOL    HW2 2445   0.374   2.891   0.709  2.7844  2.3168 -2.3849
  816SOL     OW 2446   2.728   1.431   2.430 -0.4600 -0.1647 -0.2546
  816SOL    HW1 2447   2.643   1.373   2.434 -2.4265 -1.1972 -0.3141
  816SOL    HW2 2448   2.718   1.488   2.347  1.1196 -1.4842 -4.3886
  817SOL     OW 2449   1.314   0.057   3.070  0.1127 -0.0253 -0.2405
  817SOL    HW1 2450   1.385   0.107   0.011  2.0630  0.0109  0.2156
  817SOL    HW2 2451   1.230   0.114   3.073 -3.1934 -1.1589 -2.0809
  818SOL     OW 2452   1.667   0.695   0.077  0.4493  0.1456 -0.2473
  818SOL    HW1 2453   1.747   0.717   0.139  1.2284  0.8582  0.6379
  818SOL    HW2 2454   1.644   0.601   0.058 -2.7893  3.2344 -0.2295
  819SOL     OW 2455   2.232   2.602   3.007  1.0577  0.3329 -0.3103
  819SOL    HW1 2456   2.148   2.619   2.952 -1.5535  3.0905  1.1647
  819SOL    HW2 2457   2.222   2.646   3.100 -0.5513 -2.8600  0.4138
  820SOL     OW 2458   1.684   1.139   0.014  0.1847  0.1353 -0.1371
  820SOL    HW1 2459   1.610   1.082   3.075 -1.6116 -1.5821 -4.1484
  820SOL    HW2 2460   1.772   1.088   0.012  1.9133 -0.0895 -1.0002
  821SOL     OW 2461   0.166   0.638   1.419  0.0329 -0.0515  0.0467
  821SOL    HW1 2462   0.200   0.551   1.466  4.9468  0.0170  3.2448
  821SOL    HW2 2463   0.142   0.611   1.325  2.4761 -2.9595 -0.3147
  822SOL     OW 2464   1.054   2.486   2.390  0.3922  0.1190  0.6931
  822SOL    HW1 2465   1.082   2.412   2.328  2.0674  2.5212 -0.3002
  822SOL    HW2 2466   1.027   2.564   2.333 -1.1984  1.9138  1.0449
  823SOL     OW 2467   0.307   1.369   2.097  0.4542 -0.0876 -0.0941
  823SOL    HW1 2468   0.231   1.421   2.145 -1.6085 -2.1655  0.3864
  823SOL    HW2 2469   0.396   1.415   2.106 -0.3699 -1.4247 -2.0476
  824SOL     OW 2470   1.743   2.801   2.037 -0.4105 -1.0181  0.1902
  824SOL    HW1 2471   1.800   2.878   1.994 -0.2224  2.6979  2.9050
  824SOL    HW2 2472   1.663   2.778   1.976 -0.6927 -0.3228  2.3878
  825SOL     OW 2473   1.033   1.145   0.121  0.0711  0.7208  0.3463
  825SOL    HW1 2474   1.014   1.243   0.140 -1.8789 -3.2376  0.3965
  825SOL    HW2 2475   1.002   1.130   0.028 -0.0249  1.2758  0.3584
  826SOL     OW 2476   2.096   0.710   2.916  0.6145  0.1385  0.1251
  826SOL    HW1 2477   1.993   0.732   2.917 -0.6658  1.4930 -0.1063
  826SOL    HW2 2478   2.154   0.795   2.904  1.8258  1.9567 -1.2396
  827SOL     OW 2479   0.425   2.183   2.902 -0.0624  0.0942  0.1504
  827SOL    HW1 2480   0.528   2.186   2.884 -1.6726 -0.4463 -0.6863
  827SOL    HW2 2481   0.378   2.113   2.841 -1.7362 -0.6624 -0.2885
  828SOL     OW 2482   0.095   0.245   1.468  0.2404 -0.0684 -0.4633
  828SOL    HW1 2483   0.167   0.309   1.499 -0.5527  0.8241  0.3467
  828SOL    HW2 2484   0.000   0.274   1.496 -1.0671 -0.8019 -1.8176
  829SOL     OW 2485   1.039   1.400   1.129  0.1723 -0.2624  0.3944
  829SOL    HW1 2486   1.016   1.493   1.089 -1.3946  1.3223  0.3280
  829SOL    HW2 2487   1.048   1.328   1.059 -3.4780 -1.8893 -0.3375
  830SOL     OW 2488   0.514   1.353   1.534  0.4154  0.6021 -0.1663
  830SOL    HW1 2489   0.508   1.363   1.435  1.3233 -0.5576  0.2495
  830SOL    HW2 2490   0.422   1.328   1.576  0.9926 -1.4085  1.7975
  831SOL     OW 2491   0.571   1.912   0.148 -0.1417 -0.0367  0.3949
  831SOL    HW1 2492   0.638   1.908   0.073  0.2984  0.2039  3.3093
  831SOL    HW2 2493   0.494   1.979   0.127 -4.3631  0.2701  1.5109
  832SOL     OW 2494   1.117   3.017   2.965 -0.4349 -0.0222 -0.2456
  832SOL    HW1 2495   1.201   3.070   2.991  1.4693  2.9638 -3.0062
  832SOL    HW2 2496   1.085   2.965   3.044  1.6512  0.7379 -0.2552
  833SOL     OW 2497   0.061   0.623   1.913  0.3616 -0.1349  0.2013
  833SOL    HW1 2498   3.097   0.599   1.843 -0.0395 -0.8169 -0.0698
  833SOL    HW2 2499   0.030   0.703   1.964 -0.1608  2.2721 -0.3474
  834SOL     OW 2500   0.077   0.634   0.901  0.5737  0.5161  0.1450
  834SOL    HW1 2501   3.091   0.601   0.887  0.4637  2.1577 -1.3751
  834SOL    HW2 2502   0.134   0.646   0.816  1.3730  2.3372  0.9339
  835SOL     OW 2503   2.824   3.106   1.176  0.1650 -0.1304  0.0685
  835SOL    HW1 2504   2.877   0.085   1.178  0.7838  2.1761 -0.0290
  835SOL    HW2 2505   2.729   0.020   1.208  1.9987  1.0021 -1.4625
  836SOL     OW 2506   0.361   2.021   0.005  0.0938  1.2078  0.4890
  836SOL    HW1 2507   0.264   2.018   0.028  2.0131  2.0338 -3.0562
  836SOL    HW2 2508   0.381   2.098   3.049 -0.6519 -1.0493  0.3773
  837SOL     OW 2509   1.962   1.728   2.901  0.0982  0.1967  0.0330
  837SOL    HW1 2510   1.871   1.701   2.863 -1.9151 -0.7827  2.6128
  837SOL    HW2 2511   2.039   1.661   2.898  0.0045 -2.1243 -0.1554
  838SOL     OW 2512   2.581   1.096   1.815  0.0265 -0.8877  0.0376
  838SOL    HW1 2513   2.562   1.010   1.863 -1.0293  1.9471  1.4099
  838SOL    HW2 2514   2.671   1.138   1.845  4.0748 -0.1751 -0.0825
  839SOL     OW 2515   1.253   0.870   0.702 -0.7135  0.4250  0.6247
  839SOL    HW1 2516   1.163   0.841   0.738  1.9811 -0.2987 -0.2064
  839SOL    HW2 2517   1.250   0.968   0.676  1.9891 -1.8628 -0.1795
  840SOL     OW 2518   1.431   0.491   0.822 -0.2102 -0.3533 -0.1651
  840SOL    HW1 2519   1.364   0.485   0.746  2.4819 -2.2917 -3.5204
  840SOL    HW2 2520   1.427   0.589   0.862  2.1850  1.7532  0.2413
  841SOL     OW 2521   0.699   2.771   0.580 -0.0372 -0.3283 -0.1380
  841SOL    HW1 2522   0.778   2.764   0.642 -0.9363  3.5561  0.7242
  841SOL    HW2 2523   0.679   2.873   0.583 -2.4348  1.5659  0.5062
  842SOL     OW 2524   0.475   0.548   0.546 -0.1912  0.0801  0.0922
  842SOL    HW1 2525   0.493   0.472   0.612  0.3005 -1.8673  0.5019
  842SOL    HW2 2526   0.527   0.528   0.461 -0.6984 -0.2640 -0.3633
  843SOL     OW 2527   0.762   1.112   1.727  0.1485 -0.3400 -0.5487
  843SOL    HW1 2528   0.776   1.159   1.814  0.6562 -1.4917  1.7137
  843SOL    HW2 2529   0.662   1.086   1.715 -2.7027  1.3017  0.9160
  844SOL     OW 2530   1.549   2.156   3.039 -0.2292  0.0426 -0.7524
  844SOL    HW1 2531   1.566   2.194   2.948  0.8709  0.5825 -0.1966
  844SOL    HW2 2532   1.557   2.228   0.003  1.0470 -1.0133 -0.2223
  845SOL     OW 2533   2.564   2.479   2.134 -0.0696 -0.4818 -0.0246
  845SOL    HW1 2534   2.599   2.565   2.092 -2.7184 -1.8392  1.5233
  845SOL    HW2 2535   2.530   2.422   2.059  1.8861  0.9214  2.9995
  846SOL     OW 2536   1.912   1.880   2.642  0.8757 -0.5380  0.3321
  846SOL    HW1 2537   1.817   1.845   2.620  0.3321 -0.8730  1.4620
  846SOL    HW2 2538   1.951   1.851   2.734 -2.4602 -0.4773 -0.2904
  847SOL     OW 2539   1.822   2.897   2.283 -0.2711  0.5426 -0.1190
  847SOL    HW1 2540   1.897   2.961   2.260 -1.2138  1.9091  0.1558
  847SOL    HW2 2541   1.789   2.846   2.201 -1.4518  2.8346 -1.8142
  848SOL     OW 2542   0.643   0.546   0.343  0.3593  0.3112 -0.2623
  848SOL    HW1 2543   0.582   0.546   0.260  1.6582 -2.0407 -0.4239
  848SOL    HW2 2544   0.660   0.451   0.375  1.1294  0.7885  2.4802
  849SOL     OW 2545   0.680   2.933   1.364 -0.6049  0.4137 -0.0940
  849SOL    HW1 2546   0.614   2.858   1.353 -2.7185 -0.0559 -0.9687
  849SOL    HW2 2547   0.779   2.902   1.387  1.7974  2.7394 -0.5890
  850SOL     OW 2548   0.280   1.778   0.484  0.2612 -0.3425 -0.3600
  850SOL    HW1 2549   0.304   1.835   0.569  2.5267  0.0973  0.2871
  850SOL    HW2 2550   0.179   1.777   0.464  1.2038 -0.1006  0.8068
  851SOL     OW 2551   0.150   0.578   0.183 -0.1734 -0.2671 -0.3341
  851SOL    HW1 2552   0.115   0.671   0.160 -1.7945 -0.9784 -0.5446
  851SOL    HW2 2553   0.083   0.517   0.229 -1.3903 -0.4432 -0.4166
  852SOL     OW 2554   1.569   2.209   1.583  0.4131  0.6256 -0.3878
  852SOL    HW1 2555   1.626   2.231   1.665 -0.8041 -1.5116 -0.4164
  852SOL    HW2 2556   1.618   2.152   1.514 -0.4728  1.2515  1.3168
  853SOL     OW 2557   0.382   1.737   0.234  0.4387  0.7070 -0.3646
  853SOL    HW1 2558   0.461   1.792   0.199  1.9164 -0.3747 -0.5161
  853SOL    HW2 2559   0.345   1.764   0.326 -1.0466  2.5129  0.5489
  854SOL     OW 2560   1.980   1.366   1.612 -0.2160  0.0950 -0.2842
  854SOL    HW1 2561   2.075   1.374   1.575 -1.9531 -1.6997  1.0395
  854SOL    HW2 2562   1.974   1.267   1.639  0.3923  2.6331  0.6504
  855SOL     OW 2563   0.784   2.235   0.286  0.0199 -0.1347  0.0077
  855SOL    HW1 2564   0.860   2.282   0.343  4.3519  0.9870  1.7231
  855SOL    HW2 2565   0.792   2.256   0.189 -0.0447 -0.4329  1.8556
  856SOL     OW 2566   2.828   0.281   1.953  0.3055  0.7171  0.5325
  856SOL    HW1 2567   2.871   0.339   2.024 -0.5252 -0.2078 -0.4613
  856SOL    HW2 2568   2.884   0.198   1.934  0.0637 -1.8649  2.6191
  857SOL     OW 2569   0.530   0.577   1.819 -0.0512 -0.1860 -0.5043
  857SOL    HW1 2570   0.605   0.504   1.836 -0.1371 -0.6831 -0.8228
  857SOL    HW2 2571   0.542   0.658   1.881  0.2889 -1.8407 -2.2514
  858SOL     OW 2572   3.086   1.492   2.449 -0.0653  0.2639  0.3560
  858SOL    HW1 2573   3.047   1.396   2.463 -0.5086 -0.7798  1.9507
  858SOL    HW2 2574   0.007   1.532   2.539  2.2289  0.2862  1.4385
  859SOL     OW 2575   2.068   2.910   0.289 -0.1528 -0.3634  0.1188
  859SOL    HW1 2576   2.014   2.951   0.216  1.3352 -2.8941  0.5647
  859SOL    HW2 2577   2.119   2.833   0.248 -0.0460 -1.4051  0.7052
  860SOL     OW 2578   1.790   0.148   0.060  0.1342  0.1218 -0.3886
  860SOL    HW1 2579   1.768   0.129   3.068 -1.9350  0.4641  2.5800
  860SOL    HW2 2580   1.888   0.150   0.076 -1.8912  1.8987  2.1555
  861SOL     OW 2581   0.252   0.654   0.700  0.5149 -0.2003 -0.1416
  861SOL    HW1 2582   0.340   0.630   0.656 -0.9742  0.4920  1.7494
  861SOL    HW2 2583   0.235   0.755   0.725 -1.6965  0.4154  0.6678
  862SOL     OW 2584   1.566   0.509   1.794  0.8195  0.4001  0.4839
  862SOL    HW1 2585   1.472   0.489   1.825 -1.0821  0.3485  4.0585
  862SOL    HW2 2586   1.556   0.557   1.703 -3.9435 -2.2932  1.1869
  863SOL     OW 2587   3.072   1.874   0.893 -0.3574 -0.0034 -0.1439
  863SOL    HW1 2588   3.004   1.848   0.966  1.3837 -0.5927  2.4636
  863SOL    HW2 2589   0.039   1.929   0.924 -0.4284 -2.5541 -1.5229
  864SOL     OW 2590   2.301   3.050   1.985 -0.8563  0.6108 -0.3202
  864SOL    HW1 2591   2.316   3.034   1.881 -2.7590 -1.5009 -4.2539
  864SOL    HW2 2592   2.241   2.977   2.023 -0.9890 -0.6282 -0.5248
  865SOL     OW 2593   1.007   0.544   1.100  0.2383 -0.0278 -0.3334
  865SOL    HW1 2594   0.986   0.540   1.197  1.1730 -0.5307 -3.5255
  865SOL    HW2 2595   1.016   0.446   1.068 -0.7163 -1.6413  0.2921
  866SOL     OW 2596   2.604   2.651   0.700  0.3219  0.3566  0.6022
  866SOL    HW1 2597   2.633   2.702   0.617  0.0860 -1.0262 -1.0459
  866SOL    HW2 2598   2.671   2.662   0.777  0.4320  0.9576  2.5361
  867SOL     OW 2599   2.837   2.591   0.865 -0.8715 -0.3014  0.4010
  867SOL    HW1 2600   2.791   2.529   0.929 -0.4396 -0.1902 -3.1137
  867SOL    HW2 2601   2.867   2.536   0.785 -0.1250  0.2417  0.8547
  868SOL     OW 2602   1.232   1.844   2.406  0.5397  0.0183  0.3716
  868SOL    HW1 2603   1.244   1.819   2.308  0.7759  0.2879 -0.8942
  868SOL    HW2 2604   1.199   1.944   2.407 -2.5427  1.4410 -0.2263
  869SOL     OW 2605   2.147   1.572   0.392  0.2359  0.3002  0.3450
  869SOL    HW1 2606   2.087   1.619   0.324 -2.8863  0.3669  3.9497
  869SOL    HW2 2607   2.245   1.557   0.359  1.3309  0.7305  0.6772
  870SOL     OW 2608   2.307   1.947   0.494 -0.3078  0.7147  0.3989
  870SOL    HW1 2609   2.312   1.984   0.400  0.5707 -0.0904  1.6686
  870SOL    HW2 2610   2.218   1.900   0.504  0.2327  0.2224 -3.0716
  871SOL     OW 2611   2.979   1.060   1.702  0.1013 -0.1392  0.2459
  871SOL    HW1 2612   2.995   1.140   1.640  1.5882  0.3341  0.8946
  871SOL    HW2 2613   2.993   0.969   1.658 -0.4958  0.5100  1.2809
  872SOL     OW 2614   0.655   1.863   2.751 -0.1339 -0.2956 -0.4548
  872SOL    HW1 2615   0.570   1.882   2.699  0.7629 -1.1033  0.3536
  872SOL    HW2 2616   0.629   1.832   2.844 -1.3102  2.4479  0.1044
  873SOL     OW 2617   0.434   2.751   1.956 -0.0206 -0.4437  0.7745
  873SOL    HW1 2618   0.422   2.653   1.986 -1.2244  2.3865  0.4469
  873SOL    HW2 2619   0.389   2.819   2.015  1.6072  0.5459  0.7748
  874SOL     OW 2620   1.280   1.074   2.218 -0.0312  0.3864 -0.2986
  874SOL    HW1 2621   1.257   1.125   2.303 -1.3184  0.1269  0.4145
  874SOL    HW2 2622   1.311   0.976   2.235 -0.0686  0.3746 -0.4904
  875SOL     OW 2623   2.974   2.881   1.163  0.1479  0.1374  0.0386
  875SOL    HW1 2624   3.069   2.917   1.157 -0.3304 -3.6922  1.4732
  875SOL    HW2 2625   2.906   2.955   1.146  2.0867 -2.0101 -4.7966
  876SOL     OW 2626   0.909   1.064   1.155  0.3740  0.1363  0.0204
  876SOL    HW1 2627   0.951   1.110   1.240  1.4168 -0.0326  3.8588
  876SOL    HW2 2628   0.982   1.043   1.084  0.4436 -1.8620 -1.2175
  877SOL     OW 2629   0.380   0.368   1.186 -0.3229 -0.0614 -0.1533
  877SOL    HW1 2630   0.419   0.432   1.256  3.0895 -2.4579  1.7976
  877SOL    HW2 2631   0.424   0.392   1.098  0.0388  1.1536 -1.1282
  878SOL     OW 2632   2.646   1.688   2.820  0.0076 -0.0286 -0.1022
  878SOL    HW1 2633   2.749   1.705   2.834  2.5561  2.2666 -0.8505
  878SOL    HW2 2634   2.616   1.595   2.852 -1.1068 -1.5347  0.2095
  879SOL     OW 2635   2.500   2.032   1.129 -0.4887 -0.9385 -0.2218
  879SOL    HW1 2636   2.562   1.976   1.072  1.8559  2.4455  0.5231
  879SOL    HW2 2637   2.555   2.095   1.191 -1.0593  3.2555  0.9756
  880SOL     OW 2638   0.904   2.308   1.016  0.4033 -0.0550 -0.6516
  880SOL    HW1 2639   0.891   2.405   1.048 -2.7064  1.6530 -2.3894
  880SOL    HW2 2640   0.985   2.263   1.065  4.6913  0.5566  0.7380
  881SOL     OW 2641   1.492   1.903   1.186 -0.5880  0.0260  0.4196
  881SOL    HW1 2642   1.435   1.859   1.121  2.3451 -1.9997  2.2973
  881SOL    HW2 2643   1.448   1.944   1.269  1.3131 -0.7790 -0.8971
  882SOL     OW 2644   2.153   1.245   2.543 -0.3048  0.7139  0.1656
  882SOL    HW1 2645   2.158   1.176   2.471 -1.6432  1.6726 -0.0454
  882SOL    HW2 2646   2.112   1.328   2.504 -0.0938 -2.4427 -1.9780
  883SOL     OW 2647   1.186   0.384   0.668  0.1643  0.9074  0.2425
  883SOL    HW1 2648   1.128   0.463   0.699  3.3662  2.2192  1.5732
  883SOL    HW2 2649   1.170   0.297   0.718  0.1643  1.7123 -1.1227
  884SOL     OW 2650   0.109   3.078   0.832 -0.7316 -0.1165  0.5408
  884SOL    HW1 2651   0.189   3.022   0.803  0.1571 -1.0268 -0.9710
  884SOL    HW2 2652   0.140   0.059   0.876  2.4729  1.3050  0.8115
  885SOL     OW 2653   1.170   1.145   1.681 -0.1199 -0.0005 -0.0477
  885SOL    HW1 2654   1.173   1.066   1.621 -1.0072  0.3630  1.6855
  885SOL    HW2 2655   1.122   1.127   1.768 -0.2165 -0.8743 -0.6985
  886SOL     OW 2656   1.168   0.827   2.955 -0.3087  0.3097  0.0219
  886SOL    HW1 2657   1.103   0.902   2.964  1.0823 -3.7250  1.0196
  886SOL    HW2 2658   1.226   0.832   2.872  2.0345 -0.6719  1.2467
  887SOL     OW 2659   1.830   0.286   0.782  0.1414  0.5618 -0.1574
  887SOL    HW1 2660   1.860   0.191   0.797  3.0875 -0.4645 -1.6176
  887SOL    HW2 2661   1.854   0.348   0.858 -0.2428  0.2249 -0.1975
  888SOL     OW 2662   2.430   1.352   1.769 -0.5463  0.0831 -0.1331
  888SOL    HW1 2663   2.515   1.408   1.785  0.1986 -1.1483  2.2914
  888SOL    HW2 2664   2.451   1.251   1.775  0.8625 -1.1081 -1.8858
  889SOL     OW 2665   0.037   2.173   1.279 -0.4026 -0.4934 -0.0180
  889SOL    HW1 2666   0.016   2.262   1.232  1.7206 -1.4555  0.0283
  889SOL    HW2 2667   3.057   2.127   1.298  1.5602 -1.7187  0.7545
  890SOL     OW 2668   1.284   2.118   0.676 -0.6218  0.7391 -0.3964
  890SOL    HW1 2669   1.379   2.147   0.662 -0.1348 -0.6357  2.2649
  890SOL    HW2 2670   1.218   2.172   0.626  2.8327  2.9861  0.8014
  891SOL     OW 2671   2.651   0.529   2.177 -0.0384 -0.6712  0.5166
  891SOL    HW1 2672   2.648   0.596   2.257  0.0194  0.3810  2.6853
  891SOL    HW2 2673   2.609   0.438   2.203  0.8620  0.0642 -0.3757
  892SOL     OW 2674   0.311   2.591   1.543 -0.5989 -0.1192  0.6881
  892SOL    HW1 2675   0.278   2.603   1.451 -0.2921  0.3052  0.6484
  892SOL    HW2 2676   0.312   2.680   1.599 -2.2677 -2.2754 -0.2394
  893SOL     OW 2677   1.141   0.560   2.045 -0.4276  0.3593 -0.0658
  893SOL    HW1 2678   1.097   0.651   2.018 -2.5467  1.8623  1.4704
  893SOL    HW2 2679   1.241   0.574   2.056  1.4118 -2.0466 -2.2189
  894SOL     OW 2680   2.843   0.193   0.905 -0.0516  0.0094  0.1087
  894SOL    HW1 2681   2.884   0.179   0.997 -0.2116 -0.9366  0.2577
  894SOL    HW2 2682   2.751   0.233   0.907  0.4630  2.2830  1.1625
  895SOL     OW 2683   1.949   1.646   2.414 -0.1492 -0.1182 -0.0495
  895SOL    HW1 2684   1.869   1.597   2.459 -1.3581  0.4131  0.9625
  895SOL    HW2 2685   1.964   1.604   2.321  0.0407 -2.6593  1.7776
  896SOL     OW 2686   1.574   0.639   1.570 -0.1425  0.2358  0.0293
  896SOL    HW1 2687   1.639   0.570   1.536  1.4136  1.8301  1.6892
  896SOL    HW2 2688   1.519   0.682   1.493  0.8910 -1.3803  0.8496
  897SOL     OW 2689   0.696   1.772   1.831 -0.6249  0.2508  0.1506
  897SOL    HW1 2690   0.794   1.790   1.853  1.2213 -2.0501 -0.5981
  897SOL    HW2 2691   0.703   1.705   1.755 -1.1724  0.5720 -0.0801
  898SOL     OW 2692   1.762   1.863   2.200  0.1078 -0.2826 -0.2659
  898SOL    HW1 2693   1.685   1.849   2.268  2.0099  1.6318  2.4198
  898SOL    HW2 2694   1.830   1.926   2.241 -2.6988 -0.1759  1.1578
  899SOL     OW 2695   2.061   2.102   0.564  0.3721 -0.2498 -0.5189
  899SOL    HW1 2696   2.090   2.119   0.662 -0.7235 -0.9737 -0.5786
  899SOL    HW2 2697   2.057   2.001   0.551  0.9951 -4.7033 -3.0399
  900SOL     OW 2698   1.161   0.190   2.667 -0.2234  0.1427 -0.0104
  900SOL    HW1 2699   1.134   0.114   2.727 -0.8542 -0.1601 -0.1060
  900SOL    HW2 2700   1.077   0.225   2.618 -0.0141  0.5342  1.3838
  901SOL     OW 2701   1.154   1.478   2.254  0.1548  0.3631  0.0298
  901SOL    HW1 2702   1.083   1.551   2.266 -1.5188 -0.7578  0.3250
  901SOL    HW2 2703   1.244   1.504   2.290 -0.9748 -0.3699  1.4137
  902SOL     OW 2704   1.932   0.438   0.095  0.0715 -0.8651  0.1743
  902SOL    HW1 2705   1.956   0.436   3.105  0.3889 -0.7081 -0.1522
  902SOL    HW2 2706   1.831   0.424   0.107 -0.6670  0.0166 -0.0310
  903SOL     OW 2707   2.143   0.797   2.489 -0.2829 -0.0630 -0.1849
  903SOL    HW1 2708   2.073   0.853   2.439  1.9514  0.4001 -0.4691
  903SOL    HW2 2709   2.206   0.754   2.417 -3.4327  0.5545  0.5464
  904SOL     OW 2710   1.941   1.117   1.667  0.5248 -0.0592  0.3412
  904SOL    HW1 2711   1.952   1.055   1.589  2.4509  0.9380 -1.2929
  904SOL    HW2 2712   1.968   1.072   1.753 -0.7426  1.6291 -1.0830
  905SOL     OW 2713   2.132   0.480   0.915 -0.3974 -0.0013 -0.2721
  905SOL    HW1 2714   2.174   0.496   0.825  3.6281  1.6177  1.0633
  905SOL    HW2 2715   2.180   0.535   0.984 -2.1236  1.8950  2.2958
  906SOL     OW 2716   2.618   1.511   0.431  0.3303  0.6687  0.2668
  906SOL    HW1 2717   2.719   1.487   0.432  0.2995  0.2417 -0.1135
  906SOL    HW2 2718   2.599   1.605   0.459  0.3449 -2.1104 -3.6955
  907SOL     OW 2719   1.330   3.082   0.518 -0.0104 -0.1744  0.4851
  907SOL    HW1 2720   1.374   0.005   0.603 -2.0647  0.1774  0.1337
  907SOL    HW2 2721   1.372   0.022   0.439  1.7339  0.5595 -0.2616
  908SOL     OW 2722   1.574   2.277   2.099  0.4323 -0.6238  0.6626
  908SOL    HW1 2723   1.540   2.333   2.179  0.0379  1.5789  3.5680
  908SOL    HW2 2724   1.663   2.308   2.069 -2.2772 -0.5463  1.4165
  909SOL     OW 2725   2.332   0.472   1.900  0.1724 -0.3234  0.5990
  909SOL    HW1 2726   2.236   0.505   1.902 -0.3925  1.3339 -1.3264
  909SOL    HW2 2727   2.381   0.492   1.815  1.4496 -1.1784  1.8201
  910SOL     OW 2728   1.431   0.132   2.640  0.0297  0.2413 -0.2910
  910SOL    HW1 2729   1.329   0.113   2.644  1.4862 -2.6184  0.2835
  910SOL    HW2 2730   1.461   0.182   2.725 -0.1939 -0.1953  3.3794
  911SOL     OW 2731   2.598   0.914   2.719 -0.0802  0.8836  0.0261
  911SOL    HW1 2732   2.567   0.818   2.740 -0.8445 -0.4641  0.0950
  911SOL    HW2 2733   2.684   0.940   2.761 -2.4916  0.2320 -0.4915
  912SOL     OW 2734   2.931   2.447   1.305 -0.5164  0.0981  0.2782
  912SOL    HW1 2735   2.833   2.472   1.297 -1.2858  0.6855  1.2467
  912SOL    HW2 2736   2.954   2.427   1.404 -2.7366  0.6832  1.5865
  913SOL     OW 2737   2.670   1.793   2.343 -0.5520 -0.2235  0.5783
  913SOL    HW1 2738   2.650   1.771   2.444  0.1226 -2.1867  3.6078
  913SOL    HW2 2739   2.628   1.883   2.319  0.9402 -0.1786  0.6042
  914SOL     OW 2740   2.303   1.396   0.758 -0.2312  0.3021 -0.5578
  914SOL    HW1 2741   2.236   1.418   0.685 -1.1743  1.5760 -1.1524
  914SOL    HW2 2742   2.312   1.299   0.777  0.3567  2.3420  1.0663
  915SOL     OW 2743   0.801   2.593   2.018  0.1150 -0.3779  0.1249
  915SOL    HW1 2744   0.758   2.500   2.013 -1.8510  0.0434  1.6235
  915SOL    HW2 2745   0.751   2.646   1.949 -0.0047  2.2924 -0.0167
  916SOL     OW 2746   0.501   2.530   0.890 -0.5518 -0.3590  0.7728
  916SOL    HW1 2747   0.508   2.478   0.977  1.6052 -1.6549  2.3364
  916SOL    HW2 2748   0.403   2.539   0.858 -2.4666  3.1077 -2.2684
  917SOL     OW 2749   2.523   0.661   2.755  0.8933 -0.6738 -0.1377
  917SOL    HW1 2750   2.433   0.623   2.736  0.0827 -0.6756  1.8142
  917SOL    HW2 2751   2.585   0.642   2.672  1.4580  0.2741 -2.5091
  918SOL     OW 2752   1.655   2.403   2.523  0.0464 -0.7289 -0.4656
  918SOL    HW1 2753   1.697   2.493   2.552  1.9276  0.1576 -0.3369
  918SOL    HW2 2754   1.707   2.331   2.569 -1.2870 -1.2472  0.6298
  919SOL     OW 2755   1.810   2.126   0.896  0.0301  0.1922 -0.2820
  919SOL    HW1 2756   1.741   2.197   0.854  1.3021  3.2985 -2.0779
  919SOL    HW2 2757   1.881   2.106   0.825 -1.7545 -0.8406 -1.3783
  920SOL     OW 2758   1.345   0.366   2.350 -0.2127 -0.3278 -0.4531
  920SOL    HW1 2759   1.394   0.278   2.361 -0.6118  1.3450 -0.3721
  920SOL    HW2 2760   1.355   0.429   2.428  0.0924 -2.6543 -0.7934
  921SOL     OW 2761   0.301   0.688   2.597 -0.4856 -0.1584  0.0951
  921SOL    HW1 2762   0.286   0.786   2.568 -1.4842  1.3196  0.1987
  921SOL    HW2 2763   0.309   0.629   2.513  1.4104  2.6001  0.6932
  922SOL     OW 2764   2.904   2.070   1.338 -0.2350 -0.2323  0.1283
  922SOL    HW1 2765   2.882   2.022   1.423 -1.3744 -0.0865 -0.2964
  922SOL    HW2 2766   2.819   2.106   1.304 -2.4149 -0.6483 -1.0078
  923SOL     OW 2767   3.079   1.885   2.492 -0.4975  0.1319 -0.7556
  923SOL    HW1 2768   3.052   1.885   2.395  0.5116  2.2303  0.0935
  923SOL    HW2 2769   2.992   1.901   2.537 -0.0822  3.0085 -1.0481
  924SOL     OW 2770   1.384   0.339   2.077  0.1615 -0.5986 -0.0818
  924SOL    HW1 2771   1.426   0.247   2.057  0.2915  0.8122  0.3686
  924SOL    HW2 2772   1.360   0.344   2.177  0.3368 -1.8026 -1.5336
  925SOL     OW 2773   3.101   1.053   0.580  0.4157 -0.0723 -0.1110
  925SOL    HW1 2774   0.064   1.123   0.599  0.0529 -1.4603  2.3896
  925SOL    HW2 2775   3.081   0.994   0.661 -1.0306 -2.7463  0.0001
  926SOL     OW 2776   2.255   0.215   1.153 -0.6202  0.4481  0.1739
  926SOL    HW1 2777   2.332   0.158   1.118  1.8991 -1.2152 -2.0528
  926SOL    HW2 2778   2.300   0.295   1.203 -1.2858  1.3280  0.8674
  927SOL     OW 2779   1.390   0.724   0.973  0.1286 -0.0337  0.4692
  927SOL    HW1 2780   1.365   0.811   0.928 -0.0730  0.3194  0.9894
  927SOL    HW2 2781   1.313   0.697   1.033  1.0475  0.5484  1.1822
  928SOL     OW 2782   2.899   0.423   2.159 -0.5006 -0.3276 -0.2164
  928SOL    HW1 2783   2.803   0.447   2.164  0.5588  0.3266  2.2151
  928SOL    HW2 2784   2.955   0.507   2.177 -1.5791 -1.2603  0.5059
  929SOL     OW 2785   2.532   0.617   1.209 -0.1216 -0.0471 -0.1959
  929SOL    HW1 2786   2.470   0.547   1.248 -0.0441 -2.7976  2.1628
  929SOL    HW2 2787   2.548   0.694   1.277  1.8615  0.4223  1.0440
  930SOL     OW 2788   2.032   2.527   1.014  0.5406 -0.4771 -0.2019
  930SOL    HW1 2789   2.020   2.466   0.935 -2.8535  1.1423 -2.6425
  930SOL    HW2 2790   1.957   2.510   1.078  2.0213 -0.6020 -1.5387
  931SOL     OW 2791   1.948   0.952   1.126  0.1151  0.2515 -0.8627
  931SOL    HW1 2792   1.935   1.051   1.123 -0.8799 -1.8512 -0.3871
  931SOL    HW2 2793   2.033   0.936   1.175  0.0113 -0.9188 -0.8058
  932SOL     OW 2794   3.084   0.823   1.637 -0.0249  0.0461 -0.2163
  932SOL    HW1 2795   3.037   0.734   1.654 -0.8558 -0.1376 -0.3178
  932SOL    HW2 2796   0.076   0.812   1.656  1.8910  1.4137  1.1371
  933SOL     OW 2797   1.898   1.642   2.130 -0.7498 -0.1088 -0.3108
  933SOL    HW1 2798   1.973   1.652   2.064  1.3574 -3.7170  0.6823
  933SOL    HW2 2799   1.851   1.725   2.153 -0.2052 -3.2732  1.6461
  934SOL     OW 2800   1.504   2.755   1.876  0.1459  0.2054  0.0712
  934SOL    HW1 2801   1.525   2.739   1.780 -1.8925  0.3410  1.3555
  934SOL    HW2 2802   1.433   2.819   1.886  1.7414 -1.1044 -1.0093
  935SOL     OW 2803   3.048   0.976   1.393  0.5924 -0.1184 -0.0687
  935SOL    HW1 2804   3.100   1.064   1.373  0.7183 -1.2463  0.5577
  935SOL    HW2 2805   3.094   0.913   1.457  0.5371  0.9742  1.3663
  936SOL     OW 2806   2.761   0.509   1.464  0.5138 -0.1521 -0.2121
  936SOL    HW1 2807   2.704   0.578   1.506  0.5250  0.0331 -1.4743
  936SOL    HW2 2808   2.832   0.559   1.413  0.8697 -0.1781  2.2343
  937SOL     OW 2809   0.846   0.156   1.357 -0.2339  0.4038 -0.1254
  937SOL    HW1 2810   0.807   0.225   1.295  1.3090 -0.4054 -0.7637
  937SOL    HW2 2811   0.786   0.145   1.440 -4.6331 -0.2772 -2.7624
  938SOL     OW 2812   0.251   2.426   0.783  0.0383  0.3265 -0.9751
  938SOL    HW1 2813   0.184   2.358   0.819  1.3517 -3.0459 -0.0478
  938SOL    HW2 2814   0.241   2.446   0.685 -0.4010 -2.3186 -0.6426
  939SOL     OW 2815   2.807   2.351   2.719 -0.1684 -0.0219  0.3114
  939SOL    HW1 2816   2.871   2.408   2.663 -2.6273 -1.1451 -1.8137
  939SOL    HW2 2817   2.777   2.409   2.799  2.0294 -2.4226  3.4633
  940SOL     OW 2818   1.958   1.978   3.041  0.2322 -0.3895 -0.0326
  940SOL    HW1 2819   1.996   2.045   2.972 -0.5047 -0.7854 -1.3406
  940SOL    HW2 2820   1.957   1.882   3.001  0.2552 -3.1234 -2.0747
  941SOL     OW 2821   1.892   2.720   0.813 -0.1404  0.0915  0.0906
  941SOL    HW1 2822   1.921   2.623   0.812  1.2851  0.6588  0.2855
  941SOL    HW2 2823   1.966   2.772   0.757  3.7875  2.7507 -4.4558
  942SOL     OW 2824   1.838   1.644   1.165 -0.0641 -0.1145  0.5186
  942SOL    HW1 2825   1.882   1.657   1.076  1.2487 -0.7103  1.1732
  942SOL    HW2 2826   1.906   1.603   1.226 -0.2997  1.0648 -0.0692
  943SOL     OW 2827   1.871   0.857   1.845  0.7921 -0.1056  0.1399
  943SOL    HW1 2828   1.792   0.883   1.789  0.7007  0.0899  0.1569
  943SOL    HW2 2829   1.909   0.770   1.812  0.0118  2.6327 -0.6023
  944SOL     OW 2830   1.398   0.896   1.727 -0.0283 -0.2747 -0.4198
  944SOL    HW1 2831   1.418   0.943   1.814 -3.4156  0.4740 -3.0306
  944SOL    HW2 2832   1.435   0.950   1.644  0.2728 -2.5150  0.7171
  945SOL     OW 2833   2.758   2.769   1.283  0.1502 -0.1638  0.3025
  945SOL    HW1 2834   2.691   2.846   1.307 -1.1753  1.3595 -0.0266
  945SOL    HW2 2835   2.843   2.801   1.232  1.5641 -1.8786 -1.2152
  946SOL     OW 2836   0.621   1.818   0.795 -0.6033 -0.3775 -0.2275
  946SOL    HW1 2837   0.681   1.747   0.836  1.1235 -0.5272 -0.2919
  946SOL    HW2 2838   0.668   1.900   0.760 -0.2653  1.4067 -0.8663
  947SOL     OW 2839   0.907   2.584   1.080  0.1485  0.0954  0.4742
  947SOL    HW1 2840   0.841   2.642   1.029  3.2831 -3.7543 -0.9347
  947SOL    HW2 2841   0.882   2.577   1.179 -1.0640 -0.0240  0.8049
  948SOL     OW 2842   0.279   1.776   1.667 -0.6274  0.5493  0.1978
  948SOL    HW1 2843   0.253   1.695   1.610 -0.1146  0.7508  0.0033
  948SOL    HW2 2844   0.218   1.856   1.639  0.4519  2.6927  1.1788
  949SOL     OW 2845   0.551   0.811   1.985  0.5466  0.0939  0.4382
  949SOL    HW1 2846   0.638   0.816   1.940 -2.5408 -1.5947  0.0894
  949SOL    HW2 2847   0.556   0.829   2.083 -0.8466 -0.6184 -1.9786
  950SOL     OW 2848   0.379   0.756   1.252  0.0532 -0.4148 -0.3388
  950SOL    HW1 2849   0.312   0.743   1.329  0.4819 -0.8182  1.2715
  950SOL    HW2 2850   0.380   0.853   1.218 -0.5711  0.9161  2.5597
  951SOL     OW 2851   1.029   1.866   2.148 -0.0518 -0.3140 -0.0488
  951SOL    HW1 2852   0.993   1.886   2.057 -0.0498 -2.0846  1.2968
  951SOL    HW2 2853   1.130   1.869   2.150 -3.2080  0.6122  0.3713
  952SOL     OW 2854   1.279   1.565   0.111  0.2630 -0.0315  0.9854
  952SOL    HW1 2855   1.304   1.596   0.204 -2.2932 -0.2599 -1.3343
  952SOL    HW2 2856   1.349   1.499   0.078  0.6520 -1.1217 -1.8583
  953SOL     OW 2857   0.969   0.007   2.768 -0.2545  0.2853  0.1969
  953SOL    HW1 2858   0.875   3.104   2.804 -2.2632  0.4536 -0.3952
  953SOL    HW2 2859   1.034   3.069   2.831  1.5571  0.9169 -3.3848
  954SOL     OW 2860   1.767   1.586   0.135 -0.3223 -0.0796  0.2946
  954SOL    HW1 2861   1.732   1.496   0.176  0.4131 -2.1142 -1.1404
  954SOL    HW2 2862   1.866   1.592   0.165  2.4496 -3.9138 -0.4527
  955SOL     OW 2863   0.468   2.661   2.841 -0.5352  0.1125  0.0231
  955SOL    HW1 2864   0.547   2.599   2.836 -2.7389  1.8319 -0.6128
  955SOL    HW2 2865   0.453   2.705   2.750 -1.3015 -0.0952  0.1482
  956SOL     OW 2866   1.459   1.055   1.490  0.1128 -0.0413  0.7507
  956SOL    HW1 2867   1.517   1.017   1.414  1.8561  1.6256 -0.8064
  956SOL    HW2 2868   1.363   1.068   1.451  2.3796 -0.9041 -0.3789
  957SOL     OW 2869   1.698   2.007   1.980 -0.0231  0.1478 -0.6657
  957SOL    HW1 2870   1.738   1.941   2.047  0.2656  0.8818 -0.1665
  957SOL    HW2 2871   1.616   2.054   2.023  0.3636 -1.0114 -0.8712
  958SOL     OW 2872   1.190   2.302   1.451  0.6197 -0.4356  0.8453
  958SOL    HW1 2873   1.191   2.360   1.533 -1.7746 -0.6740 -1.2680
  958SOL    HW2 2874   1.279   2.307   1.399 -2.1160  1.6482  0.6832
  959SOL     OW 2875   1.355   1.259   1.257 -0.0139 -0.2320 -0.2386
  959SOL    HW1 2876   1.390   1.161   1.253 -0.2555 -3.2980 -0.8501
  959SOL    HW2 2877   1.258   1.259   1.286 -0.4598 -4.3659 -1.8346
  960SOL     OW 2878   0.343   1.581   2.993 -0.4393  0.0191  0.0499
  960SOL    HW1 2879   0.293   1.560   3.081 -0.9668  0.1952  1.4594
  960SOL    HW2 2880   0.341   1.500   2.929 -0.0214  1.0075 -0.2102
  961SOL     OW 2881   0.530   1.497   2.085 -0.6038  0.2346  0.2337
  961SOL    HW1 2882   0.557   1.499   2.182  1.6745  0.5620 -0.0253
  961SOL    HW2 2883   0.613   1.486   2.022  0.8955  1.2367 -1.1155
  962SOL     OW 2884   1.330   1.746   0.978 -0.1903 -0.0974  0.4260
  962SOL    HW1 2885   1.427   1.766   0.965 -2.8844 -2.3447 -2.3225
  962SOL    HW2 2886   1.314   1.687   1.062 -0.0645 -3.0111  1.7224
  963SOL     OW 2887   1.521   2.033   2.624  0.2499 -0.0526  0.7601
  963SOL    HW1 2888   1.430   2.086   2.615 -3.7763  2.0339 -3.1589
  963SOL    HW2 2889   1.504   1.945   2.670 -0.7435  2.8379 -2.9392
  964SOL     OW 2890   0.613   0.190   0.228 -0.4771 -0.0119 -0.1673
  964SOL    HW1 2891   0.625   0.242   0.315  1.5107 -0.7766 -1.2484
  964SOL    HW2 2892   0.552   0.108   0.247 -0.6179 -0.0626  0.1541
  965SOL     OW 2893   0.689   2.722   0.975  0.4687  0.0009  0.1560
  965SOL    HW1 2894   0.629   2.657   0.927  0.8938  2.3391  0.6699
  965SOL    HW2 2895   0.661   2.815   0.937 -0.4703  2.1784 -3.5052
  966SOL     OW 2896   0.480   1.811   2.980  0.1741  0.3339  0.2419
  966SOL    HW1 2897   0.431   1.889   3.023 -3.8618 -1.5424  0.5208
  966SOL    HW2 2898   0.431   1.718   2.977 -1.4300 -2.2569  0.3603
  967SOL     OW 2899   0.292   2.930   2.385 -0.5879 -0.6928  0.9861
  967SOL    HW1 2900   0.285   3.026   2.418  0.1045 -3.6064 -0.8246
  967SOL    HW2 2901   0.319   2.925   2.289 -2.8604 -1.1765  0.1341
  968SOL     OW 2902   2.274   0.490   0.450  0.2544  0.3038  0.0830
  968SOL    HW1 2903   2.209   0.525   0.525 -4.1591  0.5210  1.7291
  968SOL    HW2 2904   2.208   0.471   0.372 -0.3109 -1.2688  0.4775
  969SOL     OW 2905   0.021   1.868   1.986 -0.0288  0.5643  0.2735
  969SOL    HW1 2906   0.024   1.964   1.958 -0.3630 -1.7872  0.5388
  969SOL    HW2 2907   0.115   1.824   1.980  0.8005  2.5983 -2.1356
  970SOL     OW 2908   2.596   1.379   1.479  0.0407  0.0956 -0.2335
  970SOL    HW1 2909   2.673   1.317   1.454  1.3146  0.4892 -2.4208
  970SOL    HW2 2910   2.623   1.431   1.564  1.2558  1.1674 -0.7441
  971SOL     OW 2911   2.007   0.186   1.261  0.0488  0.7079 -0.1622
  971SOL    HW1 2912   2.090   0.182   1.203 -0.2580 -2.6328  1.2037
  971SOL    HW2 2913   1.965   0.093   1.288  0.2268 -1.6119  0.0167
  972SOL     OW 2914   0.197   0.007   1.889 -0.8254 -0.0552  0.3588
  972SOL    HW1 2915   0.179   3.035   1.947  1.9399  1.3848  0.3161
  972SOL    HW2 2916   0.190   3.086   1.790  1.2488  0.3996  2.8509
  973SOL     OW 2917   2.791   0.556   0.050 -0.0107  0.2297  0.5395
  973SOL    HW1 2918   2.850   0.628   0.011 -1.2503 -5.1465  0.1345
  973SOL    HW2 2919   2.741   0.508   3.085  2.6844 -2.4372 -1.8905
  974SOL     OW 2920   1.854   1.283   2.371 -0.0076 -0.4924  0.1058
  974SOL    HW1 2921   1.923   1.318   2.304  2.4291  3.1948 -1.2189
  974SOL    HW2 2922   1.768   1.255   2.319 -1.1795 -1.7250 -1.4763
  975SOL     OW 2923   0.181   3.014   1.648 -0.4061  0.6671 -0.1989
  975SOL    HW1 2924   0.214   3.054   1.560  1.5283  0.9965 -0.8621
  975SOL    HW2 2925   0.225   2.919   1.655  1.1736  0.0617  0.1250
  976SOL     OW 2926   0.355   2.040   2.002 -0.3201  0.3163 -0.4500
  976SOL    HW1 2927   0.431   2.049   1.934  3.7191 -2.6485 -0.8315
  976SOL    HW2 2928   0.353   1.947   2.038  1.2723  2.9218  1.7647
  977SOL     OW 2929   1.002   2.839   0.299  0.3560 -0.0468  0.2613
  977SOL    HW1 2930   1.091   2.832   0.346 -0.7342 -1.3272 -2.1297
  977SOL    HW2 2931   0.938   2.766   0.334  3.2502  2.2256 -2.1082
  978SOL     OW 2932   0.304   2.000   2.754 -0.2731  0.7133 -0.3618
  978SOL    HW1 2933   0.269   2.022   2.660  0.0339 -1.1710  0.3776
  978SOL    HW2 2934   0.283   1.900   2.779  2.4243 -3.3450  1.2064
  979SOL     OW 2935   1.618   2.280   1.128 -0.5714  0.0608  0.7993
  979SOL    HW1 2936   1.659   2.372   1.135  0.9882 -0.3562 -0.6999
  979SOL    HW2 2937   1.691   2.206   1.139  1.2820 -0.0156  2.1182
  980SOL     OW 2938   0.906   1.771   2.658  0.4892  0.0655  0.3451
  980SOL    HW1 2939   0.808   1.797   2.682  1.6708  0.1096  0.3159
  980SOL    HW2 2940   0.952   1.739   2.741 -2.1819  0.4026  1.9618
  981SOL     OW 2941   2.329   2.969   2.453  0.1780  0.0371 -0.1039
  981SOL    HW1 2942   2.379   3.011   2.377  0.4917  0.6915  0.9078
  981SOL    HW2 2943   2.396   2.958   2.530  3.2050 -0.6633 -0.8167
  982SOL     OW 2944   2.975   0.223   2.770 -0.1093 -0.8038  0.4568
  982SOL    HW1 2945   2.958   0.187   2.674 -0.1818  0.8833 -2.4129
  982SOL    HW2 2946   2.964   0.325   2.766  0.1864  3.2529  2.5066
  983SOL     OW 2947   2.127   1.596   1.974  0.5089  0.1932  0.7350
  983SOL    HW1 2948   2.178   1.508   1.957  2.4837 -2.6290  0.1763
  983SOL    HW2 2949   2.071   1.621   1.887  0.7153 -2.7669 -1.6021
  984SOL     OW 2950   1.218   0.719   1.776  0.2931  0.4029  0.0733
  984SOL    HW1 2951   1.190   0.756   1.868  0.6478 -0.6353  0.1388
  984SOL    HW2 2952   1.283   0.782   1.733  0.1994 -1.0474  1.7648
  985SOL     OW 2953   1.608   1.577   1.934  0.4027  0.1344  0.7062
  985SOL    HW1 2954   1.680   1.568   2.002  1.1357 -0.1753 -0.7322
  985SOL    HW2 2955   1.645   1.641   1.861 -0.8476  1.0673  1.6240
  986SOL     OW 2956   1.720   0.361   1.953  0.3591 -0.8812 -0.0950
  986SOL    HW1 2957   1.798   0.415   1.995  1.9664 -2.0814  0.7084
  986SOL    HW2 2958   1.664   0.428   1.892 -2.1111  1.2137 -2.1722
  987SOL     OW 2959   2.112   0.622   1.771  0.5476  0.9695 -0.2182
  987SOL    HW1 2960   2.051   0.559   1.818  0.0759  1.0898  0.8182
  987SOL    HW2 2961   2.117   0.605   1.668 -0.9511  2.8655  1.3475
  988SOL     OW 2962   2.743   0.644   1.971 -0.5214 -0.1049 -0.0447
  988SOL    HW1 2963   2.707   0.604   2.058  2.5755  1.3128 -0.4605
  988SOL    HW2 2964   2.731   0.582   1.887 -3.1137 -1.5587  0.5862
  989SOL     OW 2965   2.111   2.131   2.900 -0.0294  0.1072  0.0824
  989SOL    HW1 2966   2.155   2.139   2.806 -0.4148  1.0546 -1.7684
  989SOL    HW2 2967   2.092   2.221   2.940  0.2259  1.1584  0.3870
  990SOL     OW 2968   1.243   0.428   2.771  0.2451  0.0990  0.2734
  990SOL    HW1 2969   1.215   0.336   2.735 -2.2404 -0.2274  0.8629
  990SOL    HW2 2970   1.161   0.491   2.768  0.5125  0.4337  2.1217
  991SOL     OW 2971   1.257   0.878   0.375  0.4266  0.1999  0.2454
  991SOL    HW1 2972   1.262   0.978   0.378 -0.1356 -0.8574  0.4214
  991SOL    HW2 2973   1.308   0.841   0.296  0.0383  0.1758  1.2059
  992SOL     OW 2974   2.421   1.856   2.845 -0.2127  0.0953 -0.8084
  992SOL    HW1 2975   2.510   1.813   2.839  0.9735 -1.5853 -0.1425
  992SOL    HW2 2976   2.415   1.932   2.779  1.4864  0.6260  2.5288
  993SOL     OW 2977   0.299   0.279   0.206 -0.0599 -0.0454 -0.1732
  993SOL    HW1 2978   0.364   0.355   0.187  0.9086 -0.2024 -0.2731
  993SOL    HW2 2979   0.251   0.291   0.296 -4.0971 -0.6131  3.3255
  994SOL     OW 2980   0.496   2.188   2.208  0.0407  0.1444  0.2867
  994SOL    HW1 2981   0.438   2.172   2.127  0.6832  1.7035  0.1195
  994SOL    HW2 2982   0.544   2.104   2.231  1.1683  4.6673 -1.9908
  995SOL     OW 2983   1.990   1.395   3.039  0.0456  0.0870 -0.0092
  995SOL    HW1 2984   1.885   1.396   3.047 -3.0315  1.3277 -1.9495
  995SOL    HW2 2985   2.030   1.322   2.981 -0.8044  1.2333  3.3232
  996SOL     OW 2986   1.736   1.642   2.754 -0.4654 -0.0110 -0.1303
  996SOL    HW1 2987   1.746   1.594   2.662 -1.0835 -0.9744 -0.6611
  996SOL    HW2 2988   1.647   1.689   2.758  1.5996  0.2097 -2.3199
  997SOL     OW 2989   2.239   1.394   1.537 -0.3781  0.2596 -0.3864
  997SOL    HW1 2990   2.313   1.403   1.609  2.8060  1.0111 -0.0817
  997SOL    HW2 2991   2.271   1.450   1.457 -0.2314  3.5387 -3.7173
  998SOL     OW 2992   2.654   1.314   3.108 -0.1509  0.4013 -0.1849
  998SOL    HW1 2993   2.584   1.258   0.052  0.4579  1.1413 -0.8048
  998SOL    HW2 2994   2.743   1.316   0.051  0.3226  1.7092  3.4881
  999SOL     OW 2995   2.831   2.428   0.386  0.0978  0.1192 -0.7764
  999SOL    HW1 2996   2.730   2.415   0.366 -0.0264  2.1921  1.4513
  999SOL    HW2 2997   2.881   2.443   0.300  3.6940 -0.3795 -1.9872
 1000SOL     OW 2998   0.598   3.037   1.908 -0.5261 -0.0060 -0.5738
 1000SOL    HW1 2999   0.519   3.008   1.965  0.8785  0.1575 -0.5999
 1000SOL    HW2 3000   0.687   3.031   1.963  2.8778  2.2353  4.4421
   3.10786   3.10786   3.10786
